{
	 "smiles": "OC(=O)CCNC(=O)CC1=CC=CC=C1", 
	 "Tm": 383.15, 
	 "num_atms": 28, 
	 "gaussian": { 
		 "optdone": 1, 
		 "sigma_profile": "yes", 
		 "theory": "DFT", 
		 "functional": "B3LYP", 
		 "basiset": "6-31G**", 
		 "properties": { 
			 "R2extent": 5065.3361, 
			 "electric_dipole_moment_norm": 3.81004453911, 
			 "electric_quadrupole_moment_norm": 16.5941956964, 
			 "total_energy": -707.45869176, 
			 "HOMO_LUMO_gap": 0.2309, 
			 "cosmo_polarized_energy": -20.46, 
			 "cosmo_cavitation_energy": 32.56, 
			 "cosmo_dispersion_energy": -22.94, 
			 "cosmo_repulsion_energy": 1.83, 
			 "cosmo_total_nonelectrostatic_energy": 11.45, 
			 "SMD_solvation_energy": 6.71 
		},
		"coords": [
			{
				"x": 3.6757094963,
				"y": 2.1869787208,
				"z": 2.7835322402,
				"element": "O" 
			},
			{
				"x": 2.5374563025,
				"y": 2.041438712,
				"z": 3.5126408785,
				"element": "C" 
			},
			{
				"x": 2.5417118982,
				"y": 1.610521526,
				"z": 4.6417043219,
				"element": "O" 
			},
			{
				"x": 1.2986843193,
				"y": 2.5021251454,
				"z": 2.7663821827,
				"element": "C" 
			},
			{
				"x": 1.4480634023,
				"y": 2.6447992392,
				"z": 1.2434341832,
				"element": "C" 
			},
			{
				"x": 1.8200878757,
				"y": 1.4126699494,
				"z": 0.5691423619,
				"element": "N" 
			},
			{
				"x": 1.024810705,
				"y": 0.4777789188,
				"z": -0.0478312913,
				"element": "C" 
			},
			{
				"x": 1.5136567375,
				"y": -0.5378124195,
				"z": -0.5214155673,
				"element": "O" 
			},
			{
				"x": -0.4734093427,
				"y": 0.8109350108,
				"z": -0.147608631,
				"element": "C" 
			},
			{
				"x": -1.344160612,
				"y": -0.3526259143,
				"z": -0.563230766,
				"element": "C" 
			},
			{
				"x": -1.1664899729,
				"y": -0.9850602675,
				"z": -1.8017167604,
				"element": "C" 
			},
			{
				"x": -1.9959656083,
				"y": -2.0375125379,
				"z": -2.1851626479,
				"element": "C" 
			},
			{
				"x": -3.0169678521,
				"y": -2.4762275289,
				"z": -1.3381204946,
				"element": "C" 
			},
			{
				"x": -3.2006920644,
				"y": -1.8555850617,
				"z": -0.1030017273,
				"element": "C" 
			},
			{
				"x": -2.3676425353,
				"y": -0.8015589954,
				"z": 0.2786301449,
				"element": "C" 
			},
			{
				"x": 4.4014252541,
				"y": 1.8801486827,
				"z": 3.3534856716,
				"element": "H" 
			},
			{
				"x": 0.5008695811,
				"y": 1.7990592364,
				"z": 3.0242389826,
				"element": "H" 
			},
			{
				"x": 1.0120503455,
				"y": 3.4690604233,
				"z": 3.2011463405,
				"element": "H" 
			},
			{
				"x": 0.5100451418,
				"y": 3.018626126,
				"z": 0.8273652112,
				"element": "H" 
			},
			{
				"x": 2.2099004208,
				"y": 3.3984269549,
				"z": 1.022049947,
				"element": "H" 
			},
			{
				"x": 2.7926652654,
				"y": 1.138583285,
				"z": 0.6243605305,
				"element": "H" 
			},
			{
				"x": -0.8305878663,
				"y": 1.2114068371,
				"z": 0.8070281988,
				"element": "H" 
			},
			{
				"x": -0.5690311389,
				"y": 1.6330021125,
				"z": -0.872240436,
				"element": "H" 
			},
			{
				"x": -0.3646900115,
				"y": -0.6602242507,
				"z": -2.4561853663,
				"element": "H" 
			},
			{
				"x": -1.8435877486,
				"y": -2.5187988197,
				"z": -3.1471920932,
				"element": "H" 
			},
			{
				"x": -3.662578826,
				"y": -3.2962329361,
				"z": -1.6396407638,
				"element": "H" 
			},
			{
				"x": -3.9900514487,
				"y": -2.1888781584,
				"z": 0.5649436129,
				"element": "H" 
			},
			{
				"x": -2.5167817179,
				"y": -0.32204399,
				"z": 1.2435617368,
				"element": "H" 
			}
		],
		 "valence_orbital": [ 
			{
				"type": "occ",
				"energy": -0.28783,
				"method": "rhf"
			},
			{
				"type": "occ",
				"energy": -0.25258,
				"method": "rhf"
			},
			{
				"type": "occ",
				"energy": -0.25191,
				"method": "rhf"
			},
			{
				"type": "occ",
				"energy": -0.2381,
				"method": "rhf"
			},
			{
				"type": "occ",
				"energy": -0.23577,
				"method": "rhf"
			},
			{
				"type": "unocc",
				"energy": -0.00487,
				"method": "rhf"
			},
			{
				"type": "unocc",
				"energy": 0.0042,
				"method": "rhf"
			},
			{
				"type": "unocc",
				"energy": 0.008,
				"method": "rhf"
			},
			{
				"type": "unocc",
				"energy": 0.02785,
				"method": "rhf"
			},
			{
				"type": "unocc",
				"energy": 0.05664,
				"method": "rhf"
			}
		],
		"cosmo_sigma_profile": { 
			"-0.025": 0.0,
			"-0.024": 0.0,
			"-0.023": 0.0,
			"-0.022": 0.0,
			"-0.021": 0.0,
			"-0.02": 0.0,
			"-0.019": 0.0424576679454,
			"-0.018": 0.68981626501,
			"-0.017": 1.22677001869,
			"-0.016": 0.386467518356,
			"-0.015": 1.02368689931,
			"-0.014": 0.710957334403,
			"-0.013": 0.776174835154,
			"-0.012": 0.632733335048,
			"-0.011": 1.15238126266,
			"-0.01": 1.10955446543,
			"-0.009": 1.17890464303,
			"-0.008": 1.82177468312,
			"-0.007": 10.137308978,
			"-0.006": 19.8244945697,
			"-0.005": 24.7366725229,
			"-0.004": 22.3373722384,
			"-0.003": 24.4820505975,
			"-0.002": 16.5912881058,
			"-0.001": 12.7107190346,
			"0.0": 11.9474074153,
			"0.001": 10.0691318075,
			"0.002": 10.0888889674,
			"0.003": 10.1787413473,
			"0.004": 12.1352048654,
			"0.005": 11.586115969,
			"0.006": 10.8351750776,
			"0.007": 5.35097901022,
			"0.008": 3.62036338842,
			"0.009": 3.08409235441,
			"0.01": 3.41537319869,
			"0.011": 5.95206000018,
			"0.012": 6.99728404084,
			"0.013": 3.7393552646,
			"0.014": 5.63823325804,
			"0.015": 1.03506416009,
			"0.016": 0.0,
			"0.017": 0.0,
			"0.018": 0.0,
			"0.019": 0.0,
			"0.02": 0.0,
			"0.021": 0.0,
			"0.022": 0.0,
			"0.023": 0.0,
			"0.024": 0.0,
			"0.025": 0.0
		}
	}
}
