{
	 "smiles": "C=CCCCCCCCCC=O", 
	 "Tm": 280.15, 
	 "num_atms": 32, 
	 "gaussian": { 
		 "optdone": 1, 
		 "sigma_profile": "yes", 
		 "theory": "DFT", 
		 "functional": "B3LYP", 
		 "basiset": "6-31G**", 
		 "properties": { 
			 "R2extent": 4083.0109, 
			 "electric_dipole_moment_norm": 3.21877122362, 
			 "electric_quadrupole_moment_norm": 14.0756905525, 
			 "total_energy": -506.425399636, 
			 "HOMO_LUMO_gap": 0.22368, 
			 "cosmo_polarized_energy": -7.45, 
			 "cosmo_cavitation_energy": 34.02, 
			 "cosmo_dispersion_energy": -22.41, 
			 "cosmo_repulsion_energy": 1.84, 
			 "cosmo_total_nonelectrostatic_energy": 13.46, 
			 "SMD_solvation_energy": 6.47 
		},
		"coords": [
			{
				"x": 1.71325307,
				"y": -1.4349806194,
				"z": 1.8631343423,
				"element": "C" 
			},
			{
				"x": 2.2079002823,
				"y": -1.1080186704,
				"z": 0.6690247011,
				"element": "C" 
			},
			{
				"x": 1.4744170364,
				"y": -0.3401141863,
				"z": -0.3974076359,
				"element": "C" 
			},
			{
				"x": 1.3068391108,
				"y": -1.152223226,
				"z": -1.6971713874,
				"element": "C" 
			},
			{
				"x": 0.7408869349,
				"y": -0.3887915883,
				"z": -2.9079867349,
				"element": "C" 
			},
			{
				"x": -0.7207838771,
				"y": 0.0985897021,
				"z": -2.796729042,
				"element": "C" 
			},
			{
				"x": -0.9048761501,
				"y": 1.4976937533,
				"z": -2.1852384816,
				"element": "C" 
			},
			{
				"x": -2.3487367979,
				"y": 2.0277250883,
				"z": -2.2470039881,
				"element": "C" 
			},
			{
				"x": -3.4044637361,
				"y": 1.2112454609,
				"z": -1.4771360757,
				"element": "C" 
			},
			{
				"x": -3.1717023162,
				"y": 1.0587518619,
				"z": 0.0463068914,
				"element": "C" 
			},
			{
				"x": -3.1919937067,
				"y": 2.3783477513,
				"z": 0.7835640305,
				"element": "C" 
			},
			{
				"x": -4.075243737,
				"y": 2.7244919274,
				"z": 1.538358067,
				"element": "O" 
			},
			{
				"x": 2.2928833799,
				"y": -1.9981861343,
				"z": 2.5886481257,
				"element": "H" 
			},
			{
				"x": 0.7075337927,
				"y": -1.1473681301,
				"z": 2.1622365757,
				"element": "H" 
			},
			{
				"x": 3.2215292134,
				"y": -1.4217956348,
				"z": 0.4130484718,
				"element": "H" 
			},
			{
				"x": 0.4970889809,
				"y": -0.03103896,
				"z": -0.0095457738,
				"element": "H" 
			},
			{
				"x": 2.0284944093,
				"y": 0.5824540577,
				"z": -0.6280367462,
				"element": "H" 
			},
			{
				"x": 0.6732790744,
				"y": -2.0247567544,
				"z": -1.4887987691,
				"element": "H" 
			},
			{
				"x": 2.2887898561,
				"y": -1.5561197844,
				"z": -1.9790833731,
				"element": "H" 
			},
			{
				"x": 0.8132360655,
				"y": -1.0603043238,
				"z": -3.7725537166,
				"element": "H" 
			},
			{
				"x": 1.3931785774,
				"y": 0.4653340539,
				"z": -3.139863382,
				"element": "H" 
			},
			{
				"x": -1.1590856753,
				"y": 0.1181340271,
				"z": -3.803935419,
				"element": "H" 
			},
			{
				"x": -1.303200011,
				"y": -0.6443679536,
				"z": -2.2348435979,
				"element": "H" 
			},
			{
				"x": -0.2620077497,
				"y": 2.2015815737,
				"z": -2.7304418259,
				"element": "H" 
			},
			{
				"x": -0.5446127017,
				"y": 1.5142068423,
				"z": -1.1499749594,
				"element": "H" 
			},
			{
				"x": -2.3587126396,
				"y": 3.0668773919,
				"z": -1.8944356603,
				"element": "H" 
			},
			{
				"x": -2.6622817894,
				"y": 2.0698485089,
				"z": -3.2987816386,
				"element": "H" 
			},
			{
				"x": -4.3874371135,
				"y": 1.6728775555,
				"z": -1.6304780863,
				"element": "H" 
			},
			{
				"x": -3.4749267097,
				"y": 0.2044219533,
				"z": -1.9044162096,
				"element": "H" 
			},
			{
				"x": -2.2005102143,
				"y": 0.5779882811,
				"z": 0.2266322236,
				"element": "H" 
			},
			{
				"x": -3.952130969,
				"y": 0.4255862698,
				"z": 0.4789138833,
				"element": "H" 
			},
			{
				"x": -2.3259038896,
				"y": 3.0515099053,
				"z": 0.588095191,
				"element": "H" 
			}
		],
		 "valence_orbital": [ 
			{
				"type": "occ",
				"energy": -0.32171,
				"method": "rhf"
			},
			{
				"type": "occ",
				"energy": -0.31518,
				"method": "rhf"
			},
			{
				"type": "occ",
				"energy": -0.31111,
				"method": "rhf"
			},
			{
				"type": "occ",
				"energy": -0.25407,
				"method": "rhf"
			},
			{
				"type": "occ",
				"energy": -0.24733,
				"method": "rhf"
			},
			{
				"type": "unocc",
				"energy": -0.02365,
				"method": "rhf"
			},
			{
				"type": "unocc",
				"energy": 0.02037,
				"method": "rhf"
			},
			{
				"type": "unocc",
				"energy": 0.0628,
				"method": "rhf"
			},
			{
				"type": "unocc",
				"energy": 0.09024,
				"method": "rhf"
			},
			{
				"type": "unocc",
				"energy": 0.09555,
				"method": "rhf"
			}
		],
		"cosmo_sigma_profile": { 
			"-0.025": 0.0,
			"-0.024": 0.0,
			"-0.023": 0.0,
			"-0.022": 0.0,
			"-0.021": 0.0,
			"-0.02": 0.0,
			"-0.019": 0.0,
			"-0.018": 0.0,
			"-0.017": 0.0,
			"-0.016": 0.0,
			"-0.015": 0.0,
			"-0.014": 0.0,
			"-0.013": 0.0,
			"-0.012": 0.0,
			"-0.011": 0.0,
			"-0.01": 0.0,
			"-0.009": 0.0,
			"-0.008": 0.0,
			"-0.007": 0.0,
			"-0.006": 0.848769483936,
			"-0.005": 11.208755503,
			"-0.004": 17.5614898018,
			"-0.003": 26.2661237695,
			"-0.002": 43.0189873705,
			"-0.001": 49.0029093476,
			"0.0": 38.6895774552,
			"0.001": 24.3876505652,
			"0.002": 9.91271743465,
			"0.003": 7.03516807019,
			"0.004": 4.51488287922,
			"0.005": 5.10889428811,
			"0.006": 4.63705140134,
			"0.007": 4.45802881371,
			"0.008": 1.9460514958,
			"0.009": 2.71246846558,
			"0.01": 2.67863343094,
			"0.011": 3.87513493162,
			"0.012": 3.9881439029,
			"0.013": 1.4276322511,
			"0.014": 0.0,
			"0.015": 0.0,
			"0.016": 0.0,
			"0.017": 0.0,
			"0.018": 0.0,
			"0.019": 0.0,
			"0.02": 0.0,
			"0.021": 0.0,
			"0.022": 0.0,
			"0.023": 0.0,
			"0.024": 0.0,
			"0.025": 0.0
		}
	}
}
