{
	 "smiles": "O=C1NC2=C(N1)C(=O)NC(=O)N2", 
	 "Tm": 573.15, 
	 "num_atms": 16, 
	 "gaussian": { 
		 "optdone": 1, 
		 "sigma_profile": "yes", 
		 "theory": "DFT", 
		 "functional": "B3LYP", 
		 "basiset": "6-31G**", 
		 "properties": { 
			 "R2extent": 3740.7917, 
			 "electric_dipole_moment_norm": 3.03746611833, 
			 "electric_quadrupole_moment_norm": 21.0052915964, 
			 "total_energy": -637.673617157, 
			 "HOMO_LUMO_gap": 0.18348, 
			 "cosmo_polarized_energy": -27.38, 
			 "cosmo_cavitation_energy": 21.73, 
			 "cosmo_dispersion_energy": -16.73, 
			 "cosmo_repulsion_energy": 1.35, 
			 "cosmo_total_nonelectrostatic_energy": 6.34, 
			 "SMD_solvation_energy": 6.08 
		},
		"coords": [
			{
				"x": 4.7958979475,
				"y": 0.3010300107,
				"z": -0.8405395823,
				"element": "O" 
			},
			{
				"x": 3.7314017766,
				"y": -0.2752024766,
				"z": -0.940138206,
				"element": "C" 
			},
			{
				"x": 2.9057592055,
				"y": -0.3243479028,
				"z": -2.1012987196,
				"element": "N" 
			},
			{
				"x": 1.7816062501,
				"y": -1.0649639276,
				"z": -1.8486403397,
				"element": "C" 
			},
			{
				"x": 1.8388544125,
				"y": -1.506993286,
				"z": -0.5567318694,
				"element": "C" 
			},
			{
				"x": 3.0314228108,
				"y": -1.0204436287,
				"z": -0.011572745,
				"element": "N" 
			},
			{
				"x": 0.8030500334,
				"y": -2.3150126661,
				"z": 0.0170206923,
				"element": "C" 
			},
			{
				"x": 0.7453847318,
				"y": -2.7658158517,
				"z": 1.1511026755,
				"element": "O" 
			},
			{
				"x": -0.2275109678,
				"y": -2.5602630822,
				"z": -0.9322127503,
				"element": "N" 
			},
			{
				"x": -0.3394270727,
				"y": -2.1399577951,
				"z": -2.2503891226,
				"element": "C" 
			},
			{
				"x": -1.2750951156,
				"y": -2.4117935584,
				"z": -2.9787682577,
				"element": "O" 
			},
			{
				"x": 0.7394472679,
				"y": -1.3572223089,
				"z": -2.6875604871,
				"element": "N" 
			},
			{
				"x": 3.1697121496,
				"y": 0.1415719164,
				"z": -2.9553026807,
				"element": "H" 
			},
			{
				"x": 3.354529155,
				"y": -1.180484173,
				"z": 0.9290709473,
				"element": "H" 
			},
			{
				"x": -0.9993086156,
				"y": -3.1268540675,
				"z": -0.6018618019,
				"element": "H" 
			},
			{
				"x": 0.6881760313,
				"y": -1.0355472024,
				"z": -3.6430777529,
				"element": "H" 
			}
		],
		 "valence_orbital": [ 
			{
				"type": "occ",
				"energy": -0.30777,
				"method": "rhf"
			},
			{
				"type": "occ",
				"energy": -0.29361,
				"method": "rhf"
			},
			{
				"type": "occ",
				"energy": -0.28749,
				"method": "rhf"
			},
			{
				"type": "occ",
				"energy": -0.27469,
				"method": "rhf"
			},
			{
				"type": "occ",
				"energy": -0.2171,
				"method": "rhf"
			},
			{
				"type": "unocc",
				"energy": -0.03362,
				"method": "rhf"
			},
			{
				"type": "unocc",
				"energy": 0.00517,
				"method": "rhf"
			},
			{
				"type": "unocc",
				"energy": 0.0448,
				"method": "rhf"
			},
			{
				"type": "unocc",
				"energy": 0.04496,
				"method": "rhf"
			},
			{
				"type": "unocc",
				"energy": 0.05712,
				"method": "rhf"
			}
		],
		"cosmo_sigma_profile": { 
			"-0.025": 0.0,
			"-0.024": 0.0,
			"-0.023": 0.0,
			"-0.022": 0.0,
			"-0.021": 0.0,
			"-0.02": 0.310953701124,
			"-0.019": 1.13284069073,
			"-0.018": 3.1510108441,
			"-0.017": 3.43642432464,
			"-0.016": 3.86266829942,
			"-0.015": 3.95018012396,
			"-0.014": 3.14924242737,
			"-0.013": 3.01039062514,
			"-0.012": 2.66880332486,
			"-0.011": 2.06245169577,
			"-0.01": 3.55848194747,
			"-0.009": 2.42870472101,
			"-0.008": 2.01526718494,
			"-0.007": 3.66293372042,
			"-0.006": 4.33084364385,
			"-0.005": 4.85700358254,
			"-0.004": 6.1430101789,
			"-0.003": 10.7308074337,
			"-0.002": 15.8086124043,
			"-0.001": 11.5370985029,
			"0.0": 9.74672940387,
			"0.001": 4.86076615257,
			"0.002": 3.69596522675,
			"0.003": 3.79920183331,
			"0.004": 2.78969632331,
			"0.005": 3.71745626992,
			"0.006": 3.42613634704,
			"0.007": 3.6165777225,
			"0.008": 2.22916762739,
			"0.009": 2.1695389599,
			"0.01": 5.06036961725,
			"0.011": 6.09734488593,
			"0.012": 12.1844435059,
			"0.013": 16.1278716671,
			"0.014": 2.63201977521,
			"0.015": 0.0,
			"0.016": 0.0,
			"0.017": 0.0,
			"0.018": 0.0,
			"0.019": 0.0,
			"0.02": 0.0,
			"0.021": 0.0,
			"0.022": 0.0,
			"0.023": 0.0,
			"0.024": 0.0,
			"0.025": 0.0
		}
	}
}
