{
	 "smiles": "NC1=CC=C(OC2=NC=C(Cl)C=C2)C=C1", 
	 "Tm": 344.15, 
	 "num_atms": 24, 
	 "gaussian": { 
		 "optdone": 1, 
		 "sigma_profile": "yes", 
		 "theory": "DFT", 
		 "functional": "B3LYP", 
		 "basiset": "6-31G**", 
		 "properties": { 
			 "R2extent": 5659.4592, 
			 "electric_dipole_moment_norm": 5.38297941757, 
			 "electric_quadrupole_moment_norm": 13.5871378244, 
			 "total_energy": -1069.50295804, 
			 "HOMO_LUMO_gap": 0.17627, 
			 "cosmo_polarized_energy": -13.72, 
			 "cosmo_cavitation_energy": 30.92, 
			 "cosmo_dispersion_energy": -22.66, 
			 "cosmo_repulsion_energy": 1.78, 
			 "cosmo_total_nonelectrostatic_energy": 10.04, 
			 "SMD_solvation_energy": 3.68 
		},
		"coords": [
			{
				"x": 5.2173949098,
				"y": 0.4030105061,
				"z": -1.0827349284,
				"element": "N" 
			},
			{
				"x": 4.0037717636,
				"y": 0.4647732921,
				"z": -0.3967113503,
				"element": "C" 
			},
			{
				"x": 3.1726631123,
				"y": -0.6660173581,
				"z": -0.3026337395,
				"element": "C" 
			},
			{
				"x": 1.9909230825,
				"y": -0.6227561835,
				"z": 0.4327336815,
				"element": "C" 
			},
			{
				"x": 1.6199924902,
				"y": 0.5530991561,
				"z": 1.0834011054,
				"element": "C" 
			},
			{
				"x": 0.4775969415,
				"y": 0.5731031092,
				"z": 1.8818979542,
				"element": "O" 
			},
			{
				"x": -0.7198506526,
				"y": 0.9403892808,
				"z": 1.3387173545,
				"element": "C" 
			},
			{
				"x": -1.7209728917,
				"y": 0.915732889,
				"z": 2.2147605484,
				"element": "N" 
			},
			{
				"x": -2.9397271476,
				"y": 1.257260942,
				"z": 1.7922304017,
				"element": "C" 
			},
			{
				"x": -3.2021235735,
				"y": 1.6364709526,
				"z": 0.4764374776,
				"element": "C" 
			},
			{
				"x": -4.8298627939,
				"y": 2.0735174972,
				"z": -0.0097881941,
				"element": "Cl" 
			},
			{
				"x": -2.1516330359,
				"y": 1.6614743631,
				"z": -0.4401680922,
				"element": "C" 
			},
			{
				"x": -0.8788735776,
				"y": 1.3069357976,
				"z": -0.007773157,
				"element": "C" 
			},
			{
				"x": 2.4325345469,
				"y": 1.6833295763,
				"z": 1.0063658636,
				"element": "C" 
			},
			{
				"x": 3.614191045,
				"y": 1.6398424543,
				"z": 0.2709019105,
				"element": "C" 
			},
			{
				"x": 5.2745639298,
				"y": -0.3075898127,
				"z": -1.7988138355,
				"element": "H" 
			},
			{
				"x": 5.5809491699,
				"y": 1.2905648886,
				"z": -1.4006467813,
				"element": "H" 
			},
			{
				"x": 3.4626455614,
				"y": -1.5873892719,
				"z": -0.8011467013,
				"element": "H" 
			},
			{
				"x": 1.3562775135,
				"y": -1.4995906424,
				"z": 0.512902558,
				"element": "H" 
			},
			{
				"x": -3.7412918096,
				"y": 1.229337666,
				"z": 2.5266058247,
				"element": "H" 
			},
			{
				"x": -2.3264029195,
				"y": 1.9523685783,
				"z": -1.4705851355,
				"element": "H" 
			},
			{
				"x": -0.0371380133,
				"y": 1.3135326867,
				"z": -0.6885262555,
				"element": "H" 
			},
			{
				"x": 2.1389281266,
				"y": 2.5878127209,
				"z": 1.5295643405,
				"element": "H" 
			},
			{
				"x": 4.2492442221,
				"y": 2.5205869117,
				"z": 0.22060915,
				"element": "H" 
			}
		],
		 "valence_orbital": [ 
			{
				"type": "occ",
				"energy": -0.29164,
				"method": "rhf"
			},
			{
				"type": "occ",
				"energy": -0.26774,
				"method": "rhf"
			},
			{
				"type": "occ",
				"energy": -0.26057,
				"method": "rhf"
			},
			{
				"type": "occ",
				"energy": -0.23258,
				"method": "rhf"
			},
			{
				"type": "occ",
				"energy": -0.20908,
				"method": "rhf"
			},
			{
				"type": "unocc",
				"energy": -0.03281,
				"method": "rhf"
			},
			{
				"type": "unocc",
				"energy": -0.00979,
				"method": "rhf"
			},
			{
				"type": "unocc",
				"energy": -0.00554,
				"method": "rhf"
			},
			{
				"type": "unocc",
				"energy": 0.00824,
				"method": "rhf"
			},
			{
				"type": "unocc",
				"energy": 0.03094,
				"method": "rhf"
			}
		],
		"cosmo_sigma_profile": { 
			"-0.025": 0.0,
			"-0.024": 0.0,
			"-0.023": 0.0,
			"-0.022": 0.0,
			"-0.021": 0.0,
			"-0.02": 0.0,
			"-0.019": 0.0,
			"-0.018": 0.0,
			"-0.017": 0.0,
			"-0.016": 0.0,
			"-0.015": 0.0,
			"-0.014": 0.0,
			"-0.013": 0.376935856413,
			"-0.012": 3.07126386657,
			"-0.011": 2.32662844406,
			"-0.01": 3.35450778298,
			"-0.009": 3.86661719965,
			"-0.008": 5.68600171741,
			"-0.007": 9.22934664255,
			"-0.006": 13.4783571041,
			"-0.005": 12.1276401272,
			"-0.004": 13.7968241567,
			"-0.003": 12.3645384223,
			"-0.002": 14.5442402478,
			"-0.001": 15.6190338187,
			"0.0": 21.9550579108,
			"0.001": 23.2491086671,
			"0.002": 16.2003323577,
			"0.003": 16.1273717413,
			"0.004": 21.1156157977,
			"0.005": 15.23098361,
			"0.006": 4.47759991035,
			"0.007": 4.1002018303,
			"0.008": 2.38875432606,
			"0.009": 2.30896359568,
			"0.01": 3.13632583886,
			"0.011": 2.58475929363,
			"0.012": 2.44056746223,
			"0.013": 1.97370974885,
			"0.014": 2.03609154629,
			"0.015": 0.944252266289,
			"0.016": 0.155237101417,
			"0.017": 0.0,
			"0.018": 0.0,
			"0.019": 0.0,
			"0.02": 0.0,
			"0.021": 0.0,
			"0.022": 0.0,
			"0.023": 0.0,
			"0.024": 0.0,
			"0.025": 0.0
		}
	}
}
