{
	 "smiles": "COC(=O)C1=C(C=CC(Cl)=C1)S(Cl)(=O)=O", 
	 "Tm": 348.15, 
	 "num_atms": 21, 
	 "gaussian": { 
		 "optdone": 1, 
		 "sigma_profile": "yes", 
		 "theory": "DFT", 
		 "functional": "B3LYP", 
		 "basiset": "6-31G**", 
		 "properties": { 
			 "R2extent": 5058.9468, 
			 "electric_dipole_moment_norm": 4.67926040844, 
			 "electric_quadrupole_moment_norm": 15.4083812479, 
			 "total_energy": -1927.85996496, 
			 "HOMO_LUMO_gap": 0.19039, 
			 "cosmo_polarized_energy": -12.92, 
			 "cosmo_cavitation_energy": 31.18, 
			 "cosmo_dispersion_energy": -23.04, 
			 "cosmo_repulsion_energy": 1.78, 
			 "cosmo_total_nonelectrostatic_energy": 9.91, 
			 "SMD_solvation_energy": 5.24 
		},
		"coords": [
			{
				"x": 3.8421697447,
				"y": -1.2316163848,
				"z": -2.0745345291,
				"element": "C" 
			},
			{
				"x": 2.89757696,
				"y": -1.5874143892,
				"z": -1.0448013048,
				"element": "O" 
			},
			{
				"x": 1.9201746153,
				"y": -0.6865957782,
				"z": -0.8350614942,
				"element": "C" 
			},
			{
				"x": 1.7982342888,
				"y": 0.3481130443,
				"z": -1.4480932003,
				"element": "O" 
			},
			{
				"x": 0.9585075567,
				"y": -1.1688462543,
				"z": 0.216684315,
				"element": "C" 
			},
			{
				"x": 0.3314282996,
				"y": -0.3207982933,
				"z": 1.148447581,
				"element": "C" 
			},
			{
				"x": -0.6324231931,
				"y": -0.8092387253,
				"z": 2.0313552586,
				"element": "C" 
			},
			{
				"x": -0.9988948228,
				"y": -2.1529625389,
				"z": 1.9964970548,
				"element": "C" 
			},
			{
				"x": -0.369835393,
				"y": -2.999912511,
				"z": 1.0867314906,
				"element": "C" 
			},
			{
				"x": -0.8014819081,
				"y": -4.6924361501,
				"z": 1.0408016966,
				"element": "Cl" 
			},
			{
				"x": 0.6046259892,
				"y": -2.5219273085,
				"z": 0.2106453069,
				"element": "C" 
			},
			{
				"x": 0.8148166974,
				"y": 1.3989897248,
				"z": 1.41952738,
				"element": "S" 
			},
			{
				"x": -0.2606289345,
				"y": 2.4365731044,
				"z": -0.0711968786,
				"element": "Cl" 
			},
			{
				"x": 2.2380161998,
				"y": 1.5599263857,
				"z": 1.1606251681,
				"element": "O" 
			},
			{
				"x": 0.2235082443,
				"y": 1.8231413837,
				"z": 2.684496677,
				"element": "O" 
			},
			{
				"x": 4.3322744362,
				"y": -0.2880901593,
				"z": -1.8255825229,
				"element": "H" 
			},
			{
				"x": 3.3359923001,
				"y": -1.1281381428,
				"z": -3.0371549978,
				"element": "H" 
			},
			{
				"x": 4.563057995,
				"y": -2.0476716958,
				"z": -2.1017754198,
				"element": "H" 
			},
			{
				"x": -1.0799780309,
				"y": -0.1382737162,
				"z": 2.7547040423,
				"element": "H" 
			},
			{
				"x": -1.7511095467,
				"y": -2.5371303205,
				"z": 2.6757112345,
				"element": "H" 
			},
			{
				"x": 1.0886685018,
				"y": -3.194091275,
				"z": -0.4865268577,
				"element": "H" 
			}
		],
		 "valence_orbital": [ 
			{
				"type": "occ",
				"energy": -0.32104,
				"method": "rhf"
			},
			{
				"type": "occ",
				"energy": -0.31093,
				"method": "rhf"
			},
			{
				"type": "occ",
				"energy": -0.30561,
				"method": "rhf"
			},
			{
				"type": "occ",
				"energy": -0.29188,
				"method": "rhf"
			},
			{
				"type": "occ",
				"energy": -0.28507,
				"method": "rhf"
			},
			{
				"type": "unocc",
				"energy": -0.09468,
				"method": "rhf"
			},
			{
				"type": "unocc",
				"energy": -0.06932,
				"method": "rhf"
			},
			{
				"type": "unocc",
				"energy": -0.05446,
				"method": "rhf"
			},
			{
				"type": "unocc",
				"energy": 1e-05,
				"method": "rhf"
			},
			{
				"type": "unocc",
				"energy": 0.01563,
				"method": "rhf"
			}
		],
		"cosmo_sigma_profile": { 
			"-0.025": 0.0,
			"-0.024": 0.0,
			"-0.023": 0.0,
			"-0.022": 0.0,
			"-0.021": 0.0,
			"-0.02": 0.0,
			"-0.019": 0.0,
			"-0.018": 0.0,
			"-0.017": 0.0,
			"-0.016": 0.0,
			"-0.015": 0.0,
			"-0.014": 0.0,
			"-0.013": 0.0,
			"-0.012": 0.0,
			"-0.011": 0.0,
			"-0.01": 0.532705974316,
			"-0.009": 4.49550646829,
			"-0.008": 5.03457993306,
			"-0.007": 7.84318939253,
			"-0.006": 13.4770238201,
			"-0.005": 14.6294486322,
			"-0.004": 17.0805898422,
			"-0.003": 19.3772467508,
			"-0.002": 24.7435611744,
			"-0.001": 25.2514219363,
			"0.0": 14.1149691761,
			"0.001": 15.367264021,
			"0.002": 16.6165438592,
			"0.003": 23.6211384964,
			"0.004": 8.6773448516,
			"0.005": 5.94825511724,
			"0.006": 5.62555935546,
			"0.007": 8.70324265461,
			"0.008": 10.4147765517,
			"0.009": 7.65409092525,
			"0.01": 4.1846171058,
			"0.011": 1.98094795338,
			"0.012": 0.0480707160342,
			"0.013": 0.0,
			"0.014": 0.0,
			"0.015": 0.0,
			"0.016": 0.0,
			"0.017": 0.0,
			"0.018": 0.0,
			"0.019": 0.0,
			"0.02": 0.0,
			"0.021": 0.0,
			"0.022": 0.0,
			"0.023": 0.0,
			"0.024": 0.0,
			"0.025": 0.0
		}
	}
}
