{
	 "smiles": "CC(C)C(CN)C(O)=O", 
	 "Tm": 523.15, 
	 "num_atms": 22, 
	 "gaussian": { 
		 "optdone": 1, 
		 "sigma_profile": "yes", 
		 "theory": "DFT", 
		 "functional": "B3LYP", 
		 "basiset": "6-31G**", 
		 "properties": { 
			 "R2extent": 1467.0943, 
			 "electric_dipole_moment_norm": 1.1569079004, 
			 "electric_quadrupole_moment_norm": 5.55513757525, 
			 "total_energy": -441.693605226, 
			 "HOMO_LUMO_gap": 0.2345, 
			 "cosmo_polarized_energy": -9.28, 
			 "cosmo_cavitation_energy": 23.36, 
			 "cosmo_dispersion_energy": -17.01, 
			 "cosmo_repulsion_energy": 1.42, 
			 "cosmo_total_nonelectrostatic_energy": 7.76, 
			 "SMD_solvation_energy": 4.44 
		},
		"coords": [
			{
				"x": -0.1159939916,
				"y": -1.8922537916,
				"z": 1.580275733,
				"element": "C" 
			},
			{
				"x": -0.6273574189,
				"y": -0.4790235777,
				"z": 1.2592605168,
				"element": "C" 
			},
			{
				"x": -2.0717800297,
				"y": -0.2917276902,
				"z": 1.7490810036,
				"element": "C" 
			},
			{
				"x": -0.469541429,
				"y": -0.0741332566,
				"z": -0.2478410242,
				"element": "C" 
			},
			{
				"x": 0.9036701995,
				"y": 0.5332729309,
				"z": -0.5959371968,
				"element": "C" 
			},
			{
				"x": 2.0182379064,
				"y": -0.371649128,
				"z": -0.310302288,
				"element": "N" 
			},
			{
				"x": -0.8005628055,
				"y": -1.2168332244,
				"z": -1.1909520401,
				"element": "C" 
			},
			{
				"x": -2.1204278991,
				"y": -1.5286939987,
				"z": -1.1876818471,
				"element": "O" 
			},
			{
				"x": -0.0114414136,
				"y": -1.8185415938,
				"z": -1.8932976538,
				"element": "O" 
			},
			{
				"x": 0.9219760542,
				"y": -2.0088148146,
				"z": 1.2643315061,
				"element": "H" 
			},
			{
				"x": -0.7266913187,
				"y": -2.658688373,
				"z": 1.0878671919,
				"element": "H" 
			},
			{
				"x": -0.175335252,
				"y": -2.0754012235,
				"z": 2.6587582524,
				"element": "H" 
			},
			{
				"x": 0.0075203615,
				"y": 0.2290829411,
				"z": 1.8077492877,
				"element": "H" 
			},
			{
				"x": -2.7602856537,
				"y": -0.9541712869,
				"z": 1.2159189536,
				"element": "H" 
			},
			{
				"x": -2.415679077,
				"y": 0.7384871498,
				"z": 1.6016081229,
				"element": "H" 
			},
			{
				"x": -2.1453982719,
				"y": -0.5181446748,
				"z": 2.8183528817,
				"element": "H" 
			},
			{
				"x": -1.2173015787,
				"y": 0.70455138,
				"z": -0.4494397046,
				"element": "H" 
			},
			{
				"x": 1.0271681007,
				"y": 1.4313093057,
				"z": 0.0212990857,
				"element": "H" 
			},
			{
				"x": 0.8658358157,
				"y": 0.8751788442,
				"z": -1.6452090085,
				"element": "H" 
			},
			{
				"x": 2.8990234665,
				"y": 0.1144782042,
				"z": -0.4554196036,
				"element": "H" 
			},
			{
				"x": 1.9832266609,
				"y": -1.1388196362,
				"z": -0.9771369888,
				"element": "H" 
			},
			{
				"x": -2.2190624259,
				"y": -2.2799644858,
				"z": -1.79748518,
				"element": "H" 
			}
		],
		 "valence_orbital": [ 
			{
				"type": "occ",
				"energy": -0.32574,
				"method": "rhf"
			},
			{
				"type": "occ",
				"energy": -0.32048,
				"method": "rhf"
			},
			{
				"type": "occ",
				"energy": -0.31544,
				"method": "rhf"
			},
			{
				"type": "occ",
				"energy": -0.27421,
				"method": "rhf"
			},
			{
				"type": "occ",
				"energy": -0.228,
				"method": "rhf"
			},
			{
				"type": "unocc",
				"energy": 0.0065,
				"method": "rhf"
			},
			{
				"type": "unocc",
				"energy": 0.07416,
				"method": "rhf"
			},
			{
				"type": "unocc",
				"energy": 0.08676,
				"method": "rhf"
			},
			{
				"type": "unocc",
				"energy": 0.11721,
				"method": "rhf"
			},
			{
				"type": "unocc",
				"energy": 0.13113,
				"method": "rhf"
			}
		],
		"cosmo_sigma_profile": { 
			"-0.025": 0.0,
			"-0.024": 0.0,
			"-0.023": 0.0,
			"-0.022": 0.0,
			"-0.021": 0.0,
			"-0.02": 0.0,
			"-0.019": 0.0,
			"-0.018": 0.447372103454,
			"-0.017": 0.956564205919,
			"-0.016": 1.08416981542,
			"-0.015": 0.493485608178,
			"-0.014": 0.812858020953,
			"-0.013": 0.584398348682,
			"-0.012": 0.572315075577,
			"-0.011": 0.846700898302,
			"-0.01": 1.01590035826,
			"-0.009": 2.12149332926,
			"-0.008": 1.22535003793,
			"-0.007": 3.21252560553,
			"-0.006": 3.4594589098,
			"-0.005": 5.96004868657,
			"-0.004": 8.42513748643,
			"-0.003": 18.2392018896,
			"-0.002": 20.9204611365,
			"-0.001": 18.1312574836,
			"0.0": 17.3788081627,
			"0.001": 18.489525484,
			"0.002": 14.0190478874,
			"0.003": 6.86028653692,
			"0.004": 4.81437399573,
			"0.005": 4.86695277004,
			"0.006": 3.80946008484,
			"0.007": 3.68935130751,
			"0.008": 2.91839103671,
			"0.009": 2.26482992443,
			"0.01": 3.48907099528,
			"0.011": 3.93736807605,
			"0.012": 2.32295368001,
			"0.013": 0.813082395357,
			"0.014": 0.895791256405,
			"0.015": 0.417797287327,
			"0.016": 0.451205414576,
			"0.017": 0.0502474487837,
			"0.018": 0.0,
			"0.019": 0.0,
			"0.02": 0.0,
			"0.021": 0.0,
			"0.022": 0.0,
			"0.023": 0.0,
			"0.024": 0.0,
			"0.025": 0.0
		}
	}
}
