{
	 "smiles": "CC1=CC=CO1", 
	 "Tm": 184.95, 
	 "num_atms": 12, 
	 "gaussian": { 
		 "optdone": 1, 
		 "sigma_profile": "yes", 
		 "theory": "DFT", 
		 "functional": "B3LYP", 
		 "basiset": "6-31G**", 
		 "properties": { 
			 "R2extent": 533.2976, 
			 "electric_dipole_moment_norm": 0.553734358696, 
			 "electric_quadrupole_moment_norm": 4.29373997932, 
			 "total_energy": -269.347897904, 
			 "HOMO_LUMO_gap": 0.23545, 
			 "cosmo_polarized_energy": -3.49, 
			 "cosmo_cavitation_energy": 15.59, 
			 "cosmo_dispersion_energy": -11.81, 
			 "cosmo_repulsion_energy": 1.02, 
			 "cosmo_total_nonelectrostatic_energy": 4.8, 
			 "SMD_solvation_energy": 4.0 
		},
		"coords": [
			{
				"x": -1.0865588207,
				"y": 1.3147867553,
				"z": 0.2758165117,
				"element": "C" 
			},
			{
				"x": -0.0710461706,
				"y": 0.2805464027,
				"z": -0.0645047714,
				"element": "C" 
			},
			{
				"x": 1.2912182801,
				"y": 0.240423658,
				"z": -0.0019920258,
				"element": "C" 
			},
			{
				"x": 1.6884187128,
				"y": -1.0544536638,
				"z": -0.478053479,
				"element": "C" 
			},
			{
				"x": 0.5384544997,
				"y": -1.7067563027,
				"z": -0.7950669978,
				"element": "C" 
			},
			{
				"x": -0.5435109473,
				"y": -0.9097111532,
				"z": -0.5500362128,
				"element": "O" 
			},
			{
				"x": -0.589621985,
				"y": 2.2128494317,
				"z": 0.6502906688,
				"element": "H" 
			},
			{
				"x": -1.7796434421,
				"y": 0.9597607665,
				"z": 1.0473753574,
				"element": "H" 
			},
			{
				"x": -1.6853930524,
				"y": 1.594054725,
				"z": -0.5988941509,
				"element": "H" 
			},
			{
				"x": 1.93510189,
				"y": 1.0375516199,
				"z": 0.3419175862,
				"element": "H" 
			},
			{
				"x": 2.6933815553,
				"y": -1.4409632192,
				"z": -0.5694434381,
				"element": "H" 
			},
			{
				"x": 0.3204994803,
				"y": -2.6885890201,
				"z": -1.1857090484,
				"element": "H" 
			}
		],
		 "valence_orbital": [ 
			{
				"type": "occ",
				"energy": -0.3963,
				"method": "rhf"
			},
			{
				"type": "occ",
				"energy": -0.37939,
				"method": "rhf"
			},
			{
				"type": "occ",
				"energy": -0.35661,
				"method": "rhf"
			},
			{
				"type": "occ",
				"energy": -0.26825,
				"method": "rhf"
			},
			{
				"type": "occ",
				"energy": -0.2126,
				"method": "rhf"
			},
			{
				"type": "unocc",
				"energy": 0.02285,
				"method": "rhf"
			},
			{
				"type": "unocc",
				"energy": 0.08283,
				"method": "rhf"
			},
			{
				"type": "unocc",
				"energy": 0.11147,
				"method": "rhf"
			},
			{
				"type": "unocc",
				"energy": 0.12622,
				"method": "rhf"
			},
			{
				"type": "unocc",
				"energy": 0.14317,
				"method": "rhf"
			}
		],
		"cosmo_sigma_profile": { 
			"-0.025": 0.0,
			"-0.024": 0.0,
			"-0.023": 0.0,
			"-0.022": 0.0,
			"-0.021": 0.0,
			"-0.02": 0.0,
			"-0.019": 0.0,
			"-0.018": 0.0,
			"-0.017": 0.0,
			"-0.016": 0.0,
			"-0.015": 0.0,
			"-0.014": 0.0,
			"-0.013": 0.0,
			"-0.012": 0.0,
			"-0.011": 0.0,
			"-0.01": 0.0,
			"-0.009": 0.137198976684,
			"-0.008": 1.58383896647,
			"-0.007": 1.83725516478,
			"-0.006": 5.6710661672,
			"-0.005": 8.96344397643,
			"-0.004": 10.1201230108,
			"-0.003": 11.4597290087,
			"-0.002": 11.1209969996,
			"-0.001": 12.4298239893,
			"0.0": 9.76542865164,
			"0.001": 6.83107911134,
			"0.002": 6.01431022052,
			"0.003": 7.40352689021,
			"0.004": 8.91392148786,
			"0.005": 7.54913706152,
			"0.006": 7.36434782008,
			"0.007": 4.07193462307,
			"0.008": 1.63542746407,
			"0.009": 1.2984107563,
			"0.01": 0.245495644455,
			"0.011": 0.0,
			"0.012": 0.0,
			"0.013": 0.0,
			"0.014": 0.0,
			"0.015": 0.0,
			"0.016": 0.0,
			"0.017": 0.0,
			"0.018": 0.0,
			"0.019": 0.0,
			"0.02": 0.0,
			"0.021": 0.0,
			"0.022": 0.0,
			"0.023": 0.0,
			"0.024": 0.0,
			"0.025": 0.0
		}
	}
}
