{
	 "smiles": "CN(C)S(=O)(=O)C1=CNC(=O)C=C1", 
	 "Tm": 487.15, 
	 "num_atms": 23, 
	 "gaussian": { 
		 "optdone": 1, 
		 "sigma_profile": "yes", 
		 "theory": "DFT", 
		 "functional": "B3LYP", 
		 "basiset": "6-31G**", 
		 "properties": { 
			 "R2extent": 2824.4862, 
			 "electric_dipole_moment_norm": 3.86058408793, 
			 "electric_quadrupole_moment_norm": 25.1683437568, 
			 "total_energy": -1006.05963251, 
			 "HOMO_LUMO_gap": 0.17641, 
			 "cosmo_polarized_energy": -21.36, 
			 "cosmo_cavitation_energy": 27.94, 
			 "cosmo_dispersion_energy": -20.53, 
			 "cosmo_repulsion_energy": 1.57, 
			 "cosmo_total_nonelectrostatic_energy": 8.98, 
			 "SMD_solvation_energy": 4.33 
		},
		"coords": [
			{
				"x": -0.6459855164,
				"y": 0.3819692812,
				"z": -2.9384565536,
				"element": "C" 
			},
			{
				"x": -0.7646701765,
				"y": 1.2757799456,
				"z": -1.7838414753,
				"element": "N" 
			},
			{
				"x": -2.1336651514,
				"y": 1.5187632067,
				"z": -1.3257034854,
				"element": "C" 
			},
			{
				"x": 0.4038415291,
				"y": 1.1085362357,
				"z": -0.5765227257,
				"element": "S" 
			},
			{
				"x": 1.685892258,
				"y": 0.9655110667,
				"z": -1.2664500451,
				"element": "O" 
			},
			{
				"x": 0.141763297,
				"y": 2.1766967312,
				"z": 0.3914387849,
				"element": "O" 
			},
			{
				"x": 0.0941591261,
				"y": -0.4318931006,
				"z": 0.2685934906,
				"element": "C" 
			},
			{
				"x": -0.6022530955,
				"y": -0.4214635555,
				"z": 1.4471216967,
				"element": "C" 
			},
			{
				"x": -0.8560073418,
				"y": -1.5871940092,
				"z": 2.0897284863,
				"element": "N" 
			},
			{
				"x": -0.4613278515,
				"y": -2.8788423085,
				"z": 1.6470465328,
				"element": "C" 
			},
			{
				"x": -0.7602447069,
				"y": -3.8631332068,
				"z": 2.30806902,
				"element": "O" 
			},
			{
				"x": 0.2958125288,
				"y": -2.847399268,
				"z": 0.4047263723,
				"element": "C" 
			},
			{
				"x": 0.5633081237,
				"y": -1.6817100011,
				"z": -0.2487180086,
				"element": "C" 
			},
			{
				"x": 0.3995638633,
				"y": 0.3142359916,
				"z": -3.2375028862,
				"element": "H" 
			},
			{
				"x": -1.0428133064,
				"y": -0.6259847774,
				"z": -2.7409074984,
				"element": "H" 
			},
			{
				"x": -1.2146241803,
				"y": 0.8196634233,
				"z": -3.7639737134,
				"element": "H" 
			},
			{
				"x": -2.123099807,
				"y": 2.2683093385,
				"z": -0.5349541175,
				"element": "H" 
			},
			{
				"x": -2.6309795303,
				"y": 0.604709981,
				"z": -0.9643713581,
				"element": "H" 
			},
			{
				"x": -2.7071120407,
				"y": 1.912879073,
				"z": -2.1693577024,
				"element": "H" 
			},
			{
				"x": -0.9454388098,
				"y": 0.4970194547,
				"z": 1.9090715031,
				"element": "H" 
			},
			{
				"x": -1.3569913429,
				"y": -1.5865584595,
				"z": 2.9707197137,
				"element": "H" 
			},
			{
				"x": 0.6497387487,
				"y": -3.8034278066,
				"z": 0.0373204237,
				"element": "H" 
			},
			{
				"x": 1.159733383,
				"y": -1.6808672359,
				"z": -1.1555764544,
				"element": "H" 
			}
		],
		 "valence_orbital": [ 
			{
				"type": "occ",
				"energy": -0.31074,
				"method": "rhf"
			},
			{
				"type": "occ",
				"energy": -0.31007,
				"method": "rhf"
			},
			{
				"type": "occ",
				"energy": -0.27205,
				"method": "rhf"
			},
			{
				"type": "occ",
				"energy": -0.26903,
				"method": "rhf"
			},
			{
				"type": "occ",
				"energy": -0.2394,
				"method": "rhf"
			},
			{
				"type": "unocc",
				"energy": -0.06299,
				"method": "rhf"
			},
			{
				"type": "unocc",
				"energy": -0.0255,
				"method": "rhf"
			},
			{
				"type": "unocc",
				"energy": 0.04103,
				"method": "rhf"
			},
			{
				"type": "unocc",
				"energy": 0.07385,
				"method": "rhf"
			},
			{
				"type": "unocc",
				"energy": 0.07592,
				"method": "rhf"
			}
		],
		"cosmo_sigma_profile": { 
			"-0.025": 0.0,
			"-0.024": 0.0,
			"-0.023": 0.0,
			"-0.022": 0.0,
			"-0.021": 0.0,
			"-0.02": 0.0,
			"-0.019": 0.0,
			"-0.018": 0.0,
			"-0.017": 1.05903085272,
			"-0.016": 2.02935138905,
			"-0.015": 1.05222499187,
			"-0.014": 1.18373145511,
			"-0.013": 1.16854133112,
			"-0.012": 1.59640112808,
			"-0.011": 1.65112170684,
			"-0.01": 2.06157751851,
			"-0.009": 1.60091105139,
			"-0.008": 3.63549237969,
			"-0.007": 5.56574724585,
			"-0.006": 11.1787662782,
			"-0.005": 16.2751249355,
			"-0.004": 23.2253260872,
			"-0.003": 23.3221773579,
			"-0.002": 21.2190120123,
			"-0.001": 12.1090390639,
			"0.0": 9.69202866686,
			"0.001": 8.33711671875,
			"0.002": 6.62801769466,
			"0.003": 4.78085551827,
			"0.004": 4.4923470653,
			"0.005": 5.49202845616,
			"0.006": 4.44301130791,
			"0.007": 5.87305519967,
			"0.008": 6.08347212871,
			"0.009": 4.66675388963,
			"0.01": 7.63757680168,
			"0.011": 9.48887167626,
			"0.012": 4.73922786429,
			"0.013": 5.57782944978,
			"0.014": 3.63709525109,
			"0.015": 0.318732508567,
			"0.016": 0.0,
			"0.017": 0.0,
			"0.018": 0.0,
			"0.019": 0.0,
			"0.02": 0.0,
			"0.021": 0.0,
			"0.022": 0.0,
			"0.023": 0.0,
			"0.024": 0.0,
			"0.025": 0.0
		}
	}
}
