{
	 "smiles": "NCC1=CC=CC=C1SC1=CC=CC=C1CO", 
	 "Tm": 370.15, 
	 "num_atms": 32, 
	 "gaussian": { 
		 "optdone": 1, 
		 "sigma_profile": "yes", 
		 "theory": "DFT", 
		 "functional": "B3LYP", 
		 "basiset": "6-31G**", 
		 "properties": { 
			 "R2extent": 4811.4701, 
			 "electric_dipole_moment_norm": 2.40952160812, 
			 "electric_quadrupole_moment_norm": 12.9596772846, 
			 "total_energy": -1070.67596995, 
			 "HOMO_LUMO_gap": 0.18815, 
			 "cosmo_polarized_energy": -11.54, 
			 "cosmo_cavitation_energy": 35.49, 
			 "cosmo_dispersion_energy": -25.21, 
			 "cosmo_repulsion_energy": 1.92, 
			 "cosmo_total_nonelectrostatic_energy": 12.19, 
			 "SMD_solvation_energy": 3.89 
		},
		"coords": [
			{
				"x": 0.0852169718,
				"y": -3.8475521515,
				"z": -0.7600244469,
				"element": "N" 
			},
			{
				"x": -0.2197134687,
				"y": -3.4081582971,
				"z": 0.6083797691,
				"element": "C" 
			},
			{
				"x": -1.0739355265,
				"y": -2.1561099455,
				"z": 0.748734872,
				"element": "C" 
			},
			{
				"x": -2.4006664088,
				"y": -2.2730239921,
				"z": 1.1832402859,
				"element": "C" 
			},
			{
				"x": -3.2350042537,
				"y": -1.1639541265,
				"z": 1.323299739,
				"element": "C" 
			},
			{
				"x": -2.7434236307,
				"y": 0.1035409817,
				"z": 1.0149028563,
				"element": "C" 
			},
			{
				"x": -1.4285996825,
				"y": 0.2530591705,
				"z": 0.56862367,
				"element": "C" 
			},
			{
				"x": -0.5899756907,
				"y": -0.8637687109,
				"z": 0.4430779625,
				"element": "C" 
			},
			{
				"x": 1.1005741239,
				"y": -0.7085566832,
				"z": -0.1557388225,
				"element": "S" 
			},
			{
				"x": 1.5357217992,
				"y": 1.0020141741,
				"z": 0.1922604863,
				"element": "C" 
			},
			{
				"x": 1.6942367027,
				"y": 1.8554680103,
				"z": -0.9091839878,
				"element": "C" 
			},
			{
				"x": 2.1039394429,
				"y": 3.1760558962,
				"z": -0.7298353609,
				"element": "C" 
			},
			{
				"x": 2.3476142653,
				"y": 3.6531578534,
				"z": 0.5582667016,
				"element": "C" 
			},
			{
				"x": 2.1903517968,
				"y": 2.803901913,
				"z": 1.6524868812,
				"element": "C" 
			},
			{
				"x": 1.7968722157,
				"y": 1.4677441962,
				"z": 1.4990920227,
				"element": "C" 
			},
			{
				"x": 1.6232093955,
				"y": 0.6121209587,
				"z": 2.7411732555,
				"element": "C" 
			},
			{
				"x": 0.3608414716,
				"y": 0.8035446496,
				"z": 3.3717745617,
				"element": "O" 
			},
			{
				"x": 0.7415310924,
				"y": -3.2089624326,
				"z": -1.2014523643,
				"element": "H" 
			},
			{
				"x": -0.7605434888,
				"y": -3.8333009557,
				"z": -1.3252477708,
				"element": "H" 
			},
			{
				"x": -0.7331015455,
				"y": -4.2302205027,
				"z": 1.1198496971,
				"element": "H" 
			},
			{
				"x": 0.7360147014,
				"y": -3.2650669786,
				"z": 1.1255175237,
				"element": "H" 
			},
			{
				"x": -2.7779240019,
				"y": -3.2629557784,
				"z": 1.4291818046,
				"element": "H" 
			},
			{
				"x": -4.2558997613,
				"y": -1.2891611303,
				"z": 1.6710607312,
				"element": "H" 
			},
			{
				"x": -3.3779840184,
				"y": 0.9797481145,
				"z": 1.111325991,
				"element": "H" 
			},
			{
				"x": -1.0535738626,
				"y": 1.2389347377,
				"z": 0.3149534065,
				"element": "H" 
			},
			{
				"x": 1.4929942403,
				"y": 1.4744475522,
				"z": -1.9051933406,
				"element": "H" 
			},
			{
				"x": 2.22609453,
				"y": 3.8263666408,
				"z": -1.5909745221,
				"element": "H" 
			},
			{
				"x": 2.662822044,
				"y": 4.6813524034,
				"z": 0.7106635702,
				"element": "H" 
			},
			{
				"x": 2.3811094996,
				"y": 3.1757914176,
				"z": 2.655799126,
				"element": "H" 
			},
			{
				"x": 2.3679095845,
				"y": 0.9108235815,
				"z": 3.4852670463,
				"element": "H" 
			},
			{
				"x": 1.7989263679,
				"y": -0.4432893408,
				"z": 2.4985949935,
				"element": "H" 
			},
			{
				"x": -0.3212349054,
				"y": 0.4674087748,
				"z": 2.773023662,
				"element": "H" 
			}
		],
		 "valence_orbital": [ 
			{
				"type": "occ",
				"energy": -0.26378,
				"method": "rhf"
			},
			{
				"type": "occ",
				"energy": -0.25871,
				"method": "rhf"
			},
			{
				"type": "occ",
				"energy": -0.25356,
				"method": "rhf"
			},
			{
				"type": "occ",
				"energy": -0.2347,
				"method": "rhf"
			},
			{
				"type": "occ",
				"energy": -0.21778,
				"method": "rhf"
			},
			{
				"type": "unocc",
				"energy": -0.02963,
				"method": "rhf"
			},
			{
				"type": "unocc",
				"energy": -0.02049,
				"method": "rhf"
			},
			{
				"type": "unocc",
				"energy": -0.01478,
				"method": "rhf"
			},
			{
				"type": "unocc",
				"energy": -0.00821,
				"method": "rhf"
			},
			{
				"type": "unocc",
				"energy": 0.04201,
				"method": "rhf"
			}
		],
		"cosmo_sigma_profile": { 
			"-0.025": 0.0,
			"-0.024": 0.0,
			"-0.023": 0.0,
			"-0.022": 0.0,
			"-0.021": 0.0,
			"-0.02": 0.0,
			"-0.019": 0.0,
			"-0.018": 0.0,
			"-0.017": 0.0,
			"-0.016": 0.0,
			"-0.015": 0.0,
			"-0.014": 0.0,
			"-0.013": 0.0,
			"-0.012": 0.0,
			"-0.011": 0.0,
			"-0.01": 0.544779778805,
			"-0.009": 1.10055194176,
			"-0.008": 1.6102104293,
			"-0.007": 3.7256975872,
			"-0.006": 15.8217904368,
			"-0.005": 25.1811831722,
			"-0.004": 27.3054997461,
			"-0.003": 24.0953426249,
			"-0.002": 25.5052218981,
			"-0.001": 23.1148493049,
			"0.0": 22.0686204603,
			"0.001": 18.6763338944,
			"0.002": 18.4184046983,
			"0.003": 18.8512303785,
			"0.004": 21.1022325657,
			"0.005": 10.0779146526,
			"0.006": 3.60810394514,
			"0.007": 3.47106284994,
			"0.008": 2.15423577406,
			"0.009": 1.49547909204,
			"0.01": 2.24948647658,
			"0.011": 1.3917958411,
			"0.012": 2.27806263834,
			"0.013": 3.01833767667,
			"0.014": 2.61400568892,
			"0.015": 0.976506071251,
			"0.016": 0.573106491082,
			"0.017": 0.567618934221,
			"0.018": 0.919712630918,
			"0.019": 0.474537748646,
			"0.02": 0.0773734662149,
			"0.021": 0.0,
			"0.022": 0.0,
			"0.023": 0.0,
			"0.024": 0.0,
			"0.025": 0.0
		}
	}
}
