{
	 "smiles": "ClCC(=O)CCl", 
	 "Tm": 317.65, 
	 "num_atms": 10, 
	 "gaussian": { 
		 "optdone": 1, 
		 "sigma_profile": "yes", 
		 "theory": "DFT", 
		 "functional": "B3LYP", 
		 "basiset": "6-31G**", 
		 "properties": { 
			 "R2extent": 2380.7964, 
			 "electric_dipole_moment_norm": 2.29255759579, 
			 "electric_quadrupole_moment_norm": 3.21023106956, 
			 "total_energy": -1112.32685757, 
			 "HOMO_LUMO_gap": 0.23005, 
			 "cosmo_polarized_energy": -9.94, 
			 "cosmo_cavitation_energy": 17.66, 
			 "cosmo_dispersion_energy": -13.37, 
			 "cosmo_repulsion_energy": 1.18, 
			 "cosmo_total_nonelectrostatic_energy": 5.47, 
			 "SMD_solvation_energy": 3.26 
		},
		"coords": [
			{
				"x": -0.4403509974,
				"y": -1.2367953572,
				"z": -1.2431761129,
				"element": "Cl" 
			},
			{
				"x": -0.8531967271,
				"y": -1.9147215201,
				"z": 0.3578436161,
				"element": "C" 
			},
			{
				"x": 0.1786847707,
				"y": -1.5792451301,
				"z": 1.4258799943,
				"element": "C" 
			},
			{
				"x": 1.2137427317,
				"y": -0.9934539485,
				"z": 1.2151628136,
				"element": "O" 
			},
			{
				"x": -0.1408665579,
				"y": -1.9698747646,
				"z": 2.8742172088,
				"element": "C" 
			},
			{
				"x": -1.3991168636,
				"y": -3.2507425013,
				"z": 3.0950183886,
				"element": "Cl" 
			},
			{
				"x": -1.8348082024,
				"y": -1.5370350376,
				"z": 0.6569563652,
				"element": "H" 
			},
			{
				"x": -0.9405094741,
				"y": -3.0000568857,
				"z": 0.2632047043,
				"element": "H" 
			},
			{
				"x": 0.7784231927,
				"y": -2.3124825701,
				"z": 3.3488527305,
				"element": "H" 
			},
			{
				"x": -0.4962018726,
				"y": -1.0786922847,
				"z": 3.3985402915,
				"element": "H" 
			}
		],
		 "valence_orbital": [ 
			{
				"type": "occ",
				"energy": -0.33776,
				"method": "rhf"
			},
			{
				"type": "occ",
				"energy": -0.32268,
				"method": "rhf"
			},
			{
				"type": "occ",
				"energy": -0.31087,
				"method": "rhf"
			},
			{
				"type": "occ",
				"energy": -0.30749,
				"method": "rhf"
			},
			{
				"type": "occ",
				"energy": -0.28006,
				"method": "rhf"
			},
			{
				"type": "unocc",
				"energy": -0.05001,
				"method": "rhf"
			},
			{
				"type": "unocc",
				"energy": 0.00472,
				"method": "rhf"
			},
			{
				"type": "unocc",
				"energy": 0.01623,
				"method": "rhf"
			},
			{
				"type": "unocc",
				"energy": 0.08508,
				"method": "rhf"
			},
			{
				"type": "unocc",
				"energy": 0.10709,
				"method": "rhf"
			}
		],
		"cosmo_sigma_profile": { 
			"-0.025": 0.0,
			"-0.024": 0.0,
			"-0.023": 0.0,
			"-0.022": 0.0,
			"-0.021": 0.0,
			"-0.02": 0.0,
			"-0.019": 0.0,
			"-0.018": 0.0,
			"-0.017": 0.0,
			"-0.016": 0.0,
			"-0.015": 0.0,
			"-0.014": 0.0,
			"-0.013": 0.0,
			"-0.012": 0.0,
			"-0.011": 1.11087241606,
			"-0.01": 5.62278994742,
			"-0.009": 8.85011598534,
			"-0.008": 7.48346042044,
			"-0.007": 6.44477361146,
			"-0.006": 6.97528448343,
			"-0.005": 5.7134425919,
			"-0.004": 4.61005253147,
			"-0.003": 4.67928651439,
			"-0.002": 5.03692399664,
			"-0.001": 6.8000909326,
			"0.0": 6.40732051483,
			"0.001": 7.32377951021,
			"0.002": 7.65539957895,
			"0.003": 9.7017448873,
			"0.004": 10.3188465127,
			"0.005": 15.0512892221,
			"0.006": 8.21562596786,
			"0.007": 2.63560176137,
			"0.008": 2.67452700881,
			"0.009": 3.26304618213,
			"0.01": 4.77520191145,
			"0.011": 2.7809883339,
			"0.012": 0.624185264223,
			"0.013": 0.0,
			"0.014": 0.0,
			"0.015": 0.0,
			"0.016": 0.0,
			"0.017": 0.0,
			"0.018": 0.0,
			"0.019": 0.0,
			"0.02": 0.0,
			"0.021": 0.0,
			"0.022": 0.0,
			"0.023": 0.0,
			"0.024": 0.0,
			"0.025": 0.0
		}
	}
}
