{
	 "smiles": "CC1=C(N)C=C(C=C1)S(=O)(=O)NC1=CC(Cl)=CC=C1", 
	 "Tm": 384.15, 
	 "num_atms": 32, 
	 "gaussian": { 
		 "optdone": 1, 
		 "sigma_profile": "yes", 
		 "theory": "DFT", 
		 "functional": "B3LYP", 
		 "basiset": "6-31G**", 
		 "properties": { 
			 "R2extent": 7388.208, 
			 "electric_dipole_moment_norm": 5.18692052956, 
			 "electric_quadrupole_moment_norm": 22.4730412297, 
			 "total_energy": -1621.49280068, 
			 "HOMO_LUMO_gap": 0.1838, 
			 "cosmo_polarized_energy": -19.74, 
			 "cosmo_cavitation_energy": 39.21, 
			 "cosmo_dispersion_energy": -27.8, 
			 "cosmo_repulsion_energy": 2.13, 
			 "cosmo_total_nonelectrostatic_energy": 13.54, 
			 "SMD_solvation_energy": 5.37 
		},
		"coords": [
			{
				"x": -0.7563153828,
				"y": 1.2156743721,
				"z": 3.9913444951,
				"element": "C" 
			},
			{
				"x": -0.4618222387,
				"y": 1.1339309596,
				"z": 2.515460509,
				"element": "C" 
			},
			{
				"x": 0.4293105896,
				"y": 2.0607764562,
				"z": 1.9193160938,
				"element": "C" 
			},
			{
				"x": 1.0661747567,
				"y": 3.0252658564,
				"z": 2.6978914141,
				"element": "N" 
			},
			{
				"x": 0.7091231037,
				"y": 1.9641651158,
				"z": 0.5486457398,
				"element": "C" 
			},
			{
				"x": 0.1032853533,
				"y": 0.9659981292,
				"z": -0.2125991076,
				"element": "C" 
			},
			{
				"x": -0.7888247435,
				"y": 0.0521160324,
				"z": 0.3473102059,
				"element": "C" 
			},
			{
				"x": -1.0535123562,
				"y": 0.1557923747,
				"z": 1.7132220919,
				"element": "C" 
			},
			{
				"x": 0.520566372,
				"y": 0.8481125081,
				"z": -1.9510620335,
				"element": "S" 
			},
			{
				"x": 1.1254273678,
				"y": 2.1139877376,
				"z": -2.3674727941,
				"element": "O" 
			},
			{
				"x": -0.615958738,
				"y": 0.2517216342,
				"z": -2.6509748562,
				"element": "O" 
			},
			{
				"x": 1.8122924349,
				"y": -0.2624284597,
				"z": -2.0632863326,
				"element": "N" 
			},
			{
				"x": 1.7129348444,
				"y": -1.6240124957,
				"z": -1.6766302621,
				"element": "C" 
			},
			{
				"x": 2.6500682662,
				"y": -2.146439573,
				"z": -0.7744584921,
				"element": "C" 
			},
			{
				"x": 2.5991920869,
				"y": -3.4988729852,
				"z": -0.4461883198,
				"element": "C" 
			},
			{
				"x": 3.7918214271,
				"y": -4.146037516,
				"z": 0.673170502,
				"element": "Cl" 
			},
			{
				"x": 1.6204993815,
				"y": -4.3413490513,
				"z": -0.9690670713,
				"element": "C" 
			},
			{
				"x": 0.6864394966,
				"y": -3.8012140392,
				"z": -1.855623618,
				"element": "C" 
			},
			{
				"x": 0.7296568655,
				"y": -2.4593190282,
				"z": -2.2272578014,
				"element": "C" 
			},
			{
				"x": 0.1646277749,
				"y": 1.1617331338,
				"z": 4.5848110229,
				"element": "H" 
			},
			{
				"x": -1.2568520534,
				"y": 2.1575027131,
				"z": 4.2577613091,
				"element": "H" 
			},
			{
				"x": -1.4113760013,
				"y": 0.4010974684,
				"z": 4.3083886441,
				"element": "H" 
			},
			{
				"x": 1.4688272161,
				"y": 3.7962306712,
				"z": 2.1833149316,
				"element": "H" 
			},
			{
				"x": 0.5637984779,
				"y": 3.336581903,
				"z": 3.5169727126,
				"element": "H" 
			},
			{
				"x": 1.3742717704,
				"y": 2.6761065613,
				"z": 0.0699620892,
				"element": "H" 
			},
			{
				"x": -1.2696339662,
				"y": -0.6996773132,
				"z": -0.2659943918,
				"element": "H" 
			},
			{
				"x": -1.7453516366,
				"y": -0.5448620995,
				"z": 2.1731770933,
				"element": "H" 
			},
			{
				"x": 2.6721035111,
				"y": 0.2004965406,
				"z": -1.7859718401,
				"element": "H" 
			},
			{
				"x": 3.4088227389,
				"y": -1.5083126831,
				"z": -0.3334332305,
				"element": "H" 
			},
			{
				"x": 1.5964764721,
				"y": -5.389493735,
				"z": -0.6944621496,
				"element": "H" 
			},
			{
				"x": -0.0768276471,
				"y": -4.4460921048,
				"z": -2.2807727369,
				"element": "H" 
			},
			{
				"x": 0.0207544562,
				"y": -2.0504790838,
				"z": -2.9359938166,
				"element": "H" 
			}
		],
		 "valence_orbital": [ 
			{
				"type": "occ",
				"energy": -0.30292,
				"method": "rhf"
			},
			{
				"type": "occ",
				"energy": -0.26532,
				"method": "rhf"
			},
			{
				"type": "occ",
				"energy": -0.25569,
				"method": "rhf"
			},
			{
				"type": "occ",
				"energy": -0.23526,
				"method": "rhf"
			},
			{
				"type": "occ",
				"energy": -0.22137,
				"method": "rhf"
			},
			{
				"type": "unocc",
				"energy": -0.03757,
				"method": "rhf"
			},
			{
				"type": "unocc",
				"energy": -0.01799,
				"method": "rhf"
			},
			{
				"type": "unocc",
				"energy": -0.01533,
				"method": "rhf"
			},
			{
				"type": "unocc",
				"energy": -0.00322,
				"method": "rhf"
			},
			{
				"type": "unocc",
				"energy": 0.02454,
				"method": "rhf"
			}
		],
		"cosmo_sigma_profile": { 
			"-0.025": 0.0,
			"-0.024": 0.0,
			"-0.023": 0.0,
			"-0.022": 0.0,
			"-0.021": 0.0,
			"-0.02": 0.0,
			"-0.019": 0.0,
			"-0.018": 0.0,
			"-0.017": 0.0,
			"-0.016": 0.709907125391,
			"-0.015": 1.25268090627,
			"-0.014": 0.870950403449,
			"-0.013": 2.59444665568,
			"-0.012": 3.72664248298,
			"-0.011": 4.25482927914,
			"-0.01": 5.02459985962,
			"-0.009": 4.3975523554,
			"-0.008": 5.28275875698,
			"-0.007": 7.91635433585,
			"-0.006": 12.5108379538,
			"-0.005": 16.856242724,
			"-0.004": 18.2171457259,
			"-0.003": 14.7998510882,
			"-0.002": 18.2380728479,
			"-0.001": 19.3908547187,
			"0.0": 21.6103916095,
			"0.001": 21.1873531125,
			"0.002": 27.60015338,
			"0.003": 31.2864163707,
			"0.004": 27.4199267497,
			"0.005": 12.3963290506,
			"0.006": 3.69459213669,
			"0.007": 5.5123552696,
			"0.008": 5.42944130199,
			"0.009": 4.96206187363,
			"0.01": 7.2689305844,
			"0.011": 8.28820699379,
			"0.012": 1.49874162783,
			"0.013": 0.674535398454,
			"0.014": 0.157220754277,
			"0.015": 0.0,
			"0.016": 0.0,
			"0.017": 0.0,
			"0.018": 0.0,
			"0.019": 0.0,
			"0.02": 0.0,
			"0.021": 0.0,
			"0.022": 0.0,
			"0.023": 0.0,
			"0.024": 0.0,
			"0.025": 0.0
		}
	}
}
