{
	 "smiles": "ClC1=CC=C(NC(=S)NC(=O)C2=CC=C(C=C2)C2=CC=CC=C2)C=C1", 
	 "Tm": 438.15, 
	 "num_atms": 40, 
	 "gaussian": { 
		 "optdone": 1, 
		 "sigma_profile": "yes", 
		 "theory": "DFT", 
		 "functional": "B3LYP", 
		 "basiset": "6-31G**", 
		 "properties": { 
			 "R2extent": 11505.4396, 
			 "electric_dipole_moment_norm": 4.4401834613, 
			 "electric_quadrupole_moment_norm": 20.5227378059, 
			 "total_energy": -1814.3009221, 
			 "HOMO_LUMO_gap": 0.14732, 
			 "cosmo_polarized_energy": -19.11, 
			 "cosmo_cavitation_energy": 48.54, 
			 "cosmo_dispersion_energy": -32.5, 
			 "cosmo_repulsion_energy": 2.45, 
			 "cosmo_total_nonelectrostatic_energy": 18.49, 
			 "SMD_solvation_energy": 7.24 
		},
		"coords": [
			{
				"x": -4.0182313412,
				"y": -1.7680574466,
				"z": -3.2854214415,
				"element": "Cl" 
			},
			{
				"x": -2.3080054807,
				"y": -1.7888387824,
				"z": -2.8906862362,
				"element": "C" 
			},
			{
				"x": -1.8621240589,
				"y": -2.5305935816,
				"z": -1.7970728798,
				"element": "C" 
			},
			{
				"x": -0.5061616162,
				"y": -2.5327064529,
				"z": -1.482188214,
				"element": "C" 
			},
			{
				"x": 0.4078078494,
				"y": -1.8107005184,
				"z": -2.2602697112,
				"element": "C" 
			},
			{
				"x": 1.7845321282,
				"y": -1.9088261238,
				"z": -1.9251296914,
				"element": "N" 
			},
			{
				"x": 2.8207261909,
				"y": -1.0522590979,
				"z": -2.1645440415,
				"element": "C" 
			},
			{
				"x": 4.3965188284,
				"y": -1.6007878876,
				"z": -2.2670822863,
				"element": "S" 
			},
			{
				"x": 2.5185874718,
				"y": 0.2904240038,
				"z": -2.3374724384,
				"element": "N" 
			},
			{
				"x": 1.5277036487,
				"y": 1.1349691464,
				"z": -1.7813632004,
				"element": "C" 
			},
			{
				"x": 1.2606511084,
				"y": 2.1696574653,
				"z": -2.3690209685,
				"element": "O" 
			},
			{
				"x": 0.9279428478,
				"y": 0.783807605,
				"z": -0.4645344271,
				"element": "C" 
			},
			{
				"x": 1.6297684606,
				"y": 0.0870286052,
				"z": 0.52969413,
				"element": "C" 
			},
			{
				"x": 1.0499024532,
				"y": -0.1257735947,
				"z": 1.7765612729,
				"element": "C" 
			},
			{
				"x": -0.2463110613,
				"y": 0.3372251596,
				"z": 2.0654698141,
				"element": "C" 
			},
			{
				"x": -0.9352245292,
				"y": 1.0440758333,
				"z": 1.0620856326,
				"element": "C" 
			},
			{
				"x": -0.3527893026,
				"y": 1.2775520094,
				"z": -0.1769178314,
				"element": "C" 
			},
			{
				"x": -0.864562572,
				"y": 0.095819659,
				"z": 3.3928016025,
				"element": "C" 
			},
			{
				"x": -0.6474156537,
				"y": -1.1104225324,
				"z": 4.0810300086,
				"element": "C" 
			},
			{
				"x": -1.2283592905,
				"y": -1.3378565641,
				"z": 5.3275000919,
				"element": "C" 
			},
			{
				"x": -2.0380818019,
				"y": -0.3631418892,
				"z": 5.9137147424,
				"element": "C" 
			},
			{
				"x": -2.2619352831,
				"y": 0.840554885,
				"z": 5.242545723,
				"element": "C" 
			},
			{
				"x": -1.6822809925,
				"y": 1.0674655357,
				"z": 3.9953922518,
				"element": "C" 
			},
			{
				"x": -0.0508941657,
				"y": -1.0864880162,
				"z": -3.3689032678,
				"element": "C" 
			},
			{
				"x": -1.4100170744,
				"y": -1.0665066627,
				"z": -3.6757557697,
				"element": "C" 
			},
			{
				"x": -2.5675917483,
				"y": -3.089513279,
				"z": -1.1927105572,
				"element": "H" 
			},
			{
				"x": -0.1541115009,
				"y": -3.0881029596,
				"z": -0.617989928,
				"element": "H" 
			},
			{
				"x": 2.1071182181,
				"y": -2.828802379,
				"z": -1.6537651778,
				"element": "H" 
			},
			{
				"x": 3.1839189671,
				"y": 0.7935407316,
				"z": -2.9119401321,
				"element": "H" 
			},
			{
				"x": 2.6431736087,
				"y": -0.2559362706,
				"z": 0.3475003993,
				"element": "H" 
			},
			{
				"x": 1.6221452123,
				"y": -0.6284369068,
				"z": 2.5500051156,
				"element": "H" 
			},
			{
				"x": -1.9442568869,
				"y": 1.3958254458,
				"z": 1.2525235023,
				"element": "H" 
			},
			{
				"x": -0.8823130295,
				"y": 1.8339232147,
				"z": -0.9428546592,
				"element": "H" 
			},
			{
				"x": -0.0393773094,
				"y": -1.8851885371,
				"z": 3.623333219,
				"element": "H" 
			},
			{
				"x": -1.0542168128,
				"y": -2.280686551,
				"z": 5.838092263,
				"element": "H" 
			},
			{
				"x": -2.4902032866,
				"y": -0.5398003548,
				"z": 6.8852142067,
				"element": "H" 
			},
			{
				"x": -2.8826895272,
				"y": 1.6089104278,
				"z": 5.6943751666,
				"element": "H" 
			},
			{
				"x": -1.841224554,
				"y": 2.0179697441,
				"z": 3.4950154248,
				"element": "H" 
			},
			{
				"x": 0.6450920585,
				"y": -0.5425382073,
				"z": -3.995949081,
				"element": "H" 
			},
			{
				"x": -1.7660101726,
				"y": -0.5039848761,
				"z": -4.5314826266,
				"element": "H" 
			}
		],
		 "valence_orbital": [ 
			{
				"type": "occ",
				"energy": -0.26135,
				"method": "rhf"
			},
			{
				"type": "occ",
				"energy": -0.25723,
				"method": "rhf"
			},
			{
				"type": "occ",
				"energy": -0.2386,
				"method": "rhf"
			},
			{
				"type": "occ",
				"energy": -0.23269,
				"method": "rhf"
			},
			{
				"type": "occ",
				"energy": -0.22081,
				"method": "rhf"
			},
			{
				"type": "unocc",
				"energy": -0.07349,
				"method": "rhf"
			},
			{
				"type": "unocc",
				"energy": -0.05248,
				"method": "rhf"
			},
			{
				"type": "unocc",
				"energy": -0.0308,
				"method": "rhf"
			},
			{
				"type": "unocc",
				"energy": -0.01884,
				"method": "rhf"
			},
			{
				"type": "unocc",
				"energy": -0.0143,
				"method": "rhf"
			}
		],
		"cosmo_sigma_profile": { 
			"-0.025": 0.0,
			"-0.024": 0.0,
			"-0.023": 0.0,
			"-0.022": 0.0,
			"-0.021": 0.0,
			"-0.02": 0.0,
			"-0.019": 0.0,
			"-0.018": 0.0,
			"-0.017": 0.0,
			"-0.016": 0.30961318177,
			"-0.015": 1.29715997253,
			"-0.014": 2.10778668687,
			"-0.013": 2.10302229813,
			"-0.012": 1.81266864597,
			"-0.011": 1.49105442988,
			"-0.01": 1.59514848963,
			"-0.009": 2.14888255055,
			"-0.008": 5.23419101596,
			"-0.007": 10.6581967233,
			"-0.006": 25.3506560366,
			"-0.005": 27.0447831166,
			"-0.004": 28.3036657108,
			"-0.003": 22.2843621914,
			"-0.002": 21.8355302274,
			"-0.001": 22.812527058,
			"0.0": 23.6636092173,
			"0.001": 31.3245214531,
			"0.002": 38.6530238934,
			"0.003": 34.4193047536,
			"0.004": 25.2156932067,
			"0.005": 20.5005352431,
			"0.006": 7.58539514304,
			"0.007": 6.32342068409,
			"0.008": 7.56968754097,
			"0.009": 6.30068082265,
			"0.01": 6.40896206582,
			"0.011": 6.70560855494,
			"0.012": 3.4100796971,
			"0.013": 0.164180871956,
			"0.014": 0.0,
			"0.015": 0.0,
			"0.016": 0.0,
			"0.017": 0.0,
			"0.018": 0.0,
			"0.019": 0.0,
			"0.02": 0.0,
			"0.021": 0.0,
			"0.022": 0.0,
			"0.023": 0.0,
			"0.024": 0.0,
			"0.025": 0.0
		}
	}
}
