{
	 "smiles": "NC(=O)CCOC1=C(F)C=CC=C1", 
	 "Tm": 359.15, 
	 "num_atms": 23, 
	 "gaussian": { 
		 "optdone": 1, 
		 "sigma_profile": "yes", 
		 "theory": "DFT", 
		 "functional": "B3LYP", 
		 "basiset": "6-31G**", 
		 "properties": { 
			 "R2extent": 3179.8629, 
			 "electric_dipole_moment_norm": 4.19923057833, 
			 "electric_quadrupole_moment_norm": 17.6668619333, 
			 "total_energy": -654.025449233, 
			 "HOMO_LUMO_gap": 0.22159, 
			 "cosmo_polarized_energy": -13.21, 
			 "cosmo_cavitation_energy": 27.46, 
			 "cosmo_dispersion_energy": -19.8, 
			 "cosmo_repulsion_energy": 1.56, 
			 "cosmo_total_nonelectrostatic_energy": 9.22, 
			 "SMD_solvation_energy": 5.95 
		},
		"coords": [
			{
				"x": 0.5260554277,
				"y": -2.7968877103,
				"z": -0.7443071335,
				"element": "N" 
			},
			{
				"x": 0.2315472537,
				"y": -3.5183428382,
				"z": 0.3742734167,
				"element": "C" 
			},
			{
				"x": 0.8926075621,
				"y": -4.4809088561,
				"z": 0.7402148117,
				"element": "O" 
			},
			{
				"x": -1.023804405,
				"y": -3.0728363304,
				"z": 1.1360588716,
				"element": "C" 
			},
			{
				"x": -1.0746607282,
				"y": -1.59905388,
				"z": 1.5295228215,
				"element": "C" 
			},
			{
				"x": -1.2189688366,
				"y": -0.8288790591,
				"z": 0.3310036406,
				"element": "O" 
			},
			{
				"x": -1.0983653372,
				"y": 0.5278686373,
				"z": 0.3984354773,
				"element": "C" 
			},
			{
				"x": -0.869114753,
				"y": 1.1787418037,
				"z": -0.8235064744,
				"element": "C" 
			},
			{
				"x": -0.7477319762,
				"y": 0.4138177723,
				"z": -1.9326028479,
				"element": "F" 
			},
			{
				"x": -0.7527823263,
				"y": 2.5541011006,
				"z": -0.9117490895,
				"element": "C" 
			},
			{
				"x": -0.8571387006,
				"y": 3.3218271304,
				"z": 0.2538837283,
				"element": "C" 
			},
			{
				"x": -1.0719692334,
				"y": 2.6939878736,
				"z": 1.4783817545,
				"element": "C" 
			},
			{
				"x": -1.1925880077,
				"y": 1.3015422359,
				"z": 1.55728409,
				"element": "C" 
			},
			{
				"x": 0.0215095098,
				"y": -1.9551749625,
				"z": -0.9825103052,
				"element": "H" 
			},
			{
				"x": 1.3593302729,
				"y": -3.0490603598,
				"z": -1.2537330633,
				"element": "H" 
			},
			{
				"x": -1.0657229968,
				"y": -3.6849169679,
				"z": 2.0396250379,
				"element": "H" 
			},
			{
				"x": -1.9107201992,
				"y": -3.3028126824,
				"z": 0.5331082598,
				"element": "H" 
			},
			{
				"x": -1.9317523638,
				"y": -1.4197963863,
				"z": 2.1916481696,
				"element": "H" 
			},
			{
				"x": -0.1616258664,
				"y": -1.2937626739,
				"z": 2.0578172061,
				"element": "H" 
			},
			{
				"x": -0.5745983818,
				"y": 3.0041778918,
				"z": -1.8825322839,
				"element": "H" 
			},
			{
				"x": -0.7653295262,
				"y": 4.4014749759,
				"z": 0.1973551023,
				"element": "H" 
			},
			{
				"x": -1.1491791173,
				"y": 3.2834666238,
				"z": 2.386636078,
				"element": "H" 
			},
			{
				"x": -1.3641972705,
				"y": 0.8264266615,
				"z": 2.5162927316,
				"element": "H" 
			}
		],
		 "valence_orbital": [ 
			{
				"type": "occ",
				"energy": -0.3309,
				"method": "rhf"
			},
			{
				"type": "occ",
				"energy": -0.26158,
				"method": "rhf"
			},
			{
				"type": "occ",
				"energy": -0.25698,
				"method": "rhf"
			},
			{
				"type": "occ",
				"energy": -0.2394,
				"method": "rhf"
			},
			{
				"type": "occ",
				"energy": -0.23435,
				"method": "rhf"
			},
			{
				"type": "unocc",
				"energy": -0.01276,
				"method": "rhf"
			},
			{
				"type": "unocc",
				"energy": -0.00397,
				"method": "rhf"
			},
			{
				"type": "unocc",
				"energy": 0.03252,
				"method": "rhf"
			},
			{
				"type": "unocc",
				"energy": 0.06434,
				"method": "rhf"
			},
			{
				"type": "unocc",
				"energy": 0.09197,
				"method": "rhf"
			}
		],
		"cosmo_sigma_profile": { 
			"-0.025": 0.0,
			"-0.024": 0.0,
			"-0.023": 0.0,
			"-0.022": 0.0,
			"-0.021": 0.0,
			"-0.02": 0.0,
			"-0.019": 0.0,
			"-0.018": 0.0,
			"-0.017": 0.0,
			"-0.016": 0.0,
			"-0.015": 0.0,
			"-0.014": 0.254855069669,
			"-0.013": 1.17662552555,
			"-0.012": 0.832123881411,
			"-0.011": 1.23302437172,
			"-0.01": 1.16223175686,
			"-0.009": 0.702768431362,
			"-0.008": 1.25687285273,
			"-0.007": 6.23698539483,
			"-0.006": 18.337476803,
			"-0.005": 22.5003776264,
			"-0.004": 18.1702792495,
			"-0.003": 13.0606487782,
			"-0.002": 15.043014414,
			"-0.001": 10.9030112621,
			"0.0": 11.1743123584,
			"0.001": 13.4506008829,
			"0.002": 14.463283719,
			"0.003": 14.4110443174,
			"0.004": 18.23973869,
			"0.005": 11.6007500063,
			"0.006": 2.91282268408,
			"0.007": 2.02118383881,
			"0.008": 1.55482084738,
			"0.009": 1.41214710066,
			"0.01": 1.15304646419,
			"0.011": 1.40847941417,
			"0.012": 1.83993472138,
			"0.013": 2.92618481716,
			"0.014": 6.05132664096,
			"0.015": 2.66855309695,
			"0.016": 0.0203434970171,
			"0.017": 0.0,
			"0.018": 0.0,
			"0.019": 0.0,
			"0.02": 0.0,
			"0.021": 0.0,
			"0.022": 0.0,
			"0.023": 0.0,
			"0.024": 0.0,
			"0.025": 0.0
		}
	}
}
