{
	 "smiles": "CCCCCCCCCCCCCCCCCCCCC1CCCCC1", 
	 "Tm": 321.65, 
	 "num_atms": 78, 
	 "gaussian": { 
		 "optdone": 1, 
		 "sigma_profile": "yes", 
		 "theory": "DFT", 
		 "functional": "B3LYP", 
		 "basiset": "6-31G**", 
		 "properties": { 
			 "R2extent": 20564.4865, 
			 "electric_dipole_moment_norm": 0.0473414194971, 
			 "electric_quadrupole_moment_norm": 1.01330668112, 
			 "total_energy": -1022.18308162, 
			 "HOMO_LUMO_gap": 0.35668, 
			 "cosmo_polarized_energy": -1.49, 
			 "cosmo_cavitation_energy": 72.14, 
			 "cosmo_dispersion_energy": -46.77, 
			 "cosmo_repulsion_energy": 3.79, 
			 "cosmo_total_nonelectrostatic_energy": 29.16, 
			 "SMD_solvation_energy": 8.39 
		},
		"coords": [
			{
				"x": -3.7712234871,
				"y": -1.8357523186,
				"z": -5.6500711832,
				"element": "C" 
			},
			{
				"x": -2.4145741138,
				"y": -2.4866794621,
				"z": -5.3619199173,
				"element": "C" 
			},
			{
				"x": -1.3662033408,
				"y": -1.4968572191,
				"z": -4.838081321,
				"element": "C" 
			},
			{
				"x": -0.0038526319,
				"y": -2.1398281266,
				"z": -4.547773091,
				"element": "C" 
			},
			{
				"x": 1.0383560779,
				"y": -1.1408045631,
				"z": -4.0250742519,
				"element": "C" 
			},
			{
				"x": 2.4407991205,
				"y": -1.7285852199,
				"z": -3.7908841346,
				"element": "C" 
			},
			{
				"x": 2.5202191673,
				"y": -2.7560325106,
				"z": -2.6518517448,
				"element": "C" 
			},
			{
				"x": 3.920916696,
				"y": -3.3569665976,
				"z": -2.4324893085,
				"element": "C" 
			},
			{
				"x": 5.0232079273,
				"y": -2.3729617593,
				"z": -2.0012202865,
				"element": "C" 
			},
			{
				"x": 4.782956648,
				"y": -1.6954791784,
				"z": -0.6449326833,
				"element": "C" 
			},
			{
				"x": 5.9657283394,
				"y": -0.8235101313,
				"z": -0.1939968849,
				"element": "C" 
			},
			{
				"x": 5.7807220884,
				"y": -0.1144215949,
				"z": 1.1663083959,
				"element": "C" 
			},
			{
				"x": 5.1936381707,
				"y": 1.307734241,
				"z": 1.1139491289,
				"element": "C" 
			},
			{
				"x": 3.7633739721,
				"y": 1.4343268747,
				"z": 0.5704067661,
				"element": "C" 
			},
			{
				"x": 3.2143074696,
				"y": 2.864401368,
				"z": 0.6784845712,
				"element": "C" 
			},
			{
				"x": 1.8301417131,
				"y": 3.0726942583,
				"z": 0.0384330993,
				"element": "C" 
			},
			{
				"x": 0.6713831336,
				"y": 2.2596612824,
				"z": 0.6444229364,
				"element": "C" 
			},
			{
				"x": 0.363466758,
				"y": 2.5892653899,
				"z": 2.1128310204,
				"element": "C" 
			},
			{
				"x": -0.8184030599,
				"y": 1.8043100644,
				"z": 2.7121180799,
				"element": "C" 
			},
			{
				"x": -2.1902098389,
				"y": 2.2028117197,
				"z": 2.1434855254,
				"element": "C" 
			},
			{
				"x": -3.4084283814,
				"y": 1.4317020635,
				"z": 2.6959390518,
				"element": "C" 
			},
			{
				"x": -3.5378183883,
				"y": 1.4782135947,
				"z": 4.2287537448,
				"element": "C" 
			},
			{
				"x": -4.9190353285,
				"y": 0.9544741551,
				"z": 4.6904927163,
				"element": "C" 
			},
			{
				"x": -5.4629864903,
				"y": -0.1645794311,
				"z": 3.7682367747,
				"element": "C" 
			},
			{
				"x": -4.3156984769,
				"y": -0.9492646168,
				"z": 3.1186653545,
				"element": "C" 
			},
			{
				"x": -3.4646702948,
				"y": -0.0390587973,
				"z": 2.2018250731,
				"element": "C" 
			},
			{
				"x": -3.6795158459,
				"y": -1.0457405459,
				"z": -6.4043534495,
				"element": "H" 
			},
			{
				"x": -4.4966511015,
				"y": -2.5669932207,
				"z": -6.021771304,
				"element": "H" 
			},
			{
				"x": -4.1920254529,
				"y": -1.3800557351,
				"z": -4.7463254621,
				"element": "H" 
			},
			{
				"x": -2.5448528324,
				"y": -3.2959734679,
				"z": -4.6304252576,
				"element": "H" 
			},
			{
				"x": -2.0359069905,
				"y": -2.9639416155,
				"z": -6.276167255,
				"element": "H" 
			},
			{
				"x": -1.745262203,
				"y": -1.0197197759,
				"z": -3.9226928013,
				"element": "H" 
			},
			{
				"x": -1.2372569457,
				"y": -0.6856512042,
				"z": -5.5692479363,
				"element": "H" 
			},
			{
				"x": 0.37759937,
				"y": -2.611315005,
				"z": -5.4653027875,
				"element": "H" 
			},
			{
				"x": -0.1414807322,
				"y": -2.9534831262,
				"z": -3.8235504597,
				"element": "H" 
			},
			{
				"x": 1.1198020188,
				"y": -0.3131451417,
				"z": -4.7429565105,
				"element": "H" 
			},
			{
				"x": 0.6733849077,
				"y": -0.692464778,
				"z": -3.0895799426,
				"element": "H" 
			},
			{
				"x": 3.1304623799,
				"y": -0.9010786622,
				"z": -3.5819238656,
				"element": "H" 
			},
			{
				"x": 2.7992555891,
				"y": -2.192405728,
				"z": -4.7216736844,
				"element": "H" 
			},
			{
				"x": 2.1622849838,
				"y": -2.2914587948,
				"z": -1.7228769368,
				"element": "H" 
			},
			{
				"x": 1.8280675123,
				"y": -3.5819644438,
				"z": -2.857236235,
				"element": "H" 
			},
			{
				"x": 3.8459117272,
				"y": -4.1504125986,
				"z": -1.6761528736,
				"element": "H" 
			},
			{
				"x": 4.2377955675,
				"y": -3.8540669878,
				"z": -3.3597548568,
				"element": "H" 
			},
			{
				"x": 5.161600689,
				"y": -1.6024947908,
				"z": -2.7716309651,
				"element": "H" 
			},
			{
				"x": 5.974529526,
				"y": -2.9211488345,
				"z": -1.9578422375,
				"element": "H" 
			},
			{
				"x": 3.8687246597,
				"y": -1.0928814812,
				"z": -0.6861020276,
				"element": "H" 
			},
			{
				"x": 4.6011053428,
				"y": -2.4675332339,
				"z": 0.1170608274,
				"element": "H" 
			},
			{
				"x": 6.8550718443,
				"y": -1.4657622764,
				"z": -0.1426887206,
				"element": "H" 
			},
			{
				"x": 6.1871772927,
				"y": -0.0748543027,
				"z": -0.9685210251,
				"element": "H" 
			},
			{
				"x": 5.1603650219,
				"y": -0.7423380787,
				"z": 1.8217398604,
				"element": "H" 
			},
			{
				"x": 6.7573986147,
				"y": -0.0448076265,
				"z": 1.6615535925,
				"element": "H" 
			},
			{
				"x": 5.8600528111,
				"y": 1.9443033583,
				"z": 0.5139408977,
				"element": "H" 
			},
			{
				"x": 5.2179356404,
				"y": 1.7254137096,
				"z": 2.1303627897,
				"element": "H" 
			},
			{
				"x": 3.1091347884,
				"y": 0.7393890126,
				"z": 1.1139914989,
				"element": "H" 
			},
			{
				"x": 3.7340250809,
				"y": 1.1225399618,
				"z": -0.4821536887,
				"element": "H" 
			},
			{
				"x": 3.1893039134,
				"y": 3.1630293529,
				"z": 1.7350613679,
				"element": "H" 
			},
			{
				"x": 3.9225180479,
				"y": 3.5508229603,
				"z": 0.1942299384,
				"element": "H" 
			},
			{
				"x": 1.5757903147,
				"y": 4.1401989808,
				"z": 0.0935635532,
				"element": "H" 
			},
			{
				"x": 1.9006414027,
				"y": 2.8351241712,
				"z": -1.0320253277,
				"element": "H" 
			},
			{
				"x": -0.2214878797,
				"y": 2.4403660727,
				"z": 0.0333319664,
				"element": "H" 
			},
			{
				"x": 0.8812961219,
				"y": 1.1850300936,
				"z": 0.5543660817,
				"element": "H" 
			},
			{
				"x": 1.2538217421,
				"y": 2.3889091329,
				"z": 2.721972442,
				"element": "H" 
			},
			{
				"x": 0.1688443945,
				"y": 3.6676747703,
				"z": 2.2088924632,
				"element": "H" 
			},
			{
				"x": -0.6415717959,
				"y": 0.7304429821,
				"z": 2.5625826719,
				"element": "H" 
			},
			{
				"x": -0.8226793481,
				"y": 1.9610323427,
				"z": 3.7977754206,
				"element": "H" 
			},
			{
				"x": -2.1840980953,
				"y": 2.0905748394,
				"z": 1.0511770829,
				"element": "H" 
			},
			{
				"x": -2.341556061,
				"y": 3.2748567081,
				"z": 2.335133057,
				"element": "H" 
			},
			{
				"x": -4.2949228421,
				"y": 1.9437108332,
				"z": 2.2929187162,
				"element": "H" 
			},
			{
				"x": -3.3819362662,
				"y": 2.4999747267,
				"z": 4.59670499,
				"element": "H" 
			},
			{
				"x": -2.7433461679,
				"y": 0.8691794865,
				"z": 4.6783820028,
				"element": "H" 
			},
			{
				"x": -5.6383713132,
				"y": 1.7818308176,
				"z": 4.7201469178,
				"element": "H" 
			},
			{
				"x": -4.8379345121,
				"y": 0.5834896641,
				"z": 5.7193133829,
				"element": "H" 
			},
			{
				"x": -6.0846944974,
				"y": 0.2729775362,
				"z": 2.9761268214,
				"element": "H" 
			},
			{
				"x": -6.1200731752,
				"y": -0.8347767889,
				"z": 4.3339786665,
				"element": "H" 
			},
			{
				"x": -3.6849450581,
				"y": -1.3745980763,
				"z": 3.910533334,
				"element": "H" 
			},
			{
				"x": -4.7020279673,
				"y": -1.8021040044,
				"z": 2.5488105857,
				"element": "H" 
			},
			{
				"x": -2.4514565592,
				"y": -0.4518165068,
				"z": 2.1281526862,
				"element": "H" 
			},
			{
				"x": -3.8718611119,
				"y": -0.0513981666,
				"z": 1.1827945639,
				"element": "H" 
			}
		],
		 "valence_orbital": [ 
			{
				"type": "occ",
				"energy": -0.29359,
				"method": "rhf"
			},
			{
				"type": "occ",
				"energy": -0.29245,
				"method": "rhf"
			},
			{
				"type": "occ",
				"energy": -0.28822,
				"method": "rhf"
			},
			{
				"type": "occ",
				"energy": -0.28596,
				"method": "rhf"
			},
			{
				"type": "occ",
				"energy": -0.2832,
				"method": "rhf"
			},
			{
				"type": "unocc",
				"energy": 0.07348,
				"method": "rhf"
			},
			{
				"type": "unocc",
				"energy": 0.08065,
				"method": "rhf"
			},
			{
				"type": "unocc",
				"energy": 0.08889,
				"method": "rhf"
			},
			{
				"type": "unocc",
				"energy": 0.09491,
				"method": "rhf"
			},
			{
				"type": "unocc",
				"energy": 0.09862,
				"method": "rhf"
			}
		],
		"cosmo_sigma_profile": { 
			"-0.025": 0.0,
			"-0.024": 0.0,
			"-0.023": 0.0,
			"-0.022": 0.0,
			"-0.021": 0.0,
			"-0.02": 0.0,
			"-0.019": 0.0,
			"-0.018": 0.0,
			"-0.017": 0.0,
			"-0.016": 0.0,
			"-0.015": 0.0,
			"-0.014": 0.0,
			"-0.013": 0.0,
			"-0.012": 0.0,
			"-0.011": 0.0,
			"-0.01": 0.0,
			"-0.009": 0.0,
			"-0.008": 0.0,
			"-0.007": 0.0,
			"-0.006": 0.0,
			"-0.005": 0.0,
			"-0.004": 0.0,
			"-0.003": 1.83934613113,
			"-0.002": 52.6737112665,
			"-0.001": 141.254767744,
			"0.0": 163.081950889,
			"0.001": 127.809561578,
			"0.002": 60.5806501949,
			"0.003": 1.48823971897,
			"0.004": 0.0,
			"0.005": 0.0,
			"0.006": 0.0,
			"0.007": 0.0,
			"0.008": 0.0,
			"0.009": 0.0,
			"0.01": 0.0,
			"0.011": 0.0,
			"0.012": 0.0,
			"0.013": 0.0,
			"0.014": 0.0,
			"0.015": 0.0,
			"0.016": 0.0,
			"0.017": 0.0,
			"0.018": 0.0,
			"0.019": 0.0,
			"0.02": 0.0,
			"0.021": 0.0,
			"0.022": 0.0,
			"0.023": 0.0,
			"0.024": 0.0,
			"0.025": 0.0
		}
	}
}
