{
	 "smiles": "CCOC(=O)C=CC1=CC(C=CC(=O)OCC)=C(C=C1[N+]([O-])=O)[N+]([O-])=O", 
	 "Tm": 389.15, 
	 "num_atms": 42, 
	 "gaussian": { 
		 "optdone": 1, 
		 "sigma_profile": "yes", 
		 "theory": "DFT", 
		 "functional": "B3LYP", 
		 "basiset": "6-31G**", 
		 "properties": { 
			 "R2extent": 16818.8977, 
			 "electric_dipole_moment_norm": 2.4917963119, 
			 "electric_quadrupole_moment_norm": 31.9457241613, 
			 "total_energy": -1330.41693737, 
			 "HOMO_LUMO_gap": 0.14197, 
			 "cosmo_polarized_energy": -20.8, 
			 "cosmo_cavitation_energy": 50.41, 
			 "cosmo_dispersion_energy": -34.8, 
			 "cosmo_repulsion_energy": 2.69, 
			 "cosmo_total_nonelectrostatic_energy": 18.29, 
			 "SMD_solvation_energy": 15.42 
		},
		"coords": [
			{
				"x": -1.7882848902,
				"y": -6.0470004676,
				"z": -4.6369855114,
				"element": "C" 
			},
			{
				"x": -2.9603425115,
				"y": -5.3377136175,
				"z": -3.9755009481,
				"element": "C" 
			},
			{
				"x": -2.5906552848,
				"y": -4.0060238847,
				"z": -3.5393028438,
				"element": "O" 
			},
			{
				"x": -2.012621652,
				"y": -3.9077020012,
				"z": -2.3248811408,
				"element": "C" 
			},
			{
				"x": -1.7852469097,
				"y": -4.8500205902,
				"z": -1.589228548,
				"element": "O" 
			},
			{
				"x": -1.698727439,
				"y": -2.4879947478,
				"z": -2.0158072212,
				"element": "C" 
			},
			{
				"x": -1.112597905,
				"y": -2.1932815654,
				"z": -0.8455890043,
				"element": "C" 
			},
			{
				"x": -0.6242672067,
				"y": -0.9007905386,
				"z": -0.3465619913,
				"element": "C" 
			},
			{
				"x": 0.4262250571,
				"y": -0.9627460575,
				"z": 0.5851969922,
				"element": "C" 
			},
			{
				"x": 1.1040816551,
				"y": 0.1468204036,
				"z": 1.1192904776,
				"element": "C" 
			},
			{
				"x": 2.0988944146,
				"y": -0.1524220005,
				"z": 2.1578808304,
				"element": "C" 
			},
			{
				"x": 2.5383017386,
				"y": 0.6172831546,
				"z": 3.1649880879,
				"element": "C" 
			},
			{
				"x": 3.4859835715,
				"y": 0.0363534431,
				"z": 4.1519395843,
				"element": "C" 
			},
			{
				"x": 3.9166495668,
				"y": -1.1011603803,
				"z": 4.1263899634,
				"element": "O" 
			},
			{
				"x": 3.8074083754,
				"y": 0.9472137563,
				"z": 5.0912793432,
				"element": "O" 
			},
			{
				"x": 4.7343461509,
				"y": 0.5034742014,
				"z": 6.1107285122,
				"element": "C" 
			},
			{
				"x": 4.9648451505,
				"y": 1.666938668,
				"z": 7.0555038281,
				"element": "C" 
			},
			{
				"x": 0.692759118,
				"y": 1.4049485554,
				"z": 0.6291356954,
				"element": "C" 
			},
			{
				"x": -0.3663900506,
				"y": 1.527502521,
				"z": -0.260263422,
				"element": "C" 
			},
			{
				"x": -1.0269806179,
				"y": 0.3980505505,
				"z": -0.7245882665,
				"element": "C" 
			},
			{
				"x": -2.1950865451,
				"y": 0.6670802936,
				"z": -1.5855500739,
				"element": "N" 
			},
			{
				"x": -2.1049475593,
				"y": 1.6141858093,
				"z": -2.3643023918,
				"element": "O" 
			},
			{
				"x": -3.1862338125,
				"y": -0.0412687606,
				"z": -1.4381155393,
				"element": "O" 
			},
			{
				"x": 1.3719126373,
				"y": 2.6702146565,
				"z": 0.969515427,
				"element": "N" 
			},
			{
				"x": 0.6626795859,
				"y": 3.6676190652,
				"z": 1.0866937626,
				"element": "O" 
			},
			{
				"x": 2.5947594665,
				"y": 2.650834807,
				"z": 1.0709909957,
				"element": "O" 
			},
			{
				"x": -0.9857451807,
				"y": -6.2194285254,
				"z": -3.9157645509,
				"element": "H" 
			},
			{
				"x": -2.1151147345,
				"y": -7.0175114916,
				"z": -5.0246615931,
				"element": "H" 
			},
			{
				"x": -1.3967265996,
				"y": -5.4581677117,
				"z": -5.4715758444,
				"element": "H" 
			},
			{
				"x": -3.3272312872,
				"y": -5.8995104639,
				"z": -3.1133281932,
				"element": "H" 
			},
			{
				"x": -3.7794417096,
				"y": -5.172572078,
				"z": -4.6789460104,
				"element": "H" 
			},
			{
				"x": -1.9640640558,
				"y": -1.7567112609,
				"z": -2.7686144279,
				"element": "H" 
			},
			{
				"x": -0.8865888234,
				"y": -3.0419506747,
				"z": -0.2025800641,
				"element": "H" 
			},
			{
				"x": 0.7394395351,
				"y": -1.9469972389,
				"z": 0.9193166525,
				"element": "H" 
			},
			{
				"x": 2.4647591929,
				"y": -1.1775916695,
				"z": 2.1524401679,
				"element": "H" 
			},
			{
				"x": 2.2483224548,
				"y": 1.6489412328,
				"z": 3.3182078229,
				"element": "H" 
			},
			{
				"x": 5.6584043243,
				"y": 0.1757454906,
				"z": 5.6241743524,
				"element": "H" 
			},
			{
				"x": 4.3051879873,
				"y": -0.3653463038,
				"z": 6.6199261742,
				"element": "H" 
			},
			{
				"x": 5.3880693116,
				"y": 2.5241612513,
				"z": 6.5244235782,
				"element": "H" 
			},
			{
				"x": 5.664037699,
				"y": 1.3701735975,
				"z": 7.8433082206,
				"element": "H" 
			},
			{
				"x": 4.0288808649,
				"y": 1.9805793188,
				"z": 7.5264476895,
				"element": "H" 
			},
			{
				"x": -0.6786530832,
				"y": 2.508491254,
				"z": -0.5932305719,
				"element": "H" 
			}
		],
		 "valence_orbital": [ 
			{
				"type": "occ",
				"energy": -0.30681,
				"method": "rhf"
			},
			{
				"type": "occ",
				"energy": -0.2858,
				"method": "rhf"
			},
			{
				"type": "occ",
				"energy": -0.28483,
				"method": "rhf"
			},
			{
				"type": "occ",
				"energy": -0.275,
				"method": "rhf"
			},
			{
				"type": "occ",
				"energy": -0.27195,
				"method": "rhf"
			},
			{
				"type": "unocc",
				"energy": -0.12998,
				"method": "rhf"
			},
			{
				"type": "unocc",
				"energy": -0.09763,
				"method": "rhf"
			},
			{
				"type": "unocc",
				"energy": -0.07574,
				"method": "rhf"
			},
			{
				"type": "unocc",
				"energy": -0.0648,
				"method": "rhf"
			},
			{
				"type": "unocc",
				"energy": -0.03297,
				"method": "rhf"
			}
		],
		"cosmo_sigma_profile": { 
			"-0.025": 0.0,
			"-0.024": 0.0,
			"-0.023": 0.0,
			"-0.022": 0.0,
			"-0.021": 0.0,
			"-0.02": 0.0,
			"-0.019": 0.0,
			"-0.018": 0.0,
			"-0.017": 0.0,
			"-0.016": 0.0,
			"-0.015": 0.0,
			"-0.014": 0.0,
			"-0.013": 0.0,
			"-0.012": 0.23552936494,
			"-0.011": 1.93151381096,
			"-0.01": 6.27489028597,
			"-0.009": 7.4657550283,
			"-0.008": 8.36238403759,
			"-0.007": 8.43070153708,
			"-0.006": 11.1051167956,
			"-0.005": 20.5225617256,
			"-0.004": 35.3434358299,
			"-0.003": 45.3924819545,
			"-0.002": 41.6303254438,
			"-0.001": 33.85046932,
			"0.0": 32.0685364777,
			"0.001": 17.5290581493,
			"0.002": 14.0966903129,
			"0.003": 12.5371684868,
			"0.004": 11.6891230897,
			"0.005": 13.1194110413,
			"0.006": 18.554898966,
			"0.007": 23.9727174031,
			"0.008": 13.2116139936,
			"0.009": 7.40996481776,
			"0.01": 3.50832629476,
			"0.011": 6.57906267556,
			"0.012": 6.90801967753,
			"0.013": 0.0759379345279,
			"0.014": 0.0,
			"0.015": 0.0,
			"0.016": 0.0,
			"0.017": 0.0,
			"0.018": 0.0,
			"0.019": 0.0,
			"0.02": 0.0,
			"0.021": 0.0,
			"0.022": 0.0,
			"0.023": 0.0,
			"0.024": 0.0,
			"0.025": 0.0
		}
	}
}
