{
	 "smiles": "CN1C=C2C(=C1C1=CC=C(N)C=C1)C(=O)NNC2=O", 
	 "Tm": 623.15, 
	 "num_atms": 31, 
	 "gaussian": { 
		 "optdone": 1, 
		 "sigma_profile": "yes", 
		 "theory": "DFT", 
		 "functional": "B3LYP", 
		 "basiset": "6-31G**", 
		 "properties": { 
			 "R2extent": 6489.049, 
			 "electric_dipole_moment_norm": 4.56992611975, 
			 "electric_quadrupole_moment_norm": 17.9666244142, 
			 "total_energy": -872.063264779, 
			 "HOMO_LUMO_gap": 0.1682, 
			 "cosmo_polarized_energy": -26.22, 
			 "cosmo_cavitation_energy": 35.07, 
			 "cosmo_dispersion_energy": -25.54, 
			 "cosmo_repulsion_energy": 1.95, 
			 "cosmo_total_nonelectrostatic_energy": 11.49, 
			 "SMD_solvation_energy": 7.17 
		},
		"coords": [
			{
				"x": -1.7640169136,
				"y": -1.7136476935,
				"z": -3.0237979847,
				"element": "C" 
			},
			{
				"x": -2.2194051294,
				"y": -0.7456746223,
				"z": -2.0318656706,
				"element": "N" 
			},
			{
				"x": -3.4872584664,
				"y": -0.2196022668,
				"z": -2.0366670353,
				"element": "C" 
			},
			{
				"x": -3.5586247454,
				"y": 0.7178003104,
				"z": -1.0334672346,
				"element": "C" 
			},
			{
				"x": -2.2831851382,
				"y": 0.7605915223,
				"z": -0.3918830818,
				"element": "C" 
			},
			{
				"x": -1.4530851895,
				"y": -0.1683792303,
				"z": -1.0244707775,
				"element": "C" 
			},
			{
				"x": -0.0597259537,
				"y": -0.5590933791,
				"z": -0.7624093819,
				"element": "C" 
			},
			{
				"x": 0.9336788376,
				"y": 0.4147653789,
				"z": -0.5523903783,
				"element": "C" 
			},
			{
				"x": 2.2498430757,
				"y": 0.0560754293,
				"z": -0.2992629807,
				"element": "C" 
			},
			{
				"x": 2.6321985853,
				"y": -1.2965411943,
				"z": -0.2377633271,
				"element": "C" 
			},
			{
				"x": 3.9624507349,
				"y": -1.6533851311,
				"z": -0.0379163602,
				"element": "N" 
			},
			{
				"x": 1.6429216231,
				"y": -2.2763291247,
				"z": -0.4310703115,
				"element": "C" 
			},
			{
				"x": 0.3262635168,
				"y": -1.9096321806,
				"z": -0.6841526492,
				"element": "C" 
			},
			{
				"x": -2.0412334283,
				"y": 1.6713222722,
				"z": 0.7232335929,
				"element": "C" 
			},
			{
				"x": -0.9717746286,
				"y": 1.9102227073,
				"z": 1.277998089,
				"element": "O" 
			},
			{
				"x": -3.194671593,
				"y": 2.3187760827,
				"z": 1.176976198,
				"element": "N" 
			},
			{
				"x": -4.3894954394,
				"y": 2.4133552145,
				"z": 0.4141296144,
				"element": "N" 
			},
			{
				"x": -4.7028064234,
				"y": 1.5101102565,
				"z": -0.5985007188,
				"element": "C" 
			},
			{
				"x": -5.8453070007,
				"y": 1.440698746,
				"z": -1.0388320741,
				"element": "O" 
			},
			{
				"x": -2.3038990123,
				"y": -1.5394163264,
				"z": -3.9566032652,
				"element": "H" 
			},
			{
				"x": -0.6959420804,
				"y": -1.5852606643,
				"z": -3.1989695718,
				"element": "H" 
			},
			{
				"x": -1.9474818178,
				"y": -2.7419774505,
				"z": -2.6968410919,
				"element": "H" 
			},
			{
				"x": -4.232444049,
				"y": -0.540146504,
				"z": -2.7485191651,
				"element": "H" 
			},
			{
				"x": 0.6592883816,
				"y": 1.4621439656,
				"z": -0.5652838622,
				"element": "H" 
			},
			{
				"x": 2.9971389985,
				"y": 0.8302470363,
				"z": -0.1441872696,
				"element": "H" 
			},
			{
				"x": 4.5352996084,
				"y": -0.9583621228,
				"z": 0.4201612807,
				"element": "H" 
			},
			{
				"x": 4.1155052627,
				"y": -2.5808328168,
				"z": 0.3327223115,
				"element": "H" 
			},
			{
				"x": 1.9092191279,
				"y": -3.3287221544,
				"z": -0.3710582364,
				"element": "H" 
			},
			{
				"x": -0.4200797243,
				"y": -2.6912961116,
				"z": -0.7903965089,
				"element": "H" 
			},
			{
				"x": -2.9753585489,
				"y": 3.188840193,
				"z": 1.6485726952,
				"element": "H" 
			},
			{
				"x": -5.1913124701,
				"y": 2.6647498587,
				"z": 0.9811151555,
				"element": "H" 
			}
		],
		 "valence_orbital": [ 
			{
				"type": "occ",
				"energy": -0.24991,
				"method": "rhf"
			},
			{
				"type": "occ",
				"energy": -0.2447,
				"method": "rhf"
			},
			{
				"type": "occ",
				"energy": -0.23756,
				"method": "rhf"
			},
			{
				"type": "occ",
				"energy": -0.21714,
				"method": "rhf"
			},
			{
				"type": "occ",
				"energy": -0.19541,
				"method": "rhf"
			},
			{
				"type": "unocc",
				"energy": -0.02721,
				"method": "rhf"
			},
			{
				"type": "unocc",
				"energy": -0.0144,
				"method": "rhf"
			},
			{
				"type": "unocc",
				"energy": -0.00051,
				"method": "rhf"
			},
			{
				"type": "unocc",
				"energy": 0.02104,
				"method": "rhf"
			},
			{
				"type": "unocc",
				"energy": 0.0705,
				"method": "rhf"
			}
		],
		"cosmo_sigma_profile": { 
			"-0.025": 0.0,
			"-0.024": 0.0,
			"-0.023": 0.0,
			"-0.022": 0.0,
			"-0.021": 0.0,
			"-0.02": 0.0,
			"-0.019": 0.0,
			"-0.018": 0.0,
			"-0.017": 0.0,
			"-0.016": 0.470133213021,
			"-0.015": 3.472570125,
			"-0.014": 2.76898069248,
			"-0.013": 2.26696348726,
			"-0.012": 4.71535849076,
			"-0.011": 4.07148301381,
			"-0.01": 4.87641448489,
			"-0.009": 7.290095582,
			"-0.008": 6.64291363651,
			"-0.007": 9.80217355933,
			"-0.006": 14.1577664532,
			"-0.005": 14.3461373218,
			"-0.004": 17.5642398294,
			"-0.003": 17.9450659037,
			"-0.002": 13.2211088385,
			"-0.001": 13.102584892,
			"0.0": 13.2421739904,
			"0.001": 13.6215096606,
			"0.002": 15.2869424752,
			"0.003": 19.5395914412,
			"0.004": 10.9086752721,
			"0.005": 12.7779518006,
			"0.006": 12.344472554,
			"0.007": 5.84661916767,
			"0.008": 4.19381523083,
			"0.009": 3.79517156881,
			"0.01": 3.80755094004,
			"0.011": 3.71991520919,
			"0.012": 5.41358834769,
			"0.013": 9.66477757129,
			"0.014": 8.12204117828,
			"0.015": 0.334690439384,
			"0.016": 0.0,
			"0.017": 0.0,
			"0.018": 0.0,
			"0.019": 0.0,
			"0.02": 0.0,
			"0.021": 0.0,
			"0.022": 0.0,
			"0.023": 0.0,
			"0.024": 0.0,
			"0.025": 0.0
		}
	}
}
