{
	 "smiles": "CCOC(=O)CC1=NN=C(N)S1", 
	 "Tm": 430.15, 
	 "num_atms": 21, 
	 "gaussian": { 
		 "optdone": 1, 
		 "sigma_profile": "yes", 
		 "theory": "DFT", 
		 "functional": "B3LYP", 
		 "basiset": "6-31G**", 
		 "properties": { 
			 "R2extent": 4152.278, 
			 "electric_dipole_moment_norm": 2.6975295624, 
			 "electric_quadrupole_moment_norm": 16.8475920665, 
			 "total_energy": -946.938207354, 
			 "HOMO_LUMO_gap": 0.21015, 
			 "cosmo_polarized_energy": -17.5, 
			 "cosmo_cavitation_energy": 27.54, 
			 "cosmo_dispersion_energy": -20.9, 
			 "cosmo_repulsion_energy": 1.68, 
			 "cosmo_total_nonelectrostatic_energy": 8.32, 
			 "SMD_solvation_energy": 3.68 
		},
		"coords": [
			{
				"x": 1.9696224493,
				"y": -2.1884374911,
				"z": -3.1332062385,
				"element": "C" 
			},
			{
				"x": 0.627480621,
				"y": -2.1960982657,
				"z": -2.4277725656,
				"element": "C" 
			},
			{
				"x": 0.6459990174,
				"y": -1.1274277594,
				"z": -1.4472698749,
				"element": "O" 
			},
			{
				"x": -0.4734337715,
				"y": -0.9772027297,
				"z": -0.7193348924,
				"element": "C" 
			},
			{
				"x": -1.4579462843,
				"y": -1.6773546679,
				"z": -0.8305822052,
				"element": "O" 
			},
			{
				"x": -0.3568812567,
				"y": 0.220502756,
				"z": 0.2097524075,
				"element": "C" 
			},
			{
				"x": -1.1221207966,
				"y": 0.1005992009,
				"z": 1.4931392599,
				"element": "C" 
			},
			{
				"x": -0.6330586184,
				"y": 0.4952287331,
				"z": 2.627869669,
				"element": "N" 
			},
			{
				"x": -1.494509829,
				"y": 0.3654738098,
				"z": 3.6852817533,
				"element": "N" 
			},
			{
				"x": -2.6563190772,
				"y": -0.1112606342,
				"z": 3.321245307,
				"element": "C" 
			},
			{
				"x": -3.7086044133,
				"y": -0.2682575028,
				"z": 4.1926937928,
				"element": "N" 
			},
			{
				"x": -2.7869010044,
				"y": -0.4866307845,
				"z": 1.6076399074,
				"element": "S" 
			},
			{
				"x": 2.7852379039,
				"y": -2.3560484099,
				"z": -2.4242002743,
				"element": "H" 
			},
			{
				"x": 1.9967666393,
				"y": -2.9843715403,
				"z": -3.8837913057,
				"element": "H" 
			},
			{
				"x": 2.1418365141,
				"y": -1.2335792008,
				"z": -3.6379474162,
				"element": "H" 
			},
			{
				"x": -0.2045594963,
				"y": -2.0239913847,
				"z": -3.1176347778,
				"element": "H" 
			},
			{
				"x": 0.4373776208,
				"y": -3.1410261293,
				"z": -1.9099746612,
				"element": "H" 
			},
			{
				"x": 0.6885724552,
				"y": 0.4146689759,
				"z": 0.4562875166,
				"element": "H" 
			},
			{
				"x": -0.7162608807,
				"y": 1.0882174439,
				"z": -0.3631071056,
				"element": "H" 
			},
			{
				"x": -3.4231276111,
				"y": -0.2038697818,
				"z": 5.1618913995,
				"element": "H" 
			},
			{
				"x": -4.3475701815,
				"y": -1.0272346376,
				"z": 4.0046203043,
				"element": "H" 
			}
		],
		 "valence_orbital": [ 
			{
				"type": "occ",
				"energy": -0.29441,
				"method": "rhf"
			},
			{
				"type": "occ",
				"energy": -0.28674,
				"method": "rhf"
			},
			{
				"type": "occ",
				"energy": -0.27805,
				"method": "rhf"
			},
			{
				"type": "occ",
				"energy": -0.25263,
				"method": "rhf"
			},
			{
				"type": "occ",
				"energy": -0.22618,
				"method": "rhf"
			},
			{
				"type": "unocc",
				"energy": -0.01603,
				"method": "rhf"
			},
			{
				"type": "unocc",
				"energy": 0.00362,
				"method": "rhf"
			},
			{
				"type": "unocc",
				"energy": 0.0118,
				"method": "rhf"
			},
			{
				"type": "unocc",
				"energy": 0.04938,
				"method": "rhf"
			},
			{
				"type": "unocc",
				"energy": 0.07242,
				"method": "rhf"
			}
		],
		"cosmo_sigma_profile": { 
			"-0.025": 0.0,
			"-0.024": 0.0,
			"-0.023": 0.0,
			"-0.022": 0.0,
			"-0.021": 0.0,
			"-0.02": 0.0,
			"-0.019": 0.0,
			"-0.018": 0.0,
			"-0.017": 0.0,
			"-0.016": 0.0,
			"-0.015": 0.824575089265,
			"-0.014": 2.73269482758,
			"-0.013": 2.55386871351,
			"-0.012": 2.56360880034,
			"-0.011": 3.02440769689,
			"-0.01": 2.33210710811,
			"-0.009": 4.02650984228,
			"-0.008": 4.39400170851,
			"-0.007": 5.16240100648,
			"-0.006": 6.28492016812,
			"-0.005": 13.6155423045,
			"-0.004": 19.9750047035,
			"-0.003": 16.9137710074,
			"-0.002": 13.6578453924,
			"-0.001": 16.6757042941,
			"0.0": 16.183267606,
			"0.001": 12.9678807551,
			"0.002": 9.64764018439,
			"0.003": 8.44312363214,
			"0.004": 6.83724692177,
			"0.005": 6.5869408484,
			"0.006": 5.38462989766,
			"0.007": 5.54968997778,
			"0.008": 5.48992069658,
			"0.009": 4.10153897315,
			"0.01": 5.50054778506,
			"0.011": 6.99538763705,
			"0.012": 3.85622230029,
			"0.013": 3.14161963592,
			"0.014": 2.17433403578,
			"0.015": 2.15827933555,
			"0.016": 0.300352458565,
			"0.017": 0.0,
			"0.018": 0.0,
			"0.019": 0.0,
			"0.02": 0.0,
			"0.021": 0.0,
			"0.022": 0.0,
			"0.023": 0.0,
			"0.024": 0.0,
			"0.025": 0.0
		}
	}
}
