{
	 "smiles": "CC1=CC=C(C=C1)C1=NN(C=C1C=C(C#N)C(O)=O)C1=CC=CC=C1", 
	 "Tm": 569.15, 
	 "num_atms": 40, 
	 "gaussian": { 
		 "optdone": 1, 
		 "sigma_profile": "yes", 
		 "theory": "DFT", 
		 "functional": "B3LYP", 
		 "basiset": "6-31G**", 
		 "properties": { 
			 "R2extent": 10950.7372, 
			 "electric_dipole_moment_norm": 7.7139152251, 
			 "electric_quadrupole_moment_norm": 47.3523287509, 
			 "total_energy": -1085.8449291, 
			 "HOMO_LUMO_gap": 0.14095, 
			 "cosmo_polarized_energy": -21.58, 
			 "cosmo_cavitation_energy": 46.73, 
			 "cosmo_dispersion_energy": -32.16, 
			 "cosmo_repulsion_energy": 2.44, 
			 "cosmo_total_nonelectrostatic_energy": 17.01, 
			 "SMD_solvation_energy": 9.85 
		},
		"coords": [
			{
				"x": 1.1234226137,
				"y": -0.3055177515,
				"z": -6.2183536551,
				"element": "C" 
			},
			{
				"x": 0.9423844643,
				"y": -0.2602586173,
				"z": -4.7202857324,
				"element": "C" 
			},
			{
				"x": -0.3315768164,
				"y": -0.1569849111,
				"z": -4.1487175576,
				"element": "C" 
			},
			{
				"x": -0.499635212,
				"y": -0.0826907042,
				"z": -2.7668008793,
				"element": "C" 
			},
			{
				"x": 0.611896673,
				"y": -0.1032659525,
				"z": -1.9088666745,
				"element": "C" 
			},
			{
				"x": 1.8911310105,
				"y": -0.2239347451,
				"z": -2.4780781712,
				"element": "C" 
			},
			{
				"x": 2.0483312869,
				"y": -0.3013992052,
				"z": -3.8576263184,
				"element": "C" 
			},
			{
				"x": 0.466935924,
				"y": -0.0378057666,
				"z": -0.4444467221,
				"element": "C" 
			},
			{
				"x": 1.2580172035,
				"y": -0.7697252162,
				"z": 0.3306393901,
				"element": "N" 
			},
			{
				"x": 0.8883874422,
				"y": -0.4751495479,
				"z": 1.611041393,
				"element": "N" 
			},
			{
				"x": -0.1324904149,
				"y": 0.4068382045,
				"z": 1.662059909,
				"element": "C" 
			},
			{
				"x": -0.4525086525,
				"y": 0.7495080856,
				"z": 0.3476491856,
				"element": "C" 
			},
			{
				"x": -1.3356083016,
				"y": 1.7394452043,
				"z": -0.205228483,
				"element": "C" 
			},
			{
				"x": -2.3960469534,
				"y": 2.4729870477,
				"z": 0.2630838838,
				"element": "C" 
			},
			{
				"x": -2.9621034577,
				"y": 3.4287492933,
				"z": -0.6485582394,
				"element": "C" 
			},
			{
				"x": -3.3867001861,
				"y": 4.1882812968,
				"z": -1.4206824872,
				"element": "N" 
			},
			{
				"x": -3.106833234,
				"y": 2.4224226213,
				"z": 1.5629298231,
				"element": "C" 
			},
			{
				"x": -2.6338708323,
				"y": 1.4928139885,
				"z": 2.4348153226,
				"element": "O" 
			},
			{
				"x": -4.0530982063,
				"y": 3.1288887219,
				"z": 1.8414611654,
				"element": "O" 
			},
			{
				"x": 1.552963929,
				"y": -1.1075047748,
				"z": 2.6997646768,
				"element": "C" 
			},
			{
				"x": 1.5351475942,
				"y": -0.5241419073,
				"z": 3.9711715247,
				"element": "C" 
			},
			{
				"x": 2.1752743924,
				"y": -1.1676793766,
				"z": 5.0292907362,
				"element": "C" 
			},
			{
				"x": 2.8428891025,
				"y": -2.3760600735,
				"z": 4.8226991515,
				"element": "C" 
			},
			{
				"x": 2.868194226,
				"y": -2.9404746677,
				"z": 3.5455294556,
				"element": "C" 
			},
			{
				"x": 2.2240829345,
				"y": -2.3147422814,
				"z": 2.480155742,
				"element": "C" 
			},
			{
				"x": 0.242501718,
				"y": -0.7213651624,
				"z": -6.7159679232,
				"element": "H" 
			},
			{
				"x": 1.2832699662,
				"y": 0.7005663043,
				"z": -6.6261158142,
				"element": "H" 
			},
			{
				"x": 1.9909436566,
				"y": -0.9104844807,
				"z": -6.4990036233,
				"element": "H" 
			},
			{
				"x": -1.2077870192,
				"y": -0.1455541251,
				"z": -4.791752936,
				"element": "H" 
			},
			{
				"x": -1.5032495432,
				"y": -0.0454420957,
				"z": -2.3546322638,
				"element": "H" 
			},
			{
				"x": 2.7563312536,
				"y": -0.254112213,
				"z": -1.8240425076,
				"element": "H" 
			},
			{
				"x": 3.0478650906,
				"y": -0.3914242,
				"z": -4.275879941,
				"element": "H" 
			},
			{
				"x": -0.5674804426,
				"y": 0.7359320594,
				"z": 2.5877189523,
				"element": "H" 
			},
			{
				"x": -1.0912323161,
				"y": 1.9643093635,
				"z": -1.2410805096,
				"element": "H" 
			},
			{
				"x": -3.2201341608,
				"y": 1.5552858566,
				"z": 3.207699908,
				"element": "H" 
			},
			{
				"x": 1.0494958441,
				"y": 0.4321091738,
				"z": 4.1329269176,
				"element": "H" 
			},
			{
				"x": 2.161733335,
				"y": -0.7123962163,
				"z": 6.0148800363,
				"element": "H" 
			},
			{
				"x": 3.3442021895,
				"y": -2.8702876385,
				"z": 5.6490531691,
				"element": "H" 
			},
			{
				"x": 3.3879880853,
				"y": -3.8783615273,
				"z": 3.3747054257,
				"element": "H" 
			},
			{
				"x": 2.2316658134,
				"y": -2.7397740636,
				"z": 1.4842446704,
				"element": "H" 
			}
		],
		 "valence_orbital": [ 
			{
				"type": "occ",
				"energy": -0.2727,
				"method": "rhf"
			},
			{
				"type": "occ",
				"energy": -0.26528,
				"method": "rhf"
			},
			{
				"type": "occ",
				"energy": -0.25843,
				"method": "rhf"
			},
			{
				"type": "occ",
				"energy": -0.2475,
				"method": "rhf"
			},
			{
				"type": "occ",
				"energy": -0.22784,
				"method": "rhf"
			},
			{
				"type": "unocc",
				"energy": -0.08689,
				"method": "rhf"
			},
			{
				"type": "unocc",
				"energy": -0.04386,
				"method": "rhf"
			},
			{
				"type": "unocc",
				"energy": -0.02304,
				"method": "rhf"
			},
			{
				"type": "unocc",
				"energy": -0.01308,
				"method": "rhf"
			},
			{
				"type": "unocc",
				"energy": -0.00995,
				"method": "rhf"
			}
		],
		"cosmo_sigma_profile": { 
			"-0.025": 0.0,
			"-0.024": 0.0,
			"-0.023": 0.0,
			"-0.022": 0.0,
			"-0.021": 0.0,
			"-0.02": 0.0,
			"-0.019": 0.431085768372,
			"-0.018": 0.810801164741,
			"-0.017": 1.00084362176,
			"-0.016": 0.891292690726,
			"-0.015": 0.441830227258,
			"-0.014": 0.931819225567,
			"-0.013": 0.546967827582,
			"-0.012": 0.916723843903,
			"-0.011": 0.973983301768,
			"-0.01": 1.37847388205,
			"-0.009": 2.32960976795,
			"-0.008": 3.26611328898,
			"-0.007": 7.29043256304,
			"-0.006": 18.0195530328,
			"-0.005": 25.6513353056,
			"-0.004": 32.3317562996,
			"-0.003": 28.4463664832,
			"-0.002": 29.8213693598,
			"-0.001": 33.1708662599,
			"0.0": 32.8415745837,
			"0.001": 22.4011618135,
			"0.002": 20.0265843783,
			"0.003": 22.8712756719,
			"0.004": 26.2208090823,
			"0.005": 14.9276196693,
			"0.006": 6.68241914023,
			"0.007": 6.04266674006,
			"0.008": 6.91055200406,
			"0.009": 6.96992034312,
			"0.01": 7.34042770357,
			"0.011": 8.18999065186,
			"0.012": 4.51982164252,
			"0.013": 1.73378080429,
			"0.014": 0.307784067682,
			"0.015": 0.0,
			"0.016": 0.0,
			"0.017": 0.0,
			"0.018": 0.0,
			"0.019": 0.0,
			"0.02": 0.0,
			"0.021": 0.0,
			"0.022": 0.0,
			"0.023": 0.0,
			"0.024": 0.0,
			"0.025": 0.0
		}
	}
}
