{
	 "smiles": "CC1=C(N)C(=CC=C1)C(=O)N1CCSCC1", 
	 "Tm": 387.15, 
	 "num_atms": 32, 
	 "gaussian": { 
		 "optdone": 1, 
		 "sigma_profile": "yes", 
		 "theory": "DFT", 
		 "functional": "B3LYP", 
		 "basiset": "6-31G**", 
		 "properties": { 
			 "R2extent": 5864.9031, 
			 "electric_dipole_moment_norm": 1.84307700599, 
			 "electric_quadrupole_moment_norm": 7.50566516839, 
			 "total_energy": -1049.85887695, 
			 "HOMO_LUMO_gap": 0.17444, 
			 "cosmo_polarized_energy": -12.79, 
			 "cosmo_cavitation_energy": 34.29, 
			 "cosmo_dispersion_energy": -25.71, 
			 "cosmo_repulsion_energy": 1.95, 
			 "cosmo_total_nonelectrostatic_energy": 10.53, 
			 "SMD_solvation_energy": 4.41 
		},
		"coords": [
			{
				"x": -2.6170254803,
				"y": 1.3882214743,
				"z": -3.0687630355,
				"element": "C" 
			},
			{
				"x": -2.4863906715,
				"y": 0.2912001613,
				"z": -2.0410926681,
				"element": "C" 
			},
			{
				"x": -1.9201756837,
				"y": 0.5790289892,
				"z": -0.7714913296,
				"element": "C" 
			},
			{
				"x": -1.4802051078,
				"y": 1.8571016315,
				"z": -0.4823339386,
				"element": "N" 
			},
			{
				"x": -1.7579630299,
				"y": -0.4747086744,
				"z": 0.1698317634,
				"element": "C" 
			},
			{
				"x": -2.239946104,
				"y": -1.7560848458,
				"z": -0.1412554711,
				"element": "C" 
			},
			{
				"x": -2.8287505182,
				"y": -2.0288786465,
				"z": -1.3692080587,
				"element": "C" 
			},
			{
				"x": -2.9278768207,
				"y": -1.0016078251,
				"z": -2.3121978793,
				"element": "C" 
			},
			{
				"x": -1.1825189337,
				"y": -0.1736723252,
				"z": 1.5183100585,
				"element": "C" 
			},
			{
				"x": -1.4418104307,
				"y": 0.8871123854,
				"z": 2.106022781,
				"element": "O" 
			},
			{
				"x": -0.3834233781,
				"y": -1.1118060183,
				"z": 2.1350582459,
				"element": "N" 
			},
			{
				"x": 0.0079384744,
				"y": -0.7946849117,
				"z": 3.5193675069,
				"element": "C" 
			},
			{
				"x": 0.5624263684,
				"y": -2.0149957085,
				"z": 4.2455186471,
				"element": "C" 
			},
			{
				"x": 2.1633930904,
				"y": -2.5983127941,
				"z": 3.5401875201,
				"element": "S" 
			},
			{
				"x": 1.8585384164,
				"y": -2.1283679431,
				"z": 1.7839802232,
				"element": "C" 
			},
			{
				"x": 0.3713758893,
				"y": -2.15423344,
				"z": 1.4252853917,
				"element": "C" 
			},
			{
				"x": -3.02795692,
				"y": 1.0007841247,
				"z": -4.004222973,
				"element": "H" 
			},
			{
				"x": -1.6474254642,
				"y": 1.8501379208,
				"z": -3.2942409739,
				"element": "H" 
			},
			{
				"x": -3.2855423682,
				"y": 2.1927329584,
				"z": -2.7300587371,
				"element": "H" 
			},
			{
				"x": -1.4391311749,
				"y": 2.0549847223,
				"z": 0.5119384216,
				"element": "H" 
			},
			{
				"x": -1.8704305594,
				"y": 2.5981012274,
				"z": -1.0439642981,
				"element": "H" 
			},
			{
				"x": -2.1700837527,
				"y": -2.5390173697,
				"z": 0.6075032448,
				"element": "H" 
			},
			{
				"x": -3.2050583633,
				"y": -3.021755942,
				"z": -1.5929917058,
				"element": "H" 
			},
			{
				"x": -3.3731666016,
				"y": -1.2050141239,
				"z": -3.2833488628,
				"element": "H" 
			},
			{
				"x": -0.8814567971,
				"y": -0.4226553736,
				"z": 4.0344191771,
				"element": "H" 
			},
			{
				"x": 0.7418833959,
				"y": 0.0215305933,
				"z": 3.5365818258,
				"element": "H" 
			},
			{
				"x": 0.7663058832,
				"y": -1.7543959068,
				"z": 5.2868707939,
				"element": "H" 
			},
			{
				"x": -0.1652960567,
				"y": -2.8319971031,
				"z": 4.2398570443,
				"element": "H" 
			},
			{
				"x": 2.2802295843,
				"y": -1.1391598551,
				"z": 1.5836702281,
				"element": "H" 
			},
			{
				"x": 2.3933189265,
				"y": -2.8577140466,
				"z": 1.1699649846,
				"element": "H" 
			},
			{
				"x": -0.0329385081,
				"y": -3.1517745033,
				"z": 1.6420999185,
				"element": "H" 
			},
			{
				"x": 0.2606626959,
				"y": -1.9839988318,
				"z": 0.3537021552,
				"element": "H" 
			}
		],
		 "valence_orbital": [ 
			{
				"type": "occ",
				"energy": -0.25805,
				"method": "rhf"
			},
			{
				"type": "occ",
				"energy": -0.24274,
				"method": "rhf"
			},
			{
				"type": "occ",
				"energy": -0.23908,
				"method": "rhf"
			},
			{
				"type": "occ",
				"energy": -0.22349,
				"method": "rhf"
			},
			{
				"type": "occ",
				"energy": -0.19953,
				"method": "rhf"
			},
			{
				"type": "unocc",
				"energy": -0.02509,
				"method": "rhf"
			},
			{
				"type": "unocc",
				"energy": 0.0119,
				"method": "rhf"
			},
			{
				"type": "unocc",
				"energy": 0.03348,
				"method": "rhf"
			},
			{
				"type": "unocc",
				"energy": 0.04969,
				"method": "rhf"
			},
			{
				"type": "unocc",
				"energy": 0.0593,
				"method": "rhf"
			}
		],
		"cosmo_sigma_profile": { 
			"-0.025": 0.0,
			"-0.024": 0.0,
			"-0.023": 0.0,
			"-0.022": 0.0,
			"-0.021": 0.0,
			"-0.02": 0.0,
			"-0.019": 0.0,
			"-0.018": 0.0,
			"-0.017": 0.0,
			"-0.016": 0.0,
			"-0.015": 0.0,
			"-0.014": 0.0,
			"-0.013": 0.0,
			"-0.012": 0.413238617749,
			"-0.011": 0.785132331183,
			"-0.01": 1.10390580316,
			"-0.009": 1.67183754316,
			"-0.008": 2.14591515637,
			"-0.007": 3.29037081366,
			"-0.006": 10.4811274654,
			"-0.005": 26.6340073253,
			"-0.004": 35.1739750577,
			"-0.003": 26.8318925358,
			"-0.002": 22.7378285789,
			"-0.001": 17.4070794198,
			"0.0": 18.0212121152,
			"0.001": 12.4491007578,
			"0.002": 13.9246791946,
			"0.003": 11.2549607006,
			"0.004": 11.2423236569,
			"0.005": 13.7591617641,
			"0.006": 12.6631174557,
			"0.007": 5.502534859,
			"0.008": 5.03648181532,
			"0.009": 3.52446482923,
			"0.01": 4.73955860307,
			"0.011": 3.25158792787,
			"0.012": 2.77913869664,
			"0.013": 3.61040242375,
			"0.014": 1.36439033591,
			"0.015": 0.0,
			"0.016": 0.0,
			"0.017": 0.0,
			"0.018": 0.0,
			"0.019": 0.0,
			"0.02": 0.0,
			"0.021": 0.0,
			"0.022": 0.0,
			"0.023": 0.0,
			"0.024": 0.0,
			"0.025": 0.0
		}
	}
}
