{
	 "smiles": "CC(=O)N(C1CC1)C1=NC(CCl)=CS1", 
	 "Tm": 330.15, 
	 "num_atms": 25, 
	 "gaussian": { 
		 "optdone": 1, 
		 "sigma_profile": "yes", 
		 "theory": "DFT", 
		 "functional": "B3LYP", 
		 "basiset": "6-31G**", 
		 "properties": { 
			 "R2extent": 4381.5784, 
			 "electric_dipole_moment_norm": 2.99770053875, 
			 "electric_quadrupole_moment_norm": 15.8255168074, 
			 "total_energy": -1392.6643508, 
			 "HOMO_LUMO_gap": 0.19141, 
			 "cosmo_polarized_energy": -12.28, 
			 "cosmo_cavitation_energy": 31.82, 
			 "cosmo_dispersion_energy": -22.84, 
			 "cosmo_repulsion_energy": 1.8, 
			 "cosmo_total_nonelectrostatic_energy": 10.79, 
			 "SMD_solvation_energy": 4.47 
		},
		"coords": [
			{
				"x": 2.8985340005,
				"y": -0.137450823,
				"z": 2.1505935269,
				"element": "C" 
			},
			{
				"x": 2.8078071698,
				"y": 0.9405866262,
				"z": 1.0955936169,
				"element": "C" 
			},
			{
				"x": 3.502492393,
				"y": 1.938957726,
				"z": 1.1314899892,
				"element": "O" 
			},
			{
				"x": 1.8821488181,
				"y": 0.7901414212,
				"z": 0.0236363466,
				"element": "N" 
			},
			{
				"x": 1.8959066361,
				"y": 1.8397622871,
				"z": -0.9800731935,
				"element": "C" 
			},
			{
				"x": 1.4589258759,
				"y": 3.2230775796,
				"z": -0.5900904924,
				"element": "C" 
			},
			{
				"x": 0.5820499166,
				"y": 2.3940512385,
				"z": -1.4860380516,
				"element": "C" 
			},
			{
				"x": 1.1819500311,
				"y": -0.3816356588,
				"z": -0.2571763916,
				"element": "C" 
			},
			{
				"x": 0.781767099,
				"y": -1.2597405887,
				"z": 0.6142324844,
				"element": "N" 
			},
			{
				"x": 0.1629210088,
				"y": -2.331452417,
				"z": 0.003897082,
				"element": "C" 
			},
			{
				"x": -0.3738359579,
				"y": -3.4381452907,
				"z": 0.8448959308,
				"element": "C" 
			},
			{
				"x": -1.9550820331,
				"y": -2.9962204728,
				"z": 1.6628541406,
				"element": "Cl" 
			},
			{
				"x": 0.0786916045,
				"y": -2.2708838671,
				"z": -1.357614419,
				"element": "C" 
			},
			{
				"x": 0.8107987466,
				"y": -0.8121550842,
				"z": -1.9439863364,
				"element": "S" 
			},
			{
				"x": 1.9472763521,
				"y": -0.2682888413,
				"z": 2.6692240448,
				"element": "H" 
			},
			{
				"x": 3.6787013645,
				"y": 0.170115265,
				"z": 2.8469776434,
				"element": "H" 
			},
			{
				"x": 3.1474660009,
				"y": -1.1076240555,
				"z": 1.712795895,
				"element": "H" 
			},
			{
				"x": 2.7225757699,
				"y": 1.7681238772,
				"z": -1.6842247612,
				"element": "H" 
			},
			{
				"x": 1.1386486735,
				"y": 3.3661865456,
				"z": 0.435634321,
				"element": "H" 
			},
			{
				"x": 2.0194543014,
				"y": 4.0533315601,
				"z": -1.006481487,
				"element": "H" 
			},
			{
				"x": -0.3314000222,
				"y": 1.9899490256,
				"z": -1.0618328147,
				"element": "H" 
			},
			{
				"x": 0.5170024398,
				"y": 2.6346142092,
				"z": -2.5425231099,
				"element": "H" 
			},
			{
				"x": -0.5815216202,
				"y": -4.3277202484,
				"z": 0.2515992297,
				"element": "H" 
			},
			{
				"x": 0.3118516809,
				"y": -3.6822639681,
				"z": 1.6560046526,
				"element": "H" 
			},
			{
				"x": -0.4024302496,
				"y": -2.9654160457,
				"z": -2.0315878467,
				"element": "H" 
			}
		],
		 "valence_orbital": [ 
			{
				"type": "occ",
				"energy": -0.29526,
				"method": "rhf"
			},
			{
				"type": "occ",
				"energy": -0.28846,
				"method": "rhf"
			},
			{
				"type": "occ",
				"energy": -0.28084,
				"method": "rhf"
			},
			{
				"type": "occ",
				"energy": -0.26278,
				"method": "rhf"
			},
			{
				"type": "occ",
				"energy": -0.23016,
				"method": "rhf"
			},
			{
				"type": "unocc",
				"energy": -0.03875,
				"method": "rhf"
			},
			{
				"type": "unocc",
				"energy": -0.00756,
				"method": "rhf"
			},
			{
				"type": "unocc",
				"energy": 0.00421,
				"method": "rhf"
			},
			{
				"type": "unocc",
				"energy": 0.02196,
				"method": "rhf"
			},
			{
				"type": "unocc",
				"energy": 0.06696,
				"method": "rhf"
			}
		],
		"cosmo_sigma_profile": { 
			"-0.025": 0.0,
			"-0.024": 0.0,
			"-0.023": 0.0,
			"-0.022": 0.0,
			"-0.021": 0.0,
			"-0.02": 0.0,
			"-0.019": 0.0,
			"-0.018": 0.0,
			"-0.017": 0.0,
			"-0.016": 0.0,
			"-0.015": 0.0,
			"-0.014": 0.0,
			"-0.013": 0.0,
			"-0.012": 0.0,
			"-0.011": 0.0,
			"-0.01": 0.504010307093,
			"-0.009": 3.29127700896,
			"-0.008": 5.89800136716,
			"-0.007": 5.86052083097,
			"-0.006": 11.2961868792,
			"-0.005": 21.5445497698,
			"-0.004": 21.0552733318,
			"-0.003": 21.4448881976,
			"-0.002": 19.9687367906,
			"-0.001": 20.01195243,
			"0.0": 18.59341385,
			"0.001": 18.5845374406,
			"0.002": 16.8351145052,
			"0.003": 14.0816927021,
			"0.004": 8.52484822115,
			"0.005": 8.48681510543,
			"0.006": 12.7787310673,
			"0.007": 10.0718344611,
			"0.008": 2.95808621543,
			"0.009": 2.52534097762,
			"0.01": 2.13759991909,
			"0.011": 2.31735291001,
			"0.012": 4.36468963229,
			"0.013": 3.24243163992,
			"0.014": 0.279252587518,
			"0.015": 0.0,
			"0.016": 0.0,
			"0.017": 0.0,
			"0.018": 0.0,
			"0.019": 0.0,
			"0.02": 0.0,
			"0.021": 0.0,
			"0.022": 0.0,
			"0.023": 0.0,
			"0.024": 0.0,
			"0.025": 0.0
		}
	}
}
