{
	 "smiles": "CSCCC(NC(=O)C1=CC=CO1)C(O)=O", 
	 "Tm": 459.15, 
	 "num_atms": 29, 
	 "gaussian": { 
		 "optdone": 1, 
		 "sigma_profile": "yes", 
		 "theory": "DFT", 
		 "functional": "B3LYP", 
		 "basiset": "6-31G**", 
		 "properties": { 
			 "R2extent": 5010.0179, 
			 "electric_dipole_moment_norm": 3.26182548276, 
			 "electric_quadrupole_moment_norm": 17.0284314169, 
			 "total_energy": -1142.72860109, 
			 "HOMO_LUMO_gap": 0.18411, 
			 "cosmo_polarized_energy": -17.85, 
			 "cosmo_cavitation_energy": 34.76, 
			 "cosmo_dispersion_energy": -24.37, 
			 "cosmo_repulsion_energy": 1.87, 
			 "cosmo_total_nonelectrostatic_energy": 12.27, 
			 "SMD_solvation_energy": 8.1 
		},
		"coords": [
			{
				"x": 1.1421022499,
				"y": 4.1801713514,
				"z": 0.7890980747,
				"element": "C" 
			},
			{
				"x": 1.8222749636,
				"y": 2.9734683245,
				"z": -0.4017479932,
				"element": "S" 
			},
			{
				"x": 1.7405905239,
				"y": 1.4178089728,
				"z": 0.590962899,
				"element": "C" 
			},
			{
				"x": 1.2322401952,
				"y": 0.2252268633,
				"z": -0.2345155435,
				"element": "C" 
			},
			{
				"x": -0.3070286166,
				"y": 0.0353231114,
				"z": -0.2296851254,
				"element": "C" 
			},
			{
				"x": -0.7118834636,
				"y": -1.0600064794,
				"z": -1.1042946916,
				"element": "N" 
			},
			{
				"x": -1.0271073563,
				"y": -2.3683596355,
				"z": -0.8323704513,
				"element": "C" 
			},
			{
				"x": -1.4785599144,
				"y": -3.0986730951,
				"z": -1.7124628355,
				"element": "O" 
			},
			{
				"x": -0.8200813941,
				"y": -2.9370584521,
				"z": 0.5170432479,
				"element": "C" 
			},
			{
				"x": -1.1866913206,
				"y": -4.1763962587,
				"z": 0.9654213054,
				"element": "C" 
			},
			{
				"x": -0.7410386116,
				"y": -4.2723006241,
				"z": 2.3174491878,
				"element": "C" 
			},
			{
				"x": -0.1283685432,
				"y": -3.0873926866,
				"z": 2.5997561555,
				"element": "C" 
			},
			{
				"x": -0.1642652906,
				"y": -2.2604341066,
				"z": 1.5192919214,
				"element": "O" 
			},
			{
				"x": -1.0469743183,
				"y": 1.3130286258,
				"z": -0.6192123431,
				"element": "C" 
			},
			{
				"x": -1.1710373047,
				"y": 1.4479641883,
				"z": -1.9570116457,
				"element": "O" 
			},
			{
				"x": -1.4765459749,
				"y": 2.1203230066,
				"z": 0.1751801654,
				"element": "O" 
			},
			{
				"x": 0.1120381361,
				"y": 3.9188356328,
				"z": 1.0420703994,
				"element": "H" 
			},
			{
				"x": 1.7566956875,
				"y": 4.2414781549,
				"z": 1.6906021158,
				"element": "H" 
			},
			{
				"x": 1.1561660682,
				"y": 5.1525317589,
				"z": 0.2911410629,
				"element": "H" 
			},
			{
				"x": 1.0857626904,
				"y": 1.6020423066,
				"z": 1.4480728421,
				"element": "H" 
			},
			{
				"x": 2.7405967164,
				"y": 1.2036504483,
				"z": 0.9771070805,
				"element": "H" 
			},
			{
				"x": 1.648547481,
				"y": -0.7015493407,
				"z": 0.1740003926,
				"element": "H" 
			},
			{
				"x": 1.5790233518,
				"y": 0.2983985003,
				"z": -1.2711705252,
				"element": "H" 
			},
			{
				"x": -0.6256225948,
				"y": -0.1780197515,
				"z": 0.7893743118,
				"element": "H" 
			},
			{
				"x": -0.876903327,
				"y": -0.8228496146,
				"z": -2.0748304322,
				"element": "H" 
			},
			{
				"x": -1.709589738,
				"y": -4.9153751748,
				"z": 0.377943092,
				"element": "H" 
			},
			{
				"x": -0.8573451314,
				"y": -5.1098975617,
				"z": 2.9897363051,
				"element": "H" 
			},
			{
				"x": 0.3610093241,
				"y": -2.6927186635,
				"z": 3.4769402091,
				"element": "H" 
			},
			{
				"x": -1.6075044882,
				"y": 2.3014801993,
				"z": -2.1154891815,
				"element": "H" 
			}
		],
		 "valence_orbital": [ 
			{
				"type": "occ",
				"energy": -0.29288,
				"method": "rhf"
			},
			{
				"type": "occ",
				"energy": -0.25605,
				"method": "rhf"
			},
			{
				"type": "occ",
				"energy": -0.25037,
				"method": "rhf"
			},
			{
				"type": "occ",
				"energy": -0.24035,
				"method": "rhf"
			},
			{
				"type": "occ",
				"energy": -0.22037,
				"method": "rhf"
			},
			{
				"type": "unocc",
				"energy": -0.03626,
				"method": "rhf"
			},
			{
				"type": "unocc",
				"energy": -0.00595,
				"method": "rhf"
			},
			{
				"type": "unocc",
				"energy": 0.03448,
				"method": "rhf"
			},
			{
				"type": "unocc",
				"energy": 0.04039,
				"method": "rhf"
			},
			{
				"type": "unocc",
				"energy": 0.06384,
				"method": "rhf"
			}
		],
		"cosmo_sigma_profile": { 
			"-0.025": 0.0,
			"-0.024": 0.0,
			"-0.023": 0.0,
			"-0.022": 0.0,
			"-0.021": 0.0,
			"-0.02": 0.0,
			"-0.019": 0.355210099279,
			"-0.018": 1.26675087074,
			"-0.017": 0.518953594488,
			"-0.016": 0.597017942647,
			"-0.015": 1.10226888134,
			"-0.014": 0.467157315394,
			"-0.013": 0.438508814585,
			"-0.012": 0.645104079177,
			"-0.011": 1.34777157139,
			"-0.01": 2.45677669087,
			"-0.009": 2.03215778784,
			"-0.008": 4.91899394253,
			"-0.007": 6.89817522202,
			"-0.006": 10.2838594798,
			"-0.005": 18.361263935,
			"-0.004": 21.9665107245,
			"-0.003": 24.972456883,
			"-0.002": 25.512808687,
			"-0.001": 20.4081685161,
			"0.0": 18.5988050286,
			"0.001": 19.0175969445,
			"0.002": 15.4831840949,
			"0.003": 13.508304521,
			"0.004": 11.0325972159,
			"0.005": 8.05193278438,
			"0.006": 7.65097769408,
			"0.007": 6.96962908906,
			"0.008": 5.35149760357,
			"0.009": 4.1833639434,
			"0.01": 4.72029333261,
			"0.011": 5.93554713395,
			"0.012": 2.81231474021,
			"0.013": 4.70492094357,
			"0.014": 4.23325962884,
			"0.015": 0.182470664627,
			"0.016": 0.0,
			"0.017": 0.0,
			"0.018": 0.0,
			"0.019": 0.0,
			"0.02": 0.0,
			"0.021": 0.0,
			"0.022": 0.0,
			"0.023": 0.0,
			"0.024": 0.0,
			"0.025": 0.0
		}
	}
}
