{
	 "smiles": "CC1=CC2=C(C=C1)C(CC(O)=O)=CC(=O)O2", 
	 "Tm": 483.15, 
	 "num_atms": 26, 
	 "gaussian": { 
		 "optdone": 1, 
		 "sigma_profile": "yes", 
		 "theory": "DFT", 
		 "functional": "B3LYP", 
		 "basiset": "6-31G**", 
		 "properties": { 
			 "R2extent": 3985.3071, 
			 "electric_dipole_moment_norm": 2.99465862328, 
			 "electric_quadrupole_moment_norm": 21.8476501608, 
			 "total_energy": -764.220955335, 
			 "HOMO_LUMO_gap": 0.16457, 
			 "cosmo_polarized_energy": -19.51, 
			 "cosmo_cavitation_energy": 30.68, 
			 "cosmo_dispersion_energy": -22.05, 
			 "cosmo_repulsion_energy": 1.71, 
			 "cosmo_total_nonelectrostatic_energy": 10.34, 
			 "SMD_solvation_energy": 7.42 
		},
		"coords": [
			{
				"x": 1.6270217869,
				"y": 3.01360323,
				"z": 1.6850952319,
				"element": "C" 
			},
			{
				"x": 0.9083174947,
				"y": 1.8531503095,
				"z": 1.0426702481,
				"element": "C" 
			},
			{
				"x": 1.4524907374,
				"y": 0.5703581378,
				"z": 1.0667365681,
				"element": "C" 
			},
			{
				"x": 0.7741166555,
				"y": -0.4928873297,
				"z": 0.4678280998,
				"element": "C" 
			},
			{
				"x": -0.4698093596,
				"y": -0.3094708823,
				"z": -0.166587547,
				"element": "C" 
			},
			{
				"x": -1.0070003275,
				"y": 0.9952091325,
				"z": -0.1894897508,
				"element": "C" 
			},
			{
				"x": -0.3321009206,
				"y": 2.0501498486,
				"z": 0.4013620031,
				"element": "C" 
			},
			{
				"x": -1.1083654232,
				"y": -1.4760744585,
				"z": -0.749828937,
				"element": "C" 
			},
			{
				"x": -2.4444600942,
				"y": -1.3444946015,
				"z": -1.4420261316,
				"element": "C" 
			},
			{
				"x": -2.374422039,
				"y": -0.6019383875,
				"z": -2.7859466813,
				"element": "C" 
			},
			{
				"x": -1.3977975715,
				"y": -1.0115943241,
				"z": -3.627154269,
				"element": "O" 
			},
			{
				"x": -3.1446837971,
				"y": 0.2681086662,
				"z": -3.1036274043,
				"element": "O" 
			},
			{
				"x": -0.4754388564,
				"y": -2.6777979625,
				"z": -0.6837757155,
				"element": "C" 
			},
			{
				"x": 0.8196252724,
				"y": -2.8575109333,
				"z": -0.0363773152,
				"element": "C" 
			},
			{
				"x": 1.4290956379,
				"y": -3.8968298729,
				"z": 0.0519261745,
				"element": "O" 
			},
			{
				"x": 1.3814317026,
				"y": -1.7145724288,
				"z": 0.5261058014,
				"element": "O" 
			},
			{
				"x": 2.5838282706,
				"y": 2.7069749763,
				"z": 2.1143627364,
				"element": "H" 
			},
			{
				"x": 1.0226996128,
				"y": 3.4545516931,
				"z": 2.4860618806,
				"element": "H" 
			},
			{
				"x": 1.8212165424,
				"y": 3.8077688137,
				"z": 0.9555690067,
				"element": "H" 
			},
			{
				"x": 2.4067180641,
				"y": 0.3705587516,
				"z": 1.5431124543,
				"element": "H" 
			},
			{
				"x": -1.9516198044,
				"y": 1.179265249,
				"z": -0.6906665581,
				"element": "H" 
			},
			{
				"x": -0.7631640172,
				"y": 3.0465857305,
				"z": 0.3677211817,
				"element": "H" 
			},
			{
				"x": -3.1665163022,
				"y": -0.8094510291,
				"z": -0.8223014919,
				"element": "H" 
			},
			{
				"x": -2.852435137,
				"y": -2.3429173659,
				"z": -1.637270223,
				"element": "H" 
			},
			{
				"x": -0.8380711191,
				"y": -1.676013996,
				"z": -3.1948526373,
				"element": "H" 
			},
			{
				"x": -0.9177770085,
				"y": -3.5845309668,
				"z": -1.0828467245,
				"element": "H" 
			}
		],
		 "valence_orbital": [ 
			{
				"type": "occ",
				"energy": -0.32133,
				"method": "rhf"
			},
			{
				"type": "occ",
				"energy": -0.28691,
				"method": "rhf"
			},
			{
				"type": "occ",
				"energy": -0.2788,
				"method": "rhf"
			},
			{
				"type": "occ",
				"energy": -0.26417,
				"method": "rhf"
			},
			{
				"type": "occ",
				"energy": -0.24491,
				"method": "rhf"
			},
			{
				"type": "unocc",
				"energy": -0.08034,
				"method": "rhf"
			},
			{
				"type": "unocc",
				"energy": -0.02549,
				"method": "rhf"
			},
			{
				"type": "unocc",
				"energy": -0.01099,
				"method": "rhf"
			},
			{
				"type": "unocc",
				"energy": -0.00059,
				"method": "rhf"
			},
			{
				"type": "unocc",
				"energy": 0.05769,
				"method": "rhf"
			}
		],
		"cosmo_sigma_profile": { 
			"-0.025": 0.0,
			"-0.024": 0.0,
			"-0.023": 0.0,
			"-0.022": 0.0,
			"-0.021": 0.0,
			"-0.02": 0.0,
			"-0.019": 0.0,
			"-0.018": 0.0,
			"-0.017": 0.0522979398446,
			"-0.016": 0.626340441378,
			"-0.015": 1.04680215539,
			"-0.014": 1.52436728682,
			"-0.013": 1.51041423434,
			"-0.012": 1.5959768651,
			"-0.011": 1.87588195705,
			"-0.01": 2.81234917453,
			"-0.009": 4.14897855303,
			"-0.008": 5.24468844628,
			"-0.007": 8.07960749881,
			"-0.006": 11.9061588993,
			"-0.005": 16.7996776263,
			"-0.004": 18.1378189936,
			"-0.003": 18.0207341762,
			"-0.002": 17.3075055302,
			"-0.001": 18.9681478919,
			"0.0": 18.2296585727,
			"0.001": 13.1240724436,
			"0.002": 12.7971827756,
			"0.003": 11.4377064263,
			"0.004": 5.60979336475,
			"0.005": 4.39162782432,
			"0.006": 4.90405018918,
			"0.007": 4.2242528059,
			"0.008": 4.79881441698,
			"0.009": 6.41677683812,
			"0.01": 7.66447454135,
			"0.011": 9.62772989434,
			"0.012": 9.39813725424,
			"0.013": 2.64961188884,
			"0.014": 0.0285204367852,
			"0.015": 0.0,
			"0.016": 0.0,
			"0.017": 0.0,
			"0.018": 0.0,
			"0.019": 0.0,
			"0.02": 0.0,
			"0.021": 0.0,
			"0.022": 0.0,
			"0.023": 0.0,
			"0.024": 0.0,
			"0.025": 0.0
		}
	}
}
