{
	 "smiles": "OC(=O)C1=CC(C=O)=CC=C1F", 
	 "Tm": 449.15, 
	 "num_atms": 17, 
	 "gaussian": { 
		 "optdone": 1, 
		 "sigma_profile": "yes", 
		 "theory": "DFT", 
		 "functional": "B3LYP", 
		 "basiset": "6-31G**", 
		 "properties": { 
			 "R2extent": 2356.5535, 
			 "electric_dipole_moment_norm": 4.8102886878, 
			 "electric_quadrupole_moment_norm": 16.3354524703, 
			 "total_energy": -633.362150319, 
			 "HOMO_LUMO_gap": 0.18957, 
			 "cosmo_polarized_energy": -17.76, 
			 "cosmo_cavitation_energy": 23.28, 
			 "cosmo_dispersion_energy": -16.7, 
			 "cosmo_repulsion_energy": 1.31, 
			 "cosmo_total_nonelectrostatic_energy": 7.89, 
			 "SMD_solvation_energy": 6.74 
		},
		"coords": [
			{
				"x": -0.4614508643,
				"y": 0.7852822598,
				"z": -1.9307692233,
				"element": "O" 
			},
			{
				"x": -0.8424712902,
				"y": 0.9079472023,
				"z": -0.6316124533,
				"element": "C" 
			},
			{
				"x": -1.4072533523,
				"y": 1.9004795945,
				"z": -0.2488952368,
				"element": "O" 
			},
			{
				"x": -0.4780171357,
				"y": -0.2464493339,
				"z": 0.260276938,
				"element": "C" 
			},
			{
				"x": 0.7050630809,
				"y": -0.9660079607,
				"z": 0.0835624803,
				"element": "C" 
			},
			{
				"x": 1.0673324172,
				"y": -1.9980367598,
				"z": 0.9590335893,
				"element": "C" 
			},
			{
				"x": 2.332171768,
				"y": -2.7368098175,
				"z": 0.7426944959,
				"element": "C" 
			},
			{
				"x": 3.10263726,
				"y": -2.517727122,
				"z": -0.1720844168,
				"element": "O" 
			},
			{
				"x": 0.2265416762,
				"y": -2.3220813413,
				"z": 2.0310320205,
				"element": "C" 
			},
			{
				"x": -0.9601611741,
				"y": -1.622595937,
				"z": 2.2294041462,
				"element": "C" 
			},
			{
				"x": -1.2933723541,
				"y": -0.5937996233,
				"z": 1.353412781,
				"element": "C" 
			},
			{
				"x": -2.4431525964,
				"y": 0.052885939,
				"z": 1.553712946,
				"element": "F" 
			},
			{
				"x": -0.1495915333,
				"y": -0.1128522166,
				"z": -2.1108156699,
				"element": "H" 
			},
			{
				"x": 1.3964483937,
				"y": -0.7238524411,
				"z": -0.7192791235,
				"element": "H" 
			},
			{
				"x": 2.5401707825,
				"y": -3.5326627848,
				"z": 1.490749843,
				"element": "H" 
			},
			{
				"x": 0.5029266213,
				"y": -3.1244215075,
				"z": 2.7104829909,
				"element": "H" 
			},
			{
				"x": -1.6350216993,
				"y": -1.8531981503,
				"z": 3.0460938926,
				"element": "H" 
			}
		],
		 "valence_orbital": [ 
			{
				"type": "occ",
				"energy": -0.32769,
				"method": "rhf"
			},
			{
				"type": "occ",
				"energy": -0.30022,
				"method": "rhf"
			},
			{
				"type": "occ",
				"energy": -0.2855,
				"method": "rhf"
			},
			{
				"type": "occ",
				"energy": -0.27816,
				"method": "rhf"
			},
			{
				"type": "occ",
				"energy": -0.27357,
				"method": "rhf"
			},
			{
				"type": "unocc",
				"energy": -0.084,
				"method": "rhf"
			},
			{
				"type": "unocc",
				"energy": -0.06619,
				"method": "rhf"
			},
			{
				"type": "unocc",
				"energy": 0.00173,
				"method": "rhf"
			},
			{
				"type": "unocc",
				"energy": 0.0384,
				"method": "rhf"
			},
			{
				"type": "unocc",
				"energy": 0.06195,
				"method": "rhf"
			}
		],
		"cosmo_sigma_profile": { 
			"-0.025": 0.0,
			"-0.024": 0.0,
			"-0.023": 0.0,
			"-0.022": 0.0,
			"-0.021": 0.0,
			"-0.02": 0.0,
			"-0.019": 0.723591766627,
			"-0.018": 0.840568502124,
			"-0.017": 1.07598188457,
			"-0.016": 1.14000871473,
			"-0.015": 1.18871862031,
			"-0.014": 0.615545411353,
			"-0.013": 1.17578293563,
			"-0.012": 0.890707925242,
			"-0.011": 1.08979310975,
			"-0.01": 1.05659703323,
			"-0.009": 4.76648118002,
			"-0.008": 8.24003985982,
			"-0.007": 8.98889212375,
			"-0.006": 9.02812001916,
			"-0.005": 7.49043733473,
			"-0.004": 8.22446950466,
			"-0.003": 9.4124765438,
			"-0.002": 13.3880226094,
			"-0.001": 15.6816091644,
			"0.0": 14.4106455796,
			"0.001": 9.37642858044,
			"0.002": 6.41057195961,
			"0.003": 9.29544999172,
			"0.004": 4.53711479738,
			"0.005": 4.10222206636,
			"0.006": 4.75440731471,
			"0.007": 4.35363680224,
			"0.008": 5.09857797468,
			"0.009": 6.25353001549,
			"0.01": 9.23822603274,
			"0.011": 9.67527589363,
			"0.012": 4.44425746874,
			"0.013": 0.631637971461,
			"0.014": 0.0,
			"0.015": 0.0,
			"0.016": 0.0,
			"0.017": 0.0,
			"0.018": 0.0,
			"0.019": 0.0,
			"0.02": 0.0,
			"0.021": 0.0,
			"0.022": 0.0,
			"0.023": 0.0,
			"0.024": 0.0,
			"0.025": 0.0
		}
	}
}
