{
	 "smiles": "CC(=O)O[C@H]1CC2C3CCC4CCCCC4(C)C3CCC2(C)C1", 
	 "Tm": 381.15, 
	 "num_atms": 57, 
	 "gaussian": { 
		 "optdone": 1, 
		 "sigma_profile": "yes", 
		 "theory": "DFT", 
		 "functional": "B3LYP", 
		 "basiset": "6-31G**", 
		 "properties": { 
			 "R2extent": 8699.5865, 
			 "electric_dipole_moment_norm": 1.66372171651, 
			 "electric_quadrupole_moment_norm": 8.93082480905, 
			 "total_energy": -971.210614973, 
			 "HOMO_LUMO_gap": 0.28067, 
			 "cosmo_polarized_energy": -6.84, 
			 "cosmo_cavitation_energy": 49.25, 
			 "cosmo_dispersion_energy": -33.58, 
			 "cosmo_repulsion_energy": 2.51, 
			 "cosmo_total_nonelectrostatic_energy": 18.17, 
			 "SMD_solvation_energy": 7.48 
		},
		"coords": [
			{
				"x": 5.6336424015,
				"y": -2.2260503564,
				"z": -2.2115821865,
				"element": "C" 
			},
			{
				"x": 4.2871196667,
				"y": -1.6502764343,
				"z": -1.8373486298,
				"element": "C" 
			},
			{
				"x": 3.7656967727,
				"y": -0.691235183,
				"z": -2.365578257,
				"element": "O" 
			},
			{
				"x": 3.7337262174,
				"y": -2.3506830836,
				"z": -0.8209530816,
				"element": "O" 
			},
			{
				"x": 2.4410772289,
				"y": -1.8993294311,
				"z": -0.3460239605,
				"element": "C" 
			},
			{
				"x": 1.277398695,
				"y": -2.4655431287,
				"z": -1.165282367,
				"element": "C" 
			},
			{
				"x": 0.0524128366,
				"y": -2.4548223332,
				"z": -0.2124208549,
				"element": "C" 
			},
			{
				"x": -0.9019823897,
				"y": -1.2569132343,
				"z": -0.4610169546,
				"element": "C" 
			},
			{
				"x": -2.3272420126,
				"y": -1.4786089308,
				"z": 0.131103063,
				"element": "C" 
			},
			{
				"x": -2.9283619306,
				"y": -0.2161716676,
				"z": 0.7669186981,
				"element": "C" 
			},
			{
				"x": -2.7173516005,
				"y": 1.0408777793,
				"z": -0.0915717472,
				"element": "C" 
			},
			{
				"x": -3.4049460967,
				"y": 2.262702868,
				"z": 0.5525818006,
				"element": "C" 
			},
			{
				"x": -3.0640481272,
				"y": 3.5700055994,
				"z": -0.1722866398,
				"element": "C" 
			},
			{
				"x": -1.540008127,
				"y": 3.8592788114,
				"z": -0.1388243008,
				"element": "C" 
			},
			{
				"x": -0.7147081177,
				"y": 2.6132444351,
				"z": 0.2443536005,
				"element": "C" 
			},
			{
				"x": -1.1952083209,
				"y": 1.3055797888,
				"z": -0.4357588433,
				"element": "C" 
			},
			{
				"x": -1.0553589708,
				"y": 1.4948971123,
				"z": -1.9662455941,
				"element": "C" 
			},
			{
				"x": -0.2796754592,
				"y": 0.0916041549,
				"z": -0.0219557502,
				"element": "C" 
			},
			{
				"x": 0.1920279822,
				"y": 0.0428956686,
				"z": 1.4678123855,
				"element": "C" 
			},
			{
				"x": 0.134433108,
				"y": -1.3524050483,
				"z": 2.1174402464,
				"element": "C" 
			},
			{
				"x": 0.6573442131,
				"y": -2.5201696337,
				"z": 1.2518308322,
				"element": "C" 
			},
			{
				"x": 0.2891267713,
				"y": -3.845549556,
				"z": 1.9428520176,
				"element": "C" 
			},
			{
				"x": 2.2050427172,
				"y": -2.447145436,
				"z": 1.0587973055,
				"element": "C" 
			},
			{
				"x": 6.0623362344,
				"y": -1.6458482598,
				"z": -3.0280689107,
				"element": "H" 
			},
			{
				"x": 5.5230519082,
				"y": -3.2714820324,
				"z": -2.5146234853,
				"element": "H" 
			},
			{
				"x": 6.3038749337,
				"y": -2.2076334223,
				"z": -1.3471181638,
				"element": "H" 
			},
			{
				"x": 2.4468870576,
				"y": -0.8080237245,
				"z": -0.3719147906,
				"element": "H" 
			},
			{
				"x": 1.5358102597,
				"y": -3.4966045997,
				"z": -1.4357506428,
				"element": "H" 
			},
			{
				"x": 1.1132914675,
				"y": -1.912825031,
				"z": -2.0945314737,
				"element": "H" 
			},
			{
				"x": -0.5368643502,
				"y": -3.3619093363,
				"z": -0.393333456,
				"element": "H" 
			},
			{
				"x": -1.0207651933,
				"y": -1.207080358,
				"z": -1.5487049014,
				"element": "H" 
			},
			{
				"x": -2.3215213179,
				"y": -2.2883774694,
				"z": 0.8692819308,
				"element": "H" 
			},
			{
				"x": -2.9896258842,
				"y": -1.8211610847,
				"z": -0.6744130316,
				"element": "H" 
			},
			{
				"x": -2.4960287115,
				"y": -0.0521708508,
				"z": 1.7618097155,
				"element": "H" 
			},
			{
				"x": -4.0032499382,
				"y": -0.3643448734,
				"z": 0.9324719446,
				"element": "H" 
			},
			{
				"x": -3.2328033221,
				"y": 0.8582224804,
				"z": -1.0466634198,
				"element": "H" 
			},
			{
				"x": -4.49036281,
				"y": 2.1025239035,
				"z": 0.5559214422,
				"element": "H" 
			},
			{
				"x": -3.1086327738,
				"y": 2.3395538255,
				"z": 1.6083929336,
				"element": "H" 
			},
			{
				"x": -3.4106212529,
				"y": 3.4923526274,
				"z": -1.2108040545,
				"element": "H" 
			},
			{
				"x": -3.6210817733,
				"y": 4.4044146289,
				"z": 0.2685867569,
				"element": "H" 
			},
			{
				"x": -1.2134580355,
				"y": 4.2491151165,
				"z": -1.108890601,
				"element": "H" 
			},
			{
				"x": -1.3231726899,
				"y": 4.6500713784,
				"z": 0.5888090634,
				"element": "H" 
			},
			{
				"x": -0.7592774704,
				"y": 2.4995786739,
				"z": 1.3314744798,
				"element": "H" 
			},
			{
				"x": 0.3430082791,
				"y": 2.7812343392,
				"z": 0.003453331,
				"element": "H" 
			},
			{
				"x": -1.6953935564,
				"y": 2.3035834202,
				"z": -2.3302536821,
				"element": "H" 
			},
			{
				"x": -0.0221675052,
				"y": 1.7376549084,
				"z": -2.2407196117,
				"element": "H" 
			},
			{
				"x": -1.3428656088,
				"y": 0.5934254721,
				"z": -2.5158970854,
				"element": "H" 
			},
			{
				"x": 0.6260279764,
				"y": 0.2180171815,
				"z": -0.6267872118,
				"element": "H" 
			},
			{
				"x": 1.2167959068,
				"y": 0.4293615029,
				"z": 1.5265418377,
				"element": "H" 
			},
			{
				"x": -0.4016880475,
				"y": 0.713302037,
				"z": 2.0950091943,
				"element": "H" 
			},
			{
				"x": 0.6934754653,
				"y": -1.3315973004,
				"z": 3.0620849334,
				"element": "H" 
			},
			{
				"x": -0.9021123181,
				"y": -1.5706374474,
				"z": 2.3971431121,
				"element": "H" 
			},
			{
				"x": -0.793231706,
				"y": -3.9317265453,
				"z": 2.0901744477,
				"element": "H" 
			},
			{
				"x": 0.766103099,
				"y": -3.9235481834,
				"z": 2.9274289952,
				"element": "H" 
			},
			{
				"x": 0.6150848382,
				"y": -4.7054063755,
				"z": 1.3465643899,
				"element": "H" 
			},
			{
				"x": 2.7006671173,
				"y": -1.8544821053,
				"z": 1.8345874467,
				"element": "H" 
			},
			{
				"x": 2.6365522642,
				"y": -3.4542352568,
				"z": 1.0989977854,
				"element": "H" 
			}
		],
		 "valence_orbital": [ 
			{
				"type": "occ",
				"energy": -0.28308,
				"method": "rhf"
			},
			{
				"type": "occ",
				"energy": -0.27289,
				"method": "rhf"
			},
			{
				"type": "occ",
				"energy": -0.27016,
				"method": "rhf"
			},
			{
				"type": "occ",
				"energy": -0.26434,
				"method": "rhf"
			},
			{
				"type": "occ",
				"energy": -0.26271,
				"method": "rhf"
			},
			{
				"type": "unocc",
				"energy": 0.01796,
				"method": "rhf"
			},
			{
				"type": "unocc",
				"energy": 0.06222,
				"method": "rhf"
			},
			{
				"type": "unocc",
				"energy": 0.07301,
				"method": "rhf"
			},
			{
				"type": "unocc",
				"energy": 0.08911,
				"method": "rhf"
			},
			{
				"type": "unocc",
				"energy": 0.09028,
				"method": "rhf"
			}
		],
		"cosmo_sigma_profile": { 
			"-0.025": 0.0,
			"-0.024": 0.0,
			"-0.023": 0.0,
			"-0.022": 0.0,
			"-0.021": 0.0,
			"-0.02": 0.0,
			"-0.019": 0.0,
			"-0.018": 0.0,
			"-0.017": 0.0,
			"-0.016": 0.0,
			"-0.015": 0.0,
			"-0.014": 0.0,
			"-0.013": 0.0,
			"-0.012": 0.0,
			"-0.011": 0.0,
			"-0.01": 0.0,
			"-0.009": 0.0,
			"-0.008": 0.0,
			"-0.007": 0.407672419774,
			"-0.006": 4.20744985522,
			"-0.005": 5.6992836737,
			"-0.004": 7.68096189494,
			"-0.003": 21.5320785625,
			"-0.002": 68.5218024973,
			"-0.001": 78.5732423213,
			"0.0": 70.9301595923,
			"0.001": 54.3053075696,
			"0.002": 31.9770709979,
			"0.003": 4.90737553847,
			"0.004": 3.05079788965,
			"0.005": 3.13756485757,
			"0.006": 2.7298927289,
			"0.007": 3.43286477478,
			"0.008": 2.04354930559,
			"0.009": 2.69341819434,
			"0.01": 1.13329113663,
			"0.011": 2.63433034242,
			"0.012": 4.11574073082,
			"0.013": 2.30447019233,
			"0.014": 0.210584775963,
			"0.015": 0.0,
			"0.016": 0.0,
			"0.017": 0.0,
			"0.018": 0.0,
			"0.019": 0.0,
			"0.02": 0.0,
			"0.021": 0.0,
			"0.022": 0.0,
			"0.023": 0.0,
			"0.024": 0.0,
			"0.025": 0.0
		}
	}
}
