{
	 "smiles": "COC1=CC=C(C=NC2=C(CC3=CC=C(Cl)C=C3)C(N=CC3=CC=C(OC)C(OC)=C3)=NN2)C=C1OC", 
	 "Tm": 444.15, 
	 "num_atms": 64, 
	 "gaussian": { 
		 "optdone": 1, 
		 "sigma_profile": "yes", 
		 "theory": "DFT", 
		 "functional": "B3LYP", 
		 "basiset": "6-31G**", 
		 "properties": { 
			 "R2extent": 36011.7044, 
			 "electric_dipole_moment_norm": 4.21428555867, 
			 "electric_quadrupole_moment_norm": 25.101422966, 
			 "total_energy": -2063.26132362, 
			 "HOMO_LUMO_gap": 0.13752, 
			 "cosmo_polarized_energy": -23.08, 
			 "cosmo_cavitation_energy": 71.91, 
			 "cosmo_dispersion_energy": -47.76, 
			 "cosmo_repulsion_energy": 3.6, 
			 "cosmo_total_nonelectrostatic_energy": 27.75, 
			 "SMD_solvation_energy": 12.03 
		},
		"coords": [
			{
				"x": -3.9072533098,
				"y": -4.3615891739,
				"z": -7.8189570289,
				"element": "C" 
			},
			{
				"x": -2.5675741217,
				"y": -3.8569530753,
				"z": -7.8295115383,
				"element": "O" 
			},
			{
				"x": -2.1472339513,
				"y": -3.1784728875,
				"z": -6.7188334223,
				"element": "C" 
			},
			{
				"x": -1.7350369755,
				"y": -1.8525976735,
				"z": -6.8746344209,
				"element": "C" 
			},
			{
				"x": -1.2372938098,
				"y": -1.1209349268,
				"z": -5.8026803893,
				"element": "C" 
			},
			{
				"x": -1.153466767,
				"y": -1.7149017721,
				"z": -4.5351465279,
				"element": "C" 
			},
			{
				"x": -0.6443737029,
				"y": -0.9920785275,
				"z": -3.3719892791,
				"element": "C" 
			},
			{
				"x": -0.183475661,
				"y": 0.2089680972,
				"z": -3.4551468214,
				"element": "N" 
			},
			{
				"x": 0.2599384765,
				"y": 0.8854855261,
				"z": -2.3402554272,
				"element": "C" 
			},
			{
				"x": 0.1020590179,
				"y": 0.8052725538,
				"z": -0.94891311,
				"element": "C" 
			},
			{
				"x": -0.7118143717,
				"y": -0.1395648315,
				"z": -0.1139329487,
				"element": "C" 
			},
			{
				"x": -0.1140515839,
				"y": -1.5197124025,
				"z": 0.132495601,
				"element": "C" 
			},
			{
				"x": -0.9486858281,
				"y": -2.6402805699,
				"z": 0.2413635584,
				"element": "C" 
			},
			{
				"x": -0.4335743827,
				"y": -3.9095044473,
				"z": 0.509773569,
				"element": "C" 
			},
			{
				"x": 0.9423705291,
				"y": -4.0594175653,
				"z": 0.6707707576,
				"element": "C" 
			},
			{
				"x": 1.6074768228,
				"y": -5.655880187,
				"z": 1.0014856349,
				"element": "Cl" 
			},
			{
				"x": 1.7986547021,
				"y": -2.9637672957,
				"z": 0.5695567654,
				"element": "C" 
			},
			{
				"x": 1.2644579281,
				"y": -1.7036685409,
				"z": 0.3009310087,
				"element": "C" 
			},
			{
				"x": 0.8386797746,
				"y": 1.9148355738,
				"z": -0.4521932906,
				"element": "C" 
			},
			{
				"x": 0.9379461799,
				"y": 2.2174517654,
				"z": 0.9028453977,
				"element": "N" 
			},
			{
				"x": 1.6817915102,
				"y": 3.1942859279,
				"z": 1.2879503681,
				"element": "C" 
			},
			{
				"x": 1.8204177346,
				"y": 3.5669913263,
				"z": 2.6944227404,
				"element": "C" 
			},
			{
				"x": 1.1558889655,
				"y": 2.8761775441,
				"z": 3.7182894852,
				"element": "C" 
			},
			{
				"x": 1.3147829057,
				"y": 3.2514200567,
				"z": 5.0486362834,
				"element": "C" 
			},
			{
				"x": 2.1441300779,
				"y": 4.3297298689,
				"z": 5.3900011509,
				"element": "C" 
			},
			{
				"x": 2.3772098564,
				"y": 4.7535253847,
				"z": 6.6633085386,
				"element": "O" 
			},
			{
				"x": 1.7695970318,
				"y": 4.0436987351,
				"z": 7.7332942323,
				"element": "C" 
			},
			{
				"x": 2.8090448856,
				"y": 5.0434248709,
				"z": 4.3652282211,
				"element": "C" 
			},
			{
				"x": 3.6745578086,
				"y": 6.0703950171,
				"z": 4.6522935899,
				"element": "O" 
			},
			{
				"x": 3.0778694673,
				"y": 7.2644900727,
				"z": 5.1637474496,
				"element": "C" 
			},
			{
				"x": 2.6411185752,
				"y": 4.6549746334,
				"z": 3.0428343717,
				"element": "C" 
			},
			{
				"x": 1.4063488109,
				"y": 2.6314267564,
				"z": -1.4386817412,
				"element": "N" 
			},
			{
				"x": 1.028345907,
				"y": 1.9966809741,
				"z": -2.555060488,
				"element": "N" 
			},
			{
				"x": -1.5625375845,
				"y": -3.0525267717,
				"z": -4.3699469377,
				"element": "C" 
			},
			{
				"x": -2.0452990549,
				"y": -3.7936812402,
				"z": -5.447667564,
				"element": "C" 
			},
			{
				"x": -2.4226823227,
				"y": -5.1046388253,
				"z": -5.3790855548,
				"element": "O" 
			},
			{
				"x": -2.2766820237,
				"y": -5.7808520951,
				"z": -4.1389744863,
				"element": "C" 
			},
			{
				"x": -4.071456949,
				"y": -4.7920891422,
				"z": -8.808630395,
				"element": "H" 
			},
			{
				"x": -4.626463398,
				"y": -3.5487535083,
				"z": -7.6560100164,
				"element": "H" 
			},
			{
				"x": -4.0436098169,
				"y": -5.1304516006,
				"z": -7.0547659691,
				"element": "H" 
			},
			{
				"x": -1.8148263048,
				"y": -1.4177911362,
				"z": -7.8658569558,
				"element": "H" 
			},
			{
				"x": -0.9192754416,
				"y": -0.0917399331,
				"z": -5.9242272884,
				"element": "H" 
			},
			{
				"x": -0.6580956765,
				"y": -1.5458104155,
				"z": -2.4271913807,
				"element": "H" 
			},
			{
				"x": -0.8597854366,
				"y": 0.3486608964,
				"z": 0.8573405751,
				"element": "H" 
			},
			{
				"x": -1.7094860308,
				"y": -0.2649587699,
				"z": -0.5542118927,
				"element": "H" 
			},
			{
				"x": -2.0229397749,
				"y": -2.5214288784,
				"z": 0.1196853169,
				"element": "H" 
			},
			{
				"x": -1.0891108085,
				"y": -4.7696153768,
				"z": 0.59385781,
				"element": "H" 
			},
			{
				"x": 2.8675021647,
				"y": -3.095850311,
				"z": 0.6977499302,
				"element": "H" 
			},
			{
				"x": 1.9295214225,
				"y": -0.8495691612,
				"z": 0.219351339,
				"element": "H" 
			},
			{
				"x": 2.2505653878,
				"y": 3.7957107573,
				"z": 0.5683770082,
				"element": "H" 
			},
			{
				"x": 0.51905291,
				"y": 2.0390708445,
				"z": 3.4542684757,
				"element": "H" 
			},
			{
				"x": 0.7974668987,
				"y": 2.6962613587,
				"z": 5.8223232409,
				"element": "H" 
			},
			{
				"x": 2.1071029649,
				"y": 4.5341354104,
				"z": 8.6473632399,
				"element": "H" 
			},
			{
				"x": 2.0848959937,
				"y": 2.9931870384,
				"z": 7.7485918176,
				"element": "H" 
			},
			{
				"x": 0.6745408585,
				"y": 4.0904695157,
				"z": 7.6805243562,
				"element": "H" 
			},
			{
				"x": 3.8921622169,
				"y": 7.9815425718,
				"z": 5.2870937,
				"element": "H" 
			},
			{
				"x": 2.3443931698,
				"y": 7.6706296547,
				"z": 4.4548928399,
				"element": "H" 
			},
			{
				"x": 2.5948454859,
				"y": 7.0916512344,
				"z": 6.1300741681,
				"element": "H" 
			},
			{
				"x": 3.1743620717,
				"y": 5.2136361524,
				"z": 2.2788027243,
				"element": "H" 
			},
			{
				"x": 1.3210356415,
				"y": 2.3289368679,
				"z": -3.4622587652,
				"element": "H" 
			},
			{
				"x": -1.4772017311,
				"y": -3.5058301732,
				"z": -3.3883202581,
				"element": "H" 
			},
			{
				"x": -2.6010193843,
				"y": -6.8070483284,
				"z": -4.3170393031,
				"element": "H" 
			},
			{
				"x": -2.9044173079,
				"y": -5.3344078563,
				"z": -3.3569938277,
				"element": "H" 
			},
			{
				"x": -1.2323106422,
				"y": -5.784359587,
				"z": -3.8033082372,
				"element": "H" 
			}
		],
		 "valence_orbital": [ 
			{
				"type": "occ",
				"energy": -0.23969,
				"method": "rhf"
			},
			{
				"type": "occ",
				"energy": -0.23541,
				"method": "rhf"
			},
			{
				"type": "occ",
				"energy": -0.23114,
				"method": "rhf"
			},
			{
				"type": "occ",
				"energy": -0.20803,
				"method": "rhf"
			},
			{
				"type": "occ",
				"energy": -0.1983,
				"method": "rhf"
			},
			{
				"type": "unocc",
				"energy": -0.06078,
				"method": "rhf"
			},
			{
				"type": "unocc",
				"energy": -0.04938,
				"method": "rhf"
			},
			{
				"type": "unocc",
				"energy": -0.01326,
				"method": "rhf"
			},
			{
				"type": "unocc",
				"energy": -0.01,
				"method": "rhf"
			},
			{
				"type": "unocc",
				"energy": 0.00158,
				"method": "rhf"
			}
		],
		"cosmo_sigma_profile": { 
			"-0.025": 0.0,
			"-0.024": 0.0,
			"-0.023": 0.0,
			"-0.022": 0.0,
			"-0.021": 0.0,
			"-0.02": 0.0,
			"-0.019": 0.0,
			"-0.018": 0.0,
			"-0.017": 0.0559696099957,
			"-0.016": 1.10372206671,
			"-0.015": 1.00125196008,
			"-0.014": 1.27777143761,
			"-0.013": 0.488086610084,
			"-0.012": 0.299453696193,
			"-0.011": 0.90417090154,
			"-0.01": 1.37032255589,
			"-0.009": 0.628883533137,
			"-0.008": 0.641473785182,
			"-0.007": 8.74104134723,
			"-0.006": 30.8233140013,
			"-0.005": 47.4394698749,
			"-0.004": 49.0207956809,
			"-0.003": 49.8015364397,
			"-0.002": 41.2657581506,
			"-0.001": 38.1448081368,
			"0.0": 36.5824809347,
			"0.001": 39.0631547957,
			"0.002": 49.7181160449,
			"0.003": 55.1846416187,
			"0.004": 47.5098664053,
			"0.005": 23.4088956339,
			"0.006": 11.1118402166,
			"0.007": 9.79967938756,
			"0.008": 8.41106985207,
			"0.009": 7.98489877942,
			"0.01": 5.66661419432,
			"0.011": 5.39101331916,
			"0.012": 2.0990749198,
			"0.013": 0.56474910869,
			"0.014": 0.94096330966,
			"0.015": 0.0404426565992,
			"0.016": 0.0,
			"0.017": 0.0,
			"0.018": 0.0,
			"0.019": 0.0,
			"0.02": 0.0,
			"0.021": 0.0,
			"0.022": 0.0,
			"0.023": 0.0,
			"0.024": 0.0,
			"0.025": 0.0
		}
	}
}
