{
	 "smiles": "CC(C)C1=CC(C(C)C)=C(C(C)=O)C(=C1)C(C)C", 
	 "Tm": 360.15, 
	 "num_atms": 44, 
	 "gaussian": { 
		 "optdone": 1, 
		 "sigma_profile": "yes", 
		 "theory": "DFT", 
		 "functional": "B3LYP", 
		 "basiset": "6-31G**", 
		 "properties": { 
			 "R2extent": 5476.3268, 
			 "electric_dipole_moment_norm": 2.63776566245, 
			 "electric_quadrupole_moment_norm": 9.28820765056, 
			 "total_energy": -738.734080201, 
			 "HOMO_LUMO_gap": 0.20711, 
			 "cosmo_polarized_energy": -7.79, 
			 "cosmo_cavitation_energy": 42.91, 
			 "cosmo_dispersion_energy": -28.05, 
			 "cosmo_repulsion_energy": 2.22, 
			 "cosmo_total_nonelectrostatic_energy": 17.08, 
			 "SMD_solvation_energy": 8.04 
		},
		"coords": [
			{
				"x": 0.0105324987,
				"y": -2.8691676796,
				"z": -4.0971098894,
				"element": "C" 
			},
			{
				"x": 1.1268465176,
				"y": -1.9661504225,
				"z": -3.5390579367,
				"element": "C" 
			},
			{
				"x": 2.3993810154,
				"y": -2.7805867367,
				"z": -3.2388987539,
				"element": "C" 
			},
			{
				"x": 0.6616099342,
				"y": -1.1742529091,
				"z": -2.3241534189,
				"element": "C" 
			},
			{
				"x": 0.6069662223,
				"y": 0.2205793384,
				"z": -2.3599530347,
				"element": "C" 
			},
			{
				"x": 0.1878218395,
				"y": 0.9971019753,
				"z": -1.2714589599,
				"element": "C" 
			},
			{
				"x": 0.1054521419,
				"y": 2.5101929881,
				"z": -1.4992839285,
				"element": "C" 
			},
			{
				"x": -1.3518821958,
				"y": 2.9617839478,
				"z": -1.7353868633,
				"element": "C" 
			},
			{
				"x": 0.7980159309,
				"y": 3.389823217,
				"z": -0.4419874668,
				"element": "C" 
			},
			{
				"x": -0.1661905144,
				"y": 0.3260620323,
				"z": -0.0771759674,
				"element": "C" 
			},
			{
				"x": -0.5746588088,
				"y": 1.0933578446,
				"z": 1.1647399043,
				"element": "C" 
			},
			{
				"x": 0.4322189093,
				"y": 1.1446914988,
				"z": 2.3046986197,
				"element": "C" 
			},
			{
				"x": -1.6421897595,
				"y": 1.6769824291,
				"z": 1.2464173417,
				"element": "O" 
			},
			{
				"x": -0.1510608697,
				"y": -1.0858644893,
				"z": -0.0214850506,
				"element": "C" 
			},
			{
				"x": 0.263036984,
				"y": -1.8080753937,
				"z": -1.1452927578,
				"element": "C" 
			},
			{
				"x": -0.650286028,
				"y": -1.8541473771,
				"z": 1.2044266295,
				"element": "C" 
			},
			{
				"x": -1.9338749102,
				"y": -2.6432069688,
				"z": 0.8760481061,
				"element": "C" 
			},
			{
				"x": 0.429345018,
				"y": -2.7768919005,
				"z": 1.8001459913,
				"element": "C" 
			},
			{
				"x": 0.3460602569,
				"y": -3.3819466355,
				"z": -5.0052484778,
				"element": "H" 
			},
			{
				"x": -0.8832096154,
				"y": -2.2877803776,
				"z": -4.3437098513,
				"element": "H" 
			},
			{
				"x": -0.2807353723,
				"y": -3.6365729365,
				"z": -3.3714657376,
				"element": "H" 
			},
			{
				"x": 1.3797311805,
				"y": -1.2362247786,
				"z": -4.3193001683,
				"element": "H" 
			},
			{
				"x": 2.2127266646,
				"y": -3.5417839001,
				"z": -2.4733521623,
				"element": "H" 
			},
			{
				"x": 3.2067172928,
				"y": -2.1359412922,
				"z": -2.8776895815,
				"element": "H" 
			},
			{
				"x": 2.7506934082,
				"y": -3.2953479306,
				"z": -4.1399026262,
				"element": "H" 
			},
			{
				"x": 0.8964718315,
				"y": 0.7306291509,
				"z": -3.2765935035,
				"element": "H" 
			},
			{
				"x": 0.6474588492,
				"y": 2.6859344877,
				"z": -2.4372718165,
				"element": "H" 
			},
			{
				"x": -1.8007721181,
				"y": 2.4057656976,
				"z": -2.5647455141,
				"element": "H" 
			},
			{
				"x": -1.383232603,
				"y": 4.0283336865,
				"z": -1.9863866489,
				"element": "H" 
			},
			{
				"x": -1.9607758619,
				"y": 2.7927104254,
				"z": -0.844396282,
				"element": "H" 
			},
			{
				"x": 0.871454873,
				"y": 4.4173136243,
				"z": -0.814242079,
				"element": "H" 
			},
			{
				"x": 1.8144295896,
				"y": 3.0403550996,
				"z": -0.2309722833,
				"element": "H" 
			},
			{
				"x": 0.2389638535,
				"y": 3.4328482867,
				"z": 0.4956898428,
				"element": "H" 
			},
			{
				"x": 1.2589818965,
				"y": 1.801718438,
				"z": 2.0108752295,
				"element": "H" 
			},
			{
				"x": 0.8698577958,
				"y": 0.1652123589,
				"z": 2.5133449966,
				"element": "H" 
			},
			{
				"x": -0.0439092819,
				"y": 1.5494867701,
				"z": 3.2001430356,
				"element": "H" 
			},
			{
				"x": 0.2651722606,
				"y": -2.8938545601,
				"z": -1.0987565928,
				"element": "H" 
			},
			{
				"x": -0.9279719259,
				"y": -1.1323127366,
				"z": 1.9794307826,
				"element": "H" 
			},
			{
				"x": -1.7474168594,
				"y": -3.4126598254,
				"z": 0.1194282019,
				"element": "H" 
			},
			{
				"x": -2.7150155239,
				"y": -1.9794343198,
				"z": 0.4939437451,
				"element": "H" 
			},
			{
				"x": -2.3172346329,
				"y": -3.1419728094,
				"z": 1.7729903715,
				"element": "H" 
			},
			{
				"x": 0.7202149692,
				"y": -3.5609320064,
				"z": 1.0930522002,
				"element": "H" 
			},
			{
				"x": 1.3351130146,
				"y": -2.2206831233,
				"z": 2.0635952751,
				"element": "H" 
			},
			{
				"x": 0.057642133,
				"y": -3.2696921877,
				"z": 2.7050070796,
				"element": "H" 
			}
		],
		 "valence_orbital": [ 
			{
				"type": "occ",
				"energy": -0.31145,
				"method": "rhf"
			},
			{
				"type": "occ",
				"energy": -0.30921,
				"method": "rhf"
			},
			{
				"type": "occ",
				"energy": -0.24606,
				"method": "rhf"
			},
			{
				"type": "occ",
				"energy": -0.23639,
				"method": "rhf"
			},
			{
				"type": "occ",
				"energy": -0.23279,
				"method": "rhf"
			},
			{
				"type": "unocc",
				"energy": -0.02568,
				"method": "rhf"
			},
			{
				"type": "unocc",
				"energy": -0.00157,
				"method": "rhf"
			},
			{
				"type": "unocc",
				"energy": 0.00649,
				"method": "rhf"
			},
			{
				"type": "unocc",
				"energy": 0.07622,
				"method": "rhf"
			},
			{
				"type": "unocc",
				"energy": 0.0876,
				"method": "rhf"
			}
		],
		"cosmo_sigma_profile": { 
			"-0.025": 0.0,
			"-0.024": 0.0,
			"-0.023": 0.0,
			"-0.022": 0.0,
			"-0.021": 0.0,
			"-0.02": 0.0,
			"-0.019": 0.0,
			"-0.018": 0.0,
			"-0.017": 0.0,
			"-0.016": 0.0,
			"-0.015": 0.0,
			"-0.014": 0.0,
			"-0.013": 0.0,
			"-0.012": 0.0,
			"-0.011": 0.0,
			"-0.01": 0.0,
			"-0.009": 0.0,
			"-0.008": 0.0,
			"-0.007": 0.0,
			"-0.006": 0.118643174615,
			"-0.005": 7.31679052062,
			"-0.004": 21.8028160106,
			"-0.003": 40.540038233,
			"-0.002": 48.5939308007,
			"-0.001": 50.1603334439,
			"0.0": 44.0972233548,
			"0.001": 49.7660882608,
			"0.002": 23.4050850821,
			"0.003": 9.25580691502,
			"0.004": 7.17155044346,
			"0.005": 8.70743454406,
			"0.006": 7.24488426896,
			"0.007": 1.43064329312,
			"0.008": 2.45769136798,
			"0.009": 2.06472451702,
			"0.01": 2.00015061968,
			"0.011": 2.57726908814,
			"0.012": 3.38805773634,
			"0.013": 0.896263666629,
			"0.014": 0.0063990914719,
			"0.015": 0.0,
			"0.016": 0.0,
			"0.017": 0.0,
			"0.018": 0.0,
			"0.019": 0.0,
			"0.02": 0.0,
			"0.021": 0.0,
			"0.022": 0.0,
			"0.023": 0.0,
			"0.024": 0.0,
			"0.025": 0.0
		}
	}
}
