{
	 "smiles": "COC1=CC=C(C=C(C#N)C2=NC3=C(C=CC=C3)C(=O)N2)C=C1", 
	 "Tm": 553.15, 
	 "num_atms": 36, 
	 "gaussian": { 
		 "optdone": 1, 
		 "sigma_profile": "yes", 
		 "theory": "DFT", 
		 "functional": "B3LYP", 
		 "basiset": "6-31G**", 
		 "properties": { 
			 "R2extent": 9168.7931, 
			 "electric_dipole_moment_norm": 6.19578473642, 
			 "electric_quadrupole_moment_norm": 40.2724502447, 
			 "total_energy": -1008.43934354, 
			 "HOMO_LUMO_gap": 0.13739, 
			 "cosmo_polarized_energy": -22.18, 
			 "cosmo_cavitation_energy": 42.35, 
			 "cosmo_dispersion_energy": -29.24, 
			 "cosmo_repulsion_energy": 2.21, 
			 "cosmo_total_nonelectrostatic_energy": 15.31, 
			 "SMD_solvation_energy": 8.48 
		},
		"coords": [
			{
				"x": 5.8011781527,
				"y": -1.977318284,
				"z": -1.6231762766,
				"element": "C" 
			},
			{
				"x": 5.0349982052,
				"y": -0.9734644847,
				"z": -0.9672989654,
				"element": "O" 
			},
			{
				"x": 3.8576187797,
				"y": -1.3228905022,
				"z": -0.3955404752,
				"element": "C" 
			},
			{
				"x": 3.3279515847,
				"y": -2.621625552,
				"z": -0.3840772626,
				"element": "C" 
			},
			{
				"x": 2.1096086282,
				"y": -2.8577654046,
				"z": 0.2455581405,
				"element": "C" 
			},
			{
				"x": 1.3702402404,
				"y": -1.8235029692,
				"z": 0.8494110766,
				"element": "C" 
			},
			{
				"x": 0.1125553111,
				"y": -2.1655663896,
				"z": 1.5078754927,
				"element": "C" 
			},
			{
				"x": -0.9998982852,
				"y": -1.4184950203,
				"z": 1.7643624158,
				"element": "C" 
			},
			{
				"x": -2.0181161082,
				"y": -2.0186642749,
				"z": 2.5801325473,
				"element": "C" 
			},
			{
				"x": -2.8241631652,
				"y": -2.5465747916,
				"z": 3.2323277325,
				"element": "N" 
			},
			{
				"x": -1.3292660797,
				"y": -0.0550836629,
				"z": 1.2701685031,
				"element": "C" 
			},
			{
				"x": -2.0461089409,
				"y": 0.7263198667,
				"z": 2.0166666845,
				"element": "N" 
			},
			{
				"x": -2.3778296056,
				"y": 1.9751572458,
				"z": 1.5131443767,
				"element": "C" 
			},
			{
				"x": -1.9679831469,
				"y": 2.4174892948,
				"z": 0.2310118759,
				"element": "C" 
			},
			{
				"x": -2.3271943376,
				"y": 3.6918533973,
				"z": -0.2314094267,
				"element": "C" 
			},
			{
				"x": -3.0886352477,
				"y": 4.528689046,
				"z": 0.57131627,
				"element": "C" 
			},
			{
				"x": -3.49976881,
				"y": 4.0963720949,
				"z": 1.8452999504,
				"element": "C" 
			},
			{
				"x": -3.1519979392,
				"y": 2.8384480538,
				"z": 2.3137228167,
				"element": "C" 
			},
			{
				"x": -1.1715739045,
				"y": 1.5208506701,
				"z": -0.6142389317,
				"element": "C" 
			},
			{
				"x": -0.75525121,
				"y": 1.7553041629,
				"z": -1.739894659,
				"element": "O" 
			},
			{
				"x": -0.9115318443,
				"y": 0.2872887602,
				"z": 0.0012169428,
				"element": "N" 
			},
			{
				"x": 1.9371399327,
				"y": -0.5276223603,
				"z": 0.8467638066,
				"element": "C" 
			},
			{
				"x": 3.154569506,
				"y": -0.2816741564,
				"z": 0.2376279363,
				"element": "C" 
			},
			{
				"x": 6.6871041204,
				"y": -1.4718820655,
				"z": -2.008533963,
				"element": "H" 
			},
			{
				"x": 5.2465639607,
				"y": -2.423739586,
				"z": -2.4573601812,
				"element": "H" 
			},
			{
				"x": 6.1083120227,
				"y": -2.7668415721,
				"z": -0.9265543903,
				"element": "H" 
			},
			{
				"x": 3.8559629046,
				"y": -3.4451686165,
				"z": -0.8489538748,
				"element": "H" 
			},
			{
				"x": 1.7126780465,
				"y": -3.8694192169,
				"z": 0.2592544331,
				"element": "H" 
			},
			{
				"x": 0.0653757901,
				"y": -3.1903765515,
				"z": 1.8711909723,
				"element": "H" 
			},
			{
				"x": -1.9963192331,
				"y": 3.9923664503,
				"z": -1.2201235244,
				"element": "H" 
			},
			{
				"x": -3.3691387564,
				"y": 5.5161645682,
				"z": 0.2178794224,
				"element": "H" 
			},
			{
				"x": -4.0973240152,
				"y": 4.7549532551,
				"z": 2.469131882,
				"element": "H" 
			},
			{
				"x": -3.4608448348,
				"y": 2.4870063357,
				"z": 3.2924463388,
				"element": "H" 
			},
			{
				"x": -0.3711457297,
				"y": -0.3661551358,
				"z": -0.5526976005,
				"element": "H" 
			},
			{
				"x": 1.4312256701,
				"y": 0.2849524357,
				"z": 1.3557908124,
				"element": "H" 
			},
			{
				"x": 3.5954083383,
				"y": 0.7093149594,
				"z": 0.2439591021,
				"element": "H" 
			}
		],
		 "valence_orbital": [ 
			{
				"type": "occ",
				"energy": -0.27741,
				"method": "rhf"
			},
			{
				"type": "occ",
				"energy": -0.26571,
				"method": "rhf"
			},
			{
				"type": "occ",
				"energy": -0.26298,
				"method": "rhf"
			},
			{
				"type": "occ",
				"energy": -0.24172,
				"method": "rhf"
			},
			{
				"type": "occ",
				"energy": -0.22539,
				"method": "rhf"
			},
			{
				"type": "unocc",
				"energy": -0.088,
				"method": "rhf"
			},
			{
				"type": "unocc",
				"energy": -0.04374,
				"method": "rhf"
			},
			{
				"type": "unocc",
				"energy": -0.02946,
				"method": "rhf"
			},
			{
				"type": "unocc",
				"energy": -0.0265,
				"method": "rhf"
			},
			{
				"type": "unocc",
				"energy": 0.01271,
				"method": "rhf"
			}
		],
		"cosmo_sigma_profile": { 
			"-0.025": 0.0,
			"-0.024": 0.0,
			"-0.023": 0.0,
			"-0.022": 0.0,
			"-0.021": 0.0,
			"-0.02": 0.0,
			"-0.019": 0.0,
			"-0.018": 0.0,
			"-0.017": 0.0,
			"-0.016": 0.0,
			"-0.015": 0.000388468991748,
			"-0.014": 0.77352458037,
			"-0.013": 0.631658987905,
			"-0.012": 0.768351050624,
			"-0.011": 1.04251080599,
			"-0.01": 0.929122434535,
			"-0.009": 3.69260541593,
			"-0.008": 4.63975716553,
			"-0.007": 15.0805562144,
			"-0.006": 27.1218482147,
			"-0.005": 27.6374267533,
			"-0.004": 27.126555379,
			"-0.003": 22.4895395415,
			"-0.002": 19.5998810515,
			"-0.001": 22.0117635655,
			"0.0": 19.0587345026,
			"0.001": 22.5667187441,
			"0.002": 28.6173838499,
			"0.003": 25.291788503,
			"0.004": 11.1375476156,
			"0.005": 5.86069162809,
			"0.006": 7.06064376655,
			"0.007": 5.99611526734,
			"0.008": 7.26434430838,
			"0.009": 7.67666299861,
			"0.01": 7.15200635787,
			"0.011": 5.86968421508,
			"0.012": 7.36092631221,
			"0.013": 6.8012113992,
			"0.014": 0.346589948801,
			"0.015": 0.0,
			"0.016": 0.0,
			"0.017": 0.0,
			"0.018": 0.0,
			"0.019": 0.0,
			"0.02": 0.0,
			"0.021": 0.0,
			"0.022": 0.0,
			"0.023": 0.0,
			"0.024": 0.0,
			"0.025": 0.0
		}
	}
}
