{
	 "smiles": "COC(=O)C1=C(C)NC(C)=C(C1C(O)=O)C(=O)OC", 
	 "Tm": 402.15, 
	 "num_atms": 34, 
	 "gaussian": { 
		 "optdone": 1, 
		 "sigma_profile": "yes", 
		 "theory": "DFT", 
		 "functional": "B3LYP", 
		 "basiset": "6-31G**", 
		 "properties": { 
			 "R2extent": 5882.5986, 
			 "electric_dipole_moment_norm": 6.2693171558, 
			 "electric_quadrupole_moment_norm": 13.961550954, 
			 "total_energy": -972.432425771, 
			 "HOMO_LUMO_gap": 0.16425, 
			 "cosmo_polarized_energy": -26.41, 
			 "cosmo_cavitation_energy": 38.02, 
			 "cosmo_dispersion_energy": -26.05, 
			 "cosmo_repulsion_energy": 2.06, 
			 "cosmo_total_nonelectrostatic_energy": 14.03, 
			 "SMD_solvation_energy": 10.68 
		},
		"coords": [
			{
				"x": -3.6519610343,
				"y": 0.0071921994,
				"z": 2.019954438,
				"element": "C" 
			},
			{
				"x": -2.8841354617,
				"y": -0.4185705637,
				"z": 0.8850825442,
				"element": "O" 
			},
			{
				"x": -1.542341617,
				"y": -0.4963920399,
				"z": 1.1023956555,
				"element": "C" 
			},
			{
				"x": -1.0428483591,
				"y": -0.1941454343,
				"z": 2.1724808614,
				"element": "O" 
			},
			{
				"x": -0.7599014836,
				"y": -0.9476300042,
				"z": -0.0574177071,
				"element": "C" 
			},
			{
				"x": -1.254344405,
				"y": -1.3106329261,
				"z": -1.2711408731,
				"element": "C" 
			},
			{
				"x": -2.6973388112,
				"y": -1.4266520987,
				"z": -1.69063416,
				"element": "C" 
			},
			{
				"x": -0.3456716094,
				"y": -1.583404577,
				"z": -2.2890209112,
				"element": "N" 
			},
			{
				"x": 0.9784942409,
				"y": -1.1618100224,
				"z": -2.2778164602,
				"element": "C" 
			},
			{
				"x": 1.6174113317,
				"y": -1.1159764949,
				"z": -3.6429332748,
				"element": "C" 
			},
			{
				"x": 1.5201533152,
				"y": -0.7963942024,
				"z": -1.0821254914,
				"element": "C" 
			},
			{
				"x": 0.7285230652,
				"y": -1.0781719678,
				"z": 0.1829975076,
				"element": "C" 
			},
			{
				"x": 1.0402661453,
				"y": -2.46860382,
				"z": 0.7616460884,
				"element": "C" 
			},
			{
				"x": 2.3713451128,
				"y": -2.6980841401,
				"z": 0.8410091096,
				"element": "O" 
			},
			{
				"x": 0.2181467293,
				"y": -3.2802055343,
				"z": 1.1251924935,
				"element": "O" 
			},
			{
				"x": 2.8099369718,
				"y": -0.113012731,
				"z": -0.8882531869,
				"element": "C" 
			},
			{
				"x": 3.1899285666,
				"y": 0.3225076274,
				"z": 0.1838644647,
				"element": "O" 
			},
			{
				"x": 3.5514160786,
				"y": 0.0223472848,
				"z": -2.023316161,
				"element": "O" 
			},
			{
				"x": 4.8039523513,
				"y": 0.6989812531,
				"z": -1.8442504305,
				"element": "C" 
			},
			{
				"x": -3.5154828471,
				"y": -0.6788671768,
				"z": 2.85963213,
				"element": "H" 
			},
			{
				"x": -3.3523300246,
				"y": 1.0095705448,
				"z": 2.3363164615,
				"element": "H" 
			},
			{
				"x": -4.6912549353,
				"y": 0.0055165213,
				"z": 1.6892941798,
				"element": "H" 
			},
			{
				"x": -3.1404057604,
				"y": -0.4389617614,
				"z": -1.8530983994,
				"element": "H" 
			},
			{
				"x": -3.2902464398,
				"y": -1.9223434807,
				"z": -0.9237714783,
				"element": "H" 
			},
			{
				"x": -2.7803079179,
				"y": -1.9955575775,
				"z": -2.622854893,
				"element": "H" 
			},
			{
				"x": -0.7307989907,
				"y": -1.8500318806,
				"z": -3.1822235315,
				"element": "H" 
			},
			{
				"x": 1.0440591052,
				"y": -1.7220438365,
				"z": -4.3526082783,
				"element": "H" 
			},
			{
				"x": 2.64119028,
				"y": -1.4844116867,
				"z": -3.6131105372,
				"element": "H" 
			},
			{
				"x": 1.6550753575,
				"y": -0.0906464297,
				"z": -4.0249986367,
				"element": "H" 
			},
			{
				"x": 1.0436007527,
				"y": -0.3705989397,
				"z": 0.9559335773,
				"element": "H" 
			},
			{
				"x": 2.4656553555,
				"y": -3.5783810936,
				"z": 1.241791702,
				"element": "H" 
			},
			{
				"x": 5.270782359,
				"y": 0.7192413129,
				"z": -2.8297214377,
				"element": "H" 
			},
			{
				"x": 5.4357041857,
				"y": 0.1628636879,
				"z": -1.1315824146,
				"element": "H" 
			},
			{
				"x": 4.6465283926,
				"y": 1.7152099885,
				"z": -1.47401295,
				"element": "H" 
			}
		],
		 "valence_orbital": [ 
			{
				"type": "occ",
				"energy": -0.26958,
				"method": "rhf"
			},
			{
				"type": "occ",
				"energy": -0.26315,
				"method": "rhf"
			},
			{
				"type": "occ",
				"energy": -0.26095,
				"method": "rhf"
			},
			{
				"type": "occ",
				"energy": -0.25113,
				"method": "rhf"
			},
			{
				"type": "occ",
				"energy": -0.20925,
				"method": "rhf"
			},
			{
				"type": "unocc",
				"energy": -0.045,
				"method": "rhf"
			},
			{
				"type": "unocc",
				"energy": 0.00037,
				"method": "rhf"
			},
			{
				"type": "unocc",
				"energy": 0.0254,
				"method": "rhf"
			},
			{
				"type": "unocc",
				"energy": 0.0577,
				"method": "rhf"
			},
			{
				"type": "unocc",
				"energy": 0.08125,
				"method": "rhf"
			}
		],
		"cosmo_sigma_profile": { 
			"-0.025": 0.0,
			"-0.024": 0.0,
			"-0.023": 0.0,
			"-0.022": 0.0,
			"-0.021": 0.0,
			"-0.02": 0.0,
			"-0.019": 0.0,
			"-0.018": 0.530121282281,
			"-0.017": 1.15706792908,
			"-0.016": 0.783189855929,
			"-0.015": 2.59862661229,
			"-0.014": 1.93191615694,
			"-0.013": 2.24249561548,
			"-0.012": 2.17352876717,
			"-0.011": 2.38089558908,
			"-0.01": 2.15627919674,
			"-0.009": 2.09950253562,
			"-0.008": 2.24006799659,
			"-0.007": 3.20471963361,
			"-0.006": 10.8919387796,
			"-0.005": 20.7506853224,
			"-0.004": 24.934522037,
			"-0.003": 31.5941092973,
			"-0.002": 26.4626882498,
			"-0.001": 23.8202888616,
			"0.0": 19.2631346341,
			"0.001": 18.2416231185,
			"0.002": 15.8763738957,
			"0.003": 10.7551632645,
			"0.004": 9.92108302633,
			"0.005": 7.17726572481,
			"0.006": 6.11133537231,
			"0.007": 6.8274990325,
			"0.008": 5.55702262019,
			"0.009": 5.69698388706,
			"0.01": 6.59154050007,
			"0.011": 8.04303673427,
			"0.012": 12.0048600523,
			"0.013": 5.92602096667,
			"0.014": 0.000691574269963,
			"0.015": 0.0,
			"0.016": 0.0,
			"0.017": 0.0,
			"0.018": 0.0,
			"0.019": 0.0,
			"0.02": 0.0,
			"0.021": 0.0,
			"0.022": 0.0,
			"0.023": 0.0,
			"0.024": 0.0,
			"0.0": 0.0
		}
	}
}
