{
	 "smiles": "CCC1=C(C=CC=C1)N1CC(CC1=O)C(O)=O", 
	 "Tm": 373.15, 
	 "num_atms": 32, 
	 "gaussian": { 
		 "optdone": 1, 
		 "sigma_profile": "yes", 
		 "theory": "DFT", 
		 "functional": "B3LYP", 
		 "basiset": "6-31G**", 
		 "properties": { 
			 "R2extent": 5353.2893, 
			 "electric_dipole_moment_norm": 3.36560750683, 
			 "electric_quadrupole_moment_norm": 13.7541449981, 
			 "total_energy": -784.88542937, 
			 "HOMO_LUMO_gap": 0.21583, 
			 "cosmo_polarized_energy": -17.51, 
			 "cosmo_cavitation_energy": 34.48, 
			 "cosmo_dispersion_energy": -23.83, 
			 "cosmo_repulsion_energy": 1.86, 
			 "cosmo_total_nonelectrostatic_energy": 12.51, 
			 "SMD_solvation_energy": 7.56 
		},
		"coords": [
			{
				"x": -1.6537250513,
				"y": 0.3894957358,
				"z": 3.756012795,
				"element": "C" 
			},
			{
				"x": -2.7304301786,
				"y": -0.214492308,
				"z": 2.8351419181,
				"element": "C" 
			},
			{
				"x": -3.2405481536,
				"y": 0.7574148282,
				"z": 1.7913540126,
				"element": "C" 
			},
			{
				"x": -2.5346538817,
				"y": 1.0596571358,
				"z": 0.6094772461,
				"element": "C" 
			},
			{
				"x": -3.0310453011,
				"y": 2.0080672478,
				"z": -0.2935034641,
				"element": "C" 
			},
			{
				"x": -4.2275285908,
				"y": 2.6753423377,
				"z": -0.0427822151,
				"element": "C" 
			},
			{
				"x": -4.9444126651,
				"y": 2.3812514056,
				"z": 1.1164258732,
				"element": "C" 
			},
			{
				"x": -4.4507534949,
				"y": 1.4317437976,
				"z": 2.0093395563,
				"element": "C" 
			},
			{
				"x": -1.2852571191,
				"y": 0.4280791839,
				"z": 0.3048212913,
				"element": "N" 
			},
			{
				"x": -0.0918200221,
				"y": 1.218338373,
				"z": -0.0143764714,
				"element": "C" 
			},
			{
				"x": 1.0328298962,
				"y": 0.1694549209,
				"z": -0.105233224,
				"element": "C" 
			},
			{
				"x": 0.292023133,
				"y": -1.1388224167,
				"z": -0.459436754,
				"element": "C" 
			},
			{
				"x": -1.1478904608,
				"y": -0.9129715294,
				"z": 0.0057391027,
				"element": "C" 
			},
			{
				"x": -2.0159073172,
				"y": -1.764605843,
				"z": 0.0853822097,
				"element": "O" 
			},
			{
				"x": 1.8111595015,
				"y": 0.0655903904,
				"z": 1.1996180632,
				"element": "C" 
			},
			{
				"x": 2.7363996174,
				"y": -0.9193889357,
				"z": 1.1394249315,
				"element": "O" 
			},
			{
				"x": 1.670574114,
				"y": 0.7676023722,
				"z": 2.1772881736,
				"element": "O" 
			},
			{
				"x": -0.7573896314,
				"y": 0.6776882216,
				"z": 3.1998981792,
				"element": "H" 
			},
			{
				"x": -2.0315259857,
				"y": 1.2792230909,
				"z": 4.2710321731,
				"element": "H" 
			},
			{
				"x": -1.3533853552,
				"y": -0.337123332,
				"z": 4.5187632149,
				"element": "H" 
			},
			{
				"x": -2.3516755404,
				"y": -1.1163069337,
				"z": 2.348422139,
				"element": "H" 
			},
			{
				"x": -3.5828725185,
				"y": -0.5319048921,
				"z": 3.4467845404,
				"element": "H" 
			},
			{
				"x": -2.4789186157,
				"y": 2.2126688797,
				"z": -1.2059697616,
				"element": "H" 
			},
			{
				"x": -4.5999060317,
				"y": 3.4069415429,
				"z": -0.7536806334,
				"element": "H" 
			},
			{
				"x": -5.8834559654,
				"y": 2.885910137,
				"z": 1.3244196188,
				"element": "H" 
			},
			{
				"x": -5.0121736603,
				"y": 1.2042024245,
				"z": 2.9121088294,
				"element": "H" 
			},
			{
				"x": -0.2039376801,
				"y": 1.7455541798,
				"z": -0.9710054371,
				"element": "H" 
			},
			{
				"x": 0.1021921116,
				"y": 1.9528424414,
				"z": 0.7699791277,
				"element": "H" 
			},
			{
				"x": 1.7642376847,
				"y": 0.4319800153,
				"z": -0.8766603137,
				"element": "H" 
			},
			{
				"x": 0.2782956697,
				"y": -1.3098553008,
				"z": -1.5413329069,
				"element": "H" 
			},
			{
				"x": 0.7142914979,
				"y": -2.0312708979,
				"z": 0.004658151,
				"element": "H" 
			},
			{
				"x": 3.1943099947,
				"y": -0.9190062728,
				"z": 1.9969900345,
				"element": "H" 
			}
		],
		 "valence_orbital": [ 
			{
				"type": "occ",
				"energy": -0.29,
				"method": "rhf"
			},
			{
				"type": "occ",
				"energy": -0.26779,
				"method": "rhf"
			},
			{
				"type": "occ",
				"energy": -0.24946,
				"method": "rhf"
			},
			{
				"type": "occ",
				"energy": -0.24194,
				"method": "rhf"
			},
			{
				"type": "occ",
				"energy": -0.22714,
				"method": "rhf"
			},
			{
				"type": "unocc",
				"energy": -0.01131,
				"method": "rhf"
			},
			{
				"type": "unocc",
				"energy": -0.00454,
				"method": "rhf"
			},
			{
				"type": "unocc",
				"energy": 0.00102,
				"method": "rhf"
			},
			{
				"type": "unocc",
				"energy": 0.02817,
				"method": "rhf"
			},
			{
				"type": "unocc",
				"energy": 0.06372,
				"method": "rhf"
			}
		],
		"cosmo_sigma_profile": { 
			"-0.025": 0.0,
			"-0.024": 0.0,
			"-0.023": 0.0,
			"-0.022": 0.0,
			"-0.021": 0.0,
			"-0.02": 0.0,
			"-0.019": 0.0749633091982,
			"-0.018": 0.976492433385,
			"-0.017": 0.980676821133,
			"-0.016": 0.631985534125,
			"-0.015": 0.944160975409,
			"-0.014": 0.777426052775,
			"-0.013": 0.338875568231,
			"-0.012": 0.879473252637,
			"-0.011": 0.914698332596,
			"-0.01": 0.758302970931,
			"-0.009": 0.452884383081,
			"-0.008": 2.48211000178,
			"-0.007": 9.27722282652,
			"-0.006": 18.5771485844,
			"-0.005": 18.8976479046,
			"-0.004": 19.2543067785,
			"-0.003": 22.4206594379,
			"-0.002": 18.631899154,
			"-0.001": 20.5040857435,
			"0.0": 21.6755440688,
			"0.001": 17.6473623976,
			"0.002": 15.3748868451,
			"0.003": 12.9057622426,
			"0.004": 11.7692275078,
			"0.005": 13.9227431446,
			"0.006": 7.67427773697,
			"0.007": 4.34697253706,
			"0.008": 5.02587514118,
			"0.009": 3.70497687794,
			"0.01": 3.52809148459,
			"0.011": 5.24192318391,
			"0.012": 3.3618281974,
			"0.013": 4.41291256326,
			"0.014": 3.58557073921,
			"0.015": 0.279981686268,
			"0.016": 0.0,
			"0.017": 0.0,
			"0.018": 0.0,
			"0.019": 0.0,
			"0.02": 0.0,
			"0.021": 0.0,
			"0.022": 0.0,
			"0.023": 0.0,
			"0.024": 0.0,
			"0.025": 0.0
		}
	}
}
