{
	 "smiles": "CCOC(=O)C1=C(N=C2SCCS2)C2=C(S1)SC(C(=O)OCC)=C2N=C1SCCS1", 
	 "Tm": 471.15, 
	 "num_atms": 48, 
	 "gaussian": { 
		 "optdone": 1, 
		 "sigma_profile": "yes", 
		 "theory": "DFT", 
		 "functional": "B3LYP", 
		 "basiset": "6-31G**", 
		 "properties": { 
			 "R2extent": 18895.1144, 
			 "electric_dipole_moment_norm": 5.95654098366, 
			 "electric_quadrupole_moment_norm": 38.4027201672, 
			 "total_energy": -3496.28305567, 
			 "HOMO_LUMO_gap": 0.15841, 
			 "cosmo_polarized_energy": -25.44, 
			 "cosmo_cavitation_energy": 62.08, 
			 "cosmo_dispersion_energy": -41.62, 
			 "cosmo_repulsion_energy": 3.01, 
			 "cosmo_total_nonelectrostatic_energy": 23.47, 
			 "SMD_solvation_energy": 7.35 
		},
		"coords": [
			{
				"x": 2.1493650223,
				"y": -0.1017079705,
				"z": 6.7106518221,
				"element": "C" 
			},
			{
				"x": 1.0461942244,
				"y": -0.3719794903,
				"z": 5.7049020511,
				"element": "C" 
			},
			{
				"x": 1.4483489572,
				"y": 0.2182913125,
				"z": 4.4510626076,
				"element": "O" 
			},
			{
				"x": 0.5699911595,
				"y": 0.0845287295,
				"z": 3.4224547028,
				"element": "C" 
			},
			{
				"x": -0.4947730611,
				"y": -0.497450787,
				"z": 3.5256693169,
				"element": "O" 
			},
			{
				"x": 1.0845357361,
				"y": 0.7246634818,
				"z": 2.2112291199,
				"element": "C" 
			},
			{
				"x": 0.5099506957,
				"y": 0.7286051791,
				"z": 0.9464371526,
				"element": "C" 
			},
			{
				"x": -0.6511961077,
				"y": 0.0720516161,
				"z": 0.5728704804,
				"element": "N" 
			},
			{
				"x": -1.8207379505,
				"y": 0.4051922281,
				"z": 0.9319425376,
				"element": "C" 
			},
			{
				"x": -3.189956078,
				"y": -0.6641584999,
				"z": 0.5370645369,
				"element": "S" 
			},
			{
				"x": -4.4970102734,
				"y": 0.5338967732,
				"z": 0.9965997448,
				"element": "C" 
			},
			{
				"x": -3.9899224865,
				"y": 1.3514896952,
				"z": 2.1813771264,
				"element": "C" 
			},
			{
				"x": -2.2845730476,
				"y": 1.9052524,
				"z": 1.8059175017,
				"element": "S" 
			},
			{
				"x": 1.3509661183,
				"y": 1.3987780043,
				"z": -0.0103644047,
				"element": "C" 
			},
			{
				"x": 2.5215334583,
				"y": 1.8879258939,
				"z": 0.5594862872,
				"element": "C" 
			},
			{
				"x": 2.6608003424,
				"y": 1.5376067818,
				"z": 2.2451952968,
				"element": "S" 
			},
			{
				"x": 3.5412205228,
				"y": 2.7166607737,
				"z": -0.5612380348,
				"element": "S" 
			},
			{
				"x": 2.3793355639,
				"y": 2.3887033128,
				"z": -1.8572947179,
				"element": "C" 
			},
			{
				"x": 2.7379043982,
				"y": 2.939161112,
				"z": -3.1659048174,
				"element": "C" 
			},
			{
				"x": 3.755769053,
				"y": 3.5867213422,
				"z": -3.3558051212,
				"element": "O" 
			},
			{
				"x": 1.829068774,
				"y": 2.6591670693,
				"z": -4.1251573353,
				"element": "O" 
			},
			{
				"x": 2.1099913759,
				"y": 3.1855301313,
				"z": -5.4434618173,
				"element": "C" 
			},
			{
				"x": 3.0400291452,
				"y": 2.2675335914,
				"z": -6.2228460555,
				"element": "C" 
			},
			{
				"x": 1.2677720182,
				"y": 1.684641691,
				"z": -1.4191636941,
				"element": "C" 
			},
			{
				"x": 0.141249138,
				"y": 1.3766770997,
				"z": -2.1702788022,
				"element": "N" 
			},
			{
				"x": 0.0382557492,
				"y": 0.3530485179,
				"z": -2.9077832953,
				"element": "C" 
			},
			{
				"x": 1.3192886015,
				"y": -0.8730588463,
				"z": -3.2152238873,
				"element": "S" 
			},
			{
				"x": 0.1788564917,
				"y": -2.1065711348,
				"z": -3.950179196,
				"element": "C" 
			},
			{
				"x": -0.8695894989,
				"y": -1.3560861022,
				"z": -4.7669683655,
				"element": "C" 
			},
			{
				"x": -1.5021787991,
				"y": 0.0296018709,
				"z": -3.7485544846,
				"element": "S" 
			},
			{
				"x": 3.0940345468,
				"y": -0.5449709917,
				"z": 6.3829574517,
				"element": "H" 
			},
			{
				"x": 1.8827371903,
				"y": -0.5354918526,
				"z": 7.6795517354,
				"element": "H" 
			},
			{
				"x": 2.3017061834,
				"y": 0.9731170772,
				"z": 6.844415043,
				"element": "H" 
			},
			{
				"x": 0.091808021,
				"y": 0.0672948119,
				"z": 6.0129998288,
				"element": "H" 
			},
			{
				"x": 0.8805119939,
				"y": -1.443644827,
				"z": 5.5544835759,
				"element": "H" 
			},
			{
				"x": -5.390074612,
				"y": -0.0379264379,
				"z": 1.2631115847,
				"element": "H" 
			},
			{
				"x": -4.7237168723,
				"y": 1.1745813087,
				"z": 0.1403734487,
				"element": "H" 
			},
			{
				"x": -4.6013791668,
				"y": 2.2437324607,
				"z": 2.3410094141,
				"element": "H" 
			},
			{
				"x": -3.9739615537,
				"y": 0.7552093433,
				"z": 3.0971443006,
				"element": "H" 
			},
			{
				"x": 1.1278128915,
				"y": 3.2582743379,
				"z": -5.9165427278,
				"element": "H" 
			},
			{
				"x": 2.5391660981,
				"y": 4.1850444299,
				"z": -5.3411894489,
				"element": "H" 
			},
			{
				"x": 3.1633989008,
				"y": 2.6436955547,
				"z": -7.2441945602,
				"element": "H" 
			},
			{
				"x": 2.6317264964,
				"y": 1.2538331116,
				"z": -6.2741824385,
				"element": "H" 
			},
			{
				"x": 4.023716901,
				"y": 2.2285532692,
				"z": -5.7493522498,
				"element": "H" 
			},
			{
				"x": -0.2838896155,
				"y": -2.6897381519,
				"z": -3.1500634743,
				"element": "H" 
			},
			{
				"x": 0.773375445,
				"y": -2.7721923032,
				"z": -4.5816938899,
				"element": "H" 
			},
			{
				"x": -0.4423033554,
				"y": -0.9636830749,
				"z": -5.6935351657,
				"element": "H" 
			},
			{
				"x": -1.7182587353,
				"y": -2.0013038426,
				"z": -5.0098286831,
				"element": "H" 
			}
		],
		 "valence_orbital": [ 
			{
				"type": "occ",
				"energy": -0.24706,
				"method": "rhf"
			},
			{
				"type": "occ",
				"energy": -0.24439,
				"method": "rhf"
			},
			{
				"type": "occ",
				"energy": -0.23768,
				"method": "rhf"
			},
			{
				"type": "occ",
				"energy": -0.22518,
				"method": "rhf"
			},
			{
				"type": "occ",
				"energy": -0.20571,
				"method": "rhf"
			},
			{
				"type": "unocc",
				"energy": -0.0473,
				"method": "rhf"
			},
			{
				"type": "unocc",
				"energy": -0.04343,
				"method": "rhf"
			},
			{
				"type": "unocc",
				"energy": -0.01658,
				"method": "rhf"
			},
			{
				"type": "unocc",
				"energy": -0.01506,
				"method": "rhf"
			},
			{
				"type": "unocc",
				"energy": -0.01066,
				"method": "rhf"
			}
		],
		"cosmo_sigma_profile": { 
			"-0.025": 0.0,
			"-0.024": 0.0,
			"-0.023": 0.0,
			"-0.022": 0.0,
			"-0.021": 0.0,
			"-0.02": 0.0,
			"-0.019": 0.0,
			"-0.018": 0.0,
			"-0.017": 0.0,
			"-0.016": 0.0,
			"-0.015": 0.0,
			"-0.014": 0.0,
			"-0.013": 0.0,
			"-0.012": 0.0,
			"-0.011": 0.0,
			"-0.01": 0.0,
			"-0.009": 0.634354458271,
			"-0.008": 12.0317099879,
			"-0.007": 20.8629923086,
			"-0.006": 27.0112053173,
			"-0.005": 31.4517572036,
			"-0.004": 41.0047447293,
			"-0.003": 33.5782230667,
			"-0.002": 32.7259172901,
			"-0.001": 35.5161688149,
			"0.0": 45.8217449068,
			"0.001": 41.9171435889,
			"0.002": 38.489506885,
			"0.003": 35.5941134134,
			"0.004": 26.793189865,
			"0.005": 24.777048131,
			"0.006": 15.9674749596,
			"0.007": 11.0769806373,
			"0.008": 6.92031470318,
			"0.009": 6.766875433,
			"0.01": 5.41864806932,
			"0.011": 6.1276000141,
			"0.012": 5.80970219136,
			"0.013": 0.240228827527,
			"0.014": 0.0,
			"0.015": 0.0,
			"0.016": 0.0,
			"0.017": 0.0,
			"0.018": 0.0,
			"0.019": 0.0,
			"0.02": 0.0,
			"0.021": 0.0,
			"0.022": 0.0,
			"0.023": 0.0,
			"0.024": 0.0,
			"0.025": 0.0
		}
	}
}
