{
	 "smiles": "OC1=CC=C(C=C1)C(=O)NN=CC1=CC=C(O1)N(=O)=O", 
	 "Tm": 571.15, 
	 "num_atms": 29, 
	 "gaussian": { 
		 "optdone": 1, 
		 "sigma_profile": "yes", 
		 "theory": "DFT", 
		 "functional": "B3LYP", 
		 "basiset": "6-31G**", 
		 "properties": { 
			 "R2extent": 10925.8147, 
			 "electric_dipole_moment_norm": 9.49353253852, 
			 "electric_quadrupole_moment_norm": 36.7925021223, 
			 "total_energy": -1002.90676473, 
			 "HOMO_LUMO_gap": 0.13451, 
			 "cosmo_polarized_energy": -33.18, 
			 "cosmo_cavitation_energy": 37.56, 
			 "cosmo_dispersion_energy": -27.03, 
			 "cosmo_repulsion_energy": 2.08, 
			 "cosmo_total_nonelectrostatic_energy": 12.61, 
			 "SMD_solvation_energy": 10.21 
		},
		"coords": [
			{
				"x": 0.8622675839,
				"y": -3.996604105,
				"z": -5.4940726944,
				"element": "O" 
			},
			{
				"x": 0.3589980504,
				"y": -3.1981349277,
				"z": -4.5152822298,
				"element": "C" 
			},
			{
				"x": 1.1437621799,
				"y": -3.013763327,
				"z": -3.3695433537,
				"element": "C" 
			},
			{
				"x": 0.6807850509,
				"y": -2.2022626634,
				"z": -2.3408487077,
				"element": "C" 
			},
			{
				"x": -0.5657347623,
				"y": -1.5591937796,
				"z": -2.4310322707,
				"element": "C" 
			},
			{
				"x": -1.3487948364,
				"y": -1.7726495293,
				"z": -3.5746928916,
				"element": "C" 
			},
			{
				"x": -0.8936085878,
				"y": -2.5762779596,
				"z": -4.6120310891,
				"element": "C" 
			},
			{
				"x": -1.144722892,
				"y": -0.6844449896,
				"z": -1.3679140326,
				"element": "C" 
			},
			{
				"x": -2.3338682312,
				"y": -0.4519832349,
				"z": -1.2668643952,
				"element": "O" 
			},
			{
				"x": -0.195624898,
				"y": -0.1246012777,
				"z": -0.4991029237,
				"element": "N" 
			},
			{
				"x": -0.5808432029,
				"y": 0.6405008259,
				"z": 0.5367293999,
				"element": "N" 
			},
			{
				"x": 0.3451424661,
				"y": 1.2166747772,
				"z": 1.2213749328,
				"element": "C" 
			},
			{
				"x": 0.046125828,
				"y": 2.0467342817,
				"z": 2.3613146651,
				"element": "C" 
			},
			{
				"x": 0.891216675,
				"y": 2.7438799975,
				"z": 3.2040244775,
				"element": "C" 
			},
			{
				"x": 0.0687356461,
				"y": 3.3941374239,
				"z": 4.157239688,
				"element": "C" 
			},
			{
				"x": -1.2107263038,
				"y": 3.0422696627,
				"z": 3.8215591495,
				"element": "C" 
			},
			{
				"x": -1.2481527166,
				"y": 2.2299005343,
				"z": 2.7413736283,
				"element": "O" 
			},
			{
				"x": -2.4523033417,
				"y": 3.3996152177,
				"z": 4.4302032652,
				"element": "N" 
			},
			{
				"x": -3.487744987,
				"y": 2.9510534501,
				"z": 3.9437219752,
				"element": "O" 
			},
			{
				"x": -2.3681677193,
				"y": 4.1445060486,
				"z": 5.4136068513,
				"element": "O" 
			},
			{
				"x": 0.2262415338,
				"y": -4.0581532632,
				"z": -6.219110463,
				"element": "H" 
			},
			{
				"x": 2.0989984914,
				"y": -3.5228940846,
				"z": -3.3010434259,
				"element": "H" 
			},
			{
				"x": 1.2888088943,
				"y": -2.1105207037,
				"z": -1.4450512818,
				"element": "H" 
			},
			{
				"x": -2.3211672813,
				"y": -1.2950108487,
				"z": -3.6279556888,
				"element": "H" 
			},
			{
				"x": -1.5081143787,
				"y": -2.7259005308,
				"z": -5.4971443462,
				"element": "H" 
			},
			{
				"x": 0.7910743318,
				"y": -0.1831035191,
				"z": -0.7401563803,
				"element": "H" 
			},
			{
				"x": 1.4120274842,
				"y": 1.1152737538,
				"z": 0.9852400544,
				"element": "H" 
			},
			{
				"x": 1.969117999,
				"y": 2.7781672308,
				"z": 3.1369456975,
				"element": "H" 
			},
			{
				"x": 0.3547719242,
				"y": 4.0319855395,
				"z": 4.9785123899,
				"element": "H" 
			}
		],
		 "valence_orbital": [ 
			{
				"type": "occ",
				"energy": -0.28782,
				"method": "rhf"
			},
			{
				"type": "occ",
				"energy": -0.27529,
				"method": "rhf"
			},
			{
				"type": "occ",
				"energy": -0.267,
				"method": "rhf"
			},
			{
				"type": "occ",
				"energy": -0.24403,
				"method": "rhf"
			},
			{
				"type": "occ",
				"energy": -0.23199,
				"method": "rhf"
			},
			{
				"type": "unocc",
				"energy": -0.09748,
				"method": "rhf"
			},
			{
				"type": "unocc",
				"energy": -0.05393,
				"method": "rhf"
			},
			{
				"type": "unocc",
				"energy": -0.02858,
				"method": "rhf"
			},
			{
				"type": "unocc",
				"energy": -0.02313,
				"method": "rhf"
			},
			{
				"type": "unocc",
				"energy": 0.04416,
				"method": "rhf"
			}
		],
		"cosmo_sigma_profile": { 
			"-0.025": 0.0,
			"-0.024": 0.0,
			"-0.023": 0.0,
			"-0.022": 0.0,
			"-0.021": 0.0,
			"-0.02": 0.0,
			"-0.019": 0.134478213522,
			"-0.018": 1.03743575954,
			"-0.017": 1.1970276279,
			"-0.016": 2.85114188766,
			"-0.015": 2.55798665886,
			"-0.014": 2.17246867028,
			"-0.013": 2.38500224052,
			"-0.012": 2.32199714482,
			"-0.011": 3.49903672092,
			"-0.01": 7.55567532785,
			"-0.009": 7.44047306261,
			"-0.008": 7.45516035022,
			"-0.007": 9.81133352388,
			"-0.006": 14.235001879,
			"-0.005": 12.3208132436,
			"-0.004": 13.979103846,
			"-0.003": 15.5672870654,
			"-0.002": 18.6969835499,
			"-0.001": 20.4736322421,
			"0.0": 17.3214406226,
			"0.001": 15.4795390054,
			"0.002": 15.8454553623,
			"0.003": 17.8198555845,
			"0.004": 14.4854451779,
			"0.005": 5.9223306269,
			"0.006": 8.12581975173,
			"0.007": 10.272539741,
			"0.008": 15.7589954488,
			"0.009": 11.0018801236,
			"0.01": 7.58587901653,
			"0.011": 4.31128713266,
			"0.012": 4.39948569451,
			"0.013": 4.1490797986,
			"0.014": 1.50188836681,
			"0.015": 1.57228635754,
			"0.016": 1.07135425527,
			"0.017": 0.092851050698,
			"0.018": 0.0,
			"0.019": 0.0,
			"0.02": 0.0,
			"0.021": 0.0,
			"0.022": 0.0,
			"0.023": 0.0,
			"0.024": 0.0,
			"0.025": 0.0
		}
	}
}
