{
	 "smiles": "NC(=S)CC1=NC=CN1CC1=CC=CC=C1", 
	 "Tm": 405.15, 
	 "num_atms": 29, 
	 "gaussian": { 
		 "optdone": 1, 
		 "sigma_profile": "yes", 
		 "theory": "DFT", 
		 "functional": "B3LYP", 
		 "basiset": "6-31G**", 
		 "properties": { 
			 "R2extent": 6764.6099, 
			 "electric_dipole_moment_norm": 5.53310398691, 
			 "electric_quadrupole_moment_norm": 23.2845459103, 
			 "total_energy": -1027.56519611, 
			 "HOMO_LUMO_gap": 0.17665, 
			 "cosmo_polarized_energy": -17.11, 
			 "cosmo_cavitation_energy": 34.58, 
			 "cosmo_dispersion_energy": -24.78, 
			 "cosmo_repulsion_energy": 1.91, 
			 "cosmo_total_nonelectrostatic_energy": 11.71, 
			 "SMD_solvation_energy": 4.13 
		},
		"coords": [
			{
				"x": -3.9074574812,
				"y": -2.2852304793,
				"z": 2.6824465623,
				"element": "N" 
			},
			{
				"x": -3.4200863923,
				"y": -2.6059984721,
				"z": 1.4797703305,
				"element": "C" 
			},
			{
				"x": -3.140967738,
				"y": -4.1668366782,
				"z": 0.9631482582,
				"element": "S" 
			},
			{
				"x": -3.197429484,
				"y": -1.4084334769,
				"z": 0.5455291334,
				"element": "C" 
			},
			{
				"x": -2.6431890662,
				"y": -0.1761965425,
				"z": 1.2045089094,
				"element": "C" 
			},
			{
				"x": -3.2125418845,
				"y": 0.4136005286,
				"z": 2.2457741656,
				"element": "N" 
			},
			{
				"x": -2.4136477429,
				"y": 1.487142268,
				"z": 2.5611624593,
				"element": "C" 
			},
			{
				"x": -1.3536198968,
				"y": 1.5542985184,
				"z": 1.6981313105,
				"element": "C" 
			},
			{
				"x": -1.498172827,
				"y": 0.4841529013,
				"z": 0.8315496846,
				"element": "N" 
			},
			{
				"x": -0.5558782642,
				"y": 0.1653372393,
				"z": -0.2421920159,
				"element": "C" 
			},
			{
				"x": -0.4861951997,
				"y": 1.2235031768,
				"z": -1.3291856177,
				"element": "C" 
			},
			{
				"x": -1.6507761705,
				"y": 1.7776022484,
				"z": -1.8760290489,
				"element": "C" 
			},
			{
				"x": -1.570770499,
				"y": 2.7170385692,
				"z": -2.9029476404,
				"element": "C" 
			},
			{
				"x": -0.3256576497,
				"y": 3.1120176563,
				"z": -3.3991500672,
				"element": "C" 
			},
			{
				"x": 0.8384530264,
				"y": 2.5651986364,
				"z": -2.8593360148,
				"element": "C" 
			},
			{
				"x": 0.7567739576,
				"y": 1.628407383,
				"z": -1.8268082815,
				"element": "C" 
			},
			{
				"x": -3.9694625121,
				"y": -1.3017993225,
				"z": 2.9539575423,
				"element": "H" 
			},
			{
				"x": -4.0832240537,
				"y": -3.0248844101,
				"z": 3.3466217396,
				"element": "H" 
			},
			{
				"x": -2.5764597037,
				"y": -1.7498968458,
				"z": -0.2799084628,
				"element": "H" 
			},
			{
				"x": -4.1797705824,
				"y": -1.1641498724,
				"z": 0.1184652446,
				"element": "H" 
			},
			{
				"x": -2.6500233805,
				"y": 2.1472597326,
				"z": 3.3836658095,
				"element": "H" 
			},
			{
				"x": -0.5329725481,
				"y": 2.2482513086,
				"z": 1.6035693758,
				"element": "H" 
			},
			{
				"x": 0.4352737087,
				"y": 0.0202766289,
				"z": 0.1999527843,
				"element": "H" 
			},
			{
				"x": -0.8499794165,
				"y": -0.7979904211,
				"z": -0.6659912079,
				"element": "H" 
			},
			{
				"x": -2.6217978648,
				"y": 1.4803894099,
				"z": -1.4895758744,
				"element": "H" 
			},
			{
				"x": -2.4809821388,
				"y": 3.1413536232,
				"z": -3.3166859359,
				"element": "H" 
			},
			{
				"x": -0.2649409325,
				"y": 3.8440987199,
				"z": -4.1990301471,
				"element": "H" 
			},
			{
				"x": 1.81071773,
				"y": 2.8706699734,
				"z": -3.2348875254,
				"element": "H" 
			},
			{
				"x": 1.6672850065,
				"y": 1.2085179988,
				"z": -1.4057254701,
				"element": "H" 
			}
		],
		 "valence_orbital": [ 
			{
				"type": "occ",
				"energy": -0.26444,
				"method": "rhf"
			},
			{
				"type": "occ",
				"energy": -0.25861,
				"method": "rhf"
			},
			{
				"type": "occ",
				"energy": -0.23702,
				"method": "rhf"
			},
			{
				"type": "occ",
				"energy": -0.22014,
				"method": "rhf"
			},
			{
				"type": "occ",
				"energy": -0.19786,
				"method": "rhf"
			},
			{
				"type": "unocc",
				"energy": -0.02121,
				"method": "rhf"
			},
			{
				"type": "unocc",
				"energy": -0.02034,
				"method": "rhf"
			},
			{
				"type": "unocc",
				"energy": -0.01566,
				"method": "rhf"
			},
			{
				"type": "unocc",
				"energy": 0.01282,
				"method": "rhf"
			},
			{
				"type": "unocc",
				"energy": 0.04998,
				"method": "rhf"
			}
		],
		"cosmo_sigma_profile": { 
			"-0.025": 0.0,
			"-0.024": 0.0,
			"-0.023": 0.0,
			"-0.022": 0.0,
			"-0.021": 0.0,
			"-0.02": 0.0,
			"-0.019": 0.0,
			"-0.018": 0.0,
			"-0.017": 0.0,
			"-0.016": 0.0,
			"-0.015": 0.536934114298,
			"-0.014": 1.25306486345,
			"-0.013": 0.664825787266,
			"-0.012": 1.21605660941,
			"-0.011": 1.24891851079,
			"-0.01": 1.98957211349,
			"-0.009": 3.29170110916,
			"-0.008": 5.1964199411,
			"-0.007": 12.0574706177,
			"-0.006": 18.8313971235,
			"-0.005": 22.8051703299,
			"-0.004": 23.8293892395,
			"-0.003": 18.7349611409,
			"-0.002": 13.926864348,
			"-0.001": 13.2903845047,
			"0.0": 14.8151688161,
			"0.001": 13.4106244115,
			"0.002": 15.0977473559,
			"0.003": 15.9058197243,
			"0.004": 16.0493750705,
			"0.005": 18.4848614353,
			"0.006": 10.8147355096,
			"0.007": 4.65395325174,
			"0.008": 5.97794751499,
			"0.009": 7.26187302427,
			"0.01": 6.26962568028,
			"0.011": 5.55729821307,
			"0.012": 4.02946407761,
			"0.013": 1.56321325138,
			"0.014": 0.182645715999,
			"0.015": 0.0,
			"0.016": 0.0,
			"0.017": 0.0,
			"0.018": 0.0,
			"0.019": 0.0,
			"0.02": 0.0,
			"0.021": 0.0,
			"0.022": 0.0,
			"0.023": 0.0,
			"0.024": 0.0,
			"0.025": 0.0
		}
	}
}
