{
	 "smiles": "CC1=C(N=C(N)S1)C1=CC(Cl)=CC=C1", 
	 "Tm": 365.15, 
	 "num_atms": 23, 
	 "gaussian": { 
		 "optdone": 1, 
		 "sigma_profile": "yes", 
		 "theory": "DFT", 
		 "functional": "B3LYP", 
		 "basiset": "6-31G**", 
		 "properties": { 
			 "R2extent": 6161.4225, 
			 "electric_dipole_moment_norm": 3.47692431468, 
			 "electric_quadrupole_moment_norm": 25.3056892662, 
			 "total_energy": -1354.37942397, 
			 "HOMO_LUMO_gap": 0.17192, 
			 "cosmo_polarized_energy": -11.45, 
			 "cosmo_cavitation_energy": 30.4, 
			 "cosmo_dispersion_energy": -23.0, 
			 "cosmo_repulsion_energy": 1.78, 
			 "cosmo_total_nonelectrostatic_energy": 9.19, 
			 "SMD_solvation_energy": 3.2 
		},
		"coords": [
			{
				"x": -1.2164167801,
				"y": 0.6536004373,
				"z": -0.1320068151,
				"element": "C" 
			},
			{
				"x": -0.4145718529,
				"y": -0.583229772,
				"z": -0.4101400934,
				"element": "C" 
			},
			{
				"x": 0.8543908975,
				"y": -0.7508892921,
				"z": -0.9100124739,
				"element": "C" 
			},
			{
				"x": 1.261319554,
				"y": -2.0658345903,
				"z": -1.1137023742,
				"element": "N" 
			},
			{
				"x": 0.3385662659,
				"y": -2.9083398411,
				"z": -0.7664937006,
				"element": "C" 
			},
			{
				"x": 0.4459442733,
				"y": -4.2743699717,
				"z": -0.909366323,
				"element": "N" 
			},
			{
				"x": -1.1460564972,
				"y": -2.1674673313,
				"z": -0.1623597154,
				"element": "S" 
			},
			{
				"x": 1.8094597861,
				"y": 0.3167681813,
				"z": -1.2764542397,
				"element": "C" 
			},
			{
				"x": 2.7144691267,
				"y": 0.0772737958,
				"z": -2.3260276583,
				"element": "C" 
			},
			{
				"x": 3.6188150708,
				"y": 1.0651325842,
				"z": -2.6972198301,
				"element": "C" 
			},
			{
				"x": 4.7370537553,
				"y": 0.7501232702,
				"z": -4.0216285993,
				"element": "Cl" 
			},
			{
				"x": 3.6659665649,
				"y": 2.2997093793,
				"z": -2.048642949,
				"element": "C" 
			},
			{
				"x": 2.7828801694,
				"y": 2.5269757338,
				"z": -0.9936015446,
				"element": "C" 
			},
			{
				"x": 1.8680533515,
				"y": 1.5489171963,
				"z": -0.6040980124,
				"element": "C" 
			},
			{
				"x": -1.1754699584,
				"y": 0.9524138271,
				"z": 0.9234457263,
				"element": "H" 
			},
			{
				"x": -0.8452039104,
				"y": 1.4887568956,
				"z": -0.7309893624,
				"element": "H" 
			},
			{
				"x": -2.2709028483,
				"y": 0.5057831313,
				"z": -0.3862529098,
				"element": "H" 
			},
			{
				"x": -0.0543756938,
				"y": -4.8428508821,
				"z": -0.241020558,
				"element": "H" 
			},
			{
				"x": 1.3987696074,
				"y": -4.5761246311,
				"z": -1.0686497939,
				"element": "H" 
			},
			{
				"x": 2.7005573766,
				"y": -0.8795186538,
				"z": -2.8329598973,
				"element": "H" 
			},
			{
				"x": 4.3823604014,
				"y": 3.0531167487,
				"z": -2.3560214586,
				"element": "H" 
			},
			{
				"x": 2.8197493676,
				"y": 3.4728741653,
				"z": -0.4610892711,
				"element": "H" 
			},
			{
				"x": 1.2237419728,
				"y": 1.7326796192,
				"z": 0.2476918537,
				"element": "H" 
			}
		],
		 "valence_orbital": [ 
			{
				"type": "occ",
				"energy": -0.28148,
				"method": "rhf"
			},
			{
				"type": "occ",
				"energy": -0.2736,
				"method": "rhf"
			},
			{
				"type": "occ",
				"energy": -0.2525,
				"method": "rhf"
			},
			{
				"type": "occ",
				"energy": -0.24216,
				"method": "rhf"
			},
			{
				"type": "occ",
				"energy": -0.2032,
				"method": "rhf"
			},
			{
				"type": "unocc",
				"energy": -0.03128,
				"method": "rhf"
			},
			{
				"type": "unocc",
				"energy": -0.008,
				"method": "rhf"
			},
			{
				"type": "unocc",
				"energy": 0.00551,
				"method": "rhf"
			},
			{
				"type": "unocc",
				"energy": 0.0104,
				"method": "rhf"
			},
			{
				"type": "unocc",
				"energy": 0.03776,
				"method": "rhf"
			}
		],
		"cosmo_sigma_profile": { 
			"-0.025": 0.0,
			"-0.024": 0.0,
			"-0.023": 0.0,
			"-0.022": 0.0,
			"-0.021": 0.0,
			"-0.02": 0.0,
			"-0.019": 0.0,
			"-0.018": 0.0,
			"-0.017": 0.0,
			"-0.016": 0.0,
			"-0.015": 0.221651954596,
			"-0.014": 1.65190712513,
			"-0.013": 2.79484177286,
			"-0.012": 2.82807827686,
			"-0.011": 2.11691822201,
			"-0.01": 2.74203808827,
			"-0.009": 2.13318600574,
			"-0.008": 1.62560565796,
			"-0.007": 3.69425031987,
			"-0.006": 7.92662525719,
			"-0.005": 13.3674221688,
			"-0.004": 15.2012722504,
			"-0.003": 14.6715457536,
			"-0.002": 17.0410220848,
			"-0.001": 15.9862152793,
			"0.0": 15.5157112142,
			"0.001": 16.6983710973,
			"0.002": 25.254720472,
			"0.003": 29.772066657,
			"0.004": 25.7216290372,
			"0.005": 15.222760034,
			"0.006": 2.99528913926,
			"0.007": 2.49716678331,
			"0.008": 2.49063952342,
			"0.009": 1.99019219215,
			"0.01": 1.89112888646,
			"0.011": 1.4361032263,
			"0.012": 1.02457240254,
			"0.013": 0.868181551372,
			"0.014": 0.189576189365,
			"0.015": 0.0,
			"0.016": 0.0,
			"0.017": 0.0,
			"0.018": 0.0,
			"0.019": 0.0,
			"0.02": 0.0,
			"0.021": 0.0,
			"0.022": 0.0,
			"0.023": 0.0,
			"0.024": 0.0,
			"0.025": 0.0
		}
	}
}
