{
	 "smiles": "NC1=C(C(=O)C2=CC=C(C=C2)C(F)(F)F)C2=C(CCC2)S1", 
	 "Tm": 474.15, 
	 "num_atms": 33, 
	 "gaussian": { 
		 "optdone": 1, 
		 "sigma_profile": "yes", 
		 "theory": "DFT", 
		 "functional": "B3LYP", 
		 "basiset": "6-31G**", 
		 "properties": { 
			 "R2extent": 8734.7817, 
			 "electric_dipole_moment_norm": 3.75879017371, 
			 "electric_quadrupole_moment_norm": 8.19966582551, 
			 "total_energy": -1406.51833478, 
			 "HOMO_LUMO_gap": 0.13735, 
			 "cosmo_polarized_energy": -10.53, 
			 "cosmo_cavitation_energy": 39.01, 
			 "cosmo_dispersion_energy": -28.12, 
			 "cosmo_repulsion_energy": 2.05, 
			 "cosmo_total_nonelectrostatic_energy": 12.94, 
			 "SMD_solvation_energy": 6.85 
		},
		"coords": [
			{
				"x": 3.4226024901,
				"y": 1.0264460426,
				"z": -2.3846737536,
				"element": "N" 
			},
			{
				"x": 2.9211104386,
				"y": 0.1589851727,
				"z": -1.4824181985,
				"element": "C" 
			},
			{
				"x": 1.5722587359,
				"y": 0.0708068165,
				"z": -1.0774527334,
				"element": "C" 
			},
			{
				"x": 0.5889808465,
				"y": 0.9484586066,
				"z": -1.6895680106,
				"element": "C" 
			},
			{
				"x": 0.8534006669,
				"y": 1.6478404755,
				"z": -2.6870719815,
				"element": "O" 
			},
			{
				"x": -0.8002454745,
				"y": 1.0682086649,
				"z": -1.1245530577,
				"element": "C" 
			},
			{
				"x": -1.0275067762,
				"y": 1.2726988138,
				"z": 0.2421675223,
				"element": "C" 
			},
			{
				"x": -2.3198473569,
				"y": 1.4846965838,
				"z": 0.7201938687,
				"element": "C" 
			},
			{
				"x": -3.3978468915,
				"y": 1.4787367092,
				"z": -0.167185654,
				"element": "C" 
			},
			{
				"x": -3.1802127256,
				"y": 1.2859073068,
				"z": -1.5359363194,
				"element": "C" 
			},
			{
				"x": -1.8865063245,
				"y": 1.0998534426,
				"z": -2.0110085986,
				"element": "C" 
			},
			{
				"x": -4.7901376232,
				"y": 1.7477588648,
				"z": 0.3367530083,
				"element": "C" 
			},
			{
				"x": -5.7221152223,
				"y": 1.0895805485,
				"z": -0.3882717512,
				"element": "F" 
			},
			{
				"x": -5.0997992767,
				"y": 3.0635445601,
				"z": 0.2693669044,
				"element": "F" 
			},
			{
				"x": -4.9410438866,
				"y": 1.3749092476,
				"z": 1.6272872206,
				"element": "F" 
			},
			{
				"x": 1.4065854131,
				"y": -1.009582372,
				"z": -0.1223775254,
				"element": "C" 
			},
			{
				"x": 2.5568353315,
				"y": -1.657310355,
				"z": 0.1869919319,
				"element": "C" 
			},
			{
				"x": 2.4090436703,
				"y": -2.7848529863,
				"z": 1.1652756398,
				"element": "C" 
			},
			{
				"x": 0.8639813047,
				"y": -2.9847391611,
				"z": 1.1336965355,
				"element": "C" 
			},
			{
				"x": 0.2491074507,
				"y": -1.6511713341,
				"z": 0.6138175768,
				"element": "C" 
			},
			{
				"x": 3.9509680083,
				"y": -0.9993148938,
				"z": -0.653222544,
				"element": "S" 
			},
			{
				"x": 2.7135363,
				"y": 1.5339005878,
				"z": -2.913014348,
				"element": "H" 
			},
			{
				"x": 4.369984082,
				"y": 0.9466418605,
				"z": -2.7152438298,
				"element": "H" 
			},
			{
				"x": -0.1882518269,
				"y": 1.2913149681,
				"z": 0.9295696736,
				"element": "H" 
			},
			{
				"x": -2.492554858,
				"y": 1.6497452918,
				"z": 1.7781617107,
				"element": "H" 
			},
			{
				"x": -4.0216671338,
				"y": 1.2838759582,
				"z": -2.2205925532,
				"element": "H" 
			},
			{
				"x": -1.7008240837,
				"y": 0.9788468499,
				"z": -3.0729613705,
				"element": "H" 
			},
			{
				"x": 2.7657899042,
				"y": -2.5052442626,
				"z": 2.1670628682,
				"element": "H" 
			},
			{
				"x": 2.9473738552,
				"y": -3.6955857592,
				"z": 0.8792167347,
				"element": "H" 
			},
			{
				"x": 0.6269687288,
				"y": -3.7871850367,
				"z": 0.428004853,
				"element": "H" 
			},
			{
				"x": 0.461754094,
				"y": -3.2767018673,
				"z": 2.1079063186,
				"element": "H" 
			},
			{
				"x": -0.0935200368,
				"y": -1.0227278957,
				"z": 1.445228907,
				"element": "H" 
			},
			{
				"x": -0.6256018235,
				"y": -1.8217414487,
				"z": -0.0221490447,
				"element": "H" 
			}
		],
		 "valence_orbital": [ 
			{
				"type": "occ",
				"energy": -0.27082,
				"method": "rhf"
			},
			{
				"type": "occ",
				"energy": -0.26709,
				"method": "rhf"
			},
			{
				"type": "occ",
				"energy": -0.25415,
				"method": "rhf"
			},
			{
				"type": "occ",
				"energy": -0.24817,
				"method": "rhf"
			},
			{
				"type": "occ",
				"energy": -0.19485,
				"method": "rhf"
			},
			{
				"type": "unocc",
				"energy": -0.0575,
				"method": "rhf"
			},
			{
				"type": "unocc",
				"energy": -0.01738,
				"method": "rhf"
			},
			{
				"type": "unocc",
				"energy": -0.01394,
				"method": "rhf"
			},
			{
				"type": "unocc",
				"energy": 0.00656,
				"method": "rhf"
			},
			{
				"type": "unocc",
				"energy": 0.01625,
				"method": "rhf"
			}
		],
		"cosmo_sigma_profile": { 
			"-0.025": 0.0,
			"-0.024": 0.0,
			"-0.023": 0.0,
			"-0.022": 0.0,
			"-0.021": 0.0,
			"-0.02": 0.0,
			"-0.019": 0.0,
			"-0.018": 0.0,
			"-0.017": 0.0,
			"-0.016": 0.189731820279,
			"-0.015": 1.05638422693,
			"-0.014": 1.54827038628,
			"-0.013": 1.46321802029,
			"-0.012": 0.793128338662,
			"-0.011": 0.901983884668,
			"-0.01": 1.78944568423,
			"-0.009": 2.54221901808,
			"-0.008": 1.57374393926,
			"-0.007": 5.24243799677,
			"-0.006": 9.30131505822,
			"-0.005": 9.96380337801,
			"-0.004": 15.0353771088,
			"-0.003": 23.0695487022,
			"-0.002": 29.4145376568,
			"-0.001": 29.3057391088,
			"0.0": 27.3855890368,
			"0.001": 27.975490653,
			"0.002": 39.7259075416,
			"0.003": 48.1618336548,
			"0.004": 14.5955278357,
			"0.005": 7.27899855144,
			"0.006": 2.54358736905,
			"0.007": 1.87197419456,
			"0.008": 1.59864103066,
			"0.009": 1.78614213247,
			"0.01": 1.90299157387,
			"0.011": 1.29893452386,
			"0.012": 1.77626332163,
			"0.013": 1.61045036369,
			"0.014": 0.648337658442,
			"0.015": 0.0,
			"0.016": 0.0,
			"0.017": 0.0,
			"0.018": 0.0,
			"0.019": 0.0,
			"0.02": 0.0,
			"0.021": 0.0,
			"0.022": 0.0,
			"0.023": 0.0,
			"0.024": 0.0,
			"0.025": 0.0
		}
	}
}
