{
	 "smiles": "BrCC(=O)C1=CC2=CC=CC=C2O1", 
	 "Tm": 362.65, 
	 "num_atms": 20, 
	 "gaussian": { 
		 "optdone": 1, 
		 "sigma_profile": "yes", 
		 "theory": "DFT", 
		 "functional": "B3LYP", 
		 "basiset": "6-31G**", 
		 "properties": { 
			 "R2extent": 5279.6078, 
			 "electric_dipole_moment_norm": 3.71439756354, 
			 "electric_quadrupole_moment_norm": 12.5586319984, 
			 "total_energy": -3107.1184272, 
			 "HOMO_LUMO_gap": 0.15561, 
			 "cosmo_polarized_energy": -11.05, 
			 "cosmo_cavitation_energy": 27.37, 
			 "cosmo_dispersion_energy": -20.36, 
			 "cosmo_repulsion_energy": 1.61, 
			 "cosmo_total_nonelectrostatic_energy": 8.62, 
			 "SMD_solvation_energy": 4.43 
		},
		"coords": [
			{
				"x": -4.0689323893,
				"y": 2.4032895085,
				"z": -0.9190789044,
				"element": "Br" 
			},
			{
				"x": -3.724899235,
				"y": 1.9139455868,
				"z": 0.9681473239,
				"element": "C" 
			},
			{
				"x": -2.2352313981,
				"y": 1.9346382788,
				"z": 1.2965487862,
				"element": "C" 
			},
			{
				"x": -1.7844248536,
				"y": 2.8000225736,
				"z": 2.0282374814,
				"element": "O" 
			},
			{
				"x": -1.4024324362,
				"y": 0.8580157745,
				"z": 0.7474377892,
				"element": "C" 
			},
			{
				"x": -1.6844684937,
				"y": -0.2012053874,
				"z": -0.0745208291,
				"element": "C" 
			},
			{
				"x": -0.4587689507,
				"y": -0.9242551836,
				"z": -0.241162101,
				"element": "C" 
			},
			{
				"x": -0.0568856151,
				"y": -2.0768978077,
				"z": -0.9407047512,
				"element": "C" 
			},
			{
				"x": 1.2711381248,
				"y": -2.4704231071,
				"z": -0.8474920947,
				"element": "C" 
			},
			{
				"x": 2.2006740269,
				"y": -1.7405095587,
				"z": -0.0750521339,
				"element": "C" 
			},
			{
				"x": 1.8294218878,
				"y": -0.5967774796,
				"z": 0.6257097905,
				"element": "C" 
			},
			{
				"x": 0.4944511999,
				"y": -0.2159891403,
				"z": 0.5210148913,
				"element": "C" 
			},
			{
				"x": -0.0767674361,
				"y": 0.863949573,
				"z": 1.1201396185,
				"element": "O" 
			},
			{
				"x": -4.2220598059,
				"y": 2.6661289123,
				"z": 1.5755064337,
				"element": "H" 
			},
			{
				"x": -4.1756995428,
				"y": 0.9316882792,
				"z": 1.1097072391,
				"element": "H" 
			},
			{
				"x": -2.6419090191,
				"y": -0.4180210566,
				"z": -0.5257176976,
				"element": "H" 
			},
			{
				"x": -0.7667715197,
				"y": -2.6417786925,
				"z": -1.5370095308,
				"element": "H" 
			},
			{
				"x": 1.6067125989,
				"y": -3.3563030848,
				"z": -1.377819472,
				"element": "H" 
			},
			{
				"x": 3.2309395557,
				"y": -2.0798466637,
				"z": -0.0272864486,
				"element": "H" 
			},
			{
				"x": 2.5330133011,
				"y": -0.0264713247,
				"z": 1.2215946096,
				"element": "H" 
			}
		],
		 "valence_orbital": [ 
			{
				"type": "occ",
				"energy": -0.29662,
				"method": "rhf"
			},
			{
				"type": "occ",
				"energy": -0.28634,
				"method": "rhf"
			},
			{
				"type": "occ",
				"energy": -0.26335,
				"method": "rhf"
			},
			{
				"type": "occ",
				"energy": -0.25206,
				"method": "rhf"
			},
			{
				"type": "occ",
				"energy": -0.23883,
				"method": "rhf"
			},
			{
				"type": "unocc",
				"energy": -0.08322,
				"method": "rhf"
			},
			{
				"type": "unocc",
				"energy": -0.02296,
				"method": "rhf"
			},
			{
				"type": "unocc",
				"energy": -0.00151,
				"method": "rhf"
			},
			{
				"type": "unocc",
				"energy": 0.01487,
				"method": "rhf"
			},
			{
				"type": "unocc",
				"energy": 0.07651,
				"method": "rhf"
			}
		],
		"cosmo_sigma_profile": { 
			"-0.025": 0.0,
			"-0.024": 0.0,
			"-0.023": 0.0,
			"-0.022": 0.0,
			"-0.021": 0.0,
			"-0.02": 0.0,
			"-0.019": 0.0,
			"-0.018": 0.0,
			"-0.017": 0.0,
			"-0.016": 0.0,
			"-0.015": 0.0,
			"-0.014": 0.0,
			"-0.013": 0.0,
			"-0.012": 0.0,
			"-0.011": 0.0,
			"-0.01": 0.203243273795,
			"-0.009": 4.24008307298,
			"-0.008": 6.59381271186,
			"-0.007": 10.2505592482,
			"-0.006": 14.9923466926,
			"-0.005": 14.7058624607,
			"-0.004": 13.0419815434,
			"-0.003": 10.3493915417,
			"-0.002": 11.0272693513,
			"-0.001": 14.7436147556,
			"0.0": 16.6560645719,
			"0.001": 18.0635104589,
			"0.002": 18.5517864589,
			"0.003": 18.4297064159,
			"0.004": 17.8293619735,
			"0.005": 11.4666394003,
			"0.006": 2.7047999751,
			"0.007": 2.24888903621,
			"0.008": 2.52585679984,
			"0.009": 2.96341374708,
			"0.01": 3.64058156682,
			"0.011": 5.32878978169,
			"0.012": 2.63758465967,
			"0.013": 0.201534763031,
			"0.014": 0.0,
			"0.015": 0.0,
			"0.016": 0.0,
			"0.017": 0.0,
			"0.018": 0.0,
			"0.019": 0.0,
			"0.02": 0.0,
			"0.021": 0.0,
			"0.022": 0.0,
			"0.023": 0.0,
			"0.024": 0.0,
			"0.025": 0.0
		}
	}
}
