{
	 "smiles": "COC1=CC=C(OC)C(=C1)C(O)=O", 
	 "Tm": 350.15, 
	 "num_atms": 23, 
	 "gaussian": { 
		 "optdone": 1, 
		 "sigma_profile": "yes", 
		 "theory": "DFT", 
		 "functional": "B3LYP", 
		 "basiset": "6-31G**", 
		 "properties": { 
			 "R2extent": 2772.9846, 
			 "electric_dipole_moment_norm": 2.14312951778, 
			 "electric_quadrupole_moment_norm": 10.2542096209, 
			 "total_energy": -649.865855944, 
			 "HOMO_LUMO_gap": 0.16444, 
			 "cosmo_polarized_energy": -12.91, 
			 "cosmo_cavitation_energy": 27.22, 
			 "cosmo_dispersion_energy": -20.07, 
			 "cosmo_repulsion_energy": 1.6, 
			 "cosmo_total_nonelectrostatic_energy": 8.75, 
			 "SMD_solvation_energy": 7.54 
		},
		"coords": [
			{
				"x": 1.1641003327,
				"y": -2.2759020571,
				"z": -2.4637854614,
				"element": "C" 
			},
			{
				"x": 1.5842656888,
				"y": -0.9793280025,
				"z": -2.0686915406,
				"element": "O" 
			},
			{
				"x": 0.888942595,
				"y": -0.3622341374,
				"z": -1.066505429,
				"element": "C" 
			},
			{
				"x": 1.3329183672,
				"y": 0.9157886739,
				"z": -0.7036154278,
				"element": "C" 
			},
			{
				"x": 0.6939441464,
				"y": 1.6264910872,
				"z": 0.3033540563,
				"element": "C" 
			},
			{
				"x": -0.4114743455,
				"y": 1.0874187986,
				"z": 0.9848654362,
				"element": "C" 
			},
			{
				"x": -1.0621383031,
				"y": 1.752801228,
				"z": 1.9750618385,
				"element": "O" 
			},
			{
				"x": -0.6109154063,
				"y": 3.0460972577,
				"z": 2.3423312272,
				"element": "C" 
			},
			{
				"x": -0.8646910667,
				"y": -0.2022327205,
				"z": 0.6233708788,
				"element": "C" 
			},
			{
				"x": -0.2037500659,
				"y": -0.9064900308,
				"z": -0.3997283797,
				"element": "C" 
			},
			{
				"x": -2.0141045251,
				"y": -0.9313954215,
				"z": 1.2306870404,
				"element": "C" 
			},
			{
				"x": -2.6682537948,
				"y": -0.2786019385,
				"z": 2.2154770961,
				"element": "O" 
			},
			{
				"x": -2.3603664573,
				"y": -2.0467494425,
				"z": 0.8773420295,
				"element": "O" 
			},
			{
				"x": 0.1346263612,
				"y": -2.2700006028,
				"z": -2.8446732615,
				"element": "H" 
			},
			{
				"x": 1.2327059059,
				"y": -2.9940245476,
				"z": -1.6364280386,
				"element": "H" 
			},
			{
				"x": 1.8412943321,
				"y": -2.582036752,
				"z": -3.262692983,
				"element": "H" 
			},
			{
				"x": 2.1855575803,
				"y": 1.339908412,
				"z": -1.2243402783,
				"element": "H" 
			},
			{
				"x": 1.0632364698,
				"y": 2.611784321,
				"z": 0.5584550148,
				"element": "H" 
			},
			{
				"x": -0.6785109415,
				"y": 3.7542525627,
				"z": 1.506367979,
				"element": "H" 
			},
			{
				"x": -1.2749475819,
				"y": 3.3736504963,
				"z": 3.1434589784,
				"element": "H" 
			},
			{
				"x": 0.4213186745,
				"y": 3.0272761021,
				"z": 2.7151789483,
				"element": "H" 
			},
			{
				"x": -0.5916654392,
				"y": -1.8886918994,
				"z": -0.6361712312,
				"element": "H" 
			},
			{
				"x": -3.3722925265,
				"y": -0.8912813869,
				"z": 2.4879815077,
				"element": "H" 
			}
		],
		 "valence_orbital": [ 
			{
				"type": "occ",
				"energy": -0.30965,
				"method": "rhf"
			},
			{
				"type": "occ",
				"energy": -0.29019,
				"method": "rhf"
			},
			{
				"type": "occ",
				"energy": -0.26814,
				"method": "rhf"
			},
			{
				"type": "occ",
				"energy": -0.25795,
				"method": "rhf"
			},
			{
				"type": "occ",
				"energy": -0.20602,
				"method": "rhf"
			},
			{
				"type": "unocc",
				"energy": -0.04158,
				"method": "rhf"
			},
			{
				"type": "unocc",
				"energy": 0.01612,
				"method": "rhf"
			},
			{
				"type": "unocc",
				"energy": 0.0664,
				"method": "rhf"
			},
			{
				"type": "unocc",
				"energy": 0.08793,
				"method": "rhf"
			},
			{
				"type": "unocc",
				"energy": 0.09309,
				"method": "rhf"
			}
		],
		"cosmo_sigma_profile": { 
			"-0.025": 0.0,
			"-0.024": 0.0,
			"-0.023": 0.0,
			"-0.022": 0.0,
			"-0.021": 0.0,
			"-0.02": 0.0,
			"-0.019": 0.0,
			"-0.018": 0.211532247281,
			"-0.017": 1.31655969759,
			"-0.016": 0.503362607952,
			"-0.015": 0.681088536574,
			"-0.014": 0.635339445443,
			"-0.013": 0.848401533875,
			"-0.012": 0.876436178987,
			"-0.011": 0.666592103217,
			"-0.01": 0.572343081868,
			"-0.009": 0.793835298817,
			"-0.008": 0.700347170713,
			"-0.007": 4.18064997432,
			"-0.006": 13.9504366661,
			"-0.005": 22.5055516003,
			"-0.004": 19.765507487,
			"-0.003": 19.8176074222,
			"-0.002": 12.5980370056,
			"-0.001": 10.2113537055,
			"0.0": 9.1518287191,
			"0.001": 12.355104162,
			"0.002": 13.9443506164,
			"0.003": 19.6398078839,
			"0.004": 10.0147877787,
			"0.005": 4.85083121474,
			"0.006": 5.42035683225,
			"0.007": 3.6679081578,
			"0.008": 4.11430765993,
			"0.009": 3.99131845411,
			"0.01": 4.79032817647,
			"0.011": 4.32328792761,
			"0.012": 6.25363501176,
			"0.013": 2.50695858628,
			"0.014": 0.444475858808,
			"0.015": 0.0,
			"0.016": 0.0,
			"0.017": 0.0,
			"0.018": 0.0,
			"0.019": 0.0,
			"0.02": 0.0,
			"0.021": 0.0,
			"0.022": 0.0,
			"0.023": 0.0,
			"0.024": 0.0,
			"0.025": 0.0
		}
	}
}
