{
	 "smiles": "Cl[SiH](Cl)Cl", 
	 "Tm": 146.15, 
	 "num_atms": 5, 
	 "gaussian": { 
		 "optdone": 1, 
		 "sigma_profile": "yes", 
		 "theory": "DFT", 
		 "functional": "B3LYP", 
		 "basiset": "6-31G**", 
		 "properties": { 
			 "R2extent": 2872.9014, 
			 "electric_dipole_moment_norm": 1.1542494791, 
			 "electric_quadrupole_moment_norm": 2.75034316041, 
			 "total_energy": -1670.81807692, 
			 "HOMO_LUMO_gap": 0.31056, 
			 "cosmo_polarized_energy": -2.01, 
			 "cosmo_cavitation_energy": 15.8, 
			 "cosmo_dispersion_energy": -10.19, 
			 "cosmo_repulsion_energy": 1.04, 
			 "cosmo_total_nonelectrostatic_energy": 6.65, 
			 "SMD_solvation_energy": 1.63 
		},
		"coords": [
			{
				"x": -2.0185543689,
				"y": -2.7455906562,
				"z": -0.1890811577,
				"element": "Cl" 
			},
			{
				"x": -0.2594165403,
				"y": -2.3820499026,
				"z": 0.8069939894,
				"element": "Si" 
			},
			{
				"x": 0.7096488749,
				"y": -4.1556181552,
				"z": 1.1733538764,
				"element": "Cl" 
			},
			{
				"x": -0.652131403,
				"y": -1.4265158682,
				"z": 2.5822735781,
				"element": "Cl" 
			},
			{
				"x": 0.5981534373,
				"y": -1.5253254179,
				"z": -0.0236402861,
				"element": "H" 
			}
		],
		 "valence_orbital": [ 
			{
				"type": "occ",
				"energy": -0.36817,
				"method": "rhf"
			},
			{
				"type": "occ",
				"energy": -0.34901,
				"method": "rhf"
			},
			{
				"type": "occ",
				"energy": -0.34901,
				"method": "rhf"
			},
			{
				"type": "occ",
				"energy": -0.3465,
				"method": "rhf"
			},
			{
				"type": "occ",
				"energy": -0.33523,
				"method": "rhf"
			},
			{
				"type": "unocc",
				"energy": -0.02467,
				"method": "rhf"
			},
			{
				"type": "unocc",
				"energy": 0.00055,
				"method": "rhf"
			},
			{
				"type": "unocc",
				"energy": 0.00055,
				"method": "rhf"
			},
			{
				"type": "unocc",
				"energy": 0.07811,
				"method": "rhf"
			},
			{
				"type": "unocc",
				"energy": 0.14651,
				"method": "rhf"
			}
		],
		"cosmo_sigma_profile": { 
			"-0.025": 0.0,
			"-0.024": 0.0,
			"-0.023": 0.0,
			"-0.022": 0.0,
			"-0.021": 0.0,
			"-0.02": 0.0,
			"-0.019": 0.0,
			"-0.018": 0.0,
			"-0.017": 0.0,
			"-0.016": 0.0,
			"-0.015": 0.0,
			"-0.014": 0.0,
			"-0.013": 0.0,
			"-0.012": 0.0,
			"-0.011": 0.0,
			"-0.01": 0.0,
			"-0.009": 0.0,
			"-0.008": 0.0,
			"-0.007": 0.0,
			"-0.006": 5.97625628396,
			"-0.005": 9.78483239561,
			"-0.004": 5.73099975848,
			"-0.003": 5.82730753926,
			"-0.002": 6.31157399844,
			"-0.001": 13.8444325319,
			"0.0": 16.2047287896,
			"0.001": 15.7719641855,
			"0.002": 26.0749181712,
			"0.003": 27.1342848978,
			"0.004": 0.0776221102537,
			"0.005": 0.0,
			"0.006": 0.0,
			"0.007": 0.0,
			"0.008": 0.0,
			"0.009": 0.0,
			"0.01": 0.0,
			"0.011": 0.0,
			"0.012": 0.0,
			"0.013": 0.0,
			"0.014": 0.0,
			"0.015": 0.0,
			"0.016": 0.0,
			"0.017": 0.0,
			"0.018": 0.0,
			"0.019": 0.0,
			"0.02": 0.0,
			"0.021": 0.0,
			"0.022": 0.0,
			"0.023": 0.0,
			"0.024": 0.0,
			"0.025": 0.0
		}
	}
}
