{
	 "smiles": "CC1=NC2=C(C=CC=C2)C(=O)N1C1=CC=C(F)C=C1", 
	 "Tm": 408.15, 
	 "num_atms": 30, 
	 "gaussian": { 
		 "optdone": 1, 
		 "sigma_profile": "yes", 
		 "theory": "DFT", 
		 "functional": "B3LYP", 
		 "basiset": "6-31G**", 
		 "properties": { 
			 "R2extent": 6144.61, 
			 "electric_dipole_moment_norm": 1.90832046837, 
			 "electric_quadrupole_moment_norm": 13.6914929029, 
			 "total_energy": -862.817813885, 
			 "HOMO_LUMO_gap": 0.18654, 
			 "cosmo_polarized_energy": -12.91, 
			 "cosmo_cavitation_energy": 34.96, 
			 "cosmo_dispersion_energy": -24.65, 
			 "cosmo_repulsion_energy": 1.84, 
			 "cosmo_total_nonelectrostatic_energy": 12.16, 
			 "SMD_solvation_energy": 5.71 
		},
		"coords": [
			{
				"x": -0.8444865483,
				"y": -0.94692892,
				"z": -1.880235325,
				"element": "C" 
			},
			{
				"x": 0.2087583759,
				"y": -0.5139904709,
				"z": -0.8963912841,
				"element": "C" 
			},
			{
				"x": 1.1363614038,
				"y": -1.3568259927,
				"z": -0.5696919562,
				"element": "N" 
			},
			{
				"x": 2.1066024331,
				"y": -0.9568015579,
				"z": 0.3365944251,
				"element": "C" 
			},
			{
				"x": 2.1174570508,
				"y": 0.332179814,
				"z": 0.9116739607,
				"element": "C" 
			},
			{
				"x": 3.1187618058,
				"y": 0.6981427817,
				"z": 1.8261323469,
				"element": "C" 
			},
			{
				"x": 4.10628062,
				"y": -0.2123141122,
				"z": 2.169018359,
				"element": "C" 
			},
			{
				"x": 4.1014065857,
				"y": -1.4991180479,
				"z": 1.5995064423,
				"element": "C" 
			},
			{
				"x": 3.1176203898,
				"y": -1.8702116467,
				"z": 0.6958140095,
				"element": "C" 
			},
			{
				"x": 1.0727453647,
				"y": 1.2919121755,
				"z": 0.5480363295,
				"element": "C" 
			},
			{
				"x": 0.9746180507,
				"y": 2.432562145,
				"z": 0.9756592755,
				"element": "O" 
			},
			{
				"x": 0.128066308,
				"y": 0.7831443418,
				"z": -0.3856383297,
				"element": "N" 
			},
			{
				"x": -0.9289926484,
				"y": 1.6820311893,
				"z": -0.7836964755,
				"element": "C" 
			},
			{
				"x": -2.1221633002,
				"y": 1.7163393025,
				"z": -0.0588503013,
				"element": "C" 
			},
			{
				"x": -3.1462740052,
				"y": 2.5823669081,
				"z": -0.4383158945,
				"element": "C" 
			},
			{
				"x": -2.9482027336,
				"y": 3.4080752592,
				"z": -1.5398879134,
				"element": "C" 
			},
			{
				"x": -3.935425565,
				"y": 4.2454325522,
				"z": -1.9125207997,
				"element": "F" 
			},
			{
				"x": -1.7635155472,
				"y": 3.3980860937,
				"z": -2.2685614887,
				"element": "C" 
			},
			{
				"x": -0.7465255756,
				"y": 2.5277808088,
				"z": -1.8798831936,
				"element": "C" 
			},
			{
				"x": -0.6270815402,
				"y": -1.9739087518,
				"z": -2.1712648577,
				"element": "H" 
			},
			{
				"x": -1.8470846468,
				"y": -0.8960103954,
				"z": -1.4442069389,
				"element": "H" 
			},
			{
				"x": -0.8499810406,
				"y": -0.3091370402,
				"z": -2.7696826688,
				"element": "H" 
			},
			{
				"x": 3.0911490664,
				"y": 1.6984778082,
				"z": 2.2452656853,
				"element": "H" 
			},
			{
				"x": 4.882795554,
				"y": 0.0649668204,
				"z": 2.8753778365,
				"element": "H" 
			},
			{
				"x": 4.8772171343,
				"y": -2.2095938245,
				"z": 1.8709960088,
				"element": "H" 
			},
			{
				"x": 3.0978408997,
				"y": -2.8576630635,
				"z": 0.2466237735,
				"element": "H" 
			},
			{
				"x": -2.2436357633,
				"y": 1.0695982367,
				"z": 0.8040662747,
				"element": "H" 
			},
			{
				"x": -4.0827144088,
				"y": 2.6292088419,
				"z": 0.1062191034,
				"element": "H" 
			},
			{
				"x": -1.6486429517,
				"y": 4.0651404666,
				"z": -3.1156012531,
				"element": "H" 
			},
			{
				"x": 0.1933452321,
				"y": 2.5070582781,
				"z": -2.4219551506,
				"element": "H" 
			}
		],
		 "valence_orbital": [ 
			{
				"type": "occ",
				"energy": -0.27487,
				"method": "rhf"
			},
			{
				"type": "occ",
				"energy": -0.26112,
				"method": "rhf"
			},
			{
				"type": "occ",
				"energy": -0.25797,
				"method": "rhf"
			},
			{
				"type": "occ",
				"energy": -0.2531,
				"method": "rhf"
			},
			{
				"type": "occ",
				"energy": -0.22658,
				"method": "rhf"
			},
			{
				"type": "unocc",
				"energy": -0.04004,
				"method": "rhf"
			},
			{
				"type": "unocc",
				"energy": -0.03247,
				"method": "rhf"
			},
			{
				"type": "unocc",
				"energy": -0.02561,
				"method": "rhf"
			},
			{
				"type": "unocc",
				"energy": -0.01686,
				"method": "rhf"
			},
			{
				"type": "unocc",
				"energy": 0.03227,
				"method": "rhf"
			}
		],
		"cosmo_sigma_profile": { 
			"-0.025": 0.0,
			"-0.024": 0.0,
			"-0.023": 0.0,
			"-0.022": 0.0,
			"-0.021": 0.0,
			"-0.02": 0.0,
			"-0.019": 0.0,
			"-0.018": 0.0,
			"-0.017": 0.0,
			"-0.016": 0.0,
			"-0.015": 0.0,
			"-0.014": 0.0,
			"-0.013": 0.0,
			"-0.012": 0.0,
			"-0.011": 0.0,
			"-0.01": 0.0,
			"-0.009": 0.0,
			"-0.008": 3.53614983949,
			"-0.007": 10.6981858438,
			"-0.006": 19.4007242664,
			"-0.005": 23.7933986877,
			"-0.004": 21.9112211197,
			"-0.003": 18.9746593034,
			"-0.002": 19.0515766493,
			"-0.001": 19.1178563714,
			"0.0": 20.6154750405,
			"0.001": 21.3130158152,
			"0.002": 23.9795979854,
			"0.003": 22.7215316632,
			"0.004": 21.5710678205,
			"0.005": 4.80375743836,
			"0.006": 4.12484192061,
			"0.007": 3.64389643182,
			"0.008": 1.93690381816,
			"0.009": 2.61347392053,
			"0.01": 3.90070449817,
			"0.011": 2.63616110849,
			"0.012": 4.67736106715,
			"0.013": 5.18716633219,
			"0.014": 0.736519749376,
			"0.015": 0.212233625049,
			"0.016": 0.0,
			"0.017": 0.0,
			"0.018": 0.0,
			"0.019": 0.0,
			"0.02": 0.0,
			"0.021": 0.0,
			"0.022": 0.0,
			"0.023": 0.0,
			"0.024": 0.0,
			"0.025": 0.0
		}
	}
}
