{
	 "smiles": "NC(=NO)C1=C(OCC2=CC=CC=C2)C=CC=C1", 
	 "Tm": 394.15, 
	 "num_atms": 32, 
	 "gaussian": { 
		 "optdone": 1, 
		 "sigma_profile": "yes", 
		 "theory": "DFT", 
		 "functional": "B3LYP", 
		 "basiset": "6-31G**", 
		 "properties": { 
			 "R2extent": 5702.3016, 
			 "electric_dipole_moment_norm": 1.53573570968, 
			 "electric_quadrupole_moment_norm": 10.7987219378, 
			 "total_energy": -801.818819484, 
			 "HOMO_LUMO_gap": 0.17282, 
			 "cosmo_polarized_energy": -12.57, 
			 "cosmo_cavitation_energy": 36.0, 
			 "cosmo_dispersion_energy": -25.65, 
			 "cosmo_repulsion_energy": 1.98, 
			 "cosmo_total_nonelectrostatic_energy": 12.33, 
			 "SMD_solvation_energy": 6.21 
		},
		"coords": [
			{
				"x": -0.9289890518,
				"y": 2.2233447635,
				"z": -0.0268997811,
				"element": "N" 
			},
			{
				"x": 0.2896497443,
				"y": 2.3684370381,
				"z": 0.5894310002,
				"element": "C" 
			},
			{
				"x": 0.9149879726,
				"y": 3.504380631,
				"z": 0.6605881378,
				"element": "N" 
			},
			{
				"x": 0.1138114355,
				"y": 4.521319419,
				"z": 0.0682912265,
				"element": "O" 
			},
			{
				"x": 0.9764356185,
				"y": 1.1910469684,
				"z": 1.1929369238,
				"element": "C" 
			},
			{
				"x": 0.5109179157,
				"y": -0.1358361844,
				"z": 1.0895791725,
				"element": "C" 
			},
			{
				"x": -0.6614459352,
				"y": -0.4443734566,
				"z": 0.4119168255,
				"element": "O" 
			},
			{
				"x": -0.4556357361,
				"y": -0.8794820987,
				"z": -0.9563799275,
				"element": "C" 
			},
			{
				"x": -1.7975261169,
				"y": -1.1564804046,
				"z": -1.5795248468,
				"element": "C" 
			},
			{
				"x": -2.4305972296,
				"y": -0.1833857129,
				"z": -2.3626016693,
				"element": "C" 
			},
			{
				"x": -3.6838968098,
				"y": -0.4316338861,
				"z": -2.9250118632,
				"element": "C" 
			},
			{
				"x": -4.3179418307,
				"y": -1.655679223,
				"z": -2.7052208664,
				"element": "C" 
			},
			{
				"x": -3.6957932502,
				"y": -2.6305029411,
				"z": -1.9212286186,
				"element": "C" 
			},
			{
				"x": -2.4428211839,
				"y": -2.3805932595,
				"z": -1.3625921722,
				"element": "C" 
			},
			{
				"x": 1.1982835155,
				"y": -1.1877716378,
				"z": 1.7037382496,
				"element": "C" 
			},
			{
				"x": 2.3614508764,
				"y": -0.9480121866,
				"z": 2.4273333159,
				"element": "C" 
			},
			{
				"x": 2.8407244757,
				"y": 0.3605723495,
				"z": 2.5385213221,
				"element": "C" 
			},
			{
				"x": 2.1530456607,
				"y": 1.4067765814,
				"z": 1.9368445972,
				"element": "C" 
			},
			{
				"x": -1.4630311178,
				"y": 1.3996133608,
				"z": 0.205753868,
				"element": "H" 
			},
			{
				"x": -1.4224071768,
				"y": 3.0901150873,
				"z": -0.1828158146,
				"element": "H" 
			},
			{
				"x": 0.6507899111,
				"y": 5.307676301,
				"z": 0.221083823,
				"element": "H" 
			},
			{
				"x": 0.1696221501,
				"y": -1.7814154373,
				"z": -0.9474474642,
				"element": "H" 
			},
			{
				"x": 0.0767501048,
				"y": -0.0944936929,
				"z": -1.5055646325,
				"element": "H" 
			},
			{
				"x": -1.9370144266,
				"y": 0.771198235,
				"z": -2.5253766197,
				"element": "H" 
			},
			{
				"x": -4.1634009284,
				"y": 0.3285234983,
				"z": -3.5351438775,
				"element": "H" 
			},
			{
				"x": -5.2920915748,
				"y": -1.8511005952,
				"z": -3.1444447277,
				"element": "H" 
			},
			{
				"x": -4.185469744,
				"y": -3.5846833886,
				"z": -1.7488235712,
				"element": "H" 
			},
			{
				"x": -1.9586003246,
				"y": -3.1394804589,
				"z": -0.7531644228,
				"element": "H" 
			},
			{
				"x": 0.7881672138,
				"y": -2.1887957376,
				"z": 1.6115096853,
				"element": "H" 
			},
			{
				"x": 2.8842063117,
				"y": -1.7710524652,
				"z": 2.9056913387,
				"element": "H" 
			},
			{
				"x": 3.7447379138,
				"y": 0.5664315835,
				"z": 3.1037622131,
				"element": "H" 
			},
			{
				"x": 2.5108816169,
				"y": 2.4254369504,
				"z": 2.0273591762,
				"element": "H" 
			}
		],
		 "valence_orbital": [ 
			{
				"type": "occ",
				"energy": -0.25598,
				"method": "rhf"
			},
			{
				"type": "occ",
				"energy": -0.25389,
				"method": "rhf"
			},
			{
				"type": "occ",
				"energy": -0.25259,
				"method": "rhf"
			},
			{
				"type": "occ",
				"energy": -0.24117,
				"method": "rhf"
			},
			{
				"type": "occ",
				"energy": -0.19807,
				"method": "rhf"
			},
			{
				"type": "unocc",
				"energy": -0.02525,
				"method": "rhf"
			},
			{
				"type": "unocc",
				"energy": -0.01539,
				"method": "rhf"
			},
			{
				"type": "unocc",
				"energy": -0.0057,
				"method": "rhf"
			},
			{
				"type": "unocc",
				"energy": 0.00334,
				"method": "rhf"
			},
			{
				"type": "unocc",
				"energy": 0.0728,
				"method": "rhf"
			}
		],
		"cosmo_sigma_profile": { 
			"-0.025": 0.0,
			"-0.024": 0.0,
			"-0.023": 0.0,
			"-0.022": 0.0,
			"-0.021": 0.0,
			"-0.02": 0.0,
			"-0.019": 0.0,
			"-0.018": 0.0,
			"-0.017": 0.326702503123,
			"-0.016": 0.791112348843,
			"-0.015": 1.14718771515,
			"-0.014": 0.972355010752,
			"-0.013": 0.423929306412,
			"-0.012": 0.599845958042,
			"-0.011": 1.07258302855,
			"-0.01": 1.59395262409,
			"-0.009": 1.55483282609,
			"-0.008": 2.68046689867,
			"-0.007": 1.89396583228,
			"-0.006": 12.9139819721,
			"-0.005": 25.1613974065,
			"-0.004": 27.9356158592,
			"-0.003": 23.7750099136,
			"-0.002": 19.485293932,
			"-0.001": 16.266742164,
			"0.0": 14.4534738699,
			"0.001": 17.3681362267,
			"0.002": 18.8772849918,
			"0.003": 21.4472849293,
			"0.004": 22.2404626853,
			"0.005": 19.2293662448,
			"0.006": 10.29008065,
			"0.007": 5.37380719407,
			"0.008": 6.31417328349,
			"0.009": 4.90447310018,
			"0.01": 3.73747462075,
			"0.011": 2.8488793659,
			"0.012": 0.837806439141,
			"0.013": 0.255309113153,
			"0.014": 0.0,
			"0.015": 0.0,
			"0.016": 0.0,
			"0.017": 0.0,
			"0.018": 0.0,
			"0.019": 0.0,
			"0.02": 0.0,
			"0.021": 0.0,
			"0.022": 0.0,
			"0.023": 0.0,
			"0.024": 0.0,
			"0.025": 0.0
		}
	}
}
