{
	 "smiles": "CC(=O)OC1=C(C=CC(C)=C1)C(O)=O", 
	 "Tm": 413.15, 
	 "num_atms": 24, 
	 "gaussian": { 
		 "optdone": 1, 
		 "sigma_profile": "yes", 
		 "theory": "DFT", 
		 "functional": "B3LYP", 
		 "basiset": "6-31G**", 
		 "properties": { 
			 "R2extent": 3533.0484, 
			 "electric_dipole_moment_norm": 4.99769248154, 
			 "electric_quadrupole_moment_norm": 23.8433547577, 
			 "total_energy": -688.015106124, 
			 "HOMO_LUMO_gap": 0.20827, 
			 "cosmo_polarized_energy": -15.59, 
			 "cosmo_cavitation_energy": 28.84, 
			 "cosmo_dispersion_energy": -20.53, 
			 "cosmo_repulsion_energy": 1.62, 
			 "cosmo_total_nonelectrostatic_energy": 9.93, 
			 "SMD_solvation_energy": 7.37 
		},
		"coords": [
			{
				"x": -2.1498071354,
				"y": -1.8114819687,
				"z": 1.7283128922,
				"element": "C" 
			},
			{
				"x": -1.1000274142,
				"y": -0.8282867334,
				"z": 1.2827987939,
				"element": "C" 
			},
			{
				"x": -0.9062350058,
				"y": 0.2718148902,
				"z": 1.7214918214,
				"element": "O" 
			},
			{
				"x": -0.3490915587,
				"y": -1.3892203532,
				"z": 0.2528833639,
				"element": "O" 
			},
			{
				"x": 0.7457816814,
				"y": -0.6990525687,
				"z": -0.2969433928,
				"element": "C" 
			},
			{
				"x": 1.972452654,
				"y": -1.3764301981,
				"z": -0.3932671229,
				"element": "C" 
			},
			{
				"x": 3.0382121613,
				"y": -0.6858897342,
				"z": -0.9895575451,
				"element": "C" 
			},
			{
				"x": 2.8867502443,
				"y": 0.6074375126,
				"z": -1.4711477595,
				"element": "C" 
			},
			{
				"x": 1.6524503323,
				"y": 1.26700954,
				"z": -1.3803184685,
				"element": "C" 
			},
			{
				"x": 1.4697689014,
				"y": 2.6592562218,
				"z": -1.9334676221,
				"element": "C" 
			},
			{
				"x": 0.580724935,
				"y": 0.593737232,
				"z": -0.7844769833,
				"element": "C" 
			},
			{
				"x": 2.2646903192,
				"y": -2.7771792537,
				"z": 0.0833528174,
				"element": "C" 
			},
			{
				"x": 1.2242190247,
				"y": -3.5339798519,
				"z": 0.4911586944,
				"element": "O" 
			},
			{
				"x": 3.3887609341,
				"y": -3.2269169184,
				"z": 0.0906400262,
				"element": "O" 
			},
			{
				"x": -2.796192309,
				"y": -1.3360689208,
				"z": 2.4649042485,
				"element": "H" 
			},
			{
				"x": -1.6710341976,
				"y": -2.6893223668,
				"z": 2.174732089,
				"element": "H" 
			},
			{
				"x": -2.7376590658,
				"y": -2.1548626841,
				"z": 0.8726664433,
				"element": "H" 
			},
			{
				"x": 3.9884804373,
				"y": -1.2041884455,
				"z": -1.0545912156,
				"element": "H" 
			},
			{
				"x": 3.7337524297,
				"y": 1.1147276735,
				"z": -1.9245190891,
				"element": "H" 
			},
			{
				"x": 2.3997923604,
				"y": 3.2323174435,
				"z": -1.8809837616,
				"element": "H" 
			},
			{
				"x": 0.6973842644,
				"y": 3.2092554771,
				"z": -1.3887574203,
				"element": "H" 
			},
			{
				"x": 1.1671964375,
				"y": 2.6244032712,
				"z": -2.9875045343,
				"element": "H" 
			},
			{
				"x": -0.3825170078,
				"y": 1.0796345384,
				"z": -0.6868226802,
				"element": "H" 
			},
			{
				"x": 0.4004465774,
				"y": -3.023913803,
				"z": 0.4028164053,
				"element": "H" 
			}
		],
		 "valence_orbital": [ 
			{
				"type": "occ",
				"energy": -0.306,
				"method": "rhf"
			},
			{
				"type": "occ",
				"energy": -0.30381,
				"method": "rhf"
			},
			{
				"type": "occ",
				"energy": -0.26906,
				"method": "rhf"
			},
			{
				"type": "occ",
				"energy": -0.26248,
				"method": "rhf"
			},
			{
				"type": "occ",
				"energy": -0.25803,
				"method": "rhf"
			},
			{
				"type": "unocc",
				"energy": -0.04976,
				"method": "rhf"
			},
			{
				"type": "unocc",
				"energy": -0.02812,
				"method": "rhf"
			},
			{
				"type": "unocc",
				"energy": -0.00808,
				"method": "rhf"
			},
			{
				"type": "unocc",
				"energy": 0.05354,
				"method": "rhf"
			},
			{
				"type": "unocc",
				"energy": 0.07455,
				"method": "rhf"
			}
		],
		"cosmo_sigma_profile": { 
			"-0.025": 0.0,
			"-0.024": 0.0,
			"-0.023": 0.0,
			"-0.022": 0.0,
			"-0.021": 0.0,
			"-0.02": 0.0,
			"-0.019": 0.0,
			"-0.018": 0.0,
			"-0.017": 0.0,
			"-0.016": 0.0,
			"-0.015": 0.0,
			"-0.014": 0.0,
			"-0.013": 0.0,
			"-0.012": 0.0708765808993,
			"-0.011": 0.641344328725,
			"-0.01": 1.60773877713,
			"-0.009": 3.42785127986,
			"-0.008": 3.85199508614,
			"-0.007": 8.6567612125,
			"-0.006": 15.2794330777,
			"-0.005": 19.2105495628,
			"-0.004": 19.9531848373,
			"-0.003": 19.0274577905,
			"-0.002": 18.7432543717,
			"-0.001": 17.5784823953,
			"0.0": 13.2185395345,
			"0.001": 10.9672996848,
			"0.002": 14.6825755985,
			"0.003": 12.0076523307,
			"0.004": 4.68339506394,
			"0.005": 4.08016712218,
			"0.006": 3.83170416662,
			"0.007": 4.32287955186,
			"0.008": 4.6475522347,
			"0.009": 5.56317704313,
			"0.01": 8.1468979449,
			"0.011": 8.04511678104,
			"0.012": 5.33892897398,
			"0.013": 2.16746915618,
			"0.014": 0.294993991498,
			"0.015": 0.0,
			"0.016": 0.0,
			"0.017": 0.0,
			"0.018": 0.0,
			"0.019": 0.0,
			"0.02": 0.0,
			"0.021": 0.0,
			"0.022": 0.0,
			"0.023": 0.0,
			"0.024": 0.0,
			"0.025": 0.0
		}
	}
}
