{
	 "smiles": "CCC1=C(Cl)C=CC(O)=C1", 
	 "Tm": 320.65, 
	 "num_atms": 19, 
	 "gaussian": { 
		 "optdone": 1, 
		 "sigma_profile": "yes", 
		 "theory": "DFT", 
		 "functional": "B3LYP", 
		 "basiset": "6-31G**", 
		 "properties": { 
			 "R2extent": 2696.0006, 
			 "electric_dipole_moment_norm": 2.4438195719, 
			 "electric_quadrupole_moment_norm": 2.30905996241, 
			 "total_energy": -845.698099896, 
			 "HOMO_LUMO_gap": 0.20875, 
			 "cosmo_polarized_energy": -8.28, 
			 "cosmo_cavitation_energy": 24.0, 
			 "cosmo_dispersion_energy": -17.71, 
			 "cosmo_repulsion_energy": 1.44, 
			 "cosmo_total_nonelectrostatic_energy": 7.73, 
			 "SMD_solvation_energy": 4.21 
		},
		"coords": [
			{
				"x": -0.1205234671,
				"y": -1.4057381277,
				"z": -1.5869864606,
				"element": "C" 
			},
			{
				"x": -0.0084873536,
				"y": -1.3521753076,
				"z": -0.0523037011,
				"element": "C" 
			},
			{
				"x": 0.9956235667,
				"y": -0.328847958,
				"z": 0.4317546476,
				"element": "C" 
			},
			{
				"x": 2.372154352,
				"y": -0.5827931919,
				"z": 0.508754754,
				"element": "C" 
			},
			{
				"x": 3.0178205819,
				"y": -2.1681993262,
				"z": 0.0702216804,
				"element": "Cl" 
			},
			{
				"x": 3.2740999897,
				"y": 0.39341139,
				"z": 0.9358300047,
				"element": "C" 
			},
			{
				"x": 2.8205524609,
				"y": 1.657466578,
				"z": 1.2948869906,
				"element": "C" 
			},
			{
				"x": 1.4525513421,
				"y": 1.939601328,
				"z": 1.2261675261,
				"element": "C" 
			},
			{
				"x": 1.0480053089,
				"y": 3.1920485766,
				"z": 1.5900113345,
				"element": "O" 
			},
			{
				"x": 0.5608912081,
				"y": 0.9522863329,
				"z": 0.800788028,
				"element": "C" 
			},
			{
				"x": -0.4218459624,
				"y": -0.4344585479,
				"z": -1.992442754,
				"element": "H" 
			},
			{
				"x": -0.8651916996,
				"y": -2.1479407858,
				"z": -1.892440464,
				"element": "H" 
			},
			{
				"x": 0.8359833439,
				"y": -1.6787377514,
				"z": -2.0411803107,
				"element": "H" 
			},
			{
				"x": 0.265052363,
				"y": -2.3424565208,
				"z": 0.3248544321,
				"element": "H" 
			},
			{
				"x": -0.988549719,
				"y": -1.1103726312,
				"z": 0.3741140576,
				"element": "H" 
			},
			{
				"x": 4.3314867145,
				"y": 0.1578720881,
				"z": 0.9867548364,
				"element": "H" 
			},
			{
				"x": 3.5071617308,
				"y": 2.4271421651,
				"z": 1.6299869575,
				"element": "H" 
			},
			{
				"x": 0.0884002364,
				"y": 3.2554004292,
				"z": 1.4996331253,
				"element": "H" 
			},
			{
				"x": -0.5040849972,
				"y": 1.1747912606,
				"z": 0.7540953157,
				"element": "H" 
			}
		],
		 "valence_orbital": [ 
			{
				"type": "occ",
				"energy": -0.33997,
				"method": "rhf"
			},
			{
				"type": "occ",
				"energy": -0.3071,
				"method": "rhf"
			},
			{
				"type": "occ",
				"energy": -0.30568,
				"method": "rhf"
			},
			{
				"type": "occ",
				"energy": -0.25501,
				"method": "rhf"
			},
			{
				"type": "occ",
				"energy": -0.2199,
				"method": "rhf"
			},
			{
				"type": "unocc",
				"energy": -0.01115,
				"method": "rhf"
			},
			{
				"type": "unocc",
				"energy": 0.00396,
				"method": "rhf"
			},
			{
				"type": "unocc",
				"energy": 0.03414,
				"method": "rhf"
			},
			{
				"type": "unocc",
				"energy": 0.06723,
				"method": "rhf"
			},
			{
				"type": "unocc",
				"energy": 0.09983,
				"method": "rhf"
			}
		],
		"cosmo_sigma_profile": { 
			"-0.025": 0.0,
			"-0.024": 0.0,
			"-0.023": 0.0,
			"-0.022": 0.0,
			"-0.021": 0.0,
			"-0.02": 0.0,
			"-0.019": 0.0,
			"-0.018": 0.525500421412,
			"-0.017": 1.07241200646,
			"-0.016": 1.09295146589,
			"-0.015": 1.16845224841,
			"-0.014": 0.95649045936,
			"-0.013": 1.23065182205,
			"-0.012": 0.64482631276,
			"-0.011": 0.697202582045,
			"-0.01": 1.36231852019,
			"-0.009": 1.25276721245,
			"-0.008": 0.955427901382,
			"-0.007": 3.00239008769,
			"-0.006": 6.59190818379,
			"-0.005": 5.83863075746,
			"-0.004": 7.44526354091,
			"-0.003": 10.4803758421,
			"-0.002": 15.4460937508,
			"-0.001": 18.1885951553,
			"0.0": 18.7814967461,
			"0.001": 18.288790286,
			"0.002": 15.2100574111,
			"0.003": 18.8694400823,
			"0.004": 20.688181445,
			"0.005": 10.9631325245,
			"0.006": 2.77871035241,
			"0.007": 1.83370977699,
			"0.008": 1.47937755792,
			"0.009": 1.00135052793,
			"0.01": 1.85322543577,
			"0.011": 1.9099615364,
			"0.012": 0.385383053212,
			"0.013": 0.0,
			"0.014": 0.0,
			"0.015": 0.0,
			"0.016": 0.0,
			"0.017": 0.0,
			"0.018": 0.0,
			"0.019": 0.0,
			"0.02": 0.0,
			"0.021": 0.0,
			"0.022": 0.0,
			"0.023": 0.0,
			"0.024": 0.0,
			"0.025": 0.0
		}
	}
}
