{
	 "smiles": "OC1=CC(=CC=C1)C1=CNN=C1", 
	 "Tm": 492.15, 
	 "num_atms": 20, 
	 "gaussian": { 
		 "optdone": 1, 
		 "sigma_profile": "yes", 
		 "theory": "DFT", 
		 "functional": "B3LYP", 
		 "basiset": "6-31G**", 
		 "properties": { 
			 "R2extent": 2482.5945, 
			 "electric_dipole_moment_norm": 2.92906551822, 
			 "electric_quadrupole_moment_norm": 14.2411892186, 
			 "total_energy": -532.481093905, 
			 "HOMO_LUMO_gap": 0.19635, 
			 "cosmo_polarized_energy": -15.8, 
			 "cosmo_cavitation_energy": 24.52, 
			 "cosmo_dispersion_energy": -18.31, 
			 "cosmo_repulsion_energy": 1.45, 
			 "cosmo_total_nonelectrostatic_energy": 7.65, 
			 "SMD_solvation_energy": 3.83 
		},
		"coords": [
			{
				"x": -2.4975605381,
				"y": -2.7326409316,
				"z": -0.9680306163,
				"element": "O" 
			},
			{
				"x": -1.9894226348,
				"y": -1.4686937922,
				"z": -0.8484315269,
				"element": "C" 
			},
			{
				"x": -1.0817710704,
				"y": -1.1193130096,
				"z": 0.1534294388,
				"element": "C" 
			},
			{
				"x": -0.5820885963,
				"y": 0.1908114008,
				"z": 0.2455700275,
				"element": "C" 
			},
			{
				"x": -1.0220704673,
				"y": 1.1449313589,
				"z": -0.6858705875,
				"element": "C" 
			},
			{
				"x": -1.9360846872,
				"y": 0.7887533137,
				"z": -1.6781010889,
				"element": "C" 
			},
			{
				"x": -2.4245540039,
				"y": -0.5117026242,
				"z": -1.7721861283,
				"element": "C" 
			},
			{
				"x": 0.3801738298,
				"y": 0.5554275692,
				"z": 1.2947957047,
				"element": "C" 
			},
			{
				"x": 1.2947608438,
				"y": -0.2626802398,
				"z": 1.945631236,
				"element": "C" 
			},
			{
				"x": 1.9603718716,
				"y": 0.5243909197,
				"z": 2.8282393279,
				"element": "N" 
			},
			{
				"x": 1.5504155181,
				"y": 1.8107487378,
				"z": 2.8116717287,
				"element": "N" 
			},
			{
				"x": 0.5978617798,
				"y": 1.8321828664,
				"z": 1.8843035422,
				"element": "C" 
			},
			{
				"x": -2.1290928198,
				"y": -3.2882928567,
				"z": -0.269190067,
				"element": "H" 
			},
			{
				"x": -0.7783041141,
				"y": -1.8648891788,
				"z": 0.8858916538,
				"element": "H" 
			},
			{
				"x": -0.6319850531,
				"y": 2.1566645744,
				"z": -0.645484864,
				"element": "H" 
			},
			{
				"x": -2.2673719166,
				"y": 1.5351029826,
				"z": -2.3946017705,
				"element": "H" 
			},
			{
				"x": -3.1345866785,
				"y": -0.8022884623,
				"z": -2.5389463639,
				"element": "H" 
			},
			{
				"x": 1.530006304,
				"y": -1.3100756011,
				"z": 1.8259804951,
				"element": "H" 
			},
			{
				"x": 2.7019995006,
				"y": 0.2562428305,
				"z": 3.4559108146,
				"element": "H" 
			},
			{
				"x": 0.0757029323,
				"y": 2.7566201422,
				"z": 1.677319044,
				"element": "H" 
			}
		],
		 "valence_orbital": [ 
			{
				"type": "occ",
				"energy": -0.28982,
				"method": "rhf"
			},
			{
				"type": "occ",
				"energy": -0.27723,
				"method": "rhf"
			},
			{
				"type": "occ",
				"energy": -0.25732,
				"method": "rhf"
			},
			{
				"type": "occ",
				"energy": -0.22996,
				"method": "rhf"
			},
			{
				"type": "occ",
				"energy": -0.21119,
				"method": "rhf"
			},
			{
				"type": "unocc",
				"energy": -0.01484,
				"method": "rhf"
			},
			{
				"type": "unocc",
				"energy": 0.01214,
				"method": "rhf"
			},
			{
				"type": "unocc",
				"energy": 0.02104,
				"method": "rhf"
			},
			{
				"type": "unocc",
				"energy": 0.06993,
				"method": "rhf"
			},
			{
				"type": "unocc",
				"energy": 0.0769,
				"method": "rhf"
			}
		],
		"cosmo_sigma_profile": { 
			"-0.025": 0.0,
			"-0.024": 0.0,
			"-0.023": 0.0,
			"-0.022": 0.0,
			"-0.021": 0.0,
			"-0.02": 0.0,
			"-0.019": 0.0,
			"-0.018": 0.159717082144,
			"-0.017": 1.4816554891,
			"-0.016": 3.23811391477,
			"-0.015": 1.83117566173,
			"-0.014": 2.06931166171,
			"-0.013": 2.54555442098,
			"-0.012": 1.35247472311,
			"-0.011": 2.43997333995,
			"-0.01": 2.12522130677,
			"-0.009": 3.60863386215,
			"-0.008": 4.32071429207,
			"-0.007": 5.30033205875,
			"-0.006": 8.30294625389,
			"-0.005": 10.9242810388,
			"-0.004": 10.7355816005,
			"-0.003": 9.21767806739,
			"-0.002": 7.88886046555,
			"-0.001": 8.44017671717,
			"0.0": 6.67865857262,
			"0.001": 9.01401398094,
			"0.002": 10.3809637512,
			"0.003": 12.578223251,
			"0.004": 21.1975859844,
			"0.005": 17.0962350673,
			"0.006": 11.0258357489,
			"0.007": 3.68283230607,
			"0.008": 3.49220128219,
			"0.009": 2.88375388956,
			"0.01": 2.51792695371,
			"0.011": 3.24067481079,
			"0.012": 2.31640294193,
			"0.013": 0.908959257659,
			"0.014": 1.27829374967,
			"0.015": 1.03189361973,
			"0.016": 0.872733695491,
			"0.017": 0.068172051426,
			"0.018": 0.0,
			"0.019": 0.0,
			"0.02": 0.0,
			"0.021": 0.0,
			"0.022": 0.0,
			"0.023": 0.0,
			"0.024": 0.0,
			"0.025": 0.0
		}
	}
}
