{
	 "smiles": "NC(=O)CCOC1=C(N)C=CC=C1", 
	 "Tm": 372.15, 
	 "num_atms": 25, 
	 "gaussian": { 
		 "optdone": 1, 
		 "sigma_profile": "yes", 
		 "theory": "DFT", 
		 "functional": "B3LYP", 
		 "basiset": "6-31G**", 
		 "properties": { 
			 "R2extent": 3485.4825, 
			 "electric_dipole_moment_norm": 4.15890141624, 
			 "electric_quadrupole_moment_norm": 20.396297071, 
			 "total_energy": -610.155718126, 
			 "HOMO_LUMO_gap": 0.19451, 
			 "cosmo_polarized_energy": -16.93, 
			 "cosmo_cavitation_energy": 28.26, 
			 "cosmo_dispersion_energy": -20.71, 
			 "cosmo_repulsion_energy": 1.66, 
			 "cosmo_total_nonelectrostatic_energy": 9.22, 
			 "SMD_solvation_energy": 5.17 
		},
		"coords": [
			{
				"x": 4.3972189521,
				"y": 1.5486134721,
				"z": -2.6079507501,
				"element": "N" 
			},
			{
				"x": 3.0767815719,
				"y": 1.2217609939,
				"z": -2.6606732444,
				"element": "C" 
			},
			{
				"x": 2.6994646029,
				"y": 0.0988919744,
				"z": -2.9831342874,
				"element": "O" 
			},
			{
				"x": 2.1069772054,
				"y": 2.3646493483,
				"z": -2.3586968893,
				"element": "C" 
			},
			{
				"x": 0.7708675319,
				"y": 1.8473012066,
				"z": -1.8535811611,
				"element": "C" 
			},
			{
				"x": 1.0032839359,
				"y": 1.2414231377,
				"z": -0.5796044946,
				"element": "O" 
			},
			{
				"x": -0.0763290479,
				"y": 0.5186845915,
				"z": -0.0834037986,
				"element": "C" 
			},
			{
				"x": -0.1605157166,
				"y": -0.8607326895,
				"z": -0.3811456872,
				"element": "C" 
			},
			{
				"x": 0.83036709,
				"y": -1.4858611411,
				"z": -1.1153149877,
				"element": "N" 
			},
			{
				"x": -1.2545625293,
				"y": -1.5706557262,
				"z": 0.1486174124,
				"element": "C" 
			},
			{
				"x": -2.2108144187,
				"y": -0.9373029138,
				"z": 0.9397119391,
				"element": "C" 
			},
			{
				"x": -2.1059465491,
				"y": 0.4234825058,
				"z": 1.2347454502,
				"element": "C" 
			},
			{
				"x": -1.0293913394,
				"y": 1.1448569135,
				"z": 0.7130241709,
				"element": "C" 
			},
			{
				"x": 4.7162483952,
				"y": 2.4282660019,
				"z": -2.2357875013,
				"element": "H" 
			},
			{
				"x": 5.0719858825,
				"y": 0.8150282293,
				"z": -2.7663448202,
				"element": "H" 
			},
			{
				"x": 2.5385051912,
				"y": 3.0568448038,
				"z": -1.6270765212,
				"element": "H" 
			},
			{
				"x": 1.9511786093,
				"y": 2.9277896639,
				"z": -3.2879548912,
				"element": "H" 
			},
			{
				"x": 0.0494179812,
				"y": 2.6709218039,
				"z": -1.7599759887,
				"element": "H" 
			},
			{
				"x": 0.3676288585,
				"y": 1.1122556383,
				"z": -2.5604723379,
				"element": "H" 
			},
			{
				"x": 0.5703004518,
				"y": -2.3501780371,
				"z": -1.56565742,
				"element": "H" 
			},
			{
				"x": 1.4509319188,
				"y": -0.9023996378,
				"z": -1.6665104824,
				"element": "H" 
			},
			{
				"x": -1.3403869008,
				"y": -2.6339821715,
				"z": -0.0632284139,
				"element": "H" 
			},
			{
				"x": -3.0414395998,
				"y": -1.5170251313,
				"z": 1.3331459273,
				"element": "H" 
			},
			{
				"x": -2.8457880424,
				"y": 0.9157340934,
				"z": 1.8578903821,
				"element": "H" 
			},
			{
				"x": -0.9074840346,
				"y": 2.20403307,
				"z": 0.9222783951,
				"element": "H" 
			}
		],
		 "valence_orbital": [ 
			{
				"type": "occ",
				"energy": -0.28163,
				"method": "rhf"
			},
			{
				"type": "occ",
				"energy": -0.26437,
				"method": "rhf"
			},
			{
				"type": "occ",
				"energy": -0.26096,
				"method": "rhf"
			},
			{
				"type": "occ",
				"energy": -0.22621,
				"method": "rhf"
			},
			{
				"type": "occ",
				"energy": -0.18034,
				"method": "rhf"
			},
			{
				"type": "unocc",
				"energy": 0.01417,
				"method": "rhf"
			},
			{
				"type": "unocc",
				"energy": 0.02012,
				"method": "rhf"
			},
			{
				"type": "unocc",
				"energy": 0.03442,
				"method": "rhf"
			},
			{
				"type": "unocc",
				"energy": 0.06602,
				"method": "rhf"
			},
			{
				"type": "unocc",
				"energy": 0.10041,
				"method": "rhf"
			}
		],
		"cosmo_sigma_profile": { 
			"-0.025": 0.0,
			"-0.024": 0.0,
			"-0.023": 0.0,
			"-0.022": 0.0,
			"-0.021": 0.0,
			"-0.02": 0.0,
			"-0.019": 0.0,
			"-0.018": 0.0,
			"-0.017": 0.0,
			"-0.016": 0.0,
			"-0.015": 0.377627337684,
			"-0.014": 2.19183285445,
			"-0.013": 2.24888845966,
			"-0.012": 3.26637450561,
			"-0.011": 4.48715912265,
			"-0.01": 3.86041370924,
			"-0.009": 3.09998886728,
			"-0.008": 3.70169916996,
			"-0.007": 5.26972354475,
			"-0.006": 8.24456843686,
			"-0.005": 13.1505422988,
			"-0.004": 17.9619925887,
			"-0.003": 18.4022366815,
			"-0.002": 14.4952424532,
			"-0.001": 11.4442554102,
			"0.0": 9.75237013129,
			"0.001": 8.82179483784,
			"0.002": 11.2406789177,
			"0.003": 10.1639280558,
			"0.004": 11.2590106305,
			"0.005": 12.7595798633,
			"0.006": 13.0222340809,
			"0.007": 10.8734717823,
			"0.008": 4.39430718982,
			"0.009": 4.028763348,
			"0.01": 3.14855579177,
			"0.011": 3.2734412659,
			"0.012": 2.94836183448,
			"0.013": 3.29333073548,
			"0.014": 1.64261519235,
			"0.015": 0.0451289640016,
			"0.016": 0.0,
			"0.017": 0.0,
			"0.018": 0.0,
			"0.019": 0.0,
			"0.02": 0.0,
			"0.021": 0.0,
			"0.022": 0.0,
			"0.023": 0.0,
			"0.024": 0.0,
			"0.025": 0.0
		}
	}
}
