{
	 "smiles": "CC(C)(C)N1C=C(C=C1NC(=O)OCC(F)(F)F)C#N", 
	 "Tm": 421.15, 
	 "num_atms": 34, 
	 "gaussian": { 
		 "optdone": 1, 
		 "sigma_profile": "yes", 
		 "theory": "DFT", 
		 "functional": "B3LYP", 
		 "basiset": "6-31G**", 
		 "properties": { 
			 "R2extent": 6524.2594, 
			 "electric_dipole_moment_norm": 7.2679506183, 
			 "electric_quadrupole_moment_norm": 26.9435567368, 
			 "total_energy": -1079.9423135, 
			 "HOMO_LUMO_gap": 0.2251, 
			 "cosmo_polarized_energy": -19.11, 
			 "cosmo_cavitation_energy": 40.13, 
			 "cosmo_dispersion_energy": -25.34, 
			 "cosmo_repulsion_energy": 1.9, 
			 "cosmo_total_nonelectrostatic_energy": 16.7, 
			 "SMD_solvation_energy": 11.3 
		},
		"coords": [
			{
				"x": -0.248114292,
				"y": -2.3931154386,
				"z": 0.3965143907,
				"element": "C" 
			},
			{
				"x": 1.0878455947,
				"y": -1.8299799202,
				"z": 0.9161932596,
				"element": "C" 
			},
			{
				"x": 2.2550559742,
				"y": -2.2058558628,
				"z": -0.0171050249,
				"element": "C" 
			},
			{
				"x": 1.3676850337,
				"y": -2.4225369763,
				"z": 2.3075021597,
				"element": "C" 
			},
			{
				"x": 0.9866046578,
				"y": -0.3371495231,
				"z": 1.0172296451,
				"element": "N" 
			},
			{
				"x": 1.0479754967,
				"y": 0.3790084638,
				"z": 2.1794373417,
				"element": "C" 
			},
			{
				"x": 0.8846016943,
				"y": 1.7287794098,
				"z": 1.8969554068,
				"element": "C" 
			},
			{
				"x": 0.7209385981,
				"y": 1.8431855999,
				"z": 0.4883096629,
				"element": "C" 
			},
			{
				"x": 0.7837879562,
				"y": 0.5705571072,
				"z": -0.0281128975,
				"element": "C" 
			},
			{
				"x": 0.6931878706,
				"y": 0.1827454403,
				"z": -1.3812729732,
				"element": "N" 
			},
			{
				"x": -0.4306599745,
				"y": 0.3086436901,
				"z": -2.1689248631,
				"element": "C" 
			},
			{
				"x": -0.4137625383,
				"y": 0.2776483157,
				"z": -3.380718272,
				"element": "O" 
			},
			{
				"x": -1.5541018396,
				"y": 0.4131904781,
				"z": -1.4017248627,
				"element": "O" 
			},
			{
				"x": -2.7489260425,
				"y": 0.7448975409,
				"z": -2.1003907898,
				"element": "C" 
			},
			{
				"x": -3.0528082557,
				"y": 2.2203666115,
				"z": -1.8947505659,
				"element": "C" 
			},
			{
				"x": -4.1468619724,
				"y": 2.5570938836,
				"z": -2.6082177437,
				"element": "F" 
			},
			{
				"x": -3.2921314471,
				"y": 2.5082392882,
				"z": -0.6034360606,
				"element": "F" 
			},
			{
				"x": -2.0253844156,
				"y": 2.9905862842,
				"z": -2.3035859144,
				"element": "F" 
			},
			{
				"x": 0.8940758145,
				"y": 2.7770169771,
				"z": 2.8549543916,
				"element": "C" 
			},
			{
				"x": 0.9043197002,
				"y": 3.6372467598,
				"z": 3.6396705078,
				"element": "N" 
			},
			{
				"x": -0.1931856663,
				"y": -3.4853147974,
				"z": 0.3527291354,
				"element": "H" 
			},
			{
				"x": -1.066967517,
				"y": -2.1159571846,
				"z": 1.0666861569,
				"element": "H" 
			},
			{
				"x": -0.482626461,
				"y": -2.0238667312,
				"z": -0.6017924746,
				"element": "H" 
			},
			{
				"x": 2.3906428468,
				"y": -3.2915666414,
				"z": -0.0120389278,
				"element": "H" 
			},
			{
				"x": 3.187087476,
				"y": -1.7448352,
				"z": 0.3237818376,
				"element": "H" 
			},
			{
				"x": 2.0665206195,
				"y": -1.9023224894,
				"z": -1.0476060666,
				"element": "H" 
			},
			{
				"x": 0.5582020355,
				"y": -2.2152570682,
				"z": 3.0129696741,
				"element": "H" 
			},
			{
				"x": 1.4479287273,
				"y": -3.508018419,
				"z": 2.2089245065,
				"element": "H" 
			},
			{
				"x": 2.3091616572,
				"y": -2.0564854934,
				"z": 2.7274156775,
				"element": "H" 
			},
			{
				"x": 1.2059126128,
				"y": -0.0863170667,
				"z": 3.1364149517,
				"element": "H" 
			},
			{
				"x": 0.5614848593,
				"y": 2.7476777344,
				"z": -0.0799857228,
				"element": "H" 
			},
			{
				"x": 1.5378782333,
				"y": 0.1803462377,
				"z": -1.9396654422,
				"element": "H" 
			},
			{
				"x": -2.641024545,
				"y": 0.5441415384,
				"z": -3.1675871769,
				"element": "H" 
			},
			{
				"x": -3.5612424918,
				"y": 0.1523074515,
				"z": -1.676072927,
				"element": "H" 
			}
		],
		 "valence_orbital": [ 
			{
				"type": "occ",
				"energy": -0.31836,
				"method": "rhf"
			},
			{
				"type": "occ",
				"energy": -0.30519,
				"method": "rhf"
			},
			{
				"type": "occ",
				"energy": -0.29132,
				"method": "rhf"
			},
			{
				"type": "occ",
				"energy": -0.25799,
				"method": "rhf"
			},
			{
				"type": "occ",
				"energy": -0.23414,
				"method": "rhf"
			},
			{
				"type": "unocc",
				"energy": -0.00904,
				"method": "rhf"
			},
			{
				"type": "unocc",
				"energy": 0.01262,
				"method": "rhf"
			},
			{
				"type": "unocc",
				"energy": 0.02274,
				"method": "rhf"
			},
			{
				"type": "unocc",
				"energy": 0.04362,
				"method": "rhf"
			},
			{
				"type": "unocc",
				"energy": 0.05392,
				"method": "rhf"
			}
		],
		"cosmo_sigma_profile": { 
			"-0.025": 0.0,
			"-0.024": 0.0,
			"-0.023": 0.0,
			"-0.022": 0.0,
			"-0.021": 0.0,
			"-0.02": 0.0,
			"-0.019": 0.0,
			"-0.018": 0.0,
			"-0.017": 0.0,
			"-0.016": 0.0642017751815,
			"-0.015": 0.698290844174,
			"-0.014": 1.17522522948,
			"-0.013": 0.709830772935,
			"-0.012": 0.980067875991,
			"-0.011": 1.09544677742,
			"-0.01": 2.47824752262,
			"-0.009": 4.94055251294,
			"-0.008": 6.48779399301,
			"-0.007": 8.43218096399,
			"-0.006": 9.40365694886,
			"-0.005": 17.4550610759,
			"-0.004": 26.466896138,
			"-0.003": 22.9051199522,
			"-0.002": 24.653461946,
			"-0.001": 26.4271430396,
			"0.0": 26.7071497588,
			"0.001": 21.4771623058,
			"0.002": 32.1975268147,
			"0.003": 27.7524364246,
			"0.004": 8.84984753939,
			"0.005": 5.67634622652,
			"0.006": 5.37122662905,
			"0.007": 5.35672430942,
			"0.008": 3.37338845717,
			"0.009": 5.06963522576,
			"0.01": 5.42961520831,
			"0.011": 6.53951236829,
			"0.012": 6.9186054758,
			"0.013": 2.57204845744,
			"0.014": 1.10944746062,
			"0.015": 0.0,
			"0.016": 0.0,
			"0.017": 0.0,
			"0.018": 0.0,
			"0.019": 0.0,
			"0.02": 0.0,
			"0.021": 0.0,
			"0.022": 0.0,
			"0.023": 0.0,
			"0.024": 0.0,
			"0.025": 0.0
		}
	}
}
