{
	 "smiles": "CC(=O)C1=CC=C(OCC2=CC=C(F)C=C2)C(=C1)[N+]([O-])=O", 
	 "Tm": 379.15, 
	 "num_atms": 33, 
	 "gaussian": { 
		 "optdone": 1, 
		 "sigma_profile": "yes", 
		 "theory": "DFT", 
		 "functional": "B3LYP", 
		 "basiset": "6-31G**", 
		 "properties": { 
			 "R2extent": 9647.7835, 
			 "electric_dipole_moment_norm": 2.97936288659, 
			 "electric_quadrupole_moment_norm": 18.995692731, 
			 "total_energy": -1034.1967248, 
			 "HOMO_LUMO_gap": 0.15771, 
			 "cosmo_polarized_energy": -16.39, 
			 "cosmo_cavitation_energy": 39.35, 
			 "cosmo_dispersion_energy": -27.75, 
			 "cosmo_repulsion_energy": 2.07, 
			 "cosmo_total_nonelectrostatic_energy": 13.67, 
			 "SMD_solvation_energy": 10.07 
		},
		"coords": [
			{
				"x": -3.2043987405,
				"y": 0.1326622131,
				"z": 5.534062267,
				"element": "C" 
			},
			{
				"x": -2.3426008819,
				"y": 1.2615999187,
				"z": 4.9992455651,
				"element": "C" 
			},
			{
				"x": -2.1229745275,
				"y": 2.2589435421,
				"z": 5.669956149,
				"element": "O" 
			},
			{
				"x": -1.757998259,
				"y": 1.1357655786,
				"z": 3.6260135404,
				"element": "C" 
			},
			{
				"x": -0.9576858898,
				"y": 2.1808802583,
				"z": 3.137993658,
				"element": "C" 
			},
			{
				"x": -0.3794166732,
				"y": 2.1219678843,
				"z": 1.8790018388,
				"element": "C" 
			},
			{
				"x": -0.5904402694,
				"y": 1.0118072379,
				"z": 1.0387092874,
				"element": "C" 
			},
			{
				"x": -0.0251528326,
				"y": 0.8721524249,
				"z": -0.1692790181,
				"element": "O" 
			},
			{
				"x": 0.7613762623,
				"y": 1.936642342,
				"z": -0.7176287671,
				"element": "C" 
			},
			{
				"x": 1.197066954,
				"y": 1.5435789173,
				"z": -2.1091172632,
				"element": "C" 
			},
			{
				"x": 0.4544574385,
				"y": 0.6380870816,
				"z": -2.8767207909,
				"element": "C" 
			},
			{
				"x": 0.849983862,
				"y": 0.3258660717,
				"z": -4.1773396288,
				"element": "C" 
			},
			{
				"x": 1.9854395517,
				"y": 0.9338889861,
				"z": -4.6999942008,
				"element": "C" 
			},
			{
				"x": 2.3696206887,
				"y": 0.6358310232,
				"z": -5.9581704335,
				"element": "F" 
			},
			{
				"x": 2.7429673857,
				"y": 1.8357132015,
				"z": -3.9610628285,
				"element": "C" 
			},
			{
				"x": 2.342369809,
				"y": 2.1313216978,
				"z": -2.6587642013,
				"element": "C" 
			},
			{
				"x": -1.412608485,
				"y": -0.0325092952,
				"z": 1.5294694864,
				"element": "C" 
			},
			{
				"x": -1.9680324113,
				"y": 0.0267712833,
				"z": 2.8045061453,
				"element": "C" 
			},
			{
				"x": -1.7359387853,
				"y": -1.2186586611,
				"z": 0.7245059968,
				"element": "N" 
			},
			{
				"x": -2.0351453763,
				"y": -2.2440714517,
				"z": 1.3401496203,
				"element": "O" 
			},
			{
				"x": -1.7259192271,
				"y": -1.1214183711,
				"z": -0.5003592294,
				"element": "O" 
			},
			{
				"x": -2.6440053711,
				"y": -0.8081868598,
				"z": 5.5691302583,
				"element": "H" 
			},
			{
				"x": -3.5365074994,
				"y": 0.3934987701,
				"z": 6.5390596138,
				"element": "H" 
			},
			{
				"x": -4.0786340531,
				"y": -0.0322659512,
				"z": 4.8944923207,
				"element": "H" 
			},
			{
				"x": -0.7954301169,
				"y": 3.0402226895,
				"z": 3.7802885335,
				"element": "H" 
			},
			{
				"x": 0.2481807869,
				"y": 2.9379275672,
				"z": 1.5441034519,
				"element": "H" 
			},
			{
				"x": 0.152903993,
				"y": 2.8522741915,
				"z": -0.739661324,
				"element": "H" 
			},
			{
				"x": 1.6339691289,
				"y": 2.1273821655,
				"z": -0.0790359264,
				"element": "H" 
			},
			{
				"x": -0.4205552836,
				"y": 0.1632676544,
				"z": -2.4468013269,
				"element": "H" 
			},
			{
				"x": 0.2928858772,
				"y": -0.3799308693,
				"z": -4.7837987154,
				"element": "H" 
			},
			{
				"x": 3.6287251149,
				"y": 2.2810587709,
				"z": -4.4005027201,
				"element": "H" 
			},
			{
				"x": 2.9337469551,
				"y": 2.8266633971,
				"z": -2.0678109332,
				"element": "H" 
			},
			{
				"x": -2.5668491249,
				"y": -0.8170334092,
				"z": 3.1229595748,
				"element": "H" 
			}
		],
		 "valence_orbital": [ 
			{
				"type": "occ",
				"energy": -0.28327,
				"method": "rhf"
			},
			{
				"type": "occ",
				"energy": -0.26699,
				"method": "rhf"
			},
			{
				"type": "occ",
				"energy": -0.26045,
				"method": "rhf"
			},
			{
				"type": "occ",
				"energy": -0.25802,
				"method": "rhf"
			},
			{
				"type": "occ",
				"energy": -0.24755,
				"method": "rhf"
			},
			{
				"type": "unocc",
				"energy": -0.08984,
				"method": "rhf"
			},
			{
				"type": "unocc",
				"energy": -0.06579,
				"method": "rhf"
			},
			{
				"type": "unocc",
				"energy": -0.01988,
				"method": "rhf"
			},
			{
				"type": "unocc",
				"energy": -0.01817,
				"method": "rhf"
			},
			{
				"type": "unocc",
				"energy": -0.0088,
				"method": "rhf"
			}
		],
		"cosmo_sigma_profile": { 
			"-0.025": 0.0,
			"-0.024": 0.0,
			"-0.023": 0.0,
			"-0.022": 0.0,
			"-0.021": 0.0,
			"-0.02": 0.0,
			"-0.019": 0.0,
			"-0.018": 0.0,
			"-0.017": 0.0,
			"-0.016": 0.0,
			"-0.015": 0.0,
			"-0.014": 0.0,
			"-0.013": 0.0,
			"-0.012": 0.0,
			"-0.011": 0.0,
			"-0.01": 0.0,
			"-0.009": 1.73401465158,
			"-0.008": 7.24298760085,
			"-0.007": 20.5554594088,
			"-0.006": 22.6595678904,
			"-0.005": 19.2686219388,
			"-0.004": 17.8485683638,
			"-0.003": 18.0719543261,
			"-0.002": 20.4182843332,
			"-0.001": 24.2934119047,
			"0.0": 23.5154685071,
			"0.001": 24.2870976136,
			"0.002": 19.3205830465,
			"0.003": 17.8676608898,
			"0.004": 23.721728012,
			"0.005": 11.2230679151,
			"0.006": 8.09509313761,
			"0.007": 8.29757040869,
			"0.008": 8.58701171305,
			"0.009": 5.82424527938,
			"0.01": 4.90327052887,
			"0.011": 3.6222140305,
			"0.012": 3.16750065344,
			"0.013": 1.07842349713,
			"0.014": 0.0372552360988,
			"0.015": 0.0,
			"0.016": 0.0,
			"0.017": 0.0,
			"0.018": 0.0,
			"0.019": 0.0,
			"0.02": 0.0,
			"0.021": 0.0,
			"0.022": 0.0,
			"0.023": 0.0,
			"0.024": 0.0,
			"0.025": 0.0
		}
	}
}
