{
	 "smiles": "COC1=C(N)N=CC=C1", 
	 "Tm": 350.15, 
	 "num_atms": 17, 
	 "gaussian": { 
		 "optdone": 1, 
		 "sigma_profile": "yes", 
		 "theory": "DFT", 
		 "functional": "B3LYP", 
		 "basiset": "6-31G**", 
		 "properties": { 
			 "R2extent": 1295.9401, 
			 "electric_dipole_moment_norm": 3.01779077804, 
			 "electric_quadrupole_moment_norm": 8.20987597288, 
			 "total_energy": -418.177400445, 
			 "HOMO_LUMO_gap": 0.19441, 
			 "cosmo_polarized_energy": -9.7, 
			 "cosmo_cavitation_energy": 20.54, 
			 "cosmo_dispersion_energy": -15.65, 
			 "cosmo_repulsion_energy": 1.29, 
			 "cosmo_total_nonelectrostatic_energy": 6.17, 
			 "SMD_solvation_energy": 2.97 
		},
		"coords": [
			{
				"x": -0.3270825925,
				"y": -2.4938412034,
				"z": -1.7672513528,
				"element": "C" 
			},
			{
				"x": 0.159465433,
				"y": -1.6202540783,
				"z": -0.7612259606,
				"element": "O" 
			},
			{
				"x": -0.0994067673,
				"y": -0.2809234621,
				"z": -0.9011868226,
				"element": "C" 
			},
			{
				"x": 0.4049010936,
				"y": 0.5410011386,
				"z": 0.1457857399,
				"element": "C" 
			},
			{
				"x": 1.1505330296,
				"y": -0.0297311414,
				"z": 1.155921614,
				"element": "N" 
			},
			{
				"x": 0.21457281,
				"y": 1.8588057131,
				"z": 0.1693321178,
				"element": "N" 
			},
			{
				"x": -0.4615844724,
				"y": 2.4250086562,
				"z": -0.8459752665,
				"element": "C" 
			},
			{
				"x": -0.9814168481,
				"y": 1.7106264673,
				"z": -1.9134051045,
				"element": "C" 
			},
			{
				"x": -0.7982493104,
				"y": 0.3168239227,
				"z": -1.9362677996,
				"element": "C" 
			},
			{
				"x": 0.104230619,
				"y": -2.2560691659,
				"z": -2.7481934924,
				"element": "H" 
			},
			{
				"x": -1.4220219134,
				"y": -2.4559170763,
				"z": -1.8392729385,
				"element": "H" 
			},
			{
				"x": -0.0199211982,
				"y": -3.4988147882,
				"z": -1.4737987988,
				"element": "H" 
			},
			{
				"x": 1.2466419183,
				"y": 0.5478343791,
				"z": 1.9783391499,
				"element": "H" 
			},
			{
				"x": 1.0110427117,
				"y": -1.0160766077,
				"z": 1.3142028159,
				"element": "H" 
			},
			{
				"x": -0.5885022856,
				"y": 3.5040277821,
				"z": -0.7852236926,
				"element": "H" 
			},
			{
				"x": -1.5225343526,
				"y": 2.2109465097,
				"z": -2.7093649679,
				"element": "H" 
			},
			{
				"x": -1.1996678748,
				"y": -0.2738470456,
				"z": -2.7521152407,
				"element": "H" 
			}
		],
		 "valence_orbital": [ 
			{
				"type": "occ",
				"energy": -0.33346,
				"method": "rhf"
			},
			{
				"type": "occ",
				"energy": -0.30889,
				"method": "rhf"
			},
			{
				"type": "occ",
				"energy": -0.25203,
				"method": "rhf"
			},
			{
				"type": "occ",
				"energy": -0.24746,
				"method": "rhf"
			},
			{
				"type": "occ",
				"energy": -0.19444,
				"method": "rhf"
			},
			{
				"type": "unocc",
				"energy": -3e-05,
				"method": "rhf"
			},
			{
				"type": "unocc",
				"energy": 0.02112,
				"method": "rhf"
			},
			{
				"type": "unocc",
				"energy": 0.09151,
				"method": "rhf"
			},
			{
				"type": "unocc",
				"energy": 0.09591,
				"method": "rhf"
			},
			{
				"type": "unocc",
				"energy": 0.12017,
				"method": "rhf"
			}
		],
		"cosmo_sigma_profile": { 
			"-0.025": 0.0,
			"-0.024": 0.0,
			"-0.023": 0.0,
			"-0.022": 0.0,
			"-0.021": 0.0,
			"-0.02": 0.0,
			"-0.019": 0.0,
			"-0.018": 0.0,
			"-0.017": 0.0,
			"-0.016": 0.0,
			"-0.015": 0.0,
			"-0.014": 0.0,
			"-0.013": 0.213549372316,
			"-0.012": 1.21515736425,
			"-0.011": 1.93933946481,
			"-0.01": 1.77681717818,
			"-0.009": 1.42119563333,
			"-0.008": 2.68364683653,
			"-0.007": 2.90262710029,
			"-0.006": 8.8901204561,
			"-0.005": 15.9347012861,
			"-0.004": 15.3281362784,
			"-0.003": 14.1729323764,
			"-0.002": 8.89131825439,
			"-0.001": 7.59528335054,
			"0.0": 6.8877735362,
			"0.001": 8.49406578659,
			"0.002": 9.79134885659,
			"0.003": 10.2666836228,
			"0.004": 10.1787610979,
			"0.005": 10.4086583726,
			"0.006": 4.8198313542,
			"0.007": 4.9843341827,
			"0.008": 2.19726543078,
			"0.009": 3.07490666645,
			"0.01": 2.39389072966,
			"0.011": 1.25896333256,
			"0.012": 1.64550116148,
			"0.013": 0.837094574036,
			"0.014": 0.896070978007,
			"0.015": 0.982543266568,
			"0.016": 0.864526046441,
			"0.017": 0.0666109747828,
			"0.018": 0.0,
			"0.019": 0.0,
			"0.02": 0.0,
			"0.021": 0.0,
			"0.022": 0.0,
			"0.023": 0.0,
			"0.024": 0.0,
			"0.025": 0.0
		}
	}
}
