{
	 "smiles": "CC12CCC3C(CCC4CC(O)CCC34C)C1CC=C2", 
	 "Tm": 416.15, 
	 "num_atms": 50, 
	 "gaussian": { 
		 "optdone": 1, 
		 "sigma_profile": "yes", 
		 "theory": "DFT", 
		 "functional": "B3LYP", 
		 "basiset": "6-31G**", 
		 "properties": { 
			 "R2extent": 6290.7841, 
			 "electric_dipole_moment_norm": 1.33669713847, 
			 "electric_quadrupole_moment_norm": 13.4988081274, 
			 "total_energy": -817.319105795, 
			 "HOMO_LUMO_gap": 0.26349, 
			 "cosmo_polarized_energy": -6.94, 
			 "cosmo_cavitation_energy": 41.72, 
			 "cosmo_dispersion_energy": -29.91, 
			 "cosmo_repulsion_energy": 2.22, 
			 "cosmo_total_nonelectrostatic_energy": 14.03, 
			 "SMD_solvation_energy": 5.44 
		},
		"coords": [
			{
				"x": -4.2776185433,
				"y": 0.3463467491,
				"z": 1.1137142573,
				"element": "C" 
			},
			{
				"x": -3.3136886001,
				"y": -0.5130202307,
				"z": 0.2760954725,
				"element": "C" 
			},
			{
				"x": -2.801554162,
				"y": -1.7048208184,
				"z": 1.1336952686,
				"element": "C" 
			},
			{
				"x": -1.429647328,
				"y": -2.2103649374,
				"z": 0.6722156315,
				"element": "C" 
			},
			{
				"x": -0.34651072,
				"y": -1.1536168857,
				"z": 0.9764788548,
				"element": "C" 
			},
			{
				"x": -0.8363356426,
				"y": 0.2871359862,
				"z": 0.5582543411,
				"element": "C" 
			},
			{
				"x": 0.2835500872,
				"y": 1.1562877662,
				"z": -0.0342981295,
				"element": "C" 
			},
			{
				"x": 1.5800524487,
				"y": 1.0461557719,
				"z": 0.7733932376,
				"element": "C" 
			},
			{
				"x": 2.086516714,
				"y": -0.4107332445,
				"z": 1.0379676356,
				"element": "C" 
			},
			{
				"x": 3.5251319462,
				"y": -0.607344538,
				"z": 0.5083501828,
				"element": "C" 
			},
			{
				"x": 3.5828662041,
				"y": -0.7891605272,
				"z": -1.0055812469,
				"element": "C" 
			},
			{
				"x": 4.9559787158,
				"y": -0.9607681518,
				"z": -1.3523171825,
				"element": "O" 
			},
			{
				"x": 2.7258936106,
				"y": -1.9865988234,
				"z": -1.4244575601,
				"element": "C" 
			},
			{
				"x": 1.2671905651,
				"y": -1.8142534115,
				"z": -0.9681062968,
				"element": "C" 
			},
			{
				"x": 1.1131807193,
				"y": -1.5459689837,
				"z": 0.5554520431,
				"element": "C" 
			},
			{
				"x": 1.4875145008,
				"y": -2.8447040887,
				"z": 1.3140348437,
				"element": "C" 
			},
			{
				"x": -2.1208790644,
				"y": 0.3366017014,
				"z": -0.3039925186,
				"element": "C" 
			},
			{
				"x": -1.9943771908,
				"y": -0.0621056695,
				"z": -1.8068592579,
				"element": "C" 
			},
			{
				"x": -3.2872296582,
				"y": -0.782902983,
				"z": -2.0944758891,
				"element": "C" 
			},
			{
				"x": -3.9855823234,
				"y": -1.0250420604,
				"z": -0.9846617541,
				"element": "C" 
			},
			{
				"x": -3.7565329146,
				"y": 0.8051490081,
				"z": 1.96261117,
				"element": "H" 
			},
			{
				"x": -5.0963616242,
				"y": -0.2599466778,
				"z": 1.5195424391,
				"element": "H" 
			},
			{
				"x": -4.7192068142,
				"y": 1.1476714663,
				"z": 0.5117834233,
				"element": "H" 
			},
			{
				"x": -2.7282842176,
				"y": -1.3968747116,
				"z": 2.1866329128,
				"element": "H" 
			},
			{
				"x": -3.5407611176,
				"y": -2.5152903483,
				"z": 1.1047522007,
				"element": "H" 
			},
			{
				"x": -1.1948029091,
				"y": -3.1466836707,
				"z": 1.1881105154,
				"element": "H" 
			},
			{
				"x": -1.4741922195,
				"y": -2.448602089,
				"z": -0.3971830366,
				"element": "H" 
			},
			{
				"x": -0.2872631024,
				"y": -1.1218585213,
				"z": 2.0747283869,
				"element": "H" 
			},
			{
				"x": -1.1178387247,
				"y": 0.7775792294,
				"z": 1.5015216651,
				"element": "H" 
			},
			{
				"x": -0.0454602418,
				"y": 2.2035174487,
				"z": -0.0534759904,
				"element": "H" 
			},
			{
				"x": 0.4687004253,
				"y": 0.8883699373,
				"z": -1.079571566,
				"element": "H" 
			},
			{
				"x": 1.4218951235,
				"y": 1.5398189372,
				"z": 1.7407568229,
				"element": "H" 
			},
			{
				"x": 2.3641359372,
				"y": 1.6264469279,
				"z": 0.2729175689,
				"element": "H" 
			},
			{
				"x": 2.1429779063,
				"y": -0.5243269896,
				"z": 2.1283125504,
				"element": "H" 
			},
			{
				"x": 3.9936554034,
				"y": -1.4882639863,
				"z": 0.9625086616,
				"element": "H" 
			},
			{
				"x": 4.1448094157,
				"y": 0.2500247826,
				"z": 0.7952748413,
				"element": "H" 
			},
			{
				"x": 3.1834718024,
				"y": 0.1176461469,
				"z": -1.4949110989,
				"element": "H" 
			},
			{
				"x": 5.002728459,
				"y": -1.1069114086,
				"z": -2.3062006989,
				"element": "H" 
			},
			{
				"x": 3.1733681693,
				"y": -2.8933006364,
				"z": -0.9999375156,
				"element": "H" 
			},
			{
				"x": 2.7544227651,
				"y": -2.1057597677,
				"z": -2.5169025382,
				"element": "H" 
			},
			{
				"x": 0.6943644837,
				"y": -2.7086175628,
				"z": -1.2395038166,
				"element": "H" 
			},
			{
				"x": 0.8323998035,
				"y": -0.9930232199,
				"z": -1.5431448166,
				"element": "H" 
			},
			{
				"x": 1.2877302874,
				"y": -2.7408697202,
				"z": 2.3865627746,
				"element": "H" 
			},
			{
				"x": 0.9162506534,
				"y": -3.7033989724,
				"z": 0.9490656059,
				"element": "H" 
			},
			{
				"x": 2.5451708839,
				"y": -3.0951126049,
				"z": 1.2039570198,
				"element": "H" 
			},
			{
				"x": -2.4481244593,
				"y": 1.3844920516,
				"z": -0.293611156,
				"element": "H" 
			},
			{
				"x": -1.1390863489,
				"y": -0.7203782718,
				"z": -2.003276247,
				"element": "H" 
			},
			{
				"x": -1.8507838509,
				"y": 0.8153556933,
				"z": -2.4504211637,
				"element": "H" 
			},
			{
				"x": -3.5799812769,
				"y": -1.0860163649,
				"z": -3.0961979584,
				"element": "H" 
			},
			{
				"x": -4.9331539767,
				"y": -1.558058726,
				"z": -0.9446028886,
				"element": "H" 
			}
		],
		 "valence_orbital": [ 
			{
				"type": "occ",
				"energy": -0.27704,
				"method": "rhf"
			},
			{
				"type": "occ",
				"energy": -0.27344,
				"method": "rhf"
			},
			{
				"type": "occ",
				"energy": -0.2695,
				"method": "rhf"
			},
			{
				"type": "occ",
				"energy": -0.2563,
				"method": "rhf"
			},
			{
				"type": "occ",
				"energy": -0.23401,
				"method": "rhf"
			},
			{
				"type": "unocc",
				"energy": 0.02948,
				"method": "rhf"
			},
			{
				"type": "unocc",
				"energy": 0.06519,
				"method": "rhf"
			},
			{
				"type": "unocc",
				"energy": 0.079,
				"method": "rhf"
			},
			{
				"type": "unocc",
				"energy": 0.0869,
				"method": "rhf"
			},
			{
				"type": "unocc",
				"energy": 0.09528,
				"method": "rhf"
			}
		],
		"cosmo_sigma_profile": { 
			"-0.025": 0.0,
			"-0.024": 0.0,
			"-0.023": 0.0,
			"-0.022": 0.0,
			"-0.021": 0.0,
			"-0.02": 0.0,
			"-0.019": 0.0,
			"-0.018": 0.0,
			"-0.017": 0.0,
			"-0.016": 0.0,
			"-0.015": 0.390975771234,
			"-0.014": 0.885586288278,
			"-0.013": 1.1182454362,
			"-0.012": 0.575804173184,
			"-0.011": 0.687496880252,
			"-0.01": 1.23077708474,
			"-0.009": 1.17309764473,
			"-0.008": 0.59124550588,
			"-0.007": 0.833134013478,
			"-0.006": 1.13526856923,
			"-0.005": 1.88742783542,
			"-0.004": 5.52158710535,
			"-0.003": 14.3002304384,
			"-0.002": 48.9647134912,
			"-0.001": 73.5734190532,
			"0.0": 61.004576939,
			"0.001": 46.5437652539,
			"0.002": 24.1390565567,
			"0.003": 6.86591920744,
			"0.004": 4.60509122573,
			"0.005": 4.63798959938,
			"0.006": 3.33067248952,
			"0.007": 2.66556290169,
			"0.008": 1.07385972146,
			"0.009": 1.42881637757,
			"0.01": 1.67861966488,
			"0.011": 1.30901764104,
			"0.012": 1.25341394658,
			"0.013": 0.99487202136,
			"0.014": 2.41033009839,
			"0.015": 1.59625368286,
			"0.016": 0.0337224217329,
			"0.017": 0.0,
			"0.018": 0.0,
			"0.019": 0.0,
			"0.02": 0.0,
			"0.021": 0.0,
			"0.022": 0.0,
			"0.023": 0.0,
			"0.024": 0.0,
			"0.025": 0.0
		}
	}
}
