{
	 "smiles": "CC(C)OC(=O)C1(CC1)S(=O)(=O)C1=CC=C(C=C1)N(=O)=O", 
	 "Tm": 396.15, 
	 "num_atms": 36, 
	 "gaussian": { 
		 "optdone": 1, 
		 "sigma_profile": "yes", 
		 "theory": "DFT", 
		 "functional": "B3LYP", 
		 "basiset": "6-31G**", 
		 "properties": { 
			 "R2extent": 8372.0201, 
			 "electric_dipole_moment_norm": 6.46629632788, 
			 "electric_quadrupole_moment_norm": 17.7503900323, 
			 "total_energy": -1408.52848599, 
			 "HOMO_LUMO_gap": 0.18242, 
			 "cosmo_polarized_energy": -17.68, 
			 "cosmo_cavitation_energy": 41.79, 
			 "cosmo_dispersion_energy": -28.62, 
			 "cosmo_repulsion_energy": 2.15, 
			 "cosmo_total_nonelectrostatic_energy": 15.32, 
			 "SMD_solvation_energy": 9.48 
		},
		"coords": [
			{
				"x": -3.5588165119,
				"y": -1.7774939294,
				"z": 2.8314345555,
				"element": "C" 
			},
			{
				"x": -2.3964435594,
				"y": -0.8515176781,
				"z": 2.5071367517,
				"element": "C" 
			},
			{
				"x": -1.1232980775,
				"y": -1.1651206246,
				"z": 3.2839607197,
				"element": "C" 
			},
			{
				"x": -2.1402091073,
				"y": -1.0201431714,
				"z": 1.0731423717,
				"element": "O" 
			},
			{
				"x": -1.5973284327,
				"y": 0.0217578855,
				"z": 0.417144055,
				"element": "C" 
			},
			{
				"x": -1.3053617805,
				"y": 1.0813560229,
				"z": 0.9330317951,
				"element": "O" 
			},
			{
				"x": -1.3753502556,
				"y": -0.3062036452,
				"z": -1.0291950455,
				"element": "C" 
			},
			{
				"x": -2.259304699,
				"y": -1.3343758332,
				"z": -1.7288208872,
				"element": "C" 
			},
			{
				"x": -0.8491648153,
				"y": -1.6873301987,
				"z": -1.4097141081,
				"element": "C" 
			},
			{
				"x": -0.8880913305,
				"y": 1.0900846997,
				"z": -2.0901399285,
				"element": "S" 
			},
			{
				"x": -1.8440882398,
				"y": 2.1856317069,
				"z": -1.9021757469,
				"element": "O" 
			},
			{
				"x": -0.6681169451,
				"y": 0.4971311821,
				"z": -3.4224609894,
				"element": "O" 
			},
			{
				"x": 0.7301233696,
				"y": 1.6388902635,
				"z": -1.5002531367,
				"element": "C" 
			},
			{
				"x": 0.8064107548,
				"y": 2.6406162081,
				"z": -0.5297945338,
				"element": "C" 
			},
			{
				"x": 2.0596361641,
				"y": 3.0878515598,
				"z": -0.118644546,
				"element": "C" 
			},
			{
				"x": 3.1954000921,
				"y": 2.5203623206,
				"z": -0.6934334936,
				"element": "C" 
			},
			{
				"x": 3.1284794514,
				"y": 1.5320743102,
				"z": -1.6730805028,
				"element": "C" 
			},
			{
				"x": 1.8738323185,
				"y": 1.0897503486,
				"z": -2.0858455805,
				"element": "C" 
			},
			{
				"x": 4.524259426,
				"y": 2.9900231033,
				"z": -0.252378552,
				"element": "N" 
			},
			{
				"x": 5.5107228903,
				"y": 2.471387791,
				"z": -0.771792649,
				"element": "O" 
			},
			{
				"x": 4.5598448822,
				"y": 3.8675102183,
				"z": 0.6075980688,
				"element": "O" 
			},
			{
				"x": -3.8248013521,
				"y": -1.6829048076,
				"z": 3.8885480119,
				"element": "H" 
			},
			{
				"x": -3.2927489638,
				"y": -2.8213064224,
				"z": 2.6368095105,
				"element": "H" 
			},
			{
				"x": -4.4379738587,
				"y": -1.5252660947,
				"z": 2.2322867235,
				"element": "H" 
			},
			{
				"x": -2.6766777964,
				"y": 0.193966076,
				"z": 2.6600789014,
				"element": "H" 
			},
			{
				"x": -0.7956091301,
				"y": -2.1920077979,
				"z": 3.09211573,
				"element": "H" 
			},
			{
				"x": -0.3217250266,
				"y": -0.4765624938,
				"z": 3.0066144576,
				"element": "H" 
			},
			{
				"x": -1.3063143309,
				"y": -1.0588139855,
				"z": 4.3578864572,
				"element": "H" 
			},
			{
				"x": -2.4982865606,
				"y": -1.126974153,
				"z": -2.7660391109,
				"element": "H" 
			},
			{
				"x": -3.0572708888,
				"y": -1.7461842819,
				"z": -1.1227182492,
				"element": "H" 
			},
			{
				"x": -0.6479381973,
				"y": -2.3551932168,
				"z": -0.5795692132,
				"element": "H" 
			},
			{
				"x": -0.1465141213,
				"y": -1.7214910597,
				"z": -2.2350530524,
				"element": "H" 
			},
			{
				"x": -0.1013142129,
				"y": 3.0498556514,
				"z": -0.1059676025,
				"element": "H" 
			},
			{
				"x": 2.1696158697,
				"y": 3.8615429765,
				"z": 0.6304926246,
				"element": "H" 
			},
			{
				"x": 4.0423029087,
				"y": 1.1365878731,
				"z": -2.0978385828,
				"element": "H" 
			},
			{
				"x": 1.7767200667,
				"y": 0.3478091966,
				"z": -2.8698652229,
				"element": "H" 
			}
		],
		 "valence_orbital": [ 
			{
				"type": "occ",
				"energy": -0.30417,
				"method": "rhf"
			},
			{
				"type": "occ",
				"energy": -0.29975,
				"method": "rhf"
			},
			{
				"type": "occ",
				"energy": -0.29497,
				"method": "rhf"
			},
			{
				"type": "occ",
				"energy": -0.29267,
				"method": "rhf"
			},
			{
				"type": "occ",
				"energy": -0.2857,
				"method": "rhf"
			},
			{
				"type": "unocc",
				"energy": -0.10328,
				"method": "rhf"
			},
			{
				"type": "unocc",
				"energy": -0.03867,
				"method": "rhf"
			},
			{
				"type": "unocc",
				"energy": -0.02791,
				"method": "rhf"
			},
			{
				"type": "unocc",
				"energy": -0.0139,
				"method": "rhf"
			},
			{
				"type": "unocc",
				"energy": 0.03673,
				"method": "rhf"
			}
		],
		"cosmo_sigma_profile": { 
			"-0.025": 0.0,
			"-0.024": 0.0,
			"-0.023": 0.0,
			"-0.022": 0.0,
			"-0.021": 0.0,
			"-0.02": 0.0,
			"-0.019": 0.0,
			"-0.018": 0.0,
			"-0.017": 0.0,
			"-0.016": 0.0,
			"-0.015": 0.0,
			"-0.014": 0.0,
			"-0.013": 0.0,
			"-0.012": 0.0,
			"-0.011": 0.0,
			"-0.01": 0.0,
			"-0.009": 1.11659630021,
			"-0.008": 6.23493438017,
			"-0.007": 11.4206418482,
			"-0.006": 12.602575045,
			"-0.005": 18.5115184309,
			"-0.004": 31.7530972627,
			"-0.003": 35.2769978307,
			"-0.002": 34.1158323144,
			"-0.001": 38.0271206451,
			"0.0": 32.8803157689,
			"0.001": 14.0680742134,
			"0.002": 10.3497874369,
			"0.003": 8.10724378432,
			"0.004": 7.73794348659,
			"0.005": 7.53390085891,
			"0.006": 9.91517487135,
			"0.007": 13.8428308942,
			"0.008": 8.93484628008,
			"0.009": 10.1422731039,
			"0.01": 10.7704620076,
			"0.011": 7.80774594811,
			"0.012": 1.04240353931,
			"0.013": 0.0,
			"0.014": 0.0,
			"0.015": 0.0,
			"0.016": 0.0,
			"0.017": 0.0,
			"0.018": 0.0,
			"0.019": 0.0,
			"0.02": 0.0,
			"0.021": 0.0,
			"0.022": 0.0,
			"0.023": 0.0,
			"0.024": 0.0,
			"0.025": 0.0
		}
	}
}
