{
	 "smiles": "CN1C=CN=C1C1=NOC(N)=N1", 
	 "Tm": 471.15, 
	 "num_atms": 19, 
	 "gaussian": { 
		 "optdone": 1, 
		 "sigma_profile": "yes", 
		 "theory": "DFT", 
		 "functional": "B3LYP", 
		 "basiset": "6-31G**", 
		 "properties": { 
			 "R2extent": 2804.3928, 
			 "electric_dipole_moment_norm": 2.41077227875, 
			 "electric_quadrupole_moment_norm": 27.2895982499, 
			 "total_energy": -581.795171748, 
			 "HOMO_LUMO_gap": 0.19205, 
			 "cosmo_polarized_energy": -20.18, 
			 "cosmo_cavitation_energy": 24.02, 
			 "cosmo_dispersion_energy": -18.14, 
			 "cosmo_repulsion_energy": 1.44, 
			 "cosmo_total_nonelectrostatic_energy": 7.32, 
			 "SMD_solvation_energy": 1.56 
		},
		"coords": [
			{
				"x": -0.7703737348,
				"y": 1.1372302787,
				"z": 0.4986231413,
				"element": "C" 
			},
			{
				"x": 0.6066407875,
				"y": 0.7457159571,
				"z": 0.7812087226,
				"element": "N" 
			},
			{
				"x": 1.3158586315,
				"y": 1.0930396403,
				"z": 1.90542853,
				"element": "C" 
			},
			{
				"x": 2.5593999608,
				"y": 0.5170031981,
				"z": 1.7683182164,
				"element": "C" 
			},
			{
				"x": 2.639501522,
				"y": -0.1747989179,
				"z": 0.595125655,
				"element": "N" 
			},
			{
				"x": 1.456008205,
				"y": -0.0259252005,
				"z": 0.0152325672,
				"element": "C" 
			},
			{
				"x": 1.100006059,
				"y": -0.6059653154,
				"z": -1.2735504417,
				"element": "C" 
			},
			{
				"x": -0.0799474665,
				"y": -0.418810223,
				"z": -1.8345962817,
				"element": "N" 
			},
			{
				"x": 0.0286989659,
				"y": -1.1550425312,
				"z": -3.0470472149,
				"element": "O" 
			},
			{
				"x": 1.265934582,
				"y": -1.6808290138,
				"z": -3.0417552291,
				"element": "C" 
			},
			{
				"x": 1.6157922752,
				"y": -2.479384558,
				"z": -4.081964138,
				"element": "N" 
			},
			{
				"x": 1.9796379428,
				"y": -1.3847939385,
				"z": -1.9897151033,
				"element": "N" 
			},
			{
				"x": -1.1336767055,
				"y": 1.7371795091,
				"z": 1.3343598553,
				"element": "H" 
			},
			{
				"x": -1.4031562662,
				"y": 0.2561139343,
				"z": 0.3764560448,
				"element": "H" 
			},
			{
				"x": -0.8237907651,
				"y": 1.720081429,
				"z": -0.4229280794,
				"element": "H" 
			},
			{
				"x": 0.8775701483,
				"y": 1.703732058,
				"z": 2.680447335,
				"element": "H" 
			},
			{
				"x": 3.3937525225,
				"y": 0.5675284357,
				"z": 2.4542729453,
				"element": "H" 
			},
			{
				"x": 1.0966002051,
				"y": -2.3777037509,
				"z": -4.9404747157,
				"element": "H" 
			},
			{
				"x": 2.6024431306,
				"y": -2.6702709911,
				"z": -4.1670418092,
				"element": "H" 
			}
		],
		 "valence_orbital": [ 
			{
				"type": "occ",
				"energy": -0.28709,
				"method": "rhf"
			},
			{
				"type": "occ",
				"energy": -0.26884,
				"method": "rhf"
			},
			{
				"type": "occ",
				"energy": -0.26079,
				"method": "rhf"
			},
			{
				"type": "occ",
				"energy": -0.25014,
				"method": "rhf"
			},
			{
				"type": "occ",
				"energy": -0.21678,
				"method": "rhf"
			},
			{
				"type": "unocc",
				"energy": -0.02473,
				"method": "rhf"
			},
			{
				"type": "unocc",
				"energy": 0.0342,
				"method": "rhf"
			},
			{
				"type": "unocc",
				"energy": 0.05624,
				"method": "rhf"
			},
			{
				"type": "unocc",
				"energy": 0.06309,
				"method": "rhf"
			},
			{
				"type": "unocc",
				"energy": 0.09281,
				"method": "rhf"
			}
		],
		"cosmo_sigma_profile": { 
			"-0.025": 0.0,
			"-0.024": 0.0,
			"-0.023": 0.0,
			"-0.022": 0.0,
			"-0.021": 0.0,
			"-0.02": 0.0,
			"-0.019": 0.0,
			"-0.018": 0.0,
			"-0.017": 0.00241027636362,
			"-0.016": 1.09773214593,
			"-0.015": 2.83159060698,
			"-0.014": 2.26183070096,
			"-0.013": 2.19617445222,
			"-0.012": 2.59270307676,
			"-0.011": 2.46058716252,
			"-0.01": 2.08411505393,
			"-0.009": 4.42565325821,
			"-0.008": 4.54558985073,
			"-0.007": 6.11907526639,
			"-0.006": 8.92667272168,
			"-0.005": 10.4917046138,
			"-0.004": 12.2377536852,
			"-0.003": 15.2831689347,
			"-0.002": 9.6295398872,
			"-0.001": 12.4209038495,
			"0.0": 8.53411887739,
			"0.001": 9.45810723627,
			"0.002": 8.2171801086,
			"0.003": 8.59086855021,
			"0.004": 8.16816845346,
			"0.005": 7.38053280379,
			"0.006": 6.47038489988,
			"0.007": 8.5155058138,
			"0.008": 3.97663027471,
			"0.009": 4.6098005466,
			"0.01": 3.43838724383,
			"0.011": 2.67128113944,
			"0.012": 1.7780974364,
			"0.013": 1.73408239655,
			"0.014": 2.15568576478,
			"0.015": 1.84772687593,
			"0.016": 1.53347531365,
			"0.017": 2.06817312223,
			"0.018": 1.44183965287,
			"0.019": 0.204463219581,
			"0.02": 0.0,
			"0.021": 0.0,
			"0.022": 0.0,
			"0.023": 0.0,
			"0.024": 0.0,
			"0.025": 0.0
		}
	}
}
