{
	 "smiles": "COC1=C(Cl)SC=C1C(Cl)=O", 
	 "Tm": 340.15, 
	 "num_atms": 15, 
	 "gaussian": { 
		 "optdone": 1, 
		 "sigma_profile": "yes", 
		 "theory": "DFT", 
		 "functional": "B3LYP", 
		 "basiset": "6-31G**", 
		 "properties": { 
			 "R2extent": 2805.2526, 
			 "electric_dipole_moment_norm": 2.67352583118, 
			 "electric_quadrupole_moment_norm": 9.55603292952, 
			 "total_energy": -1700.02955841, 
			 "HOMO_LUMO_gap": 0.16932, 
			 "cosmo_polarized_energy": -7.17, 
			 "cosmo_cavitation_energy": 25.12, 
			 "cosmo_dispersion_energy": -18.98, 
			 "cosmo_repulsion_energy": 1.49, 
			 "cosmo_total_nonelectrostatic_energy": 7.63, 
			 "SMD_solvation_energy": 5.35 
		},
		"coords": [
			{
				"x": 2.0964062027,
				"y": -1.8949090705,
				"z": 0.2120124637,
				"element": "C" 
			},
			{
				"x": 0.9535908234,
				"y": -1.4077531442,
				"z": 0.9374371967,
				"element": "O" 
			},
			{
				"x": 0.1516655843,
				"y": -0.5408555366,
				"z": 0.2778040607,
				"element": "C" 
			},
			{
				"x": -1.0472317006,
				"y": -0.9143595359,
				"z": -0.2748658559,
				"element": "C" 
			},
			{
				"x": -1.7013068567,
				"y": -2.5075190176,
				"z": -0.3091123709,
				"element": "Cl" 
			},
			{
				"x": -1.922067734,
				"y": 0.4360610386,
				"z": -0.9500027327,
				"element": "S" 
			},
			{
				"x": -0.6705604337,
				"y": 1.5220356591,
				"z": -0.4957885549,
				"element": "C" 
			},
			{
				"x": 0.3713363402,
				"y": 0.8903583087,
				"z": 0.1431428983,
				"element": "C" 
			},
			{
				"x": 1.569635056,
				"y": 1.5580701988,
				"z": 0.6616718999,
				"element": "C" 
			},
			{
				"x": 1.5206985021,
				"y": 3.3905356647,
				"z": 0.530117299,
				"element": "Cl" 
			},
			{
				"x": 2.5339101284,
				"y": 1.0417610304,
				"z": 1.1403263024,
				"element": "O" 
			},
			{
				"x": 2.7909629887,
				"y": -1.0818698705,
				"z": -0.0133679655,
				"element": "H" 
			},
			{
				"x": 1.782391752,
				"y": -2.3976220722,
				"z": -0.7092990619,
				"element": "H" 
			},
			{
				"x": 2.5809291544,
				"y": -2.6132592203,
				"z": 0.8741246482,
				"element": "H" 
			},
			{
				"x": -0.7573598073,
				"y": 2.5755255674,
				"z": -0.7160002271,
				"element": "H" 
			}
		],
		 "valence_orbital": [ 
			{
				"type": "occ",
				"energy": -0.32481,
				"method": "rhf"
			},
			{
				"type": "occ",
				"energy": -0.30192,
				"method": "rhf"
			},
			{
				"type": "occ",
				"energy": -0.29418,
				"method": "rhf"
			},
			{
				"type": "occ",
				"energy": -0.28252,
				"method": "rhf"
			},
			{
				"type": "occ",
				"energy": -0.25162,
				"method": "rhf"
			},
			{
				"type": "unocc",
				"energy": -0.0823,
				"method": "rhf"
			},
			{
				"type": "unocc",
				"energy": -0.02364,
				"method": "rhf"
			},
			{
				"type": "unocc",
				"energy": -0.00942,
				"method": "rhf"
			},
			{
				"type": "unocc",
				"energy": 0.00135,
				"method": "rhf"
			},
			{
				"type": "unocc",
				"energy": 0.01941,
				"method": "rhf"
			}
		],
		"cosmo_sigma_profile": { 
			"-0.025": 0.0,
			"-0.024": 0.0,
			"-0.023": 0.0,
			"-0.022": 0.0,
			"-0.021": 0.0,
			"-0.02": 0.0,
			"-0.019": 0.0,
			"-0.018": 0.0,
			"-0.017": 0.0,
			"-0.016": 0.0,
			"-0.015": 0.0,
			"-0.014": 0.0,
			"-0.013": 0.0,
			"-0.012": 0.0955792532599,
			"-0.011": 1.34145198949,
			"-0.01": 1.52698101818,
			"-0.009": 1.41773956758,
			"-0.008": 1.50833927817,
			"-0.007": 1.96037346612,
			"-0.006": 3.95172095563,
			"-0.005": 9.7934127494,
			"-0.004": 17.4111445189,
			"-0.003": 20.4440084543,
			"-0.002": 19.4047661427,
			"-0.001": 23.7185177176,
			"0.0": 20.4532319389,
			"0.001": 16.2091633708,
			"0.002": 14.3199318913,
			"0.003": 14.9526430152,
			"0.004": 12.1691493765,
			"0.005": 8.0753867092,
			"0.006": 4.98446359735,
			"0.007": 4.35022423784,
			"0.008": 5.37327162634,
			"0.009": 3.66977915778,
			"0.01": 1.90785749259,
			"0.011": 0.0643516588608,
			"0.012": 0.0,
			"0.013": 0.0,
			"0.014": 0.0,
			"0.015": 0.0,
			"0.016": 0.0,
			"0.017": 0.0,
			"0.018": 0.0,
			"0.019": 0.0,
			"0.02": 0.0,
			"0.021": 0.0,
			"0.022": 0.0,
			"0.023": 0.0,
			"0.024": 0.0,
			"0.025": 0.0
		}
	}
}
