{
	 "smiles": "CC1=C(NC2=NC(C)(C)CS2)C=CC=C1", 
	 "Tm": 433.15, 
	 "num_atms": 31, 
	 "gaussian": { 
		 "optdone": 1, 
		 "sigma_profile": "yes", 
		 "theory": "DFT", 
		 "functional": "B3LYP", 
		 "basiset": "6-31G**", 
		 "properties": { 
			 "R2extent": 4598.7724, 
			 "electric_dipole_moment_norm": 1.0093136777, 
			 "electric_quadrupole_moment_norm": 9.81210367454, 
			 "total_energy": -974.631800819, 
			 "HOMO_LUMO_gap": 0.20085, 
			 "cosmo_polarized_energy": -9.12, 
			 "cosmo_cavitation_energy": 34.17, 
			 "cosmo_dispersion_energy": -24.86, 
			 "cosmo_repulsion_energy": 1.9, 
			 "cosmo_total_nonelectrostatic_energy": 11.21, 
			 "SMD_solvation_energy": 3.96 
		},
		"coords": [
			{
				"x": 2.6955639041,
				"y": -0.8543598174,
				"z": 2.7834283149,
				"element": "C" 
			},
			{
				"x": 2.207817363,
				"y": 0.3493035639,
				"z": 2.0105747478,
				"element": "C" 
			},
			{
				"x": 1.0457498267,
				"y": 0.2856056451,
				"z": 1.2043591231,
				"element": "C" 
			},
			{
				"x": 0.3632343549,
				"y": -0.9477342453,
				"z": 1.1489600832,
				"element": "N" 
			},
			{
				"x": -0.7603601049,
				"y": -1.2939130577,
				"z": 0.4444221716,
				"element": "C" 
			},
			{
				"x": -1.5044570652,
				"y": -0.5324869658,
				"z": -0.2576641399,
				"element": "N" 
			},
			{
				"x": -2.5680485204,
				"y": -1.252094828,
				"z": -0.9693109833,
				"element": "C" 
			},
			{
				"x": -2.1136102758,
				"y": -1.4765316429,
				"z": -2.4238131038,
				"element": "C" 
			},
			{
				"x": -3.8549404932,
				"y": -0.4160466468,
				"z": -0.9325955321,
				"element": "C" 
			},
			{
				"x": -2.8018777787,
				"y": -2.6199940681,
				"z": -0.245305113,
				"element": "C" 
			},
			{
				"x": -1.2006156436,
				"y": -3.0587116902,
				"z": 0.5258452505,
				"element": "S" 
			},
			{
				"x": 0.6145657876,
				"y": 1.4163961289,
				"z": 0.496169352,
				"element": "C" 
			},
			{
				"x": 1.3364058076,
				"y": 2.6063233371,
				"z": 0.5833365545,
				"element": "C" 
			},
			{
				"x": 2.4824401575,
				"y": 2.687743139,
				"z": 1.3714016087,
				"element": "C" 
			},
			{
				"x": 2.9030470949,
				"y": 1.5588890348,
				"z": 2.0756383683,
				"element": "C" 
			},
			{
				"x": 1.9583049785,
				"y": -1.2038440109,
				"z": 3.5195397842,
				"element": "H" 
			},
			{
				"x": 2.930842388,
				"y": -1.7023702559,
				"z": 2.1260198679,
				"element": "H" 
			},
			{
				"x": 3.6070635984,
				"y": -0.6137009567,
				"z": 3.3354014755,
				"element": "H" 
			},
			{
				"x": 0.731342255,
				"y": -1.6744966166,
				"z": 1.7416306349,
				"element": "H" 
			},
			{
				"x": -1.2320716127,
				"y": -2.1239316554,
				"z": -2.4585214519,
				"element": "H" 
			},
			{
				"x": -1.8519362281,
				"y": -0.5195913447,
				"z": -2.8835743615,
				"element": "H" 
			},
			{
				"x": -2.9102074811,
				"y": -1.9404602433,
				"z": -3.0159810937,
				"element": "H" 
			},
			{
				"x": -4.6787558349,
				"y": -0.9445547231,
				"z": -1.4245593035,
				"element": "H" 
			},
			{
				"x": -3.7017090929,
				"y": 0.5366423656,
				"z": -1.4476103704,
				"element": "H" 
			},
			{
				"x": -4.1452249076,
				"y": -0.2005493261,
				"z": 0.1000066937,
				"element": "H" 
			},
			{
				"x": -3.0995036485,
				"y": -3.408561075,
				"z": -0.9395521074,
				"element": "H" 
			},
			{
				"x": -3.5586874482,
				"y": -2.5312775973,
				"z": 0.5388344396,
				"element": "H" 
			},
			{
				"x": -0.2805941681,
				"y": 1.3449572404,
				"z": -0.1060294619,
				"element": "H" 
			},
			{
				"x": 0.9908192158,
				"y": 3.474298684,
				"z": 0.0288352563,
				"element": "H" 
			},
			{
				"x": 3.0432789902,
				"y": 3.6148447797,
				"z": 1.4407120129,
				"element": "H" 
			},
			{
				"x": 3.7959245818,
				"y": 1.6106068487,
				"z": 2.6939012828,
				"element": "H" 
			}
		],
		 "valence_orbital": [ 
			{
				"type": "occ",
				"energy": -0.28475,
				"method": "rhf"
			},
			{
				"type": "occ",
				"energy": -0.25649,
				"method": "rhf"
			},
			{
				"type": "occ",
				"energy": -0.23867,
				"method": "rhf"
			},
			{
				"type": "occ",
				"energy": -0.22831,
				"method": "rhf"
			},
			{
				"type": "occ",
				"energy": -0.20486,
				"method": "rhf"
			},
			{
				"type": "unocc",
				"energy": -0.00401,
				"method": "rhf"
			},
			{
				"type": "unocc",
				"energy": 0.00347,
				"method": "rhf"
			},
			{
				"type": "unocc",
				"energy": 0.00811,
				"method": "rhf"
			},
			{
				"type": "unocc",
				"energy": 0.05357,
				"method": "rhf"
			},
			{
				"type": "unocc",
				"energy": 0.07677,
				"method": "rhf"
			}
		],
		"cosmo_sigma_profile": { 
			"-0.025": 0.0,
			"-0.024": 0.0,
			"-0.023": 0.0,
			"-0.022": 0.0,
			"-0.021": 0.0,
			"-0.02": 0.0,
			"-0.019": 0.0,
			"-0.018": 0.0,
			"-0.017": 0.0,
			"-0.016": 0.0,
			"-0.015": 0.0,
			"-0.014": 0.0125959542947,
			"-0.013": 0.412080252939,
			"-0.012": 1.41553670004,
			"-0.011": 1.12818769225,
			"-0.01": 1.3105923578,
			"-0.009": 1.22217722192,
			"-0.008": 1.73689207298,
			"-0.007": 1.54997207954,
			"-0.006": 5.27156148981,
			"-0.005": 15.2953093263,
			"-0.004": 22.2694061185,
			"-0.003": 27.8993514105,
			"-0.002": 27.4850066873,
			"-0.001": 25.2564271749,
			"0.0": 24.7460532958,
			"0.001": 23.4836546679,
			"0.002": 16.6045165398,
			"0.003": 14.8528249613,
			"0.004": 15.4820076617,
			"0.005": 14.0397074554,
			"0.006": 14.3631742683,
			"0.007": 7.63107624253,
			"0.008": 4.4712361327,
			"0.009": 2.49454210048,
			"0.01": 0.832815083139,
			"0.011": 0.285268595901,
			"0.012": 0.0,
			"0.013": 0.0,
			"0.014": 0.0,
			"0.015": 0.0,
			"0.016": 0.0,
			"0.017": 0.0,
			"0.018": 0.0,
			"0.019": 0.0,
			"0.02": 0.0,
			"0.021": 0.0,
			"0.022": 0.0,
			"0.023": 0.0,
			"0.024": 0.0,
			"0.025": 0.0
		}
	}
}
