{
	 "smiles": "CCOC(=O)C1=C(N)NN=C1C", 
	 "Tm": 381.15, 
	 "num_atms": 23, 
	 "gaussian": { 
		 "optdone": 1, 
		 "sigma_profile": "yes", 
		 "theory": "DFT", 
		 "functional": "B3LYP", 
		 "basiset": "6-31G**", 
		 "properties": { 
			 "R2extent": 2538.2272, 
			 "electric_dipole_moment_norm": 4.89627643113, 
			 "electric_quadrupole_moment_norm": 10.1711551768, 
			 "total_energy": -588.088695862, 
			 "HOMO_LUMO_gap": 0.21083, 
			 "cosmo_polarized_energy": -17.32, 
			 "cosmo_cavitation_energy": 26.96, 
			 "cosmo_dispersion_energy": -19.68, 
			 "cosmo_repulsion_energy": 1.61, 
			 "cosmo_total_nonelectrostatic_energy": 8.88, 
			 "SMD_solvation_energy": 4.65 
		},
		"coords": [
			{
				"x": -1.3838672099,
				"y": 2.0241095066,
				"z": 2.5809418282,
				"element": "C" 
			},
			{
				"x": -1.5574931231,
				"y": 1.2360708022,
				"z": 1.2957085044,
				"element": "C" 
			},
			{
				"x": -0.261711066,
				"y": 0.7263609126,
				"z": 0.9153728341,
				"element": "O" 
			},
			{
				"x": -0.2335587116,
				"y": -0.0096811807,
				"z": -0.2466673079,
				"element": "C" 
			},
			{
				"x": -1.2396298442,
				"y": -0.217671822,
				"z": -0.9012219384,
				"element": "O" 
			},
			{
				"x": 1.101430144,
				"y": -0.4826460152,
				"z": -0.5605458185,
				"element": "C" 
			},
			{
				"x": 2.2880134487,
				"y": -0.2875548304,
				"z": 0.1612784814,
				"element": "C" 
			},
			{
				"x": 2.5493991742,
				"y": 0.4644449642,
				"z": 1.284411789,
				"element": "N" 
			},
			{
				"x": 3.2437455753,
				"y": -0.9615471297,
				"z": -0.5161348724,
				"element": "N" 
			},
			{
				"x": 2.7727313421,
				"y": -1.5872789324,
				"z": -1.6492993671,
				"element": "N" 
			},
			{
				"x": 1.4833333711,
				"y": -1.2996155848,
				"z": -1.6768585137,
				"element": "C" 
			},
			{
				"x": 0.6087564493,
				"y": -1.8163567192,
				"z": -2.7742542265,
				"element": "C" 
			},
			{
				"x": -0.6905458485,
				"y": 2.8588140873,
				"z": 2.4393288459,
				"element": "H" 
			},
			{
				"x": -2.347876096,
				"y": 2.4320181492,
				"z": 2.9004778004,
				"element": "H" 
			},
			{
				"x": -1.0016672908,
				"y": 1.3872804473,
				"z": 3.3849977369,
				"element": "H" 
			},
			{
				"x": -2.2481704518,
				"y": 0.3962096354,
				"z": 1.4210309408,
				"element": "H" 
			},
			{
				"x": -1.9456330049,
				"y": 1.85913537,
				"z": 0.4840590183,
				"element": "H" 
			},
			{
				"x": 3.2435846853,
				"y": 0.0901664291,
				"z": 1.9174180436,
				"element": "H" 
			},
			{
				"x": 1.6992700476,
				"y": 0.7673069475,
				"z": 1.7434748884,
				"element": "H" 
			},
			{
				"x": 4.2327652314,
				"y": -0.9801266378,
				"z": -0.3245713143,
				"element": "H" 
			},
			{
				"x": -0.204177696,
				"y": -2.4289872529,
				"z": -2.3732178419,
				"element": "H" 
			},
			{
				"x": 1.2059155196,
				"y": -2.413487567,
				"z": -3.4667941312,
				"element": "H" 
			},
			{
				"x": 0.1361853541,
				"y": -0.9932635794,
				"z": -3.3186353795,
				"element": "H" 
			}
		],
		 "valence_orbital": [ 
			{
				"type": "occ",
				"energy": -0.2926,
				"method": "rhf"
			},
			{
				"type": "occ",
				"energy": -0.283,
				"method": "rhf"
			},
			{
				"type": "occ",
				"energy": -0.26245,
				"method": "rhf"
			},
			{
				"type": "occ",
				"energy": -0.24715,
				"method": "rhf"
			},
			{
				"type": "occ",
				"energy": -0.21346,
				"method": "rhf"
			},
			{
				"type": "unocc",
				"energy": -0.00263,
				"method": "rhf"
			},
			{
				"type": "unocc",
				"energy": 0.03666,
				"method": "rhf"
			},
			{
				"type": "unocc",
				"energy": 0.06651,
				"method": "rhf"
			},
			{
				"type": "unocc",
				"energy": 0.09225,
				"method": "rhf"
			},
			{
				"type": "unocc",
				"energy": 0.09863,
				"method": "rhf"
			}
		],
		"cosmo_sigma_profile": { 
			"-0.025": 0.0,
			"-0.024": 0.0,
			"-0.023": 0.0,
			"-0.022": 0.0,
			"-0.021": 0.0,
			"-0.02": 0.0,
			"-0.019": 0.0,
			"-0.018": 0.0,
			"-0.017": 0.561169589388,
			"-0.016": 2.39220348864,
			"-0.015": 2.50639820495,
			"-0.014": 2.395037437,
			"-0.013": 2.40183853691,
			"-0.012": 1.60756242496,
			"-0.011": 2.19850654165,
			"-0.01": 2.59544487004,
			"-0.009": 2.69966143098,
			"-0.008": 1.67923209353,
			"-0.007": 1.83823773897,
			"-0.006": 1.97876065095,
			"-0.005": 5.96573211821,
			"-0.004": 16.1452514627,
			"-0.003": 19.6597544969,
			"-0.002": 19.1580015838,
			"-0.001": 18.2265867879,
			"0.0": 21.97009731,
			"0.001": 13.429583048,
			"0.002": 12.0860922987,
			"0.003": 12.3109351383,
			"0.004": 8.06584904067,
			"0.005": 4.46851712243,
			"0.006": 4.05739790655,
			"0.007": 4.19003715681,
			"0.008": 4.2444810127,
			"0.009": 3.621714235,
			"0.01": 3.79638609085,
			"0.011": 3.62277056047,
			"0.012": 4.39531353461,
			"0.013": 4.70245601148,
			"0.014": 1.26606594856,
			"0.015": 0.846820966811,
			"0.016": 0.978917148554,
			"0.017": 0.196512126949,
			"0.018": 0.0,
			"0.019": 0.0,
			"0.02": 0.0,
			"0.021": 0.0,
			"0.022": 0.0,
			"0.023": 0.0,
			"0.024": 0.0,
			"0.025": 0.0
		}
	}
}
