{
	 "smiles": "CI", 
	 "Tm": 207.65, 
	 "num_atms": 5, 
	 "gaussian": { 
		 "optdone": 1, 
		 "sigma_profile": "yes", 
		 "theory": "DFT", 
		 "functional": "B3LYP", 
		 "basiset": "6-31G**", 
		 "properties": { 
			 "R2extent": 209.3139, 
			 "electric_dipole_moment_norm": 1.81159858136, 
			 "electric_quadrupole_moment_norm": 1.37778812595, 
			 "total_energy": -51.3056240266, 
			 "HOMO_LUMO_gap": 0.21613, 
			 "cosmo_polarized_energy": -3.14, 
			 "cosmo_cavitation_energy": 11.11, 
			 "cosmo_dispersion_energy": -10.14, 
			 "cosmo_repulsion_energy": 0.92, 
			 "cosmo_total_nonelectrostatic_energy": 1.89, 
			 "SMD_solvation_energy": 1.86 
		},
		"coords": [
			{
				"x": -0.1415651077,
				"y": -0.1345609653,
				"z": 0.6363541982,
				"element": "C" 
			},
			{
				"x": -1.8612918224,
				"y": 1.1047840274,
				"z": 0.1955078457,
				"element": "I" 
			},
			{
				"x": 0.0060347389,
				"y": -0.803150123,
				"z": -0.2080953124,
				"element": "H" 
			},
			{
				"x": 0.7118870451,
				"y": 0.525026301,
				"z": 0.7721628038,
				"element": "H" 
			},
			{
				"x": -0.3611648539,
				"y": -0.6887992401,
				"z": 1.5454704647,
				"element": "H" 
			}
		],
		 "valence_orbital": [ 
			{
				"type": "occ",
				"energy": -0.44382,
				"method": "rhf"
			},
			{
				"type": "occ",
				"energy": -0.4438,
				"method": "rhf"
			},
			{
				"type": "occ",
				"energy": -0.36093,
				"method": "rhf"
			},
			{
				"type": "occ",
				"energy": -0.26033,
				"method": "rhf"
			},
			{
				"type": "occ",
				"energy": -0.26033,
				"method": "rhf"
			},
			{
				"type": "unocc",
				"energy": -0.0442,
				"method": "rhf"
			},
			{
				"type": "unocc",
				"energy": 0.04466,
				"method": "rhf"
			},
			{
				"type": "unocc",
				"energy": 0.04466,
				"method": "rhf"
			},
			{
				"type": "unocc",
				"energy": 0.05342,
				"method": "rhf"
			},
			{
				"type": "unocc",
				"energy": 0.14365,
				"method": "rhf"
			}
		],
		"cosmo_sigma_profile": { 
			"-0.025": 0.0,
			"-0.024": 0.0,
			"-0.023": 0.0,
			"-0.022": 0.0,
			"-0.021": 0.0,
			"-0.02": 0.0,
			"-0.019": 0.0,
			"-0.018": 0.0,
			"-0.017": 0.0,
			"-0.016": 0.0,
			"-0.015": 0.0,
			"-0.014": 0.0,
			"-0.013": 0.0,
			"-0.012": 0.0,
			"-0.011": 0.0,
			"-0.01": 0.0,
			"-0.009": 0.0,
			"-0.008": 0.0869260343001,
			"-0.007": 4.31530668382,
			"-0.006": 5.41948441483,
			"-0.005": 7.49092892623,
			"-0.004": 7.01886170599,
			"-0.003": 8.87214476223,
			"-0.002": 9.88439534554,
			"-0.001": 4.5972353824,
			"0.0": 4.28214479908,
			"0.001": 4.05506938204,
			"0.002": 3.74772756966,
			"0.003": 5.10751647734,
			"0.004": 5.99735768925,
			"0.005": 7.96058951728,
			"0.006": 13.3082916911,
			"0.007": 1.12030442292,
			"0.008": 0.0,
			"0.009": 0.0,
			"0.01": 0.0,
			"0.011": 0.0,
			"0.012": 0.0,
			"0.013": 0.0,
			"0.014": 0.0,
			"0.015": 0.0,
			"0.016": 0.0,
			"0.017": 0.0,
			"0.018": 0.0,
			"0.019": 0.0,
			"0.02": 0.0,
			"0.021": 0.0,
			"0.022": 0.0,
			"0.023": 0.0,
			"0.024": 0.0,
			"0.025": 0.0
		}
	}
}
