{
	 "smiles": "CC(C)OCCS(=O)(=O)NCC(O)=O", 
	 "Tm": 337.15, 
	 "num_atms": 29, 
	 "gaussian": { 
		 "optdone": 1, 
		 "sigma_profile": "yes", 
		 "theory": "DFT", 
		 "functional": "B3LYP", 
		 "basiset": "6-31G**", 
		 "properties": { 
			 "R2extent": 4855.0574, 
			 "electric_dipole_moment_norm": 7.39014658244, 
			 "electric_quadrupole_moment_norm": 20.8223833588, 
			 "total_energy": -1104.78394406, 
			 "HOMO_LUMO_gap": 0.26165, 
			 "cosmo_polarized_energy": -20.24, 
			 "cosmo_cavitation_energy": 32.59, 
			 "cosmo_dispersion_energy": -23.07, 
			 "cosmo_repulsion_energy": 1.8, 
			 "cosmo_total_nonelectrostatic_energy": 11.32, 
			 "SMD_solvation_energy": 5.7 
		},
		"coords": [
			{
				"x": 2.1527337988,
				"y": -1.6978186196,
				"z": -0.3624961733,
				"element": "C" 
			},
			{
				"x": 0.8174366295,
				"y": -1.3220600091,
				"z": -1.0085796801,
				"element": "C" 
			},
			{
				"x": -0.1368326458,
				"y": -2.5112210726,
				"z": -1.1427681083,
				"element": "C" 
			},
			{
				"x": 0.1836455347,
				"y": -0.1980082618,
				"z": -0.3605015568,
				"element": "O" 
			},
			{
				"x": -0.1289184259,
				"y": -0.341668443,
				"z": 1.0117319333,
				"element": "C" 
			},
			{
				"x": -0.8809105183,
				"y": 0.8961479661,
				"z": 1.4722243811,
				"element": "C" 
			},
			{
				"x": 0.1092414313,
				"y": 2.4246050607,
				"z": 1.5352484469,
				"element": "S" 
			},
			{
				"x": 1.5036075301,
				"y": 2.0170961676,
				"z": 1.8311645968,
				"element": "O" 
			},
			{
				"x": -0.5986713006,
				"y": 3.3663023244,
				"z": 2.4045968342,
				"element": "O" 
			},
			{
				"x": 0.0485090174,
				"y": 3.0935475729,
				"z": 0.0048521183,
				"element": "N" 
			},
			{
				"x": 1.064143488,
				"y": 2.8120666956,
				"z": -1.0169447385,
				"element": "C" 
			},
			{
				"x": 2.3622331734,
				"y": 3.6382982585,
				"z": -0.9484599115,
				"element": "C" 
			},
			{
				"x": 3.0052707527,
				"y": 3.6788727023,
				"z": 0.2270870883,
				"element": "O" 
			},
			{
				"x": 2.7857168511,
				"y": 4.2076177154,
				"z": -1.9278241554,
				"element": "O" 
			},
			{
				"x": 2.6893652141,
				"y": -2.4029575059,
				"z": -1.0047845929,
				"element": "H" 
			},
			{
				"x": 2.018734829,
				"y": -2.17982015,
				"z": 0.6114600054,
				"element": "H" 
			},
			{
				"x": 2.7818066528,
				"y": -0.8133203082,
				"z": -0.2262465814,
				"element": "H" 
			},
			{
				"x": 1.0174212427,
				"y": -0.9288225142,
				"z": -2.0115483153,
				"element": "H" 
			},
			{
				"x": -0.3315449422,
				"y": -2.9954828829,
				"z": -0.1800025195,
				"element": "H" 
			},
			{
				"x": -1.0905888259,
				"y": -2.1908400301,
				"z": -1.5717373468,
				"element": "H" 
			},
			{
				"x": 0.299755472,
				"y": -3.2665788405,
				"z": -1.8037074325,
				"element": "H" 
			},
			{
				"x": 0.7718644101,
				"y": -0.4680809587,
				"z": 1.6247361472,
				"element": "H" 
			},
			{
				"x": -0.7867184184,
				"y": -1.2055601336,
				"z": 1.1881701574,
				"element": "H" 
			},
			{
				"x": -1.7413119788,
				"y": 1.1177617093,
				"z": 0.8375642809,
				"element": "H" 
			},
			{
				"x": -1.2166402057,
				"y": 0.7743426989,
				"z": 2.5060913717,
				"element": "H" 
			},
			{
				"x": -0.2718278035,
				"y": 4.0545608244,
				"z": 0.0796833665,
				"element": "H" 
			},
			{
				"x": 0.6194455282,
				"y": 3.0085476235,
				"z": -1.994013647,
				"element": "H" 
			},
			{
				"x": 1.2913678111,
				"y": 1.743696172,
				"z": -0.9660905765,
				"element": "H" 
			},
			{
				"x": 2.580965698,
				"y": 3.0954762384,
				"z": 0.8942946078,
				"element": "H" 
			}
		],
		 "valence_orbital": [ 
			{
				"type": "occ",
				"energy": -0.32153,
				"method": "rhf"
			},
			{
				"type": "occ",
				"energy": -0.30213,
				"method": "rhf"
			},
			{
				"type": "occ",
				"energy": -0.29793,
				"method": "rhf"
			},
			{
				"type": "occ",
				"energy": -0.28184,
				"method": "rhf"
			},
			{
				"type": "occ",
				"energy": -0.25468,
				"method": "rhf"
			},
			{
				"type": "unocc",
				"energy": 0.00697,
				"method": "rhf"
			},
			{
				"type": "unocc",
				"energy": 0.04131,
				"method": "rhf"
			},
			{
				"type": "unocc",
				"energy": 0.05065,
				"method": "rhf"
			},
			{
				"type": "unocc",
				"energy": 0.0519,
				"method": "rhf"
			},
			{
				"type": "unocc",
				"energy": 0.07302,
				"method": "rhf"
			}
		],
		"cosmo_sigma_profile": { 
			"-0.025": 0.0,
			"-0.024": 0.0,
			"-0.023": 0.0,
			"-0.022": 0.0,
			"-0.021": 0.0,
			"-0.02": 0.0,
			"-0.019": 0.0,
			"-0.018": 0.0,
			"-0.017": 0.0775018140259,
			"-0.016": 0.863059581217,
			"-0.015": 1.05600047903,
			"-0.014": 1.191235093,
			"-0.013": 1.38713263589,
			"-0.012": 0.830823792374,
			"-0.011": 0.585642358337,
			"-0.01": 2.36619659279,
			"-0.009": 4.21103018045,
			"-0.008": 6.2576688669,
			"-0.007": 9.41491718839,
			"-0.006": 11.0467635944,
			"-0.005": 15.6724143219,
			"-0.004": 24.3541327553,
			"-0.003": 25.5276798997,
			"-0.002": 18.0272929564,
			"-0.001": 18.5638738416,
			"0.0": 18.6305249249,
			"0.001": 14.5096969184,
			"0.002": 6.96275104945,
			"0.003": 4.95576569485,
			"0.004": 6.57038619547,
			"0.005": 5.54282123803,
			"0.006": 5.74783915464,
			"0.007": 7.04575719412,
			"0.008": 5.72416676291,
			"0.009": 6.84946548789,
			"0.01": 11.4636408098,
			"0.011": 10.9945066038,
			"0.012": 5.73034368387,
			"0.013": 2.70819079955,
			"0.014": 0.210841404505,
			"0.015": 0.0,
			"0.016": 0.0,
			"0.017": 0.0,
			"0.018": 0.0,
			"0.019": 0.0,
			"0.02": 0.0,
			"0.021": 0.0,
			"0.022": 0.0,
			"0.023": 0.0,
			"0.024": 0.0,
			"0.025": 0.0
		}
	}
}
