{
	 "smiles": "CC1=CC2=C(O1)C(C)=C1OC(=O)C=C(C)C1=C2", 
	 "Tm": 505.15, 
	 "num_atms": 29, 
	 "gaussian": { 
		 "optdone": 1, 
		 "sigma_profile": "yes", 
		 "theory": "DFT", 
		 "functional": "B3LYP", 
		 "basiset": "6-31G**", 
		 "properties": { 
			 "R2extent": 4648.974, 
			 "electric_dipole_moment_norm": 6.18643915027, 
			 "electric_quadrupole_moment_norm": 15.5312724395, 
			 "total_energy": -766.414152189, 
			 "HOMO_LUMO_gap": 0.15547, 
			 "cosmo_polarized_energy": -12.19, 
			 "cosmo_cavitation_energy": 32.86, 
			 "cosmo_dispersion_energy": -24.05, 
			 "cosmo_repulsion_energy": 1.85, 
			 "cosmo_total_nonelectrostatic_energy": 10.66, 
			 "SMD_solvation_energy": 7.06 
		},
		"coords": [
			{
				"x": -3.4081715765,
				"y": 1.6508019686,
				"z": 2.9161983424,
				"element": "C" 
			},
			{
				"x": -2.3426536469,
				"y": 0.8196994466,
				"z": 2.2974119164,
				"element": "C" 
			},
			{
				"x": -1.5947998122,
				"y": -0.2194112283,
				"z": 2.7485627067,
				"element": "C" 
			},
			{
				"x": -0.7202415302,
				"y": -0.6056244631,
				"z": 1.6657533232,
				"element": "C" 
			},
			{
				"x": -1.0307677363,
				"y": 0.2749575766,
				"z": 0.6058446183,
				"element": "C" 
			},
			{
				"x": -2.0169457361,
				"y": 1.1412105569,
				"z": 0.9899778649,
				"element": "O" 
			},
			{
				"x": -0.4239002262,
				"y": 0.2633289111,
				"z": -0.6434533703,
				"element": "C" 
			},
			{
				"x": -0.7807197971,
				"y": 1.2180017113,
				"z": -1.7503404622,
				"element": "C" 
			},
			{
				"x": 0.5625515072,
				"y": -0.7226976975,
				"z": -0.7952045067,
				"element": "C" 
			},
			{
				"x": 1.1730464758,
				"y": -0.7510969199,
				"z": -2.0190727572,
				"element": "O" 
			},
			{
				"x": 2.1742029793,
				"y": -1.6627779298,
				"z": -2.3447075335,
				"element": "C" 
			},
			{
				"x": 2.650097163,
				"y": -1.6058833429,
				"z": -3.4557601966,
				"element": "O" 
			},
			{
				"x": 2.5426391031,
				"y": -2.6008385766,
				"z": -1.2969661968,
				"element": "C" 
			},
			{
				"x": 1.9637249908,
				"y": -2.608406178,
				"z": -0.0694504065,
				"element": "C" 
			},
			{
				"x": 2.3874634437,
				"y": -3.6048452716,
				"z": 0.9763968439,
				"element": "C" 
			},
			{
				"x": 0.9209049241,
				"y": -1.637182039,
				"z": 0.2301465197,
				"element": "C" 
			},
			{
				"x": 0.2654565277,
				"y": -1.5696570276,
				"z": 1.4726118959,
				"element": "C" 
			},
			{
				"x": -3.5925148551,
				"y": 1.3222246065,
				"z": 3.9411053446,
				"element": "H" 
			},
			{
				"x": -3.1222264083,
				"y": 2.7086004548,
				"z": 2.9356208428,
				"element": "H" 
			},
			{
				"x": -4.3449150381,
				"y": 1.5753028663,
				"z": 2.3523786684,
				"element": "H" 
			},
			{
				"x": -1.6547653152,
				"y": -0.6613955484,
				"z": 3.7328903371,
				"element": "H" 
			},
			{
				"x": -1.5684054472,
				"y": 1.9019174076,
				"z": -1.429960948,
				"element": "H" 
			},
			{
				"x": -1.1242582024,
				"y": 0.6770085893,
				"z": -2.6377785641,
				"element": "H" 
			},
			{
				"x": 0.0910749354,
				"y": 1.8046655366,
				"z": -2.0570149312,
				"element": "H" 
			},
			{
				"x": 3.3223174682,
				"y": -3.3051716387,
				"z": -1.5639048446,
				"element": "H" 
			},
			{
				"x": 1.5435997935,
				"y": -4.2301250679,
				"z": 1.2895713732,
				"element": "H" 
			},
			{
				"x": 2.7639795951,
				"y": -3.0990836229,
				"z": 1.8728300205,
				"element": "H" 
			},
			{
				"x": 3.1750275858,
				"y": -4.2588100094,
				"z": 0.5966583969,
				"element": "H" 
			},
			{
				"x": 0.5268988352,
				"y": -2.2603130705,
				"z": 2.2662557027,
				"element": "H" 
			}
		],
		 "valence_orbital": [ 
			{
				"type": "occ",
				"energy": -0.29773,
				"method": "rhf"
			},
			{
				"type": "occ",
				"energy": -0.27668,
				"method": "rhf"
			},
			{
				"type": "occ",
				"energy": -0.26339,
				"method": "rhf"
			},
			{
				"type": "occ",
				"energy": -0.23021,
				"method": "rhf"
			},
			{
				"type": "occ",
				"energy": -0.21191,
				"method": "rhf"
			},
			{
				"type": "unocc",
				"energy": -0.05644,
				"method": "rhf"
			},
			{
				"type": "unocc",
				"energy": -0.01724,
				"method": "rhf"
			},
			{
				"type": "unocc",
				"energy": 0.01668,
				"method": "rhf"
			},
			{
				"type": "unocc",
				"energy": 0.04512,
				"method": "rhf"
			},
			{
				"type": "unocc",
				"energy": 0.08961,
				"method": "rhf"
			}
		],
		"cosmo_sigma_profile": { 
			"-0.025": 0.0,
			"-0.024": 0.0,
			"-0.023": 0.0,
			"-0.022": 0.0,
			"-0.021": 0.0,
			"-0.02": 0.0,
			"-0.019": 0.0,
			"-0.018": 0.0,
			"-0.017": 0.0,
			"-0.016": 0.0,
			"-0.015": 0.0,
			"-0.014": 0.0,
			"-0.013": 0.0,
			"-0.012": 0.0,
			"-0.011": 0.0,
			"-0.01": 0.0,
			"-0.009": 0.0,
			"-0.008": 0.200128791467,
			"-0.007": 3.76722889577,
			"-0.006": 12.8582547331,
			"-0.005": 21.7191946308,
			"-0.004": 20.3029899935,
			"-0.003": 22.0081714056,
			"-0.002": 25.8020446708,
			"-0.001": 29.1045547924,
			"0.0": 27.6663255172,
			"0.001": 24.6617233078,
			"0.002": 19.4008799616,
			"0.003": 13.0935062185,
			"0.004": 10.28696882,
			"0.005": 3.70859436985,
			"0.006": 4.15819470361,
			"0.007": 3.00540846981,
			"0.008": 2.08398081292,
			"0.009": 1.72813185911,
			"0.01": 2.49942988187,
			"0.011": 2.68444121063,
			"0.012": 5.62395981638,
			"0.013": 5.02644479192,
			"0.014": 0.922758204357,
			"0.015": 0.0,
			"0.016": 0.0,
			"0.017": 0.0,
			"0.018": 0.0,
			"0.019": 0.0,
			"0.02": 0.0,
			"0.021": 0.0,
			"0.022": 0.0,
			"0.023": 0.0,
			"0.024": 0.0,
			"0.025": 0.0
		}
	}
}
