{
	 "smiles": "CC(=N/C1=CC=C(C(O)=O)C(O)=C1)C1=C(O)C2=CC=CC=C2N(C2=CC=CC=C2)C1=O", 
	 "Tm": 450.15, 
	 "num_atms": 49, 
	 "gaussian": { 
		 "optdone": 1, 
		 "sigma_profile": "yes", 
		 "theory": "DFT", 
		 "functional": "B3LYP", 
		 "basiset": "6-31G**", 
		 "properties": { 
			 "R2extent": 20383.4993, 
			 "electric_dipole_moment_norm": 6.50420116617, 
			 "electric_quadrupole_moment_norm": 29.1641380889, 
			 "total_energy": -1411.0777772, 
			 "HOMO_LUMO_gap": 0.14779, 
			 "cosmo_polarized_energy": -22.38, 
			 "cosmo_cavitation_energy": 53.03, 
			 "cosmo_dispersion_energy": -37.71, 
			 "cosmo_repulsion_energy": 2.76, 
			 "cosmo_total_nonelectrostatic_energy": 18.08, 
			 "SMD_solvation_energy": 10.52 
		},
		"coords": [
			{
				"x": 1.2578627392,
				"y": 2.2240494407,
				"z": -0.2456576422,
				"element": "C" 
			},
			{
				"x": 0.2078307924,
				"y": 1.7288969331,
				"z": 0.7160321471,
				"element": "C" 
			},
			{
				"x": -0.0427747122,
				"y": 2.3349805483,
				"z": 1.8511391383,
				"element": "N" 
			},
			{
				"x": 0.6818570497,
				"y": 3.4034730967,
				"z": 2.3991335994,
				"element": "C" 
			},
			{
				"x": -0.031735319,
				"y": 4.5625723454,
				"z": 2.781171027,
				"element": "C" 
			},
			{
				"x": 0.6355993498,
				"y": 5.6034324153,
				"z": 3.3963606809,
				"element": "C" 
			},
			{
				"x": 2.0165911681,
				"y": 5.5452193596,
				"z": 3.6759305199,
				"element": "C" 
			},
			{
				"x": 2.7695155153,
				"y": 6.6324322785,
				"z": 4.3254104,
				"element": "C" 
			},
			{
				"x": 2.1484795554,
				"y": 7.7984090527,
				"z": 4.5999901314,
				"element": "O" 
			},
			{
				"x": 3.9557783564,
				"y": 6.5320746052,
				"z": 4.6308992637,
				"element": "O" 
			},
			{
				"x": 2.7213168307,
				"y": 4.3598633238,
				"z": 3.3210161861,
				"element": "C" 
			},
			{
				"x": 4.0245959158,
				"y": 4.197397761,
				"z": 3.5710693709,
				"element": "O" 
			},
			{
				"x": 2.0441389331,
				"y": 3.3087032007,
				"z": 2.6840765012,
				"element": "C" 
			},
			{
				"x": -0.6319738118,
				"y": 0.5710978468,
				"z": 0.3974969433,
				"element": "C" 
			},
			{
				"x": -1.6679093899,
				"y": 0.1968067611,
				"z": 1.2712223672,
				"element": "C" 
			},
			{
				"x": -1.9161848742,
				"y": 0.8437736713,
				"z": 2.3885760459,
				"element": "O" 
			},
			{
				"x": -2.5282098389,
				"y": -0.9278162233,
				"z": 0.9729755809,
				"element": "C" 
			},
			{
				"x": -3.5713212036,
				"y": -1.2932820151,
				"z": 1.8457979429,
				"element": "C" 
			},
			{
				"x": -4.3924888696,
				"y": -2.3686846128,
				"z": 1.554657217,
				"element": "C" 
			},
			{
				"x": -4.1744765617,
				"y": -3.0969731858,
				"z": 0.3747654544,
				"element": "C" 
			},
			{
				"x": -3.1529495521,
				"y": -2.7577721499,
				"z": -0.500836745,
				"element": "C" 
			},
			{
				"x": -2.3113751285,
				"y": -1.664323411,
				"z": -0.2137668404,
				"element": "C" 
			},
			{
				"x": -1.274171546,
				"y": -1.2937574287,
				"z": -1.0649520424,
				"element": "N" 
			},
			{
				"x": -1.0303108783,
				"y": -2.0452489501,
				"z": -2.274836929,
				"element": "C" 
			},
			{
				"x": -0.163225791,
				"y": -3.1385109249,
				"z": -2.2490624415,
				"element": "C" 
			},
			{
				"x": 0.0593114476,
				"y": -3.8706845043,
				"z": -3.4156646123,
				"element": "C" 
			},
			{
				"x": -0.5825966726,
				"y": -3.5105539398,
				"z": -4.6023819661,
				"element": "C" 
			},
			{
				"x": -1.4476366894,
				"y": -2.4146157589,
				"z": -4.6224361314,
				"element": "C" 
			},
			{
				"x": -1.6730671223,
				"y": -1.6792352767,
				"z": -3.4582589596,
				"element": "C" 
			},
			{
				"x": -0.3975408979,
				"y": -0.2074199291,
				"z": -0.8230354674,
				"element": "C" 
			},
			{
				"x": 0.4965630699,
				"y": 0.0102452591,
				"z": -1.6377443475,
				"element": "O" 
			},
			{
				"x": 1.6679191607,
				"y": 3.1763169768,
				"z": 0.0895026863,
				"element": "H" 
			},
			{
				"x": 0.8308414947,
				"y": 2.322951175,
				"z": -1.2445551457,
				"element": "H" 
			},
			{
				"x": 2.0632850951,
				"y": 1.4929451566,
				"z": -0.3513965905,
				"element": "H" 
			},
			{
				"x": -1.095710636,
				"y": 4.6202725347,
				"z": 2.5808543652,
				"element": "H" 
			},
			{
				"x": 0.0498154919,
				"y": 6.4753068078,
				"z": 3.6816646594,
				"element": "H" 
			},
			{
				"x": 1.2442244135,
				"y": 7.7966233819,
				"z": 4.2591936032,
				"element": "H" 
			},
			{
				"x": 4.3270021539,
				"y": 5.019342627,
				"z": 4.0390848115,
				"element": "H" 
			},
			{
				"x": 2.604702873,
				"y": 2.4135153867,
				"z": 2.4406126009,
				"element": "H" 
			},
			{
				"x": -1.1965965829,
				"y": 1.6081334423,
				"z": 2.4196505395,
				"element": "H" 
			},
			{
				"x": -3.7088132244,
				"y": -0.7081570777,
				"z": 2.7477169804,
				"element": "H" 
			},
			{
				"x": -5.1948212194,
				"y": -2.6462039387,
				"z": 2.2304299837,
				"element": "H" 
			},
			{
				"x": -4.8122697112,
				"y": -3.9432266784,
				"z": 0.135790947,
				"element": "H" 
			},
			{
				"x": -2.9982590174,
				"y": -3.3310141439,
				"z": -1.4057716086,
				"element": "H" 
			},
			{
				"x": 0.333592952,
				"y": -3.4039077919,
				"z": -1.3213261753,
				"element": "H" 
			},
			{
				"x": 0.7360189378,
				"y": -4.7197555361,
				"z": -3.3972843991,
				"element": "H" 
			},
			{
				"x": -0.4072729648,
				"y": -4.081057443,
				"z": -5.5096851037,
				"element": "H" 
			},
			{
				"x": -1.945509914,
				"y": -2.1291702457,
				"z": -5.5443205742,
				"element": "H" 
			},
			{
				"x": -2.3386411672,
				"y": -0.8218642224,
				"z": -3.4608479726,
				"element": "H" 
			}
		],
		 "valence_orbital": [ 
			{
				"type": "occ",
				"energy": -0.2535,
				"method": "rhf"
			},
			{
				"type": "occ",
				"energy": -0.25146,
				"method": "rhf"
			},
			{
				"type": "occ",
				"energy": -0.23712,
				"method": "rhf"
			},
			{
				"type": "occ",
				"energy": -0.23162,
				"method": "rhf"
			},
			{
				"type": "occ",
				"energy": -0.22229,
				"method": "rhf"
			},
			{
				"type": "unocc",
				"energy": -0.0745,
				"method": "rhf"
			},
			{
				"type": "unocc",
				"energy": -0.05057,
				"method": "rhf"
			},
			{
				"type": "unocc",
				"energy": -0.01881,
				"method": "rhf"
			},
			{
				"type": "unocc",
				"energy": -0.01547,
				"method": "rhf"
			},
			{
				"type": "unocc",
				"energy": -0.01285,
				"method": "rhf"
			}
		],
		"cosmo_sigma_profile": { 
			"-0.025": 0.0,
			"-0.024": 0.0,
			"-0.023": 0.0,
			"-0.022": 0.0,
			"-0.021": 0.0,
			"-0.02": 0.386434633886,
			"-0.019": 0.923229104248,
			"-0.018": 1.1621695529,
			"-0.017": 0.42698394862,
			"-0.016": 0.557813556829,
			"-0.015": 1.22426003938,
			"-0.014": 1.79501283298,
			"-0.013": 0.750322738915,
			"-0.012": 1.09601773934,
			"-0.011": 0.894609766821,
			"-0.01": 1.05269632134,
			"-0.009": 1.31920341615,
			"-0.008": 1.19747747468,
			"-0.007": 7.41299635537,
			"-0.006": 23.2177598539,
			"-0.005": 27.1850208069,
			"-0.004": 32.5276164877,
			"-0.003": 32.1623738924,
			"-0.002": 35.4261266914,
			"-0.001": 38.2945333646,
			"0.0": 34.0243675765,
			"0.001": 34.0437002051,
			"0.002": 33.36181342,
			"0.003": 28.5575314744,
			"0.004": 22.7209329839,
			"0.005": 10.2588767796,
			"0.006": 7.86681875609,
			"0.007": 7.28821758039,
			"0.008": 8.06738633825,
			"0.009": 7.61596216428,
			"0.01": 7.935273453,
			"0.011": 6.04034851146,
			"0.012": 4.3699262116,
			"0.013": 3.31862553309,
			"0.014": 1.98054180435,
			"0.015": 0.0642522256664,
			"0.016": 0.0,
			"0.017": 0.0,
			"0.018": 0.0,
			"0.019": 0.0,
			"0.02": 0.0,
			"0.021": 0.0,
			"0.022": 0.0,
			"0.023": 0.0,
			"0.024": 0.0,
			"0.025": 0.0
		}
	}
}
