{
	 "smiles": "CCS(=O)(=O)C1=CC(=CC=C1)C(O)=O", 
	 "Tm": 434.15, 
	 "num_atms": 24, 
	 "gaussian": { 
		 "optdone": 1, 
		 "sigma_profile": "yes", 
		 "theory": "DFT", 
		 "functional": "B3LYP", 
		 "basiset": "6-31G**", 
		 "properties": { 
			 "R2extent": 3590.0023, 
			 "electric_dipole_moment_norm": 3.73946874034, 
			 "electric_quadrupole_moment_norm": 26.1253017439, 
			 "total_energy": -1048.01601211, 
			 "HOMO_LUMO_gap": 0.21018, 
			 "cosmo_polarized_energy": -21.95, 
			 "cosmo_cavitation_energy": 29.71, 
			 "cosmo_dispersion_energy": -21.5, 
			 "cosmo_repulsion_energy": 1.66, 
			 "cosmo_total_nonelectrostatic_energy": 9.86, 
			 "SMD_solvation_energy": 5.66 
		},
		"coords": [
			{
				"x": -1.1086935255,
				"y": -2.0197518566,
				"z": -1.9711435759,
				"element": "C" 
			},
			{
				"x": -0.0950326461,
				"y": -2.700562579,
				"z": -1.0590765615,
				"element": "C" 
			},
			{
				"x": 1.0342801147,
				"y": -1.5444140222,
				"z": -0.2164665504,
				"element": "S" 
			},
			{
				"x": 1.5198729691,
				"y": -0.5737936573,
				"z": -1.2135801734,
				"element": "O" 
			},
			{
				"x": 1.9658739257,
				"y": -2.3575854308,
				"z": 0.5807264266,
				"element": "O" 
			},
			{
				"x": -0.0149640929,
				"y": -0.6349681957,
				"z": 0.93728731,
				"element": "C" 
			},
			{
				"x": -0.4839543745,
				"y": 0.6256351769,
				"z": 0.5704835166,
				"element": "C" 
			},
			{
				"x": -1.2898998687,
				"y": 1.3438545832,
				"z": 1.4618598273,
				"element": "C" 
			},
			{
				"x": -1.6282860162,
				"y": 0.77435747,
				"z": 2.6977029289,
				"element": "C" 
			},
			{
				"x": -1.1344344773,
				"y": -0.4770155774,
				"z": 3.0607118262,
				"element": "C" 
			},
			{
				"x": -0.3158193225,
				"y": -1.1900119823,
				"z": 2.1821308147,
				"element": "C" 
			},
			{
				"x": -1.8499487371,
				"y": 2.7013780339,
				"z": 1.1424986028,
				"element": "C" 
			},
			{
				"x": -1.2192810064,
				"y": 3.4158190345,
				"z": 0.1774150717,
				"element": "O" 
			},
			{
				"x": -2.8191967825,
				"y": 3.1557594807,
				"z": 1.7023892735,
				"element": "O" 
			},
			{
				"x": -1.7959930347,
				"y": -1.3827240906,
				"z": -1.4070183539,
				"element": "H" 
			},
			{
				"x": -0.6025920292,
				"y": -1.408815692,
				"z": -2.7220060848,
				"element": "H" 
			},
			{
				"x": -1.7039366151,
				"y": -2.7792309233,
				"z": -2.4865377394,
				"element": "H" 
			},
			{
				"x": 0.5911716996,
				"y": -3.3475521157,
				"z": -1.6151239661,
				"element": "H" 
			},
			{
				"x": -0.5596863683,
				"y": -3.2987322267,
				"z": -0.2701662195,
				"element": "H" 
			},
			{
				"x": -0.2150103414,
				"y": 1.0082431206,
				"z": -0.4096757104,
				"element": "H" 
			},
			{
				"x": -2.2742054275,
				"y": 1.3381764642,
				"z": 3.3620885871,
				"element": "H" 
			},
			{
				"x": -1.3806230258,
				"y": -0.8966818986,
				"z": 4.0310091195,
				"element": "H" 
			},
			{
				"x": 0.1005283088,
				"y": -2.1532161379,
				"z": 2.458541235,
				"element": "H" 
			},
			{
				"x": -0.3756693264,
				"y": 3.0064330219,
				"z": -0.0609496047,
				"element": "H" 
			}
		],
		 "valence_orbital": [ 
			{
				"type": "occ",
				"energy": -0.30874,
				"method": "rhf"
			},
			{
				"type": "occ",
				"energy": -0.30119,
				"method": "rhf"
			},
			{
				"type": "occ",
				"energy": -0.2948,
				"method": "rhf"
			},
			{
				"type": "occ",
				"energy": -0.28989,
				"method": "rhf"
			},
			{
				"type": "occ",
				"energy": -0.2826,
				"method": "rhf"
			},
			{
				"type": "unocc",
				"energy": -0.07242,
				"method": "rhf"
			},
			{
				"type": "unocc",
				"energy": -0.05533,
				"method": "rhf"
			},
			{
				"type": "unocc",
				"energy": 0.02302,
				"method": "rhf"
			},
			{
				"type": "unocc",
				"energy": 0.04287,
				"method": "rhf"
			},
			{
				"type": "unocc",
				"energy": 0.0666,
				"method": "rhf"
			}
		],
		"cosmo_sigma_profile": { 
			"-0.025": 0.0,
			"-0.024": 0.0,
			"-0.023": 0.0,
			"-0.022": 0.0,
			"-0.021": 0.0,
			"-0.02": 0.201631626989,
			"-0.019": 0.695234269916,
			"-0.018": 0.74909662361,
			"-0.017": 1.51442653932,
			"-0.016": 0.807498115341,
			"-0.015": 0.657229440271,
			"-0.014": 0.87899976175,
			"-0.013": 1.26779406941,
			"-0.012": 1.29669788642,
			"-0.011": 1.34142329551,
			"-0.01": 0.700819728129,
			"-0.009": 1.61805601319,
			"-0.008": 8.66243626471,
			"-0.007": 12.5983575585,
			"-0.006": 12.9275471585,
			"-0.005": 13.8788949981,
			"-0.004": 20.1454784468,
			"-0.003": 17.5596920411,
			"-0.002": 14.7354786403,
			"-0.001": 16.1788133764,
			"0.0": 16.2352524889,
			"0.001": 13.9872990949,
			"0.002": 7.03351924239,
			"0.003": 4.53793060219,
			"0.004": 4.29346863718,
			"0.005": 5.2279992265,
			"0.006": 3.28305466748,
			"0.007": 5.67095199334,
			"0.008": 6.21705374396,
			"0.009": 6.8846329859,
			"0.01": 9.78569908799,
			"0.011": 13.9642882476,
			"0.012": 10.1519368308,
			"0.013": 0.95241017448,
			"0.014": 0.0,
			"0.015": 0.0,
			"0.016": 0.0,
			"0.017": 0.0,
			"0.018": 0.0,
			"0.019": 0.0,
			"0.02": 0.0,
			"0.021": 0.0,
			"0.022": 0.0,
			"0.023": 0.0,
			"0.024": 0.0,
			"0.025": 0.0
		}
	}
}
