{
	 "smiles": "OC(=O)C1=CC=C(SCC#N)C=C1", 
	 "Tm": 543.15, 
	 "num_atms": 20, 
	 "gaussian": { 
		 "optdone": 1, 
		 "sigma_profile": "yes", 
		 "theory": "DFT", 
		 "functional": "B3LYP", 
		 "basiset": "6-31G**", 
		 "properties": { 
			 "R2extent": 4051.817, 
			 "electric_dipole_moment_norm": 6.00631565188, 
			 "electric_quadrupole_moment_norm": 9.27356892302, 
			 "total_energy": -950.542684781, 
			 "HOMO_LUMO_gap": 0.18719, 
			 "cosmo_polarized_energy": -20.77, 
			 "cosmo_cavitation_energy": 27.81, 
			 "cosmo_dispersion_energy": -19.81, 
			 "cosmo_repulsion_energy": 1.53, 
			 "cosmo_total_nonelectrostatic_energy": 9.52, 
			 "SMD_solvation_energy": 6.88 
		},
		"coords": [
			{
				"x": -0.0939954743,
				"y": -2.3301776818,
				"z": -2.9781410497,
				"element": "O" 
			},
			{
				"x": 0.790752015,
				"y": -2.1050467571,
				"z": -1.9708922177,
				"element": "C" 
			},
			{
				"x": 1.5153317247,
				"y": -2.9927142447,
				"z": -1.5898490614,
				"element": "O" 
			},
			{
				"x": 0.8059108649,
				"y": -0.7243360551,
				"z": -1.3803403592,
				"element": "C" 
			},
			{
				"x": -0.2832358559,
				"y": 0.1533795681,
				"z": -1.4656799304,
				"element": "C" 
			},
			{
				"x": -0.2191412434,
				"y": 1.415439186,
				"z": -0.8767965865,
				"element": "C" 
			},
			{
				"x": 0.9440766374,
				"y": 1.817775373,
				"z": -0.2084144369,
				"element": "C" 
			},
			{
				"x": 1.0292867289,
				"y": 3.4788170055,
				"z": 0.4693815194,
				"element": "S" 
			},
			{
				"x": 0.8859118049,
				"y": 3.1431030121,
				"z": 2.284602662,
				"element": "C" 
			},
			{
				"x": 2.0602942474,
				"y": 2.4989181958,
				"z": 2.8647641688,
				"element": "C" 
			},
			{
				"x": 2.9981694298,
				"y": 1.9764987704,
				"z": 3.3070593505,
				"element": "N" 
			},
			{
				"x": 2.0390274049,
				"y": 0.9438020304,
				"z": -0.1243884588,
				"element": "C" 
			},
			{
				"x": 1.9575824746,
				"y": -0.3256871981,
				"z": -0.6882129842,
				"element": "C" 
			},
			{
				"x": -0.4744109083,
				"y": -1.4958197579,
				"z": -3.2854773751,
				"element": "H" 
			},
			{
				"x": -1.2082134049,
				"y": -0.150607931,
				"z": -1.9496567426,
				"element": "H" 
			},
			{
				"x": -1.0694753666,
				"y": 2.0873502258,
				"z": -0.928743307,
				"element": "H" 
			},
			{
				"x": -0.0054843639,
				"y": 2.5411128638,
				"z": 2.4800767602,
				"element": "H" 
			},
			{
				"x": 0.7413360441,
				"y": 4.1252475754,
				"z": 2.744855323,
				"element": "H" 
			},
			{
				"x": 2.9438176482,
				"y": 1.2566446445,
				"z": 0.3849384233,
				"element": "H" 
			},
			{
				"x": 2.7853595925,
				"y": -1.0225988253,
				"z": -0.6143856975,
				"element": "H" 
			}
		],
		 "valence_orbital": [ 
			{
				"type": "occ",
				"energy": -0.3251,
				"method": "rhf"
			},
			{
				"type": "occ",
				"energy": -0.28992,
				"method": "rhf"
			},
			{
				"type": "occ",
				"energy": -0.28652,
				"method": "rhf"
			},
			{
				"type": "occ",
				"energy": -0.27899,
				"method": "rhf"
			},
			{
				"type": "occ",
				"energy": -0.26055,
				"method": "rhf"
			},
			{
				"type": "unocc",
				"energy": -0.07336,
				"method": "rhf"
			},
			{
				"type": "unocc",
				"energy": -0.03763,
				"method": "rhf"
			},
			{
				"type": "unocc",
				"energy": -0.01562,
				"method": "rhf"
			},
			{
				"type": "unocc",
				"energy": 0.01924,
				"method": "rhf"
			},
			{
				"type": "unocc",
				"energy": 0.02533,
				"method": "rhf"
			}
		],
		"cosmo_sigma_profile": { 
			"-0.025": 0.0,
			"-0.024": 0.0,
			"-0.023": 0.0,
			"-0.022": 0.0,
			"-0.021": 0.0,
			"-0.02": 0.0,
			"-0.019": 0.62080362239,
			"-0.018": 0.705014440434,
			"-0.017": 1.32267948148,
			"-0.016": 1.17889551608,
			"-0.015": 0.620958370983,
			"-0.014": 0.649129633964,
			"-0.013": 1.23659071458,
			"-0.012": 1.66460328467,
			"-0.011": 2.93124733798,
			"-0.01": 5.73605238718,
			"-0.009": 5.62966502991,
			"-0.008": 6.08286094577,
			"-0.007": 10.5126634793,
			"-0.006": 11.5647500342,
			"-0.005": 9.27547221382,
			"-0.004": 9.32000038538,
			"-0.003": 11.3751184033,
			"-0.002": 12.5238795598,
			"-0.001": 11.6299050076,
			"0.0": 13.0828066694,
			"0.001": 17.6709026448,
			"0.002": 16.9433030584,
			"0.003": 10.6524533168,
			"0.004": 5.96424920154,
			"0.005": 7.61625770919,
			"0.006": 6.18033190208,
			"0.007": 6.23985138643,
			"0.008": 7.29041271044,
			"0.009": 5.98793352759,
			"0.01": 8.02628485917,
			"0.011": 7.82013318754,
			"0.012": 6.02615400736,
			"0.013": 1.91376645049,
			"0.014": 0.0,
			"0.015": 0.0,
			"0.016": 0.0,
			"0.017": 0.0,
			"0.018": 0.0,
			"0.019": 0.0,
			"0.02": 0.0,
			"0.021": 0.0,
			"0.022": 0.0,
			"0.023": 0.0,
			"0.024": 0.0,
			"0.025": 0.0
		}
	}
}
