{
	 "smiles": "CCC[C@@H]1C[C@H](N(C)C1)C(=O)N[C@@H]([C@@H](C)O)[C@@H]1O[C@H](SC)[C@H](O)[C@@H](O)[C@H]1O", 
	 "Tm": 568.15, 
	 "num_atms": 61, 
	 "gaussian": { 
		 "optdone": 1, 
		 "sigma_profile": "yes", 
		 "theory": "DFT", 
		 "functional": "B3LYP", 
		 "basiset": "6-31G**", 
		 "properties": { 
			 "R2extent": 16187.8958, 
			 "electric_dipole_moment_norm": 3.39818889116, 
			 "electric_quadrupole_moment_norm": 20.4218264012, 
			 "total_energy": -1665.4280982, 
			 "HOMO_LUMO_gap": 0.22151, 
			 "cosmo_polarized_energy": -24.46, 
			 "cosmo_cavitation_energy": 59.54, 
			 "cosmo_dispersion_energy": -39.12, 
			 "cosmo_repulsion_energy": 2.96, 
			 "cosmo_total_nonelectrostatic_energy": 23.38, 
			 "SMD_solvation_energy": 7.48 
		},
		"coords": [
			{
				"x": -5.1797054251,
				"y": -4.4795701885,
				"z": -2.2100681684,
				"element": "C" 
			},
			{
				"x": -5.8467906792,
				"y": -3.2999738939,
				"z": -1.4926871393,
				"element": "C" 
			},
			{
				"x": -4.9991298129,
				"y": -2.6779248604,
				"z": -0.368603757,
				"element": "C" 
			},
			{
				"x": -3.6891326457,
				"y": -2.0227654661,
				"z": -0.8179802395,
				"element": "C" 
			},
			{
				"x": -2.866782704,
				"y": -1.4158442014,
				"z": 0.3369527639,
				"element": "C" 
			},
			{
				"x": -1.9650071909,
				"y": -0.3593859619,
				"z": -0.3378966114,
				"element": "C" 
			},
			{
				"x": -2.5293424323,
				"y": -0.1713377419,
				"z": -1.6915960492,
				"element": "N" 
			},
			{
				"x": -2.4778322302,
				"y": 1.1795660412,
				"z": -2.2102812928,
				"element": "C" 
			},
			{
				"x": -3.8423939463,
				"y": -0.8114701853,
				"z": -1.7439736575,
				"element": "C" 
			},
			{
				"x": -0.5127216012,
				"y": -0.8514381496,
				"z": -0.4733375874,
				"element": "C" 
			},
			{
				"x": -0.2273194051,
				"y": -2.0379698319,
				"z": -0.6071107049,
				"element": "O" 
			},
			{
				"x": 0.4371499978,
				"y": 0.1292576214,
				"z": -0.4702443327,
				"element": "N" 
			},
			{
				"x": 1.8561487008,
				"y": -0.1626807495,
				"z": -0.5852645637,
				"element": "C" 
			},
			{
				"x": 2.570264474,
				"y": 1.0737002008,
				"z": -1.1810207522,
				"element": "C" 
			},
			{
				"x": 2.2134338887,
				"y": 1.3240330937,
				"z": -2.6409927851,
				"element": "C" 
			},
			{
				"x": 2.2185460838,
				"y": 2.2482650763,
				"z": -0.4474180946,
				"element": "O" 
			},
			{
				"x": 2.4364801666,
				"y": -0.6233652982,
				"z": 0.768792123,
				"element": "C" 
			},
			{
				"x": 2.3316245915,
				"y": 0.4907731626,
				"z": 1.6890583903,
				"element": "O" 
			},
			{
				"x": 2.881003174,
				"y": 0.178014017,
				"z": 2.9635264588,
				"element": "C" 
			},
			{
				"x": 2.311343287,
				"y": 1.387798207,
				"z": 4.2117601457,
				"element": "S" 
			},
			{
				"x": 2.658193032,
				"y": 2.9801937206,
				"z": 3.3732643527,
				"element": "C" 
			},
			{
				"x": 4.426669635,
				"y": -0.0019461832,
				"z": 2.8764392184,
				"element": "C" 
			},
			{
				"x": 5.2090142561,
				"y": 1.0888079866,
				"z": 3.3459690707,
				"element": "O" 
			},
			{
				"x": 4.8444398271,
				"y": -0.204124391,
				"z": 1.4162746528,
				"element": "C" 
			},
			{
				"x": 6.1440001928,
				"y": -0.773618475,
				"z": 1.333486183,
				"element": "O" 
			},
			{
				"x": 3.8883167386,
				"y": -1.156596083,
				"z": 0.7001438732,
				"element": "C" 
			},
			{
				"x": 3.9116482379,
				"y": -2.4304902192,
				"z": 1.3345079444,
				"element": "O" 
			},
			{
				"x": -4.9153089744,
				"y": -5.2729124124,
				"z": -1.5012470681,
				"element": "H" 
			},
			{
				"x": -5.849506761,
				"y": -4.9137934883,
				"z": -2.959740923,
				"element": "H" 
			},
			{
				"x": -4.2613192107,
				"y": -4.1794217849,
				"z": -2.7247046777,
				"element": "H" 
			},
			{
				"x": -6.1096978983,
				"y": -2.5261601753,
				"z": -2.2262090391,
				"element": "H" 
			},
			{
				"x": -6.7978161998,
				"y": -3.6372449091,
				"z": -1.0608453308,
				"element": "H" 
			},
			{
				"x": -4.7671410785,
				"y": -3.4560145642,
				"z": 0.3721384722,
				"element": "H" 
			},
			{
				"x": -5.6043013669,
				"y": -1.9268244262,
				"z": 0.1590859835,
				"element": "H" 
			},
			{
				"x": -3.0527626752,
				"y": -2.7560833555,
				"z": -1.3259038118,
				"element": "H" 
			},
			{
				"x": -3.5374768732,
				"y": -0.923630585,
				"z": 1.0514353836,
				"element": "H" 
			},
			{
				"x": -2.2832742585,
				"y": -2.1670383167,
				"z": 0.8725636535,
				"element": "H" 
			},
			{
				"x": -1.9783265664,
				"y": 0.585952843,
				"z": 0.2332672938,
				"element": "H" 
			},
			{
				"x": -2.8502984554,
				"y": 1.1940946226,
				"z": -3.2399359499,
				"element": "H" 
			},
			{
				"x": -3.0793078672,
				"y": 1.9007958098,
				"z": -1.6213051684,
				"element": "H" 
			},
			{
				"x": -1.4440079039,
				"y": 1.5388397873,
				"z": -2.2314119831,
				"element": "H" 
			},
			{
				"x": -4.6502568776,
				"y": -0.1490219734,
				"z": -1.3684499945,
				"element": "H" 
			},
			{
				"x": -4.0902578348,
				"y": -1.0762065164,
				"z": -2.7787618836,
				"element": "H" 
			},
			{
				"x": 0.1991723942,
				"y": 1.0853203318,
				"z": -0.2453662157,
				"element": "H" 
			},
			{
				"x": 1.9608868622,
				"y": -1.0172165969,
				"z": -1.2624833244,
				"element": "H" 
			},
			{
				"x": 3.6564489358,
				"y": 0.9011186506,
				"z": -1.1177251221,
				"element": "H" 
			},
			{
				"x": 2.6994191528,
				"y": 2.2410284864,
				"z": -2.9845311036,
				"element": "H" 
			},
			{
				"x": 1.1332381271,
				"y": 1.4385918165,
				"z": -2.7641033295,
				"element": "H" 
			},
			{
				"x": 2.5474875565,
				"y": 0.4933171012,
				"z": -3.2699097419,
				"element": "H" 
			},
			{
				"x": 2.4012853398,
				"y": 2.0452649811,
				"z": 0.4843664026,
				"element": "H" 
			},
			{
				"x": 1.8115622578,
				"y": -1.4464941444,
				"z": 1.1369919879,
				"element": "H" 
			},
			{
				"x": 2.4518662459,
				"y": -0.772893981,
				"z": 3.307891094,
				"element": "H" 
			},
			{
				"x": 3.6928417706,
				"y": 3.0155588503,
				"z": 3.0322052878,
				"element": "H" 
			},
			{
				"x": 1.9682056763,
				"y": 3.1350565985,
				"z": 2.5425049529,
				"element": "H" 
			},
			{
				"x": 2.4901757237,
				"y": 3.7585778326,
				"z": 4.1207110182,
				"element": "H" 
			},
			{
				"x": 4.6816208344,
				"y": -0.913321956,
				"z": 3.4339371847,
				"element": "H" 
			},
			{
				"x": 4.9625166966,
				"y": 1.2432593824,
				"z": 4.2703362208,
				"element": "H" 
			},
			{
				"x": 4.8179610381,
				"y": 0.7812102105,
				"z": 0.9288113139,
				"element": "H" 
			},
			{
				"x": 6.7170026503,
				"y": -0.2451643472,
				"z": 1.9068097452,
				"element": "H" 
			},
			{
				"x": 4.2119000217,
				"y": -1.2517856037,
				"z": -0.3476338295,
				"element": "H" 
			},
			{
				"x": 4.846051307,
				"y": -2.6824654151,
				"z": 1.3873130608,
				"element": "H" 
			}
		],
		 "valence_orbital": [ 
			{
				"type": "occ",
				"energy": -0.26903,
				"method": "rhf"
			},
			{
				"type": "occ",
				"energy": -0.24997,
				"method": "rhf"
			},
			{
				"type": "occ",
				"energy": -0.24443,
				"method": "rhf"
			},
			{
				"type": "occ",
				"energy": -0.24197,
				"method": "rhf"
			},
			{
				"type": "occ",
				"energy": -0.20053,
				"method": "rhf"
			},
			{
				"type": "unocc",
				"energy": 0.02098,
				"method": "rhf"
			},
			{
				"type": "unocc",
				"energy": 0.02973,
				"method": "rhf"
			},
			{
				"type": "unocc",
				"energy": 0.04812,
				"method": "rhf"
			},
			{
				"type": "unocc",
				"energy": 0.06327,
				"method": "rhf"
			},
			{
				"type": "unocc",
				"energy": 0.06762,
				"method": "rhf"
			}
		],
		"cosmo_sigma_profile": { 
			"-0.025": 0.0,
			"-0.024": 0.0,
			"-0.023": 0.0,
			"-0.022": 0.0,
			"-0.021": 0.0,
			"-0.02": 0.0,
			"-0.019": 0.0,
			"-0.018": 0.0,
			"-0.017": 0.0,
			"-0.016": 0.0,
			"-0.015": 0.10707633234,
			"-0.014": 0.612832792721,
			"-0.013": 1.84877520266,
			"-0.012": 1.83718987008,
			"-0.011": 2.46518377398,
			"-0.01": 3.27812089107,
			"-0.009": 3.09665451979,
			"-0.008": 3.32483545471,
			"-0.007": 11.1935427935,
			"-0.006": 18.9404153245,
			"-0.005": 20.6312392023,
			"-0.004": 23.7695258519,
			"-0.003": 38.8190373649,
			"-0.002": 62.1115674052,
			"-0.001": 60.931633032,
			"0.0": 53.7384970193,
			"0.001": 37.0145031813,
			"0.002": 17.6820418267,
			"0.003": 11.1395045393,
			"0.004": 10.4168251961,
			"0.005": 10.2554273369,
			"0.006": 9.49155310538,
			"0.007": 9.64608915183,
			"0.008": 7.26116805267,
			"0.009": 8.40034953095,
			"0.01": 6.76132637827,
			"0.011": 6.82976970218,
			"0.012": 6.51076776275,
			"0.013": 5.65460660907,
			"0.014": 6.25865570852,
			"0.015": 0.839465141204,
			"0.016": 0.0,
			"0.017": 0.0,
			"0.018": 0.0,
			"0.019": 0.0,
			"0.02": 0.0,
			"0.021": 0.0,
			"0.022": 0.0,
			"0.023": 0.0,
			"0.024": 0.0,
			"0.025": 0.0
		}
	}
}
