{
	 "smiles": "CCOC=C1C(=O)N(C(=O)C2=C1C=CC=C2)C1=CC=C(OCC)C=C1", 
	 "Tm": 449.15, 
	 "num_atms": 44, 
	 "gaussian": { 
		 "optdone": 1, 
		 "sigma_profile": "yes", 
		 "theory": "DFT", 
		 "functional": "B3LYP", 
		 "basiset": "6-31G**", 
		 "properties": { 
			 "R2extent": 12006.1033, 
			 "electric_dipole_moment_norm": 5.02829176659, 
			 "electric_quadrupole_moment_norm": 28.58862752, 
			 "total_energy": -1129.23160946, 
			 "HOMO_LUMO_gap": 0.14945, 
			 "cosmo_polarized_energy": -23.48, 
			 "cosmo_cavitation_energy": 48.43, 
			 "cosmo_dispersion_energy": -34.2, 
			 "cosmo_repulsion_energy": 2.62, 
			 "cosmo_total_nonelectrostatic_energy": 16.86, 
			 "SMD_solvation_energy": 10.26 
		},
		"coords": [
			{
				"x": 2.7953473023,
				"y": -1.343749643,
				"z": -4.8670616497,
				"element": "C" 
			},
			{
				"x": 3.5046930484,
				"y": -0.9991345971,
				"z": -3.5722380285,
				"element": "C" 
			},
			{
				"x": 2.52231311,
				"y": -0.462261766,
				"z": -2.6641960225,
				"element": "O" 
			},
			{
				"x": 2.9863160539,
				"y": 0.0755628565,
				"z": -1.5389464823,
				"element": "C" 
			},
			{
				"x": 2.2217253476,
				"y": 0.4788774123,
				"z": -0.4852480854,
				"element": "C" 
			},
			{
				"x": 0.7602313005,
				"y": 0.2239261704,
				"z": -0.4973788793,
				"element": "C" 
			},
			{
				"x": 0.1376765885,
				"y": -0.1002818057,
				"z": -1.4943944784,
				"element": "O" 
			},
			{
				"x": 0.0915340618,
				"y": 0.335473964,
				"z": 0.7488415137,
				"element": "N" 
			},
			{
				"x": 0.6855543032,
				"y": 0.7444015142,
				"z": 1.9564870993,
				"element": "C" 
			},
			{
				"x": 0.0453015593,
				"y": 0.7625417922,
				"z": 2.9974928461,
				"element": "O" 
			},
			{
				"x": 2.1006670378,
				"y": 1.1856276906,
				"z": 1.8852472945,
				"element": "C" 
			},
			{
				"x": 2.8471587142,
				"y": 1.0954335128,
				"z": 0.6943571292,
				"element": "C" 
			},
			{
				"x": 4.1587774863,
				"y": 1.6114847377,
				"z": 0.7040748925,
				"element": "C" 
			},
			{
				"x": 4.7111664178,
				"y": 2.1452459622,
				"z": 1.8622688069,
				"element": "C" 
			},
			{
				"x": 3.9681348657,
				"y": 2.1992073141,
				"z": 3.04793637,
				"element": "C" 
			},
			{
				"x": 2.6632195079,
				"y": 1.7268719726,
				"z": 3.0498834947,
				"element": "C" 
			},
			{
				"x": -1.3147711441,
				"y": 0.0054224771,
				"z": 0.7739501905,
				"element": "C" 
			},
			{
				"x": -1.7464304118,
				"y": -1.167917208,
				"z": 1.3828236088,
				"element": "C" 
			},
			{
				"x": -3.1043649751,
				"y": -1.491521916,
				"z": 1.4208007585,
				"element": "C" 
			},
			{
				"x": -4.0380163827,
				"y": -0.6286819454,
				"z": 0.8340638348,
				"element": "C" 
			},
			{
				"x": -5.3851555422,
				"y": -0.8437677422,
				"z": 0.8095286231,
				"element": "O" 
			},
			{
				"x": -5.9031088316,
				"y": -2.0223672567,
				"z": 1.4230277116,
				"element": "C" 
			},
			{
				"x": -7.4121891616,
				"y": -2.001932957,
				"z": 1.2517959373,
				"element": "C" 
			},
			{
				"x": -3.5992448194,
				"y": 0.5527943269,
				"z": 0.216775134,
				"element": "C" 
			},
			{
				"x": -2.2479439253,
				"y": 0.8672083726,
				"z": 0.1906569905,
				"element": "C" 
			},
			{
				"x": 2.0014830417,
				"y": -2.072810697,
				"z": -4.6862085809,
				"element": "H" 
			},
			{
				"x": 2.3477075668,
				"y": -0.4507137678,
				"z": -5.3108440969,
				"element": "H" 
			},
			{
				"x": 3.5075945746,
				"y": -1.7704728873,
				"z": -5.5797790613,
				"element": "H" 
			},
			{
				"x": 4.2937042109,
				"y": -0.2522749292,
				"z": -3.7342410154,
				"element": "H" 
			},
			{
				"x": 3.9601142828,
				"y": -1.8884380279,
				"z": -3.1180439238,
				"element": "H" 
			},
			{
				"x": 4.0703307827,
				"y": 0.1719944235,
				"z": -1.4823570521,
				"element": "H" 
			},
			{
				"x": 4.7489586434,
				"y": 1.6229773886,
				"z": -0.20636401,
				"element": "H" 
			},
			{
				"x": 5.7247065333,
				"y": 2.5358711717,
				"z": 1.8376041562,
				"element": "H" 
			},
			{
				"x": 4.4017959098,
				"y": 2.6207858495,
				"z": 3.9493767391,
				"element": "H" 
			},
			{
				"x": 2.0423055155,
				"y": 1.765666323,
				"z": 3.9381097814,
				"element": "H" 
			},
			{
				"x": -1.0211624512,
				"y": -1.8327096538,
				"z": 1.8400757541,
				"element": "H" 
			},
			{
				"x": -3.4163309686,
				"y": -2.4079900293,
				"z": 1.9063814398,
				"element": "H" 
			},
			{
				"x": -5.6303953927,
				"y": -2.041707079,
				"z": 2.4878661106,
				"element": "H" 
			},
			{
				"x": -5.4678230445,
				"y": -2.9140247724,
				"z": 0.9494315104,
				"element": "H" 
			},
			{
				"x": -7.8553829812,
				"y": -2.8917933216,
				"z": 1.7094213032,
				"element": "H" 
			},
			{
				"x": -7.679293943,
				"y": -1.9866332259,
				"z": 0.1914302893,
				"element": "H" 
			},
			{
				"x": -7.8416214545,
				"y": -1.1158993957,
				"z": 1.7276621342,
				"element": "H" 
			},
			{
				"x": -4.3377675999,
				"y": 1.2072981782,
				"z": -0.2338417588,
				"element": "H" 
			},
			{
				"x": -1.9096147371,
				"y": 1.7799112134,
				"z": -0.2882283289,
				"element": "H" 
			}
		],
		 "valence_orbital": [ 
			{
				"type": "occ",
				"energy": -0.25719,
				"method": "rhf"
			},
			{
				"type": "occ",
				"energy": -0.2435,
				"method": "rhf"
			},
			{
				"type": "occ",
				"energy": -0.24009,
				"method": "rhf"
			},
			{
				"type": "occ",
				"energy": -0.21853,
				"method": "rhf"
			},
			{
				"type": "occ",
				"energy": -0.20794,
				"method": "rhf"
			},
			{
				"type": "unocc",
				"energy": -0.05849,
				"method": "rhf"
			},
			{
				"type": "unocc",
				"energy": -0.03122,
				"method": "rhf"
			},
			{
				"type": "unocc",
				"energy": -0.00036,
				"method": "rhf"
			},
			{
				"type": "unocc",
				"energy": 0.00869,
				"method": "rhf"
			},
			{
				"type": "unocc",
				"energy": 0.01997,
				"method": "rhf"
			}
		],
		"cosmo_sigma_profile": { 
			"-0.025": 0.0,
			"-0.024": 0.0,
			"-0.023": 0.0,
			"-0.022": 0.0,
			"-0.021": 0.0,
			"-0.02": 0.0,
			"-0.019": 0.0,
			"-0.018": 0.0,
			"-0.017": 0.0,
			"-0.016": 0.0,
			"-0.015": 0.0,
			"-0.014": 0.0,
			"-0.013": 0.0,
			"-0.012": 0.0,
			"-0.011": 0.562445302378,
			"-0.01": 2.2697906103,
			"-0.009": 2.79642767161,
			"-0.008": 2.78510281068,
			"-0.007": 7.91688313649,
			"-0.006": 21.7706144478,
			"-0.005": 31.445888785,
			"-0.004": 43.2444808992,
			"-0.003": 35.5135135641,
			"-0.002": 30.971319518,
			"-0.001": 27.2067096037,
			"0.0": 29.6571385062,
			"0.001": 22.8406768531,
			"0.002": 19.9758970786,
			"0.003": 22.3485241012,
			"0.004": 21.7962940422,
			"0.005": 10.1766742677,
			"0.006": 6.90054341672,
			"0.007": 6.49388515983,
			"0.008": 5.39179365939,
			"0.009": 5.23271109056,
			"0.01": 4.63545583299,
			"0.011": 4.48260010612,
			"0.012": 7.52625156572,
			"0.013": 7.82491498118,
			"0.014": 2.8421929501,
			"0.015": 1.11676205786,
			"0.016": 0.0196939432299,
			"0.017": 0.0,
			"0.018": 0.0,
			"0.019": 0.0,
			"0.02": 0.0,
			"0.021": 0.0,
			"0.022": 0.0,
			"0.023": 0.0,
			"0.024": 0.0,
			"0.025": 0.0
		}
	}
}
