{
	 "smiles": "CC(=O)OCC(N)=S", 
	 "Tm": 349.15, 
	 "num_atms": 15, 
	 "gaussian": { 
		 "optdone": 1, 
		 "sigma_profile": "yes", 
		 "theory": "DFT", 
		 "functional": "B3LYP", 
		 "basiset": "6-31G**", 
		 "properties": { 
			 "R2extent": 3195.2709, 
			 "electric_dipole_moment_norm": 5.67796965473, 
			 "electric_quadrupole_moment_norm": 18.1866580558, 
			 "total_energy": -760.048616682, 
			 "HOMO_LUMO_gap": 0.17987, 
			 "cosmo_polarized_energy": -16.83, 
			 "cosmo_cavitation_energy": 21.38, 
			 "cosmo_dispersion_energy": -16.07, 
			 "cosmo_repulsion_energy": 1.33, 
			 "cosmo_total_nonelectrostatic_energy": 6.65, 
			 "SMD_solvation_energy": 4.19 
		},
		"coords": [
			{
				"x": -1.4992580042,
				"y": 1.1080542677,
				"z": -0.5409699583,
				"element": "C" 
			},
			{
				"x": -0.3389311224,
				"y": 1.7368056066,
				"z": -1.2721289726,
				"element": "C" 
			},
			{
				"x": -0.3824246744,
				"y": 2.7269114872,
				"z": -1.9626174068,
				"element": "O" 
			},
			{
				"x": 0.8093848318,
				"y": 1.0340206808,
				"z": -1.0571899921,
				"element": "O" 
			},
			{
				"x": 1.9896511954,
				"y": 1.5470322448,
				"z": -1.7107901293,
				"element": "C" 
			},
			{
				"x": 3.1857421489,
				"y": 0.6727074827,
				"z": -1.3860497044,
				"element": "C" 
			},
			{
				"x": 2.9341185568,
				"y": -0.3709917295,
				"z": -0.585790123,
				"element": "N" 
			},
			{
				"x": 4.6783570126,
				"y": 1.0432122971,
				"z": -2.0146930065,
				"element": "S" 
			},
			{
				"x": -2.4008924783,
				"y": 1.6890610381,
				"z": -0.7307264743,
				"element": "H" 
			},
			{
				"x": -1.6436681093,
				"y": 0.077296151,
				"z": -0.8782639658,
				"element": "H" 
			},
			{
				"x": -1.2960589231,
				"y": 1.077900241,
				"z": 0.5336882974,
				"element": "H" 
			},
			{
				"x": 2.1835377904,
				"y": 2.5712489399,
				"z": -1.3825898847,
				"element": "H" 
			},
			{
				"x": 1.8366332979,
				"y": 1.5730395971,
				"z": -2.7925691864,
				"element": "H" 
			},
			{
				"x": 1.999165795,
				"y": -0.5350930874,
				"z": -0.240070347,
				"element": "H" 
			},
			{
				"x": 3.691142683,
				"y": -0.9894052171,
				"z": -0.3341391461,
				"element": "H" 
			}
		],
		 "valence_orbital": [ 
			{
				"type": "occ",
				"energy": -0.36614,
				"method": "rhf"
			},
			{
				"type": "occ",
				"energy": -0.32314,
				"method": "rhf"
			},
			{
				"type": "occ",
				"energy": -0.28958,
				"method": "rhf"
			},
			{
				"type": "occ",
				"energy": -0.23473,
				"method": "rhf"
			},
			{
				"type": "occ",
				"energy": -0.21499,
				"method": "rhf"
			},
			{
				"type": "unocc",
				"energy": -0.03512,
				"method": "rhf"
			},
			{
				"type": "unocc",
				"energy": -0.00533,
				"method": "rhf"
			},
			{
				"type": "unocc",
				"energy": 0.06478,
				"method": "rhf"
			},
			{
				"type": "unocc",
				"energy": 0.08775,
				"method": "rhf"
			},
			{
				"type": "unocc",
				"energy": 0.10148,
				"method": "rhf"
			}
		],
		"cosmo_sigma_profile": { 
			"-0.025": 0.0,
			"-0.024": 0.0,
			"-0.023": 0.0,
			"-0.022": 0.0,
			"-0.021": 0.0,
			"-0.02": 0.0,
			"-0.019": 0.0,
			"-0.018": 0.0,
			"-0.017": 0.0,
			"-0.016": 0.333354495169,
			"-0.015": 1.65117482653,
			"-0.014": 1.85380941508,
			"-0.013": 2.24806170101,
			"-0.012": 1.65298685291,
			"-0.011": 1.85874307219,
			"-0.01": 1.61345222708,
			"-0.009": 1.56549230348,
			"-0.008": 3.24945815596,
			"-0.007": 7.72448925666,
			"-0.006": 9.73706217691,
			"-0.005": 12.0536968873,
			"-0.004": 13.400137731,
			"-0.003": 13.8094112638,
			"-0.002": 14.355821833,
			"-0.001": 8.98517383105,
			"0.0": 6.39837718357,
			"0.001": 5.86575759553,
			"0.002": 4.56176540713,
			"0.003": 4.09275643954,
			"0.004": 4.00837874966,
			"0.005": 5.43548627019,
			"0.006": 4.12713951159,
			"0.007": 6.10807257353,
			"0.008": 6.35499174183,
			"0.009": 8.90710387669,
			"0.01": 7.19444135924,
			"0.011": 7.51538058309,
			"0.012": 4.93766670284,
			"0.013": 0.308341007423,
			"0.014": 0.0,
			"0.015": 0.0,
			"0.016": 0.0,
			"0.017": 0.0,
			"0.018": 0.0,
			"0.019": 0.0,
			"0.02": 0.0,
			"0.021": 0.0,
			"0.022": 0.0,
			"0.023": 0.0,
			"0.024": 0.0,
			"0.025": 0.0
		}
	}
}
