{
	 "smiles": "CCOC(=O)C1=C2NCCCN2N=C1", 
	 "Tm": 433.15, 
	 "num_atms": 27, 
	 "gaussian": { 
		 "optdone": 1, 
		 "sigma_profile": "yes", 
		 "theory": "DFT", 
		 "functional": "B3LYP", 
		 "basiset": "6-31G**", 
		 "properties": { 
			 "R2extent": 3352.6327, 
			 "electric_dipole_moment_norm": 5.87101862201, 
			 "electric_quadrupole_moment_norm": 10.9085583754, 
			 "total_energy": -665.501149979, 
			 "HOMO_LUMO_gap": 0.20404, 
			 "cosmo_polarized_energy": -14.43, 
			 "cosmo_cavitation_energy": 29.67, 
			 "cosmo_dispersion_energy": -21.96, 
			 "cosmo_repulsion_energy": 1.75, 
			 "cosmo_total_nonelectrostatic_energy": 9.46, 
			 "SMD_solvation_energy": 3.64 
		},
		"coords": [
			{
				"x": 2.0110615515,
				"y": -3.2833861048,
				"z": 0.8791209114,
				"element": "C" 
			},
			{
				"x": 2.5069819956,
				"y": -2.2966625919,
				"z": -0.1681309492,
				"element": "C" 
			},
			{
				"x": 1.5608376559,
				"y": -1.2250355236,
				"z": -0.376879973,
				"element": "O" 
			},
			{
				"x": 0.5546670639,
				"y": -1.4744807001,
				"z": -1.285493145,
				"element": "C" 
			},
			{
				"x": 0.4571183817,
				"y": -2.5303371776,
				"z": -1.883929471,
				"element": "O" 
			},
			{
				"x": -0.3369104331,
				"y": -0.339989062,
				"z": -1.4122397547,
				"element": "C" 
			},
			{
				"x": -0.2790350114,
				"y": 0.906199454,
				"z": -0.76716818,
				"element": "C" 
			},
			{
				"x": 0.627538111,
				"y": 1.4567034395,
				"z": 0.0977448605,
				"element": "N" 
			},
			{
				"x": 0.2273681069,
				"y": 2.6445501668,
				"z": 0.8441524083,
				"element": "C" 
			},
			{
				"x": -0.5002449751,
				"y": 3.6093331083,
				"z": -0.1027372136,
				"element": "C" 
			},
			{
				"x": -1.7257374754,
				"y": 2.9387757478,
				"z": -0.7395920899,
				"element": "C" 
			},
			{
				"x": -1.3494522425,
				"y": 1.6135237108,
				"z": -1.203369829,
				"element": "N" 
			},
			{
				"x": -2.1234002155,
				"y": 0.9100578291,
				"z": -2.0997142521,
				"element": "N" 
			},
			{
				"x": -1.5067492956,
				"y": -0.2506513967,
				"z": -2.2187579584,
				"element": "C" 
			},
			{
				"x": 2.7759873469,
				"y": -4.0442174217,
				"z": 1.0683928646,
				"element": "H" 
			},
			{
				"x": 1.791620317,
				"y": -2.7758663623,
				"z": 1.8237217508,
				"element": "H" 
			},
			{
				"x": 1.1061408894,
				"y": -3.7853605986,
				"z": 0.5288359575,
				"element": "H" 
			},
			{
				"x": 3.4246448752,
				"y": -1.7972302663,
				"z": 0.1548357907,
				"element": "H" 
			},
			{
				"x": 2.6850191747,
				"y": -2.7976765443,
				"z": -1.1222476487,
				"element": "H" 
			},
			{
				"x": 1.2507838078,
				"y": 0.7838724826,
				"z": 0.5226936307,
				"element": "H" 
			},
			{
				"x": 1.1261158581,
				"y": 3.1181757518,
				"z": 1.2495405798,
				"element": "H" 
			},
			{
				"x": -0.4286063852,
				"y": 2.3939353966,
				"z": 1.6944389368,
				"element": "H" 
			},
			{
				"x": 0.195670612,
				"y": 3.9265696719,
				"z": -0.8866780555,
				"element": "H" 
			},
			{
				"x": -0.8175251404,
				"y": 4.5016576216,
				"z": 0.4446893604,
				"element": "H" 
			},
			{
				"x": -2.0946707094,
				"y": 3.508842263,
				"z": -1.5962812609,
				"element": "H" 
			},
			{
				"x": -2.5476324294,
				"y": 2.8547940441,
				"z": -0.0167723549,
				"element": "H" 
			},
			{
				"x": -1.8961914346,
				"y": -1.0157969381,
				"z": -2.8763749157,
				"element": "H" 
			}
		],
		 "valence_orbital": [ 
			{
				"type": "occ",
				"energy": -0.28699,
				"method": "rhf"
			},
			{
				"type": "occ",
				"energy": -0.28241,
				"method": "rhf"
			},
			{
				"type": "occ",
				"energy": -0.2599,
				"method": "rhf"
			},
			{
				"type": "occ",
				"energy": -0.24437,
				"method": "rhf"
			},
			{
				"type": "occ",
				"energy": -0.2038,
				"method": "rhf"
			},
			{
				"type": "unocc",
				"energy": 0.00024,
				"method": "rhf"
			},
			{
				"type": "unocc",
				"energy": 0.03184,
				"method": "rhf"
			},
			{
				"type": "unocc",
				"energy": 0.07241,
				"method": "rhf"
			},
			{
				"type": "unocc",
				"energy": 0.09903,
				"method": "rhf"
			},
			{
				"type": "unocc",
				"energy": 0.11695,
				"method": "rhf"
			}
		],
		"cosmo_sigma_profile": { 
			"-0.025": 0.0,
			"-0.024": 0.0,
			"-0.023": 0.0,
			"-0.022": 0.0,
			"-0.021": 0.0,
			"-0.02": 0.0,
			"-0.019": 0.0,
			"-0.018": 0.0,
			"-0.017": 0.0,
			"-0.016": 0.0,
			"-0.015": 0.0,
			"-0.014": 0.0,
			"-0.013": 0.0,
			"-0.012": 0.238192524081,
			"-0.011": 0.676183635553,
			"-0.01": 0.787091937528,
			"-0.009": 0.839511437941,
			"-0.008": 0.960312371769,
			"-0.007": 2.49648482389,
			"-0.006": 8.34978170475,
			"-0.005": 22.4802915961,
			"-0.004": 29.0645679117,
			"-0.003": 28.8300115035,
			"-0.002": 20.7018121597,
			"-0.001": 16.8785641289,
			"0.0": 17.2952044693,
			"0.001": 13.4592348148,
			"0.002": 10.127884122,
			"0.003": 11.0985105592,
			"0.004": 9.952815072,
			"0.005": 6.28264108019,
			"0.006": 4.07855260653,
			"0.007": 3.54798961994,
			"0.008": 4.26828876923,
			"0.009": 3.00345297245,
			"0.01": 2.72728619648,
			"0.011": 3.29978019383,
			"0.012": 3.67063185193,
			"0.013": 5.45969079021,
			"0.014": 1.45843067625,
			"0.015": 1.17926869763,
			"0.016": 0.615832641766,
			"0.017": 0.0,
			"0.018": 0.0,
			"0.019": 0.0,
			"0.02": 0.0,
			"0.021": 0.0,
			"0.022": 0.0,
			"0.023": 0.0,
			"0.024": 0.0,
			"0.025": 0.0
		}
	}
}
