{
	 "smiles": "CN(C)CCC=C1C2=C(CSC3=C1C=CC=C3)C=CC=C2", 
	 "Tm": 329.15, 
	 "num_atms": 42, 
	 "gaussian": { 
		 "optdone": 1, 
		 "sigma_profile": "yes", 
		 "theory": "DFT", 
		 "functional": "B3LYP", 
		 "basiset": "6-31G**", 
		 "properties": { 
			 "R2extent": 7913.9256, 
			 "electric_dipole_moment_norm": 1.34123472219, 
			 "electric_quadrupole_moment_norm": 6.43768072212, 
			 "total_energy": -1189.59294902, 
			 "HOMO_LUMO_gap": 0.18175, 
			 "cosmo_polarized_energy": -8.85, 
			 "cosmo_cavitation_energy": 44.44, 
			 "cosmo_dispersion_energy": -30.74, 
			 "cosmo_repulsion_energy": 2.34, 
			 "cosmo_total_nonelectrostatic_energy": 16.04, 
			 "SMD_solvation_energy": 5.33 
		},
		"coords": [
			{
				"x": 0.8204494399,
				"y": -1.0951609854,
				"z": -4.1817813758,
				"element": "C" 
			},
			{
				"x": 1.323021481,
				"y": -0.50996157,
				"z": -2.945130954,
				"element": "N" 
			},
			{
				"x": 2.6586334536,
				"y": 0.0396381525,
				"z": -3.1387912763,
				"element": "C" 
			},
			{
				"x": 1.2594037856,
				"y": -1.458341238,
				"z": -1.8309846447,
				"element": "C" 
			},
			{
				"x": 1.308350349,
				"y": -0.7834422932,
				"z": -0.4463950991,
				"element": "C" 
			},
			{
				"x": 0.1402445859,
				"y": 0.1373658292,
				"z": -0.2256716051,
				"element": "C" 
			},
			{
				"x": -0.6599871273,
				"y": 0.2067438109,
				"z": 0.8577068317,
				"element": "C" 
			},
			{
				"x": -1.7811676499,
				"y": 1.2010591281,
				"z": 0.8735928304,
				"element": "C" 
			},
			{
				"x": -3.1065494489,
				"y": 0.9224317208,
				"z": 1.2809655201,
				"element": "C" 
			},
			{
				"x": -3.6007832104,
				"y": -0.3850879167,
				"z": 1.8796413713,
				"element": "C" 
			},
			{
				"x": -2.764242243,
				"y": -1.9576373897,
				"z": 1.4346039246,
				"element": "S" 
			},
			{
				"x": -1.2688280588,
				"y": -1.7178746499,
				"z": 2.3861290742,
				"element": "C" 
			},
			{
				"x": -0.402416503,
				"y": -0.6597172525,
				"z": 2.0513171991,
				"element": "C" 
			},
			{
				"x": 0.7415052488,
				"y": -0.4628027971,
				"z": 2.8387719598,
				"element": "C" 
			},
			{
				"x": 1.039153128,
				"y": -1.3130427061,
				"z": 3.9047994873,
				"element": "C" 
			},
			{
				"x": 0.1888537667,
				"y": -2.3773350932,
				"z": 4.2063958233,
				"element": "C" 
			},
			{
				"x": -0.9690993397,
				"y": -2.5727706756,
				"z": 3.4524995123,
				"element": "C" 
			},
			{
				"x": -4.0733796564,
				"y": 1.9350600824,
				"z": 1.1811932405,
				"element": "C" 
			},
			{
				"x": -3.7688602146,
				"y": 3.210401902,
				"z": 0.7142039882,
				"element": "C" 
			},
			{
				"x": -2.4594467607,
				"y": 3.496668949,
				"z": 0.3320245487,
				"element": "C" 
			},
			{
				"x": -1.4903055811,
				"y": 2.5024495806,
				"z": 0.4170960152,
				"element": "C" 
			},
			{
				"x": 0.820196874,
				"y": -0.3390495375,
				"z": -4.9738934124,
				"element": "H" 
			},
			{
				"x": -0.2093872586,
				"y": -1.436926741,
				"z": -4.0401272036,
				"element": "H" 
			},
			{
				"x": 1.4212504714,
				"y": -1.9552146383,
				"z": -4.5372306616,
				"element": "H" 
			},
			{
				"x": 2.6371094049,
				"y": 0.7840015434,
				"z": -3.941188805,
				"element": "H" 
			},
			{
				"x": 3.4089258739,
				"y": -0.7302760056,
				"z": -3.407315532,
				"element": "H" 
			},
			{
				"x": 3.0045797942,
				"y": 0.542876524,
				"z": -2.2319008223,
				"element": "H" 
			},
			{
				"x": 2.0665882495,
				"y": -2.2150805583,
				"z": -1.8946365438,
				"element": "H" 
			},
			{
				"x": 0.3116004891,
				"y": -2.0018852943,
				"z": -1.9108861414,
				"element": "H" 
			},
			{
				"x": 2.2486263923,
				"y": -0.2207118678,
				"z": -0.3516364149,
				"element": "H" 
			},
			{
				"x": 1.3470211401,
				"y": -1.5627802375,
				"z": 0.3202891577,
				"element": "H" 
			},
			{
				"x": -0.0950632194,
				"y": 0.7689269007,
				"z": -1.0796662988,
				"element": "H" 
			},
			{
				"x": -4.6443840892,
				"y": -0.538307658,
				"z": 1.5883898771,
				"element": "H" 
			},
			{
				"x": -3.5866255231,
				"y": -0.3246534714,
				"z": 2.9736277654,
				"element": "H" 
			},
			{
				"x": 1.4064214053,
				"y": 0.3618706524,
				"z": 2.5989312155,
				"element": "H" 
			},
			{
				"x": 1.9345108184,
				"y": -1.1441491379,
				"z": 4.4962364906,
				"element": "H" 
			},
			{
				"x": 0.4161138814,
				"y": -3.0445741638,
				"z": 5.0327994915,
				"element": "H" 
			},
			{
				"x": -1.6511464944,
				"y": -3.3833909547,
				"z": 3.6895859622,
				"element": "H" 
			},
			{
				"x": -5.0949874546,
				"y": 1.7091660966,
				"z": 1.4790497962,
				"element": "H" 
			},
			{
				"x": -4.5444253051,
				"y": 3.9683241548,
				"z": 0.6527380498,
				"element": "H" 
			},
			{
				"x": -2.1903150968,
				"y": 4.4870505199,
				"z": -0.0238291428,
				"element": "H" 
			},
			{
				"x": -0.4665597982,
				"y": 2.7302392866,
				"z": 0.1385768009,
				"element": "H" 
			}
		],
		 "valence_orbital": [ 
			{
				"type": "occ",
				"energy": -0.24455,
				"method": "rhf"
			},
			{
				"type": "occ",
				"energy": -0.2387,
				"method": "rhf"
			},
			{
				"type": "occ",
				"energy": -0.22205,
				"method": "rhf"
			},
			{
				"type": "occ",
				"energy": -0.21594,
				"method": "rhf"
			},
			{
				"type": "occ",
				"energy": -0.20826,
				"method": "rhf"
			},
			{
				"type": "unocc",
				"energy": -0.02651,
				"method": "rhf"
			},
			{
				"type": "unocc",
				"energy": -0.00865,
				"method": "rhf"
			},
			{
				"type": "unocc",
				"energy": -0.00113,
				"method": "rhf"
			},
			{
				"type": "unocc",
				"energy": 0.00339,
				"method": "rhf"
			},
			{
				"type": "unocc",
				"energy": 0.03765,
				"method": "rhf"
			}
		],
		"cosmo_sigma_profile": { 
			"-0.025": 0.0,
			"-0.024": 0.0,
			"-0.023": 0.0,
			"-0.022": 0.0,
			"-0.021": 0.0,
			"-0.02": 0.0,
			"-0.019": 0.0,
			"-0.018": 0.0,
			"-0.017": 0.0,
			"-0.016": 0.0,
			"-0.015": 0.0,
			"-0.014": 0.0,
			"-0.013": 0.0,
			"-0.012": 0.0,
			"-0.011": 0.0,
			"-0.01": 0.0,
			"-0.009": 0.0,
			"-0.008": 0.0,
			"-0.007": 1.57523848423,
			"-0.006": 12.4634663799,
			"-0.005": 18.6883084926,
			"-0.004": 29.9246815936,
			"-0.003": 32.4012494386,
			"-0.002": 34.0570797244,
			"-0.001": 45.273998269,
			"0.0": 41.9996122255,
			"0.001": 26.7567498861,
			"0.002": 22.9185100875,
			"0.003": 20.1016376594,
			"0.004": 19.9090231625,
			"0.005": 21.2207363574,
			"0.006": 11.2745536516,
			"0.007": 3.83202154612,
			"0.008": 3.72587560925,
			"0.009": 3.26099848984,
			"0.01": 2.24146374402,
			"0.011": 0.437295720028,
			"0.012": 0.56378825275,
			"0.013": 0.20884531968,
			"0.014": 0.0,
			"0.015": 0.0,
			"0.016": 0.0,
			"0.017": 0.0,
			"0.018": 0.0,
			"0.019": 0.0,
			"0.02": 0.0,
			"0.021": 0.0,
			"0.022": 0.0,
			"0.023": 0.0,
			"0.024": 0.0,
			"0.025": 0.0
		}
	}
}
