{
	 "smiles": "COC1=CC=C(C=C2/C(=O)NN=C2C2=C(O)C3=CC=CC=C3N(C)C2=O)C=C1", 
	 "Tm": 523.15, 
	 "num_atms": 45, 
	 "gaussian": { 
		 "optdone": 1, 
		 "sigma_profile": "yes", 
		 "theory": "DFT", 
		 "functional": "B3LYP", 
		 "basiset": "6-31G**", 
		 "properties": { 
			 "R2extent": 14295.271, 
			 "electric_dipole_moment_norm": 5.72432962451, 
			 "electric_quadrupole_moment_norm": 28.2175205424, 
			 "total_energy": -1275.6098111, 
			 "HOMO_LUMO_gap": 0.12555, 
			 "cosmo_polarized_energy": -29.24, 
			 "cosmo_cavitation_energy": 49.18, 
			 "cosmo_dispersion_energy": -35.19, 
			 "cosmo_repulsion_energy": 2.6, 
			 "cosmo_total_nonelectrostatic_energy": 16.59, 
			 "SMD_solvation_energy": 9.16 
		},
		"coords": [
			{
				"x": 6.7312761007,
				"y": 1.7292413973,
				"z": 3.5630222571,
				"element": "C" 
			},
			{
				"x": 6.231398184,
				"y": 0.9813680985,
				"z": 2.4616043537,
				"element": "O" 
			},
			{
				"x": 4.8871760298,
				"y": 0.8947724111,
				"z": 2.2916704451,
				"element": "C" 
			},
			{
				"x": 3.9352463243,
				"y": 1.4907993796,
				"z": 3.1329376227,
				"element": "C" 
			},
			{
				"x": 2.5774854512,
				"y": 1.3417818244,
				"z": 2.8709306464,
				"element": "C" 
			},
			{
				"x": 2.1283068459,
				"y": 0.5927460521,
				"z": 1.7615625224,
				"element": "C" 
			},
			{
				"x": 0.7435894094,
				"y": 0.376294581,
				"z": 1.4033649289,
				"element": "C" 
			},
			{
				"x": -0.4469951605,
				"y": 0.7662801108,
				"z": 1.9463287305,
				"element": "C" 
			},
			{
				"x": -0.7713433586,
				"y": 1.5894226685,
				"z": 3.1484221965,
				"element": "C" 
			},
			{
				"x": -0.071986623,
				"y": 2.1622136858,
				"z": 3.9839089288,
				"element": "O" 
			},
			{
				"x": -2.1509711036,
				"y": 1.5845011727,
				"z": 3.1543084367,
				"element": "N" 
			},
			{
				"x": -2.7368434809,
				"y": 0.8861198569,
				"z": 2.123779086,
				"element": "N" 
			},
			{
				"x": -1.7600111556,
				"y": 0.4025139862,
				"z": 1.405714347,
				"element": "C" 
			},
			{
				"x": -2.0563347156,
				"y": -0.4391265075,
				"z": 0.2258359165,
				"element": "C" 
			},
			{
				"x": -2.7357784601,
				"y": -1.622201452,
				"z": 0.3442391541,
				"element": "C" 
			},
			{
				"x": -3.0814629191,
				"y": -2.0549393012,
				"z": 1.5789331758,
				"element": "O" 
			},
			{
				"x": -3.0865795146,
				"y": -2.4055005037,
				"z": -0.8252457569,
				"element": "C" 
			},
			{
				"x": -3.8478620668,
				"y": -3.5871127462,
				"z": -0.7492869988,
				"element": "C" 
			},
			{
				"x": -4.1548190081,
				"y": -4.3279691948,
				"z": -1.8796295462,
				"element": "C" 
			},
			{
				"x": -3.7019211957,
				"y": -3.8835418802,
				"z": -3.1276988433,
				"element": "C" 
			},
			{
				"x": -2.9672985224,
				"y": -2.7116174204,
				"z": -3.2402812793,
				"element": "C" 
			},
			{
				"x": -2.6521597111,
				"y": -1.9464574373,
				"z": -2.0978840613,
				"element": "C" 
			},
			{
				"x": -1.9355471257,
				"y": -0.7657902645,
				"z": -2.1976347326,
				"element": "N" 
			},
			{
				"x": -1.4928706933,
				"y": -0.2833240912,
				"z": -3.5054941932,
				"element": "C" 
			},
			{
				"x": -1.6190571234,
				"y": 0.0442190219,
				"z": -1.0816275368,
				"element": "C" 
			},
			{
				"x": -0.9862131805,
				"y": 1.0879120155,
				"z": -1.2335116099,
				"element": "O" 
			},
			{
				"x": 3.1109956614,
				"y": 0.0022154963,
				"z": 0.9271686829,
				"element": "C" 
			},
			{
				"x": 4.4615395212,
				"y": 0.1453429032,
				"z": 1.180509082,
				"element": "C" 
			},
			{
				"x": 7.8182520814,
				"y": 1.6633722724,
				"z": 3.5002984989,
				"element": "H" 
			},
			{
				"x": 6.4277553812,
				"y": 2.7815784064,
				"z": 3.5055330726,
				"element": "H" 
			},
			{
				"x": 6.3971252361,
				"y": 1.3091501982,
				"z": 4.5194881202,
				"element": "H" 
			},
			{
				"x": 4.242493085,
				"y": 2.0737433559,
				"z": 3.9931049095,
				"element": "H" 
			},
			{
				"x": 1.8447160708,
				"y": 1.8059763253,
				"z": 3.522099333,
				"element": "H" 
			},
			{
				"x": 0.632230927,
				"y": -0.2264058545,
				"z": 0.5036309322,
				"element": "H" 
			},
			{
				"x": -2.7295916246,
				"y": 2.0711485575,
				"z": 3.8203230195,
				"element": "H" 
			},
			{
				"x": -3.362910363,
				"y": -2.9772595971,
				"z": 1.538012002,
				"element": "H" 
			},
			{
				"x": -4.2368067668,
				"y": -3.9267623328,
				"z": 0.2077967971,
				"element": "H" 
			},
			{
				"x": -4.7452903035,
				"y": -5.2342142054,
				"z": -1.7966246352,
				"element": "H" 
			},
			{
				"x": -3.9319453889,
				"y": -4.4527101433,
				"z": -4.0234256277,
				"element": "H" 
			},
			{
				"x": -2.6391842223,
				"y": -2.384924704,
				"z": -4.2182187532,
				"element": "H" 
			},
			{
				"x": -0.9680629752,
				"y": 0.6540853214,
				"z": -3.3353885158,
				"element": "H" 
			},
			{
				"x": -2.349077694,
				"y": -0.1101209043,
				"z": -4.1649644053,
				"element": "H" 
			},
			{
				"x": -0.8165092658,
				"y": -1.0040601137,
				"z": -3.9759977133,
				"element": "H" 
			},
			{
				"x": 2.7922201776,
				"y": -0.5757674695,
				"z": 0.0636508199,
				"element": "H" 
			},
			{
				"x": 5.2118272356,
				"y": -0.3061929751,
				"z": 0.5401361909,
				"element": "H" 
			}
		],
		 "valence_orbital": [ 
			{
				"type": "occ",
				"energy": -0.24732,
				"method": "rhf"
			},
			{
				"type": "occ",
				"energy": -0.23385,
				"method": "rhf"
			},
			{
				"type": "occ",
				"energy": -0.23016,
				"method": "rhf"
			},
			{
				"type": "occ",
				"energy": -0.21803,
				"method": "rhf"
			},
			{
				"type": "occ",
				"energy": -0.19719,
				"method": "rhf"
			},
			{
				"type": "unocc",
				"energy": -0.07164,
				"method": "rhf"
			},
			{
				"type": "unocc",
				"energy": -0.05628,
				"method": "rhf"
			},
			{
				"type": "unocc",
				"energy": -0.01618,
				"method": "rhf"
			},
			{
				"type": "unocc",
				"energy": -0.00051,
				"method": "rhf"
			},
			{
				"type": "unocc",
				"energy": 0.01683,
				"method": "rhf"
			}
		],
		"cosmo_sigma_profile": { 
			"-0.025": 0.0,
			"-0.024": 0.0,
			"-0.023": 0.0,
			"-0.022": 0.0,
			"-0.021": 0.0,
			"-0.02": 0.0185449511891,
			"-0.019": 0.589969786956,
			"-0.018": 1.08071791187,
			"-0.017": 0.897490283259,
			"-0.016": 0.969568015814,
			"-0.015": 1.88909627913,
			"-0.014": 2.17495221767,
			"-0.013": 2.20054448097,
			"-0.012": 2.01263601316,
			"-0.011": 1.82568013905,
			"-0.01": 1.8559064563,
			"-0.009": 1.94066802255,
			"-0.008": 3.67373530582,
			"-0.007": 11.6154419226,
			"-0.006": 29.1217629554,
			"-0.005": 29.6518776213,
			"-0.004": 27.3248019154,
			"-0.003": 22.7557157032,
			"-0.002": 23.1039582856,
			"-0.001": 24.1403102382,
			"0.0": 25.0118757636,
			"0.001": 28.5056565087,
			"0.002": 31.194564385,
			"0.003": 31.90319893,
			"0.004": 21.0823313931,
			"0.005": 8.95139572667,
			"0.006": 7.55078970713,
			"0.007": 6.29775087306,
			"0.008": 6.5159627152,
			"0.009": 6.72465894102,
			"0.01": 5.71174044994,
			"0.011": 6.38241717971,
			"0.012": 6.26659060941,
			"0.013": 7.43418236324,
			"0.014": 5.62463625515,
			"0.015": 0.746740310458,
			"0.016": 0.00644485227257,
			"0.017": 0.0,
			"0.018": 0.0,
			"0.019": 0.0,
			"0.02": 0.0,
			"0.021": 0.0,
			"0.022": 0.0,
			"0.023": 0.0,
			"0.024": 0.0,
			"0.025": 0.0
		}
	}
}
