{
	 "smiles": "CC(=O)N1CCN(CC(N)=S)CC1", 
	 "Tm": 473.15, 
	 "num_atms": 28, 
	 "gaussian": { 
		 "optdone": 1, 
		 "sigma_profile": "yes", 
		 "theory": "DFT", 
		 "functional": "B3LYP", 
		 "basiset": "6-31G**", 
		 "properties": { 
			 "R2extent": 5028.3642, 
			 "electric_dipole_moment_norm": 4.41484094391, 
			 "electric_quadrupole_moment_norm": 33.8154328633, 
			 "total_energy": -951.565201108, 
			 "HOMO_LUMO_gap": 0.1775, 
			 "cosmo_polarized_energy": -22.76, 
			 "cosmo_cavitation_energy": 31.32, 
			 "cosmo_dispersion_energy": -22.96, 
			 "cosmo_repulsion_energy": 1.79, 
			 "cosmo_total_nonelectrostatic_energy": 10.15, 
			 "SMD_solvation_energy": 3.67 
		},
		"coords": [
			{
				"x": -2.1008440521,
				"y": 2.1551317591,
				"z": -1.7638237283,
				"element": "C" 
			},
			{
				"x": -2.4912508824,
				"y": 1.5057629272,
				"z": -0.4438765855,
				"element": "C" 
			},
			{
				"x": -3.6663396723,
				"y": 1.3561487812,
				"z": -0.1246471221,
				"element": "O" 
			},
			{
				"x": -1.4648704549,
				"y": 1.1000511964,
				"z": 0.3783917778,
				"element": "N" 
			},
			{
				"x": -1.8023904516,
				"y": 0.39966945,
				"z": 1.6226298996,
				"element": "C" 
			},
			{
				"x": -0.7664745095,
				"y": -0.6792705571,
				"z": 1.9147540999,
				"element": "C" 
			},
			{
				"x": 0.5783054262,
				"y": -0.0989392635,
				"z": 2.1055465351,
				"element": "N" 
			},
			{
				"x": 1.6309006357,
				"y": -1.1055123313,
				"z": 1.9918448917,
				"element": "C" 
			},
			{
				"x": 1.8489099034,
				"y": -1.9006182113,
				"z": 3.2844463466,
				"element": "C" 
			},
			{
				"x": 1.3931602195,
				"y": -1.2729904016,
				"z": 4.3746469318,
				"element": "N" 
			},
			{
				"x": 2.6380259021,
				"y": -3.3638635113,
				"z": 3.289474676,
				"element": "S" 
			},
			{
				"x": 0.7803034563,
				"y": 1.1439972785,
				"z": 1.3392793457,
				"element": "C" 
			},
			{
				"x": -0.0426652197,
				"y": 1.2122676227,
				"z": 0.0472550553,
				"element": "C" 
			},
			{
				"x": -1.6055735633,
				"y": 3.1192366397,
				"z": -1.6021064804,
				"element": "H" 
			},
			{
				"x": -3.0161106864,
				"y": 2.3230036178,
				"z": -2.3304585264,
				"element": "H" 
			},
			{
				"x": -1.4213214135,
				"y": 1.5276137608,
				"z": -2.3496109918,
				"element": "H" 
			},
			{
				"x": -2.7934229236,
				"y": -0.038750675,
				"z": 1.4960494978,
				"element": "H" 
			},
			{
				"x": -1.8657394153,
				"y": 1.1053881735,
				"z": 2.4629276345,
				"element": "H" 
			},
			{
				"x": -1.0538015827,
				"y": -1.2328518515,
				"z": 2.8160236069,
				"element": "H" 
			},
			{
				"x": -0.7661711242,
				"y": -1.4047824246,
				"z": 1.0829411138,
				"element": "H" 
			},
			{
				"x": 1.460686133,
				"y": -1.830889046,
				"z": 1.1829276889,
				"element": "H" 
			},
			{
				"x": 2.5842170509,
				"y": -0.6090488174,
				"z": 1.7790568057,
				"element": "H" 
			},
			{
				"x": 1.5115756715,
				"y": -1.6902122927,
				"z": 5.2854600306,
				"element": "H" 
			},
			{
				"x": 0.9180058009,
				"y": -0.3854865918,
				"z": 4.2449309563,
				"element": "H" 
			},
			{
				"x": 0.5082495881,
				"y": 2.0058916022,
				"z": 1.9625468044,
				"element": "H" 
			},
			{
				"x": 1.8418006249,
				"y": 1.2497720652,
				"z": 1.0991472967,
				"element": "H" 
			},
			{
				"x": 0.274631912,
				"y": 0.4152831197,
				"z": -0.6430324504,
				"element": "H" 
			},
			{
				"x": 0.1550036268,
				"y": 2.167897981,
				"z": -0.4474251099,
				"element": "H" 
			}
		],
		 "valence_orbital": [ 
			{
				"type": "occ",
				"energy": -0.25036,
				"method": "rhf"
			},
			{
				"type": "occ",
				"energy": -0.24389,
				"method": "rhf"
			},
			{
				"type": "occ",
				"energy": -0.24155,
				"method": "rhf"
			},
			{
				"type": "occ",
				"energy": -0.22833,
				"method": "rhf"
			},
			{
				"type": "occ",
				"energy": -0.20541,
				"method": "rhf"
			},
			{
				"type": "unocc",
				"energy": -0.02791,
				"method": "rhf"
			},
			{
				"type": "unocc",
				"energy": 0.02432,
				"method": "rhf"
			},
			{
				"type": "unocc",
				"energy": 0.05354,
				"method": "rhf"
			},
			{
				"type": "unocc",
				"energy": 0.08184,
				"method": "rhf"
			},
			{
				"type": "unocc",
				"energy": 0.08265,
				"method": "rhf"
			}
		],
		"cosmo_sigma_profile": { 
			"-0.025": 0.0,
			"-0.024": 0.0,
			"-0.023": 0.0,
			"-0.022": 0.0,
			"-0.021": 0.0,
			"-0.02": 0.0,
			"-0.019": 0.0,
			"-0.018": 0.0,
			"-0.017": 0.0,
			"-0.016": 0.00170106233995,
			"-0.015": 0.668937963907,
			"-0.014": 1.31828321415,
			"-0.013": 1.00059035625,
			"-0.012": 1.98102934985,
			"-0.011": 2.26264114699,
			"-0.01": 1.75338469308,
			"-0.009": 1.57483157061,
			"-0.008": 2.98323595924,
			"-0.007": 5.66011713836,
			"-0.006": 9.38593305171,
			"-0.005": 20.2572570229,
			"-0.004": 36.5401789573,
			"-0.003": 29.7238785388,
			"-0.002": 21.4066810872,
			"-0.001": 16.4700958819,
			"0.0": 11.1739480155,
			"0.001": 7.44830291939,
			"0.002": 6.60300942415,
			"0.003": 4.00897168918,
			"0.004": 4.66556226663,
			"0.005": 4.95131100237,
			"0.006": 5.67119514278,
			"0.007": 4.8649570062,
			"0.008": 6.12768050347,
			"0.009": 8.07821241348,
			"0.01": 7.27368491582,
			"0.011": 5.91383125385,
			"0.012": 4.92110522916,
			"0.013": 4.36046502057,
			"0.014": 5.02032968592,
			"0.015": 2.73730605282,
			"0.016": 0.376718508111,
			"0.017": 0.0,
			"0.018": 0.0,
			"0.019": 0.0,
			"0.02": 0.0,
			"0.021": 0.0,
			"0.022": 0.0,
			"0.023": 0.0,
			"0.024": 0.0,
			"0.025": 0.0
		}
	}
}
