{
	 "smiles": "COC1=CC(NC(=O)C=C)=CC=C1", 
	 "Tm": 375.15, 
	 "num_atms": 24, 
	 "gaussian": { 
		 "optdone": 1, 
		 "sigma_profile": "yes", 
		 "theory": "DFT", 
		 "functional": "B3LYP", 
		 "basiset": "6-31G**", 
		 "properties": { 
			 "R2extent": 3139.4081, 
			 "electric_dipole_moment_norm": 3.07900099708, 
			 "electric_quadrupole_moment_norm": 21.181178539, 
			 "total_energy": -592.863458982, 
			 "HOMO_LUMO_gap": 0.17916, 
			 "cosmo_polarized_energy": -12.57, 
			 "cosmo_cavitation_energy": 28.4, 
			 "cosmo_dispersion_energy": -20.14, 
			 "cosmo_repulsion_energy": 1.62, 
			 "cosmo_total_nonelectrostatic_energy": 9.87, 
			 "SMD_solvation_energy": 6.98 
		},
		"coords": [
			{
				"x": 2.0958429796,
				"y": 0.1158496241,
				"z": -3.2328145201,
				"element": "C" 
			},
			{
				"x": 1.1012548799,
				"y": -0.82521097,
				"z": -2.861438639,
				"element": "O" 
			},
			{
				"x": 0.2045264246,
				"y": -0.4761016833,
				"z": -1.8949358758,
				"element": "C" 
			},
			{
				"x": 0.2068319038,
				"y": 0.75178212,
				"z": -1.2259862461,
				"element": "C" 
			},
			{
				"x": -0.7659694209,
				"y": 1.0184534545,
				"z": -0.2480899241,
				"element": "C" 
			},
			{
				"x": -0.7493463487,
				"y": 2.3022929687,
				"z": 0.3562013209,
				"element": "N" 
			},
			{
				"x": -1.105670353,
				"y": 2.7254856521,
				"z": 1.6257821148,
				"element": "C" 
			},
			{
				"x": -1.3610991447,
				"y": 3.908233016,
				"z": 1.8245959231,
				"element": "O" 
			},
			{
				"x": -1.0833498828,
				"y": 1.773008956,
				"z": 2.7752937414,
				"element": "C" 
			},
			{
				"x": -0.2254986023,
				"y": 0.7632650084,
				"z": 2.9386338042,
				"element": "C" 
			},
			{
				"x": -1.7369483479,
				"y": 0.0606406398,
				"z": 0.0574414988,
				"element": "C" 
			},
			{
				"x": -1.7089698975,
				"y": -1.1706537879,
				"z": -0.6023779805,
				"element": "C" 
			},
			{
				"x": -0.7552650423,
				"y": -1.4478310693,
				"z": -1.5743108186,
				"element": "C" 
			},
			{
				"x": 1.6530258414,
				"y": 1.0388102269,
				"z": -3.6290284755,
				"element": "H" 
			},
			{
				"x": 2.7523295033,
				"y": 0.3666348502,
				"z": -2.3894872703,
				"element": "H" 
			},
			{
				"x": 2.6861997778,
				"y": -0.3627094569,
				"z": -4.0155683929,
				"element": "H" 
			},
			{
				"x": 0.9553959366,
				"y": 1.5065380763,
				"z": -1.4361692314,
				"element": "H" 
			},
			{
				"x": -0.6475069283,
				"y": 3.0909925644,
				"z": -0.2717277131,
				"element": "H" 
			},
			{
				"x": -1.7551028544,
				"y": 2.0690437103,
				"z": 3.5764572487,
				"element": "H" 
			},
			{
				"x": 0.4847695342,
				"y": 0.4754643969,
				"z": 2.1704674191,
				"element": "H" 
			},
			{
				"x": -0.2025601531,
				"y": 0.1935549877,
				"z": 3.862952158,
				"element": "H" 
			},
			{
				"x": -2.503129888,
				"y": 0.2757555735,
				"z": 0.7920771279,
				"element": "H" 
			},
			{
				"x": -2.4601743018,
				"y": -1.9181807549,
				"z": -0.3644721913,
				"element": "H" 
			},
			{
				"x": -0.7339856152,
				"y": -2.3957181033,
				"z": -2.1007950784,
				"element": "H" 
			}
		],
		 "valence_orbital": [ 
			{
				"type": "occ",
				"energy": -0.28832,
				"method": "rhf"
			},
			{
				"type": "occ",
				"energy": -0.28005,
				"method": "rhf"
			},
			{
				"type": "occ",
				"energy": -0.25172,
				"method": "rhf"
			},
			{
				"type": "occ",
				"energy": -0.24032,
				"method": "rhf"
			},
			{
				"type": "occ",
				"energy": -0.21743,
				"method": "rhf"
			},
			{
				"type": "unocc",
				"energy": -0.03827,
				"method": "rhf"
			},
			{
				"type": "unocc",
				"energy": -0.00599,
				"method": "rhf"
			},
			{
				"type": "unocc",
				"energy": 0.00757,
				"method": "rhf"
			},
			{
				"type": "unocc",
				"energy": 0.07343,
				"method": "rhf"
			},
			{
				"type": "unocc",
				"energy": 0.08653,
				"method": "rhf"
			}
		],
		"cosmo_sigma_profile": { 
			"-0.025": 0.0,
			"-0.024": 0.0,
			"-0.023": 0.0,
			"-0.022": 0.0,
			"-0.021": 0.0,
			"-0.02": 0.0,
			"-0.019": 0.0,
			"-0.018": 0.0,
			"-0.017": 0.0,
			"-0.016": 0.0,
			"-0.015": 0.0,
			"-0.014": 0.578068623154,
			"-0.013": 0.944707350711,
			"-0.012": 1.22402483418,
			"-0.011": 0.881002923878,
			"-0.01": 0.946607325062,
			"-0.009": 1.03231825088,
			"-0.008": 1.3800094783,
			"-0.007": 3.92063467632,
			"-0.006": 14.8622366838,
			"-0.005": 21.415978375,
			"-0.004": 21.4251809238,
			"-0.003": 20.2320967652,
			"-0.002": 15.3223547189,
			"-0.001": 13.343494722,
			"0.0": 12.715843338,
			"0.001": 13.7207304061,
			"0.002": 13.2937709352,
			"0.003": 14.8020539829,
			"0.004": 14.9607784254,
			"0.005": 10.1671925461,
			"0.006": 4.90559478823,
			"0.007": 2.41561803806,
			"0.008": 1.99422123593,
			"0.009": 3.21373252606,
			"0.01": 2.80584608501,
			"0.011": 1.90408807584,
			"0.012": 2.79494674364,
			"0.013": 5.2924945329,
			"0.014": 3.20276408451,
			"0.015": 0.250114747876,
			"0.016": 0.0,
			"0.017": 0.0,
			"0.018": 0.0,
			"0.019": 0.0,
			"0.02": 0.0,
			"0.021": 0.0,
			"0.022": 0.0,
			"0.023": 0.0,
			"0.024": 0.0,
			"0.025": 0.0
		}
	}
}
