{
	 "smiles": "CC(C)C1=NN(C(=O)NC(C)(C)C)C(=O)N1N", 
	 "Tm": 411.15, 
	 "num_atms": 36, 
	 "gaussian": { 
		 "optdone": 1, 
		 "sigma_profile": "yes", 
		 "theory": "DFT", 
		 "functional": "B3LYP", 
		 "basiset": "6-31G**", 
		 "properties": { 
			 "R2extent": 5324.9458, 
			 "electric_dipole_moment_norm": 5.26732447168, 
			 "electric_quadrupole_moment_norm": 23.4546956243, 
			 "total_energy": -816.737993713, 
			 "HOMO_LUMO_gap": 0.22868, 
			 "cosmo_polarized_energy": -19.99, 
			 "cosmo_cavitation_energy": 38.34, 
			 "cosmo_dispersion_energy": -26.29, 
			 "cosmo_repulsion_energy": 2.09, 
			 "cosmo_total_nonelectrostatic_energy": 14.14, 
			 "SMD_solvation_energy": 8.03 
		},
		"coords": [
			{
				"x": 2.5482989455,
				"y": -2.6110003312,
				"z": -0.326480487,
				"element": "C" 
			},
			{
				"x": 3.2605789482,
				"y": -1.2525397793,
				"z": -0.3059193011,
				"element": "C" 
			},
			{
				"x": 4.1836529363,
				"y": -1.1104104823,
				"z": 0.9228773768,
				"element": "C" 
			},
			{
				"x": 2.276476754,
				"y": -0.1192260308,
				"z": -0.3587816989,
				"element": "C" 
			},
			{
				"x": 1.0084355443,
				"y": -0.2037470408,
				"z": -0.0837013462,
				"element": "N" 
			},
			{
				"x": 0.4966004831,
				"y": 1.087360343,
				"z": -0.2380489365,
				"element": "N" 
			},
			{
				"x": -0.8967305868,
				"y": 1.3545140787,
				"z": -0.0177895326,
				"element": "C" 
			},
			{
				"x": -1.3428610237,
				"y": 2.4798845361,
				"z": -0.15089022,
				"element": "O" 
			},
			{
				"x": -1.5774756798,
				"y": 0.2365028888,
				"z": 0.3351205632,
				"element": "N" 
			},
			{
				"x": -3.0271682971,
				"y": 0.1975956719,
				"z": 0.6287813292,
				"element": "C" 
			},
			{
				"x": -3.8287984013,
				"y": 0.6330503356,
				"z": -0.6123012927,
				"element": "C" 
			},
			{
				"x": -3.3474381403,
				"y": 1.1111423775,
				"z": 1.8268373849,
				"element": "C" 
			},
			{
				"x": -3.3514514297,
				"y": -1.2628286016,
				"z": 0.9790249979,
				"element": "C" 
			},
			{
				"x": 1.4770029391,
				"y": 2.0019970185,
				"z": -0.6270603713,
				"element": "C" 
			},
			{
				"x": 1.4547973289,
				"y": 3.1896368596,
				"z": -0.8739128604,
				"element": "O" 
			},
			{
				"x": 2.6161579982,
				"y": 1.1751503609,
				"z": -0.685449833,
				"element": "N" 
			},
			{
				"x": 3.8820932124,
				"y": 1.622997213,
				"z": -1.0687548976,
				"element": "N" 
			},
			{
				"x": 1.923416978,
				"y": -2.7228492074,
				"z": -1.2166544838,
				"element": "H" 
			},
			{
				"x": 3.2875380625,
				"y": -3.4173535656,
				"z": -0.3191950696,
				"element": "H" 
			},
			{
				"x": 1.9048864797,
				"y": -2.728411908,
				"z": 0.550219644,
				"element": "H" 
			},
			{
				"x": 3.8882524542,
				"y": -1.1597681959,
				"z": -1.20136034,
				"element": "H" 
			},
			{
				"x": 4.7211541562,
				"y": -0.1589940393,
				"z": 0.9067291567,
				"element": "H" 
			},
			{
				"x": 3.6051637538,
				"y": -1.1703015202,
				"z": 1.8506031897,
				"element": "H" 
			},
			{
				"x": 4.9229817639,
				"y": -1.9173445204,
				"z": 0.9292318178,
				"element": "H" 
			},
			{
				"x": -1.0370106223,
				"y": -0.6160548718,
				"z": 0.3956615577,
				"element": "H" 
			},
			{
				"x": -4.9026413205,
				"y": 0.5875798143,
				"z": -0.4027440989,
				"element": "H" 
			},
			{
				"x": -3.6158887814,
				"y": -0.0277659919,
				"z": -1.4589847695,
				"element": "H" 
			},
			{
				"x": -3.5700648706,
				"y": 1.6553094513,
				"z": -0.8940247474,
				"element": "H" 
			},
			{
				"x": -4.417192674,
				"y": 1.0699945911,
				"z": 2.0571755212,
				"element": "H" 
			},
			{
				"x": -2.7924739725,
				"y": 0.7900909187,
				"z": 2.714431718,
				"element": "H" 
			},
			{
				"x": -3.0774213488,
				"y": 2.14439732,
				"z": 1.6014257118,
				"element": "H" 
			},
			{
				"x": -3.1211987947,
				"y": -1.9307309152,
				"z": 0.1413298932,
				"element": "H" 
			},
			{
				"x": -2.783265426,
				"y": -1.5946818742,
				"z": 1.8553249823,
				"element": "H" 
			},
			{
				"x": -4.4153508158,
				"y": -1.3665088633,
				"z": 1.2091455432,
				"element": "H" 
			},
			{
				"x": 4.1437934409,
				"y": 2.3787108768,
				"z": -0.4363069712,
				"element": "H" 
			},
			{
				"x": 3.7912500061,
				"y": 2.0463030834,
				"z": -1.9921591301,
				"element": "H" 
			}
		],
		 "valence_orbital": [ 
			{
				"type": "occ",
				"energy": -0.30453,
				"method": "rhf"
			},
			{
				"type": "occ",
				"energy": -0.27745,
				"method": "rhf"
			},
			{
				"type": "occ",
				"energy": -0.24914,
				"method": "rhf"
			},
			{
				"type": "occ",
				"energy": -0.24902,
				"method": "rhf"
			},
			{
				"type": "occ",
				"energy": -0.23153,
				"method": "rhf"
			},
			{
				"type": "unocc",
				"energy": -0.00285,
				"method": "rhf"
			},
			{
				"type": "unocc",
				"energy": 0.03068,
				"method": "rhf"
			},
			{
				"type": "unocc",
				"energy": 0.05914,
				"method": "rhf"
			},
			{
				"type": "unocc",
				"energy": 0.08171,
				"method": "rhf"
			},
			{
				"type": "unocc",
				"energy": 0.09072,
				"method": "rhf"
			}
		],
		"cosmo_sigma_profile": { 
			"-0.025": 0.0,
			"-0.024": 0.0,
			"-0.023": 0.0,
			"-0.022": 0.0,
			"-0.021": 0.0,
			"-0.02": 0.0,
			"-0.019": 0.0,
			"-0.018": 0.0,
			"-0.017": 0.0,
			"-0.016": 0.0,
			"-0.015": 0.0,
			"-0.014": 0.159836008107,
			"-0.013": 2.54822396062,
			"-0.012": 3.16447556665,
			"-0.011": 3.12827228494,
			"-0.01": 1.81842396924,
			"-0.009": 2.65112997655,
			"-0.008": 3.09509486847,
			"-0.007": 2.79842449437,
			"-0.006": 3.01332775055,
			"-0.005": 5.49007501383,
			"-0.004": 23.7833055782,
			"-0.003": 41.4094037614,
			"-0.002": 32.4776204389,
			"-0.001": 32.537190135,
			"0.0": 37.75808081,
			"0.001": 33.9483547767,
			"0.002": 11.4783295867,
			"0.003": 5.66039343182,
			"0.004": 5.48790757213,
			"0.005": 4.7686252105,
			"0.006": 5.84124767106,
			"0.007": 4.19980970933,
			"0.008": 3.3368506276,
			"0.009": 2.53035035848,
			"0.01": 2.84704914459,
			"0.011": 3.47007625536,
			"0.012": 6.23470116485,
			"0.013": 6.13394900789,
			"0.014": 2.81524539046,
			"0.015": 1.89588177706,
			"0.016": 1.46532141516,
			"0.017": 0.918321975596,
			"0.018": 0.0688168619333,
			"0.019": 0.0,
			"0.02": 0.0,
			"0.021": 0.0,
			"0.022": 0.0,
			"0.023": 0.0,
			"0.024": 0.0,
			"0.025": 0.0
		}
	}
}
