{
	 "smiles": "ONC(=O)CC1=CC2=C(C=CC=C2)C=C1", 
	 "Tm": 459.15, 
	 "num_atms": 26, 
	 "gaussian": { 
		 "optdone": 1, 
		 "sigma_profile": "yes", 
		 "theory": "DFT", 
		 "functional": "B3LYP", 
		 "basiset": "6-31G**", 
		 "properties": { 
			 "R2extent": 4314.9875, 
			 "electric_dipole_moment_norm": 3.83772160924, 
			 "electric_quadrupole_moment_norm": 9.83561144973, 
			 "total_energy": -669.072829225, 
			 "HOMO_LUMO_gap": 0.17536, 
			 "cosmo_polarized_energy": -12.39, 
			 "cosmo_cavitation_energy": 30.16, 
			 "cosmo_dispersion_energy": -21.86, 
			 "cosmo_repulsion_energy": 1.7, 
			 "cosmo_total_nonelectrostatic_energy": 10.01, 
			 "SMD_solvation_energy": 6.26 
		},
		"coords": [
			{
				"x": -2.8566270677,
				"y": -2.0229626669,
				"z": -1.9652614565,
				"element": "O" 
			},
			{
				"x": -1.8402929932,
				"y": -1.2339194518,
				"z": -1.4114318954,
				"element": "N" 
			},
			{
				"x": -2.1992897519,
				"y": 0.0347049271,
				"z": -1.0717705527,
				"element": "C" 
			},
			{
				"x": -3.2844165723,
				"y": 0.484926321,
				"z": -1.4430083391,
				"element": "O" 
			},
			{
				"x": -1.1554638394,
				"y": 0.8659531107,
				"z": -0.3291919013,
				"element": "C" 
			},
			{
				"x": -0.1394330599,
				"y": 0.0803721686,
				"z": 0.4709391279,
				"element": "C" 
			},
			{
				"x": 1.120137689,
				"y": -0.1859533803,
				"z": -0.0298317082,
				"element": "C" 
			},
			{
				"x": 2.072678365,
				"y": -0.940532473,
				"z": 0.7072275162,
				"element": "C" 
			},
			{
				"x": 1.7110883396,
				"y": -1.4380779914,
				"z": 2.0011151097,
				"element": "C" 
			},
			{
				"x": 2.6622277134,
				"y": -2.1918031777,
				"z": 2.739379685,
				"element": "C" 
			},
			{
				"x": 3.9137983722,
				"y": -2.4437318351,
				"z": 2.2234501195,
				"element": "C" 
			},
			{
				"x": 4.271769457,
				"y": -1.9520161551,
				"z": 0.9438144957,
				"element": "C" 
			},
			{
				"x": 3.3723614379,
				"y": -1.2176493851,
				"z": 0.2037944588,
				"element": "C" 
			},
			{
				"x": 0.409812604,
				"y": -1.155053075,
				"z": 2.4984005294,
				"element": "C" 
			},
			{
				"x": -0.4869238621,
				"y": -0.4208126729,
				"z": 1.7583969049,
				"element": "C" 
			},
			{
				"x": -3.5691120356,
				"y": -1.351351161,
				"z": -2.0562764436,
				"element": "H" 
			},
			{
				"x": -1.2111529687,
				"y": -1.7795334401,
				"z": -0.8381656059,
				"element": "H" 
			},
			{
				"x": -0.6550426735,
				"y": 1.4886156695,
				"z": -1.0798158544,
				"element": "H" 
			},
			{
				"x": -1.7233014117,
				"y": 1.5474520519,
				"z": 0.3114583641,
				"element": "H" 
			},
			{
				"x": 1.4035145091,
				"y": 0.1919564203,
				"z": -1.0098733655,
				"element": "H" 
			},
			{
				"x": 2.3847180771,
				"y": -2.5672501534,
				"z": 3.7209855419,
				"element": "H" 
			},
			{
				"x": 4.6329723853,
				"y": -3.0215064831,
				"z": 2.7965686236,
				"element": "H" 
			},
			{
				"x": 5.2621045323,
				"y": -2.1575690688,
				"z": 0.5481639841,
				"element": "H" 
			},
			{
				"x": 3.6454002637,
				"y": -0.8395715592,
				"z": -0.7780504189,
				"element": "H" 
			},
			{
				"x": 0.1322377242,
				"y": -1.5265265372,
				"z": 3.4814986744,
				"element": "H" 
			},
			{
				"x": -1.4760652335,
				"y": -0.2105600018,
				"z": 2.1574844061,
				"element": "H" 
			}
		],
		 "valence_orbital": [ 
			{
				"type": "occ",
				"energy": -0.29586,
				"method": "rhf"
			},
			{
				"type": "occ",
				"energy": -0.27469,
				"method": "rhf"
			},
			{
				"type": "occ",
				"energy": -0.25021,
				"method": "rhf"
			},
			{
				"type": "occ",
				"energy": -0.23352,
				"method": "rhf"
			},
			{
				"type": "occ",
				"energy": -0.22583,
				"method": "rhf"
			},
			{
				"type": "unocc",
				"energy": -0.05047,
				"method": "rhf"
			},
			{
				"type": "unocc",
				"energy": -0.02278,
				"method": "rhf"
			},
			{
				"type": "unocc",
				"energy": 0.01087,
				"method": "rhf"
			},
			{
				"type": "unocc",
				"energy": 0.02267,
				"method": "rhf"
			},
			{
				"type": "unocc",
				"energy": 0.07604,
				"method": "rhf"
			}
		],
		"cosmo_sigma_profile": { 
			"-0.025": 0.0,
			"-0.024": 0.0,
			"-0.023": 0.0,
			"-0.022": 0.0,
			"-0.021": 0.0,
			"-0.02": 0.0,
			"-0.019": 0.0,
			"-0.018": 0.0,
			"-0.017": 0.0,
			"-0.016": 0.0,
			"-0.015": 0.277972001251,
			"-0.014": 0.418260056974,
			"-0.013": 0.810864967547,
			"-0.012": 1.18699918374,
			"-0.011": 0.735198165171,
			"-0.01": 1.74076663212,
			"-0.009": 1.39458432067,
			"-0.008": 1.11633050991,
			"-0.007": 5.62575130615,
			"-0.006": 22.1648154528,
			"-0.005": 21.308507242,
			"-0.004": 19.710409897,
			"-0.003": 17.3913595359,
			"-0.002": 13.2626514482,
			"-0.001": 12.8815179198,
			"0.0": 13.1496268429,
			"0.001": 11.5874038548,
			"0.002": 14.1061250982,
			"0.003": 16.8355923103,
			"0.004": 22.678210304,
			"0.005": 13.006699043,
			"0.006": 4.24012889534,
			"0.007": 2.56503188987,
			"0.008": 2.98288393991,
			"0.009": 2.82245838562,
			"0.01": 4.51256652924,
			"0.011": 4.17676749841,
			"0.012": 3.98061124724,
			"0.013": 2.47037203295,
			"0.014": 1.22307093562,
			"0.015": 0.0181064931342,
			"0.016": 0.0,
			"0.017": 0.0,
			"0.018": 0.0,
			"0.019": 0.0,
			"0.02": 0.0,
			"0.021": 0.0,
			"0.022": 0.0,
			"0.023": 0.0,
			"0.024": 0.0,
			"0.025": 0.0
		}
	}
}
