{
	 "smiles": "NC1=CC=C(NC(=O)C(F)(F)F)C=C1", 
	 "Tm": 391.15, 
	 "num_atms": 21, 
	 "gaussian": { 
		 "optdone": 1, 
		 "sigma_profile": "yes", 
		 "theory": "DFT", 
		 "functional": "B3LYP", 
		 "basiset": "6-31G**", 
		 "properties": { 
			 "R2extent": 3795.8681, 
			 "electric_dipole_moment_norm": 5.58864595139, 
			 "electric_quadrupole_moment_norm": 13.0362381088, 
			 "total_energy": -793.32414827, 
			 "HOMO_LUMO_gap": 0.19801, 
			 "cosmo_polarized_energy": -14.21, 
			 "cosmo_cavitation_energy": 27.13, 
			 "cosmo_dispersion_energy": -19.13, 
			 "cosmo_repulsion_energy": 1.48, 
			 "cosmo_total_nonelectrostatic_energy": 9.48, 
			 "SMD_solvation_energy": 6.61 
		},
		"coords": [
			{
				"x": 1.5293872878,
				"y": -0.6998210499,
				"z": 2.6867172087,
				"element": "N" 
			},
			{
				"x": 0.6291894537,
				"y": -0.810971246,
				"z": 1.6318162703,
				"element": "C" 
			},
			{
				"x": 1.0353084768,
				"y": -1.3322685892,
				"z": 0.3902829828,
				"element": "C" 
			},
			{
				"x": 0.1210647544,
				"y": -1.501391388,
				"z": -0.6437423156,
				"element": "C" 
			},
			{
				"x": -1.2171991276,
				"y": -1.1333379887,
				"z": -0.4743540837,
				"element": "C" 
			},
			{
				"x": -2.1808178576,
				"y": -1.3404664374,
				"z": -1.5159342552,
				"element": "N" 
			},
			{
				"x": -2.3431925552,
				"y": -0.6984158453,
				"z": -2.7084034355,
				"element": "C" 
			},
			{
				"x": -3.2039474929,
				"y": -0.9904167323,
				"z": -3.518790928,
				"element": "O" 
			},
			{
				"x": -1.3565339642,
				"y": 0.4560621416,
				"z": -3.024431678,
				"element": "C" 
			},
			{
				"x": -1.7624381676,
				"y": 1.1162100344,
				"z": -4.1097751268,
				"element": "F" 
			},
			{
				"x": -1.2660011156,
				"y": 1.335738351,
				"z": -2.0068862501,
				"element": "F" 
			},
			{
				"x": -0.1160055034,
				"y": -0.0259605083,
				"z": -3.2694723756,
				"element": "F" 
			},
			{
				"x": -1.6294407501,
				"y": -0.6152339347,
				"z": 0.7577740119,
				"element": "C" 
			},
			{
				"x": -0.7231872545,
				"y": -0.4596414744,
				"z": 1.7999097102,
				"element": "C" 
			},
			{
				"x": 2.5041688559,
				"y": -0.6427068129,
				"z": 2.4279536764,
				"element": "H" 
			},
			{
				"x": 1.2826768379,
				"y": -0.0358102815,
				"z": 3.4069055263,
				"element": "H" 
			},
			{
				"x": 2.0733032669,
				"y": -1.6188281933,
				"z": 0.242926107,
				"element": "H" 
			},
			{
				"x": 0.4457599958,
				"y": -1.912886229,
				"z": -1.5928853957,
				"element": "H" 
			},
			{
				"x": -2.8816990205,
				"y": -2.0604987643,
				"z": -1.3790234811,
				"element": "H" 
			},
			{
				"x": -2.667302497,
				"y": -0.3255622058,
				"z": 0.8936550027,
				"element": "H" 
			},
			{
				"x": -1.0591936231,
				"y": -0.058992846,
				"z": 2.7527588288,
				"element": "H" 
			}
		],
		 "valence_orbital": [ 
			{
				"type": "occ",
				"energy": -0.32511,
				"method": "rhf"
			},
			{
				"type": "occ",
				"energy": -0.27461,
				"method": "rhf"
			},
			{
				"type": "occ",
				"energy": -0.27051,
				"method": "rhf"
			},
			{
				"type": "occ",
				"energy": -0.26205,
				"method": "rhf"
			},
			{
				"type": "occ",
				"energy": -0.21404,
				"method": "rhf"
			},
			{
				"type": "unocc",
				"energy": -0.01603,
				"method": "rhf"
			},
			{
				"type": "unocc",
				"energy": -0.00774,
				"method": "rhf"
			},
			{
				"type": "unocc",
				"energy": 0.00537,
				"method": "rhf"
			},
			{
				"type": "unocc",
				"energy": 0.06969,
				"method": "rhf"
			},
			{
				"type": "unocc",
				"energy": 0.09232,
				"method": "rhf"
			}
		],
		"cosmo_sigma_profile": { 
			"-0.025": 0.0,
			"-0.024": 0.0,
			"-0.023": 0.0,
			"-0.022": 0.0,
			"-0.021": 0.0,
			"-0.02": 0.0,
			"-0.019": 0.0,
			"-0.018": 0.0,
			"-0.017": 0.0,
			"-0.016": 0.0303316311464,
			"-0.015": 0.762636312209,
			"-0.014": 1.40775670228,
			"-0.013": 1.85221626161,
			"-0.012": 3.11438196388,
			"-0.011": 3.93323503846,
			"-0.01": 4.29277117759,
			"-0.009": 3.99477817556,
			"-0.008": 3.74968192675,
			"-0.007": 4.84160442185,
			"-0.006": 9.08389081066,
			"-0.005": 10.7188756303,
			"-0.004": 12.1163401683,
			"-0.003": 10.1843068568,
			"-0.002": 10.1257378678,
			"-0.001": 12.2024420346,
			"0.0": 12.590943965,
			"0.001": 13.2148285189,
			"0.002": 28.6706021478,
			"0.003": 16.8124146616,
			"0.004": 11.2342765529,
			"0.005": 14.2531735468,
			"0.006": 4.41280149343,
			"0.007": 2.72121577588,
			"0.008": 2.50196677167,
			"0.009": 2.40840739252,
			"0.01": 2.81918925502,
			"0.011": 4.24334590397,
			"0.012": 5.99384618037,
			"0.013": 1.58591302004,
			"0.014": 0.331435402345,
			"0.015": 0.0,
			"0.016": 0.0,
			"0.017": 0.0,
			"0.018": 0.0,
			"0.019": 0.0,
			"0.02": 0.0,
			"0.021": 0.0,
			"0.022": 0.0,
			"0.023": 0.0,
			"0.024": 0.0,
			"0.025": 0.0
		}
	}
}
