{
	 "smiles": "CC(C)C1CCC(C)CC1OC(=O)C#CC1=CC=CC=C1", 
	 "Tm": 337.15, 
	 "num_atms": 45, 
	 "gaussian": { 
		 "optdone": 1, 
		 "sigma_profile": "yes", 
		 "theory": "DFT", 
		 "functional": "B3LYP", 
		 "basiset": "6-31G**", 
		 "properties": { 
			 "R2extent": 10303.6832, 
			 "electric_dipole_moment_norm": 2.64763623823, 
			 "electric_quadrupole_moment_norm": 17.7658074216, 
			 "total_energy": -888.905001717, 
			 "HOMO_LUMO_gap": 0.18238, 
			 "cosmo_polarized_energy": -9.01, 
			 "cosmo_cavitation_energy": 46.8, 
			 "cosmo_dispersion_energy": -31.94, 
			 "cosmo_repulsion_energy": 2.49, 
			 "cosmo_total_nonelectrostatic_energy": 17.36, 
			 "SMD_solvation_energy": 8.45 
		},
		"coords": [
			{
				"x": -2.023185219,
				"y": 0.8079718042,
				"z": 1.9632705093,
				"element": "C" 
			},
			{
				"x": -2.5485166348,
				"y": 0.1511395199,
				"z": 0.6741303324,
				"element": "C" 
			},
			{
				"x": -4.0539841137,
				"y": 0.4383826548,
				"z": 0.5394441236,
				"element": "C" 
			},
			{
				"x": -2.2425298395,
				"y": -1.3693675706,
				"z": 0.6368074591,
				"element": "C" 
			},
			{
				"x": -2.724836044,
				"y": -2.099056386,
				"z": -0.6316531582,
				"element": "C" 
			},
			{
				"x": -2.6682259877,
				"y": -3.6373887016,
				"z": -0.4565680799,
				"element": "C" 
			},
			{
				"x": -1.5734365937,
				"y": -4.0980441079,
				"z": 0.53631264,
				"element": "C" 
			},
			{
				"x": -1.1623881518,
				"y": -5.5539324339,
				"z": 0.2927662309,
				"element": "C" 
			},
			{
				"x": -0.374994553,
				"y": -3.1417435433,
				"z": 0.4545979985,
				"element": "C" 
			},
			{
				"x": -0.7474630307,
				"y": -1.6988599648,
				"z": 0.8584236095,
				"element": "C" 
			},
			{
				"x": 0.0332357336,
				"y": -0.7727838142,
				"z": 0.039223207,
				"element": "O" 
			},
			{
				"x": 1.2929033615,
				"y": -0.5155554115,
				"z": 0.4495537561,
				"element": "C" 
			},
			{
				"x": 1.8133378068,
				"y": -0.9862955284,
				"z": 1.4429838126,
				"element": "O" 
			},
			{
				"x": 1.9515091575,
				"y": 0.4042231946,
				"z": -0.4476908508,
				"element": "C" 
			},
			{
				"x": 2.5643772055,
				"y": 1.1727998827,
				"z": -1.1605585998,
				"element": "C" 
			},
			{
				"x": 3.2785425589,
				"y": 2.0747709382,
				"z": -2.0018070192,
				"element": "C" 
			},
			{
				"x": 4.6013915091,
				"y": 2.4442039092,
				"z": -1.6871509259,
				"element": "C" 
			},
			{
				"x": 5.2957082703,
				"y": 3.3253519992,
				"z": -2.5113373417,
				"element": "C" 
			},
			{
				"x": 4.6852404874,
				"y": 3.8477789542,
				"z": -3.6546810258,
				"element": "C" 
			},
			{
				"x": 3.3736035515,
				"y": 3.4866210366,
				"z": -3.9742491738,
				"element": "C" 
			},
			{
				"x": 2.6706467453,
				"y": 2.6065141359,
				"z": -3.156395131,
				"element": "C" 
			},
			{
				"x": -0.9380592022,
				"y": 0.7283875018,
				"z": 2.0650126425,
				"element": "H" 
			},
			{
				"x": -2.2745196262,
				"y": 1.8737235542,
				"z": 1.979348299,
				"element": "H" 
			},
			{
				"x": -2.4790805829,
				"y": 0.3508001315,
				"z": 2.8507934608,
				"element": "H" 
			},
			{
				"x": -2.0339358029,
				"y": 0.6162984608,
				"z": -0.1759481078,
				"element": "H" 
			},
			{
				"x": -4.6238778089,
				"y": -0.0602945134,
				"z": 1.333703336,
				"element": "H" 
			},
			{
				"x": -4.2447249407,
				"y": 1.5134633025,
				"z": 0.6249120207,
				"element": "H" 
			},
			{
				"x": -4.462857172,
				"y": 0.1124514007,
				"z": -0.4206603643,
				"element": "H" 
			},
			{
				"x": -2.7697361716,
				"y": -1.8115535777,
				"z": 1.4967606024,
				"element": "H" 
			},
			{
				"x": -2.0885540053,
				"y": -1.7886369351,
				"z": -1.4699496454,
				"element": "H" 
			},
			{
				"x": -3.7429448999,
				"y": -1.8026238657,
				"z": -0.8953415152,
				"element": "H" 
			},
			{
				"x": -3.6406214559,
				"y": -4.0131008704,
				"z": -0.1148780697,
				"element": "H" 
			},
			{
				"x": -2.4870825498,
				"y": -4.1047439805,
				"z": -1.4331970332,
				"element": "H" 
			},
			{
				"x": -1.9829698379,
				"y": -4.0387777764,
				"z": 1.5551185139,
				"element": "H" 
			},
			{
				"x": -0.4419118296,
				"y": -5.8975810774,
				"z": 1.0429230847,
				"element": "H" 
			},
			{
				"x": -0.6983336761,
				"y": -5.6693859602,
				"z": -0.6941932217,
				"element": "H" 
			},
			{
				"x": -2.030551093,
				"y": -6.2213888435,
				"z": 0.3309599976,
				"element": "H" 
			},
			{
				"x": -0.0122676092,
				"y": -3.1212658144,
				"z": -0.5814534655,
				"element": "H" 
			},
			{
				"x": 0.4587521586,
				"y": -3.4890561079,
				"z": 1.0724738841,
				"element": "H" 
			},
			{
				"x": -0.4678865349,
				"y": -1.5198282754,
				"z": 1.8983462798,
				"element": "H" 
			},
			{
				"x": 5.0677739328,
				"y": 2.0336598228,
				"z": -0.7976234846,
				"element": "H" 
			},
			{
				"x": 6.3148579105,
				"y": 3.6054358705,
				"z": -2.2621704422,
				"element": "H" 
			},
			{
				"x": 5.23038845,
				"y": 4.5348499129,
				"z": -4.2952397205,
				"element": "H" 
			},
			{
				"x": 2.8984475264,
				"y": 3.8921259803,
				"z": -4.8625299461,
				"element": "H" 
			},
			{
				"x": 1.6518586013,
				"y": 2.3210110925,
				"z": -3.3971894782,
				"element": "H" 
			}
		],
		 "valence_orbital": [ 
			{
				"type": "occ",
				"energy": -0.28886,
				"method": "rhf"
			},
			{
				"type": "occ",
				"energy": -0.28316,
				"method": "rhf"
			},
			{
				"type": "occ",
				"energy": -0.26527,
				"method": "rhf"
			},
			{
				"type": "occ",
				"energy": -0.26446,
				"method": "rhf"
			},
			{
				"type": "occ",
				"energy": -0.24264,
				"method": "rhf"
			},
			{
				"type": "unocc",
				"energy": -0.06026,
				"method": "rhf"
			},
			{
				"type": "unocc",
				"energy": -0.01375,
				"method": "rhf"
			},
			{
				"type": "unocc",
				"energy": 0.01495,
				"method": "rhf"
			},
			{
				"type": "unocc",
				"energy": 0.03804,
				"method": "rhf"
			},
			{
				"type": "unocc",
				"energy": 0.07788,
				"method": "rhf"
			}
		],
		"cosmo_sigma_profile": { 
			"-0.025": 0.0,
			"-0.024": 0.0,
			"-0.023": 0.0,
			"-0.022": 0.0,
			"-0.021": 0.0,
			"-0.02": 0.0,
			"-0.019": 0.0,
			"-0.018": 0.0,
			"-0.017": 0.0,
			"-0.016": 0.0,
			"-0.015": 0.0,
			"-0.014": 0.0,
			"-0.013": 0.0,
			"-0.012": 0.0,
			"-0.011": 0.0,
			"-0.01": 0.0,
			"-0.009": 0.0,
			"-0.008": 0.0,
			"-0.007": 4.65140877029,
			"-0.006": 11.2295875884,
			"-0.005": 12.7191651823,
			"-0.004": 13.4265201219,
			"-0.003": 28.299562611,
			"-0.002": 52.4079716507,
			"-0.001": 51.6418168714,
			"0.0": 47.9208387727,
			"0.001": 48.0660944885,
			"0.002": 32.1121787165,
			"0.003": 22.4893774987,
			"0.004": 17.0889987017,
			"0.005": 4.44478270417,
			"0.006": 3.4030842617,
			"0.007": 3.47019005989,
			"0.008": 2.16160190351,
			"0.009": 1.84548595845,
			"0.01": 1.89850976578,
			"0.011": 4.10283453264,
			"0.012": 3.28817224543,
			"0.013": 0.438712445402,
			"0.014": 0.0,
			"0.015": 0.0,
			"0.016": 0.0,
			"0.017": 0.0,
			"0.018": 0.0,
			"0.019": 0.0,
			"0.02": 0.0,
			"0.021": 0.0,
			"0.022": 0.0,
			"0.023": 0.0,
			"0.024": 0.0,
			"0.025": 0.0
		}
	}
}
