{
	 "smiles": "CC(=O)OC(OC(C)=O)C1=CC=CC=C1", 
	 "Tm": 319.15, 
	 "num_atms": 27, 
	 "gaussian": { 
		 "optdone": 1, 
		 "sigma_profile": "yes", 
		 "theory": "DFT", 
		 "functional": "B3LYP", 
		 "basiset": "6-31G**", 
		 "properties": { 
			 "R2extent": 3514.6823, 
			 "electric_dipole_moment_norm": 0.663949214925, 
			 "electric_quadrupole_moment_norm": 14.6583015711, 
			 "total_energy": -727.322103342, 
			 "HOMO_LUMO_gap": 0.23297, 
			 "cosmo_polarized_energy": -12.02, 
			 "cosmo_cavitation_energy": 32.05, 
			 "cosmo_dispersion_energy": -21.94, 
			 "cosmo_repulsion_energy": 1.78, 
			 "cosmo_total_nonelectrostatic_energy": 11.89, 
			 "SMD_solvation_energy": 7.82 
		},
		"coords": [
			{
				"x": -3.1157940797,
				"y": -2.3167340225,
				"z": -0.4257758713,
				"element": "C" 
			},
			{
				"x": -1.7546676077,
				"y": -1.8199372455,
				"z": 0.0017889255,
				"element": "C" 
			},
			{
				"x": -0.9756947714,
				"y": -2.420910495,
				"z": 0.7015708294,
				"element": "O" 
			},
			{
				"x": -1.5344944152,
				"y": -0.5773151532,
				"z": -0.5193071818,
				"element": "O" 
			},
			{
				"x": -0.2683149645,
				"y": 0.0779160362,
				"z": -0.3106622323,
				"element": "C" 
			},
			{
				"x": -0.0370384538,
				"y": 0.2776958995,
				"z": 1.0758710548,
				"element": "O" 
			},
			{
				"x": -0.526324507,
				"y": 1.4311242471,
				"z": 1.6294363437,
				"element": "C" 
			},
			{
				"x": -0.2306752828,
				"y": 1.4591838119,
				"z": 3.1067236221,
				"element": "C" 
			},
			{
				"x": -1.1020218603,
				"y": 2.2872768846,
				"z": 1.0018291093,
				"element": "O" 
			},
			{
				"x": 0.9009850148,
				"y": -0.6416031854,
				"z": -0.9451803506,
				"element": "C" 
			},
			{
				"x": 1.0949304798,
				"y": -0.4819453898,
				"z": -2.3223334191,
				"element": "C" 
			},
			{
				"x": 2.1551800979,
				"y": -1.1203564275,
				"z": -2.9659975556,
				"element": "C" 
			},
			{
				"x": 3.0363127729,
				"y": -1.9157912732,
				"z": -2.231665534,
				"element": "C" 
			},
			{
				"x": 2.849249491,
				"y": -2.0720993889,
				"z": -0.8563537167,
				"element": "C" 
			},
			{
				"x": 1.7843652951,
				"y": -1.441923645,
				"z": -0.2129696743,
				"element": "C" 
			},
			{
				"x": -3.1428018503,
				"y": -2.4318302568,
				"z": -1.513758145,
				"element": "H" 
			},
			{
				"x": -3.886836157,
				"y": -1.5896872875,
				"z": -0.1559716194,
				"element": "H" 
			},
			{
				"x": -3.3165918077,
				"y": -3.275004363,
				"z": 0.0522691076,
				"element": "H" 
			},
			{
				"x": -0.4317601142,
				"y": 1.0475357388,
				"z": -0.7823428418,
				"element": "H" 
			},
			{
				"x": -0.6967453744,
				"y": 0.5976302554,
				"z": 3.5938574628,
				"element": "H" 
			},
			{
				"x": 0.8476818242,
				"y": 1.3823298194,
				"z": 3.2736013684,
				"element": "H" 
			},
			{
				"x": -0.6116701175,
				"y": 2.3849523362,
				"z": 3.5362357919,
				"element": "H" 
			},
			{
				"x": 0.4140743063,
				"y": 0.1457007027,
				"z": -2.8922814433,
				"element": "H" 
			},
			{
				"x": 2.2972488182,
				"y": -0.9891918622,
				"z": -4.0347673441,
				"element": "H" 
			},
			{
				"x": 3.866823398,
				"y": -2.4095868371,
				"z": -2.7281590821,
				"element": "H" 
			},
			{
				"x": 3.532070922,
				"y": -2.6917713703,
				"z": -0.2822445621,
				"element": "H" 
			},
			{
				"x": 1.6250089433,
				"y": -1.5727575288,
				"z": 0.849986958,
				"element": "H" 
			}
		],
		 "valence_orbital": [ 
			{
				"type": "occ",
				"energy": -0.31097,
				"method": "rhf"
			},
			{
				"type": "occ",
				"energy": -0.2819,
				"method": "rhf"
			},
			{
				"type": "occ",
				"energy": -0.27205,
				"method": "rhf"
			},
			{
				"type": "occ",
				"energy": -0.2525,
				"method": "rhf"
			},
			{
				"type": "occ",
				"energy": -0.24771,
				"method": "rhf"
			},
			{
				"type": "unocc",
				"energy": -0.01474,
				"method": "rhf"
			},
			{
				"type": "unocc",
				"energy": -0.00288,
				"method": "rhf"
			},
			{
				"type": "unocc",
				"energy": 0.00351,
				"method": "rhf"
			},
			{
				"type": "unocc",
				"energy": 0.01028,
				"method": "rhf"
			},
			{
				"type": "unocc",
				"energy": 0.09385,
				"method": "rhf"
			}
		],
		"cosmo_sigma_profile": { 
			"-0.025": 0.0,
			"-0.024": 0.0,
			"-0.023": 0.0,
			"-0.022": 0.0,
			"-0.021": 0.0,
			"-0.02": 0.0,
			"-0.019": 0.0,
			"-0.018": 0.0,
			"-0.017": 0.0,
			"-0.016": 0.0,
			"-0.015": 0.0,
			"-0.014": 0.0,
			"-0.013": 0.0,
			"-0.012": 0.0,
			"-0.011": 0.0,
			"-0.01": 0.0,
			"-0.009": 0.141095589981,
			"-0.008": 1.34031032332,
			"-0.007": 7.67493620389,
			"-0.006": 18.765603255,
			"-0.005": 23.1447672,
			"-0.004": 26.6850291881,
			"-0.003": 23.0206658069,
			"-0.002": 25.1638324697,
			"-0.001": 15.0071109589,
			"0.0": 12.2099155598,
			"0.001": 11.9387425258,
			"0.002": 11.4973801015,
			"0.003": 13.0090732381,
			"0.004": 13.9087015874,
			"0.005": 13.7062298014,
			"0.006": 5.89337199138,
			"0.007": 5.01594852611,
			"0.008": 5.21368750218,
			"0.009": 4.48201660052,
			"0.01": 5.67053870234,
			"0.011": 7.29278796271,
			"0.012": 3.71132524957,
			"0.013": 0.377878597341,
			"0.014": 0.0,
			"0.015": 0.0,
			"0.016": 0.0,
			"0.017": 0.0,
			"0.018": 0.0,
			"0.019": 0.0,
			"0.02": 0.0,
			"0.021": 0.0,
			"0.022": 0.0,
			"0.023": 0.0,
			"0.024": 0.0,
			"0.025": 0.0
		}
	}
}
