{
	 "smiles": "OC(=O)C1=C2C=CC=CC2=NC2=C1CCC2=CC1=CC=CC=C1", 
	 "Tm": 553.15, 
	 "num_atms": 38, 
	 "gaussian": { 
		 "optdone": 1, 
		 "sigma_profile": "yes", 
		 "theory": "DFT", 
		 "functional": "B3LYP", 
		 "basiset": "6-31G**", 
		 "properties": { 
			 "R2extent": 8974.0673, 
			 "electric_dipole_moment_norm": 1.79590604988, 
			 "electric_quadrupole_moment_norm": 19.6671828161, 
			 "total_energy": -976.387075069, 
			 "HOMO_LUMO_gap": 0.12404, 
			 "cosmo_polarized_energy": -12.41, 
			 "cosmo_cavitation_energy": 41.26, 
			 "cosmo_dispersion_energy": -29.91, 
			 "cosmo_repulsion_energy": 2.2, 
			 "cosmo_total_nonelectrostatic_energy": 13.56, 
			 "SMD_solvation_energy": 6.46 
		},
		"coords": [
			{
				"x": 3.8696856201,
				"y": -2.8206260622,
				"z": 2.2792227695,
				"element": "O" 
			},
			{
				"x": 2.6388707376,
				"y": -3.3907929663,
				"z": 2.3008031955,
				"element": "C" 
			},
			{
				"x": 2.4424243075,
				"y": -4.4354372119,
				"z": 2.8900827995,
				"element": "O" 
			},
			{
				"x": 1.6198061545,
				"y": -2.5992101136,
				"z": 1.5458224414,
				"element": "C" 
			},
			{
				"x": 0.2258153735,
				"y": -2.6736570325,
				"z": 1.9058021779,
				"element": "C" 
			},
			{
				"x": -0.2923954874,
				"y": -3.4478620514,
				"z": 2.9780843413,
				"element": "C" 
			},
			{
				"x": -1.6408468117,
				"y": -3.4375068631,
				"z": 3.2686693806,
				"element": "C" 
			},
			{
				"x": -2.5428207522,
				"y": -2.6608219616,
				"z": 2.5067377072,
				"element": "C" 
			},
			{
				"x": -2.0756116356,
				"y": -1.9004229421,
				"z": 1.460255066,
				"element": "C" 
			},
			{
				"x": -0.6929478053,
				"y": -1.883265089,
				"z": 1.1356050238,
				"element": "C" 
			},
			{
				"x": -0.3114758514,
				"y": -1.1056731137,
				"z": 0.0822161281,
				"element": "N" 
			},
			{
				"x": 0.9672007882,
				"y": -1.0722301938,
				"z": -0.2374041959,
				"element": "C" 
			},
			{
				"x": 1.9807247857,
				"y": -1.8018363951,
				"z": 0.4770552534,
				"element": "C" 
			},
			{
				"x": 3.3346691536,
				"y": -1.5236844945,
				"z": -0.1322369088,
				"element": "C" 
			},
			{
				"x": 2.9974865278,
				"y": -0.8787972429,
				"z": -1.4936856106,
				"element": "C" 
			},
			{
				"x": 1.5811488696,
				"y": -0.3257226056,
				"z": -1.3521529245,
				"element": "C" 
			},
			{
				"x": 1.1602398879,
				"y": 0.680048162,
				"z": -2.1622995904,
				"element": "C" 
			},
			{
				"x": -0.0656066136,
				"y": 1.4631697957,
				"z": -2.3293804744,
				"element": "C" 
			},
			{
				"x": -1.2963322695,
				"y": 1.2230306986,
				"z": -1.6841548008,
				"element": "C" 
			},
			{
				"x": -2.3931886442,
				"y": 2.0479854181,
				"z": -1.9246743682,
				"element": "C" 
			},
			{
				"x": -2.3017945374,
				"y": 3.1245030475,
				"z": -2.8098519319,
				"element": "C" 
			},
			{
				"x": -1.0928902765,
				"y": 3.3732269846,
				"z": -3.4639225766,
				"element": "C" 
			},
			{
				"x": 0.004753747,
				"y": 2.5524095591,
				"z": -3.227190975,
				"element": "C" 
			},
			{
				"x": 4.4429395158,
				"y": -3.4243211509,
				"z": 2.7815474117,
				"element": "H" 
			},
			{
				"x": 0.3837537995,
				"y": -4.06037027,
				"z": 3.5581504568,
				"element": "H" 
			},
			{
				"x": -2.0131129315,
				"y": -4.038095103,
				"z": 4.0935379604,
				"element": "H" 
			},
			{
				"x": -3.6015709076,
				"y": -2.6669112568,
				"z": 2.7487247759,
				"element": "H" 
			},
			{
				"x": -2.7391325114,
				"y": -1.2936296278,
				"z": 0.8531137081,
				"element": "H" 
			},
			{
				"x": 3.9563464947,
				"y": -2.4171744289,
				"z": -0.219537735,
				"element": "H" 
			},
			{
				"x": 3.8867751886,
				"y": -0.8266078327,
				"z": 0.5092941315,
				"element": "H" 
			},
			{
				"x": 3.012078355,
				"y": -1.6495174291,
				"z": -2.2766187078,
				"element": "H" 
			},
			{
				"x": 3.7190125838,
				"y": -0.1113658866,
				"z": -1.7868747093,
				"element": "H" 
			},
			{
				"x": 1.9358276264,
				"y": 1.0117781527,
				"z": -2.8545645288,
				"element": "H" 
			},
			{
				"x": -1.3730043133,
				"y": 0.3839630316,
				"z": -1.0041169682,
				"element": "H" 
			},
			{
				"x": -3.3324856286,
				"y": 1.8444920083,
				"z": -1.4172232053,
				"element": "H" 
			},
			{
				"x": -3.1636452568,
				"y": 3.7603973005,
				"z": -2.9918537934,
				"element": "H" 
			},
			{
				"x": -1.0066784434,
				"y": 4.2043401656,
				"z": -4.1582452572,
				"element": "H" 
			},
			{
				"x": 0.9420811606,
				"y": 2.7529950007,
				"z": -3.7406354667,
				"element": "H" 
			}
		],
		 "valence_orbital": [ 
			{
				"type": "occ",
				"energy": -0.25675,
				"method": "rhf"
			},
			{
				"type": "occ",
				"energy": -0.25331,
				"method": "rhf"
			},
			{
				"type": "occ",
				"energy": -0.24328,
				"method": "rhf"
			},
			{
				"type": "occ",
				"energy": -0.23436,
				"method": "rhf"
			},
			{
				"type": "occ",
				"energy": -0.20592,
				"method": "rhf"
			},
			{
				"type": "unocc",
				"energy": -0.08188,
				"method": "rhf"
			},
			{
				"type": "unocc",
				"energy": -0.04145,
				"method": "rhf"
			},
			{
				"type": "unocc",
				"energy": -0.00819,
				"method": "rhf"
			},
			{
				"type": "unocc",
				"energy": -0.00022,
				"method": "rhf"
			},
			{
				"type": "unocc",
				"energy": 0.00768,
				"method": "rhf"
			}
		],
		"cosmo_sigma_profile": { 
			"-0.025": 0.0,
			"-0.024": 0.0,
			"-0.023": 0.0,
			"-0.022": 0.0,
			"-0.021": 0.0,
			"-0.02": 0.0,
			"-0.019": 0.0340374694137,
			"-0.018": 1.00493929233,
			"-0.017": 0.829945876843,
			"-0.016": 1.0963069019,
			"-0.015": 0.843119512303,
			"-0.014": 0.179112325211,
			"-0.013": 0.146818682991,
			"-0.012": 1.28055328023,
			"-0.011": 1.35603757988,
			"-0.01": 0.417516215188,
			"-0.009": 0.273760920724,
			"-0.008": 0.734069498592,
			"-0.007": 1.43076886594,
			"-0.006": 10.5953030233,
			"-0.005": 21.6238010988,
			"-0.004": 30.4576951335,
			"-0.003": 31.88699171,
			"-0.002": 25.1652172155,
			"-0.001": 27.0449310933,
			"0.0": 23.6644771179,
			"0.001": 21.4342721921,
			"0.002": 22.1237814366,
			"0.003": 28.1184271961,
			"0.004": 31.8992019291,
			"0.005": 20.9770558355,
			"0.006": 11.952846545,
			"0.007": 3.76595751134,
			"0.008": 2.16165386025,
			"0.009": 1.55220957095,
			"0.01": 2.83817363369,
			"0.011": 3.71303555662,
			"0.012": 0.49607385883,
			"0.013": 0.0,
			"0.014": 0.0,
			"0.015": 0.0,
			"0.016": 0.0,
			"0.017": 0.0,
			"0.018": 0.0,
			"0.019": 0.0,
			"0.02": 0.0,
			"0.021": 0.0,
			"0.022": 0.0,
			"0.023": 0.0,
			"0.024": 0.0,
			"0.0": 0.0
		}
	}
}
