{
	 "smiles": "CC1=CC(C)=NC=N1", 
	 "Tm": 298.15, 
	 "num_atms": 16, 
	 "gaussian": { 
		 "optdone": 1, 
		 "sigma_profile": "yes", 
		 "theory": "DFT", 
		 "functional": "B3LYP", 
		 "basiset": "6-31G**", 
		 "properties": { 
			 "R2extent": 980.7922, 
			 "electric_dipole_moment_norm": 2.6445623343, 
			 "electric_quadrupole_moment_norm": 1.55882113791, 
			 "total_energy": -342.971954635, 
			 "HOMO_LUMO_gap": 0.21902, 
			 "cosmo_polarized_energy": -7.15, 
			 "cosmo_cavitation_energy": 19.61, 
			 "cosmo_dispersion_energy": -14.67, 
			 "cosmo_repulsion_energy": 1.23, 
			 "cosmo_total_nonelectrostatic_energy": 6.17, 
			 "SMD_solvation_energy": 1.03 
		},
		"coords": [
			{
				"x": 2.2331039418,
				"y": 0.9197170456,
				"z": -0.507444411,
				"element": "C" 
			},
			{
				"x": 0.9207805389,
				"y": 0.2447142875,
				"z": -0.203314293,
				"element": "C" 
			},
			{
				"x": -0.1136223606,
				"y": 0.9093295722,
				"z": 0.4609117811,
				"element": "C" 
			},
			{
				"x": -1.2998308688,
				"y": 0.212010838,
				"z": 0.7048911239,
				"element": "C" 
			},
			{
				"x": -2.4657846789,
				"y": 0.8504931734,
				"z": 1.4142640073,
				"element": "C" 
			},
			{
				"x": -1.4414070457,
				"y": -1.0658378837,
				"z": 0.3102439925,
				"element": "N" 
			},
			{
				"x": -0.3943481577,
				"y": -1.6090672652,
				"z": -0.3161805075,
				"element": "C" 
			},
			{
				"x": 0.777469664,
				"y": -1.0331452676,
				"z": -0.5972805464,
				"element": "N" 
			},
			{
				"x": 2.083059375,
				"y": 1.8047663593,
				"z": -1.1357803765,
				"element": "H" 
			},
			{
				"x": 2.7244334626,
				"y": 1.2554419736,
				"z": 0.4126174045,
				"element": "H" 
			},
			{
				"x": 2.8931573493,
				"y": 0.224168409,
				"z": -1.0276124172,
				"element": "H" 
			},
			{
				"x": 0.001440405,
				"y": 1.9417013744,
				"z": 0.7794629179,
				"element": "H" 
			},
			{
				"x": -3.2832854814,
				"y": 0.1331145319,
				"z": 1.4984770336,
				"element": "H" 
			},
			{
				"x": -2.8214243991,
				"y": 1.7324263479,
				"z": 0.8698859689,
				"element": "H" 
			},
			{
				"x": -2.1800409268,
				"y": 1.1833164963,
				"z": 2.4183604319,
				"element": "H" 
			},
			{
				"x": -0.5097008177,
				"y": -2.6439499926,
				"z": -0.6355021101,
				"element": "H" 
			}
		],
		 "valence_orbital": [ 
			{
				"type": "occ",
				"energy": -0.3754,
				"method": "rhf"
			},
			{
				"type": "occ",
				"energy": -0.29551,
				"method": "rhf"
			},
			{
				"type": "occ",
				"energy": -0.29107,
				"method": "rhf"
			},
			{
				"type": "occ",
				"energy": -0.2708,
				"method": "rhf"
			},
			{
				"type": "occ",
				"energy": -0.24575,
				"method": "rhf"
			},
			{
				"type": "unocc",
				"energy": -0.02673,
				"method": "rhf"
			},
			{
				"type": "unocc",
				"energy": -0.02386,
				"method": "rhf"
			},
			{
				"type": "unocc",
				"energy": 0.1078,
				"method": "rhf"
			},
			{
				"type": "unocc",
				"energy": 0.11791,
				"method": "rhf"
			},
			{
				"type": "unocc",
				"energy": 0.12041,
				"method": "rhf"
			}
		],
		"cosmo_sigma_profile": { 
			"-0.025": 0.0,
			"-0.024": 0.0,
			"-0.023": 0.0,
			"-0.022": 0.0,
			"-0.021": 0.0,
			"-0.02": 0.0,
			"-0.019": 0.0,
			"-0.018": 0.0,
			"-0.017": 0.0,
			"-0.016": 0.0,
			"-0.015": 0.0,
			"-0.014": 0.0,
			"-0.013": 0.0,
			"-0.012": 0.0,
			"-0.011": 0.0,
			"-0.01": 0.0,
			"-0.009": 0.0,
			"-0.008": 0.0191954624345,
			"-0.007": 2.18027847423,
			"-0.006": 5.54173942159,
			"-0.005": 12.1406202908,
			"-0.004": 17.6169822079,
			"-0.003": 15.6151674882,
			"-0.002": 14.9359835355,
			"-0.001": 18.7276928954,
			"0.0": 20.1861902067,
			"0.001": 11.4840447176,
			"0.002": 6.22698081322,
			"0.003": 3.79990121272,
			"0.004": 3.82603856341,
			"0.005": 2.97416257297,
			"0.006": 2.57214447916,
			"0.007": 2.77405716872,
			"0.008": 2.80063470176,
			"0.009": 1.83646066492,
			"0.01": 1.64077659457,
			"0.011": 1.514786971,
			"0.012": 1.9384860851,
			"0.013": 1.17440440586,
			"0.014": 1.76499226506,
			"0.015": 1.51345729874,
			"0.016": 0.97035009153,
			"0.017": 0.0,
			"0.018": 0.0,
			"0.019": 0.0,
			"0.02": 0.0,
			"0.021": 0.0,
			"0.022": 0.0,
			"0.023": 0.0,
			"0.024": 0.0,
			"0.025": 0.0
		}
	}
}
