{
	 "smiles": "CSC1=NC(N)=NC(=N1)N1CCCCC1", 
	 "Tm": 430.15, 
	 "num_atms": 30, 
	 "gaussian": { 
		 "optdone": 1, 
		 "sigma_profile": "yes", 
		 "theory": "DFT", 
		 "functional": "B3LYP", 
		 "basiset": "6-31G**", 
		 "properties": { 
			 "R2extent": 4902.5706, 
			 "electric_dipole_moment_norm": 2.79334233133, 
			 "electric_quadrupole_moment_norm": 12.3399976994, 
			 "total_energy": -1023.98946423, 
			 "HOMO_LUMO_gap": 0.21353, 
			 "cosmo_polarized_energy": -12.17, 
			 "cosmo_cavitation_energy": 33.37, 
			 "cosmo_dispersion_energy": -25.39, 
			 "cosmo_repulsion_energy": 2.0, 
			 "cosmo_total_nonelectrostatic_energy": 9.99, 
			 "SMD_solvation_energy": 1.51 
		},
		"coords": [
			{
				"x": 0.6395079179,
				"y": -4.5812680062,
				"z": -0.1990540317,
				"element": "C" 
			},
			{
				"x": 1.2677141607,
				"y": -3.0258923521,
				"z": 0.5183034929,
				"element": "S" 
			},
			{
				"x": -0.0945781328,
				"y": -1.9238471338,
				"z": 0.2325145221,
				"element": "C" 
			},
			{
				"x": -1.180501165,
				"y": -2.3860072871,
				"z": -0.387931993,
				"element": "N" 
			},
			{
				"x": -2.1432776271,
				"y": -1.4480283706,
				"z": -0.5364297785,
				"element": "C" 
			},
			{
				"x": -3.2931306126,
				"y": -1.8542220647,
				"z": -1.13663597,
				"element": "N" 
			},
			{
				"x": -2.0811527849,
				"y": -0.1755645625,
				"z": -0.1306252928,
				"element": "N" 
			},
			{
				"x": -0.9213424155,
				"y": 0.159545947,
				"z": 0.4752645773,
				"element": "C" 
			},
			{
				"x": 0.1141038113,
				"y": -0.6878516406,
				"z": 0.6808549331,
				"element": "N" 
			},
			{
				"x": -0.7857920218,
				"y": 1.4396146685,
				"z": 0.9063360742,
				"element": "N" 
			},
			{
				"x": -1.8624444096,
				"y": 2.4163709954,
				"z": 0.6902692618,
				"element": "C" 
			},
			{
				"x": -1.3002849207,
				"y": 3.8386825197,
				"z": 0.7407961618,
				"element": "C" 
			},
			{
				"x": -0.6384650726,
				"y": 4.1565498054,
				"z": 2.0989386764,
				"element": "C" 
			},
			{
				"x": 0.0248633352,
				"y": 2.898745736,
				"z": 2.7103094985,
				"element": "C" 
			},
			{
				"x": 0.4106644316,
				"y": 1.8743240672,
				"z": 1.6396819607,
				"element": "C" 
			},
			{
				"x": 1.4321557288,
				"y": -5.3182994223,
				"z": -0.0510553913,
				"element": "H" 
			},
			{
				"x": -0.2686985585,
				"y": -4.9036574798,
				"z": 0.3106897316,
				"element": "H" 
			},
			{
				"x": 0.4357121403,
				"y": -4.4628090235,
				"z": -1.263538563,
				"element": "H" 
			},
			{
				"x": -3.2961573166,
				"y": -2.7517531772,
				"z": -1.5921900735,
				"element": "H" 
			},
			{
				"x": -3.9595550581,
				"y": -1.151172678,
				"z": -1.4102203084,
				"element": "H" 
			},
			{
				"x": -2.3261687004,
				"y": 2.209469444,
				"z": -0.2757281231,
				"element": "H" 
			},
			{
				"x": -2.6495757247,
				"y": 2.2887399552,
				"z": 1.4488315017,
				"element": "H" 
			},
			{
				"x": -2.1070152768,
				"y": 4.5480649795,
				"z": 0.5278888167,
				"element": "H" 
			},
			{
				"x": -0.5683023184,
				"y": 3.9499253894,
				"z": -0.0681167334,
				"element": "H" 
			},
			{
				"x": 0.1034618954,
				"y": 4.9510084382,
				"z": 1.9610011193,
				"element": "H" 
			},
			{
				"x": -1.38502678,
				"y": 4.5506259244,
				"z": 2.7977508437,
				"element": "H" 
			},
			{
				"x": 0.9168915579,
				"y": 3.1694676548,
				"z": 3.2850046078,
				"element": "H" 
			},
			{
				"x": -0.6633024712,
				"y": 2.4142022257,
				"z": 3.4129006554,
				"element": "H" 
			},
			{
				"x": 0.8722549269,
				"y": 0.9909135941,
				"z": 2.0796793744,
				"element": "H" 
			},
			{
				"x": 1.1468414614,
				"y": 2.3058218541,
				"z": 0.9451104495,
				"element": "H" 
			}
		],
		 "valence_orbital": [ 
			{
				"type": "occ",
				"energy": -0.25399,
				"method": "rhf"
			},
			{
				"type": "occ",
				"energy": -0.24716,
				"method": "rhf"
			},
			{
				"type": "occ",
				"energy": -0.24366,
				"method": "rhf"
			},
			{
				"type": "occ",
				"energy": -0.22226,
				"method": "rhf"
			},
			{
				"type": "occ",
				"energy": -0.21547,
				"method": "rhf"
			},
			{
				"type": "unocc",
				"energy": -0.00194,
				"method": "rhf"
			},
			{
				"type": "unocc",
				"energy": 0.01503,
				"method": "rhf"
			},
			{
				"type": "unocc",
				"energy": 0.04983,
				"method": "rhf"
			},
			{
				"type": "unocc",
				"energy": 0.0786,
				"method": "rhf"
			},
			{
				"type": "unocc",
				"energy": 0.09251,
				"method": "rhf"
			}
		],
		"cosmo_sigma_profile": { 
			"-0.025": 0.0,
			"-0.024": 0.0,
			"-0.023": 0.0,
			"-0.022": 0.0,
			"-0.021": 0.0,
			"-0.02": 0.0,
			"-0.019": 0.0,
			"-0.018": 0.0,
			"-0.017": 0.0,
			"-0.016": 0.0,
			"-0.015": 0.0,
			"-0.014": 1.24316214929,
			"-0.013": 2.11760840424,
			"-0.012": 2.23639655656,
			"-0.011": 1.05330488325,
			"-0.01": 2.19580789992,
			"-0.009": 2.3879414275,
			"-0.008": 1.32789632519,
			"-0.007": 3.33040524055,
			"-0.006": 4.16435063132,
			"-0.005": 5.13591929322,
			"-0.004": 11.8270577262,
			"-0.003": 30.7311617936,
			"-0.002": 41.4320227503,
			"-0.001": 30.7913112267,
			"0.0": 23.4536113755,
			"0.001": 18.2028984322,
			"0.002": 13.4418913105,
			"0.003": 9.30791393152,
			"0.004": 9.04851775929,
			"0.005": 10.724010002,
			"0.006": 10.8353938285,
			"0.007": 9.93413301658,
			"0.008": 8.05332039593,
			"0.009": 4.81541090253,
			"0.01": 3.15826086923,
			"0.011": 1.78394485505,
			"0.012": 1.01900192737,
			"0.013": 0.0237532979893,
			"0.014": 0.0,
			"0.015": 0.0,
			"0.016": 0.0,
			"0.017": 0.0,
			"0.018": 0.0,
			"0.019": 0.0,
			"0.02": 0.0,
			"0.021": 0.0,
			"0.022": 0.0,
			"0.023": 0.0,
			"0.024": 0.0,
			"0.025": 0.0
		}
	}
}
