{
	 "smiles": "C(NC1=CC=CC=C1)C1=CC=CC=C1", 
	 "Tm": 310.65, 
	 "num_atms": 27, 
	 "gaussian": { 
		 "optdone": 1, 
		 "sigma_profile": "yes", 
		 "theory": "DFT", 
		 "functional": "B3LYP", 
		 "basiset": "6-31G**", 
		 "properties": { 
			 "R2extent": 3552.2951, 
			 "electric_dipole_moment_norm": 1.66736329874, 
			 "electric_quadrupole_moment_norm": 7.248423779, 
			 "total_energy": -557.969734638, 
			 "HOMO_LUMO_gap": 0.18669, 
			 "cosmo_polarized_energy": -8.73, 
			 "cosmo_cavitation_energy": 30.16, 
			 "cosmo_dispersion_energy": -21.67, 
			 "cosmo_repulsion_energy": 1.71, 
			 "cosmo_total_nonelectrostatic_energy": 10.2, 
			 "SMD_solvation_energy": 4.4 
		},
		"coords": [
			{
				"x": -1.3415920205,
				"y": 0.3778414216,
				"z": -0.8767208717,
				"element": "C" 
			},
			{
				"x": -1.0104448263,
				"y": -0.7485889119,
				"z": -1.7188682207,
				"element": "N" 
			},
			{
				"x": -0.2483098872,
				"y": -1.8383269852,
				"z": -1.3159030306,
				"element": "C" 
			},
			{
				"x": 0.0842945958,
				"y": -2.832883284,
				"z": -2.2583162007,
				"element": "C" 
			},
			{
				"x": 0.8112460615,
				"y": -3.9562119959,
				"z": -1.8799825773,
				"element": "C" 
			},
			{
				"x": 1.2267157637,
				"y": -4.1260749665,
				"z": -0.5559319512,
				"element": "C" 
			},
			{
				"x": 0.9042679754,
				"y": -3.1425826651,
				"z": 0.3790453895,
				"element": "C" 
			},
			{
				"x": 0.1812962578,
				"y": -2.0066700744,
				"z": 0.0137948254,
				"element": "C" 
			},
			{
				"x": -0.2126596498,
				"y": 1.349946955,
				"z": -0.5333782313,
				"element": "C" 
			},
			{
				"x": -0.3766867818,
				"y": 2.2390854853,
				"z": 0.5370507091,
				"element": "C" 
			},
			{
				"x": 0.6112017208,
				"y": 3.1732274601,
				"z": 0.8474666421,
				"element": "C" 
			},
			{
				"x": 1.7850905208,
				"y": 3.2268664707,
				"z": 0.0920829349,
				"element": "C" 
			},
			{
				"x": 1.9595546323,
				"y": 2.3406041457,
				"z": -0.971250524,
				"element": "C" 
			},
			{
				"x": 0.9660590419,
				"y": 1.4094094317,
				"z": -1.2821279585,
				"element": "C" 
			},
			{
				"x": -1.7899444363,
				"y": 0.0092593473,
				"z": 0.0553899843,
				"element": "H" 
			},
			{
				"x": -2.140342132,
				"y": 0.9313795953,
				"z": -1.3861973487,
				"element": "H" 
			},
			{
				"x": -1.0995087288,
				"y": -0.6149127112,
				"z": -2.7135910722,
				"element": "H" 
			},
			{
				"x": -0.2423823393,
				"y": -2.7180008774,
				"z": -3.2898376308,
				"element": "H" 
			},
			{
				"x": 1.052782067,
				"y": -4.7072455592,
				"z": -2.6275264593,
				"element": "H" 
			},
			{
				"x": 1.7934499445,
				"y": -5.0040915654,
				"z": -0.2627388367,
				"element": "H" 
			},
			{
				"x": 1.225681014,
				"y": -3.2497389759,
				"z": 1.4117469728,
				"element": "H" 
			},
			{
				"x": -0.0311434376,
				"y": -1.2465125798,
				"z": 0.7570326854,
				"element": "H" 
			},
			{
				"x": -1.286231308,
				"y": 2.1985866124,
				"z": 1.1334266845,
				"element": "H" 
			},
			{
				"x": 0.4681315855,
				"y": 3.8544966878,
				"z": 1.6817427199,
				"element": "H" 
			},
			{
				"x": 2.5585168236,
				"y": 3.9499350029,
				"z": 0.3346726611,
				"element": "H" 
			},
			{
				"x": 2.8724795903,
				"y": 2.3697637005,
				"z": -1.5597065653,
				"element": "H" 
			},
			{
				"x": 1.1112779526,
				"y": 0.7141388352,
				"z": -2.10327473,
				"element": "H" 
			}
		],
		 "valence_orbital": [ 
			{
				"type": "occ",
				"energy": -0.28932,
				"method": "rhf"
			},
			{
				"type": "occ",
				"energy": -0.24813,
				"method": "rhf"
			},
			{
				"type": "occ",
				"energy": -0.24266,
				"method": "rhf"
			},
			{
				"type": "occ",
				"energy": -0.23647,
				"method": "rhf"
			},
			{
				"type": "occ",
				"energy": -0.18957,
				"method": "rhf"
			},
			{
				"type": "unocc",
				"energy": -0.00288,
				"method": "rhf"
			},
			{
				"type": "unocc",
				"energy": 0.00187,
				"method": "rhf"
			},
			{
				"type": "unocc",
				"energy": 0.01274,
				"method": "rhf"
			},
			{
				"type": "unocc",
				"energy": 0.0272,
				"method": "rhf"
			},
			{
				"type": "unocc",
				"energy": 0.08101,
				"method": "rhf"
			}
		],
		"cosmo_sigma_profile": { 
			"-0.025": 0.0,
			"-0.024": 0.0,
			"-0.023": 0.0,
			"-0.022": 0.0,
			"-0.021": 0.0,
			"-0.02": 0.0,
			"-0.019": 0.0,
			"-0.018": 0.0,
			"-0.017": 0.0,
			"-0.016": 0.0,
			"-0.015": 0.0,
			"-0.014": 0.0,
			"-0.013": 0.455129863363,
			"-0.012": 1.46465065923,
			"-0.011": 1.21267383475,
			"-0.01": 1.15789819348,
			"-0.009": 1.78658410591,
			"-0.008": 1.72273459256,
			"-0.007": 1.71373140172,
			"-0.006": 5.48810583105,
			"-0.005": 21.0696824323,
			"-0.004": 24.3651673855,
			"-0.003": 25.4633012456,
			"-0.002": 19.7781651159,
			"-0.001": 16.1353552035,
			"0.0": 12.6366322644,
			"0.001": 12.4404185858,
			"0.002": 13.4327685793,
			"0.003": 12.8730712181,
			"0.004": 14.7835047712,
			"0.005": 17.0902592486,
			"0.006": 17.5343168202,
			"0.007": 12.1058450045,
			"0.008": 4.92587639559,
			"0.009": 0.451184147187,
			"0.01": 0.0212707271623,
			"0.011": 0.0,
			"0.012": 0.0,
			"0.013": 0.0,
			"0.014": 0.0,
			"0.015": 0.0,
			"0.016": 0.0,
			"0.017": 0.0,
			"0.018": 0.0,
			"0.019": 0.0,
			"0.02": 0.0,
			"0.021": 0.0,
			"0.022": 0.0,
			"0.023": 0.0,
			"0.024": 0.0,
			"0.025": 0.0
		}
	}
}
