{
	 "smiles": "CCOC(=O)C1=CC=CC=C1N", 
	 "Tm": 287.15, 
	 "num_atms": 23, 
	 "gaussian": { 
		 "optdone": 1, 
		 "sigma_profile": "yes", 
		 "theory": "DFT", 
		 "functional": "B3LYP", 
		 "basiset": "6-31G**", 
		 "properties": { 
			 "R2extent": 2492.2799, 
			 "electric_dipole_moment_norm": 3.38547591041, 
			 "electric_quadrupole_moment_norm": 9.98616159893, 
			 "total_energy": -554.812067724, 
			 "HOMO_LUMO_gap": 0.1703, 
			 "cosmo_polarized_energy": -10.55, 
			 "cosmo_cavitation_energy": 26.56, 
			 "cosmo_dispersion_energy": -19.56, 
			 "cosmo_repulsion_energy": 1.57, 
			 "cosmo_total_nonelectrostatic_energy": 8.56, 
			 "SMD_solvation_energy": 5.47 
		},
		"coords": [
			{
				"x": -3.7474301873,
				"y": -2.0446291514,
				"z": 1.0283846163,
				"element": "C" 
			},
			{
				"x": -3.1025055968,
				"y": -1.1496456996,
				"z": -0.013308383,
				"element": "C" 
			},
			{
				"x": -1.7074272502,
				"y": -1.0027479972,
				"z": 0.3378185059,
				"element": "O" 
			},
			{
				"x": -0.9709652381,
				"y": -0.2071396023,
				"z": -0.4950603959,
				"element": "C" 
			},
			{
				"x": -1.476208462,
				"y": 0.3237865536,
				"z": -1.4669625665,
				"element": "O" 
			},
			{
				"x": 0.4558609658,
				"y": -0.0747430441,
				"z": -0.1112945014,
				"element": "C" 
			},
			{
				"x": 1.2440229917,
				"y": 0.6789255322,
				"z": -1.0041857753,
				"element": "C" 
			},
			{
				"x": 2.5987247056,
				"y": 0.8809644898,
				"z": -0.8019670673,
				"element": "C" 
			},
			{
				"x": 3.2003613004,
				"y": 0.315504224,
				"z": 0.3312200427,
				"element": "C" 
			},
			{
				"x": 2.4526031439,
				"y": -0.4250077892,
				"z": 1.2309518946,
				"element": "C" 
			},
			{
				"x": 1.0669109045,
				"y": -0.6399889774,
				"z": 1.0447640771,
				"element": "C" 
			},
			{
				"x": 0.377493998,
				"y": -1.3406893494,
				"z": 2.0067709415,
				"element": "N" 
			},
			{
				"x": -4.8089417134,
				"y": -2.1764197386,
				"z": 0.7969948074,
				"element": "H" 
			},
			{
				"x": -3.6683803306,
				"y": -1.6055034716,
				"z": 2.0274902999,
				"element": "H" 
			},
			{
				"x": -3.278157414,
				"y": -3.033224151,
				"z": 1.0441900547,
				"element": "H" 
			},
			{
				"x": -3.56295349,
				"y": -0.1578134055,
				"z": -0.0449887389,
				"element": "H" 
			},
			{
				"x": -3.1698717228,
				"y": -1.5743335349,
				"z": -1.0194481515,
				"element": "H" 
			},
			{
				"x": 0.740528659,
				"y": 1.0950432062,
				"z": -1.8699544837,
				"element": "H" 
			},
			{
				"x": 3.1817487467,
				"y": 1.4632376402,
				"z": -1.507700192,
				"element": "H" 
			},
			{
				"x": 4.2626989431,
				"y": 0.4555107134,
				"z": 0.5128127685,
				"element": "H" 
			},
			{
				"x": 2.9273817624,
				"y": -0.8512220312,
				"z": 2.1115157653,
				"element": "H" 
			},
			{
				"x": 0.9206522182,
				"y": -1.9104654811,
				"z": 2.6358379732,
				"element": "H" 
			},
			{
				"x": -0.5465469343,
				"y": -1.6675989348,
				"z": 1.7725185081,
				"element": "H" 
			}
		],
		 "valence_orbital": [ 
			{
				"type": "occ",
				"energy": -0.31191,
				"method": "rhf"
			},
			{
				"type": "occ",
				"energy": -0.29623,
				"method": "rhf"
			},
			{
				"type": "occ",
				"energy": -0.26739,
				"method": "rhf"
			},
			{
				"type": "occ",
				"energy": -0.24898,
				"method": "rhf"
			},
			{
				"type": "occ",
				"energy": -0.20298,
				"method": "rhf"
			},
			{
				"type": "unocc",
				"energy": -0.03268,
				"method": "rhf"
			},
			{
				"type": "unocc",
				"energy": 0.01566,
				"method": "rhf"
			},
			{
				"type": "unocc",
				"energy": 0.0662,
				"method": "rhf"
			},
			{
				"type": "unocc",
				"energy": 0.08785,
				"method": "rhf"
			},
			{
				"type": "unocc",
				"energy": 0.09547,
				"method": "rhf"
			}
		],
		"cosmo_sigma_profile": { 
			"-0.025": 0.0,
			"-0.024": 0.0,
			"-0.023": 0.0,
			"-0.022": 0.0,
			"-0.021": 0.0,
			"-0.02": 0.0,
			"-0.019": 0.0,
			"-0.018": 0.0,
			"-0.017": 0.0,
			"-0.016": 0.0,
			"-0.015": 0.0,
			"-0.014": 0.0,
			"-0.013": 0.847589278863,
			"-0.012": 1.63970356698,
			"-0.011": 1.1957079815,
			"-0.01": 1.73454918723,
			"-0.009": 1.76464665711,
			"-0.008": 2.11187847988,
			"-0.007": 3.04753709895,
			"-0.006": 4.64110485846,
			"-0.005": 12.7487571479,
			"-0.004": 20.8336125178,
			"-0.003": 21.2011107556,
			"-0.002": 20.1045205602,
			"-0.001": 16.9324384305,
			"0.0": 15.7485350453,
			"0.001": 12.1290444345,
			"0.002": 11.9194105166,
			"0.003": 11.9115651181,
			"0.004": 12.6621855179,
			"0.005": 11.8767036957,
			"0.006": 7.18177024489,
			"0.007": 2.66982380013,
			"0.008": 1.9483443713,
			"0.009": 2.27846268467,
			"0.01": 2.23790123047,
			"0.011": 3.05180402585,
			"0.012": 4.27789247135,
			"0.013": 1.78814346515,
			"0.014": 0.0,
			"0.015": 0.0,
			"0.016": 0.0,
			"0.017": 0.0,
			"0.018": 0.0,
			"0.019": 0.0,
			"0.02": 0.0,
			"0.021": 0.0,
			"0.022": 0.0,
			"0.023": 0.0,
			"0.024": 0.0,
			"0.025": 0.0
		}
	}
}
