{
	 "smiles": "CCCOC(=O)C1=C(C)NC(C)=C(C1C1=CC=CO1)C(=O)OCCC", 
	 "Tm": 385.15, 
	 "num_atms": 50, 
	 "gaussian": { 
		 "optdone": 1, 
		 "sigma_profile": "yes", 
		 "theory": "DFT", 
		 "functional": "B3LYP", 
		 "basiset": "6-31G**", 
		 "properties": { 
			 "R2extent": 10341.0016, 
			 "electric_dipole_moment_norm": 4.13841335417, 
			 "electric_quadrupole_moment_norm": 12.7266077381, 
			 "total_energy": -1169.96684126, 
			 "HOMO_LUMO_gap": 0.16103, 
			 "cosmo_polarized_energy": -21.13, 
			 "cosmo_cavitation_energy": 52.83, 
			 "cosmo_dispersion_energy": -34.42, 
			 "cosmo_repulsion_energy": 2.73, 
			 "cosmo_total_nonelectrostatic_energy": 21.14, 
			 "SMD_solvation_energy": 11.35 
		},
		"coords": [
			{
				"x": 6.5457132049,
				"y": 0.5450472112,
				"z": -0.1142490376,
				"element": "C" 
			},
			{
				"x": 5.0222244373,
				"y": 0.4008943556,
				"z": -0.1903886537,
				"element": "C" 
			},
			{
				"x": 4.4454387591,
				"y": -0.1954273878,
				"z": 1.0845364015,
				"element": "C" 
			},
			{
				"x": 3.0182611197,
				"y": -0.2918480586,
				"z": 0.9149696299,
				"element": "O" 
			},
			{
				"x": 2.3276339771,
				"y": -0.8078949283,
				"z": 1.9615363846,
				"element": "C" 
			},
			{
				"x": 2.8877315579,
				"y": -1.1684007626,
				"z": 2.9875801683,
				"element": "O" 
			},
			{
				"x": 0.8804927175,
				"y": -0.8553623612,
				"z": 1.6746547819,
				"element": "C" 
			},
			{
				"x": -0.0164333039,
				"y": -1.3383717134,
				"z": 2.5788522869,
				"element": "C" 
			},
			{
				"x": 0.2632595914,
				"y": -1.9359727864,
				"z": 3.9308653972,
				"element": "C" 
			},
			{
				"x": -1.3711602847,
				"y": -1.2441846995,
				"z": 2.2826451523,
				"element": "N" 
			},
			{
				"x": -1.8944464625,
				"y": -0.3700933889,
				"z": 1.3367005527,
				"element": "C" 
			},
			{
				"x": -3.3626137567,
				"y": -0.0737447218,
				"z": 1.5174846881,
				"element": "C" 
			},
			{
				"x": -1.042844981,
				"y": 0.1423931027,
				"z": 0.407376208,
				"element": "C" 
			},
			{
				"x": 0.3718179572,
				"y": -0.4287996737,
				"z": 0.3053718973,
				"element": "C" 
			},
			{
				"x": 0.4209422421,
				"y": -1.5886918066,
				"z": -0.6610223244,
				"element": "C" 
			},
			{
				"x": 0.6289679146,
				"y": -2.9314410095,
				"z": -0.5225887336,
				"element": "C" 
			},
			{
				"x": 0.5312022946,
				"y": -3.5002004725,
				"z": -1.8367863834,
				"element": "C" 
			},
			{
				"x": 0.266548767,
				"y": -2.4636395419,
				"z": -2.6764468714,
				"element": "C" 
			},
			{
				"x": 0.1976902194,
				"y": -1.293070043,
				"z": -1.9786901406,
				"element": "O" 
			},
			{
				"x": -1.3484779979,
				"y": 1.2356137808,
				"z": -0.5302021287,
				"element": "C" 
			},
			{
				"x": -0.5038498124,
				"y": 1.799560122,
				"z": -1.2052123249,
				"element": "O" 
			},
			{
				"x": -2.662856124,
				"y": 1.5917572069,
				"z": -0.5766102756,
				"element": "O" 
			},
			{
				"x": -2.972609797,
				"y": 2.6876176316,
				"z": -1.4652647627,
				"element": "C" 
			},
			{
				"x": -4.4851828745,
				"y": 2.8479938189,
				"z": -1.5144353555,
				"element": "C" 
			},
			{
				"x": -5.213099642,
				"y": 1.6616980804,
				"z": -2.1545739238,
				"element": "C" 
			},
			{
				"x": 6.9440526894,
				"y": 0.9750058056,
				"z": -1.0379452802,
				"element": "H" 
			},
			{
				"x": 7.0326143135,
				"y": -0.4249238907,
				"z": 0.0373185551,
				"element": "H" 
			},
			{
				"x": 6.8453435979,
				"y": 1.1990742307,
				"z": 0.7124228959,
				"element": "H" 
			},
			{
				"x": 4.5573826155,
				"y": 1.377787301,
				"z": -0.3674576045,
				"element": "H" 
			},
			{
				"x": 4.7431646888,
				"y": -0.2365289418,
				"z": -1.0373216101,
				"element": "H" 
			},
			{
				"x": 4.8502130215,
				"y": -1.193397891,
				"z": 1.2868662683,
				"element": "H" 
			},
			{
				"x": 4.6622116515,
				"y": 0.4266226693,
				"z": 1.9603974998,
				"element": "H" 
			},
			{
				"x": -0.3951733535,
				"y": -2.7967636159,
				"z": 4.100746838,
				"element": "H" 
			},
			{
				"x": 1.3026192242,
				"y": -2.2403531124,
				"z": 4.0161448438,
				"element": "H" 
			},
			{
				"x": 0.0615808688,
				"y": -1.2029616395,
				"z": 4.7220804901,
				"element": "H" 
			},
			{
				"x": -2.0091957427,
				"y": -1.5986244502,
				"z": 2.9791899495,
				"element": "H" 
			},
			{
				"x": -3.9141894561,
				"y": -0.2378900918,
				"z": 0.5914184919,
				"element": "H" 
			},
			{
				"x": -3.7926357311,
				"y": -0.7102537665,
				"z": 2.2977519293,
				"element": "H" 
			},
			{
				"x": -3.5212763859,
				"y": 0.9701203846,
				"z": 1.8003118247,
				"element": "H" 
			},
			{
				"x": 1.0116619296,
				"y": 0.3581429102,
				"z": -0.0981217752,
				"element": "H" 
			},
			{
				"x": 0.8343704155,
				"y": -3.4515780433,
				"z": 0.4009586729,
				"element": "H" 
			},
			{
				"x": 0.6452390031,
				"y": -4.5392033697,
				"z": -2.1118366581,
				"element": "H" 
			},
			{
				"x": 0.1114381737,
				"y": -2.3857692735,
				"z": -3.7414920675,
				"element": "H" 
			},
			{
				"x": -2.5541576389,
				"y": 2.4731058208,
				"z": -2.4539511724,
				"element": "H" 
			},
			{
				"x": -2.482876737,
				"y": 3.5935197908,
				"z": -1.0920786569,
				"element": "H" 
			},
			{
				"x": -4.8592234231,
				"y": 3.0189974037,
				"z": -0.497343614,
				"element": "H" 
			},
			{
				"x": -4.6976145011,
				"y": 3.7638793368,
				"z": -2.0805799481,
				"element": "H" 
			},
			{
				"x": -6.2954753384,
				"y": 1.823512636,
				"z": -2.1679680631,
				"element": "H" 
			},
			{
				"x": -4.8843453701,
				"y": 1.5105210327,
				"z": -3.1888847319,
				"element": "H" 
			},
			{
				"x": -5.0165782382,
				"y": 0.7357268094,
				"z": -1.6065297102,
				"element": "H" 
			}
		],
		 "valence_orbital": [ 
			{
				"type": "occ",
				"energy": -0.25952,
				"method": "rhf"
			},
			{
				"type": "occ",
				"energy": -0.25781,
				"method": "rhf"
			},
			{
				"type": "occ",
				"energy": -0.2518,
				"method": "rhf"
			},
			{
				"type": "occ",
				"energy": -0.208,
				"method": "rhf"
			},
			{
				"type": "occ",
				"energy": -0.20365,
				"method": "rhf"
			},
			{
				"type": "unocc",
				"energy": -0.04262,
				"method": "rhf"
			},
			{
				"type": "unocc",
				"energy": 0.00169,
				"method": "rhf"
			},
			{
				"type": "unocc",
				"energy": 0.03033,
				"method": "rhf"
			},
			{
				"type": "unocc",
				"energy": 0.06195,
				"method": "rhf"
			},
			{
				"type": "unocc",
				"energy": 0.07981,
				"method": "rhf"
			}
		],
		"cosmo_sigma_profile": { 
			"-0.025": 0.0,
			"-0.024": 0.0,
			"-0.023": 0.0,
			"-0.022": 0.0,
			"-0.021": 0.0,
			"-0.02": 0.0,
			"-0.019": 0.0,
			"-0.018": 0.0,
			"-0.017": 0.0,
			"-0.016": 0.22788966719,
			"-0.015": 0.991414225053,
			"-0.014": 1.33029047722,
			"-0.013": 1.55722996122,
			"-0.012": 1.45987328813,
			"-0.011": 1.57842181006,
			"-0.01": 1.42344315828,
			"-0.009": 1.67842872533,
			"-0.008": 3.35499966443,
			"-0.007": 4.59712008675,
			"-0.006": 8.5287847732,
			"-0.005": 14.7107760032,
			"-0.004": 26.9467779456,
			"-0.003": 50.075102002,
			"-0.002": 47.8937850395,
			"-0.001": 50.2413860065,
			"0.0": 42.9722258379,
			"0.001": 35.588940971,
			"0.002": 22.5326257743,
			"0.003": 19.3325599208,
			"0.004": 17.6849567545,
			"0.005": 13.3577514144,
			"0.006": 10.4990368278,
			"0.007": 6.4270541898,
			"0.008": 4.85439513867,
			"0.009": 3.71393942026,
			"0.01": 4.09021017635,
			"0.011": 4.31632611819,
			"0.012": 6.13129559771,
			"0.013": 6.76015780698,
			"0.014": 0.333222318708,
			"0.015": 0.0,
			"0.016": 0.0,
			"0.017": 0.0,
			"0.018": 0.0,
			"0.019": 0.0,
			"0.02": 0.0,
			"0.021": 0.0,
			"0.022": 0.0,
			"0.023": 0.0,
			"0.024": 0.0,
			"0.025": 0.0
		}
	}
}
