{
	 "smiles": "OC1=C2C=CC=CC2=NC=C1[N+]([O-])=O", 
	 "Tm": 618.15, 
	 "num_atms": 20, 
	 "gaussian": { 
		 "optdone": 1, 
		 "sigma_profile": "yes", 
		 "theory": "DFT", 
		 "functional": "B3LYP", 
		 "basiset": "6-31G**", 
		 "properties": { 
			 "R2extent": 3053.418, 
			 "electric_dipole_moment_norm": 3.83967932645, 
			 "electric_quadrupole_moment_norm": 5.16224135042, 
			 "total_energy": -681.661482553, 
			 "HOMO_LUMO_gap": 0.14252, 
			 "cosmo_polarized_energy": -9.04, 
			 "cosmo_cavitation_energy": 24.81, 
			 "cosmo_dispersion_energy": -19.04, 
			 "cosmo_repulsion_energy": 1.45, 
			 "cosmo_total_nonelectrostatic_energy": 7.22, 
			 "SMD_solvation_energy": 5.06 
		},
		"coords": [
			{
				"x": -0.8229836652,
				"y": -1.7071613522,
				"z": 2.266612997,
				"element": "O" 
			},
			{
				"x": -0.7620771554,
				"y": -0.6911867617,
				"z": 1.4189119385,
				"element": "C" 
			},
			{
				"x": 0.4949704115,
				"y": -0.0431269427,
				"z": 1.206585779,
				"element": "C" 
			},
			{
				"x": 1.6705297026,
				"y": -0.4583200058,
				"z": 1.8768733885,
				"element": "C" 
			},
			{
				"x": 2.8626455559,
				"y": 0.1951231792,
				"z": 1.6423455172,
				"element": "C" 
			},
			{
				"x": 2.913989211,
				"y": 1.2775079562,
				"z": 0.7351526575,
				"element": "C" 
			},
			{
				"x": 1.7778263505,
				"y": 1.6969699442,
				"z": 0.0718610521,
				"element": "C" 
			},
			{
				"x": 0.5396252483,
				"y": 1.0491543595,
				"z": 0.2892664491,
				"element": "C" 
			},
			{
				"x": -0.5622220721,
				"y": 1.5067726021,
				"z": -0.3971570263,
				"element": "N" 
			},
			{
				"x": -1.7011435691,
				"y": 0.900909389,
				"z": -0.1886506412,
				"element": "C" 
			},
			{
				"x": -1.8628270758,
				"y": -0.1979254331,
				"z": 0.7026147372,
				"element": "C" 
			},
			{
				"x": -3.1622568781,
				"y": -0.7868444309,
				"z": 0.85338427,
				"element": "N" 
			},
			{
				"x": -4.1064165241,
				"y": -0.3363650201,
				"z": 0.2161567186,
				"element": "O" 
			},
			{
				"x": -3.2829359446,
				"y": -1.7575585293,
				"z": 1.646177871,
				"element": "O" 
			},
			{
				"x": -1.7740499517,
				"y": -2.0033276832,
				"z": 2.2618470582,
				"element": "H" 
			},
			{
				"x": 1.6130663843,
				"y": -1.2905512936,
				"z": 2.5695175877,
				"element": "H" 
			},
			{
				"x": 3.7653769037,
				"y": -0.1216223281,
				"z": 2.1553109317,
				"element": "H" 
			},
			{
				"x": 3.8588898115,
				"y": 1.783380921,
				"z": 0.5594496999,
				"element": "H" 
			},
			{
				"x": 1.7950885633,
				"y": 2.5251969729,
				"z": -0.6282934873,
				"element": "H" 
			},
			{
				"x": -2.5775953065,
				"y": 1.2536744566,
				"z": -0.7249674984,
				"element": "H" 
			}
		],
		 "valence_orbital": [ 
			{
				"type": "occ",
				"energy": -0.31229,
				"method": "rhf"
			},
			{
				"type": "occ",
				"energy": -0.29938,
				"method": "rhf"
			},
			{
				"type": "occ",
				"energy": -0.27755,
				"method": "rhf"
			},
			{
				"type": "occ",
				"energy": -0.27524,
				"method": "rhf"
			},
			{
				"type": "occ",
				"energy": -0.24835,
				"method": "rhf"
			},
			{
				"type": "unocc",
				"energy": -0.10583,
				"method": "rhf"
			},
			{
				"type": "unocc",
				"energy": -0.06068,
				"method": "rhf"
			},
			{
				"type": "unocc",
				"energy": -0.02265,
				"method": "rhf"
			},
			{
				"type": "unocc",
				"energy": 0.00696,
				"method": "rhf"
			},
			{
				"type": "unocc",
				"energy": 0.07989,
				"method": "rhf"
			}
		],
		"cosmo_sigma_profile": { 
			"-0.025": 0.0,
			"-0.024": 0.0,
			"-0.023": 0.0,
			"-0.022": 0.0,
			"-0.021": 0.0,
			"-0.02": 0.0,
			"-0.019": 0.0,
			"-0.018": 0.0,
			"-0.017": 0.0,
			"-0.016": 0.0,
			"-0.015": 0.0,
			"-0.014": 0.0,
			"-0.013": 0.0,
			"-0.012": 0.0,
			"-0.011": 0.401062036924,
			"-0.01": 0.448843317634,
			"-0.009": 1.01774350296,
			"-0.008": 3.86874163917,
			"-0.007": 9.99903341762,
			"-0.006": 12.9173733765,
			"-0.005": 13.5003080585,
			"-0.004": 14.1963829075,
			"-0.003": 14.8936000557,
			"-0.002": 12.6062388365,
			"-0.001": 12.67690806,
			"0.0": 14.8940591733,
			"0.001": 15.6239757332,
			"0.002": 16.4965636257,
			"0.003": 13.3289743926,
			"0.004": 5.80493783334,
			"0.005": 5.67318527485,
			"0.006": 8.02088804371,
			"0.007": 8.43465805172,
			"0.008": 5.91603266166,
			"0.009": 4.2084030825,
			"0.01": 2.13001837616,
			"0.011": 0.609274956246,
			"0.012": 0.622749387353,
			"0.013": 1.11814786556,
			"0.014": 0.847430664716,
			"0.015": 0.47049719324,
			"0.016": 0.0,
			"0.017": 0.0,
			"0.018": 0.0,
			"0.019": 0.0,
			"0.02": 0.0,
			"0.021": 0.0,
			"0.022": 0.0,
			"0.023": 0.0,
			"0.024": 0.0,
			"0.025": 0.0
		}
	}
}
