{
	 "smiles": "COC1=CC=CC(CC(=O)NN)=C1", 
	 "Tm": 362.65, 
	 "num_atms": 25, 
	 "gaussian": { 
		 "optdone": 1, 
		 "sigma_profile": "yes", 
		 "theory": "DFT", 
		 "functional": "B3LYP", 
		 "basiset": "6-31G**", 
		 "properties": { 
			 "R2extent": 3510.7853, 
			 "electric_dipole_moment_norm": 1.94916777626, 
			 "electric_quadrupole_moment_norm": 8.71956932193, 
			 "total_energy": -610.109766726, 
			 "HOMO_LUMO_gap": 0.21152, 
			 "cosmo_polarized_energy": -14.98, 
			 "cosmo_cavitation_energy": 28.65, 
			 "cosmo_dispersion_energy": -20.32, 
			 "cosmo_repulsion_energy": 1.63, 
			 "cosmo_total_nonelectrostatic_energy": 9.97, 
			 "SMD_solvation_energy": 6.56 
		},
		"coords": [
			{
				"x": -3.62335602,
				"y": 0.5967705222,
				"z": 2.3733229567,
				"element": "C" 
			},
			{
				"x": -3.8215344181,
				"y": -0.6935847711,
				"z": 1.812393263,
				"element": "O" 
			},
			{
				"x": -2.8413725453,
				"y": -1.2098932416,
				"z": 1.0190993566,
				"element": "C" 
			},
			{
				"x": -3.0935416925,
				"y": -2.4906859791,
				"z": 0.4984400191,
				"element": "C" 
			},
			{
				"x": -2.1505696846,
				"y": -3.0974404576,
				"z": -0.3189293256,
				"element": "C" 
			},
			{
				"x": -0.9492811523,
				"y": -2.4466456965,
				"z": -0.6291444049,
				"element": "C" 
			},
			{
				"x": -0.6965069484,
				"y": -1.1715508994,
				"z": -0.1170712181,
				"element": "C" 
			},
			{
				"x": 0.5946319266,
				"y": -0.4338479294,
				"z": -0.4397987596,
				"element": "C" 
			},
			{
				"x": 1.3243391378,
				"y": -0.0009228207,
				"z": 0.8323801631,
				"element": "C" 
			},
			{
				"x": 1.1883393178,
				"y": 1.1160917419,
				"z": 1.316543051,
				"element": "O" 
			},
			{
				"x": 2.1271249969,
				"y": -0.9383263843,
				"z": 1.4325810656,
				"element": "N" 
			},
			{
				"x": 2.2227160386,
				"y": -2.3032509119,
				"z": 1.1178805215,
				"element": "N" 
			},
			{
				"x": -1.6461401098,
				"y": -0.5533404523,
				"z": 0.7130310426,
				"element": "C" 
			},
			{
				"x": -4.5158146603,
				"y": 0.806904803,
				"z": 2.964565262,
				"element": "H" 
			},
			{
				"x": -3.5154982785,
				"y": 1.363310544,
				"z": 1.5957170269,
				"element": "H" 
			},
			{
				"x": -2.7415514031,
				"y": 0.6234526557,
				"z": 3.0254450465,
				"element": "H" 
			},
			{
				"x": -4.0291679808,
				"y": -2.9788278019,
				"z": 0.7500324962,
				"element": "H" 
			},
			{
				"x": -2.3485177743,
				"y": -4.0864097571,
				"z": -0.7225007608,
				"element": "H" 
			},
			{
				"x": -0.2246789939,
				"y": -2.9234799692,
				"z": -1.2840172755,
				"element": "H" 
			},
			{
				"x": 1.2331497681,
				"y": -1.0589344469,
				"z": -1.0711560283,
				"element": "H" 
			},
			{
				"x": 0.3795007003,
				"y": 0.4897005221,
				"z": -0.9843276817,
				"element": "H" 
			},
			{
				"x": 2.5138767741,
				"y": -0.6712793342,
				"z": 2.3289860549,
				"element": "H" 
			},
			{
				"x": 2.7370464088,
				"y": -2.4275656045,
				"z": 0.249623041,
				"element": "H" 
			},
			{
				"x": 1.2952573613,
				"y": -2.7084572613,
				"z": 1.0129188312,
				"element": "H" 
			},
			{
				"x": -1.4246507682,
				"y": 0.42991293,
				"z": 1.1113862564,
				"element": "H" 
			}
		],
		 "valence_orbital": [ 
			{
				"type": "occ",
				"energy": -0.28958,
				"method": "rhf"
			},
			{
				"type": "occ",
				"energy": -0.25631,
				"method": "rhf"
			},
			{
				"type": "occ",
				"energy": -0.25553,
				"method": "rhf"
			},
			{
				"type": "occ",
				"energy": -0.23987,
				"method": "rhf"
			},
			{
				"type": "occ",
				"energy": -0.22177,
				"method": "rhf"
			},
			{
				"type": "unocc",
				"energy": -0.01025,
				"method": "rhf"
			},
			{
				"type": "unocc",
				"energy": 0.0042,
				"method": "rhf"
			},
			{
				"type": "unocc",
				"energy": 0.0279,
				"method": "rhf"
			},
			{
				"type": "unocc",
				"energy": 0.06912,
				"method": "rhf"
			},
			{
				"type": "unocc",
				"energy": 0.09752,
				"method": "rhf"
			}
		],
		"cosmo_sigma_profile": { 
			"-0.025": 0.0,
			"-0.024": 0.0,
			"-0.023": 0.0,
			"-0.022": 0.0,
			"-0.021": 0.0,
			"-0.02": 0.0,
			"-0.019": 0.0,
			"-0.018": 0.0,
			"-0.017": 0.0,
			"-0.016": 0.0,
			"-0.015": 0.0,
			"-0.014": 0.109634774166,
			"-0.013": 0.766606694218,
			"-0.012": 1.69721163165,
			"-0.011": 2.75009918162,
			"-0.01": 2.87523514066,
			"-0.009": 2.9437483508,
			"-0.008": 4.34905289684,
			"-0.007": 4.7140197721,
			"-0.006": 11.7529641364,
			"-0.005": 21.1380184761,
			"-0.004": 20.4802549525,
			"-0.003": 20.5436969495,
			"-0.002": 15.2364216659,
			"-0.001": 11.5792174108,
			"0.0": 10.5870795116,
			"0.001": 9.4205382304,
			"0.002": 11.6968154386,
			"0.003": 14.0390142044,
			"0.004": 12.7081538182,
			"0.005": 10.838193831,
			"0.006": 6.18132878631,
			"0.007": 3.07420864261,
			"0.008": 4.18896052636,
			"0.009": 2.99375812179,
			"0.01": 3.24739462695,
			"0.011": 2.39656279249,
			"0.012": 1.96213224637,
			"0.013": 4.45445969199,
			"0.014": 5.39678876912,
			"0.015": 1.33967012664,
			"0.016": 0.509796863966,
			"0.017": 0.0139396539837,
			"0.018": 0.0,
			"0.019": 0.0,
			"0.02": 0.0,
			"0.021": 0.0,
			"0.022": 0.0,
			"0.023": 0.0,
			"0.024": 0.0,
			"0.025": 0.0
		}
	}
}
