{
	 "smiles": "CC(C)(C)OC(=O)NC1=NSN=C1", 
	 "Tm": 367.15, 
	 "num_atms": 24, 
	 "gaussian": { 
		 "optdone": 1, 
		 "sigma_profile": "yes", 
		 "theory": "DFT", 
		 "functional": "B3LYP", 
		 "basiset": "6-31G**", 
		 "properties": { 
			 "R2extent": 4099.8017, 
			 "electric_dipole_moment_norm": 2.3768333913, 
			 "electric_quadrupole_moment_norm": 8.02120095497, 
			 "total_energy": -986.277980288, 
			 "HOMO_LUMO_gap": 0.18824, 
			 "cosmo_polarized_energy": -9.35, 
			 "cosmo_cavitation_energy": 29.19, 
			 "cosmo_dispersion_energy": -21.37, 
			 "cosmo_repulsion_energy": 1.62, 
			 "cosmo_total_nonelectrostatic_energy": 9.44, 
			 "SMD_solvation_energy": 3.42 
		},
		"coords": [
			{
				"x": 2.4269785757,
				"y": 0.0207729133,
				"z": -1.3083173992,
				"element": "C" 
			},
			{
				"x": 1.3481607967,
				"y": 0.8236545891,
				"z": -0.5763884677,
				"element": "C" 
			},
			{
				"x": 1.3423733497,
				"y": 2.3017898829,
				"z": -0.975589541,
				"element": "C" 
			},
			{
				"x": 1.4846271407,
				"y": 0.6674533067,
				"z": 0.9395363733,
				"element": "C" 
			},
			{
				"x": 0.0157411699,
				"y": 0.2287168115,
				"z": -0.841022868,
				"element": "O" 
			},
			{
				"x": -0.4742958455,
				"y": 0.1779400272,
				"z": -2.0904964826,
				"element": "C" 
			},
			{
				"x": 0.0601931126,
				"y": 0.5804799468,
				"z": -3.1065752404,
				"element": "O" 
			},
			{
				"x": -1.7278918517,
				"y": -0.4125853192,
				"z": -2.1309331542,
				"element": "N" 
			},
			{
				"x": -2.5403853631,
				"y": -0.9448639287,
				"z": -1.1360189803,
				"element": "C" 
			},
			{
				"x": -3.7068055246,
				"y": -1.4473415795,
				"z": -1.4980732515,
				"element": "N" 
			},
			{
				"x": -4.4486266874,
				"y": -2.0022201735,
				"z": -0.1186635206,
				"element": "S" 
			},
			{
				"x": -3.2554175769,
				"y": -1.5922903473,
				"z": 0.963055578,
				"element": "N" 
			},
			{
				"x": -2.2827586846,
				"y": -1.0294906587,
				"z": 0.2818304413,
				"element": "C" 
			},
			{
				"x": 2.3219229971,
				"y": 0.1142749925,
				"z": -2.3892657149,
				"element": "H" 
			},
			{
				"x": 2.3673055821,
				"y": -1.0370903175,
				"z": -1.0340190439,
				"element": "H" 
			},
			{
				"x": 3.4148930692,
				"y": 0.3911508728,
				"z": -1.01666224,
				"element": "H" 
			},
			{
				"x": 2.2867223479,
				"y": 2.7634411157,
				"z": -0.6701265815,
				"element": "H" 
			},
			{
				"x": 0.527973428,
				"y": 2.8302435484,
				"z": -0.4702512182,
				"element": "H" 
			},
			{
				"x": 1.2270353596,
				"y": 2.4182326831,
				"z": -2.0532708643,
				"element": "H" 
			},
			{
				"x": 2.4440666604,
				"y": 1.0754866956,
				"z": 1.2700984682,
				"element": "H" 
			},
			{
				"x": 1.4431398892,
				"y": -0.3871204435,
				"z": 1.2278319269,
				"element": "H" 
			},
			{
				"x": 0.6862034661,
				"y": 1.2046502919,
				"z": 1.4600128979,
				"element": "H" 
			},
			{
				"x": -2.1123927453,
				"y": -0.4592047258,
				"z": -3.0650265323,
				"element": "H" 
			},
			{
				"x": -1.3912626659,
				"y": -0.6776801838,
				"z": 0.7789354151,
				"element": "H" 
			}
		],
		 "valence_orbital": [ 
			{
				"type": "occ",
				"energy": -0.30773,
				"method": "rhf"
			},
			{
				"type": "occ",
				"energy": -0.30187,
				"method": "rhf"
			},
			{
				"type": "occ",
				"energy": -0.29974,
				"method": "rhf"
			},
			{
				"type": "occ",
				"energy": -0.28399,
				"method": "rhf"
			},
			{
				"type": "occ",
				"energy": -0.24235,
				"method": "rhf"
			},
			{
				"type": "unocc",
				"energy": -0.05411,
				"method": "rhf"
			},
			{
				"type": "unocc",
				"energy": 0.00442,
				"method": "rhf"
			},
			{
				"type": "unocc",
				"energy": 0.01511,
				"method": "rhf"
			},
			{
				"type": "unocc",
				"energy": 0.06371,
				"method": "rhf"
			},
			{
				"type": "unocc",
				"energy": 0.072,
				"method": "rhf"
			}
		],
		"cosmo_sigma_profile": { 
			"-0.025": 0.0,
			"-0.024": 0.0,
			"-0.023": 0.0,
			"-0.022": 0.0,
			"-0.021": 0.0,
			"-0.02": 0.0,
			"-0.019": 0.0,
			"-0.018": 0.0,
			"-0.017": 0.0,
			"-0.016": 0.224421119691,
			"-0.015": 0.634994654014,
			"-0.014": 0.72044900658,
			"-0.013": 1.05160174902,
			"-0.012": 0.590172875181,
			"-0.011": 0.292134373018,
			"-0.01": 0.699634748686,
			"-0.009": 1.27031516831,
			"-0.008": 0.412232736927,
			"-0.007": 0.98846070902,
			"-0.006": 2.1762345258,
			"-0.005": 5.5631744265,
			"-0.004": 20.1529172609,
			"-0.003": 27.0648809121,
			"-0.002": 30.7432788235,
			"-0.001": 33.7859528617,
			"0.0": 34.2772953102,
			"0.001": 20.1462363691,
			"0.002": 9.05524879336,
			"0.003": 5.72664873569,
			"0.004": 4.27866677548,
			"0.005": 4.04449007294,
			"0.006": 3.90796941699,
			"0.007": 4.1423250788,
			"0.008": 3.0501011112,
			"0.009": 3.35631420192,
			"0.01": 3.42723071871,
			"0.011": 4.10580402721,
			"0.012": 5.37239071107,
			"0.013": 2.0983795474,
			"0.014": 0.0273780449632,
			"0.015": 0.0,
			"0.016": 0.0,
			"0.017": 0.0,
			"0.018": 0.0,
			"0.019": 0.0,
			"0.02": 0.0,
			"0.021": 0.0,
			"0.022": 0.0,
			"0.023": 0.0,
			"0.024": 0.0,
			"0.025": 0.0
		}
	}
}
