{
	 "smiles": "SC1=NN=C(N1)C1=CC=NC=C1", 
	 "Tm": 583.15, 
	 "num_atms": 18, 
	 "gaussian": { 
		 "optdone": 1, 
		 "sigma_profile": "yes", 
		 "theory": "DFT", 
		 "functional": "B3LYP", 
		 "basiset": "6-31G**", 
		 "properties": { 
			 "R2extent": 4144.7551, 
			 "electric_dipole_moment_norm": 5.26670333416, 
			 "electric_quadrupole_moment_norm": 26.3582130303, 
			 "total_energy": -887.517953059, 
			 "HOMO_LUMO_gap": 0.17554, 
			 "cosmo_polarized_energy": -24.9, 
			 "cosmo_cavitation_energy": 24.99, 
			 "cosmo_dispersion_energy": -19.25, 
			 "cosmo_repulsion_energy": 1.46, 
			 "cosmo_total_nonelectrostatic_energy": 7.21, 
			 "SMD_solvation_energy": 0.26 
		},
		"coords": [
			{
				"x": 2.4486112524,
				"y": 4.2616628644,
				"z": -2.4706208227,
				"element": "S" 
			},
			{
				"x": 1.5395048795,
				"y": 2.7512371786,
				"z": -2.3662599157,
				"element": "C" 
			},
			{
				"x": 0.5707462112,
				"y": 2.4455077267,
				"z": -3.1987081147,
				"element": "N" 
			},
			{
				"x": 0.0909620538,
				"y": 1.2121871167,
				"z": -2.8280645534,
				"element": "N" 
			},
			{
				"x": 0.7758463733,
				"y": 0.7966162071,
				"z": -1.7824479838,
				"element": "C" 
			},
			{
				"x": 1.716460012,
				"y": 1.7501437149,
				"z": -1.4493491538,
				"element": "N" 
			},
			{
				"x": 0.5739679324,
				"y": -0.4716961406,
				"z": -1.084179805,
				"element": "C" 
			},
			{
				"x": -0.4225676782,
				"y": -1.3534797944,
				"z": -1.5297089453,
				"element": "C" 
			},
			{
				"x": -0.6021866481,
				"y": -2.5565663387,
				"z": -0.8544520793,
				"element": "C" 
			},
			{
				"x": 0.1214243231,
				"y": -2.938461602,
				"z": 0.2087725118,
				"element": "N" 
			},
			{
				"x": 1.0688768311,
				"y": -2.0925829163,
				"z": 0.6269164604,
				"element": "C" 
			},
			{
				"x": 1.3349361837,
				"y": -0.8625521186,
				"z": 0.0261057775,
				"element": "C" 
			},
			{
				"x": 3.2520922606,
				"y": 4.0160176957,
				"z": -1.4168376194,
				"element": "H" 
			},
			{
				"x": 2.3862886106,
				"y": 1.7169001598,
				"z": -0.6969213503,
				"element": "H" 
			},
			{
				"x": -1.0330169008,
				"y": -1.0884566231,
				"z": -2.3852687257,
				"element": "H" 
			},
			{
				"x": -1.3698852464,
				"y": -3.2535007782,
				"z": -1.184929638,
				"element": "H" 
			},
			{
				"x": 1.6511661457,
				"y": -2.4104117999,
				"z": 1.4900919384,
				"element": "H" 
			},
			{
				"x": 2.124773404,
				"y": -0.2363645519,
				"z": 0.4317620191,
				"element": "H" 
			}
		],
		 "valence_orbital": [ 
			{
				"type": "occ",
				"energy": -0.29768,
				"method": "rhf"
			},
			{
				"type": "occ",
				"energy": -0.27431,
				"method": "rhf"
			},
			{
				"type": "occ",
				"energy": -0.27063,
				"method": "rhf"
			},
			{
				"type": "occ",
				"energy": -0.26223,
				"method": "rhf"
			},
			{
				"type": "occ",
				"energy": -0.23651,
				"method": "rhf"
			},
			{
				"type": "unocc",
				"energy": -0.06097,
				"method": "rhf"
			},
			{
				"type": "unocc",
				"energy": -0.02228,
				"method": "rhf"
			},
			{
				"type": "unocc",
				"energy": -0.01215,
				"method": "rhf"
			},
			{
				"type": "unocc",
				"energy": 0.01842,
				"method": "rhf"
			},
			{
				"type": "unocc",
				"energy": 0.03678,
				"method": "rhf"
			}
		],
		"cosmo_sigma_profile": { 
			"-0.025": 0.0,
			"-0.024": 0.0,
			"-0.023": 0.0,
			"-0.022": 0.0,
			"-0.021": 0.0,
			"-0.02": 0.0,
			"-0.019": 0.649466075094,
			"-0.018": 2.77269236479,
			"-0.017": 1.90823984916,
			"-0.016": 2.0269734398,
			"-0.015": 1.81515105649,
			"-0.014": 1.75536522252,
			"-0.013": 2.54524630028,
			"-0.012": 3.04179802632,
			"-0.011": 2.27949293797,
			"-0.01": 2.66814388704,
			"-0.009": 1.53240388665,
			"-0.008": 2.1851315104,
			"-0.007": 6.31711786104,
			"-0.006": 10.7702667707,
			"-0.005": 8.39300527906,
			"-0.004": 7.05689382265,
			"-0.003": 7.65570496295,
			"-0.002": 10.7044750877,
			"-0.001": 12.0462910637,
			"0.0": 12.9823660949,
			"0.001": 20.0867433835,
			"0.002": 18.6719505644,
			"0.003": 11.2941480545,
			"0.004": 7.22296529271,
			"0.005": 7.20738185087,
			"0.006": 5.25660355261,
			"0.007": 4.2975532843,
			"0.008": 3.71575960299,
			"0.009": 2.67382156796,
			"0.01": 3.72784116728,
			"0.011": 2.83213866159,
			"0.012": 3.54949065514,
			"0.013": 5.23920865666,
			"0.014": 2.93738156701,
			"0.015": 2.85170403212,
			"0.016": 1.36834244816,
			"0.017": 0.273357013044,
			"0.018": 0.0,
			"0.019": 0.0,
			"0.02": 0.0,
			"0.021": 0.0,
			"0.022": 0.0,
			"0.023": 0.0,
			"0.024": 0.0,
			"0.025": 0.0
		}
	}
}
