{
	 "smiles": "FC(F)(F)C(F)(F)C(F)(F)C(F)(F)C(F)(F)C(F)(F)C(F)(F)C(F)(F)C(=O)NC1=CN=CC=C1", 
	 "Tm": 418.15, 
	 "num_atms": 39, 
	 "gaussian": { 
		 "optdone": 1, 
		 "sigma_profile": "yes", 
		 "theory": "DFT", 
		 "functional": "B3LYP", 
		 "basiset": "6-31G**", 
		 "properties": { 
			 "R2extent": 15278.9847, 
			 "electric_dipole_moment_norm": 1.1612494521, 
			 "electric_quadrupole_moment_norm": 8.83504482558, 
			 "total_energy": -2418.44580594, 
			 "HOMO_LUMO_gap": 0.19785, 
			 "cosmo_polarized_energy": -11.53, 
			 "cosmo_cavitation_energy": 49.01, 
			 "cosmo_dispersion_energy": -32.01, 
			 "cosmo_repulsion_energy": 2.09, 
			 "cosmo_total_nonelectrostatic_energy": 19.08, 
			 "SMD_solvation_energy": 12.25 
		},
		"coords": [
			{
				"x": 1.7536068028,
				"y": 3.470174358,
				"z": -4.7015538389,
				"element": "F" 
			},
			{
				"x": 0.821359556,
				"y": 3.3924639657,
				"z": -3.7476326964,
				"element": "C" 
			},
			{
				"x": 1.3367521674,
				"y": 3.8280388122,
				"z": -2.5900013046,
				"element": "F" 
			},
			{
				"x": -0.2085113504,
				"y": 4.1767070088,
				"z": -4.0854449949,
				"element": "F" 
			},
			{
				"x": 0.3096604303,
				"y": 1.9332729307,
				"z": -3.5987432032,
				"element": "C" 
			},
			{
				"x": -0.8041054588,
				"y": 1.9679999436,
				"z": -2.8348748935,
				"element": "F" 
			},
			{
				"x": -0.0065865357,
				"y": 1.4845745828,
				"z": -4.8337724323,
				"element": "F" 
			},
			{
				"x": 1.3370171993,
				"y": 0.973888137,
				"z": -2.936817268,
				"element": "C" 
			},
			{
				"x": 1.3924455227,
				"y": 1.2522930484,
				"z": -1.6159460307,
				"element": "F" 
			},
			{
				"x": 2.5535745185,
				"y": 1.2234314791,
				"z": -3.4835885416,
				"element": "F" 
			},
			{
				"x": 1.1132891868,
				"y": -0.5597192771,
				"z": -3.1184301795,
				"element": "C" 
			},
			{
				"x": 1.2398271366,
				"y": -0.8337972706,
				"z": -4.436143001,
				"element": "F" 
			},
			{
				"x": 2.1241164302,
				"y": -1.171194384,
				"z": -2.4534386762,
				"element": "F" 
			},
			{
				"x": -0.2217244939,
				"y": -1.2159859894,
				"z": -2.6658322098,
				"element": "C" 
			},
			{
				"x": -0.1451553189,
				"y": -2.5145781585,
				"z": -3.0321762723,
				"element": "F" 
			},
			{
				"x": -1.224103903,
				"y": -0.6296593391,
				"z": -3.365631857,
				"element": "F" 
			},
			{
				"x": -0.6563807516,
				"y": -1.1733365706,
				"z": -1.1660945626,
				"element": "C" 
			},
			{
				"x": -0.8982546375,
				"y": 0.1155963581,
				"z": -0.8289478818,
				"element": "F" 
			},
			{
				"x": -1.8147354146,
				"y": -1.8678096057,
				"z": -1.1141226412,
				"element": "F" 
			},
			{
				"x": 0.3247989358,
				"y": -1.7700332033,
				"z": -0.1207154483,
				"element": "C" 
			},
			{
				"x": 0.8484196969,
				"y": -2.9187781093,
				"z": -0.6036718426,
				"element": "F" 
			},
			{
				"x": 1.3282888297,
				"y": -0.8765568438,
				"z": 0.0835813073,
				"element": "F" 
			},
			{
				"x": -0.2854075318,
				"y": -2.084596696,
				"z": 1.2763486466,
				"element": "C" 
			},
			{
				"x": 0.7738624758,
				"y": -2.5319178966,
				"z": 2.0286654402,
				"element": "F" 
			},
			{
				"x": -1.1727033861,
				"y": -3.0876503647,
				"z": 1.1594983046,
				"element": "F" 
			},
			{
				"x": -0.9633091845,
				"y": -0.8760420025,
				"z": 1.9768811311,
				"element": "C" 
			},
			{
				"x": -2.1275407831,
				"y": -0.6168607726,
				"z": 1.7314872114,
				"element": "O" 
			},
			{
				"x": -0.1240238338,
				"y": -0.2046306733,
				"z": 2.8117299239,
				"element": "N" 
			},
			{
				"x": -0.407052833,
				"y": 0.9443131214,
				"z": 3.5786477902,
				"element": "C" 
			},
			{
				"x": 0.6213738545,
				"y": 1.4509974989,
				"z": 4.3892815533,
				"element": "C" 
			},
			{
				"x": 0.4946566314,
				"y": 2.5281985553,
				"z": 5.1600308087,
				"element": "N" 
			},
			{
				"x": -0.687775533,
				"y": 3.1585777039,
				"z": 5.1540417536,
				"element": "C" 
			},
			{
				"x": -1.770251243,
				"y": 2.7343381407,
				"z": 4.3837773284,
				"element": "C" 
			},
			{
				"x": -1.6410053214,
				"y": 1.6062588933,
				"z": 3.5762570178,
				"element": "C" 
			},
			{
				"x": 0.8018851987,
				"y": -0.5969878987,
				"z": 2.9214062195,
				"element": "H" 
			},
			{
				"x": 1.591817925,
				"y": 0.9518036571,
				"z": 4.4064625243,
				"element": "H" 
			},
			{
				"x": -0.7688831311,
				"y": 4.0361577587,
				"z": 5.7914950572,
				"element": "H" 
			},
			{
				"x": -2.7088488609,
				"y": 3.2786082072,
				"z": 4.4132223181,
				"element": "H" 
			},
			{
				"x": -2.4556929924,
				"y": 1.2420408948,
				"z": 2.9657654404,
				"element": "H" 
			}
		],
		 "valence_orbital": [ 
			{
				"type": "occ",
				"energy": -0.34529,
				"method": "rhf"
			},
			{
				"type": "occ",
				"energy": -0.2969,
				"method": "rhf"
			},
			{
				"type": "occ",
				"energy": -0.29489,
				"method": "rhf"
			},
			{
				"type": "occ",
				"energy": -0.26757,
				"method": "rhf"
			},
			{
				"type": "occ",
				"energy": -0.25231,
				"method": "rhf"
			},
			{
				"type": "unocc",
				"energy": -0.05446,
				"method": "rhf"
			},
			{
				"type": "unocc",
				"energy": -0.03469,
				"method": "rhf"
			},
			{
				"type": "unocc",
				"energy": 0.00084,
				"method": "rhf"
			},
			{
				"type": "unocc",
				"energy": 0.00621,
				"method": "rhf"
			},
			{
				"type": "unocc",
				"energy": 0.01309,
				"method": "rhf"
			}
		],
		"cosmo_sigma_profile": { 
			"-0.025": 0.0,
			"-0.024": 0.0,
			"-0.023": 0.0,
			"-0.022": 0.0,
			"-0.021": 0.0,
			"-0.02": 0.0,
			"-0.019": 0.0,
			"-0.018": 0.0,
			"-0.017": 0.18231039309,
			"-0.016": 0.829229823328,
			"-0.015": 1.19726394824,
			"-0.014": 0.576530896881,
			"-0.013": 0.986106125474,
			"-0.012": 1.40809252688,
			"-0.011": 1.59895812748,
			"-0.01": 1.31247146741,
			"-0.009": 1.70851710472,
			"-0.008": 2.35195700372,
			"-0.007": 6.3088813576,
			"-0.006": 9.24058751016,
			"-0.005": 10.2948339535,
			"-0.004": 9.36373432631,
			"-0.003": 14.0823544262,
			"-0.002": 22.85106076,
			"-0.001": 39.8281035463,
			"0.0": 81.1950957169,
			"0.001": 124.233095084,
			"0.002": 25.3956346714,
			"0.003": 6.97489741206,
			"0.004": 5.49805110692,
			"0.005": 4.08099610855,
			"0.006": 2.92165074887,
			"0.007": 4.27749539989,
			"0.008": 3.83023504662,
			"0.009": 3.13853731931,
			"0.01": 3.21155334005,
			"0.011": 1.86703701139,
			"0.012": 1.04847960871,
			"0.013": 0.55856570444,
			"0.014": 1.09692206586,
			"0.015": 0.802554323362,
			"0.016": 0.584818134357,
			"0.017": 0.0167149855224,
			"0.018": 0.0,
			"0.019": 0.0,
			"0.02": 0.0,
			"0.021": 0.0,
			"0.022": 0.0,
			"0.023": 0.0,
			"0.024": 0.0,
			"0.025": 0.0
		}
	}
}
