{
	 "smiles": "OC(O)C1=NC(=NO1)C1=CC=CC=C1", 
	 "Tm": 377.15, 
	 "num_atms": 22, 
	 "gaussian": { 
		 "optdone": 1, 
		 "sigma_profile": "yes", 
		 "theory": "DFT", 
		 "functional": "B3LYP", 
		 "basiset": "6-31G**", 
		 "properties": { 
			 "R2extent": 4490.46, 
			 "electric_dipole_moment_norm": 3.31402815468, 
			 "electric_quadrupole_moment_norm": 7.91894664397, 
			 "total_energy": -682.902155914, 
			 "HOMO_LUMO_gap": 0.19744, 
			 "cosmo_polarized_energy": -13.14, 
			 "cosmo_cavitation_energy": 27.41, 
			 "cosmo_dispersion_energy": -20.33, 
			 "cosmo_repulsion_energy": 1.61, 
			 "cosmo_total_nonelectrostatic_energy": 8.69, 
			 "SMD_solvation_energy": 3.63 
		},
		"coords": [
			{
				"x": -5.3685014153,
				"y": 0.1400220727,
				"z": 1.3161230507,
				"element": "O" 
			},
			{
				"x": -4.470869246,
				"y": -0.7373973973,
				"z": 1.942416836,
				"element": "C" 
			},
			{
				"x": -4.7399853857,
				"y": -2.095347327,
				"z": 1.7157935451,
				"element": "O" 
			},
			{
				"x": -3.0623746457,
				"y": -0.4215368563,
				"z": 1.4942760124,
				"element": "C" 
			},
			{
				"x": -2.6257180756,
				"y": -0.5175648556,
				"z": 0.2738259755,
				"element": "N" 
			},
			{
				"x": -1.3039147856,
				"y": -0.1229524228,
				"z": 0.4001405344,
				"element": "C" 
			},
			{
				"x": -0.9589045703,
				"y": 0.1944663194,
				"z": 1.6298300505,
				"element": "N" 
			},
			{
				"x": -2.1428654615,
				"y": -0.0062366375,
				"z": 2.3663148484,
				"element": "O" 
			},
			{
				"x": -0.3706361573,
				"y": -0.0634978025,
				"z": -0.7320277974,
				"element": "C" 
			},
			{
				"x": -0.8108748307,
				"y": -0.4178326048,
				"z": -2.0150168949,
				"element": "C" 
			},
			{
				"x": 0.06947481,
				"y": -0.3638475947,
				"z": -3.0944563965,
				"element": "C" 
			},
			{
				"x": 1.3910511003,
				"y": 0.0428010835,
				"z": -2.9017980526,
				"element": "C" 
			},
			{
				"x": 1.8327194311,
				"y": 0.3967071757,
				"z": -1.6233379749,
				"element": "C" 
			},
			{
				"x": 0.9591740079,
				"y": 0.3451560076,
				"z": -0.5409453341,
				"element": "C" 
			},
			{
				"x": -5.1570554155,
				"y": 0.1627343027,
				"z": 0.3706251768,
				"element": "H" 
			},
			{
				"x": -4.5761210993,
				"y": -0.5748963258,
				"z": 3.0165373688,
				"element": "H" 
			},
			{
				"x": -4.4611491097,
				"y": -2.3108492792,
				"z": 0.8130176407,
				"element": "H" 
			},
			{
				"x": -1.8395544399,
				"y": -0.7322853521,
				"z": -2.1533221038,
				"element": "H" 
			},
			{
				"x": -0.2768841515,
				"y": -0.639434865,
				"z": -4.0861143755,
				"element": "H" 
			},
			{
				"x": 2.0757151396,
				"y": 0.0843227426,
				"z": -3.7439494237,
				"element": "H" 
			},
			{
				"x": 2.8601680311,
				"y": 0.7133376437,
				"z": -1.4707757512,
				"element": "H" 
			},
			{
				"x": 1.2951062692,
				"y": 0.6183319728,
				"z": 0.4538430655,
				"element": "H" 
			}
		],
		 "valence_orbital": [ 
			{
				"type": "occ",
				"energy": -0.31808,
				"method": "rhf"
			},
			{
				"type": "occ",
				"energy": -0.31137,
				"method": "rhf"
			},
			{
				"type": "occ",
				"energy": -0.29591,
				"method": "rhf"
			},
			{
				"type": "occ",
				"energy": -0.26412,
				"method": "rhf"
			},
			{
				"type": "occ",
				"energy": -0.25253,
				"method": "rhf"
			},
			{
				"type": "unocc",
				"energy": -0.05509,
				"method": "rhf"
			},
			{
				"type": "unocc",
				"energy": -0.02185,
				"method": "rhf"
			},
			{
				"type": "unocc",
				"energy": -0.0103,
				"method": "rhf"
			},
			{
				"type": "unocc",
				"energy": 0.0579,
				"method": "rhf"
			},
			{
				"type": "unocc",
				"energy": 0.06076,
				"method": "rhf"
			}
		],
		"cosmo_sigma_profile": { 
			"-0.025": 0.0,
			"-0.024": 0.0,
			"-0.023": 0.0,
			"-0.022": 0.0,
			"-0.021": 0.0,
			"-0.02": 0.0,
			"-0.019": 0.0,
			"-0.018": 0.0,
			"-0.017": 0.0,
			"-0.016": 0.744704822585,
			"-0.015": 1.51973607668,
			"-0.014": 2.49491607003,
			"-0.013": 1.71084489075,
			"-0.012": 1.72817668871,
			"-0.011": 1.69867233021,
			"-0.01": 1.24454167968,
			"-0.009": 3.00189712717,
			"-0.008": 3.40789106534,
			"-0.007": 4.28124610718,
			"-0.006": 11.0198715649,
			"-0.005": 14.9760493878,
			"-0.004": 15.6495742887,
			"-0.003": 12.4281109485,
			"-0.002": 11.7749240086,
			"-0.001": 12.9117356148,
			"0.0": 13.8380858933,
			"0.001": 15.3787458504,
			"0.002": 15.2329657646,
			"0.003": 14.3893878744,
			"0.004": 16.9210283349,
			"0.005": 9.49969373125,
			"0.006": 7.45092351802,
			"0.007": 3.48308514933,
			"0.008": 3.49866224256,
			"0.009": 4.49396443232,
			"0.01": 4.12617620473,
			"0.011": 5.77486010808,
			"0.012": 4.54141528629,
			"0.013": 0.153739436275,
			"0.014": 0.0,
			"0.015": 0.0,
			"0.016": 0.0,
			"0.017": 0.0,
			"0.018": 0.0,
			"0.019": 0.0,
			"0.02": 0.0,
			"0.021": 0.0,
			"0.022": 0.0,
			"0.023": 0.0,
			"0.024": 0.0,
			"0.025": 0.0
		}
	}
}
