{
	 "smiles": "OC1=CC=C2C(OC3=C(C=CC(O)=C3O)C22OS(=O)(=O)C3=C2C=CC=C3)=C1O", 
	 "Tm": 573.15, 
	 "num_atms": 40, 
	 "gaussian": { 
		 "optdone": 1, 
		 "sigma_profile": "yes", 
		 "theory": "DFT", 
		 "functional": "B3LYP", 
		 "basiset": "6-31G**", 
		 "properties": { 
			 "R2extent": 11076.4894, 
			 "electric_dipole_moment_norm": 5.98087370457, 
			 "electric_quadrupole_moment_norm": 29.4571428708, 
			 "total_energy": -1731.13224794, 
			 "HOMO_LUMO_gap": 0.17165, 
			 "cosmo_polarized_energy": -29.96, 
			 "cosmo_cavitation_energy": 45.5, 
			 "cosmo_dispersion_energy": -32.45, 
			 "cosmo_repulsion_energy": 2.36, 
			 "cosmo_total_nonelectrostatic_energy": 15.41, 
			 "SMD_solvation_energy": 7.66 
		},
		"coords": [
			{
				"x": -2.8927597559,
				"y": -2.1011698985,
				"z": 3.8283312057,
				"element": "O" 
			},
			{
				"x": -2.1997698739,
				"y": -1.1537446379,
				"z": 3.1390631907,
				"element": "C" 
			},
			{
				"x": -2.4219749521,
				"y": 0.2216380239,
				"z": 3.2732665041,
				"element": "C" 
			},
			{
				"x": -1.6860191071,
				"y": 1.138670198,
				"z": 2.5319748831,
				"element": "C" 
			},
			{
				"x": -0.6960079014,
				"y": 0.7076029606,
				"z": 1.6413705259,
				"element": "C" 
			},
			{
				"x": -0.4657969054,
				"y": -0.6659930189,
				"z": 1.5358898337,
				"element": "C" 
			},
			{
				"x": 0.5017709314,
				"y": -1.2116723271,
				"z": 0.7085284968,
				"element": "O" 
			},
			{
				"x": 1.4225009285,
				"y": -0.3512446659,
				"z": 0.1399403455,
				"element": "C" 
			},
			{
				"x": 1.2924245589,
				"y": 1.0391270695,
				"z": 0.1540507468,
				"element": "C" 
			},
			{
				"x": 2.2996707667,
				"y": 1.8022782615,
				"z": -0.4547511897,
				"element": "C" 
			},
			{
				"x": 3.3957683349,
				"y": 1.1999226714,
				"z": -1.0594832496,
				"element": "C" 
			},
			{
				"x": 3.5111244785,
				"y": -0.1937710478,
				"z": -1.0681564677,
				"element": "C" 
			},
			{
				"x": 4.5848522216,
				"y": -0.7870185213,
				"z": -1.6513035022,
				"element": "O" 
			},
			{
				"x": 2.5197493614,
				"y": -0.9717323908,
				"z": -0.462527613,
				"element": "C" 
			},
			{
				"x": 2.6900227498,
				"y": -2.3340052996,
				"z": -0.494706975,
				"element": "O" 
			},
			{
				"x": 0.0805082913,
				"y": 1.6903009448,
				"z": 0.7872731759,
				"element": "C" 
			},
			{
				"x": 0.5515748283,
				"y": 2.7834181521,
				"z": 1.6559256959,
				"element": "O" 
			},
			{
				"x": -0.0183320607,
				"y": 4.2919867805,
				"z": 1.2904715497,
				"element": "S" 
			},
			{
				"x": 1.108972965,
				"y": 5.1283538885,
				"z": 0.8894299458,
				"element": "O" 
			},
			{
				"x": -0.8966440826,
				"y": 4.7328074346,
				"z": 2.3713483945,
				"element": "O" 
			},
			{
				"x": -0.9492442599,
				"y": 3.7300243349,
				"z": -0.1118265035,
				"element": "C" 
			},
			{
				"x": -0.81544725,
				"y": 2.3592805082,
				"z": -0.259928182,
				"element": "C" 
			},
			{
				"x": -1.4787109194,
				"y": 1.7214202594,
				"z": -1.3097376285,
				"element": "C" 
			},
			{
				"x": -2.2568673301,
				"y": 2.4859031706,
				"z": -2.1783369705,
				"element": "C" 
			},
			{
				"x": -2.3789705727,
				"y": 3.8730275463,
				"z": -2.0110667678,
				"element": "C" 
			},
			{
				"x": -1.7202791845,
				"y": 4.51682301,
				"z": -0.9655991444,
				"element": "C" 
			},
			{
				"x": -1.209241474,
				"y": -1.6086433924,
				"z": 2.2580454554,
				"element": "C" 
			},
			{
				"x": -0.9925699567,
				"y": -2.9483373458,
				"z": 2.1390472491,
				"element": "O" 
			},
			{
				"x": -3.5242248683,
				"y": -1.6618520051,
				"z": 4.4125349437,
				"element": "H" 
			},
			{
				"x": -3.1827877787,
				"y": 0.5711710028,
				"z": 3.9669257512,
				"element": "H" 
			},
			{
				"x": -1.8640431548,
				"y": 2.2009504783,
				"z": 2.6593893726,
				"element": "H" 
			},
			{
				"x": 2.2293871883,
				"y": 2.8845279862,
				"z": -0.4287832171,
				"element": "H" 
			},
			{
				"x": 4.1795114686,
				"y": 1.7898799996,
				"z": -1.5211576026,
				"element": "H" 
			},
			{
				"x": 4.5032021816,
				"y": -1.7441015113,
				"z": -1.5215488892,
				"element": "H" 
			},
			{
				"x": 2.0509606953,
				"y": -2.7393346181,
				"z": 0.1054016255,
				"element": "H" 
			},
			{
				"x": -1.3879279913,
				"y": 0.6483456015,
				"z": -1.4469199384,
				"element": "H" 
			},
			{
				"x": -2.7759624231,
				"y": 1.9990281133,
				"z": -2.9983620474,
				"element": "H" 
			},
			{
				"x": -2.989070316,
				"y": 4.4488922357,
				"z": -2.6996636758,
				"element": "H" 
			},
			{
				"x": -1.80145324,
				"y": 5.5889423016,
				"z": -0.8200138375,
				"element": "H" 
			},
			{
				"x": -0.3201965915,
				"y": -3.0755022531,
				"z": 1.4568645101,
				"element": "H" 
			}
		],
		 "valence_orbital": [ 
			{
				"type": "occ",
				"energy": -0.27704,
				"method": "rhf"
			},
			{
				"type": "occ",
				"energy": -0.25946,
				"method": "rhf"
			},
			{
				"type": "occ",
				"energy": -0.23338,
				"method": "rhf"
			},
			{
				"type": "occ",
				"energy": -0.22188,
				"method": "rhf"
			},
			{
				"type": "occ",
				"energy": -0.2179,
				"method": "rhf"
			},
			{
				"type": "unocc",
				"energy": -0.04625,
				"method": "rhf"
			},
			{
				"type": "unocc",
				"energy": -0.03939,
				"method": "rhf"
			},
			{
				"type": "unocc",
				"energy": -0.02284,
				"method": "rhf"
			},
			{
				"type": "unocc",
				"energy": -0.00875,
				"method": "rhf"
			},
			{
				"type": "unocc",
				"energy": 0.00647,
				"method": "rhf"
			}
		],
		"cosmo_sigma_profile": { 
			"-0.025": 0.0,
			"-0.024": 0.0,
			"-0.023": 0.0,
			"-0.022": 0.0,
			"-0.021": 0.0,
			"-0.02": 0.0,
			"-0.019": 0.161888105559,
			"-0.018": 1.82480825652,
			"-0.017": 3.12985717393,
			"-0.016": 2.77991869341,
			"-0.015": 2.42051192747,
			"-0.014": 3.41716726303,
			"-0.013": 1.90065323612,
			"-0.012": 1.88549806061,
			"-0.011": 4.38929040937,
			"-0.01": 3.77892262187,
			"-0.009": 5.7457905581,
			"-0.008": 6.59953143249,
			"-0.007": 14.7290232855,
			"-0.006": 17.4195532575,
			"-0.005": 17.2381076609,
			"-0.004": 14.3706358496,
			"-0.003": 15.7639308262,
			"-0.002": 16.5493971113,
			"-0.001": 19.8388799185,
			"0.0": 23.2252180919,
			"0.001": 31.4964303783,
			"0.002": 36.2441923654,
			"0.003": 21.3384765766,
			"0.004": 19.122356811,
			"0.005": 13.0544786908,
			"0.006": 9.47883098512,
			"0.007": 9.86718673845,
			"0.008": 10.1488356751,
			"0.009": 12.9581207211,
			"0.01": 13.762458098,
			"0.011": 6.11362613156,
			"0.012": 3.02447122254,
			"0.013": 1.86011216776,
			"0.014": 0.0208089254845,
			"0.015": 0.0,
			"0.016": 0.0,
			"0.017": 0.0,
			"0.018": 0.0,
			"0.019": 0.0,
			"0.02": 0.0,
			"0.021": 0.0,
			"0.022": 0.0,
			"0.023": 0.0,
			"0.024": 0.0,
			"0.025": 0.0
		}
	}
}
