{
	 "smiles": "NC(=NO)C1CCCCC1", 
	 "Tm": 363.15, 
	 "num_atms": 24, 
	 "gaussian": { 
		 "optdone": 1, 
		 "sigma_profile": "yes", 
		 "theory": "DFT", 
		 "functional": "B3LYP", 
		 "basiset": "6-31G**", 
		 "properties": { 
			 "R2extent": 2056.6345, 
			 "electric_dipole_moment_norm": 1.72863884603, 
			 "electric_quadrupole_moment_norm": 4.55558264001, 
			 "total_energy": -459.867647794, 
			 "HOMO_LUMO_gap": 0.25429, 
			 "cosmo_polarized_energy": -10.37, 
			 "cosmo_cavitation_energy": 24.9, 
			 "cosmo_dispersion_energy": -18.73, 
			 "cosmo_repulsion_energy": 1.55, 
			 "cosmo_total_nonelectrostatic_energy": 7.72, 
			 "SMD_solvation_energy": 3.48 
		},
		"coords": [
			{
				"x": -0.1354532862,
				"y": 3.1470210589,
				"z": -0.0515526339,
				"element": "N" 
			},
			{
				"x": 0.748355841,
				"y": 2.1071515423,
				"z": 0.1547007303,
				"element": "C" 
			},
			{
				"x": 1.9780705184,
				"y": 2.2672889699,
				"z": 0.5082511955,
				"element": "N" 
			},
			{
				"x": 2.2770063469,
				"y": 3.6668720628,
				"z": 0.571034556,
				"element": "O" 
			},
			{
				"x": 0.2136355881,
				"y": 0.7013068468,
				"z": -0.0090817071,
				"element": "C" 
			},
			{
				"x": 1.1640862326,
				"y": -0.3924971218,
				"z": 0.5011680655,
				"element": "C" 
			},
			{
				"x": 0.4555298769,
				"y": -1.7669092276,
				"z": 0.5248596848,
				"element": "C" 
			},
			{
				"x": -0.5833888323,
				"y": -1.9224514063,
				"z": -0.6123883846,
				"element": "C" 
			},
			{
				"x": -0.1843642758,
				"y": -1.0846450964,
				"z": -1.8331969056,
				"element": "C" 
			},
			{
				"x": -0.1713100243,
				"y": 0.4250822806,
				"z": -1.4969280986,
				"element": "C" 
			},
			{
				"x": -0.9165467251,
				"y": 2.9655390896,
				"z": -0.6631567772,
				"element": "H" 
			},
			{
				"x": 0.3033576399,
				"y": 4.0499623837,
				"z": -0.1692032813,
				"element": "H" 
			},
			{
				"x": 3.2122627759,
				"y": 3.6547578146,
				"z": 0.8052891249,
				"element": "H" 
			},
			{
				"x": -0.7059885625,
				"y": 0.6530983109,
				"z": 0.5930929238,
				"element": "H" 
			},
			{
				"x": 2.0445668014,
				"y": -0.4239424353,
				"z": -0.1499942051,
				"element": "H" 
			},
			{
				"x": 1.5386489596,
				"y": -0.1335071416,
				"z": 1.4945513547,
				"element": "H" 
			},
			{
				"x": 1.2118460316,
				"y": -2.5568530622,
				"z": 0.4473839443,
				"element": "H" 
			},
			{
				"x": -0.0403640114,
				"y": -1.9130306938,
				"z": 1.4920009842,
				"element": "H" 
			},
			{
				"x": -1.572700022,
				"y": -1.5954818894,
				"z": -0.2653631645,
				"element": "H" 
			},
			{
				"x": -0.6925171353,
				"y": -2.9776482147,
				"z": -0.886410581,
				"element": "H" 
			},
			{
				"x": -0.8606840497,
				"y": -1.2719958414,
				"z": -2.6748304809,
				"element": "H" 
			},
			{
				"x": 0.813121079,
				"y": -1.3965375668,
				"z": -2.1676194287,
				"element": "H" 
			},
			{
				"x": -1.1606036104,
				"y": 0.8530205157,
				"z": -1.7053166537,
				"element": "H" 
			},
			{
				"x": 0.5381328438,
				"y": 0.9400988216,
				"z": -2.1551902618,
				"element": "H" 
			}
		],
		 "valence_orbital": [ 
			{
				"type": "occ",
				"energy": -0.30416,
				"method": "rhf"
			},
			{
				"type": "occ",
				"energy": -0.29927,
				"method": "rhf"
			},
			{
				"type": "occ",
				"energy": -0.28973,
				"method": "rhf"
			},
			{
				"type": "occ",
				"energy": -0.26087,
				"method": "rhf"
			},
			{
				"type": "occ",
				"energy": -0.20484,
				"method": "rhf"
			},
			{
				"type": "unocc",
				"energy": 0.04945,
				"method": "rhf"
			},
			{
				"type": "unocc",
				"energy": 0.07037,
				"method": "rhf"
			},
			{
				"type": "unocc",
				"energy": 0.07861,
				"method": "rhf"
			},
			{
				"type": "unocc",
				"energy": 0.10097,
				"method": "rhf"
			},
			{
				"type": "unocc",
				"energy": 0.11345,
				"method": "rhf"
			}
		],
		"cosmo_sigma_profile": { 
			"-0.025": 0.0,
			"-0.024": 0.0,
			"-0.023": 0.0,
			"-0.022": 0.0,
			"-0.021": 0.0,
			"-0.02": 0.0,
			"-0.019": 0.0,
			"-0.018": 0.0,
			"-0.017": 0.123418639234,
			"-0.016": 0.700484886206,
			"-0.015": 0.669123777485,
			"-0.014": 1.33268801272,
			"-0.013": 0.681923536922,
			"-0.012": 1.47124869303,
			"-0.011": 2.01077110751,
			"-0.01": 3.45462136486,
			"-0.009": 3.07365963378,
			"-0.008": 2.64557506637,
			"-0.007": 2.47861665215,
			"-0.006": 2.78782369117,
			"-0.005": 3.39171168414,
			"-0.004": 4.31866909548,
			"-0.003": 10.0756243371,
			"-0.002": 26.3964409914,
			"-0.001": 31.8908027823,
			"0.0": 25.3238807553,
			"0.001": 20.5387068081,
			"0.002": 7.34650867501,
			"0.003": 3.60607297839,
			"0.004": 4.12219344258,
			"0.005": 2.8799705271,
			"0.006": 3.22975721958,
			"0.007": 4.05814889671,
			"0.008": 4.79529352502,
			"0.009": 5.16654950397,
			"0.01": 4.73352337109,
			"0.011": 3.60929549893,
			"0.012": 2.08837551426,
			"0.013": 1.08399043063,
			"0.014": 1.09186477404,
			"0.015": 0.376709670385,
			"0.016": 0.0,
			"0.017": 0.0,
			"0.018": 0.0,
			"0.019": 0.0,
			"0.02": 0.0,
			"0.021": 0.0,
			"0.022": 0.0,
			"0.023": 0.0,
			"0.024": 0.0,
			"0.025": 0.0
		}
	}
}
