{
	 "smiles": "CN1N=C(C)C(C(=O)C(N)=O)=C1C", 
	 "Tm": 456.15, 
	 "num_atms": 24, 
	 "gaussian": { 
		 "optdone": 1, 
		 "sigma_profile": "yes", 
		 "theory": "DFT", 
		 "functional": "B3LYP", 
		 "basiset": "6-31G**", 
		 "properties": { 
			 "R2extent": 2645.4976, 
			 "electric_dipole_moment_norm": 2.02918798784, 
			 "electric_quadrupole_moment_norm": 13.5977689457, 
			 "total_energy": -626.193547282, 
			 "HOMO_LUMO_gap": 0.1715, 
			 "cosmo_polarized_energy": -13.78, 
			 "cosmo_cavitation_energy": 27.65, 
			 "cosmo_dispersion_energy": -20.25, 
			 "cosmo_repulsion_energy": 1.61, 
			 "cosmo_total_nonelectrostatic_energy": 9.02, 
			 "SMD_solvation_energy": 5.11 
		},
		"coords": [
			{
				"x": 2.6659041284,
				"y": 1.0018078872,
				"z": 1.3054536241,
				"element": "C" 
			},
			{
				"x": 1.6304000495,
				"y": 0.6959477608,
				"z": 0.3326864271,
				"element": "N" 
			},
			{
				"x": 1.9277893588,
				"y": 0.8390556941,
				"z": -0.9944788899,
				"element": "N" 
			},
			{
				"x": 0.8340266297,
				"y": 0.4696979124,
				"z": -1.6382315302,
				"element": "C" 
			},
			{
				"x": 0.8018073557,
				"y": 0.4995535946,
				"z": -3.133460714,
				"element": "C" 
			},
			{
				"x": -0.2074422601,
				"y": 0.1013655505,
				"z": -0.7173180069,
				"element": "C" 
			},
			{
				"x": -1.520811003,
				"y": -0.3383900623,
				"z": -1.1591396187,
				"element": "C" 
			},
			{
				"x": -1.7428027591,
				"y": -0.668314206,
				"z": -2.3266398761,
				"element": "O" 
			},
			{
				"x": -2.7367662215,
				"y": -0.3358456608,
				"z": -0.1959231874,
				"element": "C" 
			},
			{
				"x": -3.8058134334,
				"y": -0.9509406209,
				"z": -0.7536089582,
				"element": "N" 
			},
			{
				"x": -2.727272858,
				"y": 0.1782476566,
				"z": 0.9163166163,
				"element": "O" 
			},
			{
				"x": 0.3712705659,
				"y": 0.2578906814,
				"z": 0.5600691296,
				"element": "C" 
			},
			{
				"x": -0.1001586411,
				"y": 0.0012306679,
				"z": 1.9571294992,
				"element": "C" 
			},
			{
				"x": 2.3071198063,
				"y": 1.7229207952,
				"z": 2.0447170655,
				"element": "H" 
			},
			{
				"x": 3.0059166978,
				"y": 0.098150616,
				"z": 1.8218969336,
				"element": "H" 
			},
			{
				"x": 3.4987595319,
				"y": 1.4324254776,
				"z": 0.7517236497,
				"element": "H" 
			},
			{
				"x": -0.0378340699,
				"y": 1.0971770502,
				"z": -3.5006819645,
				"element": "H" 
			},
			{
				"x": 1.737960201,
				"y": 0.921887233,
				"z": -3.5056439454,
				"element": "H" 
			},
			{
				"x": 0.6662981676,
				"y": -0.5049067475,
				"z": -3.5438571295,
				"element": "H" 
			},
			{
				"x": -3.7397731474,
				"y": -1.2191938795,
				"z": -1.725504834,
				"element": "H" 
			},
			{
				"x": -4.6941041032,
				"y": -0.9134895784,
				"z": -0.2795220963,
				"element": "H" 
			},
			{
				"x": -0.598496999,
				"y": 0.8822332499,
				"z": 2.3730367056,
				"element": "H" 
			},
			{
				"x": 0.7405890063,
				"y": -0.2637660484,
				"z": 2.6048435314,
				"element": "H" 
			},
			{
				"x": -0.8338660031,
				"y": -0.801545024,
				"z": 1.9811375691,
				"element": "H" 
			}
		],
		 "valence_orbital": [ 
			{
				"type": "occ",
				"energy": -0.28852,
				"method": "rhf"
			},
			{
				"type": "occ",
				"energy": -0.27249,
				"method": "rhf"
			},
			{
				"type": "occ",
				"energy": -0.24542,
				"method": "rhf"
			},
			{
				"type": "occ",
				"energy": -0.24441,
				"method": "rhf"
			},
			{
				"type": "occ",
				"energy": -0.23383,
				"method": "rhf"
			},
			{
				"type": "unocc",
				"energy": -0.06233,
				"method": "rhf"
			},
			{
				"type": "unocc",
				"energy": 0.01725,
				"method": "rhf"
			},
			{
				"type": "unocc",
				"energy": 0.04827,
				"method": "rhf"
			},
			{
				"type": "unocc",
				"energy": 0.08825,
				"method": "rhf"
			},
			{
				"type": "unocc",
				"energy": 0.0934,
				"method": "rhf"
			}
		],
		"cosmo_sigma_profile": { 
			"-0.025": 0.0,
			"-0.024": 0.0,
			"-0.023": 0.0,
			"-0.022": 0.0,
			"-0.021": 0.0,
			"-0.02": 0.0,
			"-0.019": 0.0,
			"-0.018": 0.0,
			"-0.017": 0.0,
			"-0.016": 0.0,
			"-0.015": 0.356995933427,
			"-0.014": 1.0821925831,
			"-0.013": 1.43638783685,
			"-0.012": 2.1011708485,
			"-0.011": 1.50947969657,
			"-0.01": 1.65624137496,
			"-0.009": 2.15939621633,
			"-0.008": 2.01437712276,
			"-0.007": 4.58003422815,
			"-0.006": 10.7757382601,
			"-0.005": 14.127365937,
			"-0.004": 19.3551098325,
			"-0.003": 20.5323828723,
			"-0.002": 14.6653924978,
			"-0.001": 18.5099776763,
			"0.0": 17.82818684,
			"0.001": 13.0983628489,
			"0.002": 11.9713207229,
			"0.003": 10.0696865441,
			"0.004": 6.15738414954,
			"0.005": 6.61415149222,
			"0.006": 5.62237892101,
			"0.007": 5.08349065148,
			"0.008": 4.73542123829,
			"0.009": 4.07036655402,
			"0.01": 4.10633510122,
			"0.011": 4.91969047087,
			"0.012": 3.67721820823,
			"0.013": 3.13848847953,
			"0.014": 2.22330016547,
			"0.015": 0.438200962716,
			"0.016": 0.0,
			"0.017": 0.0,
			"0.018": 0.0,
			"0.019": 0.0,
			"0.02": 0.0,
			"0.021": 0.0,
			"0.022": 0.0,
			"0.023": 0.0,
			"0.024": 0.0,
			"0.025": 0.0
		}
	}
}
