{
	 "smiles": "CCCN(CCC)C1=C(C=C(C)C=C1[N+]([O-])=O)[N+]([O-])=O", 
	 "Tm": 353.15, 
	 "num_atms": 39, 
	 "gaussian": { 
		 "optdone": 1, 
		 "sigma_profile": "yes", 
		 "theory": "DFT", 
		 "functional": "B3LYP", 
		 "basiset": "6-31G**", 
		 "properties": { 
			 "R2extent": 5991.3141, 
			 "electric_dipole_moment_norm": 2.89971188224, 
			 "electric_quadrupole_moment_norm": 24.4216963332, 
			 "total_energy": -971.771273017, 
			 "HOMO_LUMO_gap": 0.13169, 
			 "cosmo_polarized_energy": -11.14, 
			 "cosmo_cavitation_energy": 40.57, 
			 "cosmo_dispersion_energy": -26.9, 
			 "cosmo_repulsion_energy": 2.07, 
			 "cosmo_total_nonelectrostatic_energy": 15.74, 
			 "SMD_solvation_energy": 10.74 
		},
		"coords": [
			{
				"x": 0.2975439667,
				"y": 2.3033110727,
				"z": -0.075358492,
				"element": "C" 
			},
			{
				"x": -0.9247243362,
				"y": 1.6986204698,
				"z": 0.6232086012,
				"element": "C" 
			},
			{
				"x": -1.9212823265,
				"y": 1.0108977735,
				"z": -0.3186791228,
				"element": "C" 
			},
			{
				"x": -1.3696030137,
				"y": -0.151555333,
				"z": -1.046826173,
				"element": "N" 
			},
			{
				"x": -2.1952586329,
				"y": -0.6099339787,
				"z": -2.1960355856,
				"element": "C" 
			},
			{
				"x": -1.9452917243,
				"y": 0.1008179611,
				"z": -3.5354080738,
				"element": "C" 
			},
			{
				"x": -2.3647020344,
				"y": 1.5718253023,
				"z": -3.6473025988,
				"element": "C" 
			},
			{
				"x": -0.7723435559,
				"y": -1.171379989,
				"z": -0.2666963862,
				"element": "C" 
			},
			{
				"x": 0.5224677374,
				"y": -1.6330979406,
				"z": -0.5846837069,
				"element": "C" 
			},
			{
				"x": 1.265289357,
				"y": -2.4990328341,
				"z": 0.2070718206,
				"element": "C" 
			},
			{
				"x": 0.7372694204,
				"y": -2.9978570586,
				"z": 1.4026993877,
				"element": "C" 
			},
			{
				"x": 1.5236751564,
				"y": -3.9549430258,
				"z": 2.2639179492,
				"element": "C" 
			},
			{
				"x": -0.5461052739,
				"y": -2.5834303953,
				"z": 1.7552025052,
				"element": "C" 
			},
			{
				"x": -1.2774743427,
				"y": -1.7273515261,
				"z": 0.9301343849,
				"element": "C" 
			},
			{
				"x": -2.661645486,
				"y": -1.4768759738,
				"z": 1.3646081021,
				"element": "N" 
			},
			{
				"x": -2.865409173,
				"y": -1.3611051625,
				"z": 2.5720313646,
				"element": "O" 
			},
			{
				"x": -3.5342061359,
				"y": -1.4476057214,
				"z": 0.4977143484,
				"element": "O" 
			},
			{
				"x": 1.1899321649,
				"y": -1.147671816,
				"z": -1.8039066061,
				"element": "N" 
			},
			{
				"x": 2.2262125047,
				"y": -0.5042307975,
				"z": -1.6577592207,
				"element": "O" 
			},
			{
				"x": 0.6926359118,
				"y": -1.4645396637,
				"z": -2.8801093374,
				"element": "O" 
			},
			{
				"x": 0.938015762,
				"y": 2.8233411792,
				"z": 0.6442654702,
				"element": "H" 
			},
			{
				"x": -0.0060592896,
				"y": 3.032192591,
				"z": -0.8356013698,
				"element": "H" 
			},
			{
				"x": 0.9039056898,
				"y": 1.5411741319,
				"z": -0.570939333,
				"element": "H" 
			},
			{
				"x": -1.4800737126,
				"y": 2.4884994132,
				"z": 1.1443930018,
				"element": "H" 
			},
			{
				"x": -0.6010709244,
				"y": 1.0025438248,
				"z": 1.4072315537,
				"element": "H" 
			},
			{
				"x": -2.8421955121,
				"y": 0.7580268184,
				"z": 0.2252040595,
				"element": "H" 
			},
			{
				"x": -2.2175809456,
				"y": 1.7272745288,
				"z": -1.0868157892,
				"element": "H" 
			},
			{
				"x": -1.9842775075,
				"y": -1.6720225383,
				"z": -2.3395964996,
				"element": "H" 
			},
			{
				"x": -3.2568761009,
				"y": -0.539006842,
				"z": -1.9176577938,
				"element": "H" 
			},
			{
				"x": -0.8890354389,
				"y": -0.0038721843,
				"z": -3.7989826244,
				"element": "H" 
			},
			{
				"x": -2.5070901134,
				"y": -0.4760690563,
				"z": -4.2829340103,
				"element": "H" 
			},
			{
				"x": -1.7121962081,
				"y": 2.2319436715,
				"z": -3.067979994,
				"element": "H" 
			},
			{
				"x": -2.307541839,
				"y": 1.9031616139,
				"z": -4.6895136469,
				"element": "H" 
			},
			{
				"x": -3.3960779711,
				"y": 1.7283330181,
				"z": -3.3090730693,
				"element": "H" 
			},
			{
				"x": 2.2714656566,
				"y": -2.7604838987,
				"z": -0.1051879977,
				"element": "H" 
			},
			{
				"x": 1.1324443421,
				"y": -3.984091914,
				"z": 3.2838918036,
				"element": "H" 
			},
			{
				"x": 1.4784542769,
				"y": -4.9740152995,
				"z": 1.8617810073,
				"element": "H" 
			},
			{
				"x": 2.5790741085,
				"y": -3.6700348696,
				"z": 2.3114342545,
				"element": "H" 
			},
			{
				"x": -1.0094644566,
				"y": -2.9275555512,
				"z": 2.6729578168,
				"element": "H" 
			}
		],
		 "valence_orbital": [ 
			{
				"type": "occ",
				"energy": -0.31093,
				"method": "rhf"
			},
			{
				"type": "occ",
				"energy": -0.3057,
				"method": "rhf"
			},
			{
				"type": "occ",
				"energy": -0.28008,
				"method": "rhf"
			},
			{
				"type": "occ",
				"energy": -0.27824,
				"method": "rhf"
			},
			{
				"type": "occ",
				"energy": -0.22764,
				"method": "rhf"
			},
			{
				"type": "unocc",
				"energy": -0.09595,
				"method": "rhf"
			},
			{
				"type": "unocc",
				"energy": -0.08639,
				"method": "rhf"
			},
			{
				"type": "unocc",
				"energy": -0.03632,
				"method": "rhf"
			},
			{
				"type": "unocc",
				"energy": -0.02658,
				"method": "rhf"
			},
			{
				"type": "unocc",
				"energy": 0.0612,
				"method": "rhf"
			}
		],
		"cosmo_sigma_profile": { 
			"-0.025": 0.0,
			"-0.024": 0.0,
			"-0.023": 0.0,
			"-0.022": 0.0,
			"-0.021": 0.0,
			"-0.02": 0.0,
			"-0.019": 0.0,
			"-0.018": 0.0,
			"-0.017": 0.0,
			"-0.016": 0.0,
			"-0.015": 0.0,
			"-0.014": 0.0,
			"-0.013": 0.0,
			"-0.012": 0.0,
			"-0.011": 0.0,
			"-0.01": 0.48189701441,
			"-0.009": 2.51490071741,
			"-0.008": 3.58728709974,
			"-0.007": 5.60905081714,
			"-0.006": 7.62669975743,
			"-0.005": 10.9886036696,
			"-0.004": 15.3615359749,
			"-0.003": 31.3415270247,
			"-0.002": 48.3636651271,
			"-0.001": 40.9569620083,
			"0.0": 37.2048729153,
			"0.001": 27.9839781928,
			"0.002": 17.7742990942,
			"0.003": 9.27478932529,
			"0.004": 7.04604757009,
			"0.005": 8.76278832759,
			"0.006": 10.3546519793,
			"0.007": 15.8956983845,
			"0.008": 10.3591645147,
			"0.009": 6.08468727055,
			"0.01": 1.18815735791,
			"0.011": 0.0,
			"0.012": 0.0,
			"0.013": 0.0,
			"0.014": 0.0,
			"0.015": 0.0,
			"0.016": 0.0,
			"0.017": 0.0,
			"0.018": 0.0,
			"0.019": 0.0,
			"0.02": 0.0,
			"0.021": 0.0,
			"0.022": 0.0,
			"0.023": 0.0,
			"0.024": 0.0,
			"0.025": 0.0
		}
	}
}
