{
	 "smiles": "SC1=CC=C(Cl)C=C1", 
	 "Tm": 334.15, 
	 "num_atms": 13, 
	 "gaussian": { 
		 "optdone": 1, 
		 "sigma_profile": "yes", 
		 "theory": "DFT", 
		 "functional": "B3LYP", 
		 "basiset": "6-31G**", 
		 "properties": { 
			 "R2extent": 2202.9087, 
			 "electric_dipole_moment_norm": 1.42011087243, 
			 "electric_quadrupole_moment_norm": 7.70052220112, 
			 "total_energy": -1090.02780533, 
			 "HOMO_LUMO_gap": 0.20314, 
			 "cosmo_polarized_energy": -6.16, 
			 "cosmo_cavitation_energy": 20.53, 
			 "cosmo_dispersion_energy": -16.04, 
			 "cosmo_repulsion_energy": 1.28, 
			 "cosmo_total_nonelectrostatic_energy": 5.77, 
			 "SMD_solvation_energy": 2.76 
		},
		"coords": [
			{
				"x": -1.6493889423,
				"y": 1.1956370547,
				"z": 1.0223435547,
				"element": "S" 
			},
			{
				"x": -0.8531249322,
				"y": 0.1606790559,
				"z": -0.1960826834,
				"element": "C" 
			},
			{
				"x": -1.4883833279,
				"y": 0.0019966175,
				"z": -1.4355254573,
				"element": "C" 
			},
			{
				"x": -0.9182145408,
				"y": -0.7931094326,
				"z": -2.4270723971,
				"element": "C" 
			},
			{
				"x": 0.2952301926,
				"y": -1.4343102945,
				"z": -2.1797442994,
				"element": "C" 
			},
			{
				"x": 1.0182628756,
				"y": -2.4381462942,
				"z": -3.4280786968,
				"element": "Cl" 
			},
			{
				"x": 0.9405473388,
				"y": -1.2875801517,
				"z": -0.9535159243,
				"element": "C" 
			},
			{
				"x": 0.3648011568,
				"y": -0.4906354013,
				"z": 0.035484463,
				"element": "C" 
			},
			{
				"x": -0.7177470058,
				"y": 1.0581428623,
				"z": 1.9845029201,
				"element": "H" 
			},
			{
				"x": -2.433207434,
				"y": 0.5001928875,
				"z": -1.6316036369,
				"element": "H" 
			},
			{
				"x": -1.4123909441,
				"y": -0.9136720575,
				"z": -3.3847459824,
				"element": "H" 
			},
			{
				"x": 1.8838628959,
				"y": -1.7902672633,
				"z": -0.7704917114,
				"element": "H" 
			},
			{
				"x": 0.8744526673,
				"y": -0.3822275827,
				"z": 0.9882298511,
				"element": "H" 
			}
		],
		 "valence_orbital": [ 
			{
				"type": "occ",
				"energy": -0.34902,
				"method": "rhf"
			},
			{
				"type": "occ",
				"energy": -0.31474,
				"method": "rhf"
			},
			{
				"type": "occ",
				"energy": -0.29036,
				"method": "rhf"
			},
			{
				"type": "occ",
				"energy": -0.27091,
				"method": "rhf"
			},
			{
				"type": "occ",
				"energy": -0.22395,
				"method": "rhf"
			},
			{
				"type": "unocc",
				"energy": -0.02081,
				"method": "rhf"
			},
			{
				"type": "unocc",
				"energy": -0.01726,
				"method": "rhf"
			},
			{
				"type": "unocc",
				"energy": 0.00332,
				"method": "rhf"
			},
			{
				"type": "unocc",
				"energy": 0.0342,
				"method": "rhf"
			},
			{
				"type": "unocc",
				"energy": 0.06329,
				"method": "rhf"
			}
		],
		"cosmo_sigma_profile": { 
			"-0.025": 0.0,
			"-0.024": 0.0,
			"-0.023": 0.0,
			"-0.022": 0.0,
			"-0.021": 0.0,
			"-0.02": 0.0,
			"-0.019": 0.0,
			"-0.018": 0.0,
			"-0.017": 0.0,
			"-0.016": 0.0,
			"-0.015": 0.0,
			"-0.014": 0.0,
			"-0.013": 0.0,
			"-0.012": 0.0,
			"-0.011": 1.77291398887,
			"-0.01": 3.0067030734,
			"-0.009": 2.20545748156,
			"-0.008": 3.19297616086,
			"-0.007": 8.553538829,
			"-0.006": 9.2151842753,
			"-0.005": 8.31386141673,
			"-0.004": 6.35674351519,
			"-0.003": 7.13447451981,
			"-0.002": 7.5384793729,
			"-0.001": 8.69950400087,
			"0.0": 10.5102105823,
			"0.001": 12.6711707052,
			"0.002": 16.7864697553,
			"0.003": 21.9268277915,
			"0.004": 21.627738095,
			"0.005": 10.9419226415,
			"0.006": 3.27708456558,
			"0.007": 2.759988859,
			"0.008": 2.45910565167,
			"0.009": 0.678794161251,
			"0.01": 0.0,
			"0.011": 0.0,
			"0.012": 0.0,
			"0.013": 0.0,
			"0.014": 0.0,
			"0.015": 0.0,
			"0.016": 0.0,
			"0.017": 0.0,
			"0.018": 0.0,
			"0.019": 0.0,
			"0.02": 0.0,
			"0.021": 0.0,
			"0.022": 0.0,
			"0.023": 0.0,
			"0.024": 0.0,
			"0.025": 0.0
		}
	}
}
