{
	 "smiles": "OC(=O)C1=CC=C(S1)C1=CC=CO1", 
	 "Tm": 461.15, 
	 "num_atms": 19, 
	 "gaussian": { 
		 "optdone": 1, 
		 "sigma_profile": "yes", 
		 "theory": "DFT", 
		 "functional": "B3LYP", 
		 "basiset": "6-31G**", 
		 "properties": { 
			 "R2extent": 4177.6099, 
			 "electric_dipole_moment_norm": 5.93868492177, 
			 "electric_quadrupole_moment_norm": 25.7984421764, 
			 "total_energy": -970.401787983, 
			 "HOMO_LUMO_gap": 0.14344, 
			 "cosmo_polarized_energy": -14.2, 
			 "cosmo_cavitation_energy": 26.18, 
			 "cosmo_dispersion_energy": -19.83, 
			 "cosmo_repulsion_energy": 1.5, 
			 "cosmo_total_nonelectrostatic_energy": 7.85, 
			 "SMD_solvation_energy": 6.37 
		},
		"coords": [
			{
				"x": 4.5435545982,
				"y": 1.1654190515,
				"z": 2.2192577626,
				"element": "O" 
			},
			{
				"x": 4.4095190462,
				"y": 1.4679879544,
				"z": 0.8991086314,
				"element": "C" 
			},
			{
				"x": 5.2640913572,
				"y": 2.1176314867,
				"z": 0.3410161741,
				"element": "O" 
			},
			{
				"x": 3.2055195519,
				"y": 0.9794848916,
				"z": 0.1940047258,
				"element": "C" 
			},
			{
				"x": 2.9397337543,
				"y": 1.2083145448,
				"z": -1.1365109103,
				"element": "C" 
			},
			{
				"x": 1.7241738671,
				"y": 0.6379147607,
				"z": -1.5791629371,
				"element": "C" 
			},
			{
				"x": 1.0438341219,
				"y": -0.0378084532,
				"z": -0.5831699919,
				"element": "C" 
			},
			{
				"x": 1.921709863,
				"y": 0.0334100451,
				"z": 0.9247627278,
				"element": "S" 
			},
			{
				"x": -0.2152699867,
				"y": -0.7314852763,
				"z": -0.6825144482,
				"element": "C" 
			},
			{
				"x": -0.9942000931,
				"y": -1.4324820342,
				"z": 0.2053517296,
				"element": "C" 
			},
			{
				"x": -2.1380878449,
				"y": -1.8802712638,
				"z": -0.522058635,
				"element": "C" 
			},
			{
				"x": -1.9799215553,
				"y": -1.4245031179,
				"z": -1.7968366869,
				"element": "C" 
			},
			{
				"x": -0.8180275566,
				"y": -0.7245686139,
				"z": -1.9139739875,
				"element": "O" 
			},
			{
				"x": 3.7994360429,
				"y": 0.6432900635,
				"z": 2.5507365633,
				"element": "H" 
			},
			{
				"x": 3.6216726307,
				"y": 1.7772312274,
				"z": -1.7565666734,
				"element": "H" 
			},
			{
				"x": 1.344312846,
				"y": 0.7099430967,
				"z": -2.5904995215,
				"element": "H" 
			},
			{
				"x": -0.7765969441,
				"y": -1.6066389431,
				"z": 1.249430467,
				"element": "H" 
			},
			{
				"x": -2.9657452595,
				"y": -2.462965009,
				"z": -0.1448990225,
				"element": "H" 
			},
			{
				"x": -2.5707084392,
				"y": -1.505904411,
				"z": -2.6957759672,
				"element": "H" 
			}
		],
		 "valence_orbital": [ 
			{
				"type": "occ",
				"energy": -0.29976,
				"method": "rhf"
			},
			{
				"type": "occ",
				"energy": -0.28743,
				"method": "rhf"
			},
			{
				"type": "occ",
				"energy": -0.27554,
				"method": "rhf"
			},
			{
				"type": "occ",
				"energy": -0.27446,
				"method": "rhf"
			},
			{
				"type": "occ",
				"energy": -0.21804,
				"method": "rhf"
			},
			{
				"type": "unocc",
				"energy": -0.0746,
				"method": "rhf"
			},
			{
				"type": "unocc",
				"energy": -0.01196,
				"method": "rhf"
			},
			{
				"type": "unocc",
				"energy": -0.0066,
				"method": "rhf"
			},
			{
				"type": "unocc",
				"energy": 0.03636,
				"method": "rhf"
			},
			{
				"type": "unocc",
				"energy": 0.05192,
				"method": "rhf"
			}
		],
		"cosmo_sigma_profile": { 
			"-0.025": 0.0,
			"-0.024": 0.0,
			"-0.023": 0.0,
			"-0.022": 0.0,
			"-0.021": 0.0,
			"-0.02": 0.0,
			"-0.019": 0.0,
			"-0.018": 0.631049202379,
			"-0.017": 0.913398820012,
			"-0.016": 0.814085623795,
			"-0.015": 1.02066948852,
			"-0.014": 0.73493424789,
			"-0.013": 0.890777567573,
			"-0.012": 1.254235111,
			"-0.011": 0.93080404133,
			"-0.01": 1.06416401075,
			"-0.009": 3.05398339068,
			"-0.008": 6.68889543664,
			"-0.007": 8.8650316621,
			"-0.006": 10.1835373908,
			"-0.005": 9.39219328097,
			"-0.004": 9.49168748556,
			"-0.003": 10.6701122315,
			"-0.002": 11.6817236376,
			"-0.001": 10.4386887658,
			"0.0": 14.2752518311,
			"0.001": 26.3806764229,
			"0.002": 25.9425703567,
			"0.003": 15.2506829472,
			"0.004": 8.73603676059,
			"0.005": 5.57706889533,
			"0.006": 3.29173173002,
			"0.007": 2.45155950986,
			"0.008": 2.89879570887,
			"0.009": 3.27790897985,
			"0.01": 4.93838902921,
			"0.011": 4.79026873724,
			"0.012": 5.29206852594,
			"0.013": 1.61837894897,
			"0.014": 0.0452169284225,
			"0.015": 0.0,
			"0.016": 0.0,
			"0.017": 0.0,
			"0.018": 0.0,
			"0.019": 0.0,
			"0.02": 0.0,
			"0.021": 0.0,
			"0.022": 0.0,
			"0.023": 0.0,
			"0.024": 0.0,
			"0.025": 0.0
		}
	}
}
