{
	 "smiles": "O=S(C1=CC=CC=C1)C1=CC=CC=C1", 
	 "Tm": 343.75, 
	 "num_atms": 24, 
	 "gaussian": { 
		 "optdone": 1, 
		 "sigma_profile": "yes", 
		 "theory": "DFT", 
		 "functional": "B3LYP", 
		 "basiset": "6-31G**", 
		 "properties": { 
			 "R2extent": 3526.4813, 
			 "electric_dipole_moment_norm": 3.90711102223, 
			 "electric_quadrupole_moment_norm": 16.994158088, 
			 "total_energy": -936.658490495, 
			 "HOMO_LUMO_gap": 0.1963, 
			 "cosmo_polarized_energy": -11.53, 
			 "cosmo_cavitation_energy": 29.56, 
			 "cosmo_dispersion_energy": -21.61, 
			 "cosmo_repulsion_energy": 1.65, 
			 "cosmo_total_nonelectrostatic_energy": 9.6, 
			 "SMD_solvation_energy": 4.45 
		},
		"coords": [
			{
				"x": 0.5775017274,
				"y": -3.0318449019,
				"z": -1.1676523055,
				"element": "O" 
			},
			{
				"x": -0.4447552213,
				"y": -2.392083903,
				"z": -0.2503900706,
				"element": "S" 
			},
			{
				"x": -0.7923575442,
				"y": -0.7352892206,
				"z": -0.9453185318,
				"element": "C" 
			},
			{
				"x": -1.8726209791,
				"y": 0.0172304332,
				"z": -0.4831837919,
				"element": "C" 
			},
			{
				"x": -2.1330594399,
				"y": 1.258383904,
				"z": -1.0663445986,
				"element": "C" 
			},
			{
				"x": -1.3283650682,
				"y": 1.7249829685,
				"z": -2.1091572508,
				"element": "C" 
			},
			{
				"x": -0.2639328006,
				"y": 0.9497361323,
				"z": -2.5754135953,
				"element": "C" 
			},
			{
				"x": 0.0066913741,
				"y": -0.2910815741,
				"z": -1.9959972391,
				"element": "C" 
			},
			{
				"x": 0.46997757,
				"y": -1.8500157165,
				"z": 1.2389047254,
				"element": "C" 
			},
			{
				"x": 1.8602178265,
				"y": -1.9287109648,
				"z": 1.2115657433,
				"element": "C" 
			},
			{
				"x": 2.581991788,
				"y": -1.5647532065,
				"z": 2.3496230192,
				"element": "C" 
			},
			{
				"x": 1.9122617643,
				"y": -1.137758078,
				"z": 3.498777405,
				"element": "C" 
			},
			{
				"x": 0.5161383491,
				"y": -1.0811766577,
				"z": 3.5178311132,
				"element": "C" 
			},
			{
				"x": -0.214383863,
				"y": -1.4467087664,
				"z": 2.3859867817,
				"element": "C" 
			},
			{
				"x": -2.5075607954,
				"y": -0.355784854,
				"z": 0.3161312846,
				"element": "H" 
			},
			{
				"x": -2.9688079345,
				"y": 1.855684207,
				"z": -0.7135135984,
				"element": "H" 
			},
			{
				"x": -1.5386778395,
				"y": 2.6881853165,
				"z": -2.5648506742,
				"element": "H" 
			},
			{
				"x": 0.353207316,
				"y": 1.309581387,
				"z": -3.3937551421,
				"element": "H" 
			},
			{
				"x": 0.8127971935,
				"y": -0.9291300178,
				"z": -2.3457630407,
				"element": "H" 
			},
			{
				"x": 2.3460613381,
				"y": -2.2842607718,
				"z": 0.3078014147,
				"element": "H" 
			},
			{
				"x": 3.6669124554,
				"y": -1.6186772208,
				"z": 2.3410318212,
				"element": "H" 
			},
			{
				"x": 2.4766970279,
				"y": -0.8591715642,
				"z": 4.3839043741,
				"element": "H" 
			},
			{
				"x": -0.0042904681,
				"y": -0.7620180343,
				"z": 4.4161748709,
				"element": "H" 
			},
			{
				"x": -1.3007437765,
				"y": -1.4204188961,
				"z": 2.4038072856,
				"element": "H" 
			}
		],
		 "valence_orbital": [ 
			{
				"type": "occ",
				"energy": -0.26935,
				"method": "rhf"
			},
			{
				"type": "occ",
				"energy": -0.26332,
				"method": "rhf"
			},
			{
				"type": "occ",
				"energy": -0.25852,
				"method": "rhf"
			},
			{
				"type": "occ",
				"energy": -0.2531,
				"method": "rhf"
			},
			{
				"type": "occ",
				"energy": -0.22674,
				"method": "rhf"
			},
			{
				"type": "unocc",
				"energy": -0.03044,
				"method": "rhf"
			},
			{
				"type": "unocc",
				"energy": -0.01758,
				"method": "rhf"
			},
			{
				"type": "unocc",
				"energy": -0.01387,
				"method": "rhf"
			},
			{
				"type": "unocc",
				"energy": -0.00671,
				"method": "rhf"
			},
			{
				"type": "unocc",
				"energy": 0.03534,
				"method": "rhf"
			}
		],
		"cosmo_sigma_profile": { 
			"-0.025": 0.0,
			"-0.024": 0.0,
			"-0.023": 0.0,
			"-0.022": 0.0,
			"-0.021": 0.0,
			"-0.02": 0.0,
			"-0.019": 0.0,
			"-0.018": 0.0,
			"-0.017": 0.0,
			"-0.016": 0.0,
			"-0.015": 0.0,
			"-0.014": 0.0,
			"-0.013": 0.0,
			"-0.012": 0.0,
			"-0.011": 0.0,
			"-0.01": 0.172321210862,
			"-0.009": 0.819328106601,
			"-0.008": 2.40270923548,
			"-0.007": 6.89423549028,
			"-0.006": 17.3363375442,
			"-0.005": 20.7114054124,
			"-0.004": 20.0149493655,
			"-0.003": 14.949657471,
			"-0.002": 15.6372688677,
			"-0.001": 15.1579790509,
			"0.0": 16.7763436264,
			"0.001": 16.5917030863,
			"0.002": 19.573954433,
			"0.003": 20.6243632776,
			"0.004": 26.0123633807,
			"0.005": 7.21377545638,
			"0.006": 1.61352468758,
			"0.007": 1.66785053319,
			"0.008": 1.36799799015,
			"0.009": 0.689408341316,
			"0.01": 0.999343886518,
			"0.011": 1.98771510163,
			"0.012": 1.78537909947,
			"0.013": 2.85265923191,
			"0.014": 2.88698460774,
			"0.015": 1.88025584503,
			"0.016": 0.084048517288,
			"0.017": 0.0,
			"0.018": 0.0,
			"0.019": 0.0,
			"0.02": 0.0,
			"0.021": 0.0,
			"0.022": 0.0,
			"0.023": 0.0,
			"0.024": 0.0,
			"0.025": 0.0
		}
	}
}
