{
	 "smiles": "CNC1=C2NC=NC2=NC=N1", 
	 "Tm": 590.15, 
	 "num_atms": 18, 
	 "gaussian": { 
		 "optdone": 1, 
		 "sigma_profile": "yes", 
		 "theory": "DFT", 
		 "functional": "B3LYP", 
		 "basiset": "6-31G**", 
		 "properties": { 
			 "R2extent": 1960.662, 
			 "electric_dipole_moment_norm": 7.11824429547, 
			 "electric_quadrupole_moment_norm": 15.1930820224, 
			 "total_energy": -506.616603147, 
			 "HOMO_LUMO_gap": 0.19671, 
			 "cosmo_polarized_energy": -25.2, 
			 "cosmo_cavitation_energy": 22.31, 
			 "cosmo_dispersion_energy": -17.04, 
			 "cosmo_repulsion_energy": 1.36, 
			 "cosmo_total_nonelectrostatic_energy": 6.63, 
			 "SMD_solvation_energy": -1.14 
		},
		"coords": [
			{
				"x": -3.4237986268,
				"y": -0.1301209799,
				"z": -0.5614833158,
				"element": "C" 
			},
			{
				"x": -2.3052233091,
				"y": 0.6892499362,
				"z": -0.1125556799,
				"element": "N" 
			},
			{
				"x": -1.2830212658,
				"y": 0.1383949208,
				"z": 0.6230954646,
				"element": "C" 
			},
			{
				"x": -0.1089707568,
				"y": 0.8402638923,
				"z": 0.9588869911,
				"element": "C" 
			},
			{
				"x": 0.4063522667,
				"y": 2.1029213213,
				"z": 0.7097812846,
				"element": "N" 
			},
			{
				"x": 1.6317528651,
				"y": 2.1394607685,
				"z": 1.3345605777,
				"element": "C" 
			},
			{
				"x": 1.9536808351,
				"y": 1.0242258497,
				"z": 1.9404234473,
				"element": "N" 
			},
			{
				"x": 0.8729719464,
				"y": 0.1863858516,
				"z": 1.7250701817,
				"element": "C" 
			},
			{
				"x": 0.7370400615,
				"y": -1.0749269492,
				"z": 2.1772171733,
				"element": "N" 
			},
			{
				"x": -0.4152752067,
				"y": -1.63150128,
				"z": 1.8266864083,
				"element": "C" 
			},
			{
				"x": -1.4141954565,
				"y": -1.1106323897,
				"z": 1.0816640742,
				"element": "N" 
			},
			{
				"x": -3.8651456182,
				"y": -0.6396843768,
				"z": 0.295820508,
				"element": "H" 
			},
			{
				"x": -3.1255784226,
				"y": -0.8966375466,
				"z": -1.2887703299,
				"element": "H" 
			},
			{
				"x": -4.1726346825,
				"y": 0.5242308622,
				"z": -1.0137641652,
				"element": "H" 
			},
			{
				"x": -2.0464554494,
				"y": 1.4496562312,
				"z": -0.7236272018,
				"element": "H" 
			},
			{
				"x": -0.0521746488,
				"y": 2.8835662524,
				"z": 0.2668502762,
				"element": "H" 
			},
			{
				"x": 2.2470966526,
				"y": 3.0297070646,
				"z": 1.3029146421,
				"element": "H" 
			},
			{
				"x": -0.5859211841,
				"y": -2.6491594285,
				"z": 2.1730296638,
				"element": "H" 
			}
		],
		 "valence_orbital": [ 
			{
				"type": "occ",
				"energy": -0.28665,
				"method": "rhf"
			},
			{
				"type": "occ",
				"energy": -0.27503,
				"method": "rhf"
			},
			{
				"type": "occ",
				"energy": -0.25933,
				"method": "rhf"
			},
			{
				"type": "occ",
				"energy": -0.24305,
				"method": "rhf"
			},
			{
				"type": "occ",
				"energy": -0.22092,
				"method": "rhf"
			},
			{
				"type": "unocc",
				"energy": -0.02421,
				"method": "rhf"
			},
			{
				"type": "unocc",
				"energy": 0.00558,
				"method": "rhf"
			},
			{
				"type": "unocc",
				"energy": 0.03649,
				"method": "rhf"
			},
			{
				"type": "unocc",
				"energy": 0.05017,
				"method": "rhf"
			},
			{
				"type": "unocc",
				"energy": 0.09176,
				"method": "rhf"
			}
		],
		"cosmo_sigma_profile": { 
			"-0.025": 0.0,
			"-0.024": 0.0,
			"-0.023": 0.0,
			"-0.022": 0.0,
			"-0.021": 0.0,
			"-0.02": 0.0,
			"-0.019": 0.0,
			"-0.018": 0.335546022772,
			"-0.017": 2.91178642198,
			"-0.016": 2.74509166703,
			"-0.015": 2.48462758768,
			"-0.014": 2.4986492905,
			"-0.013": 1.92722274082,
			"-0.012": 2.01704174692,
			"-0.011": 2.62531768057,
			"-0.01": 3.68464774977,
			"-0.009": 3.69723367554,
			"-0.008": 2.83952624843,
			"-0.007": 3.2634053234,
			"-0.006": 5.62018040259,
			"-0.005": 6.84348959538,
			"-0.004": 8.90303444622,
			"-0.003": 9.96130361975,
			"-0.002": 11.7145062359,
			"-0.001": 12.3194412802,
			"0.0": 13.9090699996,
			"0.001": 11.2771320029,
			"0.002": 8.9914589851,
			"0.003": 6.97175811228,
			"0.004": 5.87982596962,
			"0.005": 5.18038524731,
			"0.006": 4.18167810196,
			"0.007": 4.00892542414,
			"0.008": 4.69684090343,
			"0.009": 3.82499541035,
			"0.01": 3.08343060663,
			"0.011": 3.28319905073,
			"0.012": 2.89339775467,
			"0.013": 3.35754018873,
			"0.014": 4.14232830111,
			"0.015": 2.45039264373,
			"0.016": 2.57559851145,
			"0.017": 1.44651485561,
			"0.018": 0.0512510612441,
			"0.019": 0.0,
			"0.02": 0.0,
			"0.021": 0.0,
			"0.022": 0.0,
			"0.023": 0.0,
			"0.024": 0.0,
			"0.025": 0.0
		}
	}
}
