{
	 "smiles": "FC1=CC=CC(F)=C1C1=CSC(CC#N)=N1", 
	 "Tm": 349.15, 
	 "num_atms": 22, 
	 "gaussian": { 
		 "optdone": 1, 
		 "sigma_profile": "yes", 
		 "theory": "DFT", 
		 "functional": "B3LYP", 
		 "basiset": "6-31G**", 
		 "properties": { 
			 "R2extent": 5749.2668, 
			 "electric_dipole_moment_norm": 4.43388673965, 
			 "electric_quadrupole_moment_norm": 23.5959887684, 
			 "total_energy": -1130.11568496, 
			 "HOMO_LUMO_gap": 0.18627, 
			 "cosmo_polarized_energy": -12.08, 
			 "cosmo_cavitation_energy": 30.61, 
			 "cosmo_dispersion_energy": -22.03, 
			 "cosmo_repulsion_energy": 1.63, 
			 "cosmo_total_nonelectrostatic_energy": 10.21, 
			 "SMD_solvation_energy": 6.05 
		},
		"coords": [
			{
				"x": 0.7377254923,
				"y": -2.332035915,
				"z": 2.1405916217,
				"element": "F" 
			},
			{
				"x": 1.1370839745,
				"y": -1.3203508884,
				"z": 1.3370615699,
				"element": "C" 
			},
			{
				"x": 2.4318665951,
				"y": -0.8473924019,
				"z": 1.494751144,
				"element": "C" 
			},
			{
				"x": 2.8676118336,
				"y": 0.1964581858,
				"z": 0.679265741,
				"element": "C" 
			},
			{
				"x": 2.0080710494,
				"y": 0.7496264831,
				"z": -0.267919579,
				"element": "C" 
			},
			{
				"x": 0.7184836207,
				"y": 0.2454878864,
				"z": -0.3915842363,
				"element": "C" 
			},
			{
				"x": -0.0899991551,
				"y": 0.8239160244,
				"z": -1.2938980143,
				"element": "F" 
			},
			{
				"x": 0.2279031292,
				"y": -0.8136581688,
				"z": 0.3936372867,
				"element": "C" 
			},
			{
				"x": -1.1336175513,
				"y": -1.3604930945,
				"z": 0.2378591145,
				"element": "C" 
			},
			{
				"x": -1.8856815267,
				"y": -1.9406423573,
				"z": 1.2316977048,
				"element": "C" 
			},
			{
				"x": -3.4219756771,
				"y": -2.4406386086,
				"z": 0.6234861982,
				"element": "S" 
			},
			{
				"x": -2.9430541578,
				"y": -1.8377037511,
				"z": -0.9543627871,
				"element": "C" 
			},
			{
				"x": -3.802183053,
				"y": -1.9757883283,
				"z": -2.1907906044,
				"element": "C" 
			},
			{
				"x": -5.2412671174,
				"y": -1.8569471132,
				"z": -1.9409336255,
				"element": "C" 
			},
			{
				"x": -6.3817531507,
				"y": -1.776506592,
				"z": -1.7440356205,
				"element": "N" 
			},
			{
				"x": -1.756995156,
				"y": -1.3157206859,
				"z": -0.9979783251,
				"element": "N" 
			},
			{
				"x": 3.0706658536,
				"y": -1.3015512429,
				"z": 2.2433088791,
				"element": "H" 
			},
			{
				"x": 3.876136735,
				"y": 0.5822077147,
				"z": 0.7863272129,
				"element": "H" 
			},
			{
				"x": 2.3099076252,
				"y": 1.5695289772,
				"z": -0.9094721677,
				"element": "H" 
			},
			{
				"x": -1.6241533018,
				"y": -2.0833792911,
				"z": 2.2681599194,
				"element": "H" 
			},
			{
				"x": -3.4867622941,
				"y": -1.2022569908,
				"z": -2.8980854779,
				"element": "H" 
			},
			{
				"x": -3.6163137677,
				"y": -2.945159842,
				"z": -2.6722859544,
				"element": "H" 
			}
		],
		 "valence_orbital": [ 
			{
				"type": "occ",
				"energy": -0.3035,
				"method": "rhf"
			},
			{
				"type": "occ",
				"energy": -0.28911,
				"method": "rhf"
			},
			{
				"type": "occ",
				"energy": -0.28746,
				"method": "rhf"
			},
			{
				"type": "occ",
				"energy": -0.25509,
				"method": "rhf"
			},
			{
				"type": "occ",
				"energy": -0.23637,
				"method": "rhf"
			},
			{
				"type": "unocc",
				"energy": -0.0501,
				"method": "rhf"
			},
			{
				"type": "unocc",
				"energy": -0.02645,
				"method": "rhf"
			},
			{
				"type": "unocc",
				"energy": -0.00872,
				"method": "rhf"
			},
			{
				"type": "unocc",
				"energy": -0.00105,
				"method": "rhf"
			},
			{
				"type": "unocc",
				"energy": 0.029,
				"method": "rhf"
			}
		],
		"cosmo_sigma_profile": { 
			"-0.025": 0.0,
			"-0.024": 0.0,
			"-0.023": 0.0,
			"-0.022": 0.0,
			"-0.021": 0.0,
			"-0.02": 0.0,
			"-0.019": 0.0,
			"-0.018": 0.0,
			"-0.017": 0.0,
			"-0.016": 0.0,
			"-0.015": 0.0,
			"-0.014": 0.0,
			"-0.013": 0.0,
			"-0.012": 0.0,
			"-0.011": 0.785509896621,
			"-0.01": 5.18780052577,
			"-0.009": 5.80787672987,
			"-0.008": 7.86259160505,
			"-0.007": 12.084148553,
			"-0.006": 10.9619398877,
			"-0.005": 11.1542335709,
			"-0.004": 10.6796133552,
			"-0.003": 9.5245533889,
			"-0.002": 10.6344820913,
			"-0.001": 16.2916779343,
			"0.0": 25.9025859243,
			"0.001": 30.7639133832,
			"0.002": 22.4412923384,
			"0.003": 19.3972449104,
			"0.004": 15.4054540214,
			"0.005": 5.96198964679,
			"0.006": 4.31771513061,
			"0.007": 4.59280967595,
			"0.008": 5.16901714626,
			"0.009": 3.89708465537,
			"0.01": 3.82383563224,
			"0.011": 4.07915537254,
			"0.012": 2.92850312171,
			"0.013": 0.944076576116,
			"0.014": 0.0,
			"0.015": 0.0,
			"0.016": 0.0,
			"0.017": 0.0,
			"0.018": 0.0,
			"0.019": 0.0,
			"0.02": 0.0,
			"0.021": 0.0,
			"0.022": 0.0,
			"0.023": 0.0,
			"0.024": 0.0,
			"0.025": 0.0
		}
	}
}
