{
	 "smiles": "OC(=O)C1=CC(F)=CC(=C1)C(F)(F)F", 
	 "Tm": 379.15, 
	 "num_atms": 18, 
	 "gaussian": { 
		 "optdone": 1, 
		 "sigma_profile": "yes", 
		 "theory": "DFT", 
		 "functional": "B3LYP", 
		 "basiset": "6-31G**", 
		 "properties": { 
			 "R2extent": 3752.6217, 
			 "electric_dipole_moment_norm": 2.63975366654, 
			 "electric_quadrupole_moment_norm": 12.7225218487, 
			 "total_energy": -857.075941901, 
			 "HOMO_LUMO_gap": 0.20888, 
			 "cosmo_polarized_energy": -13.09, 
			 "cosmo_cavitation_energy": 25.43, 
			 "cosmo_dispersion_energy": -17.87, 
			 "cosmo_repulsion_energy": 1.32, 
			 "cosmo_total_nonelectrostatic_energy": 8.88, 
			 "SMD_solvation_energy": 7.28 
		},
		"coords": [
			{
				"x": -0.6306891098,
				"y": 1.7601491321,
				"z": 2.3891561207,
				"element": "O" 
			},
			{
				"x": -0.9270495663,
				"y": 0.5439555178,
				"z": 1.8668102997,
				"element": "C" 
			},
			{
				"x": -1.1603252841,
				"y": -0.392143916,
				"z": 2.592493678,
				"element": "O" 
			},
			{
				"x": -0.9450923021,
				"y": 0.4338263025,
				"z": 0.3665536392,
				"element": "C" 
			},
			{
				"x": -1.6411143867,
				"y": -0.6484153717,
				"z": -0.1838543402,
				"element": "C" 
			},
			{
				"x": -1.6814977304,
				"y": -0.7868421455,
				"z": -1.5636071696,
				"element": "C" 
			},
			{
				"x": -2.3649985603,
				"y": -1.8119390909,
				"z": -2.0981117859,
				"element": "F" 
			},
			{
				"x": -1.0375271384,
				"y": 0.1027124207,
				"z": -2.417422642,
				"element": "C" 
			},
			{
				"x": -0.3266256738,
				"y": 1.1640816747,
				"z": -1.8562424245,
				"element": "C" 
			},
			{
				"x": -0.2781356023,
				"y": 1.3356716146,
				"z": -0.4715236562,
				"element": "C" 
			},
			{
				"x": 0.446086417,
				"y": 2.0946778401,
				"z": -2.7572597752,
				"element": "C" 
			},
			{
				"x": -0.1763703787,
				"y": 2.2693453652,
				"z": -3.9411276031,
				"element": "F" 
			},
			{
				"x": 1.6788252137,
				"y": 1.6121172593,
				"z": -3.0223541599,
				"element": "F" 
			},
			{
				"x": 0.6078033354,
				"y": 3.3114163244,
				"z": -2.1929934573,
				"element": "F" 
			},
			{
				"x": -0.6341735654,
				"y": 2.4397729922,
				"z": 1.7009628341,
				"element": "H" 
			},
			{
				"x": -2.139266301,
				"y": -1.3600500556,
				"z": 0.4640052126,
				"element": "H" 
			},
			{
				"x": -1.0963059082,
				"y": -0.0363481167,
				"z": -3.4904281943,
				"element": "H" 
			},
			{
				"x": 0.3074565414,
				"y": 2.1555122527,
				"z": -0.068956576,
				"element": "H" 
			}
		],
		 "valence_orbital": [ 
			{
				"type": "occ",
				"energy": -0.37763,
				"method": "rhf"
			},
			{
				"type": "occ",
				"energy": -0.33297,
				"method": "rhf"
			},
			{
				"type": "occ",
				"energy": -0.30051,
				"method": "rhf"
			},
			{
				"type": "occ",
				"energy": -0.28726,
				"method": "rhf"
			},
			{
				"type": "occ",
				"energy": -0.28418,
				"method": "rhf"
			},
			{
				"type": "unocc",
				"energy": -0.0753,
				"method": "rhf"
			},
			{
				"type": "unocc",
				"energy": -0.0491,
				"method": "rhf"
			},
			{
				"type": "unocc",
				"energy": 0.02771,
				"method": "rhf"
			},
			{
				"type": "unocc",
				"energy": 0.04648,
				"method": "rhf"
			},
			{
				"type": "unocc",
				"energy": 0.08704,
				"method": "rhf"
			}
		],
		"cosmo_sigma_profile": { 
			"-0.025": 0.0,
			"-0.024": 0.0,
			"-0.023": 0.0,
			"-0.022": 0.0,
			"-0.021": 0.0,
			"-0.02": 0.236829838126,
			"-0.019": 0.652969319175,
			"-0.018": 1.31839755094,
			"-0.017": 1.18097326904,
			"-0.016": 0.542429796517,
			"-0.015": 1.02172318934,
			"-0.014": 1.01919934141,
			"-0.013": 1.3752200655,
			"-0.012": 1.30813121158,
			"-0.011": 1.00680720015,
			"-0.01": 1.00791800637,
			"-0.009": 3.09075263936,
			"-0.008": 4.29278711314,
			"-0.007": 4.66819337408,
			"-0.006": 5.02258800744,
			"-0.005": 6.23322543416,
			"-0.004": 7.46123932452,
			"-0.003": 8.87837644387,
			"-0.002": 14.8619387918,
			"-0.001": 22.6979124065,
			"0.0": 18.1742413004,
			"0.001": 11.8552000396,
			"0.002": 29.8748495009,
			"0.003": 23.9335979496,
			"0.004": 6.32467598581,
			"0.005": 1.93792146751,
			"0.006": 2.30274761284,
			"0.007": 2.4725747446,
			"0.008": 3.09194597262,
			"0.009": 3.7971011355,
			"0.01": 5.13938470245,
			"0.011": 5.39361860323,
			"0.012": 2.56579337051,
			"0.013": 0.375084903378,
			"0.014": 0.0,
			"0.015": 0.0,
			"0.016": 0.0,
			"0.017": 0.0,
			"0.018": 0.0,
			"0.019": 0.0,
			"0.02": 0.0,
			"0.021": 0.0,
			"0.022": 0.0,
			"0.023": 0.0,
			"0.024": 0.0,
			"0.025": 0.0
		}
	}
}
