{
	 "smiles": "CN1CCN(CC1)C(=O)C1=CC=C(N)C=C1", 
	 "Tm": 409.15, 
	 "num_atms": 33, 
	 "gaussian": { 
		 "optdone": 1, 
		 "sigma_profile": "yes", 
		 "theory": "DFT", 
		 "functional": "B3LYP", 
		 "basiset": "6-31G**", 
		 "properties": { 
			 "R2extent": 4865.5981, 
			 "electric_dipole_moment_norm": 4.79600088616, 
			 "electric_quadrupole_moment_norm": 22.3226883265, 
			 "total_energy": -707.004700247, 
			 "HOMO_LUMO_gap": 0.18154, 
			 "cosmo_polarized_energy": -17.32, 
			 "cosmo_cavitation_energy": 34.3, 
			 "cosmo_dispersion_energy": -24.78, 
			 "cosmo_repulsion_energy": 1.92, 
			 "cosmo_total_nonelectrostatic_energy": 11.44, 
			 "SMD_solvation_energy": 2.72 
		},
		"coords": [
			{
				"x": 3.3510912801,
				"y": 0.0244604595,
				"z": 2.5949910212,
				"element": "C" 
			},
			{
				"x": 1.9423786422,
				"y": 0.3864760846,
				"z": 2.6998774479,
				"element": "N" 
			},
			{
				"x": 1.6443501007,
				"y": 1.7630498398,
				"z": 2.2904464535,
				"element": "C" 
			},
			{
				"x": 1.6229173432,
				"y": 1.9590860567,
				"z": 0.7652094865,
				"element": "C" 
			},
			{
				"x": 0.7123661667,
				"y": 0.999740136,
				"z": 0.1289957028,
				"element": "N" 
			},
			{
				"x": 0.9828517332,
				"y": -0.3940029214,
				"z": 0.4954491012,
				"element": "C" 
			},
			{
				"x": 1.0334818386,
				"y": -0.5434587814,
				"z": 2.0317423693,
				"element": "C" 
			},
			{
				"x": -0.49551968,
				"y": 1.473559144,
				"z": -0.3548244586,
				"element": "C" 
			},
			{
				"x": -0.8402964917,
				"y": 2.6444911221,
				"z": -0.188324607,
				"element": "O" 
			},
			{
				"x": -1.3642127658,
				"y": 0.5439506545,
				"z": -1.1477739214,
				"element": "C" 
			},
			{
				"x": -2.7548965768,
				"y": 0.7042677802,
				"z": -1.0524535945,
				"element": "C" 
			},
			{
				"x": -3.622795205,
				"y": -0.0648802673,
				"z": -1.8146700714,
				"element": "C" 
			},
			{
				"x": -3.1242470383,
				"y": -1.007894569,
				"z": -2.7338737542,
				"element": "C" 
			},
			{
				"x": -3.9879709139,
				"y": -1.7372482371,
				"z": -3.5431596801,
				"element": "N" 
			},
			{
				"x": -1.7299962539,
				"y": -1.1465901298,
				"z": -2.8598552305,
				"element": "C" 
			},
			{
				"x": -0.8700398144,
				"y": -0.3839900698,
				"z": -2.0769333577,
				"element": "C" 
			},
			{
				"x": 3.7730595635,
				"y": 0.0336462283,
				"z": 1.5739853142,
				"element": "H" 
			},
			{
				"x": 3.4947990331,
				"y": -0.9824438565,
				"z": 3.0016452731,
				"element": "H" 
			},
			{
				"x": 3.9448126925,
				"y": 0.7165634572,
				"z": 3.2016267492,
				"element": "H" 
			},
			{
				"x": 0.6558529932,
				"y": 2.0304438269,
				"z": 2.6855393609,
				"element": "H" 
			},
			{
				"x": 2.3772857528,
				"y": 2.4370535081,
				"z": 2.7483494427,
				"element": "H" 
			},
			{
				"x": 1.2808056785,
				"y": 2.9614658377,
				"z": 0.5078591359,
				"element": "H" 
			},
			{
				"x": 2.6270680342,
				"y": 1.8083812829,
				"z": 0.3455391056,
				"element": "H" 
			},
			{
				"x": 0.2024818218,
				"y": -1.0391631827,
				"z": 0.0933489796,
				"element": "H" 
			},
			{
				"x": 1.9376297079,
				"y": -0.7057500709,
				"z": 0.0485765998,
				"element": "H" 
			},
			{
				"x": 0.0218394797,
				"y": -0.3679955924,
				"z": 2.4228146178,
				"element": "H" 
			},
			{
				"x": 1.3149475178,
				"y": -1.5704043626,
				"z": 2.2932123507,
				"element": "H" 
			},
			{
				"x": -3.1436217493,
				"y": 1.4526796747,
				"z": -0.3695947012,
				"element": "H" 
			},
			{
				"x": -4.6973656613,
				"y": 0.0692739958,
				"z": -1.716574064,
				"element": "H" 
			},
			{
				"x": -4.9343757264,
				"y": -1.8352977016,
				"z": -3.2046258402,
				"element": "H" 
			},
			{
				"x": -3.6190080862,
				"y": -2.5959360676,
				"z": -3.9257222631,
				"element": "H" 
			},
			{
				"x": -1.3251788023,
				"y": -1.846089437,
				"z": -3.5872065031,
				"element": "H" 
			},
			{
				"x": 0.2019053856,
				"y": -0.4952438422,
				"z": -2.2112164648,
				"element": "H" 
			}
		],
		 "valence_orbital": [ 
			{
				"type": "occ",
				"energy": -0.25162,
				"method": "rhf"
			},
			{
				"type": "occ",
				"energy": -0.24694,
				"method": "rhf"
			},
			{
				"type": "occ",
				"energy": -0.23653,
				"method": "rhf"
			},
			{
				"type": "occ",
				"energy": -0.20503,
				"method": "rhf"
			},
			{
				"type": "occ",
				"energy": -0.19316,
				"method": "rhf"
			},
			{
				"type": "unocc",
				"energy": -0.01162,
				"method": "rhf"
			},
			{
				"type": "unocc",
				"energy": -4e-05,
				"method": "rhf"
			},
			{
				"type": "unocc",
				"energy": 0.06188,
				"method": "rhf"
			},
			{
				"type": "unocc",
				"energy": 0.07737,
				"method": "rhf"
			},
			{
				"type": "unocc",
				"energy": 0.08419,
				"method": "rhf"
			}
		],
		"cosmo_sigma_profile": { 
			"-0.025": 0.0,
			"-0.024": 0.0,
			"-0.023": 0.0,
			"-0.022": 0.0,
			"-0.021": 0.0,
			"-0.02": 0.0,
			"-0.019": 0.0,
			"-0.018": 0.0,
			"-0.017": 0.0,
			"-0.016": 0.0,
			"-0.015": 0.0,
			"-0.014": 0.0,
			"-0.013": 1.1904382118,
			"-0.012": 2.65879926432,
			"-0.011": 2.56043862105,
			"-0.01": 3.76757949762,
			"-0.009": 2.66594484529,
			"-0.008": 2.89766102666,
			"-0.007": 3.74210374102,
			"-0.006": 4.77491819836,
			"-0.005": 8.8191616708,
			"-0.004": 29.6243924703,
			"-0.003": 38.2322567055,
			"-0.002": 29.7129818521,
			"-0.001": 22.388905464,
			"0.0": 18.5911882933,
			"0.001": 12.3459739904,
			"0.002": 11.3205068884,
			"0.003": 9.66260659526,
			"0.004": 10.5608100405,
			"0.005": 13.538129947,
			"0.006": 9.55000927587,
			"0.007": 3.43310756451,
			"0.008": 2.24825764175,
			"0.009": 3.46960920644,
			"0.01": 3.33679633421,
			"0.011": 3.06281957301,
			"0.012": 2.61680509133,
			"0.013": 3.01858237056,
			"0.014": 5.03183337803,
			"0.015": 2.99239111206,
			"0.016": 0.733357204467,
			"0.017": 0.139990645083,
			"0.018": 0.0,
			"0.019": 0.0,
			"0.02": 0.0,
			"0.021": 0.0,
			"0.022": 0.0,
			"0.023": 0.0,
			"0.024": 0.0,
			"0.025": 0.0
		}
	}
}
