{
	 "smiles": "CCCCCCCCCCCCCCCCCCCCCCCCCCC", 
	 "Tm": 332.35, 
	 "num_atms": 83, 
	 "gaussian": { 
		 "optdone": 1, 
		 "sigma_profile": "yes", 
		 "theory": "DFT", 
		 "functional": "B3LYP", 
		 "basiset": "6-31G**", 
		 "properties": { 
			 "R2extent": 25164.8544, 
			 "electric_dipole_moment_norm": 0.06820520508, 
			 "electric_quadrupole_moment_norm": 0.581167961952, 
			 "total_energy": -1062.70956952, 
			 "HOMO_LUMO_gap": 0.34419, 
			 "cosmo_polarized_energy": -1.68, 
			 "cosmo_cavitation_energy": 77.5, 
			 "cosmo_dispersion_energy": -47.9, 
			 "cosmo_repulsion_energy": 3.86, 
			 "cosmo_total_nonelectrostatic_energy": 33.46, 
			 "SMD_solvation_energy": 9.35 
		},
		"coords": [
			{
				"x": 7.067631012,
				"y": 0.3667789089,
				"z": -1.8329094689,
				"element": "C" 
			},
			{
				"x": 6.4469273061,
				"y": 1.2702152411,
				"z": -0.7608436278,
				"element": "C" 
			},
			{
				"x": 4.9101638683,
				"y": 1.2130407407,
				"z": -0.6952592256,
				"element": "C" 
			},
			{
				"x": 4.1606077506,
				"y": 1.6869531434,
				"z": -1.9538664635,
				"element": "C" 
			},
			{
				"x": 4.3604580245,
				"y": 3.1717724359,
				"z": -2.2908807818,
				"element": "C" 
			},
			{
				"x": 3.6097553874,
				"y": 3.646297528,
				"z": -3.5489827678,
				"element": "C" 
			},
			{
				"x": 2.0724037655,
				"y": 3.5915609725,
				"z": -3.4850130053,
				"element": "C" 
			},
			{
				"x": 1.4509821515,
				"y": 4.504723265,
				"z": -2.417419199,
				"element": "C" 
			},
			{
				"x": -0.0833093751,
				"y": 4.6106824503,
				"z": -2.4877837001,
				"element": "C" 
			},
			{
				"x": -0.8643621847,
				"y": 3.3091989329,
				"z": -2.2301106694,
				"element": "C" 
			},
			{
				"x": -0.6868572758,
				"y": 2.7333976147,
				"z": -0.8169814544,
				"element": "C" 
			},
			{
				"x": -1.626979828,
				"y": 1.5597950676,
				"z": -0.4874603338,
				"element": "C" 
			},
			{
				"x": -1.4591670869,
				"y": 0.2976986526,
				"z": -1.3543938382,
				"element": "C" 
			},
			{
				"x": -0.0717826769,
				"y": -0.3693622229,
				"z": -1.3035545668,
				"element": "C" 
			},
			{
				"x": 0.3958195705,
				"y": -0.8481250618,
				"z": 0.0821648993,
				"element": "C" 
			},
			{
				"x": -0.4745372705,
				"y": -1.946000383,
				"z": 0.7104989761,
				"element": "C" 
			},
			{
				"x": 0.0784905363,
				"y": -2.4526814834,
				"z": 2.0500830867,
				"element": "C" 
			},
			{
				"x": -0.7077642436,
				"y": -3.6212657697,
				"z": 2.6709749964,
				"element": "C" 
			},
			{
				"x": -2.1701312109,
				"y": -3.325745885,
				"z": 3.0522033243,
				"element": "C" 
			},
			{
				"x": -2.3305543183,
				"y": -2.2419668904,
				"z": 4.1285783229,
				"element": "C" 
			},
			{
				"x": -3.7496852278,
				"y": -2.0620051468,
				"z": 4.6989746531,
				"element": "C" 
			},
			{
				"x": -4.8236021337,
				"y": -1.5562624877,
				"z": 3.7099176733,
				"element": "C" 
			},
			{
				"x": -5.6060157056,
				"y": -2.6509352682,
				"z": 2.9676040361,
				"element": "C" 
			},
			{
				"x": -6.675307885,
				"y": -2.0917753541,
				"z": 2.0196430683,
				"element": "C" 
			},
			{
				"x": -7.4778211008,
				"y": -3.1840169584,
				"z": 1.2987554763,
				"element": "C" 
			},
			{
				"x": -8.6036068926,
				"y": -2.6625623243,
				"z": 0.3900953933,
				"element": "C" 
			},
			{
				"x": -8.1205860772,
				"y": -1.8611863914,
				"z": -0.8248650283,
				"element": "C" 
			},
			{
				"x": 8.1614179635,
				"y": 0.3984776344,
				"z": -1.7901789848,
				"element": "H" 
			},
			{
				"x": 6.7601243759,
				"y": -0.6767583519,
				"z": -1.6962625902,
				"element": "H" 
			},
			{
				"x": 6.771533664,
				"y": 0.6674656516,
				"z": -2.8433638798,
				"element": "H" 
			},
			{
				"x": 6.8422595869,
				"y": 0.9803512329,
				"z": 0.2212519914,
				"element": "H" 
			},
			{
				"x": 6.7765212591,
				"y": 2.3048843759,
				"z": -0.9195092766,
				"element": "H" 
			},
			{
				"x": 4.6090019747,
				"y": 0.178917137,
				"z": -0.4774087527,
				"element": "H" 
			},
			{
				"x": 4.5720681328,
				"y": 1.8124599776,
				"z": 0.1613581125,
				"element": "H" 
			},
			{
				"x": 3.0918892052,
				"y": 1.4877812447,
				"z": -1.8035530609,
				"element": "H" 
			},
			{
				"x": 4.4567720101,
				"y": 1.0771023725,
				"z": -2.8183946078,
				"element": "H" 
			},
			{
				"x": 5.4290664759,
				"y": 3.3697605537,
				"z": -2.4423066703,
				"element": "H" 
			},
			{
				"x": 4.0650623275,
				"y": 3.7814878212,
				"z": -1.4260827958,
				"element": "H" 
			},
			{
				"x": 3.9124230166,
				"y": 4.679784174,
				"z": -3.7671695749,
				"element": "H" 
			},
			{
				"x": 3.9473124366,
				"y": 3.0461976424,
				"z": -4.405336673,
				"element": "H" 
			},
			{
				"x": 1.744951005,
				"y": 2.5559598286,
				"z": -3.3300742756,
				"element": "H" 
			},
			{
				"x": 1.678199951,
				"y": 3.8830392902,
				"z": -4.4686244427,
				"element": "H" 
			},
			{
				"x": 1.8705045331,
				"y": 5.5139979364,
				"z": -2.53239632,
				"element": "H" 
			},
			{
				"x": 1.7514711126,
				"y": 4.170666757,
				"z": -1.416537351,
				"element": "H" 
			},
			{
				"x": -0.3620834915,
				"y": 4.9968650536,
				"z": -3.4779952705,
				"element": "H" 
			},
			{
				"x": -0.416108247,
				"y": 5.3670653414,
				"z": -1.7635355609,
				"element": "H" 
			},
			{
				"x": -0.585950847,
				"y": 2.5576766914,
				"z": -2.9792667925,
				"element": "H" 
			},
			{
				"x": -1.9320242086,
				"y": 3.5116793617,
				"z": -2.3943612138,
				"element": "H" 
			},
			{
				"x": 0.3553320321,
				"y": 2.4245187844,
				"z": -0.6667930705,
				"element": "H" 
			},
			{
				"x": -0.8675270652,
				"y": 3.5341509447,
				"z": -0.0862157655,
				"element": "H" 
			},
			{
				"x": -1.4987605302,
				"y": 1.293971256,
				"z": 0.5698496372,
				"element": "H" 
			},
			{
				"x": -2.6656015392,
				"y": 1.9055448812,
				"z": -0.5825455163,
				"element": "H" 
			},
			{
				"x": -1.6850571601,
				"y": 0.5421743501,
				"z": -2.4000289268,
				"element": "H" 
			},
			{
				"x": -2.2235821844,
				"y": -0.4299816965,
				"z": -1.0535967579,
				"element": "H" 
			},
			{
				"x": -0.0773511095,
				"y": -1.2278950621,
				"z": -1.9891535343,
				"element": "H" 
			},
			{
				"x": 0.678992523,
				"y": 0.3238603356,
				"z": -1.7050532597,
				"element": "H" 
			},
			{
				"x": 0.4555668333,
				"y": 0.0044285533,
				"z": 0.7723283232,
				"element": "H" 
			},
			{
				"x": 1.4236596669,
				"y": -1.2247136922,
				"z": -0.0120104484,
				"element": "H" 
			},
			{
				"x": -0.55491764,
				"y": -2.7897052122,
				"z": 0.0090406368,
				"element": "H" 
			},
			{
				"x": -1.4958114982,
				"y": -1.5709319342,
				"z": 0.8513989642,
				"element": "H" 
			},
			{
				"x": 1.1173912455,
				"y": -2.7778258938,
				"z": 1.901774419,
				"element": "H" 
			},
			{
				"x": 0.1286767511,
				"y": -1.6164566528,
				"z": 2.7603599885,
				"element": "H" 
			},
			{
				"x": -0.1744351889,
				"y": -3.9639030477,
				"z": 3.5684904857,
				"element": "H" 
			},
			{
				"x": -0.6922454034,
				"y": -4.4665274355,
				"z": 1.9691611576,
				"element": "H" 
			},
			{
				"x": -2.6257397102,
				"y": -4.2572573456,
				"z": 3.4152388283,
				"element": "H" 
			},
			{
				"x": -2.7335536773,
				"y": -3.0469122545,
				"z": 2.1537032311,
				"element": "H" 
			},
			{
				"x": -1.989929605,
				"y": -1.2752767874,
				"z": 3.733234506,
				"element": "H" 
			},
			{
				"x": -1.6545601021,
				"y": -2.4790496349,
				"z": 4.9626358348,
				"element": "H" 
			},
			{
				"x": -4.0858252384,
				"y": -3.0075128878,
				"z": 5.1482504546,
				"element": "H" 
			},
			{
				"x": -3.6776897692,
				"y": -1.3484474092,
				"z": 5.5294738804,
				"element": "H" 
			},
			{
				"x": -5.5491685672,
				"y": -0.9421312539,
				"z": 4.2600289441,
				"element": "H" 
			},
			{
				"x": -4.3568271261,
				"y": -0.8784650419,
				"z": 2.9804014507,
				"element": "H" 
			},
			{
				"x": -4.9203145664,
				"y": -3.2910257467,
				"z": 2.3991126468,
				"element": "H" 
			},
			{
				"x": -6.0861416989,
				"y": -3.3073823356,
				"z": 3.7076170927,
				"element": "H" 
			},
			{
				"x": -7.3664048811,
				"y": -1.4525137774,
				"z": 2.5886324814,
				"element": "H" 
			},
			{
				"x": -6.191772011,
				"y": -1.4351057051,
				"z": 1.2841916159,
				"element": "H" 
			},
			{
				"x": -6.7921709303,
				"y": -3.8045543128,
				"z": 0.7034831467,
				"element": "H" 
			},
			{
				"x": -7.9145246161,
				"y": -3.8543351174,
				"z": 2.0517830985,
				"element": "H" 
			},
			{
				"x": -9.1948521246,
				"y": -3.5179752872,
				"z": 0.0386642796,
				"element": "H" 
			},
			{
				"x": -9.2902311025,
				"y": -2.0449011252,
				"z": 0.9854909762,
				"element": "H" 
			},
			{
				"x": -8.9614290621,
				"y": -1.5624894188,
				"z": -1.4596901278,
				"element": "H" 
			},
			{
				"x": -7.4345569559,
				"y": -2.454689949,
				"z": -1.4407802679,
				"element": "H" 
			},
			{
				"x": -7.5934191043,
				"y": -0.9482681403,
				"z": -0.5296001904,
				"element": "H" 
			}
		],
		 "valence_orbital": [ 
			{
				"type": "occ",
				"energy": -0.29743,
				"method": "rhf"
			},
			{
				"type": "occ",
				"energy": -0.29582,
				"method": "rhf"
			},
			{
				"type": "occ",
				"energy": -0.29435,
				"method": "rhf"
			},
			{
				"type": "occ",
				"energy": -0.29397,
				"method": "rhf"
			},
			{
				"type": "occ",
				"energy": -0.29142,
				"method": "rhf"
			},
			{
				"type": "unocc",
				"energy": 0.05277,
				"method": "rhf"
			},
			{
				"type": "unocc",
				"energy": 0.07182,
				"method": "rhf"
			},
			{
				"type": "unocc",
				"energy": 0.08695,
				"method": "rhf"
			},
			{
				"type": "unocc",
				"energy": 0.09097,
				"method": "rhf"
			},
			{
				"type": "unocc",
				"energy": 0.09644,
				"method": "rhf"
			}
		],
		"cosmo_sigma_profile": { 
			"-0.025": 0.0,
			"-0.024": 0.0,
			"-0.023": 0.0,
			"-0.022": 0.0,
			"-0.021": 0.0,
			"-0.02": 0.0,
			"-0.019": 0.0,
			"-0.018": 0.0,
			"-0.017": 0.0,
			"-0.016": 0.0,
			"-0.015": 0.0,
			"-0.014": 0.0,
			"-0.013": 0.0,
			"-0.012": 0.0,
			"-0.011": 0.0,
			"-0.01": 0.0,
			"-0.009": 0.0,
			"-0.008": 0.0,
			"-0.007": 0.0,
			"-0.006": 0.0,
			"-0.005": 0.0,
			"-0.004": 0.0,
			"-0.003": 2.59504820808,
			"-0.002": 58.452481433,
			"-0.001": 154.069510703,
			"0.0": 165.270860744,
			"0.001": 144.351306689,
			"0.002": 63.4683311746,
			"0.003": 1.60275146037,
			"0.004": 0.0,
			"0.005": 0.0,
			"0.006": 0.0,
			"0.007": 0.0,
			"0.008": 0.0,
			"0.009": 0.0,
			"0.01": 0.0,
			"0.011": 0.0,
			"0.012": 0.0,
			"0.013": 0.0,
			"0.014": 0.0,
			"0.015": 0.0,
			"0.016": 0.0,
			"0.017": 0.0,
			"0.018": 0.0,
			"0.019": 0.0,
			"0.02": 0.0,
			"0.021": 0.0,
			"0.022": 0.0,
			"0.023": 0.0,
			"0.024": 0.0,
			"0.025": 0.0
		}
	}
}
