{
	 "smiles": "COC1=NC=C(NC(=O)OCC(F)(F)F)C=C1", 
	 "Tm": 360.15, 
	 "num_atms": 26, 
	 "gaussian": { 
		 "optdone": 1, 
		 "sigma_profile": "yes", 
		 "theory": "DFT", 
		 "functional": "B3LYP", 
		 "basiset": "6-31G**", 
		 "properties": { 
			 "R2extent": 6337.7375, 
			 "electric_dipole_moment_norm": 1.82898262704, 
			 "electric_quadrupole_moment_norm": 8.29373139124, 
			 "total_energy": -983.091833736, 
			 "HOMO_LUMO_gap": 0.19181, 
			 "cosmo_polarized_energy": -12.42, 
			 "cosmo_cavitation_energy": 32.82, 
			 "cosmo_dispersion_energy": -23.04, 
			 "cosmo_repulsion_energy": 1.74, 
			 "cosmo_total_nonelectrostatic_energy": 11.51, 
			 "SMD_solvation_energy": 7.86 
		},
		"coords": [
			{
				"x": 4.6579285312,
				"y": 0.3940123807,
				"z": 0.2616791793,
				"element": "C" 
			},
			{
				"x": 3.5399545984,
				"y": 0.8477082628,
				"z": -0.5051250051,
				"element": "O" 
			},
			{
				"x": 2.3628107295,
				"y": 0.2123501042,
				"z": -0.3102747043,
				"element": "C" 
			},
			{
				"x": 2.2859283236,
				"y": -0.7840743377,
				"z": 0.5634349564,
				"element": "N" 
			},
			{
				"x": 1.0955104591,
				"y": -1.3745653838,
				"z": 0.733149305,
				"element": "C" 
			},
			{
				"x": -0.0586943663,
				"y": -1.017487348,
				"z": 0.0370573686,
				"element": "C" 
			},
			{
				"x": -1.2369180054,
				"y": -1.7702536084,
				"z": 0.2670816026,
				"element": "N" 
			},
			{
				"x": -2.5564144735,
				"y": -1.4173211971,
				"z": 0.2038278137,
				"element": "C" 
			},
			{
				"x": -3.473135618,
				"y": -2.180396589,
				"z": 0.4327155391,
				"element": "O" 
			},
			{
				"x": -2.7089999134,
				"y": -0.0989272745,
				"z": -0.1292251511,
				"element": "O" 
			},
			{
				"x": -4.034951115,
				"y": 0.3229446845,
				"z": -0.4196650803,
				"element": "C" 
			},
			{
				"x": -4.1930930053,
				"y": 0.446967676,
				"z": -1.9254416672,
				"element": "C" 
			},
			{
				"x": -3.2864167495,
				"y": 1.3011389086,
				"z": -2.448439671,
				"element": "F" 
			},
			{
				"x": -4.0308909575,
				"y": -0.739155152,
				"z": -2.5389573132,
				"element": "F" 
			},
			{
				"x": -5.4224159264,
				"y": 0.9144256093,
				"z": -2.2187379381,
				"element": "F" 
			},
			{
				"x": 0.0434029024,
				"y": 0.0294295556,
				"z": -0.8992118922,
				"element": "C" 
			},
			{
				"x": 1.2636529555,
				"y": 0.6583251111,
				"z": -1.0671810075,
				"element": "C" 
			},
			{
				"x": 4.4714312336,
				"y": 0.501343534,
				"z": 1.3343542778,
				"element": "H" 
			},
			{
				"x": 4.8806721333,
				"y": -0.6565088569,
				"z": 0.0525333448,
				"element": "H" 
			},
			{
				"x": 5.4931646889,
				"y": 1.0262062111,
				"z": -0.0426257532,
				"element": "H" 
			},
			{
				"x": 1.061284614,
				"y": -2.1835555047,
				"z": 1.4629615975,
				"element": "H" 
			},
			{
				"x": -1.1164816341,
				"y": -2.7119820126,
				"z": 0.612681399,
				"element": "H" 
			},
			{
				"x": -4.7631246551,
				"y": -0.3932115888,
				"z": -0.0351637588,
				"element": "H" 
			},
			{
				"x": -4.1813556294,
				"y": 1.3050599565,
				"z": 0.0337869952,
				"element": "H" 
			},
			{
				"x": -0.8188908848,
				"y": 0.3449473414,
				"z": -1.4715612061,
				"element": "H" 
			},
			{
				"x": 1.391341764,
				"y": 1.4717795175,
				"z": -1.772053231,
				"element": "H" 
			}
		],
		 "valence_orbital": [ 
			{
				"type": "occ",
				"energy": -0.30544,
				"method": "rhf"
			},
			{
				"type": "occ",
				"energy": -0.29718,
				"method": "rhf"
			},
			{
				"type": "occ",
				"energy": -0.28345,
				"method": "rhf"
			},
			{
				"type": "occ",
				"energy": -0.27143,
				"method": "rhf"
			},
			{
				"type": "occ",
				"energy": -0.21988,
				"method": "rhf"
			},
			{
				"type": "unocc",
				"energy": -0.02807,
				"method": "rhf"
			},
			{
				"type": "unocc",
				"energy": -0.00974,
				"method": "rhf"
			},
			{
				"type": "unocc",
				"energy": 0.04629,
				"method": "rhf"
			},
			{
				"type": "unocc",
				"energy": 0.0695,
				"method": "rhf"
			},
			{
				"type": "unocc",
				"energy": 0.09699,
				"method": "rhf"
			}
		],
		"cosmo_sigma_profile": { 
			"-0.025": 0.0,
			"-0.024": 0.0,
			"-0.023": 0.0,
			"-0.022": 0.0,
			"-0.021": 0.0,
			"-0.02": 0.0,
			"-0.019": 0.0,
			"-0.018": 0.0,
			"-0.017": 0.0,
			"-0.016": 0.258782376545,
			"-0.015": 1.4252547707,
			"-0.014": 0.864035488295,
			"-0.013": 1.37976607781,
			"-0.012": 0.963546222027,
			"-0.011": 1.22548692479,
			"-0.01": 2.02789947133,
			"-0.009": 4.25817033183,
			"-0.008": 4.72108846356,
			"-0.007": 7.42157733278,
			"-0.006": 10.2013810592,
			"-0.005": 12.3492083812,
			"-0.004": 15.6263400247,
			"-0.003": 18.493739582,
			"-0.002": 15.1423252729,
			"-0.001": 14.4837490433,
			"0.0": 18.0713128354,
			"0.001": 26.2631438762,
			"0.002": 39.3906193869,
			"0.003": 24.8700708503,
			"0.004": 7.36593531154,
			"0.005": 5.91307205832,
			"0.006": 4.31103409035,
			"0.007": 4.42407483076,
			"0.008": 3.0551184253,
			"0.009": 3.91821976511,
			"0.01": 3.46932578309,
			"0.011": 3.96199240715,
			"0.012": 5.22743211046,
			"0.013": 1.15834084996,
			"0.014": 0.0,
			"0.015": 0.0,
			"0.016": 0.0,
			"0.017": 0.0,
			"0.018": 0.0,
			"0.019": 0.0,
			"0.02": 0.0,
			"0.021": 0.0,
			"0.022": 0.0,
			"0.023": 0.0,
			"0.024": 0.0,
			"0.025": 0.0
		}
	}
}
