{
	 "smiles": "ClC1=CC=C(C=C1)N1C(=O)C2ON=C(C2C1=O)C(=O)C1=CC=C(Cl)C=C1", 
	 "Tm": 425.15, 
	 "num_atms": 36, 
	 "gaussian": { 
		 "optdone": 1, 
		 "sigma_profile": "yes", 
		 "theory": "DFT", 
		 "functional": "B3LYP", 
		 "basiset": "6-31G**", 
		 "properties": { 
			 "R2extent": 15694.1228, 
			 "electric_dipole_moment_norm": 1.43444070634, 
			 "electric_quadrupole_moment_norm": 10.3517730491, 
			 "total_energy": -2022.67665954, 
			 "HOMO_LUMO_gap": 0.15353, 
			 "cosmo_polarized_energy": -18.45, 
			 "cosmo_cavitation_energy": 46.2, 
			 "cosmo_dispersion_energy": -33.06, 
			 "cosmo_repulsion_energy": 2.48, 
			 "cosmo_total_nonelectrostatic_energy": 15.62, 
			 "SMD_solvation_energy": 8.59 
		},
		"coords": [
			{
				"x": -5.2916622488,
				"y": -3.3351835959,
				"z": 3.4183813012,
				"element": "Cl" 
			},
			{
				"x": -4.1843681994,
				"y": -2.1246181316,
				"z": 2.7961098009,
				"element": "C" 
			},
			{
				"x": -4.5567487228,
				"y": -1.3547493273,
				"z": 1.6948106315,
				"element": "C" 
			},
			{
				"x": -3.6754992784,
				"y": -0.3970383096,
				"z": 1.1984827179,
				"element": "C" 
			},
			{
				"x": -2.4324036419,
				"y": -0.2094999849,
				"z": 1.8117521617,
				"element": "C" 
			},
			{
				"x": -2.0684244754,
				"y": -0.9823890826,
				"z": 2.9192244774,
				"element": "C" 
			},
			{
				"x": -2.9454021225,
				"y": -1.9468180339,
				"z": 3.410450367,
				"element": "C" 
			},
			{
				"x": -1.5312087725,
				"y": 0.7803022695,
				"z": 1.3018044132,
				"element": "N" 
			},
			{
				"x": -1.9427988888,
				"y": 2.0536646308,
				"z": 0.8715922111,
				"element": "C" 
			},
			{
				"x": -3.070315696,
				"y": 2.4862807844,
				"z": 0.8966733445,
				"element": "O" 
			},
			{
				"x": -0.7071769039,
				"y": 2.7919318123,
				"z": 0.3479490915,
				"element": "C" 
			},
			{
				"x": -0.8066148101,
				"y": 2.9131907168,
				"z": -1.1077633179,
				"element": "O" 
			},
			{
				"x": 0.2336785244,
				"y": 2.2301352991,
				"z": -1.7038870749,
				"element": "N" 
			},
			{
				"x": 0.9718859759,
				"y": 1.6576632078,
				"z": -0.8203389518,
				"element": "C" 
			},
			{
				"x": 0.4725595239,
				"y": 1.8625278745,
				"z": 0.5945084543,
				"element": "C" 
			},
			{
				"x": -0.1403587352,
				"y": 0.5798418937,
				"z": 1.184186439,
				"element": "C" 
			},
			{
				"x": 0.4541052167,
				"y": -0.4239147798,
				"z": 1.4925073166,
				"element": "O" 
			},
			{
				"x": 2.2820931151,
				"y": 0.9864902619,
				"z": -1.0988076227,
				"element": "C" 
			},
			{
				"x": 3.0631499406,
				"y": 0.9294593303,
				"z": -0.1552526852,
				"element": "O" 
			},
			{
				"x": 2.6288828457,
				"y": 0.4373063179,
				"z": -2.4381352976,
				"element": "C" 
			},
			{
				"x": 3.936593274,
				"y": -0.0544611016,
				"z": -2.5985719928,
				"element": "C" 
			},
			{
				"x": 4.3494332046,
				"y": -0.6035350647,
				"z": -3.8052181122,
				"element": "C" 
			},
			{
				"x": 3.4404187673,
				"y": -0.6676910379,
				"z": -4.8651252308,
				"element": "C" 
			},
			{
				"x": 3.949732949,
				"y": -1.3607053193,
				"z": -6.3912755622,
				"element": "Cl" 
			},
			{
				"x": 2.1357802169,
				"y": -0.1924868662,
				"z": -4.7304544494,
				"element": "C" 
			},
			{
				"x": 1.7324061392,
				"y": 0.3580297387,
				"z": -3.516195173,
				"element": "C" 
			},
			{
				"x": -5.5234276004,
				"y": -1.5032612511,
				"z": 1.2274244488,
				"element": "H" 
			},
			{
				"x": -3.9617055376,
				"y": 0.2089239802,
				"z": 0.3484686587,
				"element": "H" 
			},
			{
				"x": -1.1021457751,
				"y": -0.8456276509,
				"z": 3.3870307502,
				"element": "H" 
			},
			{
				"x": -2.668841997,
				"y": -2.5529675855,
				"z": 4.2654826804,
				"element": "H" 
			},
			{
				"x": -0.6516271166,
				"y": 3.7994617317,
				"z": 0.7645948271,
				"element": "H" 
			},
			{
				"x": 1.2658226752,
				"y": 2.2201930617,
				"z": 1.2541001173,
				"element": "H" 
			},
			{
				"x": 4.617242156,
				"y": 0.00404029,
				"z": -1.756406531,
				"element": "H" 
			},
			{
				"x": 5.3582626128,
				"y": -0.9803167565,
				"z": -3.9304846741,
				"element": "H" 
			},
			{
				"x": 1.4462563244,
				"y": -0.2547635024,
				"z": -5.5646411662,
				"element": "H" 
			},
			{
				"x": 0.7223270607,
				"y": 0.7339841805,
				"z": -3.4156763684,
				"element": "H" 
			}
		],
		 "valence_orbital": [ 
			{
				"type": "occ",
				"energy": -0.27961,
				"method": "rhf"
			},
			{
				"type": "occ",
				"energy": -0.27601,
				"method": "rhf"
			},
			{
				"type": "occ",
				"energy": -0.2722,
				"method": "rhf"
			},
			{
				"type": "occ",
				"energy": -0.26346,
				"method": "rhf"
			},
			{
				"type": "occ",
				"energy": -0.25157,
				"method": "rhf"
			},
			{
				"type": "unocc",
				"energy": -0.09804,
				"method": "rhf"
			},
			{
				"type": "unocc",
				"energy": -0.05738,
				"method": "rhf"
			},
			{
				"type": "unocc",
				"energy": -0.0472,
				"method": "rhf"
			},
			{
				"type": "unocc",
				"energy": -0.03428,
				"method": "rhf"
			},
			{
				"type": "unocc",
				"energy": -0.02722,
				"method": "rhf"
			}
		],
		"cosmo_sigma_profile": { 
			"-0.025": 0.0,
			"-0.024": 0.0,
			"-0.023": 0.0,
			"-0.022": 0.0,
			"-0.021": 0.0,
			"-0.02": 0.0,
			"-0.019": 0.0,
			"-0.018": 0.0,
			"-0.017": 0.0,
			"-0.016": 0.0,
			"-0.015": 0.0,
			"-0.014": 0.0,
			"-0.013": 0.0690874167899,
			"-0.012": 1.04766012727,
			"-0.011": 3.00813497242,
			"-0.01": 8.48307784659,
			"-0.009": 6.24383271317,
			"-0.008": 8.99586929328,
			"-0.007": 18.4738914408,
			"-0.006": 20.7124455089,
			"-0.005": 16.5071912021,
			"-0.004": 18.3493763953,
			"-0.003": 15.0130342321,
			"-0.002": 18.59686295,
			"-0.001": 22.3207969824,
			"0.0": 28.9731675223,
			"0.001": 39.6623637424,
			"0.002": 38.7968313452,
			"0.003": 25.2761416559,
			"0.004": 25.8907109788,
			"0.005": 11.2121168879,
			"0.006": 7.30393653322,
			"0.007": 9.43502053153,
			"0.008": 9.29100717416,
			"0.009": 8.68293093001,
			"0.01": 12.0838531252,
			"0.011": 3.41848597827,
			"0.012": 0.0,
			"0.013": 0.0,
			"0.014": 0.0,
			"0.015": 0.0,
			"0.016": 0.0,
			"0.017": 0.0,
			"0.018": 0.0,
			"0.019": 0.0,
			"0.02": 0.0,
			"0.021": 0.0,
			"0.022": 0.0,
			"0.023": 0.0,
			"0.024": 0.0,
			"0.025": 0.0
		}
	}
}
