{
	 "smiles": "OC1=C(C=O)C=C(Cl)C=C1Cl", 
	 "Tm": 369.15, 
	 "num_atms": 15, 
	 "gaussian": { 
		 "optdone": 1, 
		 "sigma_profile": "yes", 
		 "theory": "DFT", 
		 "functional": "B3LYP", 
		 "basiset": "6-31G**", 
		 "properties": { 
			 "R2extent": 4333.019, 
			 "electric_dipole_moment_norm": 3.40817876585, 
			 "electric_quadrupole_moment_norm": 3.66947856241, 
			 "total_energy": -1339.97350844, 
			 "HOMO_LUMO_gap": 0.16822, 
			 "cosmo_polarized_energy": -8.82, 
			 "cosmo_cavitation_energy": 23.65, 
			 "cosmo_dispersion_energy": -17.81, 
			 "cosmo_repulsion_energy": 1.43, 
			 "cosmo_total_nonelectrostatic_energy": 7.27, 
			 "SMD_solvation_energy": 4.96 
		},
		"coords": [
			{
				"x": 1.4221596971,
				"y": 0.5220836568,
				"z": 1.9418872893,
				"element": "O" 
			},
			{
				"x": 0.5134955896,
				"y": 1.3497444671,
				"z": 1.3809907862,
				"element": "C" 
			},
			{
				"x": 0.2012403563,
				"y": 1.1966746734,
				"z": 0.0157084011,
				"element": "C" 
			},
			{
				"x": 0.8554359996,
				"y": 0.1442083957,
				"z": -0.8045554293,
				"element": "C" 
			},
			{
				"x": 0.6139640924,
				"y": -0.0208241668,
				"z": -1.986065176,
				"element": "O" 
			},
			{
				"x": -0.7373582329,
				"y": 2.0411198065,
				"z": -0.5916519756,
				"element": "C" 
			},
			{
				"x": -1.3644383371,
				"y": 3.0327554587,
				"z": 0.1481641237,
				"element": "C" 
			},
			{
				"x": -2.5398738163,
				"y": 4.0915015559,
				"z": -0.60910672,
				"element": "Cl" 
			},
			{
				"x": -1.0712738146,
				"y": 3.2041978684,
				"z": 1.5041634407,
				"element": "C" 
			},
			{
				"x": -0.139740075,
				"y": 2.364276647,
				"z": 2.1021051961,
				"element": "C" 
			},
			{
				"x": 0.2490474294,
				"y": 2.5570007884,
				"z": 3.8075965709,
				"element": "Cl" 
			},
			{
				"x": 1.5273288599,
				"y": 0.7516202824,
				"z": 2.8786815608,
				"element": "H" 
			},
			{
				"x": 1.5862077712,
				"y": -0.4913107437,
				"z": -0.2724474104,
				"element": "H" 
			},
			{
				"x": -0.9509592146,
				"y": 1.8921314614,
				"z": -1.6441543168,
				"element": "H" 
			},
			{
				"x": -1.5592363051,
				"y": 3.9777198487,
				"z": 2.0848836594,
				"element": "H" 
			}
		],
		 "valence_orbital": [ 
			{
				"type": "occ",
				"energy": -0.32682,
				"method": "rhf"
			},
			{
				"type": "occ",
				"energy": -0.32513,
				"method": "rhf"
			},
			{
				"type": "occ",
				"energy": -0.27984,
				"method": "rhf"
			},
			{
				"type": "occ",
				"energy": -0.26435,
				"method": "rhf"
			},
			{
				"type": "occ",
				"energy": -0.24831,
				"method": "rhf"
			},
			{
				"type": "unocc",
				"energy": -0.08009,
				"method": "rhf"
			},
			{
				"type": "unocc",
				"energy": -0.02678,
				"method": "rhf"
			},
			{
				"type": "unocc",
				"energy": -0.01193,
				"method": "rhf"
			},
			{
				"type": "unocc",
				"energy": 0.01787,
				"method": "rhf"
			},
			{
				"type": "unocc",
				"energy": 0.03385,
				"method": "rhf"
			}
		],
		"cosmo_sigma_profile": { 
			"-0.025": 0.0,
			"-0.024": 0.0,
			"-0.023": 0.0,
			"-0.022": 0.0,
			"-0.021": 0.0,
			"-0.02": 0.0,
			"-0.019": 0.0,
			"-0.018": 0.0,
			"-0.017": 0.0924672956345,
			"-0.016": 0.520925925686,
			"-0.015": 1.07376718615,
			"-0.014": 0.581293702719,
			"-0.013": 0.141503173116,
			"-0.012": 0.795108825854,
			"-0.011": 1.70085145383,
			"-0.01": 1.03631331357,
			"-0.009": 2.4042069083,
			"-0.008": 2.6653752462,
			"-0.007": 4.33760684811,
			"-0.006": 5.83410282952,
			"-0.005": 6.1775480482,
			"-0.004": 10.0035346155,
			"-0.003": 11.1472218287,
			"-0.002": 16.6744895995,
			"-0.001": 21.6874950255,
			"0.0": 24.7054689037,
			"0.001": 17.7535891972,
			"0.002": 12.8715871762,
			"0.003": 15.5451222289,
			"0.004": 13.7062071865,
			"0.005": 4.73002465554,
			"0.006": 2.85550155759,
			"0.007": 3.56956363087,
			"0.008": 1.67066560581,
			"0.009": 2.26310739786,
			"0.01": 2.76067816934,
			"0.011": 4.02807156313,
			"0.012": 1.69530865812,
			"0.013": 0.237888044212,
			"0.014": 0.0,
			"0.015": 0.0,
			"0.016": 0.0,
			"0.017": 0.0,
			"0.018": 0.0,
			"0.019": 0.0,
			"0.02": 0.0,
			"0.021": 0.0,
			"0.022": 0.0,
			"0.023": 0.0,
			"0.024": 0.0,
			"0.025": 0.0
		}
	}
}
