{
	 "smiles": "CC1=CC=C(C=C1)C1=NN(C=C1C(O)=O)C1=CC=C(F)C=C1", 
	 "Tm": 486.15, 
	 "num_atms": 35, 
	 "gaussian": { 
		 "optdone": 1, 
		 "sigma_profile": "yes", 
		 "theory": "DFT", 
		 "functional": "B3LYP", 
		 "basiset": "6-31G**", 
		 "properties": { 
			 "R2extent": 10143.5969, 
			 "electric_dipole_moment_norm": 3.87544100329, 
			 "electric_quadrupole_moment_norm": 23.5296210658, 
			 "total_energy": -1015.42794172, 
			 "HOMO_LUMO_gap": 0.17062, 
			 "cosmo_polarized_energy": -20.1, 
			 "cosmo_cavitation_energy": 40.71, 
			 "cosmo_dispersion_energy": -29.09, 
			 "cosmo_repulsion_energy": 2.16, 
			 "cosmo_total_nonelectrostatic_energy": 13.78, 
			 "SMD_solvation_energy": 7.86 
		},
		"coords": [
			{
				"x": -0.6152436117,
				"y": -2.3795749683,
				"z": -5.938344284,
				"element": "C" 
			},
			{
				"x": -0.872058298,
				"y": -1.6729537062,
				"z": -4.6290529885,
				"element": "C" 
			},
			{
				"x": 0.0718301713,
				"y": -1.7036661616,
				"z": -3.5924984986,
				"element": "C" 
			},
			{
				"x": -0.1727603828,
				"y": -1.0749967201,
				"z": -2.3767766467,
				"element": "C" 
			},
			{
				"x": -1.3771266038,
				"y": -0.3842563662,
				"z": -2.151958462,
				"element": "C" 
			},
			{
				"x": -2.3227792458,
				"y": -0.3472399934,
				"z": -3.18724819,
				"element": "C" 
			},
			{
				"x": -2.068028048,
				"y": -0.9817499808,
				"z": -4.4011851317,
				"element": "C" 
			},
			{
				"x": -1.6076396131,
				"y": 0.2397558882,
				"z": -0.8341774666,
				"element": "C" 
			},
			{
				"x": -0.8881391086,
				"y": -0.1865325028,
				"z": 0.2065903988,
				"element": "N" 
			},
			{
				"x": -1.2876409698,
				"y": 0.5437150342,
				"z": 1.277453451,
				"element": "N" 
			},
			{
				"x": -2.2740155571,
				"y": 1.4126832835,
				"z": 0.9496905416,
				"element": "C" 
			},
			{
				"x": -2.5238639907,
				"y": 1.2635705596,
				"z": -0.4070667813,
				"element": "C" 
			},
			{
				"x": -3.4634085648,
				"y": 2.1140829932,
				"z": -1.1735907656,
				"element": "C" 
			},
			{
				"x": -4.5171657155,
				"y": 2.6029151482,
				"z": -0.4509127089,
				"element": "O" 
			},
			{
				"x": -3.3466158232,
				"y": 2.4204026123,
				"z": -2.3361147719,
				"element": "O" 
			},
			{
				"x": -0.6929134113,
				"y": 0.3255383479,
				"z": 2.5502794094,
				"element": "C" 
			},
			{
				"x": -0.6990457883,
				"y": 1.3362205445,
				"z": 3.5175671145,
				"element": "C" 
			},
			{
				"x": -0.1334396719,
				"y": 1.1031232523,
				"z": 4.7697029868,
				"element": "C" 
			},
			{
				"x": 0.4474212933,
				"y": -0.1334439223,
				"z": 5.0268325248,
				"element": "C" 
			},
			{
				"x": 1.0004765719,
				"y": -0.3579867556,
				"z": 6.2344277565,
				"element": "F" 
			},
			{
				"x": 0.4787788411,
				"y": -1.1417045822,
				"z": 4.0688284657,
				"element": "C" 
			},
			{
				"x": -0.099087962,
				"y": -0.9119139209,
				"z": 2.8234543131,
				"element": "C" 
			},
			{
				"x": 0.4514437303,
				"y": -2.396008589,
				"z": -6.1821980623,
				"element": "H" 
			},
			{
				"x": -0.9549008599,
				"y": -3.4225597072,
				"z": -5.898700848,
				"element": "H" 
			},
			{
				"x": -1.1454796821,
				"y": -1.8969864169,
				"z": -6.7647658041,
				"element": "H" 
			},
			{
				"x": 1.0154639772,
				"y": -2.2226407857,
				"z": -3.743316152,
				"element": "H" 
			},
			{
				"x": 0.5707429425,
				"y": -1.106123119,
				"z": -1.5879711091,
				"element": "H" 
			},
			{
				"x": -3.2528518238,
				"y": 0.1900536677,
				"z": -3.0587011547,
				"element": "H" 
			},
			{
				"x": -2.8159585406,
				"y": -0.9336120423,
				"z": -5.1887276609,
				"element": "H" 
			},
			{
				"x": -2.7051538684,
				"y": 2.0852305034,
				"z": 1.6761355617,
				"element": "H" 
			},
			{
				"x": -4.5995049394,
				"y": 2.1119396347,
				"z": 0.3783429563,
				"element": "H" 
			},
			{
				"x": -1.1183462451,
				"y": 2.3116061008,
				"z": 3.2957171164,
				"element": "H" 
			},
			{
				"x": -0.1234965049,
				"y": 1.8712900229,
				"z": 5.534732262,
				"element": "H" 
			},
			{
				"x": 0.9446281607,
				"y": -2.0918295259,
				"z": 4.3055726824,
				"element": "H" 
			},
			{
				"x": -0.0949208577,
				"y": -1.674947827,
				"z": 2.0551799461,
				"element": "H" 
			}
		],
		 "valence_orbital": [ 
			{
				"type": "occ",
				"energy": -0.27994,
				"method": "rhf"
			},
			{
				"type": "occ",
				"energy": -0.27395,
				"method": "rhf"
			},
			{
				"type": "occ",
				"energy": -0.25015,
				"method": "rhf"
			},
			{
				"type": "occ",
				"energy": -0.24349,
				"method": "rhf"
			},
			{
				"type": "occ",
				"energy": -0.21844,
				"method": "rhf"
			},
			{
				"type": "unocc",
				"energy": -0.04782,
				"method": "rhf"
			},
			{
				"type": "unocc",
				"energy": -0.0364,
				"method": "rhf"
			},
			{
				"type": "unocc",
				"energy": -0.02958,
				"method": "rhf"
			},
			{
				"type": "unocc",
				"energy": 0.00323,
				"method": "rhf"
			},
			{
				"type": "unocc",
				"energy": 0.00805,
				"method": "rhf"
			}
		],
		"cosmo_sigma_profile": { 
			"-0.025": 0.0,
			"-0.024": 0.0,
			"-0.023": 0.0,
			"-0.022": 0.0,
			"-0.021": 0.0,
			"-0.02": 0.0,
			"-0.019": 0.223644477251,
			"-0.018": 1.40621776357,
			"-0.017": 0.685746839476,
			"-0.016": 1.311129711,
			"-0.015": 1.18094616434,
			"-0.014": 0.62991426009,
			"-0.013": 1.42954363595,
			"-0.012": 2.54510870024,
			"-0.011": 2.75678260814,
			"-0.01": 2.96875716441,
			"-0.009": 2.67213865678,
			"-0.008": 4.96253633644,
			"-0.007": 6.69493138515,
			"-0.006": 10.0768431114,
			"-0.005": 16.1052760751,
			"-0.004": 22.4623389279,
			"-0.003": 21.3014947036,
			"-0.002": 18.4887473586,
			"-0.001": 25.2320176717,
			"0.0": 31.2498391219,
			"0.001": 24.7709657802,
			"0.002": 28.7278713941,
			"0.003": 21.6923087452,
			"0.004": 21.5940965493,
			"0.005": 15.5339548406,
			"0.006": 10.4195709411,
			"0.007": 5.59205407314,
			"0.008": 4.57979962247,
			"0.009": 4.18480591079,
			"0.01": 4.48205968161,
			"0.011": 5.75047634631,
			"0.012": 4.08810449947,
			"0.013": 1.38031478196,
			"0.014": 0.0172776746948,
			"0.015": 0.0,
			"0.016": 0.0,
			"0.017": 0.0,
			"0.018": 0.0,
			"0.019": 0.0,
			"0.02": 0.0,
			"0.021": 0.0,
			"0.022": 0.0,
			"0.023": 0.0,
			"0.024": 0.0,
			"0.025": 0.0
		}
	}
}
