{
	 "smiles": "OC1=NC=C(Cl)C=C1", 
	 "Tm": 437.15, 
	 "num_atms": 12, 
	 "gaussian": { 
		 "optdone": 1, 
		 "sigma_profile": "yes", 
		 "theory": "DFT", 
		 "functional": "B3LYP", 
		 "basiset": "6-31G**", 
		 "properties": { 
			 "R2extent": 2560.1441, 
			 "electric_dipole_moment_norm": 0.956748425658, 
			 "electric_quadrupole_moment_norm": 5.27614326947, 
			 "total_energy": -783.109794555, 
			 "HOMO_LUMO_gap": 0.20069, 
			 "cosmo_polarized_energy": -6.52, 
			 "cosmo_cavitation_energy": 18.3, 
			 "cosmo_dispersion_energy": -14.08, 
			 "cosmo_repulsion_energy": 1.17, 
			 "cosmo_total_nonelectrostatic_energy": 5.39, 
			 "SMD_solvation_energy": 2.13 
		},
		"coords": [
			{
				"x": -0.4981541505,
				"y": -2.0203481606,
				"z": -2.1688354506,
				"element": "O" 
			},
			{
				"x": -0.0686574289,
				"y": -0.7399752674,
				"z": -2.1527001775,
				"element": "C" 
			},
			{
				"x": 1.2415154793,
				"y": -0.5314514015,
				"z": -2.0511690811,
				"element": "N" 
			},
			{
				"x": 1.6822336501,
				"y": 0.7331834289,
				"z": -2.0338993333,
				"element": "C" 
			},
			{
				"x": 0.8213263795,
				"y": 1.8227931411,
				"z": -2.1179584484,
				"element": "C" 
			},
			{
				"x": 1.4607075217,
				"y": 3.4552748146,
				"z": -2.0901077151,
				"element": "Cl" 
			},
			{
				"x": -0.5553290065,
				"y": 1.5980926093,
				"z": -2.2245727966,
				"element": "C" 
			},
			{
				"x": -1.0174450335,
				"y": 0.2907697458,
				"z": -2.2429462857,
				"element": "C" 
			},
			{
				"x": 0.296768212,
				"y": -2.5724344887,
				"z": -2.0976203973,
				"element": "H" 
			},
			{
				"x": 2.7556719494,
				"y": 0.8813603693,
				"z": -1.9504061982,
				"element": "H" 
			},
			{
				"x": -1.2435347168,
				"y": 2.4338399322,
				"z": -2.2912824374,
				"element": "H" 
			},
			{
				"x": -2.0721028559,
				"y": 0.0550952771,
				"z": -2.3237016787,
				"element": "H" 
			}
		],
		 "valence_orbital": [ 
			{
				"type": "occ",
				"energy": -0.33055,
				"method": "rhf"
			},
			{
				"type": "occ",
				"energy": -0.32514,
				"method": "rhf"
			},
			{
				"type": "occ",
				"energy": -0.29763,
				"method": "rhf"
			},
			{
				"type": "occ",
				"energy": -0.28254,
				"method": "rhf"
			},
			{
				"type": "occ",
				"energy": -0.23813,
				"method": "rhf"
			},
			{
				"type": "unocc",
				"energy": -0.03744,
				"method": "rhf"
			},
			{
				"type": "unocc",
				"energy": -0.01051,
				"method": "rhf"
			},
			{
				"type": "unocc",
				"energy": 0.02547,
				"method": "rhf"
			},
			{
				"type": "unocc",
				"energy": 0.08399,
				"method": "rhf"
			},
			{
				"type": "unocc",
				"energy": 0.11843,
				"method": "rhf"
			}
		],
		"cosmo_sigma_profile": { 
			"-0.025": 0.0,
			"-0.024": 0.0,
			"-0.023": 0.0,
			"-0.022": 0.0,
			"-0.021": 0.0,
			"-0.02": 0.0,
			"-0.019": 0.0,
			"-0.018": 0.0,
			"-0.017": 0.765455748441,
			"-0.016": 0.57524800947,
			"-0.015": 0.926572228766,
			"-0.014": 0.837135644394,
			"-0.013": 0.774994685794,
			"-0.012": 0.44378986807,
			"-0.011": 0.338832696648,
			"-0.01": 0.650279135284,
			"-0.009": 1.45812611264,
			"-0.008": 4.34610392759,
			"-0.007": 5.84214205734,
			"-0.006": 5.68471189703,
			"-0.005": 6.32161716922,
			"-0.004": 5.39769515315,
			"-0.003": 5.5438539195,
			"-0.002": 7.07041880665,
			"-0.001": 9.73160849277,
			"0.0": 16.5035241914,
			"0.001": 20.1612765768,
			"0.002": 11.9243436879,
			"0.003": 10.4841276907,
			"0.004": 11.9872126163,
			"0.005": 6.4651023616,
			"0.006": 2.66421626313,
			"0.007": 2.46682764812,
			"0.008": 2.45840625274,
			"0.009": 2.24396495394,
			"0.01": 2.45047689359,
			"0.011": 1.53595191882,
			"0.012": 0.648621765359,
			"0.013": 0.666352792856,
			"0.014": 0.00672105704621,
			"0.015": 0.0,
			"0.016": 0.0,
			"0.017": 0.0,
			"0.018": 0.0,
			"0.019": 0.0,
			"0.02": 0.0,
			"0.021": 0.0,
			"0.022": 0.0,
			"0.023": 0.0,
			"0.024": 0.0,
			"0.025": 0.0
		}
	}
}
