{
	 "smiles": "NNC(=O)C1=CC(N)=CC=C1", 
	 "Tm": 365.15, 
	 "num_atms": 20, 
	 "gaussian": { 
		 "optdone": 1, 
		 "sigma_profile": "yes", 
		 "theory": "DFT", 
		 "functional": "B3LYP", 
		 "basiset": "6-31G**", 
		 "properties": { 
			 "R2extent": 2282.2686, 
			 "electric_dipole_moment_norm": 4.48044161328, 
			 "electric_quadrupole_moment_norm": 10.7169720229, 
			 "total_energy": -511.625000637, 
			 "HOMO_LUMO_gap": 0.17907, 
			 "cosmo_polarized_energy": -17.75, 
			 "cosmo_cavitation_energy": 24.13, 
			 "cosmo_dispersion_energy": -17.76, 
			 "cosmo_repulsion_energy": 1.45, 
			 "cosmo_total_nonelectrostatic_energy": 7.82, 
			 "SMD_solvation_energy": 5.2 
		},
		"coords": [
			{
				"x": 1.8691556272,
				"y": 1.5868471653,
				"z": 3.3952236868,
				"element": "N" 
			},
			{
				"x": 2.7219390014,
				"y": 0.7054867642,
				"z": 2.6908092893,
				"element": "N" 
			},
			{
				"x": 2.348253783,
				"y": -0.1364392432,
				"z": 1.6581239928,
				"element": "C" 
			},
			{
				"x": 2.9685350755,
				"y": -1.1752809828,
				"z": 1.4607045105,
				"element": "O" 
			},
			{
				"x": 1.1872854866,
				"y": 0.2678428171,
				"z": 0.79288625,
				"element": "C" 
			},
			{
				"x": 0.3815096087,
				"y": -0.7632431754,
				"z": 0.3033008024,
				"element": "C" 
			},
			{
				"x": -0.7007450022,
				"y": -0.4923065946,
				"z": -0.5482222014,
				"element": "C" 
			},
			{
				"x": -1.4751271731,
				"y": -1.5278948041,
				"z": -1.0645275082,
				"element": "N" 
			},
			{
				"x": -0.9450207945,
				"y": 0.8429918589,
				"z": -0.9187424484,
				"element": "C" 
			},
			{
				"x": -0.1219966464,
				"y": 1.8653822853,
				"z": -0.4538893622,
				"element": "C" 
			},
			{
				"x": 0.9416091648,
				"y": 1.5942282961,
				"z": 0.4071713169,
				"element": "C" 
			},
			{
				"x": 0.9198614065,
				"y": 1.2205346781,
				"z": 3.4036895707,
				"element": "H" 
			},
			{
				"x": 1.8448510251,
				"y": 2.4845375193,
				"z": 2.9208002793,
				"element": "H" 
			},
			{
				"x": 3.4394176294,
				"y": 0.2936661287,
				"z": 3.2762243357,
				"element": "H" 
			},
			{
				"x": 0.6209706322,
				"y": -1.7852786218,
				"z": 0.5818369409,
				"element": "H" 
			},
			{
				"x": -1.4580784574,
				"y": -2.3915960452,
				"z": -0.5413390348,
				"element": "H" 
			},
			{
				"x": -2.4050658128,
				"y": -1.275398975,
				"z": -1.3669139557,
				"element": "H" 
			},
			{
				"x": -1.7723789296,
				"y": 1.0706313198,
				"z": -1.5864303058,
				"element": "H" 
			},
			{
				"x": -0.3130345285,
				"y": 2.8868184809,
				"z": -0.7708756312,
				"element": "H" 
			},
			{
				"x": 1.595658904,
				"y": 2.3956711283,
				"z": 0.7326694724,
				"element": "H" 
			}
		],
		 "valence_orbital": [ 
			{
				"type": "occ",
				"energy": -0.29106,
				"method": "rhf"
			},
			{
				"type": "occ",
				"energy": -0.26011,
				"method": "rhf"
			},
			{
				"type": "occ",
				"energy": -0.24944,
				"method": "rhf"
			},
			{
				"type": "occ",
				"energy": -0.23838,
				"method": "rhf"
			},
			{
				"type": "occ",
				"energy": -0.21006,
				"method": "rhf"
			},
			{
				"type": "unocc",
				"energy": -0.03099,
				"method": "rhf"
			},
			{
				"type": "unocc",
				"energy": 0.00529,
				"method": "rhf"
			},
			{
				"type": "unocc",
				"energy": 0.05314,
				"method": "rhf"
			},
			{
				"type": "unocc",
				"energy": 0.06979,
				"method": "rhf"
			},
			{
				"type": "unocc",
				"energy": 0.08165,
				"method": "rhf"
			}
		],
		"cosmo_sigma_profile": { 
			"-0.025": 0.0,
			"-0.024": 0.0,
			"-0.023": 0.0,
			"-0.022": 0.0,
			"-0.021": 0.0,
			"-0.02": 0.0,
			"-0.019": 0.0,
			"-0.018": 0.0,
			"-0.017": 0.0,
			"-0.016": 0.0,
			"-0.015": 0.0,
			"-0.014": 0.00761336831264,
			"-0.013": 1.26720583026,
			"-0.012": 4.57399823498,
			"-0.011": 5.68026544439,
			"-0.01": 6.72287076033,
			"-0.009": 6.99043613698,
			"-0.008": 6.45232652775,
			"-0.007": 7.28320306099,
			"-0.006": 8.73635523794,
			"-0.005": 9.15345302404,
			"-0.004": 10.072096237,
			"-0.003": 9.12274999405,
			"-0.002": 8.19665894688,
			"-0.001": 9.42162634909,
			"0.0": 7.54023967227,
			"0.001": 8.85983975611,
			"0.002": 8.96354422247,
			"0.003": 9.28925318272,
			"0.004": 10.040171919,
			"0.005": 13.3136030243,
			"0.006": 7.82456547487,
			"0.007": 3.474425125,
			"0.008": 3.23809413296,
			"0.009": 3.13197630158,
			"0.01": 2.88227539453,
			"0.011": 2.66913349089,
			"0.012": 3.54022757207,
			"0.013": 6.00804389719,
			"0.014": 4.98243365543,
			"0.015": 0.735992130358,
			"0.016": 0.437918545682,
			"0.017": 0.0393842486626,
			"0.018": 0.0,
			"0.019": 0.0,
			"0.02": 0.0,
			"0.021": 0.0,
			"0.022": 0.0,
			"0.023": 0.0,
			"0.024": 0.0,
			"0.025": 0.0
		}
	}
}
