{
	 "smiles": "CC(C)C1=C(OC2=C(C=C(C=O)C=C2)[N+]([O-])=O)C=C(C)C=C1", 
	 "Tm": 383.15, 
	 "num_atms": 39, 
	 "gaussian": { 
		 "optdone": 1, 
		 "sigma_profile": "yes", 
		 "theory": "DFT", 
		 "functional": "B3LYP", 
		 "basiset": "6-31G**", 
		 "properties": { 
			 "R2extent": 8041.4602, 
			 "electric_dipole_moment_norm": 4.31444723342, 
			 "electric_quadrupole_moment_norm": 16.612914148, 
			 "total_energy": -1013.5955128, 
			 "HOMO_LUMO_gap": 0.15293, 
			 "cosmo_polarized_energy": -13.73, 
			 "cosmo_cavitation_energy": 43.09, 
			 "cosmo_dispersion_energy": -28.84, 
			 "cosmo_repulsion_energy": 2.22, 
			 "cosmo_total_nonelectrostatic_energy": 16.46, 
			 "SMD_solvation_energy": 10.74 
		},
		"coords": [
			{
				"x": 2.1045618943,
				"y": 0.766212357,
				"z": -1.4170670833,
				"element": "C" 
			},
			{
				"x": 0.8977156201,
				"y": 0.2021374029,
				"z": -2.1916400875,
				"element": "C" 
			},
			{
				"x": 0.0154418278,
				"y": 1.3322207665,
				"z": -2.75906578,
				"element": "C" 
			},
			{
				"x": 0.0955177546,
				"y": -0.8182657707,
				"z": -1.39205671,
				"element": "C" 
			},
			{
				"x": -0.5946498531,
				"y": -0.5299005346,
				"z": -0.2066181631,
				"element": "C" 
			},
			{
				"x": -0.6093910783,
				"y": 0.7946624532,
				"z": 0.2541690054,
				"element": "O" 
			},
			{
				"x": -0.1447487564,
				"y": 1.1104816757,
				"z": 1.4810023809,
				"element": "C" 
			},
			{
				"x": -0.4970912632,
				"y": 2.3570983214,
				"z": 2.0499513872,
				"element": "C" 
			},
			{
				"x": -0.051191502,
				"y": 2.7103667007,
				"z": 3.321538486,
				"element": "C" 
			},
			{
				"x": 0.7779045104,
				"y": 1.8559355879,
				"z": 4.0449232005,
				"element": "C" 
			},
			{
				"x": 1.2615880311,
				"y": 2.2428369442,
				"z": 5.3871721828,
				"element": "C" 
			},
			{
				"x": 1.9841484968,
				"y": 1.5503681316,
				"z": 6.0785405812,
				"element": "O" 
			},
			{
				"x": 1.1481756403,
				"y": 0.6237351375,
				"z": 3.4779622834,
				"element": "C" 
			},
			{
				"x": 0.6909299136,
				"y": 0.2537168898,
				"z": 2.2256856446,
				"element": "C" 
			},
			{
				"x": -1.3414733568,
				"y": 3.3326900267,
				"z": 1.3483261892,
				"element": "N" 
			},
			{
				"x": -1.3583501816,
				"y": 3.321116121,
				"z": 0.120409918,
				"element": "O" 
			},
			{
				"x": -1.9686738808,
				"y": 4.128729564,
				"z": 2.0505088709,
				"element": "O" 
			},
			{
				"x": -1.3595430454,
				"y": -1.4798370247,
				"z": 0.4707313305,
				"element": "C" 
			},
			{
				"x": -1.4461196387,
				"y": -2.7932550727,
				"z": 0.0005502292,
				"element": "C" 
			},
			{
				"x": -2.24729462,
				"y": -3.8344305604,
				"z": 0.7454434462,
				"element": "C" 
			},
			{
				"x": -0.7544967433,
				"y": -3.1085106012,
				"z": -1.1757127698,
				"element": "C" 
			},
			{
				"x": -0.0109467201,
				"y": -2.1414313237,
				"z": -1.8481363985,
				"element": "C" 
			},
			{
				"x": 2.7207828086,
				"y": 1.3809637924,
				"z": -2.0817505205,
				"element": "H" 
			},
			{
				"x": 1.7897528403,
				"y": 1.3996930546,
				"z": -0.583820409,
				"element": "H" 
			},
			{
				"x": 2.7353795103,
				"y": -0.0360576944,
				"z": -1.0203748558,
				"element": "H" 
			},
			{
				"x": 1.3035122833,
				"y": -0.3528763426,
				"z": -3.0474735405,
				"element": "H" 
			},
			{
				"x": 0.6106455433,
				"y": 1.9770488642,
				"z": -3.4150074033,
				"element": "H" 
			},
			{
				"x": -0.8120459898,
				"y": 0.9250076463,
				"z": -3.3487470782,
				"element": "H" 
			},
			{
				"x": -0.4038550461,
				"y": 1.9508482945,
				"z": -1.9622848999,
				"element": "H" 
			},
			{
				"x": -0.3679109428,
				"y": 3.6650916756,
				"z": 3.7275909729,
				"element": "H" 
			},
			{
				"x": 0.9121985416,
				"y": 3.2386710569,
				"z": 5.7375186398,
				"element": "H" 
			},
			{
				"x": 1.8018895774,
				"y": -0.0302511942,
				"z": 4.0465015637,
				"element": "H" 
			},
			{
				"x": 0.9700962691,
				"y": -0.7005227276,
				"z": 1.7962576603,
				"element": "H" 
			},
			{
				"x": -1.8965906421,
				"y": -1.180857658,
				"z": 1.3663793089,
				"element": "H" 
			},
			{
				"x": -3.0391807147,
				"y": -3.3777458142,
				"z": 1.3459541625,
				"element": "H" 
			},
			{
				"x": -1.6104400615,
				"y": -4.4113264472,
				"z": 1.427611043,
				"element": "H" 
			},
			{
				"x": -2.7119760093,
				"y": -4.5462998299,
				"z": 0.0567108755,
				"element": "H" 
			},
			{
				"x": -0.8061864749,
				"y": -4.1179869796,
				"z": -1.5751028393,
				"element": "H" 
			},
			{
				"x": 0.5045154584,
				"y": -2.4126768889,
				"z": -2.7658808236,
				"element": "H" 
			}
		],
		 "valence_orbital": [ 
			{
				"type": "occ",
				"energy": -0.28468,
				"method": "rhf"
			},
			{
				"type": "occ",
				"energy": -0.27205,
				"method": "rhf"
			},
			{
				"type": "occ",
				"energy": -0.26599,
				"method": "rhf"
			},
			{
				"type": "occ",
				"energy": -0.25352,
				"method": "rhf"
			},
			{
				"type": "occ",
				"energy": -0.2438,
				"method": "rhf"
			},
			{
				"type": "unocc",
				"energy": -0.09087,
				"method": "rhf"
			},
			{
				"type": "unocc",
				"energy": -0.07184,
				"method": "rhf"
			},
			{
				"type": "unocc",
				"energy": -0.0261,
				"method": "rhf"
			},
			{
				"type": "unocc",
				"energy": -0.01453,
				"method": "rhf"
			},
			{
				"type": "unocc",
				"energy": -0.01142,
				"method": "rhf"
			}
		],
		"cosmo_sigma_profile": { 
			"-0.025": 0.0,
			"-0.024": 0.0,
			"-0.023": 0.0,
			"-0.022": 0.0,
			"-0.021": 0.0,
			"-0.02": 0.0,
			"-0.019": 0.0,
			"-0.018": 0.0,
			"-0.017": 0.0,
			"-0.016": 0.0,
			"-0.015": 0.0,
			"-0.014": 0.0,
			"-0.013": 0.0,
			"-0.012": 0.0,
			"-0.011": 0.0,
			"-0.01": 0.582097709654,
			"-0.009": 2.21584500324,
			"-0.008": 3.6603400529,
			"-0.007": 8.90400103752,
			"-0.006": 12.892546985,
			"-0.005": 17.6065715542,
			"-0.004": 23.8153290902,
			"-0.003": 30.493448255,
			"-0.002": 36.1937299464,
			"-0.001": 40.4804978883,
			"0.0": 37.2586070225,
			"0.001": 28.2720626584,
			"0.002": 19.439085812,
			"0.003": 12.9051902165,
			"0.004": 12.5679700555,
			"0.005": 12.1393241543,
			"0.006": 6.68982426274,
			"0.007": 8.6676214707,
			"0.008": 8.99738962028,
			"0.009": 6.72419197907,
			"0.01": 5.24940083986,
			"0.011": 4.37739002793,
			"0.012": 2.02888657808,
			"0.013": 0.388900658642,
			"0.014": 0.0,
			"0.015": 0.0,
			"0.016": 0.0,
			"0.017": 0.0,
			"0.018": 0.0,
			"0.019": 0.0,
			"0.02": 0.0,
			"0.021": 0.0,
			"0.022": 0.0,
			"0.023": 0.0,
			"0.024": 0.0,
			"0.025": 0.0
		}
	}
}
