{
	 "smiles": "CC1=C(C2=C(C=C1)C(=O)C1=CC=CC=C1C2=O)[N+]([O-])=O", 
	 "Tm": 542.15, 
	 "num_atms": 29, 
	 "gaussian": { 
		 "optdone": 1, 
		 "sigma_profile": "yes", 
		 "theory": "DFT", 
		 "functional": "B3LYP", 
		 "basiset": "6-31G**", 
		 "properties": { 
			 "R2extent": 6153.8206, 
			 "electric_dipole_moment_norm": 3.21959999689, 
			 "electric_quadrupole_moment_norm": 26.7889556331, 
			 "total_energy": -932.576167004, 
			 "HOMO_LUMO_gap": 0.15476, 
			 "cosmo_polarized_energy": -14.35, 
			 "cosmo_cavitation_energy": 34.28, 
			 "cosmo_dispersion_energy": -24.56, 
			 "cosmo_repulsion_energy": 1.79, 
			 "cosmo_total_nonelectrostatic_energy": 11.52, 
			 "SMD_solvation_energy": 8.8 
		},
		"coords": [
			{
				"x": 3.0271973451,
				"y": -1.135499528,
				"z": 1.3661148019,
				"element": "C" 
			},
			{
				"x": 1.9159426093,
				"y": -1.3917232749,
				"z": 0.3803625572,
				"element": "C" 
			},
			{
				"x": 0.957853209,
				"y": -0.4112632083,
				"z": 0.0912431553,
				"element": "C" 
			},
			{
				"x": -0.0889186015,
				"y": -0.6083695433,
				"z": -0.8167673929,
				"element": "C" 
			},
			{
				"x": -0.1729624634,
				"y": -1.8577695878,
				"z": -1.4654620169,
				"element": "C" 
			},
			{
				"x": 0.7695291881,
				"y": -2.8522449891,
				"z": -1.1948418301,
				"element": "C" 
			},
			{
				"x": 1.7952257285,
				"y": -2.6186494842,
				"z": -0.2863663155,
				"element": "C" 
			},
			{
				"x": -1.2577217746,
				"y": -2.1544125382,
				"z": -2.4497163147,
				"element": "C" 
			},
			{
				"x": -1.3187482408,
				"y": -3.2453440691,
				"z": -3.0057803269,
				"element": "O" 
			},
			{
				"x": -2.2519282565,
				"y": -1.0831129118,
				"z": -2.7248415146,
				"element": "C" 
			},
			{
				"x": -3.2816577596,
				"y": -1.3263931502,
				"z": -3.6412114633,
				"element": "C" 
			},
			{
				"x": -4.2220758179,
				"y": -0.3360902273,
				"z": -3.9124353271,
				"element": "C" 
			},
			{
				"x": -4.1406601646,
				"y": 0.9052561366,
				"z": -3.269831989,
				"element": "C" 
			},
			{
				"x": -3.119469107,
				"y": 1.1554112715,
				"z": -2.3568697478,
				"element": "C" 
			},
			{
				"x": -2.1698391275,
				"y": 0.165025207,
				"z": -2.0784024824,
				"element": "C" 
			},
			{
				"x": -1.0906728773,
				"y": 0.4660469981,
				"z": -1.0961687062,
				"element": "C" 
			},
			{
				"x": -1.0242354622,
				"y": 1.5534029828,
				"z": -0.5380869537,
				"element": "O" 
			},
			{
				"x": 1.1163772468,
				"y": 0.8732927766,
				"z": 0.8147678977,
				"element": "N" 
			},
			{
				"x": 1.84722325,
				"y": 1.7091267858,
				"z": 0.2970699222,
				"element": "O" 
			},
			{
				"x": 0.5847466943,
				"y": 0.9532950017,
				"z": 1.9155456229,
				"element": "O" 
			},
			{
				"x": 2.6232667675,
				"y": -0.8937556122,
				"z": 2.3547012879,
				"element": "H" 
			},
			{
				"x": 3.6398533224,
				"y": -0.284732924,
				"z": 1.0503009678,
				"element": "H" 
			},
			{
				"x": 3.6719391681,
				"y": -2.0112088495,
				"z": 1.4597500195,
				"element": "H" 
			},
			{
				"x": 0.6751576264,
				"y": -3.8012123011,
				"z": -1.7112676685,
				"element": "H" 
			},
			{
				"x": 2.523973351,
				"y": -3.3976566228,
				"z": -0.0819009293,
				"element": "H" 
			},
			{
				"x": -3.3213143796,
				"y": -2.2965631492,
				"z": -4.1248024402,
				"element": "H" 
			},
			{
				"x": -5.0198808456,
				"y": -0.5275519288,
				"z": -4.6238514252,
				"element": "H" 
			},
			{
				"x": -4.8753530892,
				"y": 1.6759119432,
				"z": -3.4831744192,
				"element": "H" 
			},
			{
				"x": -3.0348475391,
				"y": 2.1085847963,
				"z": -1.846176969,
				"element": "H" 
			}
		],
		 "valence_orbital": [ 
			{
				"type": "occ",
				"energy": -0.27999,
				"method": "rhf"
			},
			{
				"type": "occ",
				"energy": -0.27742,
				"method": "rhf"
			},
			{
				"type": "occ",
				"energy": -0.27602,
				"method": "rhf"
			},
			{
				"type": "occ",
				"energy": -0.26946,
				"method": "rhf"
			},
			{
				"type": "occ",
				"energy": -0.26922,
				"method": "rhf"
			},
			{
				"type": "unocc",
				"energy": -0.11446,
				"method": "rhf"
			},
			{
				"type": "unocc",
				"energy": -0.07216,
				"method": "rhf"
			},
			{
				"type": "unocc",
				"energy": -0.06903,
				"method": "rhf"
			},
			{
				"type": "unocc",
				"energy": -0.03576,
				"method": "rhf"
			},
			{
				"type": "unocc",
				"energy": -0.02668,
				"method": "rhf"
			}
		],
		"cosmo_sigma_profile": { 
			"-0.025": 0.0,
			"-0.024": 0.0,
			"-0.023": 0.0,
			"-0.022": 0.0,
			"-0.021": 0.0,
			"-0.02": 0.0,
			"-0.019": 0.0,
			"-0.018": 0.0,
			"-0.017": 0.0,
			"-0.016": 0.0,
			"-0.015": 0.0,
			"-0.014": 0.0,
			"-0.013": 0.0,
			"-0.012": 0.0,
			"-0.011": 0.0,
			"-0.01": 0.0,
			"-0.009": 0.0874516500962,
			"-0.008": 4.33892215505,
			"-0.007": 12.5369114205,
			"-0.006": 17.785494527,
			"-0.005": 17.9515376873,
			"-0.004": 20.9273270863,
			"-0.003": 19.5808823069,
			"-0.002": 25.5143794118,
			"-0.001": 26.1570545169,
			"0.0": 24.5841309053,
			"0.001": 21.3872068553,
			"0.002": 14.4956927209,
			"0.003": 6.88595363645,
			"0.004": 5.06498503766,
			"0.005": 5.28912489122,
			"0.006": 9.06732170934,
			"0.007": 18.0223251446,
			"0.008": 10.7125291531,
			"0.009": 7.0436357032,
			"0.01": 5.46316146493,
			"0.011": 3.50244826246,
			"0.012": 0.0370912767209,
			"0.013": 0.0,
			"0.014": 0.0,
			"0.015": 0.0,
			"0.016": 0.0,
			"0.017": 0.0,
			"0.018": 0.0,
			"0.019": 0.0,
			"0.02": 0.0,
			"0.021": 0.0,
			"0.022": 0.0,
			"0.023": 0.0,
			"0.024": 0.0,
			"0.025": 0.0
		}
	}
}
