{
	 "smiles": "O=C=NC1=CC(=CC=C1)N1C=CC=C1", 
	 "Tm": 319.65, 
	 "num_atms": 22, 
	 "gaussian": { 
		 "optdone": 1, 
		 "sigma_profile": "yes", 
		 "theory": "DFT", 
		 "functional": "B3LYP", 
		 "basiset": "6-31G**", 
		 "properties": { 
			 "R2extent": 4353.1103, 
			 "electric_dipole_moment_norm": 1.90069686431, 
			 "electric_quadrupole_moment_norm": 13.4159801725, 
			 "total_energy": -608.702728982, 
			 "HOMO_LUMO_gap": 0.1821, 
			 "cosmo_polarized_energy": -7.4, 
			 "cosmo_cavitation_energy": 27.91, 
			 "cosmo_dispersion_energy": -20.04, 
			 "cosmo_repulsion_energy": 1.55, 
			 "cosmo_total_nonelectrostatic_energy": 9.42, 
			 "SMD_solvation_energy": 7.76 
		},
		"coords": [
			{
				"x": -4.0033777542,
				"y": -2.9692343089,
				"z": 2.9576923749,
				"element": "O" 
			},
			{
				"x": -3.3654393954,
				"y": -2.3081550338,
				"z": 2.2203011724,
				"element": "C" 
			},
			{
				"x": -2.6044684154,
				"y": -1.6346094901,
				"z": 1.5631766277,
				"element": "N" 
			},
			{
				"x": -2.5523251483,
				"y": -0.980107924,
				"z": 0.3291838315,
				"element": "C" 
			},
			{
				"x": -1.3810573746,
				"y": -0.2861775318,
				"z": 0.0119946037,
				"element": "C" 
			},
			{
				"x": -1.2765468048,
				"y": 0.3827096397,
				"z": -1.2122298027,
				"element": "C" 
			},
			{
				"x": -2.3513142776,
				"y": 0.3655941423,
				"z": -2.1113985252,
				"element": "C" 
			},
			{
				"x": -3.5213590853,
				"y": -0.3127202523,
				"z": -1.7732706646,
				"element": "C" 
			},
			{
				"x": -3.634564591,
				"y": -0.9923475833,
				"z": -0.5630996603,
				"element": "C" 
			},
			{
				"x": -0.0860714308,
				"y": 1.0736580474,
				"z": -1.5366046476,
				"element": "N" 
			},
			{
				"x": 1.1969553413,
				"y": 0.6937018741,
				"z": -1.1740508816,
				"element": "C" 
			},
			{
				"x": 2.0798854394,
				"y": 1.6171629856,
				"z": -1.6794273078,
				"element": "C" 
			},
			{
				"x": 1.3165398086,
				"y": 2.6049564228,
				"z": -2.370396724,
				"element": "C" 
			},
			{
				"x": -0.0060817607,
				"y": 2.2460913666,
				"z": -2.2721174207,
				"element": "C" 
			},
			{
				"x": -0.5729112312,
				"y": -0.2541025275,
				"z": 0.7325925616,
				"element": "H" 
			},
			{
				"x": -2.2584316636,
				"y": 0.856025864,
				"z": -3.0737001445,
				"element": "H" 
			},
			{
				"x": -4.3518887905,
				"y": -0.3255275265,
				"z": -2.4725548214,
				"element": "H" 
			},
			{
				"x": -4.5432958056,
				"y": -1.5273894247,
				"z": -0.3067126,
				"element": "H" 
			},
			{
				"x": 1.3660811735,
				"y": -0.2252903456,
				"z": -0.6345414697,
				"element": "H" 
			},
			{
				"x": 3.1552623081,
				"y": 1.5827279916,
				"z": -1.5752778628,
				"element": "H" 
			},
			{
				"x": 1.6947830337,
				"y": 3.4845209477,
				"z": -2.8721829018,
				"element": "H" 
			},
			{
				"x": -0.9011735757,
				"y": 2.7434126664,
				"z": -2.6121757369,
				"element": "H" 
			}
		],
		 "valence_orbital": [ 
			{
				"type": "occ",
				"energy": -0.31373,
				"method": "rhf"
			},
			{
				"type": "occ",
				"energy": -0.28394,
				"method": "rhf"
			},
			{
				"type": "occ",
				"energy": -0.24836,
				"method": "rhf"
			},
			{
				"type": "occ",
				"energy": -0.22536,
				"method": "rhf"
			},
			{
				"type": "occ",
				"energy": -0.21503,
				"method": "rhf"
			},
			{
				"type": "unocc",
				"energy": -0.03293,
				"method": "rhf"
			},
			{
				"type": "unocc",
				"energy": -0.02371,
				"method": "rhf"
			},
			{
				"type": "unocc",
				"energy": 0.00639,
				"method": "rhf"
			},
			{
				"type": "unocc",
				"energy": 0.03739,
				"method": "rhf"
			},
			{
				"type": "unocc",
				"energy": 0.0773,
				"method": "rhf"
			}
		],
		"cosmo_sigma_profile": { 
			"-0.025": 0.0,
			"-0.024": 0.0,
			"-0.023": 0.0,
			"-0.022": 0.0,
			"-0.021": 0.0,
			"-0.02": 0.0,
			"-0.019": 0.0,
			"-0.018": 0.0,
			"-0.017": 0.0,
			"-0.016": 0.0,
			"-0.015": 0.0,
			"-0.014": 0.0,
			"-0.013": 0.0,
			"-0.012": 0.0,
			"-0.011": 0.0,
			"-0.01": 0.0,
			"-0.009": 0.0020689875379,
			"-0.008": 3.7474348954,
			"-0.007": 11.4013268048,
			"-0.006": 12.9846407674,
			"-0.005": 15.1051272542,
			"-0.004": 13.5422574788,
			"-0.003": 16.4616438061,
			"-0.002": 14.9847864821,
			"-0.001": 15.6193827272,
			"0.0": 15.4772089097,
			"0.001": 17.2355551901,
			"0.002": 19.2250561336,
			"0.003": 19.8954821915,
			"0.004": 14.5592251977,
			"0.005": 8.04011784612,
			"0.006": 7.9292916965,
			"0.007": 12.9865244206,
			"0.008": 6.65068434166,
			"0.009": 0.402754774948,
			"0.01": 0.0,
			"0.011": 0.0,
			"0.012": 0.0,
			"0.013": 0.0,
			"0.014": 0.0,
			"0.015": 0.0,
			"0.016": 0.0,
			"0.017": 0.0,
			"0.018": 0.0,
			"0.019": 0.0,
			"0.02": 0.0,
			"0.021": 0.0,
			"0.022": 0.0,
			"0.023": 0.0,
			"0.024": 0.0,
			"0.025": 0.0
		}
	}
}
