{
	 "smiles": "CC1=NC=CN1C1=CC=CC(=C1)C(O)=O", 
	 "Tm": 457.15, 
	 "num_atms": 25, 
	 "gaussian": { 
		 "optdone": 1, 
		 "sigma_profile": "yes", 
		 "theory": "DFT", 
		 "functional": "B3LYP", 
		 "basiset": "6-31G**", 
		 "properties": { 
			 "R2extent": 3995.3895, 
			 "electric_dipole_moment_norm": 4.29117281987, 
			 "electric_quadrupole_moment_norm": 8.51717815946, 
			 "total_energy": -685.165112877, 
			 "HOMO_LUMO_gap": 0.15678, 
			 "cosmo_polarized_energy": -15.14, 
			 "cosmo_cavitation_energy": 29.82, 
			 "cosmo_dispersion_energy": -21.4, 
			 "cosmo_repulsion_energy": 1.66, 
			 "cosmo_total_nonelectrostatic_energy": 10.08, 
			 "SMD_solvation_energy": 5.2 
		},
		"coords": [
			{
				"x": -0.3544971399,
				"y": 1.5392929726,
				"z": 3.6878174315,
				"element": "C" 
			},
			{
				"x": -1.6281064414,
				"y": 1.2953529201,
				"z": 2.9420505648,
				"element": "C" 
			},
			{
				"x": -2.825488448,
				"y": 1.6095275455,
				"z": 3.3900200644,
				"element": "N" 
			},
			{
				"x": -3.7105003287,
				"y": 1.2634897335,
				"z": 2.3924692858,
				"element": "C" 
			},
			{
				"x": -3.04655087,
				"y": 0.7430406796,
				"z": 1.3170810619,
				"element": "C" 
			},
			{
				"x": -1.70024384,
				"y": 0.7507592287,
				"z": 1.6678238844,
				"element": "N" 
			},
			{
				"x": -0.6357246457,
				"y": 0.3369715616,
				"z": 0.8214893942,
				"element": "C" 
			},
			{
				"x": 0.3563248764,
				"y": -0.5327319859,
				"z": 1.2940204166,
				"element": "C" 
			},
			{
				"x": 1.3938631577,
				"y": -0.9320945979,
				"z": 0.4517353398,
				"element": "C" 
			},
			{
				"x": 1.4419558602,
				"y": -0.4913978749,
				"z": -0.869685049,
				"element": "C" 
			},
			{
				"x": 0.4409736024,
				"y": 0.3650831901,
				"z": -1.3466001451,
				"element": "C" 
			},
			{
				"x": -0.5905305824,
				"y": 0.7853323213,
				"z": -0.5000689774,
				"element": "C" 
			},
			{
				"x": 0.4293988175,
				"y": 0.8727793258,
				"z": -2.7467275954,
				"element": "C" 
			},
			{
				"x": 1.4771275045,
				"y": 0.4247100699,
				"z": -3.4804915153,
				"element": "O" 
			},
			{
				"x": -0.4178495947,
				"y": 1.6105089674,
				"z": -3.2084237469,
				"element": "O" 
			},
			{
				"x": 0.4277518058,
				"y": 1.9525892064,
				"z": 3.0434057397,
				"element": "H" 
			},
			{
				"x": -0.5682141212,
				"y": 2.251533419,
				"z": 4.4861833134,
				"element": "H" 
			},
			{
				"x": 0.0436805328,
				"y": 0.628758377,
				"z": 4.151056946,
				"element": "H" 
			},
			{
				"x": -4.7756929446,
				"y": 1.4085742617,
				"z": 2.5080546824,
				"element": "H" 
			},
			{
				"x": -3.3778471368,
				"y": 0.3459015164,
				"z": 0.37036863,
				"element": "H" 
			},
			{
				"x": 0.301285038,
				"y": -0.9062731576,
				"z": 2.3104547796,
				"element": "H" 
			},
			{
				"x": 2.1589620711,
				"y": -1.6045821054,
				"z": 0.8270750682,
				"element": "H" 
			},
			{
				"x": 2.240854388,
				"y": -0.8065088448,
				"z": -1.5303698589,
				"element": "H" 
			},
			{
				"x": -1.3413979859,
				"y": 1.4676647338,
				"z": -0.8823042171,
				"element": "H" 
			},
			{
				"x": 1.3678664248,
				"y": 0.8130185361,
				"z": -4.3641354977,
				"element": "H" 
			}
		],
		 "valence_orbital": [ 
			{
				"type": "occ",
				"energy": -0.28744,
				"method": "rhf"
			},
			{
				"type": "occ",
				"energy": -0.27705,
				"method": "rhf"
			},
			{
				"type": "occ",
				"energy": -0.26295,
				"method": "rhf"
			},
			{
				"type": "occ",
				"energy": -0.24979,
				"method": "rhf"
			},
			{
				"type": "occ",
				"energy": -0.21903,
				"method": "rhf"
			},
			{
				"type": "unocc",
				"energy": -0.06225,
				"method": "rhf"
			},
			{
				"type": "unocc",
				"energy": -0.02995,
				"method": "rhf"
			},
			{
				"type": "unocc",
				"energy": 0.02635,
				"method": "rhf"
			},
			{
				"type": "unocc",
				"energy": 0.05031,
				"method": "rhf"
			},
			{
				"type": "unocc",
				"energy": 0.06798,
				"method": "rhf"
			}
		],
		"cosmo_sigma_profile": { 
			"-0.025": 0.0,
			"-0.024": 0.0,
			"-0.023": 0.0,
			"-0.022": 0.0,
			"-0.021": 0.0,
			"-0.02": 0.0,
			"-0.019": 0.196571809818,
			"-0.018": 0.869953633733,
			"-0.017": 0.912510660098,
			"-0.016": 0.990612174178,
			"-0.015": 0.352564376172,
			"-0.014": 0.604192213995,
			"-0.013": 0.646835784128,
			"-0.012": 1.12291606342,
			"-0.011": 0.777201890052,
			"-0.01": 0.817510016639,
			"-0.009": 0.501578618255,
			"-0.008": 3.80825792476,
			"-0.007": 9.22013872998,
			"-0.006": 13.7746272632,
			"-0.005": 15.3992548774,
			"-0.004": 13.5820602287,
			"-0.003": 16.0002084595,
			"-0.002": 19.5929463876,
			"-0.001": 20.6914398664,
			"0.0": 20.1648806749,
			"0.001": 17.204335622,
			"0.002": 17.2581543805,
			"0.003": 11.52969636,
			"0.004": 7.78079348079,
			"0.005": 6.58850464723,
			"0.006": 7.39249255321,
			"0.007": 5.77967528972,
			"0.008": 3.11920917091,
			"0.009": 2.97007790877,
			"0.01": 3.62485541035,
			"0.011": 4.85923606222,
			"0.012": 4.61951114129,
			"0.013": 1.09385187008,
			"0.014": 1.31667827514,
			"0.015": 0.801932981325,
			"0.016": 0.949736872646,
			"0.017": 0.959787686063,
			"0.018": 0.760019359393,
			"0.019": 0.0361627694288,
			"0.02": 0.0,
			"0.021": 0.0,
			"0.022": 0.0,
			"0.023": 0.0,
			"0.024": 0.0,
			"0.025": 0.0
		}
	}
}
