{
	 "smiles": "COC(=O)C1=C(C)NC(=S)NC1C1=CC=CC(=C1)[N+]([O-])=O", 
	 "Tm": 520.15, 
	 "num_atms": 34, 
	 "gaussian": { 
		 "optdone": 1, 
		 "sigma_profile": "yes", 
		 "theory": "DFT", 
		 "functional": "B3LYP", 
		 "basiset": "6-31G**", 
		 "properties": { 
			 "R2extent": 7076.9657, 
			 "electric_dipole_moment_norm": 7.11753140562, 
			 "electric_quadrupole_moment_norm": 23.5891487799, 
			 "total_energy": -1366.47938104, 
			 "HOMO_LUMO_gap": 0.1332, 
			 "cosmo_polarized_energy": -22.74, 
			 "cosmo_cavitation_energy": 40.4, 
			 "cosmo_dispersion_energy": -28.13, 
			 "cosmo_repulsion_energy": 2.13, 
			 "cosmo_total_nonelectrostatic_energy": 14.41, 
			 "SMD_solvation_energy": 8.88 
		},
		"coords": [
			{
				"x": -0.0328369162,
				"y": -4.8173396148,
				"z": -1.8753051369,
				"element": "C" 
			},
			{
				"x": -0.1509422936,
				"y": -3.8385309614,
				"z": -0.8292488093,
				"element": "O" 
			},
			{
				"x": 0.4198925851,
				"y": -2.6387981256,
				"z": -1.0987204535,
				"element": "C" 
			},
			{
				"x": 0.9962794705,
				"y": -2.4158212233,
				"z": -2.1539579035,
				"element": "O" 
			},
			{
				"x": 0.3083334195,
				"y": -1.6472507054,
				"z": -0.0229804213,
				"element": "C" 
			},
			{
				"x": -0.2595058216,
				"y": -1.8423440623,
				"z": 1.2005273285,
				"element": "C" 
			},
			{
				"x": -0.9888328881,
				"y": -3.0691542083,
				"z": 1.6852265233,
				"element": "C" 
			},
			{
				"x": -0.1619518302,
				"y": -0.835967738,
				"z": 2.1489049559,
				"element": "N" 
			},
			{
				"x": 0.6820171588,
				"y": 0.2567039179,
				"z": 2.0663903008,
				"element": "C" 
			},
			{
				"x": 0.9300636625,
				"y": 1.2576286781,
				"z": 3.3821562121,
				"element": "S" 
			},
			{
				"x": 1.2834631711,
				"y": 0.4064708405,
				"z": 0.8681576242,
				"element": "N" 
			},
			{
				"x": 0.9179256307,
				"y": -0.2934138086,
				"z": -0.3677829951,
				"element": "C" 
			},
			{
				"x": 0.0006517981,
				"y": 0.5526622855,
				"z": -1.2600934437,
				"element": "C" 
			},
			{
				"x": 0.215757831,
				"y": 0.5922396368,
				"z": -2.6447465777,
				"element": "C" 
			},
			{
				"x": -0.6160288138,
				"y": 1.3429623421,
				"z": -3.4788772708,
				"element": "C" 
			},
			{
				"x": -1.6789209623,
				"y": 2.06755389,
				"z": -2.9461329639,
				"element": "C" 
			},
			{
				"x": -1.8830388782,
				"y": 2.0156228063,
				"z": -1.5684788449,
				"element": "C" 
			},
			{
				"x": -1.0648464328,
				"y": 1.2774146103,
				"z": -0.7177464948,
				"element": "C" 
			},
			{
				"x": -3.0101067287,
				"y": 2.7682286259,
				"z": -0.9890727191,
				"element": "N" 
			},
			{
				"x": -3.7009375785,
				"y": 3.4389424824,
				"z": -1.7553990108,
				"element": "O" 
			},
			{
				"x": -3.1954674177,
				"y": 2.6767846613,
				"z": 0.2236219857,
				"element": "O" 
			},
			{
				"x": -0.5069129021,
				"y": -4.4606903182,
				"z": -2.7927933738,
				"element": "H" 
			},
			{
				"x": -0.5410872143,
				"y": -5.7062634432,
				"z": -1.5016337679,
				"element": "H" 
			},
			{
				"x": 1.0175717888,
				"y": -5.0343537384,
				"z": -2.0833581061,
				"element": "H" 
			},
			{
				"x": -1.4837755492,
				"y": -2.8680046256,
				"z": 2.6393934407,
				"element": "H" 
			},
			{
				"x": -0.2937914791,
				"y": -3.9016866818,
				"z": 1.8254897864,
				"element": "H" 
			},
			{
				"x": -1.7346523351,
				"y": -3.3946208946,
				"z": 0.9606551649,
				"element": "H" 
			},
			{
				"x": -0.5791751399,
				"y": -0.9674863132,
				"z": 3.0593127842,
				"element": "H" 
			},
			{
				"x": 1.8822817109,
				"y": 1.2175692799,
				"z": 0.7966895306,
				"element": "H" 
			},
			{
				"x": 1.8393776269,
				"y": -0.476535115,
				"z": -0.9274899864,
				"element": "H" 
			},
			{
				"x": 1.0286162023,
				"y": 0.0113765742,
				"z": -3.0675256017,
				"element": "H" 
			},
			{
				"x": -0.4326286745,
				"y": 1.3633942479,
				"z": -4.5485252024,
				"element": "H" 
			},
			{
				"x": -2.3413029752,
				"y": 2.6616914078,
				"z": -3.5626638752,
				"element": "H" 
			},
			{
				"x": -1.2722892249,
				"y": 1.2910152911,
				"z": 0.3452073215,
				"element": "H" 
			}
		],
		 "valence_orbital": [ 
			{
				"type": "occ",
				"energy": -0.28012,
				"method": "rhf"
			},
			{
				"type": "occ",
				"energy": -0.27452,
				"method": "rhf"
			},
			{
				"type": "occ",
				"energy": -0.25096,
				"method": "rhf"
			},
			{
				"type": "occ",
				"energy": -0.22663,
				"method": "rhf"
			},
			{
				"type": "occ",
				"energy": -0.22146,
				"method": "rhf"
			},
			{
				"type": "unocc",
				"energy": -0.08826,
				"method": "rhf"
			},
			{
				"type": "unocc",
				"energy": -0.06723,
				"method": "rhf"
			},
			{
				"type": "unocc",
				"energy": -0.02885,
				"method": "rhf"
			},
			{
				"type": "unocc",
				"energy": -0.00095,
				"method": "rhf"
			},
			{
				"type": "unocc",
				"energy": 0.00538,
				"method": "rhf"
			}
		],
		"cosmo_sigma_profile": { 
			"-0.025": 0.0,
			"-0.024": 0.0,
			"-0.023": 0.0,
			"-0.022": 0.0,
			"-0.021": 0.0,
			"-0.02": 0.0,
			"-0.019": 0.0,
			"-0.018": 0.0,
			"-0.017": 0.0,
			"-0.016": 0.618540668584,
			"-0.015": 2.37606412601,
			"-0.014": 2.17784566175,
			"-0.013": 2.13250497336,
			"-0.012": 1.89293310708,
			"-0.011": 1.67841960564,
			"-0.01": 1.8554867718,
			"-0.009": 2.20700758836,
			"-0.008": 3.67960525055,
			"-0.007": 8.08559052343,
			"-0.006": 17.788510969,
			"-0.005": 21.9867067443,
			"-0.004": 22.9040098125,
			"-0.003": 28.4575611048,
			"-0.002": 27.6022171831,
			"-0.001": 25.6779494054,
			"0.0": 21.8439562532,
			"0.001": 19.4973557685,
			"0.002": 16.9812113348,
			"0.003": 12.2607925286,
			"0.004": 7.70869025065,
			"0.005": 7.35139803363,
			"0.006": 8.74508153806,
			"0.007": 12.3015696379,
			"0.008": 14.4483116405,
			"0.009": 11.8385097554,
			"0.01": 11.1770166698,
			"0.011": 6.44849259117,
			"0.012": 2.63879558406,
			"0.013": 0.607797461132,
			"0.014": 0.0,
			"0.015": 0.0,
			"0.016": 0.0,
			"0.017": 0.0,
			"0.018": 0.0,
			"0.019": 0.0,
			"0.02": 0.0,
			"0.021": 0.0,
			"0.022": 0.0,
			"0.023": 0.0,
			"0.024": 0.0,
			"0.025": 0.0
		}
	}
}
