{
	 "smiles": "OC(=O)C1=CC(=NS1)C1=CC=CC=C1", 
	 "Tm": 457.15, 
	 "num_atms": 21, 
	 "gaussian": { 
		 "optdone": 1, 
		 "sigma_profile": "yes", 
		 "theory": "DFT", 
		 "functional": "B3LYP", 
		 "basiset": "6-31G**", 
		 "properties": { 
			 "R2extent": 5636.9234, 
			 "electric_dipole_moment_norm": 3.13389552155, 
			 "electric_quadrupole_moment_norm": 14.8807515707, 
			 "total_energy": -988.671893309, 
			 "HOMO_LUMO_gap": 0.15843, 
			 "cosmo_polarized_energy": -11.28, 
			 "cosmo_cavitation_energy": 28.02, 
			 "cosmo_dispersion_energy": -21.27, 
			 "cosmo_repulsion_energy": 1.61, 
			 "cosmo_total_nonelectrostatic_energy": 8.35, 
			 "SMD_solvation_energy": 4.63 
		},
		"coords": [
			{
				"x": 4.1765938822,
				"y": -4.0720957383,
				"z": -0.4347069953,
				"element": "O" 
			},
			{
				"x": 3.4503992585,
				"y": -4.185056261,
				"z": 0.7015474867,
				"element": "C" 
			},
			{
				"x": 3.5477095523,
				"y": -5.124726202,
				"z": 1.4648211864,
				"element": "O" 
			},
			{
				"x": 2.5381488188,
				"y": -3.0465906659,
				"z": 0.9006978197,
				"element": "C" 
			},
			{
				"x": 2.3368006917,
				"y": -1.9348498949,
				"z": 0.1226502642,
				"element": "C" 
			},
			{
				"x": 1.3477733947,
				"y": -1.0755968195,
				"z": 0.7017979825,
				"element": "C" 
			},
			{
				"x": 0.8325657793,
				"y": -1.509566001,
				"z": 1.8487637813,
				"element": "N" 
			},
			{
				"x": 1.5055713645,
				"y": -2.9647966751,
				"z": 2.2869610996,
				"element": "S" 
			},
			{
				"x": 0.8849555072,
				"y": 0.2104133118,
				"z": 0.1342571134,
				"element": "C" 
			},
			{
				"x": 1.3337424514,
				"y": 0.6604518118,
				"z": -1.1173909598,
				"element": "C" 
			},
			{
				"x": 0.8878924033,
				"y": 1.8749642783,
				"z": -1.6374217648,
				"element": "C" 
			},
			{
				"x": -0.0134865179,
				"y": 2.6588889498,
				"z": -0.9162703445,
				"element": "C" 
			},
			{
				"x": -0.4673528467,
				"y": 2.2184779436,
				"z": 0.3300280722,
				"element": "C" 
			},
			{
				"x": -0.0238625701,
				"y": 1.0066856287,
				"z": 0.8516678365,
				"element": "C" 
			},
			{
				"x": 4.7403574382,
				"y": -4.8628213533,
				"z": -0.4735772086,
				"element": "H" 
			},
			{
				"x": 2.8731041334,
				"y": -1.7534163417,
				"z": -0.7984850563,
				"element": "H" 
			},
			{
				"x": 2.0302107649,
				"y": 0.0633972727,
				"z": -1.6974169809,
				"element": "H" 
			},
			{
				"x": 1.2451032443,
				"y": 2.2068016096,
				"z": -2.6079568119,
				"element": "H" 
			},
			{
				"x": -0.3602206757,
				"y": 3.6049772541,
				"z": -1.3216160037,
				"element": "H" 
			},
			{
				"x": -1.1690639496,
				"y": 2.8226104746,
				"z": 0.8978915961,
				"element": "H" 
			},
			{
				"x": -0.3715421245,
				"y": 0.6593474179,
				"z": 1.8182578873,
				"element": "H" 
			}
		],
		 "valence_orbital": [ 
			{
				"type": "occ",
				"energy": -0.29721,
				"method": "rhf"
			},
			{
				"type": "occ",
				"energy": -0.2944,
				"method": "rhf"
			},
			{
				"type": "occ",
				"energy": -0.28269,
				"method": "rhf"
			},
			{
				"type": "occ",
				"energy": -0.25689,
				"method": "rhf"
			},
			{
				"type": "occ",
				"energy": -0.23556,
				"method": "rhf"
			},
			{
				"type": "unocc",
				"energy": -0.07713,
				"method": "rhf"
			},
			{
				"type": "unocc",
				"energy": -0.03374,
				"method": "rhf"
			},
			{
				"type": "unocc",
				"energy": -0.00598,
				"method": "rhf"
			},
			{
				"type": "unocc",
				"energy": 0.00877,
				"method": "rhf"
			},
			{
				"type": "unocc",
				"energy": 0.04949,
				"method": "rhf"
			}
		],
		"cosmo_sigma_profile": { 
			"-0.025": 0.0,
			"-0.024": 0.0,
			"-0.023": 0.0,
			"-0.022": 0.0,
			"-0.021": 0.0,
			"-0.02": 0.0161657520823,
			"-0.019": 0.603669696567,
			"-0.018": 1.06509978725,
			"-0.017": 1.11533931711,
			"-0.016": 0.631999551805,
			"-0.015": 0.201459835811,
			"-0.014": 0.495483464298,
			"-0.013": 1.25219609834,
			"-0.012": 0.686912566507,
			"-0.011": 1.24606080922,
			"-0.01": 1.28019020342,
			"-0.009": 2.55662687854,
			"-0.008": 2.99416913753,
			"-0.007": 2.53417431396,
			"-0.006": 8.38081765352,
			"-0.005": 10.3937719851,
			"-0.004": 15.468096293,
			"-0.003": 13.36005882,
			"-0.002": 13.9305919938,
			"-0.001": 21.8597730155,
			"0.0": 23.6074926604,
			"0.001": 20.4681532945,
			"0.002": 15.0023472697,
			"0.003": 15.6740820425,
			"0.004": 15.3847230589,
			"0.005": 13.276545184,
			"0.006": 4.24963517081,
			"0.007": 4.3776402391,
			"0.008": 2.84970687965,
			"0.009": 3.19517683315,
			"0.01": 4.54232842542,
			"0.011": 5.10729247643,
			"0.012": 0.281269756936,
			"0.013": 0.0,
			"0.014": 0.0,
			"0.015": 0.0,
			"0.016": 0.0,
			"0.017": 0.0,
			"0.018": 0.0,
			"0.019": 0.0,
			"0.02": 0.0,
			"0.021": 0.0,
			"0.022": 0.0,
			"0.023": 0.0,
			"0.024": 0.0,
			"0.025": 0.0
		}
	}
}
