{
	 "smiles": "CC(=O)C1=CC=CC(=C1)C1=CC=CC=C1", 
	 "Tm": 309.15, 
	 "num_atms": 27, 
	 "gaussian": { 
		 "optdone": 1, 
		 "sigma_profile": "yes", 
		 "theory": "DFT", 
		 "functional": "B3LYP", 
		 "basiset": "6-31G**", 
		 "properties": { 
			 "R2extent": 4263.4351, 
			 "electric_dipole_moment_norm": 3.20597887392, 
			 "electric_quadrupole_moment_norm": 11.9556759784, 
			 "total_energy": -615.958765002, 
			 "HOMO_LUMO_gap": 0.17613, 
			 "cosmo_polarized_energy": -9.43, 
			 "cosmo_cavitation_energy": 31.04, 
			 "cosmo_dispersion_energy": -22.31, 
			 "cosmo_repulsion_energy": 1.73, 
			 "cosmo_total_nonelectrostatic_energy": 10.46, 
			 "SMD_solvation_energy": 5.76 
		},
		"coords": [
			{
				"x": 2.4247111829,
				"y": 1.1247540793,
				"z": 2.7487503062,
				"element": "C" 
			},
			{
				"x": 1.3880779691,
				"y": 0.0134537246,
				"z": 2.7403216003,
				"element": "C" 
			},
			{
				"x": 1.167354119,
				"y": -0.6353317465,
				"z": 3.7518736976,
				"element": "O" 
			},
			{
				"x": 0.6407618897,
				"y": -0.2749961962,
				"z": 1.4708867847,
				"element": "C" 
			},
			{
				"x": -0.3214313082,
				"y": -1.2963918687,
				"z": 1.4887578821,
				"element": "C" 
			},
			{
				"x": -1.0429702796,
				"y": -1.5908079093,
				"z": 0.3367485126,
				"element": "C" 
			},
			{
				"x": -0.8124503033,
				"y": -0.8754038001,
				"z": -0.8397212764,
				"element": "C" 
			},
			{
				"x": 0.1447056158,
				"y": 0.1517599919,
				"z": -0.885490843,
				"element": "C" 
			},
			{
				"x": 0.8633382509,
				"y": 0.438175297,
				"z": 0.2860793623,
				"element": "C" 
			},
			{
				"x": 0.3895069189,
				"y": 0.915549256,
				"z": -2.1365059131,
				"element": "C" 
			},
			{
				"x": 1.6905447423,
				"y": 1.2943092302,
				"z": -2.5085601343,
				"element": "C" 
			},
			{
				"x": 1.9195731215,
				"y": 2.0129997252,
				"z": -3.6811509049,
				"element": "C" 
			},
			{
				"x": 0.8521928741,
				"y": 2.367103288,
				"z": -4.5084812546,
				"element": "C" 
			},
			{
				"x": -0.4459501193,
				"y": 1.9964736949,
				"z": -4.1524573566,
				"element": "C" 
			},
			{
				"x": -0.6747329568,
				"y": 1.2791747842,
				"z": -2.9790143357,
				"element": "C" 
			},
			{
				"x": 3.2170827874,
				"y": 0.9295513372,
				"z": 2.0177195071,
				"element": "H" 
			},
			{
				"x": 2.8601745797,
				"y": 1.1865567593,
				"z": 3.7463605665,
				"element": "H" 
			},
			{
				"x": 1.9716025656,
				"y": 2.0878757652,
				"z": 2.4892135652,
				"element": "H" 
			},
			{
				"x": -0.4800702558,
				"y": -1.8379014569,
				"z": 2.4150003331,
				"element": "H" 
			},
			{
				"x": -1.7830657976,
				"y": -2.3857936953,
				"z": 0.3466455922,
				"element": "H" 
			},
			{
				"x": -1.3628143536,
				"y": -1.1300327888,
				"z": -1.7406877899,
				"element": "H" 
			},
			{
				"x": 1.5866477813,
				"y": 1.2465409262,
				"z": 0.2674700454,
				"element": "H" 
			},
			{
				"x": 2.5309169936,
				"y": 0.9992433228,
				"z": -1.8868270296,
				"element": "H" 
			},
			{
				"x": 2.9345503557,
				"y": 2.2882553668,
				"z": -3.9535842108,
				"element": "H" 
			},
			{
				"x": 1.0303874374,
				"y": 2.926297231,
				"z": -5.4223204165,
				"element": "H" 
			},
			{
				"x": -1.2844387038,
				"y": 2.2740508573,
				"z": -4.7849403301,
				"element": "H" 
			},
			{
				"x": -1.6911051069,
				"y": 1.0193348247,
				"z": -2.69768596,
				"element": "H" 
			}
		],
		 "valence_orbital": [ 
			{
				"type": "occ",
				"energy": -0.27967,
				"method": "rhf"
			},
			{
				"type": "occ",
				"energy": -0.26131,
				"method": "rhf"
			},
			{
				"type": "occ",
				"energy": -0.2562,
				"method": "rhf"
			},
			{
				"type": "occ",
				"energy": -0.24722,
				"method": "rhf"
			},
			{
				"type": "occ",
				"energy": -0.23177,
				"method": "rhf"
			},
			{
				"type": "unocc",
				"energy": -0.05564,
				"method": "rhf"
			},
			{
				"type": "unocc",
				"energy": -0.03165,
				"method": "rhf"
			},
			{
				"type": "unocc",
				"energy": -0.00779,
				"method": "rhf"
			},
			{
				"type": "unocc",
				"energy": 0.01397,
				"method": "rhf"
			},
			{
				"type": "unocc",
				"energy": 0.0455,
				"method": "rhf"
			}
		],
		"cosmo_sigma_profile": { 
			"-0.025": 0.0,
			"-0.024": 0.0,
			"-0.023": 0.0,
			"-0.022": 0.0,
			"-0.021": 0.0,
			"-0.02": 0.0,
			"-0.019": 0.0,
			"-0.018": 0.0,
			"-0.017": 0.0,
			"-0.016": 0.0,
			"-0.015": 0.0,
			"-0.014": 0.0,
			"-0.013": 0.0,
			"-0.012": 0.0,
			"-0.011": 0.0,
			"-0.01": 0.0,
			"-0.009": 0.0,
			"-0.008": 0.0,
			"-0.007": 0.996216124116,
			"-0.006": 18.2962972895,
			"-0.005": 24.5837529864,
			"-0.004": 24.319674163,
			"-0.003": 20.0886580136,
			"-0.002": 19.1190040633,
			"-0.001": 17.6508774805,
			"0.0": 16.06510129,
			"0.001": 14.8285909128,
			"0.002": 18.7924031569,
			"0.003": 21.0361621754,
			"0.004": 18.585806208,
			"0.005": 11.9120967982,
			"0.006": 6.24786440923,
			"0.007": 2.00276990459,
			"0.008": 1.40858543275,
			"0.009": 1.63729198377,
			"0.01": 2.33003060347,
			"0.011": 2.63212291392,
			"0.012": 4.22617841672,
			"0.013": 1.57801537734,
			"0.014": 0.122545331411,
			"0.015": 0.0,
			"0.016": 0.0,
			"0.017": 0.0,
			"0.018": 0.0,
			"0.019": 0.0,
			"0.02": 0.0,
			"0.021": 0.0,
			"0.022": 0.0,
			"0.023": 0.0,
			"0.024": 0.0,
			"0.025": 0.0
		}
	}
}
