{
	 "smiles": "CC(C)(C#N)C(O)=O", 
	 "Tm": 328.15, 
	 "num_atms": 15, 
	 "gaussian": { 
		 "optdone": 1, 
		 "sigma_profile": "yes", 
		 "theory": "DFT", 
		 "functional": "B3LYP", 
		 "basiset": "6-31G**", 
		 "properties": { 
			 "R2extent": 1186.5118, 
			 "electric_dipole_moment_norm": 3.06103528075, 
			 "electric_quadrupole_moment_norm": 12.2128468643, 
			 "total_energy": -399.947361013, 
			 "HOMO_LUMO_gap": 0.27436, 
			 "cosmo_polarized_energy": -12.87, 
			 "cosmo_cavitation_energy": 19.79, 
			 "cosmo_dispersion_energy": -13.57, 
			 "cosmo_repulsion_energy": 1.16, 
			 "cosmo_total_nonelectrostatic_energy": 7.38, 
			 "SMD_solvation_energy": 6.31 
		},
		"coords": [
			{
				"x": -0.2849544186,
				"y": 0.9897139346,
				"z": 0.5991169568,
				"element": "C" 
			},
			{
				"x": -0.3620310545,
				"y": -0.543191856,
				"z": 0.7439425281,
				"element": "C" 
			},
			{
				"x": -1.5697492707,
				"y": -0.9595463136,
				"z": 1.6289548545,
				"element": "C" 
			},
			{
				"x": -0.5055370041,
				"y": -1.1597123671,
				"z": -0.5879750408,
				"element": "C" 
			},
			{
				"x": -0.6443576818,
				"y": -1.6103120906,
				"z": -1.6485325248,
				"element": "N" 
			},
			{
				"x": 0.9217917803,
				"y": -1.0614414549,
				"z": 1.4242232115,
				"element": "C" 
			},
			{
				"x": 1.0365421582,
				"y": -2.4005958442,
				"z": 1.3274040693,
				"element": "O" 
			},
			{
				"x": 1.7082963355,
				"y": -0.3640326127,
				"z": 2.0199406932,
				"element": "O" 
			},
			{
				"x": -0.150188865,
				"y": 1.4403458152,
				"z": 1.5842746785,
				"element": "H" 
			},
			{
				"x": -1.2063520151,
				"y": 1.3681837678,
				"z": 0.1501023911,
				"element": "H" 
			},
			{
				"x": 0.5589305898,
				"y": 1.2833130964,
				"z": -0.0285052888,
				"element": "H" 
			},
			{
				"x": -2.4979707684,
				"y": -0.5960824274,
				"z": 1.1813349145,
				"element": "H" 
			},
			{
				"x": -1.4626158044,
				"y": -0.5146269389,
				"z": 2.622402499,
				"element": "H" 
			},
			{
				"x": -1.6275412358,
				"y": -2.0450914529,
				"z": 1.7281546061,
				"element": "H" 
			},
			{
				"x": 1.8498372545,
				"y": -2.6477232557,
				"z": 1.7994614519,
				"element": "H" 
			}
		],
		 "valence_orbital": [ 
			{
				"type": "occ",
				"energy": -0.35843,
				"method": "rhf"
			},
			{
				"type": "occ",
				"energy": -0.34236,
				"method": "rhf"
			},
			{
				"type": "occ",
				"energy": -0.3381,
				"method": "rhf"
			},
			{
				"type": "occ",
				"energy": -0.32647,
				"method": "rhf"
			},
			{
				"type": "occ",
				"energy": -0.29306,
				"method": "rhf"
			},
			{
				"type": "unocc",
				"energy": -0.0187,
				"method": "rhf"
			},
			{
				"type": "unocc",
				"energy": 0.03126,
				"method": "rhf"
			},
			{
				"type": "unocc",
				"energy": 0.03899,
				"method": "rhf"
			},
			{
				"type": "unocc",
				"energy": 0.05798,
				"method": "rhf"
			},
			{
				"type": "unocc",
				"energy": 0.08485,
				"method": "rhf"
			}
		],
		"cosmo_sigma_profile": { 
			"-0.025": 0.0,
			"-0.024": 0.0,
			"-0.023": 0.0,
			"-0.022": 0.0,
			"-0.021": 0.0,
			"-0.02": 0.0345073578096,
			"-0.019": 1.03671625044,
			"-0.018": 0.764495222982,
			"-0.017": 1.02961588959,
			"-0.016": 0.870497781572,
			"-0.015": 0.474566400179,
			"-0.014": 0.523979914631,
			"-0.013": 0.915251084467,
			"-0.012": 0.800983697899,
			"-0.011": 0.563122828161,
			"-0.01": 0.774231403832,
			"-0.009": 0.633658014024,
			"-0.008": 1.12806104725,
			"-0.007": 3.61484919168,
			"-0.006": 10.5375196586,
			"-0.005": 12.993307429,
			"-0.004": 13.3929443936,
			"-0.003": 13.5141404532,
			"-0.002": 16.6266150347,
			"-0.001": 11.0358541928,
			"0.0": 5.44760571461,
			"0.001": 3.24964882641,
			"0.002": 3.12133917284,
			"0.003": 4.40883401708,
			"0.004": 3.72383291856,
			"0.005": 5.1762923433,
			"0.006": 5.44479720855,
			"0.007": 6.56230363445,
			"0.008": 5.2318818104,
			"0.009": 5.91278078602,
			"0.01": 6.67195722497,
			"0.011": 6.50151678791,
			"0.012": 2.35893170884,
			"0.013": 1.25204076558,
			"0.014": 0.0117534670737,
			"0.015": 0.0,
			"0.016": 0.0,
			"0.017": 0.0,
			"0.018": 0.0,
			"0.019": 0.0,
			"0.02": 0.0,
			"0.021": 0.0,
			"0.022": 0.0,
			"0.023": 0.0,
			"0.024": 0.0,
			"0.025": 0.0
		}
	}
}
