{
	 "smiles": "BrC1=C(NN=C1)C=O", 
	 "Tm": 354.15, 
	 "num_atms": 11, 
	 "gaussian": { 
		 "optdone": 1, 
		 "sigma_profile": "yes", 
		 "theory": "DFT", 
		 "functional": "B3LYP", 
		 "basiset": "6-31G**", 
		 "properties": { 
			 "R2extent": 2305.2547, 
			 "electric_dipole_moment_norm": 2.73330460249, 
			 "electric_quadrupole_moment_norm": 15.9824099897, 
			 "total_energy": -2910.31641349, 
			 "HOMO_LUMO_gap": 0.18055, 
			 "cosmo_polarized_energy": -13.58, 
			 "cosmo_cavitation_energy": 18.56, 
			 "cosmo_dispersion_energy": -14.12, 
			 "cosmo_repulsion_energy": 1.18, 
			 "cosmo_total_nonelectrostatic_energy": 5.62, 
			 "SMD_solvation_energy": 2.54 
		},
		"coords": [
			{
				"x": -2.3948648398,
				"y": 1.8015660385,
				"z": -0.6285324352,
				"element": "Br" 
			},
			{
				"x": -0.7603555187,
				"y": 0.9679146004,
				"z": -0.9968395133,
				"element": "C" 
			},
			{
				"x": 0.5212703483,
				"y": 1.4499854612,
				"z": -0.7304196662,
				"element": "C" 
			},
			{
				"x": 1.3609058192,
				"y": 0.4702601067,
				"z": -1.1895859019,
				"element": "N" 
			},
			{
				"x": 0.7256966474,
				"y": -0.5799955495,
				"z": -1.7184348507,
				"element": "N" 
			},
			{
				"x": -0.5738846011,
				"y": -0.28586404,
				"z": -1.6055469722,
				"element": "C" 
			},
			{
				"x": 1.0326377884,
				"y": 2.6756425576,
				"z": -0.1186814542,
				"element": "C" 
			},
			{
				"x": 0.3421163884,
				"y": 3.5802652104,
				"z": 0.3057858203,
				"element": "O" 
			},
			{
				"x": 2.3708136807,
				"y": 0.4721268149,
				"z": -1.1645632782,
				"element": "H" 
			},
			{
				"x": -1.3267418537,
				"y": -0.9747334745,
				"z": -1.9604296898,
				"element": "H" 
			},
			{
				"x": 2.1449061408,
				"y": 2.7242322744,
				"z": -0.0701520585,
				"element": "H" 
			}
		],
		 "valence_orbital": [ 
			{
				"type": "occ",
				"energy": -0.33025,
				"method": "rhf"
			},
			{
				"type": "occ",
				"energy": -0.29429,
				"method": "rhf"
			},
			{
				"type": "occ",
				"energy": -0.28471,
				"method": "rhf"
			},
			{
				"type": "occ",
				"energy": -0.26846,
				"method": "rhf"
			},
			{
				"type": "occ",
				"energy": -0.25581,
				"method": "rhf"
			},
			{
				"type": "unocc",
				"energy": -0.07526,
				"method": "rhf"
			},
			{
				"type": "unocc",
				"energy": 0.00579,
				"method": "rhf"
			},
			{
				"type": "unocc",
				"energy": 0.01706,
				"method": "rhf"
			},
			{
				"type": "unocc",
				"energy": 0.06138,
				"method": "rhf"
			},
			{
				"type": "unocc",
				"energy": 0.07686,
				"method": "rhf"
			}
		],
		"cosmo_sigma_profile": { 
			"-0.025": 0.0,
			"-0.024": 0.0,
			"-0.023": 0.0,
			"-0.022": 0.0,
			"-0.021": 0.0,
			"-0.02": 0.0,
			"-0.019": 0.0527774889293,
			"-0.018": 1.46558800812,
			"-0.017": 1.604838886,
			"-0.016": 2.25727913933,
			"-0.015": 1.29972458896,
			"-0.014": 1.32452126238,
			"-0.013": 1.09611262748,
			"-0.012": 1.22270997966,
			"-0.011": 1.08131942017,
			"-0.01": 1.06798943197,
			"-0.009": 3.18823130638,
			"-0.008": 4.37185211235,
			"-0.007": 4.04601217516,
			"-0.006": 5.37383283362,
			"-0.005": 5.30548953062,
			"-0.004": 6.08850592141,
			"-0.003": 6.00488944458,
			"-0.002": 7.22979949669,
			"-0.001": 10.1180685744,
			"0.0": 10.7713831781,
			"0.001": 13.3907011078,
			"0.002": 10.5603023302,
			"0.003": 11.6521497602,
			"0.004": 9.6884066802,
			"0.005": 3.12507369434,
			"0.006": 4.06336916359,
			"0.007": 3.93863439321,
			"0.008": 2.71899550541,
			"0.009": 4.34298045934,
			"0.01": 5.07183354214,
			"0.011": 5.25073271509,
			"0.012": 2.66797142137,
			"0.013": 1.07927392619,
			"0.014": 0.440277706669,
			"0.015": 0.0,
			"0.016": 0.0,
			"0.017": 0.0,
			"0.018": 0.0,
			"0.019": 0.0,
			"0.02": 0.0,
			"0.021": 0.0,
			"0.022": 0.0,
			"0.023": 0.0,
			"0.024": 0.0,
			"0.025": 0.0
		}
	}
}
