{
	 "smiles": "COC(=O)C1=C(N)C=C(C=C1)C(F)(F)F", 
	 "Tm": 332.15, 
	 "num_atms": 23, 
	 "gaussian": { 
		 "optdone": 1, 
		 "sigma_profile": "yes", 
		 "theory": "DFT", 
		 "functional": "B3LYP", 
		 "basiset": "6-31G**", 
		 "properties": { 
			 "R2extent": 4335.1229, 
			 "electric_dipole_moment_norm": 4.39636502238, 
			 "electric_quadrupole_moment_norm": 8.88443251311, 
			 "total_energy": -852.523920907, 
			 "HOMO_LUMO_gap": 0.16442, 
			 "cosmo_polarized_energy": -10.61, 
			 "cosmo_cavitation_energy": 28.84, 
			 "cosmo_dispersion_energy": -20.78, 
			 "cosmo_repulsion_energy": 1.56, 
			 "cosmo_total_nonelectrostatic_energy": 9.61, 
			 "SMD_solvation_energy": 7.53 
		},
		"coords": [
			{
				"x": -2.034163398,
				"y": -0.6041063168,
				"z": 3.5164419464,
				"element": "C" 
			},
			{
				"x": -1.2717081614,
				"y": -0.682928894,
				"z": 2.2990146676,
				"element": "O" 
			},
			{
				"x": -0.6706438478,
				"y": 0.4826501297,
				"z": 1.9171859349,
				"element": "C" 
			},
			{
				"x": -0.7819460257,
				"y": 1.4964920071,
				"z": 2.5788194518,
				"element": "O" 
			},
			{
				"x": 0.1126652633,
				"y": 0.3803027467,
				"z": 0.6598340255,
				"element": "C" 
			},
			{
				"x": 0.2289960449,
				"y": -0.779364305,
				"z": -0.15810674,
				"element": "C" 
			},
			{
				"x": -0.427498628,
				"y": -1.9559942341,
				"z": 0.0892858337,
				"element": "N" 
			},
			{
				"x": 1.0411769755,
				"y": -0.6939110318,
				"z": -1.3139366051,
				"element": "C" 
			},
			{
				"x": 1.699476392,
				"y": 0.4764456827,
				"z": -1.647424079,
				"element": "C" 
			},
			{
				"x": 1.5814892693,
				"y": 1.6239794027,
				"z": -0.8475802022,
				"element": "C" 
			},
			{
				"x": 0.7931084386,
				"y": 1.5555373674,
				"z": 0.2860604323,
				"element": "C" 
			},
			{
				"x": 2.5224867174,
				"y": 0.5473233436,
				"z": -2.9073678667,
				"element": "C" 
			},
			{
				"x": 3.705826117,
				"y": 1.1633721936,
				"z": -2.6907697053,
				"element": "F" 
			},
			{
				"x": 1.8864421404,
				"y": 1.2520514136,
				"z": -3.8708825433,
				"element": "F" 
			},
			{
				"x": 2.7903923529,
				"y": -0.6741736396,
				"z": -3.4195453662,
				"element": "F" 
			},
			{
				"x": -1.3920091728,
				"y": -0.3188224976,
				"z": 4.3526916361,
				"element": "H" 
			},
			{
				"x": -2.8348544125,
				"y": 0.1321676023,
				"z": 3.4186991945,
				"element": "H" 
			},
			{
				"x": -2.4458572634,
				"y": -1.6016484142,
				"z": 3.6702478522,
				"element": "H" 
			},
			{
				"x": -0.1273768687,
				"y": -2.7781900588,
				"z": -0.4087327325,
				"element": "H" 
			},
			{
				"x": -0.8607043682,
				"y": -2.0800198574,
				"z": 0.9903559469,
				"element": "H" 
			},
			{
				"x": 1.1452938727,
				"y": -1.5680247546,
				"z": -1.9481296946,
				"element": "H" 
			},
			{
				"x": 2.1046121338,
				"y": 2.5359443576,
				"z": -1.1104158195,
				"element": "H" 
			},
			{
				"x": 0.6791964286,
				"y": 2.416717757,
				"z": 0.9348544325,
				"element": "H" 
			}
		],
		 "valence_orbital": [ 
			{
				"type": "occ",
				"energy": -0.3276,
				"method": "rhf"
			},
			{
				"type": "occ",
				"energy": -0.30997,
				"method": "rhf"
			},
			{
				"type": "occ",
				"energy": -0.2812,
				"method": "rhf"
			},
			{
				"type": "occ",
				"energy": -0.26795,
				"method": "rhf"
			},
			{
				"type": "occ",
				"energy": -0.21767,
				"method": "rhf"
			},
			{
				"type": "unocc",
				"energy": -0.05325,
				"method": "rhf"
			},
			{
				"type": "unocc",
				"energy": -0.00048,
				"method": "rhf"
			},
			{
				"type": "unocc",
				"energy": 0.04234,
				"method": "rhf"
			},
			{
				"type": "unocc",
				"energy": 0.079,
				"method": "rhf"
			},
			{
				"type": "unocc",
				"energy": 0.09995,
				"method": "rhf"
			}
		],
		"cosmo_sigma_profile": { 
			"-0.025": 0.0,
			"-0.024": 0.0,
			"-0.023": 0.0,
			"-0.022": 0.0,
			"-0.021": 0.0,
			"-0.02": 0.0,
			"-0.019": 0.0,
			"-0.018": 0.0,
			"-0.017": 0.0,
			"-0.016": 0.0,
			"-0.015": 0.0,
			"-0.014": 0.737623581269,
			"-0.013": 1.56708573551,
			"-0.012": 1.52889921157,
			"-0.011": 1.85831245592,
			"-0.01": 1.74414024002,
			"-0.009": 3.10316148335,
			"-0.008": 2.02879430714,
			"-0.007": 4.03911030284,
			"-0.006": 9.08203317261,
			"-0.005": 13.0665527886,
			"-0.004": 15.1294069411,
			"-0.003": 13.9127836837,
			"-0.002": 13.1321090931,
			"-0.001": 13.8263464178,
			"0.0": 15.7388511043,
			"0.001": 17.4443332154,
			"0.002": 33.0965401261,
			"0.003": 41.7102215167,
			"0.004": 7.68046374585,
			"0.005": 2.01777937237,
			"0.006": 2.56650475447,
			"0.007": 1.58875847035,
			"0.008": 2.74260588953,
			"0.009": 2.11208028254,
			"0.01": 1.70435957502,
			"0.011": 2.80679921111,
			"0.012": 4.28659179542,
			"0.013": 0.243521818354,
			"0.014": 0.0,
			"0.015": 0.0,
			"0.016": 0.0,
			"0.017": 0.0,
			"0.018": 0.0,
			"0.019": 0.0,
			"0.02": 0.0,
			"0.021": 0.0,
			"0.022": 0.0,
			"0.023": 0.0,
			"0.024": 0.0,
			"0.025": 0.0
		}
	}
}
