{
	 "smiles": "OC(=O)C(CC1=CC=CC=C1)N1C(=O)C=CC1=O", 
	 "Tm": 467.15, 
	 "num_atms": 29, 
	 "gaussian": { 
		 "optdone": 1, 
		 "sigma_profile": "yes", 
		 "theory": "DFT", 
		 "functional": "B3LYP", 
		 "basiset": "6-31G**", 
		 "properties": { 
			 "R2extent": 4697.2107, 
			 "electric_dipole_moment_norm": 2.7176682763, 
			 "electric_quadrupole_moment_norm": 12.2864860306, 
			 "total_energy": -857.676547894, 
			 "HOMO_LUMO_gap": 0.14355, 
			 "cosmo_polarized_energy": -16.55, 
			 "cosmo_cavitation_energy": 34.63, 
			 "cosmo_dispersion_energy": -22.81, 
			 "cosmo_repulsion_energy": 1.78, 
			 "cosmo_total_nonelectrostatic_energy": 13.6, 
			 "SMD_solvation_energy": 8.71 
		},
		"coords": [
			{
				"x": -0.0733073415,
				"y": -3.6406074011,
				"z": -2.0111112097,
				"element": "O" 
			},
			{
				"x": -0.8195086008,
				"y": -2.9127774298,
				"z": -1.153883569,
				"element": "C" 
			},
			{
				"x": -2.0006166112,
				"y": -3.1033559856,
				"z": -0.9752405862,
				"element": "O" 
			},
			{
				"x": 0.0013884374,
				"y": -1.8689943042,
				"z": -0.3895064296,
				"element": "C" 
			},
			{
				"x": -0.8801798372,
				"y": -0.6568149999,
				"z": -0.0064573185,
				"element": "C" 
			},
			{
				"x": -0.161989358,
				"y": 0.348506013,
				"z": 0.8659929103,
				"element": "C" 
			},
			{
				"x": 0.3419939715,
				"y": 1.5367190419,
				"z": 0.3212408098,
				"element": "C" 
			},
			{
				"x": 1.0159465934,
				"y": 2.4614421949,
				"z": 1.1216267476,
				"element": "C" 
			},
			{
				"x": 1.1977940027,
				"y": 2.2087679648,
				"z": 2.4818501401,
				"element": "C" 
			},
			{
				"x": 0.6990463144,
				"y": 1.0280690713,
				"z": 3.0370530559,
				"element": "C" 
			},
			{
				"x": 0.0243296328,
				"y": 0.1081982574,
				"z": 2.2347539076,
				"element": "C" 
			},
			{
				"x": 1.2227727413,
				"y": -1.5045134552,
				"z": -1.0853442775,
				"element": "N" 
			},
			{
				"x": 1.2969694673,
				"y": -0.8563753801,
				"z": -2.3212989583,
				"element": "C" 
			},
			{
				"x": 0.3524704437,
				"y": -0.4568736584,
				"z": -2.9729842743,
				"element": "O" 
			},
			{
				"x": 2.7592665854,
				"y": -0.7666069493,
				"z": -2.6539630696,
				"element": "C" 
			},
			{
				"x": 3.4601267092,
				"y": -1.3486517326,
				"z": -1.6761633197,
				"element": "C" 
			},
			{
				"x": 2.5037123413,
				"y": -1.8604970752,
				"z": -0.6386879215,
				"element": "C" 
			},
			{
				"x": 2.75115706,
				"y": -2.4658485316,
				"z": 0.3827629202,
				"element": "O" 
			},
			{
				"x": -0.6803861424,
				"y": -4.2808705676,
				"z": -2.4195341808,
				"element": "H" 
			},
			{
				"x": 0.346934934,
				"y": -2.3679074052,
				"z": 0.5253310505,
				"element": "H" 
			},
			{
				"x": -1.7587156282,
				"y": -1.0606888896,
				"z": 0.5039287751,
				"element": "H" 
			},
			{
				"x": -1.2327347525,
				"y": -0.1827908003,
				"z": -0.9255738208,
				"element": "H" 
			},
			{
				"x": 0.1966072818,
				"y": 1.739861517,
				"z": -0.7368871181,
				"element": "H" 
			},
			{
				"x": 1.3949476718,
				"y": 3.3801206747,
				"z": 0.6824264315,
				"element": "H" 
			},
			{
				"x": 1.7200426993,
				"y": 2.9276812955,
				"z": 3.1065907486,
				"element": "H" 
			},
			{
				"x": 0.8313389444,
				"y": 0.8256965859,
				"z": 4.0961465786,
				"element": "H" 
			},
			{
				"x": -0.3676706945,
				"y": -0.8048897431,
				"z": 2.6773793131,
				"element": "H" 
			},
			{
				"x": 3.1082341537,
				"y": -0.2921339802,
				"z": -3.561564071,
				"element": "H" 
			},
			{
				"x": 4.5302289809,
				"y": -1.4727643275,
				"z": -1.5761832644,
				"element": "H" 
			}
		],
		 "valence_orbital": [ 
			{
				"type": "occ",
				"energy": -0.30014,
				"method": "rhf"
			},
			{
				"type": "occ",
				"energy": -0.27659,
				"method": "rhf"
			},
			{
				"type": "occ",
				"energy": -0.27172,
				"method": "rhf"
			},
			{
				"type": "occ",
				"energy": -0.25012,
				"method": "rhf"
			},
			{
				"type": "occ",
				"energy": -0.24384,
				"method": "rhf"
			},
			{
				"type": "unocc",
				"energy": -0.10029,
				"method": "rhf"
			},
			{
				"type": "unocc",
				"energy": -0.00915,
				"method": "rhf"
			},
			{
				"type": "unocc",
				"energy": -0.00158,
				"method": "rhf"
			},
			{
				"type": "unocc",
				"energy": 0.00347,
				"method": "rhf"
			},
			{
				"type": "unocc",
				"energy": 0.0478,
				"method": "rhf"
			}
		],
		"cosmo_sigma_profile": { 
			"-0.025": 0.0,
			"-0.024": 0.0,
			"-0.023": 0.0,
			"-0.022": 0.0,
			"-0.021": 0.0,
			"-0.02": 0.0,
			"-0.019": 0.408283397264,
			"-0.018": 1.17834141553,
			"-0.017": 0.876326713381,
			"-0.016": 0.829219171443,
			"-0.015": 0.405824920582,
			"-0.014": 0.974094512051,
			"-0.013": 0.585182985084,
			"-0.012": 0.810526679464,
			"-0.011": 0.97895663602,
			"-0.01": 2.95841116538,
			"-0.009": 4.86953642463,
			"-0.008": 6.11364107749,
			"-0.007": 6.4411101918,
			"-0.006": 9.82553797868,
			"-0.005": 15.8983235345,
			"-0.004": 20.5162231347,
			"-0.003": 27.9346956587,
			"-0.002": 20.1804645594,
			"-0.001": 18.0865080206,
			"0.0": 17.9447534219,
			"0.001": 14.7780656762,
			"0.002": 13.4333890419,
			"0.003": 13.3198141108,
			"0.004": 15.9447444969,
			"0.005": 12.9332919308,
			"0.006": 10.8228422602,
			"0.007": 4.60063311554,
			"0.008": 5.53342932999,
			"0.009": 5.43849217896,
			"0.01": 10.0010933011,
			"0.011": 10.524771915,
			"0.012": 1.58465380402,
			"0.013": 0.0,
			"0.014": 0.0,
			"0.015": 0.0,
			"0.016": 0.0,
			"0.017": 0.0,
			"0.018": 0.0,
			"0.019": 0.0,
			"0.02": 0.0,
			"0.021": 0.0,
			"0.022": 0.0,
			"0.023": 0.0,
			"0.024": 0.0,
			"0.025": 0.0
		}
	}
}
