{
	 "smiles": "COC1=C(N)C=C(C=C1)S(=O)(=O)NC1CC1", 
	 "Tm": 393.15, 
	 "num_atms": 30, 
	 "gaussian": { 
		 "optdone": 1, 
		 "sigma_profile": "yes", 
		 "theory": "DFT", 
		 "functional": "B3LYP", 
		 "basiset": "6-31G**", 
		 "properties": { 
			 "R2extent": 5134.2692, 
			 "electric_dipole_moment_norm": 6.81306807466, 
			 "electric_quadrupole_moment_norm": 26.7719810335, 
			 "total_energy": -1122.75014913, 
			 "HOMO_LUMO_gap": 0.18797, 
			 "cosmo_polarized_energy": -21.18, 
			 "cosmo_cavitation_energy": 34.5, 
			 "cosmo_dispersion_energy": -24.78, 
			 "cosmo_repulsion_energy": 1.91, 
			 "cosmo_total_nonelectrostatic_energy": 11.63, 
			 "SMD_solvation_energy": 4.75 
		},
		"coords": [
			{
				"x": -4.4764030297,
				"y": 0.1975887254,
				"z": 0.1534179011,
				"element": "C" 
			},
			{
				"x": -3.1881475313,
				"y": 0.7894347823,
				"z": 0.0719074708,
				"element": "O" 
			},
			{
				"x": -2.1307291947,
				"y": -0.0006115217,
				"z": -0.2875684536,
				"element": "C" 
			},
			{
				"x": -0.8948416434,
				"y": 0.6915168695,
				"z": -0.3805636109,
				"element": "C" 
			},
			{
				"x": -0.8480914486,
				"y": 2.0406517561,
				"z": -0.0511742676,
				"element": "N" 
			},
			{
				"x": 0.241026761,
				"y": -0.0268390213,
				"z": -0.7585010842,
				"element": "C" 
			},
			{
				"x": 0.147992416,
				"y": -1.39502043,
				"z": -1.032895031,
				"element": "C" 
			},
			{
				"x": -1.0640699185,
				"y": -2.0739369929,
				"z": -0.9458039872,
				"element": "C" 
			},
			{
				"x": -2.2088833503,
				"y": -1.3629031516,
				"z": -0.5709248665,
				"element": "C" 
			},
			{
				"x": 1.6314076724,
				"y": -2.2978196577,
				"z": -1.4792200131,
				"element": "S" 
			},
			{
				"x": 1.2180064206,
				"y": -3.4655937831,
				"z": -2.260726681,
				"element": "O" 
			},
			{
				"x": 2.6072766197,
				"y": -1.3210186084,
				"z": -1.9680102672,
				"element": "O" 
			},
			{
				"x": 2.2975523226,
				"y": -2.9450735811,
				"z": -0.0722650489,
				"element": "N" 
			},
			{
				"x": 2.851452526,
				"y": -2.0737917726,
				"z": 0.9362703451,
				"element": "C" 
			},
			{
				"x": 2.9164505563,
				"y": -2.5744339054,
				"z": 2.3512204071,
				"element": "C" 
			},
			{
				"x": 2.003320208,
				"y": -1.4193942776,
				"z": 2.0077129029,
				"element": "C" 
			},
			{
				"x": -4.7908980753,
				"y": -0.2152960964,
				"z": -0.8132343414,
				"element": "H" 
			},
			{
				"x": -5.1588839921,
				"y": 0.9974788428,
				"z": 0.4438861559,
				"element": "H" 
			},
			{
				"x": -4.5054588914,
				"y": -0.5952921167,
				"z": 0.9110155328,
				"element": "H" 
			},
			{
				"x": -1.7409621156,
				"y": 2.511377986,
				"z": -0.0967911346,
				"element": "H" 
			},
			{
				"x": -0.0950726441,
				"y": 2.5634936179,
				"z": -0.4751725734,
				"element": "H" 
			},
			{
				"x": 1.1964232959,
				"y": 0.4766489116,
				"z": -0.8615882902,
				"element": "H" 
			},
			{
				"x": -1.1227827661,
				"y": -3.126481147,
				"z": -1.197343938,
				"element": "H" 
			},
			{
				"x": -3.1601060471,
				"y": -1.8790071159,
				"z": -0.516822152,
				"element": "H" 
			},
			{
				"x": 1.7605467137,
				"y": -3.7402276551,
				"z": 0.257709734,
				"element": "H" 
			},
			{
				"x": 3.7043513505,
				"y": -1.5178629582,
				"z": 0.5611354504,
				"element": "H" 
			},
			{
				"x": 3.8239337395,
				"y": -2.3859252092,
				"z": 2.9159827278,
				"element": "H" 
			},
			{
				"x": 2.4550692362,
				"y": -3.5341120891,
				"z": 2.5706303001,
				"element": "H" 
			},
			{
				"x": 0.9350763455,
				"y": -1.6097429549,
				"z": 1.991958749,
				"element": "H" 
			},
			{
				"x": 2.2763444646,
				"y": -0.4218074458,
				"z": 2.3380580638,
				"element": "H" 
			}
		],
		 "valence_orbital": [ 
			{
				"type": "occ",
				"energy": -0.29054,
				"method": "rhf"
			},
			{
				"type": "occ",
				"energy": -0.28495,
				"method": "rhf"
			},
			{
				"type": "occ",
				"energy": -0.25446,
				"method": "rhf"
			},
			{
				"type": "occ",
				"energy": -0.24279,
				"method": "rhf"
			},
			{
				"type": "occ",
				"energy": -0.20592,
				"method": "rhf"
			},
			{
				"type": "unocc",
				"energy": -0.01795,
				"method": "rhf"
			},
			{
				"type": "unocc",
				"energy": -0.00192,
				"method": "rhf"
			},
			{
				"type": "unocc",
				"energy": 0.06881,
				"method": "rhf"
			},
			{
				"type": "unocc",
				"energy": 0.07712,
				"method": "rhf"
			},
			{
				"type": "unocc",
				"energy": 0.08077,
				"method": "rhf"
			}
		],
		"cosmo_sigma_profile": { 
			"-0.025": 0.0,
			"-0.024": 0.0,
			"-0.023": 0.0,
			"-0.022": 0.0,
			"-0.021": 0.0,
			"-0.02": 0.0,
			"-0.019": 0.0,
			"-0.018": 0.0,
			"-0.017": 0.0,
			"-0.016": 0.0,
			"-0.015": 0.353616118038,
			"-0.014": 1.15508600108,
			"-0.013": 1.62959292546,
			"-0.012": 3.09942254448,
			"-0.011": 3.66256727549,
			"-0.01": 3.77773198891,
			"-0.009": 3.52512157204,
			"-0.008": 3.92844626083,
			"-0.007": 6.79803370775,
			"-0.006": 15.453983414,
			"-0.005": 23.0524845235,
			"-0.004": 20.9820323415,
			"-0.003": 20.7225032793,
			"-0.002": 13.3311264361,
			"-0.001": 15.9382301351,
			"0.0": 12.8899145233,
			"0.001": 15.9461766541,
			"0.002": 16.9764677561,
			"0.003": 17.1169488843,
			"0.004": 14.3316876887,
			"0.005": 9.0128109148,
			"0.006": 6.79704030527,
			"0.007": 5.16649774426,
			"0.008": 5.15316522075,
			"0.009": 6.31579612904,
			"0.01": 6.69926862713,
			"0.011": 8.91737120528,
			"0.012": 8.33562752221,
			"0.013": 1.2787036496,
			"0.014": 0.267729811481,
			"0.015": 0.0,
			"0.016": 0.0,
			"0.017": 0.0,
			"0.018": 0.0,
			"0.019": 0.0,
			"0.02": 0.0,
			"0.021": 0.0,
			"0.022": 0.0,
			"0.023": 0.0,
			"0.024": 0.0,
			"0.025": 0.0
		}
	}
}
