{
	 "smiles": "OC1=CC=C(C=C1Cl)[N+]([O-])=O", 
	 "Tm": 381.15, 
	 "num_atms": 15, 
	 "gaussian": { 
		 "optdone": 1, 
		 "sigma_profile": "yes", 
		 "theory": "DFT", 
		 "functional": "B3LYP", 
		 "basiset": "6-31G**", 
		 "properties": { 
			 "R2extent": 3451.3612, 
			 "electric_dipole_moment_norm": 5.14110625741, 
			 "electric_quadrupole_moment_norm": 7.59186888388, 
			 "total_energy": -971.556544275, 
			 "HOMO_LUMO_gap": 0.16798, 
			 "cosmo_polarized_energy": -14.15, 
			 "cosmo_cavitation_energy": 22.31, 
			 "cosmo_dispersion_energy": -16.77, 
			 "cosmo_repulsion_energy": 1.35, 
			 "cosmo_total_nonelectrostatic_energy": 6.88, 
			 "SMD_solvation_energy": 6.36 
		},
		"coords": [
			{
				"x": -0.0552319177,
				"y": 1.9144076272,
				"z": -2.148814411,
				"element": "O" 
			},
			{
				"x": 0.5813973594,
				"y": 1.3029625246,
				"z": -1.1271766869,
				"element": "C" 
			},
			{
				"x": -0.0282229854,
				"y": 0.3264466469,
				"z": -0.3251814943,
				"element": "C" 
			},
			{
				"x": 0.6657901588,
				"y": -0.2762036495,
				"z": 0.7156071083,
				"element": "C" 
			},
			{
				"x": 1.98421281,
				"y": 0.1063985456,
				"z": 0.951995548,
				"element": "C" 
			},
			{
				"x": 2.6199129199,
				"y": 1.0738157051,
				"z": 0.1737569211,
				"element": "C" 
			},
			{
				"x": 1.9173189851,
				"y": 1.6695561868,
				"z": -0.8635374543,
				"element": "C" 
			},
			{
				"x": 2.6848450053,
				"y": 2.8825563246,
				"z": -1.8544846913,
				"element": "Cl" 
			},
			{
				"x": 2.7278499341,
				"y": -0.5215889095,
				"z": 2.0468160346,
				"element": "N" 
			},
			{
				"x": 2.1428055076,
				"y": -1.3724602172,
				"z": 2.7180177807,
				"element": "O" 
			},
			{
				"x": 3.8907949476,
				"y": -0.1615974302,
				"z": 2.2295267964,
				"element": "O" 
			},
			{
				"x": -0.9571015618,
				"y": 1.5740011817,
				"z": -2.220864631,
				"element": "H" 
			},
			{
				"x": -1.0581036244,
				"y": 0.0421361382,
				"z": -0.5264510144,
				"element": "H" 
			},
			{
				"x": 0.2084294963,
				"y": -1.0308374499,
				"z": 1.3423499262,
				"element": "H" 
			},
			{
				"x": 3.6453029652,
				"y": 1.3478067758,
				"z": 0.384540268,
				"element": "H" 
			}
		],
		 "valence_orbital": [ 
			{
				"type": "occ",
				"energy": -0.31128,
				"method": "rhf"
			},
			{
				"type": "occ",
				"energy": -0.30923,
				"method": "rhf"
			},
			{
				"type": "occ",
				"energy": -0.29287,
				"method": "rhf"
			},
			{
				"type": "occ",
				"energy": -0.28146,
				"method": "rhf"
			},
			{
				"type": "occ",
				"energy": -0.25796,
				"method": "rhf"
			},
			{
				"type": "unocc",
				"energy": -0.08998,
				"method": "rhf"
			},
			{
				"type": "unocc",
				"energy": -0.04084,
				"method": "rhf"
			},
			{
				"type": "unocc",
				"energy": 0.00133,
				"method": "rhf"
			},
			{
				"type": "unocc",
				"energy": 0.01366,
				"method": "rhf"
			},
			{
				"type": "unocc",
				"energy": 0.03965,
				"method": "rhf"
			}
		],
		"cosmo_sigma_profile": { 
			"-0.025": 0.0,
			"-0.024": 0.0,
			"-0.023": 0.0,
			"-0.022": 0.0,
			"-0.021": 0.0,
			"-0.02": 0.41120655583,
			"-0.019": 1.25045414971,
			"-0.018": 1.3241237513,
			"-0.017": 1.30614255277,
			"-0.016": 1.0836587183,
			"-0.015": 0.850477461745,
			"-0.014": 0.777047518659,
			"-0.013": 1.62399132797,
			"-0.012": 0.698722857418,
			"-0.011": 1.15909507031,
			"-0.01": 1.25490867013,
			"-0.009": 1.72865827615,
			"-0.008": 4.40449037452,
			"-0.007": 5.05862199671,
			"-0.006": 5.49067116689,
			"-0.005": 5.525538693,
			"-0.004": 7.28594836802,
			"-0.003": 7.33752515269,
			"-0.002": 11.5012089003,
			"-0.001": 19.5028727467,
			"0.0": 19.4536293069,
			"0.001": 11.6550578112,
			"0.002": 8.91914649725,
			"0.003": 9.49961800348,
			"0.004": 11.1603501135,
			"0.005": 5.88112613965,
			"0.006": 5.60431456634,
			"0.007": 8.41419475174,
			"0.008": 10.2093950217,
			"0.009": 6.89145650104,
			"0.01": 4.03634074887,
			"0.011": 0.32919767018,
			"0.012": 0.0,
			"0.013": 0.0,
			"0.014": 0.0,
			"0.015": 0.0,
			"0.016": 0.0,
			"0.017": 0.0,
			"0.018": 0.0,
			"0.019": 0.0,
			"0.02": 0.0,
			"0.021": 0.0,
			"0.022": 0.0,
			"0.023": 0.0,
			"0.024": 0.0,
			"0.025": 0.0
		}
	}
}
