{
	 "smiles": "NC1=NON=C1C1=CC(Cl)=C(Cl)C=C1", 
	 "Tm": 417.15, 
	 "num_atms": 19, 
	 "gaussian": { 
		 "optdone": 1, 
		 "sigma_profile": "yes", 
		 "theory": "DFT", 
		 "functional": "B3LYP", 
		 "basiset": "6-31G**", 
		 "properties": { 
			 "R2extent": 4756.4385, 
			 "electric_dipole_moment_norm": 2.70192831326, 
			 "electric_quadrupole_moment_norm": 25.4978644125, 
			 "total_energy": -1467.6430713, 
			 "HOMO_LUMO_gap": 0.18313, 
			 "cosmo_polarized_energy": -12.89, 
			 "cosmo_cavitation_energy": 27.93, 
			 "cosmo_dispersion_energy": -20.9, 
			 "cosmo_repulsion_energy": 1.64, 
			 "cosmo_total_nonelectrostatic_energy": 8.67, 
			 "SMD_solvation_energy": 3.88 
		},
		"coords": [
			{
				"x": -0.5295997092,
				"y": -2.3572960745,
				"z": 3.5001956644,
				"element": "N" 
			},
			{
				"x": -0.227701537,
				"y": -2.8451330272,
				"z": 2.241575469,
				"element": "C" 
			},
			{
				"x": -0.1775378459,
				"y": -4.1252527086,
				"z": 1.966427108,
				"element": "N" 
			},
			{
				"x": 0.0882439171,
				"y": -4.194643863,
				"z": 0.6093889388,
				"element": "O" 
			},
			{
				"x": 0.2187092591,
				"y": -2.9547953941,
				"z": 0.0636891601,
				"element": "N" 
			},
			{
				"x": 0.0231658999,
				"y": -2.0945450427,
				"z": 1.0353079046,
				"element": "C" 
			},
			{
				"x": 0.09159402,
				"y": -0.6426177248,
				"z": 0.8205649831,
				"element": "C" 
			},
			{
				"x": -0.6040610499,
				"y": 0.2387847812,
				"z": 1.6587138383,
				"element": "C" 
			},
			{
				"x": -0.5429337012,
				"y": 1.6172030419,
				"z": 1.4473146803,
				"element": "C" 
			},
			{
				"x": -1.4312195675,
				"y": 2.6652568903,
				"z": 2.5245994651,
				"element": "Cl" 
			},
			{
				"x": 0.2142743008,
				"y": 2.1304282117,
				"z": 0.3865393846,
				"element": "C" 
			},
			{
				"x": 0.3267672866,
				"y": 3.8441713195,
				"z": 0.0888937166,
				"element": "Cl" 
			},
			{
				"x": 0.9003642845,
				"y": 1.250299103,
				"z": -0.4573107505,
				"element": "C" 
			},
			{
				"x": 0.8437398363,
				"y": -0.1203011723,
				"z": -0.2447650234,
				"element": "C" 
			},
			{
				"x": -0.5371177504,
				"y": -3.0802564245,
				"z": 4.2098021289,
				"element": "H" 
			},
			{
				"x": 0.0240688535,
				"y": -1.5576703902,
				"z": 3.7813962671,
				"element": "H" 
			},
			{
				"x": -1.2247370316,
				"y": -0.1387560064,
				"z": 2.4631652921,
				"element": "H" 
			},
			{
				"x": 1.482750707,
				"y": 1.6563999979,
				"z": -1.2767405914,
				"element": "H" 
			},
			{
				"x": 1.3815298278,
				"y": -0.7962755173,
				"z": -0.8999576355,
				"element": "H" 
			}
		],
		 "valence_orbital": [ 
			{
				"type": "occ",
				"energy": -0.31729,
				"method": "rhf"
			},
			{
				"type": "occ",
				"energy": -0.31584,
				"method": "rhf"
			},
			{
				"type": "occ",
				"energy": -0.27708,
				"method": "rhf"
			},
			{
				"type": "occ",
				"energy": -0.26724,
				"method": "rhf"
			},
			{
				"type": "occ",
				"energy": -0.24996,
				"method": "rhf"
			},
			{
				"type": "unocc",
				"energy": -0.06683,
				"method": "rhf"
			},
			{
				"type": "unocc",
				"energy": -0.03933,
				"method": "rhf"
			},
			{
				"type": "unocc",
				"energy": -0.02108,
				"method": "rhf"
			},
			{
				"type": "unocc",
				"energy": -0.00792,
				"method": "rhf"
			},
			{
				"type": "unocc",
				"energy": 0.0491,
				"method": "rhf"
			}
		],
		"cosmo_sigma_profile": { 
			"-0.025": 0.0,
			"-0.024": 0.0,
			"-0.023": 0.0,
			"-0.022": 0.0,
			"-0.021": 0.0,
			"-0.02": 0.0,
			"-0.019": 0.0,
			"-0.018": 0.0,
			"-0.017": 0.0,
			"-0.016": 0.0,
			"-0.015": 0.204505822757,
			"-0.014": 2.28178724922,
			"-0.013": 2.94588139605,
			"-0.012": 3.0378321276,
			"-0.011": 3.72187314679,
			"-0.01": 2.33908898596,
			"-0.009": 1.6395302833,
			"-0.008": 4.68069887098,
			"-0.007": 6.31921293742,
			"-0.006": 6.5985412372,
			"-0.005": 6.65985856243,
			"-0.004": 7.86745732435,
			"-0.003": 11.8413036663,
			"-0.002": 13.9598262668,
			"-0.001": 17.6885889259,
			"0.0": 25.8306177066,
			"0.001": 22.1639149517,
			"0.002": 16.1833894007,
			"0.003": 19.3912988288,
			"0.004": 16.418137635,
			"0.005": 9.07710192854,
			"0.006": 9.13151818514,
			"0.007": 6.68767815105,
			"0.008": 3.46108319493,
			"0.009": 3.08300697184,
			"0.01": 2.41572884483,
			"0.011": 2.43005724795,
			"0.012": 1.25918024744,
			"0.013": 0.387847289435,
			"0.014": 0.0,
			"0.015": 0.0,
			"0.016": 0.0,
			"0.017": 0.0,
			"0.018": 0.0,
			"0.019": 0.0,
			"0.02": 0.0,
			"0.021": 0.0,
			"0.022": 0.0,
			"0.023": 0.0,
			"0.024": 0.0,
			"0.025": 0.0
		}
	}
}
