{
	 "smiles": "CC1=CC(C)=C2C(CC3CCCCN3C2=O)=C1", 
	 "Tm": 375.15, 
	 "num_atms": 36, 
	 "gaussian": { 
		 "optdone": 1, 
		 "sigma_profile": "yes", 
		 "theory": "DFT", 
		 "functional": "B3LYP", 
		 "basiset": "6-31G**", 
		 "properties": { 
			 "R2extent": 4987.658, 
			 "electric_dipole_moment_norm": 3.60345664051, 
			 "electric_quadrupole_moment_norm": 13.5773868797, 
			 "total_energy": -713.071054318, 
			 "HOMO_LUMO_gap": 0.19759, 
			 "cosmo_polarized_energy": -9.63, 
			 "cosmo_cavitation_energy": 35.47, 
			 "cosmo_dispersion_energy": -26.11, 
			 "cosmo_repulsion_energy": 2.0, 
			 "cosmo_total_nonelectrostatic_energy": 11.37, 
			 "SMD_solvation_energy": 4.9 
		},
		"coords": [
			{
				"x": 1.8514970155,
				"y": -4.0366842495,
				"z": -0.2405121504,
				"element": "C" 
			},
			{
				"x": 0.8508991224,
				"y": -2.9064075854,
				"z": -0.2075184792,
				"element": "C" 
			},
			{
				"x": -0.4565913778,
				"y": -3.0909282036,
				"z": -0.6685536771,
				"element": "C" 
			},
			{
				"x": -1.4070842481,
				"y": -2.0638079499,
				"z": -0.6887966592,
				"element": "C" 
			},
			{
				"x": -2.7886150165,
				"y": -2.3777441836,
				"z": -1.2143568819,
				"element": "C" 
			},
			{
				"x": -1.022043976,
				"y": -0.789570571,
				"z": -0.2052313652,
				"element": "C" 
			},
			{
				"x": 0.2876672771,
				"y": -0.5938817285,
				"z": 0.275407884,
				"element": "C" 
			},
			{
				"x": 0.6744282939,
				"y": 0.7730833063,
				"z": 0.78643552,
				"element": "C" 
			},
			{
				"x": -0.5074935848,
				"y": 1.444291297,
				"z": 1.480720337,
				"element": "C" 
			},
			{
				"x": -0.1969624853,
				"y": 2.8807890796,
				"z": 1.9166462762,
				"element": "C" 
			},
			{
				"x": -1.3837214674,
				"y": 3.5428702335,
				"z": 2.6482106218,
				"element": "C" 
			},
			{
				"x": -2.7400539561,
				"y": 3.0441957815,
				"z": 2.0939569963,
				"element": "C" 
			},
			{
				"x": -2.6186624329,
				"y": 2.5590543201,
				"z": 0.6478711771,
				"element": "C" 
			},
			{
				"x": -1.6567879155,
				"y": 1.4519506097,
				"z": 0.5585121207,
				"element": "N" 
			},
			{
				"x": -1.9784987262,
				"y": 0.3669928928,
				"z": -0.2279095152,
				"element": "C" 
			},
			{
				"x": -2.9995297445,
				"y": 0.3644061637,
				"z": -0.9202682396,
				"element": "O" 
			},
			{
				"x": 1.206846474,
				"y": -1.6419617639,
				"z": 0.2687559092,
				"element": "C" 
			},
			{
				"x": 2.3840814388,
				"y": -4.0627284525,
				"z": -1.1996532056,
				"element": "H" 
			},
			{
				"x": 2.6046140176,
				"y": -3.9290278917,
				"z": 0.5459383206,
				"element": "H" 
			},
			{
				"x": 1.363289421,
				"y": -5.0077765376,
				"z": -0.1149454073,
				"element": "H" 
			},
			{
				"x": -0.752050087,
				"y": -4.0743466739,
				"z": -1.0275259315,
				"element": "H" 
			},
			{
				"x": -2.8830500279,
				"y": -3.4518755503,
				"z": -1.4004204965,
				"element": "H" 
			},
			{
				"x": -3.5696958301,
				"y": -2.0679185365,
				"z": -0.5158877345,
				"element": "H" 
			},
			{
				"x": -2.9912473321,
				"y": -1.8353527831,
				"z": -2.1409353825,
				"element": "H" 
			},
			{
				"x": 1.0006660655,
				"y": 1.4110759438,
				"z": -0.0483028961,
				"element": "H" 
			},
			{
				"x": 1.5178253363,
				"y": 0.6963048783,
				"z": 1.4812005143,
				"element": "H" 
			},
			{
				"x": -0.7591495791,
				"y": 0.8519522183,
				"z": 2.3777241121,
				"element": "H" 
			},
			{
				"x": 0.6939246004,
				"y": 2.8740672189,
				"z": 2.5541789983,
				"element": "H" 
			},
			{
				"x": 0.0645785393,
				"y": 3.4573143165,
				"z": 1.020534352,
				"element": "H" 
			},
			{
				"x": -1.3273661243,
				"y": 3.3329215485,
				"z": 3.7222349015,
				"element": "H" 
			},
			{
				"x": -1.3049004357,
				"y": 4.6306067813,
				"z": 2.5431730955,
				"element": "H" 
			},
			{
				"x": -3.4959585014,
				"y": 3.8346939048,
				"z": 2.1495678434,
				"element": "H" 
			},
			{
				"x": -3.1131178425,
				"y": 2.2132912857,
				"z": 2.7042906709,
				"element": "H" 
			},
			{
				"x": -2.3070687837,
				"y": 3.3856539867,
				"z": -0.0073803372,
				"element": "H" 
			},
			{
				"x": -3.5687364713,
				"y": 2.1874907087,
				"z": 0.2621228045,
				"element": "H" 
			},
			{
				"x": 2.212468344,
				"y": -1.4706938145,
				"z": 0.6473159035,
				"element": "H" 
			}
		],
		 "valence_orbital": [ 
			{
				"type": "occ",
				"energy": -0.31231,
				"method": "rhf"
			},
			{
				"type": "occ",
				"energy": -0.23919,
				"method": "rhf"
			},
			{
				"type": "occ",
				"energy": -0.23476,
				"method": "rhf"
			},
			{
				"type": "occ",
				"energy": -0.23284,
				"method": "rhf"
			},
			{
				"type": "occ",
				"energy": -0.223,
				"method": "rhf"
			},
			{
				"type": "unocc",
				"energy": -0.02541,
				"method": "rhf"
			},
			{
				"type": "unocc",
				"energy": 0.00402,
				"method": "rhf"
			},
			{
				"type": "unocc",
				"energy": 0.06626,
				"method": "rhf"
			},
			{
				"type": "unocc",
				"energy": 0.077,
				"method": "rhf"
			},
			{
				"type": "unocc",
				"energy": 0.10337,
				"method": "rhf"
			}
		],
		"cosmo_sigma_profile": { 
			"-0.025": 0.0,
			"-0.024": 0.0,
			"-0.023": 0.0,
			"-0.022": 0.0,
			"-0.021": 0.0,
			"-0.02": 0.0,
			"-0.019": 0.0,
			"-0.018": 0.0,
			"-0.017": 0.0,
			"-0.016": 0.0,
			"-0.015": 0.0,
			"-0.014": 0.0,
			"-0.013": 0.0,
			"-0.012": 0.0,
			"-0.011": 0.0,
			"-0.01": 0.0,
			"-0.009": 0.0,
			"-0.008": 0.0,
			"-0.007": 0.0,
			"-0.006": 0.0814821697778,
			"-0.005": 6.19269989095,
			"-0.004": 24.7028054369,
			"-0.003": 42.1252430374,
			"-0.002": 43.8746851328,
			"-0.001": 38.5766951145,
			"0.0": 34.6301700206,
			"0.001": 23.7160785319,
			"0.002": 11.6032481014,
			"0.003": 9.34175007406,
			"0.004": 9.05317023376,
			"0.005": 11.2017203035,
			"0.006": 4.95422016948,
			"0.007": 1.91128688287,
			"0.008": 1.74120560577,
			"0.009": 1.66710237128,
			"0.01": 1.61356178192,
			"0.011": 1.49354514137,
			"0.012": 2.0093895488,
			"0.013": 1.6992563646,
			"0.014": 3.34240359682,
			"0.015": 1.25688491762,
			"0.016": 0.0,
			"0.017": 0.0,
			"0.018": 0.0,
			"0.019": 0.0,
			"0.02": 0.0,
			"0.021": 0.0,
			"0.022": 0.0,
			"0.023": 0.0,
			"0.024": 0.0,
			"0.025": 0.0
		}
	}
}
