{
	 "smiles": "OC(=O)C1=CC(=NO1)C1=CC=C(C=C1)C(F)(F)F", 
	 "Tm": 603.15, 
	 "num_atms": 24, 
	 "gaussian": { 
		 "optdone": 1, 
		 "sigma_profile": "yes", 
		 "theory": "DFT", 
		 "functional": "B3LYP", 
		 "basiset": "6-31G**", 
		 "properties": { 
			 "R2extent": 7260.1118, 
			 "electric_dipole_moment_norm": 4.18205581264, 
			 "electric_quadrupole_moment_norm": 27.8812661646, 
			 "total_energy": -1002.68429532, 
			 "HOMO_LUMO_gap": 0.18644, 
			 "cosmo_polarized_energy": -19.96, 
			 "cosmo_cavitation_energy": 32.01, 
			 "cosmo_dispersion_energy": -22.88, 
			 "cosmo_repulsion_energy": 1.67, 
			 "cosmo_total_nonelectrostatic_energy": 10.8, 
			 "SMD_solvation_energy": 7.95 
		},
		"coords": [
			{
				"x": -2.9447087228,
				"y": 0.8982802685,
				"z": 4.3524191616,
				"element": "O" 
			},
			{
				"x": -2.5479089248,
				"y": 1.9885537286,
				"z": 3.6492997803,
				"element": "C" 
			},
			{
				"x": -2.9358660255,
				"y": 3.0935900427,
				"z": 3.9222705862,
				"element": "O" 
			},
			{
				"x": -1.6288518178,
				"y": 1.6983318766,
				"z": 2.5126188279,
				"element": "C" 
			},
			{
				"x": -1.3497985036,
				"y": 0.5723248106,
				"z": 1.7933877412,
				"element": "C" 
			},
			{
				"x": -0.4152896138,
				"y": 1.0150777535,
				"z": 0.8071752441,
				"element": "C" 
			},
			{
				"x": -0.1689127846,
				"y": 2.3069380658,
				"z": 0.9506315712,
				"element": "N" 
			},
			{
				"x": -0.9328425723,
				"y": 2.7398549887,
				"z": 2.0150665104,
				"element": "O" 
			},
			{
				"x": 0.2415929263,
				"y": 0.2426840886,
				"z": -0.2618966329,
				"element": "C" 
			},
			{
				"x": 0.035060682,
				"y": -1.1388946486,
				"z": -0.3806480899,
				"element": "C" 
			},
			{
				"x": 0.6587837381,
				"y": -1.8649350949,
				"z": -1.3919433694,
				"element": "C" 
			},
			{
				"x": 1.4999542389,
				"y": -1.2153975694,
				"z": -2.296887443,
				"element": "C" 
			},
			{
				"x": 1.7150538839,
				"y": 0.1623636429,
				"z": -2.1864165175,
				"element": "C" 
			},
			{
				"x": 1.0912669888,
				"y": 0.8863128617,
				"z": -1.1775611037,
				"element": "C" 
			},
			{
				"x": 2.13186768,
				"y": -1.9850641729,
				"z": -3.4265178036,
				"element": "C" 
			},
			{
				"x": 1.3633921422,
				"y": -1.9504276625,
				"z": -4.5391137814,
				"element": "F" 
			},
			{
				"x": 2.3094438474,
				"y": -3.2862929994,
				"z": -3.1098324016,
				"element": "F" 
			},
			{
				"x": 3.3368084093,
				"y": -1.4775645353,
				"z": -3.7644547138,
				"element": "F" 
			},
			{
				"x": -2.4258666646,
				"y": 0.1198806084,
				"z": 4.1044122006,
				"element": "H" 
			},
			{
				"x": -1.769976108,
				"y": -0.414866623,
				"z": 1.9118768242,
				"element": "H" 
			},
			{
				"x": -0.6107168585,
				"y": -1.6590770119,
				"z": 0.3195074639,
				"element": "H" 
			},
			{
				"x": 0.5003197572,
				"y": -2.9344837145,
				"z": -1.4733861644,
				"element": "H" 
			},
			{
				"x": 2.3757577977,
				"y": 0.662751475,
				"z": -2.8859713058,
				"element": "H" 
			},
			{
				"x": 1.2561365045,
				"y": 1.9540598207,
				"z": -1.0869365847,
				"element": "H" 
			}
		],
		 "valence_orbital": [ 
			{
				"type": "occ",
				"energy": -0.33128,
				"method": "rhf"
			},
			{
				"type": "occ",
				"energy": -0.30492,
				"method": "rhf"
			},
			{
				"type": "occ",
				"energy": -0.29816,
				"method": "rhf"
			},
			{
				"type": "occ",
				"energy": -0.28414,
				"method": "rhf"
			},
			{
				"type": "occ",
				"energy": -0.26914,
				"method": "rhf"
			},
			{
				"type": "unocc",
				"energy": -0.0827,
				"method": "rhf"
			},
			{
				"type": "unocc",
				"energy": -0.06191,
				"method": "rhf"
			},
			{
				"type": "unocc",
				"energy": -0.03248,
				"method": "rhf"
			},
			{
				"type": "unocc",
				"energy": 0.02344,
				"method": "rhf"
			},
			{
				"type": "unocc",
				"energy": 0.03903,
				"method": "rhf"
			}
		],
		"cosmo_sigma_profile": { 
			"-0.025": 0.0,
			"-0.024": 0.0,
			"-0.023": 0.0,
			"-0.022": 0.0,
			"-0.021": 0.0,
			"-0.02": 0.470909024565,
			"-0.019": 1.00000067503,
			"-0.018": 1.2888654617,
			"-0.017": 1.44628605938,
			"-0.016": 1.27511859693,
			"-0.015": 1.43159020292,
			"-0.014": 0.839464679864,
			"-0.013": 1.10559117691,
			"-0.012": 2.31021636131,
			"-0.011": 2.83229907086,
			"-0.01": 2.68400458065,
			"-0.009": 2.45384759165,
			"-0.008": 4.55271536993,
			"-0.007": 7.06296053526,
			"-0.006": 10.2130953727,
			"-0.005": 10.4627121521,
			"-0.004": 9.0308022822,
			"-0.003": 12.4478744002,
			"-0.002": 14.2511767671,
			"-0.001": 15.7800656944,
			"0.0": 19.1250761739,
			"0.001": 21.6723590698,
			"0.002": 34.9008358301,
			"0.003": 30.3340331009,
			"0.004": 5.63339904623,
			"0.005": 4.01401560331,
			"0.006": 7.23994409015,
			"0.007": 7.31848264727,
			"0.008": 5.37600456582,
			"0.009": 6.84488634415,
			"0.01": 7.01663185444,
			"0.011": 5.2694778905,
			"0.012": 0.906063489863,
			"0.013": 0.0,
			"0.014": 0.0,
			"0.015": 0.0,
			"0.016": 0.0,
			"0.017": 0.0,
			"0.018": 0.0,
			"0.019": 0.0,
			"0.02": 0.0,
			"0.021": 0.0,
			"0.022": 0.0,
			"0.023": 0.0,
			"0.024": 0.0,
			"0.025": 0.0
		}
	}
}
