{
	 "smiles": "CC(C)C1=CC(C(C)C)=C(C(O)=O)C(=C1)C(C)C", 
	 "Tm": 458.65, 
	 "num_atms": 42, 
	 "gaussian": { 
		 "optdone": 1, 
		 "sigma_profile": "yes", 
		 "theory": "DFT", 
		 "functional": "B3LYP", 
		 "basiset": "6-31G**", 
		 "properties": { 
			 "R2extent": 5587.1708, 
			 "electric_dipole_moment_norm": 4.06166909534, 
			 "electric_quadrupole_moment_norm": 10.1619268134, 
			 "total_energy": -774.653773996, 
			 "HOMO_LUMO_gap": 0.22606, 
			 "cosmo_polarized_energy": -11.36, 
			 "cosmo_cavitation_energy": 41.15, 
			 "cosmo_dispersion_energy": -27.62, 
			 "cosmo_repulsion_energy": 2.18, 
			 "cosmo_total_nonelectrostatic_energy": 15.71, 
			 "SMD_solvation_energy": 7.82 
		},
		"coords": [
			{
				"x": -1.3296200729,
				"y": 3.0295138513,
				"z": -1.7989638942,
				"element": "C" 
			},
			{
				"x": -2.2879314641,
				"y": 1.9684269899,
				"z": -1.2255244997,
				"element": "C" 
			},
			{
				"x": -3.4292013714,
				"y": 2.6263747008,
				"z": -0.4270212443,
				"element": "C" 
			},
			{
				"x": -1.5480932942,
				"y": 0.9248645223,
				"z": -0.3996139119,
				"element": "C" 
			},
			{
				"x": -0.8533890691,
				"y": 1.2687208498,
				"z": 0.7628235936,
				"element": "C" 
			},
			{
				"x": -0.1707285263,
				"y": 0.3274615574,
				"z": 1.5417611203,
				"element": "C" 
			},
			{
				"x": 0.6119870546,
				"y": 0.8642108846,
				"z": 2.7468956738,
				"element": "C" 
			},
			{
				"x": 2.1370258426,
				"y": 0.8105200958,
				"z": 2.5153193965,
				"element": "C" 
			},
			{
				"x": 0.2239215559,
				"y": 0.2614690101,
				"z": 4.1119521061,
				"element": "C" 
			},
			{
				"x": -0.2050655305,
				"y": -1.0295432318,
				"z": 1.1328670361,
				"element": "C" 
			},
			{
				"x": 0.4948095938,
				"y": -2.0773222443,
				"z": 1.9679734875,
				"element": "C" 
			},
			{
				"x": -0.2829105346,
				"y": -2.6657649802,
				"z": 2.9212096603,
				"element": "O" 
			},
			{
				"x": 1.6485620975,
				"y": -2.4157165391,
				"z": 1.8567896118,
				"element": "O" 
			},
			{
				"x": -0.8694865152,
				"y": -1.4100873217,
				"z": -0.0576163878,
				"element": "C" 
			},
			{
				"x": -1.5312361715,
				"y": -0.4142117726,
				"z": -0.7887367706,
				"element": "C" 
			},
			{
				"x": -0.8760941269,
				"y": -2.8237187979,
				"z": -0.6531793409,
				"element": "C" 
			},
			{
				"x": -1.4966997297,
				"y": -3.9149667991,
				"z": 0.2422353757,
				"element": "C" 
			},
			{
				"x": 0.5149235751,
				"y": -3.24074616,
				"z": -1.1756435139,
				"element": "C" 
			},
			{
				"x": -0.8523649829,
				"y": 3.6080552927,
				"z": -1.0004904266,
				"element": "H" 
			},
			{
				"x": -1.8726356973,
				"y": 3.7330364456,
				"z": -2.4393675717,
				"element": "H" 
			},
			{
				"x": -0.5369300477,
				"y": 2.5671874085,
				"z": -2.3951229523,
				"element": "H" 
			},
			{
				"x": -2.741590888,
				"y": 1.441128702,
				"z": -2.0749869653,
				"element": "H" 
			},
			{
				"x": -3.9851038996,
				"y": 3.32919871,
				"z": -1.0570071732,
				"element": "H" 
			},
			{
				"x": -4.132628224,
				"y": 1.8777484245,
				"z": -0.0493093429,
				"element": "H" 
			},
			{
				"x": -3.0427883078,
				"y": 3.185238042,
				"z": 0.4323472964,
				"element": "H" 
			},
			{
				"x": -0.8293149599,
				"y": 2.3080751742,
				"z": 1.0807844856,
				"element": "H" 
			},
			{
				"x": 0.343645318,
				"y": 1.9264151315,
				"z": 2.804306331,
				"element": "H" 
			},
			{
				"x": 2.4986956929,
				"y": -0.2168250757,
				"z": 2.4351490673,
				"element": "H" 
			},
			{
				"x": 2.6595392667,
				"y": 1.2960666218,
				"z": 3.34707509,
				"element": "H" 
			},
			{
				"x": 2.4075663512,
				"y": 1.3351850532,
				"z": 1.593557442,
				"element": "H" 
			},
			{
				"x": 0.6840751646,
				"y": 0.8506930385,
				"z": 4.9121892061,
				"element": "H" 
			},
			{
				"x": 0.5606669569,
				"y": -0.7697603432,
				"z": 4.2353317118,
				"element": "H" 
			},
			{
				"x": -0.860985835,
				"y": 0.288855828,
				"z": 4.2641907056,
				"element": "H" 
			},
			{
				"x": -1.1720569553,
				"y": -2.2834891154,
				"z": 2.8786388143,
				"element": "H" 
			},
			{
				"x": -2.0472409288,
				"y": -0.7012821886,
				"z": -1.7023936598,
				"element": "H" 
			},
			{
				"x": -1.5291323087,
				"y": -2.7536822401,
				"z": -1.5318681804,
				"element": "H" 
			},
			{
				"x": -0.8682820023,
				"y": -4.1735573663,
				"z": 1.0968568502,
				"element": "H" 
			},
			{
				"x": -2.4790330831,
				"y": -3.6076668321,
				"z": 0.618622762,
				"element": "H" 
			},
			{
				"x": -1.6396050496,
				"y": -4.8285288146,
				"z": -0.3445269489,
				"element": "H" 
			},
			{
				"x": 0.8977276683,
				"y": -2.50425185,
				"z": -1.889144932,
				"element": "H" 
			},
			{
				"x": 0.4475639197,
				"y": -4.2062812741,
				"z": -1.6892043387,
				"element": "H" 
			},
			{
				"x": 1.2427395187,
				"y": -3.3328433878,
				"z": -0.366654769,
				"element": "H" 
			}
		],
		 "valence_orbital": [ 
			{
				"type": "occ",
				"energy": -0.31712,
				"method": "rhf"
			},
			{
				"type": "occ",
				"energy": -0.3114,
				"method": "rhf"
			},
			{
				"type": "occ",
				"energy": -0.27545,
				"method": "rhf"
			},
			{
				"type": "occ",
				"energy": -0.24489,
				"method": "rhf"
			},
			{
				"type": "occ",
				"energy": -0.24189,
				"method": "rhf"
			},
			{
				"type": "unocc",
				"energy": -0.01583,
				"method": "rhf"
			},
			{
				"type": "unocc",
				"energy": -0.0066,
				"method": "rhf"
			},
			{
				"type": "unocc",
				"energy": 0.00202,
				"method": "rhf"
			},
			{
				"type": "unocc",
				"energy": 0.06218,
				"method": "rhf"
			},
			{
				"type": "unocc",
				"energy": 0.08103,
				"method": "rhf"
			}
		],
		"cosmo_sigma_profile": { 
			"-0.025": 0.0,
			"-0.024": 0.0,
			"-0.023": 0.0,
			"-0.022": 0.0,
			"-0.021": 0.0,
			"-0.02": 0.0,
			"-0.019": 0.0,
			"-0.018": 0.283051660053,
			"-0.017": 0.943791695176,
			"-0.016": 0.0684640322324,
			"-0.015": 0.697037833133,
			"-0.014": 0.714343452406,
			"-0.013": 0.412716210035,
			"-0.012": 0.958792468416,
			"-0.011": 1.16154971556,
			"-0.01": 1.00687731372,
			"-0.009": 1.47649414293,
			"-0.008": 0.903261916159,
			"-0.007": 1.5058720567,
			"-0.006": 1.63453354532,
			"-0.005": 7.43778972427,
			"-0.004": 11.3893581862,
			"-0.003": 32.2204007428,
			"-0.002": 41.8369295222,
			"-0.001": 45.457143508,
			"0.0": 44.2884649232,
			"0.001": 51.2522835048,
			"0.002": 20.6859493627,
			"0.003": 9.9182758889,
			"0.004": 9.53576932109,
			"0.005": 9.72660950016,
			"0.006": 3.67920226144,
			"0.007": 2.99907591911,
			"0.008": 2.6895078469,
			"0.009": 3.41545122321,
			"0.01": 3.92185533706,
			"0.011": 4.16832262316,
			"0.012": 2.71783076924,
			"0.013": 0.539345743676,
			"0.014": 0.0,
			"0.015": 0.0,
			"0.016": 0.0,
			"0.017": 0.0,
			"0.018": 0.0,
			"0.019": 0.0,
			"0.02": 0.0,
			"0.021": 0.0,
			"0.022": 0.0,
			"0.023": 0.0,
			"0.024": 0.0,
			"0.025": 0.0
		}
	}
}
