{
	 "smiles": "NC1=CC(F)=CC(F)=C1", 
	 "Tm": 312.15, 
	 "num_atms": 14, 
	 "gaussian": { 
		 "optdone": 1, 
		 "sigma_profile": "yes", 
		 "theory": "DFT", 
		 "functional": "B3LYP", 
		 "basiset": "6-31G**", 
		 "properties": { 
			 "R2extent": 1938.6338, 
			 "electric_dipole_moment_norm": 3.06583552886, 
			 "electric_quadrupole_moment_norm": 7.45895165556, 
			 "total_energy": -486.07367058, 
			 "HOMO_LUMO_gap": 0.2204, 
			 "cosmo_polarized_energy": -8.01, 
			 "cosmo_cavitation_energy": 19.18, 
			 "cosmo_dispersion_energy": -14.1, 
			 "cosmo_repulsion_energy": 1.12, 
			 "cosmo_total_nonelectrostatic_energy": 6.19, 
			 "SMD_solvation_energy": 4.38 
		},
		"coords": [
			{
				"x": -1.0945934686,
				"y": 1.2027470563,
				"z": -2.6184670839,
				"element": "N" 
			},
			{
				"x": -0.1691120718,
				"y": 0.3325715776,
				"z": -2.0544455638,
				"element": "C" 
			},
			{
				"x": -0.0664952658,
				"y": -0.9923227818,
				"z": -2.515752221,
				"element": "C" 
			},
			{
				"x": 0.9057260787,
				"y": -1.8193293642,
				"z": -1.9721882839,
				"element": "C" 
			},
			{
				"x": 0.9900225029,
				"y": -3.087769004,
				"z": -2.4239755003,
				"element": "F" 
			},
			{
				"x": 1.7940976219,
				"y": -1.4098371416,
				"z": -0.9837500537,
				"element": "C" 
			},
			{
				"x": 1.6624340175,
				"y": -0.0943308804,
				"z": -0.5524728686,
				"element": "C" 
			},
			{
				"x": 2.4989999254,
				"y": 0.3521609483,
				"z": 0.4071926766,
				"element": "F" 
			},
			{
				"x": 0.712202909,
				"y": 0.7827917276,
				"z": -1.0548114877,
				"element": "C" 
			},
			{
				"x": -1.3514778496,
				"y": 1.9991318641,
				"z": -2.053016119,
				"element": "H" 
			},
			{
				"x": -1.8906605157,
				"y": 0.7700405127,
				"z": -3.0645592118,
				"element": "H" 
			},
			{
				"x": -0.7237463592,
				"y": -1.3756743998,
				"z": -3.2886110298,
				"element": "H" 
			},
			{
				"x": 2.5427276631,
				"y": -2.0750367956,
				"z": -0.5745276755,
				"element": "H" 
			},
			{
				"x": 0.6685748123,
				"y": 1.7982566807,
				"z": -0.6764155775,
				"element": "H" 
			}
		],
		 "valence_orbital": [ 
			{
				"type": "occ",
				"energy": -0.36813,
				"method": "rhf"
			},
			{
				"type": "occ",
				"energy": -0.36208,
				"method": "rhf"
			},
			{
				"type": "occ",
				"energy": -0.30463,
				"method": "rhf"
			},
			{
				"type": "occ",
				"energy": -0.24181,
				"method": "rhf"
			},
			{
				"type": "occ",
				"energy": -0.21494,
				"method": "rhf"
			},
			{
				"type": "unocc",
				"energy": 0.00546,
				"method": "rhf"
			},
			{
				"type": "unocc",
				"energy": 0.00883,
				"method": "rhf"
			},
			{
				"type": "unocc",
				"energy": 0.07211,
				"method": "rhf"
			},
			{
				"type": "unocc",
				"energy": 0.09286,
				"method": "rhf"
			},
			{
				"type": "unocc",
				"energy": 0.11084,
				"method": "rhf"
			}
		],
		"cosmo_sigma_profile": { 
			"-0.025": 0.0,
			"-0.024": 0.0,
			"-0.023": 0.0,
			"-0.022": 0.0,
			"-0.021": 0.0,
			"-0.02": 0.0,
			"-0.019": 0.0,
			"-0.018": 0.0,
			"-0.017": 0.0,
			"-0.016": 0.0,
			"-0.015": 0.0,
			"-0.014": 0.0317380221843,
			"-0.013": 2.07705912281,
			"-0.012": 2.7075344302,
			"-0.011": 3.19067159768,
			"-0.01": 2.67404239535,
			"-0.009": 3.5601941884,
			"-0.008": 4.13684781581,
			"-0.007": 6.16584500819,
			"-0.006": 5.11703214786,
			"-0.005": 5.00215393459,
			"-0.004": 4.38903189827,
			"-0.003": 3.96323411395,
			"-0.002": 5.53107414969,
			"-0.001": 4.62195289075,
			"0.0": 6.00420910616,
			"0.001": 12.6559233498,
			"0.002": 17.2578431151,
			"0.003": 18.4263204304,
			"0.004": 29.2498003799,
			"0.005": 10.4797952771,
			"0.006": 1.29897027468,
			"0.007": 0.851023241301,
			"0.008": 0.773761503627,
			"0.009": 0.48360484108,
			"0.01": 0.710515335991,
			"0.011": 0.810793774037,
			"0.012": 0.599162799315,
			"0.013": 0.541539525535,
			"0.014": 0.112841537245,
			"0.015": 0.0,
			"0.016": 0.0,
			"0.017": 0.0,
			"0.018": 0.0,
			"0.019": 0.0,
			"0.02": 0.0,
			"0.021": 0.0,
			"0.022": 0.0,
			"0.023": 0.0,
			"0.024": 0.0,
			"0.025": 0.0
		}
	}
}
