{
	 "smiles": "OC(=O)CC(=O)NCC#C", 
	 "Tm": 338.15, 
	 "num_atms": 17, 
	 "gaussian": { 
		 "optdone": 1, 
		 "sigma_profile": "yes", 
		 "theory": "DFT", 
		 "functional": "B3LYP", 
		 "basiset": "6-31G**", 
		 "properties": { 
			 "R2extent": 2014.1631, 
			 "electric_dipole_moment_norm": 2.98929377111, 
			 "electric_quadrupole_moment_norm": 9.91223967426, 
			 "total_energy": -513.23243179, 
			 "HOMO_LUMO_gap": 0.23543, 
			 "cosmo_polarized_energy": -14.96, 
			 "cosmo_cavitation_energy": 23.11, 
			 "cosmo_dispersion_energy": -16.22, 
			 "cosmo_repulsion_energy": 1.36, 
			 "cosmo_total_nonelectrostatic_energy": 8.25, 
			 "SMD_solvation_energy": 6.79 
		},
		"coords": [
			{
				"x": -1.5916983789,
				"y": 1.0694891155,
				"z": 2.2086965391,
				"element": "O" 
			},
			{
				"x": -1.2433881868,
				"y": 0.5531962689,
				"z": 1.0148222506,
				"element": "C" 
			},
			{
				"x": -2.0328079402,
				"y": -0.0616400795,
				"z": 0.3211729529,
				"element": "O" 
			},
			{
				"x": 0.1928065847,
				"y": 0.8736989722,
				"z": 0.6679830445,
				"element": "C" 
			},
			{
				"x": 0.9817794649,
				"y": -0.1359346685,
				"z": -0.1837150259,
				"element": "C" 
			},
			{
				"x": 2.2035311158,
				"y": -0.1619436593,
				"z": -0.1008126201,
				"element": "O" 
			},
			{
				"x": 0.2544687506,
				"y": -0.9088033754,
				"z": -1.0294647958,
				"element": "N" 
			},
			{
				"x": 0.8988589495,
				"y": -1.8557939072,
				"z": -1.9312116181,
				"element": "C" 
			},
			{
				"x": 0.4088611121,
				"y": -1.7398612795,
				"z": -3.3068300107,
				"element": "C" 
			},
			{
				"x": -0.0083386724,
				"y": -1.6657371653,
				"z": -4.4371708099,
				"element": "C" 
			},
			{
				"x": -2.5307083333,
				"y": 0.8523834756,
				"z": 2.3420528655,
				"element": "H" 
			},
			{
				"x": 0.180571422,
				"y": 1.8207964674,
				"z": 0.1111274894,
				"element": "H" 
			},
			{
				"x": 0.7681426015,
				"y": 1.0569067606,
				"z": 1.5759360416,
				"element": "H" 
			},
			{
				"x": -0.7573958354,
				"y": -0.8468047546,
				"z": -0.9899184785,
				"element": "H" 
			},
			{
				"x": 1.9727217507,
				"y": -1.6495321432,
				"z": -1.8789923837,
				"element": "H" 
			},
			{
				"x": 0.7513481563,
				"y": -2.8856679993,
				"z": -1.5764704709,
				"element": "H" 
			},
			{
				"x": -0.3675525613,
				"y": -1.5898520283,
				"z": -5.4373049701,
				"element": "H" 
			}
		],
		 "valence_orbital": [ 
			{
				"type": "occ",
				"energy": -0.30288,
				"method": "rhf"
			},
			{
				"type": "occ",
				"energy": -0.28261,
				"method": "rhf"
			},
			{
				"type": "occ",
				"energy": -0.27143,
				"method": "rhf"
			},
			{
				"type": "occ",
				"energy": -0.25903,
				"method": "rhf"
			},
			{
				"type": "occ",
				"energy": -0.25057,
				"method": "rhf"
			},
			{
				"type": "unocc",
				"energy": -0.01514,
				"method": "rhf"
			},
			{
				"type": "unocc",
				"energy": 0.02042,
				"method": "rhf"
			},
			{
				"type": "unocc",
				"energy": 0.045,
				"method": "rhf"
			},
			{
				"type": "unocc",
				"energy": 0.05402,
				"method": "rhf"
			},
			{
				"type": "unocc",
				"energy": 0.06403,
				"method": "rhf"
			}
		],
		"cosmo_sigma_profile": { 
			"-0.025": 0.0,
			"-0.024": 0.0,
			"-0.023": 0.0,
			"-0.022": 0.0,
			"-0.021": 0.0,
			"-0.02": 0.0,
			"-0.019": 0.441723605202,
			"-0.018": 1.07637462305,
			"-0.017": 1.0531035531,
			"-0.016": 0.340602831374,
			"-0.015": 1.04933817337,
			"-0.014": 0.382403860897,
			"-0.013": 0.648654430005,
			"-0.012": 1.08100196985,
			"-0.011": 2.74030209281,
			"-0.01": 3.08438748097,
			"-0.009": 4.74512746829,
			"-0.008": 5.420729159,
			"-0.007": 8.4447102116,
			"-0.006": 10.6752989565,
			"-0.005": 11.9805477669,
			"-0.004": 11.2822862754,
			"-0.003": 8.01363188942,
			"-0.002": 9.59918249534,
			"-0.001": 8.93329700015,
			"0.0": 8.61301333028,
			"0.001": 9.18201500746,
			"0.002": 7.08957250491,
			"0.003": 7.78927272173,
			"0.004": 8.72746913245,
			"0.005": 8.31065922117,
			"0.006": 11.5731342464,
			"0.007": 7.24545326766,
			"0.008": 4.6249557993,
			"0.009": 3.93517691206,
			"0.01": 3.62086560622,
			"0.011": 2.84467070366,
			"0.012": 2.40903259753,
			"0.013": 4.9388702423,
			"0.014": 2.7694731065,
			"0.015": 0.150583923116,
			"0.016": 0.0,
			"0.017": 0.0,
			"0.018": 0.0,
			"0.019": 0.0,
			"0.02": 0.0,
			"0.021": 0.0,
			"0.022": 0.0,
			"0.023": 0.0,
			"0.024": 0.0,
			"0.025": 0.0
		}
	}
}
