{
	 "smiles": "OC1=CC=C(C=C1)C1=NN=C2SC(NN12)C1=CC=CC=C1O", 
	 "Tm": 514.15, 
	 "num_atms": 34, 
	 "gaussian": { 
		 "optdone": 1, 
		 "sigma_profile": "yes", 
		 "theory": "DFT", 
		 "functional": "B3LYP", 
		 "basiset": "6-31G**", 
		 "properties": { 
			 "R2extent": 9633.6731, 
			 "electric_dipole_moment_norm": 5.27967981037, 
			 "electric_quadrupole_moment_norm": 28.718149038, 
			 "total_energy": -1346.38273181, 
			 "HOMO_LUMO_gap": 0.17322, 
			 "cosmo_polarized_energy": -27.38, 
			 "cosmo_cavitation_energy": 40.12, 
			 "cosmo_dispersion_energy": -29.6, 
			 "cosmo_repulsion_energy": 2.16, 
			 "cosmo_total_nonelectrostatic_energy": 12.69, 
			 "SMD_solvation_energy": 4.1 
		},
		"coords": [
			{
				"x": -5.015960452,
				"y": -2.4709875303,
				"z": 3.1492777357,
				"element": "O" 
			},
			{
				"x": -3.9797865746,
				"y": -1.5932804959,
				"z": 3.0361006081,
				"element": "C" 
			},
			{
				"x": -3.6597959442,
				"y": -1.1351188496,
				"z": 1.7531669755,
				"element": "C" 
			},
			{
				"x": -2.6097712516,
				"y": -0.2399094308,
				"z": 1.5795612027,
				"element": "C" 
			},
			{
				"x": -1.8518166416,
				"y": 0.2061478913,
				"z": 2.6768397799,
				"element": "C" 
			},
			{
				"x": -2.1905881134,
				"y": -0.2535862018,
				"z": 3.9600961213,
				"element": "C" 
			},
			{
				"x": -3.2436799031,
				"y": -1.1419611132,
				"z": 4.1400319342,
				"element": "C" 
			},
			{
				"x": -0.7459331593,
				"y": 1.1514771637,
				"z": 2.5334998431,
				"element": "C" 
			},
			{
				"x": -0.264101561,
				"y": 1.9386504578,
				"z": 3.4877017891,
				"element": "N" 
			},
			{
				"x": 0.7948972551,
				"y": 2.6715085231,
				"z": 2.9842631493,
				"element": "N" 
			},
			{
				"x": 0.9301239899,
				"y": 2.2983630018,
				"z": 1.7367231333,
				"element": "C" 
			},
			{
				"x": 1.8882288743,
				"y": 2.7839323861,
				"z": 0.3365236719,
				"element": "S" 
			},
			{
				"x": 1.3509863061,
				"y": 1.1560897012,
				"z": -0.4583767677,
				"element": "C" 
			},
			{
				"x": -0.0290730981,
				"y": 0.9325398129,
				"z": 0.0458016076,
				"element": "N" 
			},
			{
				"x": 0.0184279413,
				"y": 1.3411187742,
				"z": 1.4066192046,
				"element": "N" 
			},
			{
				"x": 1.4439833879,
				"y": 1.1572536927,
				"z": -1.9541520483,
				"element": "C" 
			},
			{
				"x": 0.3193326606,
				"y": 1.3337735469,
				"z": -2.7718304115,
				"element": "C" 
			},
			{
				"x": 0.4274201618,
				"y": 1.2574236275,
				"z": -4.1578610526,
				"element": "C" 
			},
			{
				"x": 1.6738453337,
				"y": 1.0115710195,
				"z": -4.7413092154,
				"element": "C" 
			},
			{
				"x": 2.8075877417,
				"y": 0.8639634545,
				"z": -3.9471521048,
				"element": "C" 
			},
			{
				"x": 2.7006742885,
				"y": 0.9494984339,
				"z": -2.5563778688,
				"element": "C" 
			},
			{
				"x": 3.8532137431,
				"y": 0.7952236063,
				"z": -1.8333790967,
				"element": "O" 
			},
			{
				"x": -5.1455333516,
				"y": -2.6949109747,
				"z": 4.0802118355,
				"element": "H" 
			},
			{
				"x": -4.251369357,
				"y": -1.477867696,
				"z": 0.9110120789,
				"element": "H" 
			},
			{
				"x": -2.4055725519,
				"y": 0.143379773,
				"z": 0.584257733,
				"element": "H" 
			},
			{
				"x": -1.6165310741,
				"y": 0.1000963559,
				"z": 4.8095180993,
				"element": "H" 
			},
			{
				"x": -3.4931601587,
				"y": -1.4919519049,
				"z": 5.1394985119,
				"element": "H" 
			},
			{
				"x": 2.0319287342,
				"y": 0.4020804891,
				"z": -0.0383879042,
				"element": "H" 
			},
			{
				"x": -0.2049842398,
				"y": -0.0735310223,
				"z": 0.0388732334,
				"element": "H" 
			},
			{
				"x": -0.6392879326,
				"y": 1.5183497933,
				"z": -2.2993232436,
				"element": "H" 
			},
			{
				"x": -0.4532970215,
				"y": 1.3876260607,
				"z": -4.778428814,
				"element": "H" 
			},
			{
				"x": 1.7667884084,
				"y": 0.9475271276,
				"z": -5.8214839144,
				"element": "H" 
			},
			{
				"x": 3.7880729909,
				"y": 0.6948195631,
				"z": -4.3793532675,
				"element": "H" 
			},
			{
				"x": 3.7809305686,
				"y": 1.2243909633,
				"z": -0.9694625391,
				"element": "H" 
			}
		],
		 "valence_orbital": [ 
			{
				"type": "occ",
				"energy": -0.26485,
				"method": "rhf"
			},
			{
				"type": "occ",
				"energy": -0.25432,
				"method": "rhf"
			},
			{
				"type": "occ",
				"energy": -0.24439,
				"method": "rhf"
			},
			{
				"type": "occ",
				"energy": -0.23995,
				"method": "rhf"
			},
			{
				"type": "occ",
				"energy": -0.21456,
				"method": "rhf"
			},
			{
				"type": "unocc",
				"energy": -0.04134,
				"method": "rhf"
			},
			{
				"type": "unocc",
				"energy": -0.0274,
				"method": "rhf"
			},
			{
				"type": "unocc",
				"energy": -0.01909,
				"method": "rhf"
			},
			{
				"type": "unocc",
				"energy": -0.01354,
				"method": "rhf"
			},
			{
				"type": "unocc",
				"energy": -0.00439,
				"method": "rhf"
			}
		],
		"cosmo_sigma_profile": { 
			"-0.025": 0.0,
			"-0.024": 0.0,
			"-0.023": 0.0,
			"-0.022": 0.0,
			"-0.021": 0.0,
			"-0.02": 0.0,
			"-0.019": 0.0069679632407,
			"-0.018": 0.796181467802,
			"-0.017": 1.23244315087,
			"-0.016": 1.98965546124,
			"-0.015": 2.62208873976,
			"-0.014": 4.22011242394,
			"-0.013": 2.97014753773,
			"-0.012": 2.76713472382,
			"-0.011": 4.27713407928,
			"-0.01": 5.30066246189,
			"-0.009": 5.9917718336,
			"-0.008": 3.7341549341,
			"-0.007": 5.59918973362,
			"-0.006": 15.789568647,
			"-0.005": 16.5500773858,
			"-0.004": 17.8372618124,
			"-0.003": 15.750307774,
			"-0.002": 17.3826812341,
			"-0.001": 17.399629745,
			"0.0": 18.8919955359,
			"0.001": 20.6217138975,
			"0.002": 26.0016943192,
			"0.003": 28.365067454,
			"0.004": 29.1056512163,
			"0.005": 13.753671261,
			"0.006": 5.29125575408,
			"0.007": 5.38285630385,
			"0.008": 4.67253065109,
			"0.009": 5.45438565609,
			"0.01": 5.33462573272,
			"0.011": 5.00291368517,
			"0.012": 2.83294037222,
			"0.013": 4.00893969241,
			"0.014": 2.94882790288,
			"0.015": 2.35401681221,
			"0.016": 1.84695330808,
			"0.017": 0.206496536958,
			"0.018": 0.0,
			"0.019": 0.0,
			"0.02": 0.0,
			"0.021": 0.0,
			"0.022": 0.0,
			"0.023": 0.0,
			"0.024": 0.0,
			"0.025": 0.0
		}
	}
}
