{
	 "smiles": "CC1=CC=C(Cl)C(C(O)=O)=C1F", 
	 "Tm": 408.65, 
	 "num_atms": 18, 
	 "gaussian": { 
		 "optdone": 1, 
		 "sigma_profile": "yes", 
		 "theory": "DFT", 
		 "functional": "B3LYP", 
		 "basiset": "6-31G**", 
		 "properties": { 
			 "R2extent": 4253.2066, 
			 "electric_dipole_moment_norm": 3.10010716912, 
			 "electric_quadrupole_moment_norm": 16.520413296, 
			 "total_energy": -1018.95464705, 
			 "HOMO_LUMO_gap": 0.20322, 
			 "cosmo_polarized_energy": -10.51, 
			 "cosmo_cavitation_energy": 24.94, 
			 "cosmo_dispersion_energy": -18.19, 
			 "cosmo_repulsion_energy": 1.45, 
			 "cosmo_total_nonelectrostatic_energy": 8.2, 
			 "SMD_solvation_energy": 5.67 
		},
		"coords": [
			{
				"x": -1.3346664821,
				"y": 0.9136187635,
				"z": 1.1901032821,
				"element": "C" 
			},
			{
				"x": -0.4843441661,
				"y": -0.3270856134,
				"z": 1.1052649636,
				"element": "C" 
			},
			{
				"x": 0.7864021835,
				"y": -0.4248505681,
				"z": 1.6773209928,
				"element": "C" 
			},
			{
				"x": 1.5435949551,
				"y": -1.5927519686,
				"z": 1.58764963,
				"element": "C" 
			},
			{
				"x": 1.0285601655,
				"y": -2.7009721296,
				"z": 0.9197383204,
				"element": "C" 
			},
			{
				"x": 2.0253617112,
				"y": -4.1355671185,
				"z": 0.8049176171,
				"element": "Cl" 
			},
			{
				"x": -0.2400348681,
				"y": -2.6530261666,
				"z": 0.3168993037,
				"element": "C" 
			},
			{
				"x": -0.8533305835,
				"y": -3.833435386,
				"z": -0.3756376008,
				"element": "C" 
			},
			{
				"x": -1.3005748543,
				"y": -3.5166138304,
				"z": -1.6101522443,
				"element": "O" 
			},
			{
				"x": -0.9459786572,
				"y": -4.9419119685,
				"z": 0.0986482162,
				"element": "O" 
			},
			{
				"x": -0.9544776699,
				"y": -1.4568962425,
				"z": 0.434525883,
				"element": "C" 
			},
			{
				"x": -2.1890814589,
				"y": -1.3909271697,
				"z": -0.104601682,
				"element": "F" 
			},
			{
				"x": -0.8149955177,
				"y": 1.7027387439,
				"z": 1.7384786166,
				"element": "H" 
			},
			{
				"x": -2.2834097011,
				"y": 0.7105844156,
				"z": 1.6980832734,
				"element": "H" 
			},
			{
				"x": -1.5829453234,
				"y": 1.2939426959,
				"z": 0.1937073359,
				"element": "H" 
			},
			{
				"x": 1.1936403438,
				"y": 0.4321068182,
				"z": 2.2064148076,
				"element": "H" 
			},
			{
				"x": 2.5306014646,
				"y": -1.6479536883,
				"z": 2.0315506488,
				"element": "H" 
			},
			{
				"x": -1.7060215412,
				"y": -4.326799587,
				"z": -1.9641113642,
				"element": "H" 
			}
		],
		 "valence_orbital": [ 
			{
				"type": "occ",
				"energy": -0.32858,
				"method": "rhf"
			},
			{
				"type": "occ",
				"energy": -0.31404,
				"method": "rhf"
			},
			{
				"type": "occ",
				"energy": -0.28765,
				"method": "rhf"
			},
			{
				"type": "occ",
				"energy": -0.26604,
				"method": "rhf"
			},
			{
				"type": "occ",
				"energy": -0.24911,
				"method": "rhf"
			},
			{
				"type": "unocc",
				"energy": -0.04589,
				"method": "rhf"
			},
			{
				"type": "unocc",
				"energy": -0.01966,
				"method": "rhf"
			},
			{
				"type": "unocc",
				"energy": 0.0184,
				"method": "rhf"
			},
			{
				"type": "unocc",
				"energy": 0.02451,
				"method": "rhf"
			},
			{
				"type": "unocc",
				"energy": 0.0793,
				"method": "rhf"
			}
		],
		"cosmo_sigma_profile": { 
			"-0.025": 0.0,
			"-0.024": 0.0,
			"-0.023": 0.0,
			"-0.022": 0.0,
			"-0.021": 0.0,
			"-0.02": 0.0,
			"-0.019": 0.342928080371,
			"-0.018": 1.02489676685,
			"-0.017": 1.21025006811,
			"-0.016": 0.49121935767,
			"-0.015": 0.481401157518,
			"-0.014": 1.07839581876,
			"-0.013": 0.627866658386,
			"-0.012": 1.01510288034,
			"-0.011": 0.708825158589,
			"-0.01": 0.414229057505,
			"-0.009": 0.605626088947,
			"-0.008": 1.95003902894,
			"-0.007": 6.08685192914,
			"-0.006": 6.83493729423,
			"-0.005": 8.66851991362,
			"-0.004": 9.4864984816,
			"-0.003": 13.7460354813,
			"-0.002": 16.0729453019,
			"-0.001": 19.7498577912,
			"0.0": 19.2134185502,
			"0.001": 18.9279734437,
			"0.002": 15.7256058987,
			"0.003": 14.7146425896,
			"0.004": 12.574179557,
			"0.005": 5.27611028824,
			"0.006": 4.10541138924,
			"0.007": 3.65647102302,
			"0.008": 3.71906304142,
			"0.009": 3.35955035538,
			"0.01": 3.12597597553,
			"0.011": 5.28267088549,
			"0.012": 1.27058420629,
			"0.013": 0.00536718519827,
			"0.014": 0.0,
			"0.015": 0.0,
			"0.016": 0.0,
			"0.017": 0.0,
			"0.018": 0.0,
			"0.019": 0.0,
			"0.02": 0.0,
			"0.021": 0.0,
			"0.022": 0.0,
			"0.023": 0.0,
			"0.024": 0.0,
			"0.025": 0.0
		}
	}
}
