{
	 "smiles": "OC(=O)C1=NN(C=C1)C1=CC(=CC=C1)[N+]([O-])=O", 
	 "Tm": 504.15, 
	 "num_atms": 24, 
	 "gaussian": { 
		 "optdone": 1, 
		 "sigma_profile": "yes", 
		 "theory": "DFT", 
		 "functional": "B3LYP", 
		 "basiset": "6-31G**", 
		 "properties": { 
			 "R2extent": 5683.7285, 
			 "electric_dipole_moment_norm": 7.37414429205, 
			 "electric_quadrupole_moment_norm": 25.594582645, 
			 "total_energy": -850.320274487, 
			 "HOMO_LUMO_gap": 0.15957, 
			 "cosmo_polarized_energy": -19.27, 
			 "cosmo_cavitation_energy": 30.7, 
			 "cosmo_dispersion_energy": -22.35, 
			 "cosmo_repulsion_energy": 1.7, 
			 "cosmo_total_nonelectrostatic_energy": 10.05, 
			 "SMD_solvation_energy": 8.7 
		},
		"coords": [
			{
				"x": -3.8899427169,
				"y": 1.3479161115,
				"z": 0.3851068122,
				"element": "O" 
			},
			{
				"x": -3.1058962021,
				"y": 2.2224854677,
				"z": 1.0490355787,
				"element": "C" 
			},
			{
				"x": -3.4847294047,
				"y": 3.3283399558,
				"z": 1.3558300544,
				"element": "O" 
			},
			{
				"x": -1.7430797823,
				"y": 1.7201118597,
				"z": 1.3718752384,
				"element": "C" 
			},
			{
				"x": -1.3730543406,
				"y": 0.4923392427,
				"z": 1.0108679586,
				"element": "N" 
			},
			{
				"x": -0.1029997603,
				"y": 0.3588775475,
				"z": 1.4493785713,
				"element": "N" 
			},
			{
				"x": 0.32836147,
				"y": 1.4991946267,
				"z": 2.0858179741,
				"element": "C" 
			},
			{
				"x": -0.7076158906,
				"y": 2.4001543919,
				"z": 2.0537380154,
				"element": "C" 
			},
			{
				"x": 0.6043909407,
				"y": -0.8519818456,
				"z": 1.2262190372,
				"element": "C" 
			},
			{
				"x": -0.0318144792,
				"y": -1.8952550156,
				"z": 0.549073726,
				"element": "C" 
			},
			{
				"x": 0.6751607676,
				"y": -3.0726047772,
				"z": 0.3396087454,
				"element": "C" 
			},
			{
				"x": 1.9853059819,
				"y": -3.2576595577,
				"z": 0.773401784,
				"element": "C" 
			},
			{
				"x": 2.6009053755,
				"y": -2.2049685974,
				"z": 1.4463620341,
				"element": "C" 
			},
			{
				"x": 1.922701354,
				"y": -1.0079855367,
				"z": 1.6751541167,
				"element": "C" 
			},
			{
				"x": -0.0003942393,
				"y": -4.1738143922,
				"z": -0.3765697595,
				"element": "N" 
			},
			{
				"x": 0.6392934664,
				"y": -5.2086530657,
				"z": -0.5531052659,
				"element": "O" 
			},
			{
				"x": -1.1563536284,
				"y": -3.9864977378,
				"z": -0.7492538104,
				"element": "O" 
			},
			{
				"x": -3.3890584899,
				"y": 0.5262098838,
				"z": 0.2422465298,
				"element": "H" 
			},
			{
				"x": 1.3181705688,
				"y": 1.5820870421,
				"z": 2.5043737682,
				"element": "H" 
			},
			{
				"x": -0.7371704218,
				"y": 3.401178252,
				"z": 2.4538231143,
				"element": "H" 
			},
			{
				"x": -1.0472140181,
				"y": -1.7955065304,
				"z": 0.1948486176,
				"element": "H" 
			},
			{
				"x": 2.4882300926,
				"y": -4.1965886343,
				"z": 0.5826499106,
				"element": "H" 
			},
			{
				"x": 3.6212522573,
				"y": -2.3132313427,
				"z": 1.7989603094,
				"element": "H" 
			},
			{
				"x": 2.4287510994,
				"y": -0.2076473482,
				"z": 2.2016569393,
				"element": "H" 
			}
		],
		 "valence_orbital": [ 
			{
				"type": "occ",
				"energy": -0.30439,
				"method": "rhf"
			},
			{
				"type": "occ",
				"energy": -0.30342,
				"method": "rhf"
			},
			{
				"type": "occ",
				"energy": -0.28932,
				"method": "rhf"
			},
			{
				"type": "occ",
				"energy": -0.27868,
				"method": "rhf"
			},
			{
				"type": "occ",
				"energy": -0.2638,
				"method": "rhf"
			},
			{
				"type": "unocc",
				"energy": -0.10423,
				"method": "rhf"
			},
			{
				"type": "unocc",
				"energy": -0.07207,
				"method": "rhf"
			},
			{
				"type": "unocc",
				"energy": -0.02843,
				"method": "rhf"
			},
			{
				"type": "unocc",
				"energy": -0.02107,
				"method": "rhf"
			},
			{
				"type": "unocc",
				"energy": 0.01598,
				"method": "rhf"
			}
		],
		"cosmo_sigma_profile": { 
			"-0.025": 0.0,
			"-0.024": 0.0,
			"-0.023": 0.0,
			"-0.022": 0.0,
			"-0.021": 0.0,
			"-0.02": 0.0,
			"-0.019": 0.0,
			"-0.018": 0.0,
			"-0.017": 0.0,
			"-0.016": 0.0602233853396,
			"-0.015": 0.292662991934,
			"-0.014": 0.808384726135,
			"-0.013": 1.47839625913,
			"-0.012": 2.1492964992,
			"-0.011": 2.82590466314,
			"-0.01": 3.09783833136,
			"-0.009": 3.0466504469,
			"-0.008": 7.88809326183,
			"-0.007": 11.0029359388,
			"-0.006": 11.6614192903,
			"-0.005": 9.95529335176,
			"-0.004": 12.5378010812,
			"-0.003": 14.2878053306,
			"-0.002": 18.8892037766,
			"-0.001": 24.3483244522,
			"0.0": 24.1905161646,
			"0.001": 17.6457017363,
			"0.002": 11.7397829733,
			"0.003": 6.43654803217,
			"0.004": 6.22209331787,
			"0.005": 5.38687524753,
			"0.006": 6.27448784255,
			"0.007": 11.9197604579,
			"0.008": 9.39302363372,
			"0.009": 7.47191147051,
			"0.01": 6.88994042426,
			"0.011": 5.02641593152,
			"0.012": 4.26663369182,
			"0.013": 1.04271639435,
			"0.014": 0.0,
			"0.015": 0.0,
			"0.016": 0.0,
			"0.017": 0.0,
			"0.018": 0.0,
			"0.019": 0.0,
			"0.02": 0.0,
			"0.021": 0.0,
			"0.022": 0.0,
			"0.023": 0.0,
			"0.024": 0.0,
			"0.025": 0.0
		}
	}
}
