{
	 "smiles": "OC(=O)C1(CC1)C1=CC=C(Cl)C=C1", 
	 "Tm": 426.65, 
	 "num_atms": 22, 
	 "gaussian": { 
		 "optdone": 1, 
		 "sigma_profile": "yes", 
		 "theory": "DFT", 
		 "functional": "B3LYP", 
		 "basiset": "6-31G**", 
		 "properties": { 
			 "R2extent": 4167.7579, 
			 "electric_dipole_moment_norm": 3.33362573334, 
			 "electric_quadrupole_moment_norm": 15.966494402, 
			 "total_energy": -997.113435952, 
			 "HOMO_LUMO_gap": 0.21619, 
			 "cosmo_polarized_energy": -12.53, 
			 "cosmo_cavitation_energy": 27.91, 
			 "cosmo_dispersion_energy": -19.89, 
			 "cosmo_repulsion_energy": 1.57, 
			 "cosmo_total_nonelectrostatic_energy": 9.59, 
			 "SMD_solvation_energy": 5.44 
		},
		"coords": [
			{
				"x": 1.2866857444,
				"y": -2.3802594703,
				"z": -0.8309406257,
				"element": "O" 
			},
			{
				"x": 1.545329808,
				"y": -1.0524005476,
				"z": -0.8338377596,
				"element": "C" 
			},
			{
				"x": 2.5838919907,
				"y": -0.631327523,
				"z": -1.2886527132,
				"element": "O" 
			},
			{
				"x": 0.4779470142,
				"y": -0.1511736831,
				"z": -0.2460817237,
				"element": "C" 
			},
			{
				"x": 0.3946435265,
				"y": 1.2187180307,
				"z": -0.9127230956,
				"element": "C" 
			},
			{
				"x": 1.0328154738,
				"y": 1.0983852974,
				"z": 0.4308982034,
				"element": "C" 
			},
			{
				"x": -0.7716979737,
				"y": -0.7954496131,
				"z": 0.2894604069,
				"element": "C" 
			},
			{
				"x": -1.876942525,
				"y": -1.02787304,
				"z": -0.5450227898,
				"element": "C" 
			},
			{
				"x": -3.027458325,
				"y": -1.6529538016,
				"z": -0.0649235984,
				"element": "C" 
			},
			{
				"x": -3.074524377,
				"y": -2.0558230405,
				"z": 1.2698261261,
				"element": "C" 
			},
			{
				"x": -4.5191731494,
				"y": -2.83929141,
				"z": 1.885511377,
				"element": "Cl" 
			},
			{
				"x": -1.990996787,
				"y": -1.8448391304,
				"z": 2.1228513814,
				"element": "C" 
			},
			{
				"x": -0.8482578914,
				"y": -1.218428199,
				"z": 1.626340066,
				"element": "C" 
			},
			{
				"x": 0.4168581867,
				"y": -2.5429288538,
				"z": -0.4332110688,
				"element": "H" 
			},
			{
				"x": -0.590840312,
				"y": 1.668944096,
				"z": -0.9773148694,
				"element": "H" 
			},
			{
				"x": 1.0442540845,
				"y": 1.3724767001,
				"z": -1.7672871616,
				"element": "H" 
			},
			{
				"x": 0.4885160628,
				"y": 1.4654945094,
				"z": 1.2952073145,
				"element": "H" 
			},
			{
				"x": 2.1134874817,
				"y": 1.1708518726,
				"z": 0.483807219,
				"element": "H" 
			},
			{
				"x": -1.8377322319,
				"y": -0.7077244202,
				"z": -1.5824332875,
				"element": "H" 
			},
			{
				"x": -3.8784676577,
				"y": -1.8238170195,
				"z": -0.7148654276,
				"element": "H" 
			},
			{
				"x": -2.043755416,
				"y": -2.163513344,
				"z": 3.157984463,
				"element": "H" 
			},
			{
				"x": -0.0038827272,
				"y": -1.0475674101,
				"z": 2.2882075637,
				"element": "H" 
			}
		],
		 "valence_orbital": [ 
			{
				"type": "occ",
				"energy": -0.31943,
				"method": "rhf"
			},
			{
				"type": "occ",
				"energy": -0.29802,
				"method": "rhf"
			},
			{
				"type": "occ",
				"energy": -0.28277,
				"method": "rhf"
			},
			{
				"type": "occ",
				"energy": -0.28127,
				"method": "rhf"
			},
			{
				"type": "occ",
				"energy": -0.25372,
				"method": "rhf"
			},
			{
				"type": "unocc",
				"energy": -0.03753,
				"method": "rhf"
			},
			{
				"type": "unocc",
				"energy": -0.03484,
				"method": "rhf"
			},
			{
				"type": "unocc",
				"energy": 0.00937,
				"method": "rhf"
			},
			{
				"type": "unocc",
				"energy": 0.01675,
				"method": "rhf"
			},
			{
				"type": "unocc",
				"energy": 0.08665,
				"method": "rhf"
			}
		],
		"cosmo_sigma_profile": { 
			"-0.025": 0.0,
			"-0.024": 0.0,
			"-0.023": 0.0,
			"-0.022": 0.0,
			"-0.021": 0.0,
			"-0.02": 0.0,
			"-0.019": 0.0,
			"-0.018": 0.0,
			"-0.017": 0.0,
			"-0.016": 0.0,
			"-0.015": 0.140523936952,
			"-0.014": 0.387976693815,
			"-0.013": 0.566510402365,
			"-0.012": 0.837551091554,
			"-0.011": 0.4549425229,
			"-0.01": 1.14981586234,
			"-0.009": 1.00148996222,
			"-0.008": 2.23447492496,
			"-0.007": 7.54415084821,
			"-0.006": 13.6074021697,
			"-0.005": 16.3298308801,
			"-0.004": 17.052590553,
			"-0.003": 16.5115965453,
			"-0.002": 16.3243288017,
			"-0.001": 18.8497180578,
			"0.0": 14.6273048484,
			"0.001": 17.395445093,
			"0.002": 18.5635899878,
			"0.003": 14.9582266182,
			"0.004": 12.8222935558,
			"0.005": 6.78471329991,
			"0.006": 2.1502590363,
			"0.007": 2.68069167482,
			"0.008": 2.70667349086,
			"0.009": 2.77773438969,
			"0.01": 4.20225381301,
			"0.011": 4.22932163164,
			"0.012": 5.19265236461,
			"0.013": 2.53972631301,
			"0.014": 0.277753282961,
			"0.015": 0.0,
			"0.016": 0.0,
			"0.017": 0.0,
			"0.018": 0.0,
			"0.019": 0.0,
			"0.02": 0.0,
			"0.021": 0.0,
			"0.022": 0.0,
			"0.023": 0.0,
			"0.024": 0.0,
			"0.025": 0.0
		}
	}
}
