{
	 "smiles": "CC(C)CC(NC(=O)C1=C(C)C=CC=C1)C(O)=O", 
	 "Tm": 385.15, 
	 "num_atms": 37, 
	 "gaussian": { 
		 "optdone": 1, 
		 "sigma_profile": "yes", 
		 "theory": "DFT", 
		 "functional": "B3LYP", 
		 "basiset": "6-31G**", 
		 "properties": { 
			 "R2extent": 5849.9265, 
			 "electric_dipole_moment_norm": 2.15094486447, 
			 "electric_quadrupole_moment_norm": 17.6337499957, 
			 "total_energy": -825.406245462, 
			 "HOMO_LUMO_gap": 0.21108, 
			 "cosmo_polarized_energy": -16.43, 
			 "cosmo_cavitation_energy": 39.14, 
			 "cosmo_dispersion_energy": -26.25, 
			 "cosmo_repulsion_energy": 2.06, 
			 "cosmo_total_nonelectrostatic_energy": 14.95, 
			 "SMD_solvation_energy": 7.99 
		},
		"coords": [
			{
				"x": -2.000363397,
				"y": 1.2461276626,
				"z": -1.6669065853,
				"element": "C" 
			},
			{
				"x": -2.2278243568,
				"y": -0.2727597058,
				"z": -1.7452563737,
				"element": "C" 
			},
			{
				"x": -3.7302534266,
				"y": -0.5884170284,
				"z": -1.8152398522,
				"element": "C" 
			},
			{
				"x": -1.5965132256,
				"y": -1.0733212665,
				"z": -0.5855806636,
				"element": "C" 
			},
			{
				"x": -0.0727460371,
				"y": -0.9124526504,
				"z": -0.3253586768,
				"element": "C" 
			},
			{
				"x": 0.2666318845,
				"y": 0.2891331295,
				"z": 0.4146275921,
				"element": "N" 
			},
			{
				"x": 0.8770809728,
				"y": 0.3957925444,
				"z": 1.6442806362,
				"element": "C" 
			},
			{
				"x": 0.8264102311,
				"y": 1.450520327,
				"z": 2.2692303734,
				"element": "O" 
			},
			{
				"x": 1.6360994982,
				"y": -0.7967442184,
				"z": 2.1657888299,
				"element": "C" 
			},
			{
				"x": 1.4099420271,
				"y": -1.2646982487,
				"z": 3.4790344256,
				"element": "C" 
			},
			{
				"x": 0.3542752648,
				"y": -0.6564674899,
				"z": 4.3726269474,
				"element": "C" 
			},
			{
				"x": 2.1995318216,
				"y": -2.3228601745,
				"z": 3.9434358116,
				"element": "C" 
			},
			{
				"x": 3.2025574036,
				"y": -2.8914157684,
				"z": 3.1560681155,
				"element": "C" 
			},
			{
				"x": 3.4339155505,
				"y": -2.4083974645,
				"z": 1.8695260582,
				"element": "C" 
			},
			{
				"x": 2.6461953621,
				"y": -1.367187746,
				"z": 1.3786458877,
				"element": "C" 
			},
			{
				"x": 0.7068164443,
				"y": -1.1001989477,
				"z": -1.6311914929,
				"element": "C" 
			},
			{
				"x": 1.6045520741,
				"y": -0.1206987631,
				"z": -1.8814480663,
				"element": "O" 
			},
			{
				"x": 0.5417941735,
				"y": -2.0437164602,
				"z": -2.3733224075,
				"element": "O" 
			},
			{
				"x": -0.944401225,
				"y": 1.5133481986,
				"z": -1.7848932383,
				"element": "H" 
			},
			{
				"x": -2.5436131477,
				"y": 1.7561720858,
				"z": -2.4693442269,
				"element": "H" 
			},
			{
				"x": -2.3619172696,
				"y": 1.6587679184,
				"z": -0.7166785052,
				"element": "H" 
			},
			{
				"x": -1.7707724589,
				"y": -0.6329897427,
				"z": -2.6763852478,
				"element": "H" 
			},
			{
				"x": -3.9095553686,
				"y": -1.6650605483,
				"z": -1.9050380859,
				"element": "H" 
			},
			{
				"x": -4.1944898071,
				"y": -0.0984647661,
				"z": -2.6774058181,
				"element": "H" 
			},
			{
				"x": -4.2484930542,
				"y": -0.2370794426,
				"z": -0.9146199272,
				"element": "H" 
			},
			{
				"x": -2.1045954826,
				"y": -0.8305221352,
				"z": 0.3559731043,
				"element": "H" 
			},
			{
				"x": -1.7757630718,
				"y": -2.1354110439,
				"z": -0.7811240505,
				"element": "H" 
			},
			{
				"x": 0.2303238661,
				"y": -1.7612013357,
				"z": 0.294653794,
				"element": "H" 
			},
			{
				"x": -0.1639301642,
				"y": 1.1578583744,
				"z": 0.1276999482,
				"element": "H" 
			},
			{
				"x": 0.5821737509,
				"y": 0.3917985802,
				"z": 4.580692374,
				"element": "H" 
			},
			{
				"x": -0.6346118691,
				"y": -0.6724987978,
				"z": 3.9007490481,
				"element": "H" 
			},
			{
				"x": 0.2860002603,
				"y": -1.2023938953,
				"z": 5.3172557469,
				"element": "H" 
			},
			{
				"x": 2.0272975269,
				"y": -2.7029180037,
				"z": 4.9471654622,
				"element": "H" 
			},
			{
				"x": 3.8021116893,
				"y": -3.7067047082,
				"z": 3.5510406177,
				"element": "H" 
			},
			{
				"x": 4.2187798413,
				"y": -2.8350790172,
				"z": 1.2521290328,
				"element": "H" 
			},
			{
				"x": 2.8270208066,
				"y": -0.9731774186,
				"z": 0.3826733244,
				"element": "H" 
			},
			{
				"x": 2.0288329126,
				"y": -0.3602820331,
				"z": -2.7236039119,
				"element": "H" 
			}
		],
		 "valence_orbital": [ 
			{
				"type": "occ",
				"energy": -0.29636,
				"method": "rhf"
			},
			{
				"type": "occ",
				"energy": -0.25962,
				"method": "rhf"
			},
			{
				"type": "occ",
				"energy": -0.25036,
				"method": "rhf"
			},
			{
				"type": "occ",
				"energy": -0.24621,
				"method": "rhf"
			},
			{
				"type": "occ",
				"energy": -0.23728,
				"method": "rhf"
			},
			{
				"type": "unocc",
				"energy": -0.0262,
				"method": "rhf"
			},
			{
				"type": "unocc",
				"energy": -0.00512,
				"method": "rhf"
			},
			{
				"type": "unocc",
				"energy": -0.00017,
				"method": "rhf"
			},
			{
				"type": "unocc",
				"energy": 0.04433,
				"method": "rhf"
			},
			{
				"type": "unocc",
				"energy": 0.06025,
				"method": "rhf"
			}
		],
		"cosmo_sigma_profile": { 
			"-0.025": 0.0,
			"-0.024": 0.0,
			"-0.023": 0.0,
			"-0.022": 0.0,
			"-0.021": 0.0,
			"-0.02": 0.0,
			"-0.019": 0.158254294866,
			"-0.018": 0.783307660432,
			"-0.017": 0.982871626234,
			"-0.016": 0.744813341916,
			"-0.015": 1.21606774118,
			"-0.014": 0.5525330901,
			"-0.013": 0.469081402559,
			"-0.012": 0.712634520536,
			"-0.011": 0.98350601007,
			"-0.01": 1.4069016236,
			"-0.009": 0.98416156289,
			"-0.008": 2.18180881847,
			"-0.007": 3.27674248881,
			"-0.006": 9.00419200184,
			"-0.005": 14.8079328839,
			"-0.004": 24.581615508,
			"-0.003": 34.1176188059,
			"-0.002": 33.8708653177,
			"-0.001": 28.8976082894,
			"0.0": 31.0509099971,
			"0.001": 27.6074030083,
			"0.002": 14.0985312234,
			"0.003": 11.1801427911,
			"0.004": 12.1698735715,
			"0.005": 11.8774147712,
			"0.006": 4.75517078782,
			"0.007": 4.38098462493,
			"0.008": 3.94877778666,
			"0.009": 3.30699268273,
			"0.01": 3.78341730503,
			"0.011": 5.54798092814,
			"0.012": 5.32599448588,
			"0.013": 4.03278073648,
			"0.014": 3.69117807531,
			"0.015": 0.223185061971,
			"0.016": 0.0,
			"0.017": 0.0,
			"0.018": 0.0,
			"0.019": 0.0,
			"0.02": 0.0,
			"0.021": 0.0,
			"0.022": 0.0,
			"0.023": 0.0,
			"0.024": 0.0,
			"0.025": 0.0
		}
	}
}
