{
	 "smiles": "CCC1=C(CC)C=C(C=C1)C(O)=O", 
	 "Tm": 374.15, 
	 "num_atms": 27, 
	 "gaussian": { 
		 "optdone": 1, 
		 "sigma_profile": "yes", 
		 "theory": "DFT", 
		 "functional": "B3LYP", 
		 "basiset": "6-31G**", 
		 "properties": { 
			 "R2extent": 3481.6691, 
			 "electric_dipole_moment_norm": 2.65452611778, 
			 "electric_quadrupole_moment_norm": 11.6917246337, 
			 "total_energy": -578.095827337, 
			 "HOMO_LUMO_gap": 0.2008, 
			 "cosmo_polarized_energy": -9.03, 
			 "cosmo_cavitation_energy": 29.99, 
			 "cosmo_dispersion_energy": -21.19, 
			 "cosmo_repulsion_energy": 1.7, 
			 "cosmo_total_nonelectrostatic_energy": 10.5, 
			 "SMD_solvation_energy": 6.29 
		},
		"coords": [
			{
				"x": -3.4373251263,
				"y": 2.1466757812,
				"z": -0.1701310104,
				"element": "C" 
			},
			{
				"x": -2.1820475428,
				"y": 2.1548023028,
				"z": -1.0635276924,
				"element": "C" 
			},
			{
				"x": -1.532141581,
				"y": 0.788962382,
				"z": -1.1750354862,
				"element": "C" 
			},
			{
				"x": -0.5502749403,
				"y": 0.3407777742,
				"z": -0.2634227393,
				"element": "C" 
			},
			{
				"x": -0.0035420533,
				"y": 1.2223630181,
				"z": 0.8450987743,
				"element": "C" 
			},
			{
				"x": 1.2046090469,
				"y": 2.0674301124,
				"z": 0.3999898924,
				"element": "C" 
			},
			{
				"x": -0.0311650703,
				"y": -0.9503310235,
				"z": -0.4101921823,
				"element": "C" 
			},
			{
				"x": -0.4611152397,
				"y": -1.8023663888,
				"z": -1.4337675688,
				"element": "C" 
			},
			{
				"x": -1.4340055592,
				"y": -1.35515481,
				"z": -2.3354941185,
				"element": "C" 
			},
			{
				"x": -1.9552003514,
				"y": -0.0752361193,
				"z": -2.1977905021,
				"element": "C" 
			},
			{
				"x": 0.0761373653,
				"y": -3.1752778495,
				"z": -1.6043075325,
				"element": "C" 
			},
			{
				"x": 1.010360898,
				"y": -3.5055763382,
				"z": -0.6742909171,
				"element": "O" 
			},
			{
				"x": -0.2612972875,
				"y": -3.9535863623,
				"z": -2.4757949467,
				"element": "O" 
			},
			{
				"x": -3.1980072906,
				"y": 1.8350324491,
				"z": 0.8516748288,
				"element": "H" 
			},
			{
				"x": -3.8890476793,
				"y": 3.1430245206,
				"z": -0.1236886367,
				"element": "H" 
			},
			{
				"x": -4.187358906,
				"y": 1.4507568797,
				"z": -0.5590005851,
				"element": "H" 
			},
			{
				"x": -1.4692883875,
				"y": 2.892329203,
				"z": -0.6817341957,
				"element": "H" 
			},
			{
				"x": -2.4639975598,
				"y": 2.4939274849,
				"z": -2.0669964992,
				"element": "H" 
			},
			{
				"x": 0.3000958146,
				"y": 0.5849089605,
				"z": 1.6834067488,
				"element": "H" 
			},
			{
				"x": -0.7853023115,
				"y": 1.8821577119,
				"z": 1.2348467729,
				"element": "H" 
			},
			{
				"x": 2.0211334637,
				"y": 1.4258251257,
				"z": 0.0537635632,
				"element": "H" 
			},
			{
				"x": 1.5800649099,
				"y": 2.6792446973,
				"z": 1.2269592652,
				"element": "H" 
			},
			{
				"x": 0.9417101634,
				"y": 2.7379247494,
				"z": -0.4247433827,
				"element": "H" 
			},
			{
				"x": 0.7222180293,
				"y": -1.3032127165,
				"z": 0.2869537109,
				"element": "H" 
			},
			{
				"x": -1.7621793393,
				"y": -2.0193691752,
				"z": -3.1276852777,
				"element": "H" 
			},
			{
				"x": -2.7097316004,
				"y": 0.2726226733,
				"z": -2.8993258984,
				"element": "H" 
			},
			{
				"x": 1.2801981351,
				"y": -4.4132550429,
				"z": -0.8895643848,
				"element": "H" 
			}
		],
		 "valence_orbital": [ 
			{
				"type": "occ",
				"energy": -0.32654,
				"method": "rhf"
			},
			{
				"type": "occ",
				"energy": -0.31236,
				"method": "rhf"
			},
			{
				"type": "occ",
				"energy": -0.27077,
				"method": "rhf"
			},
			{
				"type": "occ",
				"energy": -0.25127,
				"method": "rhf"
			},
			{
				"type": "occ",
				"energy": -0.24317,
				"method": "rhf"
			},
			{
				"type": "unocc",
				"energy": -0.04237,
				"method": "rhf"
			},
			{
				"type": "unocc",
				"energy": -0.0046,
				"method": "rhf"
			},
			{
				"type": "unocc",
				"energy": 0.05618,
				"method": "rhf"
			},
			{
				"type": "unocc",
				"energy": 0.08224,
				"method": "rhf"
			},
			{
				"type": "unocc",
				"energy": 0.08779,
				"method": "rhf"
			}
		],
		"cosmo_sigma_profile": { 
			"-0.025": 0.0,
			"-0.024": 0.0,
			"-0.023": 0.0,
			"-0.022": 0.0,
			"-0.021": 0.0,
			"-0.02": 0.0,
			"-0.019": 0.0190574480511,
			"-0.018": 0.568699467839,
			"-0.017": 0.766048239646,
			"-0.016": 1.03389255302,
			"-0.015": 0.748377273374,
			"-0.014": 0.728862084185,
			"-0.013": 0.550966456075,
			"-0.012": 0.673508136787,
			"-0.011": 0.872084090246,
			"-0.01": 0.630502406042,
			"-0.009": 0.478730477035,
			"-0.008": 0.231119761048,
			"-0.007": 0.978004351056,
			"-0.006": 2.75106100915,
			"-0.005": 6.24817240819,
			"-0.004": 13.5867287584,
			"-0.003": 26.4877419423,
			"-0.002": 26.3418805481,
			"-0.001": 31.3647085508,
			"0.0": 28.065665967,
			"0.001": 27.026342186,
			"0.002": 13.9316541923,
			"0.003": 11.5338577255,
			"0.004": 12.8730182405,
			"0.005": 6.34603403267,
			"0.006": 2.78862885335,
			"0.007": 3.5901079629,
			"0.008": 2.3541111509,
			"0.009": 1.83125997364,
			"0.01": 1.70024886177,
			"0.011": 2.83243841952,
			"0.012": 5.27885450846,
			"0.013": 0.569094057166,
			"0.014": 0.0,
			"0.015": 0.0,
			"0.016": 0.0,
			"0.017": 0.0,
			"0.018": 0.0,
			"0.019": 0.0,
			"0.02": 0.0,
			"0.021": 0.0,
			"0.022": 0.0,
			"0.023": 0.0,
			"0.024": 0.0,
			"0.025": 0.0
		}
	}
}
