{
	 "smiles": "N#CCC1=COC2=CC=CC=C12", 
	 "Tm": 313.15, 
	 "num_atms": 19, 
	 "gaussian": { 
		 "optdone": 1, 
		 "sigma_profile": "yes", 
		 "theory": "DFT", 
		 "functional": "B3LYP", 
		 "basiset": "6-31G**", 
		 "properties": { 
			 "R2extent": 2240.3001, 
			 "electric_dipole_moment_norm": 3.42463775603, 
			 "electric_quadrupole_moment_norm": 18.9108125241, 
			 "total_energy": -515.226392399, 
			 "HOMO_LUMO_gap": 0.2026, 
			 "cosmo_polarized_energy": -11.59, 
			 "cosmo_cavitation_energy": 24.47, 
			 "cosmo_dispersion_energy": -17.33, 
			 "cosmo_repulsion_energy": 1.37, 
			 "cosmo_total_nonelectrostatic_energy": 8.5, 
			 "SMD_solvation_energy": 6.19 
		},
		"coords": [
			{
				"x": 0.5837845944,
				"y": 2.78519648,
				"z": -2.8166194698,
				"element": "N" 
			},
			{
				"x": 0.115885246,
				"y": 2.7621206548,
				"z": -1.755017493,
				"element": "C" 
			},
			{
				"x": -0.4641930279,
				"y": 2.7367466679,
				"z": -0.4034604418,
				"element": "C" 
			},
			{
				"x": -0.3809949128,
				"y": 1.3866690675,
				"z": 0.257475598,
				"element": "C" 
			},
			{
				"x": -1.4253369021,
				"y": 0.6383399207,
				"z": 0.6973726603,
				"element": "C" 
			},
			{
				"x": -1.0220699408,
				"y": -0.5277773858,
				"z": 1.2905084684,
				"element": "O" 
			},
			{
				"x": 0.3477898947,
				"y": -0.5323025843,
				"z": 1.225795224,
				"element": "C" 
			},
			{
				"x": 1.1849386847,
				"y": -1.5303575743,
				"z": 1.709704099,
				"element": "C" 
			},
			{
				"x": 2.5532168493,
				"y": -1.3276280617,
				"z": 1.535875889,
				"element": "C" 
			},
			{
				"x": 3.0481175848,
				"y": -0.1724676978,
				"z": 0.9009774342,
				"element": "C" 
			},
			{
				"x": 2.1920464567,
				"y": 0.815348039,
				"z": 0.4226620448,
				"element": "C" 
			},
			{
				"x": 0.8106509603,
				"y": 0.6340282579,
				"z": 0.5908414644,
				"element": "C" 
			},
			{
				"x": -1.5083139534,
				"y": 3.0615089141,
				"z": -0.4722569161,
				"element": "H" 
			},
			{
				"x": 0.0595088416,
				"y": 3.4928005421,
				"z": 0.1966950066,
				"element": "H" 
			},
			{
				"x": -2.4932947869,
				"y": 0.7977229454,
				"z": 0.6651640099,
				"element": "H" 
			},
			{
				"x": 0.7871096806,
				"y": -2.4155183471,
				"z": 2.1935930791,
				"element": "H" 
			},
			{
				"x": 3.2509296959,
				"y": -2.0779230999,
				"z": 1.8950445917,
				"element": "H" 
			},
			{
				"x": 4.1204827818,
				"y": -0.0538217776,
				"z": 0.7794362879,
				"element": "H" 
			},
			{
				"x": 2.5847422529,
				"y": 1.6955150392,
				"z": -0.0769915367,
				"element": "H" 
			}
		],
		 "valence_orbital": [ 
			{
				"type": "occ",
				"energy": -0.32922,
				"method": "rhf"
			},
			{
				"type": "occ",
				"energy": -0.32718,
				"method": "rhf"
			},
			{
				"type": "occ",
				"energy": -0.29802,
				"method": "rhf"
			},
			{
				"type": "occ",
				"energy": -0.24624,
				"method": "rhf"
			},
			{
				"type": "occ",
				"energy": -0.23166,
				"method": "rhf"
			},
			{
				"type": "unocc",
				"energy": -0.02906,
				"method": "rhf"
			},
			{
				"type": "unocc",
				"energy": 0.00475,
				"method": "rhf"
			},
			{
				"type": "unocc",
				"energy": 0.02492,
				"method": "rhf"
			},
			{
				"type": "unocc",
				"energy": 0.03382,
				"method": "rhf"
			},
			{
				"type": "unocc",
				"energy": 0.05352,
				"method": "rhf"
			}
		],
		"cosmo_sigma_profile": { 
			"-0.025": 0.0,
			"-0.024": 0.0,
			"-0.023": 0.0,
			"-0.022": 0.0,
			"-0.021": 0.0,
			"-0.02": 0.0,
			"-0.019": 0.0,
			"-0.018": 0.0,
			"-0.017": 0.0,
			"-0.016": 0.0,
			"-0.015": 0.0,
			"-0.014": 0.0,
			"-0.013": 0.0,
			"-0.012": 0.0,
			"-0.011": 0.0,
			"-0.01": 1.86887609764,
			"-0.009": 7.93983511755,
			"-0.008": 7.64372650775,
			"-0.007": 7.84480011915,
			"-0.006": 12.2179175863,
			"-0.005": 13.2714891526,
			"-0.004": 11.3649897715,
			"-0.003": 11.0233988565,
			"-0.002": 8.0597339854,
			"-0.001": 8.47576573699,
			"0.0": 10.1104768316,
			"0.001": 16.7499269224,
			"0.002": 15.4838062059,
			"0.003": 12.8044697045,
			"0.004": 12.8417530883,
			"0.005": 11.7892057122,
			"0.006": 5.47125559,
			"0.007": 4.26587033285,
			"0.008": 4.4095138277,
			"0.009": 3.73144047767,
			"0.01": 3.36015786305,
			"0.011": 2.63082199228,
			"0.012": 2.5704593894,
			"0.013": 1.82364460691,
			"0.014": 0.114905983911,
			"0.015": 0.0,
			"0.016": 0.0,
			"0.017": 0.0,
			"0.018": 0.0,
			"0.019": 0.0,
			"0.02": 0.0,
			"0.021": 0.0,
			"0.022": 0.0,
			"0.023": 0.0,
			"0.024": 0.0,
			"0.025": 0.0
		}
	}
}
