{
	 "smiles": "BrC1CS(=O)(=O)C=C1", 
	 "Tm": 327.65, 
	 "num_atms": 13, 
	 "gaussian": { 
		 "optdone": 1, 
		 "sigma_profile": "yes", 
		 "theory": "DFT", 
		 "functional": "B3LYP", 
		 "basiset": "6-31G**", 
		 "properties": { 
			 "R2extent": 1999.5566, 
			 "electric_dipole_moment_norm": 3.74966147405, 
			 "electric_quadrupole_moment_norm": 15.6863370023, 
			 "total_energy": -3275.38285752, 
			 "HOMO_LUMO_gap": 0.22585, 
			 "cosmo_polarized_energy": -15.2, 
			 "cosmo_cavitation_energy": 20.28, 
			 "cosmo_dispersion_energy": -16.29, 
			 "cosmo_repulsion_energy": 1.31, 
			 "cosmo_total_nonelectrostatic_energy": 5.29, 
			 "SMD_solvation_energy": 1.79 
		},
		"coords": [
			{
				"x": 0.8318208705,
				"y": -0.5401350038,
				"z": 2.5175258873,
				"element": "Br" 
			},
			{
				"x": 0.7133578643,
				"y": -0.7527499598,
				"z": 0.5393745077,
				"element": "C" 
			},
			{
				"x": -0.5108925205,
				"y": -0.0292611133,
				"z": -0.0247382224,
				"element": "C" 
			},
			{
				"x": 0.0323807796,
				"y": 0.689036435,
				"z": -1.6330168576,
				"element": "S" 
			},
			{
				"x": -0.2864864956,
				"y": -0.2360346865,
				"z": -2.7300292908,
				"element": "O" 
			},
			{
				"x": -0.3614626446,
				"y": 2.1000474573,
				"z": -1.7224069267,
				"element": "O" 
			},
			{
				"x": 1.7619656554,
				"y": 0.5381910382,
				"z": -1.2110239464,
				"element": "C" 
			},
			{
				"x": 1.9498964135,
				"y": -0.1998156943,
				"z": -0.1184049936,
				"element": "C" 
			},
			{
				"x": 0.6534193366,
				"y": -1.8338304533,
				"z": 0.4063961363,
				"element": "H" 
			},
			{
				"x": -0.8054985909,
				"y": 0.815461311,
				"z": 0.5980646003,
				"element": "H" 
			},
			{
				"x": -1.3643640227,
				"y": -0.6816725401,
				"z": -0.2110393856,
				"element": "H" 
			},
			{
				"x": 2.5076593734,
				"y": 0.9876057415,
				"z": -1.8549213295,
				"element": "H" 
			},
			{
				"x": 2.927003981,
				"y": -0.447542532,
				"z": 0.2828198209,
				"element": "H" 
			}
		],
		 "valence_orbital": [ 
			{
				"type": "occ",
				"energy": -0.31802,
				"method": "rhf"
			},
			{
				"type": "occ",
				"energy": -0.31126,
				"method": "rhf"
			},
			{
				"type": "occ",
				"energy": -0.30032,
				"method": "rhf"
			},
			{
				"type": "occ",
				"energy": -0.29349,
				"method": "rhf"
			},
			{
				"type": "occ",
				"energy": -0.28953,
				"method": "rhf"
			},
			{
				"type": "unocc",
				"energy": -0.06368,
				"method": "rhf"
			},
			{
				"type": "unocc",
				"energy": -0.02516,
				"method": "rhf"
			},
			{
				"type": "unocc",
				"energy": 0.05016,
				"method": "rhf"
			},
			{
				"type": "unocc",
				"energy": 0.05962,
				"method": "rhf"
			},
			{
				"type": "unocc",
				"energy": 0.07215,
				"method": "rhf"
			}
		],
		"cosmo_sigma_profile": { 
			"-0.025": 0.0,
			"-0.024": 0.0,
			"-0.023": 0.0,
			"-0.022": 0.0,
			"-0.021": 0.0,
			"-0.02": 0.0,
			"-0.019": 0.0,
			"-0.018": 0.0,
			"-0.017": 0.0,
			"-0.016": 0.0,
			"-0.015": 0.0,
			"-0.014": 0.0,
			"-0.013": 0.0,
			"-0.012": 0.0133996061312,
			"-0.011": 1.8564034933,
			"-0.01": 7.77097700825,
			"-0.009": 9.53271909227,
			"-0.008": 9.98909496245,
			"-0.007": 9.35276441721,
			"-0.006": 8.38256439898,
			"-0.005": 7.38851017559,
			"-0.004": 6.12646253576,
			"-0.003": 7.08717863794,
			"-0.002": 6.99155759795,
			"-0.001": 6.79246828016,
			"0.0": 8.09289367796,
			"0.001": 7.62566742283,
			"0.002": 7.01404193192,
			"0.003": 6.7844621535,
			"0.004": 9.59665444098,
			"0.005": 8.76752428326,
			"0.006": 2.86814406026,
			"0.007": 2.44946411654,
			"0.008": 2.09230512506,
			"0.009": 3.57513918562,
			"0.01": 7.02448367412,
			"0.011": 13.2637020446,
			"0.012": 4.76590741556,
			"0.013": 0.00947025781728,
			"0.014": 0.0,
			"0.015": 0.0,
			"0.016": 0.0,
			"0.017": 0.0,
			"0.018": 0.0,
			"0.019": 0.0,
			"0.02": 0.0,
			"0.021": 0.0,
			"0.022": 0.0,
			"0.023": 0.0,
			"0.024": 0.0,
			"0.025": 0.0
		}
	}
}
