{
	 "smiles": "CS(=O)(=O)CCS(N)(=O)=O", 
	 "Tm": 423.15, 
	 "num_atms": 19, 
	 "gaussian": { 
		 "optdone": 1, 
		 "sigma_profile": "yes", 
		 "theory": "DFT", 
		 "functional": "B3LYP", 
		 "basiset": "6-31G**", 
		 "properties": { 
			 "R2extent": 2310.3228, 
			 "electric_dipole_moment_norm": 5.38137173962, 
			 "electric_quadrupole_moment_norm": 17.728729329, 
			 "total_energy": -1271.63898511, 
			 "HOMO_LUMO_gap": 0.32094, 
			 "cosmo_polarized_energy": -24.8, 
			 "cosmo_cavitation_energy": 24.68, 
			 "cosmo_dispersion_energy": -19.26, 
			 "cosmo_repulsion_energy": 1.47, 
			 "cosmo_total_nonelectrostatic_energy": 6.89, 
			 "SMD_solvation_energy": 3.61 
		},
		"coords": [
			{
				"x": 1.8539001895,
				"y": -2.0746481921,
				"z": 0.6006250099,
				"element": "C" 
			},
			{
				"x": 1.8854683386,
				"y": -0.2823710144,
				"z": 0.7866033403,
				"element": "S" 
			},
			{
				"x": 2.2935625032,
				"y": 0.0227711203,
				"z": 2.166595229,
				"element": "O" 
			},
			{
				"x": 2.6148645806,
				"y": 0.2873402612,
				"z": -0.3595349935,
				"element": "O" 
			},
			{
				"x": 0.1409909467,
				"y": 0.2883311927,
				"z": 0.6579652912,
				"element": "C" 
			},
			{
				"x": -0.3266895237,
				"y": 0.6186689127,
				"z": -0.7564182092,
				"element": "C" 
			},
			{
				"x": -1.277930336,
				"y": -0.6821592783,
				"z": -1.5798894662,
				"element": "S" 
			},
			{
				"x": -2.6494613628,
				"y": -0.7948065158,
				"z": -0.5869049423,
				"element": "N" 
			},
			{
				"x": -0.5759571772,
				"y": -1.9631021997,
				"z": -1.4255619467,
				"element": "O" 
			},
			{
				"x": -1.6602281347,
				"y": -0.1649987226,
				"z": -2.894281718,
				"element": "O" 
			},
			{
				"x": 1.3155500686,
				"y": -2.507023704,
				"z": 1.4453323231,
				"element": "H" 
			},
			{
				"x": 1.3795762225,
				"y": -2.3320822758,
				"z": -0.3459406458,
				"element": "H" 
			},
			{
				"x": 2.9002785839,
				"y": -2.3853250527,
				"z": 0.6203952337,
				"element": "H" 
			},
			{
				"x": 0.1718035629,
				"y": 1.2001399419,
				"z": 1.2606531734,
				"element": "H" 
			},
			{
				"x": -0.503201042,
				"y": -0.4256160508,
				"z": 1.1769787243,
				"element": "H" 
			},
			{
				"x": 0.5249837211,
				"y": 0.8186261475,
				"z": -1.414807459,
				"element": "H" 
			},
			{
				"x": -0.9766052421,
				"y": 1.4972421365,
				"z": -0.7635343796,
				"element": "H" 
			},
			{
				"x": -3.4420637247,
				"y": -0.337667274,
				"z": -1.032234625,
				"element": "H" 
			},
			{
				"x": -2.8476421742,
				"y": -1.7790194326,
				"z": -0.4231399397,
				"element": "H" 
			}
		],
		 "valence_orbital": [ 
			{
				"type": "occ",
				"energy": -0.32328,
				"method": "rhf"
			},
			{
				"type": "occ",
				"energy": -0.31399,
				"method": "rhf"
			},
			{
				"type": "occ",
				"energy": -0.31035,
				"method": "rhf"
			},
			{
				"type": "occ",
				"energy": -0.29879,
				"method": "rhf"
			},
			{
				"type": "occ",
				"energy": -0.29112,
				"method": "rhf"
			},
			{
				"type": "unocc",
				"energy": 0.02982,
				"method": "rhf"
			},
			{
				"type": "unocc",
				"energy": 0.04566,
				"method": "rhf"
			},
			{
				"type": "unocc",
				"energy": 0.05215,
				"method": "rhf"
			},
			{
				"type": "unocc",
				"energy": 0.06625,
				"method": "rhf"
			},
			{
				"type": "unocc",
				"energy": 0.06913,
				"method": "rhf"
			}
		],
		"cosmo_sigma_profile": { 
			"-0.025": 0.0,
			"-0.024": 0.0,
			"-0.023": 0.0,
			"-0.022": 0.0,
			"-0.021": 0.0,
			"-0.02": 0.0,
			"-0.019": 0.0,
			"-0.018": 0.0,
			"-0.017": 0.0,
			"-0.016": 0.0,
			"-0.015": 1.57359597339,
			"-0.014": 2.86915723377,
			"-0.013": 2.40197974235,
			"-0.012": 3.03719687436,
			"-0.011": 3.7863859417,
			"-0.01": 6.42688805818,
			"-0.009": 9.99374711409,
			"-0.008": 11.3638612368,
			"-0.007": 9.06098504243,
			"-0.006": 10.6228664734,
			"-0.005": 10.8433354114,
			"-0.004": 10.2826726121,
			"-0.003": 8.53501286918,
			"-0.002": 7.20313937983,
			"-0.001": 5.40720696075,
			"0.0": 5.35561689323,
			"0.001": 4.59727021892,
			"0.002": 4.87592362229,
			"0.003": 5.02806802079,
			"0.004": 4.46286042828,
			"0.005": 4.32893180409,
			"0.006": 4.05847743122,
			"0.007": 5.09554014368,
			"0.008": 6.62875816479,
			"0.009": 6.9372659402,
			"0.01": 10.0910643618,
			"0.011": 17.1579975682,
			"0.012": 11.2179563702,
			"0.013": 1.28791673968,
			"0.014": 0.0,
			"0.015": 0.0,
			"0.016": 0.0,
			"0.017": 0.0,
			"0.018": 0.0,
			"0.019": 0.0,
			"0.02": 0.0,
			"0.021": 0.0,
			"0.022": 0.0,
			"0.023": 0.0,
			"0.024": 0.0,
			"0.025": 0.0
		}
	}
}
