{
	 "smiles": "OC1=CC2=C(C=CC=C2O)C=C1", 
	 "Tm": 454.15, 
	 "num_atms": 20, 
	 "gaussian": { 
		 "optdone": 1, 
		 "sigma_profile": "yes", 
		 "theory": "DFT", 
		 "functional": "B3LYP", 
		 "basiset": "6-31G**", 
		 "properties": { 
			 "R2extent": 2307.631, 
			 "electric_dipole_moment_norm": 1.01304516681, 
			 "electric_quadrupole_moment_norm": 17.6338084259, 
			 "total_energy": -536.334847168, 
			 "HOMO_LUMO_gap": 0.16301, 
			 "cosmo_polarized_energy": -13.73, 
			 "cosmo_cavitation_energy": 23.85, 
			 "cosmo_dispersion_energy": -18.12, 
			 "cosmo_repulsion_energy": 1.41, 
			 "cosmo_total_nonelectrostatic_energy": 7.14, 
			 "SMD_solvation_energy": 4.47 
		},
		"coords": [
			{
				"x": -1.1101885973,
				"y": 0.7497131156,
				"z": 2.8220803224,
				"element": "O" 
			},
			{
				"x": -0.1792571394,
				"y": 0.9316090219,
				"z": 1.8359743928,
				"element": "C" 
			},
			{
				"x": -0.4432933511,
				"y": 0.4110027856,
				"z": 0.5851342643,
				"element": "C" 
			},
			{
				"x": 0.4919708035,
				"y": 0.5759019768,
				"z": -0.4636890938,
				"element": "C" 
			},
			{
				"x": 1.7170234727,
				"y": 1.2834501269,
				"z": -0.2335532669,
				"element": "C" 
			},
			{
				"x": 2.6519600041,
				"y": 1.4450640692,
				"z": -1.2926532904,
				"element": "C" 
			},
			{
				"x": 2.3853297874,
				"y": 0.9251501239,
				"z": -2.5368539705,
				"element": "C" 
			},
			{
				"x": 1.1801167516,
				"y": 0.223574213,
				"z": -2.7810558614,
				"element": "C" 
			},
			{
				"x": 0.2551980418,
				"y": 0.0516664302,
				"z": -1.7725022984,
				"element": "C" 
			},
			{
				"x": -0.9251117542,
				"y": -0.6163963797,
				"z": -1.9494789109,
				"element": "O" 
			},
			{
				"x": 1.9467484203,
				"y": 1.8016040944,
				"z": 1.0674710961,
				"element": "C" 
			},
			{
				"x": 1.0283046792,
				"y": 1.6337698251,
				"z": 2.0782276813,
				"element": "C" 
			},
			{
				"x": -0.7938723478,
				"y": 1.1633305727,
				"z": 3.6351245615,
				"element": "H" 
			},
			{
				"x": -1.3689766663,
				"y": -0.1236419768,
				"z": 0.4112627048,
				"element": "H" 
			},
			{
				"x": 3.575904234,
				"y": 1.9838393533,
				"z": -1.1024475796,
				"element": "H" 
			},
			{
				"x": 3.0980234882,
				"y": 1.0475130726,
				"z": -3.3470312515,
				"element": "H" 
			},
			{
				"x": 0.9807123164,
				"y": -0.1833177022,
				"z": -3.7704863003,
				"element": "H" 
			},
			{
				"x": -0.9769770647,
				"y": -0.9235504411,
				"z": -2.8635818867,
				"element": "H" 
			},
			{
				"x": 2.8704037927,
				"y": 2.3409835758,
				"z": 1.2602370258,
				"element": "H" 
			},
			{
				"x": 1.2244811289,
				"y": 2.0394341426,
				"z": 3.0691216612,
				"element": "H" 
			}
		],
		 "valence_orbital": [ 
			{
				"type": "occ",
				"energy": -0.33201,
				"method": "rhf"
			},
			{
				"type": "occ",
				"energy": -0.29767,
				"method": "rhf"
			},
			{
				"type": "occ",
				"energy": -0.25971,
				"method": "rhf"
			},
			{
				"type": "occ",
				"energy": -0.22822,
				"method": "rhf"
			},
			{
				"type": "occ",
				"energy": -0.19097,
				"method": "rhf"
			},
			{
				"type": "unocc",
				"energy": -0.02796,
				"method": "rhf"
			},
			{
				"type": "unocc",
				"energy": 0.00179,
				"method": "rhf"
			},
			{
				"type": "unocc",
				"energy": 0.04758,
				"method": "rhf"
			},
			{
				"type": "unocc",
				"energy": 0.07042,
				"method": "rhf"
			},
			{
				"type": "unocc",
				"energy": 0.07265,
				"method": "rhf"
			}
		],
		"cosmo_sigma_profile": { 
			"-0.025": 0.0,
			"-0.024": 0.0,
			"-0.023": 0.0,
			"-0.022": 0.0,
			"-0.021": 0.0,
			"-0.02": 0.0,
			"-0.019": 0.0,
			"-0.018": 0.815395080258,
			"-0.017": 2.25429634519,
			"-0.016": 1.66891794231,
			"-0.015": 2.26747862446,
			"-0.014": 2.3067984078,
			"-0.013": 1.71016746758,
			"-0.012": 1.775548647,
			"-0.011": 1.51059075634,
			"-0.01": 2.54238412712,
			"-0.009": 2.69053450962,
			"-0.008": 1.70435563454,
			"-0.007": 3.1494806561,
			"-0.006": 6.97830725334,
			"-0.005": 11.1190558629,
			"-0.004": 11.4547028227,
			"-0.003": 8.77407019615,
			"-0.002": 8.92571930783,
			"-0.001": 7.0816136242,
			"0.0": 6.97208256926,
			"0.001": 7.79831255614,
			"0.002": 9.9260131698,
			"0.003": 14.3066878631,
			"0.004": 25.6102476323,
			"0.005": 21.6793255685,
			"0.006": 9.0845717574,
			"0.007": 3.84770470422,
			"0.008": 2.98521092818,
			"0.009": 3.6796116491,
			"0.01": 2.77172132032,
			"0.011": 2.13627133933,
			"0.012": 0.907312199975,
			"0.013": 0.0,
			"0.014": 0.0,
			"0.015": 0.0,
			"0.016": 0.0,
			"0.017": 0.0,
			"0.018": 0.0,
			"0.019": 0.0,
			"0.02": 0.0,
			"0.021": 0.0,
			"0.022": 0.0,
			"0.023": 0.0,
			"0.024": 0.0,
			"0.025": 0.0
		}
	}
}
