{
	 "smiles": "COC1=C(C=CC=C1)C1=NN=C2SC(NN12)C=CC", 
	 "Tm": 398.15, 
	 "num_atms": 33, 
	 "gaussian": { 
		 "optdone": 1, 
		 "sigma_profile": "yes", 
		 "theory": "DFT", 
		 "functional": "B3LYP", 
		 "basiset": "6-31G**", 
		 "properties": { 
			 "R2extent": 8547.7549, 
			 "electric_dipole_moment_norm": 8.72011102395, 
			 "electric_quadrupole_moment_norm": 42.2429838591, 
			 "total_energy": -1196.13531377, 
			 "HOMO_LUMO_gap": 0.17829, 
			 "cosmo_polarized_energy": -21.53, 
			 "cosmo_cavitation_energy": 38.5, 
			 "cosmo_dispersion_energy": -27.62, 
			 "cosmo_repulsion_energy": 2.08, 
			 "cosmo_total_nonelectrostatic_energy": 12.96, 
			 "SMD_solvation_energy": 3.63 
		},
		"coords": [
			{
				"x": 2.0452314141,
				"y": -1.4396109806,
				"z": -1.763457844,
				"element": "C" 
			},
			{
				"x": 1.5942499462,
				"y": -0.2127893065,
				"z": -1.1984648463,
				"element": "O" 
			},
			{
				"x": 1.6740028566,
				"y": -0.0522735401,
				"z": 0.1676929622,
				"element": "C" 
			},
			{
				"x": 1.4292561831,
				"y": 1.2443367747,
				"z": 0.6718479043,
				"element": "C" 
			},
			{
				"x": 1.5504164335,
				"y": 1.4540948392,
				"z": 2.0540179983,
				"element": "C" 
			},
			{
				"x": 1.8862193106,
				"y": 0.4168673557,
				"z": 2.9199974664,
				"element": "C" 
			},
			{
				"x": 2.1027395154,
				"y": -0.8610469009,
				"z": 2.4083976929,
				"element": "C" 
			},
			{
				"x": 1.9984051666,
				"y": -1.0979099037,
				"z": 1.0363974926,
				"element": "C" 
			},
			{
				"x": 1.1115104879,
				"y": 2.4072983799,
				"z": -0.1634423267,
				"element": "C" 
			},
			{
				"x": 1.4866342881,
				"y": 3.6508889448,
				"z": 0.1201714982,
				"element": "N" 
			},
			{
				"x": 0.9804354014,
				"y": 4.506041055,
				"z": -0.8381452806,
				"element": "N" 
			},
			{
				"x": 0.3213855781,
				"y": 3.7493308116,
				"z": -1.682768325,
				"element": "C" 
			},
			{
				"x": -0.7172099581,
				"y": 3.9951541606,
				"z": -3.0862572552,
				"element": "S" 
			},
			{
				"x": -0.664844287,
				"y": 2.1318500993,
				"z": -3.3622211159,
				"element": "C" 
			},
			{
				"x": -0.4996822334,
				"y": 1.5586699573,
				"z": -2.0009182517,
				"element": "N" 
			},
			{
				"x": 0.3887844494,
				"y": 2.4378723873,
				"z": -1.3298863973,
				"element": "N" 
			},
			{
				"x": -1.9131198487,
				"y": 1.6252475459,
				"z": -4.0022979147,
				"element": "C" 
			},
			{
				"x": -1.9513258726,
				"y": 1.1254186057,
				"z": -5.241488845,
				"element": "C" 
			},
			{
				"x": -3.1846243098,
				"y": 0.6258023461,
				"z": -5.9317831651,
				"element": "C" 
			},
			{
				"x": 1.9974512228,
				"y": -1.307944024,
				"z": -2.8456586157,
				"element": "H" 
			},
			{
				"x": 1.4035092283,
				"y": -2.280451825,
				"z": -1.4736292582,
				"element": "H" 
			},
			{
				"x": 3.0790236896,
				"y": -1.6527070113,
				"z": -1.4695485009,
				"element": "H" 
			},
			{
				"x": 1.3789525178,
				"y": 2.4581008058,
				"z": 2.4259003301,
				"element": "H" 
			},
			{
				"x": 1.9714356133,
				"y": 0.6057619907,
				"z": 3.9852524678,
				"element": "H" 
			},
			{
				"x": 2.3558803916,
				"y": -1.6835431453,
				"z": 3.0707955925,
				"element": "H" 
			},
			{
				"x": 2.1789610844,
				"y": -2.0947797851,
				"z": 0.6533588453,
				"element": "H" 
			},
			{
				"x": 0.2120651696,
				"y": 1.9420524196,
				"z": -3.9968504523,
				"element": "H" 
			},
			{
				"x": -0.0103052726,
				"y": 0.6642919478,
				"z": -2.0650619856,
				"element": "H" 
			},
			{
				"x": -2.8133215898,
				"y": 1.6968854297,
				"z": -3.3953214884,
				"element": "H" 
			},
			{
				"x": -1.0238024824,
				"y": 1.0744298939,
				"z": -5.8143467195,
				"element": "H" 
			},
			{
				"x": -3.0691285957,
				"y": -0.422665577,
				"z": -6.2333456743,
				"element": "H" 
			},
			{
				"x": -4.0668590467,
				"y": 0.7041529568,
				"z": -5.2906242497,
				"element": "H" 
			},
			{
				"x": -3.3759264518,
				"y": 1.1956732922,
				"z": -6.8495117384,
				"element": "H" 
			}
		],
		 "valence_orbital": [ 
			{
				"type": "occ",
				"energy": -0.26522,
				"method": "rhf"
			},
			{
				"type": "occ",
				"energy": -0.24467,
				"method": "rhf"
			},
			{
				"type": "occ",
				"energy": -0.24182,
				"method": "rhf"
			},
			{
				"type": "occ",
				"energy": -0.23285,
				"method": "rhf"
			},
			{
				"type": "occ",
				"energy": -0.2071,
				"method": "rhf"
			},
			{
				"type": "unocc",
				"energy": -0.02881,
				"method": "rhf"
			},
			{
				"type": "unocc",
				"energy": -0.0229,
				"method": "rhf"
			},
			{
				"type": "unocc",
				"energy": -0.0002,
				"method": "rhf"
			},
			{
				"type": "unocc",
				"energy": 0.00803,
				"method": "rhf"
			},
			{
				"type": "unocc",
				"energy": 0.04166,
				"method": "rhf"
			}
		],
		"cosmo_sigma_profile": { 
			"-0.025": 0.0,
			"-0.024": 0.0,
			"-0.023": 0.0,
			"-0.022": 0.0,
			"-0.021": 0.0,
			"-0.02": 0.0,
			"-0.019": 0.0,
			"-0.018": 0.0,
			"-0.017": 0.0,
			"-0.016": 0.0,
			"-0.015": 0.0,
			"-0.014": 0.0,
			"-0.013": 0.0,
			"-0.012": 0.0,
			"-0.011": 0.162842992901,
			"-0.01": 1.43273221847,
			"-0.009": 1.35043612104,
			"-0.008": 3.94806867757,
			"-0.007": 9.793708324,
			"-0.006": 19.6263288036,
			"-0.005": 23.263479272,
			"-0.004": 30.1072857369,
			"-0.003": 24.9211338602,
			"-0.002": 20.6852895246,
			"-0.001": 24.0078120561,
			"0.0": 25.7984284391,
			"0.001": 21.1559957836,
			"0.002": 20.1999739518,
			"0.003": 19.4829601357,
			"0.004": 17.443348279,
			"0.005": 11.6096628118,
			"0.006": 4.89360408858,
			"0.007": 4.18328579492,
			"0.008": 2.53552401694,
			"0.009": 2.43332839938,
			"0.01": 1.86414395976,
			"0.011": 3.10773337542,
			"0.012": 3.53676249498,
			"0.013": 3.47241933185,
			"0.014": 2.96722385465,
			"0.015": 2.94026662119,
			"0.016": 2.20258813461,
			"0.017": 0.506671446356,
			"0.018": 0.0,
			"0.019": 0.0,
			"0.02": 0.0,
			"0.021": 0.0,
			"0.022": 0.0,
			"0.023": 0.0,
			"0.024": 0.0,
			"0.025": 0.0
		}
	}
}
