{
	 "smiles": "FC(F)(F)C1=CC=C(C=C1)C1=NN=NN1", 
	 "Tm": 499.15, 
	 "num_atms": 20, 
	 "gaussian": { 
		 "optdone": 1, 
		 "sigma_profile": "yes", 
		 "theory": "DFT", 
		 "functional": "B3LYP", 
		 "basiset": "6-31G**", 
		 "properties": { 
			 "R2extent": 4485.626, 
			 "electric_dipole_moment_norm": 4.0041437162, 
			 "electric_quadrupole_moment_norm": 22.8215384852, 
			 "total_energy": -826.345710321, 
			 "HOMO_LUMO_gap": 0.19436, 
			 "cosmo_polarized_energy": -18.06, 
			 "cosmo_cavitation_energy": 27.01, 
			 "cosmo_dispersion_energy": -19.52, 
			 "cosmo_repulsion_energy": 1.44, 
			 "cosmo_total_nonelectrostatic_energy": 8.92, 
			 "SMD_solvation_energy": 3.98 
		},
		"coords": [
			{
				"x": 1.7938134567,
				"y": 2.1702660626,
				"z": -3.6579493156,
				"element": "F" 
			},
			{
				"x": 2.0299746211,
				"y": 2.2467327936,
				"z": -2.3287245436,
				"element": "C" 
			},
			{
				"x": 3.2865244354,
				"y": 1.7980664085,
				"z": -2.1242502189,
				"element": "F" 
			},
			{
				"x": 2.0019112073,
				"y": 3.5555767875,
				"z": -1.9964578481,
				"element": "F" 
			},
			{
				"x": 1.0197024386,
				"y": 1.4496413803,
				"z": -1.5451838202,
				"element": "C" 
			},
			{
				"x": -0.1506785355,
				"y": 2.0609488617,
				"z": -1.0903342194,
				"element": "C" 
			},
			{
				"x": -1.1067634997,
				"y": 1.3102521466,
				"z": -0.412704569,
				"element": "C" 
			},
			{
				"x": -0.9035239299,
				"y": -0.0589228378,
				"z": -0.184646271,
				"element": "C" 
			},
			{
				"x": 0.2774807197,
				"y": -0.6649132464,
				"z": -0.6435263266,
				"element": "C" 
			},
			{
				"x": 1.2318338726,
				"y": 0.0858423156,
				"z": -1.3196048539,
				"element": "C" 
			},
			{
				"x": -1.8834412361,
				"y": -0.8840836003,
				"z": 0.5241402228,
				"element": "C" 
			},
			{
				"x": -1.7586801726,
				"y": -2.1746221771,
				"z": 0.8015059187,
				"element": "N" 
			},
			{
				"x": -2.8852992816,
				"y": -2.5407226713,
				"z": 1.4613999091,
				"element": "N" 
			},
			{
				"x": -3.6929995062,
				"y": -1.5406011309,
				"z": 1.6020487666,
				"element": "N" 
			},
			{
				"x": -3.0799472334,
				"y": -0.4856438065,
				"z": 1.0179360269,
				"element": "N" 
			},
			{
				"x": -0.3074507814,
				"y": 3.1204936201,
				"z": -1.2583025142,
				"element": "H" 
			},
			{
				"x": -2.0075006336,
				"y": 1.8054986616,
				"z": -0.0615856563,
				"element": "H" 
			},
			{
				"x": 0.4291410773,
				"y": -1.7223049008,
				"z": -0.4584297351,
				"element": "H" 
			},
			{
				"x": 2.146459321,
				"y": -0.3824728512,
				"z": -1.6663569572,
				"element": "H" 
			},
			{
				"x": -3.5369563395,
				"y": 0.4139681842,
				"z": 1.0056260051,
				"element": "H" 
			}
		],
		 "valence_orbital": [ 
			{
				"type": "occ",
				"energy": -0.33374,
				"method": "rhf"
			},
			{
				"type": "occ",
				"energy": -0.30767,
				"method": "rhf"
			},
			{
				"type": "occ",
				"energy": -0.29295,
				"method": "rhf"
			},
			{
				"type": "occ",
				"energy": -0.28944,
				"method": "rhf"
			},
			{
				"type": "occ",
				"energy": -0.27018,
				"method": "rhf"
			},
			{
				"type": "unocc",
				"energy": -0.07582,
				"method": "rhf"
			},
			{
				"type": "unocc",
				"energy": -0.03898,
				"method": "rhf"
			},
			{
				"type": "unocc",
				"energy": -0.01074,
				"method": "rhf"
			},
			{
				"type": "unocc",
				"energy": 0.03235,
				"method": "rhf"
			},
			{
				"type": "unocc",
				"energy": 0.03454,
				"method": "rhf"
			}
		],
		"cosmo_sigma_profile": { 
			"-0.025": 0.0,
			"-0.024": 0.0,
			"-0.023": 0.0,
			"-0.022": 0.0,
			"-0.021": 0.0,
			"-0.02": 0.117265328261,
			"-0.019": 1.44893938364,
			"-0.018": 1.96579810349,
			"-0.017": 1.16929428095,
			"-0.016": 1.82837610973,
			"-0.015": 1.03444650992,
			"-0.014": 1.44262465917,
			"-0.013": 0.897856272327,
			"-0.012": 1.10452912051,
			"-0.011": 1.05699750304,
			"-0.01": 1.7008263147,
			"-0.009": 1.57143032447,
			"-0.008": 3.63333954065,
			"-0.007": 7.20582940415,
			"-0.006": 8.51592696969,
			"-0.005": 6.89558991819,
			"-0.004": 10.6329390643,
			"-0.003": 9.39200528924,
			"-0.002": 11.0488888363,
			"-0.001": 13.3885661334,
			"0.0": 17.4622880557,
			"0.001": 22.9108108003,
			"0.002": 28.4722574198,
			"0.003": 25.7175450119,
			"0.004": 2.63207244677,
			"0.005": 3.30295328506,
			"0.006": 2.44210901901,
			"0.007": 4.5915294256,
			"0.008": 4.81865704696,
			"0.009": 4.66876007818,
			"0.01": 5.27117918017,
			"0.011": 3.90634744312,
			"0.012": 3.23366264395,
			"0.013": 2.29608820089,
			"0.014": 0.650860229525,
			"0.015": 0.0,
			"0.016": 0.0,
			"0.017": 0.0,
			"0.018": 0.0,
			"0.019": 0.0,
			"0.02": 0.0,
			"0.021": 0.0,
			"0.022": 0.0,
			"0.023": 0.0,
			"0.024": 0.0,
			"0.025": 0.0
		}
	}
}
