{
	 "smiles": "FC1=CC(C(=O)C2=C(Cl)C=CC=C2)=C(F)C=C1", 
	 "Tm": 341.15, 
	 "num_atms": 24, 
	 "gaussian": { 
		 "optdone": 1, 
		 "sigma_profile": "yes", 
		 "theory": "DFT", 
		 "functional": "B3LYP", 
		 "basiset": "6-31G**", 
		 "properties": { 
			 "R2extent": 4448.3022, 
			 "electric_dipole_moment_norm": 2.67254092017, 
			 "electric_quadrupole_moment_norm": 18.0615842351, 
			 "total_energy": -1234.67403436, 
			 "HOMO_LUMO_gap": 0.1747, 
			 "cosmo_polarized_energy": -9.88, 
			 "cosmo_cavitation_energy": 31.85, 
			 "cosmo_dispersion_energy": -22.12, 
			 "cosmo_repulsion_energy": 1.67, 
			 "cosmo_total_nonelectrostatic_energy": 11.4, 
			 "SMD_solvation_energy": 6.62 
		},
		"coords": [
			{
				"x": -0.0609457991,
				"y": 3.7806653746,
				"z": 1.5728474328,
				"element": "F" 
			},
			{
				"x": 0.8588900599,
				"y": 2.9986596633,
				"z": 0.9713945785,
				"element": "C" 
			},
			{
				"x": 0.4319463763,
				"y": 1.9336084749,
				"z": 0.1931659795,
				"element": "C" 
			},
			{
				"x": 1.3731273778,
				"y": 1.1180294037,
				"z": -0.4544640483,
				"element": "C" 
			},
			{
				"x": 0.9283859309,
				"y": 0.0288597425,
				"z": -1.3811927919,
				"element": "C" 
			},
			{
				"x": 1.5723159802,
				"y": -0.2593686837,
				"z": -2.3764245454,
				"element": "O" 
			},
			{
				"x": -0.4026751977,
				"y": -0.6464525085,
				"z": -1.1449215842,
				"element": "C" 
			},
			{
				"x": -0.8224676705,
				"y": -1.2310096769,
				"z": 0.0599941674,
				"element": "C" 
			},
			{
				"x": 0.2272486791,
				"y": -1.2709925966,
				"z": 1.472073062,
				"element": "Cl" 
			},
			{
				"x": -2.0632808061,
				"y": -1.8619714566,
				"z": 0.1638389795,
				"element": "C" 
			},
			{
				"x": -2.9073187785,
				"y": -1.9130148586,
				"z": -0.9441751257,
				"element": "C" 
			},
			{
				"x": -2.5027663962,
				"y": -1.3582131381,
				"z": -2.160079161,
				"element": "C" 
			},
			{
				"x": -1.2572675001,
				"y": -0.74621098,
				"z": -2.2556680163,
				"element": "C" 
			},
			{
				"x": 2.7330526328,
				"y": 1.4144363794,
				"z": -0.2747412575,
				"element": "C" 
			},
			{
				"x": 3.671391246,
				"y": 0.6491497488,
				"z": -0.8508094334,
				"element": "F" 
			},
			{
				"x": 3.1539991951,
				"y": 2.4730663886,
				"z": 0.5230610341,
				"element": "C" 
			},
			{
				"x": 2.208991304,
				"y": 3.28249445,
				"z": 1.1510508722,
				"element": "C" 
			},
			{
				"x": -0.6300395169,
				"y": 1.7459765366,
				"z": 0.0834857838,
				"element": "H" 
			},
			{
				"x": -2.3520589375,
				"y": -2.3164041615,
				"z": 1.1050234108,
				"element": "H" 
			},
			{
				"x": -3.8745722994,
				"y": -2.3985930539,
				"z": -0.8563703084,
				"element": "H" 
			},
			{
				"x": -3.1509242585,
				"y": -1.4093047985,
				"z": -3.0292136852,
				"element": "H" 
			},
			{
				"x": -0.9152547705,
				"y": -0.3286346376,
				"z": -3.1970557452,
				"element": "H" 
			},
			{
				"x": 4.2172292444,
				"y": 2.6502649551,
				"z": 0.640517103,
				"element": "H" 
			},
			{
				"x": 2.5051939045,
				"y": 4.120159433,
				"z": 1.772663299,
				"element": "H" 
			}
		],
		 "valence_orbital": [ 
			{
				"type": "occ",
				"energy": -0.27887,
				"method": "rhf"
			},
			{
				"type": "occ",
				"energy": -0.27605,
				"method": "rhf"
			},
			{
				"type": "occ",
				"energy": -0.2595,
				"method": "rhf"
			},
			{
				"type": "occ",
				"energy": -0.25735,
				"method": "rhf"
			},
			{
				"type": "occ",
				"energy": -0.24772,
				"method": "rhf"
			},
			{
				"type": "unocc",
				"energy": -0.07302,
				"method": "rhf"
			},
			{
				"type": "unocc",
				"energy": -0.0322,
				"method": "rhf"
			},
			{
				"type": "unocc",
				"energy": -0.02506,
				"method": "rhf"
			},
			{
				"type": "unocc",
				"energy": -0.00956,
				"method": "rhf"
			},
			{
				"type": "unocc",
				"energy": 0.02128,
				"method": "rhf"
			}
		],
		"cosmo_sigma_profile": { 
			"-0.025": 0.0,
			"-0.024": 0.0,
			"-0.023": 0.0,
			"-0.022": 0.0,
			"-0.021": 0.0,
			"-0.02": 0.0,
			"-0.019": 0.0,
			"-0.018": 0.0,
			"-0.017": 0.0,
			"-0.016": 0.0,
			"-0.015": 0.0,
			"-0.014": 0.0,
			"-0.013": 0.0,
			"-0.012": 0.0,
			"-0.011": 0.0,
			"-0.01": 0.0,
			"-0.009": 1.05340318488,
			"-0.008": 6.06728638921,
			"-0.007": 10.9681590297,
			"-0.006": 15.5353165502,
			"-0.005": 14.8316722574,
			"-0.004": 11.8286189898,
			"-0.003": 11.822250734,
			"-0.002": 14.3703043127,
			"-0.001": 19.8497923782,
			"0.0": 30.0775363775,
			"0.001": 27.0392593143,
			"0.002": 24.9755536194,
			"0.003": 25.0372949027,
			"0.004": 23.3730485409,
			"0.005": 3.99854315822,
			"0.006": 2.64564659509,
			"0.007": 2.39701446811,
			"0.008": 1.72357680965,
			"0.009": 2.77762744793,
			"0.01": 3.30719697742,
			"0.011": 4.63807361064,
			"0.012": 1.05070104296,
			"0.013": 0.0,
			"0.014": 0.0,
			"0.015": 0.0,
			"0.016": 0.0,
			"0.017": 0.0,
			"0.018": 0.0,
			"0.019": 0.0,
			"0.02": 0.0,
			"0.021": 0.0,
			"0.022": 0.0,
			"0.023": 0.0,
			"0.024": 0.0,
			"0.025": 0.0
		}
	}
}
