{
	 "smiles": "NC1=CC=NN1CC1=C(Cl)C=CC=C1Cl", 
	 "Tm": 401.15, 
	 "num_atms": 24, 
	 "gaussian": { 
		 "optdone": 1, 
		 "sigma_profile": "yes", 
		 "theory": "DFT", 
		 "functional": "B3LYP", 
		 "basiset": "6-31G**", 
		 "properties": { 
			 "R2extent": 3636.7548, 
			 "electric_dipole_moment_norm": 3.834296886, 
			 "electric_quadrupole_moment_norm": 7.48524935056, 
			 "total_energy": -1471.09672277, 
			 "HOMO_LUMO_gap": 0.16504, 
			 "cosmo_polarized_energy": -13.94, 
			 "cosmo_cavitation_energy": 30.63, 
			 "cosmo_dispersion_energy": -22.25, 
			 "cosmo_repulsion_energy": 1.72, 
			 "cosmo_total_nonelectrostatic_energy": 10.1, 
			 "SMD_solvation_energy": 4.07 
		},
		"coords": [
			{
				"x": 1.1500242809,
				"y": 2.0486568849,
				"z": 1.0703751294,
				"element": "N" 
			},
			{
				"x": 1.6862555882,
				"y": 0.8368257587,
				"z": 1.5051758233,
				"element": "C" 
			},
			{
				"x": 2.9549759434,
				"y": 0.5170605089,
				"z": 1.9655394312,
				"element": "C" 
			},
			{
				"x": 2.9101744102,
				"y": -0.8778127685,
				"z": 2.1816429426,
				"element": "C" 
			},
			{
				"x": 1.7259228692,
				"y": -1.399838313,
				"z": 1.8920137932,
				"element": "N" 
			},
			{
				"x": 0.9831449449,
				"y": -0.3353716441,
				"z": 1.4522136556,
				"element": "N" 
			},
			{
				"x": -0.4152921807,
				"y": -0.5612943623,
				"z": 1.1102302191,
				"element": "C" 
			},
			{
				"x": -0.8153634351,
				"y": -0.1091082381,
				"z": -0.284424746,
				"element": "C" 
			},
			{
				"x": -0.36969197,
				"y": -0.7855270938,
				"z": -1.4363318669,
				"element": "C" 
			},
			{
				"x": 0.6765011301,
				"y": -2.1823791853,
				"z": -1.2792541525,
				"element": "Cl" 
			},
			{
				"x": -0.7408384581,
				"y": -0.4013457646,
				"z": -2.7238391814,
				"element": "C" 
			},
			{
				"x": -1.593102184,
				"y": 0.6860521085,
				"z": -2.8953475992,
				"element": "C" 
			},
			{
				"x": -2.0735451855,
				"y": 1.3784744135,
				"z": -1.7877293631,
				"element": "C" 
			},
			{
				"x": -1.6816008644,
				"y": 0.9732966928,
				"z": -0.5133768628,
				"element": "C" 
			},
			{
				"x": -2.3422929571,
				"y": 1.9011687467,
				"z": 0.842888528,
				"element": "Cl" 
			},
			{
				"x": 1.7658826026,
				"y": 2.8255352692,
				"z": 1.2717433262,
				"element": "H" 
			},
			{
				"x": 0.2154616333,
				"y": 2.2466647657,
				"z": 1.4117629437,
				"element": "H" 
			},
			{
				"x": 3.7782730779,
				"y": 1.1980631077,
				"z": 2.1238509183,
				"element": "H" 
			},
			{
				"x": 3.6995161205,
				"y": -1.5217797214,
				"z": 2.5477617016,
				"element": "H" 
			},
			{
				"x": -0.5453193771,
				"y": -1.6410636483,
				"z": 1.2023500595,
				"element": "H" 
			},
			{
				"x": -1.0649473489,
				"y": -0.0845220473,
				"z": 1.848223384,
				"element": "H" 
			},
			{
				"x": -0.3660106085,
				"y": -0.9579058032,
				"z": -3.5749419814,
				"element": "H" 
			},
			{
				"x": -1.8879234851,
				"y": 0.9918059804,
				"z": -3.8942239597,
				"element": "H" 
			},
			{
				"x": -2.7423045466,
				"y": 2.223444353,
				"z": -1.9016021426,
				"element": "H" 
			}
		],
		 "valence_orbital": [ 
			{
				"type": "occ",
				"energy": -0.27041,
				"method": "rhf"
			},
			{
				"type": "occ",
				"energy": -0.26779,
				"method": "rhf"
			},
			{
				"type": "occ",
				"energy": -0.25498,
				"method": "rhf"
			},
			{
				"type": "occ",
				"energy": -0.23475,
				"method": "rhf"
			},
			{
				"type": "occ",
				"energy": -0.1983,
				"method": "rhf"
			},
			{
				"type": "unocc",
				"energy": -0.03326,
				"method": "rhf"
			},
			{
				"type": "unocc",
				"energy": -0.02799,
				"method": "rhf"
			},
			{
				"type": "unocc",
				"energy": -0.00163,
				"method": "rhf"
			},
			{
				"type": "unocc",
				"energy": 0.04248,
				"method": "rhf"
			},
			{
				"type": "unocc",
				"energy": 0.04822,
				"method": "rhf"
			}
		],
		"cosmo_sigma_profile": { 
			"-0.025": 0.0,
			"-0.024": 0.0,
			"-0.023": 0.0,
			"-0.022": 0.0,
			"-0.021": 0.0,
			"-0.02": 0.0,
			"-0.019": 0.0,
			"-0.018": 0.0,
			"-0.017": 0.0,
			"-0.016": 0.0,
			"-0.015": 0.0,
			"-0.014": 0.0933934069813,
			"-0.013": 1.12220815657,
			"-0.012": 1.3870736926,
			"-0.011": 1.16360481692,
			"-0.01": 2.3121617106,
			"-0.009": 2.98150343192,
			"-0.008": 6.44193314309,
			"-0.007": 10.8361069186,
			"-0.006": 14.2550995743,
			"-0.005": 13.3622442774,
			"-0.004": 15.1077267095,
			"-0.003": 12.3319500489,
			"-0.002": 13.8230088644,
			"-0.001": 16.0961193866,
			"0.0": 18.7361456756,
			"0.001": 20.8965159704,
			"0.002": 23.0146390716,
			"0.003": 18.6782515012,
			"0.004": 15.7714614467,
			"0.005": 8.72203422112,
			"0.006": 7.86053309425,
			"0.007": 6.59408247811,
			"0.008": 3.99928689151,
			"0.009": 2.89174328529,
			"0.01": 2.72305266091,
			"0.011": 2.29200755609,
			"0.012": 1.55214516286,
			"0.013": 1.31012759198,
			"0.014": 1.35203183317,
			"0.015": 0.985259430814,
			"0.016": 0.758343125561,
			"0.017": 0.0929362333207,
			"0.018": 0.0,
			"0.019": 0.0,
			"0.02": 0.0,
			"0.021": 0.0,
			"0.022": 0.0,
			"0.023": 0.0,
			"0.024": 0.0,
			"0.025": 0.0
		}
	}
}
