{
	 "smiles": "CN(C)C1=C(C=C(Br)C=N1)C(O)=O", 
	 "Tm": 417.15, 
	 "num_atms": 22, 
	 "gaussian": { 
		 "optdone": 1, 
		 "sigma_profile": "yes", 
		 "theory": "DFT", 
		 "functional": "B3LYP", 
		 "basiset": "6-31G**", 
		 "properties": { 
			 "R2extent": 4598.9902, 
			 "electric_dipole_moment_norm": 2.05401842738, 
			 "electric_quadrupole_moment_norm": 8.6828122328, 
			 "total_energy": -3141.63508241, 
			 "HOMO_LUMO_gap": 0.15543, 
			 "cosmo_polarized_energy": -9.94, 
			 "cosmo_cavitation_energy": 28.0, 
			 "cosmo_dispersion_energy": -21.04, 
			 "cosmo_repulsion_energy": 1.67, 
			 "cosmo_total_nonelectrostatic_energy": 8.64, 
			 "SMD_solvation_energy": 3.76 
		},
		"coords": [
			{
				"x": 2.4563073496,
				"y": 0.3964972806,
				"z": -2.5977837706,
				"element": "C" 
			},
			{
				"x": 1.4346172749,
				"y": 0.7035874134,
				"z": -1.6012322703,
				"element": "N" 
			},
			{
				"x": 0.4504267269,
				"y": 1.6996702207,
				"z": -2.0040753834,
				"element": "C" 
			},
			{
				"x": 1.2550042094,
				"y": -0.1341603885,
				"z": -0.5370296523,
				"element": "C" 
			},
			{
				"x": 0.4544105254,
				"y": 0.1817870957,
				"z": 0.6115690393,
				"element": "C" 
			},
			{
				"x": 0.1583070773,
				"y": -0.8617072501,
				"z": 1.502098821,
				"element": "C" 
			},
			{
				"x": 0.727935,
				"y": -2.1110609022,
				"z": 1.3190945908,
				"element": "C" 
			},
			{
				"x": 0.3596457884,
				"y": -3.5532373325,
				"z": 2.510740027,
				"element": "Br" 
			},
			{
				"x": 1.6391634593,
				"y": -2.2758120654,
				"z": 0.2722334149,
				"element": "C" 
			},
			{
				"x": 1.8788345037,
				"y": -1.331444953,
				"z": -0.6257329085,
				"element": "N" 
			},
			{
				"x": 0.1159324168,
				"y": 1.5633983529,
				"z": 1.0185449876,
				"element": "C" 
			},
			{
				"x": -0.8802137617,
				"y": 1.6057222113,
				"z": 1.9466750217,
				"element": "O" 
			},
			{
				"x": 0.6711560493,
				"y": 2.5805158383,
				"z": 0.6447665359,
				"element": "O" 
			},
			{
				"x": 2.0710968204,
				"y": -0.2553009839,
				"z": -3.3939335064,
				"element": "H" 
			},
			{
				"x": 2.7955742963,
				"y": 1.3351998402,
				"z": -3.0455257399,
				"element": "H" 
			},
			{
				"x": 3.2995397242,
				"y": -0.1057058973,
				"z": -2.1277658408,
				"element": "H" 
			},
			{
				"x": 0.7408832323,
				"y": 2.7128659768,
				"z": -1.7133732437,
				"element": "H" 
			},
			{
				"x": -0.5194765104,
				"y": 1.4809905441,
				"z": -1.551884754,
				"element": "H" 
			},
			{
				"x": 0.331903156,
				"y": 1.648149076,
				"z": -3.0918286424,
				"element": "H" 
			},
			{
				"x": -0.4725819089,
				"y": -0.6613677555,
				"z": 2.3588382928,
				"element": "H" 
			},
			{
				"x": 2.1831333057,
				"y": -3.2112306362,
				"z": 0.1588125661,
				"element": "H" 
			},
			{
				"x": -0.9540987349,
				"y": 2.5399443147,
				"z": 2.2011924151,
				"element": "H" 
			}
		],
		 "valence_orbital": [ 
			{
				"type": "occ",
				"energy": -0.29185,
				"method": "rhf"
			},
			{
				"type": "occ",
				"energy": -0.28149,
				"method": "rhf"
			},
			{
				"type": "occ",
				"energy": -0.27861,
				"method": "rhf"
			},
			{
				"type": "occ",
				"energy": -0.26471,
				"method": "rhf"
			},
			{
				"type": "occ",
				"energy": -0.2106,
				"method": "rhf"
			},
			{
				"type": "unocc",
				"energy": -0.05517,
				"method": "rhf"
			},
			{
				"type": "unocc",
				"energy": -0.01606,
				"method": "rhf"
			},
			{
				"type": "unocc",
				"energy": 0.00633,
				"method": "rhf"
			},
			{
				"type": "unocc",
				"energy": 0.04055,
				"method": "rhf"
			},
			{
				"type": "unocc",
				"energy": 0.07737,
				"method": "rhf"
			}
		],
		"cosmo_sigma_profile": { 
			"-0.025": 0.0,
			"-0.024": 0.0,
			"-0.023": 0.0,
			"-0.022": 0.0,
			"-0.021": 0.0,
			"-0.02": 0.0,
			"-0.019": 0.0,
			"-0.018": 0.444407547519,
			"-0.017": 1.09316386856,
			"-0.016": 0.767542162819,
			"-0.015": 0.740627465661,
			"-0.014": 0.816303875247,
			"-0.013": 0.380490091633,
			"-0.012": 0.719311248997,
			"-0.011": 0.993105355711,
			"-0.01": 0.937300476893,
			"-0.009": 0.383329322819,
			"-0.008": 1.00517981789,
			"-0.007": 3.3584581394,
			"-0.006": 4.86659920741,
			"-0.005": 12.3011861891,
			"-0.004": 18.5090625678,
			"-0.003": 19.9069006553,
			"-0.002": 23.5193057925,
			"-0.001": 18.9099844147,
			"0.0": 20.5898748397,
			"0.001": 20.4034363773,
			"0.002": 12.7676241484,
			"0.003": 12.3385816183,
			"0.004": 16.0227788625,
			"0.005": 8.63489954458,
			"0.006": 4.19338970165,
			"0.007": 4.41177478,
			"0.008": 3.20302149587,
			"0.009": 3.55910119962,
			"0.01": 3.14469621967,
			"0.011": 3.50047959564,
			"0.012": 3.55301751819,
			"0.013": 0.222031425479,
			"0.014": 0.0,
			"0.015": 0.0,
			"0.016": 0.0,
			"0.017": 0.0,
			"0.018": 0.0,
			"0.019": 0.0,
			"0.02": 0.0,
			"0.021": 0.0,
			"0.022": 0.0,
			"0.023": 0.0,
			"0.024": 0.0,
			"0.025": 0.0
		}
	}
}
