{
	 "smiles": "CC1=C(C)C(C)=C(CCl)C(CCl)=C1C", 
	 "Tm": 408.15, 
	 "num_atms": 30, 
	 "gaussian": { 
		 "optdone": 1, 
		 "sigma_profile": "yes", 
		 "theory": "DFT", 
		 "functional": "B3LYP", 
		 "basiset": "6-31G**", 
		 "properties": { 
			 "R2extent": 4231.5979, 
			 "electric_dipole_moment_norm": 3.54138965379, 
			 "electric_quadrupole_moment_norm": 11.1183868996, 
			 "total_energy": -1387.33395708, 
			 "HOMO_LUMO_gap": 0.19863, 
			 "cosmo_polarized_energy": -7.45, 
			 "cosmo_cavitation_energy": 33.26, 
			 "cosmo_dispersion_energy": -24.06, 
			 "cosmo_repulsion_energy": 1.88, 
			 "cosmo_total_nonelectrostatic_energy": 11.07, 
			 "SMD_solvation_energy": 4.71 
		},
		"coords": [
			{
				"x": -0.6038044017,
				"y": -2.7719115468,
				"z": 0.4590073406,
				"element": "C" 
			},
			{
				"x": -0.3238249428,
				"y": -1.2822099126,
				"z": 0.4162359068,
				"element": "C" 
			},
			{
				"x": -0.8747772259,
				"y": -0.4364994725,
				"z": 1.3996848831,
				"element": "C" 
			},
			{
				"x": -1.6629857937,
				"y": -1.0310692795,
				"z": 2.5506427436,
				"element": "C" 
			},
			{
				"x": -0.6857029118,
				"y": 0.9584767818,
				"z": 1.3247177267,
				"element": "C" 
			},
			{
				"x": -1.3566252309,
				"y": 1.8697372818,
				"z": 2.3348935263,
				"element": "C" 
			},
			{
				"x": 0.1125421911,
				"y": 1.4917542267,
				"z": 0.2959879016,
				"element": "C" 
			},
			{
				"x": 0.4286564393,
				"y": 2.9600835165,
				"z": 0.2735063809,
				"element": "C" 
			},
			{
				"x": -0.7907244066,
				"y": 3.9528534628,
				"z": -0.7011420876,
				"element": "Cl" 
			},
			{
				"x": 0.6654712707,
				"y": 0.6446228469,
				"z": -0.6881503636,
				"element": "C" 
			},
			{
				"x": 1.408274019,
				"y": 1.2422185941,
				"z": -1.8490021171,
				"element": "C" 
			},
			{
				"x": 3.2244506143,
				"y": 1.4133749439,
				"z": -1.5413625043,
				"element": "Cl" 
			},
			{
				"x": 0.4763741056,
				"y": -0.7477140163,
				"z": -0.6139442299,
				"element": "C" 
			},
			{
				"x": 1.1398608519,
				"y": -1.6734739791,
				"z": -1.6158012895,
				"element": "C" 
			},
			{
				"x": 0.1270195456,
				"y": -3.3102110392,
				"z": 1.0780185982,
				"element": "H" 
			},
			{
				"x": -1.5924771091,
				"y": -2.9831829397,
				"z": 0.8713307736,
				"element": "H" 
			},
			{
				"x": -0.5720859765,
				"y": -3.2171763917,
				"z": -0.5367429471,
				"element": "H" 
			},
			{
				"x": -1.2881202124,
				"y": -2.0188229534,
				"z": 2.8262813087,
				"element": "H" 
			},
			{
				"x": -1.604879125,
				"y": -0.4075127209,
				"z": 3.4442614271,
				"element": "H" 
			},
			{
				"x": -2.7275002153,
				"y": -1.1458635158,
				"z": 2.3043259368,
				"element": "H" 
			},
			{
				"x": -1.508206926,
				"y": 2.8751413168,
				"z": 1.9401950261,
				"element": "H" 
			},
			{
				"x": -2.3443611913,
				"y": 1.4926932621,
				"z": 2.6095260344,
				"element": "H" 
			},
			{
				"x": -0.7762155266,
				"y": 1.9567227715,
				"z": 3.26330305,
				"element": "H" 
			},
			{
				"x": 1.3946114951,
				"y": 3.171640901,
				"z": -0.1790328714,
				"element": "H" 
			},
			{
				"x": 0.4144743729,
				"y": 3.4001370927,
				"z": 1.2674787126,
				"element": "H" 
			},
			{
				"x": 1.3343046811,
				"y": 0.6306030964,
				"z": -2.7447071969,
				"element": "H" 
			},
			{
				"x": 1.0648788233,
				"y": 2.245064859,
				"z": -2.0919000835,
				"element": "H" 
			},
			{
				"x": 1.4577533883,
				"y": -2.6042374454,
				"z": -1.1405241983,
				"element": "H" 
			},
			{
				"x": 2.034430669,
				"y": -1.2282527598,
				"z": -2.0529576917,
				"element": "H" 
			},
			{
				"x": 0.4640887284,
				"y": -1.9466869812,
				"z": -2.4374296962,
				"element": "H" 
			}
		],
		 "valence_orbital": [ 
			{
				"type": "occ",
				"energy": -0.29674,
				"method": "rhf"
			},
			{
				"type": "occ",
				"energy": -0.29049,
				"method": "rhf"
			},
			{
				"type": "occ",
				"energy": -0.28813,
				"method": "rhf"
			},
			{
				"type": "occ",
				"energy": -0.23854,
				"method": "rhf"
			},
			{
				"type": "occ",
				"energy": -0.23558,
				"method": "rhf"
			},
			{
				"type": "unocc",
				"energy": -0.03695,
				"method": "rhf"
			},
			{
				"type": "unocc",
				"energy": -0.01634,
				"method": "rhf"
			},
			{
				"type": "unocc",
				"energy": 0.03966,
				"method": "rhf"
			},
			{
				"type": "unocc",
				"energy": 0.04157,
				"method": "rhf"
			},
			{
				"type": "unocc",
				"energy": 0.07505,
				"method": "rhf"
			}
		],
		"cosmo_sigma_profile": { 
			"-0.025": 0.0,
			"-0.024": 0.0,
			"-0.023": 0.0,
			"-0.022": 0.0,
			"-0.021": 0.0,
			"-0.02": 0.0,
			"-0.019": 0.0,
			"-0.018": 0.0,
			"-0.017": 0.0,
			"-0.016": 0.0,
			"-0.015": 0.0,
			"-0.014": 0.0,
			"-0.013": 0.0,
			"-0.012": 0.0,
			"-0.011": 0.0,
			"-0.01": 0.0,
			"-0.009": 0.0,
			"-0.008": 0.16783954929,
			"-0.007": 3.88013426707,
			"-0.006": 6.58466206024,
			"-0.005": 9.54778347785,
			"-0.004": 25.2532230571,
			"-0.003": 37.5592501464,
			"-0.002": 27.5611574309,
			"-0.001": 23.3679703653,
			"0.0": 25.9326018071,
			"0.001": 20.1941430104,
			"0.002": 14.0188491576,
			"0.003": 12.4786240502,
			"0.004": 14.2348751174,
			"0.005": 19.2854030731,
			"0.006": 17.0609997742,
			"0.007": 9.14490993622,
			"0.008": 0.00965527359833,
			"0.009": 0.0,
			"0.01": 0.0,
			"0.011": 0.0,
			"0.012": 0.0,
			"0.013": 0.0,
			"0.014": 0.0,
			"0.015": 0.0,
			"0.016": 0.0,
			"0.017": 0.0,
			"0.018": 0.0,
			"0.019": 0.0,
			"0.02": 0.0,
			"0.021": 0.0,
			"0.022": 0.0,
			"0.023": 0.0,
			"0.024": 0.0,
			"0.025": 0.0
		}
	}
}
