{
	 "smiles": "CC(C)(C)CC(C)(C)C1=CC=C(OCCO)C=C1", 
	 "Tm": 269.15, 
	 "num_atms": 44, 
	 "gaussian": { 
		 "optdone": 1, 
		 "sigma_profile": "yes", 
		 "theory": "DFT", 
		 "functional": "B3LYP", 
		 "basiset": "6-31G**", 
		 "properties": { 
			 "R2extent": 7842.3834, 
			 "electric_dipole_moment_norm": 1.78942321992, 
			 "electric_quadrupole_moment_norm": 13.7076129939, 
			 "total_energy": -775.82025694, 
			 "HOMO_LUMO_gap": 0.21243, 
			 "cosmo_polarized_energy": -8.6, 
			 "cosmo_cavitation_energy": 42.42, 
			 "cosmo_dispersion_energy": -29.05, 
			 "cosmo_repulsion_energy": 2.25, 
			 "cosmo_total_nonelectrostatic_energy": 15.62, 
			 "SMD_solvation_energy": 7.32 
		},
		"coords": [
			{
				"x": 1.8443377752,
				"y": 0.4951113263,
				"z": -0.6128130613,
				"element": "C" 
			},
			{
				"x": 1.81301531,
				"y": 1.1982263936,
				"z": 0.7571852985,
				"element": "C" 
			},
			{
				"x": 1.7252918421,
				"y": 2.7257154989,
				"z": 0.5465813274,
				"element": "C" 
			},
			{
				"x": 3.150519969,
				"y": 0.9112732192,
				"z": 1.4789946512,
				"element": "C" 
			},
			{
				"x": 0.6898311038,
				"y": 0.6641213903,
				"z": 1.7024302597,
				"element": "C" 
			},
			{
				"x": -0.8041288396,
				"y": 0.4739230518,
				"z": 1.2732643006,
				"element": "C" 
			},
			{
				"x": -1.417342703,
				"y": 1.7809494664,
				"z": 0.7355582158,
				"element": "C" 
			},
			{
				"x": -1.5825507723,
				"y": 0.1166366712,
				"z": 2.5701826347,
				"element": "C" 
			},
			{
				"x": -0.9879078442,
				"y": -0.6985891177,
				"z": 0.2889220002,
				"element": "C" 
			},
			{
				"x": -1.6798392797,
				"y": -0.5786278105,
				"z": -0.9203816793,
				"element": "C" 
			},
			{
				"x": -1.872428555,
				"y": -1.662951753,
				"z": -1.7853774541,
				"element": "C" 
			},
			{
				"x": -1.367261726,
				"y": -2.918122419,
				"z": -1.4446995562,
				"element": "C" 
			},
			{
				"x": -1.4954476801,
				"y": -4.0469424205,
				"z": -2.2097870812,
				"element": "O" 
			},
			{
				"x": -2.1571284085,
				"y": -3.9568359401,
				"z": -3.471472594,
				"element": "C" 
			},
			{
				"x": -2.048167817,
				"y": -5.336395966,
				"z": -4.1016666594,
				"element": "C" 
			},
			{
				"x": -0.7006593043,
				"y": -5.7086507053,
				"z": -4.3167952138,
				"element": "O" 
			},
			{
				"x": -0.6802403879,
				"y": -3.0702078266,
				"z": -0.2327039155,
				"element": "C" 
			},
			{
				"x": -0.5022974977,
				"y": -1.9814942179,
				"z": 0.6099460606,
				"element": "C" 
			},
			{
				"x": 2.7095839578,
				"y": 0.8407467659,
				"z": -1.1909762989,
				"element": "H" 
			},
			{
				"x": 1.9243860745,
				"y": -0.5911995044,
				"z": -0.5065931471,
				"element": "H" 
			},
			{
				"x": 0.9470880224,
				"y": 0.7003074714,
				"z": -1.2025301591,
				"element": "H" 
			},
			{
				"x": 1.6803566938,
				"y": 3.2561438251,
				"z": 1.5049750098,
				"element": "H" 
			},
			{
				"x": 0.854148672,
				"y": 3.0221943547,
				"z": -0.0411818501,
				"element": "H" 
			},
			{
				"x": 2.6134715129,
				"y": 3.0835629762,
				"z": 0.0131137147,
				"element": "H" 
			},
			{
				"x": 3.1773338077,
				"y": 1.3791348651,
				"z": 2.470171612,
				"element": "H" 
			},
			{
				"x": 3.3076396724,
				"y": -0.1649935875,
				"z": 1.6126820128,
				"element": "H" 
			},
			{
				"x": 3.9960315368,
				"y": 1.3033468926,
				"z": 0.9027514122,
				"element": "H" 
			},
			{
				"x": 1.0307164769,
				"y": -0.3058723574,
				"z": 2.0840444861,
				"element": "H" 
			},
			{
				"x": 0.6794855903,
				"y": 1.3263522307,
				"z": 2.579630521,
				"element": "H" 
			},
			{
				"x": -2.5035052727,
				"y": 1.6875790186,
				"z": 0.6288061019,
				"element": "H" 
			},
			{
				"x": -1.2260535982,
				"y": 2.6001543285,
				"z": 1.4354942683,
				"element": "H" 
			},
			{
				"x": -1.0119798474,
				"y": 2.0718345,
				"z": -0.2362355991,
				"element": "H" 
			},
			{
				"x": -2.6348682317,
				"y": -0.0843279551,
				"z": 2.344994057,
				"element": "H" 
			},
			{
				"x": -1.5386558514,
				"y": 0.9436974294,
				"z": 3.2880063335,
				"element": "H" 
			},
			{
				"x": -1.1709274382,
				"y": -0.7717719424,
				"z": 3.0588573298,
				"element": "H" 
			},
			{
				"x": -2.0886353989,
				"y": 0.3791110942,
				"z": -1.221707352,
				"element": "H" 
			},
			{
				"x": -2.4152588898,
				"y": -1.5100574409,
				"z": -2.7108140671,
				"element": "H" 
			},
			{
				"x": -3.2091119593,
				"y": -3.6665506189,
				"z": -3.3379086227,
				"element": "H" 
			},
			{
				"x": -1.6600801874,
				"y": -3.2113386513,
				"z": -4.1064349228,
				"element": "H" 
			},
			{
				"x": -2.5760728208,
				"y": -6.0638128529,
				"z": -3.4644410366,
				"element": "H" 
			},
			{
				"x": -2.5407255529,
				"y": -5.327637734,
				"z": -5.0795917085,
				"element": "H" 
			},
			{
				"x": -0.2539170881,
				"y": -5.6009150573,
				"z": -3.4654267512,
				"element": "H" 
			},
			{
				"x": -0.2971573995,
				"y": -4.051303674,
				"z": 0.0302100204,
				"element": "H" 
			},
			{
				"x": 0.0300123342,
				"y": -2.1414232176,
				"z": 1.542837102,
				"element": "H" 
			}
		],
		 "valence_orbital": [ 
			{
				"type": "occ",
				"energy": -0.30121,
				"method": "rhf"
			},
			{
				"type": "occ",
				"energy": -0.29325,
				"method": "rhf"
			},
			{
				"type": "occ",
				"energy": -0.26785,
				"method": "rhf"
			},
			{
				"type": "occ",
				"energy": -0.24881,
				"method": "rhf"
			},
			{
				"type": "occ",
				"energy": -0.2145,
				"method": "rhf"
			},
			{
				"type": "unocc",
				"energy": -0.00207,
				"method": "rhf"
			},
			{
				"type": "unocc",
				"energy": 0.01233,
				"method": "rhf"
			},
			{
				"type": "unocc",
				"energy": 0.06971,
				"method": "rhf"
			},
			{
				"type": "unocc",
				"energy": 0.0901,
				"method": "rhf"
			},
			{
				"type": "unocc",
				"energy": 0.09881,
				"method": "rhf"
			}
		],
		"cosmo_sigma_profile": { 
			"-0.025": 0.0,
			"-0.024": 0.0,
			"-0.023": 0.0,
			"-0.022": 0.0,
			"-0.021": 0.0,
			"-0.02": 0.0,
			"-0.019": 0.0,
			"-0.018": 0.0,
			"-0.017": 0.0,
			"-0.016": 0.0,
			"-0.015": 0.0,
			"-0.014": 0.0218662263011,
			"-0.013": 0.571410287458,
			"-0.012": 0.32655194643,
			"-0.011": 0.951418910184,
			"-0.01": 0.453807929996,
			"-0.009": 0.79956639503,
			"-0.008": 0.204615288053,
			"-0.007": 1.18001792636,
			"-0.006": 5.25294552697,
			"-0.005": 18.5676596152,
			"-0.004": 20.1627915776,
			"-0.003": 25.1236113727,
			"-0.002": 41.6602070143,
			"-0.001": 44.7651593482,
			"0.0": 37.2514696824,
			"0.001": 37.2442505677,
			"0.002": 34.9255182774,
			"0.003": 13.5749425558,
			"0.004": 11.2760965063,
			"0.005": 10.1376304875,
			"0.006": 8.66414298157,
			"0.007": 2.49563102908,
			"0.008": 2.18526435361,
			"0.009": 1.43960280507,
			"0.01": 1.38235598918,
			"0.011": 1.31910677636,
			"0.012": 1.25163583905,
			"0.013": 1.96800501277,
			"0.014": 2.35567938481,
			"0.015": 0.462043035638,
			"0.016": 0.0,
			"0.017": 0.0,
			"0.018": 0.0,
			"0.019": 0.0,
			"0.02": 0.0,
			"0.021": 0.0,
			"0.022": 0.0,
			"0.023": 0.0,
			"0.024": 0.0,
			"0.025": 0.0
		}
	}
}
