{
	 "smiles": "CCCCCNC1=C2C(=O)C3=C(C=CC=C3)C(=O)C2=C(NCCCCC)C=C1", 
	 "Tm": 483.15, 
	 "num_atms": 58, 
	 "gaussian": { 
		 "optdone": 1, 
		 "sigma_profile": "yes", 
		 "theory": "DFT", 
		 "functional": "B3LYP", 
		 "basiset": "6-31G**", 
		 "properties": { 
			 "R2extent": 16985.3212, 
			 "electric_dipole_moment_norm": 3.52266180182, 
			 "electric_quadrupole_moment_norm": 8.51750986204, 
			 "total_energy": -1192.65294053, 
			 "HOMO_LUMO_gap": 0.08747, 
			 "cosmo_polarized_energy": -12.84, 
			 "cosmo_cavitation_energy": 58.15, 
			 "cosmo_dispersion_energy": -41.31, 
			 "cosmo_repulsion_energy": 3.16, 
			 "cosmo_total_nonelectrostatic_energy": 20.0, 
			 "SMD_solvation_energy": 7.56 
		},
		"coords": [
			{
				"x": -2.7202440846,
				"y": 5.7598110906,
				"z": 3.5768311211,
				"element": "C" 
			},
			{
				"x": -2.0211853829,
				"y": 4.4190872441,
				"z": 3.3307124917,
				"element": "C" 
			},
			{
				"x": -0.8960363047,
				"y": 4.5058902694,
				"z": 2.2912064667,
				"element": "C" 
			},
			{
				"x": -0.1925424965,
				"y": 3.166894769,
				"z": 2.040466129,
				"element": "C" 
			},
			{
				"x": 0.9398304857,
				"y": 3.2756896028,
				"z": 1.0033683296,
				"element": "C" 
			},
			{
				"x": 1.6485801495,
				"y": 2.0346584763,
				"z": 0.7570887926,
				"element": "N" 
			},
			{
				"x": 1.236904813,
				"y": 1.0179232069,
				"z": -0.0495980779,
				"element": "C" 
			},
			{
				"x": 1.9824725088,
				"y": -0.1908411018,
				"z": -0.1756732619,
				"element": "C" 
			},
			{
				"x": 3.2093693454,
				"y": -0.3589239318,
				"z": 0.6053870239,
				"element": "C" 
			},
			{
				"x": 3.6457052555,
				"y": 0.5161107095,
				"z": 1.385352324,
				"element": "O" 
			},
			{
				"x": 3.9705850969,
				"y": -1.6245625326,
				"z": 0.4686928707,
				"element": "C" 
			},
			{
				"x": 3.5300634028,
				"y": -2.6417745565,
				"z": -0.3929140339,
				"element": "C" 
			},
			{
				"x": 4.2695833542,
				"y": -3.8285801012,
				"z": -0.5040083141,
				"element": "C" 
			},
			{
				"x": 5.4340431674,
				"y": -3.9978266227,
				"z": 0.2360176941,
				"element": "C" 
			},
			{
				"x": 5.8740141406,
				"y": -2.9819026333,
				"z": 1.0965184403,
				"element": "C" 
			},
			{
				"x": 5.1468943537,
				"y": -1.8028162751,
				"z": 1.2118450241,
				"element": "C" 
			},
			{
				"x": 2.2906519711,
				"y": -2.4803936649,
				"z": -1.1915415516,
				"element": "C" 
			},
			{
				"x": 1.9428871542,
				"y": -3.416057108,
				"z": -1.9452096791,
				"element": "O" 
			},
			{
				"x": 1.5296859187,
				"y": -1.2364002656,
				"z": -1.0613054054,
				"element": "C" 
			},
			{
				"x": 0.332781909,
				"y": -1.0698592084,
				"z": -1.8179835472,
				"element": "C" 
			},
			{
				"x": -0.1096433492,
				"y": -2.0251615405,
				"z": -2.6814836121,
				"element": "N" 
			},
			{
				"x": -1.3374939696,
				"y": -1.983247869,
				"z": -3.4520086959,
				"element": "C" 
			},
			{
				"x": -2.5980519242,
				"y": -2.3835376641,
				"z": -2.6638075747,
				"element": "C" 
			},
			{
				"x": -3.8633036341,
				"y": -2.3519086994,
				"z": -3.531292358,
				"element": "C" 
			},
			{
				"x": -5.1621128709,
				"y": -2.6869377567,
				"z": -2.7789160663,
				"element": "C" 
			},
			{
				"x": -5.2394313789,
				"y": -4.1262058248,
				"z": -2.2560267133,
				"element": "C" 
			},
			{
				"x": -0.3920338204,
				"y": 0.1474344448,
				"z": -1.6511173668,
				"element": "C" 
			},
			{
				"x": 0.0370558634,
				"y": 1.1383224948,
				"z": -0.8117654647,
				"element": "C" 
			},
			{
				"x": -2.0134966936,
				"y": 6.5147154422,
				"z": 3.9399252771,
				"element": "H" 
			},
			{
				"x": -3.1716915768,
				"y": 6.1470146678,
				"z": 2.6561392972,
				"element": "H" 
			},
			{
				"x": -3.516336537,
				"y": 5.6646651881,
				"z": 4.3223544903,
				"element": "H" 
			},
			{
				"x": -2.7594603467,
				"y": 3.6749411334,
				"z": 3.002431972,
				"element": "H" 
			},
			{
				"x": -1.6098786892,
				"y": 4.0405967467,
				"z": 4.2760772961,
				"element": "H" 
			},
			{
				"x": -0.1572051474,
				"y": 5.2509392226,
				"z": 2.6202642244,
				"element": "H" 
			},
			{
				"x": -1.3074244671,
				"y": 4.887226593,
				"z": 1.3450674145,
				"element": "H" 
			},
			{
				"x": 0.2284315971,
				"y": 2.7823716499,
				"z": 2.9782278947,
				"element": "H" 
			},
			{
				"x": -0.922493576,
				"y": 2.4192433062,
				"z": 1.7039569011,
				"element": "H" 
			},
			{
				"x": 0.5482698701,
				"y": 3.6815075929,
				"z": 0.0612091983,
				"element": "H" 
			},
			{
				"x": 1.6823079498,
				"y": 4.0005652401,
				"z": 1.35559774,
				"element": "H" 
			},
			{
				"x": 2.5007659873,
				"y": 1.8175636135,
				"z": 1.2751049187,
				"element": "H" 
			},
			{
				"x": 3.9060286861,
				"y": -4.5968250803,
				"z": -1.1773334538,
				"element": "H" 
			},
			{
				"x": 6.0038850038,
				"y": -4.918457012,
				"z": 0.1471669916,
				"element": "H" 
			},
			{
				"x": 6.7844565744,
				"y": -3.1160650112,
				"z": 1.6738149133,
				"element": "H" 
			},
			{
				"x": 5.4635631744,
				"y": -1.0004360647,
				"z": 1.8688450454,
				"element": "H" 
			},
			{
				"x": 0.4742174761,
				"y": -2.8622578209,
				"z": -2.6891750562,
				"element": "H" 
			},
			{
				"x": -1.4723739133,
				"y": -0.9879339955,
				"z": -3.8958077936,
				"element": "H" 
			},
			{
				"x": -1.2067007395,
				"y": -2.6712196377,
				"z": -4.2948812046,
				"element": "H" 
			},
			{
				"x": -2.7194947358,
				"y": -1.7091025332,
				"z": -1.8057981873,
				"element": "H" 
			},
			{
				"x": -2.4389358754,
				"y": -3.3847788828,
				"z": -2.2471211887,
				"element": "H" 
			},
			{
				"x": -3.9627873768,
				"y": -1.3529141476,
				"z": -3.9785774736,
				"element": "H" 
			},
			{
				"x": -3.7445695595,
				"y": -3.0493034414,
				"z": -4.3733196342,
				"element": "H" 
			},
			{
				"x": -6.0105247123,
				"y": -2.5061055887,
				"z": -3.4510731243,
				"element": "H" 
			},
			{
				"x": -5.2843300814,
				"y": -1.986039518,
				"z": -1.9417510096,
				"element": "H" 
			},
			{
				"x": -4.4610992451,
				"y": -4.3356140235,
				"z": -1.5152545279,
				"element": "H" 
			},
			{
				"x": -5.1233084918,
				"y": -4.8489415093,
				"z": -3.0721811242,
				"element": "H" 
			},
			{
				"x": -6.2055412198,
				"y": -4.3187155742,
				"z": -1.7782179783,
				"element": "H" 
			},
			{
				"x": -1.3141948386,
				"y": 0.2954652437,
				"z": -2.2005840985,
				"element": "H" 
			},
			{
				"x": -0.5593081697,
				"y": 2.0388092487,
				"z": -0.723942705,
				"element": "H" 
			}
		],
		 "valence_orbital": [ 
			{
				"type": "occ",
				"energy": -0.24898,
				"method": "rhf"
			},
			{
				"type": "occ",
				"energy": -0.24884,
				"method": "rhf"
			},
			{
				"type": "occ",
				"energy": -0.24319,
				"method": "rhf"
			},
			{
				"type": "occ",
				"energy": -0.2385,
				"method": "rhf"
			},
			{
				"type": "occ",
				"energy": -0.17309,
				"method": "rhf"
			},
			{
				"type": "unocc",
				"energy": -0.08562,
				"method": "rhf"
			},
			{
				"type": "unocc",
				"energy": -0.03163,
				"method": "rhf"
			},
			{
				"type": "unocc",
				"energy": -0.00912,
				"method": "rhf"
			},
			{
				"type": "unocc",
				"energy": 0.02121,
				"method": "rhf"
			},
			{
				"type": "unocc",
				"energy": 0.06757,
				"method": "rhf"
			}
		],
		"cosmo_sigma_profile": { 
			"-0.025": 0.0,
			"-0.024": 0.0,
			"-0.023": 0.0,
			"-0.022": 0.0,
			"-0.021": 0.0,
			"-0.02": 0.0,
			"-0.019": 0.0,
			"-0.018": 0.0,
			"-0.017": 0.0,
			"-0.016": 0.0,
			"-0.015": 0.0,
			"-0.014": 0.0,
			"-0.013": 0.0,
			"-0.012": 0.0,
			"-0.011": 0.0,
			"-0.01": 0.0,
			"-0.009": 0.0,
			"-0.008": 0.947083325517,
			"-0.007": 6.50817003706,
			"-0.006": 13.925322537,
			"-0.005": 18.6592242752,
			"-0.004": 20.8459588921,
			"-0.003": 32.4967393125,
			"-0.002": 57.9163089085,
			"-0.001": 60.7925640401,
			"0.0": 60.4668511629,
			"0.001": 56.385466685,
			"0.002": 44.5878620679,
			"0.003": 34.1833111945,
			"0.004": 17.4204195846,
			"0.005": 5.63975068512,
			"0.006": 3.45235125325,
			"0.007": 3.88900058005,
			"0.008": 2.49814568597,
			"0.009": 3.25672555846,
			"0.01": 3.90737475647,
			"0.011": 3.19085948694,
			"0.012": 4.55904460941,
			"0.013": 1.14988331351,
			"0.014": 0.0,
			"0.015": 0.0,
			"0.016": 0.0,
			"0.017": 0.0,
			"0.018": 0.0,
			"0.019": 0.0,
			"0.02": 0.0,
			"0.021": 0.0,
			"0.022": 0.0,
			"0.023": 0.0,
			"0.024": 0.0,
			"0.025": 0.0
		}
	}
}
