{
	 "smiles": "OC(=O)CCC1=NN=CN1", 
	 "Tm": 401.15, 
	 "num_atms": 17, 
	 "gaussian": { 
		 "optdone": 1, 
		 "sigma_profile": "yes", 
		 "theory": "DFT", 
		 "functional": "B3LYP", 
		 "basiset": "6-31G**", 
		 "properties": { 
			 "R2extent": 1768.8543, 
			 "electric_dipole_moment_norm": 5.15740471652, 
			 "electric_quadrupole_moment_norm": 24.5146906515, 
			 "total_energy": -509.445708393, 
			 "HOMO_LUMO_gap": 0.22532, 
			 "cosmo_polarized_energy": -24.99, 
			 "cosmo_cavitation_energy": 21.35, 
			 "cosmo_dispersion_energy": -15.97, 
			 "cosmo_repulsion_energy": 1.31, 
			 "cosmo_total_nonelectrostatic_energy": 6.69, 
			 "SMD_solvation_energy": 2.93 
		},
		"coords": [
			{
				"x": 0.0524718336,
				"y": 1.0288460861,
				"z": 3.6172958544,
				"element": "O" 
			},
			{
				"x": 0.5684433148,
				"y": 0.5316317868,
				"z": 2.4707017014,
				"element": "C" 
			},
			{
				"x": 1.0403939303,
				"y": 1.2919575853,
				"z": 1.6540425998,
				"element": "O" 
			},
			{
				"x": 0.5035560913,
				"y": -0.9827081383,
				"z": 2.3207290657,
				"element": "C" 
			},
			{
				"x": 1.2181583721,
				"y": -1.5252957587,
				"z": 1.0701463137,
				"element": "C" 
			},
			{
				"x": 0.5264179424,
				"y": -1.2427611299,
				"z": -0.2264778711,
				"element": "C" 
			},
			{
				"x": -0.0279765933,
				"y": -2.1473766679,
				"z": -1.0052705267,
				"element": "N" 
			},
			{
				"x": -0.5452048338,
				"y": -1.490770987,
				"z": -2.1067122739,
				"element": "N" 
			},
			{
				"x": -0.2848304266,
				"y": -0.2141441343,
				"z": -1.9519846888,
				"element": "C" 
			},
			{
				"x": 0.3927886225,
				"y": -0.0007606532,
				"z": -0.7859495947,
				"element": "N" 
			},
			{
				"x": -0.2829485381,
				"y": 0.3147879041,
				"z": 4.1785984866,
				"element": "H" 
			},
			{
				"x": 0.9507822145,
				"y": -1.4283351572,
				"z": 3.2195286602,
				"element": "H" 
			},
			{
				"x": -0.5520701871,
				"y": -1.2854102122,
				"z": 2.31800546,
				"element": "H" 
			},
			{
				"x": 1.2848101779,
				"y": -2.6128842243,
				"z": 1.15005643,
				"element": "H" 
			},
			{
				"x": 2.2407013783,
				"y": -1.1319430571,
				"z": 1.0474493743,
				"element": "H" 
			},
			{
				"x": -0.557083204,
				"y": 0.5742678888,
				"z": -2.6389398465,
				"element": "H" 
			},
			{
				"x": 0.695489905,
				"y": 0.8609988688,
				"z": -0.3471191446,
				"element": "H" 
			}
		],
		 "valence_orbital": [ 
			{
				"type": "occ",
				"energy": -0.30502,
				"method": "rhf"
			},
			{
				"type": "occ",
				"energy": -0.29628,
				"method": "rhf"
			},
			{
				"type": "occ",
				"energy": -0.29258,
				"method": "rhf"
			},
			{
				"type": "occ",
				"energy": -0.24987,
				"method": "rhf"
			},
			{
				"type": "occ",
				"energy": -0.24495,
				"method": "rhf"
			},
			{
				"type": "unocc",
				"energy": -0.01963,
				"method": "rhf"
			},
			{
				"type": "unocc",
				"energy": 0.01826,
				"method": "rhf"
			},
			{
				"type": "unocc",
				"energy": 0.03786,
				"method": "rhf"
			},
			{
				"type": "unocc",
				"energy": 0.0536,
				"method": "rhf"
			},
			{
				"type": "unocc",
				"energy": 0.08915,
				"method": "rhf"
			}
		],
		"cosmo_sigma_profile": { 
			"-0.025": 0.0,
			"-0.024": 0.0,
			"-0.023": 0.0,
			"-0.022": 0.0,
			"-0.021": 0.0,
			"-0.02": 0.247585283278,
			"-0.019": 0.974760823037,
			"-0.018": 1.30719979712,
			"-0.017": 1.02942026516,
			"-0.016": 1.41460554103,
			"-0.015": 0.860948127497,
			"-0.014": 1.97592288571,
			"-0.013": 1.33295725462,
			"-0.012": 2.08434766999,
			"-0.011": 2.53784267436,
			"-0.01": 3.89869088919,
			"-0.009": 5.15733237241,
			"-0.008": 5.64682698469,
			"-0.007": 8.08178242111,
			"-0.006": 10.6917890959,
			"-0.005": 12.6661985959,
			"-0.004": 10.632049573,
			"-0.003": 8.65326055933,
			"-0.002": 7.20944934945,
			"-0.001": 6.5319279555,
			"0.0": 5.88624082903,
			"0.001": 5.63296570517,
			"0.002": 4.18174603514,
			"0.003": 4.34345249036,
			"0.004": 3.27311622187,
			"0.005": 4.76441690738,
			"0.006": 3.57619869705,
			"0.007": 4.4892558166,
			"0.008": 3.79527948857,
			"0.009": 5.65615599982,
			"0.01": 7.01381059715,
			"0.011": 4.92406804325,
			"0.012": 3.87829086691,
			"0.013": 2.66422420433,
			"0.014": 3.56767541128,
			"0.015": 3.89656920421,
			"0.016": 2.43379903345,
			"0.017": 2.25669303983,
			"0.018": 0.500352221434,
			"0.019": 0.0,
			"0.02": 0.0,
			"0.021": 0.0,
			"0.022": 0.0,
			"0.023": 0.0,
			"0.024": 0.0,
			"0.025": 0.0
		}
	}
}
