{
	 "smiles": "NC1=CC(=NN1C1=CC=CC=C1)C1=CC=CC=C1", 
	 "Tm": 404.15, 
	 "num_atms": 31, 
	 "gaussian": { 
		 "optdone": 1, 
		 "sigma_profile": "yes", 
		 "theory": "DFT", 
		 "functional": "B3LYP", 
		 "basiset": "6-31G**", 
		 "properties": { 
			 "R2extent": 6227.2421, 
			 "electric_dipole_moment_norm": 3.35270175232, 
			 "electric_quadrupole_moment_norm": 12.1947358233, 
			 "total_energy": -743.673992104, 
			 "HOMO_LUMO_gap": 0.17457, 
			 "cosmo_polarized_energy": -13.81, 
			 "cosmo_cavitation_energy": 34.94, 
			 "cosmo_dispersion_energy": -25.66, 
			 "cosmo_repulsion_energy": 1.95, 
			 "cosmo_total_nonelectrostatic_energy": 11.23, 
			 "SMD_solvation_energy": 5.18 
		},
		"coords": [
			{
				"x": -2.4244770462,
				"y": 0.2600422256,
				"z": -1.4710709033,
				"element": "N" 
			},
			{
				"x": -1.0471924115,
				"y": 0.1086138055,
				"z": -1.3180747308,
				"element": "C" 
			},
			{
				"x": -0.1454517292,
				"y": -0.6419721504,
				"z": -2.0458960853,
				"element": "C" 
			},
			{
				"x": 1.1193654665,
				"y": -0.382830634,
				"z": -1.4497269727,
				"element": "C" 
			},
			{
				"x": 1.0086442552,
				"y": 0.4633709768,
				"z": -0.4273656288,
				"element": "N" 
			},
			{
				"x": -0.3226415682,
				"y": 0.7792539369,
				"z": -0.3606887439,
				"element": "N" 
			},
			{
				"x": -0.781111697,
				"y": 1.641392236,
				"z": 0.6684669212,
				"element": "C" 
			},
			{
				"x": -1.8440705444,
				"y": 2.5277351505,
				"z": 0.4473524297,
				"element": "C" 
			},
			{
				"x": -2.2735543312,
				"y": 3.3594628898,
				"z": 1.4831774314,
				"element": "C" 
			},
			{
				"x": -1.6408983296,
				"y": 3.3301869748,
				"z": 2.7258967855,
				"element": "C" 
			},
			{
				"x": -0.5659633539,
				"y": 2.4604048632,
				"z": 2.930232771,
				"element": "C" 
			},
			{
				"x": -0.1360349061,
				"y": 1.6134400082,
				"z": 1.9122511305,
				"element": "C" 
			},
			{
				"x": 2.4348191053,
				"y": -0.9241764833,
				"z": -1.8308426269,
				"element": "C" 
			},
			{
				"x": 2.57038419,
				"y": -1.8059577835,
				"z": -2.9144128297,
				"element": "C" 
			},
			{
				"x": 3.8194491286,
				"y": -2.3159131438,
				"z": -3.2673781002,
				"element": "C" 
			},
			{
				"x": 4.9566342682,
				"y": -1.9533132783,
				"z": -2.5442224406,
				"element": "C" 
			},
			{
				"x": 4.8329333543,
				"y": -1.0745234615,
				"z": -1.4642240231,
				"element": "C" 
			},
			{
				"x": 3.5869424033,
				"y": -0.5647046019,
				"z": -1.1101082309,
				"element": "C" 
			},
			{
				"x": -2.8232734298,
				"y": -0.4837034911,
				"z": -2.0299179805,
				"element": "H" 
			},
			{
				"x": -2.9260245871,
				"y": 0.354787495,
				"z": -0.594653048,
				"element": "H" 
			},
			{
				"x": -0.3797169728,
				"y": -1.2905859798,
				"z": -2.8761991805,
				"element": "H" 
			},
			{
				"x": -2.3099189308,
				"y": 2.5830466312,
				"z": -0.5299416068,
				"element": "H" 
			},
			{
				"x": -3.0967818075,
				"y": 4.0455632346,
				"z": 1.3059907179,
				"element": "H" 
			},
			{
				"x": -1.9757616903,
				"y": 3.983592491,
				"z": 3.5258172586,
				"element": "H" 
			},
			{
				"x": -0.061619974,
				"y": 2.4354622803,
				"z": 3.8919029485,
				"element": "H" 
			},
			{
				"x": 0.6973194625,
				"y": 0.9358622846,
				"z": 2.0528057205,
				"element": "H" 
			},
			{
				"x": 1.6955899786,
				"y": -2.0959207059,
				"z": -3.4885979028,
				"element": "H" 
			},
			{
				"x": 3.9032054475,
				"y": -2.9970554855,
				"z": -4.1097301293,
				"element": "H" 
			},
			{
				"x": 5.9297576008,
				"y": -2.3499920886,
				"z": -2.8192994045,
				"element": "H" 
			},
			{
				"x": 5.71267085,
				"y": -0.7849335948,
				"z": -0.8959712802,
				"element": "H" 
			},
			{
				"x": 3.4856777987,
				"y": 0.1193653983,
				"z": -0.274572266,
				"element": "H" 
			}
		],
		 "valence_orbital": [ 
			{
				"type": "occ",
				"energy": -0.25646,
				"method": "rhf"
			},
			{
				"type": "occ",
				"energy": -0.24771,
				"method": "rhf"
			},
			{
				"type": "occ",
				"energy": -0.2409,
				"method": "rhf"
			},
			{
				"type": "occ",
				"energy": -0.21488,
				"method": "rhf"
			},
			{
				"type": "occ",
				"energy": -0.19974,
				"method": "rhf"
			},
			{
				"type": "unocc",
				"energy": -0.02517,
				"method": "rhf"
			},
			{
				"type": "unocc",
				"energy": -0.00835,
				"method": "rhf"
			},
			{
				"type": "unocc",
				"energy": 0.00025,
				"method": "rhf"
			},
			{
				"type": "unocc",
				"energy": 0.0096,
				"method": "rhf"
			},
			{
				"type": "unocc",
				"energy": 0.05614,
				"method": "rhf"
			}
		],
		"cosmo_sigma_profile": { 
			"-0.025": 0.0,
			"-0.024": 0.0,
			"-0.023": 0.0,
			"-0.022": 0.0,
			"-0.021": 0.0,
			"-0.02": 0.0,
			"-0.019": 0.0,
			"-0.018": 0.0,
			"-0.017": 0.0,
			"-0.016": 0.0,
			"-0.015": 0.0,
			"-0.014": 0.317838291212,
			"-0.013": 1.64914977676,
			"-0.012": 2.98649065963,
			"-0.011": 2.61910539726,
			"-0.01": 2.26002337113,
			"-0.009": 2.62560575537,
			"-0.008": 2.88909027204,
			"-0.007": 5.61591384715,
			"-0.006": 12.7935315196,
			"-0.005": 20.2280712125,
			"-0.004": 22.8062780595,
			"-0.003": 20.4303775908,
			"-0.002": 15.4861616213,
			"-0.001": 14.9735163184,
			"0.0": 14.3497503399,
			"0.001": 15.7722458646,
			"0.002": 18.1030330561,
			"0.003": 20.5367595552,
			"0.004": 28.1774240877,
			"0.005": 28.4155560063,
			"0.006": 13.7253925437,
			"0.007": 2.89551288548,
			"0.008": 3.22328275333,
			"0.009": 2.71677434807,
			"0.01": 1.46260593218,
			"0.011": 1.29256809634,
			"0.012": 1.44398266401,
			"0.013": 0.561359655554,
			"0.014": 0.0658041280149,
			"0.015": 0.0,
			"0.016": 0.0,
			"0.017": 0.0,
			"0.018": 0.0,
			"0.019": 0.0,
			"0.02": 0.0,
			"0.021": 0.0,
			"0.022": 0.0,
			"0.023": 0.0,
			"0.024": 0.0,
			"0.025": 0.0
		}
	}
}
