{
	 "smiles": "[O-][N+](=O)C1=CC(=CC=C1)C(=O)N1CCNCC1", 
	 "Tm": 419.15, 
	 "num_atms": 30, 
	 "gaussian": { 
		 "optdone": 1, 
		 "sigma_profile": "yes", 
		 "theory": "DFT", 
		 "functional": "B3LYP", 
		 "basiset": "6-31G**", 
		 "properties": { 
			 "R2extent": 5207.6673, 
			 "electric_dipole_moment_norm": 6.27686035371, 
			 "electric_quadrupole_moment_norm": 20.1368350137, 
			 "total_energy": -816.83443001, 
			 "HOMO_LUMO_gap": 0.1432, 
			 "cosmo_polarized_energy": -16.46, 
			 "cosmo_cavitation_energy": 33.41, 
			 "cosmo_dispersion_energy": -24.07, 
			 "cosmo_repulsion_energy": 1.87, 
			 "cosmo_total_nonelectrostatic_energy": 11.21, 
			 "SMD_solvation_energy": 5.42 
		},
		"coords": [
			{
				"x": 3.3458361917,
				"y": -1.7083239568,
				"z": -2.7997801889,
				"element": "O" 
			},
			{
				"x": 2.2715706185,
				"y": -2.0700817561,
				"z": -3.2753932446,
				"element": "N" 
			},
			{
				"x": 2.1344981528,
				"y": -2.6104034436,
				"z": -4.3725146949,
				"element": "O" 
			},
			{
				"x": 1.0551421428,
				"y": -1.8359149385,
				"z": -2.4752051062,
				"element": "C" 
			},
			{
				"x": 1.1808584105,
				"y": -1.2557611659,
				"z": -1.2180583739,
				"element": "C" 
			},
			{
				"x": 0.0262830014,
				"y": -1.0074455589,
				"z": -0.4689333765,
				"element": "C" 
			},
			{
				"x": -1.2209158078,
				"y": -1.3904487013,
				"z": -0.9828834864,
				"element": "C" 
			},
			{
				"x": -1.3204211274,
				"y": -1.9949482295,
				"z": -2.238663752,
				"element": "C" 
			},
			{
				"x": -0.1783400579,
				"y": -2.2150654556,
				"z": -3.0041911261,
				"element": "C" 
			},
			{
				"x": 0.2053387087,
				"y": -0.471381375,
				"z": 0.9320213159,
				"element": "C" 
			},
			{
				"x": 1.0802407015,
				"y": -0.9588528817,
				"z": 1.6442040251,
				"element": "O" 
			},
			{
				"x": -0.6565723981,
				"y": 0.5043635471,
				"z": 1.3737549941,
				"element": "N" 
			},
			{
				"x": -1.404418434,
				"y": 1.4325897356,
				"z": 0.5194866984,
				"element": "C" 
			},
			{
				"x": -0.8462956618,
				"y": 2.8551770946,
				"z": 0.6596154478,
				"element": "C" 
			},
			{
				"x": -0.8678585953,
				"y": 3.2456901227,
				"z": 2.067009239,
				"element": "N" 
			},
			{
				"x": -0.0239223436,
				"y": 2.3609314437,
				"z": 2.8733861656,
				"element": "C" 
			},
			{
				"x": -0.5670374465,
				"y": 0.933673,
				"z": 2.7752903241,
				"element": "C" 
			},
			{
				"x": 2.1590083487,
				"y": -1.0115678128,
				"z": -0.8240551832,
				"element": "H" 
			},
			{
				"x": -2.1162577171,
				"y": -1.2335914079,
				"z": -0.3891030076,
				"element": "H" 
			},
			{
				"x": -2.2908172752,
				"y": -2.2974368483,
				"z": -2.6192984971,
				"element": "H" 
			},
			{
				"x": -0.2201288953,
				"y": -2.6735408001,
				"z": -3.984040617,
				"element": "H" 
			},
			{
				"x": -1.3435066299,
				"y": 1.1123367393,
				"z": -0.519840716,
				"element": "H" 
			},
			{
				"x": -2.4585701896,
				"y": 1.4298961451,
				"z": 0.8260881248,
				"element": "H" 
			},
			{
				"x": 0.1688498116,
				"y": 2.8740648521,
				"z": 0.218580512,
				"element": "H" 
			},
			{
				"x": -1.4744458816,
				"y": 3.5443899151,
				"z": 0.0844521628,
				"element": "H" 
			},
			{
				"x": -0.5625297561,
				"y": 4.2093679204,
				"z": 2.1664175614,
				"element": "H" 
			},
			{
				"x": -0.0550681544,
				"y": 2.6907881581,
				"z": 3.9172938327,
				"element": "H" 
			},
			{
				"x": 1.0331226024,
				"y": 2.3581259823,
				"z": 2.5496141931,
				"element": "H" 
			},
			{
				"x": 0.0786222464,
				"y": 0.2288571416,
				"z": 3.297821937,
				"element": "H" 
			},
			{
				"x": -1.5751645654,
				"y": 0.9019125343,
				"z": 3.2074248365,
				"element": "H" 
			}
		],
		 "valence_orbital": [ 
			{
				"type": "occ",
				"energy": -0.28647,
				"method": "rhf"
			},
			{
				"type": "occ",
				"energy": -0.28569,
				"method": "rhf"
			},
			{
				"type": "occ",
				"energy": -0.25765,
				"method": "rhf"
			},
			{
				"type": "occ",
				"energy": -0.25111,
				"method": "rhf"
			},
			{
				"type": "occ",
				"energy": -0.23394,
				"method": "rhf"
			},
			{
				"type": "unocc",
				"energy": -0.09074,
				"method": "rhf"
			},
			{
				"type": "unocc",
				"energy": -0.04543,
				"method": "rhf"
			},
			{
				"type": "unocc",
				"energy": -0.00886,
				"method": "rhf"
			},
			{
				"type": "unocc",
				"energy": 0.0363,
				"method": "rhf"
			},
			{
				"type": "unocc",
				"energy": 0.07369,
				"method": "rhf"
			}
		],
		"cosmo_sigma_profile": { 
			"-0.025": 0.0,
			"-0.024": 0.0,
			"-0.023": 0.0,
			"-0.022": 0.0,
			"-0.021": 0.0,
			"-0.02": 0.0,
			"-0.019": 0.0,
			"-0.018": 0.0,
			"-0.017": 0.0,
			"-0.016": 0.0,
			"-0.015": 0.0,
			"-0.014": 0.0,
			"-0.013": 0.0,
			"-0.012": 0.0,
			"-0.011": 0.439065924811,
			"-0.01": 1.64091588912,
			"-0.009": 1.09888215771,
			"-0.008": 3.76851500115,
			"-0.007": 8.23535426463,
			"-0.006": 11.1976320169,
			"-0.005": 16.0715545628,
			"-0.004": 29.96344584,
			"-0.003": 29.5002448417,
			"-0.002": 30.446500491,
			"-0.001": 23.5721399328,
			"0.0": 19.0679296688,
			"0.001": 14.9528979756,
			"0.002": 8.67064800113,
			"0.003": 4.53083322633,
			"0.004": 5.24135070689,
			"0.005": 5.79350968962,
			"0.006": 5.87343810621,
			"0.007": 11.2103649505,
			"0.008": 9.46079204666,
			"0.009": 5.97691850223,
			"0.01": 3.43938891741,
			"0.011": 2.53593769836,
			"0.012": 2.46744453797,
			"0.013": 4.86269992318,
			"0.014": 3.06634273364,
			"0.015": 0.328312679859,
			"0.016": 0.558679451266,
			"0.017": 0.341346323697,
			"0.018": 0.105944007939,
			"0.019": 0.0,
			"0.02": 0.0,
			"0.021": 0.0,
			"0.022": 0.0,
			"0.023": 0.0,
			"0.024": 0.0,
			"0.025": 0.0
		}
	}
}
