{
	 "smiles": "BrC1=CC2=C(CC(=O)N2)C=C1", 
	 "Tm": 491.15, 
	 "num_atms": 17, 
	 "gaussian": { 
		 "optdone": 1, 
		 "sigma_profile": "yes", 
		 "theory": "DFT", 
		 "functional": "B3LYP", 
		 "basiset": "6-31G**", 
		 "properties": { 
			 "R2extent": 4721.5699, 
			 "electric_dipole_moment_norm": 1.23716949122, 
			 "electric_quadrupole_moment_norm": 19.1484869951, 
			 "total_energy": -3009.86743573, 
			 "HOMO_LUMO_gap": 0.20028, 
			 "cosmo_polarized_energy": -11.62, 
			 "cosmo_cavitation_energy": 23.63, 
			 "cosmo_dispersion_energy": -18.24, 
			 "cosmo_repulsion_energy": 1.47, 
			 "cosmo_total_nonelectrostatic_energy": 6.85, 
			 "SMD_solvation_energy": 3.28 
		},
		"coords": [
			{
				"x": -3.926685695,
				"y": -1.1121466436,
				"z": 2.2180466269,
				"element": "Br" 
			},
			{
				"x": -2.2669744046,
				"y": -1.4056457091,
				"z": 1.313843901,
				"element": "C" 
			},
			{
				"x": -1.0919516052,
				"y": -0.9363771361,
				"z": 1.9096261912,
				"element": "C" 
			},
			{
				"x": 0.0944575902,
				"y": -1.1682895511,
				"z": 1.2225125848,
				"element": "C" 
			},
			{
				"x": 0.1276765067,
				"y": -1.8410774177,
				"z": -0.0133374524,
				"element": "C" 
			},
			{
				"x": 1.5616559635,
				"y": -1.9179491047,
				"z": -0.4724027514,
				"element": "C" 
			},
			{
				"x": 2.3424460897,
				"y": -1.2083547002,
				"z": 0.6494029729,
				"element": "C" 
			},
			{
				"x": 3.5380118853,
				"y": -1.0191099599,
				"z": 0.7295758001,
				"element": "O" 
			},
			{
				"x": 1.3955672347,
				"y": -0.810441501,
				"z": 1.5867644962,
				"element": "N" 
			},
			{
				"x": -1.0559288048,
				"y": -2.2929019616,
				"z": -0.5752071202,
				"element": "C" 
			},
			{
				"x": -2.2704353621,
				"y": -2.0752819669,
				"z": 0.0919986741,
				"element": "C" 
			},
			{
				"x": -1.1171454669,
				"y": -0.4183615073,
				"z": 2.8610560148,
				"element": "H" 
			},
			{
				"x": 1.7505552284,
				"y": -1.4056073897,
				"z": -1.422409529,
				"element": "H" 
			},
			{
				"x": 1.9375575125,
				"y": -2.9414575091,
				"z": -0.5811233206,
				"element": "H" 
			},
			{
				"x": 1.6561705496,
				"y": -0.3178819734,
				"z": 2.4284417757,
				"element": "H" 
			},
			{
				"x": -1.0536843756,
				"y": -2.8145835331,
				"z": -1.5281824664,
				"element": "H" 
			},
			{
				"x": -3.2040928465,
				"y": -2.4221324355,
				"z": -0.3338063977,
				"element": "H" 
			}
		],
		 "valence_orbital": [ 
			{
				"type": "occ",
				"energy": -0.3006,
				"method": "rhf"
			},
			{
				"type": "occ",
				"energy": -0.29132,
				"method": "rhf"
			},
			{
				"type": "occ",
				"energy": -0.26465,
				"method": "rhf"
			},
			{
				"type": "occ",
				"energy": -0.25519,
				"method": "rhf"
			},
			{
				"type": "occ",
				"energy": -0.22714,
				"method": "rhf"
			},
			{
				"type": "unocc",
				"energy": -0.02686,
				"method": "rhf"
			},
			{
				"type": "unocc",
				"energy": -0.01738,
				"method": "rhf"
			},
			{
				"type": "unocc",
				"energy": 0.00167,
				"method": "rhf"
			},
			{
				"type": "unocc",
				"energy": 0.02458,
				"method": "rhf"
			},
			{
				"type": "unocc",
				"energy": 0.08132,
				"method": "rhf"
			}
		],
		"cosmo_sigma_profile": { 
			"-0.025": 0.0,
			"-0.024": 0.0,
			"-0.023": 0.0,
			"-0.022": 0.0,
			"-0.021": 0.0,
			"-0.02": 0.0,
			"-0.019": 0.0,
			"-0.018": 0.0,
			"-0.017": 0.0,
			"-0.016": 0.674800964043,
			"-0.015": 1.62444324351,
			"-0.014": 1.33073269189,
			"-0.013": 0.950817953228,
			"-0.012": 1.44787118212,
			"-0.011": 0.839665885221,
			"-0.01": 1.13236086949,
			"-0.009": 1.61351860231,
			"-0.008": 2.73574402886,
			"-0.007": 8.62286405949,
			"-0.006": 10.5517409044,
			"-0.005": 11.4160637125,
			"-0.004": 12.6093655523,
			"-0.003": 11.457005564,
			"-0.002": 9.06239694072,
			"-0.001": 11.4628964828,
			"0.0": 11.3690389159,
			"0.001": 11.7733016842,
			"0.002": 16.743298561,
			"0.003": 19.3347448057,
			"0.004": 17.6685863465,
			"0.005": 8.68410513594,
			"0.006": 1.0352095735,
			"0.007": 1.53235464488,
			"0.008": 1.139948897,
			"0.009": 1.36609361845,
			"0.01": 1.72967614099,
			"0.011": 1.68133345674,
			"0.012": 4.41532117603,
			"0.013": 5.33792851447,
			"0.014": 1.37615546396,
			"0.015": 0.0,
			"0.016": 0.0,
			"0.017": 0.0,
			"0.018": 0.0,
			"0.019": 0.0,
			"0.02": 0.0,
			"0.021": 0.0,
			"0.022": 0.0,
			"0.023": 0.0,
			"0.024": 0.0,
			"0.025": 0.0
		}
	}
}
