{
	 "smiles": "COC(=O)CN1N=C2C=CC(Cl)=NN2C1=O", 
	 "Tm": 432.15, 
	 "num_atms": 23, 
	 "gaussian": { 
		 "optdone": 1, 
		 "sigma_profile": "yes", 
		 "theory": "DFT", 
		 "functional": "B3LYP", 
		 "basiset": "6-31G**", 
		 "properties": { 
			 "R2extent": 5377.4172, 
			 "electric_dipole_moment_norm": 4.57793126204, 
			 "electric_quadrupole_moment_norm": 22.4303841071, 
			 "total_energy": -1213.89265615, 
			 "HOMO_LUMO_gap": 0.1335, 
			 "cosmo_polarized_energy": -18.88, 
			 "cosmo_cavitation_energy": 31.32, 
			 "cosmo_dispersion_energy": -22.71, 
			 "cosmo_repulsion_energy": 1.79, 
			 "cosmo_total_nonelectrostatic_energy": 10.4, 
			 "SMD_solvation_energy": 5.74 
		},
		"coords": [
			{
				"x": 5.3653250858,
				"y": 1.5113328747,
				"z": 0.711835277,
				"element": "C" 
			},
			{
				"x": 4.2459774411,
				"y": 0.9747144549,
				"z": 1.4419375928,
				"element": "O" 
			},
			{
				"x": 3.0695175773,
				"y": 0.9938446565,
				"z": 0.788830899,
				"element": "C" 
			},
			{
				"x": 2.9055383545,
				"y": 1.4024465809,
				"z": -0.3352809206,
				"element": "O" 
			},
			{
				"x": 1.9719322228,
				"y": 0.4371591945,
				"z": 1.6974637425,
				"element": "C" 
			},
			{
				"x": 0.7264639557,
				"y": 0.2837918209,
				"z": 0.9992515492,
				"element": "N" 
			},
			{
				"x": 0.5283419201,
				"y": -0.7818994688,
				"z": 0.1461916124,
				"element": "N" 
			},
			{
				"x": -0.608674843,
				"y": -0.5070747566,
				"z": -0.4372244659,
				"element": "C" 
			},
			{
				"x": -1.3633394306,
				"y": -1.2246841338,
				"z": -1.4107231125,
				"element": "C" 
			},
			{
				"x": -2.5285769596,
				"y": -0.6700631572,
				"z": -1.8397468815,
				"element": "C" 
			},
			{
				"x": -2.9392825087,
				"y": 0.6031258607,
				"z": -1.2893875915,
				"element": "C" 
			},
			{
				"x": -4.4404717112,
				"y": 1.2885143651,
				"z": -1.8593912671,
				"element": "Cl" 
			},
			{
				"x": -2.2897671568,
				"y": 1.286060431,
				"z": -0.4032508574,
				"element": "N" 
			},
			{
				"x": -1.1371967998,
				"y": 0.7089778129,
				"z": 0.0029068939,
				"element": "N" 
			},
			{
				"x": -0.2455274533,
				"y": 1.2723240982,
				"z": 0.9456744179,
				"element": "C" 
			},
			{
				"x": -0.3199320428,
				"y": 2.3181457807,
				"z": 1.5565785369,
				"element": "O" 
			},
			{
				"x": 5.1846411934,
				"y": 2.5566309222,
				"z": 0.4505124651,
				"element": "H" 
			},
			{
				"x": 6.2208212192,
				"y": 1.4246579261,
				"z": 1.3809156231,
				"element": "H" 
			},
			{
				"x": 5.5327241485,
				"y": 0.9395504476,
				"z": -0.2039551326,
				"element": "H" 
			},
			{
				"x": 2.2855001179,
				"y": -0.5244099481,
				"z": 2.1106520934,
				"element": "H" 
			},
			{
				"x": 1.8095760715,
				"y": 1.1362683891,
				"z": 2.5229207518,
				"element": "H" 
			},
			{
				"x": -0.991772014,
				"y": -2.173948212,
				"z": -1.7789320517,
				"element": "H" 
			},
			{
				"x": -3.1563183882,
				"y": -1.1499659393,
				"z": -2.5798791743,
				"element": "H" 
			}
		],
		 "valence_orbital": [ 
			{
				"type": "occ",
				"energy": -0.31332,
				"method": "rhf"
			},
			{
				"type": "occ",
				"energy": -0.29529,
				"method": "rhf"
			},
			{
				"type": "occ",
				"energy": -0.28296,
				"method": "rhf"
			},
			{
				"type": "occ",
				"energy": -0.27276,
				"method": "rhf"
			},
			{
				"type": "occ",
				"energy": -0.2201,
				"method": "rhf"
			},
			{
				"type": "unocc",
				"energy": -0.0866,
				"method": "rhf"
			},
			{
				"type": "unocc",
				"energy": -0.01987,
				"method": "rhf"
			},
			{
				"type": "unocc",
				"energy": 0.00262,
				"method": "rhf"
			},
			{
				"type": "unocc",
				"energy": 0.01167,
				"method": "rhf"
			},
			{
				"type": "unocc",
				"energy": 0.04512,
				"method": "rhf"
			}
		],
		"cosmo_sigma_profile": { 
			"-0.025": 0.0,
			"-0.024": 0.0,
			"-0.023": 0.0,
			"-0.022": 0.0,
			"-0.021": 0.0,
			"-0.02": 0.0,
			"-0.019": 0.0,
			"-0.018": 0.0,
			"-0.017": 0.0,
			"-0.016": 0.0,
			"-0.015": 0.0,
			"-0.014": 0.0,
			"-0.013": 0.0,
			"-0.012": 0.0,
			"-0.011": 0.607051500954,
			"-0.01": 3.46506183321,
			"-0.009": 7.24496460164,
			"-0.008": 7.86545953193,
			"-0.007": 8.93495415794,
			"-0.006": 16.9326599928,
			"-0.005": 16.6311644886,
			"-0.004": 22.6801053018,
			"-0.003": 23.3377924774,
			"-0.002": 16.8128265733,
			"-0.001": 15.0389483335,
			"0.0": 10.9924325689,
			"0.001": 10.7528150096,
			"0.002": 14.2624521102,
			"0.003": 14.6871783406,
			"0.004": 7.6085648129,
			"0.005": 5.80813794312,
			"0.006": 5.87368785602,
			"0.007": 7.00236813567,
			"0.008": 5.73794127451,
			"0.009": 5.10429092417,
			"0.01": 5.65306236277,
			"0.011": 8.83325628118,
			"0.012": 8.10387572123,
			"0.013": 3.88482999732,
			"0.014": 0.293339551744,
			"0.015": 0.0,
			"0.016": 0.0,
			"0.017": 0.0,
			"0.018": 0.0,
			"0.019": 0.0,
			"0.02": 0.0,
			"0.021": 0.0,
			"0.022": 0.0,
			"0.023": 0.0,
			"0.024": 0.0,
			"0.025": 0.0
		}
	}
}
