{
	 "smiles": "CC(C)(C)C1=NN(C(N)=C1)C1=NC=CC=N1", 
	 "Tm": 468.15, 
	 "num_atms": 31, 
	 "gaussian": { 
		 "optdone": 1, 
		 "sigma_profile": "yes", 
		 "theory": "DFT", 
		 "functional": "B3LYP", 
		 "basiset": "6-31G**", 
		 "properties": { 
			 "R2extent": 5148.3442, 
			 "electric_dipole_moment_norm": 3.70221447515, 
			 "electric_quadrupole_moment_norm": 19.8587606509, 
			 "total_energy": -701.960049355, 
			 "HOMO_LUMO_gap": 0.14896, 
			 "cosmo_polarized_energy": -15.82, 
			 "cosmo_cavitation_energy": 33.72, 
			 "cosmo_dispersion_energy": -24.27, 
			 "cosmo_repulsion_energy": 1.9, 
			 "cosmo_total_nonelectrostatic_energy": 11.34, 
			 "SMD_solvation_energy": 3.54 
		},
		"coords": [
			{
				"x": -2.0259735928,
				"y": -2.6286988403,
				"z": 0.4269869504,
				"element": "C" 
			},
			{
				"x": -1.6140766392,
				"y": -1.1390808725,
				"z": 0.4626501237,
				"element": "C" 
			},
			{
				"x": -2.2494430497,
				"y": -0.4641494384,
				"z": 1.7001402373,
				"element": "C" 
			},
			{
				"x": -2.1134365176,
				"y": -0.4394868738,
				"z": -0.8138939656,
				"element": "C" 
			},
			{
				"x": -0.1020611561,
				"y": -1.0454229293,
				"z": 0.570785497,
				"element": "C" 
			},
			{
				"x": 0.6059578087,
				"y": -0.4188893732,
				"z": -0.3498279796,
				"element": "N" 
			},
			{
				"x": 1.9217694885,
				"y": -0.5368257725,
				"z": 0.070770438,
				"element": "N" 
			},
			{
				"x": 2.0095454737,
				"y": -1.24297366,
				"z": 1.2707038578,
				"element": "C" 
			},
			{
				"x": 3.1881086598,
				"y": -1.4371566506,
				"z": 1.9509624321,
				"element": "N" 
			},
			{
				"x": 0.717193808,
				"y": -1.5821409048,
				"z": 1.6081970209,
				"element": "C" 
			},
			{
				"x": 2.9479301228,
				"y": -0.0155992333,
				"z": -0.7183225574,
				"element": "C" 
			},
			{
				"x": 4.2073693616,
				"y": -0.3132351628,
				"z": -0.3484363475,
				"element": "N" 
			},
			{
				"x": 5.1848246209,
				"y": 0.1888361673,
				"z": -1.1090469298,
				"element": "C" 
			},
			{
				"x": 4.9336641923,
				"y": 0.9710020803,
				"z": -2.2301831306,
				"element": "C" 
			},
			{
				"x": 3.5867142772,
				"y": 1.2061682563,
				"z": -2.5150703467,
				"element": "C" 
			},
			{
				"x": 2.5898428454,
				"y": 0.7270434659,
				"z": -1.7743797359,
				"element": "N" 
			},
			{
				"x": -3.1162309604,
				"y": -2.7204578962,
				"z": 0.363896524,
				"element": "H" 
			},
			{
				"x": -1.6961388094,
				"y": -3.160167983,
				"z": 1.3257411943,
				"element": "H" 
			},
			{
				"x": -1.5914559893,
				"y": -3.1343432967,
				"z": -0.4413942347,
				"element": "H" 
			},
			{
				"x": -1.9248891172,
				"y": -0.9409084974,
				"z": 2.6308884207,
				"element": "H" 
			},
			{
				"x": -1.9759314038,
				"y": 0.5945512652,
				"z": 1.7517067277,
				"element": "H" 
			},
			{
				"x": -3.3422214178,
				"y": -0.5318461161,
				"z": 1.6510920244,
				"element": "H" 
			},
			{
				"x": -1.8341768842,
				"y": 0.6172346289,
				"z": -0.8203442831,
				"element": "H" 
			},
			{
				"x": -3.2048900135,
				"y": -0.5133105013,
				"z": -0.8754576927,
				"element": "H" 
			},
			{
				"x": -1.6822452609,
				"y": -0.8952888308,
				"z": -1.7090210122,
				"element": "H" 
			},
			{
				"x": 3.1747922914,
				"y": -2.2066876695,
				"z": 2.6034659943,
				"element": "H" 
			},
			{
				"x": 4.0208362822,
				"y": -1.3417521263,
				"z": 1.3805518239,
				"element": "H" 
			},
			{
				"x": 0.4124595449,
				"y": -2.1264338567,
				"z": 2.4896163217,
				"element": "H" 
			},
			{
				"x": 6.2008359406,
				"y": -0.0529784052,
				"z": -0.8029737957,
				"element": "H" 
			},
			{
				"x": 5.7321613997,
				"y": 1.3724851796,
				"z": -2.8426230887,
				"element": "H" 
			},
			{
				"x": 3.2941646941,
				"y": 1.8086138472,
				"z": -3.3739804879,
				"element": "H" 
			}
		],
		 "valence_orbital": [ 
			{
				"type": "occ",
				"energy": -0.29507,
				"method": "rhf"
			},
			{
				"type": "occ",
				"energy": -0.27452,
				"method": "rhf"
			},
			{
				"type": "occ",
				"energy": -0.25,
				"method": "rhf"
			},
			{
				"type": "occ",
				"energy": -0.22937,
				"method": "rhf"
			},
			{
				"type": "occ",
				"energy": -0.19505,
				"method": "rhf"
			},
			{
				"type": "unocc",
				"energy": -0.04609,
				"method": "rhf"
			},
			{
				"type": "unocc",
				"energy": -0.03293,
				"method": "rhf"
			},
			{
				"type": "unocc",
				"energy": 0.05301,
				"method": "rhf"
			},
			{
				"type": "unocc",
				"energy": 0.0844,
				"method": "rhf"
			},
			{
				"type": "unocc",
				"energy": 0.09407,
				"method": "rhf"
			}
		],
		"cosmo_sigma_profile": { 
			"-0.025": 0.0,
			"-0.024": 0.0,
			"-0.023": 0.0,
			"-0.022": 0.0,
			"-0.021": 0.0,
			"-0.02": 0.0,
			"-0.019": 0.0,
			"-0.018": 0.0,
			"-0.017": 0.0,
			"-0.016": 0.0,
			"-0.015": 0.0,
			"-0.014": 0.213457919314,
			"-0.013": 1.23605942944,
			"-0.012": 1.18189645136,
			"-0.011": 1.65495045212,
			"-0.01": 0.878891879857,
			"-0.009": 1.9545104378,
			"-0.008": 7.72668809242,
			"-0.007": 9.9249075832,
			"-0.006": 9.68637994116,
			"-0.005": 9.04439273187,
			"-0.004": 7.85700582665,
			"-0.003": 19.3198350578,
			"-0.002": 26.9224596572,
			"-0.001": 30.9185908703,
			"0.0": 31.6988930336,
			"0.001": 31.1148335607,
			"0.002": 18.8372434783,
			"0.003": 9.26815039339,
			"0.004": 8.40957583815,
			"0.005": 8.47262079431,
			"0.006": 5.90763087776,
			"0.007": 3.66788970321,
			"0.008": 2.64179539286,
			"0.009": 2.71943830279,
			"0.01": 2.78940112858,
			"0.011": 1.99190905923,
			"0.012": 1.72368510465,
			"0.013": 1.90283698883,
			"0.014": 1.25155116843,
			"0.015": 0.97061257874,
			"0.016": 0.636822356721,
			"0.017": 0.659197477825,
			"0.018": 1.32410141064,
			"0.019": 0.660729953459,
			"0.02": 0.634030359663,
			"0.021": 0.519996471093,
			"0.022": 0.0364416675162,
			"0.023": 0.0,
			"0.024": 0.0,
			"0.025": 0.0
		}
	}
}
