{
	 "smiles": "COC(=O)C1=CC2=NSN=C2C=C1", 
	 "Tm": 364.15, 
	 "num_atms": 19, 
	 "gaussian": { 
		 "optdone": 1, 
		 "sigma_profile": "yes", 
		 "theory": "DFT", 
		 "functional": "B3LYP", 
		 "basiset": "6-31G**", 
		 "properties": { 
			 "R2extent": 3597.6575, 
			 "electric_dipole_moment_norm": 2.58288913235, 
			 "electric_quadrupole_moment_norm": 9.60257651623, 
			 "total_energy": -966.589582209, 
			 "HOMO_LUMO_gap": 0.15229, 
			 "cosmo_polarized_energy": -8.56, 
			 "cosmo_cavitation_energy": 25.87, 
			 "cosmo_dispersion_energy": -20.01, 
			 "cosmo_repulsion_energy": 1.5, 
			 "cosmo_total_nonelectrostatic_energy": 7.37, 
			 "SMD_solvation_energy": 2.68 
		},
		"coords": [
			{
				"x": 0.4602371736,
				"y": -3.8002521269,
				"z": 0.8439892893,
				"element": "C" 
			},
			{
				"x": 0.7841660807,
				"y": -2.4003443651,
				"z": 0.8143082603,
				"element": "O" 
			},
			{
				"x": -0.2275419161,
				"y": -1.5840298045,
				"z": 0.4448915938,
				"element": "C" 
			},
			{
				"x": -1.3370412697,
				"y": -1.9857357323,
				"z": 0.1557056198,
				"element": "O" 
			},
			{
				"x": 0.1787978507,
				"y": -0.1459139907,
				"z": 0.4367727488,
				"element": "C" 
			},
			{
				"x": -0.7778516128,
				"y": 0.7751213782,
				"z": 0.0745449209,
				"element": "C" 
			},
			{
				"x": -0.4169065431,
				"y": 2.1492246344,
				"z": 0.0587903534,
				"element": "C" 
			},
			{
				"x": -1.2190899864,
				"y": 3.1738165446,
				"z": -0.2672510527,
				"element": "N" 
			},
			{
				"x": -0.3078899198,
				"y": 4.5298821255,
				"z": -0.1201516469,
				"element": "S" 
			},
			{
				"x": 1.1244723303,
				"y": 3.8786063176,
				"z": 0.3580600122,
				"element": "N" 
			},
			{
				"x": 0.9290082176,
				"y": 2.5549676946,
				"z": 0.4178143712,
				"element": "C" 
			},
			{
				"x": 1.8935220286,
				"y": 1.5721795305,
				"z": 0.7878624828,
				"element": "C" 
			},
			{
				"x": 1.5135663702,
				"y": 0.2571021771,
				"z": 0.7927782557,
				"element": "C" 
			},
			{
				"x": 1.3732559229,
				"y": -4.3063457235,
				"z": 1.1565862136,
				"element": "H" 
			},
			{
				"x": -0.3487375366,
				"y": -3.9914224456,
				"z": 1.5532734927,
				"element": "H" 
			},
			{
				"x": 0.149185531,
				"y": -4.1426648756,
				"z": -0.1459925487,
				"element": "H" 
			},
			{
				"x": -1.7789249902,
				"y": 0.456427556,
				"z": -0.1909256558,
				"element": "H" 
			},
			{
				"x": 2.8976715559,
				"y": 1.8818361119,
				"z": 1.0551201121,
				"element": "H" 
			},
			{
				"x": 2.2221007133,
				"y": -0.5144550062,
				"z": 1.0690231775,
				"element": "H" 
			}
		],
		 "valence_orbital": [ 
			{
				"type": "occ",
				"energy": -0.31071,
				"method": "rhf"
			},
			{
				"type": "occ",
				"energy": -0.30726,
				"method": "rhf"
			},
			{
				"type": "occ",
				"energy": -0.28337,
				"method": "rhf"
			},
			{
				"type": "occ",
				"energy": -0.2727,
				"method": "rhf"
			},
			{
				"type": "occ",
				"energy": -0.25065,
				"method": "rhf"
			},
			{
				"type": "unocc",
				"energy": -0.09836,
				"method": "rhf"
			},
			{
				"type": "unocc",
				"energy": -0.03663,
				"method": "rhf"
			},
			{
				"type": "unocc",
				"energy": 0.00042,
				"method": "rhf"
			},
			{
				"type": "unocc",
				"energy": 0.00632,
				"method": "rhf"
			},
			{
				"type": "unocc",
				"energy": 0.05887,
				"method": "rhf"
			}
		],
		"cosmo_sigma_profile": { 
			"-0.025": 0.0,
			"-0.024": 0.0,
			"-0.023": 0.0,
			"-0.022": 0.0,
			"-0.021": 0.0,
			"-0.02": 0.0,
			"-0.019": 0.0,
			"-0.018": 0.0,
			"-0.017": 0.0,
			"-0.016": 0.0,
			"-0.015": 0.0,
			"-0.014": 0.0,
			"-0.013": 0.0,
			"-0.012": 0.0,
			"-0.011": 0.0,
			"-0.01": 0.0,
			"-0.009": 0.0,
			"-0.008": 1.31888572378,
			"-0.007": 4.74023459162,
			"-0.006": 9.74076659014,
			"-0.005": 14.32590319,
			"-0.004": 19.0146442936,
			"-0.003": 22.4938851952,
			"-0.002": 23.6877841706,
			"-0.001": 20.3243569917,
			"0.0": 21.0091670305,
			"0.001": 15.5962504148,
			"0.002": 11.4142379936,
			"0.003": 6.34498216098,
			"0.004": 6.59422386076,
			"0.005": 4.85117412857,
			"0.006": 3.8505725991,
			"0.007": 4.08415265922,
			"0.008": 3.03326019349,
			"0.009": 4.02811800546,
			"0.01": 3.6222359092,
			"0.011": 6.11024227023,
			"0.012": 4.30769969678,
			"0.013": 0.731339260757,
			"0.014": 0.0,
			"0.015": 0.0,
			"0.016": 0.0,
			"0.017": 0.0,
			"0.018": 0.0,
			"0.019": 0.0,
			"0.02": 0.0,
			"0.021": 0.0,
			"0.022": 0.0,
			"0.023": 0.0,
			"0.024": 0.0,
			"0.025": 0.0
		}
	}
}
