{
	 "smiles": "CCOC(=O)N1COCC2=C1C=CC1=C2N=C2C(CO)=C(NC)C=CC2=C1", 
	 "Tm": 419.15, 
	 "num_atms": 48, 
	 "gaussian": { 
		 "optdone": 1, 
		 "sigma_profile": "yes", 
		 "theory": "DFT", 
		 "functional": "B3LYP", 
		 "basiset": "6-31G**", 
		 "properties": { 
			 "R2extent": 15041.2059, 
			 "electric_dipole_moment_norm": 5.28194772882, 
			 "electric_quadrupole_moment_norm": 15.2937565869, 
			 "total_energy": -1239.95930469, 
			 "HOMO_LUMO_gap": 0.12001, 
			 "cosmo_polarized_energy": -17.07, 
			 "cosmo_cavitation_energy": 49.68, 
			 "cosmo_dispersion_energy": -35.63, 
			 "cosmo_repulsion_energy": 2.65, 
			 "cosmo_total_nonelectrostatic_energy": 16.71, 
			 "SMD_solvation_energy": 7.28 
		},
		"coords": [
			{
				"x": 3.6854204122,
				"y": -5.1634148865,
				"z": -5.4166650623,
				"element": "C" 
			},
			{
				"x": 4.0773239764,
				"y": -3.8487083024,
				"z": -4.7602391297,
				"element": "C" 
			},
			{
				"x": 3.1551656941,
				"y": -3.4803186248,
				"z": -3.7063107809,
				"element": "O" 
			},
			{
				"x": 3.3813250315,
				"y": -4.0517846549,
				"z": -2.5028740198,
				"element": "C" 
			},
			{
				"x": 4.2981395835,
				"y": -4.8206970025,
				"z": -2.2729286144,
				"element": "O" 
			},
			{
				"x": 2.4412708608,
				"y": -3.6747854791,
				"z": -1.553379778,
				"element": "N" 
			},
			{
				"x": 2.7754138763,
				"y": -3.9368703493,
				"z": -0.1525409059,
				"element": "C" 
			},
			{
				"x": 3.1296062631,
				"y": -2.7436628606,
				"z": 0.4991171893,
				"element": "O" 
			},
			{
				"x": 2.0246730479,
				"y": -1.8473363582,
				"z": 0.5841148834,
				"element": "C" 
			},
			{
				"x": 1.1763734443,
				"y": -1.8357921305,
				"z": -0.6668326817,
				"element": "C" 
			},
			{
				"x": 1.4192586542,
				"y": -2.6984319732,
				"z": -1.7202018839,
				"element": "C" 
			},
			{
				"x": 0.5823776275,
				"y": -2.6914811568,
				"z": -2.8825270515,
				"element": "C" 
			},
			{
				"x": -0.455401355,
				"y": -1.8084916242,
				"z": -2.9788342336,
				"element": "C" 
			},
			{
				"x": -0.7398979099,
				"y": -0.8921612884,
				"z": -1.9237870632,
				"element": "C" 
			},
			{
				"x": 0.0816864541,
				"y": -0.9102941375,
				"z": -0.740656465,
				"element": "C" 
			},
			{
				"x": -0.1196646341,
				"y": -0.089739865,
				"z": 0.3026808706,
				"element": "N" 
			},
			{
				"x": -1.13307489,
				"y": 0.8022104488,
				"z": 0.2619007224,
				"element": "C" 
			},
			{
				"x": -1.3473807524,
				"y": 1.6674659824,
				"z": 1.3785436063,
				"element": "C" 
			},
			{
				"x": -0.4956697421,
				"y": 1.5372482052,
				"z": 2.6173932093,
				"element": "C" 
			},
			{
				"x": 0.0799890351,
				"y": 2.7889347407,
				"z": 3.0553342116,
				"element": "O" 
			},
			{
				"x": -2.3862551205,
				"y": 2.6090593812,
				"z": 1.3431842248,
				"element": "C" 
			},
			{
				"x": -2.5825726647,
				"y": 3.4454445692,
				"z": 2.4185581995,
				"element": "N" 
			},
			{
				"x": -3.5482384227,
				"y": 4.5249318817,
				"z": 2.4317390145,
				"element": "C" 
			},
			{
				"x": -3.2498743707,
				"y": 2.6803903825,
				"z": 0.1983631209,
				"element": "C" 
			},
			{
				"x": -3.0675156774,
				"y": 1.8491636236,
				"z": -0.8702816135,
				"element": "C" 
			},
			{
				"x": -2.0118911514,
				"y": 0.8928936158,
				"z": -0.8862650265,
				"element": "C" 
			},
			{
				"x": -1.7866162813,
				"y": 0.0323229327,
				"z": -1.9610818473,
				"element": "C" 
			},
			{
				"x": 3.7574196031,
				"y": -5.9845238725,
				"z": -4.6996988273,
				"element": "H" 
			},
			{
				"x": 4.3616331726,
				"y": -5.3760528044,
				"z": -6.2515386669,
				"element": "H" 
			},
			{
				"x": 2.6642427133,
				"y": -5.1183490292,
				"z": -5.8074827741,
				"element": "H" 
			},
			{
				"x": 4.0195885709,
				"y": -3.0150884921,
				"z": -5.4640870549,
				"element": "H" 
			},
			{
				"x": 5.0846671782,
				"y": -3.9021170757,
				"z": -4.3420397302,
				"element": "H" 
			},
			{
				"x": 3.6306924919,
				"y": -4.6072920792,
				"z": -0.1251866252,
				"element": "H" 
			},
			{
				"x": 1.9006548375,
				"y": -4.4022390583,
				"z": 0.3245629003,
				"element": "H" 
			},
			{
				"x": 1.3947731518,
				"y": -2.09090647,
				"z": 1.4546422229,
				"element": "H" 
			},
			{
				"x": 2.444533936,
				"y": -0.8546929596,
				"z": 0.7685277762,
				"element": "H" 
			},
			{
				"x": 0.7840183427,
				"y": -3.3969624534,
				"z": -3.6764585578,
				"element": "H" 
			},
			{
				"x": -1.0903601031,
				"y": -1.8059677346,
				"z": -3.8610460748,
				"element": "H" 
			},
			{
				"x": 0.2817730521,
				"y": 0.7888490579,
				"z": 2.4500580176,
				"element": "H" 
			},
			{
				"x": -1.1084047191,
				"y": 1.2151791425,
				"z": 3.4680208197,
				"element": "H" 
			},
			{
				"x": 0.6226364412,
				"y": 3.1183557938,
				"z": 2.3258581753,
				"element": "H" 
			},
			{
				"x": -1.7552694623,
				"y": 3.5631014811,
				"z": 2.9941367007,
				"element": "H" 
			},
			{
				"x": -3.3813987536,
				"y": 5.273340064,
				"z": 1.6414054885,
				"element": "H" 
			},
			{
				"x": -3.4839004921,
				"y": 5.0324973589,
				"z": 3.3966249927,
				"element": "H" 
			},
			{
				"x": -4.5709116539,
				"y": 4.1449986931,
				"z": 2.327963686,
				"element": "H" 
			},
			{
				"x": -4.0548391914,
				"y": 3.4061662712,
				"z": 0.1835336169,
				"element": "H" 
			},
			{
				"x": -3.7285615369,
				"y": 1.9130788006,
				"z": -1.7310700621,
				"element": "H" 
			},
			{
				"x": -2.4332585679,
				"y": 0.0822302961,
				"z": -2.835349119,
				"element": "H" 
			}
		],
		 "valence_orbital": [ 
			{
				"type": "occ",
				"energy": -0.25021,
				"method": "rhf"
			},
			{
				"type": "occ",
				"energy": -0.24824,
				"method": "rhf"
			},
			{
				"type": "occ",
				"energy": -0.24069,
				"method": "rhf"
			},
			{
				"type": "occ",
				"energy": -0.21094,
				"method": "rhf"
			},
			{
				"type": "occ",
				"energy": -0.18881,
				"method": "rhf"
			},
			{
				"type": "unocc",
				"energy": -0.0688,
				"method": "rhf"
			},
			{
				"type": "unocc",
				"energy": -0.01159,
				"method": "rhf"
			},
			{
				"type": "unocc",
				"energy": 0.00059,
				"method": "rhf"
			},
			{
				"type": "unocc",
				"energy": 0.03052,
				"method": "rhf"
			},
			{
				"type": "unocc",
				"energy": 0.04417,
				"method": "rhf"
			}
		],
		"cosmo_sigma_profile": { 
			"-0.025": 0.0,
			"-0.024": 0.0,
			"-0.023": 0.0,
			"-0.022": 0.0,
			"-0.021": 0.0,
			"-0.02": 0.0,
			"-0.019": 0.0,
			"-0.018": 0.0,
			"-0.017": 0.0,
			"-0.016": 0.114366190964,
			"-0.015": 0.79282034346,
			"-0.014": 1.46933908079,
			"-0.013": 0.331396499946,
			"-0.012": 0.597917130335,
			"-0.011": 1.0441406463,
			"-0.01": 1.03824229948,
			"-0.009": 0.915654691721,
			"-0.008": 1.13110000505,
			"-0.007": 6.27099542319,
			"-0.006": 18.9328886476,
			"-0.005": 25.6145943306,
			"-0.004": 37.1638308813,
			"-0.003": 33.4792931164,
			"-0.002": 35.4379192166,
			"-0.001": 33.3896009267,
			"0.0": 30.7010392591,
			"0.001": 22.9309922409,
			"0.002": 31.8285821091,
			"0.003": 33.0909264351,
			"0.004": 20.9811951328,
			"0.005": 12.9693017431,
			"0.006": 8.90653323306,
			"0.007": 7.93660621598,
			"0.008": 4.95850841187,
			"0.009": 3.57885862227,
			"0.01": 4.401731879,
			"0.011": 4.34260999389,
			"0.012": 6.16171959841,
			"0.013": 2.25481593985,
			"0.014": 0.949075227942,
			"0.015": 0.0123613673146,
			"0.016": 0.0,
			"0.017": 0.0,
			"0.018": 0.0,
			"0.019": 0.0,
			"0.02": 0.0,
			"0.021": 0.0,
			"0.022": 0.0,
			"0.023": 0.0,
			"0.024": 0.0,
			"0.025": 0.0
		}
	}
}
