{
	 "smiles": "CCOC(=O)C1=C(N)N(N=C1SC)C(=O)C1=CC=CC(=C1)[N+]([O-])=O", 
	 "Tm": 426.15, 
	 "num_atms": 38, 
	 "gaussian": { 
		 "optdone": 1, 
		 "sigma_profile": "yes", 
		 "theory": "DFT", 
		 "functional": "B3LYP", 
		 "basiset": "6-31G**", 
		 "properties": { 
			 "R2extent": 11032.3014, 
			 "electric_dipole_moment_norm": 3.26537287457, 
			 "electric_quadrupole_moment_norm": 35.1295727502, 
			 "total_energy": -1535.14423286, 
			 "HOMO_LUMO_gap": 0.11583, 
			 "cosmo_polarized_energy": -22.65, 
			 "cosmo_cavitation_energy": 45.48, 
			 "cosmo_dispersion_energy": -31.9, 
			 "cosmo_repulsion_energy": 2.42, 
			 "cosmo_total_nonelectrostatic_energy": 16.0, 
			 "SMD_solvation_energy": 11.19 
		},
		"coords": [
			{
				"x": 0.1785880853,
				"y": -5.2099666711,
				"z": -0.911976069,
				"element": "C" 
			},
			{
				"x": -0.9961826273,
				"y": -4.5740797079,
				"z": -0.1847008834,
				"element": "C" 
			},
			{
				"x": -0.5782277791,
				"y": -3.4130637658,
				"z": 0.5741402595,
				"element": "O" 
			},
			{
				"x": -0.5220356891,
				"y": -2.2381379789,
				"z": -0.0817988506,
				"element": "C" 
			},
			{
				"x": -0.8116744682,
				"y": -2.110752837,
				"z": -1.2717655242,
				"element": "O" 
			},
			{
				"x": -0.0961943785,
				"y": -1.1384135882,
				"z": 0.7619487295,
				"element": "C" 
			},
			{
				"x": 0.0214055937,
				"y": 0.1671585112,
				"z": 0.2840903259,
				"element": "C" 
			},
			{
				"x": -0.1722341687,
				"y": 0.5846197349,
				"z": -0.9915939001,
				"element": "N" 
			},
			{
				"x": 0.3969446325,
				"y": 0.9504689943,
				"z": 1.3624530817,
				"element": "N" 
			},
			{
				"x": 0.4730642582,
				"y": 0.1924891859,
				"z": 2.5359126023,
				"element": "N" 
			},
			{
				"x": 0.2060357487,
				"y": -1.0398370792,
				"z": 2.1654400307,
				"element": "C" 
			},
			{
				"x": 0.2334625389,
				"y": -2.3719780373,
				"z": 3.3135874435,
				"element": "S" 
			},
			{
				"x": 0.6602074203,
				"y": -1.4561379454,
				"z": 4.8357972052,
				"element": "C" 
			},
			{
				"x": 0.4736847887,
				"y": 2.3605843054,
				"z": 1.4958757209,
				"element": "C" 
			},
			{
				"x": 0.1980594629,
				"y": 2.9054058169,
				"z": 2.5427803104,
				"element": "O" 
			},
			{
				"x": 0.9657089809,
				"y": 3.1455591053,
				"z": 0.3161927945,
				"element": "C" 
			},
			{
				"x": 0.4843512541,
				"y": 4.4559815364,
				"z": 0.163026803,
				"element": "C" 
			},
			{
				"x": 0.9744537754,
				"y": 5.27689256,
				"z": -0.8512185465,
				"element": "C" 
			},
			{
				"x": 1.9743380988,
				"y": 4.8126651934,
				"z": -1.7055533106,
				"element": "C" 
			},
			{
				"x": 2.4602554995,
				"y": 3.5195666309,
				"z": -1.522111904,
				"element": "C" 
			},
			{
				"x": 1.973128587,
				"y": 2.6712911732,
				"z": -0.5321936154,
				"element": "C" 
			},
			{
				"x": 3.5344323147,
				"y": 3.030864618,
				"z": -2.4078385756,
				"element": "N" 
			},
			{
				"x": 3.9232590629,
				"y": 3.7871270343,
				"z": -3.2961139695,
				"element": "O" 
			},
			{
				"x": 3.9700290262,
				"y": 1.9005489529,
				"z": -2.2014173607,
				"element": "O" 
			},
			{
				"x": 0.9780637212,
				"y": -5.4650458253,
				"z": -0.2104919132,
				"element": "H" 
			},
			{
				"x": 0.5751299897,
				"y": -4.5304988152,
				"z": -1.6702727568,
				"element": "H" 
			},
			{
				"x": -0.1484453425,
				"y": -6.1285346894,
				"z": -1.4106906537,
				"element": "H" 
			},
			{
				"x": -1.4159455777,
				"y": -5.2465995444,
				"z": 0.5664963708,
				"element": "H" 
			},
			{
				"x": -1.7799662092,
				"y": -4.2732579126,
				"z": -0.8835009291,
				"element": "H" 
			},
			{
				"x": -0.5679467636,
				"y": -0.1461495204,
				"z": -1.5800751086,
				"element": "H" 
			},
			{
				"x": -0.4141008078,
				"y": 1.5437323864,
				"z": -1.1799897284,
				"element": "H" 
			},
			{
				"x": 1.6347239973,
				"y": -0.9769578015,
				"z": 4.7370913097,
				"element": "H" 
			},
			{
				"x": 0.6872227585,
				"y": -2.2032446067,
				"z": 5.6314963908,
				"element": "H" 
			},
			{
				"x": -0.0948570015,
				"y": -0.7003434693,
				"z": 5.0541963204,
				"element": "H" 
			},
			{
				"x": -0.2675490204,
				"y": 4.8162145532,
				"z": 0.857147323,
				"element": "H" 
			},
			{
				"x": 0.5876834055,
				"y": 6.2835685368,
				"z": -0.9707738579,
				"element": "H" 
			},
			{
				"x": 2.386075839,
				"y": 5.4265315315,
				"z": -2.4969158048,
				"element": "H" 
			},
			{
				"x": 2.3894509936,
				"y": 1.6774294346,
				"z": -0.4316797597,
				"element": "H" 
			}
		],
		 "valence_orbital": [ 
			{
				"type": "occ",
				"energy": -0.29824,
				"method": "rhf"
			},
			{
				"type": "occ",
				"energy": -0.28583,
				"method": "rhf"
			},
			{
				"type": "occ",
				"energy": -0.27822,
				"method": "rhf"
			},
			{
				"type": "occ",
				"energy": -0.23494,
				"method": "rhf"
			},
			{
				"type": "occ",
				"energy": -0.21951,
				"method": "rhf"
			},
			{
				"type": "unocc",
				"energy": -0.10368,
				"method": "rhf"
			},
			{
				"type": "unocc",
				"energy": -0.08108,
				"method": "rhf"
			},
			{
				"type": "unocc",
				"energy": -0.02931,
				"method": "rhf"
			},
			{
				"type": "unocc",
				"energy": -0.01852,
				"method": "rhf"
			},
			{
				"type": "unocc",
				"energy": -0.00174,
				"method": "rhf"
			}
		],
		"cosmo_sigma_profile": { 
			"-0.025": 0.0,
			"-0.024": 0.0,
			"-0.023": 0.0,
			"-0.022": 0.0,
			"-0.021": 0.0,
			"-0.02": 0.0,
			"-0.019": 0.0,
			"-0.018": 0.0,
			"-0.017": 0.0,
			"-0.016": 0.0,
			"-0.015": 0.244246060213,
			"-0.014": 1.13794332384,
			"-0.013": 2.20002046425,
			"-0.012": 1.38711582879,
			"-0.011": 2.55555492367,
			"-0.01": 1.78040672784,
			"-0.009": 2.66431026661,
			"-0.008": 8.46750886884,
			"-0.007": 14.2262487708,
			"-0.006": 16.3107161399,
			"-0.005": 19.8731283087,
			"-0.004": 25.9883175435,
			"-0.003": 28.9893655302,
			"-0.002": 32.2325367824,
			"-0.001": 33.5810184279,
			"0.0": 30.5774777029,
			"0.001": 21.4022029732,
			"0.002": 14.4510797247,
			"0.003": 11.8113621709,
			"0.004": 12.6244428634,
			"0.005": 10.8568100274,
			"0.006": 14.317509267,
			"0.007": 18.0686210538,
			"0.008": 12.5929614122,
			"0.009": 7.8104639258,
			"0.01": 7.78705059664,
			"0.011": 5.07049777254,
			"0.012": 2.42012683966,
			"0.013": 1.56066517869,
			"0.014": 1.27651927958,
			"0.015": 0.799791174115,
			"0.016": 0.243381392997,
			"0.017": 0.0,
			"0.018": 0.0,
			"0.019": 0.0,
			"0.02": 0.0,
			"0.021": 0.0,
			"0.022": 0.0,
			"0.023": 0.0,
			"0.024": 0.0,
			"0.025": 0.0
		}
	}
}
