{
	 "smiles": "ClC1=CC=CC(Cl)=C1I", 
	 "Tm": 338.65, 
	 "num_atms": 12, 
	 "gaussian": { 
		 "optdone": 1, 
		 "sigma_profile": "no", 
		 "theory": "DFT", 
		 "functional": "B3LYP", 
		 "basiset": "6-31G**", 
		 "properties": { 
			 "R2extent": 2411.4352, 
			 "electric_dipole_moment_norm": 2.41901445634, 
			 "electric_quadrupole_moment_norm": 3.58981001726, 
			 "total_energy": -1162.205692, 
			 "HOMO_LUMO_gap": 0.19381, 
			 "cosmo_polarized_energy": -81862.48, 
			 "cosmo_cavitation_energy": 22.61, 
			 "cosmo_dispersion_energy": -18.49, 
			 "cosmo_repulsion_energy": 1.46, 
			 "cosmo_total_nonelectrostatic_energy": 5.58, 
			 "SMD_solvation_energy": 2.6 
		},
		"coords": [
			{
				"x": -0.7072169343,
				"y": 0.6649777326,
				"z": -2.7046486039,
				"element": "Cl" 
			},
			{
				"x": 0.0493528244,
				"y": 0.5950172125,
				"z": -1.1292297282,
				"element": "C" 
			},
			{
				"x": -0.466658053,
				"y": -0.3258768215,
				"z": -0.2154098991,
				"element": "C" 
			},
			{
				"x": 0.0927189869,
				"y": -0.4285470876,
				"z": 1.0540889166,
				"element": "C" 
			},
			{
				"x": 1.1634601746,
				"y": 0.3827779234,
				"z": 1.4151077148,
				"element": "C" 
			},
			{
				"x": 1.6773955106,
				"y": 1.3027358006,
				"z": 0.499183006,
				"element": "C" 
			},
			{
				"x": 3.0236735665,
				"y": 2.2867038863,
				"z": 1.0269819009,
				"element": "Cl" 
			},
			{
				"x": 1.1317435782,
				"y": 1.4285372853,
				"z": -0.7918018489,
				"element": "C" 
			},
			{
				"x": 1.9087706204,
				"y": 2.8171042456,
				"z": -2.1721227786,
				"element": "I" 
			},
			{
				"x": -1.3010015546,
				"y": -0.9508647585,
				"z": -0.5115658542,
				"element": "H" 
			},
			{
				"x": -0.3075574575,
				"y": -1.1440065947,
				"z": 1.7652240023,
				"element": "H" 
			},
			{
				"x": 1.6100187378,
				"y": 0.314641176,
				"z": 2.4001931724,
				"element": "H" 
			}
		],
		 "valence_orbital": [ 
			{
				"type": "occ",
				"energy": -0.33011,
				"method": "rhf"
			},
			{
				"type": "occ",
				"energy": -0.30611,
				"method": "rhf"
			},
			{
				"type": "occ",
				"energy": -0.26502,
				"method": "rhf"
			},
			{
				"type": "occ",
				"energy": -0.25969,
				"method": "rhf"
			},
			{
				"type": "occ",
				"energy": -0.2519,
				"method": "rhf"
			},
			{
				"type": "unocc",
				"energy": -0.05809,
				"method": "rhf"
			},
			{
				"type": "unocc",
				"energy": -0.03758,
				"method": "rhf"
			},
			{
				"type": "unocc",
				"energy": -0.03439,
				"method": "rhf"
			},
			{
				"type": "unocc",
				"energy": 0.01867,
				"method": "rhf"
			},
			{
				"type": "unocc",
				"energy": 0.03512,
				"method": "rhf"
			}
		],
		"cosmo_sigma_profile": { 
			"0.0": 0.0,
			"0.0": 0.0,
			"0.0": 0.0,
			"0.0": 0.0,
			"0.0": 0.0,
			"0.0": 0.0,
			"0.0": 0.0,
			"0.0": 0.0,
			"0.0": 0.0,
			"0.0": 0.0,
			"0.0": 0.0,
			"0.0": 0.0,
			"0.0": 0.0,
			"0.0": 0.0,
			"0.0": 0.0,
			"0.0": 0.0,
			"0.0": 0.0,
			"0.0": 0.0,
			"0.0": 0.0,
			"0.0": 0.0,
			"0.0": 0.0,
			"0.0": 0.0,
			"0.0": 0.0,
			"0.0": 0.0,
			"0.0": 0.0,
			"0.0": 0.0,
			"0.0": 0.0,
			"0.0": 0.0,
			"0.0": 0.0,
			"0.0": 0.0,
			"0.0": 0.0,
			"0.0": 0.0,
			"0.0": 0.0,
			"0.0": 0.0,
			"0.0": 0.0,
			"0.0": 0.0,
			"0.0": 0.0,
			"0.0": 0.0,
			"0.0": 0.0,
			"0.0": 0.0,
			"0.0": 0.0,
			"0.0": 0.0,
			"0.0": 0.0,
			"0.0": 0.0,
			"0.0": 0.0,
			"0.0": 0.0,
			"0.0": 0.0,
			"0.0": 0.0,
			"0.0": 0.0,
			"0.0": 0.0,
			"0.0": 0.0
		}
	}
}
