{
	 "smiles": "OC(=O)C1=CCCCO1", 
	 "Tm": 340.15, 
	 "num_atms": 17, 
	 "gaussian": { 
		 "optdone": 1, 
		 "sigma_profile": "yes", 
		 "theory": "DFT", 
		 "functional": "B3LYP", 
		 "basiset": "6-31G**", 
		 "properties": { 
			 "R2extent": 1561.7927, 
			 "electric_dipole_moment_norm": 2.49114480109, 
			 "electric_quadrupole_moment_norm": 9.30924183433, 
			 "total_energy": -459.122344193, 
			 "HOMO_LUMO_gap": 0.19581, 
			 "cosmo_polarized_energy": -10.69, 
			 "cosmo_cavitation_energy": 20.39, 
			 "cosmo_dispersion_energy": -15.58, 
			 "cosmo_repulsion_energy": 1.31, 
			 "cosmo_total_nonelectrostatic_energy": 6.11, 
			 "SMD_solvation_energy": 4.91 
		},
		"coords": [
			{
				"x": 0.5069566471,
				"y": 1.3061110532,
				"z": 1.8010557449,
				"element": "O" 
			},
			{
				"x": 0.4823485495,
				"y": 1.490300175,
				"z": 0.4635373234,
				"element": "C" 
			},
			{
				"x": 1.3240319901,
				"y": 2.1384992426,
				"z": -0.1274003184,
				"element": "O" 
			},
			{
				"x": -0.6732944502,
				"y": 0.8175596469,
				"z": -0.1953411258,
				"element": "C" 
			},
			{
				"x": -0.8420160059,
				"y": 0.9096085732,
				"z": -1.5258809457,
				"element": "C" 
			},
			{
				"x": -1.9465884483,
				"y": 0.1858589119,
				"z": -2.242503562,
				"element": "C" 
			},
			{
				"x": -2.6052179807,
				"y": -0.8402759339,
				"z": -1.3062499267,
				"element": "C" 
			},
			{
				"x": -2.7579952325,
				"y": -0.2399360895,
				"z": 0.0894733347,
				"element": "C" 
			},
			{
				"x": -1.4922588206,
				"y": 0.1311032888,
				"z": 0.6538119816,
				"element": "O" 
			},
			{
				"x": 1.2979300072,
				"y": 1.7781608628,
				"z": 2.1105641193,
				"element": "H" 
			},
			{
				"x": -0.1276264133,
				"y": 1.5093071057,
				"z": -2.0779622231,
				"element": "H" 
			},
			{
				"x": -2.6911645487,
				"y": 0.9058553734,
				"z": -2.6127497158,
				"element": "H" 
			},
			{
				"x": -1.5474176023,
				"y": -0.3109954182,
				"z": -3.1358126617,
				"element": "H" 
			},
			{
				"x": -1.9805993504,
				"y": -1.7379258875,
				"z": -1.2354086282,
				"element": "H" 
			},
			{
				"x": -3.5850770872,
				"y": -1.1524988408,
				"z": -1.6828972069,
				"element": "H" 
			},
			{
				"x": -3.1927337125,
				"y": -0.9492454849,
				"z": 0.7973324891,
				"element": "H" 
			},
			{
				"x": -3.3986775413,
				"y": 0.6533134212,
				"z": 0.0520313212,
				"element": "H" 
			}
		],
		 "valence_orbital": [ 
			{
				"type": "occ",
				"energy": -0.33065,
				"method": "rhf"
			},
			{
				"type": "occ",
				"energy": -0.31984,
				"method": "rhf"
			},
			{
				"type": "occ",
				"energy": -0.31234,
				"method": "rhf"
			},
			{
				"type": "occ",
				"energy": -0.27304,
				"method": "rhf"
			},
			{
				"type": "occ",
				"energy": -0.22727,
				"method": "rhf"
			},
			{
				"type": "unocc",
				"energy": -0.03146,
				"method": "rhf"
			},
			{
				"type": "unocc",
				"energy": 0.0788,
				"method": "rhf"
			},
			{
				"type": "unocc",
				"energy": 0.08829,
				"method": "rhf"
			},
			{
				"type": "unocc",
				"energy": 0.10206,
				"method": "rhf"
			},
			{
				"type": "unocc",
				"energy": 0.12217,
				"method": "rhf"
			}
		],
		"cosmo_sigma_profile": { 
			"-0.025": 0.0,
			"-0.024": 0.0,
			"-0.023": 0.0,
			"-0.022": 0.0,
			"-0.021": 0.0,
			"-0.02": 0.0,
			"-0.019": 0.0395295387783,
			"-0.018": 0.893816198403,
			"-0.017": 0.892596207328,
			"-0.016": 0.755930957552,
			"-0.015": 1.07043828001,
			"-0.014": 0.671883422224,
			"-0.013": 0.444674556094,
			"-0.012": 0.519112606847,
			"-0.011": 0.831568743591,
			"-0.01": 0.76126837659,
			"-0.009": 0.360195561506,
			"-0.008": 0.706878241689,
			"-0.007": 0.901197592685,
			"-0.006": 2.77107813119,
			"-0.005": 8.95712994325,
			"-0.004": 20.3705273203,
			"-0.003": 20.9656515409,
			"-0.002": 18.3466956692,
			"-0.001": 14.3413335012,
			"0.0": 7.63675306011,
			"0.001": 6.84169722267,
			"0.002": 6.82578674218,
			"0.003": 6.48396521154,
			"0.004": 3.90834109631,
			"0.005": 2.94446309126,
			"0.006": 3.66748649968,
			"0.007": 3.95474604878,
			"0.008": 3.02358775898,
			"0.009": 2.79838538425,
			"0.01": 3.81596524739,
			"0.011": 5.59796573985,
			"0.012": 6.38071585674,
			"0.013": 1.51049573813,
			"0.014": 0.400702385627,
			"0.015": 0.0,
			"0.016": 0.0,
			"0.017": 0.0,
			"0.018": 0.0,
			"0.019": 0.0,
			"0.02": 0.0,
			"0.021": 0.0,
			"0.022": 0.0,
			"0.023": 0.0,
			"0.024": 0.0,
			"0.025": 0.0
		}
	}
}
