{
	 "smiles": "CC1=CC=C(N)N=C1", 
	 "Tm": 349.35, 
	 "num_atms": 16, 
	 "gaussian": { 
		 "optdone": 1, 
		 "sigma_profile": "yes", 
		 "theory": "DFT", 
		 "functional": "B3LYP", 
		 "basiset": "6-31G**", 
		 "properties": { 
			 "R2extent": 1398.8329, 
			 "electric_dipole_moment_norm": 1.91947504282, 
			 "electric_quadrupole_moment_norm": 7.7486103154, 
			 "total_energy": -342.974116729, 
			 "HOMO_LUMO_gap": 0.19424, 
			 "cosmo_polarized_energy": -8.81, 
			 "cosmo_cavitation_energy": 19.5, 
			 "cosmo_dispersion_energy": -14.73, 
			 "cosmo_repulsion_energy": 1.23, 
			 "cosmo_total_nonelectrostatic_energy": 6.0, 
			 "SMD_solvation_energy": 2.11 
		},
		"coords": [
			{
				"x": 1.2985391811,
				"y": 0.1439828798,
				"z": -2.5759769675,
				"element": "C" 
			},
			{
				"x": 0.2354123782,
				"y": -0.4171195757,
				"z": -1.6650291765,
				"element": "C" 
			},
			{
				"x": -0.9812657099,
				"y": -0.9202354463,
				"z": -2.1552919078,
				"element": "C" 
			},
			{
				"x": -1.9339112239,
				"y": -1.4245236427,
				"z": -1.2851381318,
				"element": "C" 
			},
			{
				"x": -1.6482281129,
				"y": -1.4253280287,
				"z": 0.0962349419,
				"element": "C" 
			},
			{
				"x": -2.577331896,
				"y": -1.8687424351,
				"z": 1.0251579694,
				"element": "N" 
			},
			{
				"x": -0.4925822227,
				"y": -0.9584362009,
				"z": 0.5861482603,
				"element": "N" 
			},
			{
				"x": 0.4036175542,
				"y": -0.4697282267,
				"z": -0.2807960533,
				"element": "C" 
			},
			{
				"x": 1.6441998164,
				"y": -0.6000571831,
				"z": -3.3036238891,
				"element": "H" 
			},
			{
				"x": 0.930486545,
				"y": 1.0050062945,
				"z": -3.1467033068,
				"element": "H" 
			},
			{
				"x": 2.1705052793,
				"y": 0.4761479744,
				"z": -2.0047752559,
				"element": "H" 
			},
			{
				"x": -1.1802830874,
				"y": -0.9125729916,
				"z": -3.2248403483,
				"element": "H" 
			},
			{
				"x": -2.8828950284,
				"y": -1.8053468516,
				"z": -1.651712159,
				"element": "H" 
			},
			{
				"x": -3.2292450349,
				"y": -2.5744428857,
				"z": 0.7154968831,
				"element": "H" 
			},
			{
				"x": -2.1791899446,
				"y": -2.0415375297,
				"z": 1.9380761783,
				"element": "H" 
			},
			{
				"x": 1.3277715064,
				"y": -0.0977661508,
				"z": 0.1625729629,
				"element": "H" 
			}
		],
		 "valence_orbital": [ 
			{
				"type": "occ",
				"energy": -0.35573,
				"method": "rhf"
			},
			{
				"type": "occ",
				"energy": -0.30265,
				"method": "rhf"
			},
			{
				"type": "occ",
				"energy": -0.27071,
				"method": "rhf"
			},
			{
				"type": "occ",
				"energy": -0.24778,
				"method": "rhf"
			},
			{
				"type": "occ",
				"energy": -0.20408,
				"method": "rhf"
			},
			{
				"type": "unocc",
				"energy": -0.00984,
				"method": "rhf"
			},
			{
				"type": "unocc",
				"energy": 0.01716,
				"method": "rhf"
			},
			{
				"type": "unocc",
				"energy": 0.09069,
				"method": "rhf"
			},
			{
				"type": "unocc",
				"energy": 0.10847,
				"method": "rhf"
			},
			{
				"type": "unocc",
				"energy": 0.12375,
				"method": "rhf"
			}
		],
		"cosmo_sigma_profile": { 
			"-0.025": 0.0,
			"-0.024": 0.0,
			"-0.023": 0.0,
			"-0.022": 0.0,
			"-0.021": 0.0,
			"-0.02": 0.0,
			"-0.019": 0.0,
			"-0.018": 0.0,
			"-0.017": 0.0,
			"-0.016": 0.0,
			"-0.015": 0.0,
			"-0.014": 0.0,
			"-0.013": 0.636589846228,
			"-0.012": 2.15822440722,
			"-0.011": 2.0740442989,
			"-0.01": 2.70335953504,
			"-0.009": 2.5145738709,
			"-0.008": 2.91693565667,
			"-0.007": 2.40523143207,
			"-0.006": 4.94156804323,
			"-0.005": 7.23731475073,
			"-0.004": 12.5787504659,
			"-0.003": 11.6719302212,
			"-0.002": 13.3010830638,
			"-0.001": 10.8764304285,
			"0.0": 13.1273613326,
			"0.001": 9.11897846408,
			"0.002": 7.24587175257,
			"0.003": 8.14524819812,
			"0.004": 13.1225470583,
			"0.005": 7.96330586411,
			"0.006": 2.7039353319,
			"0.007": 2.96840567301,
			"0.008": 1.84664351291,
			"0.009": 1.82329114651,
			"0.01": 2.58116615651,
			"0.011": 1.72237406262,
			"0.012": 1.4896363701,
			"0.013": 1.7514225268,
			"0.014": 0.980907456868,
			"0.015": 0.80081101543,
			"0.016": 0.714742572505,
			"0.017": 0.116781812671,
			"0.018": 0.0,
			"0.019": 0.0,
			"0.02": 0.0,
			"0.021": 0.0,
			"0.022": 0.0,
			"0.023": 0.0,
			"0.024": 0.0,
			"0.025": 0.0
		}
	}
}
