{
	 "smiles": "FC(F)(F)COC(=O)NC1=C(Cl)C=CC=C1", 
	 "Tm": 318.15, 
	 "num_atms": 23, 
	 "gaussian": { 
		 "optdone": 1, 
		 "sigma_profile": "yes", 
		 "theory": "DFT", 
		 "functional": "B3LYP", 
		 "basiset": "6-31G**", 
		 "properties": { 
			 "R2extent": 5325.6009, 
			 "electric_dipole_moment_norm": 2.586983763, 
			 "electric_quadrupole_moment_norm": 7.76674305678, 
			 "total_energy": -1312.11368899, 
			 "HOMO_LUMO_gap": 0.21227, 
			 "cosmo_polarized_energy": -8.94, 
			 "cosmo_cavitation_energy": 31.16, 
			 "cosmo_dispersion_energy": -21.92, 
			 "cosmo_repulsion_energy": 1.65, 
			 "cosmo_total_nonelectrostatic_energy": 10.9, 
			 "SMD_solvation_energy": 7.27 
		},
		"coords": [
			{
				"x": -0.1885070447,
				"y": 1.4009974411,
				"z": 4.4115951745,
				"element": "F" 
			},
			{
				"x": -0.3303669262,
				"y": 0.7076557593,
				"z": 3.2649455902,
				"element": "C" 
			},
			{
				"x": -1.2413573375,
				"y": 1.3476240405,
				"z": 2.5003217224,
				"element": "F" 
			},
			{
				"x": -0.8293628995,
				"y": -0.5059912692,
				"z": 3.5596332947,
				"element": "F" 
			},
			{
				"x": 1.0103430316,
				"y": 0.6031354099,
				"z": 2.559079101,
				"element": "C" 
			},
			{
				"x": 0.822749602,
				"y": -0.0660916094,
				"z": 1.3177141754,
				"element": "O" 
			},
			{
				"x": 1.2546820656,
				"y": -1.3599974477,
				"z": 1.2590731662,
				"element": "C" 
			},
			{
				"x": 1.9150799856,
				"y": -1.9042321707,
				"z": 2.1196813036,
				"element": "O" 
			},
			{
				"x": 0.8858084249,
				"y": -1.9788213874,
				"z": 0.0926036919,
				"element": "N" 
			},
			{
				"x": 0.1091482501,
				"y": -1.554041698,
				"z": -1.001597607,
				"element": "C" 
			},
			{
				"x": 0.2573978169,
				"y": -2.2288973106,
				"z": -2.229766338,
				"element": "C" 
			},
			{
				"x": 1.4244617157,
				"y": -3.544374209,
				"z": -2.3728169734,
				"element": "Cl" 
			},
			{
				"x": -0.5021733723,
				"y": -1.8942592334,
				"z": -3.3470343639,
				"element": "C" 
			},
			{
				"x": -1.4346008572,
				"y": -0.8623964469,
				"z": -3.2642871308,
				"element": "C" 
			},
			{
				"x": -1.6017586849,
				"y": -0.1878037391,
				"z": -2.0549995349,
				"element": "C" 
			},
			{
				"x": -0.850509768,
				"y": -0.5299763132,
				"z": -0.9336278457,
				"element": "C" 
			},
			{
				"x": 1.3787290188,
				"y": 1.60846997,
				"z": 2.3463851864,
				"element": "H" 
			},
			{
				"x": 1.7146736363,
				"y": 0.0587895627,
				"z": 3.1900123789,
				"element": "H" 
			},
			{
				"x": 1.3261258717,
				"y": -2.8846542343,
				"z": -0.0023353513,
				"element": "H" 
			},
			{
				"x": -0.3528240389,
				"y": -2.4420112389,
				"z": -4.2708029414,
				"element": "H" 
			},
			{
				"x": -2.0242073695,
				"y": -0.5955038596,
				"z": -4.1352801792,
				"element": "H" 
			},
			{
				"x": -2.3328344648,
				"y": 0.6105357957,
				"z": -1.9727468083,
				"element": "H" 
			},
			{
				"x": -1.0014966557,
				"y": -0.0054558119,
				"z": -0.0010497113,
				"element": "H" 
			}
		],
		 "valence_orbital": [ 
			{
				"type": "occ",
				"energy": -0.32898,
				"method": "rhf"
			},
			{
				"type": "occ",
				"energy": -0.31713,
				"method": "rhf"
			},
			{
				"type": "occ",
				"energy": -0.2989,
				"method": "rhf"
			},
			{
				"type": "occ",
				"energy": -0.25984,
				"method": "rhf"
			},
			{
				"type": "occ",
				"energy": -0.23566,
				"method": "rhf"
			},
			{
				"type": "unocc",
				"energy": -0.02339,
				"method": "rhf"
			},
			{
				"type": "unocc",
				"energy": -0.01984,
				"method": "rhf"
			},
			{
				"type": "unocc",
				"energy": 0.01585,
				"method": "rhf"
			},
			{
				"type": "unocc",
				"energy": 0.04372,
				"method": "rhf"
			},
			{
				"type": "unocc",
				"energy": 0.0754,
				"method": "rhf"
			}
		],
		"cosmo_sigma_profile": { 
			"-0.025": 0.0,
			"-0.024": 0.0,
			"-0.023": 0.0,
			"-0.022": 0.0,
			"-0.021": 0.0,
			"-0.02": 0.0,
			"-0.019": 0.0,
			"-0.018": 0.0,
			"-0.017": 0.0,
			"-0.016": 0.0,
			"-0.015": 0.0,
			"-0.014": 0.0,
			"-0.013": 0.102023880249,
			"-0.012": 0.684254153939,
			"-0.011": 0.385754336347,
			"-0.01": 2.09513125873,
			"-0.009": 4.32971496836,
			"-0.008": 4.66442905109,
			"-0.007": 8.22987917664,
			"-0.006": 12.1430732938,
			"-0.005": 10.2054165755,
			"-0.004": 11.5928623764,
			"-0.003": 14.2301954612,
			"-0.002": 15.8980225593,
			"-0.001": 18.211370386,
			"0.0": 18.4247841712,
			"0.001": 24.3892876007,
			"0.002": 40.2100738782,
			"0.003": 31.2728314431,
			"0.004": 16.8977396487,
			"0.005": 4.13546591918,
			"0.006": 1.86614692604,
			"0.007": 0.776025814631,
			"0.008": 1.36274518773,
			"0.009": 1.5327027725,
			"0.01": 1.693769153,
			"0.011": 3.75608049642,
			"0.012": 3.24193123192,
			"0.013": 0.170813030051,
			"0.014": 0.0,
			"0.015": 0.0,
			"0.016": 0.0,
			"0.017": 0.0,
			"0.018": 0.0,
			"0.019": 0.0,
			"0.02": 0.0,
			"0.021": 0.0,
			"0.022": 0.0,
			"0.023": 0.0,
			"0.024": 0.0,
			"0.025": 0.0
		}
	}
}
