{
	 "smiles": "CC(C)(C)OC(=O)N1CCC2=C(C=CC=C2)C1C(O)=O", 
	 "Tm": 416.15, 
	 "num_atms": 39, 
	 "gaussian": { 
		 "optdone": 1, 
		 "sigma_profile": "yes", 
		 "theory": "DFT", 
		 "functional": "B3LYP", 
		 "basiset": "6-31G**", 
		 "properties": { 
			 "R2extent": 7158.811, 
			 "electric_dipole_moment_norm": 3.7254539012, 
			 "electric_quadrupole_moment_norm": 9.35866807617, 
			 "total_energy": -938.75024523, 
			 "HOMO_LUMO_gap": 0.21826, 
			 "cosmo_polarized_energy": -14.98, 
			 "cosmo_cavitation_energy": 40.6, 
			 "cosmo_dispersion_energy": -27.76, 
			 "cosmo_repulsion_energy": 2.15, 
			 "cosmo_total_nonelectrostatic_energy": 14.98, 
			 "SMD_solvation_energy": 8.13 
		},
		"coords": [
			{
				"x": 3.4572680764,
				"y": 0.7078595714,
				"z": 0.0945013305,
				"element": "C" 
			},
			{
				"x": 3.1597716047,
				"y": -0.7431315614,
				"z": -0.2978971319,
				"element": "C" 
			},
			{
				"x": 4.0762614782,
				"y": -1.1963630514,
				"z": -1.4373752442,
				"element": "C" 
			},
			{
				"x": 3.2590708116,
				"y": -1.7009961675,
				"z": 0.89387638,
				"element": "C" 
			},
			{
				"x": 1.8229421455,
				"y": -0.8336980879,
				"z": -0.9106501715,
				"element": "O" 
			},
			{
				"x": 0.7140330203,
				"y": -0.5282778151,
				"z": -0.1998050599,
				"element": "C" 
			},
			{
				"x": 0.6902521847,
				"y": -0.1237334145,
				"z": 0.9562732882,
				"element": "O" 
			},
			{
				"x": -0.4282852461,
				"y": -0.7200741059,
				"z": -0.9344569467,
				"element": "N" 
			},
			{
				"x": -0.4262119161,
				"y": -1.2276609788,
				"z": -2.3093644183,
				"element": "C" 
			},
			{
				"x": -1.6917281318,
				"y": -2.0453567945,
				"z": -2.5784609666,
				"element": "C" 
			},
			{
				"x": -2.9152529374,
				"y": -1.2126710987,
				"z": -2.28860594,
				"element": "C" 
			},
			{
				"x": -2.8804374467,
				"y": -0.351662496,
				"z": -1.1818386827,
				"element": "C" 
			},
			{
				"x": -3.9888513177,
				"y": 0.4473511764,
				"z": -0.8803251882,
				"element": "C" 
			},
			{
				"x": -5.1300142065,
				"y": 0.3978995743,
				"z": -1.6789528173,
				"element": "C" 
			},
			{
				"x": -5.1654542755,
				"y": -0.4494486252,
				"z": -2.7887534911,
				"element": "C" 
			},
			{
				"x": -4.0606872637,
				"y": -1.2447908882,
				"z": -3.0909726593,
				"element": "C" 
			},
			{
				"x": -1.6658641633,
				"y": -0.32123161,
				"z": -0.2645528891,
				"element": "C" 
			},
			{
				"x": -1.9814270701,
				"y": -1.1849361897,
				"z": 0.9697986581,
				"element": "C" 
			},
			{
				"x": -1.5516305955,
				"y": -2.4614454542,
				"z": 0.8495841732,
				"element": "O" 
			},
			{
				"x": -2.6128211302,
				"y": -0.7842073879,
				"z": 1.9193207368,
				"element": "O" 
			},
			{
				"x": 2.7900240612,
				"y": 1.0415108496,
				"z": 0.8892320935,
				"element": "H" 
			},
			{
				"x": 3.337748749,
				"y": 1.3672374872,
				"z": -0.7710976092,
				"element": "H" 
			},
			{
				"x": 4.4923078168,
				"y": 0.7886993521,
				"z": 0.4422994778,
				"element": "H" 
			},
			{
				"x": 5.1205264323,
				"y": -1.1682933825,
				"z": -1.1124774798,
				"element": "H" 
			},
			{
				"x": 3.8369180417,
				"y": -2.2190660655,
				"z": -1.7435379599,
				"element": "H" 
			},
			{
				"x": 3.966068971,
				"y": -0.5406817924,
				"z": -2.3060244458,
				"element": "H" 
			},
			{
				"x": 2.9969536201,
				"y": -2.7183908449,
				"z": 0.5863341216,
				"element": "H" 
			},
			{
				"x": 4.2878795855,
				"y": -1.7139495297,
				"z": 1.268244639,
				"element": "H" 
			},
			{
				"x": 2.5936963007,
				"y": -1.392024854,
				"z": 1.7000875718,
				"element": "H" 
			},
			{
				"x": -0.3669071821,
				"y": -0.3964422757,
				"z": -3.0264528922,
				"element": "H" 
			},
			{
				"x": 0.465539535,
				"y": -1.8399087969,
				"z": -2.4383653168,
				"element": "H" 
			},
			{
				"x": -1.678609042,
				"y": -2.9385143666,
				"z": -1.9407445005,
				"element": "H" 
			},
			{
				"x": -1.6918287611,
				"y": -2.3851900369,
				"z": -3.6194101432,
				"element": "H" 
			},
			{
				"x": -3.9560733508,
				"y": 1.0975417566,
				"z": -0.0109937636,
				"element": "H" 
			},
			{
				"x": -5.9855873911,
				"y": 1.0221329366,
				"z": -1.4391066779,
				"element": "H" 
			},
			{
				"x": -6.0486107807,
				"y": -0.4857873428,
				"z": -3.4201050347,
				"element": "H" 
			},
			{
				"x": -4.0830917615,
				"y": -1.9002309068,
				"z": -3.958247352,
				"element": "H" 
			},
			{
				"x": -1.5458583434,
				"y": 0.686254536,
				"z": 0.1437361734,
				"element": "H" 
			},
			{
				"x": -1.8309301215,
				"y": -2.9098213186,
				"z": 1.6655861383,
				"element": "H" 
			}
		],
		 "valence_orbital": [ 
			{
				"type": "occ",
				"energy": -0.28003,
				"method": "rhf"
			},
			{
				"type": "occ",
				"energy": -0.2623,
				"method": "rhf"
			},
			{
				"type": "occ",
				"energy": -0.2536,
				"method": "rhf"
			},
			{
				"type": "occ",
				"energy": -0.24565,
				"method": "rhf"
			},
			{
				"type": "occ",
				"energy": -0.23458,
				"method": "rhf"
			},
			{
				"type": "unocc",
				"energy": -0.01632,
				"method": "rhf"
			},
			{
				"type": "unocc",
				"energy": -0.00495,
				"method": "rhf"
			},
			{
				"type": "unocc",
				"energy": 0.0283,
				"method": "rhf"
			},
			{
				"type": "unocc",
				"energy": 0.05248,
				"method": "rhf"
			},
			{
				"type": "unocc",
				"energy": 0.07517,
				"method": "rhf"
			}
		],
		"cosmo_sigma_profile": { 
			"-0.025": 0.0,
			"-0.024": 0.0,
			"-0.023": 0.0,
			"-0.022": 0.0,
			"-0.021": 0.0,
			"-0.02": 0.0,
			"-0.019": 0.109450371591,
			"-0.018": 0.941618138423,
			"-0.017": 0.75594539547,
			"-0.016": 0.981202426969,
			"-0.015": 0.619339396457,
			"-0.014": 1.22108459399,
			"-0.013": 0.23489279416,
			"-0.012": 0.823834656567,
			"-0.011": 0.758678780906,
			"-0.01": 0.597711514396,
			"-0.009": 0.559190968116,
			"-0.008": 0.416209659564,
			"-0.007": 1.60745889939,
			"-0.006": 8.04079683686,
			"-0.005": 16.9190247752,
			"-0.004": 30.3483094899,
			"-0.003": 33.9042894804,
			"-0.002": 29.5162253287,
			"-0.001": 31.4789042672,
			"0.0": 34.4757455326,
			"0.001": 26.6216162013,
			"0.002": 15.355255202,
			"0.003": 14.7223855586,
			"0.004": 15.9559873278,
			"0.005": 15.2825732869,
			"0.006": 7.18256617071,
			"0.007": 4.54888271697,
			"0.008": 4.3954632703,
			"0.009": 3.35739301949,
			"0.01": 3.84443177081,
			"0.011": 5.77124236142,
			"0.012": 5.46215811818,
			"0.013": 1.61928065166,
			"0.014": 0.0,
			"0.015": 0.0,
			"0.016": 0.0,
			"0.017": 0.0,
			"0.018": 0.0,
			"0.019": 0.0,
			"0.02": 0.0,
			"0.021": 0.0,
			"0.022": 0.0,
			"0.023": 0.0,
			"0.024": 0.0,
			"0.025": 0.0
		}
	}
}
