{
	 "smiles": "CC1=CC(C(O)=O)=C(Br)S1", 
	 "Tm": 455.15, 
	 "num_atms": 15, 
	 "gaussian": { 
		 "optdone": 1, 
		 "sigma_profile": "yes", 
		 "theory": "DFT", 
		 "functional": "B3LYP", 
		 "basiset": "6-31G**", 
		 "properties": { 
			 "R2extent": 4284.7994, 
			 "electric_dipole_moment_norm": 5.64260174565, 
			 "electric_quadrupole_moment_norm": 22.6064227838, 
			 "total_energy": -3351.67792188, 
			 "HOMO_LUMO_gap": 0.1865, 
			 "cosmo_polarized_energy": -14.49, 
			 "cosmo_cavitation_energy": 23.54, 
			 "cosmo_dispersion_energy": -18.24, 
			 "cosmo_repulsion_energy": 1.44, 
			 "cosmo_total_nonelectrostatic_energy": 6.75, 
			 "SMD_solvation_energy": 3.93 
		},
		"coords": [
			{
				"x": 1.123858577,
				"y": -1.2605219319,
				"z": 0.8097552086,
				"element": "C" 
			},
			{
				"x": 0.2723591203,
				"y": -0.045952362,
				"z": 0.5940551523,
				"element": "C" 
			},
			{
				"x": 0.6656430656,
				"y": 1.2392041107,
				"z": 0.3521303047,
				"element": "C" 
			},
			{
				"x": -0.4135150807,
				"y": 2.1831509559,
				"z": 0.2224645342,
				"element": "C" 
			},
			{
				"x": -0.2247683394,
				"y": 3.6403588786,
				"z": -0.0320086389,
				"element": "C" 
			},
			{
				"x": 0.9260270957,
				"y": 3.9656098362,
				"z": -0.6885158434,
				"element": "O" 
			},
			{
				"x": -0.9927426358,
				"y": 4.5053263112,
				"z": 0.308601071,
				"element": "O" 
			},
			{
				"x": -1.6342478277,
				"y": 1.568578753,
				"z": 0.3814769549,
				"element": "C" 
			},
			{
				"x": -3.3513203264,
				"y": 2.318611729,
				"z": 0.2857720482,
				"element": "Br" 
			},
			{
				"x": -1.4743729826,
				"y": -0.1380990114,
				"z": 0.6624115837,
				"element": "S" 
			},
			{
				"x": 0.9126602085,
				"y": -2.0427152708,
				"z": 0.0722675832,
				"element": "H" 
			},
			{
				"x": 2.1795376711,
				"y": -0.990413015,
				"z": 0.7200549464,
				"element": "H" 
			},
			{
				"x": 0.9710263016,
				"y": -1.6941646164,
				"z": 1.804146301,
				"element": "H" 
			},
			{
				"x": 1.7132947894,
				"y": 1.5228299107,
				"z": 0.3202482497,
				"element": "H" 
			},
			{
				"x": 1.3441603634,
				"y": 3.1683957223,
				"z": -1.0425594557,
				"element": "H" 
			}
		],
		 "valence_orbital": [ 
			{
				"type": "occ",
				"energy": -0.31868,
				"method": "rhf"
			},
			{
				"type": "occ",
				"energy": -0.30225,
				"method": "rhf"
			},
			{
				"type": "occ",
				"energy": -0.27907,
				"method": "rhf"
			},
			{
				"type": "occ",
				"energy": -0.26848,
				"method": "rhf"
			},
			{
				"type": "occ",
				"energy": -0.24041,
				"method": "rhf"
			},
			{
				"type": "unocc",
				"energy": -0.05391,
				"method": "rhf"
			},
			{
				"type": "unocc",
				"energy": -0.01103,
				"method": "rhf"
			},
			{
				"type": "unocc",
				"energy": -0.00635,
				"method": "rhf"
			},
			{
				"type": "unocc",
				"energy": 0.00552,
				"method": "rhf"
			},
			{
				"type": "unocc",
				"energy": 0.06262,
				"method": "rhf"
			}
		],
		"cosmo_sigma_profile": { 
			"-0.025": 0.0,
			"-0.024": 0.0,
			"-0.023": 0.0,
			"-0.022": 0.0,
			"-0.021": 0.0,
			"-0.02": 0.0,
			"-0.019": 0.0780590510416,
			"-0.018": 0.785802902769,
			"-0.017": 0.944344207738,
			"-0.016": 1.22628333912,
			"-0.015": 0.963622035754,
			"-0.014": 0.573177012786,
			"-0.013": 1.17611194748,
			"-0.012": 1.51528655089,
			"-0.011": 0.967947036851,
			"-0.01": 1.39647129515,
			"-0.009": 1.40335206529,
			"-0.008": 1.59876791522,
			"-0.007": 2.83401378951,
			"-0.006": 7.8042536216,
			"-0.005": 11.7672405027,
			"-0.004": 12.8322609843,
			"-0.003": 11.2893471744,
			"-0.002": 13.4987184273,
			"-0.001": 17.7499370438,
			"0.0": 16.5589474947,
			"0.001": 19.5427999961,
			"0.002": 16.6546371342,
			"0.003": 14.2226062356,
			"0.004": 4.40106970828,
			"0.005": 2.52803160903,
			"0.006": 2.76992215438,
			"0.007": 3.07620456636,
			"0.008": 3.06599471806,
			"0.009": 3.7901499448,
			"0.01": 5.46208587781,
			"0.011": 5.39992079188,
			"0.012": 4.90193107975,
			"0.013": 1.0321905514,
			"0.014": 0.0,
			"0.015": 0.0,
			"0.016": 0.0,
			"0.017": 0.0,
			"0.018": 0.0,
			"0.019": 0.0,
			"0.02": 0.0,
			"0.021": 0.0,
			"0.022": 0.0,
			"0.023": 0.0,
			"0.024": 0.0,
			"0.025": 0.0
		}
	}
}
