{
	 "smiles": "CN1C(=O)NC2=C1C=CC(=C2)C(O)=O", 
	 "Tm": 665.15, 
	 "num_atms": 22, 
	 "gaussian": { 
		 "optdone": 1, 
		 "sigma_profile": "yes", 
		 "theory": "DFT", 
		 "functional": "B3LYP", 
		 "basiset": "6-31G**", 
		 "properties": { 
			 "R2extent": 3510.4133, 
			 "electric_dipole_moment_norm": 2.55501984924, 
			 "electric_quadrupole_moment_norm": 12.7905250268, 
			 "total_energy": -683.011579617, 
			 "HOMO_LUMO_gap": 0.17438, 
			 "cosmo_polarized_energy": -16.98, 
			 "cosmo_cavitation_energy": 26.91, 
			 "cosmo_dispersion_energy": -20.02, 
			 "cosmo_repulsion_energy": 1.56, 
			 "cosmo_total_nonelectrostatic_energy": 8.44, 
			 "SMD_solvation_energy": 6.51 
		},
		"coords": [
			{
				"x": 3.816683912,
				"y": -1.6354007109,
				"z": -1.2221606751,
				"element": "C" 
			},
			{
				"x": 2.8492008696,
				"y": -0.7446673875,
				"z": -0.6154800791,
				"element": "N" 
			},
			{
				"x": 3.146531441,
				"y": 0.5936180206,
				"z": -0.3090544522,
				"element": "C" 
			},
			{
				"x": 4.2015082412,
				"y": 1.1722782265,
				"z": -0.4964798269,
				"element": "O" 
			},
			{
				"x": 1.9764932639,
				"y": 1.0998320613,
				"z": 0.2498402374,
				"element": "N" 
			},
			{
				"x": 0.9819165857,
				"y": 0.1302076806,
				"z": 0.2968772616,
				"element": "C" 
			},
			{
				"x": 1.5465946228,
				"y": -1.0436187496,
				"z": -0.2569930371,
				"element": "C" 
			},
			{
				"x": 0.8065819277,
				"y": -2.2178194751,
				"z": -0.3603230181,
				"element": "C" 
			},
			{
				"x": -0.5122122764,
				"y": -2.1987979867,
				"z": 0.1009417261,
				"element": "C" 
			},
			{
				"x": -1.0726006194,
				"y": -1.0343035395,
				"z": 0.6503923388,
				"element": "C" 
			},
			{
				"x": -0.3211086907,
				"y": 0.1530255412,
				"z": 0.7538381944,
				"element": "C" 
			},
			{
				"x": -2.4684248204,
				"y": -0.9929227056,
				"z": 1.1449931404,
				"element": "C" 
			},
			{
				"x": -3.1232647998,
				"y": -2.1755847439,
				"z": 1.0094955266,
				"element": "O" 
			},
			{
				"x": -3.0071677371,
				"y": -0.0151164681,
				"z": 1.629996177,
				"element": "O" 
			},
			{
				"x": 3.4603145181,
				"y": -1.9978397523,
				"z": -2.1921821625,
				"element": "H" 
			},
			{
				"x": 4.7345509965,
				"y": -1.0635255905,
				"z": -1.3647463882,
				"element": "H" 
			},
			{
				"x": 4.0204308244,
				"y": -2.492926136,
				"z": -0.5722041019,
				"element": "H" 
			},
			{
				"x": 1.9108279337,
				"y": 2.0543583312,
				"z": 0.5644290198,
				"element": "H" 
			},
			{
				"x": 1.2364512301,
				"y": -3.1189813553,
				"z": -0.784222373,
				"element": "H" 
			},
			{
				"x": -1.1176569916,
				"y": -3.094789945,
				"z": 0.0361623822,
				"element": "H" 
			},
			{
				"x": -0.7797799205,
				"y": 1.0369522995,
				"z": 1.1824420317,
				"element": "H" 
			},
			{
				"x": -4.0137705107,
				"y": -2.0207776149,
				"z": 1.364338078,
				"element": "H" 
			}
		],
		 "valence_orbital": [ 
			{
				"type": "occ",
				"energy": -0.30696,
				"method": "rhf"
			},
			{
				"type": "occ",
				"energy": -0.27941,
				"method": "rhf"
			},
			{
				"type": "occ",
				"energy": -0.27433,
				"method": "rhf"
			},
			{
				"type": "occ",
				"energy": -0.24784,
				"method": "rhf"
			},
			{
				"type": "occ",
				"energy": -0.21813,
				"method": "rhf"
			},
			{
				"type": "unocc",
				"energy": -0.04375,
				"method": "rhf"
			},
			{
				"type": "unocc",
				"energy": -0.01129,
				"method": "rhf"
			},
			{
				"type": "unocc",
				"energy": 0.05937,
				"method": "rhf"
			},
			{
				"type": "unocc",
				"energy": 0.06537,
				"method": "rhf"
			},
			{
				"type": "unocc",
				"energy": 0.07725,
				"method": "rhf"
			}
		],
		"cosmo_sigma_profile": { 
			"-0.025": 0.0,
			"-0.024": 0.0,
			"-0.023": 0.0,
			"-0.022": 0.0,
			"-0.021": 0.0,
			"-0.02": 0.0,
			"-0.019": 0.0837620913485,
			"-0.018": 0.642452923601,
			"-0.017": 0.997065283089,
			"-0.016": 2.7027828076,
			"-0.015": 1.84204020852,
			"-0.014": 1.85276291192,
			"-0.013": 1.16134108965,
			"-0.012": 0.894897113193,
			"-0.011": 2.87109034343,
			"-0.01": 2.04303358693,
			"-0.009": 1.49324931762,
			"-0.008": 1.90997072292,
			"-0.007": 4.46084539877,
			"-0.006": 12.5388590569,
			"-0.005": 13.7334469232,
			"-0.004": 11.8058237057,
			"-0.003": 13.4284245038,
			"-0.002": 16.1999539245,
			"-0.001": 15.4682417145,
			"0.0": 13.3081413291,
			"0.001": 14.2770162498,
			"0.002": 13.7880483028,
			"0.003": 15.058297084,
			"0.004": 9.03030763775,
			"0.005": 5.40865057867,
			"0.006": 3.50921606936,
			"0.007": 3.87712106328,
			"0.008": 3.85689643897,
			"0.009": 3.05139417965,
			"0.01": 3.12062428911,
			"0.011": 3.91661687023,
			"0.012": 7.92113094211,
			"0.013": 7.16274450381,
			"0.014": 1.65386865831,
			"0.015": 0.0,
			"0.016": 0.0,
			"0.017": 0.0,
			"0.018": 0.0,
			"0.019": 0.0,
			"0.02": 0.0,
			"0.021": 0.0,
			"0.022": 0.0,
			"0.023": 0.0,
			"0.024": 0.0,
			"0.025": 0.0
		}
	}
}
