{
	 "smiles": "CCOC(=O)C1=C(C)C2=C(O1)C=CC(OC)=C2", 
	 "Tm": 377.15, 
	 "num_atms": 31, 
	 "gaussian": { 
		 "optdone": 1, 
		 "sigma_profile": "yes", 
		 "theory": "DFT", 
		 "functional": "B3LYP", 
		 "basiset": "6-31G**", 
		 "properties": { 
			 "R2extent": 6386.4072, 
			 "electric_dipole_moment_norm": 2.50771745019, 
			 "electric_quadrupole_moment_norm": 15.8881576415, 
			 "total_energy": -804.716304038, 
			 "HOMO_LUMO_gap": 0.16232, 
			 "cosmo_polarized_energy": -10.7, 
			 "cosmo_cavitation_energy": 35.41, 
			 "cosmo_dispersion_energy": -25.76, 
			 "cosmo_repulsion_energy": 2.02, 
			 "cosmo_total_nonelectrostatic_energy": 11.66, 
			 "SMD_solvation_energy": 8.15 
		},
		"coords": [
			{
				"x": -0.4688404151,
				"y": -5.1287937863,
				"z": -0.8807794753,
				"element": "C" 
			},
			{
				"x": -0.4420292332,
				"y": -4.0894132989,
				"z": -1.9851251847,
				"element": "C" 
			},
			{
				"x": -0.0888113873,
				"y": -2.825470195,
				"z": -1.3798750993,
				"element": "O" 
			},
			{
				"x": -0.0180048694,
				"y": -1.777814179,
				"z": -2.2240914782,
				"element": "C" 
			},
			{
				"x": -0.2294720477,
				"y": -1.8458508032,
				"z": -3.4236543674,
				"element": "O" 
			},
			{
				"x": 0.3439957953,
				"y": -0.5286854513,
				"z": -1.5483568751,
				"element": "C" 
			},
			{
				"x": 0.5051161343,
				"y": 0.7215106487,
				"z": -2.0909234654,
				"element": "C" 
			},
			{
				"x": 0.3495047595,
				"y": 1.1261835955,
				"z": -3.524891884,
				"element": "C" 
			},
			{
				"x": 0.8590855752,
				"y": 1.5712265963,
				"z": -0.9791999554,
				"element": "C" 
			},
			{
				"x": 0.878789399,
				"y": 0.7357519263,
				"z": 0.1548294508,
				"element": "C" 
			},
			{
				"x": 0.5650891293,
				"y": -0.5472347393,
				"z": -0.1866109978,
				"element": "O" 
			},
			{
				"x": 1.1821051869,
				"y": 1.2001703537,
				"z": 1.4268357634,
				"element": "C" 
			},
			{
				"x": 1.4759263632,
				"y": 2.5575819444,
				"z": 1.5564278698,
				"element": "C" 
			},
			{
				"x": 1.4630621818,
				"y": 3.4175282509,
				"z": 0.4339779455,
				"element": "C" 
			},
			{
				"x": 1.7430200935,
				"y": 4.756113445,
				"z": 0.501937137,
				"element": "O" 
			},
			{
				"x": 2.0642038135,
				"y": 5.3197738804,
				"z": 1.7616415473,
				"element": "C" 
			},
			{
				"x": 1.1555309278,
				"y": 2.932624396,
				"z": -0.8383098732,
				"element": "C" 
			},
			{
				"x": -0.7334074946,
				"y": -6.1057564264,
				"z": -1.2973322949,
				"element": "H" 
			},
			{
				"x": 0.5095716738,
				"y": -5.2123048928,
				"z": -0.3992387536,
				"element": "H" 
			},
			{
				"x": -1.2067192,
				"y": -4.8679461938,
				"z": -0.1168165763,
				"element": "H" 
			},
			{
				"x": -1.4140348391,
				"y": -3.9866002366,
				"z": -2.4782950635,
				"element": "H" 
			},
			{
				"x": 0.293903775,
				"y": -4.3293023509,
				"z": -2.7593640954,
				"element": "H" 
			},
			{
				"x": 0.5426099385,
				"y": 2.1947574647,
				"z": -3.6488772949,
				"element": "H" 
			},
			{
				"x": -0.6585811442,
				"y": 0.9089090053,
				"z": -3.8897452274,
				"element": "H" 
			},
			{
				"x": 1.036609814,
				"y": 0.5701648155,
				"z": -4.1693399376,
				"element": "H" 
			},
			{
				"x": 1.1904508817,
				"y": 0.5360064608,
				"z": 2.2839847881,
				"element": "H" 
			},
			{
				"x": 1.7162443382,
				"y": 2.9467959182,
				"z": 2.5380766479,
				"element": "H" 
			},
			{
				"x": 2.247049783,
				"y": 6.3799820478,
				"z": 1.5788259397,
				"element": "H" 
			},
			{
				"x": 1.2381969348,
				"y": 5.2174443832,
				"z": 2.4779474062,
				"element": "H" 
			},
			{
				"x": 2.9685552041,
				"y": 4.8697634566,
				"z": 2.1923320195,
				"element": "H" 
			},
			{
				"x": 1.1542789282,
				"y": 3.6182839643,
				"z": -1.6787886158,
				"element": "H" 
			}
		],
		 "valence_orbital": [ 
			{
				"type": "occ",
				"energy": -0.29548,
				"method": "rhf"
			},
			{
				"type": "occ",
				"energy": -0.28703,
				"method": "rhf"
			},
			{
				"type": "occ",
				"energy": -0.27148,
				"method": "rhf"
			},
			{
				"type": "occ",
				"energy": -0.22309,
				"method": "rhf"
			},
			{
				"type": "occ",
				"energy": -0.21303,
				"method": "rhf"
			},
			{
				"type": "unocc",
				"energy": -0.05071,
				"method": "rhf"
			},
			{
				"type": "unocc",
				"energy": 0.01235,
				"method": "rhf"
			},
			{
				"type": "unocc",
				"energy": 0.03175,
				"method": "rhf"
			},
			{
				"type": "unocc",
				"energy": 0.09026,
				"method": "rhf"
			},
			{
				"type": "unocc",
				"energy": 0.09958,
				"method": "rhf"
			}
		],
		"cosmo_sigma_profile": { 
			"-0.025": 0.0,
			"-0.024": 0.0,
			"-0.023": 0.0,
			"-0.022": 0.0,
			"-0.021": 0.0,
			"-0.02": 0.0,
			"-0.019": 0.0,
			"-0.018": 0.0,
			"-0.017": 0.0,
			"-0.016": 0.0,
			"-0.015": 0.0,
			"-0.014": 0.0,
			"-0.013": 0.0,
			"-0.012": 0.0,
			"-0.011": 0.0,
			"-0.01": 0.0,
			"-0.009": 0.0,
			"-0.008": 0.243357973383,
			"-0.007": 3.82633426217,
			"-0.006": 11.88623513,
			"-0.005": 22.3449298436,
			"-0.004": 28.2351719786,
			"-0.003": 30.9934652378,
			"-0.002": 25.4765914286,
			"-0.001": 23.5938435888,
			"0.0": 26.0526559977,
			"0.001": 19.0328330692,
			"0.002": 16.3846534186,
			"0.003": 18.2615816881,
			"0.004": 15.2823614612,
			"0.005": 6.12839958658,
			"0.006": 5.41773957094,
			"0.007": 5.10728418292,
			"0.008": 5.07287989743,
			"0.009": 4.29626217351,
			"0.01": 5.31606041307,
			"0.011": 3.98667848163,
			"0.012": 3.68029563513,
			"0.013": 0.389079107967,
			"0.014": 0.0,
			"0.015": 0.0,
			"0.016": 0.0,
			"0.017": 0.0,
			"0.018": 0.0,
			"0.019": 0.0,
			"0.02": 0.0,
			"0.021": 0.0,
			"0.022": 0.0,
			"0.023": 0.0,
			"0.024": 0.0,
			"0.025": 0.0
		}
	}
}
