{
	 "smiles": "ClCC(=O)NC1CCCC1", 
	 "Tm": 347.15, 
	 "num_atms": 22, 
	 "gaussian": { 
		 "optdone": 1, 
		 "sigma_profile": "yes", 
		 "theory": "DFT", 
		 "functional": "B3LYP", 
		 "basiset": "6-31G**", 
		 "properties": { 
			 "R2extent": 3348.4396, 
			 "electric_dipole_moment_norm": 2.14744194101, 
			 "electric_quadrupole_moment_norm": 10.3420846177, 
			 "total_energy": -864.171624491, 
			 "HOMO_LUMO_gap": 0.2683, 
			 "cosmo_polarized_energy": -9.23, 
			 "cosmo_cavitation_energy": 25.88, 
			 "cosmo_dispersion_energy": -19.12, 
			 "cosmo_repulsion_energy": 1.61, 
			 "cosmo_total_nonelectrostatic_energy": 8.37, 
			 "SMD_solvation_energy": 3.85 
		},
		"coords": [
			{
				"x": -3.600083059,
				"y": -0.3212123155,
				"z": -0.6737704647,
				"element": "Cl" 
			},
			{
				"x": -3.5037079861,
				"y": 1.4774233451,
				"z": -0.9323094654,
				"element": "C" 
			},
			{
				"x": -2.206486219,
				"y": 2.1743939568,
				"z": -0.5098029581,
				"element": "C" 
			},
			{
				"x": -2.1521977772,
				"y": 3.3860810082,
				"z": -0.6886239129,
				"element": "O" 
			},
			{
				"x": -1.2226263066,
				"y": 1.4166387351,
				"z": 0.0258398891,
				"element": "N" 
			},
			{
				"x": 0.0515476244,
				"y": 1.9643846069,
				"z": 0.463215894,
				"element": "C" 
			},
			{
				"x": 1.2764832746,
				"y": 1.3906941939,
				"z": -0.2722324721,
				"element": "C" 
			},
			{
				"x": 2.4577976066,
				"y": 1.8400854409,
				"z": 0.6059783057,
				"element": "C" 
			},
			{
				"x": 1.90670407,
				"y": 1.8666074079,
				"z": 2.0657104816,
				"element": "C" 
			},
			{
				"x": 0.3712036154,
				"y": 1.6894599834,
				"z": 1.9477399613,
				"element": "C" 
			},
			{
				"x": -4.3290172631,
				"y": 1.9237317861,
				"z": -0.3775212194,
				"element": "H" 
			},
			{
				"x": -3.6574131748,
				"y": 1.6549219809,
				"z": -1.9967140916,
				"element": "H" 
			},
			{
				"x": -1.3849102155,
				"y": 0.4230119945,
				"z": 0.1220937518,
				"element": "H" 
			},
			{
				"x": -0.0142621478,
				"y": 3.0414000517,
				"z": 0.283929445,
				"element": "H" 
			},
			{
				"x": 1.3454450132,
				"y": 1.7338496019,
				"z": -1.3086554603,
				"element": "H" 
			},
			{
				"x": 1.2049827387,
				"y": 0.2942838752,
				"z": -0.2915814686,
				"element": "H" 
			},
			{
				"x": 2.7762953053,
				"y": 2.8449615962,
				"z": 0.307717663,
				"element": "H" 
			},
			{
				"x": 3.3291014599,
				"y": 1.1878935758,
				"z": 0.4979757412,
				"element": "H" 
			},
			{
				"x": 2.1592480702,
				"y": 2.8115529385,
				"z": 2.5559355552,
				"element": "H" 
			},
			{
				"x": 2.3455586105,
				"y": 1.071944451,
				"z": 2.6762155735,
				"element": "H" 
			},
			{
				"x": 0.0860772536,
				"y": 0.6564084039,
				"z": 2.1859326705,
				"element": "H" 
			},
			{
				"x": -0.1948404932,
				"y": 2.3402833814,
				"z": 2.6201265813,
				"element": "H" 
			}
		],
		 "valence_orbital": [ 
			{
				"type": "occ",
				"energy": -0.32375,
				"method": "rhf"
			},
			{
				"type": "occ",
				"energy": -0.32044,
				"method": "rhf"
			},
			{
				"type": "occ",
				"energy": -0.30895,
				"method": "rhf"
			},
			{
				"type": "occ",
				"energy": -0.25617,
				"method": "rhf"
			},
			{
				"type": "occ",
				"energy": -0.25315,
				"method": "rhf"
			},
			{
				"type": "unocc",
				"energy": 0.01515,
				"method": "rhf"
			},
			{
				"type": "unocc",
				"energy": 0.02176,
				"method": "rhf"
			},
			{
				"type": "unocc",
				"energy": 0.07567,
				"method": "rhf"
			},
			{
				"type": "unocc",
				"energy": 0.0886,
				"method": "rhf"
			},
			{
				"type": "unocc",
				"energy": 0.09806,
				"method": "rhf"
			}
		],
		"cosmo_sigma_profile": { 
			"-0.025": 0.0,
			"-0.024": 0.0,
			"-0.023": 0.0,
			"-0.022": 0.0,
			"-0.021": 0.0,
			"-0.02": 0.0,
			"-0.019": 0.0,
			"-0.018": 0.0,
			"-0.017": 0.0,
			"-0.016": 0.0,
			"-0.015": 0.0,
			"-0.014": 0.0,
			"-0.013": 0.0,
			"-0.012": 0.106597571333,
			"-0.011": 0.88439316097,
			"-0.01": 0.83520434075,
			"-0.009": 3.14561085646,
			"-0.008": 5.89055516037,
			"-0.007": 4.58404831472,
			"-0.006": 4.95071143842,
			"-0.005": 5.74418196647,
			"-0.004": 8.02008572901,
			"-0.003": 19.2683160322,
			"-0.002": 27.3764928925,
			"-0.001": 27.4271864457,
			"0.0": 21.5584932328,
			"0.001": 22.2216068776,
			"0.002": 9.7866816298,
			"0.003": 5.67500865583,
			"0.004": 6.24703271852,
			"0.005": 7.38499441467,
			"0.006": 5.93604326121,
			"0.007": 1.53577775982,
			"0.008": 0.74571921159,
			"0.009": 1.17745844924,
			"0.01": 1.62212674729,
			"0.011": 1.53498702022,
			"0.012": 1.83181797356,
			"0.013": 4.89113789484,
			"0.014": 3.68196248263,
			"0.015": 0.152649592452,
			"0.016": 0.0,
			"0.017": 0.0,
			"0.018": 0.0,
			"0.019": 0.0,
			"0.02": 0.0,
			"0.021": 0.0,
			"0.022": 0.0,
			"0.023": 0.0,
			"0.024": 0.0,
			"0.025": 0.0
		}
	}
}
