{
	 "smiles": "CC1=C(C=NO1)C(=O)NC1=CC(=CC=C1)C(O)=O", 
	 "Tm": 519.15, 
	 "num_atms": 28, 
	 "gaussian": { 
		 "optdone": 1, 
		 "sigma_profile": "yes", 
		 "theory": "DFT", 
		 "functional": "B3LYP", 
		 "basiset": "6-31G**", 
		 "properties": { 
			 "R2extent": 4542.0282, 
			 "electric_dipole_moment_norm": 3.69615611142, 
			 "electric_quadrupole_moment_norm": 18.2672715486, 
			 "total_energy": -873.681482589, 
			 "HOMO_LUMO_gap": 0.18115, 
			 "cosmo_polarized_energy": -20.05, 
			 "cosmo_cavitation_energy": 33.81, 
			 "cosmo_dispersion_energy": -22.97, 
			 "cosmo_repulsion_energy": 1.78, 
			 "cosmo_total_nonelectrostatic_energy": 12.61, 
			 "SMD_solvation_energy": 7.85 
		},
		"coords": [
			{
				"x": -2.4332796268,
				"y": 0.8318174888,
				"z": 1.2473537354,
				"element": "C" 
			},
			{
				"x": -2.3436486743,
				"y": -0.6531991167,
				"z": 1.1768868102,
				"element": "C" 
			},
			{
				"x": -2.0492276016,
				"y": -1.5601465291,
				"z": 0.1860192627,
				"element": "C" 
			},
			{
				"x": -2.2242205535,
				"y": -2.8227959781,
				"z": 0.8307870282,
				"element": "C" 
			},
			{
				"x": -2.5540268665,
				"y": -2.7048415185,
				"z": 2.0890682467,
				"element": "N" 
			},
			{
				"x": -2.6403249981,
				"y": -1.3176043144,
				"z": 2.3083000757,
				"element": "O" 
			},
			{
				"x": -1.7907038828,
				"y": -1.4160823638,
				"z": -1.263844586,
				"element": "C" 
			},
			{
				"x": -2.2134984639,
				"y": -2.2477599291,
				"z": -2.0579843329,
				"element": "O" 
			},
			{
				"x": -1.1156554644,
				"y": -0.2960750681,
				"z": -1.7326776689,
				"element": "N" 
			},
			{
				"x": -0.1274397478,
				"y": 0.5105297327,
				"z": -1.1161406567,
				"element": "C" 
			},
			{
				"x": 0.7125617203,
				"y": 0.0297018123,
				"z": -0.1047599171,
				"element": "C" 
			},
			{
				"x": 1.6809820705,
				"y": 0.8726495091,
				"z": 0.4541716282,
				"element": "C" 
			},
			{
				"x": 1.8429914315,
				"y": 2.1827945769,
				"z": -0.0128586119,
				"element": "C" 
			},
			{
				"x": 1.0259408999,
				"y": 2.6475867861,
				"z": -1.0403328463,
				"element": "C" 
			},
			{
				"x": 0.0403390693,
				"y": 1.8238367052,
				"z": -1.5823508403,
				"element": "C" 
			},
			{
				"x": 2.5874082323,
				"y": 0.4048807357,
				"z": 1.5408301728,
				"element": "C" 
			},
			{
				"x": 2.3528349862,
				"y": -0.8770955074,
				"z": 1.9108913964,
				"element": "O" 
			},
			{
				"x": 3.451313339,
				"y": 1.083531256,
				"z": 2.0586088189,
				"element": "O" 
			},
			{
				"x": -2.5859098473,
				"y": 1.2537246598,
				"z": 0.2532356936,
				"element": "H" 
			},
			{
				"x": -3.26448757,
				"y": 1.1229767505,
				"z": 1.8945699609,
				"element": "H" 
			},
			{
				"x": -1.5132556361,
				"y": 1.2596005878,
				"z": 1.6603706918,
				"element": "H" 
			},
			{
				"x": -2.1078307911,
				"y": -3.8045315927,
				"z": 0.3908440212,
				"element": "H" 
			},
			{
				"x": -1.1499786001,
				"y": -0.2569021609,
				"z": -2.7451851011,
				"element": "H" 
			},
			{
				"x": 0.6260501456,
				"y": -0.9905384227,
				"z": 0.2449228991,
				"element": "H" 
			},
			{
				"x": 2.608554362,
				"y": 2.806903073,
				"z": 0.4338717486,
				"element": "H" 
			},
			{
				"x": 1.1451309066,
				"y": 3.6591731643,
				"z": -1.4159581333,
				"element": "H" 
			},
			{
				"x": -0.6111549652,
				"y": 2.1938051188,
				"z": -2.369423215,
				"element": "H" 
			},
			{
				"x": 2.9896361263,
				"y": -1.0740394557,
				"z": 2.6173837192,
				"element": "H" 
			}
		],
		 "valence_orbital": [ 
			{
				"type": "occ",
				"energy": -0.28723,
				"method": "rhf"
			},
			{
				"type": "occ",
				"energy": -0.28095,
				"method": "rhf"
			},
			{
				"type": "occ",
				"energy": -0.2748,
				"method": "rhf"
			},
			{
				"type": "occ",
				"energy": -0.26221,
				"method": "rhf"
			},
			{
				"type": "occ",
				"energy": -0.2445,
				"method": "rhf"
			},
			{
				"type": "unocc",
				"energy": -0.06335,
				"method": "rhf"
			},
			{
				"type": "unocc",
				"energy": -0.04464,
				"method": "rhf"
			},
			{
				"type": "unocc",
				"energy": -0.02137,
				"method": "rhf"
			},
			{
				"type": "unocc",
				"energy": -0.0005,
				"method": "rhf"
			},
			{
				"type": "unocc",
				"energy": 0.04223,
				"method": "rhf"
			}
		],
		"cosmo_sigma_profile": { 
			"-0.025": 0.0,
			"-0.024": 0.0,
			"-0.023": 0.0,
			"-0.022": 0.0,
			"-0.021": 0.0,
			"-0.02": 0.0,
			"-0.019": 0.0521494686031,
			"-0.018": 0.812415653727,
			"-0.017": 1.10180321785,
			"-0.016": 0.808282874643,
			"-0.015": 1.10157047233,
			"-0.014": 1.59261340795,
			"-0.013": 1.96267802966,
			"-0.012": 2.27653226192,
			"-0.011": 1.48946331935,
			"-0.01": 2.53372674353,
			"-0.009": 2.85800523388,
			"-0.008": 4.34110397234,
			"-0.007": 8.36712602394,
			"-0.006": 14.0046369239,
			"-0.005": 16.3112032485,
			"-0.004": 18.0315832329,
			"-0.003": 20.1529263042,
			"-0.002": 23.9532514799,
			"-0.001": 19.203405902,
			"0.0": 16.622205229,
			"0.001": 16.2529130995,
			"0.002": 15.7272259642,
			"0.003": 12.7499918124,
			"0.004": 8.11843666276,
			"0.005": 5.90273579739,
			"0.006": 7.3373799682,
			"0.007": 9.21018948145,
			"0.008": 5.12848524713,
			"0.009": 4.65878096416,
			"0.01": 5.10770687131,
			"0.011": 8.11533177083,
			"0.012": 8.70120030028,
			"0.013": 5.29170022507,
			"0.014": 0.596755033151,
			"0.015": 0.0,
			"0.016": 0.0,
			"0.017": 0.0,
			"0.018": 0.0,
			"0.019": 0.0,
			"0.02": 0.0,
			"0.021": 0.0,
			"0.022": 0.0,
			"0.023": 0.0,
			"0.024": 0.0,
			"0.025": 0.0
		}
	}
}
