{
	 "smiles": "COC1=CC2=C(C=C1)N(C(=O)C1=CC=C(Cl)C=C1)C(C)=C2CC(O)=O", 
	 "Tm": 432.15, 
	 "num_atms": 41, 
	 "gaussian": { 
		 "optdone": 1, 
		 "sigma_profile": "yes", 
		 "theory": "DFT", 
		 "functional": "B3LYP", 
		 "basiset": "6-31G**", 
		 "properties": { 
			 "R2extent": 13066.9185, 
			 "electric_dipole_moment_norm": 1.55235657308, 
			 "electric_quadrupole_moment_norm": 15.4219875477, 
			 "total_energy": -1549.52336493, 
			 "HOMO_LUMO_gap": 0.13819, 
			 "cosmo_polarized_energy": -18.66, 
			 "cosmo_cavitation_energy": 47.23, 
			 "cosmo_dispersion_energy": -32.69, 
			 "cosmo_repulsion_energy": 2.47, 
			 "cosmo_total_nonelectrostatic_energy": 17.0, 
			 "SMD_solvation_energy": 9.83 
		},
		"coords": [
			{
				"x": 4.3028509169,
				"y": -5.3562285957,
				"z": -0.3561782171,
				"element": "C" 
			},
			{
				"x": 3.0112773434,
				"y": -4.9238477372,
				"z": 0.033372757,
				"element": "O" 
			},
			{
				"x": 2.6315860273,
				"y": -3.6445579326,
				"z": -0.2706003087,
				"element": "C" 
			},
			{
				"x": 1.3521970008,
				"y": -3.2792890458,
				"z": 0.157358974,
				"element": "C" 
			},
			{
				"x": 0.9004683336,
				"y": -1.9867389102,
				"z": -0.1178194425,
				"element": "C" 
			},
			{
				"x": 1.7291505595,
				"y": -1.0713560915,
				"z": -0.8029368271,
				"element": "C" 
			},
			{
				"x": 3.0046675694,
				"y": -1.4289568651,
				"z": -1.2301758993,
				"element": "C" 
			},
			{
				"x": 3.4473923258,
				"y": -2.7255401406,
				"z": -0.9600625837,
				"element": "C" 
			},
			{
				"x": 0.9954767319,
				"y": 0.1270922867,
				"z": -0.9695624867,
				"element": "N" 
			},
			{
				"x": 1.5167738893,
				"y": 1.2504988647,
				"z": -1.6355997514,
				"element": "C" 
			},
			{
				"x": 2.7201152531,
				"y": 1.4632154832,
				"z": -1.6574211497,
				"element": "O" 
			},
			{
				"x": 0.5790242475,
				"y": 2.1276125126,
				"z": -2.4032487378,
				"element": "C" 
			},
			{
				"x": 0.8919944,
				"y": 3.4898861288,
				"z": -2.5138071824,
				"element": "C" 
			},
			{
				"x": 0.1141396591,
				"y": 4.3360461177,
				"z": -3.2977560474,
				"element": "C" 
			},
			{
				"x": -0.9654074706,
				"y": 3.8024446408,
				"z": -4.0054253406,
				"element": "C" 
			},
			{
				"x": -1.9448647452,
				"y": 4.8590698117,
				"z": -5.0057297779,
				"element": "Cl" 
			},
			{
				"x": -1.2739302353,
				"y": 2.4433221338,
				"z": -3.9399914484,
				"element": "C" 
			},
			{
				"x": -0.5009333153,
				"y": 1.6110053026,
				"z": -3.1321814521,
				"element": "C" 
			},
			{
				"x": -0.2578177434,
				"y": -0.0298954055,
				"z": -0.3219265362,
				"element": "C" 
			},
			{
				"x": -1.2196549515,
				"y": 1.0982289786,
				"z": -0.0926118084,
				"element": "C" 
			},
			{
				"x": -0.3395206997,
				"y": -1.3029476376,
				"z": 0.1763300932,
				"element": "C" 
			},
			{
				"x": -1.4905128524,
				"y": -1.9056212859,
				"z": 0.9381733667,
				"element": "C" 
			},
			{
				"x": -1.1902748203,
				"y": -2.0263640608,
				"z": 2.4237406453,
				"element": "C" 
			},
			{
				"x": -1.33397859,
				"y": -0.8357909264,
				"z": 3.0574145961,
				"element": "O" 
			},
			{
				"x": -0.847035745,
				"y": -3.0355265556,
				"z": 2.9962468261,
				"element": "O" 
			},
			{
				"x": 4.3906115691,
				"y": -6.3889552837,
				"z": -0.01428483,
				"element": "H" 
			},
			{
				"x": 4.4321620322,
				"y": -5.3273319324,
				"z": -1.4463506631,
				"element": "H" 
			},
			{
				"x": 5.0933142447,
				"y": -4.755003342,
				"z": 0.1122424281,
				"element": "H" 
			},
			{
				"x": 0.7504046677,
				"y": -3.992764684,
				"z": 0.7097122868,
				"element": "H" 
			},
			{
				"x": 3.6463338008,
				"y": -0.7190070272,
				"z": -1.7343738861,
				"element": "H" 
			},
			{
				"x": 4.4428407786,
				"y": -3.0083996528,
				"z": -1.2796426611,
				"element": "H" 
			},
			{
				"x": 1.7553067298,
				"y": 3.8745800683,
				"z": -1.9812400567,
				"element": "H" 
			},
			{
				"x": 0.3427518239,
				"y": 5.3932945695,
				"z": -3.3714473435,
				"element": "H" 
			},
			{
				"x": -2.1015966952,
				"y": 2.0453463914,
				"z": -4.5162766774,
				"element": "H" 
			},
			{
				"x": -0.7278398765,
				"y": 0.5506539042,
				"z": -3.0851530625,
				"element": "H" 
			},
			{
				"x": -1.9125380048,
				"y": 1.2594059509,
				"z": -0.9245356266,
				"element": "H" 
			},
			{
				"x": -0.6935772267,
				"y": 2.0422651175,
				"z": 0.072906015,
				"element": "H" 
			},
			{
				"x": -1.8034480935,
				"y": 0.8894744803,
				"z": 0.8060825394,
				"element": "H" 
			},
			{
				"x": -2.3959552139,
				"y": -1.3071798659,
				"z": 0.8088288359,
				"element": "H" 
			},
			{
				"x": -1.6936993401,
				"y": -2.915965707,
				"z": 0.5724837988,
				"element": "H" 
			},
			{
				"x": -1.0847542849,
				"y": -0.9890740578,
				"z": 3.984546642,
				"element": "H" 
			}
		],
		 "valence_orbital": [ 
			{
				"type": "occ",
				"energy": -0.27594,
				"method": "rhf"
			},
			{
				"type": "occ",
				"energy": -0.26868,
				"method": "rhf"
			},
			{
				"type": "occ",
				"energy": -0.25749,
				"method": "rhf"
			},
			{
				"type": "occ",
				"energy": -0.21181,
				"method": "rhf"
			},
			{
				"type": "occ",
				"energy": -0.20302,
				"method": "rhf"
			},
			{
				"type": "unocc",
				"energy": -0.06483,
				"method": "rhf"
			},
			{
				"type": "unocc",
				"energy": -0.02918,
				"method": "rhf"
			},
			{
				"type": "unocc",
				"energy": -0.01917,
				"method": "rhf"
			},
			{
				"type": "unocc",
				"energy": 0.00464,
				"method": "rhf"
			},
			{
				"type": "unocc",
				"energy": 0.00852,
				"method": "rhf"
			}
		],
		"cosmo_sigma_profile": { 
			"-0.025": 0.0,
			"-0.024": 0.0,
			"-0.023": 0.0,
			"-0.022": 0.0,
			"-0.021": 0.0,
			"-0.02": 0.0,
			"-0.019": 0.112700276025,
			"-0.018": 0.714100590612,
			"-0.017": 0.868811025727,
			"-0.016": 1.19996544431,
			"-0.015": 0.63549008451,
			"-0.014": 0.534904361435,
			"-0.013": 0.234358327023,
			"-0.012": 0.907753113356,
			"-0.011": 1.38985561417,
			"-0.01": 0.603778358028,
			"-0.009": 0.469335481569,
			"-0.008": 3.05349480578,
			"-0.007": 10.1445186758,
			"-0.006": 18.7945347552,
			"-0.005": 29.8042371965,
			"-0.004": 30.974859318,
			"-0.003": 31.1281055165,
			"-0.002": 25.0346347786,
			"-0.001": 26.2458840569,
			"0.0": 25.0561708727,
			"0.001": 27.0711462572,
			"0.002": 29.2668322753,
			"0.003": 23.0061659286,
			"0.004": 28.9495450271,
			"0.005": 19.6747094665,
			"0.006": 8.89927627983,
			"0.007": 5.58469750543,
			"0.008": 4.94111761006,
			"0.009": 4.90740568367,
			"0.01": 6.20353848993,
			"0.011": 8.21864431484,
			"0.012": 4.60176056245,
			"0.013": 0.0655693892783,
			"0.014": 0.0,
			"0.015": 0.0,
			"0.016": 0.0,
			"0.017": 0.0,
			"0.018": 0.0,
			"0.019": 0.0,
			"0.02": 0.0,
			"0.021": 0.0,
			"0.022": 0.0,
			"0.023": 0.0,
			"0.024": 0.0,
			"0.025": 0.0
		}
	}
}
