{
	 "smiles": "COC1=C(C=CC(OC2=C(Cl)C=C(Cl)C=C2)=C1)[N+]([O-])=O", 
	 "Tm": 387.15, 
	 "num_atms": 29, 
	 "gaussian": { 
		 "optdone": 1, 
		 "sigma_profile": "yes", 
		 "theory": "DFT", 
		 "functional": "B3LYP", 
		 "basiset": "6-31G**", 
		 "properties": { 
			 "R2extent": 8653.9802, 
			 "electric_dipole_moment_norm": 5.62451029779, 
			 "electric_quadrupole_moment_norm": 26.6718413736, 
			 "total_energy": -1776.70467912, 
			 "HOMO_LUMO_gap": 0.17029, 
			 "cosmo_polarized_energy": -15.33, 
			 "cosmo_cavitation_energy": 38.82, 
			 "cosmo_dispersion_energy": -26.9, 
			 "cosmo_repulsion_energy": 2.1, 
			 "cosmo_total_nonelectrostatic_energy": 14.02, 
			 "SMD_solvation_energy": 9.32 
		},
		"coords": [
			{
				"x": -1.6367072397,
				"y": 0.6074005405,
				"z": -2.1353626733,
				"element": "C" 
			},
			{
				"x": -1.7358206594,
				"y": 1.6260634797,
				"z": -1.1459444991,
				"element": "O" 
			},
			{
				"x": -0.9106463823,
				"y": 1.593540649,
				"z": -0.0837649677,
				"element": "C" 
			},
			{
				"x": -1.0525424683,
				"y": 2.5715859691,
				"z": 0.9323184333,
				"element": "C" 
			},
			{
				"x": -0.2392544995,
				"y": 2.5289315462,
				"z": 2.0685732505,
				"element": "C" 
			},
			{
				"x": 0.7338247801,
				"y": 1.557235326,
				"z": 2.2228852888,
				"element": "C" 
			},
			{
				"x": 0.8838778275,
				"y": 0.5989515743,
				"z": 1.2153450893,
				"element": "C" 
			},
			{
				"x": 1.8650375803,
				"y": -0.3395514807,
				"z": 1.4312696135,
				"element": "O" 
			},
			{
				"x": 2.170206378,
				"y": -1.2705759355,
				"z": 0.4619449113,
				"element": "C" 
			},
			{
				"x": 1.666459952,
				"y": -2.5752979387,
				"z": 0.5499872395,
				"element": "C" 
			},
			{
				"x": 0.5582721593,
				"y": -3.0010226241,
				"z": 1.828159578,
				"element": "Cl" 
			},
			{
				"x": 2.0506918557,
				"y": -3.5447813618,
				"z": -0.3776204149,
				"element": "C" 
			},
			{
				"x": 2.9372935336,
				"y": -3.1950519668,
				"z": -1.3947615458,
				"element": "C" 
			},
			{
				"x": 3.4175651426,
				"y": -4.4114213116,
				"z": -2.5616370901,
				"element": "Cl" 
			},
			{
				"x": 3.449097906,
				"y": -1.9009228091,
				"z": -1.4977499337,
				"element": "C" 
			},
			{
				"x": 3.0609806213,
				"y": -0.9448011989,
				"z": -0.5622918912,
				"element": "C" 
			},
			{
				"x": 0.0741983721,
				"y": 0.605681965,
				"z": 0.0799578074,
				"element": "C" 
			},
			{
				"x": -2.0283649959,
				"y": 3.658782416,
				"z": 0.8571340293,
				"element": "N" 
			},
			{
				"x": -2.5232455682,
				"y": 3.9370264699,
				"z": -0.2327427639,
				"element": "O" 
			},
			{
				"x": -2.2854163428,
				"y": 4.2543658758,
				"z": 1.9091751545,
				"element": "O" 
			},
			{
				"x": -0.6561456677,
				"y": 0.6181159353,
				"z": -2.6260525187,
				"element": "H" 
			},
			{
				"x": -1.8239401229,
				"y": -0.3860206924,
				"z": -1.7106335205,
				"element": "H" 
			},
			{
				"x": -2.4090332779,
				"y": 0.8406703792,
				"z": -2.8682555993,
				"element": "H" 
			},
			{
				"x": -0.3965804653,
				"y": 3.2875263668,
				"z": 2.8247078807,
				"element": "H" 
			},
			{
				"x": 1.3745781001,
				"y": 1.52304677,
				"z": 3.0957245664,
				"element": "H" 
			},
			{
				"x": 1.6622637635,
				"y": -4.5529450703,
				"z": -0.3019067489,
				"element": "H" 
			},
			{
				"x": 4.1433666193,
				"y": -1.649256015,
				"z": -2.2909443787,
				"element": "H" 
			},
			{
				"x": 3.4524191555,
				"y": 0.0660703168,
				"z": -0.6078013624,
				"element": "H" 
			},
			{
				"x": 0.2044639432,
				"y": -0.1601471748,
				"z": -0.6710129344,
				"element": "H" 
			}
		],
		 "valence_orbital": [ 
			{
				"type": "occ",
				"energy": -0.28353,
				"method": "rhf"
			},
			{
				"type": "occ",
				"energy": -0.27553,
				"method": "rhf"
			},
			{
				"type": "occ",
				"energy": -0.26634,
				"method": "rhf"
			},
			{
				"type": "occ",
				"energy": -0.26293,
				"method": "rhf"
			},
			{
				"type": "occ",
				"energy": -0.24364,
				"method": "rhf"
			},
			{
				"type": "unocc",
				"energy": -0.07335,
				"method": "rhf"
			},
			{
				"type": "unocc",
				"energy": -0.04679,
				"method": "rhf"
			},
			{
				"type": "unocc",
				"energy": -0.04172,
				"method": "rhf"
			},
			{
				"type": "unocc",
				"energy": -0.01712,
				"method": "rhf"
			},
			{
				"type": "unocc",
				"energy": -0.0099,
				"method": "rhf"
			}
		],
		"cosmo_sigma_profile": { 
			"-0.025": 0.0,
			"-0.024": 0.0,
			"-0.023": 0.0,
			"-0.022": 0.0,
			"-0.021": 0.0,
			"-0.02": 0.0,
			"-0.019": 0.0,
			"-0.018": 0.0,
			"-0.017": 0.0,
			"-0.016": 0.0,
			"-0.015": 0.0,
			"-0.014": 0.0,
			"-0.013": 0.0,
			"-0.012": 0.0,
			"-0.011": 0.0,
			"-0.01": 0.0,
			"-0.009": 1.48180168936,
			"-0.008": 7.90312290864,
			"-0.007": 15.5424687346,
			"-0.006": 18.017230808,
			"-0.005": 17.1672056292,
			"-0.004": 19.788677252,
			"-0.003": 18.2133647258,
			"-0.002": 18.5234943516,
			"-0.001": 24.4628442329,
			"0.0": 35.28580616,
			"0.001": 33.0278545796,
			"0.002": 23.554489544,
			"0.003": 20.9792488657,
			"0.004": 19.1453057863,
			"0.005": 5.68830650656,
			"0.006": 4.80670265656,
			"0.007": 5.63895004123,
			"0.008": 8.46520150293,
			"0.009": 7.82578930661,
			"0.01": 6.40647601172,
			"0.011": 3.41915925802,
			"0.012": 1.26143916633,
			"0.013": 0.24490840032,
			"0.014": 0.0,
			"0.015": 0.0,
			"0.016": 0.0,
			"0.017": 0.0,
			"0.018": 0.0,
			"0.019": 0.0,
			"0.02": 0.0,
			"0.021": 0.0,
			"0.022": 0.0,
			"0.023": 0.0,
			"0.024": 0.0,
			"0.025": 0.0
		}
	}
}
