{
	 "smiles": "CC(=O)OC(OC(C)=O)C1=CC=C(C=C1)S(Cl)(=O)=O", 
	 "Tm": 383.15, 
	 "num_atms": 30, 
	 "gaussian": { 
		 "optdone": 1, 
		 "sigma_profile": "yes", 
		 "theory": "DFT", 
		 "functional": "B3LYP", 
		 "basiset": "6-31G**", 
		 "properties": { 
			 "R2extent": 8746.8694, 
			 "electric_dipole_moment_norm": 5.90697893936, 
			 "electric_quadrupole_moment_norm": 21.9979937119, 
			 "total_energy": -1735.47736665, 
			 "HOMO_LUMO_gap": 0.18648, 
			 "cosmo_polarized_energy": -17.43, 
			 "cosmo_cavitation_energy": 39.54, 
			 "cosmo_dispersion_energy": -27.29, 
			 "cosmo_repulsion_energy": 2.13, 
			 "cosmo_total_nonelectrostatic_energy": 14.37, 
			 "SMD_solvation_energy": 7.74 
		},
		"coords": [
			{
				"x": -4.7204146111,
				"y": -0.8458964003,
				"z": -2.4926309365,
				"element": "C" 
			},
			{
				"x": -3.6660009141,
				"y": -0.3236438291,
				"z": -1.5493955129,
				"element": "C" 
			},
			{
				"x": -3.3763170807,
				"y": 0.8331041758,
				"z": -1.373416179,
				"element": "O" 
			},
			{
				"x": -3.0636675779,
				"y": -1.3718066582,
				"z": -0.8970347789,
				"element": "O" 
			},
			{
				"x": -2.0303430944,
				"y": -1.0818310739,
				"z": 0.0512977413,
				"element": "C" 
			},
			{
				"x": -2.5467486955,
				"y": -0.3415259848,
				"z": 1.1426464131,
				"element": "O" 
			},
			{
				"x": -3.0247788468,
				"y": -1.0645611905,
				"z": 2.2118714747,
				"element": "C" 
			},
			{
				"x": -3.5823015385,
				"y": -0.1339174441,
				"z": 3.2553186913,
				"element": "C" 
			},
			{
				"x": -2.9823070925,
				"y": -2.2682444873,
				"z": 2.2737007278,
				"element": "O" 
			},
			{
				"x": -0.8415996673,
				"y": -0.3656131226,
				"z": -0.5618339361,
				"element": "C" 
			},
			{
				"x": -0.3635180228,
				"y": 0.8491844447,
				"z": -0.0623707904,
				"element": "C" 
			},
			{
				"x": 0.7610352885,
				"y": 1.4471562727,
				"z": -0.6265558608,
				"element": "C" 
			},
			{
				"x": 1.3940401151,
				"y": 0.8084134911,
				"z": -1.6925089309,
				"element": "C" 
			},
			{
				"x": 0.9391161854,
				"y": -0.405333156,
				"z": -2.209185216,
				"element": "C" 
			},
			{
				"x": -0.1834772534,
				"y": -0.9894359096,
				"z": -1.6302769037,
				"element": "C" 
			},
			{
				"x": 2.8522741919,
				"y": 1.5543853836,
				"z": -2.4045022925,
				"element": "S" 
			},
			{
				"x": 1.9987966727,
				"y": 2.7752309526,
				"z": -3.9337097142,
				"element": "Cl" 
			},
			{
				"x": 3.4475692786,
				"y": 2.4709148562,
				"z": -1.4401028955,
				"element": "O" 
			},
			{
				"x": 3.6312518717,
				"y": 0.5319951155,
				"z": -3.0922542405,
				"element": "O" 
			},
			{
				"x": -5.206824227,
				"y": -0.0071331854,
				"z": -2.9891644854,
				"element": "H" 
			},
			{
				"x": -4.2631824634,
				"y": -1.5059785964,
				"z": -3.2358420631,
				"element": "H" 
			},
			{
				"x": -5.4574185482,
				"y": -1.4375501687,
				"z": -1.9420273824,
				"element": "H" 
			},
			{
				"x": -1.7428906216,
				"y": -2.0734945011,
				"z": 0.4065494367,
				"element": "H" 
			},
			{
				"x": -2.8016943577,
				"y": 0.549610279,
				"z": 3.6023927113,
				"element": "H" 
			},
			{
				"x": -4.3792637934,
				"y": 0.4767505624,
				"z": 2.8212941592,
				"element": "H" 
			},
			{
				"x": -3.9667260068,
				"y": -0.7160456482,
				"z": 4.0918118727,
				"element": "H" 
			},
			{
				"x": -0.879318501,
				"y": 1.3278049432,
				"z": 0.7604107593,
				"element": "H" 
			},
			{
				"x": 1.1446710828,
				"y": 2.3873790166,
				"z": -0.2470636146,
				"element": "H" 
			},
			{
				"x": 1.4623008585,
				"y": -0.882415521,
				"z": -3.0299873394,
				"element": "H" 
			},
			{
				"x": -0.5513626313,
				"y": -1.937302616,
				"z": -2.0117309147,
				"element": "H" 
			}
		],
		 "valence_orbital": [ 
			{
				"type": "occ",
				"energy": -0.31161,
				"method": "rhf"
			},
			{
				"type": "occ",
				"energy": -0.30289,
				"method": "rhf"
			},
			{
				"type": "occ",
				"energy": -0.29522,
				"method": "rhf"
			},
			{
				"type": "occ",
				"energy": -0.28833,
				"method": "rhf"
			},
			{
				"type": "occ",
				"energy": -0.27634,
				"method": "rhf"
			},
			{
				"type": "unocc",
				"energy": -0.08986,
				"method": "rhf"
			},
			{
				"type": "unocc",
				"energy": -0.04736,
				"method": "rhf"
			},
			{
				"type": "unocc",
				"energy": -0.03819,
				"method": "rhf"
			},
			{
				"type": "unocc",
				"energy": -0.01545,
				"method": "rhf"
			},
			{
				"type": "unocc",
				"energy": -0.00887,
				"method": "rhf"
			}
		],
		"cosmo_sigma_profile": { 
			"-0.025": 0.0,
			"-0.024": 0.0,
			"-0.023": 0.0,
			"-0.022": 0.0,
			"-0.021": 0.0,
			"-0.02": 0.0,
			"-0.019": 0.0,
			"-0.018": 0.0,
			"-0.017": 0.0,
			"-0.016": 0.0,
			"-0.015": 0.0,
			"-0.014": 0.0,
			"-0.013": 0.0,
			"-0.012": 0.0,
			"-0.011": 0.0,
			"-0.01": 0.0,
			"-0.009": 2.08136821072,
			"-0.008": 7.53228305329,
			"-0.007": 16.9695529468,
			"-0.006": 22.8575030188,
			"-0.005": 20.5521656231,
			"-0.004": 21.8176511679,
			"-0.003": 26.873987731,
			"-0.002": 26.9776382821,
			"-0.001": 21.3058151672,
			"0.0": 21.2155375482,
			"0.001": 19.0251805388,
			"0.002": 13.7971506638,
			"0.003": 18.6531552047,
			"0.004": 13.5072341831,
			"0.005": 7.28661669897,
			"0.006": 8.16433116067,
			"0.007": 10.8025029784,
			"0.008": 14.3613035574,
			"0.009": 8.64089549472,
			"0.01": 7.20941702261,
			"0.011": 6.54156695323,
			"0.012": 2.20542940236,
			"0.013": 0.0521120210868,
			"0.014": 0.0,
			"0.015": 0.0,
			"0.016": 0.0,
			"0.017": 0.0,
			"0.018": 0.0,
			"0.019": 0.0,
			"0.02": 0.0,
			"0.021": 0.0,
			"0.022": 0.0,
			"0.023": 0.0,
			"0.024": 0.0,
			"0.025": 0.0
		}
	}
}
