{
	 "smiles": "CSC1=NC=C(CO)N1CC1=CC=CC=C1", 
	 "Tm": 383.15, 
	 "num_atms": 30, 
	 "gaussian": { 
		 "optdone": 1, 
		 "sigma_profile": "yes", 
		 "theory": "DFT", 
		 "functional": "B3LYP", 
		 "basiset": "6-31G**", 
		 "properties": { 
			 "R2extent": 4444.229, 
			 "electric_dipole_moment_norm": 0.648650452863, 
			 "electric_quadrupole_moment_norm": 6.45743189666, 
			 "total_energy": -1048.61674668, 
			 "HOMO_LUMO_gap": 0.18975, 
			 "cosmo_polarized_energy": -12.16, 
			 "cosmo_cavitation_energy": 34.45, 
			 "cosmo_dispersion_energy": -24.64, 
			 "cosmo_repulsion_energy": 1.89, 
			 "cosmo_total_nonelectrostatic_energy": 11.7, 
			 "SMD_solvation_energy": 4.7 
		},
		"coords": [
			{
				"x": -4.2722692127,
				"y": -0.4630201887,
				"z": -1.3310449537,
				"element": "C" 
			},
			{
				"x": -2.4629569101,
				"y": -0.657071672,
				"z": -1.4835533772,
				"element": "S" 
			},
			{
				"x": -1.9596646462,
				"y": 0.7209981579,
				"z": -0.4880203615,
				"element": "C" 
			},
			{
				"x": -2.7535608184,
				"y": 1.4321448569,
				"z": 0.2876196353,
				"element": "N" 
			},
			{
				"x": -1.9347728598,
				"y": 2.3857474644,
				"z": 0.8483748133,
				"element": "C" 
			},
			{
				"x": -0.6376968374,
				"y": 2.2454356155,
				"z": 0.4206288143,
				"element": "C" 
			},
			{
				"x": 0.5937694534,
				"y": 3.0284926384,
				"z": 0.7285755159,
				"element": "C" 
			},
			{
				"x": 1.1691897295,
				"y": 3.6675203494,
				"z": -0.4194765636,
				"element": "O" 
			},
			{
				"x": -0.6609586133,
				"y": 1.1597366209,
				"z": -0.4565064502,
				"element": "N" 
			},
			{
				"x": 0.4822844682,
				"y": 0.644090851,
				"z": -1.2165346635,
				"element": "C" 
			},
			{
				"x": 1.4347702583,
				"y": -0.2128690987,
				"z": -0.4003512329,
				"element": "C" 
			},
			{
				"x": 2.7789359044,
				"y": 0.1583841302,
				"z": -0.2809063697,
				"element": "C" 
			},
			{
				"x": 3.6730442874,
				"y": -0.6309602107,
				"z": 0.4468788435,
				"element": "C" 
			},
			{
				"x": 3.2282128023,
				"y": -1.7985897849,
				"z": 1.0664013748,
				"element": "C" 
			},
			{
				"x": 1.88653438,
				"y": -2.1742650248,
				"z": 0.9545683371,
				"element": "C" 
			},
			{
				"x": 0.9959214605,
				"y": -1.3883867945,
				"z": 0.2247705685,
				"element": "C" 
			},
			{
				"x": -4.7094485554,
				"y": -1.3154675328,
				"z": -1.8544125884,
				"element": "H" 
			},
			{
				"x": -4.558158185,
				"y": -0.4704721204,
				"z": -0.2798667124,
				"element": "H" 
			},
			{
				"x": -4.5956585873,
				"y": 0.4708136967,
				"z": -1.7917350408,
				"element": "H" 
			},
			{
				"x": -2.3233743234,
				"y": 3.1218155323,
				"z": 1.5401850563,
				"element": "H" 
			},
			{
				"x": 0.3460800544,
				"y": 3.7584858891,
				"z": 1.5122768787,
				"element": "H" 
			},
			{
				"x": 1.3904739459,
				"y": 2.3872343892,
				"z": 1.118717576,
				"element": "H" 
			},
			{
				"x": 0.4723173367,
				"y": 4.2030335796,
				"z": -0.8232118337,
				"element": "H" 
			},
			{
				"x": 0.0743222243,
				"y": 0.0740580446,
				"z": -2.0575955456,
				"element": "H" 
			},
			{
				"x": 1.0149759157,
				"y": 1.5066067566,
				"z": -1.6230891006,
				"element": "H" 
			},
			{
				"x": 3.1246922781,
				"y": 1.0729279918,
				"z": -0.756346224,
				"element": "H" 
			},
			{
				"x": 4.7133391715,
				"y": -0.3298171675,
				"z": 0.5313133473,
				"element": "H" 
			},
			{
				"x": 3.9207878013,
				"y": -2.4134415428,
				"z": 1.634035461,
				"element": "H" 
			},
			{
				"x": 1.5344734782,
				"y": -3.0831300436,
				"z": 1.4342537915,
				"element": "H" 
			},
			{
				"x": -0.0455054012,
				"y": -1.6877353829,
				"z": 0.1407510044,
				"element": "H" 
			}
		],
		 "valence_orbital": [ 
			{
				"type": "occ",
				"energy": -0.26712,
				"method": "rhf"
			},
			{
				"type": "occ",
				"energy": -0.26573,
				"method": "rhf"
			},
			{
				"type": "occ",
				"energy": -0.25308,
				"method": "rhf"
			},
			{
				"type": "occ",
				"energy": -0.24804,
				"method": "rhf"
			},
			{
				"type": "occ",
				"energy": -0.20068,
				"method": "rhf"
			},
			{
				"type": "unocc",
				"energy": -0.01093,
				"method": "rhf"
			},
			{
				"type": "unocc",
				"energy": -0.00421,
				"method": "rhf"
			},
			{
				"type": "unocc",
				"energy": 0.01874,
				"method": "rhf"
			},
			{
				"type": "unocc",
				"energy": 0.02758,
				"method": "rhf"
			},
			{
				"type": "unocc",
				"energy": 0.06494,
				"method": "rhf"
			}
		],
		"cosmo_sigma_profile": { 
			"-0.025": 0.0,
			"-0.024": 0.0,
			"-0.023": 0.0,
			"-0.022": 0.0,
			"-0.021": 0.0,
			"-0.02": 0.0,
			"-0.019": 0.0,
			"-0.018": 0.0,
			"-0.017": 0.0,
			"-0.016": 0.199912668289,
			"-0.015": 0.723594064857,
			"-0.014": 0.920280170344,
			"-0.013": 1.2549821641,
			"-0.012": 0.671545186992,
			"-0.011": 0.529047549466,
			"-0.01": 1.13067220696,
			"-0.009": 0.638949604888,
			"-0.008": 0.785376678604,
			"-0.007": 3.4404585818,
			"-0.006": 12.0206401852,
			"-0.005": 23.4977417218,
			"-0.004": 26.3714339138,
			"-0.003": 24.4530711274,
			"-0.002": 23.9054477751,
			"-0.001": 22.5320220029,
			"0.0": 16.4547790486,
			"0.001": 16.3030003716,
			"0.002": 17.519183677,
			"0.003": 16.8454033173,
			"0.004": 16.4369461039,
			"0.005": 16.0721222644,
			"0.006": 9.79702555652,
			"0.007": 4.28123724975,
			"0.008": 3.31542134729,
			"0.009": 3.12347558039,
			"0.01": 2.6512658869,
			"0.011": 2.0740836759,
			"0.012": 2.12702090095,
			"0.013": 2.27078897751,
			"0.014": 2.08091283159,
			"0.015": 0.861899174409,
			"0.016": 0.320796258605,
			"0.017": 0.0,
			"0.018": 0.0,
			"0.019": 0.0,
			"0.02": 0.0,
			"0.021": 0.0,
			"0.022": 0.0,
			"0.023": 0.0,
			"0.024": 0.0,
			"0.025": 0.0
		}
	}
}
