{
	 "smiles": "OC(CC(O)=O)C(O)=O", 
	 "Tm": 404.15, 
	 "num_atms": 15, 
	 "gaussian": { 
		 "optdone": 1, 
		 "sigma_profile": "yes", 
		 "theory": "DFT", 
		 "functional": "B3LYP", 
		 "basiset": "6-31G**", 
		 "properties": { 
			 "R2extent": 1593.9994, 
			 "electric_dipole_moment_norm": 4.79496294668, 
			 "electric_quadrupole_moment_norm": 8.22226718856, 
			 "total_energy": -532.185529979, 
			 "HOMO_LUMO_gap": 0.24547, 
			 "cosmo_polarized_energy": -15.57, 
			 "cosmo_cavitation_energy": 19.24, 
			 "cosmo_dispersion_energy": -14.67, 
			 "cosmo_repulsion_energy": 1.22, 
			 "cosmo_total_nonelectrostatic_energy": 5.8, 
			 "SMD_solvation_energy": 5.64 
		},
		"coords": [
			{
				"x": 0.3323753999,
				"y": 2.0394992032,
				"z": 2.0546891365,
				"element": "O" 
			},
			{
				"x": 0.8697954268,
				"y": 1.0343252222,
				"z": 1.2400774213,
				"element": "C" 
			},
			{
				"x": -0.2924250127,
				"y": 0.3583131674,
				"z": 0.4754452749,
				"element": "C" 
			},
			{
				"x": 0.1255254659,
				"y": -0.4233081256,
				"z": -0.7431347388,
				"element": "C" 
			},
			{
				"x": -0.8510285714,
				"y": -0.5396833018,
				"z": -1.6499437076,
				"element": "O" 
			},
			{
				"x": 1.2308358512,
				"y": -0.9191934457,
				"z": -0.9222733153,
				"element": "O" 
			},
			{
				"x": 1.6830023202,
				"y": 0.0647438254,
				"z": 2.1272868133,
				"element": "C" 
			},
			{
				"x": 2.2966046011,
				"y": -0.9555113704,
				"z": 1.5393227088,
				"element": "O" 
			},
			{
				"x": 1.7557930169,
				"y": 0.2703198462,
				"z": 3.3227451032,
				"element": "O" 
			},
			{
				"x": 0.6563991889,
				"y": 1.8296945325,
				"z": 2.9518549483,
				"element": "H" 
			},
			{
				"x": 1.5667794797,
				"y": 1.4658683779,
				"z": 0.5023239593,
				"element": "H" 
			},
			{
				"x": -0.8533939463,
				"y": -0.3123099793,
				"z": 1.1391679726,
				"element": "H" 
			},
			{
				"x": -0.9926026397,
				"y": 1.1404387403,
				"z": 0.1713414782,
				"element": "H" 
			},
			{
				"x": -0.5021951769,
				"y": -1.078023346,
				"z": -2.3820430831,
				"element": "H" 
			},
			{
				"x": 2.0877345964,
				"y": -0.9746733464,
				"z": 0.5733400282,
				"element": "H" 
			}
		],
		 "valence_orbital": [ 
			{
				"type": "occ",
				"energy": -0.34486,
				"method": "rhf"
			},
			{
				"type": "occ",
				"energy": -0.32124,
				"method": "rhf"
			},
			{
				"type": "occ",
				"energy": -0.31952,
				"method": "rhf"
			},
			{
				"type": "occ",
				"energy": -0.28729,
				"method": "rhf"
			},
			{
				"type": "occ",
				"energy": -0.27978,
				"method": "rhf"
			},
			{
				"type": "unocc",
				"energy": -0.03431,
				"method": "rhf"
			},
			{
				"type": "unocc",
				"energy": 0.00157,
				"method": "rhf"
			},
			{
				"type": "unocc",
				"energy": 0.05007,
				"method": "rhf"
			},
			{
				"type": "unocc",
				"energy": 0.09741,
				"method": "rhf"
			},
			{
				"type": "unocc",
				"energy": 0.10722,
				"method": "rhf"
			}
		],
		"cosmo_sigma_profile": { 
			"-0.025": 0.0,
			"-0.024": 0.0,
			"-0.023": 0.0,
			"-0.022": 0.0,
			"-0.021": 0.0,
			"-0.02": 0.131007234351,
			"-0.019": 0.959133089965,
			"-0.018": 0.797476654343,
			"-0.017": 1.14472568144,
			"-0.016": 0.452644002791,
			"-0.015": 1.12759469601,
			"-0.014": 0.6744054947,
			"-0.013": 0.692490453752,
			"-0.012": 0.801189661336,
			"-0.011": 0.637074277794,
			"-0.01": 1.71044002555,
			"-0.009": 5.91519576085,
			"-0.008": 7.88637698799,
			"-0.007": 9.70610389787,
			"-0.006": 8.52109863623,
			"-0.005": 7.98274453348,
			"-0.004": 7.87018059417,
			"-0.003": 7.41290184045,
			"-0.002": 6.99253457336,
			"-0.001": 5.20843783151,
			"0.0": 5.76684866563,
			"0.001": 5.07620900424,
			"0.002": 4.20043995833,
			"0.003": 5.89295627075,
			"0.004": 6.03874307884,
			"0.005": 4.42097439421,
			"0.006": 5.50706756096,
			"0.007": 6.03566851886,
			"0.008": 7.58264913927,
			"0.009": 5.74575961586,
			"0.01": 8.03953242562,
			"0.011": 4.85489241775,
			"0.012": 3.68695252453,
			"0.013": 1.99846045946,
			"0.014": 0.391986523749,
			"0.015": 0.0,
			"0.016": 0.0,
			"0.017": 0.0,
			"0.018": 0.0,
			"0.019": 0.0,
			"0.02": 0.0,
			"0.021": 0.0,
			"0.022": 0.0,
			"0.023": 0.0,
			"0.024": 0.0,
			"0.025": 0.0
		}
	}
}
