{
	 "smiles": "CC1=CC(Br)=C(N)C(Br)=C1", 
	 "Tm": 347.15, 
	 "num_atms": 17, 
	 "gaussian": { 
		 "optdone": 1, 
		 "sigma_profile": "yes", 
		 "theory": "DFT", 
		 "functional": "B3LYP", 
		 "basiset": "6-31G**", 
		 "properties": { 
			 "R2extent": 3744.7801, 
			 "electric_dipole_moment_norm": 0.981734190094, 
			 "electric_quadrupole_moment_norm": 9.45458116312, 
			 "total_energy": -5468.53619192, 
			 "HOMO_LUMO_gap": 0.1917, 
			 "cosmo_polarized_energy": -5.75, 
			 "cosmo_cavitation_energy": 24.87, 
			 "cosmo_dispersion_energy": -19.46, 
			 "cosmo_repulsion_energy": 1.58, 
			 "cosmo_total_nonelectrostatic_energy": 6.99, 
			 "SMD_solvation_energy": 2.03 
		},
		"coords": [
			{
				"x": 0.6881789496,
				"y": -1.8491729418,
				"z": -2.331981391,
				"element": "C" 
			},
			{
				"x": 0.3459882409,
				"y": -1.0354803763,
				"z": -1.1059806004,
				"element": "C" 
			},
			{
				"x": -0.9831167555,
				"y": -0.8211243764,
				"z": -0.7262081632,
				"element": "C" 
			},
			{
				"x": -1.2900919381,
				"y": -0.0964996983,
				"z": 0.4185838841,
				"element": "C" 
			},
			{
				"x": -3.13677206,
				"y": 0.147465633,
				"z": 0.8793649156,
				"element": "Br" 
			},
			{
				"x": -0.3039406124,
				"y": 0.4681896835,
				"z": 1.254508819,
				"element": "C" 
			},
			{
				"x": -0.6160012887,
				"y": 1.2341762553,
				"z": 2.3544254412,
				"element": "N" 
			},
			{
				"x": 1.025855896,
				"y": 0.2295719237,
				"z": 0.8485393949,
				"element": "C" 
			},
			{
				"x": 2.4549825103,
				"y": 0.9347948747,
				"z": 1.9174681848,
				"element": "Br" 
			},
			{
				"x": 1.3472096025,
				"y": -0.4930372746,
				"z": -0.2935739087,
				"element": "C" 
			},
			{
				"x": -0.0899228234,
				"y": -1.7635497995,
				"z": -3.0963526624,
				"element": "H" 
			},
			{
				"x": 1.6326514944,
				"y": -1.5212314455,
				"z": -2.7763466128,
				"element": "H" 
			},
			{
				"x": 0.793237163,
				"y": -2.9144559125,
				"z": -2.0908601122,
				"element": "H" 
			},
			{
				"x": -1.7929243361,
				"y": -1.2235379281,
				"z": -1.3254387979,
				"element": "H" 
			},
			{
				"x": -1.5468435104,
				"y": 1.1187578307,
				"z": 2.7273844242,
				"element": "H" 
			},
			{
				"x": 0.1183758128,
				"y": 1.3531675279,
				"z": 3.0366419755,
				"element": "H" 
			},
			{
				"x": 2.3921336551,
				"y": -0.634333976,
				"z": -0.5484747906,
				"element": "H" 
			}
		],
		 "valence_orbital": [ 
			{
				"type": "occ",
				"energy": -0.29941,
				"method": "rhf"
			},
			{
				"type": "occ",
				"energy": -0.29467,
				"method": "rhf"
			},
			{
				"type": "occ",
				"energy": -0.29205,
				"method": "rhf"
			},
			{
				"type": "occ",
				"energy": -0.24185,
				"method": "rhf"
			},
			{
				"type": "occ",
				"energy": -0.20897,
				"method": "rhf"
			},
			{
				"type": "unocc",
				"energy": -0.01727,
				"method": "rhf"
			},
			{
				"type": "unocc",
				"energy": -0.0148,
				"method": "rhf"
			},
			{
				"type": "unocc",
				"energy": 0.00221,
				"method": "rhf"
			},
			{
				"type": "unocc",
				"energy": 0.02734,
				"method": "rhf"
			},
			{
				"type": "unocc",
				"energy": 0.09513,
				"method": "rhf"
			}
		],
		"cosmo_sigma_profile": { 
			"-0.025": 0.0,
			"-0.024": 0.0,
			"-0.023": 0.0,
			"-0.022": 0.0,
			"-0.021": 0.0,
			"-0.02": 0.0,
			"-0.019": 0.0,
			"-0.018": 0.0,
			"-0.017": 0.0,
			"-0.016": 0.0,
			"-0.015": 0.0,
			"-0.014": 0.0,
			"-0.013": 0.0,
			"-0.012": 0.851459895008,
			"-0.011": 1.55654028425,
			"-0.01": 1.98368505921,
			"-0.009": 2.66766296838,
			"-0.008": 1.71397810676,
			"-0.007": 2.30229538068,
			"-0.006": 5.6599625059,
			"-0.005": 8.2953076761,
			"-0.004": 14.6756489983,
			"-0.003": 12.6684788862,
			"-0.002": 15.0312498368,
			"-0.001": 17.2095956378,
			"0.0": 18.9600765559,
			"0.001": 16.3549327042,
			"0.002": 20.5175547098,
			"0.003": 26.305619336,
			"0.004": 25.6946317736,
			"0.005": 7.59065934194,
			"0.006": 0.792372109077,
			"0.007": 0.898912884791,
			"0.008": 0.66386267293,
			"0.009": 0.78551158557,
			"0.01": 0.426956562904,
			"0.011": 0.711351681937,
			"0.012": 0.317788030918,
			"0.013": 0.0,
			"0.014": 0.0,
			"0.015": 0.0,
			"0.016": 0.0,
			"0.017": 0.0,
			"0.018": 0.0,
			"0.019": 0.0,
			"0.02": 0.0,
			"0.021": 0.0,
			"0.022": 0.0,
			"0.023": 0.0,
			"0.024": 0.0,
			"0.025": 0.0
		}
	}
}
