{
	 "smiles": "CC1=CC(C(=O)CCl)=C(C)N1CC1=CC=C(F)C=C1", 
	 "Tm": 368.15, 
	 "num_atms": 34, 
	 "gaussian": { 
		 "optdone": 1, 
		 "sigma_profile": "yes", 
		 "theory": "DFT", 
		 "functional": "B3LYP", 
		 "basiset": "6-31G**", 
		 "properties": { 
			 "R2extent": 8344.6922, 
			 "electric_dipole_moment_norm": 4.55374301207, 
			 "electric_quadrupole_moment_norm": 29.9679080136, 
			 "total_energy": -1270.64834978, 
			 "HOMO_LUMO_gap": 0.16838, 
			 "cosmo_polarized_energy": -13.31, 
			 "cosmo_cavitation_energy": 39.53, 
			 "cosmo_dispersion_energy": -27.06, 
			 "cosmo_repulsion_energy": 2.08, 
			 "cosmo_total_nonelectrostatic_energy": 14.54, 
			 "SMD_solvation_energy": 7.28 
		},
		"coords": [
			{
				"x": 2.9932915009,
				"y": -0.9127340159,
				"z": 0.3431134337,
				"element": "C" 
			},
			{
				"x": 1.7971108844,
				"y": -1.5645306547,
				"z": -0.2721977169,
				"element": "C" 
			},
			{
				"x": 1.701083023,
				"y": -2.4053790653,
				"z": -1.347965985,
				"element": "C" 
			},
			{
				"x": 0.3205115072,
				"y": -2.764675691,
				"z": -1.5145668564,
				"element": "C" 
			},
			{
				"x": -0.2505470815,
				"y": -3.624159418,
				"z": -2.5474755698,
				"element": "C" 
			},
			{
				"x": -1.4483274695,
				"y": -3.8678439145,
				"z": -2.6696697786,
				"element": "O" 
			},
			{
				"x": 0.7034846758,
				"y": -4.2314581753,
				"z": -3.5863916991,
				"element": "C" 
			},
			{
				"x": 1.7527690619,
				"y": -5.535334602,
				"z": -2.8746627373,
				"element": "Cl" 
			},
			{
				"x": -0.3977269969,
				"y": -2.1115081155,
				"z": -0.5060978988,
				"element": "C" 
			},
			{
				"x": -1.8612493525,
				"y": -2.1254717108,
				"z": -0.1990704035,
				"element": "C" 
			},
			{
				"x": 0.5065346505,
				"y": -1.3940922292,
				"z": 0.2386422401,
				"element": "N" 
			},
			{
				"x": 0.1706402719,
				"y": -0.5189973337,
				"z": 1.3519538101,
				"element": "C" 
			},
			{
				"x": 0.0274126117,
				"y": 0.953173531,
				"z": 0.985168256,
				"element": "C" 
			},
			{
				"x": -0.1667634554,
				"y": 1.3761548038,
				"z": -0.3341446925,
				"element": "C" 
			},
			{
				"x": -0.3334447395,
				"y": 2.7296856851,
				"z": -0.6342606056,
				"element": "C" 
			},
			{
				"x": -0.305791643,
				"y": 3.654120023,
				"z": 0.401796433,
				"element": "C" 
			},
			{
				"x": -0.4648147005,
				"y": 4.9632617835,
				"z": 0.119616516,
				"element": "F" 
			},
			{
				"x": -0.1121715764,
				"y": 3.2678941486,
				"z": 1.7243024699,
				"element": "C" 
			},
			{
				"x": 0.0564285264,
				"y": 1.9137273779,
				"z": 2.0056279388,
				"element": "C" 
			},
			{
				"x": 2.9035101814,
				"y": 0.1795067175,
				"z": 0.3739603244,
				"element": "H" 
			},
			{
				"x": 3.1751078151,
				"y": -1.2568128783,
				"z": 1.3696857205,
				"element": "H" 
			},
			{
				"x": 3.8803229985,
				"y": -1.1592801452,
				"z": -0.2446519391,
				"element": "H" 
			},
			{
				"x": 2.5358321275,
				"y": -2.754669953,
				"z": -1.938312443,
				"element": "H" 
			},
			{
				"x": 1.3771434605,
				"y": -3.485426823,
				"z": -4.0121517323,
				"element": "H" 
			},
			{
				"x": 0.1031319711,
				"y": -4.6966215476,
				"z": -4.3659565377,
				"element": "H" 
			},
			{
				"x": -2.0670129105,
				"y": -2.5937842984,
				"z": 0.7723591545,
				"element": "H" 
			},
			{
				"x": -2.2841077055,
				"y": -1.1139964315,
				"z": -0.1740418786,
				"element": "H" 
			},
			{
				"x": -2.3711691019,
				"y": -2.702493491,
				"z": -0.9690981129,
				"element": "H" 
			},
			{
				"x": -0.7620765486,
				"y": -0.8849101823,
				"z": 1.7917591132,
				"element": "H" 
			},
			{
				"x": 0.9384376646,
				"y": -0.6321012237,
				"z": 2.1238756515,
				"element": "H" 
			},
			{
				"x": -0.1806598909,
				"y": 0.6473070756,
				"z": -1.1381419255,
				"element": "H" 
			},
			{
				"x": -0.4815849105,
				"y": 3.0703709418,
				"z": -1.6532359986,
				"element": "H" 
			},
			{
				"x": -0.0895781276,
				"y": 4.0199588124,
				"z": 2.5054493389,
				"element": "H" 
			},
			{
				"x": 0.2132732781,
				"y": 1.6025210001,
				"z": 3.0357841108,
				"element": "H" 
			}
		],
		 "valence_orbital": [ 
			{
				"type": "occ",
				"energy": -0.27241,
				"method": "rhf"
			},
			{
				"type": "occ",
				"energy": -0.25292,
				"method": "rhf"
			},
			{
				"type": "occ",
				"energy": -0.24753,
				"method": "rhf"
			},
			{
				"type": "occ",
				"energy": -0.24223,
				"method": "rhf"
			},
			{
				"type": "occ",
				"energy": -0.21251,
				"method": "rhf"
			},
			{
				"type": "unocc",
				"energy": -0.04413,
				"method": "rhf"
			},
			{
				"type": "unocc",
				"energy": -0.02485,
				"method": "rhf"
			},
			{
				"type": "unocc",
				"energy": -0.01227,
				"method": "rhf"
			},
			{
				"type": "unocc",
				"energy": 0.02484,
				"method": "rhf"
			},
			{
				"type": "unocc",
				"energy": 0.0408,
				"method": "rhf"
			}
		],
		"cosmo_sigma_profile": { 
			"-0.025": 0.0,
			"-0.024": 0.0,
			"-0.023": 0.0,
			"-0.022": 0.0,
			"-0.021": 0.0,
			"-0.02": 0.0,
			"-0.019": 0.0,
			"-0.018": 0.0,
			"-0.017": 0.0,
			"-0.016": 0.0,
			"-0.015": 0.0,
			"-0.014": 0.0,
			"-0.013": 0.0,
			"-0.012": 0.0,
			"-0.011": 0.0,
			"-0.01": 0.0,
			"-0.009": 0.0222509698917,
			"-0.008": 2.3885826944,
			"-0.007": 13.6808901474,
			"-0.006": 19.1001459227,
			"-0.005": 22.8238496124,
			"-0.004": 24.9206624562,
			"-0.003": 22.9616361818,
			"-0.002": 20.0879917318,
			"-0.001": 24.1744953092,
			"0.0": 24.499691405,
			"0.001": 22.4809416843,
			"0.002": 21.1013103144,
			"0.003": 22.8823745242,
			"0.004": 28.9506687616,
			"0.005": 17.0453256988,
			"0.006": 13.5479738394,
			"0.007": 3.24881562175,
			"0.008": 1.87040068228,
			"0.009": 1.65050102788,
			"0.01": 2.1075831775,
			"0.011": 2.41614566637,
			"0.012": 2.62493654463,
			"0.013": 1.83188258276,
			"0.014": 0.189004557338,
			"0.015": 0.0,
			"0.016": 0.0,
			"0.017": 0.0,
			"0.018": 0.0,
			"0.019": 0.0,
			"0.02": 0.0,
			"0.021": 0.0,
			"0.022": 0.0,
			"0.023": 0.0,
			"0.024": 0.0,
			"0.025": 0.0
		}
	}
}
