{
	 "smiles": "COC(=O)C1=CC(Cl)=NC=C1", 
	 "Tm": 305.15, 
	 "num_atms": 17, 
	 "gaussian": { 
		 "optdone": 1, 
		 "sigma_profile": "yes", 
		 "theory": "DFT", 
		 "functional": "B3LYP", 
		 "basiset": "6-31G**", 
		 "properties": { 
			 "R2extent": 3818.0826, 
			 "electric_dipole_moment_norm": 2.89813554548, 
			 "electric_quadrupole_moment_norm": 14.7004894225, 
			 "total_energy": -935.755660682, 
			 "HOMO_LUMO_gap": 0.19173, 
			 "cosmo_polarized_energy": -8.5, 
			 "cosmo_cavitation_energy": 24.01, 
			 "cosmo_dispersion_energy": -17.86, 
			 "cosmo_repulsion_energy": 1.44, 
			 "cosmo_total_nonelectrostatic_energy": 7.59, 
			 "SMD_solvation_energy": 4.22 
		},
		"coords": [
			{
				"x": -3.0474222596,
				"y": -0.2086478143,
				"z": -0.0622510952,
				"element": "C" 
			},
			{
				"x": -1.8735480533,
				"y": -0.7359781421,
				"z": 0.5813315052,
				"element": "O" 
			},
			{
				"x": -0.998216407,
				"y": 0.1849432554,
				"z": 1.0273851534,
				"element": "C" 
			},
			{
				"x": -1.1566293976,
				"y": 1.3827497311,
				"z": 0.9115701872,
				"element": "O" 
			},
			{
				"x": 0.1951401296,
				"y": -0.4381132201,
				"z": 1.684032937,
				"element": "C" 
			},
			{
				"x": 0.3487681925,
				"y": -1.8205264275,
				"z": 1.8019087971,
				"element": "C" 
			},
			{
				"x": 1.5066155295,
				"y": -2.2794799768,
				"z": 2.4351997101,
				"element": "C" 
			},
			{
				"x": 1.7340615684,
				"y": -4.018267118,
				"z": 2.6017745167,
				"element": "Cl" 
			},
			{
				"x": 2.4579686333,
				"y": -1.5064121406,
				"z": 2.9261313622,
				"element": "N" 
			},
			{
				"x": 2.2954598464,
				"y": -0.1798458977,
				"z": 2.8049689853,
				"element": "C" 
			},
			{
				"x": 1.1890739672,
				"y": 0.4035876939,
				"z": 2.1960824513,
				"element": "C" 
			},
			{
				"x": -3.6352817326,
				"y": -1.0775822144,
				"z": -0.355357195,
				"element": "H" 
			},
			{
				"x": -2.7692879526,
				"y": 0.3834092682,
				"z": -0.9373920023,
				"element": "H" 
			},
			{
				"x": -3.609816054,
				"y": 0.4237553948,
				"z": 0.6287936648,
				"element": "H" 
			},
			{
				"x": -0.3950628215,
				"y": -2.5068171293,
				"z": 1.4201872736,
				"element": "H" 
			},
			{
				"x": 3.0918546892,
				"y": 0.4353441704,
				"z": 3.2167829464,
				"element": "H" 
			},
			{
				"x": 1.0830221222,
				"y": 1.478680567,
				"z": 2.1116508022,
				"element": "H" 
			}
		],
		 "valence_orbital": [ 
			{
				"type": "occ",
				"energy": -0.31963,
				"method": "rhf"
			},
			{
				"type": "occ",
				"energy": -0.30648,
				"method": "rhf"
			},
			{
				"type": "occ",
				"energy": -0.29452,
				"method": "rhf"
			},
			{
				"type": "occ",
				"energy": -0.28297,
				"method": "rhf"
			},
			{
				"type": "occ",
				"energy": -0.26755,
				"method": "rhf"
			},
			{
				"type": "unocc",
				"energy": -0.07582,
				"method": "rhf"
			},
			{
				"type": "unocc",
				"energy": -0.0321,
				"method": "rhf"
			},
			{
				"type": "unocc",
				"energy": 0.03006,
				"method": "rhf"
			},
			{
				"type": "unocc",
				"energy": 0.03356,
				"method": "rhf"
			},
			{
				"type": "unocc",
				"energy": 0.09503,
				"method": "rhf"
			}
		],
		"cosmo_sigma_profile": { 
			"-0.025": 0.0,
			"-0.024": 0.0,
			"-0.023": 0.0,
			"-0.022": 0.0,
			"-0.021": 0.0,
			"-0.02": 0.0,
			"-0.019": 0.0,
			"-0.018": 0.0,
			"-0.017": 0.0,
			"-0.016": 0.0,
			"-0.015": 0.0,
			"-0.014": 0.0,
			"-0.013": 0.0,
			"-0.012": 0.0,
			"-0.011": 0.0,
			"-0.01": 0.0,
			"-0.009": 0.0195066587561,
			"-0.008": 3.45055660246,
			"-0.007": 6.80406188649,
			"-0.006": 11.1532031679,
			"-0.005": 12.9999631424,
			"-0.004": 15.2357840444,
			"-0.003": 13.8932517674,
			"-0.002": 16.8210635406,
			"-0.001": 23.6299258199,
			"0.0": 16.6847016043,
			"0.001": 10.6215123739,
			"0.002": 9.03532642866,
			"0.003": 11.4848094193,
			"0.004": 12.6744559136,
			"0.005": 6.57304943811,
			"0.006": 3.55332042536,
			"0.007": 3.32942907556,
			"0.008": 2.77613675226,
			"0.009": 3.29288877011,
			"0.01": 3.46944920679,
			"0.011": 4.93760002234,
			"0.012": 1.46461562753,
			"0.013": 1.0640580891,
			"0.014": 0.287440757851,
			"0.015": 0.0,
			"0.016": 0.0,
			"0.017": 0.0,
			"0.018": 0.0,
			"0.019": 0.0,
			"0.02": 0.0,
			"0.021": 0.0,
			"0.022": 0.0,
			"0.023": 0.0,
			"0.024": 0.0,
			"0.025": 0.0
		}
	}
}
