{
	 "smiles": "CCOC(=O)C(=CNC1=CC=C(CC)C=C1)C#N", 
	 "Tm": 371.15, 
	 "num_atms": 34, 
	 "gaussian": { 
		 "optdone": 1, 
		 "sigma_profile": "yes", 
		 "theory": "DFT", 
		 "functional": "B3LYP", 
		 "basiset": "6-31G**", 
		 "properties": { 
			 "R2extent": 7524.7545, 
			 "electric_dipole_moment_norm": 8.72178809018, 
			 "electric_quadrupole_moment_norm": 39.9224082999, 
			 "total_energy": -803.089570568, 
			 "HOMO_LUMO_gap": 0.15923, 
			 "cosmo_polarized_energy": -19.8, 
			 "cosmo_cavitation_energy": 39.52, 
			 "cosmo_dispersion_energy": -26.98, 
			 "cosmo_repulsion_energy": 2.12, 
			 "cosmo_total_nonelectrostatic_energy": 14.67, 
			 "SMD_solvation_energy": 9.17 
		},
		"coords": [
			{
				"x": -4.4911385668,
				"y": -1.0459968716,
				"z": -2.1267849336,
				"element": "C" 
			},
			{
				"x": -3.2215009768,
				"y": -0.7672267044,
				"z": -2.9156061939,
				"element": "C" 
			},
			{
				"x": -2.039652919,
				"y": -1.1896333034,
				"z": -2.1856381598,
				"element": "O" 
			},
			{
				"x": -1.6933732047,
				"y": -2.5133106972,
				"z": -2.3132184435,
				"element": "C" 
			},
			{
				"x": -2.3165411885,
				"y": -3.2903926293,
				"z": -3.005118869,
				"element": "O" 
			},
			{
				"x": -0.4956495841,
				"y": -2.8559857128,
				"z": -1.5273980466,
				"element": "C" 
			},
			{
				"x": 0.2294488044,
				"y": -2.0097611057,
				"z": -0.7124340424,
				"element": "C" 
			},
			{
				"x": 0.0005846368,
				"y": -0.7050428875,
				"z": -0.4814667776,
				"element": "N" 
			},
			{
				"x": 0.722378292,
				"y": 0.140852995,
				"z": 0.3864224383,
				"element": "C" 
			},
			{
				"x": 1.5687301497,
				"y": -0.344570512,
				"z": 1.3920391901,
				"element": "C" 
			},
			{
				"x": 2.2557627201,
				"y": 0.5498144633,
				"z": 2.2099169095,
				"element": "C" 
			},
			{
				"x": 2.114415219,
				"y": 1.9369639529,
				"z": 2.0717428606,
				"element": "C" 
			},
			{
				"x": 2.8934750037,
				"y": 2.8954695114,
				"z": 2.9462096976,
				"element": "C" 
			},
			{
				"x": 4.2641764997,
				"y": 3.2696937336,
				"z": 2.3531411703,
				"element": "C" 
			},
			{
				"x": 1.2477084689,
				"y": 2.4034955187,
				"z": 1.074336733,
				"element": "C" 
			},
			{
				"x": 0.5626717801,
				"y": 1.5255489935,
				"z": 0.239775293,
				"element": "C" 
			},
			{
				"x": -0.0440245271,
				"y": -4.2072758609,
				"z": -1.62404065,
				"element": "C" 
			},
			{
				"x": 0.3552108235,
				"y": -5.2998919529,
				"z": -1.6749050235,
				"element": "N" 
			},
			{
				"x": -4.6288187293,
				"y": -2.1211187319,
				"z": -1.9914808517,
				"element": "H" 
			},
			{
				"x": -4.4578609559,
				"y": -0.5648648468,
				"z": -1.1445922153,
				"element": "H" 
			},
			{
				"x": -5.3570262115,
				"y": -0.6546167205,
				"z": -2.6710887764,
				"element": "H" 
			},
			{
				"x": -3.0719452255,
				"y": 0.303389445,
				"z": -3.076268306,
				"element": "H" 
			},
			{
				"x": -3.2328158848,
				"y": -1.2807885504,
				"z": -3.8788075244,
				"element": "H" 
			},
			{
				"x": 1.0908506321,
				"y": -2.429494689,
				"z": -0.2042845057,
				"element": "H" 
			},
			{
				"x": -0.7731617815,
				"y": -0.302097449,
				"z": -1.0008763673,
				"element": "H" 
			},
			{
				"x": 1.6770232723,
				"y": -1.4103267253,
				"z": 1.5629577375,
				"element": "H" 
			},
			{
				"x": 2.9046414976,
				"y": 0.1548002854,
				"z": 2.9876150157,
				"element": "H" 
			},
			{
				"x": 3.0390903216,
				"y": 2.4489753044,
				"z": 3.9370355317,
				"element": "H" 
			},
			{
				"x": 2.3057968252,
				"y": 3.808158982,
				"z": 3.1009310243,
				"element": "H" 
			},
			{
				"x": 4.1514991055,
				"y": 3.7485232171,
				"z": 1.3750364285,
				"element": "H" 
			},
			{
				"x": 4.7985601049,
				"y": 3.9626814489,
				"z": 3.0111465032,
				"element": "H" 
			},
			{
				"x": 4.8888004391,
				"y": 2.3809934364,
				"z": 2.2166620389,
				"element": "H" 
			},
			{
				"x": 1.1063182902,
				"y": 3.4735748113,
				"z": 0.944858262,
				"element": "H" 
			},
			{
				"x": -0.0949331309,
				"y": 1.9117598515,
				"z": -0.5349171477,
				"element": "H" 
			}
		],
		 "valence_orbital": [ 
			{
				"type": "occ",
				"energy": -0.30804,
				"method": "rhf"
			},
			{
				"type": "occ",
				"energy": -0.28134,
				"method": "rhf"
			},
			{
				"type": "occ",
				"energy": -0.27158,
				"method": "rhf"
			},
			{
				"type": "occ",
				"energy": -0.27001,
				"method": "rhf"
			},
			{
				"type": "occ",
				"energy": -0.21808,
				"method": "rhf"
			},
			{
				"type": "unocc",
				"energy": -0.05885,
				"method": "rhf"
			},
			{
				"type": "unocc",
				"energy": -0.02238,
				"method": "rhf"
			},
			{
				"type": "unocc",
				"energy": 0.00166,
				"method": "rhf"
			},
			{
				"type": "unocc",
				"energy": 0.03471,
				"method": "rhf"
			},
			{
				"type": "unocc",
				"energy": 0.04625,
				"method": "rhf"
			}
		],
		"cosmo_sigma_profile": { 
			"-0.025": 0.0,
			"-0.024": 0.0,
			"-0.023": 0.0,
			"-0.022": 0.0,
			"-0.021": 0.0,
			"-0.02": 0.0,
			"-0.019": 0.0,
			"-0.018": 0.0,
			"-0.017": 0.0,
			"-0.016": 0.0,
			"-0.015": 0.0,
			"-0.014": 0.0,
			"-0.013": 0.0782716993306,
			"-0.012": 1.22147898988,
			"-0.011": 2.85668953893,
			"-0.01": 2.81035023552,
			"-0.009": 3.31770016349,
			"-0.008": 3.85481868185,
			"-0.007": 4.98669908711,
			"-0.006": 9.00412483136,
			"-0.005": 16.0775783763,
			"-0.004": 24.950726472,
			"-0.003": 30.6681395626,
			"-0.002": 34.2964362214,
			"-0.001": 34.3792074993,
			"0.0": 34.936909164,
			"0.001": 22.2601996153,
			"0.002": 13.3832485636,
			"0.003": 10.2655129023,
			"0.004": 11.0369478163,
			"0.005": 12.000168661,
			"0.006": 3.52023465074,
			"0.007": 4.48031843667,
			"0.008": 5.15863901112,
			"0.009": 5.34463226654,
			"0.01": 5.86527052548,
			"0.011": 6.54487463554,
			"0.012": 6.84156097526,
			"0.013": 2.94654311234,
			"0.014": 1.41492317169,
			"0.015": 0.0126934901469,
			"0.016": 0.0,
			"0.017": 0.0,
			"0.018": 0.0,
			"0.019": 0.0,
			"0.02": 0.0,
			"0.021": 0.0,
			"0.022": 0.0,
			"0.023": 0.0,
			"0.024": 0.0,
			"0.025": 0.0
		}
	}
}
