{
	 "smiles": "ClC1=CC(Cl)=C(Cl)N=C1", 
	 "Tm": 322.15, 
	 "num_atms": 11, 
	 "gaussian": { 
		 "optdone": 1, 
		 "sigma_profile": "yes", 
		 "theory": "DFT", 
		 "functional": "B3LYP", 
		 "basiset": "6-31G**", 
		 "properties": { 
			 "R2extent": 3141.8496, 
			 "electric_dipole_moment_norm": 1.80174152974, 
			 "electric_quadrupole_moment_norm": 4.44415624613, 
			 "total_energy": -1627.05244884, 
			 "HOMO_LUMO_gap": 0.20438, 
			 "cosmo_polarized_energy": -5.06, 
			 "cosmo_cavitation_energy": 21.21, 
			 "cosmo_dispersion_energy": -16.34, 
			 "cosmo_repulsion_energy": 1.34, 
			 "cosmo_total_nonelectrostatic_energy": 6.22, 
			 "SMD_solvation_energy": 1.59 
		},
		"coords": [
			{
				"x": 2.8792760334,
				"y": -2.1080557096,
				"z": -0.4423996704,
				"element": "Cl" 
			},
			{
				"x": 1.3225434918,
				"y": -1.6214375995,
				"z": 0.1806263826,
				"element": "C" 
			},
			{
				"x": 0.3606519099,
				"y": -2.5764281694,
				"z": 0.5008465996,
				"element": "C" 
			},
			{
				"x": -0.8677438547,
				"y": -2.1410769154,
				"z": 0.9951352482,
				"element": "C" 
			},
			{
				"x": -2.0840531632,
				"y": -3.3178201381,
				"z": 1.4016026761,
				"element": "Cl" 
			},
			{
				"x": -1.0737753101,
				"y": -0.7580862974,
				"z": 1.1456301452,
				"element": "C" 
			},
			{
				"x": -2.5881031217,
				"y": -0.1419045268,
				"z": 1.7591035978,
				"element": "Cl" 
			},
			{
				"x": -0.1498874608,
				"y": 0.1352974838,
				"z": 0.836817562,
				"element": "N" 
			},
			{
				"x": 1.0292120615,
				"y": -0.2693721865,
				"z": 0.3630294528,
				"element": "C" 
			},
			{
				"x": 0.5546285821,
				"y": -3.6345092651,
				"z": 0.3717718838,
				"element": "H" 
			},
			{
				"x": 1.7596508319,
				"y": 0.4976933241,
				"z": 0.1220361223,
				"element": "H" 
			}
		],
		 "valence_orbital": [ 
			{
				"type": "occ",
				"energy": -0.33881,
				"method": "rhf"
			},
			{
				"type": "occ",
				"energy": -0.32378,
				"method": "rhf"
			},
			{
				"type": "occ",
				"energy": -0.30092,
				"method": "rhf"
			},
			{
				"type": "occ",
				"energy": -0.29462,
				"method": "rhf"
			},
			{
				"type": "occ",
				"energy": -0.26585,
				"method": "rhf"
			},
			{
				"type": "unocc",
				"energy": -0.06147,
				"method": "rhf"
			},
			{
				"type": "unocc",
				"energy": -0.04881,
				"method": "rhf"
			},
			{
				"type": "unocc",
				"energy": -0.01308,
				"method": "rhf"
			},
			{
				"type": "unocc",
				"energy": 0.01748,
				"method": "rhf"
			},
			{
				"type": "unocc",
				"energy": 0.04827,
				"method": "rhf"
			}
		],
		"cosmo_sigma_profile": { 
			"-0.025": 0.0,
			"-0.024": 0.0,
			"-0.023": 0.0,
			"-0.022": 0.0,
			"-0.021": 0.0,
			"-0.02": 0.0,
			"-0.019": 0.0,
			"-0.018": 0.0,
			"-0.017": 0.0,
			"-0.016": 0.0,
			"-0.015": 0.0,
			"-0.014": 0.0,
			"-0.013": 0.0,
			"-0.012": 0.0,
			"-0.011": 0.213451775578,
			"-0.01": 1.29835377798,
			"-0.009": 3.2616024267,
			"-0.008": 2.97274809026,
			"-0.007": 3.55003920948,
			"-0.006": 2.97828240872,
			"-0.005": 3.83749210101,
			"-0.004": 7.23317907533,
			"-0.003": 16.4784364918,
			"-0.002": 23.2790156379,
			"-0.001": 16.7556703316,
			"0.0": 12.5607740599,
			"0.001": 15.4143004981,
			"0.002": 17.2630564416,
			"0.003": 27.2880286125,
			"0.004": 12.7031396036,
			"0.005": 3.43821158598,
			"0.006": 1.76016520875,
			"0.007": 1.23280564657,
			"0.008": 0.724728070231,
			"0.009": 1.30726971948,
			"0.01": 1.10769122503,
			"0.011": 0.687365323837,
			"0.012": 0.934945695136,
			"0.013": 0.286817463976,
			"0.014": 0.0,
			"0.015": 0.0,
			"0.016": 0.0,
			"0.017": 0.0,
			"0.018": 0.0,
			"0.019": 0.0,
			"0.02": 0.0,
			"0.021": 0.0,
			"0.022": 0.0,
			"0.023": 0.0,
			"0.024": 0.0,
			"0.025": 0.0
		}
	}
}
