{
	 "smiles": "CCC1=C(Cl)C=C(C(O)=C1Cl)[N+]([O-])=O", 
	 "Tm": 323.15, 
	 "num_atms": 21, 
	 "gaussian": { 
		 "optdone": 1, 
		 "sigma_profile": "yes", 
		 "theory": "DFT", 
		 "functional": "B3LYP", 
		 "basiset": "6-31G**", 
		 "properties": { 
			 "R2extent": 5167.5681, 
			 "electric_dipole_moment_norm": 5.05923176184, 
			 "electric_quadrupole_moment_norm": 18.5824126162, 
			 "total_energy": -1509.77109343, 
			 "HOMO_LUMO_gap": 0.16111, 
			 "cosmo_polarized_energy": -10.66, 
			 "cosmo_cavitation_energy": 28.71, 
			 "cosmo_dispersion_energy": -21.25, 
			 "cosmo_repulsion_energy": 1.66, 
			 "cosmo_total_nonelectrostatic_energy": 9.12, 
			 "SMD_solvation_energy": 7.05 
		},
		"coords": [
			{
				"x": -2.6450053769,
				"y": 0.9555820617,
				"z": -0.0807055269,
				"element": "C" 
			},
			{
				"x": -2.2044974971,
				"y": -0.5183469627,
				"z": 0.0094772337,
				"element": "C" 
			},
			{
				"x": -1.071112423,
				"y": -0.727093259,
				"z": 0.9868561598,
				"element": "C" 
			},
			{
				"x": -1.2994332345,
				"y": -0.9874001315,
				"z": 2.3531097431,
				"element": "C" 
			},
			{
				"x": -2.9400493874,
				"y": -1.0969164798,
				"z": 2.9752300464,
				"element": "Cl" 
			},
			{
				"x": -0.2597965101,
				"y": -1.1631626218,
				"z": 3.2504857101,
				"element": "C" 
			},
			{
				"x": 1.0621192651,
				"y": -1.0918512092,
				"z": 2.8163509094,
				"element": "C" 
			},
			{
				"x": 1.3692698699,
				"y": -0.8247047952,
				"z": 1.4676910852,
				"element": "C" 
			},
			{
				"x": 2.6366002071,
				"y": -0.7251837786,
				"z": 1.0461074966,
				"element": "O" 
			},
			{
				"x": 0.2707692104,
				"y": -0.6437852694,
				"z": 0.597062896,
				"element": "C" 
			},
			{
				"x": 0.680194926,
				"y": -0.2850661505,
				"z": -1.0840092837,
				"element": "Cl" 
			},
			{
				"x": 2.1050962501,
				"y": -1.3097729785,
				"z": 3.8302151684,
				"element": "N" 
			},
			{
				"x": 3.2502429473,
				"y": -1.5298121468,
				"z": 3.4514359491,
				"element": "O" 
			},
			{
				"x": 1.7487782774,
				"y": -1.2702235782,
				"z": 5.0100748825,
				"element": "O" 
			},
			{
				"x": -2.9899873823,
				"y": 1.3230076293,
				"z": 0.8897078618,
				"element": "H" 
			},
			{
				"x": -1.8234782999,
				"y": 1.5946872392,
				"z": -0.4168636346,
				"element": "H" 
			},
			{
				"x": -3.4679998473,
				"y": 1.0571435209,
				"z": -0.7943705935,
				"element": "H" 
			},
			{
				"x": -3.05258434,
				"y": -1.1323543094,
				"z": 0.3215914923,
				"element": "H" 
			},
			{
				"x": -1.898388634,
				"y": -0.8705881345,
				"z": -0.9784867152,
				"element": "H" 
			},
			{
				"x": -0.446231006,
				"y": -1.3560798835,
				"z": 4.2983083849,
				"element": "H" 
			},
			{
				"x": 2.6306929853,
				"y": -0.5053787628,
				"z": 0.0996307344,
				"element": "H" 
			}
		],
		 "valence_orbital": [ 
			{
				"type": "occ",
				"energy": -0.30916,
				"method": "rhf"
			},
			{
				"type": "occ",
				"energy": -0.30769,
				"method": "rhf"
			},
			{
				"type": "occ",
				"energy": -0.29203,
				"method": "rhf"
			},
			{
				"type": "occ",
				"energy": -0.28148,
				"method": "rhf"
			},
			{
				"type": "occ",
				"energy": -0.25344,
				"method": "rhf"
			},
			{
				"type": "unocc",
				"energy": -0.09233,
				"method": "rhf"
			},
			{
				"type": "unocc",
				"energy": -0.03574,
				"method": "rhf"
			},
			{
				"type": "unocc",
				"energy": -0.02041,
				"method": "rhf"
			},
			{
				"type": "unocc",
				"energy": -0.01536,
				"method": "rhf"
			},
			{
				"type": "unocc",
				"energy": 0.02925,
				"method": "rhf"
			}
		],
		"cosmo_sigma_profile": { 
			"-0.025": 0.0,
			"-0.024": 0.0,
			"-0.023": 0.0,
			"-0.022": 0.0,
			"-0.021": 0.0,
			"-0.02": 0.0,
			"-0.019": 0.0,
			"-0.018": 0.0,
			"-0.017": 0.0211867542901,
			"-0.016": 0.349927487886,
			"-0.015": 0.870405969994,
			"-0.014": 0.583906418657,
			"-0.013": 0.955306951195,
			"-0.012": 0.884417654815,
			"-0.011": 0.508747002048,
			"-0.01": 1.17029419396,
			"-0.009": 1.05966843836,
			"-0.008": 1.85330834218,
			"-0.007": 3.45526524103,
			"-0.006": 4.3997767224,
			"-0.005": 6.16187356264,
			"-0.004": 12.9985076723,
			"-0.003": 25.2304339492,
			"-0.002": 32.8855408642,
			"-0.001": 29.7386838368,
			"0.0": 26.286328388,
			"0.001": 16.0173546565,
			"0.002": 12.5828089824,
			"0.003": 11.3681073186,
			"0.004": 7.92015175036,
			"0.005": 3.45211037115,
			"0.006": 3.70222501407,
			"0.007": 7.44654996473,
			"0.008": 8.90476947305,
			"0.009": 6.42795701572,
			"0.01": 3.86524514988,
			"0.011": 1.42111182167,
			"0.012": 1.10018951841,
			"0.013": 0.0207171895478,
			"0.014": 0.0,
			"0.015": 0.0,
			"0.016": 0.0,
			"0.017": 0.0,
			"0.018": 0.0,
			"0.019": 0.0,
			"0.02": 0.0,
			"0.021": 0.0,
			"0.022": 0.0,
			"0.023": 0.0,
			"0.024": 0.0,
			"0.025": 0.0
		}
	}
}
