{
	 "smiles": "NC1=CC(=C(F)C=C1)S(=O)(=O)NC1CC1", 
	 "Tm": 381.15, 
	 "num_atms": 26, 
	 "gaussian": { 
		 "optdone": 1, 
		 "sigma_profile": "yes", 
		 "theory": "DFT", 
		 "functional": "B3LYP", 
		 "basiset": "6-31G**", 
		 "properties": { 
			 "R2extent": 4156.0164, 
			 "electric_dipole_moment_norm": 5.83959534386, 
			 "electric_quadrupole_moment_norm": 16.3129608441, 
			 "total_energy": -1107.4541215, 
			 "HOMO_LUMO_gap": 0.17971, 
			 "cosmo_polarized_energy": -18.63, 
			 "cosmo_cavitation_energy": 31.71, 
			 "cosmo_dispersion_energy": -22.46, 
			 "cosmo_repulsion_energy": 1.73, 
			 "cosmo_total_nonelectrostatic_energy": 10.98, 
			 "SMD_solvation_energy": 4.56 
		},
		"coords": [
			{
				"x": 2.7409813283,
				"y": -1.1633461583,
				"z": 1.309794506,
				"element": "N" 
			},
			{
				"x": 1.5672371393,
				"y": -1.564436525,
				"z": 0.6722370099,
				"element": "C" 
			},
			{
				"x": 0.3672098591,
				"y": -0.8634818433,
				"z": 0.8742350115,
				"element": "C" 
			},
			{
				"x": -0.8173686424,
				"y": -1.3025620284,
				"z": 0.2846483212,
				"element": "C" 
			},
			{
				"x": -0.8219115842,
				"y": -2.4486636582,
				"z": -0.5115936424,
				"element": "C" 
			},
			{
				"x": -1.9609240461,
				"y": -2.8769148253,
				"z": -1.085910699,
				"element": "F" 
			},
			{
				"x": 0.356904411,
				"y": -3.1497056099,
				"z": -0.7280412027,
				"element": "C" 
			},
			{
				"x": 1.5413366338,
				"y": -2.7124880438,
				"z": -0.139598812,
				"element": "C" 
			},
			{
				"x": -2.3294264491,
				"y": -0.397273569,
				"z": 0.621993547,
				"element": "S" 
			},
			{
				"x": -1.941529283,
				"y": 0.7941414124,
				"z": 1.3862109492,
				"element": "O" 
			},
			{
				"x": -3.3446263731,
				"y": -1.3224957011,
				"z": 1.1292848979,
				"element": "O" 
			},
			{
				"x": -2.8616758825,
				"y": 0.0470097676,
				"z": -0.9218595559,
				"element": "N" 
			},
			{
				"x": -2.5063995571,
				"y": 1.3565629148,
				"z": -1.4164225359,
				"element": "C" 
			},
			{
				"x": -2.5238109554,
				"y": 1.5283336426,
				"z": -2.9144005245,
				"element": "C" 
			},
			{
				"x": -1.2106653873,
				"y": 1.4920481042,
				"z": -2.1762629721,
				"element": "C" 
			},
			{
				"x": 3.5997196968,
				"y": -1.4516530379,
				"z": 0.8623383527,
				"element": "H" 
			},
			{
				"x": 2.7687064574,
				"y": -0.1955703351,
				"z": 1.5986994375,
				"element": "H" 
			},
			{
				"x": 0.3358683093,
				"y": 0.0275435267,
				"z": 1.4926494602,
				"element": "H" 
			},
			{
				"x": 0.3343429292,
				"y": -4.0347550643,
				"z": -1.354791873,
				"element": "H" 
			},
			{
				"x": 2.4578202405,
				"y": -3.2720358812,
				"z": -0.3063316568,
				"element": "H" 
			},
			{
				"x": -3.8515394793,
				"y": -0.182492029,
				"z": -0.9747368792,
				"element": "H" 
			},
			{
				"x": -2.8133076751,
				"y": 2.2039329329,
				"z": -0.8069987784,
				"element": "H" 
			},
			{
				"x": -2.8811674199,
				"y": 2.4756410026,
				"z": -3.3054352076,
				"element": "H" 
			},
			{
				"x": -2.7877080446,
				"y": 0.6596302874,
				"z": -3.5087459779,
				"element": "H" 
			},
			{
				"x": -0.6031615906,
				"y": 0.5999302236,
				"z": -2.2816642344,
				"element": "H" 
			},
			{
				"x": -0.653504635,
				"y": 2.4151004949,
				"z": -2.0532969413,
				"element": "H" 
			}
		],
		 "valence_orbital": [ 
			{
				"type": "occ",
				"energy": -0.30019,
				"method": "rhf"
			},
			{
				"type": "occ",
				"energy": -0.29038,
				"method": "rhf"
			},
			{
				"type": "occ",
				"energy": -0.27761,
				"method": "rhf"
			},
			{
				"type": "occ",
				"energy": -0.26052,
				"method": "rhf"
			},
			{
				"type": "occ",
				"energy": -0.21507,
				"method": "rhf"
			},
			{
				"type": "unocc",
				"energy": -0.03536,
				"method": "rhf"
			},
			{
				"type": "unocc",
				"energy": 0.00021,
				"method": "rhf"
			},
			{
				"type": "unocc",
				"energy": 0.05566,
				"method": "rhf"
			},
			{
				"type": "unocc",
				"energy": 0.0688,
				"method": "rhf"
			},
			{
				"type": "unocc",
				"energy": 0.08396,
				"method": "rhf"
			}
		],
		"cosmo_sigma_profile": { 
			"-0.025": 0.0,
			"-0.024": 0.0,
			"-0.023": 0.0,
			"-0.022": 0.0,
			"-0.021": 0.0,
			"-0.02": 0.0,
			"-0.019": 0.0,
			"-0.018": 0.0,
			"-0.017": 0.0,
			"-0.016": 0.0,
			"-0.015": 0.19703728475,
			"-0.014": 0.903172184385,
			"-0.013": 2.66812397808,
			"-0.012": 4.21280633611,
			"-0.011": 3.81536521485,
			"-0.01": 4.23380472468,
			"-0.009": 4.6988486096,
			"-0.008": 5.14353864906,
			"-0.007": 7.13151497486,
			"-0.006": 9.09809656787,
			"-0.005": 16.2345393419,
			"-0.004": 13.3285170915,
			"-0.003": 15.0016905756,
			"-0.002": 12.9366212465,
			"-0.001": 17.1600412219,
			"0.0": 16.8454539219,
			"0.001": 18.1753145758,
			"0.002": 18.6259078301,
			"0.003": 17.5680649474,
			"0.004": 13.8959273133,
			"0.005": 6.57665832137,
			"0.006": 5.12277256549,
			"0.007": 5.60854659131,
			"0.008": 5.3183777861,
			"0.009": 4.68053996972,
			"0.01": 8.79478322654,
			"0.011": 9.82212737674,
			"0.012": 2.99799441743,
			"0.013": 0.667107437074,
			"0.014": 0.24336611814,
			"0.015": 0.0,
			"0.016": 0.0,
			"0.017": 0.0,
			"0.018": 0.0,
			"0.019": 0.0,
			"0.02": 0.0,
			"0.021": 0.0,
			"0.022": 0.0,
			"0.023": 0.0,
			"0.024": 0.0,
			"0.025": 0.0
		}
	}
}
