{
	 "smiles": "OC(=O)C1=CC2=C(C=CC=C2)N1CC#N", 
	 "Tm": 466.15, 
	 "num_atms": 23, 
	 "gaussian": { 
		 "optdone": 1, 
		 "sigma_profile": "yes", 
		 "theory": "DFT", 
		 "functional": "B3LYP", 
		 "basiset": "6-31G**", 
		 "properties": { 
			 "R2extent": 3534.7783, 
			 "electric_dipole_moment_norm": 4.65315437633, 
			 "electric_quadrupole_moment_norm": 21.0674823631, 
			 "total_energy": -683.928024083, 
			 "HOMO_LUMO_gap": 0.16717, 
			 "cosmo_polarized_energy": -18.14, 
			 "cosmo_cavitation_energy": 28.6, 
			 "cosmo_dispersion_energy": -20.13, 
			 "cosmo_repulsion_energy": 1.56, 
			 "cosmo_total_nonelectrostatic_energy": 10.03, 
			 "SMD_solvation_energy": 7.08 
		},
		"coords": [
			{
				"x": -3.7724927469,
				"y": -0.4302926237,
				"z": -2.310683916,
				"element": "O" 
			},
			{
				"x": -2.9680342179,
				"y": -0.5488099877,
				"z": -1.2272285668,
				"element": "C" 
			},
			{
				"x": -3.4025556736,
				"y": -1.0312133941,
				"z": -0.2005108709,
				"element": "O" 
			},
			{
				"x": -1.5792282011,
				"y": -0.0835969132,
				"z": -1.4171393324,
				"element": "C" 
			},
			{
				"x": -0.8924513885,
				"y": 0.087065088,
				"z": -2.6034546526,
				"element": "C" 
			},
			{
				"x": 0.4433279715,
				"y": 0.4709009598,
				"z": -2.2820487561,
				"element": "C" 
			},
			{
				"x": 0.5207082538,
				"y": 0.5241401939,
				"z": -0.8633798586,
				"element": "C" 
			},
			{
				"x": 1.6970683597,
				"y": 0.8933063957,
				"z": -0.1960412037,
				"element": "C" 
			},
			{
				"x": 2.8049583559,
				"y": 1.1881574944,
				"z": -0.9784497329,
				"element": "C" 
			},
			{
				"x": 2.7534962374,
				"y": 1.1260833059,
				"z": -2.3892383823,
				"element": "C" 
			},
			{
				"x": 1.5865994562,
				"y": 0.7723570739,
				"z": -3.0468585209,
				"element": "C" 
			},
			{
				"x": -0.7113974377,
				"y": 0.1626638447,
				"z": -0.3512004247,
				"element": "N" 
			},
			{
				"x": -1.0435490786,
				"y": 0.1593499213,
				"z": 1.066073477,
				"element": "C" 
			},
			{
				"x": -1.183987282,
				"y": 1.5163443151,
				"z": 1.6240198588,
				"element": "C" 
			},
			{
				"x": -1.2894917148,
				"y": 2.5819908584,
				"z": 2.0702827147,
				"element": "N" 
			},
			{
				"x": -3.3425220623,
				"y": 0.113762083,
				"z": -2.9858687042,
				"element": "H" 
			},
			{
				"x": -1.2777022916,
				"y": -0.1027585737,
				"z": -3.5967958022,
				"element": "H" 
			},
			{
				"x": 1.7450103337,
				"y": 0.9595368983,
				"z": 0.8858262686,
				"element": "H" 
			},
			{
				"x": 3.7328507804,
				"y": 1.4770531013,
				"z": -0.4943425202,
				"element": "H" 
			},
			{
				"x": 3.6439827236,
				"y": 1.3655411972,
				"z": -2.9621075083,
				"element": "H" 
			},
			{
				"x": 1.5489000339,
				"y": 0.7313433129,
				"z": -4.1314611534,
				"element": "H" 
			},
			{
				"x": -0.2593803546,
				"y": -0.3697889334,
				"z": 1.618697754,
				"element": "H" 
			},
			{
				"x": -1.9796100566,
				"y": -0.3897356179,
				"z": 1.190909833,
				"element": "H" 
			}
		],
		 "valence_orbital": [ 
			{
				"type": "occ",
				"energy": -0.33021,
				"method": "rhf"
			},
			{
				"type": "occ",
				"energy": -0.30243,
				"method": "rhf"
			},
			{
				"type": "occ",
				"energy": -0.29195,
				"method": "rhf"
			},
			{
				"type": "occ",
				"energy": -0.2477,
				"method": "rhf"
			},
			{
				"type": "occ",
				"energy": -0.23429,
				"method": "rhf"
			},
			{
				"type": "unocc",
				"energy": -0.06712,
				"method": "rhf"
			},
			{
				"type": "unocc",
				"energy": -0.00446,
				"method": "rhf"
			},
			{
				"type": "unocc",
				"energy": 0.00531,
				"method": "rhf"
			},
			{
				"type": "unocc",
				"energy": 0.01356,
				"method": "rhf"
			},
			{
				"type": "unocc",
				"energy": 0.03093,
				"method": "rhf"
			}
		],
		"cosmo_sigma_profile": { 
			"-0.025": 0.0,
			"-0.024": 0.0,
			"-0.023": 0.0,
			"-0.022": 0.0,
			"-0.021": 0.0,
			"-0.02": 0.0,
			"-0.019": 0.336173856022,
			"-0.018": 1.12741120863,
			"-0.017": 0.868998822457,
			"-0.016": 0.669154472794,
			"-0.015": 0.770040618354,
			"-0.014": 0.613449777489,
			"-0.013": 1.5511601326,
			"-0.012": 1.69899252605,
			"-0.011": 1.6919094658,
			"-0.01": 4.90242188723,
			"-0.009": 4.81773131526,
			"-0.008": 6.50736604493,
			"-0.007": 8.16257268001,
			"-0.006": 12.3416726713,
			"-0.005": 13.5508490261,
			"-0.004": 14.1001539801,
			"-0.003": 12.0752813833,
			"-0.002": 10.865017227,
			"-0.001": 10.8458631039,
			"0.0": 13.1414518916,
			"0.001": 12.8284230779,
			"0.002": 13.3174069269,
			"0.003": 14.6806661568,
			"0.004": 13.849086403,
			"0.005": 12.1280956864,
			"0.006": 5.64924492313,
			"0.007": 5.95297355889,
			"0.008": 5.84278259158,
			"0.009": 7.44337154527,
			"0.01": 7.38642023676,
			"0.011": 6.01875157865,
			"0.012": 4.27257612759,
			"0.013": 1.08623939219,
			"0.014": 0.0,
			"0.015": 0.0,
			"0.016": 0.0,
			"0.017": 0.0,
			"0.018": 0.0,
			"0.019": 0.0,
			"0.02": 0.0,
			"0.021": 0.0,
			"0.022": 0.0,
			"0.023": 0.0,
			"0.024": 0.0,
			"0.025": 0.0
		}
	}
}
