{
	 "smiles": "CCC(OC1=CC(C)=CC=C1)C(O)=O", 
	 "Tm": 346.15, 
	 "num_atms": 28, 
	 "gaussian": { 
		 "optdone": 1, 
		 "sigma_profile": "yes", 
		 "theory": "DFT", 
		 "functional": "B3LYP", 
		 "basiset": "6-31G**", 
		 "properties": { 
			 "R2extent": 3292.9008, 
			 "electric_dipole_moment_norm": 3.49840182512, 
			 "electric_quadrupole_moment_norm": 11.3523941004, 
			 "total_energy": -653.295830323, 
			 "HOMO_LUMO_gap": 0.21966, 
			 "cosmo_polarized_energy": -11.19, 
			 "cosmo_cavitation_energy": 31.2, 
			 "cosmo_dispersion_energy": -21.83, 
			 "cosmo_repulsion_energy": 1.75, 
			 "cosmo_total_nonelectrostatic_energy": 11.12, 
			 "SMD_solvation_energy": 6.46 
		},
		"coords": [
			{
				"x": -2.0058743547,
				"y": -1.6350571076,
				"z": 2.925145507,
				"element": "C" 
			},
			{
				"x": -1.1776859877,
				"y": -0.3461968575,
				"z": 2.9451236138,
				"element": "C" 
			},
			{
				"x": -0.2596579842,
				"y": -0.1608359502,
				"z": 1.7271881577,
				"element": "C" 
			},
			{
				"x": -1.0744487409,
				"y": -0.1760905447,
				"z": 0.5472559336,
				"element": "O" 
			},
			{
				"x": -0.6602568661,
				"y": 0.5348095231,
				"z": -0.5673126287,
				"element": "C" 
			},
			{
				"x": 0.6524998718,
				"y": 0.9594433891,
				"z": -0.7789058964,
				"element": "C" 
			},
			{
				"x": 0.988116949,
				"y": 1.6569820569,
				"z": -1.9513307119,
				"element": "C" 
			},
			{
				"x": 2.4075187503,
				"y": 2.1298409321,
				"z": -2.1629010637,
				"element": "C" 
			},
			{
				"x": -0.0073701463,
				"y": 1.9068677934,
				"z": -2.8996957004,
				"element": "C" 
			},
			{
				"x": -1.3179636405,
				"y": 1.4709549224,
				"z": -2.6832057667,
				"element": "C" 
			},
			{
				"x": -1.6536001003,
				"y": 0.7869874029,
				"z": -1.520231874,
				"element": "C" 
			},
			{
				"x": 0.8030936186,
				"y": -1.2712525771,
				"z": 1.6773899203,
				"element": "C" 
			},
			{
				"x": 0.5624648616,
				"y": -2.2491606876,
				"z": 0.7830059178,
				"element": "O" 
			},
			{
				"x": 1.7564018691,
				"y": -1.2860662496,
				"z": 2.4172527243,
				"element": "O" 
			},
			{
				"x": -2.6561256505,
				"y": -1.6702963541,
				"z": 2.0463947389,
				"element": "H" 
			},
			{
				"x": -2.6406148384,
				"y": -1.6914518715,
				"z": 3.8141452322,
				"element": "H" 
			},
			{
				"x": -1.369723523,
				"y": -2.5262244693,
				"z": 2.9164382398,
				"element": "H" 
			},
			{
				"x": -0.5356284427,
				"y": -0.3171056472,
				"z": 3.8319675221,
				"element": "H" 
			},
			{
				"x": -1.8394664547,
				"y": 0.5255404661,
				"z": 2.9926644494,
				"element": "H" 
			},
			{
				"x": 0.2653154258,
				"y": 0.7952919719,
				"z": 1.8140819155,
				"element": "H" 
			},
			{
				"x": 1.4322786939,
				"y": 0.7463210882,
				"z": -0.055009823,
				"element": "H" 
			},
			{
				"x": 2.5700900536,
				"y": 2.4517755258,
				"z": -3.194902389,
				"element": "H" 
			},
			{
				"x": 3.1304326667,
				"y": 1.3390781961,
				"z": -1.936735205,
				"element": "H" 
			},
			{
				"x": 2.6436120353,
				"y": 2.9786990338,
				"z": -1.5097221554,
				"element": "H" 
			},
			{
				"x": 0.2423203317,
				"y": 2.4412284827,
				"z": -3.8119016398,
				"element": "H" 
			},
			{
				"x": -2.0843088317,
				"y": 1.6698509387,
				"z": -3.4268514292,
				"element": "H" 
			},
			{
				"x": -2.6654160126,
				"y": 0.4456104776,
				"z": -1.3288046445,
				"element": "H" 
			},
			{
				"x": -0.244203553,
				"y": -2.0055438843,
				"z": 0.2945570555,
				"element": "H" 
			}
		],
		 "valence_orbital": [ 
			{
				"type": "occ",
				"energy": -0.33467,
				"method": "rhf"
			},
			{
				"type": "occ",
				"energy": -0.31338,
				"method": "rhf"
			},
			{
				"type": "occ",
				"energy": -0.26969,
				"method": "rhf"
			},
			{
				"type": "occ",
				"energy": -0.25293,
				"method": "rhf"
			},
			{
				"type": "occ",
				"energy": -0.23258,
				"method": "rhf"
			},
			{
				"type": "unocc",
				"energy": -0.01292,
				"method": "rhf"
			},
			{
				"type": "unocc",
				"energy": 0.00124,
				"method": "rhf"
			},
			{
				"type": "unocc",
				"energy": 0.00745,
				"method": "rhf"
			},
			{
				"type": "unocc",
				"energy": 0.07361,
				"method": "rhf"
			},
			{
				"type": "unocc",
				"energy": 0.08622,
				"method": "rhf"
			}
		],
		"cosmo_sigma_profile": { 
			"-0.025": 0.0,
			"-0.024": 0.0,
			"-0.023": 0.0,
			"-0.022": 0.0,
			"-0.021": 0.0,
			"-0.02": 0.0,
			"-0.019": 0.0,
			"-0.018": 0.0,
			"-0.017": 0.0,
			"-0.016": 0.0257380162826,
			"-0.015": 0.410388660128,
			"-0.014": 0.6422232519,
			"-0.013": 0.493544394013,
			"-0.012": 0.483801414256,
			"-0.011": 0.764087661342,
			"-0.01": 0.529733872034,
			"-0.009": 0.957032357891,
			"-0.008": 1.93752253076,
			"-0.007": 4.67613235105,
			"-0.006": 6.76343339216,
			"-0.005": 13.7353019334,
			"-0.004": 25.5884638867,
			"-0.003": 23.8970463748,
			"-0.002": 27.5100749657,
			"-0.001": 24.2619333072,
			"0.0": 22.4161472684,
			"0.001": 15.1655340821,
			"0.002": 10.7318107557,
			"0.003": 11.3870889494,
			"0.004": 10.4928494186,
			"0.005": 11.1307537219,
			"0.006": 7.41097924129,
			"0.007": 2.55808768204,
			"0.008": 2.76753864295,
			"0.009": 3.94107625176,
			"0.01": 4.57129020063,
			"0.011": 4.51342934482,
			"0.012": 5.01062557654,
			"0.013": 1.12951470611,
			"0.014": 0.0,
			"0.015": 0.0,
			"0.016": 0.0,
			"0.017": 0.0,
			"0.018": 0.0,
			"0.019": 0.0,
			"0.02": 0.0,
			"0.021": 0.0,
			"0.022": 0.0,
			"0.023": 0.0,
			"0.024": 0.0,
			"0.025": 0.0
		}
	}
}
