{
	 "smiles": "CC1=C(I)C(=CC=C1)[N+]([O-])=O", 
	 "Tm": 341.15, 
	 "num_atms": 17, 
	 "gaussian": { 
		 "optdone": 1, 
		 "sigma_profile": "yes", 
		 "theory": "DFT", 
		 "functional": "B3LYP", 
		 "basiset": "6-31G**", 
		 "properties": { 
			 "R2extent": 2007.5617, 
			 "electric_dipole_moment_norm": 4.67308042944, 
			 "electric_quadrupole_moment_norm": 10.0657744739, 
			 "total_energy": -486.834842353, 
			 "HOMO_LUMO_gap": 0.17858, 
			 "cosmo_polarized_energy": -8.65, 
			 "cosmo_cavitation_energy": 24.89, 
			 "cosmo_dispersion_energy": -18.94, 
			 "cosmo_repulsion_energy": 1.48, 
			 "cosmo_total_nonelectrostatic_energy": 7.43, 
			 "SMD_solvation_energy": 6.2 
		},
		"coords": [
			{
				"x": 1.6325876067,
				"y": -1.784965561,
				"z": -1.2116092991,
				"element": "C" 
			},
			{
				"x": 0.359832928,
				"y": -1.0295477253,
				"z": -0.9246807804,
				"element": "C" 
			},
			{
				"x": -0.1434988305,
				"y": -0.861805272,
				"z": 0.3796361471,
				"element": "C" 
			},
			{
				"x": 0.8815881523,
				"y": -1.6783457358,
				"z": 2.0429488935,
				"element": "I" 
			},
			{
				"x": -1.3284320431,
				"y": -0.1507603594,
				"z": 0.5738281948,
				"element": "C" 
			},
			{
				"x": -2.0413705671,
				"y": 0.4062106711,
				"z": -0.4829513596,
				"element": "C" 
			},
			{
				"x": -1.5493375433,
				"y": 0.2441158383,
				"z": -1.7740750149,
				"element": "C" 
			},
			{
				"x": -0.3674812707,
				"y": -0.4635639622,
				"z": -1.9824609411,
				"element": "C" 
			},
			{
				"x": -1.8884011965,
				"y": 0.0462232313,
				"z": 1.9278413175,
				"element": "N" 
			},
			{
				"x": -2.6823063635,
				"y": -0.798912198,
				"z": 2.3263527802,
				"element": "O" 
			},
			{
				"x": -1.5373916964,
				"y": 1.0548245176,
				"z": 2.5302250008,
				"element": "O" 
			},
			{
				"x": 1.567471548,
				"y": -2.8216219285,
				"z": -0.864528168,
				"element": "H" 
			},
			{
				"x": 2.4887843206,
				"y": -1.3316312389,
				"z": -0.7009488248,
				"element": "H" 
			},
			{
				"x": 1.8395845201,
				"y": -1.7952086167,
				"z": -2.2841492206,
				"element": "H" 
			},
			{
				"x": -2.9582815148,
				"y": 0.9513808204,
				"z": -0.2863337358,
				"element": "H" 
			},
			{
				"x": -2.0870223454,
				"y": 0.6690809479,
				"z": -2.6154354589,
				"element": "H" 
			},
			{
				"x": 0.0115742956,
				"y": -0.5867734289,
				"z": -2.9927595311,
				"element": "H" 
			}
		],
		 "valence_orbital": [ 
			{
				"type": "occ",
				"energy": -0.30803,
				"method": "rhf"
			},
			{
				"type": "occ",
				"energy": -0.30399,
				"method": "rhf"
			},
			{
				"type": "occ",
				"energy": -0.2792,
				"method": "rhf"
			},
			{
				"type": "occ",
				"energy": -0.26839,
				"method": "rhf"
			},
			{
				"type": "occ",
				"energy": -0.25505,
				"method": "rhf"
			},
			{
				"type": "unocc",
				"energy": -0.07647,
				"method": "rhf"
			},
			{
				"type": "unocc",
				"energy": -0.05062,
				"method": "rhf"
			},
			{
				"type": "unocc",
				"energy": -0.03823,
				"method": "rhf"
			},
			{
				"type": "unocc",
				"energy": -0.03246,
				"method": "rhf"
			},
			{
				"type": "unocc",
				"energy": 0.04459,
				"method": "rhf"
			}
		],
		"cosmo_sigma_profile": { 
			"-0.025": 0.0,
			"-0.024": 0.0,
			"-0.023": 0.0,
			"-0.022": 0.0,
			"-0.021": 0.0,
			"-0.02": 0.0,
			"-0.019": 0.0,
			"-0.018": 0.0,
			"-0.017": 0.0,
			"-0.016": 0.0,
			"-0.015": 0.0,
			"-0.014": 0.0,
			"-0.013": 0.0,
			"-0.012": 0.0,
			"-0.011": 0.284763496011,
			"-0.01": 0.891248766195,
			"-0.009": 2.24167103896,
			"-0.008": 3.95097656262,
			"-0.007": 8.88217738132,
			"-0.006": 9.41874369535,
			"-0.005": 9.5622556689,
			"-0.004": 11.7307675594,
			"-0.003": 13.2855992268,
			"-0.002": 12.0697181775,
			"-0.001": 17.8459268291,
			"0.0": 17.2707087359,
			"0.001": 20.8454199225,
			"0.002": 23.011886619,
			"0.003": 14.5228237242,
			"0.004": 6.67296400448,
			"0.005": 4.13045654169,
			"0.006": 5.79848671115,
			"0.007": 11.5313137322,
			"0.008": 6.97543899438,
			"0.009": 2.84003881813,
			"0.01": 0.161226458161,
			"0.011": 0.0,
			"0.012": 0.0,
			"0.013": 0.0,
			"0.014": 0.0,
			"0.015": 0.0,
			"0.016": 0.0,
			"0.017": 0.0,
			"0.018": 0.0,
			"0.019": 0.0,
			"0.02": 0.0,
			"0.021": 0.0,
			"0.022": 0.0,
			"0.023": 0.0,
			"0.024": 0.0,
			"0.025": 0.0
		}
	}
}
