{
	 "smiles": "COC1=CC(OC)=C(C=C1)C(=O)C1=CC=CC=C1", 
	 "Tm": 355.15, 
	 "num_atms": 32, 
	 "gaussian": { 
		 "optdone": 1, 
		 "sigma_profile": "yes", 
		 "theory": "DFT", 
		 "functional": "B3LYP", 
		 "basiset": "6-31G**", 
		 "properties": { 
			 "R2extent": 5680.8794, 
			 "electric_dipole_moment_norm": 5.65270582022, 
			 "electric_quadrupole_moment_norm": 8.71715973411, 
			 "total_energy": -805.679826937, 
			 "HOMO_LUMO_gap": 0.16496, 
			 "cosmo_polarized_energy": -14.22, 
			 "cosmo_cavitation_energy": 35.95, 
			 "cosmo_dispersion_energy": -25.16, 
			 "cosmo_repulsion_energy": 1.95, 
			 "cosmo_total_nonelectrostatic_energy": 12.74, 
			 "SMD_solvation_energy": 8.1 
		},
		"coords": [
			{
				"x": -1.7107476158,
				"y": 2.5688894521,
				"z": 4.3279096476,
				"element": "C" 
			},
			{
				"x": -1.4002455094,
				"y": 1.1946189427,
				"z": 4.1588285999,
				"element": "O" 
			},
			{
				"x": -0.8734083999,
				"y": 0.7810477657,
				"z": 2.9739679561,
				"element": "C" 
			},
			{
				"x": -0.6218814767,
				"y": 1.6342293612,
				"z": 1.8919798415,
				"element": "C" 
			},
			{
				"x": -0.0664531744,
				"y": 1.116186823,
				"z": 0.7127526726,
				"element": "C" 
			},
			{
				"x": 0.1486369038,
				"y": 1.8798172895,
				"z": -0.3944731299,
				"element": "O" 
			},
			{
				"x": -0.1571654306,
				"y": 3.2641649509,
				"z": -0.3558142568,
				"element": "C" 
			},
			{
				"x": 0.255383131,
				"y": -0.2540057794,
				"z": 0.6094289579,
				"element": "C" 
			},
			{
				"x": -0.0553904239,
				"y": -1.0835485735,
				"z": 1.6995916276,
				"element": "C" 
			},
			{
				"x": -0.5939416395,
				"y": -0.5894215176,
				"z": 2.8758411715,
				"element": "C" 
			},
			{
				"x": 0.8146951824,
				"y": -0.9157527564,
				"z": -0.6141368371,
				"element": "C" 
			},
			{
				"x": 0.3955339604,
				"y": -2.0226746263,
				"z": -0.9397240817,
				"element": "O" 
			},
			{
				"x": 1.9355144352,
				"y": -0.293315165,
				"z": -1.3926982802,
				"element": "C" 
			},
			{
				"x": 2.1495818549,
				"y": -0.7347009507,
				"z": -2.7068923371,
				"element": "C" 
			},
			{
				"x": 3.2160445229,
				"y": -0.2396036269,
				"z": -3.4528809759,
				"element": "C" 
			},
			{
				"x": 4.0978002051,
				"y": 0.6834792009,
				"z": -2.8833293532,
				"element": "C" 
			},
			{
				"x": 3.9054931062,
				"y": 1.1108708012,
				"z": -1.5674444458,
				"element": "C" 
			},
			{
				"x": 2.8255753696,
				"y": 0.6308744744,
				"z": -0.8277673483,
				"element": "C" 
			},
			{
				"x": -2.4728598058,
				"y": 2.9030146794,
				"z": 3.6122328184,
				"element": "H" 
			},
			{
				"x": -0.8191357364,
				"y": 3.2008079112,
				"z": 4.2262668625,
				"element": "H" 
			},
			{
				"x": -2.1047125671,
				"y": 2.6655258792,
				"z": 5.3405959948,
				"element": "H" 
			},
			{
				"x": -0.8712611434,
				"y": 2.6833260885,
				"z": 1.9559797318,
				"element": "H" 
			},
			{
				"x": 0.4261723763,
				"y": 3.7884860016,
				"z": 0.4119978005,
				"element": "H" 
			},
			{
				"x": -1.2261478722,
				"y": 3.4371086419,
				"z": -0.1778628331,
				"element": "H" 
			},
			{
				"x": 0.1110284253,
				"y": 3.6548603835,
				"z": -1.3382386475,
				"element": "H" 
			},
			{
				"x": 0.1494749658,
				"y": -2.1440103396,
				"z": 1.5962285739,
				"element": "H" 
			},
			{
				"x": -0.8101073971,
				"y": -1.2321968361,
				"z": 3.7216365619,
				"element": "H" 
			},
			{
				"x": 1.4674434304,
				"y": -1.4699627142,
				"z": -3.1205601338,
				"element": "H" 
			},
			{
				"x": 3.3665296906,
				"y": -0.5770870492,
				"z": -4.4744328276,
				"element": "H" 
			},
			{
				"x": 4.9354459778,
				"y": 1.064069569,
				"z": -3.4613596805,
				"element": "H" 
			},
			{
				"x": 4.5985044795,
				"y": 1.8163669048,
				"z": -1.1176922391,
				"element": "H" 
			},
			{
				"x": 2.6819001751,
				"y": 0.9580348144,
				"z": 0.1967685892,
				"element": "H" 
			}
		],
		 "valence_orbital": [ 
			{
				"type": "occ",
				"energy": -0.25052,
				"method": "rhf"
			},
			{
				"type": "occ",
				"energy": -0.2473,
				"method": "rhf"
			},
			{
				"type": "occ",
				"energy": -0.2449,
				"method": "rhf"
			},
			{
				"type": "occ",
				"energy": -0.23481,
				"method": "rhf"
			},
			{
				"type": "occ",
				"energy": -0.21433,
				"method": "rhf"
			},
			{
				"type": "unocc",
				"energy": -0.04937,
				"method": "rhf"
			},
			{
				"type": "unocc",
				"energy": 0.00057,
				"method": "rhf"
			},
			{
				"type": "unocc",
				"energy": 0.00234,
				"method": "rhf"
			},
			{
				"type": "unocc",
				"energy": 0.00706,
				"method": "rhf"
			},
			{
				"type": "unocc",
				"energy": 0.06314,
				"method": "rhf"
			}
		],
		"cosmo_sigma_profile": { 
			"-0.025": 0.0,
			"-0.024": 0.0,
			"-0.023": 0.0,
			"-0.022": 0.0,
			"-0.021": 0.0,
			"-0.02": 0.0,
			"-0.019": 0.0,
			"-0.018": 0.0,
			"-0.017": 0.0,
			"-0.016": 0.0,
			"-0.015": 0.0,
			"-0.014": 0.0,
			"-0.013": 0.0,
			"-0.012": 0.0,
			"-0.011": 0.0,
			"-0.01": 0.0,
			"-0.009": 0.0,
			"-0.008": 0.272509977548,
			"-0.007": 3.70143190465,
			"-0.006": 20.8170780513,
			"-0.005": 30.8184214839,
			"-0.004": 31.1436845733,
			"-0.003": 26.9323994278,
			"-0.002": 17.7878691463,
			"-0.001": 14.3117714211,
			"0.0": 16.0707945099,
			"0.001": 16.5509856275,
			"0.002": 16.722357023,
			"0.003": 23.0584630462,
			"0.004": 21.9070090234,
			"0.005": 15.6634125291,
			"0.006": 5.86090070594,
			"0.007": 4.81291645226,
			"0.008": 5.47417021357,
			"0.009": 2.91027041063,
			"0.01": 3.33742604728,
			"0.011": 2.21498059649,
			"0.012": 4.18614157268,
			"0.013": 2.36375234466,
			"0.014": 0.0684176293632,
			"0.015": 0.0,
			"0.016": 0.0,
			"0.017": 0.0,
			"0.018": 0.0,
			"0.019": 0.0,
			"0.02": 0.0,
			"0.021": 0.0,
			"0.022": 0.0,
			"0.023": 0.0,
			"0.024": 0.0,
			"0.025": 0.0
		}
	}
}
