{
	 "smiles": "ClC1=C2C=CNC2=NC=N1", 
	 "Tm": 469.15, 
	 "num_atms": 14, 
	 "gaussian": { 
		 "optdone": 1, 
		 "sigma_profile": "yes", 
		 "theory": "DFT", 
		 "functional": "B3LYP", 
		 "basiset": "6-31G**", 
		 "properties": { 
			 "R2extent": 1727.1789, 
			 "electric_dipole_moment_norm": 4.54834534529, 
			 "electric_quadrupole_moment_norm": 2.25514813704, 
			 "total_energy": -855.496851528, 
			 "HOMO_LUMO_gap": 0.18953, 
			 "cosmo_polarized_energy": -11.08, 
			 "cosmo_cavitation_energy": 20.4, 
			 "cosmo_dispersion_energy": -15.77, 
			 "cosmo_repulsion_energy": 1.27, 
			 "cosmo_total_nonelectrostatic_energy": 5.89, 
			 "SMD_solvation_energy": 0.34 
		},
		"coords": [
			{
				"x": 0.6391402398,
				"y": 1.0364479963,
				"z": 3.0995603747,
				"element": "Cl" 
			},
			{
				"x": 0.0626836627,
				"y": 1.2808537668,
				"z": 1.4571376608,
				"element": "C" 
			},
			{
				"x": 0.3564373833,
				"y": 0.3334897057,
				"z": 0.4720872932,
				"element": "C" 
			},
			{
				"x": 1.0487955876,
				"y": -0.9120675949,
				"z": 0.3367605606,
				"element": "C" 
			},
			{
				"x": 0.91929774,
				"y": -1.2834560075,
				"z": -0.9760248238,
				"element": "C" 
			},
			{
				"x": 0.1817451914,
				"y": -0.3338299782,
				"z": -1.6674250322,
				"element": "N" 
			},
			{
				"x": -0.1757636195,
				"y": 0.6669906925,
				"z": -0.8056064868,
				"element": "C" 
			},
			{
				"x": -0.8893015315,
				"y": 1.7544743668,
				"z": -1.1005701654,
				"element": "N" 
			},
			{
				"x": -1.0796933957,
				"y": 2.5536112254,
				"z": -0.0520428603,
				"element": "C" 
			},
			{
				"x": -0.6384137163,
				"y": 2.3687816465,
				"z": 1.2102637366,
				"element": "N" 
			},
			{
				"x": 1.5705850022,
				"y": -1.4557147216,
				"z": 1.1095762659,
				"element": "H" 
			},
			{
				"x": 1.2958195237,
				"y": -2.1580159256,
				"z": -1.4861499106,
				"element": "H" 
			},
			{
				"x": -0.0629555612,
				"y": -0.356900346,
				"z": -2.645242758,
				"element": "H" 
			},
			{
				"x": -1.6545765065,
				"y": 3.4596351738,
				"z": -0.2239238547,
				"element": "H" 
			}
		],
		 "valence_orbital": [ 
			{
				"type": "occ",
				"energy": -0.30906,
				"method": "rhf"
			},
			{
				"type": "occ",
				"energy": -0.30118,
				"method": "rhf"
			},
			{
				"type": "occ",
				"energy": -0.2742,
				"method": "rhf"
			},
			{
				"type": "occ",
				"energy": -0.26699,
				"method": "rhf"
			},
			{
				"type": "occ",
				"energy": -0.23645,
				"method": "rhf"
			},
			{
				"type": "unocc",
				"energy": -0.04692,
				"method": "rhf"
			},
			{
				"type": "unocc",
				"energy": -0.00985,
				"method": "rhf"
			},
			{
				"type": "unocc",
				"energy": 0.03547,
				"method": "rhf"
			},
			{
				"type": "unocc",
				"energy": 0.04154,
				"method": "rhf"
			},
			{
				"type": "unocc",
				"energy": 0.07119,
				"method": "rhf"
			}
		],
		"cosmo_sigma_profile": { 
			"-0.025": 0.0,
			"-0.024": 0.0,
			"-0.023": 0.0,
			"-0.022": 0.0,
			"-0.021": 0.0,
			"-0.02": 0.0,
			"-0.019": 0.0,
			"-0.018": 0.0,
			"-0.017": 1.1245413591,
			"-0.016": 1.48239721823,
			"-0.015": 0.791635836906,
			"-0.014": 1.69993668635,
			"-0.013": 0.845247387565,
			"-0.012": 0.930930135975,
			"-0.011": 1.02380154013,
			"-0.01": 2.21155613965,
			"-0.009": 3.41065119777,
			"-0.008": 2.92823151848,
			"-0.007": 6.3830010893,
			"-0.006": 4.83234125553,
			"-0.005": 4.83896030495,
			"-0.004": 4.95271160764,
			"-0.003": 6.15114319139,
			"-0.002": 9.34062179957,
			"-0.001": 13.7933178182,
			"0.0": 18.7143311052,
			"0.001": 16.103630505,
			"0.002": 13.3509599836,
			"0.003": 14.1624320674,
			"0.004": 12.8836197419,
			"0.005": 5.05727994369,
			"0.006": 3.47301815016,
			"0.007": 3.39129572375,
			"0.008": 2.25033135885,
			"0.009": 1.88862399237,
			"0.01": 1.62270765078,
			"0.011": 2.68693045372,
			"0.012": 1.25995690664,
			"0.013": 2.00584545634,
			"0.014": 1.53004860073,
			"0.015": 0.300303714219,
			"0.016": 0.0,
			"0.017": 0.0,
			"0.018": 0.0,
			"0.019": 0.0,
			"0.02": 0.0,
			"0.021": 0.0,
			"0.022": 0.0,
			"0.023": 0.0,
			"0.024": 0.0,
			"0.025": 0.0
		}
	}
}
