{
	 "smiles": "CCCCCCCCCCCCCCC(C)CC", 
	 "Tm": 267.15, 
	 "num_atms": 56, 
	 "gaussian": { 
		 "optdone": 1, 
		 "sigma_profile": "yes", 
		 "theory": "DFT", 
		 "functional": "B3LYP", 
		 "basiset": "6-31G**", 
		 "properties": { 
			 "R2extent": 8807.7469, 
			 "electric_dipole_moment_norm": 0.124876298792, 
			 "electric_quadrupole_moment_norm": 0.782717388334, 
			 "total_energy": -708.873022139, 
			 "HOMO_LUMO_gap": 0.35224, 
			 "cosmo_polarized_energy": -1.24, 
			 "cosmo_cavitation_energy": 52.72, 
			 "cosmo_dispersion_energy": -33.23, 
			 "cosmo_repulsion_energy": 2.66, 
			 "cosmo_total_nonelectrostatic_energy": 22.15, 
			 "SMD_solvation_energy": 7.0 
		},
		"coords": [
			{
				"x": -3.2076150792,
				"y": 0.5386730092,
				"z": 1.3124438474,
				"element": "C" 
			},
			{
				"x": -4.0376921959,
				"y": 1.8248302589,
				"z": 1.2189148135,
				"element": "C" 
			},
			{
				"x": -3.3151220816,
				"y": 3.002236412,
				"z": 0.542721904,
				"element": "C" 
			},
			{
				"x": -2.102521858,
				"y": 3.5346742324,
				"z": 1.3212811389,
				"element": "C" 
			},
			{
				"x": -1.482844561,
				"y": 4.8153607257,
				"z": 0.7340352909,
				"element": "C" 
			},
			{
				"x": -0.8978421012,
				"y": 4.6892341711,
				"z": -0.6857131095,
				"element": "C" 
			},
			{
				"x": 0.2514484611,
				"y": 3.678960951,
				"z": -0.8531983725,
				"element": "C" 
			},
			{
				"x": 1.5216315205,
				"y": 4.0311815843,
				"z": -0.0607679433,
				"element": "C" 
			},
			{
				"x": 2.7445086017,
				"y": 3.1258955787,
				"z": -0.329006494,
				"element": "C" 
			},
			{
				"x": 2.8869020494,
				"y": 1.8839607555,
				"z": 0.5733581918,
				"element": "C" 
			},
			{
				"x": 1.8144506537,
				"y": 0.7859908788,
				"z": 0.459742472,
				"element": "C" 
			},
			{
				"x": 1.7397603869,
				"y": 0.1068339649,
				"z": -0.9156982624,
				"element": "C" 
			},
			{
				"x": 0.6928856818,
				"y": -1.0176172701,
				"z": -1.0205564698,
				"element": "C" 
			},
			{
				"x": 1.0242737122,
				"y": -2.2760425571,
				"z": -0.2050240001,
				"element": "C" 
			},
			{
				"x": -0.0551840398,
				"y": -3.3789728449,
				"z": -0.2365718162,
				"element": "C" 
			},
			{
				"x": 0.3134234286,
				"y": -4.5177513666,
				"z": 0.7285253672,
				"element": "C" 
			},
			{
				"x": -0.3737213228,
				"y": -3.9092705051,
				"z": -1.6546397214,
				"element": "C" 
			},
			{
				"x": 0.8009850108,
				"y": -4.5392356795,
				"z": -2.4149002065,
				"element": "C" 
			},
			{
				"x": -2.3127680736,
				"y": 0.6731844325,
				"z": 1.9286619131,
				"element": "H" 
			},
			{
				"x": -3.790456833,
				"y": -0.2758117812,
				"z": 1.7553473988,
				"element": "H" 
			},
			{
				"x": -2.8794552839,
				"y": 0.2089147116,
				"z": 0.3192675025,
				"element": "H" 
			},
			{
				"x": -4.959600954,
				"y": 1.6123335126,
				"z": 0.6623938809,
				"element": "H" 
			},
			{
				"x": -4.3552268556,
				"y": 2.1276391386,
				"z": 2.2263939752,
				"element": "H" 
			},
			{
				"x": -3.0080956263,
				"y": 2.6970963674,
				"z": -0.4669199728,
				"element": "H" 
			},
			{
				"x": -4.0319092206,
				"y": 3.8240532387,
				"z": 0.4057140544,
				"element": "H" 
			},
			{
				"x": -1.334442162,
				"y": 2.75458648,
				"z": 1.3960098986,
				"element": "H" 
			},
			{
				"x": -2.4141540625,
				"y": 3.7450694775,
				"z": 2.3540022104,
				"element": "H" 
			},
			{
				"x": -0.7030530002,
				"y": 5.1739104784,
				"z": 1.4178393406,
				"element": "H" 
			},
			{
				"x": -2.2501565175,
				"y": 5.6017490755,
				"z": 0.7199444632,
				"element": "H" 
			},
			{
				"x": -0.5419751317,
				"y": 5.6804708135,
				"z": -0.9993752008,
				"element": "H" 
			},
			{
				"x": -1.7006875423,
				"y": 4.4269268825,
				"z": -1.3862930731,
				"element": "H" 
			},
			{
				"x": 0.5120293909,
				"y": 3.6314974733,
				"z": -1.9194904504,
				"element": "H" 
			},
			{
				"x": -0.0979532406,
				"y": 2.6742733349,
				"z": -0.5887861281,
				"element": "H" 
			},
			{
				"x": 1.7913816786,
				"y": 5.0662061051,
				"z": -0.3124919435,
				"element": "H" 
			},
			{
				"x": 1.3085708522,
				"y": 4.0346897025,
				"z": 1.0167766155,
				"element": "H" 
			},
			{
				"x": 3.6527899879,
				"y": 3.7246994456,
				"z": -0.1846052177,
				"element": "H" 
			},
			{
				"x": 2.7554204335,
				"y": 2.8309445886,
				"z": -1.3868420352,
				"element": "H" 
			},
			{
				"x": 2.9254823543,
				"y": 2.224075828,
				"z": 1.6175361011,
				"element": "H" 
			},
			{
				"x": 3.8667291181,
				"y": 1.4283395489,
				"z": 0.3719939111,
				"element": "H" 
			},
			{
				"x": 0.8280253773,
				"y": 1.1947900158,
				"z": 0.716573875,
				"element": "H" 
			},
			{
				"x": 2.0298304934,
				"y": 0.0317240732,
				"z": 1.2269957986,
				"element": "H" 
			},
			{
				"x": 2.7305465536,
				"y": -0.295629766,
				"z": -1.1734559386,
				"element": "H" 
			},
			{
				"x": 1.5137830106,
				"y": 0.861163138,
				"z": -1.6792130259,
				"element": "H" 
			},
			{
				"x": 0.5836542748,
				"y": -1.2885907573,
				"z": -2.077893772,
				"element": "H" 
			},
			{
				"x": -0.2868527784,
				"y": -0.6285672127,
				"z": -0.7057275105,
				"element": "H" 
			},
			{
				"x": 1.9827362119,
				"y": -2.6880668422,
				"z": -0.551774541,
				"element": "H" 
			},
			{
				"x": 1.1845529754,
				"y": -1.9981280265,
				"z": 0.8444810212,
				"element": "H" 
			},
			{
				"x": -0.9864890456,
				"y": -2.9265133137,
				"z": 0.1372967478,
				"element": "H" 
			},
			{
				"x": 1.2639993311,
				"y": -4.9891877598,
				"z": 0.4547462876,
				"element": "H" 
			},
			{
				"x": -0.4550705939,
				"y": -5.2988954218,
				"z": 0.7350447342,
				"element": "H" 
			},
			{
				"x": 0.4187486542,
				"y": -4.1448381976,
				"z": 1.7532435272,
				"element": "H" 
			},
			{
				"x": -0.7907360845,
				"y": -3.0939503757,
				"z": -2.2583476823,
				"element": "H" 
			},
			{
				"x": -1.1779230499,
				"y": -4.6517658841,
				"z": -1.5648557577,
				"element": "H" 
			},
			{
				"x": 1.6066410663,
				"y": -3.8188884908,
				"z": -2.59194759,
				"element": "H" 
			},
			{
				"x": 1.230210636,
				"y": -5.3889010798,
				"z": -1.873983511,
				"element": "H" 
			},
			{
				"x": 0.4727473885,
				"y": -4.9073452526,
				"z": -3.3926065362,
				"element": "H" 
			}
		],
		 "valence_orbital": [ 
			{
				"type": "occ",
				"energy": -0.30394,
				"method": "rhf"
			},
			{
				"type": "occ",
				"energy": -0.29839,
				"method": "rhf"
			},
			{
				"type": "occ",
				"energy": -0.29734,
				"method": "rhf"
			},
			{
				"type": "occ",
				"energy": -0.29449,
				"method": "rhf"
			},
			{
				"type": "occ",
				"energy": -0.29124,
				"method": "rhf"
			},
			{
				"type": "unocc",
				"energy": 0.061,
				"method": "rhf"
			},
			{
				"type": "unocc",
				"energy": 0.08081,
				"method": "rhf"
			},
			{
				"type": "unocc",
				"energy": 0.09024,
				"method": "rhf"
			},
			{
				"type": "unocc",
				"energy": 0.09743,
				"method": "rhf"
			},
			{
				"type": "unocc",
				"energy": 0.09932,
				"method": "rhf"
			}
		],
		"cosmo_sigma_profile": { 
			"-0.025": 0.0,
			"-0.024": 0.0,
			"-0.023": 0.0,
			"-0.022": 0.0,
			"-0.021": 0.0,
			"-0.02": 0.0,
			"-0.019": 0.0,
			"-0.018": 0.0,
			"-0.017": 0.0,
			"-0.016": 0.0,
			"-0.015": 0.0,
			"-0.014": 0.0,
			"-0.013": 0.0,
			"-0.012": 0.0,
			"-0.011": 0.0,
			"-0.01": 0.0,
			"-0.009": 0.0,
			"-0.008": 0.0,
			"-0.007": 0.0,
			"-0.006": 0.0,
			"-0.005": 0.0,
			"-0.004": 0.0,
			"-0.003": 3.14821635016,
			"-0.002": 44.8215424718,
			"-0.001": 97.1600997331,
			"0.0": 112.202136419,
			"0.001": 96.7266382534,
			"0.002": 46.1680318607,
			"0.003": 1.64103045054,
			"0.004": 0.0,
			"0.005": 0.0,
			"0.006": 0.0,
			"0.007": 0.0,
			"0.008": 0.0,
			"0.009": 0.0,
			"0.01": 0.0,
			"0.011": 0.0,
			"0.012": 0.0,
			"0.013": 0.0,
			"0.014": 0.0,
			"0.015": 0.0,
			"0.016": 0.0,
			"0.017": 0.0,
			"0.018": 0.0,
			"0.019": 0.0,
			"0.02": 0.0,
			"0.021": 0.0,
			"0.022": 0.0,
			"0.023": 0.0,
			"0.024": 0.0,
			"0.025": 0.0
		}
	}
}
