{
	 "smiles": "OC(=O)C1=C(SC(F)(F)F)N=CC=C1", 
	 "Tm": 436.15, 
	 "num_atms": 18, 
	 "gaussian": { 
		 "optdone": 1, 
		 "sigma_profile": "yes", 
		 "theory": "DFT", 
		 "functional": "B3LYP", 
		 "basiset": "6-31G**", 
		 "properties": { 
			 "R2extent": 4665.7327, 
			 "electric_dipole_moment_norm": 6.19241799784, 
			 "electric_quadrupole_moment_norm": 19.3412602927, 
			 "total_energy": -1172.04760392, 
			 "HOMO_LUMO_gap": 0.17671, 
			 "cosmo_polarized_energy": -16.94, 
			 "cosmo_cavitation_energy": 26.03, 
			 "cosmo_dispersion_energy": -19.31, 
			 "cosmo_repulsion_energy": 1.41, 
			 "cosmo_total_nonelectrostatic_energy": 8.14, 
			 "SMD_solvation_energy": 6.1 
		},
		"coords": [
			{
				"x": 2.8149973821,
				"y": 3.6841728117,
				"z": -1.6821730797,
				"element": "O" 
			},
			{
				"x": 2.859246845,
				"y": 2.6499172082,
				"z": -0.8053483646,
				"element": "C" 
			},
			{
				"x": 3.8970818205,
				"y": 2.3817477028,
				"z": -0.2423746507,
				"element": "O" 
			},
			{
				"x": 1.5959358333,
				"y": 1.8922373577,
				"z": -0.5739405469,
				"element": "C" 
			},
			{
				"x": 1.6215542096,
				"y": 0.5836870407,
				"z": -0.0242201215,
				"element": "C" 
			},
			{
				"x": 3.1824109398,
				"y": -0.1731950159,
				"z": 0.41522401,
				"element": "S" 
			},
			{
				"x": 2.6401566022,
				"y": -1.8991414238,
				"z": 0.740874932,
				"element": "C" 
			},
			{
				"x": 2.031081839,
				"y": -2.48213094,
				"z": -0.2983039201,
				"element": "F" 
			},
			{
				"x": 3.7897905365,
				"y": -2.5657670699,
				"z": 0.9759623321,
				"element": "F" 
			},
			{
				"x": 1.8632461341,
				"y": -2.036612784,
				"z": 1.8195920518,
				"element": "F" 
			},
			{
				"x": 0.5105296278,
				"y": -0.1219098712,
				"z": 0.1868583397,
				"element": "N" 
			},
			{
				"x": -0.6719228908,
				"y": 0.426331935,
				"z": -0.101867226,
				"element": "C" 
			},
			{
				"x": -0.8186019626,
				"y": 1.7179871966,
				"z": -0.6051636615,
				"element": "C" 
			},
			{
				"x": 0.3396837033,
				"y": 2.449498261,
				"z": -0.8412731178,
				"element": "C" 
			},
			{
				"x": 2.0000003461,
				"y": 3.659639611,
				"z": -2.20191209,
				"element": "H" 
			},
			{
				"x": -1.5420030718,
				"y": -0.1978115579,
				"z": 0.0910448473,
				"element": "H" 
			},
			{
				"x": -1.8011256175,
				"y": 2.1337006433,
				"z": -0.7982563343,
				"element": "H" 
			},
			{
				"x": 0.2627377234,
				"y": 3.4710488946,
				"z": -1.2053233999,
				"element": "H" 
			}
		],
		 "valence_orbital": [ 
			{
				"type": "occ",
				"energy": -0.33117,
				"method": "rhf"
			},
			{
				"type": "occ",
				"energy": -0.31023,
				"method": "rhf"
			},
			{
				"type": "occ",
				"energy": -0.2913,
				"method": "rhf"
			},
			{
				"type": "occ",
				"energy": -0.283,
				"method": "rhf"
			},
			{
				"type": "occ",
				"energy": -0.2545,
				"method": "rhf"
			},
			{
				"type": "unocc",
				"energy": -0.07779,
				"method": "rhf"
			},
			{
				"type": "unocc",
				"energy": -0.05274,
				"method": "rhf"
			},
			{
				"type": "unocc",
				"energy": 0.01683,
				"method": "rhf"
			},
			{
				"type": "unocc",
				"energy": 0.02225,
				"method": "rhf"
			},
			{
				"type": "unocc",
				"energy": 0.04275,
				"method": "rhf"
			}
		],
		"cosmo_sigma_profile": { 
			"-0.025": 0.0,
			"-0.024": 0.0,
			"-0.023": 0.0,
			"-0.022": 0.0,
			"-0.021": 0.0,
			"-0.02": 0.256681825741,
			"-0.019": 1.25153156787,
			"-0.018": 0.992260138075,
			"-0.017": 1.34057936323,
			"-0.016": 0.598139758831,
			"-0.015": 1.05521670166,
			"-0.014": 1.16926971858,
			"-0.013": 1.58990034162,
			"-0.012": 1.30937886196,
			"-0.011": 0.896842888869,
			"-0.01": 1.4891536809,
			"-0.009": 2.91330754444,
			"-0.008": 7.25373816857,
			"-0.007": 7.00336904451,
			"-0.006": 7.67334706412,
			"-0.005": 4.87284805315,
			"-0.004": 5.89041968177,
			"-0.003": 7.18937155481,
			"-0.002": 12.5315244508,
			"-0.001": 16.7338240177,
			"0.0": 18.6728622772,
			"0.001": 18.584533958,
			"0.002": 31.061464225,
			"0.003": 12.2855116248,
			"0.004": 7.38564616895,
			"0.005": 6.54023383232,
			"0.006": 6.26285923171,
			"0.007": 5.16532818172,
			"0.008": 5.16769951443,
			"0.009": 6.21817631147,
			"0.01": 5.91128254529,
			"0.011": 3.12094856158,
			"0.012": 1.36058870199,
			"0.013": 0.0389146115677,
			"0.014": 0.0,
			"0.015": 0.0,
			"0.016": 0.0,
			"0.017": 0.0,
			"0.018": 0.0,
			"0.019": 0.0,
			"0.02": 0.0,
			"0.021": 0.0,
			"0.022": 0.0,
			"0.023": 0.0,
			"0.024": 0.0,
			"0.025": 0.0
		}
	}
}
