{
	 "smiles": "CC(C(O)=O)C1=CC(F)=CC=C1", 
	 "Tm": 333.15, 
	 "num_atms": 21, 
	 "gaussian": { 
		 "optdone": 1, 
		 "sigma_profile": "yes", 
		 "theory": "DFT", 
		 "functional": "B3LYP", 
		 "basiset": "6-31G**", 
		 "properties": { 
			 "R2extent": 2398.492, 
			 "electric_dipole_moment_norm": 4.60793229334, 
			 "electric_quadrupole_moment_norm": 14.3706284904, 
			 "total_energy": -598.678058602, 
			 "HOMO_LUMO_gap": 0.22418, 
			 "cosmo_polarized_energy": -12.88, 
			 "cosmo_cavitation_energy": 25.47, 
			 "cosmo_dispersion_energy": -17.96, 
			 "cosmo_repulsion_energy": 1.42, 
			 "cosmo_total_nonelectrostatic_energy": 8.93, 
			 "SMD_solvation_energy": 6.07 
		},
		"coords": [
			{
				"x": -1.051438408,
				"y": -1.4437201162,
				"z": 2.9830692775,
				"element": "C" 
			},
			{
				"x": -1.4356807921,
				"y": -1.1899668596,
				"z": 1.5192894331,
				"element": "C" 
			},
			{
				"x": -1.2546845763,
				"y": -2.4714689093,
				"z": 0.6796843277,
				"element": "C" 
			},
			{
				"x": -1.3479687803,
				"y": -2.3088572523,
				"z": -0.6629021015,
				"element": "O" 
			},
			{
				"x": -1.0878627137,
				"y": -3.5676731189,
				"z": 1.1528889982,
				"element": "O" 
			},
			{
				"x": -0.723303464,
				"y": 0.0038533122,
				"z": 0.896778615,
				"element": "C" 
			},
			{
				"x": 0.6785580959,
				"y": 0.0410746365,
				"z": 0.8325336147,
				"element": "C" 
			},
			{
				"x": 1.3037464767,
				"y": 1.1377324181,
				"z": 0.2555616352,
				"element": "C" 
			},
			{
				"x": 2.6497498764,
				"y": 1.1621421436,
				"z": 0.2015451125,
				"element": "F" 
			},
			{
				"x": 0.5915046896,
				"y": 2.2113167945,
				"z": -0.2726928857,
				"element": "C" 
			},
			{
				"x": -0.7996079634,
				"y": 2.170031436,
				"z": -0.2129747787,
				"element": "C" 
			},
			{
				"x": -1.4529368399,
				"y": 1.0771706111,
				"z": 0.3653200178,
				"element": "C" 
			},
			{
				"x": 0.0134872873,
				"y": -1.6711096875,
				"z": 3.0796806324,
				"element": "H" 
			},
			{
				"x": -1.2734650275,
				"y": -0.5629955552,
				"z": 3.5915846845,
				"element": "H" 
			},
			{
				"x": -1.6053328678,
				"y": -2.2997740205,
				"z": 3.3726237333,
				"element": "H" 
			},
			{
				"x": -2.5144607555,
				"y": -0.9806744147,
				"z": 1.4783512569,
				"element": "H" 
			},
			{
				"x": -1.4013359314,
				"y": -1.3633619946,
				"z": -0.8738704866,
				"element": "H" 
			},
			{
				"x": 1.2876634808,
				"y": -0.7687111392,
				"z": 1.2209227518,
				"element": "H" 
			},
			{
				"x": 1.1256547376,
				"y": 3.0455709345,
				"z": -0.7137010909,
				"element": "H" 
			},
			{
				"x": -1.3793050125,
				"y": 2.9954917536,
				"z": -0.6147879767,
				"element": "H" 
			},
			{
				"x": -2.5383815118,
				"y": 1.0653290278,
				"z": 0.4178952295,
				"element": "H" 
			}
		],
		 "valence_orbital": [ 
			{
				"type": "occ",
				"energy": -0.352,
				"method": "rhf"
			},
			{
				"type": "occ",
				"energy": -0.31506,
				"method": "rhf"
			},
			{
				"type": "occ",
				"energy": -0.28463,
				"method": "rhf"
			},
			{
				"type": "occ",
				"energy": -0.2663,
				"method": "rhf"
			},
			{
				"type": "occ",
				"energy": -0.25688,
				"method": "rhf"
			},
			{
				"type": "unocc",
				"energy": -0.0327,
				"method": "rhf"
			},
			{
				"type": "unocc",
				"energy": -0.01939,
				"method": "rhf"
			},
			{
				"type": "unocc",
				"energy": 0.00998,
				"method": "rhf"
			},
			{
				"type": "unocc",
				"energy": 0.07476,
				"method": "rhf"
			},
			{
				"type": "unocc",
				"energy": 0.08325,
				"method": "rhf"
			}
		],
		"cosmo_sigma_profile": { 
			"-0.025": 0.0,
			"-0.024": 0.0,
			"-0.023": 0.0,
			"-0.022": 0.0,
			"-0.021": 0.0,
			"-0.02": 0.0,
			"-0.019": 0.0,
			"-0.018": 0.0,
			"-0.017": 0.0,
			"-0.016": 0.0,
			"-0.015": 0.233760595183,
			"-0.014": 0.616995892343,
			"-0.013": 0.671895902359,
			"-0.012": 1.43760589685,
			"-0.011": 1.51283881048,
			"-0.01": 1.27689953178,
			"-0.009": 1.1735171071,
			"-0.008": 4.48564666932,
			"-0.007": 11.2257609392,
			"-0.006": 11.8064540296,
			"-0.005": 10.291832564,
			"-0.004": 12.8850204646,
			"-0.003": 13.5072296225,
			"-0.002": 12.4447416163,
			"-0.001": 12.260495502,
			"0.0": 16.3697601067,
			"0.001": 17.3260389486,
			"0.002": 11.5977495086,
			"0.003": 12.1152856553,
			"0.004": 15.4292619827,
			"0.005": 5.99237293795,
			"0.006": 2.31596781429,
			"0.007": 2.41555734404,
			"0.008": 2.42508371211,
			"0.009": 3.61216967804,
			"0.01": 4.87203153039,
			"0.011": 5.12036818617,
			"0.012": 5.38493624691,
			"0.013": 1.50750201455,
			"0.014": 0.0223480599297,
			"0.015": 0.0,
			"0.016": 0.0,
			"0.017": 0.0,
			"0.018": 0.0,
			"0.019": 0.0,
			"0.02": 0.0,
			"0.021": 0.0,
			"0.022": 0.0,
			"0.023": 0.0,
			"0.024": 0.0,
			"0.025": 0.0
		}
	}
}
