{
	 "smiles": "FC(F)(F)C(F)(F)C(F)(F)C(F)(F)C(F)(F)C(F)(F)C(F)(F)C(F)(F)C(=O)NC1=NC=CS1", 
	 "Tm": 419.15, 
	 "num_atms": 36, 
	 "gaussian": { 
		 "optdone": 1, 
		 "sigma_profile": "yes", 
		 "theory": "DFT", 
		 "functional": "B3LYP", 
		 "basiset": "6-31G**", 
		 "properties": { 
			 "R2extent": 16320.3601, 
			 "electric_dipole_moment_norm": 4.10195049824, 
			 "electric_quadrupole_moment_norm": 16.0889582382, 
			 "total_energy": -2739.1919059, 
			 "HOMO_LUMO_gap": 0.18447, 
			 "cosmo_polarized_energy": -14.84, 
			 "cosmo_cavitation_energy": 48.43, 
			 "cosmo_dispersion_energy": -31.68, 
			 "cosmo_repulsion_energy": 2.04, 
			 "cosmo_total_nonelectrostatic_energy": 18.79, 
			 "SMD_solvation_energy": 12.51 
		},
		"coords": [
			{
				"x": -5.4747858625,
				"y": 0.4594651138,
				"z": 0.9232758017,
				"element": "F" 
			},
			{
				"x": -4.8405601855,
				"y": -0.2231407015,
				"z": -0.0350675987,
				"element": "C" 
			},
			{
				"x": -5.7275938228,
				"y": -0.9918435414,
				"z": -0.6770963343,
				"element": "F" 
			},
			{
				"x": -4.3028400342,
				"y": 0.6397731955,
				"z": -0.9077639516,
				"element": "F" 
			},
			{
				"x": -3.7427741963,
				"y": -1.1340830811,
				"z": 0.5793250658,
				"element": "C" 
			},
			{
				"x": -3.3170062601,
				"y": -1.9744051517,
				"z": -0.3877492154,
				"element": "F" 
			},
			{
				"x": -4.3202900173,
				"y": -1.8500038565,
				"z": 1.5700038765,
				"element": "F" 
			},
			{
				"x": -2.5135101268,
				"y": -0.352963317,
				"z": 1.1320993898,
				"element": "C" 
			},
			{
				"x": -2.9634542752,
				"y": 0.7073463316,
				"z": 1.8475520872,
				"element": "F" 
			},
			{
				"x": -1.8093581117,
				"y": 0.094071613,
				"z": 0.0673808693,
				"element": "F" 
			},
			{
				"x": -1.5744484841,
				"y": -1.201530179,
				"z": 2.0308359211,
				"element": "C" 
			},
			{
				"x": -1.2462631284,
				"y": -2.3104529365,
				"z": 1.3216298634,
				"element": "F" 
			},
			{
				"x": -2.2394873479,
				"y": -1.5770286007,
				"z": 3.1431730759,
				"element": "F" 
			},
			{
				"x": -0.2085620141,
				"y": -0.5680128625,
				"z": 2.4705264232,
				"element": "C" 
			},
			{
				"x": 0.5178775776,
				"y": -0.3161411026,
				"z": 1.3543529925,
				"element": "F" 
			},
			{
				"x": 0.4049540293,
				"y": -1.5446656246,
				"z": 3.1697398351,
				"element": "F" 
			},
			{
				"x": -0.2440924251,
				"y": 0.7062328977,
				"z": 3.3972884034,
				"element": "C" 
			},
			{
				"x": 0.727692709,
				"y": 0.577815183,
				"z": 4.3227611294,
				"element": "F" 
			},
			{
				"x": -1.4347389573,
				"y": 0.7272277983,
				"z": 4.0425482679,
				"element": "F" 
			},
			{
				"x": -0.0632328038,
				"y": 2.0971279956,
				"z": 2.6969669564,
				"element": "C" 
			},
			{
				"x": -0.7445078432,
				"y": 3.002261236,
				"z": 3.4335742317,
				"element": "F" 
			},
			{
				"x": -0.611822193,
				"y": 2.0621393307,
				"z": 1.453251126,
				"element": "F" 
			},
			{
				"x": 1.3851368809,
				"y": 2.6524972186,
				"z": 2.5556373491,
				"element": "C" 
			},
			{
				"x": 1.2355093355,
				"y": 3.8455777287,
				"z": 1.8854996567,
				"element": "F" 
			},
			{
				"x": 1.866575021,
				"y": 2.9213573068,
				"z": 3.7827706522,
				"element": "F" 
			},
			{
				"x": 2.4003644948,
				"y": 1.7437639188,
				"z": 1.8074444925,
				"element": "C" 
			},
			{
				"x": 2.9414681487,
				"y": 0.8358757386,
				"z": 2.3932924809,
				"element": "O" 
			},
			{
				"x": 2.5555235386,
				"y": 2.1129707241,
				"z": 0.4909612192,
				"element": "N" 
			},
			{
				"x": 3.3594768506,
				"y": 1.4858808654,
				"z": -0.4589994697,
				"element": "C" 
			},
			{
				"x": 4.0303418888,
				"y": 0.3920034393,
				"z": -0.2868456704,
				"element": "N" 
			},
			{
				"x": 4.7081654573,
				"y": 0.0620008298,
				"z": -1.4395260583,
				"element": "C" 
			},
			{
				"x": 4.5564547787,
				"y": 0.9037706434,
				"z": -2.4999288846,
				"element": "C" 
			},
			{
				"x": 3.5011954523,
				"y": 2.2178246317,
				"z": -2.064599157,
				"element": "S" 
			},
			{
				"x": 2.0596060967,
				"y": 2.9451661014,
				"z": 0.2031093741,
				"element": "H" 
			},
			{
				"x": 5.3160925467,
				"y": -0.8347306193,
				"z": -1.4482607511,
				"element": "H" 
			},
			{
				"x": 4.9849932826,
				"y": 0.8394517327,
				"z": -3.4892634497,
				"element": "H" 
			}
		],
		 "valence_orbital": [ 
			{
				"type": "occ",
				"energy": -0.33843,
				"method": "rhf"
			},
			{
				"type": "occ",
				"energy": -0.30827,
				"method": "rhf"
			},
			{
				"type": "occ",
				"energy": -0.29971,
				"method": "rhf"
			},
			{
				"type": "occ",
				"energy": -0.2762,
				"method": "rhf"
			},
			{
				"type": "occ",
				"energy": -0.24362,
				"method": "rhf"
			},
			{
				"type": "unocc",
				"energy": -0.05915,
				"method": "rhf"
			},
			{
				"type": "unocc",
				"energy": -0.01529,
				"method": "rhf"
			},
			{
				"type": "unocc",
				"energy": -0.00704,
				"method": "rhf"
			},
			{
				"type": "unocc",
				"energy": 0.00545,
				"method": "rhf"
			},
			{
				"type": "unocc",
				"energy": 0.01488,
				"method": "rhf"
			}
		],
		"cosmo_sigma_profile": { 
			"-0.025": 0.0,
			"-0.024": 0.0,
			"-0.023": 0.0,
			"-0.022": 0.0,
			"-0.021": 0.0,
			"-0.02": 0.0,
			"-0.019": 0.0,
			"-0.018": 0.121968471492,
			"-0.017": 0.985800072346,
			"-0.016": 0.90112394338,
			"-0.015": 0.511658325375,
			"-0.014": 1.26498416334,
			"-0.013": 1.08351636845,
			"-0.012": 0.956125780288,
			"-0.011": 0.915229246672,
			"-0.01": 2.30112184809,
			"-0.009": 4.00485024419,
			"-0.008": 5.71088905707,
			"-0.007": 5.83433570768,
			"-0.006": 6.55951992949,
			"-0.005": 7.5115582591,
			"-0.004": 9.59755139112,
			"-0.003": 14.415203086,
			"-0.002": 22.9709467339,
			"-0.001": 36.9325493582,
			"0.0": 70.9891336552,
			"0.001": 124.16705315,
			"0.002": 33.183061867,
			"0.003": 10.7847499812,
			"0.004": 4.58767480191,
			"0.005": 3.27265399978,
			"0.006": 3.26183488333,
			"0.007": 3.13285302382,
			"0.008": 2.28654705788,
			"0.009": 2.76839920098,
			"0.01": 4.04901266046,
			"0.011": 1.34782374048,
			"0.012": 1.54899719723,
			"0.013": 1.5194024749,
			"0.014": 0.987764907232,
			"0.015": 0.997384445969,
			"0.016": 1.05985849103,
			"0.017": 0.203989061152,
			"0.018": 0.0,
			"0.019": 0.0,
			"0.02": 0.0,
			"0.021": 0.0,
			"0.022": 0.0,
			"0.023": 0.0,
			"0.024": 0.0,
			"0.025": 0.0
		}
	}
}
