{
	 "smiles": "NC(CO)C(O)=O", 
	 "Tm": 513.15, 
	 "num_atms": 14, 
	 "gaussian": { 
		 "optdone": 1, 
		 "sigma_profile": "yes", 
		 "theory": "DFT", 
		 "functional": "B3LYP", 
		 "basiset": "6-31G**", 
		 "properties": { 
			 "R2extent": 1100.4076, 
			 "electric_dipole_moment_norm": 4.17342631659, 
			 "electric_quadrupole_moment_norm": 11.2514809514, 
			 "total_energy": -398.958462636, 
			 "HOMO_LUMO_gap": 0.2664, 
			 "cosmo_polarized_energy": -16.15, 
			 "cosmo_cavitation_energy": 17.4, 
			 "cosmo_dispersion_energy": -13.21, 
			 "cosmo_repulsion_energy": 1.15, 
			 "cosmo_total_nonelectrostatic_energy": 5.34, 
			 "SMD_solvation_energy": 3.38 
		},
		"coords": [
			{
				"x": 1.9554411048,
				"y": -1.9954344406,
				"z": 0.7287861885,
				"element": "N" 
			},
			{
				"x": 1.2922670958,
				"y": -0.7344861894,
				"z": 1.0282073774,
				"element": "C" 
			},
			{
				"x": 0.9369820673,
				"y": -0.6908009734,
				"z": 2.5228729367,
				"element": "C" 
			},
			{
				"x": 0.5165330545,
				"y": 0.646858148,
				"z": 2.8396085913,
				"element": "O" 
			},
			{
				"x": 0.0659644027,
				"y": -0.4606821855,
				"z": 0.1231138392,
				"element": "C" 
			},
			{
				"x": -0.6876298254,
				"y": 0.6015416828,
				"z": 0.4574309288,
				"element": "O" 
			},
			{
				"x": -0.1938413145,
				"y": -1.1510927602,
				"z": -0.8356441965,
				"element": "O" 
			},
			{
				"x": 1.2396463601,
				"y": -2.6928640943,
				"z": 0.5299545071,
				"element": "H" 
			},
			{
				"x": 2.4577976608,
				"y": -1.8997742694,
				"z": -0.1497240989,
				"element": "H" 
			},
			{
				"x": 2.003027356,
				"y": 0.0861865327,
				"z": 0.8602375316,
				"element": "H" 
			},
			{
				"x": 0.1422799476,
				"y": -1.4166300635,
				"z": 2.7477051524,
				"element": "H" 
			},
			{
				"x": 1.8288955321,
				"y": -0.9657272449,
				"z": 3.095391799,
				"element": "H" 
			},
			{
				"x": 0.0802068914,
				"y": 0.6484927485,
				"z": 3.700404231,
				"element": "H" 
			},
			{
				"x": -0.3761703332,
				"y": 0.9460131092,
				"z": 1.3229552125,
				"element": "H" 
			}
		],
		 "valence_orbital": [ 
			{
				"type": "occ",
				"energy": -0.35927,
				"method": "rhf"
			},
			{
				"type": "occ",
				"energy": -0.31173,
				"method": "rhf"
			},
			{
				"type": "occ",
				"energy": -0.30278,
				"method": "rhf"
			},
			{
				"type": "occ",
				"energy": -0.2683,
				"method": "rhf"
			},
			{
				"type": "occ",
				"energy": -0.25169,
				"method": "rhf"
			},
			{
				"type": "unocc",
				"energy": 0.01471,
				"method": "rhf"
			},
			{
				"type": "unocc",
				"energy": 0.04102,
				"method": "rhf"
			},
			{
				"type": "unocc",
				"energy": 0.08265,
				"method": "rhf"
			},
			{
				"type": "unocc",
				"energy": 0.11625,
				"method": "rhf"
			},
			{
				"type": "unocc",
				"energy": 0.13655,
				"method": "rhf"
			}
		],
		"cosmo_sigma_profile": { 
			"-0.025": 0.0,
			"-0.024": 0.0,
			"-0.023": 0.0,
			"-0.022": 0.0,
			"-0.021": 0.0,
			"-0.02": 0.0,
			"-0.019": 0.0,
			"-0.018": 0.222647610302,
			"-0.017": 0.99160968163,
			"-0.016": 1.55405533616,
			"-0.015": 0.962768631234,
			"-0.014": 0.848522224994,
			"-0.013": 1.08297242423,
			"-0.012": 0.720738910352,
			"-0.011": 1.29930032926,
			"-0.01": 2.66626880955,
			"-0.009": 4.42665684346,
			"-0.008": 5.17554050028,
			"-0.007": 10.273606247,
			"-0.006": 9.41771072887,
			"-0.005": 9.33956306712,
			"-0.004": 8.81093230651,
			"-0.003": 6.96901079869,
			"-0.002": 5.264584911,
			"-0.001": 3.6261197478,
			"0.0": 4.63159030921,
			"0.001": 3.57562699234,
			"0.002": 3.0933807871,
			"0.003": 3.8465260347,
			"0.004": 4.19416859835,
			"0.005": 3.07480156208,
			"0.006": 2.78885567186,
			"0.007": 3.55447943173,
			"0.008": 4.26159802503,
			"0.009": 4.13329583883,
			"0.01": 4.32089017192,
			"0.011": 6.6291953973,
			"0.012": 7.22540498838,
			"0.013": 3.50696081725,
			"0.014": 1.09723960498,
			"0.015": 0.414170973279,
			"0.016": 0.50132231797,
			"0.017": 0.762651489652,
			"0.018": 0.188040048533,
			"0.019": 0.0,
			"0.02": 0.0,
			"0.021": 0.0,
			"0.022": 0.0,
			"0.023": 0.0,
			"0.024": 0.0,
			"0.025": 0.0
		}
	}
}
