{
	 "smiles": "CCCC(=O)C1=C(C)C=C(C)C(C2CC(O)=C(C(CC)=NOCC)C(=O)C2)=C1C", 
	 "Tm": 353.95, 
	 "num_atms": 62, 
	 "gaussian": { 
		 "optdone": 1, 
		 "sigma_profile": "yes", 
		 "theory": "DFT", 
		 "functional": "B3LYP", 
		 "basiset": "6-31G**", 
		 "properties": { 
			 "R2extent": 18774.9721, 
			 "electric_dipole_moment_norm": 4.77226539078, 
			 "electric_quadrupole_moment_norm": 17.673586423, 
			 "total_energy": -1290.06774439, 
			 "HOMO_LUMO_gap": 0.17676, 
			 "cosmo_polarized_energy": -16.77, 
			 "cosmo_cavitation_energy": 61.11, 
			 "cosmo_dispersion_energy": -40.89, 
			 "cosmo_repulsion_energy": 3.13, 
			 "cosmo_total_nonelectrostatic_energy": 23.35, 
			 "SMD_solvation_energy": 11.22 
		},
		"coords": [
			{
				"x": 6.8796134326,
				"y": -1.5081081633,
				"z": 1.280285751,
				"element": "C" 
			},
			{
				"x": 5.7682119496,
				"y": -1.7399577671,
				"z": 2.3080050355,
				"element": "C" 
			},
			{
				"x": 4.4230202164,
				"y": -2.0703539779,
				"z": 1.6591382298,
				"element": "C" 
			},
			{
				"x": 3.3052938468,
				"y": -2.3665959247,
				"z": 2.6521508376,
				"element": "C" 
			},
			{
				"x": 3.5185542261,
				"y": -2.4811703862,
				"z": 3.8462969106,
				"element": "O" 
			},
			{
				"x": 1.923690208,
				"y": -2.593921243,
				"z": 2.070200947,
				"element": "C" 
			},
			{
				"x": 1.4795673207,
				"y": -3.9204341836,
				"z": 1.9331033386,
				"element": "C" 
			},
			{
				"x": 2.3180039551,
				"y": -5.0932344,
				"z": 2.3889016302,
				"element": "C" 
			},
			{
				"x": 0.2281385393,
				"y": -4.1260109782,
				"z": 1.3611373245,
				"element": "C" 
			},
			{
				"x": -0.5998026448,
				"y": -3.0790742761,
				"z": 0.9377895561,
				"element": "C" 
			},
			{
				"x": -1.9412519873,
				"y": -3.4802033577,
				"z": 0.3533894872,
				"element": "C" 
			},
			{
				"x": -0.1634732087,
				"y": -1.745210262,
				"z": 1.1035302336,
				"element": "C" 
			},
			{
				"x": -0.9895229272,
				"y": -0.5349630558,
				"z": 0.6606435334,
				"element": "C" 
			},
			{
				"x": -1.0215090169,
				"y": -0.3459678049,
				"z": -0.8657156729,
				"element": "C" 
			},
			{
				"x": -1.8413766699,
				"y": 0.8446870733,
				"z": -1.2879756742,
				"element": "C" 
			},
			{
				"x": -1.5098182299,
				"y": 1.2779720733,
				"z": -2.4920759486,
				"element": "O" 
			},
			{
				"x": -2.837468455,
				"y": 1.4296866005,
				"z": -0.5144489505,
				"element": "C" 
			},
			{
				"x": -3.621842074,
				"y": 2.5747659238,
				"z": -1.0370026999,
				"element": "C" 
			},
			{
				"x": -4.8217975152,
				"y": 3.1613300048,
				"z": -0.3268499189,
				"element": "C" 
			},
			{
				"x": -4.4508639718,
				"y": 4.3699457672,
				"z": 0.5523118682,
				"element": "C" 
			},
			{
				"x": -3.2333598308,
				"y": 3.0436120263,
				"z": -2.1866688626,
				"element": "N" 
			},
			{
				"x": -3.9827136068,
				"y": 4.1222098025,
				"z": -2.6600640438,
				"element": "O" 
			},
			{
				"x": -3.5855123223,
				"y": 4.438202277,
				"z": -4.000617732,
				"element": "C" 
			},
			{
				"x": -4.1071147801,
				"y": 3.4361958282,
				"z": -5.0221444142,
				"element": "C" 
			},
			{
				"x": -3.0833825306,
				"y": 0.8921157594,
				"z": 0.8403126357,
				"element": "C" 
			},
			{
				"x": -3.8002047072,
				"y": 1.4453174387,
				"z": 1.6704201828,
				"element": "O" 
			},
			{
				"x": -2.4237296406,
				"y": -0.4369260747,
				"z": 1.2071235368,
				"element": "C" 
			},
			{
				"x": 1.1130681819,
				"y": -1.5129708896,
				"z": 1.6811234019,
				"element": "C" 
			},
			{
				"x": 1.6172087782,
				"y": -0.099609518,
				"z": 1.9285064537,
				"element": "C" 
			},
			{
				"x": 7.0405391646,
				"y": -2.3963060994,
				"z": 0.6582295442,
				"element": "H" 
			},
			{
				"x": 7.8287627407,
				"y": -1.2721709391,
				"z": 1.771899856,
				"element": "H" 
			},
			{
				"x": 6.6384932702,
				"y": -0.6758044228,
				"z": 0.6088353608,
				"element": "H" 
			},
			{
				"x": 5.6513256032,
				"y": -0.8526520364,
				"z": 2.9414571123,
				"element": "H" 
			},
			{
				"x": 6.0425445706,
				"y": -2.5529948463,
				"z": 2.9883905726,
				"element": "H" 
			},
			{
				"x": 4.0938738962,
				"y": -1.2693720675,
				"z": 0.9835840603,
				"element": "H" 
			},
			{
				"x": 4.509164238,
				"y": -2.9573554548,
				"z": 1.0115627185,
				"element": "H" 
			},
			{
				"x": 3.2826321673,
				"y": -5.1351525871,
				"z": 1.8683517715,
				"element": "H" 
			},
			{
				"x": 2.5366641169,
				"y": -5.0289523155,
				"z": 3.4589839483,
				"element": "H" 
			},
			{
				"x": 1.800658244,
				"y": -6.0371118466,
				"z": 2.1992863794,
				"element": "H" 
			},
			{
				"x": -0.1253232356,
				"y": -5.1472594102,
				"z": 1.2374254633,
				"element": "H" 
			},
			{
				"x": -1.9199453001,
				"y": -4.5330183845,
				"z": 0.059170597,
				"element": "H" 
			},
			{
				"x": -2.2228135102,
				"y": -2.9037606662,
				"z": -0.5302952513,
				"element": "H" 
			},
			{
				"x": -2.7500682329,
				"y": -3.3688738165,
				"z": 1.0846858251,
				"element": "H" 
			},
			{
				"x": -0.4847758468,
				"y": 0.3527876601,
				"z": 1.0466597012,
				"element": "H" 
			},
			{
				"x": -1.4302570366,
				"y": -1.2296781823,
				"z": -1.3719556222,
				"element": "H" 
			},
			{
				"x": -0.0124283914,
				"y": -0.2125654749,
				"z": -1.2694186617,
				"element": "H" 
			},
			{
				"x": -2.0940137237,
				"y": 2.0913132267,
				"z": -2.6804015345,
				"element": "H" 
			},
			{
				"x": -5.5291160228,
				"y": 3.4774493036,
				"z": -1.0980312917,
				"element": "H" 
			},
			{
				"x": -5.2850921403,
				"y": 2.3973264037,
				"z": 0.293919822,
				"element": "H" 
			},
			{
				"x": -3.9668075722,
				"y": 5.1520879578,
				"z": -0.039286645,
				"element": "H" 
			},
			{
				"x": -3.7823806319,
				"y": 4.0614381665,
				"z": 1.3589538055,
				"element": "H" 
			},
			{
				"x": -5.3537708411,
				"y": 4.7930058245,
				"z": 1.0036834834,
				"element": "H" 
			},
			{
				"x": -4.0113206328,
				"y": 5.4315331043,
				"z": -4.1703160779,
				"element": "H" 
			},
			{
				"x": -2.4921396493,
				"y": 4.5210480501,
				"z": -4.0428244016,
				"element": "H" 
			},
			{
				"x": -5.1984127723,
				"y": 3.3732574315,
				"z": -4.9778207152,
				"element": "H" 
			},
			{
				"x": -3.6964148373,
				"y": 2.4392399552,
				"z": -4.8383983484,
				"element": "H" 
			},
			{
				"x": -3.8186622086,
				"y": 3.7427649979,
				"z": -6.0332160164,
				"element": "H" 
			},
			{
				"x": -3.061558367,
				"y": -1.2313930392,
				"z": 0.8060258719,
				"element": "H" 
			},
			{
				"x": -2.4484102407,
				"y": -0.5174214912,
				"z": 2.2965739672,
				"element": "H" 
			},
			{
				"x": 2.5754013255,
				"y": -0.098963379,
				"z": 2.4502536135,
				"element": "H" 
			},
			{
				"x": 1.7469936691,
				"y": 0.4699482871,
				"z": 1.0009199853,
				"element": "H" 
			},
			{
				"x": 0.9267316514,
				"y": 0.4663777785,
				"z": 2.5627041301,
				"element": "H" 
			}
		],
		 "valence_orbital": [ 
			{
				"type": "occ",
				"energy": -0.24735,
				"method": "rhf"
			},
			{
				"type": "occ",
				"energy": -0.24169,
				"method": "rhf"
			},
			{
				"type": "occ",
				"energy": -0.23818,
				"method": "rhf"
			},
			{
				"type": "occ",
				"energy": -0.22893,
				"method": "rhf"
			},
			{
				"type": "occ",
				"energy": -0.2188,
				"method": "rhf"
			},
			{
				"type": "unocc",
				"energy": -0.04204,
				"method": "rhf"
			},
			{
				"type": "unocc",
				"energy": -0.02472,
				"method": "rhf"
			},
			{
				"type": "unocc",
				"energy": -0.01315,
				"method": "rhf"
			},
			{
				"type": "unocc",
				"energy": -0.00506,
				"method": "rhf"
			},
			{
				"type": "unocc",
				"energy": 0.00107,
				"method": "rhf"
			}
		],
		"cosmo_sigma_profile": { 
			"-0.025": 0.0,
			"-0.024": 0.0,
			"-0.023": 0.0,
			"-0.022": 0.0,
			"-0.021": 0.0,
			"-0.02": 0.0,
			"-0.019": 0.0,
			"-0.018": 0.0,
			"-0.017": 0.0,
			"-0.016": 0.0,
			"-0.015": 0.0,
			"-0.014": 0.0,
			"-0.013": 0.0,
			"-0.012": 0.0,
			"-0.011": 0.0,
			"-0.01": 0.0,
			"-0.009": 0.0,
			"-0.008": 0.451295255919,
			"-0.007": 2.54154092264,
			"-0.006": 5.72465970927,
			"-0.005": 29.5321392996,
			"-0.004": 45.6094351746,
			"-0.003": 51.8409386927,
			"-0.002": 59.9756744942,
			"-0.001": 58.7314510699,
			"0.0": 61.0067401391,
			"0.001": 45.0750571579,
			"0.002": 24.1445404484,
			"0.003": 14.1983421064,
			"0.004": 14.8551858254,
			"0.005": 14.9085710451,
			"0.006": 11.4641909263,
			"0.007": 6.0891808598,
			"0.008": 5.61978291211,
			"0.009": 4.72469519148,
			"0.01": 5.54064155148,
			"0.011": 4.52304302255,
			"0.012": 5.84551724159,
			"0.013": 3.63393432197,
			"0.014": 1.62837443227,
			"0.015": 0.205578094319,
			"0.016": 0.0,
			"0.017": 0.0,
			"0.018": 0.0,
			"0.019": 0.0,
			"0.02": 0.0,
			"0.021": 0.0,
			"0.022": 0.0,
			"0.023": 0.0,
			"0.024": 0.0,
			"0.025": 0.0
		}
	}
}
