{
	 "smiles": "C1=CC2=CC3=CC4=CC5=CC=CC=C5C=C4C=C3C=C2C=C1", 
	 "Tm": 573.15, 
	 "num_atms": 36, 
	 "gaussian": { 
		 "optdone": 1, 
		 "sigma_profile": "yes", 
		 "theory": "DFT", 
		 "functional": "B3LYP", 
		 "basiset": "6-31G**", 
		 "properties": { 
			 "R2extent": 9764.0947, 
			 "electric_dipole_moment_norm": 0.0, 
			 "electric_quadrupole_moment_norm": 17.3595612514, 
			 "total_energy": -846.803672329, 
			 "HOMO_LUMO_gap": 0.08119, 
			 "cosmo_polarized_energy": -8.26, 
			 "cosmo_cavitation_energy": 39.29, 
			 "cosmo_dispersion_energy": -29.21, 
			 "cosmo_repulsion_energy": 2.1, 
			 "cosmo_total_nonelectrostatic_energy": 12.17, 
			 "SMD_solvation_energy": 5.3 
		},
		"coords": [
			{
				"x": 1.1492239371,
				"y": -1.5795073257,
				"z": 5.2842103359,
				"element": "C" 
			},
			{
				"x": 1.4272175393,
				"y": -1.931033201,
				"z": 3.9941562823,
				"element": "C" 
			},
			{
				"x": 1.0825028187,
				"y": -1.0671535132,
				"z": 2.9000859007,
				"element": "C" 
			},
			{
				"x": 1.3534227647,
				"y": -1.3994094735,
				"z": 1.5786842032,
				"element": "C" 
			},
			{
				"x": 1.0108917195,
				"y": -0.5431366323,
				"z": 0.5054383603,
				"element": "C" 
			},
			{
				"x": 1.2812030596,
				"y": -0.8717028714,
				"z": -0.8309957999,
				"element": "C" 
			},
			{
				"x": 0.9388456539,
				"y": -0.0180552953,
				"z": -1.8898403529,
				"element": "C" 
			},
			{
				"x": 1.2084439913,
				"y": -0.3429985641,
				"z": -3.2404411317,
				"element": "C" 
			},
			{
				"x": 0.8663223096,
				"y": 0.5076795914,
				"z": -4.2840835044,
				"element": "C" 
			},
			{
				"x": 1.1367198019,
				"y": 0.1845148964,
				"z": -5.6568755679,
				"element": "C" 
			},
			{
				"x": 0.7894921932,
				"y": 1.0394676116,
				"z": -6.6636398234,
				"element": "C" 
			},
			{
				"x": 0.1439653478,
				"y": 2.285152839,
				"z": -6.3711318824,
				"element": "C" 
			},
			{
				"x": -0.1340292249,
				"y": 2.6366778235,
				"z": -5.0810780048,
				"element": "C" 
			},
			{
				"x": 0.2106855555,
				"y": 1.7727973792,
				"z": -3.987007836,
				"element": "C" 
			},
			{
				"x": -0.0602342964,
				"y": 2.1050533039,
				"z": -2.6656066686,
				"element": "C" 
			},
			{
				"x": 0.2822969453,
				"y": 1.2487798288,
				"z": -1.5923604963,
				"element": "C" 
			},
			{
				"x": 0.0119857634,
				"y": 1.5773465064,
				"z": -0.2559270683,
				"element": "C" 
			},
			{
				"x": 0.3543430492,
				"y": 0.7236992138,
				"z": 0.8029185232,
				"element": "C" 
			},
			{
				"x": 0.0847443734,
				"y": 1.0486425288,
				"z": 2.1535182384,
				"element": "C" 
			},
			{
				"x": 0.4268663163,
				"y": 0.1979644134,
				"z": 3.1971613756,
				"element": "C" 
			},
			{
				"x": 0.1564692953,
				"y": 0.5211299188,
				"z": 4.5699524183,
				"element": "C" 
			},
			{
				"x": 0.5036977916,
				"y": -0.3338219723,
				"z": 5.5767175755,
				"element": "C" 
			},
			{
				"x": 1.4162320762,
				"y": -2.2437934451,
				"z": 6.1009948209,
				"element": "H" 
			},
			{
				"x": 1.9167576681,
				"y": -2.8755088209,
				"z": 3.7705601381,
				"element": "H" 
			},
			{
				"x": 1.8433753183,
				"y": -2.3449399732,
				"z": 1.3569228686,
				"element": "H" 
			},
			{
				"x": 1.7711078254,
				"y": -1.8170855399,
				"z": -1.0529664753,
				"element": "H" 
			},
			{
				"x": 1.6983850342,
				"y": -1.2884259958,
				"z": -3.4626680143,
				"element": "H" 
			},
			{
				"x": 1.6263890372,
				"y": -0.7607150984,
				"z": -5.8769761656,
				"element": "H" 
			},
			{
				"x": 1.0007417856,
				"y": 0.7807527761,
				"z": -7.6971513829,
				"element": "H" 
			},
			{
				"x": -0.1230420266,
				"y": 2.949439202,
				"z": -7.1879164749,
				"element": "H" 
			},
			{
				"x": -0.6235688319,
				"y": 3.5811537564,
				"z": -4.8574813012,
				"element": "H" 
			},
			{
				"x": -0.550186842,
				"y": 3.0505834356,
				"z": -2.443845536,
				"element": "H" 
			},
			{
				"x": -0.4779194612,
				"y": 2.5227289568,
				"z": -0.0339552048,
				"element": "H" 
			},
			{
				"x": -0.4051959464,
				"y": 1.9940700474,
				"z": 2.3757462659,
				"element": "H" 
			},
			{
				"x": -0.3332002922,
				"y": 1.4663600319,
				"z": 4.7900528193,
				"element": "H" 
			},
			{
				"x": 0.2924479502,
				"y": -0.0751063392,
				"z": 6.6102285654,
				"element": "H" 
			}
		],
		 "valence_orbital": [ 
			{
				"type": "occ",
				"energy": -0.27459,
				"method": "rhf"
			},
			{
				"type": "occ",
				"energy": -0.25678,
				"method": "rhf"
			},
			{
				"type": "occ",
				"energy": -0.23468,
				"method": "rhf"
			},
			{
				"type": "occ",
				"energy": -0.21643,
				"method": "rhf"
			},
			{
				"type": "occ",
				"energy": -0.16933,
				"method": "rhf"
			},
			{
				"type": "unocc",
				"energy": -0.08814,
				"method": "rhf"
			},
			{
				"type": "unocc",
				"energy": -0.03508,
				"method": "rhf"
			},
			{
				"type": "unocc",
				"energy": -0.0163,
				"method": "rhf"
			},
			{
				"type": "unocc",
				"energy": 0.00943,
				"method": "rhf"
			},
			{
				"type": "unocc",
				"energy": 0.03124,
				"method": "rhf"
			}
		],
		"cosmo_sigma_profile": { 
			"-0.025": 0.0,
			"-0.024": 0.0,
			"-0.023": 0.0,
			"-0.022": 0.0,
			"-0.021": 0.0,
			"-0.02": 0.0,
			"-0.019": 0.0,
			"-0.018": 0.0,
			"-0.017": 0.0,
			"-0.016": 0.0,
			"-0.015": 0.0,
			"-0.014": 0.0,
			"-0.013": 0.0,
			"-0.012": 0.0,
			"-0.011": 0.0,
			"-0.01": 0.0,
			"-0.009": 0.0,
			"-0.008": 0.0,
			"-0.007": 0.060595691757,
			"-0.006": 27.0804083714,
			"-0.005": 32.9453716238,
			"-0.004": 23.4700824846,
			"-0.003": 23.0569992981,
			"-0.002": 16.9468010414,
			"-0.001": 16.0318827488,
			"0.0": 14.3091395924,
			"0.001": 16.0517371471,
			"0.002": 20.5071516905,
			"0.003": 45.4245183671,
			"0.004": 60.5957761971,
			"0.005": 17.7821355678,
			"0.006": 2.22875654412,
			"0.007": 0.0,
			"0.008": 0.0,
			"0.009": 0.0,
			"0.01": 0.0,
			"0.011": 0.0,
			"0.012": 0.0,
			"0.013": 0.0,
			"0.014": 0.0,
			"0.015": 0.0,
			"0.016": 0.0,
			"0.017": 0.0,
			"0.018": 0.0,
			"0.019": 0.0,
			"0.02": 0.0,
			"0.021": 0.0,
			"0.022": 0.0,
			"0.023": 0.0,
			"0.024": 0.0,
			"0.025": 0.0
		}
	}
}
