{
	 "smiles": "CC1=CC=C(C=C1)C(=O)C1=NOC2C1C(=O)N(C2=O)C1=CC=C(F)C=C1", 
	 "Tm": 446.15, 
	 "num_atms": 39, 
	 "gaussian": { 
		 "optdone": 1, 
		 "sigma_profile": "yes", 
		 "theory": "DFT", 
		 "functional": "B3LYP", 
		 "basiset": "6-31G**", 
		 "properties": { 
			 "R2extent": 13287.2833, 
			 "electric_dipole_moment_norm": 2.08139038626, 
			 "electric_quadrupole_moment_norm": 18.9040514877, 
			 "total_energy": -1242.04733122, 
			 "HOMO_LUMO_gap": 0.16063, 
			 "cosmo_polarized_energy": -18.66, 
			 "cosmo_cavitation_energy": 45.43, 
			 "cosmo_dispersion_energy": -31.9, 
			 "cosmo_repulsion_energy": 2.36, 
			 "cosmo_total_nonelectrostatic_energy": 15.89, 
			 "SMD_solvation_energy": 9.62 
		},
		"coords": [
			{
				"x": -0.2339090117,
				"y": 1.5931775682,
				"z": -5.9988670288,
				"element": "C" 
			},
			{
				"x": -0.8541907398,
				"y": 1.3702318791,
				"z": -4.6418895084,
				"element": "C" 
			},
			{
				"x": -0.275809816,
				"y": 1.9048373346,
				"z": -3.4837797188,
				"element": "C" 
			},
			{
				"x": -0.8338148935,
				"y": 1.6827629949,
				"z": -2.2265807839,
				"element": "C" 
			},
			{
				"x": -2.0011604341,
				"y": 0.91367642,
				"z": -2.0998635986,
				"element": "C" 
			},
			{
				"x": -2.5846197384,
				"y": 0.3702928386,
				"z": -3.2595321266,
				"element": "C" 
			},
			{
				"x": -2.0220378199,
				"y": 0.5998552602,
				"z": -4.5064101507,
				"element": "C" 
			},
			{
				"x": -2.6586238505,
				"y": 0.601311149,
				"z": -0.8056312874,
				"element": "C" 
			},
			{
				"x": -3.6005454297,
				"y": -0.180674811,
				"z": -0.7227693056,
				"element": "O" 
			},
			{
				"x": -2.2287178579,
				"y": 1.2349301352,
				"z": 0.4847312987,
				"element": "C" 
			},
			{
				"x": -1.6664502973,
				"y": 2.3860671465,
				"z": 0.5894451603,
				"element": "N" 
			},
			{
				"x": -1.575948736,
				"y": 2.7699380656,
				"z": 1.914696983,
				"element": "O" 
			},
			{
				"x": -2.1861735917,
				"y": 1.7489648176,
				"z": 2.7668604751,
				"element": "C" 
			},
			{
				"x": -2.5907121596,
				"y": 0.6253071727,
				"z": 1.8231672046,
				"element": "C" 
			},
			{
				"x": -1.6761065129,
				"y": -0.556931288,
				"z": 2.1877870454,
				"element": "C" 
			},
			{
				"x": -1.6546485838,
				"y": -1.6403551111,
				"z": 1.6561982095,
				"element": "O" 
			},
			{
				"x": -0.8575856913,
				"y": -0.1540298003,
				"z": 3.2623614734,
				"element": "N" 
			},
			{
				"x": -1.1129058165,
				"y": 1.1603026135,
				"z": 3.6874731114,
				"element": "C" 
			},
			{
				"x": -0.573096067,
				"y": 1.7310266702,
				"z": 4.6057151168,
				"element": "O" 
			},
			{
				"x": 0.1300086218,
				"y": -0.999936445,
				"z": 3.8645180655,
				"element": "C" 
			},
			{
				"x": -0.1608210263,
				"y": -2.3459216523,
				"z": 4.1132353921,
				"element": "C" 
			},
			{
				"x": 0.8025165981,
				"y": -3.1671525731,
				"z": 4.6945454575,
				"element": "C" 
			},
			{
				"x": 2.0384806367,
				"y": -2.6246318742,
				"z": 5.0273068179,
				"element": "C" 
			},
			{
				"x": 2.9689511511,
				"y": -3.4168460541,
				"z": 5.5940967123,
				"element": "F" 
			},
			{
				"x": 2.342428441,
				"y": -1.2884733449,
				"z": 4.792407488,
				"element": "C" 
			},
			{
				"x": 1.381314981,
				"y": -0.4717102187,
				"z": 4.2015962539,
				"element": "C" 
			},
			{
				"x": 0.493694207,
				"y": 2.4088453533,
				"z": -5.9794339663,
				"element": "H" 
			},
			{
				"x": -0.9940835683,
				"y": 1.830453388,
				"z": -6.7501995852,
				"element": "H" 
			},
			{
				"x": 0.2879326842,
				"y": 0.6917057328,
				"z": -6.3431920653,
				"element": "H" 
			},
			{
				"x": 0.6268210293,
				"y": 2.5043674029,
				"z": -3.5664369259,
				"element": "H" 
			},
			{
				"x": -0.3680957094,
				"y": 2.1158461926,
				"z": -1.3503748448,
				"element": "H" 
			},
			{
				"x": -3.4830684757,
				"y": -0.2277684161,
				"z": -3.1523807025,
				"element": "H" 
			},
			{
				"x": -2.4895767311,
				"y": 0.178080573,
				"z": -5.3926141758,
				"element": "H" 
			},
			{
				"x": -2.9765269997,
				"y": 2.2268058496,
				"z": 3.3491676439,
				"element": "H" 
			},
			{
				"x": -3.6321531263,
				"y": 0.2980783287,
				"z": 1.8459230951,
				"element": "H" 
			},
			{
				"x": -1.1254564723,
				"y": -2.7538289618,
				"z": 3.8403516936,
				"element": "H" 
			},
			{
				"x": 0.6041350264,
				"y": -4.2144579534,
				"z": 4.8926693633,
				"element": "H" 
			},
			{
				"x": 3.3175437059,
				"y": -0.902384587,
				"z": 5.0672378886,
				"element": "H" 
			},
			{
				"x": 1.598012074,
				"y": 0.5728382042,
				"z": 4.0178638245,
				"element": "H" 
			}
		],
		 "valence_orbital": [ 
			{
				"type": "occ",
				"energy": -0.27076,
				"method": "rhf"
			},
			{
				"type": "occ",
				"energy": -0.26565,
				"method": "rhf"
			},
			{
				"type": "occ",
				"energy": -0.26159,
				"method": "rhf"
			},
			{
				"type": "occ",
				"energy": -0.25523,
				"method": "rhf"
			},
			{
				"type": "occ",
				"energy": -0.24685,
				"method": "rhf"
			},
			{
				"type": "unocc",
				"energy": -0.08622,
				"method": "rhf"
			},
			{
				"type": "unocc",
				"energy": -0.05005,
				"method": "rhf"
			},
			{
				"type": "unocc",
				"energy": -0.03557,
				"method": "rhf"
			},
			{
				"type": "unocc",
				"energy": -0.02197,
				"method": "rhf"
			},
			{
				"type": "unocc",
				"energy": -0.0207,
				"method": "rhf"
			}
		],
		"cosmo_sigma_profile": { 
			"-0.025": 0.0,
			"-0.024": 0.0,
			"-0.023": 0.0,
			"-0.022": 0.0,
			"-0.021": 0.0,
			"-0.02": 0.0,
			"-0.019": 0.0,
			"-0.018": 0.0,
			"-0.017": 0.0,
			"-0.016": 0.0,
			"-0.015": 0.0,
			"-0.014": 0.0,
			"-0.013": 0.00326077533814,
			"-0.012": 0.633623298373,
			"-0.011": 2.34311806507,
			"-0.01": 8.10046015096,
			"-0.009": 6.46760650979,
			"-0.008": 6.65818518922,
			"-0.007": 12.155767495,
			"-0.006": 16.8531816043,
			"-0.005": 24.3222722234,
			"-0.004": 23.7802834241,
			"-0.003": 23.9173337784,
			"-0.002": 20.7849883261,
			"-0.001": 24.2332924065,
			"0.0": 26.8181087335,
			"0.001": 24.603871825,
			"0.002": 27.5730212298,
			"0.003": 28.3679987362,
			"0.004": 24.813588404,
			"0.005": 8.79931068926,
			"0.006": 8.12179891476,
			"0.007": 9.3153568496,
			"0.008": 8.97417104921,
			"0.009": 10.1170845441,
			"0.01": 11.7243461374,
			"0.011": 5.88080772629,
			"0.012": 0.079634723495,
			"0.013": 0.0,
			"0.014": 0.0,
			"0.015": 0.0,
			"0.016": 0.0,
			"0.017": 0.0,
			"0.018": 0.0,
			"0.019": 0.0,
			"0.02": 0.0,
			"0.021": 0.0,
			"0.022": 0.0,
			"0.023": 0.0,
			"0.024": 0.0,
			"0.025": 0.0
		}
	}
}
