{
	 "smiles": "CSC(S)=NC1=CC=C(Cl)C=C1", 
	 "Tm": 385.15, 
	 "num_atms": 20, 
	 "gaussian": { 
		 "optdone": 1, 
		 "sigma_profile": "yes", 
		 "theory": "DFT", 
		 "functional": "B3LYP", 
		 "basiset": "6-31G**", 
		 "properties": { 
			 "R2extent": 5024.3441, 
			 "electric_dipole_moment_norm": 3.08545924783, 
			 "electric_quadrupole_moment_norm": 5.31150137249, 
			 "total_energy": -1620.97975942, 
			 "HOMO_LUMO_gap": 0.20302, 
			 "cosmo_polarized_energy": -7.71, 
			 "cosmo_cavitation_energy": 29.72, 
			 "cosmo_dispersion_energy": -22.12, 
			 "cosmo_repulsion_energy": 1.72, 
			 "cosmo_total_nonelectrostatic_energy": 9.32, 
			 "SMD_solvation_energy": 3.73 
		},
		"coords": [
			{
				"x": 1.8796729073,
				"y": -1.1322539186,
				"z": -2.6683428983,
				"element": "C" 
			},
			{
				"x": 1.3543972221,
				"y": -2.7132938341,
				"z": -1.9261274746,
				"element": "S" 
			},
			{
				"x": 0.5554035475,
				"y": -2.1278103517,
				"z": -0.4468166352,
				"element": "C" 
			},
			{
				"x": -0.1255268454,
				"y": -3.4295139009,
				"z": 0.6060556437,
				"element": "S" 
			},
			{
				"x": 0.4846615545,
				"y": -0.8908551637,
				"z": -0.1774478436,
				"element": "N" 
			},
			{
				"x": -0.1428904925,
				"y": -0.4036175428,
				"z": 0.9893182677,
				"element": "C" 
			},
			{
				"x": 0.6045051999,
				"y": -0.1859087773,
				"z": 2.156290276,
				"element": "C" 
			},
			{
				"x": 0.0038262026,
				"y": 0.362309884,
				"z": 3.287937876,
				"element": "C" 
			},
			{
				"x": -1.3485074428,
				"y": 0.699923589,
				"z": 3.2502957862,
				"element": "C" 
			},
			{
				"x": -2.1086281942,
				"y": 1.3969621399,
				"z": 4.6759548937,
				"element": "Cl" 
			},
			{
				"x": -2.1056816019,
				"y": 0.4975633127,
				"z": 2.0970777955,
				"element": "C" 
			},
			{
				"x": -1.5004703408,
				"y": -0.0509992033,
				"z": 0.9680014414,
				"element": "C" 
			},
			{
				"x": 1.0120614964,
				"y": -0.5057219407,
				"z": -2.8754521396,
				"element": "H" 
			},
			{
				"x": 2.3892985412,
				"y": -1.394582062,
				"z": -3.5978597051,
				"element": "H" 
			},
			{
				"x": 2.5605222431,
				"y": -0.60812245,
				"z": -1.9975846957,
				"element": "H" 
			},
			{
				"x": 0.2559160709,
				"y": -4.4530022266,
				"z": -0.1836158553,
				"element": "H" 
			},
			{
				"x": 1.6581579928,
				"y": -0.4451167332,
				"z": 2.1688932384,
				"element": "H" 
			},
			{
				"x": 0.5807859662,
				"y": 0.5272482116,
				"z": 4.1911968475,
				"element": "H" 
			},
			{
				"x": -3.1560134037,
				"y": 0.766870528,
				"z": 2.0816852981,
				"element": "H" 
			},
			{
				"x": -2.0757906234,
				"y": -0.2057795603,
				"z": 0.0610398834,
				"element": "H" 
			}
		],
		 "valence_orbital": [ 
			{
				"type": "occ",
				"energy": -0.2914,
				"method": "rhf"
			},
			{
				"type": "occ",
				"energy": -0.26822,
				"method": "rhf"
			},
			{
				"type": "occ",
				"energy": -0.26014,
				"method": "rhf"
			},
			{
				"type": "occ",
				"energy": -0.25191,
				"method": "rhf"
			},
			{
				"type": "occ",
				"energy": -0.2255,
				"method": "rhf"
			},
			{
				"type": "unocc",
				"energy": -0.02248,
				"method": "rhf"
			},
			{
				"type": "unocc",
				"energy": -0.01899,
				"method": "rhf"
			},
			{
				"type": "unocc",
				"energy": -0.00957,
				"method": "rhf"
			},
			{
				"type": "unocc",
				"energy": 0.00384,
				"method": "rhf"
			},
			{
				"type": "unocc",
				"energy": 0.02693,
				"method": "rhf"
			}
		],
		"cosmo_sigma_profile": { 
			"-0.025": 0.0,
			"-0.024": 0.0,
			"-0.023": 0.0,
			"-0.022": 0.0,
			"-0.021": 0.0,
			"-0.02": 0.0,
			"-0.019": 0.0,
			"-0.018": 0.0,
			"-0.017": 0.0,
			"-0.016": 0.0,
			"-0.015": 0.0,
			"-0.014": 0.0,
			"-0.013": 0.0,
			"-0.012": 0.69619103685,
			"-0.011": 1.66915419906,
			"-0.01": 1.19791079495,
			"-0.009": 1.5808764557,
			"-0.008": 2.46178689985,
			"-0.007": 8.79795138025,
			"-0.006": 13.1746949845,
			"-0.005": 14.6543053863,
			"-0.004": 12.7599839031,
			"-0.003": 13.6019891404,
			"-0.002": 16.985883047,
			"-0.001": 15.2413226378,
			"0.0": 14.876242074,
			"0.001": 19.6564019291,
			"0.002": 24.0253140505,
			"0.003": 29.6400744296,
			"0.004": 23.8376295535,
			"0.005": 15.7655840645,
			"0.006": 6.83503012397,
			"0.007": 4.50446598538,
			"0.008": 1.0388965666,
			"0.009": 1.01894245802,
			"0.01": 0.43061998099,
			"0.011": 0.0,
			"0.012": 0.0,
			"0.013": 0.0,
			"0.014": 0.0,
			"0.015": 0.0,
			"0.016": 0.0,
			"0.017": 0.0,
			"0.018": 0.0,
			"0.019": 0.0,
			"0.02": 0.0,
			"0.021": 0.0,
			"0.022": 0.0,
			"0.023": 0.0,
			"0.024": 0.0,
			"0.025": 0.0
		}
	}
}
