{
	 "smiles": "CC(=O)NC(CC1=CC=C(F)C=C1)C(O)=O", 
	 "Tm": 424.65, 
	 "num_atms": 28, 
	 "gaussian": { 
		 "optdone": 1, 
		 "sigma_profile": "yes", 
		 "theory": "DFT", 
		 "functional": "B3LYP", 
		 "basiset": "6-31G**", 
		 "properties": { 
			 "R2extent": 4504.4839, 
			 "electric_dipole_moment_norm": 2.4941708061, 
			 "electric_quadrupole_moment_norm": 18.2220760343, 
			 "total_energy": -806.698388037, 
			 "HOMO_LUMO_gap": 0.22377, 
			 "cosmo_polarized_energy": -17.02, 
			 "cosmo_cavitation_energy": 33.11, 
			 "cosmo_dispersion_energy": -22.34, 
			 "cosmo_repulsion_energy": 1.75, 
			 "cosmo_total_nonelectrostatic_energy": 12.53, 
			 "SMD_solvation_energy": 8.02 
		},
		"coords": [
			{
				"x": -1.4139981662,
				"y": -2.7009232514,
				"z": -0.9624090376,
				"element": "C" 
			},
			{
				"x": -0.5086798423,
				"y": -1.7346632573,
				"z": -1.7071052552,
				"element": "C" 
			},
			{
				"x": -0.1464027421,
				"y": -1.9322039201,
				"z": -2.8595519153,
				"element": "O" 
			},
			{
				"x": -0.1316850518,
				"y": -0.6215416837,
				"z": -0.9957501928,
				"element": "N" 
			},
			{
				"x": 0.6248657811,
				"y": 0.4484841514,
				"z": -1.6066836147,
				"element": "C" 
			},
			{
				"x": 1.9252082764,
				"y": 0.7874678599,
				"z": -0.8342422259,
				"element": "C" 
			},
			{
				"x": 1.7005301623,
				"y": 1.177208988,
				"z": 0.612520228,
				"element": "C" 
			},
			{
				"x": 1.4478498447,
				"y": 2.511056814,
				"z": 0.9720579455,
				"element": "C" 
			},
			{
				"x": 1.2176696371,
				"y": 2.8693809094,
				"z": 2.3001409072,
				"element": "C" 
			},
			{
				"x": 1.2413172163,
				"y": 1.8784982167,
				"z": 3.2752352483,
				"element": "C" 
			},
			{
				"x": 1.0217284391,
				"y": 2.2188180675,
				"z": 4.5628207114,
				"element": "F" 
			},
			{
				"x": 1.4908512843,
				"y": 0.547949472,
				"z": 2.9615672098,
				"element": "C" 
			},
			{
				"x": 1.7202595962,
				"y": 0.2080188837,
				"z": 1.6272489896,
				"element": "C" 
			},
			{
				"x": -0.1977741339,
				"y": 1.71390845,
				"z": -1.8634369711,
				"element": "C" 
			},
			{
				"x": -1.529415118,
				"y": 1.5158039907,
				"z": -1.7703162104,
				"element": "O" 
			},
			{
				"x": 0.2870330975,
				"y": 2.787665609,
				"z": -2.151418283,
				"element": "O" 
			},
			{
				"x": -1.1058785986,
				"y": -3.7215270511,
				"z": -1.1968426442,
				"element": "H" 
			},
			{
				"x": -2.4398842898,
				"y": -2.5730865618,
				"z": -1.322945334,
				"element": "H" 
			},
			{
				"x": -1.405938006,
				"y": -2.5569892704,
				"z": 0.1217021283,
				"element": "H" 
			},
			{
				"x": -0.5200743591,
				"y": -0.4666795682,
				"z": -0.0773719249,
				"element": "H" 
			},
			{
				"x": 0.8987926226,
				"y": 0.0710997128,
				"z": -2.5999701412,
				"element": "H" 
			},
			{
				"x": 2.5711394895,
				"y": -0.094019661,
				"z": -0.8869150598,
				"element": "H" 
			},
			{
				"x": 2.4231565038,
				"y": 1.5981528345,
				"z": -1.372252162,
				"element": "H" 
			},
			{
				"x": 1.4312633809,
				"y": 3.2749968291,
				"z": 0.2008810867,
				"element": "H" 
			},
			{
				"x": 1.0279262171,
				"y": 3.8982835912,
				"z": 2.5866862405,
				"element": "H" 
			},
			{
				"x": 1.5123773653,
				"y": -0.1950294024,
				"z": 3.7516490106,
				"element": "H" 
			},
			{
				"x": 1.9301787147,
				"y": -0.8273464565,
				"z": 1.3721706815,
				"element": "H" 
			},
			{
				"x": -1.9410173209,
				"y": 2.3686157037,
				"z": -1.9920694153,
				"element": "H" 
			}
		],
		 "valence_orbital": [ 
			{
				"type": "occ",
				"energy": -0.29786,
				"method": "rhf"
			},
			{
				"type": "occ",
				"energy": -0.26665,
				"method": "rhf"
			},
			{
				"type": "occ",
				"energy": -0.25809,
				"method": "rhf"
			},
			{
				"type": "occ",
				"energy": -0.2525,
				"method": "rhf"
			},
			{
				"type": "occ",
				"energy": -0.2437,
				"method": "rhf"
			},
			{
				"type": "unocc",
				"energy": -0.01993,
				"method": "rhf"
			},
			{
				"type": "unocc",
				"energy": -0.00785,
				"method": "rhf"
			},
			{
				"type": "unocc",
				"energy": -0.00169,
				"method": "rhf"
			},
			{
				"type": "unocc",
				"energy": 0.02432,
				"method": "rhf"
			},
			{
				"type": "unocc",
				"energy": 0.06667,
				"method": "rhf"
			}
		],
		"cosmo_sigma_profile": { 
			"-0.025": 0.0,
			"-0.024": 0.0,
			"-0.023": 0.0,
			"-0.022": 0.0,
			"-0.021": 0.0,
			"-0.02": 0.0,
			"-0.019": 0.106165217564,
			"-0.018": 1.00646369668,
			"-0.017": 0.778606971929,
			"-0.016": 0.880564693377,
			"-0.015": 0.946617271536,
			"-0.014": 0.73276082157,
			"-0.013": 1.03049266598,
			"-0.012": 1.44880864233,
			"-0.011": 1.90305537467,
			"-0.01": 2.11307945492,
			"-0.009": 1.89750532761,
			"-0.008": 2.22354248593,
			"-0.007": 7.23644232725,
			"-0.006": 11.6964634978,
			"-0.005": 18.1577782327,
			"-0.004": 20.6948476106,
			"-0.003": 19.8546610565,
			"-0.002": 20.2143420892,
			"-0.001": 19.1076945381,
			"0.0": 14.49522768,
			"0.001": 18.1710009617,
			"0.002": 14.855202489,
			"0.003": 16.5068271287,
			"0.004": 20.8082169979,
			"0.005": 9.9499529856,
			"0.006": 4.09787331444,
			"0.007": 3.84387764144,
			"0.008": 3.99228347099,
			"0.009": 2.83000254754,
			"0.01": 2.64346333182,
			"0.011": 5.29579826612,
			"0.012": 4.00713331875,
			"0.013": 4.12012476552,
			"0.014": 3.74939966981,
			"0.015": 0.906146161384,
			"0.016": 0.0,
			"0.017": 0.0,
			"0.018": 0.0,
			"0.019": 0.0,
			"0.02": 0.0,
			"0.021": 0.0,
			"0.022": 0.0,
			"0.023": 0.0,
			"0.024": 0.0,
			"0.025": 0.0
		}
	}
}
