{
	 "smiles": "CC(C)OC1=CC=C(C=C1)S(Cl)(=O)=O", 
	 "Tm": 306.15, 
	 "num_atms": 25, 
	 "gaussian": { 
		 "optdone": 1, 
		 "sigma_profile": "yes", 
		 "theory": "DFT", 
		 "functional": "B3LYP", 
		 "basiset": "6-31G**", 
		 "properties": { 
			 "R2extent": 6477.4342, 
			 "electric_dipole_moment_norm": 7.53933534272, 
			 "electric_quadrupole_moment_norm": 20.0986040844, 
			 "total_energy": -1433.57637964, 
			 "HOMO_LUMO_gap": 0.17043, 
			 "cosmo_polarized_energy": -10.99, 
			 "cosmo_cavitation_energy": 32.05, 
			 "cosmo_dispersion_energy": -23.63, 
			 "cosmo_repulsion_energy": 1.84, 
			 "cosmo_total_nonelectrostatic_energy": 10.26, 
			 "SMD_solvation_energy": 4.58 
		},
		"coords": [
			{
				"x": -0.1978939061,
				"y": 1.3503488258,
				"z": 2.7659207282,
				"element": "C" 
			},
			{
				"x": -1.1322683681,
				"y": 0.5037328929,
				"z": 1.9032819001,
				"element": "C" 
			},
			{
				"x": -2.582049396,
				"y": 0.5617998363,
				"z": 2.3682141952,
				"element": "C" 
			},
			{
				"x": -1.1427605742,
				"y": 0.9981661704,
				"z": 0.5425539323,
				"element": "O" 
			},
			{
				"x": -0.1586149843,
				"y": 0.6834407887,
				"z": -0.327583114,
				"element": "C" 
			},
			{
				"x": 0.9403104925,
				"y": -0.147425957,
				"z": -0.044887836,
				"element": "C" 
			},
			{
				"x": 1.8808314447,
				"y": -0.4130511486,
				"z": -1.0363445994,
				"element": "C" 
			},
			{
				"x": 1.7277938578,
				"y": 0.1582570448,
				"z": -2.2990769953,
				"element": "C" 
			},
			{
				"x": 0.6410657389,
				"y": 0.9900152883,
				"z": -2.5978589514,
				"element": "C" 
			},
			{
				"x": -0.2936470233,
				"y": 1.2507107025,
				"z": -1.6107516061,
				"element": "C" 
			},
			{
				"x": 2.9380758547,
				"y": -0.1731969327,
				"z": -3.5504291723,
				"element": "S" 
			},
			{
				"x": 2.1210795162,
				"y": -1.909373755,
				"z": -4.5111772136,
				"element": "Cl" 
			},
			{
				"x": 2.9051469822,
				"y": 0.8829493138,
				"z": -4.555331754,
				"element": "O" 
			},
			{
				"x": 4.1794021418,
				"y": -0.6172841838,
				"z": -2.926820481,
				"element": "O" 
			},
			{
				"x": -0.5390328416,
				"y": 2.3899742634,
				"z": 2.7788491057,
				"element": "H" 
			},
			{
				"x": -0.1914492907,
				"y": 0.9761964435,
				"z": 3.7944744879,
				"element": "H" 
			},
			{
				"x": 0.8291196577,
				"y": 1.3328490737,
				"z": 2.3917137711,
				"element": "H" 
			},
			{
				"x": -0.8017198896,
				"y": -0.5426741005,
				"z": 1.8927431316,
				"element": "H" 
			},
			{
				"x": -3.2199680041,
				"y": -0.0460428019,
				"z": 1.7214479327,
				"element": "H" 
			},
			{
				"x": -2.6647775129,
				"y": 0.1860950628,
				"z": 3.392302991,
				"element": "H" 
			},
			{
				"x": -2.9486668443,
				"y": 1.5925274123,
				"z": 2.3464079353,
				"element": "H" 
			},
			{
				"x": 1.0756677909,
				"y": -0.5841482384,
				"z": 0.9361347984,
				"element": "H" 
			},
			{
				"x": 2.734937991,
				"y": -1.0475054396,
				"z": -0.8274104499,
				"element": "H" 
			},
			{
				"x": 0.5451312179,
				"y": 1.428630564,
				"z": -3.5847030476,
				"element": "H" 
			},
			{
				"x": -1.1459140509,
				"y": 1.8936088743,
				"z": -1.8011696889,
				"element": "H" 
			}
		],
		 "valence_orbital": [ 
			{
				"type": "occ",
				"energy": -0.32764,
				"method": "rhf"
			},
			{
				"type": "occ",
				"energy": -0.31848,
				"method": "rhf"
			},
			{
				"type": "occ",
				"energy": -0.30418,
				"method": "rhf"
			},
			{
				"type": "occ",
				"energy": -0.28514,
				"method": "rhf"
			},
			{
				"type": "occ",
				"energy": -0.2518,
				"method": "rhf"
			},
			{
				"type": "unocc",
				"energy": -0.08137,
				"method": "rhf"
			},
			{
				"type": "unocc",
				"energy": -0.03386,
				"method": "rhf"
			},
			{
				"type": "unocc",
				"energy": -0.02814,
				"method": "rhf"
			},
			{
				"type": "unocc",
				"energy": 0.0572,
				"method": "rhf"
			},
			{
				"type": "unocc",
				"energy": 0.0743,
				"method": "rhf"
			}
		],
		"cosmo_sigma_profile": { 
			"-0.025": 0.0,
			"-0.024": 0.0,
			"-0.023": 0.0,
			"-0.022": 0.0,
			"-0.021": 0.0,
			"-0.02": 0.0,
			"-0.019": 0.0,
			"-0.018": 0.0,
			"-0.017": 0.0,
			"-0.016": 0.0,
			"-0.015": 0.0,
			"-0.014": 0.0,
			"-0.013": 0.0,
			"-0.012": 0.0,
			"-0.011": 0.0,
			"-0.01": 0.0,
			"-0.009": 0.802421852251,
			"-0.008": 5.41675321762,
			"-0.007": 8.64489593862,
			"-0.006": 8.56901279317,
			"-0.005": 11.3327773731,
			"-0.004": 21.7291148572,
			"-0.003": 20.3579872655,
			"-0.002": 19.3817443364,
			"-0.001": 23.2435810633,
			"0.0": 28.8765483593,
			"0.001": 25.5979727626,
			"0.002": 17.9115293953,
			"0.003": 12.4276860866,
			"0.004": 17.0634700253,
			"0.005": 6.97448195796,
			"0.006": 4.63491474441,
			"0.007": 5.50397602097,
			"0.008": 11.3433376222,
			"0.009": 7.08372577373,
			"0.01": 0.464486442492,
			"0.011": 0.0,
			"0.012": 0.0,
			"0.013": 0.0,
			"0.014": 0.0,
			"0.015": 0.0,
			"0.016": 0.0,
			"0.017": 0.0,
			"0.018": 0.0,
			"0.019": 0.0,
			"0.02": 0.0,
			"0.021": 0.0,
			"0.022": 0.0,
			"0.023": 0.0,
			"0.024": 0.0,
			"0.025": 0.0
		}
	}
}
