{
	 "smiles": "CCCCCCCCCCCCCCCCCC(=O)OC", 
	 "Tm": 312.65, 
	 "num_atms": 59, 
	 "gaussian": { 
		 "optdone": 1, 
		 "sigma_profile": "yes", 
		 "theory": "DFT", 
		 "functional": "B3LYP", 
		 "basiset": "6-31G**", 
		 "properties": { 
			 "R2extent": 18273.7982, 
			 "electric_dipole_moment_norm": 1.47428142836, 
			 "electric_quadrupole_moment_norm": 15.4780288532, 
			 "total_energy": -897.430714964, 
			 "HOMO_LUMO_gap": 0.28284, 
			 "cosmo_polarized_energy": -6.86, 
			 "cosmo_cavitation_energy": 57.55, 
			 "cosmo_dispersion_energy": -38.8, 
			 "cosmo_repulsion_energy": 3.12, 
			 "cosmo_total_nonelectrostatic_energy": 21.88, 
			 "SMD_solvation_energy": 9.06 
		},
		"coords": [
			{
				"x": -4.914302962,
				"y": 4.5873852514,
				"z": 0.1464577689,
				"element": "C" 
			},
			{
				"x": -4.097842854,
				"y": 4.8672330084,
				"z": -1.1211837993,
				"element": "C" 
			},
			{
				"x": -2.5859081215,
				"y": 4.6286584926,
				"z": -0.9706031486,
				"element": "C" 
			},
			{
				"x": -1.8860611472,
				"y": 5.5886257445,
				"z": 0.0038121266,
				"element": "C" 
			},
			{
				"x": -0.3547707016,
				"y": 5.4503994864,
				"z": 0.0451545011,
				"element": "C" 
			},
			{
				"x": 0.1569070977,
				"y": 4.1172095703,
				"z": 0.609130714,
				"element": "C" 
			},
			{
				"x": 1.6886496967,
				"y": 4.0653709821,
				"z": 0.7258679161,
				"element": "C" 
			},
			{
				"x": 2.2609030459,
				"y": 2.7451572113,
				"z": 1.2907279715,
				"element": "C" 
			},
			{
				"x": 2.6848813389,
				"y": 1.6914245996,
				"z": 0.2506700143,
				"element": "C" 
			},
			{
				"x": 1.5615617781,
				"y": 1.1378499802,
				"z": -0.6375719003,
				"element": "C" 
			},
			{
				"x": 2.0186252665,
				"y": 0.0550124668,
				"z": -1.6334354051,
				"element": "C" 
			},
			{
				"x": 2.5258428859,
				"y": -1.2654936206,
				"z": -1.0244679101,
				"element": "C" 
			},
			{
				"x": 1.4640301674,
				"y": -2.0528126066,
				"z": -0.2426184332,
				"element": "C" 
			},
			{
				"x": 1.9679943067,
				"y": -3.3774357461,
				"z": 0.3596998627,
				"element": "C" 
			},
			{
				"x": 2.4350661601,
				"y": -4.4472333708,
				"z": -0.6454136481,
				"element": "C" 
			},
			{
				"x": 1.3768882641,
				"y": -4.9325152787,
				"z": -1.6523374559,
				"element": "C" 
			},
			{
				"x": 0.1579119995,
				"y": -5.6219303489,
				"z": -1.0266470304,
				"element": "C" 
			},
			{
				"x": 0.4860643395,
				"y": -6.9594080801,
				"z": -0.3898581223,
				"element": "C" 
			},
			{
				"x": 1.4758679077,
				"y": -7.6256001878,
				"z": -0.608507517,
				"element": "O" 
			},
			{
				"x": -0.498345672,
				"y": -7.3501620041,
				"z": 0.4527542153,
				"element": "O" 
			},
			{
				"x": -0.3059575415,
				"y": -8.6337737533,
				"z": 1.068612289,
				"element": "C" 
			},
			{
				"x": -4.7655309655,
				"y": 3.5572705908,
				"z": 0.4914210385,
				"element": "H" 
			},
			{
				"x": -5.9853619406,
				"y": 4.7240387264,
				"z": -0.0362949942,
				"element": "H" 
			},
			{
				"x": -4.6349093285,
				"y": 5.254324126,
				"z": 0.9684532395,
				"element": "H" 
			},
			{
				"x": -4.2687180999,
				"y": 5.9036685079,
				"z": -1.4439347868,
				"element": "H" 
			},
			{
				"x": -4.4742545441,
				"y": 4.2318246591,
				"z": -1.9332366913,
				"element": "H" 
			},
			{
				"x": -2.1133463975,
				"y": 4.7266944821,
				"z": -1.9580540487,
				"element": "H" 
			},
			{
				"x": -2.4203587293,
				"y": 3.589265223,
				"z": -0.6566360192,
				"element": "H" 
			},
			{
				"x": -2.1385183364,
				"y": 6.6197510931,
				"z": -0.2806741188,
				"element": "H" 
			},
			{
				"x": -2.2833432122,
				"y": 5.4484019376,
				"z": 1.0180253226,
				"element": "H" 
			},
			{
				"x": 0.0565440197,
				"y": 6.2691766261,
				"z": 0.6516262824,
				"element": "H" 
			},
			{
				"x": 0.0487319843,
				"y": 5.5939978062,
				"z": -0.9678455623,
				"element": "H" 
			},
			{
				"x": -0.1988113733,
				"y": 3.28802904,
				"z": -0.0124572341,
				"element": "H" 
			},
			{
				"x": -0.279942559,
				"y": 3.9567506516,
				"z": 1.6057110654,
				"element": "H" 
			},
			{
				"x": 2.0041319579,
				"y": 4.8961153936,
				"z": 1.3710429571,
				"element": "H" 
			},
			{
				"x": 2.1390231166,
				"y": 4.2683157727,
				"z": -0.2566124848,
				"element": "H" 
			},
			{
				"x": 1.5324259616,
				"y": 2.3008268078,
				"z": 1.9839255594,
				"element": "H" 
			},
			{
				"x": 3.1443509672,
				"y": 2.975818295,
				"z": 1.8990856026,
				"element": "H" 
			},
			{
				"x": 3.4655450845,
				"y": 2.1225189621,
				"z": -0.3932653848,
				"element": "H" 
			},
			{
				"x": 3.164261644,
				"y": 0.862962301,
				"z": 0.7879518492,
				"element": "H" 
			},
			{
				"x": 0.7528224936,
				"y": 0.7490173698,
				"z": -0.0041182776,
				"element": "H" 
			},
			{
				"x": 1.1200921973,
				"y": 1.9585601522,
				"z": -1.2159635207,
				"element": "H" 
			},
			{
				"x": 2.8116390977,
				"y": 0.4760550696,
				"z": -2.266778493,
				"element": "H" 
			},
			{
				"x": 1.1832617044,
				"y": -0.1722584519,
				"z": -2.3101288566,
				"element": "H" 
			},
			{
				"x": 3.3863956018,
				"y": -1.0732548677,
				"z": -0.3694418179,
				"element": "H" 
			},
			{
				"x": 2.9106769406,
				"y": -1.8863557358,
				"z": -1.8431697214,
				"element": "H" 
			},
			{
				"x": 1.0815037302,
				"y": -1.4331407748,
				"z": 0.5780535682,
				"element": "H" 
			},
			{
				"x": 0.6015941288,
				"y": -2.2412376676,
				"z": -0.8974703965,
				"element": "H" 
			},
			{
				"x": 2.8040138369,
				"y": -3.1591171291,
				"z": 1.0381656,
				"element": "H" 
			},
			{
				"x": 1.177142495,
				"y": -3.7947378476,
				"z": 0.9970905154,
				"element": "H" 
			},
			{
				"x": 2.8090727961,
				"y": -5.3143992699,
				"z": -0.0889094871,
				"element": "H" 
			},
			{
				"x": 3.2937982847,
				"y": -4.0658584621,
				"z": -1.2112763939,
				"element": "H" 
			},
			{
				"x": 1.8518968269,
				"y": -5.6385158802,
				"z": -2.3415411355,
				"element": "H" 
			},
			{
				"x": 1.0218306308,
				"y": -4.0919661318,
				"z": -2.2601388722,
				"element": "H" 
			},
			{
				"x": -0.5983102754,
				"y": -5.8225348989,
				"z": -1.7977548303,
				"element": "H" 
			},
			{
				"x": -0.3421074449,
				"y": -4.9948542838,
				"z": -0.2818798771,
				"element": "H" 
			},
			{
				"x": -1.1754791161,
				"y": -8.7880490353,
				"z": 1.7076761254,
				"element": "H" 
			},
			{
				"x": -0.2422720184,
				"y": -9.4202182306,
				"z": 0.3120755072,
				"element": "H" 
			},
			{
				"x": 0.6122035857,
				"y": -8.6435467235,
				"z": 1.6614357625,
				"element": "H" 
			}
		],
		 "valence_orbital": [ 
			{
				"type": "occ",
				"energy": -0.29969,
				"method": "rhf"
			},
			{
				"type": "occ",
				"energy": -0.29793,
				"method": "rhf"
			},
			{
				"type": "occ",
				"energy": -0.29491,
				"method": "rhf"
			},
			{
				"type": "occ",
				"energy": -0.29157,
				"method": "rhf"
			},
			{
				"type": "occ",
				"energy": -0.26779,
				"method": "rhf"
			},
			{
				"type": "unocc",
				"energy": 0.01505,
				"method": "rhf"
			},
			{
				"type": "unocc",
				"energy": 0.07306,
				"method": "rhf"
			},
			{
				"type": "unocc",
				"energy": 0.08863,
				"method": "rhf"
			},
			{
				"type": "unocc",
				"energy": 0.09466,
				"method": "rhf"
			},
			{
				"type": "unocc",
				"energy": 0.10225,
				"method": "rhf"
			}
		],
		"cosmo_sigma_profile": { 
			"-0.025": 0.0,
			"-0.024": 0.0,
			"-0.023": 0.0,
			"-0.022": 0.0,
			"-0.021": 0.0,
			"-0.02": 0.0,
			"-0.019": 0.0,
			"-0.018": 0.0,
			"-0.017": 0.0,
			"-0.016": 0.0,
			"-0.015": 0.0,
			"-0.014": 0.0,
			"-0.013": 0.0,
			"-0.012": 0.0,
			"-0.011": 0.0,
			"-0.01": 0.0,
			"-0.009": 0.0,
			"-0.008": 0.0,
			"-0.007": 0.290453164653,
			"-0.006": 5.5400548053,
			"-0.005": 9.43137118117,
			"-0.004": 12.4264234353,
			"-0.003": 19.077935255,
			"-0.002": 55.3487615529,
			"-0.001": 90.8454072265,
			"0.0": 99.5709959228,
			"0.001": 83.092787992,
			"0.002": 33.8274915714,
			"0.003": 4.03831006701,
			"0.004": 2.91157549529,
			"0.005": 4.04576648831,
			"0.006": 2.74486557739,
			"0.007": 1.91710787025,
			"0.008": 3.15106625826,
			"0.009": 3.0242153113,
			"0.01": 1.96414613769,
			"0.011": 2.31418977328,
			"0.012": 4.31595926019,
			"0.013": 1.30293093399,
			"0.014": 0.0,
			"0.015": 0.0,
			"0.016": 0.0,
			"0.017": 0.0,
			"0.018": 0.0,
			"0.019": 0.0,
			"0.02": 0.0,
			"0.021": 0.0,
			"0.022": 0.0,
			"0.023": 0.0,
			"0.024": 0.0,
			"0.025": 0.0
		}
	}
}
