{
	 "smiles": "NC1=C(Cl)C=CC=C1C(O)=O", 
	 "Tm": 463.15, 
	 "num_atms": 17, 
	 "gaussian": { 
		 "optdone": 1, 
		 "sigma_profile": "yes", 
		 "theory": "DFT", 
		 "functional": "B3LYP", 
		 "basiset": "6-31G**", 
		 "properties": { 
			 "R2extent": 2235.8388, 
			 "electric_dipole_moment_norm": 2.96979305171, 
			 "electric_quadrupole_moment_norm": 13.887017192, 
			 "total_energy": -935.771940936, 
			 "HOMO_LUMO_gap": 0.16353, 
			 "cosmo_polarized_energy": -12.53, 
			 "cosmo_cavitation_energy": 22.61, 
			 "cosmo_dispersion_energy": -17.56, 
			 "cosmo_repulsion_energy": 1.39, 
			 "cosmo_total_nonelectrostatic_energy": 6.44, 
			 "SMD_solvation_energy": 4.51 
		},
		"coords": [
			{
				"x": -2.1025161779,
				"y": 0.3330563532,
				"z": 0.4622868223,
				"element": "N" 
			},
			{
				"x": -0.7906110908,
				"y": -0.0053445108,
				"z": 0.4269470377,
				"element": "C" 
			},
			{
				"x": 0.1887574941,
				"y": 0.8874514344,
				"z": -0.0844768216,
				"element": "C" 
			},
			{
				"x": -0.3409796002,
				"y": 2.4543165331,
				"z": -0.6924367267,
				"element": "Cl" 
			},
			{
				"x": 1.5336685806,
				"y": 0.567754101,
				"z": -0.1370001147,
				"element": "C" 
			},
			{
				"x": 1.9782853304,
				"y": -0.6774596383,
				"z": 0.3225994231,
				"element": "C" 
			},
			{
				"x": 1.0535813993,
				"y": -1.5670264503,
				"z": 0.8469469991,
				"element": "C" 
			},
			{
				"x": -0.3155518947,
				"y": -1.2566707043,
				"z": 0.9324206226,
				"element": "C" 
			},
			{
				"x": -1.2868816222,
				"y": -2.2227848775,
				"z": 1.5078778309,
				"element": "C" 
			},
			{
				"x": -0.7883355526,
				"y": -3.229604665,
				"z": 2.2700984823,
				"element": "O" 
			},
			{
				"x": -2.4940299619,
				"y": -2.1699593469,
				"z": 1.3426218023,
				"element": "O" 
			},
			{
				"x": -2.761029654,
				"y": -0.406542979,
				"z": 0.6752974431,
				"element": "H" 
			},
			{
				"x": -2.402078407,
				"y": 1.1761864382,
				"z": 0.0011210611,
				"element": "H" 
			},
			{
				"x": 2.2318101569,
				"y": 1.2884228082,
				"z": -0.5491467484,
				"element": "H" 
			},
			{
				"x": 3.0280892367,
				"y": -0.9403136079,
				"z": 0.2582388793,
				"element": "H" 
			},
			{
				"x": 1.4007627017,
				"y": -2.5489045762,
				"z": 1.1584449204,
				"element": "H" 
			},
			{
				"x": 0.1374590617,
				"y": -3.057476312,
				"z": 2.4882590871,
				"element": "H" 
			}
		],
		 "valence_orbital": [ 
			{
				"type": "occ",
				"energy": -0.32796,
				"method": "rhf"
			},
			{
				"type": "occ",
				"energy": -0.31942,
				"method": "rhf"
			},
			{
				"type": "occ",
				"energy": -0.2822,
				"method": "rhf"
			},
			{
				"type": "occ",
				"energy": -0.26576,
				"method": "rhf"
			},
			{
				"type": "occ",
				"energy": -0.21882,
				"method": "rhf"
			},
			{
				"type": "unocc",
				"energy": -0.05529,
				"method": "rhf"
			},
			{
				"type": "unocc",
				"energy": -0.00803,
				"method": "rhf"
			},
			{
				"type": "unocc",
				"energy": 0.01943,
				"method": "rhf"
			},
			{
				"type": "unocc",
				"energy": 0.04272,
				"method": "rhf"
			},
			{
				"type": "unocc",
				"energy": 0.06152,
				"method": "rhf"
			}
		],
		"cosmo_sigma_profile": { 
			"-0.025": 0.0,
			"-0.024": 0.0,
			"-0.023": 0.0,
			"-0.022": 0.0,
			"-0.021": 0.0,
			"-0.02": 0.0,
			"-0.019": 0.311110502199,
			"-0.018": 0.807415595095,
			"-0.017": 0.872583301556,
			"-0.016": 1.12436338714,
			"-0.015": 0.471162858333,
			"-0.014": 1.175725436,
			"-0.013": 0.725112405671,
			"-0.012": 2.43598598709,
			"-0.011": 2.02372396538,
			"-0.01": 2.00765538958,
			"-0.009": 3.13176376274,
			"-0.008": 3.41117044654,
			"-0.007": 6.39173840859,
			"-0.006": 7.81124256141,
			"-0.005": 7.67469852504,
			"-0.004": 7.21659389937,
			"-0.003": 7.93640866064,
			"-0.002": 8.32068028613,
			"-0.001": 9.63859014687,
			"0.0": 12.9635161536,
			"0.001": 17.5800079796,
			"0.002": 19.2303148152,
			"0.003": 16.1424393421,
			"0.004": 14.0566715483,
			"0.005": 5.85913626457,
			"0.006": 3.08499805629,
			"0.007": 2.49464591407,
			"0.008": 3.13575277153,
			"0.009": 3.78282663653,
			"0.01": 3.39731999555,
			"0.011": 4.3688499516,
			"0.012": 2.25795820577,
			"0.013": 1.6060797601,
			"0.014": 0.125086747864,
			"0.015": 0.0,
			"0.016": 0.0,
			"0.017": 0.0,
			"0.018": 0.0,
			"0.019": 0.0,
			"0.02": 0.0,
			"0.021": 0.0,
			"0.022": 0.0,
			"0.023": 0.0,
			"0.024": 0.0,
			"0.025": 0.0
		}
	}
}
