{
	 "smiles": "CN1CCC23C4OC5=C(O)C=CC(CC1C2CCC4=O)=C35", 
	 "Tm": 539.15, 
	 "num_atms": 40, 
	 "gaussian": { 
		 "optdone": 1, 
		 "sigma_profile": "yes", 
		 "theory": "DFT", 
		 "functional": "B3LYP", 
		 "basiset": "6-31G**", 
		 "properties": { 
			 "R2extent": 5243.9428, 
			 "electric_dipole_moment_norm": 5.03260579919, 
			 "electric_quadrupole_moment_norm": 19.6791724857, 
			 "total_energy": -939.65314563, 
			 "HOMO_LUMO_gap": 0.17375, 
			 "cosmo_polarized_energy": -16.14, 
			 "cosmo_cavitation_energy": 37.55, 
			 "cosmo_dispersion_energy": -27.32, 
			 "cosmo_repulsion_energy": 2.04, 
			 "cosmo_total_nonelectrostatic_energy": 12.27, 
			 "SMD_solvation_energy": 4.41 
		},
		"coords": [
			{
				"x": 1.9353537873,
				"y": 1.2572756179,
				"z": 3.5847756014,
				"element": "C" 
			},
			{
				"x": 0.8648086698,
				"y": 0.5248752339,
				"z": 2.9288715927,
				"element": "N" 
			},
			{
				"x": -0.3753868534,
				"y": 1.2951038452,
				"z": 2.8515159496,
				"element": "C" 
			},
			{
				"x": -1.5193185416,
				"y": 0.4256355531,
				"z": 2.3261437114,
				"element": "C" 
			},
			{
				"x": -1.1410327968,
				"y": -0.3355402918,
				"z": 1.0324460268,
				"element": "C" 
			},
			{
				"x": -2.3580681736,
				"y": -1.1426374117,
				"z": 0.491670397,
				"element": "C" 
			},
			{
				"x": -2.8989483573,
				"y": -0.3849755667,
				"z": -0.6417102756,
				"element": "O" 
			},
			{
				"x": -1.944499051,
				"y": 0.5306690974,
				"z": -1.0114682195,
				"element": "C" 
			},
			{
				"x": -1.9349346312,
				"y": 1.2986997096,
				"z": -2.1774654903,
				"element": "C" 
			},
			{
				"x": -3.0092818855,
				"y": 1.2506059549,
				"z": -3.0190840827,
				"element": "O" 
			},
			{
				"x": -0.7761860799,
				"y": 2.0569546973,
				"z": -2.4202768739,
				"element": "C" 
			},
			{
				"x": 0.3378241557,
				"y": 2.0130310318,
				"z": -1.5734305053,
				"element": "C" 
			},
			{
				"x": 0.3113839705,
				"y": 1.2442048756,
				"z": -0.3992378172,
				"element": "C" 
			},
			{
				"x": 1.5100106498,
				"y": 0.958715459,
				"z": 0.488679808,
				"element": "C" 
			},
			{
				"x": 1.2442546639,
				"y": -0.079128077,
				"z": 1.6397650098,
				"element": "C" 
			},
			{
				"x": 0.1576628422,
				"y": -1.1333914762,
				"z": 1.2779597118,
				"element": "C" 
			},
			{
				"x": 0.5619796812,
				"y": -2.0445604469,
				"z": 0.0904178467,
				"element": "C" 
			},
			{
				"x": -0.6349660237,
				"y": -2.6026975475,
				"z": -0.7411436641,
				"element": "C" 
			},
			{
				"x": -1.9482138455,
				"y": -2.5424328505,
				"z": 0.0126763846,
				"element": "C" 
			},
			{
				"x": -2.6321961593,
				"y": -3.5153228783,
				"z": 0.2626102937,
				"element": "O" 
			},
			{
				"x": -0.87689439,
				"y": 0.5803639891,
				"z": -0.1321653842,
				"element": "C" 
			},
			{
				"x": 1.6232285339,
				"y": 1.521061459,
				"z": 4.6011070349,
				"element": "H" 
			},
			{
				"x": 2.8254652624,
				"y": 0.6238534059,
				"z": 3.6599671041,
				"element": "H" 
			},
			{
				"x": 2.2287704225,
				"y": 2.1960750711,
				"z": 3.0777035701,
				"element": "H" 
			},
			{
				"x": -0.2699576641,
				"y": 2.1979427107,
				"z": 2.2203674786,
				"element": "H" 
			},
			{
				"x": -0.6206676932,
				"y": 1.6501475984,
				"z": 3.859394576,
				"element": "H" 
			},
			{
				"x": -2.403415397,
				"y": 1.0472848437,
				"z": 2.1439094711,
				"element": "H" 
			},
			{
				"x": -1.7870619842,
				"y": -0.3160096457,
				"z": 3.0893390446,
				"element": "H" 
			},
			{
				"x": -3.1685526013,
				"y": -1.2521936677,
				"z": 1.2152537048,
				"element": "H" 
			},
			{
				"x": -2.8297879114,
				"y": 1.8104846293,
				"z": -3.7853998976,
				"element": "H" 
			},
			{
				"x": -0.733485807,
				"y": 2.6599569564,
				"z": -3.325696559,
				"element": "H" 
			},
			{
				"x": 1.2331354057,
				"y": 2.5632423328,
				"z": -1.8508640109,
				"element": "H" 
			},
			{
				"x": 1.8978603904,
				"y": 1.8818841233,
				"z": 0.9370972952,
				"element": "H" 
			},
			{
				"x": 2.3256454923,
				"y": 0.5869808251,
				"z": -0.1448694752,
				"element": "H" 
			},
			{
				"x": 2.1869268477,
				"y": -0.6098025209,
				"z": 1.8211785045,
				"element": "H" 
			},
			{
				"x": 0.0262323548,
				"y": -1.7556730154,
				"z": 2.1715419645,
				"element": "H" 
			},
			{
				"x": 1.1404642231,
				"y": -2.8831266133,
				"z": 0.4910883558,
				"element": "H" 
			},
			{
				"x": 1.2300541642,
				"y": -1.5095988339,
				"z": -0.5901846458,
				"element": "H" 
			},
			{
				"x": -0.7592164476,
				"y": -1.9970856654,
				"z": -1.6469793792,
				"element": "H" 
			},
			{
				"x": -0.4614892227,
				"y": -3.6353725117,
				"z": -1.0516041572,
				"element": "H" 
			}
		],
		 "valence_orbital": [ 
			{
				"type": "occ",
				"energy": -0.30518,
				"method": "rhf"
			},
			{
				"type": "occ",
				"energy": -0.24737,
				"method": "rhf"
			},
			{
				"type": "occ",
				"energy": -0.2266,
				"method": "rhf"
			},
			{
				"type": "occ",
				"energy": -0.21219,
				"method": "rhf"
			},
			{
				"type": "occ",
				"energy": -0.20235,
				"method": "rhf"
			},
			{
				"type": "unocc",
				"energy": -0.0286,
				"method": "rhf"
			},
			{
				"type": "unocc",
				"energy": 0.004,
				"method": "rhf"
			},
			{
				"type": "unocc",
				"energy": 0.0111,
				"method": "rhf"
			},
			{
				"type": "unocc",
				"energy": 0.06786,
				"method": "rhf"
			},
			{
				"type": "unocc",
				"energy": 0.07251,
				"method": "rhf"
			}
		],
		"cosmo_sigma_profile": { 
			"-0.025": 0.0,
			"-0.024": 0.0,
			"-0.023": 0.0,
			"-0.022": 0.0,
			"-0.021": 0.0,
			"-0.02": 0.0,
			"-0.019": 0.0,
			"-0.018": 0.322617345177,
			"-0.017": 1.18663605164,
			"-0.016": 1.00520195314,
			"-0.015": 1.17907236984,
			"-0.014": 0.685735232284,
			"-0.013": 1.18482915584,
			"-0.012": 1.25882535101,
			"-0.011": 0.470207433079,
			"-0.01": 0.964311913111,
			"-0.009": 1.17889189723,
			"-0.008": 1.10065133091,
			"-0.007": 1.33708703087,
			"-0.006": 5.12026370855,
			"-0.005": 10.5728338242,
			"-0.004": 30.8453009557,
			"-0.003": 42.8871176293,
			"-0.002": 35.5274486057,
			"-0.001": 33.3534857732,
			"0.0": 24.5873897922,
			"0.001": 11.6214870564,
			"0.002": 9.56127524763,
			"0.003": 10.3788549934,
			"0.004": 10.4723538854,
			"0.005": 9.03604364112,
			"0.006": 8.4306731585,
			"0.007": 5.721172331,
			"0.008": 4.16706057336,
			"0.009": 5.74731680072,
			"0.01": 6.78523364314,
			"0.011": 9.03864512335,
			"0.012": 5.48939608145,
			"0.013": 0.872041164635,
			"0.014": 0.533570473077,
			"0.015": 0.178813432272,
			"0.016": 0.0354355977285,
			"0.017": 0.0,
			"0.018": 0.0,
			"0.019": 0.0,
			"0.02": 0.0,
			"0.021": 0.0,
			"0.022": 0.0,
			"0.023": 0.0,
			"0.024": 0.0,
			"0.025": 0.0
		}
	}
}
