{
	 "smiles": "COCCNS(=O)(=O)C1=CC=C(N)C=C1", 
	 "Tm": 357.15, 
	 "num_atms": 29, 
	 "gaussian": { 
		 "optdone": 1, 
		 "sigma_profile": "yes", 
		 "theory": "DFT", 
		 "functional": "B3LYP", 
		 "basiset": "6-31G**", 
		 "properties": { 
			 "R2extent": 5528.1829, 
			 "electric_dipole_moment_norm": 5.85038697951, 
			 "electric_quadrupole_moment_norm": 25.1900280625, 
			 "total_energy": -1084.67844844, 
			 "HOMO_LUMO_gap": 0.20107, 
			 "cosmo_polarized_energy": -19.86, 
			 "cosmo_cavitation_energy": 33.9, 
			 "cosmo_dispersion_energy": -24.57, 
			 "cosmo_repulsion_energy": 1.92, 
			 "cosmo_total_nonelectrostatic_energy": 11.24, 
			 "SMD_solvation_energy": 4.97 
		},
		"coords": [
			{
				"x": -3.7642197525,
				"y": -2.7288714234,
				"z": 1.835965709,
				"element": "C" 
			},
			{
				"x": -3.5064748887,
				"y": -1.9452262163,
				"z": 0.6882978356,
				"element": "O" 
			},
			{
				"x": -3.2522269011,
				"y": -0.581789155,
				"z": 0.9887239643,
				"element": "C" 
			},
			{
				"x": -2.822832239,
				"y": 0.0847520522,
				"z": -0.3137649833,
				"element": "C" 
			},
			{
				"x": -1.6438622621,
				"y": -0.547200513,
				"z": -0.9236945988,
				"element": "N" 
			},
			{
				"x": -0.1105655395,
				"y": -0.0771282573,
				"z": -0.3848779085,
				"element": "S" 
			},
			{
				"x": 0.7579564846,
				"y": -1.206725275,
				"z": -0.7348481252,
				"element": "O" 
			},
			{
				"x": -0.1623744584,
				"y": 0.4291708034,
				"z": 0.9971472592,
				"element": "O" 
			},
			{
				"x": 0.2500862028,
				"y": 1.3174773162,
				"z": -1.4334686438,
				"element": "C" 
			},
			{
				"x": 0.4796639364,
				"y": 2.5716912973,
				"z": -0.8639396852,
				"element": "C" 
			},
			{
				"x": 0.7991358077,
				"y": 3.6531330263,
				"z": -1.6769151556,
				"element": "C" 
			},
			{
				"x": 0.9004922388,
				"y": 3.4953068998,
				"z": -3.0719955158,
				"element": "C" 
			},
			{
				"x": 1.2676624463,
				"y": 4.5582896359,
				"z": -3.8796739476,
				"element": "N" 
			},
			{
				"x": 0.6718710021,
				"y": 2.2191601202,
				"z": -3.6293573097,
				"element": "C" 
			},
			{
				"x": 0.353611378,
				"y": 1.1408922006,
				"z": -2.8182481627,
				"element": "C" 
			},
			{
				"x": -2.917763808,
				"y": -2.7119286372,
				"z": 2.5389117583,
				"element": "H" 
			},
			{
				"x": -3.9257845696,
				"y": -3.7555265636,
				"z": 1.4987251921,
				"element": "H" 
			},
			{
				"x": -4.6640794152,
				"y": -2.3849079078,
				"z": 2.3693342949,
				"element": "H" 
			},
			{
				"x": -2.4541767091,
				"y": -0.4878826885,
				"z": 1.7383502105,
				"element": "H" 
			},
			{
				"x": -4.1589209914,
				"y": -0.0921259713,
				"z": 1.3829517539,
				"element": "H" 
			},
			{
				"x": -3.6382687397,
				"y": 0.0193785579,
				"z": -1.0424751837,
				"element": "H" 
			},
			{
				"x": -2.61355368,
				"y": 1.1444195652,
				"z": -0.1448057394,
				"element": "H" 
			},
			{
				"x": -1.6928776481,
				"y": -1.5637303626,
				"z": -0.8667156283,
				"element": "H" 
			},
			{
				"x": 0.4076954252,
				"y": 2.6874638461,
				"z": 0.2118370245,
				"element": "H" 
			},
			{
				"x": 0.9805822311,
				"y": 4.6285365323,
				"z": -1.2332221295,
				"element": "H" 
			},
			{
				"x": 1.1345960577,
				"y": 5.4846570284,
				"z": -3.5018839523,
				"element": "H" 
			},
			{
				"x": 1.0390321736,
				"y": 4.4861433375,
				"z": -4.8600196462,
				"element": "H" 
			},
			{
				"x": 0.7543621341,
				"y": 2.082604855,
				"z": -4.7044286198,
				"element": "H" 
			},
			{
				"x": 0.1806340841,
				"y": 0.1626658967,
				"z": -3.2540100672,
				"element": "H" 
			}
		],
		 "valence_orbital": [ 
			{
				"type": "occ",
				"energy": -0.28586,
				"method": "rhf"
			},
			{
				"type": "occ",
				"energy": -0.26369,
				"method": "rhf"
			},
			{
				"type": "occ",
				"energy": -0.26052,
				"method": "rhf"
			},
			{
				"type": "occ",
				"energy": -0.25677,
				"method": "rhf"
			},
			{
				"type": "occ",
				"energy": -0.2178,
				"method": "rhf"
			},
			{
				"type": "unocc",
				"energy": -0.01673,
				"method": "rhf"
			},
			{
				"type": "unocc",
				"energy": -0.01071,
				"method": "rhf"
			},
			{
				"type": "unocc",
				"energy": 0.06311,
				"method": "rhf"
			},
			{
				"type": "unocc",
				"energy": 0.07799,
				"method": "rhf"
			},
			{
				"type": "unocc",
				"energy": 0.09448,
				"method": "rhf"
			}
		],
		"cosmo_sigma_profile": { 
			"-0.025": 0.0,
			"-0.024": 0.0,
			"-0.023": 0.0,
			"-0.022": 0.0,
			"-0.021": 0.0,
			"-0.02": 0.0,
			"-0.019": 0.0,
			"-0.018": 0.0,
			"-0.017": 0.0,
			"-0.016": 0.0,
			"-0.015": 0.0,
			"-0.014": 0.232560634199,
			"-0.013": 2.41738406982,
			"-0.012": 3.15412987484,
			"-0.011": 3.44586717992,
			"-0.01": 3.96469809989,
			"-0.009": 3.49577840669,
			"-0.008": 3.32245185187,
			"-0.007": 6.78012863316,
			"-0.006": 10.0843027031,
			"-0.005": 15.5356619029,
			"-0.004": 25.8855936791,
			"-0.003": 25.5868497692,
			"-0.002": 23.8020404161,
			"-0.001": 15.3785238957,
			"0.0": 12.2794551101,
			"0.001": 12.0885025978,
			"0.002": 12.6654464316,
			"0.003": 12.3701816819,
			"0.004": 19.2573249622,
			"0.005": 9.44286546834,
			"0.006": 5.62361661134,
			"0.007": 4.50693360473,
			"0.008": 6.14770224956,
			"0.009": 4.56643750882,
			"0.01": 6.76479186989,
			"0.011": 9.60856459946,
			"0.012": 7.88465833226,
			"0.013": 0.939444830426,
			"0.014": 0.0,
			"0.015": 0.0,
			"0.016": 0.0,
			"0.017": 0.0,
			"0.018": 0.0,
			"0.019": 0.0,
			"0.02": 0.0,
			"0.021": 0.0,
			"0.022": 0.0,
			"0.023": 0.0,
			"0.024": 0.0,
			"0.025": 0.0
		}
	}
}
