{
	 "smiles": "N#CCCCCC#N", 
	 "Tm": 274.65, 
	 "num_atms": 16, 
	 "gaussian": { 
		 "optdone": 1, 
		 "sigma_profile": "yes", 
		 "theory": "DFT", 
		 "functional": "B3LYP", 
		 "basiset": "6-31G**", 
		 "properties": { 
			 "R2extent": 1819.6427, 
			 "electric_dipole_moment_norm": 5.75083388562, 
			 "electric_quadrupole_moment_norm": 16.7310368788, 
			 "total_energy": -342.934162451, 
			 "HOMO_LUMO_gap": 0.3406, 
			 "cosmo_polarized_energy": -17.43, 
			 "cosmo_cavitation_energy": 21.4, 
			 "cosmo_dispersion_energy": -14.22, 
			 "cosmo_repulsion_energy": 1.22, 
			 "cosmo_total_nonelectrostatic_energy": 8.4, 
			 "SMD_solvation_energy": 6.32 
		},
		"coords": [
			{
				"x": 2.1307703772,
				"y": 0.8618800242,
				"z": -0.5872923978,
				"element": "N" 
			},
			{
				"x": 1.2312115421,
				"y": 0.2385009809,
				"z": -0.2005641019,
				"element": "C" 
			},
			{
				"x": 0.0773332094,
				"y": -0.5220119536,
				"z": 0.289426553,
				"element": "C" 
			},
			{
				"x": -1.0520343486,
				"y": 0.3832237348,
				"z": 0.833322074,
				"element": "C" 
			},
			{
				"x": -1.6170953376,
				"y": 1.3980551728,
				"z": -0.1698403125,
				"element": "C" 
			},
			{
				"x": -2.3203038481,
				"y": 0.7402352764,
				"z": -1.3777521299,
				"element": "C" 
			},
			{
				"x": -2.9632143106,
				"y": 1.7247470005,
				"z": -2.2517878666,
				"element": "C" 
			},
			{
				"x": -3.4728466275,
				"y": 2.5157877792,
				"z": -2.9310212388,
				"element": "N" 
			},
			{
				"x": 0.4215872994,
				"y": -1.1981004199,
				"z": 1.0800688093,
				"element": "H" 
			},
			{
				"x": -0.2838841285,
				"y": -1.1598036309,
				"z": -0.5257778319,
				"element": "H" 
			},
			{
				"x": -1.8537892267,
				"y": -0.2709685066,
				"z": 1.1970386968,
				"element": "H" 
			},
			{
				"x": -0.6719133902,
				"y": 0.9275160182,
				"z": 1.7039900535,
				"element": "H" 
			},
			{
				"x": -2.3371854053,
				"y": 2.0386955307,
				"z": 0.3493129047,
				"element": "H" 
			},
			{
				"x": -0.8171548427,
				"y": 2.0531496608,
				"z": -0.5313547991,
				"element": "H" 
			},
			{
				"x": -3.0881242565,
				"y": 0.035303695,
				"z": -1.0344391686,
				"element": "H" 
			},
			{
				"x": -1.6089567056,
				"y": 0.1666896377,
				"z": -1.9832292444,
				"element": "H" 
			}
		],
		 "valence_orbital": [ 
			{
				"type": "occ",
				"energy": -0.35848,
				"method": "rhf"
			},
			{
				"type": "occ",
				"energy": -0.33477,
				"method": "rhf"
			},
			{
				"type": "occ",
				"energy": -0.33367,
				"method": "rhf"
			},
			{
				"type": "occ",
				"energy": -0.32752,
				"method": "rhf"
			},
			{
				"type": "occ",
				"energy": -0.32525,
				"method": "rhf"
			},
			{
				"type": "unocc",
				"energy": 0.01535,
				"method": "rhf"
			},
			{
				"type": "unocc",
				"energy": 0.02461,
				"method": "rhf"
			},
			{
				"type": "unocc",
				"energy": 0.03215,
				"method": "rhf"
			},
			{
				"type": "unocc",
				"energy": 0.03325,
				"method": "rhf"
			},
			{
				"type": "unocc",
				"energy": 0.06482,
				"method": "rhf"
			}
		],
		"cosmo_sigma_profile": { 
			"-0.025": 0.0,
			"-0.024": 0.0,
			"-0.023": 0.0,
			"-0.022": 0.0,
			"-0.021": 0.0,
			"-0.02": 0.0,
			"-0.019": 0.0,
			"-0.018": 0.0,
			"-0.017": 0.0,
			"-0.016": 0.0,
			"-0.015": 0.0,
			"-0.014": 0.0,
			"-0.013": 0.0,
			"-0.012": 0.0,
			"-0.011": 0.0,
			"-0.01": 0.43616763275,
			"-0.009": 2.81246304627,
			"-0.008": 9.83222299229,
			"-0.007": 12.0154408966,
			"-0.006": 12.9608276358,
			"-0.005": 22.1259587875,
			"-0.004": 15.1297152168,
			"-0.003": 12.0351544111,
			"-0.002": 10.164190223,
			"-0.001": 5.14755956099,
			"0.0": 2.77597930611,
			"0.001": 3.72010368393,
			"0.002": 3.59050987925,
			"0.003": 3.82505667887,
			"0.004": 3.75337494307,
			"0.005": 3.02694046291,
			"0.006": 5.80603740087,
			"0.007": 4.51802213842,
			"0.008": 6.08835991442,
			"0.009": 7.36589538919,
			"0.01": 6.74619943915,
			"0.011": 5.98614346556,
			"0.012": 5.07527695791,
			"0.013": 4.32736687699,
			"0.014": 1.14120092419,
			"0.015": 0.0,
			"0.016": 0.0,
			"0.017": 0.0,
			"0.018": 0.0,
			"0.019": 0.0,
			"0.02": 0.0,
			"0.021": 0.0,
			"0.022": 0.0,
			"0.023": 0.0,
			"0.024": 0.0,
			"0.025": 0.0
		}
	}
}
