{
	 "smiles": "COC1=CC(CNC(=O)CCl)=CC(OC)=C1OC", 
	 "Tm": 380.15, 
	 "num_atms": 34, 
	 "gaussian": { 
		 "optdone": 1, 
		 "sigma_profile": "yes", 
		 "theory": "DFT", 
		 "functional": "B3LYP", 
		 "basiset": "6-31G**", 
		 "properties": { 
			 "R2extent": 7401.5394, 
			 "electric_dipole_moment_norm": 2.22339098226, 
			 "electric_quadrupole_moment_norm": 9.7911691355, 
			 "total_energy": -1282.72732302, 
			 "HOMO_LUMO_gap": 0.21953, 
			 "cosmo_polarized_energy": -14.17, 
			 "cosmo_cavitation_energy": 39.66, 
			 "cosmo_dispersion_energy": -27.4, 
			 "cosmo_repulsion_energy": 2.21, 
			 "cosmo_total_nonelectrostatic_energy": 14.47, 
			 "SMD_solvation_energy": 8.74 
		},
		"coords": [
			{
				"x": 2.5539720574,
				"y": -1.035090737,
				"z": 3.1947315004,
				"element": "C" 
			},
			{
				"x": 2.1400821821,
				"y": -1.6204873499,
				"z": 1.9548920475,
				"element": "O" 
			},
			{
				"x": 1.0486741273,
				"y": -1.0286456202,
				"z": 1.3618415667,
				"element": "C" 
			},
			{
				"x": 1.2204681539,
				"y": -0.3476792598,
				"z": 0.1584312827,
				"element": "C" 
			},
			{
				"x": 0.1166160517,
				"y": 0.2068087517,
				"z": -0.5028433051,
				"element": "C" 
			},
			{
				"x": 0.308771807,
				"y": 0.9304041168,
				"z": -1.8225420414,
				"element": "C" 
			},
			{
				"x": 0.6793368025,
				"y": 0.0422912437,
				"z": -2.9233955289,
				"element": "N" 
			},
			{
				"x": 1.9594809747,
				"y": -0.0818566167,
				"z": -3.3405817547,
				"element": "C" 
			},
			{
				"x": 2.9103657066,
				"y": 0.5497267201,
				"z": -2.8909703624,
				"element": "O" 
			},
			{
				"x": 2.2595253632,
				"y": -1.0713117193,
				"z": -4.4694295756,
				"element": "C" 
			},
			{
				"x": 0.8528825222,
				"y": -2.0052661252,
				"z": -5.1419618531,
				"element": "Cl" 
			},
			{
				"x": -1.1524371136,
				"y": 0.091098435,
				"z": 0.0672871425,
				"element": "C" 
			},
			{
				"x": -1.3364102738,
				"y": -0.5931978496,
				"z": 1.2735803999,
				"element": "C" 
			},
			{
				"x": -2.6159019183,
				"y": -0.7488455295,
				"z": 1.7466004085,
				"element": "O" 
			},
			{
				"x": -2.8978270451,
				"y": -0.1364050074,
				"z": 3.0094166603,
				"element": "C" 
			},
			{
				"x": -0.2339572532,
				"y": -1.1660921746,
				"z": 1.9267958795,
				"element": "C" 
			},
			{
				"x": -0.4105145742,
				"y": -1.847306002,
				"z": 3.1121220625,
				"element": "O" 
			},
			{
				"x": -0.4195592165,
				"y": -3.2740629227,
				"z": 2.9643329295,
				"element": "C" 
			},
			{
				"x": 1.762077337,
				"y": -1.0935705808,
				"z": 3.9474022378,
				"element": "H" 
			},
			{
				"x": 2.8479151833,
				"y": 0.0121576372,
				"z": 3.0498996662,
				"element": "H" 
			},
			{
				"x": 3.421758882,
				"y": -1.6084288904,
				"z": 3.5271685689,
				"element": "H" 
			},
			{
				"x": 2.2194632904,
				"y": -0.2606656255,
				"z": -0.2570928328,
				"element": "H" 
			},
			{
				"x": -0.608776334,
				"y": 1.4597764309,
				"z": -2.0984623308,
				"element": "H" 
			},
			{
				"x": 1.1150505004,
				"y": 1.6639257185,
				"z": -1.7441854615,
				"element": "H" 
			},
			{
				"x": -0.0134011514,
				"y": -0.5893024368,
				"z": -3.3007690712,
				"element": "H" 
			},
			{
				"x": 2.9815420153,
				"y": -1.8007412813,
				"z": -4.1021428344,
				"element": "H" 
			},
			{
				"x": 2.7050706453,
				"y": -0.52016128,
				"z": -5.2976881868,
				"element": "H" 
			},
			{
				"x": -2.0282231257,
				"y": 0.5139624433,
				"z": -0.4163011652,
				"element": "H" 
			},
			{
				"x": -3.9512172251,
				"y": -0.338472564,
				"z": 3.2144342279,
				"element": "H" 
			},
			{
				"x": -2.27842388,
				"y": -0.5580321588,
				"z": 3.8053911446,
				"element": "H" 
			},
			{
				"x": -2.7433719147,
				"y": 0.949212835,
				"z": 2.9580819899,
				"element": "H" 
			},
			{
				"x": 0.5307476609,
				"y": -3.6287046345,
				"z": 2.5521760517,
				"element": "H" 
			},
			{
				"x": -0.5620458131,
				"y": -3.6857366694,
				"z": 3.9657050981,
				"element": "H" 
			},
			{
				"x": -1.2464344246,
				"y": -3.5912012966,
				"z": 2.3184754386,
				"element": "H" 
			}
		],
		 "valence_orbital": [ 
			{
				"type": "occ",
				"energy": -0.26688,
				"method": "rhf"
			},
			{
				"type": "occ",
				"energy": -0.2619,
				"method": "rhf"
			},
			{
				"type": "occ",
				"energy": -0.25773,
				"method": "rhf"
			},
			{
				"type": "occ",
				"energy": -0.233,
				"method": "rhf"
			},
			{
				"type": "occ",
				"energy": -0.22777,
				"method": "rhf"
			},
			{
				"type": "unocc",
				"energy": -0.00824,
				"method": "rhf"
			},
			{
				"type": "unocc",
				"energy": 0.00257,
				"method": "rhf"
			},
			{
				"type": "unocc",
				"energy": 0.01481,
				"method": "rhf"
			},
			{
				"type": "unocc",
				"energy": 0.02042,
				"method": "rhf"
			},
			{
				"type": "unocc",
				"energy": 0.07456,
				"method": "rhf"
			}
		],
		"cosmo_sigma_profile": { 
			"-0.025": 0.0,
			"-0.024": 0.0,
			"-0.023": 0.0,
			"-0.022": 0.0,
			"-0.021": 0.0,
			"-0.02": 0.0,
			"-0.019": 0.0,
			"-0.018": 0.0,
			"-0.017": 0.0,
			"-0.016": 0.0,
			"-0.015": 0.0,
			"-0.014": 0.0459154873175,
			"-0.013": 0.470032037366,
			"-0.012": 0.494688170364,
			"-0.011": 1.20231335098,
			"-0.01": 0.480205673004,
			"-0.009": 3.52517368139,
			"-0.008": 5.47212913665,
			"-0.007": 6.46270093219,
			"-0.006": 11.711232889,
			"-0.005": 20.0575086288,
			"-0.004": 24.8377850008,
			"-0.003": 33.5015402065,
			"-0.002": 33.0302700077,
			"-0.001": 23.4753217749,
			"0.0": 21.7420169638,
			"0.001": 20.2536405905,
			"0.002": 18.703330847,
			"0.003": 19.4329613837,
			"0.004": 19.3625671282,
			"0.005": 14.1157215986,
			"0.006": 8.46260319248,
			"0.007": 4.78933356904,
			"0.008": 3.60658766151,
			"0.009": 3.33078953163,
			"0.01": 3.51305727824,
			"0.011": 3.80546964577,
			"0.012": 3.73002864634,
			"0.013": 4.36044438209,
			"0.014": 1.80562544185,
			"0.015": 0.0363024252857,
			"0.016": 0.0,
			"0.017": 0.0,
			"0.018": 0.0,
			"0.019": 0.0,
			"0.02": 0.0,
			"0.021": 0.0,
			"0.022": 0.0,
			"0.023": 0.0,
			"0.024": 0.0,
			"0.025": 0.0
		}
	}
}
