{
	 "smiles": "OC(=O)CNC(=S)C(S)=NCC(O)=O", 
	 "Tm": 493.15, 
	 "num_atms": 22, 
	 "gaussian": { 
		 "optdone": 1, 
		 "sigma_profile": "yes", 
		 "theory": "DFT", 
		 "functional": "B3LYP", 
		 "basiset": "6-31G**", 
		 "properties": { 
			 "R2extent": 5430.5036, 
			 "electric_dipole_moment_norm": 3.74768188885, 
			 "electric_quadrupole_moment_norm": 25.8207654656, 
			 "total_energy": -1440.22264832, 
			 "HOMO_LUMO_gap": 0.14296, 
			 "cosmo_polarized_energy": -34.22, 
			 "cosmo_cavitation_energy": 31.32, 
			 "cosmo_dispersion_energy": -22.58, 
			 "cosmo_repulsion_energy": 1.75, 
			 "cosmo_total_nonelectrostatic_energy": 10.49, 
			 "SMD_solvation_energy": 4.98 
		},
		"coords": [
			{
				"x": -2.9403704307,
				"y": -2.521888118,
				"z": 1.4939241162,
				"element": "O" 
			},
			{
				"x": -2.410373559,
				"y": -1.6416894324,
				"z": 2.3646623636,
				"element": "C" 
			},
			{
				"x": -2.6286241182,
				"y": -1.7194997675,
				"z": 3.5474647297,
				"element": "O" 
			},
			{
				"x": -1.520270563,
				"y": -0.5605275638,
				"z": 1.7483368276,
				"element": "C" 
			},
			{
				"x": -1.038075085,
				"y": 0.2868271933,
				"z": 2.8213214618,
				"element": "N" 
			},
			{
				"x": -0.3998331126,
				"y": 1.4678734247,
				"z": 2.7525006409,
				"element": "C" 
			},
			{
				"x": -0.0586888596,
				"y": 2.4019355754,
				"z": 4.0845353162,
				"element": "S" 
			},
			{
				"x": 0.0599242492,
				"y": 1.9249421223,
				"z": 1.3885437861,
				"element": "C" 
			},
			{
				"x": -0.2551710861,
				"y": 3.6607558258,
				"z": 1.0967344996,
				"element": "S" 
			},
			{
				"x": 0.6389733121,
				"y": 1.0818719108,
				"z": 0.6257760385,
				"element": "N" 
			},
			{
				"x": 1.2018586417,
				"y": 1.4184574211,
				"z": -0.6662756836,
				"element": "C" 
			},
			{
				"x": 1.8895460014,
				"y": 0.1924182339,
				"z": -1.2877876529,
				"element": "C" 
			},
			{
				"x": 2.0200279432,
				"y": -0.8526549501,
				"z": -0.4524024485,
				"element": "O" 
			},
			{
				"x": 2.2806217379,
				"y": 0.1833109087,
				"z": -2.4277342674,
				"element": "O" 
			},
			{
				"x": -2.6567610295,
				"y": -2.3391920096,
				"z": 0.585768874,
				"element": "H" 
			},
			{
				"x": -0.698475586,
				"y": -1.0357984506,
				"z": 1.2001586167,
				"element": "H" 
			},
			{
				"x": -2.1050106903,
				"y": 0.0108176347,
				"z": 1.0149152931,
				"element": "H" 
			},
			{
				"x": -1.3339979466,
				"y": -0.0168438771,
				"z": 3.7474860232,
				"element": "H" 
			},
			{
				"x": 0.0062051823,
				"y": 3.6169157874,
				"z": -0.2267026586,
				"element": "H" 
			},
			{
				"x": 1.9505829868,
				"y": 2.22015674,
				"z": -0.5882623941,
				"element": "H" 
			},
			{
				"x": 0.4415769622,
				"y": 1.7591419462,
				"z": -1.3822887275,
				"element": "H" 
			},
			{
				"x": 1.6215350497,
				"y": -0.5738305554,
				"z": 0.3980252455,
				"element": "H" 
			}
		],
		 "valence_orbital": [ 
			{
				"type": "occ",
				"energy": -0.3147,
				"method": "rhf"
			},
			{
				"type": "occ",
				"energy": -0.28823,
				"method": "rhf"
			},
			{
				"type": "occ",
				"energy": -0.27962,
				"method": "rhf"
			},
			{
				"type": "occ",
				"energy": -0.25519,
				"method": "rhf"
			},
			{
				"type": "occ",
				"energy": -0.23698,
				"method": "rhf"
			},
			{
				"type": "unocc",
				"energy": -0.09402,
				"method": "rhf"
			},
			{
				"type": "unocc",
				"energy": -0.02889,
				"method": "rhf"
			},
			{
				"type": "unocc",
				"energy": -0.02382,
				"method": "rhf"
			},
			{
				"type": "unocc",
				"energy": -0.00698,
				"method": "rhf"
			},
			{
				"type": "unocc",
				"energy": 0.00095,
				"method": "rhf"
			}
		],
		"cosmo_sigma_profile": { 
			"-0.025": 0.0,
			"-0.024": 0.0,
			"-0.023": 0.0,
			"-0.022": 0.0,
			"-0.021": 0.457147286838,
			"-0.02": 1.13126505834,
			"-0.019": 1.76030390473,
			"-0.018": 1.26813141114,
			"-0.017": 1.26453781937,
			"-0.016": 1.0575172712,
			"-0.015": 1.12276363993,
			"-0.014": 0.923609504914,
			"-0.013": 2.34257839198,
			"-0.012": 4.58553372121,
			"-0.011": 5.11549003663,
			"-0.01": 7.68902147738,
			"-0.009": 12.1597396166,
			"-0.008": 12.9465825575,
			"-0.007": 11.4748221045,
			"-0.006": 8.85659832648,
			"-0.005": 10.0194045588,
			"-0.004": 9.32357068603,
			"-0.003": 8.40337154454,
			"-0.002": 6.88807003107,
			"-0.001": 7.69953046098,
			"0.0": 9.27463004248,
			"0.001": 8.57509877781,
			"0.002": 8.96104000805,
			"0.003": 8.89070402092,
			"0.004": 10.538707008,
			"0.005": 13.761736839,
			"0.006": 11.1202214837,
			"0.007": 13.1510771555,
			"0.008": 12.6443554611,
			"0.009": 12.4205816594,
			"0.01": 12.2604798802,
			"0.011": 7.7597468122,
			"0.012": 6.39564697071,
			"0.013": 2.05927624278,
			"0.014": 0.0524821761069,
			"0.015": 0.0,
			"0.016": 0.0,
			"0.017": 0.0,
			"0.018": 0.0,
			"0.019": 0.0,
			"0.02": 0.0,
			"0.021": 0.0,
			"0.022": 0.0,
			"0.023": 0.0,
			"0.024": 0.0,
			"0.025": 0.0
		}
	}
}
