{
	 "smiles": "NC(=O)COC1=CC=CC(Cl)=C1", 
	 "Tm": 397.15, 
	 "num_atms": 20, 
	 "gaussian": { 
		 "optdone": 1, 
		 "sigma_profile": "yes", 
		 "theory": "DFT", 
		 "functional": "B3LYP", 
		 "basiset": "6-31G**", 
		 "properties": { 
			 "R2extent": 2894.237, 
			 "electric_dipole_moment_norm": 3.97454595394, 
			 "electric_quadrupole_moment_norm": 20.1257980413, 
			 "total_energy": -975.062790065, 
			 "HOMO_LUMO_gap": 0.21502, 
			 "cosmo_polarized_energy": -18.24, 
			 "cosmo_cavitation_energy": 26.47, 
			 "cosmo_dispersion_energy": -19.25, 
			 "cosmo_repulsion_energy": 1.58, 
			 "cosmo_total_nonelectrostatic_energy": 8.79, 
			 "SMD_solvation_energy": 5.29 
		},
		"coords": [
			{
				"x": -2.7379464064,
				"y": -2.003742788,
				"z": 0.7630610456,
				"element": "N" 
			},
			{
				"x": -2.4039960355,
				"y": -0.7838597504,
				"z": 0.244196726,
				"element": "C" 
			},
			{
				"x": -2.8887153676,
				"y": 0.2649375452,
				"z": 0.6242658303,
				"element": "O" 
			},
			{
				"x": -1.3814486846,
				"y": -0.8604920294,
				"z": -0.9067270939,
				"element": "C" 
			},
			{
				"x": -0.8328352303,
				"y": 0.3935982959,
				"z": -1.2315330169,
				"element": "O" 
			},
			{
				"x": 0.0964167153,
				"y": 0.9520427977,
				"z": -0.3977493904,
				"element": "C" 
			},
			{
				"x": 0.6198306417,
				"y": 2.1821245271,
				"z": -0.8188434269,
				"element": "C" 
			},
			{
				"x": 1.590967987,
				"y": 2.8164787792,
				"z": -0.0540347198,
				"element": "C" 
			},
			{
				"x": 2.0622744604,
				"y": 2.2469095188,
				"z": 1.1335313198,
				"element": "C" 
			},
			{
				"x": 1.5258406807,
				"y": 1.0274583867,
				"z": 1.5314755186,
				"element": "C" 
			},
			{
				"x": 2.0908590705,
				"y": 0.2822402991,
				"z": 3.0245745088,
				"element": "Cl" 
			},
			{
				"x": 0.5466527862,
				"y": 0.3645201184,
				"z": 0.7891960439,
				"element": "C" 
			},
			{
				"x": -2.3028140136,
				"y": -2.8639086082,
				"z": 0.4706772921,
				"element": "H" 
			},
			{
				"x": -3.4343233792,
				"y": -2.035586168,
				"z": 1.4923480093,
				"element": "H" 
			},
			{
				"x": -1.907042156,
				"y": -1.1916484833,
				"z": -1.8085440794,
				"element": "H" 
			},
			{
				"x": -0.5974604747,
				"y": -1.6003394585,
				"z": -0.6876804365,
				"element": "H" 
			},
			{
				"x": 0.249230584,
				"y": 2.61486943,
				"z": -1.7414422934,
				"element": "H" 
			},
			{
				"x": 1.9928184208,
				"y": 3.7699348809,
				"z": -0.3836814072,
				"element": "H" 
			},
			{
				"x": 2.8197507144,
				"y": 2.7369738966,
				"z": 1.7334336091,
				"element": "H" 
			},
			{
				"x": 0.148539687,
				"y": -0.5720111899,
				"z": 1.1561759609,
				"element": "H" 
			}
		],
		 "valence_orbital": [ 
			{
				"type": "occ",
				"energy": -0.30882,
				"method": "rhf"
			},
			{
				"type": "occ",
				"energy": -0.28119,
				"method": "rhf"
			},
			{
				"type": "occ",
				"energy": -0.26266,
				"method": "rhf"
			},
			{
				"type": "occ",
				"energy": -0.24867,
				"method": "rhf"
			},
			{
				"type": "occ",
				"energy": -0.22524,
				"method": "rhf"
			},
			{
				"type": "unocc",
				"energy": -0.01022,
				"method": "rhf"
			},
			{
				"type": "unocc",
				"energy": 0.00381,
				"method": "rhf"
			},
			{
				"type": "unocc",
				"energy": 0.01649,
				"method": "rhf"
			},
			{
				"type": "unocc",
				"energy": 0.03087,
				"method": "rhf"
			},
			{
				"type": "unocc",
				"energy": 0.05675,
				"method": "rhf"
			}
		],
		"cosmo_sigma_profile": { 
			"-0.025": 0.0,
			"-0.024": 0.0,
			"-0.023": 0.0,
			"-0.022": 0.0,
			"-0.021": 0.0,
			"-0.02": 0.0,
			"-0.019": 0.0,
			"-0.018": 0.0,
			"-0.017": 0.0,
			"-0.016": 0.0,
			"-0.015": 1.08972331496,
			"-0.014": 2.43243601044,
			"-0.013": 3.18936282187,
			"-0.012": 2.78591290979,
			"-0.011": 2.77732476812,
			"-0.01": 2.82196133737,
			"-0.009": 4.18554884474,
			"-0.008": 6.80535502976,
			"-0.007": 8.4340405061,
			"-0.006": 10.5243314818,
			"-0.005": 10.6552798883,
			"-0.004": 9.92800163269,
			"-0.003": 8.71528947183,
			"-0.002": 8.90034450815,
			"-0.001": 8.80010726602,
			"0.0": 9.76846883843,
			"0.001": 12.8464471286,
			"0.002": 17.016144659,
			"0.003": 21.0390678596,
			"0.004": 20.799409663,
			"0.005": 11.503057963,
			"0.006": 3.10281092576,
			"0.007": 2.72075696098,
			"0.008": 2.84308709536,
			"0.009": 2.86176185797,
			"0.01": 2.22654313185,
			"0.011": 2.33189552842,
			"0.012": 2.58173820204,
			"0.013": 5.41162852758,
			"0.014": 3.64602492341,
			"0.015": 0.259569147,
			"0.016": 0.0,
			"0.017": 0.0,
			"0.018": 0.0,
			"0.019": 0.0,
			"0.02": 0.0,
			"0.021": 0.0,
			"0.022": 0.0,
			"0.023": 0.0,
			"0.024": 0.0,
			"0.025": 0.0
		}
	}
}
