{
	 "smiles": "OC(=O)C1(CCC1)C1=CC=C(F)C=C1", 
	 "Tm": 341.15, 
	 "num_atms": 25, 
	 "gaussian": { 
		 "optdone": 1, 
		 "sigma_profile": "yes", 
		 "theory": "DFT", 
		 "functional": "B3LYP", 
		 "basiset": "6-31G**", 
		 "properties": { 
			 "R2extent": 3492.9511, 
			 "electric_dipole_moment_norm": 1.70921749347, 
			 "electric_quadrupole_moment_norm": 7.81927054974, 
			 "total_energy": -676.071264869, 
			 "HOMO_LUMO_gap": 0.2226, 
			 "cosmo_polarized_energy": -9.71, 
			 "cosmo_cavitation_energy": 28.65, 
			 "cosmo_dispersion_energy": -20.23, 
			 "cosmo_repulsion_energy": 1.58, 
			 "cosmo_total_nonelectrostatic_energy": 10.0, 
			 "SMD_solvation_energy": 6.29 
		},
		"coords": [
			{
				"x": -0.3017514192,
				"y": -1.8978260446,
				"z": 0.1870148815,
				"element": "O" 
			},
			{
				"x": -0.1424828926,
				"y": -0.939263567,
				"z": -0.7581864628,
				"element": "C" 
			},
			{
				"x": -0.2983767222,
				"y": -1.1566023616,
				"z": -1.9400109735,
				"element": "O" 
			},
			{
				"x": 0.2319890572,
				"y": 0.4022276561,
				"z": -0.1463456404,
				"element": "C" 
			},
			{
				"x": 1.0312162815,
				"y": 1.337598294,
				"z": -1.1074763799,
				"element": "C" 
			},
			{
				"x": 2.0493613414,
				"y": 1.6035561194,
				"z": 0.0293211847,
				"element": "C" 
			},
			{
				"x": 1.4843765475,
				"y": 0.3824392698,
				"z": 0.7964890046,
				"element": "C" 
			},
			{
				"x": -1.041443332,
				"y": 1.0092442517,
				"z": 0.4445670407,
				"element": "C" 
			},
			{
				"x": -1.9344228758,
				"y": 1.7061790634,
				"z": -0.3835659526,
				"element": "C" 
			},
			{
				"x": -3.1250838268,
				"y": 2.2326113459,
				"z": 0.1153307496,
				"element": "C" 
			},
			{
				"x": -3.4242948926,
				"y": 2.0479924082,
				"z": 1.459918296,
				"element": "C" 
			},
			{
				"x": -4.5708168411,
				"y": 2.5601116574,
				"z": 1.954495038,
				"element": "F" 
			},
			{
				"x": -2.5763752774,
				"y": 1.3451366657,
				"z": 2.3069371212,
				"element": "C" 
			},
			{
				"x": -1.3909285327,
				"y": 0.8233856448,
				"z": 1.7889788853,
				"element": "C" 
			},
			{
				"x": -0.5685725895,
				"y": -2.7034792207,
				"z": -0.2868577855,
				"element": "H" 
			},
			{
				"x": 1.4533000519,
				"y": 0.7700402879,
				"z": -1.9396903004,
				"element": "H" 
			},
			{
				"x": 0.4991606007,
				"y": 2.2015178583,
				"z": -1.5108505757,
				"element": "H" 
			},
			{
				"x": 1.8465084191,
				"y": 2.5425963409,
				"z": 0.5518641817,
				"element": "H" 
			},
			{
				"x": 3.1092279205,
				"y": 1.5747127081,
				"z": -0.2361640018,
				"element": "H" 
			},
			{
				"x": 2.0809118043,
				"y": -0.5215658846,
				"z": 0.6481118774,
				"element": "H" 
			},
			{
				"x": 1.3051139674,
				"y": 0.5018237121,
				"z": 1.866802018,
				"element": "H" 
			},
			{
				"x": -1.7032916509,
				"y": 1.8337374224,
				"z": -1.436418232,
				"element": "H" 
			},
			{
				"x": -3.816339449,
				"y": 2.776478403,
				"z": -0.5193800639,
				"element": "H" 
			},
			{
				"x": -2.8484964218,
				"y": 1.211028608,
				"z": 3.3483464089,
				"element": "H" 
			},
			{
				"x": -0.7389892677,
				"y": 0.2564193613,
				"z": 2.4447696808,
				"element": "H" 
			}
		],
		 "valence_orbital": [ 
			{
				"type": "occ",
				"energy": -0.31741,
				"method": "rhf"
			},
			{
				"type": "occ",
				"energy": -0.31097,
				"method": "rhf"
			},
			{
				"type": "occ",
				"energy": -0.27708,
				"method": "rhf"
			},
			{
				"type": "occ",
				"energy": -0.26149,
				"method": "rhf"
			},
			{
				"type": "occ",
				"energy": -0.23777,
				"method": "rhf"
			},
			{
				"type": "unocc",
				"energy": -0.01517,
				"method": "rhf"
			},
			{
				"type": "unocc",
				"energy": -0.01261,
				"method": "rhf"
			},
			{
				"type": "unocc",
				"energy": 0.02405,
				"method": "rhf"
			},
			{
				"type": "unocc",
				"energy": 0.07183,
				"method": "rhf"
			},
			{
				"type": "unocc",
				"energy": 0.08545,
				"method": "rhf"
			}
		],
		"cosmo_sigma_profile": { 
			"-0.025": 0.0,
			"-0.024": 0.0,
			"-0.023": 0.0,
			"-0.022": 0.0,
			"-0.021": 0.0,
			"-0.02": 0.0,
			"-0.019": 0.00818107535496,
			"-0.018": 0.767160721763,
			"-0.017": 0.825299708124,
			"-0.016": 0.763405274922,
			"-0.015": 1.02843452391,
			"-0.014": 0.790418252896,
			"-0.013": 0.608575182307,
			"-0.012": 0.332934779562,
			"-0.011": 0.831572993047,
			"-0.01": 1.16948961461,
			"-0.009": 0.34782588861,
			"-0.008": 0.805769985298,
			"-0.007": 4.44194029059,
			"-0.006": 9.65250249163,
			"-0.005": 11.1598639159,
			"-0.004": 14.6289156988,
			"-0.003": 16.0766460478,
			"-0.002": 18.2053919951,
			"-0.001": 21.2264119554,
			"0.0": 21.1682843742,
			"0.001": 21.8965733173,
			"0.002": 15.3842547684,
			"0.003": 14.275127047,
			"0.004": 20.0910739833,
			"0.005": 9.25093990785,
			"0.006": 3.13853878693,
			"0.007": 2.90672210814,
			"0.008": 2.71593029746,
			"0.009": 2.23410582983,
			"0.01": 2.12584346368,
			"0.011": 3.58405257713,
			"0.012": 4.14257031975,
			"0.013": 0.36949272431,
			"0.014": 0.0,
			"0.015": 0.0,
			"0.016": 0.0,
			"0.017": 0.0,
			"0.018": 0.0,
			"0.019": 0.0,
			"0.02": 0.0,
			"0.021": 0.0,
			"0.022": 0.0,
			"0.023": 0.0,
			"0.024": 0.0,
			"0.025": 0.0
		}
	}
}
