{
	 "smiles": "CC1=CC=C(C=C1)C1=NC(S)=NN1", 
	 "Tm": 399.15, 
	 "num_atms": 22, 
	 "gaussian": { 
		 "optdone": 1, 
		 "sigma_profile": "yes", 
		 "theory": "DFT", 
		 "functional": "B3LYP", 
		 "basiset": "6-31G**", 
		 "properties": { 
			 "R2extent": 5621.3136, 
			 "electric_dipole_moment_norm": 4.59096724994, 
			 "electric_quadrupole_moment_norm": 18.7804142119, 
			 "total_energy": -910.82079163, 
			 "HOMO_LUMO_gap": 0.17482, 
			 "cosmo_polarized_energy": -13.55, 
			 "cosmo_cavitation_energy": 28.28, 
			 "cosmo_dispersion_energy": -21.61, 
			 "cosmo_repulsion_energy": 1.66, 
			 "cosmo_total_nonelectrostatic_energy": 8.34, 
			 "SMD_solvation_energy": 1.7 
		},
		"coords": [
			{
				"x": -1.955410846,
				"y": -2.2933552,
				"z": -0.2387038227,
				"element": "C" 
			},
			{
				"x": -0.8816690341,
				"y": -1.251841859,
				"z": -0.4408087349,
				"element": "C" 
			},
			{
				"x": -0.947009444,
				"y": -0.3406831413,
				"z": -1.5030305605,
				"element": "C" 
			},
			{
				"x": 0.0290599561,
				"y": 0.6376075885,
				"z": -1.6751634195,
				"element": "C" 
			},
			{
				"x": 1.107343213,
				"y": 0.7331164474,
				"z": -0.7830586374,
				"element": "C" 
			},
			{
				"x": 1.1822889833,
				"y": -0.1800656876,
				"z": 0.2810748117,
				"element": "C" 
			},
			{
				"x": 0.2033080513,
				"y": -1.1534332993,
				"z": 0.443531903,
				"element": "C" 
			},
			{
				"x": 2.1566270948,
				"y": 1.7446912029,
				"z": -0.9245398365,
				"element": "C" 
			},
			{
				"x": 3.2370377051,
				"y": 1.8590241922,
				"z": -0.1525246677,
				"element": "N" 
			},
			{
				"x": 3.8840036684,
				"y": 2.9326717739,
				"z": -0.680401986,
				"element": "C" 
			},
			{
				"x": 5.4130314007,
				"y": 3.5624343548,
				"z": -0.0500703421,
				"element": "S" 
			},
			{
				"x": 3.2948067052,
				"y": 3.5028586088,
				"z": -1.7235336139,
				"element": "N" 
			},
			{
				"x": 2.1876696184,
				"y": 2.7230387973,
				"z": -1.8629511793,
				"element": "N" 
			},
			{
				"x": -2.5010644235,
				"y": -2.4923326254,
				"z": -1.1654363038,
				"element": "H" 
			},
			{
				"x": -1.5335250409,
				"y": -3.2383925968,
				"z": 0.1172968232,
				"element": "H" 
			},
			{
				"x": -2.6879912864,
				"y": -1.9645060496,
				"z": 0.5090759879,
				"element": "H" 
			},
			{
				"x": -1.7719908247,
				"y": -0.3993072533,
				"z": -2.2081640733,
				"element": "H" 
			},
			{
				"x": -0.0571106845,
				"y": 1.3178623955,
				"z": -2.5185938627,
				"element": "H" 
			},
			{
				"x": 2.0188979235,
				"y": -0.110543719,
				"z": 0.9675983312,
				"element": "H" 
			},
			{
				"x": 0.2811936214,
				"y": -1.8529317719,
				"z": 1.2720912778,
				"element": "H" 
			},
			{
				"x": 5.4956020546,
				"y": 2.6352559458,
				"z": 0.9219064399,
				"element": "H" 
			},
			{
				"x": 1.5267015886,
				"y": 2.9350318961,
				"z": -2.5938945344,
				"element": "H" 
			}
		],
		 "valence_orbital": [ 
			{
				"type": "occ",
				"energy": -0.30185,
				"method": "rhf"
			},
			{
				"type": "occ",
				"energy": -0.2813,
				"method": "rhf"
			},
			{
				"type": "occ",
				"energy": -0.26374,
				"method": "rhf"
			},
			{
				"type": "occ",
				"energy": -0.24837,
				"method": "rhf"
			},
			{
				"type": "occ",
				"energy": -0.21914,
				"method": "rhf"
			},
			{
				"type": "unocc",
				"energy": -0.04432,
				"method": "rhf"
			},
			{
				"type": "unocc",
				"energy": -0.01373,
				"method": "rhf"
			},
			{
				"type": "unocc",
				"energy": 0.02586,
				"method": "rhf"
			},
			{
				"type": "unocc",
				"energy": 0.0351,
				"method": "rhf"
			},
			{
				"type": "unocc",
				"energy": 0.05349,
				"method": "rhf"
			}
		],
		"cosmo_sigma_profile": { 
			"-0.025": 0.0,
			"-0.024": 0.0,
			"-0.023": 0.0,
			"-0.022": 0.0,
			"-0.021": 0.0,
			"-0.02": 0.0,
			"-0.019": 0.0,
			"-0.018": 0.323207174887,
			"-0.017": 1.392815521,
			"-0.016": 1.38436224375,
			"-0.015": 0.921451126204,
			"-0.014": 1.36648335846,
			"-0.013": 1.16271056699,
			"-0.012": 1.89905201235,
			"-0.011": 2.23356539811,
			"-0.01": 2.54878118185,
			"-0.009": 2.09364390269,
			"-0.008": 2.80230761956,
			"-0.007": 2.55359085708,
			"-0.006": 5.15718277346,
			"-0.005": 12.8865803569,
			"-0.004": 16.2089816838,
			"-0.003": 13.0772663352,
			"-0.002": 14.4117076699,
			"-0.001": 17.2310428974,
			"0.0": 19.770408436,
			"0.001": 14.721863145,
			"0.002": 18.6875395795,
			"0.003": 18.8501302419,
			"0.004": 19.0935660666,
			"0.005": 11.6265327133,
			"0.006": 5.7473359721,
			"0.007": 5.82640282326,
			"0.008": 3.84053169535,
			"0.009": 2.42118621039,
			"0.01": 2.12555670185,
			"0.011": 1.90150598368,
			"0.012": 2.53223808111,
			"0.013": 1.15435310358,
			"0.014": 0.790108573289,
			"0.015": 0.210617790493,
			"0.016": 0.0,
			"0.017": 0.0,
			"0.018": 0.0,
			"0.019": 0.0,
			"0.02": 0.0,
			"0.021": 0.0,
			"0.022": 0.0,
			"0.023": 0.0,
			"0.024": 0.0,
			"0.025": 0.0
		}
	}
}
