{
	 "smiles": "BrC1=CC(Br)=C(Br)C=C1OC1=CC(Br)=C(Br)C=C1Br", 
	 "Tm": 435.15, 
	 "num_atms": 23, 
	 "gaussian": { 
		 "optdone": 1, 
		 "sigma_profile": "yes", 
		 "theory": "DFT", 
		 "functional": "B3LYP", 
		 "basiset": "6-31G**", 
		 "properties": { 
			 "R2extent": 20145.3098, 
			 "electric_dipole_moment_norm": 0.0633757840188, 
			 "electric_quadrupole_moment_norm": 5.45192159885, 
			 "total_energy": -15963.2985059, 
			 "HOMO_LUMO_gap": 0.19757, 
			 "cosmo_polarized_energy": -5.92, 
			 "cosmo_cavitation_energy": 41.99, 
			 "cosmo_dispersion_energy": -31.06, 
			 "cosmo_repulsion_energy": 2.41, 
			 "cosmo_total_nonelectrostatic_energy": 13.34, 
			 "SMD_solvation_energy": 0.82 
		},
		"coords": [
			{
				"x": -1.4794144593,
				"y": 0.7437739592,
				"z": 1.8507559078,
				"element": "Br" 
			},
			{
				"x": -0.6227180699,
				"y": -0.9428664051,
				"z": 2.0393790292,
				"element": "C" 
			},
			{
				"x": -0.0940165472,
				"y": -1.2713711209,
				"z": 3.2869643904,
				"element": "C" 
			},
			{
				"x": 0.493088905,
				"y": -2.5149534165,
				"z": 3.5133770339,
				"element": "C" 
			},
			{
				"x": 1.1784134297,
				"y": -2.8796828581,
				"z": 5.2449535535,
				"element": "Br" 
			},
			{
				"x": 0.5475598862,
				"y": -3.4487161909,
				"z": 2.4709409186,
				"element": "C" 
			},
			{
				"x": 1.3127602356,
				"y": -5.170801724,
				"z": 2.6911294451,
				"element": "Br" 
			},
			{
				"x": 0.0364053334,
				"y": -3.1124030291,
				"z": 1.2215228815,
				"element": "C" 
			},
			{
				"x": -0.5393050305,
				"y": -1.8628744409,
				"z": 0.986640943,
				"element": "C" 
			},
			{
				"x": -1.0932110092,
				"y": -1.6899502724,
				"z": -0.2638242595,
				"element": "O" 
			},
			{
				"x": -0.8781798118,
				"y": -0.5893649013,
				"z": -1.0656498835,
				"element": "C" 
			},
			{
				"x": -2.022293575,
				"y": -0.0260510701,
				"z": -1.6328059487,
				"element": "C" 
			},
			{
				"x": -1.9364795072,
				"y": 1.0306005023,
				"z": -2.5336885613,
				"element": "C" 
			},
			{
				"x": -3.5484020472,
				"y": 1.7303589196,
				"z": -3.24905025,
				"element": "Br" 
			},
			{
				"x": -0.6801176153,
				"y": 1.5476316319,
				"z": -2.8739444234,
				"element": "C" 
			},
			{
				"x": -0.4672891261,
				"y": 2.9967317732,
				"z": -4.0804466251,
				"element": "Br" 
			},
			{
				"x": 0.4656546126,
				"y": 0.9782897827,
				"z": -2.3212402713,
				"element": "C" 
			},
			{
				"x": 0.37890846,
				"y": -0.092992494,
				"z": -1.4331292399,
				"element": "C" 
			},
			{
				"x": 1.9997236891,
				"y": -0.8579145371,
				"z": -0.7989922173,
				"element": "Br" 
			},
			{
				"x": -0.1551232923,
				"y": -0.5544070851,
				"z": 4.0956324561,
				"element": "H" 
			},
			{
				"x": 0.0842157144,
				"y": -3.8165334962,
				"z": 0.4002800585,
				"element": "H" 
			},
			{
				"x": -2.986392513,
				"y": -0.4278277801,
				"z": -1.3470876693,
				"element": "H" 
			},
			{
				"x": 1.4393123384,
				"y": 1.3626242531,
				"z": -2.5969172682,
				"element": "H" 
			}
		],
		 "valence_orbital": [ 
			{
				"type": "occ",
				"energy": -0.28839,
				"method": "rhf"
			},
			{
				"type": "occ",
				"energy": -0.26622,
				"method": "rhf"
			},
			{
				"type": "occ",
				"energy": -0.26398,
				"method": "rhf"
			},
			{
				"type": "occ",
				"energy": -0.25022,
				"method": "rhf"
			},
			{
				"type": "occ",
				"energy": -0.24517,
				"method": "rhf"
			},
			{
				"type": "unocc",
				"energy": -0.0476,
				"method": "rhf"
			},
			{
				"type": "unocc",
				"energy": -0.04614,
				"method": "rhf"
			},
			{
				"type": "unocc",
				"energy": -0.04297,
				"method": "rhf"
			},
			{
				"type": "unocc",
				"energy": -0.03936,
				"method": "rhf"
			},
			{
				"type": "unocc",
				"energy": -0.03579,
				"method": "rhf"
			}
		],
		"cosmo_sigma_profile": { 
			"-0.025": 0.0,
			"-0.024": 0.0,
			"-0.023": 0.0,
			"-0.022": 0.0,
			"-0.021": 0.0,
			"-0.02": 0.0,
			"-0.019": 0.0,
			"-0.018": 0.0,
			"-0.017": 0.0,
			"-0.016": 0.0,
			"-0.015": 0.0,
			"-0.014": 0.0,
			"-0.013": 0.0,
			"-0.012": 0.0,
			"-0.011": 0.0,
			"-0.01": 0.0,
			"-0.009": 2.31465714731,
			"-0.008": 5.69246683061,
			"-0.007": 5.01601622581,
			"-0.006": 7.93327615135,
			"-0.005": 14.6774347274,
			"-0.004": 15.8998126986,
			"-0.003": 15.8773882798,
			"-0.002": 21.5950106263,
			"-0.001": 41.6233503221,
			"0.0": 62.2350752325,
			"0.001": 42.6901635956,
			"0.002": 35.4310505988,
			"0.003": 50.2780526317,
			"0.004": 30.1116991884,
			"0.005": 5.55475333171,
			"0.006": 0.858858591344,
			"0.007": 0.30699711264,
			"0.008": 0.0,
			"0.009": 0.0,
			"0.01": 0.0,
			"0.011": 0.0,
			"0.012": 0.0,
			"0.013": 0.0,
			"0.014": 0.0,
			"0.015": 0.0,
			"0.016": 0.0,
			"0.017": 0.0,
			"0.018": 0.0,
			"0.019": 0.0,
			"0.02": 0.0,
			"0.021": 0.0,
			"0.022": 0.0,
			"0.023": 0.0,
			"0.024": 0.0,
			"0.025": 0.0
		}
	}
}
