{
	 "smiles": "CC(C)(C)C(=O)N1CCC(=O)CC1", 
	 "Tm": 368.15, 
	 "num_atms": 30, 
	 "gaussian": { 
		 "optdone": 1, 
		 "sigma_profile": "yes", 
		 "theory": "DFT", 
		 "functional": "B3LYP", 
		 "basiset": "6-31G**", 
		 "properties": { 
			 "R2extent": 3124.7171, 
			 "electric_dipole_moment_norm": 2.91053503844, 
			 "electric_quadrupole_moment_norm": 13.9099675093, 
			 "total_energy": -596.524877493, 
			 "HOMO_LUMO_gap": 0.21894, 
			 "cosmo_polarized_energy": -13.41, 
			 "cosmo_cavitation_energy": 30.29, 
			 "cosmo_dispersion_energy": -21.34, 
			 "cosmo_repulsion_energy": 1.67, 
			 "cosmo_total_nonelectrostatic_energy": 10.62, 
			 "SMD_solvation_energy": 5.63 
		},
		"coords": [
			{
				"x": -1.2941941583,
				"y": -1.673307444,
				"z": -1.127947267,
				"element": "C" 
			},
			{
				"x": -0.4472487023,
				"y": -1.463200015,
				"z": 0.1505045387,
				"element": "C" 
			},
			{
				"x": -0.9596475331,
				"y": -2.461449562,
				"z": 1.2103234777,
				"element": "C" 
			},
			{
				"x": 1.0478716613,
				"y": -1.7731191661,
				"z": -0.0977692471,
				"element": "C" 
			},
			{
				"x": -0.6428247819,
				"y": -0.0352268125,
				"z": 0.7429668563,
				"element": "C" 
			},
			{
				"x": -1.1730617437,
				"y": 0.0917867802,
				"z": 1.8439661117,
				"element": "O" 
			},
			{
				"x": -0.1945139961,
				"y": 1.0926555994,
				"z": 0.0705811947,
				"element": "N" 
			},
			{
				"x": 0.2737648344,
				"y": 1.2197333847,
				"z": -1.3056404102,
				"element": "C" 
			},
			{
				"x": -0.7430508751,
				"y": 1.9975188061,
				"z": -2.1719480062,
				"element": "C" 
			},
			{
				"x": -1.1589126772,
				"y": 3.3131922741,
				"z": -1.5218155366,
				"element": "C" 
			},
			{
				"x": -1.2345849515,
				"y": 4.3512086681,
				"z": -2.1500288221,
				"element": "O" 
			},
			{
				"x": -1.4635917359,
				"y": 3.2221398222,
				"z": -0.0344574167,
				"element": "C" 
			},
			{
				"x": -0.3946853723,
				"y": 2.3957475567,
				"z": 0.7103694598,
				"element": "C" 
			},
			{
				"x": -0.9698083856,
				"y": -1.0755196347,
				"z": -1.9827003672,
				"element": "H" 
			},
			{
				"x": -2.3470350118,
				"y": -1.4414933361,
				"z": -0.9357657114,
				"element": "H" 
			},
			{
				"x": -1.2385176358,
				"y": -2.7243450625,
				"z": -1.4310135403,
				"element": "H" 
			},
			{
				"x": -2.0148420876,
				"y": -2.294118996,
				"z": 1.435260983,
				"element": "H" 
			},
			{
				"x": -0.4076043452,
				"y": -2.3625072332,
				"z": 2.1472932991,
				"element": "H" 
			},
			{
				"x": -0.8366769689,
				"y": -3.4833926276,
				"z": 0.8359285586,
				"element": "H" 
			},
			{
				"x": 1.6269770683,
				"y": -1.6321662259,
				"z": 0.820487114,
				"element": "H" 
			},
			{
				"x": 1.5074013775,
				"y": -1.160055126,
				"z": -0.8760074201,
				"element": "H" 
			},
			{
				"x": 1.1570259258,
				"y": -2.8199215979,
				"z": -0.4012536439,
				"element": "H" 
			},
			{
				"x": 0.4668855994,
				"y": 0.2465449065,
				"z": -1.7443739374,
				"element": "H" 
			},
			{
				"x": 1.2300655312,
				"y": 1.761409794,
				"z": -1.2983567815,
				"element": "H" 
			},
			{
				"x": -0.339818793,
				"y": 2.2090453877,
				"z": -3.1661334899,
				"element": "H" 
			},
			{
				"x": -1.6449878856,
				"y": 1.3817756511,
				"z": -2.2921956934,
				"element": "H" 
			},
			{
				"x": -1.5464911091,
				"y": 4.233616977,
				"z": 0.3722739097,
				"element": "H" 
			},
			{
				"x": -2.4342026381,
				"y": 2.7229423165,
				"z": 0.0899549372,
				"element": "H" 
			},
			{
				"x": -0.6896594732,
				"y": 2.2210141066,
				"z": 1.7430535717,
				"element": "H" 
			},
			{
				"x": 0.5617688636,
				"y": 2.9356908087,
				"z": 0.7023432786,
				"element": "H" 
			}
		],
		 "valence_orbital": [ 
			{
				"type": "occ",
				"energy": -0.33605,
				"method": "rhf"
			},
			{
				"type": "occ",
				"energy": -0.33024,
				"method": "rhf"
			},
			{
				"type": "occ",
				"energy": -0.25148,
				"method": "rhf"
			},
			{
				"type": "occ",
				"energy": -0.24507,
				"method": "rhf"
			},
			{
				"type": "occ",
				"energy": -0.24213,
				"method": "rhf"
			},
			{
				"type": "unocc",
				"energy": -0.02319,
				"method": "rhf"
			},
			{
				"type": "unocc",
				"energy": 0.02024,
				"method": "rhf"
			},
			{
				"type": "unocc",
				"energy": 0.07132,
				"method": "rhf"
			},
			{
				"type": "unocc",
				"energy": 0.09723,
				"method": "rhf"
			},
			{
				"type": "unocc",
				"energy": 0.1041,
				"method": "rhf"
			}
		],
		"cosmo_sigma_profile": { 
			"-0.025": 0.0,
			"-0.024": 0.0,
			"-0.023": 0.0,
			"-0.022": 0.0,
			"-0.021": 0.0,
			"-0.02": 0.0,
			"-0.019": 0.0,
			"-0.018": 0.0,
			"-0.017": 0.0,
			"-0.016": 0.0,
			"-0.015": 0.0,
			"-0.014": 0.0,
			"-0.013": 0.0,
			"-0.012": 0.0,
			"-0.011": 0.0,
			"-0.01": 0.0,
			"-0.009": 0.00109643744846,
			"-0.008": 0.584686548512,
			"-0.007": 4.70324395248,
			"-0.006": 10.786633656,
			"-0.005": 16.2450393245,
			"-0.004": 24.6979446297,
			"-0.003": 31.9790254383,
			"-0.002": 30.1043350281,
			"-0.001": 20.5463856061,
			"0.0": 22.0875217656,
			"0.001": 17.7781418854,
			"0.002": 8.85018699056,
			"0.003": 4.49072104509,
			"0.004": 2.73884040298,
			"0.005": 3.12545844463,
			"0.006": 3.20643627741,
			"0.007": 2.78363704681,
			"0.008": 3.29415101527,
			"0.009": 2.7435641471,
			"0.01": 3.85136608027,
			"0.011": 4.81511007877,
			"0.012": 6.40198558984,
			"0.013": 4.99235786217,
			"0.014": 3.7245897278,
			"0.015": 0.569132426284,
			"0.016": 0.0,
			"0.017": 0.0,
			"0.018": 0.0,
			"0.019": 0.0,
			"0.02": 0.0,
			"0.021": 0.0,
			"0.022": 0.0,
			"0.023": 0.0,
			"0.024": 0.0,
			"0.025": 0.0
		}
	}
}
