{
	 "smiles": "CC1=CC=C(O1)C(C1=CC=C(C)O1)C1=CC(Br)=CC=C1O", 
	 "Tm": 370.15, 
	 "num_atms": 36, 
	 "gaussian": { 
		 "optdone": 1, 
		 "sigma_profile": "yes", 
		 "theory": "DFT", 
		 "functional": "B3LYP", 
		 "basiset": "6-31G**", 
		 "properties": { 
			 "R2extent": 10429.9231, 
			 "electric_dipole_moment_norm": 2.97276182026, 
			 "electric_quadrupole_moment_norm": 17.7406216289, 
			 "total_energy": -3453.88784325, 
			 "HOMO_LUMO_gap": 0.18695, 
			 "cosmo_polarized_energy": -13.83, 
			 "cosmo_cavitation_energy": 42.86, 
			 "cosmo_dispersion_energy": -29.68, 
			 "cosmo_repulsion_energy": 2.36, 
			 "cosmo_total_nonelectrostatic_energy": 15.54, 
			 "SMD_solvation_energy": 7.35 
		},
		"coords": [
			{
				"x": 5.3292525061,
				"y": -1.0750654916,
				"z": 1.4487932166,
				"element": "C" 
			},
			{
				"x": 3.9226588517,
				"y": -0.5990774195,
				"z": 1.5518565684,
				"element": "C" 
			},
			{
				"x": 3.2288573349,
				"y": 0.1032194475,
				"z": 2.4929119146,
				"element": "C" 
			},
			{
				"x": 1.8914834248,
				"y": 0.2524685591,
				"z": 1.9969461909,
				"element": "C" 
			},
			{
				"x": 1.8581471959,
				"y": -0.3655529883,
				"z": 0.7819524593,
				"element": "C" 
			},
			{
				"x": 3.0948970603,
				"y": -0.8912174356,
				"z": 0.5005542537,
				"element": "O" 
			},
			{
				"x": 0.8008771627,
				"y": -0.6414868428,
				"z": -0.2538493565,
				"element": "C" 
			},
			{
				"x": -0.029580289,
				"y": 0.5763698504,
				"z": -0.5632247709,
				"element": "C" 
			},
			{
				"x": 0.1143368269,
				"y": 1.9115447576,
				"z": -0.3345164428,
				"element": "C" 
			},
			{
				"x": -0.9905276259,
				"y": 2.5555616974,
				"z": -0.9863899771,
				"element": "C" 
			},
			{
				"x": -1.7313982715,
				"y": 1.5719043335,
				"z": -1.5700775543,
				"element": "C" 
			},
			{
				"x": -2.9822233005,
				"y": 1.5613688182,
				"z": -2.3768436513,
				"element": "C" 
			},
			{
				"x": -1.1493756558,
				"y": 0.3555374919,
				"z": -1.3211912367,
				"element": "O" 
			},
			{
				"x": -0.0350568132,
				"y": -1.88110158,
				"z": 0.0877118661,
				"element": "C" 
			},
			{
				"x": 0.1491053215,
				"y": -3.0562147842,
				"z": -0.6428762587,
				"element": "C" 
			},
			{
				"x": -0.5734559003,
				"y": -4.2102802648,
				"z": -0.3432125768,
				"element": "C" 
			},
			{
				"x": -0.2872289024,
				"y": -5.7974531606,
				"z": -1.3729158079,
				"element": "Br" 
			},
			{
				"x": -1.5005324246,
				"y": -4.218037371,
				"z": 0.6924093579,
				"element": "C" 
			},
			{
				"x": -1.6951753911,
				"y": -3.050401961,
				"z": 1.4297218393,
				"element": "C" 
			},
			{
				"x": -0.9722545739,
				"y": -1.8908203728,
				"z": 1.1384354214,
				"element": "C" 
			},
			{
				"x": -1.1448880019,
				"y": -0.7382043949,
				"z": 1.8496044787,
				"element": "O" 
			},
			{
				"x": 5.8841318333,
				"y": -0.7866161781,
				"z": 2.3446276676,
				"element": "H" 
			},
			{
				"x": 5.8379082835,
				"y": -0.6450764812,
				"z": 0.5779128835,
				"element": "H" 
			},
			{
				"x": 5.3788449932,
				"y": -2.1658532442,
				"z": 1.3515135001,
				"element": "H" 
			},
			{
				"x": 3.6231543634,
				"y": 0.4729661931,
				"z": 3.4291147448,
				"element": "H" 
			},
			{
				"x": 1.0569261835,
				"y": 0.7373670422,
				"z": 2.4788911855,
				"element": "H" 
			},
			{
				"x": 1.3542301694,
				"y": -0.9047171227,
				"z": -1.1660669112,
				"element": "H" 
			},
			{
				"x": 0.9082004899,
				"y": 2.3781717054,
				"z": 0.22819819,
				"element": "H" 
			},
			{
				"x": -1.2054205781,
				"y": 3.6147290601,
				"z": -1.0124862548,
				"element": "H" 
			},
			{
				"x": -3.7725207294,
				"y": 0.9784644205,
				"z": -1.8891427046,
				"element": "H" 
			},
			{
				"x": -2.8189040616,
				"y": 1.1236829455,
				"z": -3.3686867934,
				"element": "H" 
			},
			{
				"x": -3.3449226072,
				"y": 2.5833255036,
				"z": -2.5105071243,
				"element": "H" 
			},
			{
				"x": 0.8657151383,
				"y": -3.0685470391,
				"z": -1.4571668906,
				"element": "H" 
			},
			{
				"x": -2.0637591028,
				"y": -5.1145263637,
				"z": 0.9241104241,
				"element": "H" 
			},
			{
				"x": -2.4176386218,
				"y": -3.0430873527,
				"z": 2.243400941,
				"element": "H" 
			},
			{
				"x": -1.8249642882,
				"y": -0.877343977,
				"z": 2.5211872083,
				"element": "H" 
			}
		],
		 "valence_orbital": [ 
			{
				"type": "occ",
				"energy": -0.26379,
				"method": "rhf"
			},
			{
				"type": "occ",
				"energy": -0.25925,
				"method": "rhf"
			},
			{
				"type": "occ",
				"energy": -0.21996,
				"method": "rhf"
			},
			{
				"type": "occ",
				"energy": -0.20734,
				"method": "rhf"
			},
			{
				"type": "occ",
				"energy": -0.20113,
				"method": "rhf"
			},
			{
				"type": "unocc",
				"energy": -0.01418,
				"method": "rhf"
			},
			{
				"type": "unocc",
				"energy": 0.00151,
				"method": "rhf"
			},
			{
				"type": "unocc",
				"energy": 0.00868,
				"method": "rhf"
			},
			{
				"type": "unocc",
				"energy": 0.02544,
				"method": "rhf"
			},
			{
				"type": "unocc",
				"energy": 0.0272,
				"method": "rhf"
			}
		],
		"cosmo_sigma_profile": { 
			"-0.025": 0.0,
			"-0.024": 0.0,
			"-0.023": 0.0,
			"-0.022": 0.0,
			"-0.021": 0.0,
			"-0.02": 0.0,
			"-0.019": 0.237026207393,
			"-0.018": 1.09370308229,
			"-0.017": 0.986757478958,
			"-0.016": 1.17785888267,
			"-0.015": 0.917990909878,
			"-0.014": 1.14248661123,
			"-0.013": 0.696879765174,
			"-0.012": 0.584368474372,
			"-0.011": 1.24680493381,
			"-0.01": 1.34215485088,
			"-0.009": 1.0815317749,
			"-0.008": 2.44554913485,
			"-0.007": 6.48128956683,
			"-0.006": 10.5835356433,
			"-0.005": 20.3037231754,
			"-0.004": 25.0589170657,
			"-0.003": 24.5639750587,
			"-0.002": 24.664076398,
			"-0.001": 31.2064916761,
			"0.0": 24.6916337559,
			"0.001": 21.1506672412,
			"0.002": 23.6353167221,
			"0.003": 34.4639714445,
			"0.004": 30.6650422861,
			"0.005": 23.6726487404,
			"0.006": 14.9055353044,
			"0.007": 7.7506302089,
			"0.008": 4.76060703582,
			"0.009": 2.1641522581,
			"0.01": 1.06727032809,
			"0.011": 0.130434684034,
			"0.012": 0.0,
			"0.013": 0.0,
			"0.014": 0.0,
			"0.015": 0.0,
			"0.016": 0.0,
			"0.017": 0.0,
			"0.018": 0.0,
			"0.019": 0.0,
			"0.02": 0.0,
			"0.021": 0.0,
			"0.022": 0.0,
			"0.023": 0.0,
			"0.024": 0.0,
			"0.025": 0.0
		}
	}
}
