{
	 "smiles": "CC1=C(C=CC=C1N)C#N", 
	 "Tm": 364.15, 
	 "num_atms": 18, 
	 "gaussian": { 
		 "optdone": 1, 
		 "sigma_profile": "yes", 
		 "theory": "DFT", 
		 "functional": "B3LYP", 
		 "basiset": "6-31G**", 
		 "properties": { 
			 "R2extent": 1481.4146, 
			 "electric_dipole_moment_norm": 5.54386599856, 
			 "electric_quadrupole_moment_norm": 10.240562883, 
			 "total_energy": -419.17081271, 
			 "HOMO_LUMO_gap": 0.17925, 
			 "cosmo_polarized_energy": -12.49, 
			 "cosmo_cavitation_energy": 22.34, 
			 "cosmo_dispersion_energy": -16.1, 
			 "cosmo_repulsion_energy": 1.3, 
			 "cosmo_total_nonelectrostatic_energy": 7.54, 
			 "SMD_solvation_energy": 5.04 
		},
		"coords": [
			{
				"x": -0.7656250807,
				"y": -1.089427056,
				"z": 2.0245473568,
				"element": "C" 
			},
			{
				"x": -0.0607172198,
				"y": -0.7465967719,
				"z": 0.7376233562,
				"element": "C" 
			},
			{
				"x": -0.3321064622,
				"y": 0.4376895061,
				"z": 0.0233474849,
				"element": "C" 
			},
			{
				"x": 0.3169277512,
				"y": 0.742720525,
				"z": -1.1858568111,
				"element": "C" 
			},
			{
				"x": 1.2546692801,
				"y": -0.1510787482,
				"z": -1.6905298085,
				"element": "C" 
			},
			{
				"x": 1.5475770537,
				"y": -1.3249719452,
				"z": -1.0020185117,
				"element": "C" 
			},
			{
				"x": 0.9022974859,
				"y": -1.634770576,
				"z": 0.2065018951,
				"element": "C" 
			},
			{
				"x": 1.1653827242,
				"y": -2.8422683462,
				"z": 0.8513200663,
				"element": "N" 
			},
			{
				"x": -1.2983501538,
				"y": 1.3721930165,
				"z": 0.5288706088,
				"element": "C" 
			},
			{
				"x": -2.0784399723,
				"y": 2.1368678501,
				"z": 0.9304328261,
				"element": "N" 
			},
			{
				"x": -1.2517803173,
				"y": -2.0700130329,
				"z": 1.9538542298,
				"element": "H" 
			},
			{
				"x": -1.5268832101,
				"y": -0.3498944816,
				"z": 2.2770691103,
				"element": "H" 
			},
			{
				"x": -0.0634473583,
				"y": -1.1351345657,
				"z": 2.8690195947,
				"element": "H" 
			},
			{
				"x": 0.0792841816,
				"y": 1.6633249131,
				"z": -1.7062411945,
				"element": "H" 
			},
			{
				"x": 1.7661280169,
				"y": 0.0671135951,
				"z": -2.6229556169,
				"element": "H" 
			},
			{
				"x": 2.2834046657,
				"y": -2.0190141481,
				"z": -1.4010025122,
				"element": "H" 
			},
			{
				"x": 2.026284987,
				"y": -3.2959721867,
				"z": 0.5798336852,
				"element": "H" 
			},
			{
				"x": 1.027393628,
				"y": -2.8529675473,
				"z": 1.8515842405,
				"element": "H" 
			}
		],
		 "valence_orbital": [ 
			{
				"type": "occ",
				"energy": -0.34863,
				"method": "rhf"
			},
			{
				"type": "occ",
				"energy": -0.3222,
				"method": "rhf"
			},
			{
				"type": "occ",
				"energy": -0.31251,
				"method": "rhf"
			},
			{
				"type": "occ",
				"energy": -0.25389,
				"method": "rhf"
			},
			{
				"type": "occ",
				"energy": -0.21858,
				"method": "rhf"
			},
			{
				"type": "unocc",
				"energy": -0.03933,
				"method": "rhf"
			},
			{
				"type": "unocc",
				"energy": -0.00226,
				"method": "rhf"
			},
			{
				"type": "unocc",
				"energy": 0.0435,
				"method": "rhf"
			},
			{
				"type": "unocc",
				"energy": 0.06694,
				"method": "rhf"
			},
			{
				"type": "unocc",
				"energy": 0.08761,
				"method": "rhf"
			}
		],
		"cosmo_sigma_profile": { 
			"-0.025": 0.0,
			"-0.024": 0.0,
			"-0.023": 0.0,
			"-0.022": 0.0,
			"-0.021": 0.0,
			"-0.02": 0.0,
			"-0.019": 0.0,
			"-0.018": 0.0,
			"-0.017": 0.0,
			"-0.016": 0.0,
			"-0.015": 0.0,
			"-0.014": 0.0,
			"-0.013": 0.839576358081,
			"-0.012": 2.39096840341,
			"-0.011": 2.90399225729,
			"-0.01": 2.99672873593,
			"-0.009": 4.0124820628,
			"-0.008": 3.06670706064,
			"-0.007": 4.9691085162,
			"-0.006": 7.82319125867,
			"-0.005": 9.93040937228,
			"-0.004": 11.35691076,
			"-0.003": 10.0239355843,
			"-0.002": 12.6934636585,
			"-0.001": 15.7149073778,
			"0.0": 13.5794030738,
			"0.001": 10.0481558011,
			"0.002": 8.95398336786,
			"0.003": 11.0909551053,
			"0.004": 12.1027791595,
			"0.005": 6.38042792714,
			"0.006": 2.89982854566,
			"0.007": 3.6738535886,
			"0.008": 3.58188004438,
			"0.009": 3.96708679421,
			"0.01": 4.12803874751,
			"0.011": 2.97535167892,
			"0.012": 3.21571065895,
			"0.013": 2.84872250143,
			"0.014": 0.516395626738,
			"0.015": 0.0,
			"0.016": 0.0,
			"0.017": 0.0,
			"0.018": 0.0,
			"0.019": 0.0,
			"0.02": 0.0,
			"0.021": 0.0,
			"0.022": 0.0,
			"0.023": 0.0,
			"0.024": 0.0,
			"0.025": 0.0
		}
	}
}
