{
	 "smiles": "COC1=CC=C(C=C1)C(=O)C1=CC=C(C)C=C1", 
	 "Tm": 362.15, 
	 "num_atms": 31, 
	 "gaussian": { 
		 "optdone": 1, 
		 "sigma_profile": "yes", 
		 "theory": "DFT", 
		 "functional": "B3LYP", 
		 "basiset": "6-31G**", 
		 "properties": { 
			 "R2extent": 6379.5112, 
			 "electric_dipole_moment_norm": 4.59818758752, 
			 "electric_quadrupole_moment_norm": 18.8205540944, 
			 "total_energy": -730.481871761, 
			 "HOMO_LUMO_gap": 0.17246, 
			 "cosmo_polarized_energy": -11.62, 
			 "cosmo_cavitation_energy": 34.96, 
			 "cosmo_dispersion_energy": -25.33, 
			 "cosmo_repulsion_energy": 1.95, 
			 "cosmo_total_nonelectrostatic_energy": 11.58, 
			 "SMD_solvation_energy": 7.17 
		},
		"coords": [
			{
				"x": -5.4933706998,
				"y": -0.2363032655,
				"z": 2.564587647,
				"element": "C" 
			},
			{
				"x": -5.4781885723,
				"y": 0.2720443694,
				"z": 1.238320037,
				"element": "O" 
			},
			{
				"x": -4.276645325,
				"y": 0.5121275409,
				"z": 0.6487608878,
				"element": "C" 
			},
			{
				"x": -4.3330105805,
				"y": 1.0193030872,
				"z": -0.6621987653,
				"element": "C" 
			},
			{
				"x": -3.1643181001,
				"y": 1.3007791313,
				"z": -1.3463092765,
				"element": "C" 
			},
			{
				"x": -1.9039911355,
				"y": 1.0625879508,
				"z": -0.7628500446,
				"element": "C" 
			},
			{
				"x": -1.8627693013,
				"y": 0.5670593424,
				"z": 0.5468625455,
				"element": "C" 
			},
			{
				"x": -3.0336591082,
				"y": 0.2955388689,
				"z": 1.2570739454,
				"element": "C" 
			},
			{
				"x": -0.6885972175,
				"y": 1.4425480982,
				"z": -1.5448562091,
				"element": "C" 
			},
			{
				"x": -0.7712973735,
				"y": 2.2888721034,
				"z": -2.4317277786,
				"element": "O" 
			},
			{
				"x": 0.6380843048,
				"y": 0.8024247949,
				"z": -1.258810759,
				"element": "C" 
			},
			{
				"x": 0.7791120524,
				"y": -0.5156782509,
				"z": -0.8017888203,
				"element": "C" 
			},
			{
				"x": 2.0462714127,
				"y": -1.0732471074,
				"z": -0.6285082703,
				"element": "C" 
			},
			{
				"x": 3.2051437333,
				"y": -0.3332452968,
				"z": -0.8914935913,
				"element": "C" 
			},
			{
				"x": 4.5768008582,
				"y": -0.9231348041,
				"z": -0.6687571244,
				"element": "C" 
			},
			{
				"x": 3.0574661713,
				"y": 0.9824967655,
				"z": -1.3608153288,
				"element": "C" 
			},
			{
				"x": 1.7984551224,
				"y": 1.5369930451,
				"z": -1.5538355158,
				"element": "C" 
			},
			{
				"x": -6.5450959181,
				"y": -0.3547908919,
				"z": 2.8286548383,
				"element": "H" 
			},
			{
				"x": -5.0201564734,
				"y": 0.4592884159,
				"z": 3.2689405615,
				"element": "H" 
			},
			{
				"x": -4.9923321262,
				"y": -1.2103595293,
				"z": 2.6291327033,
				"element": "H" 
			},
			{
				"x": -5.3074221193,
				"y": 1.1860057048,
				"z": -1.1095947621,
				"element": "H" 
			},
			{
				"x": -3.195419193,
				"y": 1.7130643364,
				"z": -2.3492752939,
				"element": "H" 
			},
			{
				"x": -0.9076226038,
				"y": 0.4140522111,
				"z": 1.0376935079,
				"element": "H" 
			},
			{
				"x": -2.9657580104,
				"y": -0.0732088242,
				"z": 2.2735046287,
				"element": "H" 
			},
			{
				"x": -0.1011642193,
				"y": -1.1206338945,
				"z": -0.6110190331,
				"element": "H" 
			},
			{
				"x": 2.1353725375,
				"y": -2.1022994357,
				"z": -0.2892705594,
				"element": "H" 
			},
			{
				"x": 5.022328956,
				"y": -0.5455519907,
				"z": 0.2601062967,
				"element": "H" 
			},
			{
				"x": 4.5377020683,
				"y": -2.0134975742,
				"z": -0.5948443739,
				"element": "H" 
			},
			{
				"x": 5.2610949182,
				"y": -0.6614948797,
				"z": -1.4823743479,
				"element": "H" 
			},
			{
				"x": 3.9437891879,
				"y": 1.571593927,
				"z": -1.5843206358,
				"element": "H" 
			},
			{
				"x": 1.685696754,
				"y": 2.5442660518,
				"z": -1.941187109,
				"element": "H" 
			}
		],
		 "valence_orbital": [ 
			{
				"type": "occ",
				"energy": -0.25789,
				"method": "rhf"
			},
			{
				"type": "occ",
				"energy": -0.25348,
				"method": "rhf"
			},
			{
				"type": "occ",
				"energy": -0.24812,
				"method": "rhf"
			},
			{
				"type": "occ",
				"energy": -0.23643,
				"method": "rhf"
			},
			{
				"type": "occ",
				"energy": -0.22534,
				"method": "rhf"
			},
			{
				"type": "unocc",
				"energy": -0.05288,
				"method": "rhf"
			},
			{
				"type": "unocc",
				"energy": -0.01084,
				"method": "rhf"
			},
			{
				"type": "unocc",
				"energy": -0.00142,
				"method": "rhf"
			},
			{
				"type": "unocc",
				"energy": 0.00041,
				"method": "rhf"
			},
			{
				"type": "unocc",
				"energy": 0.06549,
				"method": "rhf"
			}
		],
		"cosmo_sigma_profile": { 
			"-0.025": 0.0,
			"-0.024": 0.0,
			"-0.023": 0.0,
			"-0.022": 0.0,
			"-0.021": 0.0,
			"-0.02": 0.0,
			"-0.019": 0.0,
			"-0.018": 0.0,
			"-0.017": 0.0,
			"-0.016": 0.0,
			"-0.015": 0.0,
			"-0.014": 0.0,
			"-0.013": 0.0,
			"-0.012": 0.0,
			"-0.011": 0.0,
			"-0.01": 0.0,
			"-0.009": 0.0,
			"-0.008": 0.0,
			"-0.007": 2.18593098366,
			"-0.006": 13.8935371907,
			"-0.005": 25.5883511501,
			"-0.004": 30.3369329784,
			"-0.003": 25.825903102,
			"-0.002": 23.3621603858,
			"-0.001": 22.2000823826,
			"0.0": 22.5135222782,
			"0.001": 16.6810791099,
			"0.002": 16.8186102918,
			"0.003": 20.6701995943,
			"0.004": 23.8731048808,
			"0.005": 10.6752929617,
			"0.006": 3.5583054125,
			"0.007": 2.08024534842,
			"0.008": 3.40684133294,
			"0.009": 3.00702643536,
			"0.01": 3.43542036064,
			"0.011": 1.8409972573,
			"0.012": 3.78909044796,
			"0.013": 3.10703702739,
			"0.014": 0.0638900504559,
			"0.015": 0.0,
			"0.016": 0.0,
			"0.017": 0.0,
			"0.018": 0.0,
			"0.019": 0.0,
			"0.02": 0.0,
			"0.021": 0.0,
			"0.022": 0.0,
			"0.023": 0.0,
			"0.024": 0.0,
			"0.025": 0.0
		}
	}
}
