{
	 "smiles": "ClC1=CC2=C(C=C1)N(CC(=O)NCC#C)C(=O)C2=O", 
	 "Tm": 541.15, 
	 "num_atms": 28, 
	 "gaussian": { 
		 "optdone": 1, 
		 "sigma_profile": "yes", 
		 "theory": "DFT", 
		 "functional": "B3LYP", 
		 "basiset": "6-31G**", 
		 "properties": { 
			 "R2extent": 8232.1826, 
			 "electric_dipole_moment_norm": 3.43810148192, 
			 "electric_quadrupole_moment_norm": 14.802516964, 
			 "total_energy": -1296.10620448, 
			 "HOMO_LUMO_gap": 0.12848, 
			 "cosmo_polarized_energy": -18.21, 
			 "cosmo_cavitation_energy": 36.4, 
			 "cosmo_dispersion_energy": -25.0, 
			 "cosmo_repulsion_energy": 1.9, 
			 "cosmo_total_nonelectrostatic_energy": 13.3, 
			 "SMD_solvation_energy": 8.38 
		},
		"coords": [
			{
				"x": 3.5066703066,
				"y": -5.1982808711,
				"z": -2.863521884,
				"element": "Cl" 
			},
			{
				"x": 2.6454531953,
				"y": -3.8032237909,
				"z": -2.2354410833,
				"element": "C" 
			},
			{
				"x": 3.1432730722,
				"y": -2.5220667269,
				"z": -2.4763409684,
				"element": "C" 
			},
			{
				"x": 2.4304854992,
				"y": -1.447005958,
				"z": -1.9559761223,
				"element": "C" 
			},
			{
				"x": 1.249400564,
				"y": -1.6400267123,
				"z": -1.2149222917,
				"element": "C" 
			},
			{
				"x": 0.7412421411,
				"y": -2.9141883733,
				"z": -0.9936534055,
				"element": "C" 
			},
			{
				"x": 1.4632401573,
				"y": -3.9971335083,
				"z": -1.5119598313,
				"element": "C" 
			},
			{
				"x": 0.7239879497,
				"y": -0.3997668384,
				"z": -0.7868153248,
				"element": "N" 
			},
			{
				"x": -0.4032385993,
				"y": -0.2219782943,
				"z": 0.117843951,
				"element": "C" 
			},
			{
				"x": -1.7508736616,
				"y": -0.491691322,
				"z": -0.5734038582,
				"element": "C" 
			},
			{
				"x": -2.2018454451,
				"y": -1.6310588417,
				"z": -0.6188636899,
				"element": "O" 
			},
			{
				"x": -2.3849493426,
				"y": 0.55909814,
				"z": -1.1709319478,
				"element": "N" 
			},
			{
				"x": -2.0896059773,
				"y": 1.9877970659,
				"z": -1.023109536,
				"element": "C" 
			},
			{
				"x": -2.6278127169,
				"y": 2.5766900782,
				"z": 0.2102926324,
				"element": "C" 
			},
			{
				"x": -3.0614059331,
				"y": 3.0494967675,
				"z": 1.2331363862,
				"element": "C" 
			},
			{
				"x": 1.4964387431,
				"y": 0.6522124722,
				"z": -1.2470715364,
				"element": "C" 
			},
			{
				"x": 1.2912478511,
				"y": 1.8353924017,
				"z": -1.0574117601,
				"element": "O" 
			},
			{
				"x": 2.6764307576,
				"y": 0.0010785917,
				"z": -2.0446308922,
				"element": "C" 
			},
			{
				"x": 3.5603118394,
				"y": 0.6221899678,
				"z": -2.5905258221,
				"element": "O" 
			},
			{
				"x": 4.0518800303,
				"y": -2.3613010382,
				"z": -3.0460024026,
				"element": "H" 
			},
			{
				"x": -0.201799236,
				"y": -3.0635806425,
				"z": -0.4804141595,
				"element": "H" 
			},
			{
				"x": 1.0955248487,
				"y": -5.0061398486,
				"z": -1.3602288439,
				"element": "H" 
			},
			{
				"x": -0.3247446424,
				"y": 0.7860846251,
				"z": 0.5284504363,
				"element": "H" 
			},
			{
				"x": -0.3267315335,
				"y": -0.9439701622,
				"z": 0.9350258362,
				"element": "H" 
			},
			{
				"x": -3.2946669853,
				"y": 0.3105357106,
				"z": -1.5402433247,
				"element": "H" 
			},
			{
				"x": -1.0072462474,
				"y": 2.1470818788,
				"z": -1.0737059422,
				"element": "H" 
			},
			{
				"x": -2.5129409236,
				"y": 2.4989988308,
				"z": -1.8944112871,
				"element": "H" 
			},
			{
				"x": -3.4475257114,
				"y": 3.4690563982,
				"z": 2.1335366718,
				"element": "H" 
			}
		],
		 "valence_orbital": [ 
			{
				"type": "occ",
				"energy": -0.28402,
				"method": "rhf"
			},
			{
				"type": "occ",
				"energy": -0.27479,
				"method": "rhf"
			},
			{
				"type": "occ",
				"energy": -0.27396,
				"method": "rhf"
			},
			{
				"type": "occ",
				"energy": -0.2598,
				"method": "rhf"
			},
			{
				"type": "occ",
				"energy": -0.2374,
				"method": "rhf"
			},
			{
				"type": "unocc",
				"energy": -0.10892,
				"method": "rhf"
			},
			{
				"type": "unocc",
				"energy": -0.03245,
				"method": "rhf"
			},
			{
				"type": "unocc",
				"energy": -0.01414,
				"method": "rhf"
			},
			{
				"type": "unocc",
				"energy": -0.00156,
				"method": "rhf"
			},
			{
				"type": "unocc",
				"energy": 0.01867,
				"method": "rhf"
			}
		],
		"cosmo_sigma_profile": { 
			"-0.025": 0.0,
			"-0.024": 0.0,
			"-0.023": 0.0,
			"-0.022": 0.0,
			"-0.021": 0.0,
			"-0.02": 0.0,
			"-0.019": 0.0,
			"-0.018": 0.0,
			"-0.017": 0.0,
			"-0.016": 0.0,
			"-0.015": 0.340857175326,
			"-0.014": 1.45282818783,
			"-0.013": 1.33004523266,
			"-0.012": 1.78970420088,
			"-0.011": 2.4525518137,
			"-0.01": 2.28370006626,
			"-0.009": 4.85301166286,
			"-0.008": 11.6747501527,
			"-0.007": 12.8429737988,
			"-0.006": 15.3700048163,
			"-0.005": 17.3106170845,
			"-0.004": 16.3771700039,
			"-0.003": 14.9898330985,
			"-0.002": 17.4348708366,
			"-0.001": 18.2407248721,
			"0.0": 25.7422348045,
			"0.001": 21.2915651856,
			"0.002": 14.7249659462,
			"0.003": 14.9316369091,
			"0.004": 19.2204365038,
			"0.005": 11.4432897391,
			"0.006": 10.8342725427,
			"0.007": 4.67484926552,
			"0.008": 5.58241040051,
			"0.009": 7.62410129707,
			"0.01": 8.70184349308,
			"0.011": 5.45206112149,
			"0.012": 4.20310886857,
			"0.013": 2.719658338,
			"0.014": 0.556490944891,
			"0.015": 0.0,
			"0.016": 0.0,
			"0.017": 0.0,
			"0.018": 0.0,
			"0.019": 0.0,
			"0.02": 0.0,
			"0.021": 0.0,
			"0.022": 0.0,
			"0.023": 0.0,
			"0.024": 0.0,
			"0.025": 0.0
		}
	}
}
