{
	 "smiles": "OC(=O)CSCCS(=O)(=O)C1=CC=C(Cl)C=C1", 
	 "Tm": 401.15, 
	 "num_atms": 28, 
	 "gaussian": { 
		 "optdone": 1, 
		 "sigma_profile": "yes", 
		 "theory": "DFT", 
		 "functional": "B3LYP", 
		 "basiset": "6-31G**", 
		 "properties": { 
			 "R2extent": 6868.4268, 
			 "electric_dipole_moment_norm": 2.1740988869, 
			 "electric_quadrupole_moment_norm": 29.602213588, 
			 "total_energy": -1945.09885125, 
			 "HOMO_LUMO_gap": 0.20684, 
			 "cosmo_polarized_energy": -24.09, 
			 "cosmo_cavitation_energy": 37.58, 
			 "cosmo_dispersion_energy": -26.16, 
			 "cosmo_repulsion_energy": 1.99, 
			 "cosmo_total_nonelectrostatic_energy": 13.41, 
			 "SMD_solvation_energy": 5.94 
		},
		"coords": [
			{
				"x": 0.5026448233,
				"y": 2.6536280796,
				"z": 3.0633334831,
				"element": "O" 
			},
			{
				"x": 1.4558318118,
				"y": 2.2113816286,
				"z": 2.2211687674,
				"element": "C" 
			},
			{
				"x": 1.8548873949,
				"y": 2.8765656052,
				"z": 1.2985587549,
				"element": "O" 
			},
			{
				"x": 2.0382009059,
				"y": 0.8223611436,
				"z": 2.5208506517,
				"element": "C" 
			},
			{
				"x": 0.9349763781,
				"y": -0.3326203787,
				"z": 3.4172392088,
				"element": "S" 
			},
			{
				"x": -0.3805486162,
				"y": -0.6239643538,
				"z": 2.1639070324,
				"element": "C" 
			},
			{
				"x": 0.0785551583,
				"y": -1.4981876879,
				"z": 1.0035214918,
				"element": "C" 
			},
			{
				"x": -1.2853965283,
				"y": -1.9499864812,
				"z": -0.1314371595,
				"element": "S" 
			},
			{
				"x": -0.7124495773,
				"y": -2.8796035168,
				"z": -1.1159920533,
				"element": "O" 
			},
			{
				"x": -2.440330995,
				"y": -2.3211222724,
				"z": 0.703620077,
				"element": "O" 
			},
			{
				"x": -1.6952437903,
				"y": -0.4213360485,
				"z": -0.9858292857,
				"element": "C" 
			},
			{
				"x": -2.7586106069,
				"y": 0.3575779204,
				"z": -0.5251973133,
				"element": "C" 
			},
			{
				"x": -3.0790331131,
				"y": 1.5401865814,
				"z": -1.1902025219,
				"element": "C" 
			},
			{
				"x": -2.3291705563,
				"y": 1.9183289625,
				"z": -2.3056513117,
				"element": "C" 
			},
			{
				"x": -2.7295344791,
				"y": 3.4024785184,
				"z": -3.1420533257,
				"element": "Cl" 
			},
			{
				"x": -1.272891973,
				"y": 1.1339947801,
				"z": -2.7762054053,
				"element": "C" 
			},
			{
				"x": -0.9566177197,
				"y": -0.0485224666,
				"z": -2.1115541998,
				"element": "C" 
			},
			{
				"x": 0.3101962792,
				"y": 1.9522317023,
				"z": 3.7151379275,
				"element": "H" 
			},
			{
				"x": 2.4046413488,
				"y": 0.3988837721,
				"z": 1.5844816339,
				"element": "H" 
			},
			{
				"x": 2.9058780254,
				"y": 0.9514078342,
				"z": 3.1774603943,
				"element": "H" 
			},
			{
				"x": -1.1837785643,
				"y": -1.1260109164,
				"z": 2.7086661814,
				"element": "H" 
			},
			{
				"x": -0.7625671297,
				"y": 0.3409554599,
				"z": 1.8178431416,
				"element": "H" 
			},
			{
				"x": 0.4517775597,
				"y": -2.4657072908,
				"z": 1.3517740593,
				"element": "H" 
			},
			{
				"x": 0.8497785572,
				"y": -1.0300946001,
				"z": 0.3866247892,
				"element": "H" 
			},
			{
				"x": -3.3395662465,
				"y": 0.0260399605,
				"z": 0.3286307196,
				"element": "H" 
			},
			{
				"x": -3.9028030182,
				"y": 2.1593801356,
				"z": -0.8538809359,
				"element": "H" 
			},
			{
				"x": -0.71527594,
				"y": 1.4433397907,
				"z": -3.6527882823,
				"element": "H" 
			},
			{
				"x": -0.1597493886,
				"y": -0.688485862,
				"z": -2.4756265194,
				"element": "H" 
			}
		],
		 "valence_orbital": [ 
			{
				"type": "occ",
				"energy": -0.30541,
				"method": "rhf"
			},
			{
				"type": "occ",
				"energy": -0.29094,
				"method": "rhf"
			},
			{
				"type": "occ",
				"energy": -0.29076,
				"method": "rhf"
			},
			{
				"type": "occ",
				"energy": -0.27511,
				"method": "rhf"
			},
			{
				"type": "occ",
				"energy": -0.2647,
				"method": "rhf"
			},
			{
				"type": "unocc",
				"energy": -0.05786,
				"method": "rhf"
			},
			{
				"type": "unocc",
				"energy": -0.04183,
				"method": "rhf"
			},
			{
				"type": "unocc",
				"energy": -0.01522,
				"method": "rhf"
			},
			{
				"type": "unocc",
				"energy": -0.00137,
				"method": "rhf"
			},
			{
				"type": "unocc",
				"energy": 0.0119,
				"method": "rhf"
			}
		],
		"cosmo_sigma_profile": { 
			"-0.025": 0.0,
			"-0.024": 0.0,
			"-0.023": 0.0,
			"-0.022": 0.0,
			"-0.021": 0.0,
			"-0.02": 0.0,
			"-0.019": 0.0,
			"-0.018": 0.0,
			"-0.017": 0.0,
			"-0.016": 0.0,
			"-0.015": 0.0,
			"-0.014": 0.195929638915,
			"-0.013": 0.667304529356,
			"-0.012": 1.10907475118,
			"-0.011": 1.29394524475,
			"-0.01": 5.4034378237,
			"-0.009": 10.1388761021,
			"-0.008": 16.4750723461,
			"-0.007": 18.8419901022,
			"-0.006": 18.3430126199,
			"-0.005": 16.9136222286,
			"-0.004": 13.6726732194,
			"-0.003": 12.3603899044,
			"-0.002": 16.2044322906,
			"-0.001": 14.8354187821,
			"0.0": 21.294684987,
			"0.001": 24.1296354716,
			"0.002": 13.5361791011,
			"0.003": 15.8570076663,
			"0.004": 15.8332022019,
			"0.005": 6.12169695568,
			"0.006": 5.2537897324,
			"0.007": 5.25260011973,
			"0.008": 7.03386791231,
			"0.009": 7.01400478583,
			"0.01": 11.4323469435,
			"0.011": 13.2539897106,
			"0.012": 10.158225299,
			"0.013": 1.05516591287,
			"0.014": 0.0,
			"0.015": 0.0,
			"0.016": 0.0,
			"0.017": 0.0,
			"0.018": 0.0,
			"0.019": 0.0,
			"0.02": 0.0,
			"0.021": 0.0,
			"0.022": 0.0,
			"0.023": 0.0,
			"0.024": 0.0,
			"0.025": 0.0
		}
	}
}
