{
	 "smiles": "OC1=CC(=NC2=C1C=CC=C2Cl)C(F)(F)F", 
	 "Tm": 412.15, 
	 "num_atms": 21, 
	 "gaussian": { 
		 "optdone": 1, 
		 "sigma_profile": "yes", 
		 "theory": "DFT", 
		 "functional": "B3LYP", 
		 "basiset": "6-31G**", 
		 "properties": { 
			 "R2extent": 4405.8392, 
			 "electric_dipole_moment_norm": 5.27812157022, 
			 "electric_quadrupole_moment_norm": 12.6824269878, 
			 "total_energy": -1273.7737624, 
			 "HOMO_LUMO_gap": 0.1674, 
			 "cosmo_polarized_energy": -13.71, 
			 "cosmo_cavitation_energy": 29.12, 
			 "cosmo_dispersion_energy": -21.06, 
			 "cosmo_repulsion_energy": 1.57, 
			 "cosmo_total_nonelectrostatic_energy": 9.63, 
			 "SMD_solvation_energy": 5.05 
		},
		"coords": [
			{
				"x": 1.8170488806,
				"y": 1.3435523113,
				"z": -2.1190564301,
				"element": "O" 
			},
			{
				"x": 0.7947199145,
				"y": 1.1931191777,
				"z": -1.2444921418,
				"element": "C" 
			},
			{
				"x": 0.1873481733,
				"y": 2.2495953093,
				"z": -0.5949128664,
				"element": "C" 
			},
			{
				"x": -0.8683176031,
				"y": 1.957004559,
				"z": 0.2927242268,
				"element": "C" 
			},
			{
				"x": -1.3255766885,
				"y": 0.7527405548,
				"z": 0.5550365271,
				"element": "N" 
			},
			{
				"x": -0.7373475677,
				"y": -0.2943337593,
				"z": -0.0768551614,
				"element": "C" 
			},
			{
				"x": 0.3446911064,
				"y": -0.1384721409,
				"z": -1.0030571879,
				"element": "C" 
			},
			{
				"x": 0.9250856815,
				"y": -1.263877533,
				"z": -1.637067278,
				"element": "C" 
			},
			{
				"x": 0.4451393308,
				"y": -2.5241793664,
				"z": -1.3614597169,
				"element": "C" 
			},
			{
				"x": -0.6211582234,
				"y": -2.7073084212,
				"z": -0.4520397359,
				"element": "C" 
			},
			{
				"x": -1.1978301235,
				"y": -1.6237839889,
				"z": 0.1739944361,
				"element": "C" 
			},
			{
				"x": -2.5128903186,
				"y": -1.8772405147,
				"z": 1.2924944119,
				"element": "Cl" 
			},
			{
				"x": -1.5701824638,
				"y": 3.0841880828,
				"z": 1.0332403864,
				"element": "C" 
			},
			{
				"x": -1.0422114927,
				"y": 4.2894915818,
				"z": 0.7059515078,
				"element": "F" 
			},
			{
				"x": -1.4546141672,
				"y": 2.9418101134,
				"z": 2.3648624616,
				"element": "F" 
			},
			{
				"x": -2.8804835655,
				"y": 3.1240792945,
				"z": 0.7362258515,
				"element": "F" 
			},
			{
				"x": 2.0367893965,
				"y": 2.2812804367,
				"z": -2.2042740624,
				"element": "H" 
			},
			{
				"x": 0.5033561207,
				"y": 3.2743866904,
				"z": -0.7543373417,
				"element": "H" 
			},
			{
				"x": 1.7422376321,
				"y": -1.1139495244,
				"z": -2.3328540889,
				"element": "H" 
			},
			{
				"x": 0.8831049979,
				"y": -3.3933300654,
				"z": -1.8421927131,
				"element": "H" 
			},
			{
				"x": -0.9929090202,
				"y": -3.7038727977,
				"z": -0.2408310848,
				"element": "H" 
			}
		],
		 "valence_orbital": [ 
			{
				"type": "occ",
				"energy": -0.31059,
				"method": "rhf"
			},
			{
				"type": "occ",
				"energy": -0.284,
				"method": "rhf"
			},
			{
				"type": "occ",
				"energy": -0.27482,
				"method": "rhf"
			},
			{
				"type": "occ",
				"energy": -0.27335,
				"method": "rhf"
			},
			{
				"type": "occ",
				"energy": -0.23559,
				"method": "rhf"
			},
			{
				"type": "unocc",
				"energy": -0.06819,
				"method": "rhf"
			},
			{
				"type": "unocc",
				"energy": -0.03996,
				"method": "rhf"
			},
			{
				"type": "unocc",
				"energy": 0.00899,
				"method": "rhf"
			},
			{
				"type": "unocc",
				"energy": 0.03119,
				"method": "rhf"
			},
			{
				"type": "unocc",
				"energy": 0.04676,
				"method": "rhf"
			}
		],
		"cosmo_sigma_profile": { 
			"-0.025": 0.0,
			"-0.024": 0.0,
			"-0.023": 0.0,
			"-0.022": 0.0,
			"-0.021": 0.0,
			"-0.02": 0.18051305825,
			"-0.019": 1.14607693609,
			"-0.018": 1.3168281786,
			"-0.017": 1.41119599974,
			"-0.016": 1.05163426358,
			"-0.015": 1.23971970192,
			"-0.014": 0.974083702023,
			"-0.013": 0.464334997207,
			"-0.012": 1.07080342745,
			"-0.011": 1.53409726032,
			"-0.01": 0.979335922273,
			"-0.009": 0.981626234622,
			"-0.008": 3.06500058714,
			"-0.007": 5.73926288549,
			"-0.006": 8.01984489298,
			"-0.005": 7.09247290002,
			"-0.004": 7.20700840942,
			"-0.003": 8.86109859175,
			"-0.002": 12.0929845426,
			"-0.001": 19.0385558128,
			"0.0": 23.2439905071,
			"0.001": 24.9967812353,
			"0.002": 35.7228074078,
			"0.003": 31.9779021804,
			"0.004": 12.4788029614,
			"0.005": 8.25155172235,
			"0.006": 4.08789002784,
			"0.007": 4.64789922631,
			"0.008": 2.32102308994,
			"0.009": 1.28718943936,
			"0.01": 1.94289971978,
			"0.011": 0.996589113281,
			"0.012": 0.824385682771,
			"0.013": 0.808343494865,
			"0.014": 0.081284653275,
			"0.015": 0.0,
			"0.016": 0.0,
			"0.017": 0.0,
			"0.018": 0.0,
			"0.019": 0.0,
			"0.02": 0.0,
			"0.021": 0.0,
			"0.022": 0.0,
			"0.023": 0.0,
			"0.024": 0.0,
			"0.025": 0.0
		}
	}
}
