{
	 "smiles": "ClCC1=NC2=C(C3=C(CCC3)S2)C(=O)N1", 
	 "Tm": 507.15, 
	 "num_atms": 24, 
	 "gaussian": { 
		 "optdone": 1, 
		 "sigma_profile": "yes", 
		 "theory": "DFT", 
		 "functional": "B3LYP", 
		 "basiset": "6-31G**", 
		 "properties": { 
			 "R2extent": 6243.8062, 
			 "electric_dipole_moment_norm": 1.98162496452, 
			 "electric_quadrupole_moment_norm": 13.6487477554, 
			 "total_energy": -1429.61933841, 
			 "HOMO_LUMO_gap": 0.15755, 
			 "cosmo_polarized_energy": -12.33, 
			 "cosmo_cavitation_energy": 30.86, 
			 "cosmo_dispersion_energy": -23.68, 
			 "cosmo_repulsion_energy": 1.83, 
			 "cosmo_total_nonelectrostatic_energy": 9.01, 
			 "SMD_solvation_energy": 2.73 
		},
		"coords": [
			{
				"x": -1.8562319077,
				"y": 0.9980405553,
				"z": 5.9488850473,
				"element": "Cl" 
			},
			{
				"x": -2.5081745171,
				"y": 0.0574777691,
				"z": 4.5354772677,
				"element": "C" 
			},
			{
				"x": -1.8309441991,
				"y": 0.4030422085,
				"z": 3.238070063,
				"element": "C" 
			},
			{
				"x": -2.5796053148,
				"y": 0.5895681509,
				"z": 2.1874951609,
				"element": "N" 
			},
			{
				"x": -1.8985490106,
				"y": 0.8153156303,
				"z": 1.0291810401,
				"element": "C" 
			},
			{
				"x": -0.5106373846,
				"y": 0.8686300751,
				"z": 0.879319156,
				"element": "C" 
			},
			{
				"x": -0.1228339837,
				"y": 1.1164469744,
				"z": -0.4700400146,
				"element": "C" 
			},
			{
				"x": -1.1920347812,
				"y": 1.2441473095,
				"z": -1.3091679731,
				"element": "C" 
			},
			{
				"x": -0.8058223022,
				"y": 1.5634584892,
				"z": -2.7261658956,
				"element": "C" 
			},
			{
				"x": 0.7275879001,
				"y": 1.2665382486,
				"z": -2.6972970609,
				"element": "C" 
			},
			{
				"x": 1.1756472542,
				"y": 1.3252532235,
				"z": -1.2044816,
				"element": "C" 
			},
			{
				"x": -2.727247054,
				"y": 1.0773391614,
				"z": -0.4981687163,
				"element": "S" 
			},
			{
				"x": 0.322364511,
				"y": 0.6757427832,
				"z": 2.0512328794,
				"element": "C" 
			},
			{
				"x": 1.542597134,
				"y": 0.6996080942,
				"z": 2.1213371425,
				"element": "O" 
			},
			{
				"x": -0.4635819779,
				"y": 0.435734206,
				"z": 3.2066443994,
				"element": "N" 
			},
			{
				"x": -2.3660609077,
				"y": -0.9959990821,
				"z": 4.7881066384,
				"element": "H" 
			},
			{
				"x": -3.5694670221,
				"y": 0.2763918206,
				"z": 4.4417223031,
				"element": "H" 
			},
			{
				"x": -1.3308857913,
				"y": 0.9599563734,
				"z": -3.4744236668,
				"element": "H" 
			},
			{
				"x": -1.0135890148,
				"y": 2.6161207149,
				"z": -2.962884177,
				"element": "H" 
			},
			{
				"x": 0.8984452421,
				"y": 0.2566500462,
				"z": -3.0832125688,
				"element": "H" 
			},
			{
				"x": 1.2908590385,
				"y": 1.9567595452,
				"z": -3.3308225284,
				"element": "H" 
			},
			{
				"x": 1.9318340251,
				"y": 0.5737231694,
				"z": -0.960409024,
				"element": "H" 
			},
			{
				"x": 1.6108467527,
				"y": 2.2993404544,
				"z": -0.9460617668,
				"element": "H" 
			},
			{
				"x": 0.0595833112,
				"y": 0.3421140787,
				"z": 4.0706638944,
				"element": "H" 
			}
		],
		 "valence_orbital": [ 
			{
				"type": "occ",
				"energy": -0.2954,
				"method": "rhf"
			},
			{
				"type": "occ",
				"energy": -0.29194,
				"method": "rhf"
			},
			{
				"type": "occ",
				"energy": -0.26577,
				"method": "rhf"
			},
			{
				"type": "occ",
				"energy": -0.25913,
				"method": "rhf"
			},
			{
				"type": "occ",
				"energy": -0.21638,
				"method": "rhf"
			},
			{
				"type": "unocc",
				"energy": -0.05883,
				"method": "rhf"
			},
			{
				"type": "unocc",
				"energy": -0.01243,
				"method": "rhf"
			},
			{
				"type": "unocc",
				"energy": 0.0076,
				"method": "rhf"
			},
			{
				"type": "unocc",
				"energy": 0.01805,
				"method": "rhf"
			},
			{
				"type": "unocc",
				"energy": 0.0328,
				"method": "rhf"
			}
		],
		"cosmo_sigma_profile": { 
			"-0.025": 0.0,
			"-0.024": 0.0,
			"-0.023": 0.0,
			"-0.022": 0.0,
			"-0.021": 0.0,
			"-0.02": 0.0,
			"-0.019": 0.0,
			"-0.018": 0.0,
			"-0.017": 0.0,
			"-0.016": 0.0,
			"-0.015": 0.426613510311,
			"-0.014": 0.5581127142,
			"-0.013": 1.14600674821,
			"-0.012": 1.6987805022,
			"-0.011": 0.516492869704,
			"-0.01": 3.05136593863,
			"-0.009": 4.7167376609,
			"-0.008": 3.7539877077,
			"-0.007": 4.81325406376,
			"-0.006": 4.55077055772,
			"-0.005": 5.65995298165,
			"-0.004": 17.7401284495,
			"-0.003": 24.2783406821,
			"-0.002": 27.3043361909,
			"-0.001": 22.8256269712,
			"0.0": 22.2279635885,
			"0.001": 22.4394633022,
			"0.002": 18.8961054334,
			"0.003": 15.67394478,
			"0.004": 11.1890325131,
			"0.005": 10.5644433065,
			"0.006": 4.19403332306,
			"0.007": 2.46970314886,
			"0.008": 2.36180926606,
			"0.009": 1.92757091599,
			"0.01": 2.87385204689,
			"0.011": 2.77978059275,
			"0.012": 3.90208611113,
			"0.013": 5.37010390883,
			"0.014": 0.475980409016,
			"0.015": 0.0,
			"0.016": 0.0,
			"0.017": 0.0,
			"0.018": 0.0,
			"0.019": 0.0,
			"0.02": 0.0,
			"0.021": 0.0,
			"0.022": 0.0,
			"0.023": 0.0,
			"0.024": 0.0,
			"0.025": 0.0
		}
	}
}
