{
	 "smiles": "CCOC1=CC=C(C=C1)C1=NN=C2SC(NN12)C=CC1=CC=CC=C1", 
	 "Tm": 500.15, 
	 "num_atms": 43, 
	 "gaussian": { 
		 "optdone": 1, 
		 "sigma_profile": "yes", 
		 "theory": "DFT", 
		 "functional": "B3LYP", 
		 "basiset": "6-31G**", 
		 "properties": { 
			 "R2extent": 16682.5957, 
			 "electric_dipole_moment_norm": 8.96524321812, 
			 "electric_quadrupole_moment_norm": 33.6841710483, 
			 "total_energy": -1427.20433217, 
			 "HOMO_LUMO_gap": 0.1364, 
			 "cosmo_polarized_energy": -23.81, 
			 "cosmo_cavitation_energy": 49.47, 
			 "cosmo_dispersion_energy": -36.14, 
			 "cosmo_repulsion_energy": 2.68, 
			 "cosmo_total_nonelectrostatic_energy": 16.01, 
			 "SMD_solvation_energy": 5.44 
		},
		"coords": [
			{
				"x": -2.2285343948,
				"y": -6.0925543741,
				"z": 3.9110045463,
				"element": "C" 
			},
			{
				"x": -1.7583771617,
				"y": -4.8840146283,
				"z": 3.1206592216,
				"element": "C" 
			},
			{
				"x": -0.6262516128,
				"y": -5.2877768064,
				"z": 2.3504811374,
				"element": "O" 
			},
			{
				"x": -0.0143230502,
				"y": -4.3721258991,
				"z": 1.5498155565,
				"element": "C" 
			},
			{
				"x": -0.4146037348,
				"y": -3.0379593411,
				"z": 1.4101971427,
				"element": "C" 
			},
			{
				"x": 0.288841429,
				"y": -2.1868269406,
				"z": 0.5551571113,
				"element": "C" 
			},
			{
				"x": 1.3947510118,
				"y": -2.6459199267,
				"z": -0.1712444038,
				"element": "C" 
			},
			{
				"x": 1.7888980438,
				"y": -3.9911473875,
				"z": -0.0195851294,
				"element": "C" 
			},
			{
				"x": 1.0968634269,
				"y": -4.8396016795,
				"z": 0.8262789695,
				"element": "C" 
			},
			{
				"x": 2.1684268521,
				"y": -1.7911680596,
				"z": -1.0710766416,
				"element": "C" 
			},
			{
				"x": 3.2972609368,
				"y": -2.1358609512,
				"z": -1.6693205947,
				"element": "N" 
			},
			{
				"x": 3.7608948577,
				"y": -1.0735643995,
				"z": -2.4363701349,
				"element": "N" 
			},
			{
				"x": 2.8836612322,
				"y": -0.1165854878,
				"z": -2.2972596826,
				"element": "C" 
			},
			{
				"x": 2.6727060937,
				"y": 1.5343855404,
				"z": -2.8713876998,
				"element": "S" 
			},
			{
				"x": 1.3723330021,
				"y": 1.7339835599,
				"z": -1.4592133907,
				"element": "C" 
			},
			{
				"x": 0.8077138208,
				"y": 0.3997345572,
				"z": -1.2340455708,
				"element": "N" 
			},
			{
				"x": 1.8691710257,
				"y": -0.4996941015,
				"z": -1.454268815,
				"element": "N" 
			},
			{
				"x": 0.3398367281,
				"y": 2.7460386024,
				"z": -1.8030887304,
				"element": "C" 
			},
			{
				"x": 0.2131470565,
				"y": 3.9078946285,
				"z": -1.1411946492,
				"element": "C" 
			},
			{
				"x": -0.7420572609,
				"y": 4.9899821951,
				"z": -1.4064930163,
				"element": "C" 
			},
			{
				"x": -0.7996310626,
				"y": 6.0711466078,
				"z": -0.5093306139,
				"element": "C" 
			},
			{
				"x": -1.6940229352,
				"y": 7.1219494534,
				"z": -0.7053603756,
				"element": "C" 
			},
			{
				"x": -2.5480414471,
				"y": 7.1139708106,
				"z": -1.8086129705,
				"element": "C" 
			},
			{
				"x": -2.4984401638,
				"y": 6.0492741668,
				"z": -2.714274575,
				"element": "C" 
			},
			{
				"x": -1.6060313692,
				"y": 5.0003083742,
				"z": -2.5180161071,
				"element": "C" 
			},
			{
				"x": -2.5080686878,
				"y": -6.9079312772,
				"z": 3.2380999105,
				"element": "H" 
			},
			{
				"x": -1.436948243,
				"y": -6.4502600915,
				"z": 4.5752037394,
				"element": "H" 
			},
			{
				"x": -3.09965589,
				"y": -5.8289234722,
				"z": 4.5185978231,
				"element": "H" 
			},
			{
				"x": -2.5523790562,
				"y": -4.518337527,
				"z": 2.454126507,
				"element": "H" 
			},
			{
				"x": -1.4783295332,
				"y": -4.0605383824,
				"z": 3.7927456869,
				"element": "H" 
			},
			{
				"x": -1.2640122934,
				"y": -2.64956582,
				"z": 1.9590409595,
				"element": "H" 
			},
			{
				"x": -0.0254834659,
				"y": -1.1525605983,
				"z": 0.4647377837,
				"element": "H" 
			},
			{
				"x": 2.6477240838,
				"y": -4.3474192857,
				"z": -0.5777380422,
				"element": "H" 
			},
			{
				"x": 1.3932801324,
				"y": -5.8762907333,
				"z": 0.947722417,
				"element": "H" 
			},
			{
				"x": 1.9498342437,
				"y": 2.0175867564,
				"z": -0.5769797527,
				"element": "H" 
			},
			{
				"x": 0.0986073354,
				"y": 0.2121711372,
				"z": -1.9486098045,
				"element": "H" 
			},
			{
				"x": -0.2997564884,
				"y": 2.5055268035,
				"z": -2.6504791147,
				"element": "H" 
			},
			{
				"x": 0.8844044393,
				"y": 4.0871856491,
				"z": -0.3012455467,
				"element": "H" 
			},
			{
				"x": -0.1356124143,
				"y": 6.0813221241,
				"z": 0.3513081843,
				"element": "H" 
			},
			{
				"x": -1.7222485885,
				"y": 7.9460144522,
				"z": 0.0013876112,
				"element": "H" 
			},
			{
				"x": -3.2446607367,
				"y": 7.9319011429,
				"z": -1.9666929268,
				"element": "H" 
			},
			{
				"x": -3.1554885461,
				"y": 6.0411031009,
				"z": -3.5790484191,
				"element": "H" 
			},
			{
				"x": -1.5736976156,
				"y": 4.189647508,
				"z": -3.2394276,
				"element": "H" 
			}
		],
		 "valence_orbital": [ 
			{
				"type": "occ",
				"energy": -0.25347,
				"method": "rhf"
			},
			{
				"type": "occ",
				"energy": -0.24552,
				"method": "rhf"
			},
			{
				"type": "occ",
				"energy": -0.24413,
				"method": "rhf"
			},
			{
				"type": "occ",
				"energy": -0.24014,
				"method": "rhf"
			},
			{
				"type": "occ",
				"energy": -0.20092,
				"method": "rhf"
			},
			{
				"type": "unocc",
				"energy": -0.06452,
				"method": "rhf"
			},
			{
				"type": "unocc",
				"energy": -0.02335,
				"method": "rhf"
			},
			{
				"type": "unocc",
				"energy": -0.0174,
				"method": "rhf"
			},
			{
				"type": "unocc",
				"energy": -0.00713,
				"method": "rhf"
			},
			{
				"type": "unocc",
				"energy": -0.00212,
				"method": "rhf"
			}
		],
		"cosmo_sigma_profile": { 
			"-0.025": 0.0,
			"-0.024": 0.0,
			"-0.023": 0.0,
			"-0.022": 0.0,
			"-0.021": 0.0,
			"-0.02": 0.0,
			"-0.019": 0.0,
			"-0.018": 0.0,
			"-0.017": 0.0,
			"-0.016": 0.0,
			"-0.015": 0.929699134155,
			"-0.014": 1.77300192657,
			"-0.013": 1.50330244843,
			"-0.012": 1.39484874993,
			"-0.011": 1.99938979084,
			"-0.01": 1.09961549858,
			"-0.009": 2.06550570486,
			"-0.008": 7.69729007279,
			"-0.007": 10.1064889113,
			"-0.006": 18.3851497799,
			"-0.005": 28.0041460321,
			"-0.004": 32.3290799281,
			"-0.003": 27.5672787516,
			"-0.002": 28.0523398637,
			"-0.001": 27.8885568153,
			"0.0": 28.4875358025,
			"0.001": 26.6742869167,
			"0.002": 28.1190730045,
			"0.003": 32.0550861226,
			"0.004": 32.1574724215,
			"0.005": 20.9548784813,
			"0.006": 6.98488815227,
			"0.007": 5.37375450264,
			"0.008": 3.20321357232,
			"0.009": 3.54378221288,
			"0.01": 3.25162667561,
			"0.011": 1.95588741136,
			"0.012": 2.71375057097,
			"0.013": 3.73700011745,
			"0.014": 2.97031871068,
			"0.015": 3.02884383294,
			"0.016": 1.51641521094,
			"0.017": 0.305190445701,
			"0.018": 0.0,
			"0.019": 0.0,
			"0.02": 0.0,
			"0.021": 0.0,
			"0.022": 0.0,
			"0.023": 0.0,
			"0.024": 0.0,
			"0.025": 0.0
		}
	}
}
