{
	 "smiles": "CC(C)(C(O)=O)C1=CC=CS1", 
	 "Tm": 352.15, 
	 "num_atms": 21, 
	 "gaussian": { 
		 "optdone": 1, 
		 "sigma_profile": "yes", 
		 "theory": "DFT", 
		 "functional": "B3LYP", 
		 "basiset": "6-31G**", 
		 "properties": { 
			 "R2extent": 2892.0831, 
			 "electric_dipole_moment_norm": 0.941637196589, 
			 "electric_quadrupole_moment_norm": 6.27993397099, 
			 "total_energy": -859.517072801, 
			 "HOMO_LUMO_gap": 0.21059, 
			 "cosmo_polarized_energy": -9.19, 
			 "cosmo_cavitation_energy": 25.61, 
			 "cosmo_dispersion_energy": -18.64, 
			 "cosmo_repulsion_energy": 1.45, 
			 "cosmo_total_nonelectrostatic_energy": 8.42, 
			 "SMD_solvation_energy": 5.64 
		},
		"coords": [
			{
				"x": -1.7598133528,
				"y": 1.1829042104,
				"z": 2.7837042698,
				"element": "C" 
			},
			{
				"x": -1.1072094811,
				"y": -0.0284702649,
				"z": 2.0839368021,
				"element": "C" 
			},
			{
				"x": -1.4648398574,
				"y": -1.3231958534,
				"z": 2.8405421881,
				"element": "C" 
			},
			{
				"x": -1.6192317315,
				"y": -0.0913193995,
				"z": 0.6346280195,
				"element": "C" 
			},
			{
				"x": -1.4761602897,
				"y": -1.318063749,
				"z": 0.0820539622,
				"element": "O" 
			},
			{
				"x": -2.0754437609,
				"y": 0.845863318,
				"z": 0.0153874509,
				"element": "O" 
			},
			{
				"x": 0.4011359423,
				"y": 0.1880043338,
				"z": 1.9774394434,
				"element": "C" 
			},
			{
				"x": 1.046186196,
				"y": 1.1744271069,
				"z": 1.2732078707,
				"element": "C" 
			},
			{
				"x": 2.4670684835,
				"y": 1.1258923765,
				"z": 1.3931554188,
				"element": "C" 
			},
			{
				"x": 2.8949636295,
				"y": 0.1003184755,
				"z": 2.1893316845,
				"element": "C" 
			},
			{
				"x": 1.5641523831,
				"y": -0.8261809565,
				"z": 2.8009112208,
				"element": "S" 
			},
			{
				"x": -1.5720706967,
				"y": 2.1035792273,
				"z": 2.2301183855,
				"element": "H" 
			},
			{
				"x": -1.3525686237,
				"y": 1.2875027715,
				"z": 3.7930627792,
				"element": "H" 
			},
			{
				"x": -2.843802965,
				"y": 1.0467511333,
				"z": 2.8554792671,
				"element": "H" 
			},
			{
				"x": -1.1207682059,
				"y": -1.2576034467,
				"z": 3.8772404811,
				"element": "H" 
			},
			{
				"x": -1.0177920914,
				"y": -2.2031099621,
				"z": 2.3748162917,
				"element": "H" 
			},
			{
				"x": -2.5496945922,
				"y": -1.4626839404,
				"z": 2.8580068416,
				"element": "H" 
			},
			{
				"x": -1.7801166332,
				"y": -1.2332412075,
				"z": -0.8373119781,
				"element": "H" 
			},
			{
				"x": 0.5146990922,
				"y": 1.9089601847,
				"z": 0.6781449354,
				"element": "H" 
			},
			{
				"x": 3.1379017593,
				"y": 1.8250203037,
				"z": 0.9066553671,
				"element": "H" 
			},
			{
				"x": 3.9074047957,
				"y": -0.1698546614,
				"z": 2.4555892987,
				"element": "H" 
			}
		],
		 "valence_orbital": [ 
			{
				"type": "occ",
				"energy": -0.33381,
				"method": "rhf"
			},
			{
				"type": "occ",
				"energy": -0.32012,
				"method": "rhf"
			},
			{
				"type": "occ",
				"energy": -0.27579,
				"method": "rhf"
			},
			{
				"type": "occ",
				"energy": -0.24993,
				"method": "rhf"
			},
			{
				"type": "occ",
				"energy": -0.22751,
				"method": "rhf"
			},
			{
				"type": "unocc",
				"energy": -0.01692,
				"method": "rhf"
			},
			{
				"type": "unocc",
				"energy": 0.01285,
				"method": "rhf"
			},
			{
				"type": "unocc",
				"energy": 0.03411,
				"method": "rhf"
			},
			{
				"type": "unocc",
				"energy": 0.06409,
				"method": "rhf"
			},
			{
				"type": "unocc",
				"energy": 0.07393,
				"method": "rhf"
			}
		],
		"cosmo_sigma_profile": { 
			"-0.025": 0.0,
			"-0.024": 0.0,
			"-0.023": 0.0,
			"-0.022": 0.0,
			"-0.021": 0.0,
			"-0.02": 0.0,
			"-0.019": 0.0898051067704,
			"-0.018": 1.05006954115,
			"-0.017": 0.648844730955,
			"-0.016": 0.752633623964,
			"-0.015": 1.06729425096,
			"-0.014": 0.260894327443,
			"-0.013": 0.550941220436,
			"-0.012": 0.746923370411,
			"-0.011": 0.665888327085,
			"-0.01": 0.726485432082,
			"-0.009": 0.672659628254,
			"-0.008": 2.99439572045,
			"-0.007": 2.91394026886,
			"-0.006": 5.98055467546,
			"-0.005": 9.72670963322,
			"-0.004": 14.7158766059,
			"-0.003": 17.9307468059,
			"-0.002": 17.3914379893,
			"-0.001": 17.4981276707,
			"0.0": 19.1976890971,
			"0.001": 14.4214632041,
			"0.002": 11.3431573871,
			"0.003": 12.162551588,
			"0.004": 15.0418664052,
			"0.005": 12.3291299654,
			"0.006": 6.31697935294,
			"0.007": 3.74179498923,
			"0.008": 2.32476915225,
			"0.009": 1.14123726963,
			"0.01": 2.21187063513,
			"0.011": 3.69060046131,
			"0.012": 3.46056049316,
			"0.013": 0.0854332849075,
			"0.014": 0.0,
			"0.015": 0.0,
			"0.016": 0.0,
			"0.017": 0.0,
			"0.018": 0.0,
			"0.019": 0.0,
			"0.02": 0.0,
			"0.021": 0.0,
			"0.022": 0.0,
			"0.023": 0.0,
			"0.024": 0.0,
			"0.025": 0.0
		}
	}
}
