{
	 "smiles": "CS(=O)CC1=CC(=CC=C1)C(O)=O", 
	 "Tm": 455.15, 
	 "num_atms": 23, 
	 "gaussian": { 
		 "optdone": 1, 
		 "sigma_profile": "yes", 
		 "theory": "DFT", 
		 "functional": "B3LYP", 
		 "basiset": "6-31G**", 
		 "properties": { 
			 "R2extent": 3861.4632, 
			 "electric_dipole_moment_norm": 3.95176256498, 
			 "electric_quadrupole_moment_norm": 36.9255798228, 
			 "total_energy": -972.805921681, 
			 "HOMO_LUMO_gap": 0.17965, 
			 "cosmo_polarized_energy": -23.71, 
			 "cosmo_cavitation_energy": 28.5, 
			 "cosmo_dispersion_energy": -20.7, 
			 "cosmo_repulsion_energy": 1.59, 
			 "cosmo_total_nonelectrostatic_energy": 9.39, 
			 "SMD_solvation_energy": 5.74 
		},
		"coords": [
			{
				"x": -0.1209453033,
				"y": 3.1546475115,
				"z": 1.523794972,
				"element": "C" 
			},
			{
				"x": -1.5969405829,
				"y": 2.4513373134,
				"z": 0.6954124682,
				"element": "S" 
			},
			{
				"x": -2.1869694191,
				"y": 1.4177314824,
				"z": 1.6283935017,
				"element": "O" 
			},
			{
				"x": -0.6994177038,
				"y": 1.5271227439,
				"z": -0.6735126436,
				"element": "C" 
			},
			{
				"x": 0.2890077603,
				"y": 0.5073964107,
				"z": -0.1954342893,
				"element": "C" 
			},
			{
				"x": 1.661191712,
				"y": 0.6727747327,
				"z": -0.4247231297,
				"element": "C" 
			},
			{
				"x": 2.5880925665,
				"y": -0.2823481061,
				"z": 0.0146836987,
				"element": "C" 
			},
			{
				"x": 2.1335483919,
				"y": -1.422791833,
				"z": 0.6891915108,
				"element": "C" 
			},
			{
				"x": 0.774097384,
				"y": -1.5833205735,
				"z": 0.9440223268,
				"element": "C" 
			},
			{
				"x": -0.1461238526,
				"y": -0.6298193761,
				"z": 0.5059310245,
				"element": "C" 
			},
			{
				"x": 4.0612785744,
				"y": -0.1642304245,
				"z": -0.2406325679,
				"element": "C" 
			},
			{
				"x": 4.540658219,
				"y": 1.0843466358,
				"z": -0.4972260009,
				"element": "O" 
			},
			{
				"x": 4.8155508529,
				"y": -1.1076864741,
				"z": -0.2268404083,
				"element": "O" 
			},
			{
				"x": -0.4888389278,
				"y": 3.6934148666,
				"z": 2.3988976051,
				"element": "H" 
			},
			{
				"x": 0.5488175939,
				"y": 2.3517468225,
				"z": 1.8376265648,
				"element": "H" 
			},
			{
				"x": 0.3836140808,
				"y": 3.8499893898,
				"z": 0.8468779395,
				"element": "H" 
			},
			{
				"x": -0.2471530411,
				"y": 2.2899732344,
				"z": -1.3154800425,
				"element": "H" 
			},
			{
				"x": -1.5260885303,
				"y": 1.0655405704,
				"z": -1.2216749493,
				"element": "H" 
			},
			{
				"x": 1.990988763,
				"y": 1.5339161096,
				"z": -1.0033187624,
				"element": "H" 
			},
			{
				"x": 2.8609587011,
				"y": -2.1642519351,
				"z": 1.0010829891,
				"element": "H" 
			},
			{
				"x": 0.4241384999,
				"y": -2.4600831512,
				"z": 1.4803438337,
				"element": "H" 
			},
			{
				"x": -1.2032216845,
				"y": -0.7502303899,
				"z": 0.7143896185,
				"element": "H" 
			},
			{
				"x": 3.8625559458,
				"y": 1.7459244396,
				"z": -0.3040052595,
				"element": "H" 
			}
		],
		 "valence_orbital": [ 
			{
				"type": "occ",
				"energy": -0.28666,
				"method": "rhf"
			},
			{
				"type": "occ",
				"energy": -0.27981,
				"method": "rhf"
			},
			{
				"type": "occ",
				"energy": -0.27179,
				"method": "rhf"
			},
			{
				"type": "occ",
				"energy": -0.26166,
				"method": "rhf"
			},
			{
				"type": "occ",
				"energy": -0.23523,
				"method": "rhf"
			},
			{
				"type": "unocc",
				"energy": -0.05558,
				"method": "rhf"
			},
			{
				"type": "unocc",
				"energy": -0.03449,
				"method": "rhf"
			},
			{
				"type": "unocc",
				"energy": 0.02582,
				"method": "rhf"
			},
			{
				"type": "unocc",
				"energy": 0.03533,
				"method": "rhf"
			},
			{
				"type": "unocc",
				"energy": 0.04193,
				"method": "rhf"
			}
		],
		"cosmo_sigma_profile": { 
			"-0.025": 0.0,
			"-0.024": 0.0,
			"-0.023": 0.0,
			"-0.022": 0.0,
			"-0.021": 0.0,
			"-0.02": 0.0,
			"-0.019": 0.15145709704,
			"-0.018": 0.597839504147,
			"-0.017": 0.914841167037,
			"-0.016": 1.39044992627,
			"-0.015": 0.54057057409,
			"-0.014": 1.14541091877,
			"-0.013": 1.02772241812,
			"-0.012": 1.0935350811,
			"-0.011": 0.983610125325,
			"-0.01": 1.92172125415,
			"-0.009": 4.40863602531,
			"-0.008": 7.80585455799,
			"-0.007": 10.5379688937,
			"-0.006": 13.4627140938,
			"-0.005": 16.6184137199,
			"-0.004": 16.4610864712,
			"-0.003": 16.4727560128,
			"-0.002": 16.0613944551,
			"-0.001": 10.7162926107,
			"0.0": 11.5188993706,
			"0.001": 9.66647668995,
			"0.002": 12.0907090456,
			"0.003": 14.053146268,
			"0.004": 6.67075314969,
			"0.005": 3.9909410762,
			"0.006": 4.10598286985,
			"0.007": 4.04814994836,
			"0.008": 3.00283578337,
			"0.009": 4.77090383418,
			"0.01": 6.77573828854,
			"0.011": 6.77805321443,
			"0.012": 6.2644802373,
			"0.013": 3.06019835268,
			"0.014": 3.37628671747,
			"0.015": 4.19272634548,
			"0.016": 1.16286316174,
			"0.017": 0.0,
			"0.018": 0.0,
			"0.019": 0.0,
			"0.02": 0.0,
			"0.021": 0.0,
			"0.022": 0.0,
			"0.023": 0.0,
			"0.024": 0.0,
			"0.025": 0.0
		}
	}
}
