{
	 "smiles": "CCCC(=O)OCCOC(=O)CCC", 
	 "Tm": 193.15, 
	 "num_atms": 32, 
	 "gaussian": { 
		 "optdone": 1, 
		 "sigma_profile": "yes", 
		 "theory": "DFT", 
		 "functional": "B3LYP", 
		 "basiset": "6-31G**", 
		 "properties": { 
			 "R2extent": 4502.0397, 
			 "electric_dipole_moment_norm": 2.80740733952, 
			 "electric_quadrupole_moment_norm": 11.9404729802, 
			 "total_energy": -692.850797562, 
			 "HOMO_LUMO_gap": 0.27207, 
			 "cosmo_polarized_energy": -10.37, 
			 "cosmo_cavitation_energy": 34.9, 
			 "cosmo_dispersion_energy": -23.84, 
			 "cosmo_repulsion_energy": 1.98, 
			 "cosmo_total_nonelectrostatic_energy": 13.05, 
			 "SMD_solvation_energy": 7.39 
		},
		"coords": [
			{
				"x": -2.0816670472,
				"y": 4.2865801748,
				"z": -1.4974800598,
				"element": "C" 
			},
			{
				"x": -2.5098684702,
				"y": 2.844332878,
				"z": -1.7839704539,
				"element": "C" 
			},
			{
				"x": -2.8003299856,
				"y": 2.0591404037,
				"z": -0.4938401291,
				"element": "C" 
			},
			{
				"x": -3.2284627815,
				"y": 0.6247278716,
				"z": -0.7035303873,
				"element": "C" 
			},
			{
				"x": -4.1770169207,
				"y": 0.0862722931,
				"z": -0.1757682671,
				"element": "O" 
			},
			{
				"x": -2.3895672039,
				"y": -0.022518475,
				"z": -1.5597249959,
				"element": "O" 
			},
			{
				"x": -2.6139623268,
				"y": -1.433338226,
				"z": -1.7121209281,
				"element": "C" 
			},
			{
				"x": -1.9909013729,
				"y": -2.2199003898,
				"z": -0.5699324922,
				"element": "C" 
			},
			{
				"x": -0.5549761729,
				"y": -2.0902206495,
				"z": -0.5831050957,
				"element": "O" 
			},
			{
				"x": -0.0060234052,
				"y": -1.1446362927,
				"z": 0.2194495839,
				"element": "C" 
			},
			{
				"x": -0.641903108,
				"y": -0.4369815001,
				"z": 0.9719349846,
				"element": "O" 
			},
			{
				"x": 1.4973193869,
				"y": -1.0916747817,
				"z": 0.0239530067,
				"element": "C" 
			},
			{
				"x": 2.2309738912,
				"y": -0.3333923942,
				"z": 1.1352481985,
				"element": "C" 
			},
			{
				"x": 2.2214609406,
				"y": -1.0644114516,
				"z": 2.4817825739,
				"element": "C" 
			},
			{
				"x": -2.859908392,
				"y": 4.8331384683,
				"z": -0.953090718,
				"element": "H" 
			},
			{
				"x": -1.8806987567,
				"y": 4.8305897515,
				"z": -2.4259131516,
				"element": "H" 
			},
			{
				"x": -1.1703852914,
				"y": 4.3159953266,
				"z": -0.889375835,
				"element": "H" 
			},
			{
				"x": -3.4054282218,
				"y": 2.8453752243,
				"z": -2.4181121345,
				"element": "H" 
			},
			{
				"x": -1.7295470562,
				"y": 2.3262847793,
				"z": -2.3505745634,
				"element": "H" 
			},
			{
				"x": -1.8966347854,
				"y": 2.021857894,
				"z": 0.1290201373,
				"element": "H" 
			},
			{
				"x": -3.5857953407,
				"y": 2.5412287338,
				"z": 0.0945081119,
				"element": "H" 
			},
			{
				"x": -2.1453175782,
				"y": -1.6978500465,
				"z": -2.6626922044,
				"element": "H" 
			},
			{
				"x": -3.6870856544,
				"y": -1.6403822929,
				"z": -1.752238618,
				"element": "H" 
			},
			{
				"x": -2.3856539114,
				"y": -1.8857106267,
				"z": 0.3903838798,
				"element": "H" 
			},
			{
				"x": -2.1945704506,
				"y": -3.2859699703,
				"z": -0.705316487,
				"element": "H" 
			},
			{
				"x": 1.8699119117,
				"y": -2.1168943048,
				"z": -0.0818274298,
				"element": "H" 
			},
			{
				"x": 1.6654970596,
				"y": -0.6112512815,
				"z": -0.9494165758,
				"element": "H" 
			},
			{
				"x": 3.2653785827,
				"y": -0.1666326981,
				"z": 0.8121478982,
				"element": "H" 
			},
			{
				"x": 1.770210857,
				"y": 0.6534459261,
				"z": 1.2500365927,
				"element": "H" 
			},
			{
				"x": 2.7701365266,
				"y": -0.4966119319,
				"z": 3.2398921731,
				"element": "H" 
			},
			{
				"x": 2.6915935692,
				"y": -2.0516323325,
				"z": 2.4012717493,
				"element": "H" 
			},
			{
				"x": 1.1985215083,
				"y": -1.2019600792,
				"z": 2.8437016367,
				"element": "H" 
			}
		],
		 "valence_orbital": [ 
			{
				"type": "occ",
				"energy": -0.3305,
				"method": "rhf"
			},
			{
				"type": "occ",
				"energy": -0.31599,
				"method": "rhf"
			},
			{
				"type": "occ",
				"energy": -0.28829,
				"method": "rhf"
			},
			{
				"type": "occ",
				"energy": -0.27366,
				"method": "rhf"
			},
			{
				"type": "occ",
				"energy": -0.26395,
				"method": "rhf"
			},
			{
				"type": "unocc",
				"energy": 0.00812,
				"method": "rhf"
			},
			{
				"type": "unocc",
				"energy": 0.01675,
				"method": "rhf"
			},
			{
				"type": "unocc",
				"energy": 0.09074,
				"method": "rhf"
			},
			{
				"type": "unocc",
				"energy": 0.09826,
				"method": "rhf"
			},
			{
				"type": "unocc",
				"energy": 0.11352,
				"method": "rhf"
			}
		],
		"cosmo_sigma_profile": { 
			"-0.025": 0.0,
			"-0.024": 0.0,
			"-0.023": 0.0,
			"-0.022": 0.0,
			"-0.021": 0.0,
			"-0.02": 0.0,
			"-0.019": 0.0,
			"-0.018": 0.0,
			"-0.017": 0.0,
			"-0.016": 0.0,
			"-0.015": 0.0,
			"-0.014": 0.0,
			"-0.013": 0.0,
			"-0.012": 0.0,
			"-0.011": 0.0,
			"-0.01": 0.0,
			"-0.009": 0.0,
			"-0.008": 0.426088607789,
			"-0.007": 5.3876134349,
			"-0.006": 9.40149867512,
			"-0.005": 11.6694520987,
			"-0.004": 17.85393883,
			"-0.003": 32.8423456155,
			"-0.002": 36.1305202187,
			"-0.001": 33.8047918144,
			"0.0": 30.4502438649,
			"0.001": 25.025022167,
			"0.002": 13.2065005379,
			"0.003": 7.83495064875,
			"0.004": 8.266121967,
			"0.005": 6.9376570463,
			"0.006": 6.60169574172,
			"0.007": 5.20139361043,
			"0.008": 3.02818285516,
			"0.009": 3.53021107852,
			"0.01": 3.22569021921,
			"0.011": 4.75255834186,
			"0.012": 4.73091069857,
			"0.013": 1.26115297075,
			"0.014": 0.0226398298084,
			"0.015": 0.0,
			"0.016": 0.0,
			"0.017": 0.0,
			"0.018": 0.0,
			"0.019": 0.0,
			"0.02": 0.0,
			"0.021": 0.0,
			"0.022": 0.0,
			"0.023": 0.0,
			"0.024": 0.0,
			"0.025": 0.0
		}
	}
}
