{
	 "smiles": "CC(C)NC(CCO)C1CCCCC1", 
	 "Tm": 309.15, 
	 "num_atms": 39, 
	 "gaussian": { 
		 "optdone": 1, 
		 "sigma_profile": "yes", 
		 "theory": "DFT", 
		 "functional": "B3LYP", 
		 "basiset": "6-31G**", 
		 "properties": { 
			 "R2extent": 4111.7962, 
			 "electric_dipole_moment_norm": 1.15147603536, 
			 "electric_quadrupole_moment_norm": 8.42723877614, 
			 "total_energy": -602.323249886, 
			 "HOMO_LUMO_gap": 0.27208, 
			 "cosmo_polarized_energy": -8.41, 
			 "cosmo_cavitation_energy": 36.71, 
			 "cosmo_dispersion_energy": -25.06, 
			 "cosmo_repulsion_energy": 2.01, 
			 "cosmo_total_nonelectrostatic_energy": 13.66, 
			 "SMD_solvation_energy": 4.56 
		},
		"coords": [
			{
				"x": 1.8555778888,
				"y": -0.8449126795,
				"z": 1.2806559968,
				"element": "C" 
			},
			{
				"x": 2.0019601305,
				"y": 0.4052994358,
				"z": 0.4038815797,
				"element": "C" 
			},
			{
				"x": 3.3646624224,
				"y": 0.4190501992,
				"z": -0.2950062463,
				"element": "C" 
			},
			{
				"x": 0.9453640614,
				"y": 0.4421718394,
				"z": -0.6207488748,
				"element": "N" 
			},
			{
				"x": -0.3801476654,
				"y": 0.9162757787,
				"z": -0.1912165716,
				"element": "C" 
			},
			{
				"x": -0.4462577748,
				"y": 2.4562524484,
				"z": -0.0537318765,
				"element": "C" 
			},
			{
				"x": -1.676342437,
				"y": 3.0095844164,
				"z": 0.6766775485,
				"element": "C" 
			},
			{
				"x": -1.7757977398,
				"y": 2.5609349441,
				"z": 2.0251634308,
				"element": "O" 
			},
			{
				"x": -1.4798470289,
				"y": 0.3248880973,
				"z": -1.1116298511,
				"element": "C" 
			},
			{
				"x": -1.2629693543,
				"y": 0.6064310555,
				"z": -2.6096677971,
				"element": "C" 
			},
			{
				"x": -2.4996477618,
				"y": 0.1948855409,
				"z": -3.4439734891,
				"element": "C" 
			},
			{
				"x": -3.2245553444,
				"y": -1.0402979844,
				"z": -2.8558974126,
				"element": "C" 
			},
			{
				"x": -2.2414889023,
				"y": -1.9408336036,
				"z": -2.097315635,
				"element": "C" 
			},
			{
				"x": -1.6271135555,
				"y": -1.2023384211,
				"z": -0.8855700522,
				"element": "C" 
			},
			{
				"x": 0.8759024421,
				"y": -0.8888862995,
				"z": 1.7663147693,
				"element": "H" 
			},
			{
				"x": 2.6149405244,
				"y": -0.8530177236,
				"z": 2.0700886691,
				"element": "H" 
			},
			{
				"x": 1.9709606881,
				"y": -1.7487100957,
				"z": 0.6731567097,
				"element": "H" 
			},
			{
				"x": 1.9545843185,
				"y": 1.2894661804,
				"z": 1.0663642099,
				"element": "H" 
			},
			{
				"x": 3.5079777558,
				"y": 1.3415782586,
				"z": -0.8700800515,
				"element": "H" 
			},
			{
				"x": 3.446119289,
				"y": -0.428614828,
				"z": -0.9843637622,
				"element": "H" 
			},
			{
				"x": 4.1786708965,
				"y": 0.3500791802,
				"z": 0.4327048473,
				"element": "H" 
			},
			{
				"x": 1.2596124379,
				"y": 1.0171447408,
				"z": -1.3985115169,
				"element": "H" 
			},
			{
				"x": -0.5442256528,
				"y": 0.4970628347,
				"z": 0.8109799746,
				"element": "H" 
			},
			{
				"x": 0.4411928136,
				"y": 2.7914634029,
				"z": 0.496118909,
				"element": "H" 
			},
			{
				"x": -0.3951734796,
				"y": 2.9203341281,
				"z": -1.0487082158,
				"element": "H" 
			},
			{
				"x": -1.5991618839,
				"y": 4.1005416591,
				"z": 0.7345470703,
				"element": "H" 
			},
			{
				"x": -2.5980557536,
				"y": 2.7868881423,
				"z": 0.1177308268,
				"element": "H" 
			},
			{
				"x": -2.0641062022,
				"y": 1.6403235464,
				"z": 2.0130495927,
				"element": "H" 
			},
			{
				"x": -2.4289239344,
				"y": 0.8033245607,
				"z": -0.8284617246,
				"element": "H" 
			},
			{
				"x": -0.3828076183,
				"y": 0.0424575116,
				"z": -2.9408964992,
				"element": "H" 
			},
			{
				"x": -1.0386402266,
				"y": 1.6644749156,
				"z": -2.7907500287,
				"element": "H" 
			},
			{
				"x": -3.2024118779,
				"y": 1.034800595,
				"z": -3.5054795847,
				"element": "H" 
			},
			{
				"x": -2.1824936701,
				"y": -0.0133657664,
				"z": -4.4729166523,
				"element": "H" 
			},
			{
				"x": -3.7296404477,
				"y": -1.5974987756,
				"z": -3.653056815,
				"element": "H" 
			},
			{
				"x": -4.0138735222,
				"y": -0.7164108371,
				"z": -2.1645533717,
				"element": "H" 
			},
			{
				"x": -2.7347778339,
				"y": -2.8617034194,
				"z": -1.7658058381,
				"element": "H" 
			},
			{
				"x": -1.4447826664,
				"y": -2.2541383597,
				"z": -2.7846044083,
				"element": "H" 
			},
			{
				"x": -0.6367593815,
				"y": -1.6160073993,
				"z": -0.6694577678,
				"element": "H" 
			},
			{
				"x": -2.2474239537,
				"y": -1.3715772192,
				"z": 0.0047699089,
				"element": "H" 
			}
		],
		 "valence_orbital": [ 
			{
				"type": "occ",
				"energy": -0.29288,
				"method": "rhf"
			},
			{
				"type": "occ",
				"energy": -0.29019,
				"method": "rhf"
			},
			{
				"type": "occ",
				"energy": -0.288,
				"method": "rhf"
			},
			{
				"type": "occ",
				"energy": -0.26492,
				"method": "rhf"
			},
			{
				"type": "occ",
				"energy": -0.21459,
				"method": "rhf"
			},
			{
				"type": "unocc",
				"energy": 0.05749,
				"method": "rhf"
			},
			{
				"type": "unocc",
				"energy": 0.07951,
				"method": "rhf"
			},
			{
				"type": "unocc",
				"energy": 0.08632,
				"method": "rhf"
			},
			{
				"type": "unocc",
				"energy": 0.10347,
				"method": "rhf"
			},
			{
				"type": "unocc",
				"energy": 0.1159,
				"method": "rhf"
			}
		],
		"cosmo_sigma_profile": { 
			"-0.025": 0.0,
			"-0.024": 0.0,
			"-0.023": 0.0,
			"-0.022": 0.0,
			"-0.021": 0.0,
			"-0.02": 0.0,
			"-0.019": 0.0,
			"-0.018": 0.0,
			"-0.017": 0.0,
			"-0.016": 0.0,
			"-0.015": 0.0758263136236,
			"-0.014": 0.674726831875,
			"-0.013": 0.859802480986,
			"-0.012": 0.967745447362,
			"-0.011": 0.843005579196,
			"-0.01": 1.35006639339,
			"-0.009": 1.04990256828,
			"-0.008": 1.89752526827,
			"-0.007": 2.0885283667,
			"-0.006": 2.78380465911,
			"-0.005": 3.71282644295,
			"-0.004": 8.40753641252,
			"-0.003": 18.3872666288,
			"-0.002": 38.4121012982,
			"-0.001": 49.6559408007,
			"0.0": 52.4480100726,
			"0.001": 40.9334553387,
			"0.002": 26.5458427974,
			"0.003": 3.91365618012,
			"0.004": 3.25946644317,
			"0.005": 1.98316449308,
			"0.006": 1.75204523076,
			"0.007": 2.1015468398,
			"0.008": 2.15073365212,
			"0.009": 2.24960118824,
			"0.01": 1.81132601678,
			"0.011": 1.75671897338,
			"0.012": 2.17767256569,
			"0.013": 1.77525296747,
			"0.014": 2.60312702564,
			"0.015": 1.91526782548,
			"0.016": 0.00200058962409,
			"0.017": 0.0,
			"0.018": 0.0,
			"0.019": 0.0,
			"0.02": 0.0,
			"0.021": 0.0,
			"0.022": 0.0,
			"0.023": 0.0,
			"0.024": 0.0,
			"0.025": 0.0
		}
	}
}
