{
	 "smiles": "OC(=O)C1=C(SCC(F)(F)F)C=CC=C1", 
	 "Tm": 443.15, 
	 "num_atms": 22, 
	 "gaussian": { 
		 "optdone": 1, 
		 "sigma_profile": "yes", 
		 "theory": "DFT", 
		 "functional": "B3LYP", 
		 "basiset": "6-31G**", 
		 "properties": { 
			 "R2extent": 3889.5946, 
			 "electric_dipole_moment_norm": 3.16043132183, 
			 "electric_quadrupole_moment_norm": 8.83813950953, 
			 "total_energy": -1195.35003212, 
			 "HOMO_LUMO_gap": 0.17509, 
			 "cosmo_polarized_energy": -10.36, 
			 "cosmo_cavitation_energy": 29.21, 
			 "cosmo_dispersion_energy": -20.86, 
			 "cosmo_repulsion_energy": 1.54, 
			 "cosmo_total_nonelectrostatic_energy": 9.89, 
			 "SMD_solvation_energy": 6.77 
		},
		"coords": [
			{
				"x": -0.4718657526,
				"y": -2.5903666008,
				"z": 1.4042539567,
				"element": "O" 
			},
			{
				"x": -0.6928933535,
				"y": -1.6209909421,
				"z": 0.4813370291,
				"element": "C" 
			},
			{
				"x": -1.7388735189,
				"y": -1.5645304399,
				"z": -0.1355720305,
				"element": "O" 
			},
			{
				"x": 0.4567685337,
				"y": -0.678491941,
				"z": 0.3664230194,
				"element": "C" 
			},
			{
				"x": 0.7291051862,
				"y": 0.0625080475,
				"z": -0.8098639949,
				"element": "C" 
			},
			{
				"x": -0.1055770784,
				"y": -0.1648470057,
				"z": -2.3886517599,
				"element": "S" 
			},
			{
				"x": -1.7113152093,
				"y": 0.6793065705,
				"z": -2.160556453,
				"element": "C" 
			},
			{
				"x": -1.6433988835,
				"y": 2.1923278411,
				"z": -2.1937785206,
				"element": "C" 
			},
			{
				"x": -0.8895720843,
				"y": 2.6911424285,
				"z": -1.1905567651,
				"element": "F" 
			},
			{
				"x": -2.8877424496,
				"y": 2.7080400439,
				"z": -2.0575822049,
				"element": "F" 
			},
			{
				"x": -1.138201435,
				"y": 2.6615700652,
				"z": -3.3516277997,
				"element": "F" 
			},
			{
				"x": 1.8251413269,
				"y": 0.9349299819,
				"z": -0.8173424995,
				"element": "C" 
			},
			{
				"x": 2.6327431828,
				"y": 1.0958061179,
				"z": 0.3082555902,
				"element": "C" 
			},
			{
				"x": 2.3588695231,
				"y": 0.3735667443,
				"z": 1.4682450531,
				"element": "C" 
			},
			{
				"x": 1.2832993836,
				"y": -0.5097778095,
				"z": 1.4894468013,
				"element": "C" 
			},
			{
				"x": -1.2878373789,
				"y": -3.1173360713,
				"z": 1.430259445,
				"element": "H" 
			},
			{
				"x": -2.3365377765,
				"y": 0.3502824717,
				"z": -2.9942693403,
				"element": "H" 
			},
			{
				"x": -2.1710343998,
				"y": 0.3417691882,
				"z": -1.232261716,
				"element": "H" 
			},
			{
				"x": 2.0355794476,
				"y": 1.4934124386,
				"z": -1.7226306598,
				"element": "H" 
			},
			{
				"x": 3.470176009,
				"y": 1.7864671951,
				"z": 0.2751528016,
				"element": "H" 
			},
			{
				"x": 2.9793480103,
				"y": 0.4917798394,
				"z": 2.3511975057,
				"element": "H" 
			},
			{
				"x": 1.067818717,
				"y": -1.0827681635,
				"z": 2.3836225421,
				"element": "H" 
			}
		],
		 "valence_orbital": [ 
			{
				"type": "occ",
				"energy": -0.32992,
				"method": "rhf"
			},
			{
				"type": "occ",
				"energy": -0.29033,
				"method": "rhf"
			},
			{
				"type": "occ",
				"energy": -0.27276,
				"method": "rhf"
			},
			{
				"type": "occ",
				"energy": -0.27022,
				"method": "rhf"
			},
			{
				"type": "occ",
				"energy": -0.2362,
				"method": "rhf"
			},
			{
				"type": "unocc",
				"energy": -0.06111,
				"method": "rhf"
			},
			{
				"type": "unocc",
				"energy": -0.0277,
				"method": "rhf"
			},
			{
				"type": "unocc",
				"energy": 0.03273,
				"method": "rhf"
			},
			{
				"type": "unocc",
				"energy": 0.04311,
				"method": "rhf"
			},
			{
				"type": "unocc",
				"energy": 0.05896,
				"method": "rhf"
			}
		],
		"cosmo_sigma_profile": { 
			"-0.025": 0.0,
			"-0.024": 0.0,
			"-0.023": 0.0,
			"-0.022": 0.0,
			"-0.021": 0.0,
			"-0.02": 0.0,
			"-0.019": 0.133501919869,
			"-0.018": 0.874982577584,
			"-0.017": 1.04939394295,
			"-0.016": 0.967680541886,
			"-0.015": 0.51606481633,
			"-0.014": 0.326225367293,
			"-0.013": 0.877265265197,
			"-0.012": 0.635099366551,
			"-0.011": 0.62031916608,
			"-0.01": 0.944184699173,
			"-0.009": 3.11425713329,
			"-0.008": 2.66213223913,
			"-0.007": 7.91374350573,
			"-0.006": 12.9702024514,
			"-0.005": 11.4345555324,
			"-0.004": 10.0544798125,
			"-0.003": 12.2044778666,
			"-0.002": 11.609013342,
			"-0.001": 14.7821512363,
			"0.0": 15.9251270856,
			"0.001": 16.5694530537,
			"0.002": 25.9061530617,
			"0.003": 43.4332656732,
			"0.004": 13.1559796688,
			"0.005": 5.22643006399,
			"0.006": 4.97706575514,
			"0.007": 4.82340087559,
			"0.008": 3.53044655278,
			"0.009": 2.53080197661,
			"0.01": 2.80390655892,
			"0.011": 2.40054591429,
			"0.012": 0.556329247401,
			"0.013": 0.0,
			"0.014": 0.0,
			"0.015": 0.0,
			"0.016": 0.0,
			"0.017": 0.0,
			"0.018": 0.0,
			"0.019": 0.0,
			"0.02": 0.0,
			"0.021": 0.0,
			"0.022": 0.0,
			"0.023": 0.0,
			"0.024": 0.0,
			"0.025": 0.0
		}
	}
}
