{
	 "smiles": "[O-][N+](=O)C1=CC(Cl)=C(Cl)C=C1Cl", 
	 "Tm": 330.65, 
	 "num_atms": 14, 
	 "gaussian": { 
		 "optdone": 1, 
		 "sigma_profile": "yes", 
		 "theory": "DFT", 
		 "functional": "B3LYP", 
		 "basiset": "6-31G**", 
		 "properties": { 
			 "R2extent": 3400.6119, 
			 "electric_dipole_moment_norm": 2.7840605974, 
			 "electric_quadrupole_moment_norm": 11.0655086417, 
			 "total_energy": -1815.49749258, 
			 "HOMO_LUMO_gap": 0.16959, 
			 "cosmo_polarized_energy": -7.4, 
			 "cosmo_cavitation_energy": 25.02, 
			 "cosmo_dispersion_energy": -18.82, 
			 "cosmo_repulsion_energy": 1.5, 
			 "cosmo_total_nonelectrostatic_energy": 7.69, 
			 "SMD_solvation_energy": 5.78 
		},
		"coords": [
			{
				"x": 3.0382715463,
				"y": 1.7019655789,
				"z": -0.6525975971,
				"element": "O" 
			},
			{
				"x": 2.6623341215,
				"y": 0.6087499852,
				"z": -1.0585546091,
				"element": "N" 
			},
			{
				"x": 3.1929169764,
				"y": -0.0374686076,
				"z": -1.9612898137,
				"element": "O" 
			},
			{
				"x": 1.4552413746,
				"y": 0.0205298068,
				"z": -0.4479904503,
				"element": "C" 
			},
			{
				"x": 0.7066922635,
				"y": -0.8218976169,
				"z": -1.2683378351,
				"element": "C" 
			},
			{
				"x": -0.4700375329,
				"y": -1.4017319175,
				"z": -0.8085712387,
				"element": "C" 
			},
			{
				"x": -1.3811914907,
				"y": -2.4259176214,
				"z": -1.877725428,
				"element": "Cl" 
			},
			{
				"x": -0.8887495789,
				"y": -1.146385489,
				"z": 0.5073038405,
				"element": "C" 
			},
			{
				"x": -2.3451621608,
				"y": -1.8429171345,
				"z": 1.1476472905,
				"element": "Cl" 
			},
			{
				"x": -0.1240857418,
				"y": -0.3233328269,
				"z": 1.3335572775,
				"element": "C" 
			},
			{
				"x": 1.0481537241,
				"y": 0.2763892219,
				"z": 0.870768095,
				"element": "C" 
			},
			{
				"x": 1.9457965929,
				"y": 1.2423838816,
				"z": 2.0019648998,
				"element": "Cl" 
			},
			{
				"x": 1.0602039281,
				"y": -1.0155149224,
				"z": -2.2728694818,
				"element": "H" 
			},
			{
				"x": -0.4430840223,
				"y": -0.1474523383,
				"z": 2.3533950504,
				"element": "H" 
			}
		],
		 "valence_orbital": [ 
			{
				"type": "occ",
				"energy": -0.32439,
				"method": "rhf"
			},
			{
				"type": "occ",
				"energy": -0.32016,
				"method": "rhf"
			},
			{
				"type": "occ",
				"energy": -0.3082,
				"method": "rhf"
			},
			{
				"type": "occ",
				"energy": -0.29186,
				"method": "rhf"
			},
			{
				"type": "occ",
				"energy": -0.27615,
				"method": "rhf"
			},
			{
				"type": "unocc",
				"energy": -0.10656,
				"method": "rhf"
			},
			{
				"type": "unocc",
				"energy": -0.06015,
				"method": "rhf"
			},
			{
				"type": "unocc",
				"energy": -0.03672,
				"method": "rhf"
			},
			{
				"type": "unocc",
				"energy": -0.02806,
				"method": "rhf"
			},
			{
				"type": "unocc",
				"energy": 0.00843,
				"method": "rhf"
			}
		],
		"cosmo_sigma_profile": { 
			"-0.025": 0.0,
			"-0.024": 0.0,
			"-0.023": 0.0,
			"-0.022": 0.0,
			"-0.021": 0.0,
			"-0.02": 0.0,
			"-0.019": 0.0,
			"-0.018": 0.0,
			"-0.017": 0.0,
			"-0.016": 0.0,
			"-0.015": 0.0,
			"-0.014": 0.0,
			"-0.013": 0.0,
			"-0.012": 0.0,
			"-0.011": 0.0102085033429,
			"-0.01": 1.29842003233,
			"-0.009": 3.1285242373,
			"-0.008": 4.23762732994,
			"-0.007": 4.87722272723,
			"-0.006": 5.70849402841,
			"-0.005": 5.62413857107,
			"-0.004": 12.0492786088,
			"-0.003": 21.568313316,
			"-0.002": 26.7062313003,
			"-0.001": 15.3230009533,
			"0.0": 13.0477802245,
			"0.001": 15.5617564145,
			"0.002": 23.7449000898,
			"0.003": 19.7831328758,
			"0.004": 7.08895516688,
			"0.005": 4.11745608633,
			"0.006": 6.17709780282,
			"0.007": 10.9186412548,
			"0.008": 5.12955815427,
			"0.009": 2.69284295286,
			"0.01": 0.184885527333,
			"0.011": 0.0,
			"0.012": 0.0,
			"0.013": 0.0,
			"0.014": 0.0,
			"0.015": 0.0,
			"0.016": 0.0,
			"0.017": 0.0,
			"0.018": 0.0,
			"0.019": 0.0,
			"0.02": 0.0,
			"0.021": 0.0,
			"0.022": 0.0,
			"0.023": 0.0,
			"0.024": 0.0,
			"0.025": 0.0
		}
	}
}
