{
	 "smiles": "ClC1=NC2=C(C=NN2C2=CC=CC=C2)C(=O)N1", 
	 "Tm": 550.15, 
	 "num_atms": 24, 
	 "gaussian": { 
		 "optdone": 1, 
		 "sigma_profile": "yes", 
		 "theory": "DFT", 
		 "functional": "B3LYP", 
		 "basiset": "6-31G**", 
		 "properties": { 
			 "R2extent": 6927.1578, 
			 "electric_dipole_moment_norm": 2.20096375708, 
			 "electric_quadrupole_moment_norm": 15.0732846633, 
			 "total_energy": -1177.81095727, 
			 "HOMO_LUMO_gap": 0.17495, 
			 "cosmo_polarized_energy": -12.18, 
			 "cosmo_cavitation_energy": 31.01, 
			 "cosmo_dispersion_energy": -23.31, 
			 "cosmo_repulsion_energy": 1.78, 
			 "cosmo_total_nonelectrostatic_energy": 9.48, 
			 "SMD_solvation_energy": 4.38 
		},
		"coords": [
			{
				"x": 0.7469231641,
				"y": 4.7775087797,
				"z": 2.9429298837,
				"element": "Cl" 
			},
			{
				"x": 0.6091961438,
				"y": 3.0449406049,
				"z": 3.1215797366,
				"element": "C" 
			},
			{
				"x": 0.6379494534,
				"y": 2.2984471613,
				"z": 2.0709556984,
				"element": "N" 
			},
			{
				"x": 0.5209071921,
				"y": 0.9626299731,
				"z": 2.3478018316,
				"element": "C" 
			},
			{
				"x": 0.3808523097,
				"y": 0.3929097901,
				"z": 3.6197583823,
				"element": "C" 
			},
			{
				"x": 0.2996761257,
				"y": -0.9981648497,
				"z": 3.3865918646,
				"element": "C" 
			},
			{
				"x": 0.3810558097,
				"y": -1.2690012019,
				"z": 2.0966379341,
				"element": "N" 
			},
			{
				"x": 0.5177173027,
				"y": -0.0666984729,
				"z": 1.4470528094,
				"element": "N" 
			},
			{
				"x": 0.6293190965,
				"y": -0.0647071019,
				"z": 0.0206864521,
				"element": "C" 
			},
			{
				"x": 0.5932542251,
				"y": -1.2942564402,
				"z": -0.6503637641,
				"element": "C" 
			},
			{
				"x": 0.6997160855,
				"y": -1.3224784742,
				"z": -2.038565147,
				"element": "C" 
			},
			{
				"x": 0.8417383603,
				"y": -0.1394945172,
				"z": -2.7663105378,
				"element": "C" 
			},
			{
				"x": 0.8764288077,
				"y": 1.0785885331,
				"z": -2.0881624619,
				"element": "C" 
			},
			{
				"x": 0.7714165371,
				"y": 1.129080977,
				"z": -0.6978154235,
				"element": "C" 
			},
			{
				"x": 0.3495295544,
				"y": 1.2334243607,
				"z": 4.7889480355,
				"element": "C" 
			},
			{
				"x": 0.2367197831,
				"y": 0.9398890357,
				"z": 5.9646605871,
				"element": "O" 
			},
			{
				"x": 0.4779171449,
				"y": 2.612394478,
				"z": 4.406424747,
				"element": "N" 
			},
			{
				"x": 0.1864157667,
				"y": -1.7976709568,
				"z": 4.1052894532,
				"element": "H" 
			},
			{
				"x": 0.4829350301,
				"y": -2.205899053,
				"z": -0.0784350658,
				"element": "H" 
			},
			{
				"x": 0.6709434337,
				"y": -2.2792620348,
				"z": -2.5515672814,
				"element": "H" 
			},
			{
				"x": 0.924298179,
				"y": -0.1675164902,
				"z": -3.8485744191,
				"element": "H" 
			},
			{
				"x": 0.9864366008,
				"y": 2.0073058078,
				"z": -2.6402769481,
				"element": "H" 
			},
			{
				"x": 0.7992635096,
				"y": 2.0777021392,
				"z": -0.1803634994,
				"element": "H" 
			},
			{
				"x": 0.4659903841,
				"y": 3.2794279524,
				"z": 5.1687171325,
				"element": "H" 
			}
		],
		 "valence_orbital": [ 
			{
				"type": "occ",
				"energy": -0.30425,
				"method": "rhf"
			},
			{
				"type": "occ",
				"energy": -0.28119,
				"method": "rhf"
			},
			{
				"type": "occ",
				"energy": -0.25788,
				"method": "rhf"
			},
			{
				"type": "occ",
				"energy": -0.25057,
				"method": "rhf"
			},
			{
				"type": "occ",
				"energy": -0.23414,
				"method": "rhf"
			},
			{
				"type": "unocc",
				"energy": -0.05919,
				"method": "rhf"
			},
			{
				"type": "unocc",
				"energy": -0.02823,
				"method": "rhf"
			},
			{
				"type": "unocc",
				"energy": -0.01134,
				"method": "rhf"
			},
			{
				"type": "unocc",
				"energy": -0.00448,
				"method": "rhf"
			},
			{
				"type": "unocc",
				"energy": -0.00288,
				"method": "rhf"
			}
		],
		"cosmo_sigma_profile": { 
			"-0.025": 0.0,
			"-0.024": 0.0,
			"-0.023": 0.0,
			"-0.022": 0.0,
			"-0.021": 0.0,
			"-0.02": 0.0,
			"-0.019": 0.0,
			"-0.018": 0.0432291673971,
			"-0.017": 0.898814879667,
			"-0.016": 1.05179135711,
			"-0.015": 0.931317074814,
			"-0.014": 0.846706616991,
			"-0.013": 0.8678749216,
			"-0.012": 0.913524589426,
			"-0.011": 1.13481318443,
			"-0.01": 1.15294679657,
			"-0.009": 2.48053091336,
			"-0.008": 3.35451859371,
			"-0.007": 3.15887407766,
			"-0.006": 9.84585573811,
			"-0.005": 16.418856717,
			"-0.004": 17.5757598441,
			"-0.003": 17.0558129814,
			"-0.002": 19.0558448459,
			"-0.001": 19.2400063981,
			"0.0": 19.3553104482,
			"0.001": 22.3239125782,
			"0.002": 23.1625029218,
			"0.003": 17.605723689,
			"0.004": 16.5327780884,
			"0.005": 12.7441999653,
			"0.006": 3.90499576129,
			"0.007": 3.47135221486,
			"0.008": 2.52024924534,
			"0.009": 2.38855176488,
			"0.01": 3.1031468651,
			"0.011": 3.3586452147,
			"0.012": 5.87335783363,
			"0.013": 1.28055770677,
			"0.014": 0.0,
			"0.015": 0.0,
			"0.016": 0.0,
			"0.017": 0.0,
			"0.018": 0.0,
			"0.019": 0.0,
			"0.02": 0.0,
			"0.021": 0.0,
			"0.022": 0.0,
			"0.023": 0.0,
			"0.024": 0.0,
			"0.025": 0.0
		}
	}
}
