{
	 "smiles": "OC(CCCN1CCCCC1)(C1=CC=CC=C1)C1=CC=CC=C1", 
	 "Tm": 377.15, 
	 "num_atms": 50, 
	 "gaussian": { 
		 "optdone": 1, 
		 "sigma_profile": "yes", 
		 "theory": "DFT", 
		 "functional": "B3LYP", 
		 "basiset": "6-31G**", 
		 "properties": { 
			 "R2extent": 9662.2555, 
			 "electric_dipole_moment_norm": 1.28063953164, 
			 "electric_quadrupole_moment_norm": 6.49348652343, 
			 "total_energy": -946.473787254, 
			 "HOMO_LUMO_gap": 0.1949, 
			 "cosmo_polarized_energy": -10.12, 
			 "cosmo_cavitation_energy": 48.83, 
			 "cosmo_dispersion_energy": -33.2, 
			 "cosmo_repulsion_energy": 2.59, 
			 "cosmo_total_nonelectrostatic_energy": 18.21, 
			 "SMD_solvation_energy": 5.32 
		},
		"coords": [
			{
				"x": 1.1414834381,
				"y": 1.1676960974,
				"z": 3.5995370067,
				"element": "O" 
			},
			{
				"x": 0.6326640332,
				"y": 0.4104380579,
				"z": 2.4796817397,
				"element": "C" 
			},
			{
				"x": 0.2394040647,
				"y": 1.436632974,
				"z": 1.3800990947,
				"element": "C" 
			},
			{
				"x": -0.0608086264,
				"y": 0.9114598914,
				"z": -0.0315556821,
				"element": "C" 
			},
			{
				"x": -0.4957807111,
				"y": 2.0449485778,
				"z": -0.9700600492,
				"element": "C" 
			},
			{
				"x": -0.8328602186,
				"y": 1.5890645617,
				"z": -2.3154943009,
				"element": "N" 
			},
			{
				"x": -1.6736322728,
				"y": 2.568948155,
				"z": -3.017330594,
				"element": "C" 
			},
			{
				"x": -1.8191336166,
				"y": 2.2250760002,
				"z": -4.5176191155,
				"element": "C" 
			},
			{
				"x": -1.577865894,
				"y": 0.7309715125,
				"z": -4.7581362212,
				"element": "C" 
			},
			{
				"x": -0.1422191701,
				"y": 0.3574744823,
				"z": -4.3323380658,
				"element": "C" 
			},
			{
				"x": 0.3215985823,
				"y": 1.2182156995,
				"z": -3.1355574343,
				"element": "C" 
			},
			{
				"x": -0.5308980832,
				"y": -0.4476693881,
				"z": 3.0038930234,
				"element": "C" 
			},
			{
				"x": -1.8542388688,
				"y": -0.3228030191,
				"z": 2.5656417281,
				"element": "C" 
			},
			{
				"x": -2.8756160661,
				"y": -1.0895553208,
				"z": 3.1378051077,
				"element": "C" 
			},
			{
				"x": -2.5900216154,
				"y": -1.9883180952,
				"z": 4.1624856251,
				"element": "C" 
			},
			{
				"x": -1.2737359734,
				"y": -2.1145005983,
				"z": 4.6179816368,
				"element": "C" 
			},
			{
				"x": -0.2598332806,
				"y": -1.3516109322,
				"z": 4.0462824467,
				"element": "C" 
			},
			{
				"x": 1.8075370681,
				"y": -0.4497001454,
				"z": 1.9982640973,
				"element": "C" 
			},
			{
				"x": 3.1235459982,
				"y": -0.0125404869,
				"z": 2.2000430162,
				"element": "C" 
			},
			{
				"x": 4.2015695682,
				"y": -0.7582006054,
				"z": 1.7201957514,
				"element": "C" 
			},
			{
				"x": 3.9827884738,
				"y": -1.9498853401,
				"z": 1.0274688911,
				"element": "C" 
			},
			{
				"x": 2.6753531393,
				"y": -2.3925844974,
				"z": 0.8211314007,
				"element": "C" 
			},
			{
				"x": 1.5974726279,
				"y": -1.6497640658,
				"z": 1.3052307785,
				"element": "C" 
			},
			{
				"x": 0.3950256229,
				"y": 1.6592378944,
				"z": 3.9677362504,
				"element": "H" 
			},
			{
				"x": 1.0808458857,
				"y": 2.1365211883,
				"z": 1.3269303201,
				"element": "H" 
			},
			{
				"x": -0.616332798,
				"y": 2.0194993881,
				"z": 1.7508674966,
				"element": "H" 
			},
			{
				"x": 0.8335478184,
				"y": 0.4166626365,
				"z": -0.4217524598,
				"element": "H" 
			},
			{
				"x": -0.8507434401,
				"y": 0.1531662861,
				"z": -0.0215822194,
				"element": "H" 
			},
			{
				"x": 0.2805124682,
				"y": 2.837741855,
				"z": -0.9871429221,
				"element": "H" 
			},
			{
				"x": -1.395770271,
				"y": 2.5157442395,
				"z": -0.5527165528,
				"element": "H" 
			},
			{
				"x": -1.2681035044,
				"y": 3.5954959876,
				"z": -2.9170430826,
				"element": "H" 
			},
			{
				"x": -2.6576852434,
				"y": 2.570195906,
				"z": -2.5307417543,
				"element": "H" 
			},
			{
				"x": -2.8105625166,
				"y": 2.5296010305,
				"z": -4.8700299169,
				"element": "H" 
			},
			{
				"x": -1.0938194786,
				"y": 2.8019925488,
				"z": -5.1050738748,
				"element": "H" 
			},
			{
				"x": -1.7460297325,
				"y": 0.4751096523,
				"z": -5.8102192088,
				"element": "H" 
			},
			{
				"x": -2.2979289521,
				"y": 0.1520528588,
				"z": -4.1696608091,
				"element": "H" 
			},
			{
				"x": 0.5540766556,
				"y": 0.5026434278,
				"z": -5.167392739,
				"element": "H" 
			},
			{
				"x": -0.1016631538,
				"y": -0.7045294075,
				"z": -4.0671241205,
				"element": "H" 
			},
			{
				"x": 1.03190044,
				"y": 0.6548968502,
				"z": -2.5254417177,
				"element": "H" 
			},
			{
				"x": 0.8653545077,
				"y": 2.1169303396,
				"z": -3.4908407051,
				"element": "H" 
			},
			{
				"x": -2.1086856361,
				"y": 0.3732781795,
				"z": 1.7746320568,
				"element": "H" 
			},
			{
				"x": -3.8944999275,
				"y": -0.9774140981,
				"z": 2.7776903852,
				"element": "H" 
			},
			{
				"x": -3.3827650876,
				"y": -2.5839997271,
				"z": 4.6060715997,
				"element": "H" 
			},
			{
				"x": -1.0392933323,
				"y": -2.8074322672,
				"z": 5.4213301545,
				"element": "H" 
			},
			{
				"x": 0.7592455784,
				"y": -1.4430976764,
				"z": 4.4083655836,
				"element": "H" 
			},
			{
				"x": 3.2953094642,
				"y": 0.9072945119,
				"z": 2.7467140764,
				"element": "H" 
			},
			{
				"x": 5.2153950229,
				"y": -0.406895175,
				"z": 1.8922596226,
				"element": "H" 
			},
			{
				"x": 4.8225661114,
				"y": -2.5303920171,
				"z": 0.6559451713,
				"element": "H" 
			},
			{
				"x": 2.4909724757,
				"y": -3.3214862604,
				"z": 0.2885259218,
				"element": "H" 
			},
			{
				"x": 0.5856584261,
				"y": -2.011611667,
				"z": 1.1511435626,
				"element": "H" 
			}
		],
		 "valence_orbital": [ 
			{
				"type": "occ",
				"energy": -0.24994,
				"method": "rhf"
			},
			{
				"type": "occ",
				"energy": -0.24364,
				"method": "rhf"
			},
			{
				"type": "occ",
				"energy": -0.24053,
				"method": "rhf"
			},
			{
				"type": "occ",
				"energy": -0.23459,
				"method": "rhf"
			},
			{
				"type": "occ",
				"energy": -0.20157,
				"method": "rhf"
			},
			{
				"type": "unocc",
				"energy": -0.00667,
				"method": "rhf"
			},
			{
				"type": "unocc",
				"energy": -0.00339,
				"method": "rhf"
			},
			{
				"type": "unocc",
				"energy": 0.0033,
				"method": "rhf"
			},
			{
				"type": "unocc",
				"energy": 0.01034,
				"method": "rhf"
			},
			{
				"type": "unocc",
				"energy": 0.07921,
				"method": "rhf"
			}
		],
		"cosmo_sigma_profile": { 
			"-0.025": 0.0,
			"-0.024": 0.0,
			"-0.023": 0.0,
			"-0.022": 0.0,
			"-0.021": 0.0,
			"-0.02": 0.0,
			"-0.019": 0.0,
			"-0.018": 0.0,
			"-0.017": 0.0,
			"-0.016": 0.0,
			"-0.015": 0.450926817911,
			"-0.014": 0.859342167726,
			"-0.013": 0.882245888721,
			"-0.012": 0.600817272221,
			"-0.011": 0.765489731519,
			"-0.01": 1.14868802956,
			"-0.009": 1.21001506527,
			"-0.008": 0.554021798496,
			"-0.007": 0.797607022424,
			"-0.006": 5.01668784331,
			"-0.005": 17.486728907,
			"-0.004": 24.6818950312,
			"-0.003": 34.0996498442,
			"-0.002": 40.4901806538,
			"-0.001": 53.7311797326,
			"0.0": 56.2864616693,
			"0.001": 37.0113083014,
			"0.002": 20.2302263537,
			"0.003": 18.0221479559,
			"0.004": 19.061370278,
			"0.005": 17.8550263971,
			"0.006": 14.4668989568,
			"0.007": 3.93444781001,
			"0.008": 2.48394820831,
			"0.009": 2.17757876193,
			"0.01": 2.02962832519,
			"0.011": 2.28836774029,
			"0.012": 1.21219385251,
			"0.013": 0.806038100086,
			"0.014": 0.235045868572,
			"0.015": 0.492064972081,
			"0.016": 0.0,
			"0.017": 0.0,
			"0.018": 0.0,
			"0.019": 0.0,
			"0.02": 0.0,
			"0.021": 0.0,
			"0.022": 0.0,
			"0.023": 0.0,
			"0.024": 0.0,
			"0.025": 0.0
		}
	}
}
