{
	 "smiles": "CC1=CC=C(C=C1)C(=O)CCCCl", 
	 "Tm": 304.65, 
	 "num_atms": 26, 
	 "gaussian": { 
		 "optdone": 1, 
		 "sigma_profile": "yes", 
		 "theory": "DFT", 
		 "functional": "B3LYP", 
		 "basiset": "6-31G**", 
		 "properties": { 
			 "R2extent": 5282.5826, 
			 "electric_dipole_moment_norm": 5.6383888674, 
			 "electric_quadrupole_moment_norm": 16.0296205074, 
			 "total_energy": -962.443618188, 
			 "HOMO_LUMO_gap": 0.19455, 
			 "cosmo_polarized_energy": -10.37, 
			 "cosmo_cavitation_energy": 31.09, 
			 "cosmo_dispersion_energy": -22.64, 
			 "cosmo_repulsion_energy": 1.81, 
			 "cosmo_total_nonelectrostatic_energy": 10.27, 
			 "SMD_solvation_energy": 5.14 
		},
		"coords": [
			{
				"x": -3.2285064656,
				"y": -2.5920233706,
				"z": 2.051333661,
				"element": "C" 
			},
			{
				"x": -2.0119129765,
				"y": -2.0066681527,
				"z": 1.3770870945,
				"element": "C" 
			},
			{
				"x": -0.7468505505,
				"y": -2.091323469,
				"z": 1.9825620236,
				"element": "C" 
			},
			{
				"x": 0.3738109464,
				"y": -1.5371815197,
				"z": 1.3786451698,
				"element": "C" 
			},
			{
				"x": 0.2693690708,
				"y": -0.8778101141,
				"z": 0.1421067628,
				"element": "C" 
			},
			{
				"x": -0.9905446874,
				"y": -0.7928773071,
				"z": -0.4681603224,
				"element": "C" 
			},
			{
				"x": -2.1119762577,
				"y": -1.3511872988,
				"z": 0.143302026,
				"element": "C" 
			},
			{
				"x": 1.5127892098,
				"y": -0.3038604793,
				"z": -0.4592996487,
				"element": "C" 
			},
			{
				"x": 2.5899154003,
				"y": -0.4124634942,
				"z": 0.1120746865,
				"element": "O" 
			},
			{
				"x": 1.4160419025,
				"y": 0.4132449915,
				"z": -1.805558064,
				"element": "C" 
			},
			{
				"x": 2.7561977562,
				"y": 0.9513109257,
				"z": -2.3264538661,
				"element": "C" 
			},
			{
				"x": 3.2624952848,
				"y": 2.1387726559,
				"z": -1.5158062234,
				"element": "C" 
			},
			{
				"x": 4.7847188829,
				"y": 2.8279205352,
				"z": -2.2381637712,
				"element": "Cl" 
			},
			{
				"x": -3.0201732205,
				"y": -3.5887972854,
				"z": 2.4535548599,
				"element": "H" 
			},
			{
				"x": -3.5495137962,
				"y": -1.9664605489,
				"z": 2.8933578818,
				"element": "H" 
			},
			{
				"x": -4.0717022524,
				"y": -2.67301255,
				"z": 1.3601177163,
				"element": "H" 
			},
			{
				"x": -0.6460940286,
				"y": -2.6003350741,
				"z": 2.9380563297,
				"element": "H" 
			},
			{
				"x": 1.3521651,
				"y": -1.6023132372,
				"z": 1.8429702417,
				"element": "H" 
			},
			{
				"x": -1.107824651,
				"y": -0.2946350869,
				"z": -1.4250832169,
				"element": "H" 
			},
			{
				"x": -3.0800907369,
				"y": -1.2782523733,
				"z": -0.3453456611,
				"element": "H" 
			},
			{
				"x": 0.6754612218,
				"y": 1.2210198656,
				"z": -1.7248315302,
				"element": "H" 
			},
			{
				"x": 0.9976170065,
				"y": -0.2925988947,
				"z": -2.5351486533,
				"element": "H" 
			},
			{
				"x": 2.6343079095,
				"y": 1.2558389042,
				"z": -3.3709598119,
				"element": "H" 
			},
			{
				"x": 3.5054618129,
				"y": 0.1552021792,
				"z": -2.2993013975,
				"element": "H" 
			},
			{
				"x": 3.5086100073,
				"y": 1.8465639324,
				"z": -0.4965393924,
				"element": "H" 
			},
			{
				"x": 2.5401281116,
				"y": 2.9582262663,
				"z": -1.5011168943,
				"element": "H" 
			}
		],
		 "valence_orbital": [ 
			{
				"type": "occ",
				"energy": -0.28547,
				"method": "rhf"
			},
			{
				"type": "occ",
				"energy": -0.28428,
				"method": "rhf"
			},
			{
				"type": "occ",
				"energy": -0.26399,
				"method": "rhf"
			},
			{
				"type": "occ",
				"energy": -0.25518,
				"method": "rhf"
			},
			{
				"type": "occ",
				"energy": -0.25469,
				"method": "rhf"
			},
			{
				"type": "unocc",
				"energy": -0.06014,
				"method": "rhf"
			},
			{
				"type": "unocc",
				"energy": -0.01378,
				"method": "rhf"
			},
			{
				"type": "unocc",
				"energy": 0.03006,
				"method": "rhf"
			},
			{
				"type": "unocc",
				"energy": 0.03522,
				"method": "rhf"
			},
			{
				"type": "unocc",
				"energy": 0.08676,
				"method": "rhf"
			}
		],
		"cosmo_sigma_profile": { 
			"-0.025": 0.0,
			"-0.024": 0.0,
			"-0.023": 0.0,
			"-0.022": 0.0,
			"-0.021": 0.0,
			"-0.02": 0.0,
			"-0.019": 0.0,
			"-0.018": 0.0,
			"-0.017": 0.0,
			"-0.016": 0.0,
			"-0.015": 0.0,
			"-0.014": 0.0,
			"-0.013": 0.0,
			"-0.012": 0.0,
			"-0.011": 0.0,
			"-0.01": 0.0,
			"-0.009": 0.0,
			"-0.008": 0.0,
			"-0.007": 2.87655830665,
			"-0.006": 16.1138870888,
			"-0.005": 20.2480615879,
			"-0.004": 24.5256507755,
			"-0.003": 26.2761115229,
			"-0.002": 19.4322844112,
			"-0.001": 17.5348761542,
			"0.0": 19.3769074168,
			"0.001": 13.9654754967,
			"0.002": 14.1996675689,
			"0.003": 14.5463918691,
			"0.004": 16.5896648191,
			"0.005": 11.4905354418,
			"0.006": 10.023135885,
			"0.007": 10.1415411254,
			"0.008": 1.92378907845,
			"0.009": 1.20636166396,
			"0.01": 1.96875044912,
			"0.011": 2.26435112154,
			"0.012": 2.84423365014,
			"0.013": 0.289235337737,
			"0.014": 0.0,
			"0.015": 0.0,
			"0.016": 0.0,
			"0.017": 0.0,
			"0.018": 0.0,
			"0.019": 0.0,
			"0.02": 0.0,
			"0.021": 0.0,
			"0.022": 0.0,
			"0.023": 0.0,
			"0.024": 0.0,
			"0.025": 0.0
		}
	}
}
