{
	 "smiles": "NC1=CC(Cl)=C(C=C1Cl)C1=CC(Cl)=C(N)C=C1Cl", 
	 "Tm": 411.15, 
	 "num_atms": 26, 
	 "gaussian": { 
		 "optdone": 1, 
		 "sigma_profile": "yes", 
		 "theory": "DFT", 
		 "functional": "B3LYP", 
		 "basiset": "6-31G**", 
		 "properties": { 
			 "R2extent": 9029.3933, 
			 "electric_dipole_moment_norm": 1.39418773843, 
			 "electric_quadrupole_moment_norm": 33.231609771, 
			 "total_energy": -2412.38406674, 
			 "HOMO_LUMO_gap": 0.1884, 
			 "cosmo_polarized_energy": -14.44, 
			 "cosmo_cavitation_energy": 37.57, 
			 "cosmo_dispersion_energy": -26.99, 
			 "cosmo_repulsion_energy": 2.13, 
			 "cosmo_total_nonelectrostatic_energy": 12.71, 
			 "SMD_solvation_energy": 5.0 
		},
		"coords": [
			{
				"x": 0.4740665336,
				"y": -6.32985352,
				"z": -0.6407889201,
				"element": "N" 
			},
			{
				"x": 0.5467216018,
				"y": -4.9968607087,
				"z": -0.2851568354,
				"element": "C" 
			},
			{
				"x": -0.432415312,
				"y": -4.4139226855,
				"z": 0.5387420442,
				"element": "C" 
			},
			{
				"x": -0.3916684569,
				"y": -3.0614171742,
				"z": 0.8547955663,
				"element": "C" 
			},
			{
				"x": -1.6786610368,
				"y": -2.4234977277,
				"z": 1.8653080993,
				"element": "Cl" 
			},
			{
				"x": 0.6220050744,
				"y": -2.2125511985,
				"z": 0.3804667849,
				"element": "C" 
			},
			{
				"x": 1.5926420909,
				"y": -2.7962455242,
				"z": -0.4454578984,
				"element": "C" 
			},
			{
				"x": 1.5594063887,
				"y": -4.1461416024,
				"z": -0.7691339339,
				"element": "C" 
			},
			{
				"x": 2.8222006277,
				"y": -4.8153444314,
				"z": -1.8004428814,
				"element": "Cl" 
			},
			{
				"x": 0.6864147811,
				"y": -0.7544214307,
				"z": 0.6789156659,
				"element": "C" 
			},
			{
				"x": 0.3120467769,
				"y": 0.1730004901,
				"z": -0.3034025685,
				"element": "C" 
			},
			{
				"x": 0.3799211781,
				"y": 1.541504437,
				"z": -0.0785686687,
				"element": "C" 
			},
			{
				"x": -0.0986098559,
				"y": 2.6497077913,
				"z": -1.3625275825,
				"element": "Cl" 
			},
			{
				"x": 0.826570291,
				"y": 2.0671271921,
				"z": 1.1495062594,
				"element": "C" 
			},
			{
				"x": 0.8435921779,
				"y": 3.4240347971,
				"z": 1.4052019256,
				"element": "N" 
			},
			{
				"x": 1.2146502109,
				"y": 1.1402727135,
				"z": 2.1332889297,
				"element": "C" 
			},
			{
				"x": 1.1461298845,
				"y": -0.227266995,
				"z": 1.896918855,
				"element": "C" 
			},
			{
				"x": 1.6864281702,
				"y": -1.3013096785,
				"z": 3.1779179702,
				"element": "Cl" 
			},
			{
				"x": 1.3266814027,
				"y": -6.746254746,
				"z": -0.9864345199,
				"element": "H" 
			},
			{
				"x": -0.0564284854,
				"y": -6.9276104755,
				"z": -0.0248344621,
				"element": "H" 
			},
			{
				"x": -1.2402613762,
				"y": -5.0281642322,
				"z": 0.9222113348,
				"element": "H" 
			},
			{
				"x": 2.3970116815,
				"y": -2.1805907707,
				"z": -0.8325626751,
				"element": "H" 
			},
			{
				"x": -0.0443886854,
				"y": -0.1873797969,
				"z": -1.2620358618,
				"element": "H" 
			},
			{
				"x": 0.8306348085,
				"y": 4.0324141182,
				"z": 0.5994784514,
				"element": "H" 
			},
			{
				"x": 1.4508907256,
				"y": 3.7330909317,
				"z": 2.1491565729,
				"element": "H" 
			},
			{
				"x": 1.5720188024,
				"y": 1.4995802269,
				"z": 3.092538348,
				"element": "H" 
			}
		],
		 "valence_orbital": [ 
			{
				"type": "occ",
				"energy": -0.30349,
				"method": "rhf"
			},
			{
				"type": "occ",
				"energy": -0.24794,
				"method": "rhf"
			},
			{
				"type": "occ",
				"energy": -0.24662,
				"method": "rhf"
			},
			{
				"type": "occ",
				"energy": -0.22214,
				"method": "rhf"
			},
			{
				"type": "occ",
				"energy": -0.21205,
				"method": "rhf"
			},
			{
				"type": "unocc",
				"energy": -0.02365,
				"method": "rhf"
			},
			{
				"type": "unocc",
				"energy": -0.01309,
				"method": "rhf"
			},
			{
				"type": "unocc",
				"energy": -0.01243,
				"method": "rhf"
			},
			{
				"type": "unocc",
				"energy": 0.00155,
				"method": "rhf"
			},
			{
				"type": "unocc",
				"energy": 0.01607,
				"method": "rhf"
			}
		],
		"cosmo_sigma_profile": { 
			"-0.025": 0.0,
			"-0.024": 0.0,
			"-0.023": 0.0,
			"-0.022": 0.0,
			"-0.021": 0.0,
			"-0.02": 0.0,
			"-0.019": 0.0,
			"-0.018": 0.0,
			"-0.017": 0.0,
			"-0.016": 0.0,
			"-0.015": 0.0,
			"-0.014": 1.24533353714,
			"-0.013": 3.66729654513,
			"-0.012": 4.83815777283,
			"-0.011": 5.23030956732,
			"-0.01": 5.22469840557,
			"-0.009": 5.43438094085,
			"-0.008": 5.90429583465,
			"-0.007": 8.55799769888,
			"-0.006": 6.91735877782,
			"-0.005": 9.16520279447,
			"-0.004": 8.66667501429,
			"-0.003": 11.0539629691,
			"-0.002": 15.4445993735,
			"-0.001": 16.5579139447,
			"0.0": 22.5458273237,
			"0.001": 26.4001851908,
			"0.002": 38.0525668219,
			"0.003": 42.8296684062,
			"0.004": 37.8398500098,
			"0.005": 23.5122485592,
			"0.006": 2.8106434093,
			"0.007": 1.5130479933,
			"0.008": 1.54943508312,
			"0.009": 1.35030067806,
			"0.01": 1.09471707583,
			"0.011": 1.07357060188,
			"0.012": 0.987925221657,
			"0.013": 0.0,
			"0.014": 0.0,
			"0.015": 0.0,
			"0.016": 0.0,
			"0.017": 0.0,
			"0.018": 0.0,
			"0.019": 0.0,
			"0.02": 0.0,
			"0.021": 0.0,
			"0.022": 0.0,
			"0.023": 0.0,
			"0.024": 0.0,
			"0.025": 0.0
		}
	}
}
