{
	 "smiles": "[O-][N+](=O)C1=CC(=C(C=CC2=CC=C(C=CC3=CC=C(C=C3[N+]([O-])=O)[N+]([O-])=O)C=C2)C=C1)[N+]([O-])=O", 
	 "Tm": 567.15, 
	 "num_atms": 48, 
	 "gaussian": { 
		 "optdone": 1, 
		 "sigma_profile": "yes", 
		 "theory": "DFT", 
		 "functional": "B3LYP", 
		 "basiset": "6-31G**", 
		 "properties": { 
			 "R2extent": 15626.8665, 
			 "electric_dipole_moment_norm": 7.82131504544, 
			 "electric_quadrupole_moment_norm": 37.3690674153, 
			 "total_energy": -1667.11843074, 
			 "HOMO_LUMO_gap": 0.1367, 
			 "cosmo_polarized_energy": -24.36, 
			 "cosmo_cavitation_energy": 56.46, 
			 "cosmo_dispersion_energy": -34.51, 
			 "cosmo_repulsion_energy": 2.55, 
			 "cosmo_total_nonelectrostatic_energy": 24.5, 
			 "SMD_solvation_energy": 17.03 
		},
		"coords": [
			{
				"x": -4.8681631993,
				"y": 0.142961583,
				"z": -4.2718910089,
				"element": "O" 
			},
			{
				"x": -4.4690040179,
				"y": -0.5324014043,
				"z": -3.3243037958,
				"element": "N" 
			},
			{
				"x": -4.5555679784,
				"y": -1.7543480945,
				"z": -3.2387846235,
				"element": "O" 
			},
			{
				"x": -3.8424984755,
				"y": 0.1862011635,
				"z": -2.2016098311,
				"element": "C" 
			},
			{
				"x": -3.3385204185,
				"y": -0.5444487967,
				"z": -1.134638895,
				"element": "C" 
			},
			{
				"x": -2.7707115161,
				"y": 0.1529045551,
				"z": -0.0740272096,
				"element": "C" 
			},
			{
				"x": -2.6451080939,
				"y": 1.5559590464,
				"z": -0.0667963033,
				"element": "C" 
			},
			{
				"x": -1.9834238514,
				"y": 2.3340521241,
				"z": 1.0129776862,
				"element": "C" 
			},
			{
				"x": -0.6834768215,
				"y": 2.282691863,
				"z": 1.3347535861,
				"element": "C" 
			},
			{
				"x": 0.3520142567,
				"y": 1.4605419856,
				"z": 0.6668258068,
				"element": "C" 
			},
			{
				"x": 1.1252132315,
				"y": 0.5574639732,
				"z": 1.413541652,
				"element": "C" 
			},
			{
				"x": 2.0828586421,
				"y": -0.2405233784,
				"z": 0.793962966,
				"element": "C" 
			},
			{
				"x": 2.3265111339,
				"y": -0.1345393287,
				"z": -0.5852716287,
				"element": "C" 
			},
			{
				"x": 3.3507414292,
				"y": -0.970385811,
				"z": -1.2537616177,
				"element": "C" 
			},
			{
				"x": 3.3981784494,
				"y": -2.3099473325,
				"z": -1.2580466358,
				"element": "C" 
			},
			{
				"x": 2.414098657,
				"y": -3.2180720146,
				"z": -0.614742681,
				"element": "C" 
			},
			{
				"x": 2.8410070414,
				"y": -4.0483015758,
				"z": 0.4367316753,
				"element": "C" 
			},
			{
				"x": 1.9659628201,
				"y": -4.89260008,
				"z": 1.1114716253,
				"element": "C" 
			},
			{
				"x": 0.6250776392,
				"y": -4.9057102482,
				"z": 0.7343545744,
				"element": "C" 
			},
			{
				"x": 0.1486397548,
				"y": -4.1150515441,
				"z": -0.3023337602,
				"element": "C" 
			},
			{
				"x": 1.0551325555,
				"y": -3.3042421501,
				"z": -0.9763263823,
				"element": "C" 
			},
			{
				"x": 0.5216910369,
				"y": -2.5709005111,
				"z": -2.1435347253,
				"element": "N" 
			},
			{
				"x": -0.6478802602,
				"y": -2.1966245438,
				"z": -2.0856173496,
				"element": "O" 
			},
			{
				"x": 1.2650687614,
				"y": -2.4192284375,
				"z": -3.1083548762,
				"element": "O" 
			},
			{
				"x": -0.3138763863,
				"y": -5.7903201963,
				"z": 1.4450215706,
				"element": "N" 
			},
			{
				"x": 0.1325438071,
				"y": -6.4443646127,
				"z": 2.3865288552,
				"element": "O" 
			},
			{
				"x": -1.4758754047,
				"y": -5.8202431442,
				"z": 1.0491573498,
				"element": "O" 
			},
			{
				"x": 1.5882903739,
				"y": 0.8044446765,
				"z": -1.3229164322,
				"element": "C" 
			},
			{
				"x": 0.6039577875,
				"y": 1.5749790222,
				"z": -0.7101863897,
				"element": "C" 
			},
			{
				"x": -3.1807846744,
				"y": 2.2433553613,
				"z": -1.1701737949,
				"element": "C" 
			},
			{
				"x": -3.78064024,
				"y": 1.5774105916,
				"z": -2.2334671459,
				"element": "C" 
			},
			{
				"x": -2.3502074446,
				"y": -0.6628739096,
				"z": 1.0845818168,
				"element": "N" 
			},
			{
				"x": -2.4696169714,
				"y": -0.1684655249,
				"z": 2.2017671007,
				"element": "O" 
			},
			{
				"x": -1.9458081416,
				"y": -1.8007662282,
				"z": 0.8543717838,
				"element": "O" 
			},
			{
				"x": -3.3893547578,
				"y": -1.6243613637,
				"z": -1.1256829136,
				"element": "H" 
			},
			{
				"x": -2.6349969094,
				"y": 3.0043351577,
				"z": 1.5703287092,
				"element": "H" 
			},
			{
				"x": -0.3543491452,
				"y": 2.8776370897,
				"z": 2.1857897665,
				"element": "H" 
			},
			{
				"x": 0.9535943161,
				"y": 0.4621807633,
				"z": 2.4820003659,
				"element": "H" 
			},
			{
				"x": 2.6604342436,
				"y": -0.9441953914,
				"z": 1.3851185887,
				"element": "H" 
			},
			{
				"x": 4.1204384908,
				"y": -0.4395803605,
				"z": -1.8126524166,
				"element": "H" 
			},
			{
				"x": 4.2276636009,
				"y": -2.8033101436,
				"z": -1.7610052599,
				"element": "H" 
			},
			{
				"x": 3.8834452905,
				"y": -4.0085481806,
				"z": 0.7366335985,
				"element": "H" 
			},
			{
				"x": 2.2972531359,
				"y": -5.5275325374,
				"z": 1.9236204019,
				"element": "H" 
			},
			{
				"x": -0.895939157,
				"y": -4.132225827,
				"z": -0.5808964602,
				"element": "H" 
			},
			{
				"x": 1.7689330951,
				"y": 0.9091164121,
				"z": -2.3889763446,
				"element": "H" 
			},
			{
				"x": 0.0327132638,
				"y": 2.2848505768,
				"z": -1.2999863667,
				"element": "H" 
			},
			{
				"x": -3.1032715962,
				"y": 3.3257771736,
				"z": -1.1925199159,
				"element": "H" 
			},
			{
				"x": -4.1885873528,
				"y": 2.1096495525,
				"z": -3.0836347155,
				"element": "H" 
			}
		],
		 "valence_orbital": [ 
			{
				"type": "occ",
				"energy": -0.28916,
				"method": "rhf"
			},
			{
				"type": "occ",
				"energy": -0.28743,
				"method": "rhf"
			},
			{
				"type": "occ",
				"energy": -0.27275,
				"method": "rhf"
			},
			{
				"type": "occ",
				"energy": -0.2674,
				"method": "rhf"
			},
			{
				"type": "occ",
				"energy": -0.24175,
				"method": "rhf"
			},
			{
				"type": "unocc",
				"energy": -0.10505,
				"method": "rhf"
			},
			{
				"type": "unocc",
				"energy": -0.10488,
				"method": "rhf"
			},
			{
				"type": "unocc",
				"energy": -0.09335,
				"method": "rhf"
			},
			{
				"type": "unocc",
				"energy": -0.08913,
				"method": "rhf"
			},
			{
				"type": "unocc",
				"energy": -0.0529,
				"method": "rhf"
			}
		],
		"cosmo_sigma_profile": { 
			"-0.025": 0.0,
			"-0.024": 0.0,
			"-0.023": 0.0,
			"-0.022": 0.0,
			"-0.021": 0.0,
			"-0.02": 0.0,
			"-0.019": 0.0,
			"-0.018": 0.0,
			"-0.017": 0.0,
			"-0.016": 0.0,
			"-0.015": 0.0,
			"-0.014": 0.0,
			"-0.013": 0.0,
			"-0.012": 0.0,
			"-0.011": 0.0,
			"-0.01": 0.0370167057208,
			"-0.009": 3.52637996163,
			"-0.008": 11.482899834,
			"-0.007": 22.6116233528,
			"-0.006": 27.1057038514,
			"-0.005": 31.0545141435,
			"-0.004": 32.0448017906,
			"-0.003": 34.8193990428,
			"-0.002": 35.3652467049,
			"-0.001": 31.0195323314,
			"0.0": 28.2255641027,
			"0.001": 27.8691147138,
			"0.002": 23.2754668273,
			"0.003": 20.901332399,
			"0.004": 22.9550384969,
			"0.005": 17.0572680275,
			"0.006": 18.1708961274,
			"0.007": 32.5688091775,
			"0.008": 20.0082743727,
			"0.009": 11.6229202668,
			"0.01": 2.25748778079,
			"0.011": 0.0,
			"0.012": 0.0,
			"0.013": 0.0,
			"0.014": 0.0,
			"0.015": 0.0,
			"0.016": 0.0,
			"0.017": 0.0,
			"0.018": 0.0,
			"0.019": 0.0,
			"0.02": 0.0,
			"0.021": 0.0,
			"0.022": 0.0,
			"0.023": 0.0,
			"0.024": 0.0,
			"0.025": 0.0
		}
	}
}
