{
	 "smiles": "COC1=CC=C(C=O)C(=C1)C(F)(F)F", 
	 "Tm": 313.15, 
	 "num_atms": 21, 
	 "gaussian": { 
		 "optdone": 1, 
		 "sigma_profile": "yes", 
		 "theory": "DFT", 
		 "functional": "B3LYP", 
		 "basiset": "6-31G**", 
		 "properties": { 
			 "R2extent": 3307.2452, 
			 "electric_dipole_moment_norm": 5.44379712792, 
			 "electric_quadrupole_moment_norm": 13.7257783244, 
			 "total_energy": -797.124785254, 
			 "HOMO_LUMO_gap": 0.17938, 
			 "cosmo_polarized_energy": -11.11, 
			 "cosmo_cavitation_energy": 26.64, 
			 "cosmo_dispersion_energy": -19.03, 
			 "cosmo_repulsion_energy": 1.43, 
			 "cosmo_total_nonelectrostatic_energy": 9.04, 
			 "SMD_solvation_energy": 7.43 
		},
		"coords": [
			{
				"x": -3.1764720163,
				"y": -1.1278363778,
				"z": -3.3369652893,
				"element": "C" 
			},
			{
				"x": -1.9017720415,
				"y": -0.4938724746,
				"z": -3.3899585453,
				"element": "O" 
			},
			{
				"x": -1.3009193626,
				"y": -0.1328918368,
				"z": -2.2318166093,
				"element": "C" 
			},
			{
				"x": -0.0498559202,
				"y": 0.486292608,
				"z": -2.353636534,
				"element": "C" 
			},
			{
				"x": 0.6222703764,
				"y": 0.8823582047,
				"z": -1.209759097,
				"element": "C" 
			},
			{
				"x": 0.0941590804,
				"y": 0.6857669606,
				"z": 0.0781101394,
				"element": "C" 
			},
			{
				"x": 0.9324579097,
				"y": 1.1644322018,
				"z": 1.2044077196,
				"element": "C" 
			},
			{
				"x": 0.6770097334,
				"y": 1.0993178617,
				"z": 2.3887749091,
				"element": "O" 
			},
			{
				"x": -1.1686294274,
				"y": 0.0598358498,
				"z": 0.1881733832,
				"element": "C" 
			},
			{
				"x": -1.852260057,
				"y": -0.3420154586,
				"z": -0.9575398466,
				"element": "C" 
			},
			{
				"x": -1.8377010064,
				"y": -0.2049747217,
				"z": 1.5277743898,
				"element": "C" 
			},
			{
				"x": -2.0809226845,
				"y": 0.930818402,
				"z": 2.2028458622,
				"element": "F" 
			},
			{
				"x": -3.0406936616,
				"y": -0.8156184174,
				"z": 1.3554810527,
				"element": "F" 
			},
			{
				"x": -1.1050636914,
				"y": -1.0203967073,
				"z": 2.3044571968,
				"element": "F" 
			},
			{
				"x": -3.1296583791,
				"y": -2.0772255216,
				"z": -2.7906128246,
				"element": "H" 
			},
			{
				"x": -3.4544073444,
				"y": -1.3209274223,
				"z": -4.3733842727,
				"element": "H" 
			},
			{
				"x": -3.9285007549,
				"y": -0.4778631697,
				"z": -2.874337255,
				"element": "H" 
			},
			{
				"x": 0.3646713091,
				"y": 0.6417528958,
				"z": -3.343701112,
				"element": "H" 
			},
			{
				"x": 1.5929628156,
				"y": 1.3629824862,
				"z": -1.3031345936,
				"element": "H" 
			},
			{
				"x": 1.8865435188,
				"y": 1.6228576117,
				"z": 0.8570082936,
				"element": "H" 
			},
			{
				"x": -2.8156183961,
				"y": -0.8181929744,
				"z": -0.8464869667,
				"element": "H" 
			}
		],
		 "valence_orbital": [ 
			{
				"type": "occ",
				"energy": -0.34817,
				"method": "rhf"
			},
			{
				"type": "occ",
				"energy": -0.33902,
				"method": "rhf"
			},
			{
				"type": "occ",
				"energy": -0.2831,
				"method": "rhf"
			},
			{
				"type": "occ",
				"energy": -0.25397,
				"method": "rhf"
			},
			{
				"type": "occ",
				"energy": -0.2478,
				"method": "rhf"
			},
			{
				"type": "unocc",
				"energy": -0.06842,
				"method": "rhf"
			},
			{
				"type": "unocc",
				"energy": -0.03072,
				"method": "rhf"
			},
			{
				"type": "unocc",
				"energy": 0.03779,
				"method": "rhf"
			},
			{
				"type": "unocc",
				"energy": 0.08314,
				"method": "rhf"
			},
			{
				"type": "unocc",
				"energy": 0.08704,
				"method": "rhf"
			}
		],
		"cosmo_sigma_profile": { 
			"-0.025": 0.0,
			"-0.024": 0.0,
			"-0.023": 0.0,
			"-0.022": 0.0,
			"-0.021": 0.0,
			"-0.02": 0.0,
			"-0.019": 0.0,
			"-0.018": 0.0,
			"-0.017": 0.0,
			"-0.016": 0.0,
			"-0.015": 0.0,
			"-0.014": 0.0,
			"-0.013": 0.0,
			"-0.012": 0.0,
			"-0.011": 0.0,
			"-0.01": 0.0,
			"-0.009": 0.567095943746,
			"-0.008": 4.32900617273,
			"-0.007": 10.3765718164,
			"-0.006": 16.5761169095,
			"-0.005": 13.6386716977,
			"-0.004": 13.3937526141,
			"-0.003": 12.7021240273,
			"-0.002": 11.6780056674,
			"-0.001": 11.3381209025,
			"0.0": 15.8614834413,
			"0.001": 21.6909138002,
			"0.002": 20.5194024813,
			"0.003": 26.3738010068,
			"0.004": 6.34689708428,
			"0.005": 4.02499921825,
			"0.006": 3.61114661874,
			"0.007": 3.24154982477,
			"0.008": 3.55497798381,
			"0.009": 3.82335491336,
			"0.01": 3.19800972683,
			"0.011": 3.62962462554,
			"0.012": 2.60978487771,
			"0.013": 0.5830016709,
			"0.014": 0.0,
			"0.015": 0.0,
			"0.016": 0.0,
			"0.017": 0.0,
			"0.018": 0.0,
			"0.019": 0.0,
			"0.02": 0.0,
			"0.021": 0.0,
			"0.022": 0.0,
			"0.023": 0.0,
			"0.024": 0.0,
			"0.025": 0.0
		}
	}
}
