{
	 "smiles": "COC1=CC=C2C(CCC(=C/C3=CC=CC=C3)C2=O)=C1", 
	 "Tm": 348.35, 
	 "num_atms": 36, 
	 "gaussian": { 
		 "optdone": 1, 
		 "sigma_profile": "yes", 
		 "theory": "DFT", 
		 "functional": "B3LYP", 
		 "basiset": "6-31G**", 
		 "properties": { 
			 "R2extent": 8707.4707, 
			 "electric_dipole_moment_norm": 2.7549601685, 
			 "electric_quadrupole_moment_norm": 25.6413000994, 
			 "total_energy": -846.000748654, 
			 "HOMO_LUMO_gap": 0.15673, 
			 "cosmo_polarized_energy": -12.36, 
			 "cosmo_cavitation_energy": 39.07, 
			 "cosmo_dispersion_energy": -28.53, 
			 "cosmo_repulsion_energy": 2.15, 
			 "cosmo_total_nonelectrostatic_energy": 12.69, 
			 "SMD_solvation_energy": 7.16 
		},
		"coords": [
			{
				"x": 2.556194746,
				"y": 5.0213875626,
				"z": -2.4717310879,
				"element": "C" 
			},
			{
				"x": 1.8702865633,
				"y": 3.8098960193,
				"z": -2.756591084,
				"element": "O" 
			},
			{
				"x": 1.4278244564,
				"y": 3.0534125943,
				"z": -1.7166660229,
				"element": "C" 
			},
			{
				"x": 1.5961315572,
				"y": 3.386773946,
				"z": -0.3628896259,
				"element": "C" 
			},
			{
				"x": 1.0925005364,
				"y": 2.5310487602,
				"z": 0.6098432493,
				"element": "C" 
			},
			{
				"x": 0.4172821317,
				"y": 1.352449687,
				"z": 0.2675309625,
				"element": "C" 
			},
			{
				"x": 0.2590880167,
				"y": 1.0164056204,
				"z": -1.0951348568,
				"element": "C" 
			},
			{
				"x": -0.4152181187,
				"y": -0.284571396,
				"z": -1.4591169309,
				"element": "C" 
			},
			{
				"x": -1.5328205031,
				"y": -0.6485818928,
				"z": -0.4671313465,
				"element": "C" 
			},
			{
				"x": -1.0446232711,
				"y": -0.6247663472,
				"z": 0.964059427,
				"element": "C" 
			},
			{
				"x": -1.3679998463,
				"y": -1.5073432215,
				"z": 1.9365737574,
				"element": "C" 
			},
			{
				"x": -2.2789293889,
				"y": -2.6565187431,
				"z": 1.9089639126,
				"element": "C" 
			},
			{
				"x": -3.4495217313,
				"y": -2.7154333807,
				"z": 1.1270328272,
				"element": "C" 
			},
			{
				"x": -4.2757892949,
				"y": -3.8378007727,
				"z": 1.1608112759,
				"element": "C" 
			},
			{
				"x": -3.9558729899,
				"y": -4.9266889629,
				"z": 1.9741068767,
				"element": "C" 
			},
			{
				"x": -2.8104392988,
				"y": -4.8772405612,
				"z": 2.7726991858,
				"element": "C" 
			},
			{
				"x": -1.9917505541,
				"y": -3.7516878997,
				"z": 2.7488265603,
				"element": "C" 
			},
			{
				"x": -0.0959592844,
				"y": 0.4750700007,
				"z": 1.3525736926,
				"element": "C" 
			},
			{
				"x": 0.2346888735,
				"y": 0.6605391803,
				"z": 2.5234334211,
				"element": "O" 
			},
			{
				"x": 0.7631853903,
				"y": 1.8692760521,
				"z": -2.0707327425,
				"element": "C" 
			},
			{
				"x": 2.8150849785,
				"y": 5.4534456125,
				"z": -3.439339522,
				"element": "H" 
			},
			{
				"x": 1.9206164143,
				"y": 5.7250589062,
				"z": -1.9199526205,
				"element": "H" 
			},
			{
				"x": 3.4743280684,
				"y": 4.8403943797,
				"z": -1.899231855,
				"element": "H" 
			},
			{
				"x": 2.1070636584,
				"y": 4.2956691936,
				"z": -0.0689961834,
				"element": "H" 
			},
			{
				"x": 1.2114447753,
				"y": 2.7593711503,
				"z": 1.6640290332,
				"element": "H" 
			},
			{
				"x": -0.8168644006,
				"y": -0.2317638198,
				"z": -2.4765469897,
				"element": "H" 
			},
			{
				"x": 0.3337220558,
				"y": -1.089092402,
				"z": -1.4613904526,
				"element": "H" 
			},
			{
				"x": -2.355597455,
				"y": 0.0712469185,
				"z": -0.5911578635,
				"element": "H" 
			},
			{
				"x": -1.9360767505,
				"y": -1.6333252984,
				"z": -0.7170033837,
				"element": "H" 
			},
			{
				"x": -0.8487278749,
				"y": -1.3472048396,
				"z": 2.8807275747,
				"element": "H" 
			},
			{
				"x": -3.7363879684,
				"y": -1.8635008577,
				"z": 0.5211514252,
				"element": "H" 
			},
			{
				"x": -5.1784916273,
				"y": -3.857419943,
				"z": 0.5566674035,
				"element": "H" 
			},
			{
				"x": -4.6009120033,
				"y": -5.8002625647,
				"z": 1.9964952673,
				"element": "H" 
			},
			{
				"x": -2.5605111826,
				"y": -5.713035863,
				"z": 3.4199868905,
				"element": "H" 
			},
			{
				"x": -1.1067759845,
				"y": -3.7126666512,
				"z": 3.3784457936,
				"element": "H" 
			},
			{
				"x": 0.6557273065,
				"y": 1.6373598339,
				"z": -3.1261459685,
				"element": "H" 
			}
		],
		 "valence_orbital": [ 
			{
				"type": "occ",
				"energy": -0.25368,
				"method": "rhf"
			},
			{
				"type": "occ",
				"energy": -0.24991,
				"method": "rhf"
			},
			{
				"type": "occ",
				"energy": -0.23673,
				"method": "rhf"
			},
			{
				"type": "occ",
				"energy": -0.22506,
				"method": "rhf"
			},
			{
				"type": "occ",
				"energy": -0.22176,
				"method": "rhf"
			},
			{
				"type": "unocc",
				"energy": -0.06503,
				"method": "rhf"
			},
			{
				"type": "unocc",
				"energy": -0.01271,
				"method": "rhf"
			},
			{
				"type": "unocc",
				"energy": -0.00546,
				"method": "rhf"
			},
			{
				"type": "unocc",
				"energy": -0.00278,
				"method": "rhf"
			},
			{
				"type": "unocc",
				"energy": 0.03727,
				"method": "rhf"
			}
		],
		"cosmo_sigma_profile": { 
			"-0.025": 0.0,
			"-0.024": 0.0,
			"-0.023": 0.0,
			"-0.022": 0.0,
			"-0.021": 0.0,
			"-0.02": 0.0,
			"-0.019": 0.0,
			"-0.018": 0.0,
			"-0.017": 0.0,
			"-0.016": 0.0,
			"-0.015": 0.0,
			"-0.014": 0.0,
			"-0.013": 0.0,
			"-0.012": 0.0,
			"-0.011": 0.0,
			"-0.01": 0.0,
			"-0.009": 0.0,
			"-0.008": 0.0,
			"-0.007": 1.74076778833,
			"-0.006": 16.1613672595,
			"-0.005": 28.5454947909,
			"-0.004": 36.5108706603,
			"-0.003": 32.6024619866,
			"-0.002": 24.9593294164,
			"-0.001": 21.9360891163,
			"0.0": 16.3471845859,
			"0.001": 17.569565483,
			"0.002": 21.7866191559,
			"0.003": 26.6297973801,
			"0.004": 25.4603720209,
			"0.005": 14.915712723,
			"0.006": 4.68152464639,
			"0.007": 3.12393093601,
			"0.008": 2.72571681071,
			"0.009": 3.48468618982,
			"0.01": 2.91336584464,
			"0.011": 1.75649232635,
			"0.012": 3.04924848073,
			"0.013": 4.28070435283,
			"0.014": 0.354147538387,
			"0.015": 0.0,
			"0.016": 0.0,
			"0.017": 0.0,
			"0.018": 0.0,
			"0.019": 0.0,
			"0.02": 0.0,
			"0.021": 0.0,
			"0.022": 0.0,
			"0.023": 0.0,
			"0.024": 0.0,
			"0.025": 0.0
		}
	}
}
