{
	 "smiles": "FC(F)(F)C(=O)NC1CCC=CC1", 
	 "Tm": 332.15, 
	 "num_atms": 23, 
	 "gaussian": { 
		 "optdone": 1, 
		 "sigma_profile": "yes", 
		 "theory": "DFT", 
		 "functional": "B3LYP", 
		 "basiset": "6-31G**", 
		 "properties": { 
			 "R2extent": 2922.589, 
			 "electric_dipole_moment_norm": 4.21952113634, 
			 "electric_quadrupole_moment_norm": 9.51033545938, 
			 "total_energy": -740.377560343, 
			 "HOMO_LUMO_gap": 0.25153, 
			 "cosmo_polarized_energy": -8.88, 
			 "cosmo_cavitation_energy": 27.35, 
			 "cosmo_dispersion_energy": -19.0, 
			 "cosmo_repulsion_energy": 1.48, 
			 "cosmo_total_nonelectrostatic_energy": 9.82, 
			 "SMD_solvation_energy": 5.82 
		},
		"coords": [
			{
				"x": -0.9307687059,
				"y": 1.0203599271,
				"z": 2.5109930063,
				"element": "F" 
			},
			{
				"x": -1.4372336136,
				"y": 2.0080862349,
				"z": 1.7253010258,
				"element": "C" 
			},
			{
				"x": -0.9690467457,
				"y": 3.1761455053,
				"z": 2.188485212,
				"element": "F" 
			},
			{
				"x": -2.7693517214,
				"y": 1.9989020602,
				"z": 1.8690855468,
				"element": "F" 
			},
			{
				"x": -1.0570145225,
				"y": 1.8294543241,
				"z": 0.2358627904,
				"element": "C" 
			},
			{
				"x": -1.4958941291,
				"y": 2.6116046073,
				"z": -0.5916350025,
				"element": "O" 
			},
			{
				"x": -0.2257970634,
				"y": 0.7918712519,
				"z": -0.0057885908,
				"element": "N" 
			},
			{
				"x": 0.2331742624,
				"y": 0.4614169255,
				"z": -1.36025597,
				"element": "C" 
			},
			{
				"x": -0.7481310288,
				"y": -0.4944450195,
				"z": -2.0639509708,
				"element": "C" 
			},
			{
				"x": -0.8749309514,
				"y": -1.8285653773,
				"z": -1.3105726224,
				"element": "C" 
			},
			{
				"x": 0.4558801809,
				"y": -2.3386000172,
				"z": -0.8143313207,
				"element": "C" 
			},
			{
				"x": 1.5752791964,
				"y": -1.6053446508,
				"z": -0.807821172,
				"element": "C" 
			},
			{
				"x": 1.6311116717,
				"y": -0.1714642849,
				"z": -1.2832301275,
				"element": "C" 
			},
			{
				"x": 0.0260504161,
				"y": 0.179770722,
				"z": 0.7576327243,
				"element": "H" 
			},
			{
				"x": 0.271379916,
				"y": 1.4092842057,
				"z": -1.903015379,
				"element": "H" 
			},
			{
				"x": -1.7237032812,
				"y": -0.0095910071,
				"z": -2.1656104703,
				"element": "H" 
			},
			{
				"x": -0.3701949435,
				"y": -0.6762978137,
				"z": -3.0775396611,
				"element": "H" 
			},
			{
				"x": -1.5627260973,
				"y": -1.7191483968,
				"z": -0.4587440037,
				"element": "H" 
			},
			{
				"x": -1.3403477149,
				"y": -2.5808258294,
				"z": -1.9597516998,
				"element": "H" 
			},
			{
				"x": 0.4854143143,
				"y": -3.361166301,
				"z": -0.4417944905,
				"element": "H" 
			},
			{
				"x": 2.5042159416,
				"y": -2.043904724,
				"z": -0.4485542205,
				"element": "H" 
			},
			{
				"x": 2.0990965435,
				"y": -0.1234907627,
				"z": -2.2764096,
				"element": "H" 
			},
			{
				"x": 2.2718380758,
				"y": 0.4269484205,
				"z": -0.6234550043,
				"element": "H" 
			}
		],
		 "valence_orbital": [ 
			{
				"type": "occ",
				"energy": -0.34063,
				"method": "rhf"
			},
			{
				"type": "occ",
				"energy": -0.32208,
				"method": "rhf"
			},
			{
				"type": "occ",
				"energy": -0.27358,
				"method": "rhf"
			},
			{
				"type": "occ",
				"energy": -0.26795,
				"method": "rhf"
			},
			{
				"type": "occ",
				"energy": -0.25533,
				"method": "rhf"
			},
			{
				"type": "unocc",
				"energy": -0.0038,
				"method": "rhf"
			},
			{
				"type": "unocc",
				"energy": 0.00994,
				"method": "rhf"
			},
			{
				"type": "unocc",
				"energy": 0.07547,
				"method": "rhf"
			},
			{
				"type": "unocc",
				"energy": 0.09916,
				"method": "rhf"
			},
			{
				"type": "unocc",
				"energy": 0.11195,
				"method": "rhf"
			}
		],
		"cosmo_sigma_profile": { 
			"-0.025": 0.0,
			"-0.024": 0.0,
			"-0.023": 0.0,
			"-0.022": 0.0,
			"-0.021": 0.0,
			"-0.02": 0.0,
			"-0.019": 0.0,
			"-0.018": 0.0,
			"-0.017": 0.0,
			"-0.016": 0.0,
			"-0.015": 0.0,
			"-0.014": 0.0,
			"-0.013": 0.0,
			"-0.012": 0.0,
			"-0.011": 0.431111273251,
			"-0.01": 0.774519106596,
			"-0.009": 1.16037742358,
			"-0.008": 1.5725915178,
			"-0.007": 2.44131982126,
			"-0.006": 3.16077847465,
			"-0.005": 6.89132954668,
			"-0.004": 21.5015588981,
			"-0.003": 24.8066726406,
			"-0.002": 26.2825149357,
			"-0.001": 22.7547477944,
			"0.0": 16.9420239683,
			"0.001": 16.7660954128,
			"0.002": 30.1759883588,
			"0.003": 11.5989999391,
			"0.004": 4.6885960568,
			"0.005": 4.60386964856,
			"0.006": 3.29980351572,
			"0.007": 1.79767291582,
			"0.008": 1.16266466342,
			"0.009": 1.43259606599,
			"0.01": 2.02860739474,
			"0.011": 2.46465281025,
			"0.012": 4.59743676545,
			"0.013": 2.15316142351,
			"0.014": 0.0,
			"0.015": 0.0,
			"0.016": 0.0,
			"0.017": 0.0,
			"0.018": 0.0,
			"0.019": 0.0,
			"0.02": 0.0,
			"0.021": 0.0,
			"0.022": 0.0,
			"0.023": 0.0,
			"0.024": 0.0,
			"0.025": 0.0
		}
	}
}
