{
	 "smiles": "NNC(=O)C1=CC=C(C=C1)N1C=NN=N1", 
	 "Tm": 502.15, 
	 "num_atms": 23, 
	 "gaussian": { 
		 "optdone": 1, 
		 "sigma_profile": "yes", 
		 "theory": "DFT", 
		 "functional": "B3LYP", 
		 "basiset": "6-31G**", 
		 "properties": { 
			 "R2extent": 4492.1895, 
			 "electric_dipole_moment_norm": 3.0840441777, 
			 "electric_quadrupole_moment_norm": 31.6924778785, 
			 "total_energy": -713.316419684, 
			 "HOMO_LUMO_gap": 0.18438, 
			 "cosmo_polarized_energy": -23.83, 
			 "cosmo_cavitation_energy": 28.76, 
			 "cosmo_dispersion_energy": -20.89, 
			 "cosmo_repulsion_energy": 1.61, 
			 "cosmo_total_nonelectrostatic_energy": 9.48, 
			 "SMD_solvation_energy": 4.73 
		},
		"coords": [
			{
				"x": 0.4304773392,
				"y": -3.1142512501,
				"z": 1.0753391659,
				"element": "N" 
			},
			{
				"x": 1.4804069451,
				"y": -2.2790545774,
				"z": 1.5137557009,
				"element": "N" 
			},
			{
				"x": 1.8749580456,
				"y": -1.0899781981,
				"z": 0.9350582221,
				"element": "C" 
			},
			{
				"x": 3.0293346201,
				"y": -0.6951671879,
				"z": 1.0473018316,
				"element": "O" 
			},
			{
				"x": 0.8527705155,
				"y": -0.2825189221,
				"z": 0.1828260644,
				"element": "C" 
			},
			{
				"x": -0.4837355021,
				"y": -0.1473404316,
				"z": 0.584934999,
				"element": "C" 
			},
			{
				"x": -1.3559349907,
				"y": 0.6892966676,
				"z": -0.1053067473,
				"element": "C" 
			},
			{
				"x": -0.8918408754,
				"y": 1.3840760438,
				"z": -1.2258578331,
				"element": "C" 
			},
			{
				"x": 0.4375279769,
				"y": 1.2628073164,
				"z": -1.6429169136,
				"element": "C" 
			},
			{
				"x": 1.3055672675,
				"y": 0.4490006385,
				"z": -0.9229822095,
				"element": "C" 
			},
			{
				"x": -1.7862607734,
				"y": 2.2284735961,
				"z": -1.9370652076,
				"element": "N" 
			},
			{
				"x": -1.5564072078,
				"y": 3.327789951,
				"z": -2.6950065122,
				"element": "C" 
			},
			{
				"x": -2.702042759,
				"y": 3.7868751948,
				"z": -3.1469099767,
				"element": "N" 
			},
			{
				"x": -3.6557998012,
				"y": 2.9465941873,
				"z": -2.6521427483,
				"element": "N" 
			},
			{
				"x": -3.1319789532,
				"y": 2.0157789114,
				"z": -1.9297103194,
				"element": "N" 
			},
			{
				"x": -0.4411702076,
				"y": -2.8430740624,
				"z": 1.5194936511,
				"element": "H" 
			},
			{
				"x": 0.3137923274,
				"y": -3.0460571543,
				"z": 0.0676184761,
				"element": "H" 
			},
			{
				"x": 2.2592756298,
				"y": -2.7895568108,
				"z": 1.914197562,
				"element": "H" 
			},
			{
				"x": -0.8431726911,
				"y": -0.6615733875,
				"z": 1.4697316729,
				"element": "H" 
			},
			{
				"x": -2.384474485,
				"y": 0.8134560357,
				"z": 0.2111518924,
				"element": "H" 
			},
			{
				"x": 0.7895357085,
				"y": 1.7877934557,
				"z": -2.5246325842,
				"element": "H" 
			},
			{
				"x": 2.3480867907,
				"y": 0.366516829,
				"z": -1.2101501566,
				"element": "H" 
			},
			{
				"x": -0.5831149197,
				"y": 3.758813155,
				"z": -2.8685280298,
				"element": "H" 
			}
		],
		 "valence_orbital": [ 
			{
				"type": "occ",
				"energy": -0.29577,
				"method": "rhf"
			},
			{
				"type": "occ",
				"energy": -0.28952,
				"method": "rhf"
			},
			{
				"type": "occ",
				"energy": -0.27788,
				"method": "rhf"
			},
			{
				"type": "occ",
				"energy": -0.26748,
				"method": "rhf"
			},
			{
				"type": "occ",
				"energy": -0.25817,
				"method": "rhf"
			},
			{
				"type": "unocc",
				"energy": -0.07379,
				"method": "rhf"
			},
			{
				"type": "unocc",
				"energy": -0.04025,
				"method": "rhf"
			},
			{
				"type": "unocc",
				"energy": -0.01854,
				"method": "rhf"
			},
			{
				"type": "unocc",
				"energy": 0.00987,
				"method": "rhf"
			},
			{
				"type": "unocc",
				"energy": 0.03298,
				"method": "rhf"
			}
		],
		"cosmo_sigma_profile": { 
			"-0.025": 0.0,
			"-0.024": 0.0,
			"-0.023": 0.0,
			"-0.022": 0.0,
			"-0.021": 0.0,
			"-0.02": 0.0,
			"-0.019": 0.0,
			"-0.018": 0.0,
			"-0.017": 0.0,
			"-0.016": 0.0,
			"-0.015": 0.0,
			"-0.014": 0.11972730049,
			"-0.013": 2.46368408736,
			"-0.012": 6.63747008113,
			"-0.011": 6.22230615259,
			"-0.01": 6.59420107156,
			"-0.009": 5.7844854321,
			"-0.008": 8.24196357661,
			"-0.007": 10.348894229,
			"-0.006": 11.5930581613,
			"-0.005": 11.634995234,
			"-0.004": 12.5203516518,
			"-0.003": 11.5259170293,
			"-0.002": 11.2423248952,
			"-0.001": 9.84540574151,
			"0.0": 11.3394517472,
			"0.001": 15.7076798845,
			"0.002": 13.8447704813,
			"0.003": 8.32718657581,
			"0.004": 5.76770743785,
			"0.005": 4.76280658761,
			"0.006": 5.79770041697,
			"0.007": 6.82829395898,
			"0.008": 6.70382131421,
			"0.009": 5.53905805765,
			"0.01": 7.3329012352,
			"0.011": 5.78056948159,
			"0.012": 5.47834706492,
			"0.013": 8.5552583604,
			"0.014": 3.34490348707,
			"0.015": 0.706181109879,
			"0.016": 0.302220519881,
			"0.017": 0.0,
			"0.018": 0.0,
			"0.019": 0.0,
			"0.02": 0.0,
			"0.021": 0.0,
			"0.022": 0.0,
			"0.023": 0.0,
			"0.024": 0.0,
			"0.025": 0.0
		}
	}
}
