{
	 "smiles": "OC1=CC=C(OCC2=CC=CC=C2)C=C1", 
	 "Tm": 395.15, 
	 "num_atms": 27, 
	 "gaussian": { 
		 "optdone": 1, 
		 "sigma_profile": "yes", 
		 "theory": "DFT", 
		 "functional": "B3LYP", 
		 "basiset": "6-31G**", 
		 "properties": { 
			 "R2extent": 4020.415, 
			 "electric_dipole_moment_norm": 2.38226929838, 
			 "electric_quadrupole_moment_norm": 6.25313750369, 
			 "total_energy": -653.046984507, 
			 "HOMO_LUMO_gap": 0.1901, 
			 "cosmo_polarized_energy": -11.36, 
			 "cosmo_cavitation_energy": 30.96, 
			 "cosmo_dispersion_energy": -22.34, 
			 "cosmo_repulsion_energy": 1.76, 
			 "cosmo_total_nonelectrostatic_energy": 10.38, 
			 "SMD_solvation_energy": 5.65 
		},
		"coords": [
			{
				"x": -0.1458629456,
				"y": 1.0172017403,
				"z": -4.7592060664,
				"element": "O" 
			},
			{
				"x": -0.3985100988,
				"y": 0.9119784637,
				"z": -3.4156345863,
				"element": "C" 
			},
			{
				"x": -1.6178448621,
				"y": 0.3401885416,
				"z": -3.0297797554,
				"element": "C" 
			},
			{
				"x": -1.9301320519,
				"y": 0.2103727088,
				"z": -1.6832181032,
				"element": "C" 
			},
			{
				"x": -1.0334219047,
				"y": 0.6443292145,
				"z": -0.6961353034,
				"element": "C" 
			},
			{
				"x": -1.4530333897,
				"y": 0.469677424,
				"z": 0.602686788,
				"element": "O" 
			},
			{
				"x": -0.6993612964,
				"y": 1.0611877333,
				"z": 1.6537559342,
				"element": "C" 
			},
			{
				"x": 0.5438833358,
				"y": 0.2845282491,
				"z": 2.0488189781,
				"element": "C" 
			},
			{
				"x": 1.6302435513,
				"y": 0.9497398073,
				"z": 2.6293829022,
				"element": "C" 
			},
			{
				"x": 2.7539799191,
				"y": 0.238847023,
				"z": 3.0542247216,
				"element": "C" 
			},
			{
				"x": 2.805541001,
				"y": -1.1469172653,
				"z": 2.8941299731,
				"element": "C" 
			},
			{
				"x": 1.7272106478,
				"y": -1.8154557543,
				"z": 2.3102509075,
				"element": "C" 
			},
			{
				"x": 0.6010734356,
				"y": -1.105071837,
				"z": 1.8935044156,
				"element": "C" 
			},
			{
				"x": 0.1861541009,
				"y": 1.2078405333,
				"z": -1.0774935769,
				"element": "C" 
			},
			{
				"x": 0.4957758845,
				"y": 1.3416373079,
				"z": -2.4359488077,
				"element": "C" 
			},
			{
				"x": 0.7220811083,
				"y": 1.4215319891,
				"z": -4.8836943406,
				"element": "H" 
			},
			{
				"x": -2.3087348411,
				"y": 0.0080786709,
				"z": -3.7976815355,
				"element": "H" 
			},
			{
				"x": -2.8741625147,
				"y": -0.2240828477,
				"z": -1.3705739138,
				"element": "H" 
			},
			{
				"x": -1.3973896649,
				"y": 1.0940932223,
				"z": 2.4982588266,
				"element": "H" 
			},
			{
				"x": -0.4401088873,
				"y": 2.099563513,
				"z": 1.404594265,
				"element": "H" 
			},
			{
				"x": 1.5982983104,
				"y": 2.0307150334,
				"z": 2.7497460157,
				"element": "H" 
			},
			{
				"x": 3.5904960621,
				"y": 0.7679431539,
				"z": 3.5021460182,
				"element": "H" 
			},
			{
				"x": 3.6813671407,
				"y": -1.7015245635,
				"z": 3.2184832281,
				"element": "H" 
			},
			{
				"x": 1.7627056838,
				"y": -2.8933751464,
				"z": 2.1790787662,
				"element": "H" 
			},
			{
				"x": -0.2373263576,
				"y": -1.6207108777,
				"z": 1.4359716937,
				"element": "H" 
			},
			{
				"x": 0.9119191667,
				"y": 1.5245257796,
				"z": -0.3385723582,
				"element": "H" 
			},
			{
				"x": 1.449859467,
				"y": 1.7791581828,
				"z": -2.7232950864,
				"element": "H" 
			}
		],
		 "valence_orbital": [ 
			{
				"type": "occ",
				"energy": -0.29179,
				"method": "rhf"
			},
			{
				"type": "occ",
				"energy": -0.2517,
				"method": "rhf"
			},
			{
				"type": "occ",
				"energy": -0.25009,
				"method": "rhf"
			},
			{
				"type": "occ",
				"energy": -0.24343,
				"method": "rhf"
			},
			{
				"type": "occ",
				"energy": -0.19738,
				"method": "rhf"
			},
			{
				"type": "unocc",
				"energy": -0.00728,
				"method": "rhf"
			},
			{
				"type": "unocc",
				"energy": -0.00385,
				"method": "rhf"
			},
			{
				"type": "unocc",
				"energy": 0.00309,
				"method": "rhf"
			},
			{
				"type": "unocc",
				"energy": 0.02981,
				"method": "rhf"
			},
			{
				"type": "unocc",
				"energy": 0.07471,
				"method": "rhf"
			}
		],
		"cosmo_sigma_profile": { 
			"-0.025": 0.0,
			"-0.024": 0.0,
			"-0.023": 0.0,
			"-0.022": 0.0,
			"-0.021": 0.0,
			"-0.02": 0.0,
			"-0.019": 0.0,
			"-0.018": 0.0842867676479,
			"-0.017": 1.01743452783,
			"-0.016": 1.24617530228,
			"-0.015": 0.520286904841,
			"-0.014": 1.44681918603,
			"-0.013": 0.766326093253,
			"-0.012": 1.13578578727,
			"-0.011": 0.533701268434,
			"-0.01": 0.738374939539,
			"-0.009": 1.68060584531,
			"-0.008": 1.4413425301,
			"-0.007": 1.39272575314,
			"-0.006": 13.0107816845,
			"-0.005": 22.2348901463,
			"-0.004": 21.208325839,
			"-0.003": 20.9356005446,
			"-0.002": 13.7809531819,
			"-0.001": 13.2663502237,
			"0.0": 11.3045785145,
			"0.001": 14.8563410355,
			"0.002": 13.7887061766,
			"0.003": 16.3889367156,
			"0.004": 22.1569235507,
			"0.005": 23.0222879847,
			"0.006": 15.2707362731,
			"0.007": 2.15348137784,
			"0.008": 2.54212674033,
			"0.009": 2.52691232606,
			"0.01": 2.52269727008,
			"0.011": 2.39704754939,
			"0.012": 1.50435606889,
			"0.013": 0.0,
			"0.014": 0.0,
			"0.015": 0.0,
			"0.016": 0.0,
			"0.017": 0.0,
			"0.018": 0.0,
			"0.019": 0.0,
			"0.02": 0.0,
			"0.021": 0.0,
			"0.022": 0.0,
			"0.023": 0.0,
			"0.024": 0.0,
			"0.025": 0.0
		}
	}
}
