{
	 "smiles": "BrC1=CC(N=C=S)=C(Br)C=C1", 
	 "Tm": 323.15, 
	 "num_atms": 14, 
	 "gaussian": { 
		 "optdone": 1, 
		 "sigma_profile": "yes", 
		 "theory": "DFT", 
		 "functional": "B3LYP", 
		 "basiset": "6-31G**", 
		 "properties": { 
			 "R2extent": 6566.0317, 
			 "electric_dipole_moment_norm": 2.94529346246, 
			 "electric_quadrupole_moment_norm": 4.54398589016, 
			 "total_energy": -5864.28837269, 
			 "HOMO_LUMO_gap": 0.17498, 
			 "cosmo_polarized_energy": -5.42, 
			 "cosmo_cavitation_energy": 26.76, 
			 "cosmo_dispersion_energy": -20.47, 
			 "cosmo_repulsion_energy": 1.62, 
			 "cosmo_total_nonelectrostatic_energy": 7.91, 
			 "SMD_solvation_energy": 2.9 
		},
		"coords": [
			{
				"x": 4.4128916268,
				"y": -1.014583711,
				"z": -2.594388739,
				"element": "Br" 
			},
			{
				"x": 3.0284041685,
				"y": -1.053505439,
				"z": -1.2853389409,
				"element": "C" 
			},
			{
				"x": 1.7069377076,
				"y": -1.1597869569,
				"z": -1.6995375424,
				"element": "C" 
			},
			{
				"x": 0.6762549109,
				"y": -1.1895074016,
				"z": -0.7422798211,
				"element": "C" 
			},
			{
				"x": -0.6177168647,
				"y": -1.2943195999,
				"z": -1.1567708531,
				"element": "N" 
			},
			{
				"x": -1.7465368003,
				"y": -1.3840658527,
				"z": -1.5181895659,
				"element": "C" 
			},
			{
				"x": -3.2525551601,
				"y": -1.5046423504,
				"z": -2.0084199037,
				"element": "S" 
			},
			{
				"x": 1.0057692403,
				"y": -1.1105600035,
				"z": 0.6270230717,
				"element": "C" 
			},
			{
				"x": -0.3612350614,
				"y": -1.1480172729,
				"z": 1.9413050515,
				"element": "Br" 
			},
			{
				"x": 2.3378935215,
				"y": -1.00457416,
				"z": 1.0181103291,
				"element": "C" 
			},
			{
				"x": 3.3576443696,
				"y": -0.9751870937,
				"z": 0.0680376731,
				"element": "C" 
			},
			{
				"x": 1.452395554,
				"y": -1.2205804272,
				"z": -2.7503092537,
				"element": "H" 
			},
			{
				"x": 2.5782163728,
				"y": -0.9446501261,
				"z": 2.0733137008,
				"element": "H" 
			},
			{
				"x": 4.3924364143,
				"y": -0.8926196052,
				"z": 0.3781447936,
				"element": "H" 
			}
		],
		 "valence_orbital": [ 
			{
				"type": "occ",
				"energy": -0.30366,
				"method": "rhf"
			},
			{
				"type": "occ",
				"energy": -0.30336,
				"method": "rhf"
			},
			{
				"type": "occ",
				"energy": -0.26255,
				"method": "rhf"
			},
			{
				"type": "occ",
				"energy": -0.26243,
				"method": "rhf"
			},
			{
				"type": "occ",
				"energy": -0.24138,
				"method": "rhf"
			},
			{
				"type": "unocc",
				"energy": -0.0664,
				"method": "rhf"
			},
			{
				"type": "unocc",
				"energy": -0.04241,
				"method": "rhf"
			},
			{
				"type": "unocc",
				"energy": -0.02214,
				"method": "rhf"
			},
			{
				"type": "unocc",
				"energy": -0.00678,
				"method": "rhf"
			},
			{
				"type": "unocc",
				"energy": 0.00043,
				"method": "rhf"
			}
		],
		"cosmo_sigma_profile": { 
			"-0.025": 0.0,
			"-0.024": 0.0,
			"-0.023": 0.0,
			"-0.022": 0.0,
			"-0.021": 0.0,
			"-0.02": 0.0,
			"-0.019": 0.0,
			"-0.018": 0.0,
			"-0.017": 0.0,
			"-0.016": 0.0,
			"-0.015": 0.0,
			"-0.014": 0.0,
			"-0.013": 0.0,
			"-0.012": 0.0,
			"-0.011": 0.0,
			"-0.01": 0.0617924372162,
			"-0.009": 2.00696667379,
			"-0.008": 5.92389636802,
			"-0.007": 5.74138663361,
			"-0.006": 5.69508757788,
			"-0.005": 7.48184484067,
			"-0.004": 8.9771970493,
			"-0.003": 12.1179473221,
			"-0.002": 18.1078031682,
			"-0.001": 24.4122842129,
			"0.0": 28.9088481037,
			"0.001": 26.6111069818,
			"0.002": 20.4848099403,
			"0.003": 22.709583754,
			"0.004": 20.4684550924,
			"0.005": 13.655805412,
			"0.006": 3.66572665903,
			"0.007": 0.0,
			"0.008": 0.0,
			"0.009": 0.0,
			"0.01": 0.0,
			"0.011": 0.0,
			"0.012": 0.0,
			"0.013": 0.0,
			"0.014": 0.0,
			"0.015": 0.0,
			"0.016": 0.0,
			"0.017": 0.0,
			"0.018": 0.0,
			"0.019": 0.0,
			"0.02": 0.0,
			"0.021": 0.0,
			"0.022": 0.0,
			"0.023": 0.0,
			"0.024": 0.0,
			"0.025": 0.0
		}
	}
}
