{
	 "smiles": "COC1=CC=CC2=C1N=C(N)S2", 
	 "Tm": 429.15, 
	 "num_atms": 20, 
	 "gaussian": { 
		 "optdone": 1, 
		 "sigma_profile": "yes", 
		 "theory": "DFT", 
		 "functional": "B3LYP", 
		 "basiset": "6-31G**", 
		 "properties": { 
			 "R2extent": 2934.9019, 
			 "electric_dipole_moment_norm": 2.62401956929, 
			 "electric_quadrupole_moment_norm": 12.3822937932, 
			 "total_energy": -892.581631334, 
			 "HOMO_LUMO_gap": 0.19048, 
			 "cosmo_polarized_energy": -11.0, 
			 "cosmo_cavitation_energy": 25.38, 
			 "cosmo_dispersion_energy": -19.61, 
			 "cosmo_repulsion_energy": 1.52, 
			 "cosmo_total_nonelectrostatic_energy": 7.3, 
			 "SMD_solvation_energy": 3.74 
		},
		"coords": [
			{
				"x": -1.6009367176,
				"y": 1.363621346,
				"z": 0.1743691731,
				"element": "C" 
			},
			{
				"x": -0.8492329832,
				"y": 0.4123077394,
				"z": 0.9295567202,
				"element": "O" 
			},
			{
				"x": -0.1706890773,
				"y": -0.5844329221,
				"z": 0.2935126647,
				"element": "C" 
			},
			{
				"x": 0.0037699788,
				"y": -1.7642387344,
				"z": 1.0258075973,
				"element": "C" 
			},
			{
				"x": 0.7148900357,
				"y": -2.8500827888,
				"z": 0.5106645531,
				"element": "C" 
			},
			{
				"x": 1.2733346167,
				"y": -2.8017730931,
				"z": -0.7668474298,
				"element": "C" 
			},
			{
				"x": 1.0997355346,
				"y": -1.6279866871,
				"z": -1.4949106639,
				"element": "C" 
			},
			{
				"x": 0.397953045,
				"y": -0.5001337561,
				"z": -0.9975079113,
				"element": "C" 
			},
			{
				"x": 0.3711636126,
				"y": 0.6069267322,
				"z": -1.8397273716,
				"element": "N" 
			},
			{
				"x": 0.9934539377,
				"y": 0.3654386345,
				"z": -2.9477749969,
				"element": "C" 
			},
			{
				"x": 1.0703894356,
				"y": 1.2490220941,
				"z": -3.9973908948,
				"element": "N" 
			},
			{
				"x": 1.704847321,
				"y": -1.2622001447,
				"z": -3.1119299161,
				"element": "S" 
			},
			{
				"x": -2.2140436434,
				"y": 1.8942195012,
				"z": 0.9063728513,
				"element": "H" 
			},
			{
				"x": -0.9542170914,
				"y": 2.0633491611,
				"z": -0.3576154699,
				"element": "H" 
			},
			{
				"x": -2.2521614435,
				"y": 0.8651689996,
				"z": -0.5530318776,
				"element": "H" 
			},
			{
				"x": -0.438038308,
				"y": -1.8064878129,
				"z": 2.0157515122,
				"element": "H" 
			},
			{
				"x": 0.8255819722,
				"y": -3.7475767564,
				"z": 1.111699165,
				"element": "H" 
			},
			{
				"x": 1.8225228053,
				"y": -3.644129332,
				"z": -1.17320257,
				"element": "H" 
			},
			{
				"x": 1.8871144996,
				"y": 1.1900692791,
				"z": -4.5884907602,
				"element": "H" 
			},
			{
				"x": 0.8086624697,
				"y": 2.1930185403,
				"z": -3.7449043748,
				"element": "H" 
			}
		],
		 "valence_orbital": [ 
			{
				"type": "occ",
				"energy": -0.29513,
				"method": "rhf"
			},
			{
				"type": "occ",
				"energy": -0.27979,
				"method": "rhf"
			},
			{
				"type": "occ",
				"energy": -0.27,
				"method": "rhf"
			},
			{
				"type": "occ",
				"energy": -0.21783,
				"method": "rhf"
			},
			{
				"type": "occ",
				"energy": -0.20052,
				"method": "rhf"
			},
			{
				"type": "unocc",
				"energy": -0.01004,
				"method": "rhf"
			},
			{
				"type": "unocc",
				"energy": 0.00374,
				"method": "rhf"
			},
			{
				"type": "unocc",
				"energy": 0.00905,
				"method": "rhf"
			},
			{
				"type": "unocc",
				"energy": 0.04749,
				"method": "rhf"
			},
			{
				"type": "unocc",
				"energy": 0.06766,
				"method": "rhf"
			}
		],
		"cosmo_sigma_profile": { 
			"-0.025": 0.0,
			"-0.024": 0.0,
			"-0.023": 0.0,
			"-0.022": 0.0,
			"-0.021": 0.0,
			"-0.02": 0.0,
			"-0.019": 0.0,
			"-0.018": 0.0,
			"-0.017": 0.0,
			"-0.016": 0.0,
			"-0.015": 0.624439351053,
			"-0.014": 2.58022540878,
			"-0.013": 2.60116011023,
			"-0.012": 2.11441827145,
			"-0.011": 2.34400382247,
			"-0.01": 2.96299153753,
			"-0.009": 2.10346608595,
			"-0.008": 1.27985872546,
			"-0.007": 2.74545022435,
			"-0.006": 6.65021333714,
			"-0.005": 10.9916553502,
			"-0.004": 12.9200389583,
			"-0.003": 14.8395472368,
			"-0.002": 13.4787054729,
			"-0.001": 10.5168055401,
			"0.0": 11.8738912447,
			"0.001": 12.1391967563,
			"0.002": 15.6759016623,
			"0.003": 18.3140134349,
			"0.004": 18.1781721855,
			"0.005": 15.9327870444,
			"0.006": 8.07603191927,
			"0.007": 4.15654748454,
			"0.008": 4.35650070255,
			"0.009": 3.86617827663,
			"0.01": 1.82655926447,
			"0.011": 1.59194047209,
			"0.012": 0.12193785663,
			"0.013": 0.0,
			"0.014": 0.0,
			"0.015": 0.0,
			"0.016": 0.0,
			"0.017": 0.0,
			"0.018": 0.0,
			"0.019": 0.0,
			"0.02": 0.0,
			"0.021": 0.0,
			"0.022": 0.0,
			"0.023": 0.0,
			"0.024": 0.0,
			"0.025": 0.0
		}
	}
}
