{
	 "smiles": "OCC1CC1", 
	 "Tm": 213.15, 
	 "num_atms": 13, 
	 "gaussian": { 
		 "optdone": 1, 
		 "sigma_profile": "yes", 
		 "theory": "DFT", 
		 "functional": "B3LYP", 
		 "basiset": "6-31G**", 
		 "properties": { 
			 "R2extent": 1443.4454, 
			 "electric_dipole_moment_norm": 1.52136608349, 
			 "electric_quadrupole_moment_norm": 8.25951476965, 
			 "total_energy": -232.42758305, 
			 "HOMO_LUMO_gap": 0.33592, 
			 "cosmo_polarized_energy": -5.9, 
			 "cosmo_cavitation_energy": 15.34, 
			 "cosmo_dispersion_energy": -11.66, 
			 "cosmo_repulsion_energy": 1.04, 
			 "cosmo_total_nonelectrostatic_energy": 4.72, 
			 "SMD_solvation_energy": 2.45 
		},
		"coords": [
			{
				"x": -2.1932921554,
				"y": 2.8431844601,
				"z": -0.2976349978,
				"element": "O" 
			},
			{
				"x": -2.0498505673,
				"y": 1.8588162985,
				"z": 0.7183596207,
				"element": "C" 
			},
			{
				"x": -0.6855177378,
				"y": 1.8629377018,
				"z": 1.3905307301,
				"element": "C" 
			},
			{
				"x": 0.5682269407,
				"y": 2.1985034726,
				"z": 0.6198799891,
				"element": "C" 
			},
			{
				"x": 0.0293620474,
				"y": 3.1607380135,
				"z": 1.6542033365,
				"element": "C" 
			},
			{
				"x": -1.67355916,
				"y": 2.5572513922,
				"z": -1.059122155,
				"element": "H" 
			},
			{
				"x": -2.8232197474,
				"y": 2.0878169139,
				"z": 1.4606867674,
				"element": "H" 
			},
			{
				"x": -2.2668646318,
				"y": 0.8521154535,
				"z": 0.3257266107,
				"element": "H" 
			},
			{
				"x": -0.5839996284,
				"y": 1.087810261,
				"z": 2.1488986674,
				"element": "H" 
			},
			{
				"x": 1.4741862251,
				"y": 1.6426749633,
				"z": 0.8414984168,
				"element": "H" 
			},
			{
				"x": 0.4762328965,
				"y": 2.4924201918,
				"z": -0.422525002,
				"element": "H" 
			},
			{
				"x": -0.4458059471,
				"y": 4.062378693,
				"z": 1.2805070963,
				"element": "H" 
			},
			{
				"x": 0.5715014655,
				"y": 3.2792521848,
				"z": 2.5873909199,
				"element": "H" 
			}
		],
		 "valence_orbital": [ 
			{
				"type": "occ",
				"energy": -0.36024,
				"method": "rhf"
			},
			{
				"type": "occ",
				"energy": -0.33397,
				"method": "rhf"
			},
			{
				"type": "occ",
				"energy": -0.29312,
				"method": "rhf"
			},
			{
				"type": "occ",
				"energy": -0.27798,
				"method": "rhf"
			},
			{
				"type": "occ",
				"energy": -0.26603,
				"method": "rhf"
			},
			{
				"type": "unocc",
				"energy": 0.06989,
				"method": "rhf"
			},
			{
				"type": "unocc",
				"energy": 0.10048,
				"method": "rhf"
			},
			{
				"type": "unocc",
				"energy": 0.13287,
				"method": "rhf"
			},
			{
				"type": "unocc",
				"energy": 0.13993,
				"method": "rhf"
			},
			{
				"type": "unocc",
				"energy": 0.15819,
				"method": "rhf"
			}
		],
		"cosmo_sigma_profile": { 
			"-0.025": 0.0,
			"-0.024": 0.0,
			"-0.023": 0.0,
			"-0.022": 0.0,
			"-0.021": 0.0,
			"-0.02": 0.0,
			"-0.019": 0.0,
			"-0.018": 0.0,
			"-0.017": 0.0,
			"-0.016": 0.0,
			"-0.015": 0.543865908262,
			"-0.014": 1.20555667151,
			"-0.013": 0.490426556799,
			"-0.012": 0.97549598494,
			"-0.011": 1.18449465948,
			"-0.01": 1.41516836736,
			"-0.009": 1.0650817274,
			"-0.008": 0.454017727644,
			"-0.007": 1.2904460839,
			"-0.006": 1.67571656114,
			"-0.005": 1.87264994017,
			"-0.004": 9.28665560834,
			"-0.003": 14.5025776242,
			"-0.002": 14.7200391315,
			"-0.001": 11.3947000516,
			"0.0": 8.85510846769,
			"0.001": 9.43257124288,
			"0.002": 7.45317600972,
			"0.003": 7.33844628741,
			"0.004": 4.90093278898,
			"0.005": 5.27818437086,
			"0.006": 2.60327881164,
			"0.007": 1.59752554176,
			"0.008": 0.688731039332,
			"0.009": 1.1591764419,
			"0.01": 1.89508762614,
			"0.011": 1.05347268908,
			"0.012": 1.08808372954,
			"0.013": 1.42333750693,
			"0.014": 2.04637174235,
			"0.015": 0.482223562495,
			"0.016": 0.0,
			"0.017": 0.0,
			"0.018": 0.0,
			"0.019": 0.0,
			"0.02": 0.0,
			"0.021": 0.0,
			"0.022": 0.0,
			"0.023": 0.0,
			"0.024": 0.0,
			"0.025": 0.0
		}
	}
}
