{
	 "smiles": "COC(=O)C1=C(N)C(=CC=C1)C(O)=O", 
	 "Tm": 437.15, 
	 "num_atms": 23, 
	 "gaussian": { 
		 "optdone": 1, 
		 "sigma_profile": "yes", 
		 "theory": "DFT", 
		 "functional": "B3LYP", 
		 "basiset": "6-31G**", 
		 "properties": { 
			 "R2extent": 3831.6521, 
			 "electric_dipole_moment_norm": 1.39728770481, 
			 "electric_quadrupole_moment_norm": 14.6374390263, 
			 "total_energy": -704.071893215, 
			 "HOMO_LUMO_gap": 0.15494, 
			 "cosmo_polarized_energy": -11.44, 
			 "cosmo_cavitation_energy": 27.19, 
			 "cosmo_dispersion_energy": -20.6, 
			 "cosmo_repulsion_energy": 1.6, 
			 "cosmo_total_nonelectrostatic_energy": 8.2, 
			 "SMD_solvation_energy": 7.1 
		},
		"coords": [
			{
				"x": -1.2979775135,
				"y": 1.0360766552,
				"z": -2.3903718981,
				"element": "C" 
			},
			{
				"x": -0.7450992494,
				"y": 0.6051992524,
				"z": -1.1344168412,
				"element": "O" 
			},
			{
				"x": -1.6184166984,
				"y": -0.0460371249,
				"z": -0.3101547191,
				"element": "C" 
			},
			{
				"x": -2.7736209646,
				"y": -0.2324405774,
				"z": -0.643346105,
				"element": "O" 
			},
			{
				"x": -1.0370750027,
				"y": -0.4863669456,
				"z": 0.9838687404,
				"element": "C" 
			},
			{
				"x": 0.3194952974,
				"y": -0.2830614103,
				"z": 1.4090201475,
				"element": "C" 
			},
			{
				"x": 1.2339567643,
				"y": 0.3508488982,
				"z": 0.6474317166,
				"element": "N" 
			},
			{
				"x": 0.6873509486,
				"y": -0.7880828062,
				"z": 2.7058831479,
				"element": "C" 
			},
			{
				"x": -0.2580941699,
				"y": -1.4483895746,
				"z": 3.502779707,
				"element": "C" 
			},
			{
				"x": -1.5665770153,
				"y": -1.6370615974,
				"z": 3.0765357269,
				"element": "C" 
			},
			{
				"x": -1.9351710028,
				"y": -1.1536867422,
				"z": 1.8254856645,
				"element": "C" 
			},
			{
				"x": 2.059108431,
				"y": -0.6156047081,
				"z": 3.2065093187,
				"element": "C" 
			},
			{
				"x": 2.2620347859,
				"y": -1.1403076609,
				"z": 4.441294179,
				"element": "O" 
			},
			{
				"x": 2.9851938441,
				"y": -0.0607164732,
				"z": 2.6196349172,
				"element": "O" 
			},
			{
				"x": -1.6623670759,
				"y": 0.1796499305,
				"z": -2.9619289081,
				"element": "H" 
			},
			{
				"x": -0.4808541826,
				"y": 1.5300764168,
				"z": -2.9162189485,
				"element": "H" 
			},
			{
				"x": -2.1258901077,
				"y": 1.7292845375,
				"z": -2.2262985324,
				"element": "H" 
			},
			{
				"x": 2.169363207,
				"y": 0.4522319446,
				"z": 1.0230336953,
				"element": "H" 
			},
			{
				"x": 0.9629782871,
				"y": 0.6988337923,
				"z": -0.2572028285,
				"element": "H" 
			},
			{
				"x": 0.0578438885,
				"y": -1.8140195815,
				"z": 4.4728379555,
				"element": "H" 
			},
			{
				"x": -2.2858057994,
				"y": -2.1500736676,
				"z": 3.7052319619,
				"element": "H" 
			},
			{
				"x": -2.9473739042,
				"y": -1.2810033609,
				"z": 1.4568249182,
				"element": "H" 
			},
			{
				"x": 3.1935972323,
				"y": -0.9591491968,
				"z": 4.6462669841,
				"element": "H" 
			}
		],
		 "valence_orbital": [ 
			{
				"type": "occ",
				"energy": -0.30598,
				"method": "rhf"
			},
			{
				"type": "occ",
				"energy": -0.28117,
				"method": "rhf"
			},
			{
				"type": "occ",
				"energy": -0.27725,
				"method": "rhf"
			},
			{
				"type": "occ",
				"energy": -0.26361,
				"method": "rhf"
			},
			{
				"type": "occ",
				"energy": -0.21145,
				"method": "rhf"
			},
			{
				"type": "unocc",
				"energy": -0.05651,
				"method": "rhf"
			},
			{
				"type": "unocc",
				"energy": -0.01904,
				"method": "rhf"
			},
			{
				"type": "unocc",
				"energy": 0.03615,
				"method": "rhf"
			},
			{
				"type": "unocc",
				"energy": 0.0786,
				"method": "rhf"
			},
			{
				"type": "unocc",
				"energy": 0.08195,
				"method": "rhf"
			}
		],
		"cosmo_sigma_profile": { 
			"-0.025": 0.0,
			"-0.024": 0.0,
			"-0.023": 0.0,
			"-0.022": 0.0,
			"-0.021": 0.0,
			"-0.02": 0.0,
			"-0.019": 0.0739896685435,
			"-0.018": 0.592812863275,
			"-0.017": 0.833214093171,
			"-0.016": 1.04297586206,
			"-0.015": 0.934760042848,
			"-0.014": 0.342329032723,
			"-0.013": 0.0404903843812,
			"-0.012": 0.464491751376,
			"-0.011": 1.64781124494,
			"-0.01": 0.971155235945,
			"-0.009": 1.8162321053,
			"-0.008": 2.17582142915,
			"-0.007": 3.6020063877,
			"-0.006": 11.482432405,
			"-0.005": 14.1900354121,
			"-0.004": 15.2232171996,
			"-0.003": 14.9819547395,
			"-0.002": 14.8813837153,
			"-0.001": 14.7660514019,
			"0.0": 16.8206046555,
			"0.001": 20.1589595575,
			"0.002": 19.8964553007,
			"0.003": 15.1361407583,
			"0.004": 10.2893453492,
			"0.005": 5.50337455464,
			"0.006": 5.10975067374,
			"0.007": 3.83766417252,
			"0.008": 3.16437907014,
			"0.009": 3.4781924621,
			"0.01": 3.23847798455,
			"0.011": 4.80697984764,
			"0.012": 5.41693608794,
			"0.013": 0.445684690695,
			"0.014": 0.0,
			"0.015": 0.0,
			"0.016": 0.0,
			"0.017": 0.0,
			"0.018": 0.0,
			"0.019": 0.0,
			"0.02": 0.0,
			"0.021": 0.0,
			"0.022": 0.0,
			"0.023": 0.0,
			"0.024": 0.0,
			"0.025": 0.0
		}
	}
}
