{
	 "smiles": "ClC1=CC2=C(NC3=C2CNCC3)C=C1", 
	 "Tm": 500.15, 
	 "num_atms": 25, 
	 "gaussian": { 
		 "optdone": 1, 
		 "sigma_profile": "yes", 
		 "theory": "DFT", 
		 "functional": "B3LYP", 
		 "basiset": "6-31G**", 
		 "properties": { 
			 "R2extent": 3968.1096, 
			 "electric_dipole_moment_norm": 4.82681746599, 
			 "electric_quadrupole_moment_norm": 11.7088660715, 
			 "total_energy": -995.501514121, 
			 "HOMO_LUMO_gap": 0.18695, 
			 "cosmo_polarized_energy": -11.99, 
			 "cosmo_cavitation_energy": 29.16, 
			 "cosmo_dispersion_energy": -22.14, 
			 "cosmo_repulsion_energy": 1.74, 
			 "cosmo_total_nonelectrostatic_energy": 8.76, 
			 "SMD_solvation_energy": 0.98 
		},
		"coords": [
			{
				"x": 0.9850704198,
				"y": 3.7854593591,
				"z": -2.9477679121,
				"element": "Cl" 
			},
			{
				"x": 0.8305506548,
				"y": 2.8437790155,
				"z": -1.4618202151,
				"element": "C" 
			},
			{
				"x": 0.1363337682,
				"y": 1.642709987,
				"z": -1.4941899785,
				"element": "C" 
			},
			{
				"x": 0.0256635228,
				"y": 0.9099643478,
				"z": -0.3001656382,
				"element": "C" 
			},
			{
				"x": 0.6253121449,
				"y": 1.4229579046,
				"z": 0.8867186635,
				"element": "C" 
			},
			{
				"x": 0.3699861485,
				"y": 0.5192133466,
				"z": 1.9007029428,
				"element": "N" 
			},
			{
				"x": -0.3633054238,
				"y": -0.5398610511,
				"z": 1.390879557,
				"element": "C" 
			},
			{
				"x": -0.6015349257,
				"y": -0.3351658622,
				"z": 0.0544683488,
				"element": "C" 
			},
			{
				"x": -1.3760576832,
				"y": -1.3327396925,
				"z": -0.7687758795,
				"element": "C" 
			},
			{
				"x": -2.0960999303,
				"y": -2.3163851941,
				"z": 0.0573071109,
				"element": "N" 
			},
			{
				"x": -1.2905051965,
				"y": -2.8167420185,
				"z": 1.1722867596,
				"element": "C" 
			},
			{
				"x": -0.8313094253,
				"y": -1.725105453,
				"z": 2.1735684326,
				"element": "C" 
			},
			{
				"x": 1.3209917326,
				"y": 2.6336592002,
				"z": 0.9026636064,
				"element": "C" 
			},
			{
				"x": 1.4210941692,
				"y": 3.3462864871,
				"z": -0.2880230543,
				"element": "C" 
			},
			{
				"x": -0.3035277372,
				"y": 1.2876552922,
				"z": -2.4197549187,
				"element": "H" 
			},
			{
				"x": 0.6800448579,
				"y": 0.6077226461,
				"z": 2.8547808875,
				"element": "H" 
			},
			{
				"x": -2.1073802376,
				"y": -0.8328536783,
				"z": -1.41515833,
				"element": "H" 
			},
			{
				"x": -0.7010616697,
				"y": -1.8809231214,
				"z": -1.4431442951,
				"element": "H" 
			},
			{
				"x": -2.935144973,
				"y": -1.8763342936,
				"z": 0.4297046715,
				"element": "H" 
			},
			{
				"x": -0.4046030906,
				"y": -3.3045860419,
				"z": 0.7472547794,
				"element": "H" 
			},
			{
				"x": -1.860935512,
				"y": -3.5891509598,
				"z": 1.6986439398,
				"element": "H" 
			},
			{
				"x": -0.0357681914,
				"y": -2.1174418945,
				"z": 2.8221814244,
				"element": "H" 
			},
			{
				"x": -1.6637095611,
				"y": -1.4481813779,
				"z": 2.838339915,
				"element": "H" 
			},
			{
				"x": 1.7749661532,
				"y": 3.0162326434,
				"z": 1.8123395407,
				"element": "H" 
			},
			{
				"x": 1.9525299854,
				"y": 4.2904304091,
				"z": -0.3196403582,
				"element": "H" 
			}
		],
		 "valence_orbital": [ 
			{
				"type": "occ",
				"energy": -0.29895,
				"method": "rhf"
			},
			{
				"type": "occ",
				"energy": -0.27491,
				"method": "rhf"
			},
			{
				"type": "occ",
				"energy": -0.22674,
				"method": "rhf"
			},
			{
				"type": "occ",
				"energy": -0.21508,
				"method": "rhf"
			},
			{
				"type": "occ",
				"energy": -0.20168,
				"method": "rhf"
			},
			{
				"type": "unocc",
				"energy": -0.01473,
				"method": "rhf"
			},
			{
				"type": "unocc",
				"energy": 0.01926,
				"method": "rhf"
			},
			{
				"type": "unocc",
				"energy": 0.04185,
				"method": "rhf"
			},
			{
				"type": "unocc",
				"energy": 0.06176,
				"method": "rhf"
			},
			{
				"type": "unocc",
				"energy": 0.07775,
				"method": "rhf"
			}
		],
		"cosmo_sigma_profile": { 
			"-0.025": 0.0,
			"-0.024": 0.0,
			"-0.023": 0.0,
			"-0.022": 0.0,
			"-0.021": 0.0,
			"-0.02": 0.0,
			"-0.019": 0.0,
			"-0.018": 0.0,
			"-0.017": 0.0,
			"-0.016": 0.171184491282,
			"-0.015": 1.21872280958,
			"-0.014": 1.43893725402,
			"-0.013": 1.20428709024,
			"-0.012": 0.894268022456,
			"-0.011": 1.32515848736,
			"-0.01": 1.9878057514,
			"-0.009": 2.98152162017,
			"-0.008": 2.98371844525,
			"-0.007": 3.63620398736,
			"-0.006": 7.45579334134,
			"-0.005": 11.102823989,
			"-0.004": 18.5701784053,
			"-0.003": 22.1675033343,
			"-0.002": 19.7162705865,
			"-0.001": 17.3108056636,
			"0.0": 12.5205886737,
			"0.001": 10.8910206785,
			"0.002": 11.3387318423,
			"0.003": 15.3776971719,
			"0.004": 21.098500587,
			"0.005": 27.2169450122,
			"0.006": 12.6286244247,
			"0.007": 0.891261222404,
			"0.008": 0.797747073048,
			"0.009": 0.662184876473,
			"0.01": 0.648995113867,
			"0.011": 0.507711524873,
			"0.012": 0.608200566832,
			"0.013": 0.926971556975,
			"0.014": 0.493726267843,
			"0.015": 0.486605437803,
			"0.016": 0.561910177362,
			"0.017": 0.715024385121,
			"0.018": 0.461013159686,
			"0.019": 0.140341786074,
			"0.02": 0.0,
			"0.021": 0.0,
			"0.022": 0.0,
			"0.023": 0.0,
			"0.024": 0.0,
			"0.025": 0.0
		}
	}
}
