{
	 "smiles": "CN1C=C(C=N1)N1CCC(Br)C1=O", 
	 "Tm": 410.15, 
	 "num_atms": 23, 
	 "gaussian": { 
		 "optdone": 1, 
		 "sigma_profile": "yes", 
		 "theory": "DFT", 
		 "functional": "B3LYP", 
		 "basiset": "6-31G**", 
		 "properties": { 
			 "R2extent": 7435.0025, 
			 "electric_dipole_moment_norm": 2.5221481043, 
			 "electric_quadrupole_moment_norm": 23.2158856043, 
			 "total_energy": -3121.75055358, 
			 "HOMO_LUMO_gap": 0.18981, 
			 "cosmo_polarized_energy": -15.51, 
			 "cosmo_cavitation_energy": 28.69, 
			 "cosmo_dispersion_energy": -21.58, 
			 "cosmo_repulsion_energy": 1.71, 
			 "cosmo_total_nonelectrostatic_energy": 8.82, 
			 "SMD_solvation_energy": 3.28 
		},
		"coords": [
			{
				"x": 1.5703625448,
				"y": -2.8173813133,
				"z": -0.3798187474,
				"element": "C" 
			},
			{
				"x": 0.983702679,
				"y": -1.4900378288,
				"z": -0.3881351912,
				"element": "N" 
			},
			{
				"x": 1.5760930486,
				"y": -0.3230008379,
				"z": -0.017381421,
				"element": "C" 
			},
			{
				"x": 0.6167511182,
				"y": 0.6650443361,
				"z": -0.2017129993,
				"element": "C" 
			},
			{
				"x": -0.5205426036,
				"y": -0.0202359264,
				"z": -0.691052364,
				"element": "C" 
			},
			{
				"x": -0.2873581789,
				"y": -1.3292588965,
				"z": -0.7999941983,
				"element": "N" 
			},
			{
				"x": 0.7335637083,
				"y": 2.0400229052,
				"z": 0.0426243533,
				"element": "N" 
			},
			{
				"x": -0.3692987822,
				"y": 2.9642020454,
				"z": -0.2193433387,
				"element": "C" 
			},
			{
				"x": 0.1072460812,
				"y": 4.2795172277,
				"z": 0.4295657997,
				"element": "C" 
			},
			{
				"x": 1.630295658,
				"y": 4.1680853447,
				"z": 0.372500394,
				"element": "C" 
			},
			{
				"x": 2.547159073,
				"y": 5.1081973356,
				"z": 1.8345225886,
				"element": "Br" 
			},
			{
				"x": 1.9139642303,
				"y": 2.6599956708,
				"z": 0.3851575894,
				"element": "C" 
			},
			{
				"x": 2.9775613742,
				"y": 2.107938033,
				"z": 0.6040154685,
				"element": "O" 
			},
			{
				"x": 1.5678405631,
				"y": -3.2357997329,
				"z": -1.3896323369,
				"element": "H" 
			},
			{
				"x": 2.5975101184,
				"y": -2.7462061554,
				"z": -0.0195756233,
				"element": "H" 
			},
			{
				"x": 0.9993337774,
				"y": -3.4765887995,
				"z": 0.2790914547,
				"element": "H" 
			},
			{
				"x": 2.590827121,
				"y": -0.2557549598,
				"z": 0.335718824,
				"element": "H" 
			},
			{
				"x": -1.4861743641,
				"y": 0.3792123812,
				"z": -0.968591459,
				"element": "H" 
			},
			{
				"x": -0.5345058451,
				"y": 3.0705533792,
				"z": -1.3003422476,
				"element": "H" 
			},
			{
				"x": -1.2959621768,
				"y": 2.5922819924,
				"z": 0.2287761866,
				"element": "H" 
			},
			{
				"x": -0.2159454333,
				"y": 4.3157868549,
				"z": 1.4728002631,
				"element": "H" 
			},
			{
				"x": -0.2791120844,
				"y": 5.1647303733,
				"z": -0.0790809274,
				"element": "H" 
			},
			{
				"x": 2.0542883726,
				"y": 4.5973965711,
				"z": -0.5379120679,
				"element": "H" 
			}
		],
		 "valence_orbital": [ 
			{
				"type": "occ",
				"energy": -0.28011,
				"method": "rhf"
			},
			{
				"type": "occ",
				"energy": -0.27577,
				"method": "rhf"
			},
			{
				"type": "occ",
				"energy": -0.25935,
				"method": "rhf"
			},
			{
				"type": "occ",
				"energy": -0.253,
				"method": "rhf"
			},
			{
				"type": "occ",
				"energy": -0.21376,
				"method": "rhf"
			},
			{
				"type": "unocc",
				"energy": -0.02395,
				"method": "rhf"
			},
			{
				"type": "unocc",
				"energy": 0.01532,
				"method": "rhf"
			},
			{
				"type": "unocc",
				"energy": 0.02493,
				"method": "rhf"
			},
			{
				"type": "unocc",
				"energy": 0.08571,
				"method": "rhf"
			},
			{
				"type": "unocc",
				"energy": 0.09241,
				"method": "rhf"
			}
		],
		"cosmo_sigma_profile": { 
			"-0.025": 0.0,
			"-0.024": 0.0,
			"-0.023": 0.0,
			"-0.022": 0.0,
			"-0.021": 0.0,
			"-0.02": 0.0,
			"-0.019": 0.0,
			"-0.018": 0.0,
			"-0.017": 0.0,
			"-0.016": 0.0,
			"-0.015": 0.0,
			"-0.014": 0.0,
			"-0.013": 0.0,
			"-0.012": 0.0,
			"-0.011": 0.0,
			"-0.01": 0.113381413147,
			"-0.009": 3.28554839781,
			"-0.008": 6.23389846088,
			"-0.007": 9.12308884847,
			"-0.006": 21.483477133,
			"-0.005": 23.5695787507,
			"-0.004": 19.8266101594,
			"-0.003": 18.7255672886,
			"-0.002": 12.7935626758,
			"-0.001": 8.51144230372,
			"0.0": 7.50451479591,
			"0.001": 9.68819776633,
			"0.002": 11.4212410674,
			"0.003": 12.6411833484,
			"0.004": 15.0017326377,
			"0.005": 13.0500404684,
			"0.006": 7.9334426,
			"0.007": 4.59677744236,
			"0.008": 3.71335139358,
			"0.009": 3.09312256995,
			"0.01": 3.76646570733,
			"0.011": 3.37878372027,
			"0.012": 4.60344135215,
			"0.013": 3.88004519175,
			"0.014": 1.69361385336,
			"0.015": 0.973949620961,
			"0.016": 0.463997050653,
			"0.017": 0.0,
			"0.018": 0.0,
			"0.019": 0.0,
			"0.02": 0.0,
			"0.021": 0.0,
			"0.022": 0.0,
			"0.023": 0.0,
			"0.024": 0.0,
			"0.025": 0.0
		}
	}
}
