{
	 "smiles": "CC1(C)CCC(C)(C)C2=C1C=CC(Br)=C2", 
	 "Tm": 309.15, 
	 "num_atms": 34, 
	 "gaussian": { 
		 "optdone": 1, 
		 "sigma_profile": "yes", 
		 "theory": "DFT", 
		 "functional": "B3LYP", 
		 "basiset": "6-31G**", 
		 "properties": { 
			 "R2extent": 6281.4524, 
			 "electric_dipole_moment_norm": 2.51990904003, 
			 "electric_quadrupole_moment_norm": 9.75967079363, 
			 "total_energy": -3116.37555548, 
			 "HOMO_LUMO_gap": 0.22052, 
			 "cosmo_polarized_energy": -4.13, 
			 "cosmo_cavitation_energy": 34.89, 
			 "cosmo_dispersion_energy": -24.94, 
			 "cosmo_repulsion_energy": 1.93, 
			 "cosmo_total_nonelectrostatic_energy": 11.88, 
			 "SMD_solvation_energy": 4.56 
		},
		"coords": [
			{
				"x": -1.8751681468,
				"y": 0.0933194081,
				"z": -2.2138417823,
				"element": "C" 
			},
			{
				"x": -1.1842093466,
				"y": -0.909357752,
				"z": -1.2570988165,
				"element": "C" 
			},
			{
				"x": -1.5537142057,
				"y": -2.3436171306,
				"z": -1.6994292997,
				"element": "C" 
			},
			{
				"x": -1.7086855943,
				"y": -0.7163823715,
				"z": 0.1829503244,
				"element": "C" 
			},
			{
				"x": -1.128623042,
				"y": 0.5197906801,
				"z": 0.862043961,
				"element": "C" 
			},
			{
				"x": 0.4050735471,
				"y": 0.445854428,
				"z": 1.0320582512,
				"element": "C" 
			},
			{
				"x": 0.7671740223,
				"y": -0.5168294744,
				"z": 2.1895721075,
				"element": "C" 
			},
			{
				"x": 0.9029257367,
				"y": 1.8627083721,
				"z": 1.3972485786,
				"element": "C" 
			},
			{
				"x": 1.0611099094,
				"y": -0.0593895308,
				"z": -0.2662436742,
				"element": "C" 
			},
			{
				"x": 0.3375954397,
				"y": -0.6858330159,
				"z": -1.3063202514,
				"element": "C" 
			},
			{
				"x": 1.0404507447,
				"y": -1.0971932848,
				"z": -2.4521579206,
				"element": "C" 
			},
			{
				"x": 2.4146604557,
				"y": -0.9376882065,
				"z": -2.5900192871,
				"element": "C" 
			},
			{
				"x": 3.1141044616,
				"y": -0.345967644,
				"z": -1.5430122896,
				"element": "C" 
			},
			{
				"x": 5.011096163,
				"y": -0.1201011849,
				"z": -1.679019967,
				"element": "Br" 
			},
			{
				"x": 2.4529317226,
				"y": 0.0872381835,
				"z": -0.4029427432,
				"element": "C" 
			},
			{
				"x": -2.960072097,
				"y": -0.0642108757,
				"z": -2.2150644408,
				"element": "H" 
			},
			{
				"x": -1.6821741828,
				"y": 1.1310295582,
				"z": -1.9264626237,
				"element": "H" 
			},
			{
				"x": -1.5152778813,
				"y": -0.0330727765,
				"z": -3.2397690346,
				"element": "H" 
			},
			{
				"x": -1.3368271598,
				"y": -2.5276481749,
				"z": -2.7555764497,
				"element": "H" 
			},
			{
				"x": -1.0145774153,
				"y": -3.0910106045,
				"z": -1.1084928867,
				"element": "H" 
			},
			{
				"x": -2.627599847,
				"y": -2.5089781529,
				"z": -1.5564017899,
				"element": "H" 
			},
			{
				"x": -1.4659590394,
				"y": -1.6082607809,
				"z": 0.7743397634,
				"element": "H" 
			},
			{
				"x": -2.8037821424,
				"y": -0.658056333,
				"z": 0.1566957813,
				"element": "H" 
			},
			{
				"x": -1.3805635353,
				"y": 1.4130655163,
				"z": 0.2766583861,
				"element": "H" 
			},
			{
				"x": -1.587178555,
				"y": 0.6634548983,
				"z": 1.8481178438,
				"element": "H" 
			},
			{
				"x": 0.3283390234,
				"y": -0.1648138522,
				"z": 3.1304218384,
				"element": "H" 
			},
			{
				"x": 1.8516076607,
				"y": -0.576133813,
				"z": 2.3250134606,
				"element": "H" 
			},
			{
				"x": 0.4057187977,
				"y": -1.5325198255,
				"z": 2.0042551327,
				"element": "H" 
			},
			{
				"x": 0.7525181994,
				"y": 2.5610954488,
				"z": 0.5677691827,
				"element": "H" 
			},
			{
				"x": 0.344117555,
				"y": 2.2382130416,
				"z": 2.2619174135,
				"element": "H" 
			},
			{
				"x": 1.9629789412,
				"y": 1.8808001186,
				"z": 1.6658018837,
				"element": "H" 
			},
			{
				"x": 0.4987722784,
				"y": -1.5616380393,
				"z": -3.2700104426,
				"element": "H" 
			},
			{
				"x": 2.9284973053,
				"y": -1.268536033,
				"z": -3.4852497023,
				"element": "H" 
			},
			{
				"x": 3.0295402269,
				"y": 0.5472692033,
				"z": 0.3902494929,
				"element": "H" 
			}
		],
		 "valence_orbital": [ 
			{
				"type": "occ",
				"energy": -0.30098,
				"method": "rhf"
			},
			{
				"type": "occ",
				"energy": -0.29587,
				"method": "rhf"
			},
			{
				"type": "occ",
				"energy": -0.28019,
				"method": "rhf"
			},
			{
				"type": "occ",
				"energy": -0.24794,
				"method": "rhf"
			},
			{
				"type": "occ",
				"energy": -0.2299,
				"method": "rhf"
			},
			{
				"type": "unocc",
				"energy": -0.00938,
				"method": "rhf"
			},
			{
				"type": "unocc",
				"energy": -0.00532,
				"method": "rhf"
			},
			{
				"type": "unocc",
				"energy": 0.01363,
				"method": "rhf"
			},
			{
				"type": "unocc",
				"energy": 0.07506,
				"method": "rhf"
			},
			{
				"type": "unocc",
				"energy": 0.09304,
				"method": "rhf"
			}
		],
		"cosmo_sigma_profile": { 
			"-0.025": 0.0,
			"-0.024": 0.0,
			"-0.023": 0.0,
			"-0.022": 0.0,
			"-0.021": 0.0,
			"-0.02": 0.0,
			"-0.019": 0.0,
			"-0.018": 0.0,
			"-0.017": 0.0,
			"-0.016": 0.0,
			"-0.015": 0.0,
			"-0.014": 0.0,
			"-0.013": 0.0,
			"-0.012": 0.0,
			"-0.011": 0.0,
			"-0.01": 0.0,
			"-0.009": 0.0,
			"-0.008": 0.0,
			"-0.007": 0.573939604321,
			"-0.006": 4.65487767925,
			"-0.005": 7.22016069394,
			"-0.004": 9.50133049487,
			"-0.003": 25.7924040164,
			"-0.002": 40.7936680192,
			"-0.001": 33.988552607,
			"0.0": 36.4545186945,
			"0.001": 43.1917195501,
			"0.002": 21.2229823221,
			"0.003": 15.1321982129,
			"0.004": 17.0467500678,
			"0.005": 18.4509246961,
			"0.006": 1.05006917637,
			"0.007": 0.0,
			"0.008": 0.0,
			"0.009": 0.0,
			"0.01": 0.0,
			"0.011": 0.0,
			"0.012": 0.0,
			"0.013": 0.0,
			"0.014": 0.0,
			"0.015": 0.0,
			"0.016": 0.0,
			"0.017": 0.0,
			"0.018": 0.0,
			"0.019": 0.0,
			"0.02": 0.0,
			"0.021": 0.0,
			"0.022": 0.0,
			"0.023": 0.0,
			"0.024": 0.0,
			"0.025": 0.0
		}
	}
}
