{
	 "smiles": "CC(C)(C1=CC=CC=C1)C1=CC=C(O)C=C1", 
	 "Tm": 345.65, 
	 "num_atms": 32, 
	 "gaussian": { 
		 "optdone": 1, 
		 "sigma_profile": "yes", 
		 "theory": "DFT", 
		 "functional": "B3LYP", 
		 "basiset": "6-31G**", 
		 "properties": { 
			 "R2extent": 4253.7987, 
			 "electric_dipole_moment_norm": 1.45172429201, 
			 "electric_quadrupole_moment_norm": 10.0562952279, 
			 "total_energy": -656.466950328, 
			 "HOMO_LUMO_gap": 0.20918, 
			 "cosmo_polarized_energy": -9.83, 
			 "cosmo_cavitation_energy": 33.83, 
			 "cosmo_dispersion_energy": -23.72, 
			 "cosmo_repulsion_energy": 1.84, 
			 "cosmo_total_nonelectrostatic_energy": 11.95, 
			 "SMD_solvation_energy": 6.11 
		},
		"coords": [
			{
				"x": -0.1045935599,
				"y": -0.2147784175,
				"z": -2.9037614772,
				"element": "C" 
			},
			{
				"x": -0.2602597892,
				"y": 0.5324517158,
				"z": -1.5572406608,
				"element": "C" 
			},
			{
				"x": -1.6530396388,
				"y": 1.207834977,
				"z": -1.5607638199,
				"element": "C" 
			},
			{
				"x": 0.7923350827,
				"y": 1.6468477166,
				"z": -1.3792430489,
				"element": "C" 
			},
			{
				"x": 0.9038105382,
				"y": 2.2945666434,
				"z": -0.1368309062,
				"element": "C" 
			},
			{
				"x": 1.8023639152,
				"y": 3.3408794834,
				"z": 0.0573484236,
				"element": "C" 
			},
			{
				"x": 2.622303297,
				"y": 3.7671470786,
				"z": -0.9908821459,
				"element": "C" 
			},
			{
				"x": 2.5285207893,
				"y": 3.133172516,
				"z": -2.2276561519,
				"element": "C" 
			},
			{
				"x": 1.6219093372,
				"y": 2.0853763604,
				"z": -2.4191012562,
				"element": "C" 
			},
			{
				"x": -0.1172847208,
				"y": -0.5057608493,
				"z": -0.4266963692,
				"element": "C" 
			},
			{
				"x": 1.1391677883,
				"y": -1.0863913031,
				"z": -0.1740390273,
				"element": "C" 
			},
			{
				"x": 1.3171792772,
				"y": -2.0644509001,
				"z": 0.7963087134,
				"element": "C" 
			},
			{
				"x": 0.2241228917,
				"y": -2.4953836819,
				"z": 1.5578693109,
				"element": "C" 
			},
			{
				"x": 0.4503771356,
				"y": -3.4581102392,
				"z": 2.5026038411,
				"element": "O" 
			},
			{
				"x": -1.0319158604,
				"y": -1.9323947201,
				"z": 1.3305788156,
				"element": "C" 
			},
			{
				"x": -1.193410624,
				"y": -0.9509391897,
				"z": 0.3477100857,
				"element": "C" 
			},
			{
				"x": -0.2703794108,
				"y": 0.4524991602,
				"z": -3.7562048531,
				"element": "H" 
			},
			{
				"x": 0.8859202174,
				"y": -0.6669445777,
				"z": -3.0076177941,
				"element": "H" 
			},
			{
				"x": -0.8440051391,
				"y": -1.018878771,
				"z": -2.9614827583,
				"element": "H" 
			},
			{
				"x": -1.8668129605,
				"y": 1.7078679131,
				"z": -0.6117749122,
				"element": "H" 
			},
			{
				"x": -1.6910963724,
				"y": 1.9639580472,
				"z": -2.3503838811,
				"element": "H" 
			},
			{
				"x": -2.4491352627,
				"y": 0.4815679707,
				"z": -1.7563591808,
				"element": "H" 
			},
			{
				"x": 0.285658874,
				"y": 1.9618202709,
				"z": 0.692296292,
				"element": "H" 
			},
			{
				"x": 1.8668683165,
				"y": 3.8210932635,
				"z": 1.0300030233,
				"element": "H" 
			},
			{
				"x": 3.3268424345,
				"y": 4.5803577365,
				"z": -0.8415935406,
				"element": "H" 
			},
			{
				"x": 3.1619465358,
				"y": 3.4492959792,
				"z": -3.0521349813,
				"element": "H" 
			},
			{
				"x": 1.5728445848,
				"y": 1.6128887619,
				"z": -3.3938927122,
				"element": "H" 
			},
			{
				"x": 2.0022068855,
				"y": -0.7534785184,
				"z": -0.7438738645,
				"element": "H" 
			},
			{
				"x": 2.2926477736,
				"y": -2.5018567824,
				"z": 0.9828773089,
				"element": "H" 
			},
			{
				"x": -0.3807473915,
				"y": -3.6585934151,
				"z": 2.9520634834,
				"element": "H" 
			},
			{
				"x": -1.8888443236,
				"y": -2.2552300977,
				"z": 1.9190589135,
				"element": "H" 
			},
			{
				"x": -2.1847006211,
				"y": -0.5371341312,
				"z": 0.1994151302,
				"element": "H" 
			}
		],
		 "valence_orbital": [ 
			{
				"type": "occ",
				"energy": -0.31318,
				"method": "rhf"
			},
			{
				"type": "occ",
				"energy": -0.24835,
				"method": "rhf"
			},
			{
				"type": "occ",
				"energy": -0.24308,
				"method": "rhf"
			},
			{
				"type": "occ",
				"energy": -0.23762,
				"method": "rhf"
			},
			{
				"type": "occ",
				"energy": -0.21112,
				"method": "rhf"
			},
			{
				"type": "unocc",
				"energy": -0.00194,
				"method": "rhf"
			},
			{
				"type": "unocc",
				"energy": 0.00319,
				"method": "rhf"
			},
			{
				"type": "unocc",
				"energy": 0.00789,
				"method": "rhf"
			},
			{
				"type": "unocc",
				"energy": 0.01877,
				"method": "rhf"
			},
			{
				"type": "unocc",
				"energy": 0.0731,
				"method": "rhf"
			}
		],
		"cosmo_sigma_profile": { 
			"-0.025": 0.0,
			"-0.024": 0.0,
			"-0.023": 0.0,
			"-0.022": 0.0,
			"-0.021": 0.0,
			"-0.02": 0.0,
			"-0.019": 0.0,
			"-0.018": 0.111266096373,
			"-0.017": 1.0682272311,
			"-0.016": 1.12815173358,
			"-0.015": 0.808252442293,
			"-0.014": 1.07569459531,
			"-0.013": 1.0083982073,
			"-0.012": 1.09310731982,
			"-0.011": 0.891797817599,
			"-0.01": 0.884511550308,
			"-0.009": 0.940030859968,
			"-0.008": 1.21812640354,
			"-0.007": 1.13264327912,
			"-0.006": 3.9963709912,
			"-0.005": 12.2751398951,
			"-0.004": 19.347436391,
			"-0.003": 32.0562642883,
			"-0.002": 27.027951342,
			"-0.001": 23.7488647936,
			"0.0": 19.4281709861,
			"0.001": 22.7968638688,
			"0.002": 16.0748116062,
			"0.003": 13.7349310242,
			"0.004": 18.3249790088,
			"0.005": 16.7615998855,
			"0.006": 16.8352004272,
			"0.007": 5.82045614352,
			"0.008": 1.34374020517,
			"0.009": 1.45768685307,
			"0.01": 1.33270061811,
			"0.011": 2.22670546283,
			"0.012": 1.16376998095,
			"0.013": 0.0,
			"0.014": 0.0,
			"0.015": 0.0,
			"0.016": 0.0,
			"0.017": 0.0,
			"0.018": 0.0,
			"0.019": 0.0,
			"0.02": 0.0,
			"0.021": 0.0,
			"0.022": 0.0,
			"0.023": 0.0,
			"0.024": 0.0,
			"0.025": 0.0
		}
	}
}
