{
	 "smiles": "OC(=O)C1COC2=CC=CC=C2O1", 
	 "Tm": 399.15, 
	 "num_atms": 21, 
	 "gaussian": { 
		 "optdone": 1, 
		 "sigma_profile": "yes", 
		 "theory": "DFT", 
		 "functional": "B3LYP", 
		 "basiset": "6-31G**", 
		 "properties": { 
			 "R2extent": 2633.5714, 
			 "electric_dipole_moment_norm": 3.50684269536, 
			 "electric_quadrupole_moment_norm": 13.1252076045, 
			 "total_energy": -648.662934312, 
			 "HOMO_LUMO_gap": 0.21535, 
			 "cosmo_polarized_energy": -11.93, 
			 "cosmo_cavitation_energy": 24.99, 
			 "cosmo_dispersion_energy": -18.91, 
			 "cosmo_repulsion_energy": 1.49, 
			 "cosmo_total_nonelectrostatic_energy": 7.57, 
			 "SMD_solvation_energy": 5.72 
		},
		"coords": [
			{
				"x": 2.4467817775,
				"y": -0.6289588759,
				"z": -2.669212711,
				"element": "O" 
			},
			{
				"x": 1.3304620561,
				"y": 0.0334646838,
				"z": -3.0053371529,
				"element": "C" 
			},
			{
				"x": 1.2298069808,
				"y": 0.6961136556,
				"z": -4.0087395585,
				"element": "O" 
			},
			{
				"x": 0.1694730751,
				"y": -0.0879378361,
				"z": -2.0145744874,
				"element": "C" 
			},
			{
				"x": -0.2577704217,
				"y": 1.2856633482,
				"z": -1.4996469512,
				"element": "C" 
			},
			{
				"x": -1.3473728724,
				"y": 1.1487885581,
				"z": -0.5938283042,
				"element": "O" 
			},
			{
				"x": -1.1615046449,
				"y": 0.1798422132,
				"z": 0.3613323566,
				"element": "C" 
			},
			{
				"x": -1.9613332535,
				"y": 0.2054903382,
				"z": 1.5051936097,
				"element": "C" 
			},
			{
				"x": -1.8010631155,
				"y": -0.7647551813,
				"z": 2.4924031708,
				"element": "C" 
			},
			{
				"x": -0.834491013,
				"y": -1.7640653753,
				"z": 2.3455965247,
				"element": "C" 
			},
			{
				"x": -0.040611699,
				"y": -1.8024830196,
				"z": 1.2004866397,
				"element": "C" 
			},
			{
				"x": -0.2066405516,
				"y": -0.8367624155,
				"z": 0.2095951861,
				"element": "C" 
			},
			{
				"x": 0.5869232327,
				"y": -0.9138205694,
				"z": -0.9229310519,
				"element": "O" 
			},
			{
				"x": 2.2862077638,
				"y": -1.0708191345,
				"z": -1.8150574707,
				"element": "H" 
			},
			{
				"x": -0.6774153039,
				"y": -0.558533435,
				"z": -2.5310892303,
				"element": "H" 
			},
			{
				"x": 0.5905861071,
				"y": 1.773629703,
				"z": -1.0003056602,
				"element": "H" 
			},
			{
				"x": -0.5961529041,
				"y": 1.9087779062,
				"z": -2.3274595481,
				"element": "H" 
			},
			{
				"x": -2.6965035142,
				"y": 0.9981941961,
				"z": 1.5982286011,
				"element": "H" 
			},
			{
				"x": -2.4261446412,
				"y": -0.7351151067,
				"z": 3.3792218548,
				"element": "H" 
			},
			{
				"x": -0.7028415653,
				"y": -2.5175928557,
				"z": 3.1153887518,
				"element": "H" 
			},
			{
				"x": 0.7070045071,
				"y": -2.5754207976,
				"z": 1.0528354311,
				"element": "H" 
			}
		],
		 "valence_orbital": [ 
			{
				"type": "occ",
				"energy": -0.32922,
				"method": "rhf"
			},
			{
				"type": "occ",
				"energy": -0.31859,
				"method": "rhf"
			},
			{
				"type": "occ",
				"energy": -0.28276,
				"method": "rhf"
			},
			{
				"type": "occ",
				"energy": -0.25026,
				"method": "rhf"
			},
			{
				"type": "occ",
				"energy": -0.22926,
				"method": "rhf"
			},
			{
				"type": "unocc",
				"energy": -0.01391,
				"method": "rhf"
			},
			{
				"type": "unocc",
				"energy": -0.00407,
				"method": "rhf"
			},
			{
				"type": "unocc",
				"energy": 0.00261,
				"method": "rhf"
			},
			{
				"type": "unocc",
				"energy": 0.06184,
				"method": "rhf"
			},
			{
				"type": "unocc",
				"energy": 0.08881,
				"method": "rhf"
			}
		],
		"cosmo_sigma_profile": { 
			"-0.025": 0.0,
			"-0.024": 0.0,
			"-0.023": 0.0,
			"-0.022": 0.0,
			"-0.021": 0.0,
			"-0.02": 0.0,
			"-0.019": 0.0,
			"-0.018": 0.0,
			"-0.017": 0.0,
			"-0.016": 0.00222397833169,
			"-0.015": 0.441104828733,
			"-0.014": 0.623374173433,
			"-0.013": 0.458772517072,
			"-0.012": 0.593001801016,
			"-0.011": 1.26829267924,
			"-0.01": 0.531054930829,
			"-0.009": 3.46877168019,
			"-0.008": 7.75711149251,
			"-0.007": 9.22177874861,
			"-0.006": 14.0700474312,
			"-0.005": 14.20776653,
			"-0.004": 13.7952049613,
			"-0.003": 11.7613288,
			"-0.002": 9.44650240067,
			"-0.001": 8.67623228062,
			"0.0": 10.3803690256,
			"0.001": 10.0966830919,
			"0.002": 11.826026822,
			"0.003": 13.6125823339,
			"0.004": 12.7982541275,
			"0.005": 11.7141560411,
			"0.006": 5.29525890751,
			"0.007": 3.38493056064,
			"0.008": 4.53323236273,
			"0.009": 6.18537040302,
			"0.01": 4.81372871344,
			"0.011": 5.4301757285,
			"0.012": 2.80287877511,
			"0.013": 0.322807475237,
			"0.014": 0.0,
			"0.015": 0.0,
			"0.016": 0.0,
			"0.017": 0.0,
			"0.018": 0.0,
			"0.019": 0.0,
			"0.02": 0.0,
			"0.021": 0.0,
			"0.022": 0.0,
			"0.023": 0.0,
			"0.024": 0.0,
			"0.025": 0.0
		}
	}
}
