{
	 "smiles": "CN1C2=C(C=C(F)C=C2)N=C1C1=CC(C)=C(N)C=C1", 
	 "Tm": 448.15, 
	 "num_atms": 33, 
	 "gaussian": { 
		 "optdone": 1, 
		 "sigma_profile": "yes", 
		 "theory": "DFT", 
		 "functional": "B3LYP", 
		 "basiset": "6-31G**", 
		 "properties": { 
			 "R2extent": 6994.125, 
			 "electric_dipole_moment_norm": 6.22681620333, 
			 "electric_quadrupole_moment_norm": 17.3179744139, 
			 "total_energy": -844.152069917, 
			 "HOMO_LUMO_gap": 0.16575, 
			 "cosmo_polarized_energy": -16.72, 
			 "cosmo_cavitation_energy": 36.74, 
			 "cosmo_dispersion_energy": -26.55, 
			 "cosmo_repulsion_energy": 1.99, 
			 "cosmo_total_nonelectrostatic_energy": 12.18, 
			 "SMD_solvation_energy": 4.47 
		},
		"coords": [
			{
				"x": 1.4611257661,
				"y": -1.5790358997,
				"z": -1.1125683861,
				"element": "C" 
			},
			{
				"x": 0.2579437829,
				"y": -0.7679929377,
				"z": -1.0445527315,
				"element": "N" 
			},
			{
				"x": -0.8859784103,
				"y": -1.0112908964,
				"z": -1.7918380261,
				"element": "C" 
			},
			{
				"x": -1.7115054497,
				"y": 0.1209959883,
				"z": -1.5890581397,
				"element": "C" 
			},
			{
				"x": -2.9631062729,
				"y": 0.1992238868,
				"z": -2.216040397,
				"element": "C" 
			},
			{
				"x": -3.321848232,
				"y": -0.8666505824,
				"z": -3.0243759804,
				"element": "C" 
			},
			{
				"x": -4.5226968942,
				"y": -0.8342964577,
				"z": -3.6514335839,
				"element": "F" 
			},
			{
				"x": -2.5080387339,
				"y": -1.9900608148,
				"z": -3.233933105,
				"element": "C" 
			},
			{
				"x": -1.2645606492,
				"y": -2.0767641638,
				"z": -2.6100188197,
				"element": "C" 
			},
			{
				"x": -1.0934200673,
				"y": 1.016970288,
				"z": -0.743298389,
				"element": "N" 
			},
			{
				"x": 0.0680967399,
				"y": 0.468038956,
				"z": -0.4321429385,
				"element": "C" 
			},
			{
				"x": 1.0418671798,
				"y": 1.1097304764,
				"z": 0.4600725767,
				"element": "C" 
			},
			{
				"x": 1.8490118264,
				"y": 0.3992098553,
				"z": 1.3642936339,
				"element": "C" 
			},
			{
				"x": 2.7393417948,
				"y": 1.0338785946,
				"z": 2.2303326445,
				"element": "C" 
			},
			{
				"x": 3.5946402845,
				"y": 0.2405865878,
				"z": 3.1871922815,
				"element": "C" 
			},
			{
				"x": 2.8258344139,
				"y": 2.4453058989,
				"z": 2.2016879491,
				"element": "C" 
			},
			{
				"x": 3.7451965867,
				"y": 3.112461682,
				"z": 3.0077449173,
				"element": "N" 
			},
			{
				"x": 2.0069919409,
				"y": 3.1649282601,
				"z": 1.3132479176,
				"element": "C" 
			},
			{
				"x": 1.1300222919,
				"y": 2.5118611468,
				"z": 0.4611869858,
				"element": "C" 
			},
			{
				"x": 1.4117210455,
				"y": -2.4413704676,
				"z": -0.4373063148,
				"element": "H" 
			},
			{
				"x": 2.328029416,
				"y": -0.9730676778,
				"z": -0.8496712859,
				"element": "H" 
			},
			{
				"x": 1.589924952,
				"y": -1.9453256895,
				"z": -2.1353161468,
				"element": "H" 
			},
			{
				"x": -3.6211183354,
				"y": 1.0495485012,
				"z": -2.0811564852,
				"element": "H" 
			},
			{
				"x": -2.86883253,
				"y": -2.7812633848,
				"z": -3.8815972312,
				"element": "H" 
			},
			{
				"x": -0.6315749916,
				"y": -2.9458645354,
				"z": -2.759153551,
				"element": "H" 
			},
			{
				"x": 1.7623860716,
				"y": -0.6815218857,
				"z": 1.4294500017,
				"element": "H" 
			},
			{
				"x": 3.4305399404,
				"y": -0.8329848378,
				"z": 3.0653022655,
				"element": "H" 
			},
			{
				"x": 3.3736236342,
				"y": 0.4828437422,
				"z": 4.23660778,
				"element": "H" 
			},
			{
				"x": 4.6628483063,
				"y": 0.4370233379,
				"z": 3.0304334207,
				"element": "H" 
			},
			{
				"x": 4.0019263695,
				"y": 2.6508595758,
				"z": 3.8685120423,
				"element": "H" 
			},
			{
				"x": 3.5667163544,
				"y": 4.0981563275,
				"z": 3.1403593566,
				"element": "H" 
			},
			{
				"x": 2.0688711023,
				"y": 4.2505411746,
				"z": 1.2965813,
				"element": "H" 
			},
			{
				"x": 0.4926207663,
				"y": 3.0751259514,
				"z": -0.2114435615,
				"element": "H" 
			}
		],
		 "valence_orbital": [ 
			{
				"type": "occ",
				"energy": -0.26127,
				"method": "rhf"
			},
			{
				"type": "occ",
				"energy": -0.24753,
				"method": "rhf"
			},
			{
				"type": "occ",
				"energy": -0.23126,
				"method": "rhf"
			},
			{
				"type": "occ",
				"energy": -0.2139,
				"method": "rhf"
			},
			{
				"type": "occ",
				"energy": -0.19412,
				"method": "rhf"
			},
			{
				"type": "unocc",
				"energy": -0.02837,
				"method": "rhf"
			},
			{
				"type": "unocc",
				"energy": -0.00115,
				"method": "rhf"
			},
			{
				"type": "unocc",
				"energy": 0.01644,
				"method": "rhf"
			},
			{
				"type": "unocc",
				"energy": 0.03442,
				"method": "rhf"
			},
			{
				"type": "unocc",
				"energy": 0.06609,
				"method": "rhf"
			}
		],
		"cosmo_sigma_profile": { 
			"-0.025": 0.0,
			"-0.024": 0.0,
			"-0.023": 0.0,
			"-0.022": 0.0,
			"-0.021": 0.0,
			"-0.02": 0.0,
			"-0.019": 0.0,
			"-0.018": 0.0,
			"-0.017": 0.0,
			"-0.016": 0.0,
			"-0.015": 0.0,
			"-0.014": 0.0,
			"-0.013": 0.496240529594,
			"-0.012": 1.87061201994,
			"-0.011": 2.65031795,
			"-0.01": 3.12864134198,
			"-0.009": 3.49803333995,
			"-0.008": 3.01601128044,
			"-0.007": 6.93710436827,
			"-0.006": 16.6378382899,
			"-0.005": 20.9073153961,
			"-0.004": 24.4059522782,
			"-0.003": 21.231967895,
			"-0.002": 17.5827047516,
			"-0.001": 15.2335465279,
			"0.0": 18.5668759942,
			"0.001": 16.6334054725,
			"0.002": 20.4190004131,
			"0.003": 20.6840997979,
			"0.004": 25.9912787392,
			"0.005": 25.1851583811,
			"0.006": 8.8049552648,
			"0.007": 3.74763443112,
			"0.008": 2.18046682957,
			"0.009": 2.22613772336,
			"0.01": 2.38118954657,
			"0.011": 1.65096471705,
			"0.012": 1.23982516157,
			"0.013": 2.36673008014,
			"0.014": 1.05831357694,
			"0.015": 1.03177978756,
			"0.016": 0.521590854325,
			"0.017": 0.694323758502,
			"0.018": 0.0862603477303,
			"0.019": 0.0,
			"0.02": 0.0,
			"0.021": 0.0,
			"0.022": 0.0,
			"0.023": 0.0,
			"0.024": 0.0,
			"0.025": 0.0
		}
	}
}
