{
	 "smiles": "NC1=CC(=NO1)C1=CC(=CC=C1)C(F)(F)F", 
	 "Tm": 363.15, 
	 "num_atms": 23, 
	 "gaussian": { 
		 "optdone": 1, 
		 "sigma_profile": "yes", 
		 "theory": "DFT", 
		 "functional": "B3LYP", 
		 "basiset": "6-31G**", 
		 "properties": { 
			 "R2extent": 4992.1275, 
			 "electric_dipole_moment_norm": 6.15593273924, 
			 "electric_quadrupole_moment_norm": 16.4876603565, 
			 "total_energy": -869.49194769, 
			 "HOMO_LUMO_gap": 0.18138, 
			 "cosmo_polarized_energy": -14.57, 
			 "cosmo_cavitation_energy": 29.7, 
			 "cosmo_dispersion_energy": -21.43, 
			 "cosmo_repulsion_energy": 1.6, 
			 "cosmo_total_nonelectrostatic_energy": 9.87, 
			 "SMD_solvation_energy": 6.33 
		},
		"coords": [
			{
				"x": -0.7106644,
				"y": 3.2042153164,
				"z": 4.4720084661,
				"element": "N" 
			},
			{
				"x": -0.3712193828,
				"y": 2.4698715352,
				"z": 3.3636293144,
				"element": "C" 
			},
			{
				"x": 0.8206729617,
				"y": 2.161076406,
				"z": 2.7629178953,
				"element": "C" 
			},
			{
				"x": 0.4376395267,
				"y": 1.297405821,
				"z": 1.6945828959,
				"element": "C" 
			},
			{
				"x": -0.8678989339,
				"y": 1.1022379459,
				"z": 1.6548688454,
				"element": "N" 
			},
			{
				"x": -1.3858486124,
				"y": 1.8588980468,
				"z": 2.7267570212,
				"element": "O" 
			},
			{
				"x": 1.3018094527,
				"y": 0.645420929,
				"z": 0.6924203042,
				"element": "C" 
			},
			{
				"x": 0.7298955551,
				"y": -0.0584803644,
				"z": -0.3792119466,
				"element": "C" 
			},
			{
				"x": 1.5434668622,
				"y": -0.6719461621,
				"z": -1.3278103907,
				"element": "C" 
			},
			{
				"x": 2.9373950612,
				"y": -0.594498793,
				"z": -1.2288039428,
				"element": "C" 
			},
			{
				"x": 3.508674753,
				"y": 0.1020921121,
				"z": -0.1671234876,
				"element": "C" 
			},
			{
				"x": 2.6982055843,
				"y": 0.7165807914,
				"z": 0.7877704536,
				"element": "C" 
			},
			{
				"x": 0.9264555347,
				"y": -1.4718057706,
				"z": -2.4447123907,
				"element": "C" 
			},
			{
				"x": 1.6471390054,
				"y": -1.3728101793,
				"z": -3.5858063556,
				"element": "F" 
			},
			{
				"x": -0.3320042477,
				"y": -1.0721659933,
				"z": -2.7231314232,
				"element": "F" 
			},
			{
				"x": 0.865247086,
				"y": -2.7886815063,
				"z": -2.1372933297,
				"element": "F" 
			},
			{
				"x": -1.6782068067,
				"y": 3.4962528616,
				"z": 4.5046632128,
				"element": "H" 
			},
			{
				"x": -0.0588236043,
				"y": 3.9314644466,
				"z": 4.7272843981,
				"element": "H" 
			},
			{
				"x": 1.8048989063,
				"y": 2.5016161513,
				"z": 3.0403702096,
				"element": "H" 
			},
			{
				"x": -0.3489367671,
				"y": -0.1120955278,
				"z": -0.463589355,
				"element": "H" 
			},
			{
				"x": 3.5609169457,
				"y": -1.0671189649,
				"z": -1.9800135961,
				"element": "H" 
			},
			{
				"x": 4.5889211695,
				"y": 0.1691507558,
				"z": -0.0820632913,
				"element": "H" 
			},
			{
				"x": 3.1579643504,
				"y": 1.2506201425,
				"z": 1.6131864928,
				"element": "H" 
			}
		],
		 "valence_orbital": [ 
			{
				"type": "occ",
				"energy": -0.31567,
				"method": "rhf"
			},
			{
				"type": "occ",
				"energy": -0.30175,
				"method": "rhf"
			},
			{
				"type": "occ",
				"energy": -0.26862,
				"method": "rhf"
			},
			{
				"type": "occ",
				"energy": -0.24889,
				"method": "rhf"
			},
			{
				"type": "occ",
				"energy": -0.22427,
				"method": "rhf"
			},
			{
				"type": "unocc",
				"energy": -0.04289,
				"method": "rhf"
			},
			{
				"type": "unocc",
				"energy": -0.02426,
				"method": "rhf"
			},
			{
				"type": "unocc",
				"energy": 0.02423,
				"method": "rhf"
			},
			{
				"type": "unocc",
				"energy": 0.05486,
				"method": "rhf"
			},
			{
				"type": "unocc",
				"energy": 0.0777,
				"method": "rhf"
			}
		],
		"cosmo_sigma_profile": { 
			"-0.025": 0.0,
			"-0.024": 0.0,
			"-0.023": 0.0,
			"-0.022": 0.0,
			"-0.021": 0.0,
			"-0.02": 0.0,
			"-0.019": 0.0,
			"-0.018": 0.0,
			"-0.017": 0.0,
			"-0.016": 0.0,
			"-0.015": 1.03883502577,
			"-0.014": 2.99912461179,
			"-0.013": 2.39022339584,
			"-0.012": 2.58776879056,
			"-0.011": 3.02808393928,
			"-0.01": 1.97235169442,
			"-0.009": 2.95551211293,
			"-0.008": 5.72443371687,
			"-0.007": 7.92462806454,
			"-0.006": 9.38684202119,
			"-0.005": 9.04962234807,
			"-0.004": 8.80355760529,
			"-0.003": 8.17250142243,
			"-0.002": 9.37807156572,
			"-0.001": 10.8393720693,
			"0.0": 14.5686635467,
			"0.001": 22.3941714324,
			"0.002": 36.9247294739,
			"0.003": 42.9527897395,
			"0.004": 8.6069030979,
			"0.005": 3.70739679063,
			"0.006": 2.58430954675,
			"0.007": 4.07478245457,
			"0.008": 5.0699443695,
			"0.009": 3.71381432135,
			"0.01": 2.4275366532,
			"0.011": 2.07622070661,
			"0.012": 1.53118238846,
			"0.013": 1.23500649398,
			"0.014": 0.609294178522,
			"0.015": 0.0,
			"0.016": 0.0,
			"0.017": 0.0,
			"0.018": 0.0,
			"0.019": 0.0,
			"0.02": 0.0,
			"0.021": 0.0,
			"0.022": 0.0,
			"0.023": 0.0,
			"0.024": 0.0,
			"0.025": 0.0
		}
	}
}
