{
	 "smiles": "S=C1NCCN1", 
	 "Tm": 476.15, 
	 "num_atms": 12, 
	 "gaussian": { 
		 "optdone": 1, 
		 "sigma_profile": "yes", 
		 "theory": "DFT", 
		 "functional": "B3LYP", 
		 "basiset": "6-31G**", 
		 "properties": { 
			 "R2extent": 1532.6141, 
			 "electric_dipole_moment_norm": 5.77743639082, 
			 "electric_quadrupole_moment_norm": 18.4555360469, 
			 "total_energy": -625.636382727, 
			 "HOMO_LUMO_gap": 0.20296, 
			 "cosmo_polarized_energy": -16.51, 
			 "cosmo_cavitation_energy": 16.79, 
			 "cosmo_dispersion_energy": -13.57, 
			 "cosmo_repulsion_energy": 1.14, 
			 "cosmo_total_nonelectrostatic_energy": 4.36, 
			 "SMD_solvation_energy": -0.04 
		},
		"coords": [
			{
				"x": 0.9740773981,
				"y": -3.2209097667,
				"z": -1.4665708988,
				"element": "S" 
			},
			{
				"x": 1.0687617792,
				"y": -2.0345860384,
				"z": -0.2982579868,
				"element": "C" 
			},
			{
				"x": 1.5908521434,
				"y": -0.7776456958,
				"z": -0.4511190491,
				"element": "N" 
			},
			{
				"x": 1.7284778001,
				"y": -0.094047199,
				"z": 0.8329601949,
				"element": "C" 
			},
			{
				"x": 0.6601921134,
				"y": -0.8306090205,
				"z": 1.6674800993,
				"element": "C" 
			},
			{
				"x": 0.6394311842,
				"y": -2.1296792943,
				"z": 0.9988326439,
				"element": "N" 
			},
			{
				"x": 2.2189757679,
				"y": -0.6158140911,
				"z": -1.2239572387,
				"element": "H" 
			},
			{
				"x": 1.5298210572,
				"y": 0.9775139554,
				"z": 0.7485382413,
				"element": "H" 
			},
			{
				"x": 2.7304334041,
				"y": -0.2351896049,
				"z": 1.2631783812,
				"element": "H" 
			},
			{
				"x": -0.3124525303,
				"y": -0.3225125639,
				"z": 1.5987058696,
				"element": "H" 
			},
			{
				"x": 0.9374945656,
				"y": -0.9180094171,
				"z": 2.7211875909,
				"element": "H" 
			},
			{
				"x": -0.0329646828,
				"y": -2.8473112637,
				"z": 1.2244221523,
				"element": "H" 
			}
		],
		 "valence_orbital": [ 
			{
				"type": "occ",
				"energy": -0.37751,
				"method": "rhf"
			},
			{
				"type": "occ",
				"energy": -0.36011,
				"method": "rhf"
			},
			{
				"type": "occ",
				"energy": -0.26027,
				"method": "rhf"
			},
			{
				"type": "occ",
				"energy": -0.21172,
				"method": "rhf"
			},
			{
				"type": "occ",
				"energy": -0.20117,
				"method": "rhf"
			},
			{
				"type": "unocc",
				"energy": 0.00179,
				"method": "rhf"
			},
			{
				"type": "unocc",
				"energy": 0.06296,
				"method": "rhf"
			},
			{
				"type": "unocc",
				"energy": 0.09901,
				"method": "rhf"
			},
			{
				"type": "unocc",
				"energy": 0.10168,
				"method": "rhf"
			},
			{
				"type": "unocc",
				"energy": 0.11733,
				"method": "rhf"
			}
		],
		"cosmo_sigma_profile": { 
			"-0.025": 0.0,
			"-0.024": 0.0,
			"-0.023": 0.0,
			"-0.022": 0.0,
			"-0.021": 0.0,
			"-0.02": 0.0,
			"-0.019": 0.0,
			"-0.018": 0.0,
			"-0.017": 0.0,
			"-0.016": 0.0,
			"-0.015": 0.625619770763,
			"-0.014": 2.42427195359,
			"-0.013": 1.89020535257,
			"-0.012": 2.20221099356,
			"-0.011": 1.50605148816,
			"-0.01": 2.12321435944,
			"-0.009": 1.49806489969,
			"-0.008": 1.9030297835,
			"-0.007": 3.62584453923,
			"-0.006": 11.4026313922,
			"-0.005": 18.7849028324,
			"-0.004": 13.827649875,
			"-0.003": 8.18367358653,
			"-0.002": 3.60864710741,
			"-0.001": 3.47737543542,
			"0.0": 2.78017555104,
			"0.001": 1.99100792271,
			"0.002": 2.44590462912,
			"0.003": 2.37266916334,
			"0.004": 3.93169669581,
			"0.005": 4.57760407539,
			"0.006": 4.63183259811,
			"0.007": 4.42542355977,
			"0.008": 4.68506489284,
			"0.009": 3.68747532136,
			"0.01": 5.50319754946,
			"0.011": 7.49832266438,
			"0.012": 6.08683250984,
			"0.013": 3.23713957792,
			"0.014": 0.139699032454,
			"0.015": 0.0,
			"0.016": 0.0,
			"0.017": 0.0,
			"0.018": 0.0,
			"0.019": 0.0,
			"0.02": 0.0,
			"0.021": 0.0,
			"0.022": 0.0,
			"0.023": 0.0,
			"0.024": 0.0,
			"0.025": 0.0
		}
	}
}
