{
	 "smiles": "CC(C=CC1=CC=CC=C1)=C/C(/C)=N/NC1=C(C=C(C=C1)[N+]([O-])=O)[N+]([O-])=O", 
	 "Tm": 506.15, 
	 "num_atms": 45, 
	 "gaussian": { 
		 "optdone": 1, 
		 "sigma_profile": "yes", 
		 "theory": "DFT", 
		 "functional": "B3LYP", 
		 "basiset": "6-31G**", 
		 "properties": { 
			 "R2extent": 20819.4424, 
			 "electric_dipole_moment_norm": 8.9628518341, 
			 "electric_quadrupole_moment_norm": 36.2933032495, 
			 "total_energy": -1254.52908024, 
			 "HOMO_LUMO_gap": 0.1037, 
			 "cosmo_polarized_energy": -17.43, 
			 "cosmo_cavitation_energy": 51.47, 
			 "cosmo_dispersion_energy": -36.41, 
			 "cosmo_repulsion_energy": 2.71, 
			 "cosmo_total_nonelectrostatic_energy": 17.77, 
			 "SMD_solvation_energy": 12.31 
		},
		"coords": [
			{
				"x": -1.1698016964,
				"y": -2.9804208616,
				"z": 1.9212161151,
				"element": "C" 
			},
			{
				"x": -0.2809654064,
				"y": -1.7687181553,
				"z": 1.7302232591,
				"element": "C" 
			},
			{
				"x": 0.7961384567,
				"y": -1.6410403338,
				"z": 2.7159089436,
				"element": "C" 
			},
			{
				"x": 1.9830536809,
				"y": -1.0243593709,
				"z": 2.5168227305,
				"element": "C" 
			},
			{
				"x": 3.0664745796,
				"y": -0.8605845585,
				"z": 3.4877461209,
				"element": "C" 
			},
			{
				"x": 4.3110485922,
				"y": -0.3794346733,
				"z": 3.0380855416,
				"element": "C" 
			},
			{
				"x": 5.381425793,
				"y": -0.2145845447,
				"z": 3.9145577008,
				"element": "C" 
			},
			{
				"x": 5.2311915833,
				"y": -0.5244275561,
				"z": 5.267071744,
				"element": "C" 
			},
			{
				"x": 3.9994333555,
				"y": -0.9950948277,
				"z": 5.7336945288,
				"element": "C" 
			},
			{
				"x": 2.9302325268,
				"y": -1.1577734256,
				"z": 4.8588892768,
				"element": "C" 
			},
			{
				"x": -0.445442112,
				"y": -0.8111511953,
				"z": 0.7740349785,
				"element": "C" 
			},
			{
				"x": -1.3531277794,
				"y": -0.7451967714,
				"z": -0.3621714047,
				"element": "C" 
			},
			{
				"x": -2.0423086356,
				"y": -1.9531007378,
				"z": -0.9579547038,
				"element": "C" 
			},
			{
				"x": -1.4686577049,
				"y": 0.453424837,
				"z": -0.868729591,
				"element": "N" 
			},
			{
				"x": -2.3006190504,
				"y": 0.6090736906,
				"z": -1.9303056808,
				"element": "N" 
			},
			{
				"x": -2.4316178413,
				"y": 1.820424653,
				"z": -2.5363958359,
				"element": "C" 
			},
			{
				"x": -3.3193420307,
				"y": 2.0313173115,
				"z": -3.6385302926,
				"element": "C" 
			},
			{
				"x": -3.430552571,
				"y": 3.2845927709,
				"z": -4.2442944808,
				"element": "C" 
			},
			{
				"x": -2.6717988442,
				"y": 4.3371484292,
				"z": -3.7712899284,
				"element": "C" 
			},
			{
				"x": -1.7891638624,
				"y": 4.1679345377,
				"z": -2.6895765691,
				"element": "C" 
			},
			{
				"x": -1.6730803845,
				"y": 2.9361904388,
				"z": -2.088529759,
				"element": "C" 
			},
			{
				"x": -2.7907430886,
				"y": 5.6456674434,
				"z": -4.4076642389,
				"element": "N" 
			},
			{
				"x": -3.5742402349,
				"y": 5.7581061288,
				"z": -5.3513533517,
				"element": "O" 
			},
			{
				"x": -2.0957540323,
				"y": 6.5594123507,
				"z": -3.9576712166,
				"element": "O" 
			},
			{
				"x": -4.1468707729,
				"y": 0.9728747852,
				"z": -4.1881194481,
				"element": "N" 
			},
			{
				"x": -4.0854079223,
				"y": -0.1633125763,
				"z": -3.6722302482,
				"element": "O" 
			},
			{
				"x": -4.8782283853,
				"y": 1.2294272138,
				"z": -5.1403890478,
				"element": "O" 
			},
			{
				"x": -0.7327969719,
				"y": -3.879652061,
				"z": 1.4676510077,
				"element": "H" 
			},
			{
				"x": -1.2732707483,
				"y": -3.194863477,
				"z": 2.9901609998,
				"element": "H" 
			},
			{
				"x": -2.1728634818,
				"y": -2.8459453371,
				"z": 1.5161038927,
				"element": "H" 
			},
			{
				"x": 0.61634561,
				"y": -2.1359746995,
				"z": 3.6692015993,
				"element": "H" 
			},
			{
				"x": 2.1919851573,
				"y": -0.6237823126,
				"z": 1.5260292705,
				"element": "H" 
			},
			{
				"x": 4.4341348108,
				"y": -0.1381279915,
				"z": 1.9852198642,
				"element": "H" 
			},
			{
				"x": 6.3318719119,
				"y": 0.1563799188,
				"z": 3.5419229864,
				"element": "H" 
			},
			{
				"x": 6.0622138488,
				"y": -0.3952195436,
				"z": 5.9541469745,
				"element": "H" 
			},
			{
				"x": 3.8717138826,
				"y": -1.2284392429,
				"z": 6.7869482786,
				"element": "H" 
			},
			{
				"x": 1.9767670026,
				"y": -1.5049162276,
				"z": 5.2449077818,
				"element": "H" 
			},
			{
				"x": 0.1572245722,
				"y": 0.0880075123,
				"z": 0.8667486538,
				"element": "H" 
			},
			{
				"x": -3.107717841,
				"y": -1.9906951389,
				"z": -0.6970057547,
				"element": "H" 
			},
			{
				"x": -1.9767649286,
				"y": -1.9311809449,
				"z": -2.0520225697,
				"element": "H" 
			},
			{
				"x": -1.5799475815,
				"y": -2.8804301311,
				"z": -0.6271794298,
				"element": "H" 
			},
			{
				"x": -2.9002339961,
				"y": -0.1304352651,
				"z": -2.2936349236,
				"element": "H" 
			},
			{
				"x": -4.1076208237,
				"y": 3.420187655,
				"z": -5.0762737708,
				"element": "H" 
			},
			{
				"x": -1.2110650083,
				"y": 5.0166223123,
				"z": -2.3454374344,
				"element": "H" 
			},
			{
				"x": -1.0024516274,
				"y": 2.7796699719,
				"z": -1.2547325685,
				"element": "H" 
			}
		],
		 "valence_orbital": [ 
			{
				"type": "occ",
				"energy": -0.28826,
				"method": "rhf"
			},
			{
				"type": "occ",
				"energy": -0.27871,
				"method": "rhf"
			},
			{
				"type": "occ",
				"energy": -0.26074,
				"method": "rhf"
			},
			{
				"type": "occ",
				"energy": -0.24293,
				"method": "rhf"
			},
			{
				"type": "occ",
				"energy": -0.20735,
				"method": "rhf"
			},
			{
				"type": "unocc",
				"energy": -0.10365,
				"method": "rhf"
			},
			{
				"type": "unocc",
				"energy": -0.09191,
				"method": "rhf"
			},
			{
				"type": "unocc",
				"energy": -0.06934,
				"method": "rhf"
			},
			{
				"type": "unocc",
				"energy": -0.02649,
				"method": "rhf"
			},
			{
				"type": "unocc",
				"energy": -0.01145,
				"method": "rhf"
			}
		],
		"cosmo_sigma_profile": { 
			"-0.025": 0.0,
			"-0.024": 0.0,
			"-0.023": 0.0,
			"-0.022": 0.0,
			"-0.021": 0.0,
			"-0.02": 0.0,
			"-0.019": 0.0,
			"-0.018": 0.0,
			"-0.017": 0.0,
			"-0.016": 0.0,
			"-0.015": 0.0,
			"-0.014": 0.0,
			"-0.013": 0.0,
			"-0.012": 0.0,
			"-0.011": 0.0,
			"-0.01": 0.0,
			"-0.009": 0.487096682906,
			"-0.008": 2.32442123293,
			"-0.007": 8.70744679677,
			"-0.006": 24.2348408136,
			"-0.005": 35.371844737,
			"-0.004": 35.7564987221,
			"-0.003": 37.0786507563,
			"-0.002": 39.2334243809,
			"-0.001": 36.1320668844,
			"0.0": 25.6147628985,
			"0.001": 22.0267542903,
			"0.002": 21.9245322756,
			"0.003": 21.4497775643,
			"0.004": 24.2440888063,
			"0.005": 21.0565645615,
			"0.006": 13.4316465214,
			"0.007": 13.250838077,
			"0.008": 14.3679895174,
			"0.009": 9.20676857111,
			"0.01": 6.01075052373,
			"0.011": 0.60973451583,
			"0.012": 0.0,
			"0.013": 0.0,
			"0.014": 0.0,
			"0.015": 0.0,
			"0.016": 0.0,
			"0.017": 0.0,
			"0.018": 0.0,
			"0.019": 0.0,
			"0.02": 0.0,
			"0.021": 0.0,
			"0.022": 0.0,
			"0.023": 0.0,
			"0.024": 0.0,
			"0.025": 0.0
		}
	}
}
