{
	 "smiles": "COC1=CC=C(C(O)=O)C(C)=C1", 
	 "Tm": 452.15, 
	 "num_atms": 22, 
	 "gaussian": { 
		 "optdone": 1, 
		 "sigma_profile": "yes", 
		 "theory": "DFT", 
		 "functional": "B3LYP", 
		 "basiset": "6-31G**", 
		 "properties": { 
			 "R2extent": 2638.6026, 
			 "electric_dipole_moment_norm": 3.56933324026, 
			 "electric_quadrupole_moment_norm": 8.16928773272, 
			 "total_energy": -574.668522155, 
			 "HOMO_LUMO_gap": 0.19223, 
			 "cosmo_polarized_energy": -10.62, 
			 "cosmo_cavitation_energy": 25.73, 
			 "cosmo_dispersion_energy": -19.1, 
			 "cosmo_repulsion_energy": 1.52, 
			 "cosmo_total_nonelectrostatic_energy": 8.14, 
			 "SMD_solvation_energy": 6.49 
		},
		"coords": [
			{
				"x": 2.2164542779,
				"y": -1.0903858256,
				"z": -2.1916411041,
				"element": "C" 
			},
			{
				"x": 2.3917100271,
				"y": -0.1398043449,
				"z": -1.1502076611,
				"element": "O" 
			},
			{
				"x": 1.371599507,
				"y": 0.0694885854,
				"z": -0.27713944,
				"element": "C" 
			},
			{
				"x": 1.6103700424,
				"y": 1.021401036,
				"z": 0.7254030312,
				"element": "C" 
			},
			{
				"x": 0.6185213607,
				"y": 1.2868769743,
				"z": 1.6491217681,
				"element": "C" 
			},
			{
				"x": -0.6281091313,
				"y": 0.6300510007,
				"z": 1.6157651195,
				"element": "C" 
			},
			{
				"x": -1.5725152791,
				"y": 1.0404032477,
				"z": 2.6852015316,
				"element": "C" 
			},
			{
				"x": -2.7787077666,
				"y": 0.4128107145,
				"z": 2.6624114316,
				"element": "O" 
			},
			{
				"x": -1.3253478322,
				"y": 1.8735480511,
				"z": 3.5393396614,
				"element": "O" 
			},
			{
				"x": -0.8755060173,
				"y": -0.3311546322,
				"z": 0.6072770334,
				"element": "C" 
			},
			{
				"x": -2.1679981344,
				"y": -1.103681072,
				"z": 0.4624127263,
				"element": "C" 
			},
			{
				"x": 0.1392831115,
				"y": -0.5920722999,
				"z": -0.3249219162,
				"element": "C" 
			},
			{
				"x": 2.0371153304,
				"y": -2.0968416552,
				"z": -1.7935373852,
				"element": "H" 
			},
			{
				"x": 3.1486181076,
				"y": -1.0887672723,
				"z": -2.7581777659,
				"element": "H" 
			},
			{
				"x": 1.3889143067,
				"y": -0.8129522825,
				"z": -2.856312962,
				"element": "H" 
			},
			{
				"x": 2.5687421713,
				"y": 1.5283638271,
				"z": 0.7534173518,
				"element": "H" 
			},
			{
				"x": 0.7785378357,
				"y": 2.0181914922,
				"z": 2.4335191503,
				"element": "H" 
			},
			{
				"x": -3.2671686229,
				"y": 0.7892041738,
				"z": 3.4134926869,
				"element": "H" 
			},
			{
				"x": -2.3878236175,
				"y": -1.6916504749,
				"z": 1.3573530704,
				"element": "H" 
			},
			{
				"x": -3.0214893654,
				"y": -0.4363719913,
				"z": 0.3167912171,
				"element": "H" 
			},
			{
				"x": -2.1083179172,
				"y": -1.7822750827,
				"z": -0.3925404061,
				"element": "H" 
			},
			{
				"x": -0.0524823943,
				"y": -1.3285821694,
				"z": -1.0962271393,
				"element": "H" 
			}
		],
		 "valence_orbital": [ 
			{
				"type": "occ",
				"energy": -0.32518,
				"method": "rhf"
			},
			{
				"type": "occ",
				"energy": -0.3045,
				"method": "rhf"
			},
			{
				"type": "occ",
				"energy": -0.26843,
				"method": "rhf"
			},
			{
				"type": "occ",
				"energy": -0.25151,
				"method": "rhf"
			},
			{
				"type": "occ",
				"energy": -0.22734,
				"method": "rhf"
			},
			{
				"type": "unocc",
				"energy": -0.03511,
				"method": "rhf"
			},
			{
				"type": "unocc",
				"energy": -0.00279,
				"method": "rhf"
			},
			{
				"type": "unocc",
				"energy": 0.06854,
				"method": "rhf"
			},
			{
				"type": "unocc",
				"energy": 0.08168,
				"method": "rhf"
			},
			{
				"type": "unocc",
				"energy": 0.09372,
				"method": "rhf"
			}
		],
		"cosmo_sigma_profile": { 
			"-0.025": 0.0,
			"-0.024": 0.0,
			"-0.023": 0.0,
			"-0.022": 0.0,
			"-0.021": 0.0,
			"-0.02": 0.0,
			"-0.019": 0.0,
			"-0.018": 0.147343751875,
			"-0.017": 1.09588403611,
			"-0.016": 0.830566057887,
			"-0.015": 0.332454114209,
			"-0.014": 1.0382869513,
			"-0.013": 0.64559563259,
			"-0.012": 0.917887714596,
			"-0.011": 0.584109662,
			"-0.01": 0.668013028269,
			"-0.009": 0.54548318715,
			"-0.008": 0.432649530298,
			"-0.007": 2.0796533855,
			"-0.006": 11.4598312671,
			"-0.005": 15.1030862567,
			"-0.004": 15.5797752255,
			"-0.003": 17.1810935746,
			"-0.002": 12.2507094277,
			"-0.001": 14.5064545295,
			"0.0": 19.0062038058,
			"0.001": 14.572626955,
			"0.002": 13.4072765544,
			"0.003": 15.9869132957,
			"0.004": 15.6682021791,
			"0.005": 5.57076654391,
			"0.006": 5.12084557574,
			"0.007": 2.40136384403,
			"0.008": 2.28753037901,
			"0.009": 2.95464447095,
			"0.01": 3.01138933205,
			"0.011": 2.02653111424,
			"0.012": 5.11032820584,
			"0.013": 1.54698045037,
			"0.014": 0.0,
			"0.015": 0.0,
			"0.016": 0.0,
			"0.017": 0.0,
			"0.018": 0.0,
			"0.019": 0.0,
			"0.02": 0.0,
			"0.021": 0.0,
			"0.022": 0.0,
			"0.023": 0.0,
			"0.024": 0.0,
			"0.025": 0.0
		}
	}
}
