{
	 "smiles": "COCC(=O)N(N1CCOC1=O)C1=C(C)C=CC=C1C", 
	 "Tm": 377.15, 
	 "num_atms": 38, 
	 "gaussian": { 
		 "optdone": 1, 
		 "sigma_profile": "yes", 
		 "theory": "DFT", 
		 "functional": "B3LYP", 
		 "basiset": "6-31G**", 
		 "properties": { 
			 "R2extent": 5492.8154, 
			 "electric_dipole_moment_norm": 5.23437857821, 
			 "electric_quadrupole_moment_norm": 19.3284207182, 
			 "total_energy": -954.709627194, 
			 "HOMO_LUMO_gap": 0.21759, 
			 "cosmo_polarized_energy": -19.25, 
			 "cosmo_cavitation_energy": 39.41, 
			 "cosmo_dispersion_energy": -26.7, 
			 "cosmo_repulsion_energy": 2.06, 
			 "cosmo_total_nonelectrostatic_energy": 14.77, 
			 "SMD_solvation_energy": 8.8 
		},
		"coords": [
			{
				"x": -3.5494291625,
				"y": -0.7495021968,
				"z": 3.1606122703,
				"element": "C" 
			},
			{
				"x": -2.5213915645,
				"y": -1.3597500871,
				"z": 2.4043251483,
				"element": "O" 
			},
			{
				"x": -1.3682966657,
				"y": -0.5493031184,
				"z": 2.3097444872,
				"element": "C" 
			},
			{
				"x": -0.258865902,
				"y": -1.3756667123,
				"z": 1.6597770387,
				"element": "C" 
			},
			{
				"x": 0.1308849275,
				"y": -2.420189619,
				"z": 2.1489531782,
				"element": "O" 
			},
			{
				"x": 0.3523677658,
				"y": -0.82161018,
				"z": 0.5343575729,
				"element": "N" 
			},
			{
				"x": 1.5292055017,
				"y": -1.4328812405,
				"z": 0.1047042392,
				"element": "N" 
			},
			{
				"x": 1.474358971,
				"y": -2.6972027065,
				"z": -0.6361820747,
				"element": "C" 
			},
			{
				"x": 2.957382226,
				"y": -3.0827216268,
				"z": -0.581925041,
				"element": "C" 
			},
			{
				"x": 3.4543888892,
				"y": -2.453198987,
				"z": 0.6156240298,
				"element": "O" 
			},
			{
				"x": 2.6062957129,
				"y": -1.4647953541,
				"z": 1.0065372808,
				"element": "C" 
			},
			{
				"x": 2.8010206823,
				"y": -0.7392539478,
				"z": 1.9470323423,
				"element": "O" 
			},
			{
				"x": -0.2241306376,
				"y": 0.1632064629,
				"z": -0.3502430696,
				"element": "C" 
			},
			{
				"x": 0.4045429222,
				"y": 1.4171881061,
				"z": -0.4895361137,
				"element": "C" 
			},
			{
				"x": 1.6667258028,
				"y": 1.7695858188,
				"z": 0.2560363193,
				"element": "C" 
			},
			{
				"x": -0.1696202862,
				"y": 2.347510209,
				"z": -1.3646556928,
				"element": "C" 
			},
			{
				"x": -1.3268670026,
				"y": 2.0481512824,
				"z": -2.07807406,
				"element": "C" 
			},
			{
				"x": -1.9297512581,
				"y": 0.8011596892,
				"z": -1.9313873508,
				"element": "C" 
			},
			{
				"x": -1.3908527152,
				"y": -0.1663133837,
				"z": -1.075136382,
				"element": "C" 
			},
			{
				"x": -2.0703487551,
				"y": -1.511723208,
				"z": -0.9478119259,
				"element": "C" 
			},
			{
				"x": -3.2256286483,
				"y": -0.5516339464,
				"z": 4.1935993949,
				"element": "H" 
			},
			{
				"x": -3.8813183943,
				"y": 0.1999415611,
				"z": 2.7124246813,
				"element": "H" 
			},
			{
				"x": -4.3897230013,
				"y": -1.4468201717,
				"z": 3.1789106383,
				"element": "H" 
			},
			{
				"x": -1.5754525381,
				"y": 0.3804449629,
				"z": 1.7644937764,
				"element": "H" 
			},
			{
				"x": -0.9912913284,
				"y": -0.2817445154,
				"z": 3.3104459864,
				"element": "H" 
			},
			{
				"x": 1.1187100163,
				"y": -2.5458372722,
				"z": -1.6584613227,
				"element": "H" 
			},
			{
				"x": 0.8376949181,
				"y": -3.4208039716,
				"z": -0.1163757633,
				"element": "H" 
			},
			{
				"x": 3.1258043272,
				"y": -4.1575123492,
				"z": -0.4997856449,
				"element": "H" 
			},
			{
				"x": 3.5135224758,
				"y": -2.6889802986,
				"z": -1.4396550976,
				"element": "H" 
			},
			{
				"x": 1.7599947918,
				"y": 2.854257117,
				"z": 0.3580225859,
				"element": "H" 
			},
			{
				"x": 1.7102905282,
				"y": 1.3089220304,
				"z": 1.2440209301,
				"element": "H" 
			},
			{
				"x": 2.5509489867,
				"y": 1.4131836021,
				"z": -0.2861460134,
				"element": "H" 
			},
			{
				"x": 0.3007849975,
				"y": 3.3206533926,
				"z": -1.4767763638,
				"element": "H" 
			},
			{
				"x": -1.7588401956,
				"y": 2.7852323359,
				"z": -2.7490483387,
				"element": "H" 
			},
			{
				"x": -2.8290972983,
				"y": 0.5638189459,
				"z": -2.4929817123,
				"element": "H" 
			},
			{
				"x": -2.5502742287,
				"y": -1.6420368823,
				"z": 0.0281642465,
				"element": "H" 
			},
			{
				"x": -2.8406013586,
				"y": -1.6181004055,
				"z": -1.7159824894,
				"element": "H" 
			},
			{
				"x": -1.3642435017,
				"y": -2.3392733354,
				"z": -1.0670216904,
				"element": "H" 
			}
		],
		 "valence_orbital": [ 
			{
				"type": "occ",
				"energy": -0.27246,
				"method": "rhf"
			},
			{
				"type": "occ",
				"energy": -0.26527,
				"method": "rhf"
			},
			{
				"type": "occ",
				"energy": -0.25408,
				"method": "rhf"
			},
			{
				"type": "occ",
				"energy": -0.24509,
				"method": "rhf"
			},
			{
				"type": "occ",
				"energy": -0.24051,
				"method": "rhf"
			},
			{
				"type": "unocc",
				"energy": -0.02292,
				"method": "rhf"
			},
			{
				"type": "unocc",
				"energy": -0.00777,
				"method": "rhf"
			},
			{
				"type": "unocc",
				"energy": 0.00543,
				"method": "rhf"
			},
			{
				"type": "unocc",
				"energy": 0.04317,
				"method": "rhf"
			},
			{
				"type": "unocc",
				"energy": 0.07867,
				"method": "rhf"
			}
		],
		"cosmo_sigma_profile": { 
			"-0.025": 0.0,
			"-0.024": 0.0,
			"-0.023": 0.0,
			"-0.022": 0.0,
			"-0.021": 0.0,
			"-0.02": 0.0,
			"-0.019": 0.0,
			"-0.018": 0.0,
			"-0.017": 0.0,
			"-0.016": 0.0,
			"-0.015": 0.0,
			"-0.014": 0.0,
			"-0.013": 0.0,
			"-0.012": 0.0,
			"-0.011": 0.0,
			"-0.01": 0.0,
			"-0.009": 0.0,
			"-0.008": 2.02863124598,
			"-0.007": 10.9805973172,
			"-0.006": 19.8058752165,
			"-0.005": 32.8187639726,
			"-0.004": 34.486019473,
			"-0.003": 26.7805181749,
			"-0.002": 24.3499323932,
			"-0.001": 19.468583003,
			"0.0": 24.3032510379,
			"0.001": 16.2291119228,
			"0.002": 13.5583401042,
			"0.003": 13.0134881454,
			"0.004": 12.9136779814,
			"0.005": 11.582663909,
			"0.006": 6.11995038039,
			"0.007": 4.15693914028,
			"0.008": 5.99574511981,
			"0.009": 6.73372599634,
			"0.01": 6.08574728237,
			"0.011": 6.47904478088,
			"0.012": 7.66964626494,
			"0.013": 4.7640227685,
			"0.014": 0.620201089465,
			"0.015": 0.0,
			"0.016": 0.0,
			"0.017": 0.0,
			"0.018": 0.0,
			"0.019": 0.0,
			"0.02": 0.0,
			"0.021": 0.0,
			"0.022": 0.0,
			"0.023": 0.0,
			"0.024": 0.0,
			"0.025": 0.0
		}
	}
}
