{
	 "smiles": "OCC=CC1=CC=CC=C1", 
	 "Tm": 305.15, 
	 "num_atms": 20, 
	 "gaussian": { 
		 "optdone": 1, 
		 "sigma_profile": "yes", 
		 "theory": "DFT", 
		 "functional": "B3LYP", 
		 "basiset": "6-31G**", 
		 "properties": { 
			 "R2extent": 1792.381, 
			 "electric_dipole_moment_norm": 1.53549008137, 
			 "electric_quadrupole_moment_norm": 8.64411000219, 
			 "total_energy": -424.176202034, 
			 "HOMO_LUMO_gap": 0.19538, 
			 "cosmo_polarized_energy": -8.32, 
			 "cosmo_cavitation_energy": 23.24, 
			 "cosmo_dispersion_energy": -17.2, 
			 "cosmo_repulsion_energy": 1.41, 
			 "cosmo_total_nonelectrostatic_energy": 7.46, 
			 "SMD_solvation_energy": 4.14 
		},
		"coords": [
			{
				"x": 1.9141627976,
				"y": -0.8562943892,
				"z": -2.2753792104,
				"element": "O" 
			},
			{
				"x": 0.6159587709,
				"y": -1.3454881116,
				"z": -1.9080493196,
				"element": "C" 
			},
			{
				"x": -0.4311799379,
				"y": -0.353548855,
				"z": -2.3309221471,
				"element": "C" 
			},
			{
				"x": -0.9155576019,
				"y": 0.657785287,
				"z": -1.5900568297,
				"element": "C" 
			},
			{
				"x": -0.5165456025,
				"y": 1.0767082826,
				"z": -0.234594435,
				"element": "C" 
			},
			{
				"x": -1.4818420512,
				"y": 1.6576130371,
				"z": 0.6088230473,
				"element": "C" 
			},
			{
				"x": -1.1568399484,
				"y": 2.0641839982,
				"z": 1.9007879668,
				"element": "C" 
			},
			{
				"x": 0.1494732664,
				"y": 1.9145627714,
				"z": 2.372785713,
				"element": "C" 
			},
			{
				"x": 1.124766684,
				"y": 1.3647760912,
				"z": 1.538360271,
				"element": "C" 
			},
			{
				"x": 0.8016834574,
				"y": 0.9528212397,
				"z": 0.245494924,
				"element": "C" 
			},
			{
				"x": 2.5562788085,
				"y": -1.5427460844,
				"z": -2.0491181048,
				"element": "H" 
			},
			{
				"x": 0.4182848216,
				"y": -2.3076633539,
				"z": -2.4042136682,
				"element": "H" 
			},
			{
				"x": 0.5556282725,
				"y": -1.5105408975,
				"z": -0.8226775392,
				"element": "H" 
			},
			{
				"x": -0.8387734346,
				"y": -0.486690837,
				"z": -3.3307437035,
				"element": "H" 
			},
			{
				"x": -1.7277432097,
				"y": 1.2421992563,
				"z": -2.0228543748,
				"element": "H" 
			},
			{
				"x": -2.4992744484,
				"y": 1.7786671901,
				"z": 0.2448419052,
				"element": "H" 
			},
			{
				"x": -1.9201473792,
				"y": 2.5024672387,
				"z": 2.537701913,
				"element": "H" 
			},
			{
				"x": 0.4076804716,
				"y": 2.2376518244,
				"z": 3.3772978262,
				"element": "H" 
			},
			{
				"x": 2.1481797653,
				"y": 1.2685321012,
				"z": 1.8908279567,
				"element": "H" 
			},
			{
				"x": 1.5725064982,
				"y": 0.5693042107,
				"z": -0.4157121911,
				"element": "H" 
			}
		],
		 "valence_orbital": [ 
			{
				"type": "occ",
				"energy": -0.32229,
				"method": "rhf"
			},
			{
				"type": "occ",
				"energy": -0.2856,
				"method": "rhf"
			},
			{
				"type": "occ",
				"energy": -0.26885,
				"method": "rhf"
			},
			{
				"type": "occ",
				"energy": -0.2459,
				"method": "rhf"
			},
			{
				"type": "occ",
				"energy": -0.22345,
				"method": "rhf"
			},
			{
				"type": "unocc",
				"energy": -0.02807,
				"method": "rhf"
			},
			{
				"type": "unocc",
				"energy": 0.00285,
				"method": "rhf"
			},
			{
				"type": "unocc",
				"energy": 0.04357,
				"method": "rhf"
			},
			{
				"type": "unocc",
				"energy": 0.09001,
				"method": "rhf"
			},
			{
				"type": "unocc",
				"energy": 0.10231,
				"method": "rhf"
			}
		],
		"cosmo_sigma_profile": { 
			"-0.025": 0.0,
			"-0.024": 0.0,
			"-0.023": 0.0,
			"-0.022": 0.0,
			"-0.021": 0.0,
			"-0.02": 0.0,
			"-0.019": 0.0,
			"-0.018": 0.0,
			"-0.017": 0.0,
			"-0.016": 0.241846524811,
			"-0.015": 1.24089275415,
			"-0.014": 0.96239218719,
			"-0.013": 0.523967095497,
			"-0.012": 1.1582117897,
			"-0.011": 1.05964307244,
			"-0.01": 0.780196156066,
			"-0.009": 0.822513790153,
			"-0.008": 0.775910637459,
			"-0.007": 0.875831299841,
			"-0.006": 4.77798580517,
			"-0.005": 14.9478843826,
			"-0.004": 17.7912139095,
			"-0.003": 19.0255237983,
			"-0.002": 15.3648210569,
			"-0.001": 11.5226019221,
			"0.0": 12.1520509916,
			"0.001": 9.92450426219,
			"0.002": 10.4785522428,
			"0.003": 12.1777723763,
			"0.004": 13.4099847412,
			"0.005": 12.4578276897,
			"0.006": 9.51671227917,
			"0.007": 2.20251029367,
			"0.008": 1.59533265256,
			"0.009": 1.79333537712,
			"0.01": 1.05688903538,
			"0.011": 1.00936950234,
			"0.012": 1.53125798585,
			"0.013": 1.27892693875,
			"0.014": 1.60711932998,
			"0.015": 0.409045003456,
			"0.016": 0.0,
			"0.017": 0.0,
			"0.018": 0.0,
			"0.019": 0.0,
			"0.02": 0.0,
			"0.021": 0.0,
			"0.022": 0.0,
			"0.023": 0.0,
			"0.024": 0.0,
			"0.025": 0.0
		}
	}
}
