{
	 "smiles": "BrCCOC(=O)NC1=CC=CC=C1", 
	 "Tm": 338.15, 
	 "num_atms": 23, 
	 "gaussian": { 
		 "optdone": 1, 
		 "sigma_profile": "yes", 
		 "theory": "DFT", 
		 "functional": "B3LYP", 
		 "basiset": "6-31G**", 
		 "properties": { 
			 "R2extent": 4320.894, 
			 "electric_dipole_moment_norm": 1.36190139878, 
			 "electric_quadrupole_moment_norm": 12.3593595024, 
			 "total_energy": -3125.61266486, 
			 "HOMO_LUMO_gap": 0.21561, 
			 "cosmo_polarized_energy": -11.68, 
			 "cosmo_cavitation_energy": 29.7, 
			 "cosmo_dispersion_energy": -21.5, 
			 "cosmo_repulsion_energy": 1.72, 
			 "cosmo_total_nonelectrostatic_energy": 9.92, 
			 "SMD_solvation_energy": 4.95 
		},
		"coords": [
			{
				"x": 2.1887622842,
				"y": 1.1497779181,
				"z": 1.5257439182,
				"element": "Br" 
			},
			{
				"x": 2.0347320383,
				"y": -0.8082478778,
				"z": 1.2945703712,
				"element": "C" 
			},
			{
				"x": 1.4361146333,
				"y": -1.181362968,
				"z": -0.047462449,
				"element": "C" 
			},
			{
				"x": 0.1058399516,
				"y": -0.675741339,
				"z": -0.2213205783,
				"element": "O" 
			},
			{
				"x": -0.872502407,
				"y": -1.3849247692,
				"z": 0.395360013,
				"element": "C" 
			},
			{
				"x": -0.6823585264,
				"y": -2.4065894386,
				"z": 1.0333552114,
				"element": "O" 
			},
			{
				"x": -2.1169662282,
				"y": -0.8384448219,
				"z": 0.2174213846,
				"element": "N" 
			},
			{
				"x": -2.556941115,
				"y": 0.3150559189,
				"z": -0.4769388344,
				"element": "C" 
			},
			{
				"x": -1.7615431949,
				"y": 1.4548829789,
				"z": -0.6614743067,
				"element": "C" 
			},
			{
				"x": -2.2908415129,
				"y": 2.5600701438,
				"z": -1.3276811022,
				"element": "C" 
			},
			{
				"x": -3.6049088054,
				"y": 2.5592205134,
				"z": -1.7979325056,
				"element": "C" 
			},
			{
				"x": -4.3990183719,
				"y": 1.4292723062,
				"z": -1.5968186905,
				"element": "C" 
			},
			{
				"x": -3.8791988906,
				"y": 0.3129224259,
				"z": -0.9459355321,
				"element": "C" 
			},
			{
				"x": 1.4214273916,
				"y": -1.1685831748,
				"z": 2.117920164,
				"element": "H" 
			},
			{
				"x": 3.0477810101,
				"y": -1.2013787274,
				"z": 1.3828311583,
				"element": "H" 
			},
			{
				"x": 1.4248468868,
				"y": -2.2734197584,
				"z": -0.1261852325,
				"element": "H" 
			},
			{
				"x": 2.0105622299,
				"y": -0.7543689118,
				"z": -0.8709680108,
				"element": "H" 
			},
			{
				"x": -2.8361828693,
				"y": -1.4335105247,
				"z": 0.6035715843,
				"element": "H" 
			},
			{
				"x": -0.7479350519,
				"y": 1.477440547,
				"z": -0.2845115117,
				"element": "H" 
			},
			{
				"x": -1.665171025,
				"y": 3.4370396829,
				"z": -1.4673033556,
				"element": "H" 
			},
			{
				"x": -4.0059605725,
				"y": 3.4282859827,
				"z": -2.3102324187,
				"element": "H" 
			},
			{
				"x": -5.4251004773,
				"y": 1.409622035,
				"z": -1.9525054911,
				"element": "H" 
			},
			{
				"x": -4.4964373775,
				"y": -0.5709181412,
				"z": -0.803703786,
				"element": "H" 
			}
		],
		 "valence_orbital": [ 
			{
				"type": "occ",
				"energy": -0.28737,
				"method": "rhf"
			},
			{
				"type": "occ",
				"energy": -0.27698,
				"method": "rhf"
			},
			{
				"type": "occ",
				"energy": -0.27502,
				"method": "rhf"
			},
			{
				"type": "occ",
				"energy": -0.2534,
				"method": "rhf"
			},
			{
				"type": "occ",
				"energy": -0.22398,
				"method": "rhf"
			},
			{
				"type": "unocc",
				"energy": -0.00837,
				"method": "rhf"
			},
			{
				"type": "unocc",
				"energy": -0.00402,
				"method": "rhf"
			},
			{
				"type": "unocc",
				"energy": -0.00162,
				"method": "rhf"
			},
			{
				"type": "unocc",
				"energy": 0.05442,
				"method": "rhf"
			},
			{
				"type": "unocc",
				"energy": 0.07891,
				"method": "rhf"
			}
		],
		"cosmo_sigma_profile": { 
			"-0.025": 0.0,
			"-0.024": 0.0,
			"-0.023": 0.0,
			"-0.022": 0.0,
			"-0.021": 0.0,
			"-0.02": 0.0,
			"-0.019": 0.0,
			"-0.018": 0.0,
			"-0.017": 0.0,
			"-0.016": 0.0,
			"-0.015": 0.682568916491,
			"-0.014": 1.2106432711,
			"-0.013": 0.913401332982,
			"-0.012": 1.1250467761,
			"-0.011": 0.97414450681,
			"-0.01": 1.30178853305,
			"-0.009": 1.75060052482,
			"-0.008": 4.97849373985,
			"-0.007": 9.66806250161,
			"-0.006": 12.8322479783,
			"-0.005": 16.5142956376,
			"-0.004": 16.4410751817,
			"-0.003": 14.3498492455,
			"-0.002": 13.8261936078,
			"-0.001": 13.8243597818,
			"0.0": 15.0497685619,
			"0.001": 14.7653831294,
			"0.002": 17.176932343,
			"0.003": 17.4237464128,
			"0.004": 15.5325956002,
			"0.005": 19.8597584225,
			"0.006": 14.8808593471,
			"0.007": 2.19664480112,
			"0.008": 1.52097859864,
			"0.009": 1.42328230565,
			"0.01": 1.50514718297,
			"0.011": 1.40233900206,
			"0.012": 3.67940053476,
			"0.013": 2.96455263644,
			"0.014": 0.0644446500261,
			"0.015": 0.0,
			"0.016": 0.0,
			"0.017": 0.0,
			"0.018": 0.0,
			"0.019": 0.0,
			"0.02": 0.0,
			"0.021": 0.0,
			"0.022": 0.0,
			"0.023": 0.0,
			"0.024": 0.0,
			"0.025": 0.0
		}
	}
}
