{
	 "smiles": "CCOP(=O)(SC1=CC=CC=C1)SC1=CC=CC=C1", 
	 "Tm": 248.15, 
	 "num_atms": 34, 
	 "gaussian": { 
		 "optdone": 1, 
		 "sigma_profile": "yes", 
		 "theory": "DFT", 
		 "functional": "B3LYP", 
		 "basiset": "6-31G**", 
		 "properties": { 
			 "R2extent": 7228.9351, 
			 "electric_dipole_moment_norm": 4.36382413715, 
			 "electric_quadrupole_moment_norm": 13.204773404, 
			 "total_energy": -1830.76289469, 
			 "HOMO_LUMO_gap": 0.20213, 
			 "cosmo_polarized_energy": -13.73, 
			 "cosmo_cavitation_energy": 43.33, 
			 "cosmo_dispersion_energy": -28.67, 
			 "cosmo_repulsion_energy": 2.14, 
			 "cosmo_total_nonelectrostatic_energy": 16.8, 
			 "SMD_solvation_energy": 7.02 
		},
		"coords": [
			{
				"x": -1.9226484842,
				"y": -0.6770287934,
				"z": -2.3450148309,
				"element": "C" 
			},
			{
				"x": -1.5797792349,
				"y": 0.4535358068,
				"z": -1.3916996875,
				"element": "C" 
			},
			{
				"x": -0.62612194,
				"y": -0.0028164549,
				"z": -0.3868124544,
				"element": "O" 
			},
			{
				"x": -1.1673063931,
				"y": -0.4752388156,
				"z": 1.0654937195,
				"element": "P" 
			},
			{
				"x": -2.5911273689,
				"y": -0.910566429,
				"z": 1.0981196063,
				"element": "O" 
			},
			{
				"x": -0.8942082947,
				"y": 1.1430247349,
				"z": 2.4169528324,
				"element": "S" 
			},
			{
				"x": 0.7817841858,
				"y": 1.7129407874,
				"z": 2.0854122747,
				"element": "C" 
			},
			{
				"x": 1.0424529728,
				"y": 2.5603828124,
				"z": 1.0016106206,
				"element": "C" 
			},
			{
				"x": 2.3341742629,
				"y": 3.0450320738,
				"z": 0.7963310033,
				"element": "C" 
			},
			{
				"x": 3.3632228082,
				"y": 2.6967611337,
				"z": 1.6740714439,
				"element": "C" 
			},
			{
				"x": 3.0999536276,
				"y": 1.8601350199,
				"z": 2.7601180949,
				"element": "C" 
			},
			{
				"x": 1.8116278542,
				"y": 1.3659070348,
				"z": 2.9685252361,
				"element": "C" 
			},
			{
				"x": 0.2972259862,
				"y": -1.9002732733,
				"z": 1.6362050425,
				"element": "S" 
			},
			{
				"x": 0.01732249,
				"y": -3.1318601219,
				"z": 0.3508674163,
				"element": "C" 
			},
			{
				"x": 1.0013189831,
				"y": -3.3364723416,
				"z": -0.6235705729,
				"element": "C" 
			},
			{
				"x": 0.8225983335,
				"y": -4.3300793754,
				"z": -1.5872048627,
				"element": "C" 
			},
			{
				"x": -0.3393043908,
				"y": -5.1049445348,
				"z": -1.5892484638,
				"element": "C" 
			},
			{
				"x": -1.3235163355,
				"y": -4.889821908,
				"z": -0.6220097076,
				"element": "C" 
			},
			{
				"x": -1.1474098072,
				"y": -3.9098761552,
				"z": 0.3560693168,
				"element": "C" 
			},
			{
				"x": -2.4482495824,
				"y": -1.4752800465,
				"z": -1.815493212,
				"element": "H" 
			},
			{
				"x": -2.5709840358,
				"y": -0.3033423262,
				"z": -3.1452149272,
				"element": "H" 
			},
			{
				"x": -1.0167055413,
				"y": -1.0913515865,
				"z": -2.7960290287,
				"element": "H" 
			},
			{
				"x": -1.0737534198,
				"y": 1.2759333749,
				"z": -1.9051351424,
				"element": "H" 
			},
			{
				"x": -2.477423471,
				"y": 0.8419865769,
				"z": -0.9026924686,
				"element": "H" 
			},
			{
				"x": 0.2378335009,
				"y": 2.8358581629,
				"z": 0.3286999957,
				"element": "H" 
			},
			{
				"x": 2.5349496016,
				"y": 3.6996388781,
				"z": -0.0468151739,
				"element": "H" 
			},
			{
				"x": 4.3668552219,
				"y": 3.0796534245,
				"z": 1.5136742656,
				"element": "H" 
			},
			{
				"x": 3.8968494072,
				"y": 1.588642996,
				"z": 3.4462103404,
				"element": "H" 
			},
			{
				"x": 1.6012719587,
				"y": 0.7137724142,
				"z": 3.8097486771,
				"element": "H" 
			},
			{
				"x": 1.8949613915,
				"y": -2.7212590681,
				"z": -0.6224644562,
				"element": "H" 
			},
			{
				"x": 1.5889985418,
				"y": -4.4934020299,
				"z": -2.3394083973,
				"element": "H" 
			},
			{
				"x": -0.477329306,
				"y": -5.8748106719,
				"z": -2.3429146105,
				"element": "H" 
			},
			{
				"x": -2.2290279236,
				"y": -5.4895294051,
				"z": -0.6222071357,
				"element": "H" 
			},
			{
				"x": -1.9074055985,
				"y": -3.7348518942,
				"z": 1.1093252459,
				"element": "H" 
			}
		],
		 "valence_orbital": [ 
			{
				"type": "occ",
				"energy": -0.26274,
				"method": "rhf"
			},
			{
				"type": "occ",
				"energy": -0.25987,
				"method": "rhf"
			},
			{
				"type": "occ",
				"energy": -0.25856,
				"method": "rhf"
			},
			{
				"type": "occ",
				"energy": -0.24828,
				"method": "rhf"
			},
			{
				"type": "occ",
				"energy": -0.2451,
				"method": "rhf"
			},
			{
				"type": "unocc",
				"energy": -0.04297,
				"method": "rhf"
			},
			{
				"type": "unocc",
				"energy": -0.01937,
				"method": "rhf"
			},
			{
				"type": "unocc",
				"energy": -0.01388,
				"method": "rhf"
			},
			{
				"type": "unocc",
				"energy": -0.0113,
				"method": "rhf"
			},
			{
				"type": "unocc",
				"energy": 0.0133,
				"method": "rhf"
			}
		],
		"cosmo_sigma_profile": { 
			"-0.025": 0.0,
			"-0.024": 0.0,
			"-0.023": 0.0,
			"-0.022": 0.0,
			"-0.021": 0.0,
			"-0.02": 0.0,
			"-0.019": 0.0,
			"-0.018": 0.0,
			"-0.017": 0.0,
			"-0.016": 0.0,
			"-0.015": 0.0,
			"-0.014": 0.0,
			"-0.013": 0.0,
			"-0.012": 0.0,
			"-0.011": 0.0,
			"-0.01": 0.0,
			"-0.009": 0.0,
			"-0.008": 0.0,
			"-0.007": 5.63831379281,
			"-0.006": 23.3881397004,
			"-0.005": 29.2988932059,
			"-0.004": 31.2401644434,
			"-0.003": 25.054728792,
			"-0.002": 23.193205023,
			"-0.001": 24.3121121222,
			"0.0": 27.1638406741,
			"0.001": 27.0903002782,
			"0.002": 30.4534135181,
			"0.003": 32.3098876006,
			"0.004": 29.4516660555,
			"0.005": 14.0327656251,
			"0.006": 6.68500151423,
			"0.007": 3.89009039447,
			"0.008": 2.23736138768,
			"0.009": 1.35829672378,
			"0.01": 1.70409287249,
			"0.011": 1.13997880703,
			"0.012": 1.74565608519,
			"0.013": 4.33384058947,
			"0.014": 1.63003963825,
			"0.015": 0.0,
			"0.016": 0.0,
			"0.017": 0.0,
			"0.018": 0.0,
			"0.019": 0.0,
			"0.02": 0.0,
			"0.021": 0.0,
			"0.022": 0.0,
			"0.023": 0.0,
			"0.024": 0.0,
			"0.025": 0.0
		}
	}
}
