{
	 "smiles": "OC(=O)C1=CC=C(C=C1)N1NC(=O)CCC1=O", 
	 "Tm": 522.15, 
	 "num_atms": 27, 
	 "gaussian": { 
		 "optdone": 1, 
		 "sigma_profile": "yes", 
		 "theory": "DFT", 
		 "functional": "B3LYP", 
		 "basiset": "6-31G**", 
		 "properties": { 
			 "R2extent": 5536.2972, 
			 "electric_dipole_moment_norm": 1.62013460243, 
			 "electric_quadrupole_moment_norm": 20.9981056393, 
			 "total_energy": -835.603225333, 
			 "HOMO_LUMO_gap": 0.17509, 
			 "cosmo_polarized_energy": -20.7, 
			 "cosmo_cavitation_energy": 31.86, 
			 "cosmo_dispersion_energy": -23.3, 
			 "cosmo_repulsion_energy": 1.8, 
			 "cosmo_total_nonelectrostatic_energy": 10.35, 
			 "SMD_solvation_energy": 8.15 
		},
		"coords": [
			{
				"x": 3.9088921612,
				"y": 3.9872067637,
				"z": 0.8549577078,
				"element": "O" 
			},
			{
				"x": 3.581156285,
				"y": 3.3231403069,
				"z": -0.2834024052,
				"element": "C" 
			},
			{
				"x": 4.2247836371,
				"y": 3.4436703104,
				"z": -1.3075578902,
				"element": "O" 
			},
			{
				"x": 2.382441868,
				"y": 2.4624471717,
				"z": -0.1291056784,
				"element": "C" 
			},
			{
				"x": 1.6792617829,
				"y": 2.3590301524,
				"z": 1.077661676,
				"element": "C" 
			},
			{
				"x": 0.558902452,
				"y": 1.541383296,
				"z": 1.1714026744,
				"element": "C" 
			},
			{
				"x": 0.1242189227,
				"y": 0.8079195703,
				"z": 0.054287593,
				"element": "C" 
			},
			{
				"x": 0.8220140508,
				"y": 0.9117989766,
				"z": -1.1621149543,
				"element": "C" 
			},
			{
				"x": 1.941791016,
				"y": 1.7302992071,
				"z": -1.2391686123,
				"element": "C" 
			},
			{
				"x": -1.0423791138,
				"y": -0.0045026376,
				"z": 0.1675181536,
				"element": "N" 
			},
			{
				"x": -1.9406383037,
				"y": 0.3671028126,
				"z": 1.1828750841,
				"element": "N" 
			},
			{
				"x": -2.6660814479,
				"y": -0.5226498819,
				"z": 1.9530888187,
				"element": "C" 
			},
			{
				"x": -3.4727474253,
				"y": -0.1229143066,
				"z": 2.7731142055,
				"element": "O" 
			},
			{
				"x": -2.4180064046,
				"y": -1.9687480431,
				"z": 1.5741208656,
				"element": "C" 
			},
			{
				"x": -2.388593061,
				"y": -2.0502382629,
				"z": 0.0395243769,
				"element": "C" 
			},
			{
				"x": -1.2597702964,
				"y": -1.2009407352,
				"z": -0.52780248,
				"element": "C" 
			},
			{
				"x": -0.5546544832,
				"y": -1.5602083187,
				"z": -1.4534135926,
				"element": "O" 
			},
			{
				"x": 4.6984345462,
				"y": 4.5086537555,
				"z": 0.6361627921,
				"element": "H" 
			},
			{
				"x": 2.0136679495,
				"y": 2.9158723369,
				"z": 1.9454314527,
				"element": "H" 
			},
			{
				"x": 0.0277823088,
				"y": 1.4592562068,
				"z": 2.1120918193,
				"element": "H" 
			},
			{
				"x": 0.4941069599,
				"y": 0.346360117,
				"z": -2.0212094493,
				"element": "H" 
			},
			{
				"x": 2.4895802658,
				"y": 1.821022075,
				"z": -2.1709684472,
				"element": "H" 
			},
			{
				"x": -2.26532323,
				"y": 1.3264993447,
				"z": 1.1462704853,
				"element": "H" 
			},
			{
				"x": -1.4628303232,
				"y": -2.3099696366,
				"z": 1.9923750644,
				"element": "H" 
			},
			{
				"x": -3.2133551921,
				"y": -2.5734086677,
				"z": 2.0120812154,
				"element": "H" 
			},
			{
				"x": -3.3451991373,
				"y": -1.704146659,
				"z": -0.3732149406,
				"element": "H" 
			},
			{
				"x": -2.2238557873,
				"y": -3.0656352543,
				"z": -0.3241055349,
				"element": "H" 
			}
		],
		 "valence_orbital": [ 
			{
				"type": "occ",
				"energy": -0.2793,
				"method": "rhf"
			},
			{
				"type": "occ",
				"energy": -0.27807,
				"method": "rhf"
			},
			{
				"type": "occ",
				"energy": -0.27262,
				"method": "rhf"
			},
			{
				"type": "occ",
				"energy": -0.26659,
				"method": "rhf"
			},
			{
				"type": "occ",
				"energy": -0.2321,
				"method": "rhf"
			},
			{
				"type": "unocc",
				"energy": -0.05701,
				"method": "rhf"
			},
			{
				"type": "unocc",
				"energy": -0.01864,
				"method": "rhf"
			},
			{
				"type": "unocc",
				"energy": -0.01305,
				"method": "rhf"
			},
			{
				"type": "unocc",
				"energy": 0.00684,
				"method": "rhf"
			},
			{
				"type": "unocc",
				"energy": 0.05393,
				"method": "rhf"
			}
		],
		"cosmo_sigma_profile": { 
			"-0.025": 0.0,
			"-0.024": 0.0,
			"-0.023": 0.0,
			"-0.022": 0.0,
			"-0.021": 0.0,
			"-0.02": 0.0,
			"-0.019": 0.0,
			"-0.018": 0.724777474726,
			"-0.017": 0.819235610095,
			"-0.016": 1.55183359835,
			"-0.015": 1.86204602487,
			"-0.014": 1.57830077704,
			"-0.013": 2.16647186218,
			"-0.012": 1.45169647587,
			"-0.011": 1.6488961341,
			"-0.01": 1.83408204371,
			"-0.009": 1.63510362432,
			"-0.008": 5.01880839718,
			"-0.007": 12.4428218909,
			"-0.006": 17.4241355201,
			"-0.005": 18.3871701842,
			"-0.004": 15.8441049699,
			"-0.003": 16.6264443855,
			"-0.002": 13.8112138792,
			"-0.001": 15.0804131892,
			"0.0": 13.1289505431,
			"0.001": 13.2653675031,
			"0.002": 16.6378719,
			"0.003": 16.1787029819,
			"0.004": 5.84627920202,
			"0.005": 6.19038205821,
			"0.006": 5.86531980298,
			"0.007": 5.92837653886,
			"0.008": 4.0698260507,
			"0.009": 4.71598516292,
			"0.01": 5.59742149579,
			"0.011": 8.23788410332,
			"0.012": 12.0134091727,
			"0.013": 5.72488743071,
			"0.014": 0.714304277081,
			"0.015": 0.0,
			"0.016": 0.0,
			"0.017": 0.0,
			"0.018": 0.0,
			"0.019": 0.0,
			"0.02": 0.0,
			"0.021": 0.0,
			"0.022": 0.0,
			"0.023": 0.0,
			"0.024": 0.0,
			"0.025": 0.0
		}
	}
}
