{
	 "smiles": "CCCCCCCCN(C)C", 
	 "Tm": 216.15, 
	 "num_atms": 34, 
	 "gaussian": { 
		 "optdone": 1, 
		 "sigma_profile": "yes", 
		 "theory": "DFT", 
		 "functional": "B3LYP", 
		 "basiset": "6-31G**", 
		 "properties": { 
			 "R2extent": 3559.6456, 
			 "electric_dipole_moment_norm": 0.487500246154, 
			 "electric_quadrupole_moment_norm": 3.01551157351, 
			 "total_energy": -449.685496282, 
			 "HOMO_LUMO_gap": 0.2793, 
			 "cosmo_polarized_energy": -2.79, 
			 "cosmo_cavitation_energy": 33.75, 
			 "cosmo_dispersion_energy": -23.06, 
			 "cosmo_repulsion_energy": 1.9, 
			 "cosmo_total_nonelectrostatic_energy": 12.59, 
			 "SMD_solvation_energy": 2.63 
		},
		"coords": [
			{
				"x": 0.8206686562,
				"y": 0.8705213743,
				"z": 3.2798313773,
				"element": "C" 
			},
			{
				"x": 1.8846546436,
				"y": 1.5149177723,
				"z": 2.3837005063,
				"element": "C" 
			},
			{
				"x": 2.9700670361,
				"y": 0.5441910178,
				"z": 1.8870424378,
				"element": "C" 
			},
			{
				"x": 2.5194416458,
				"y": -0.6053151342,
				"z": 0.9642802635,
				"element": "C" 
			},
			{
				"x": 1.9774120807,
				"y": -0.175557476,
				"z": -0.4188631325,
				"element": "C" 
			},
			{
				"x": 0.4530189156,
				"y": 0.0244550509,
				"z": -0.52521943,
				"element": "C" 
			},
			{
				"x": -0.3527634232,
				"y": -1.2821599321,
				"z": -0.4743388628,
				"element": "C" 
			},
			{
				"x": -1.862791075,
				"y": -1.036185499,
				"z": -0.567707604,
				"element": "C" 
			},
			{
				"x": -2.6560222821,
				"y": -2.2589649925,
				"z": -0.705967637,
				"element": "N" 
			},
			{
				"x": -2.6366891335,
				"y": -3.0848415209,
				"z": 0.4945273363,
				"element": "C" 
			},
			{
				"x": -4.0257985857,
				"y": -1.9564091881,
				"z": -1.0991926745,
				"element": "C" 
			},
			{
				"x": 0.2439004076,
				"y": 0.1060940393,
				"z": 2.7487624746,
				"element": "H" 
			},
			{
				"x": 0.1106433043,
				"y": 1.617663167,
				"z": 3.6498636727,
				"element": "H" 
			},
			{
				"x": 1.2799195617,
				"y": 0.3890702271,
				"z": 4.1512708641,
				"element": "H" 
			},
			{
				"x": 2.3785644691,
				"y": 2.3188413124,
				"z": 2.944986495,
				"element": "H" 
			},
			{
				"x": 1.4015934059,
				"y": 2.0054743481,
				"z": 1.5292865257,
				"element": "H" 
			},
			{
				"x": 3.7420388159,
				"y": 1.1229632408,
				"z": 1.3611152011,
				"element": "H" 
			},
			{
				"x": 3.4680662928,
				"y": 0.1065082663,
				"z": 2.7638084263,
				"element": "H" 
			},
			{
				"x": 1.7823793467,
				"y": -1.2335835483,
				"z": 1.4801150658,
				"element": "H" 
			},
			{
				"x": 3.3917413169,
				"y": -1.252590699,
				"z": 0.8101864441,
				"element": "H" 
			},
			{
				"x": 2.2672365627,
				"y": -0.926917016,
				"z": -1.1653990692,
				"element": "H" 
			},
			{
				"x": 2.4823044113,
				"y": 0.7515726341,
				"z": -0.7223468505,
				"element": "H" 
			},
			{
				"x": 0.2333933032,
				"y": 0.5334272453,
				"z": -1.4737572921,
				"element": "H" 
			},
			{
				"x": 0.1033931911,
				"y": 0.6994376497,
				"z": 0.2659430248,
				"element": "H" 
			},
			{
				"x": -0.1157845543,
				"y": -1.8232117923,
				"z": 0.4493890549,
				"element": "H" 
			},
			{
				"x": -0.0548678745,
				"y": -1.9356733203,
				"z": -1.3042292152,
				"element": "H" 
			},
			{
				"x": -2.1936883189,
				"y": -0.4335956734,
				"z": 0.3047069282,
				"element": "H" 
			},
			{
				"x": -2.0579279738,
				"y": -0.4218841461,
				"z": -1.4558914752,
				"element": "H" 
			},
			{
				"x": -1.6166661168,
				"y": -3.3975146008,
				"z": 0.7314370954,
				"element": "H" 
			},
			{
				"x": -3.0522691896,
				"y": -2.5697693815,
				"z": 1.3839590058,
				"element": "H" 
			},
			{
				"x": -3.2281044671,
				"y": -3.9902535457,
				"z": 0.3244041109,
				"element": "H" 
			},
			{
				"x": -4.5783598889,
				"y": -2.8878586517,
				"z": -1.261233829,
				"element": "H" 
			},
			{
				"x": -4.0282798239,
				"y": -1.3945459802,
				"z": -2.0388929218,
				"element": "H" 
			},
			{
				"x": -4.5800246601,
				"y": -1.361905247,
				"z": -0.3457763169,
				"element": "H" 
			}
		],
		 "valence_orbital": [ 
			{
				"type": "occ",
				"energy": -0.32146,
				"method": "rhf"
			},
			{
				"type": "occ",
				"energy": -0.30624,
				"method": "rhf"
			},
			{
				"type": "occ",
				"energy": -0.30289,
				"method": "rhf"
			},
			{
				"type": "occ",
				"energy": -0.30114,
				"method": "rhf"
			},
			{
				"type": "occ",
				"energy": -0.20605,
				"method": "rhf"
			},
			{
				"type": "unocc",
				"energy": 0.07325,
				"method": "rhf"
			},
			{
				"type": "unocc",
				"energy": 0.09002,
				"method": "rhf"
			},
			{
				"type": "unocc",
				"energy": 0.10447,
				"method": "rhf"
			},
			{
				"type": "unocc",
				"energy": 0.11494,
				"method": "rhf"
			},
			{
				"type": "unocc",
				"energy": 0.11604,
				"method": "rhf"
			}
		],
		"cosmo_sigma_profile": { 
			"-0.025": 0.0,
			"-0.024": 0.0,
			"-0.023": 0.0,
			"-0.022": 0.0,
			"-0.021": 0.0,
			"-0.02": 0.0,
			"-0.019": 0.0,
			"-0.018": 0.0,
			"-0.017": 0.0,
			"-0.016": 0.0,
			"-0.015": 0.0,
			"-0.014": 0.0,
			"-0.013": 0.0,
			"-0.012": 0.0,
			"-0.011": 0.0,
			"-0.01": 0.0,
			"-0.009": 0.0,
			"-0.008": 0.0,
			"-0.007": 0.0,
			"-0.006": 0.0,
			"-0.005": 0.0,
			"-0.004": 3.359237682,
			"-0.003": 14.9268572937,
			"-0.002": 32.7713677581,
			"-0.001": 61.8783229295,
			"0.0": 68.2821634827,
			"0.001": 47.1633506259,
			"0.002": 17.7675678044,
			"0.003": 1.7987556568,
			"0.004": 1.13132798674,
			"0.005": 1.45368920609,
			"0.006": 1.13986361527,
			"0.007": 0.973244908347,
			"0.008": 0.95219723347,
			"0.009": 0.670403327331,
			"0.01": 0.683228000866,
			"0.011": 0.843498441316,
			"0.012": 0.396836750251,
			"0.013": 0.278095380213,
			"0.014": 0.444093285556,
			"0.015": 0.942541696625,
			"0.016": 0.302098882504,
			"0.017": 0.316439308373,
			"0.018": 0.0,
			"0.019": 0.0,
			"0.02": 0.0,
			"0.021": 0.0,
			"0.022": 0.0,
			"0.023": 0.0,
			"0.024": 0.0,
			"0.025": 0.0
		}
	}
}
