{
	 "smiles": "CC1=C(C=NN1C1=CC=C(F)C=C1)C(Cl)=O", 
	 "Tm": 364.15, 
	 "num_atms": 24, 
	 "gaussian": { 
		 "optdone": 1, 
		 "sigma_profile": "yes", 
		 "theory": "DFT", 
		 "functional": "B3LYP", 
		 "basiset": "6-31G**", 
		 "properties": { 
			 "R2extent": 5541.2266, 
			 "electric_dipole_moment_norm": 4.1001864421, 
			 "electric_quadrupole_moment_norm": 17.1558124961, 
			 "total_energy": -1168.74095677, 
			 "HOMO_LUMO_gap": 0.19114, 
			 "cosmo_polarized_energy": -10.16, 
			 "cosmo_cavitation_energy": 31.27, 
			 "cosmo_dispersion_energy": -22.51, 
			 "cosmo_repulsion_energy": 1.71, 
			 "cosmo_total_nonelectrostatic_energy": 10.47, 
			 "SMD_solvation_energy": 5.78 
		},
		"coords": [
			{
				"x": -0.8720520592,
				"y": -0.0860430786,
				"z": -1.4362207101,
				"element": "C" 
			},
			{
				"x": -0.5650402363,
				"y": 0.0941510293,
				"z": 0.0145113721,
				"element": "C" 
			},
			{
				"x": -1.4300667722,
				"y": 0.3549075571,
				"z": 1.0890284372,
				"element": "C" 
			},
			{
				"x": -0.5995829915,
				"y": 0.3570584496,
				"z": 2.2417168951,
				"element": "C" 
			},
			{
				"x": 0.6612412073,
				"y": 0.1287749106,
				"z": 1.9346812768,
				"element": "N" 
			},
			{
				"x": 0.6722603327,
				"y": -0.0210920707,
				"z": 0.5678747462,
				"element": "N" 
			},
			{
				"x": 1.9177669075,
				"y": -0.310083003,
				"z": -0.0651441254,
				"element": "C" 
			},
			{
				"x": 2.7747965239,
				"y": -1.240357334,
				"z": 0.5336948735,
				"element": "C" 
			},
			{
				"x": 4.0033281775,
				"y": -1.5287566338,
				"z": -0.0528188336,
				"element": "C" 
			},
			{
				"x": 4.352833823,
				"y": -0.8841490537,
				"z": -1.2359802247,
				"element": "C" 
			},
			{
				"x": 5.5372667054,
				"y": -1.16802531,
				"z": -1.8088584914,
				"element": "F" 
			},
			{
				"x": 3.5186490823,
				"y": 0.0495462984,
				"z": -1.8396488094,
				"element": "C" 
			},
			{
				"x": 2.2949167851,
				"y": 0.3460258724,
				"z": -1.2405731607,
				"element": "C" 
			},
			{
				"x": -2.8605654159,
				"y": 0.5446173526,
				"z": 0.968245285,
				"element": "C" 
			},
			{
				"x": -3.6870607931,
				"y": 0.833888032,
				"z": 2.5856840255,
				"element": "Cl" 
			},
			{
				"x": -3.5259023746,
				"y": 0.5302884818,
				"z": -0.0284654092,
				"element": "O" 
			},
			{
				"x": -0.8071984812,
				"y": 0.8634864088,
				"z": -1.9804288276,
				"element": "H" 
			},
			{
				"x": -1.8963471275,
				"y": -0.4432913975,
				"z": -1.5451589434,
				"element": "H" 
			},
			{
				"x": -0.1810065479,
				"y": -0.7913248269,
				"z": -1.9040124359,
				"element": "H" 
			},
			{
				"x": -0.8917566689,
				"y": 0.5208057348,
				"z": 3.2689524163,
				"element": "H" 
			},
			{
				"x": 2.4733199565,
				"y": -1.7188075382,
				"z": 1.4578273252,
				"element": "H" 
			},
			{
				"x": 4.6864045957,
				"y": -2.2452271566,
				"z": 0.3895355509,
				"element": "H" 
			},
			{
				"x": 3.835851817,
				"y": 0.5441581472,
				"z": -2.7507509188,
				"element": "H" 
			},
			{
				"x": 1.6508435543,
				"y": 1.1007491283,
				"z": -1.6765913136,
				"element": "H" 
			}
		],
		 "valence_orbital": [ 
			{
				"type": "occ",
				"energy": -0.30182,
				"method": "rhf"
			},
			{
				"type": "occ",
				"energy": -0.28865,
				"method": "rhf"
			},
			{
				"type": "occ",
				"energy": -0.28364,
				"method": "rhf"
			},
			{
				"type": "occ",
				"energy": -0.26953,
				"method": "rhf"
			},
			{
				"type": "occ",
				"energy": -0.25226,
				"method": "rhf"
			},
			{
				"type": "unocc",
				"energy": -0.06112,
				"method": "rhf"
			},
			{
				"type": "unocc",
				"energy": -0.03493,
				"method": "rhf"
			},
			{
				"type": "unocc",
				"energy": -0.02924,
				"method": "rhf"
			},
			{
				"type": "unocc",
				"energy": 0.0084,
				"method": "rhf"
			},
			{
				"type": "unocc",
				"energy": 0.02319,
				"method": "rhf"
			}
		],
		"cosmo_sigma_profile": { 
			"-0.025": 0.0,
			"-0.024": 0.0,
			"-0.023": 0.0,
			"-0.022": 0.0,
			"-0.021": 0.0,
			"-0.02": 0.0,
			"-0.019": 0.0,
			"-0.018": 0.0,
			"-0.017": 0.0,
			"-0.016": 0.0,
			"-0.015": 0.0,
			"-0.014": 0.0,
			"-0.013": 0.0,
			"-0.012": 0.0,
			"-0.011": 0.0,
			"-0.01": 0.0,
			"-0.009": 1.07605272908,
			"-0.008": 7.21420928486,
			"-0.007": 9.83885295262,
			"-0.006": 12.5315243812,
			"-0.005": 12.4347468536,
			"-0.004": 14.2165562393,
			"-0.003": 18.5880910687,
			"-0.002": 21.0924062701,
			"-0.001": 19.8816065022,
			"0.0": 22.3427020215,
			"0.001": 21.3540787255,
			"0.002": 22.2018291139,
			"0.003": 17.375084781,
			"0.004": 18.9029065128,
			"0.005": 11.4425893698,
			"0.006": 5.85374243113,
			"0.007": 3.86214228259,
			"0.008": 4.15208751057,
			"0.009": 4.26779720561,
			"0.01": 2.63760729948,
			"0.011": 1.21954303149,
			"0.012": 0.837837050277,
			"0.013": 0.657745909224,
			"0.014": 0.282027185552,
			"0.015": 0.0,
			"0.016": 0.0,
			"0.017": 0.0,
			"0.018": 0.0,
			"0.019": 0.0,
			"0.02": 0.0,
			"0.021": 0.0,
			"0.022": 0.0,
			"0.023": 0.0,
			"0.024": 0.0,
			"0.025": 0.0
		}
	}
}
