{
	 "smiles": "C1C2=CC=CC=C2C=C1C1=CC=CC=C1", 
	 "Tm": 439.15, 
	 "num_atms": 27, 
	 "gaussian": { 
		 "optdone": 1, 
		 "sigma_profile": "yes", 
		 "theory": "DFT", 
		 "functional": "B3LYP", 
		 "basiset": "6-31G**", 
		 "properties": { 
			 "R2extent": 4464.5566, 
			 "electric_dipole_moment_norm": 0.59504395636, 
			 "electric_quadrupole_moment_norm": 9.73970445137, 
			 "total_energy": -578.831149002, 
			 "HOMO_LUMO_gap": 0.15223, 
			 "cosmo_polarized_energy": -6.36, 
			 "cosmo_cavitation_energy": 30.24, 
			 "cosmo_dispersion_energy": -22.43, 
			 "cosmo_repulsion_energy": 1.71, 
			 "cosmo_total_nonelectrostatic_energy": 9.52, 
			 "SMD_solvation_energy": 4.43 
		},
		"coords": [
			{
				"x": -0.4165096718,
				"y": 0.712855166,
				"z": -0.1232553131,
				"element": "C" 
			},
			{
				"x": -0.4823068561,
				"y": 1.4712524146,
				"z": -1.4271406944,
				"element": "C" 
			},
			{
				"x": -1.5566742915,
				"y": 2.0563251983,
				"z": -2.0825566802,
				"element": "C" 
			},
			{
				"x": -1.3295344,
				"y": 2.7090144916,
				"z": -3.3023174569,
				"element": "C" 
			},
			{
				"x": -0.0432180513,
				"y": 2.7697179238,
				"z": -3.8493943468,
				"element": "C" 
			},
			{
				"x": 1.0419704257,
				"y": 2.1823931493,
				"z": -3.1936584043,
				"element": "C" 
			},
			{
				"x": 0.8167351309,
				"y": 1.5313057174,
				"z": -1.9773226602,
				"element": "C" 
			},
			{
				"x": 1.7269508416,
				"y": 0.8372066526,
				"z": -1.0749880634,
				"element": "C" 
			},
			{
				"x": 1.057291238,
				"y": 0.3511793518,
				"z": 0.0045907382,
				"element": "C" 
			},
			{
				"x": 1.5995288682,
				"y": -0.4036378604,
				"z": 1.1391477543,
				"element": "C" 
			},
			{
				"x": 2.970360288,
				"y": -0.7224317129,
				"z": 1.2295999323,
				"element": "C" 
			},
			{
				"x": 3.473193908,
				"y": -1.4388538195,
				"z": 2.3102869124,
				"element": "C" 
			},
			{
				"x": 2.6232315199,
				"y": -1.8609499749,
				"z": 3.3372258192,
				"element": "C" 
			},
			{
				"x": 1.2640623162,
				"y": -1.5554903367,
				"z": 3.2662527517,
				"element": "C" 
			},
			{
				"x": 0.759597944,
				"y": -0.8372779158,
				"z": 2.182981037,
				"element": "C" 
			},
			{
				"x": -0.7590919036,
				"y": 1.3227834351,
				"z": 0.7237052759,
				"element": "H" 
			},
			{
				"x": -1.0536498478,
				"y": -0.1818963536,
				"z": -0.1367325952,
				"element": "H" 
			},
			{
				"x": -2.5589856829,
				"y": 2.0131076944,
				"z": -1.6634951305,
				"element": "H" 
			},
			{
				"x": -2.1598998295,
				"y": 3.171961367,
				"z": -3.8277098796,
				"element": "H" 
			},
			{
				"x": 0.1128347143,
				"y": 3.2800506041,
				"z": -4.7957864217,
				"element": "H" 
			},
			{
				"x": 2.0391827058,
				"y": 2.2322017278,
				"z": -3.6225352913,
				"element": "H" 
			},
			{
				"x": 2.7902032127,
				"y": 0.7362169962,
				"z": -1.2627642801,
				"element": "H" 
			},
			{
				"x": 3.6482984316,
				"y": -0.4046806462,
				"z": 0.4437905097,
				"element": "H" 
			},
			{
				"x": 4.5339678592,
				"y": -1.6699834969,
				"z": 2.3530797428,
				"element": "H" 
			},
			{
				"x": 3.0174225812,
				"y": -2.4203005069,
				"z": 4.180471584,
				"element": "H" 
			},
			{
				"x": 0.5913649308,
				"y": -1.8767070137,
				"z": 4.0566380861,
				"element": "H" 
			},
			{
				"x": -0.3012263817,
				"y": -0.6105622524,
				"z": 2.1479870742,
				"element": "H" 
			}
		],
		 "valence_orbital": [ 
			{
				"type": "occ",
				"energy": -0.30071,
				"method": "rhf"
			},
			{
				"type": "occ",
				"energy": -0.25974,
				"method": "rhf"
			},
			{
				"type": "occ",
				"energy": -0.25038,
				"method": "rhf"
			},
			{
				"type": "occ",
				"energy": -0.24096,
				"method": "rhf"
			},
			{
				"type": "occ",
				"energy": -0.19743,
				"method": "rhf"
			},
			{
				"type": "unocc",
				"energy": -0.0452,
				"method": "rhf"
			},
			{
				"type": "unocc",
				"energy": -0.00104,
				"method": "rhf"
			},
			{
				"type": "unocc",
				"energy": 0.00411,
				"method": "rhf"
			},
			{
				"type": "unocc",
				"energy": 0.02235,
				"method": "rhf"
			},
			{
				"type": "unocc",
				"energy": 0.06845,
				"method": "rhf"
			}
		],
		"cosmo_sigma_profile": { 
			"-0.025": 0.0,
			"-0.024": 0.0,
			"-0.023": 0.0,
			"-0.022": 0.0,
			"-0.021": 0.0,
			"-0.02": 0.0,
			"-0.019": 0.0,
			"-0.018": 0.0,
			"-0.017": 0.0,
			"-0.016": 0.0,
			"-0.015": 0.0,
			"-0.014": 0.0,
			"-0.013": 0.0,
			"-0.012": 0.0,
			"-0.011": 0.0,
			"-0.01": 0.0170948291037,
			"-0.009": 0.531271262111,
			"-0.008": 0.804895822312,
			"-0.007": 1.78688426304,
			"-0.006": 6.94611803797,
			"-0.005": 25.253346603,
			"-0.004": 24.538643913,
			"-0.003": 25.4130079368,
			"-0.002": 18.3839115066,
			"-0.001": 15.2562910122,
			"0.0": 13.1113991057,
			"0.001": 14.2728088014,
			"0.002": 14.0810409162,
			"0.003": 18.7203815427,
			"0.004": 21.9569476083,
			"0.005": 21.8457407899,
			"0.006": 16.5110114661,
			"0.007": 3.05026989041,
			"0.008": 0.0,
			"0.009": 0.0,
			"0.01": 0.0,
			"0.011": 0.0,
			"0.012": 0.0,
			"0.013": 0.0,
			"0.014": 0.0,
			"0.015": 0.0,
			"0.016": 0.0,
			"0.017": 0.0,
			"0.018": 0.0,
			"0.019": 0.0,
			"0.02": 0.0,
			"0.021": 0.0,
			"0.022": 0.0,
			"0.023": 0.0,
			"0.024": 0.0,
			"0.025": 0.0
		}
	}
}
