{
	 "smiles": "CC(=O)C1=CC=CC(F)=C1", 
	 "Tm": 270.15, 
	 "num_atms": 17, 
	 "gaussian": { 
		 "optdone": 1, 
		 "sigma_profile": "yes", 
		 "theory": "DFT", 
		 "functional": "B3LYP", 
		 "basiset": "6-31G**", 
		 "properties": { 
			 "R2extent": 1892.2783, 
			 "electric_dipole_moment_norm": 1.57988971134, 
			 "electric_quadrupole_moment_norm": 15.3221590809, 
			 "total_energy": -484.130772578, 
			 "HOMO_LUMO_gap": 0.19115, 
			 "cosmo_polarized_energy": -7.5, 
			 "cosmo_cavitation_energy": 21.76, 
			 "cosmo_dispersion_energy": -15.79, 
			 "cosmo_repulsion_energy": 1.25, 
			 "cosmo_total_nonelectrostatic_energy": 7.22, 
			 "SMD_solvation_energy": 5.03 
		},
		"coords": [
			{
				"x": 1.645502883,
				"y": -2.6433283823,
				"z": 1.5489515292,
				"element": "C" 
			},
			{
				"x": 1.1561076887,
				"y": -1.25355981,
				"z": 1.9175695028,
				"element": "C" 
			},
			{
				"x": 0.853600307,
				"y": -0.9842394599,
				"z": 3.0693168496,
				"element": "O" 
			},
			{
				"x": 1.0488917182,
				"y": -0.2120017271,
				"z": 0.8395590803,
				"element": "C" 
			},
			{
				"x": 0.5947999177,
				"y": 1.0671988722,
				"z": 1.1961963596,
				"element": "C" 
			},
			{
				"x": 0.4785190825,
				"y": 2.0660173007,
				"z": 0.2332842753,
				"element": "C" 
			},
			{
				"x": 0.8120952281,
				"y": 1.8078367522,
				"z": -1.0989950448,
				"element": "C" 
			},
			{
				"x": 1.2602942404,
				"y": 0.5355215008,
				"z": -1.4358909856,
				"element": "C" 
			},
			{
				"x": 1.5851904509,
				"y": 0.2752732099,
				"z": -2.7196258583,
				"element": "F" 
			},
			{
				"x": 1.3855916827,
				"y": -0.4789189686,
				"z": -0.4955843697,
				"element": "C" 
			},
			{
				"x": 0.991246649,
				"y": -3.1054145498,
				"z": 0.8013197144,
				"element": "H" 
			},
			{
				"x": 2.6532066989,
				"y": -2.604782884,
				"z": 1.1204942105,
				"element": "H" 
			},
			{
				"x": 1.6579154624,
				"y": -3.2582926468,
				"z": 2.4489475666,
				"element": "H" 
			},
			{
				"x": 0.3408620599,
				"y": 1.2485682692,
				"z": 2.2344763223,
				"element": "H" 
			},
			{
				"x": 0.1267426806,
				"y": 3.0541768601,
				"z": 0.5139899792,
				"element": "H" 
			},
			{
				"x": 0.7309808254,
				"y": 2.5673670904,
				"z": -1.8690757399,
				"element": "H" 
			},
			{
				"x": 1.7405524246,
				"y": -1.4503214271,
				"z": -0.8194333916,
				"element": "H" 
			}
		],
		 "valence_orbital": [ 
			{
				"type": "occ",
				"energy": -0.36139,
				"method": "rhf"
			},
			{
				"type": "occ",
				"energy": -0.35244,
				"method": "rhf"
			},
			{
				"type": "occ",
				"energy": -0.27179,
				"method": "rhf"
			},
			{
				"type": "occ",
				"energy": -0.25431,
				"method": "rhf"
			},
			{
				"type": "occ",
				"energy": -0.25362,
				"method": "rhf"
			},
			{
				"type": "unocc",
				"energy": -0.06247,
				"method": "rhf"
			},
			{
				"type": "unocc",
				"energy": -0.01136,
				"method": "rhf"
			},
			{
				"type": "unocc",
				"energy": 0.03532,
				"method": "rhf"
			},
			{
				"type": "unocc",
				"energy": 0.08011,
				"method": "rhf"
			},
			{
				"type": "unocc",
				"energy": 0.10809,
				"method": "rhf"
			}
		],
		"cosmo_sigma_profile": { 
			"-0.025": 0.0,
			"-0.024": 0.0,
			"-0.023": 0.0,
			"-0.022": 0.0,
			"-0.021": 0.0,
			"-0.02": 0.0,
			"-0.019": 0.0,
			"-0.018": 0.0,
			"-0.017": 0.0,
			"-0.016": 0.0,
			"-0.015": 0.0,
			"-0.014": 0.0,
			"-0.013": 0.0,
			"-0.012": 0.0,
			"-0.011": 0.0,
			"-0.01": 0.0,
			"-0.009": 0.0,
			"-0.008": 2.03860869841,
			"-0.007": 7.06121022638,
			"-0.006": 12.913832962,
			"-0.005": 12.9938075717,
			"-0.004": 11.4823690086,
			"-0.003": 10.5329326976,
			"-0.002": 11.4800835538,
			"-0.001": 14.3459562003,
			"0.0": 14.1405273495,
			"0.001": 14.3100498967,
			"0.002": 15.6778294532,
			"0.003": 13.9765083169,
			"0.004": 12.6942934321,
			"0.005": 3.70808177642,
			"0.006": 1.75581602091,
			"0.007": 1.76492467392,
			"0.008": 1.41289348669,
			"0.009": 1.58021271019,
			"0.01": 2.42512409971,
			"0.011": 2.9825129551,
			"0.012": 3.81513841712,
			"0.013": 1.05095042626,
			"0.014": 0.0411351715496,
			"0.015": 0.0,
			"0.016": 0.0,
			"0.017": 0.0,
			"0.018": 0.0,
			"0.019": 0.0,
			"0.02": 0.0,
			"0.021": 0.0,
			"0.022": 0.0,
			"0.023": 0.0,
			"0.024": 0.0,
			"0.025": 0.0
		}
	}
}
