{
	 "smiles": "CN1C(=O)C=C(N)N(CC2=CC=CC=C2)C1=O", 
	 "Tm": 370.15, 
	 "num_atms": 30, 
	 "gaussian": { 
		 "optdone": 1, 
		 "sigma_profile": "yes", 
		 "theory": "DFT", 
		 "functional": "B3LYP", 
		 "basiset": "6-31G**", 
		 "properties": { 
			 "R2extent": 4606.6076, 
			 "electric_dipole_moment_norm": 5.69571058078, 
			 "electric_quadrupole_moment_norm": 13.8730780748, 
			 "total_energy": -779.858128486, 
			 "HOMO_LUMO_gap": 0.198, 
			 "cosmo_polarized_energy": -18.41, 
			 "cosmo_cavitation_energy": 33.0, 
			 "cosmo_dispersion_energy": -23.87, 
			 "cosmo_repulsion_energy": 1.82, 
			 "cosmo_total_nonelectrostatic_energy": 10.94, 
			 "SMD_solvation_energy": 6.73 
		},
		"coords": [
			{
				"x": 1.0068409847,
				"y": -1.2649882535,
				"z": 3.1441215103,
				"element": "C" 
			},
			{
				"x": 0.0238052509,
				"y": -1.1387814017,
				"z": 2.0653882153,
				"element": "N" 
			},
			{
				"x": -1.3304514892,
				"y": -0.8325283719,
				"z": 2.4045575732,
				"element": "C" 
			},
			{
				"x": -1.6568385399,
				"y": -0.6965229887,
				"z": 3.5780524833,
				"element": "O" 
			},
			{
				"x": -2.204117388,
				"y": -0.6797684616,
				"z": 1.2742024919,
				"element": "C" 
			},
			{
				"x": -1.7626772179,
				"y": -0.8646228245,
				"z": -0.0046169659,
				"element": "C" 
			},
			{
				"x": -2.5892182712,
				"y": -0.7884162234,
				"z": -1.1091909859,
				"element": "N" 
			},
			{
				"x": -0.4426850566,
				"y": -1.2060179276,
				"z": -0.2562409529,
				"element": "N" 
			},
			{
				"x": 0.0198075576,
				"y": -1.5571237301,
				"z": -1.6122345015,
				"element": "C" 
			},
			{
				"x": 0.2605978198,
				"y": -0.3612106063,
				"z": -2.516637823,
				"element": "C" 
			},
			{
				"x": -0.3771836641,
				"y": -0.26931332,
				"z": -3.7601529819,
				"element": "C" 
			},
			{
				"x": -0.1420655497,
				"y": 0.8210950386,
				"z": -4.6033534289,
				"element": "C" 
			},
			{
				"x": 0.7340724256,
				"y": 1.8304215747,
				"z": -4.207063539,
				"element": "C" 
			},
			{
				"x": 1.3800192728,
				"y": 1.7422605774,
				"z": -2.9697021582,
				"element": "C" 
			},
			{
				"x": 1.1481976685,
				"y": 0.6542974812,
				"z": -2.1305070151,
				"element": "C" 
			},
			{
				"x": 0.5001643235,
				"y": -1.3104357094,
				"z": 0.7839349847,
				"element": "C" 
			},
			{
				"x": 1.679731475,
				"y": -1.5489812161,
				"z": 0.5460134336,
				"element": "O" 
			},
			{
				"x": 1.796919228,
				"y": -0.5201724926,
				"z": 3.0228509731,
				"element": "H" 
			},
			{
				"x": 0.4721538501,
				"y": -1.1081422949,
				"z": 4.0783580767,
				"element": "H" 
			},
			{
				"x": 1.4634323754,
				"y": -2.2569928709,
				"z": 3.1224488712,
				"element": "H" 
			},
			{
				"x": -3.2277110724,
				"y": -0.3917443609,
				"z": 1.4732214215,
				"element": "H" 
			},
			{
				"x": -3.5117075172,
				"y": -0.4343739638,
				"z": -0.8969492826,
				"element": "H" 
			},
			{
				"x": -2.188836541,
				"y": -0.3579312202,
				"z": -1.9344486571,
				"element": "H" 
			},
			{
				"x": -0.7179201617,
				"y": -2.2305056603,
				"z": -2.0568407537,
				"element": "H" 
			},
			{
				"x": 0.9504096316,
				"y": -2.1063617407,
				"z": -1.463436866,
				"element": "H" 
			},
			{
				"x": -1.0517610794,
				"y": -1.0620418482,
				"z": -4.078345663,
				"element": "H" 
			},
			{
				"x": -0.6426914297,
				"y": 0.8778348219,
				"z": -5.5656474063,
				"element": "H" 
			},
			{
				"x": 0.9179713976,
				"y": 2.6798390609,
				"z": -4.8583621055,
				"element": "H" 
			},
			{
				"x": 2.0709374339,
				"y": 2.5217526154,
				"z": -2.6616451177,
				"element": "H" 
			},
			{
				"x": 1.6634042832,
				"y": 0.5745763171,
				"z": -1.1777738304,
				"element": "H" 
			}
		],
		 "valence_orbital": [ 
			{
				"type": "occ",
				"energy": -0.26585,
				"method": "rhf"
			},
			{
				"type": "occ",
				"energy": -0.26046,
				"method": "rhf"
			},
			{
				"type": "occ",
				"energy": -0.25898,
				"method": "rhf"
			},
			{
				"type": "occ",
				"energy": -0.24522,
				"method": "rhf"
			},
			{
				"type": "occ",
				"energy": -0.21927,
				"method": "rhf"
			},
			{
				"type": "unocc",
				"energy": -0.02127,
				"method": "rhf"
			},
			{
				"type": "unocc",
				"energy": -0.0186,
				"method": "rhf"
			},
			{
				"type": "unocc",
				"energy": -0.01025,
				"method": "rhf"
			},
			{
				"type": "unocc",
				"energy": 0.02077,
				"method": "rhf"
			},
			{
				"type": "unocc",
				"energy": 0.0703,
				"method": "rhf"
			}
		],
		"cosmo_sigma_profile": { 
			"-0.025": 0.0,
			"-0.024": 0.0,
			"-0.023": 0.0,
			"-0.022": 0.0,
			"-0.021": 0.0,
			"-0.02": 0.0,
			"-0.019": 0.0,
			"-0.018": 0.0,
			"-0.017": 0.0,
			"-0.016": 0.0,
			"-0.015": 0.238727389886,
			"-0.014": 1.48304783943,
			"-0.013": 1.74249230012,
			"-0.012": 1.74386895659,
			"-0.011": 2.59623383811,
			"-0.01": 1.20971452409,
			"-0.009": 2.97438191992,
			"-0.008": 2.98188820517,
			"-0.007": 6.36818103596,
			"-0.006": 11.9521723229,
			"-0.005": 17.1389641502,
			"-0.004": 23.6860871261,
			"-0.003": 26.8673106365,
			"-0.002": 23.6052161556,
			"-0.001": 17.5537636504,
			"0.0": 15.1770596015,
			"0.001": 12.1669901735,
			"0.002": 12.8749208671,
			"0.003": 15.5349345408,
			"0.004": 15.4762117508,
			"0.005": 11.4982792979,
			"0.006": 4.88137395029,
			"0.007": 3.58779928753,
			"0.008": 2.89738046482,
			"0.009": 3.42875759368,
			"0.01": 2.65042789651,
			"0.011": 3.92566540088,
			"0.012": 4.75257239225,
			"0.013": 6.4295302445,
			"0.014": 4.07113845505,
			"0.015": 1.36223263839,
			"0.016": 0.00592880750107,
			"0.017": 0.0,
			"0.018": 0.0,
			"0.019": 0.0,
			"0.02": 0.0,
			"0.021": 0.0,
			"0.022": 0.0,
			"0.023": 0.0,
			"0.024": 0.0,
			"0.025": 0.0
		}
	}
}
