{
	 "smiles": "COC(=O)COC1=C(OC)C=C(C=C1)C(O)=O", 
	 "Tm": 444.15, 
	 "num_atms": 29, 
	 "gaussian": { 
		 "optdone": 1, 
		 "sigma_profile": "yes", 
		 "theory": "DFT", 
		 "functional": "B3LYP", 
		 "basiset": "6-31G**", 
		 "properties": { 
			 "R2extent": 5918.4872, 
			 "electric_dipole_moment_norm": 3.84842196231, 
			 "electric_quadrupole_moment_norm": 29.2924758508, 
			 "total_energy": -877.723403258, 
			 "HOMO_LUMO_gap": 0.19727, 
			 "cosmo_polarized_energy": -19.67, 
			 "cosmo_cavitation_energy": 34.23, 
			 "cosmo_dispersion_energy": -23.79, 
			 "cosmo_repulsion_energy": 1.88, 
			 "cosmo_total_nonelectrostatic_energy": 12.32, 
			 "SMD_solvation_energy": 9.65 
		},
		"coords": [
			{
				"x": -3.2696519107,
				"y": 1.7862415198,
				"z": 2.6742605779,
				"element": "C" 
			},
			{
				"x": -2.2842572099,
				"y": 1.44552448,
				"z": 1.6803924876,
				"element": "O" 
			},
			{
				"x": -2.7614027797,
				"y": 1.2942857338,
				"z": 0.435507171,
				"element": "C" 
			},
			{
				"x": -3.9218139309,
				"y": 1.4367686852,
				"z": 0.1181545877,
				"element": "O" 
			},
			{
				"x": -1.6891807125,
				"y": 0.9380620369,
				"z": -0.5896253971,
				"element": "C" 
			},
			{
				"x": -0.3797508471,
				"y": 0.7374742924,
				"z": -0.0644574866,
				"element": "O" 
			},
			{
				"x": -0.1140026264,
				"y": -0.4846273877,
				"z": 0.5067843509,
				"element": "C" 
			},
			{
				"x": -0.1622587836,
				"y": -1.678185472,
				"z": -0.2403538678,
				"element": "C" 
			},
			{
				"x": -0.5301537872,
				"y": -1.6806036478,
				"z": -1.5671553663,
				"element": "O" 
			},
			{
				"x": 0.4624609651,
				"y": -1.1562426656,
				"z": -2.4622659191,
				"element": "C" 
			},
			{
				"x": 0.1396289914,
				"y": -2.8895764986,
				"z": 0.3789904975,
				"element": "C" 
			},
			{
				"x": 0.517277543,
				"y": -2.9314019858,
				"z": 1.7283881999,
				"element": "C" 
			},
			{
				"x": 0.6192050775,
				"y": -1.7323682796,
				"z": 2.4464059501,
				"element": "C" 
			},
			{
				"x": 0.2924975046,
				"y": -0.5231292772,
				"z": 1.8432871168,
				"element": "C" 
			},
			{
				"x": 0.8662766119,
				"y": -4.2040183056,
				"z": 2.4360568134,
				"element": "C" 
			},
			{
				"x": 0.3952942683,
				"y": -5.3579489017,
				"z": 1.8889285813,
				"element": "O" 
			},
			{
				"x": 1.5295469362,
				"y": -4.242458753,
				"z": 3.445949347,
				"element": "O" 
			},
			{
				"x": -3.7450254819,
				"y": 2.7387057169,
				"z": 2.4287664071,
				"element": "H" 
			},
			{
				"x": -4.0376190864,
				"y": 1.0114755124,
				"z": 2.7322461163,
				"element": "H" 
			},
			{
				"x": -2.7242749069,
				"y": 1.8590191083,
				"z": 3.6144830756,
				"element": "H" 
			},
			{
				"x": -1.61563954,
				"y": 1.7812943765,
				"z": -1.2827547952,
				"element": "H" 
			},
			{
				"x": -2.038983105,
				"y": 0.0695735905,
				"z": -1.1548914775,
				"element": "H" 
			},
			{
				"x": 1.3720874141,
				"y": -1.7677618573,
				"z": -2.4301454527,
				"element": "H" 
			},
			{
				"x": 0.0275245565,
				"y": -1.2046090182,
				"z": -3.4620795855,
				"element": "H" 
			},
			{
				"x": 0.7125865875,
				"y": -0.1192436616,
				"z": -2.2164911254,
				"element": "H" 
			},
			{
				"x": 0.1130505907,
				"y": -3.7797516116,
				"z": -0.2438833153,
				"element": "H" 
			},
			{
				"x": 0.9399108475,
				"y": -1.7737874451,
				"z": 3.4813115636,
				"element": "H" 
			},
			{
				"x": 0.331069836,
				"y": 0.4122946203,
				"z": 2.3896262626,
				"element": "H" 
			},
			{
				"x": -0.2503030219,
				"y": -5.1593049045,
				"z": 1.1967646823,
				"element": "H" 
			}
		],
		 "valence_orbital": [ 
			{
				"type": "occ",
				"energy": -0.29672,
				"method": "rhf"
			},
			{
				"type": "occ",
				"energy": -0.28111,
				"method": "rhf"
			},
			{
				"type": "occ",
				"energy": -0.27234,
				"method": "rhf"
			},
			{
				"type": "occ",
				"energy": -0.2649,
				"method": "rhf"
			},
			{
				"type": "occ",
				"energy": -0.24717,
				"method": "rhf"
			},
			{
				"type": "unocc",
				"energy": -0.0499,
				"method": "rhf"
			},
			{
				"type": "unocc",
				"energy": -0.02155,
				"method": "rhf"
			},
			{
				"type": "unocc",
				"energy": 0.0001,
				"method": "rhf"
			},
			{
				"type": "unocc",
				"energy": 0.04717,
				"method": "rhf"
			},
			{
				"type": "unocc",
				"energy": 0.05999,
				"method": "rhf"
			}
		],
		"cosmo_sigma_profile": { 
			"-0.025": 0.0,
			"-0.024": 0.0,
			"-0.023": 0.0,
			"-0.022": 0.0,
			"-0.021": 0.0,
			"-0.02": 0.0,
			"-0.019": 0.175773771587,
			"-0.018": 0.802245785044,
			"-0.017": 0.956732499413,
			"-0.016": 1.15293709336,
			"-0.015": 1.23447830274,
			"-0.014": 0.58620216476,
			"-0.013": 0.802932824236,
			"-0.012": 1.38993581432,
			"-0.011": 1.41926275233,
			"-0.01": 0.928149986436,
			"-0.009": 1.94240600568,
			"-0.008": 3.8818607668,
			"-0.007": 6.9847899499,
			"-0.006": 15.9076979913,
			"-0.005": 21.5573552183,
			"-0.004": 24.3875627482,
			"-0.003": 26.9728552741,
			"-0.002": 20.0438606878,
			"-0.001": 16.1088920584,
			"0.0": 11.9932794743,
			"0.001": 16.0555132572,
			"0.002": 15.5553495094,
			"0.003": 11.6400057719,
			"0.004": 9.05844082773,
			"0.005": 6.51051660117,
			"0.006": 5.94436407667,
			"0.007": 5.64975933533,
			"0.008": 5.96042242617,
			"0.009": 7.77344227147,
			"0.01": 7.83460599266,
			"0.011": 10.2067719343,
			"0.012": 8.84755136596,
			"0.013": 1.94113135365,
			"0.014": 0.0114854853046,
			"0.015": 0.0,
			"0.016": 0.0,
			"0.017": 0.0,
			"0.018": 0.0,
			"0.019": 0.0,
			"0.02": 0.0,
			"0.021": 0.0,
			"0.022": 0.0,
			"0.023": 0.0,
			"0.024": 0.0,
			"0.025": 0.0
		}
	}
}
