{
	 "smiles": "CC1=CC(F)=C(Br)C=C1[N+]([O-])=O", 
	 "Tm": 334.15, 
	 "num_atms": 17, 
	 "gaussian": { 
		 "optdone": 1, 
		 "sigma_profile": "yes", 
		 "theory": "DFT", 
		 "functional": "B3LYP", 
		 "basiset": "6-31G**", 
		 "properties": { 
			 "R2extent": 3380.6067, 
			 "electric_dipole_moment_norm": 2.95271443421, 
			 "electric_quadrupole_moment_norm": 11.6282604069, 
			 "total_energy": -3146.09336611, 
			 "HOMO_LUMO_gap": 0.16903, 
			 "cosmo_polarized_energy": -7.21, 
			 "cosmo_cavitation_energy": 24.63, 
			 "cosmo_dispersion_energy": -18.49, 
			 "cosmo_repulsion_energy": 1.44, 
			 "cosmo_total_nonelectrostatic_energy": 7.59, 
			 "SMD_solvation_energy": 5.72 
		},
		"coords": [
			{
				"x": 2.9455196322,
				"y": 1.001584383,
				"z": -1.6811988982,
				"element": "C" 
			},
			{
				"x": 1.5595944844,
				"y": 0.5032971196,
				"z": -1.3546164589,
				"element": "C" 
			},
			{
				"x": 0.5571055975,
				"y": 0.6526209254,
				"z": -2.3214349191,
				"element": "C" 
			},
			{
				"x": -0.7445840279,
				"y": 0.2219819991,
				"z": -2.1029085595,
				"element": "C" 
			},
			{
				"x": -1.6522355965,
				"y": 0.3953907012,
				"z": -3.0677803218,
				"element": "F" 
			},
			{
				"x": -1.1121777276,
				"y": -0.3834365914,
				"z": -0.9002098897,
				"element": "C" 
			},
			{
				"x": -2.8955223556,
				"y": -0.9614986829,
				"z": -0.6285093394,
				"element": "Br" 
			},
			{
				"x": -0.1449502621,
				"y": -0.5474476557,
				"z": 0.0787436696,
				"element": "C" 
			},
			{
				"x": 1.1640986379,
				"y": -0.1115651254,
				"z": -0.146857895,
				"element": "C" 
			},
			{
				"x": 2.107674165,
				"y": -0.336657399,
				"z": 0.9627528521,
				"element": "N" 
			},
			{
				"x": 1.6773152323,
				"y": -0.884926182,
				"z": 1.9771074552,
				"element": "O" 
			},
			{
				"x": 3.2734717735,
				"y": 0.0331518444,
				"z": 0.8208798877,
				"element": "O" 
			},
			{
				"x": 3.2748680503,
				"y": 1.7625042887,
				"z": -0.9697885817,
				"element": "H" 
			},
			{
				"x": 2.9549161825,
				"y": 1.4270328732,
				"z": -2.6876027561,
				"element": "H" 
			},
			{
				"x": 3.6828712892,
				"y": 0.1972298113,
				"z": -1.6276669899,
				"element": "H" 
			},
			{
				"x": 0.7849911788,
				"y": 1.1160164421,
				"z": -3.2753047767,
				"element": "H" 
			},
			{
				"x": -0.3845562538,
				"y": -1.0114787517,
				"z": 1.0256955215,
				"element": "H" 
			}
		],
		 "valence_orbital": [ 
			{
				"type": "occ",
				"energy": -0.31562,
				"method": "rhf"
			},
			{
				"type": "occ",
				"energy": -0.30592,
				"method": "rhf"
			},
			{
				"type": "occ",
				"energy": -0.29606,
				"method": "rhf"
			},
			{
				"type": "occ",
				"energy": -0.28821,
				"method": "rhf"
			},
			{
				"type": "occ",
				"energy": -0.26491,
				"method": "rhf"
			},
			{
				"type": "unocc",
				"energy": -0.09588,
				"method": "rhf"
			},
			{
				"type": "unocc",
				"energy": -0.04372,
				"method": "rhf"
			},
			{
				"type": "unocc",
				"energy": -0.01611,
				"method": "rhf"
			},
			{
				"type": "unocc",
				"energy": -0.01028,
				"method": "rhf"
			},
			{
				"type": "unocc",
				"energy": 0.09191,
				"method": "rhf"
			}
		],
		"cosmo_sigma_profile": { 
			"-0.025": 0.0,
			"-0.024": 0.0,
			"-0.023": 0.0,
			"-0.022": 0.0,
			"-0.021": 0.0,
			"-0.02": 0.0,
			"-0.019": 0.0,
			"-0.018": 0.0,
			"-0.017": 0.0,
			"-0.016": 0.0,
			"-0.015": 0.0,
			"-0.014": 0.0,
			"-0.013": 0.0,
			"-0.012": 0.0,
			"-0.011": 0.0,
			"-0.01": 0.0,
			"-0.009": 1.11638226521,
			"-0.008": 2.97747174367,
			"-0.007": 4.130818907,
			"-0.006": 6.66748918972,
			"-0.005": 10.6099790936,
			"-0.004": 13.3179028599,
			"-0.003": 15.1712717135,
			"-0.002": 26.5085520999,
			"-0.001": 26.9887973559,
			"0.0": 14.2850678931,
			"0.001": 10.1029603183,
			"0.002": 13.0147487067,
			"0.003": 20.2475601383,
			"0.004": 10.0199576941,
			"0.005": 2.30082350495,
			"0.006": 4.6717740969,
			"0.007": 5.77809759294,
			"0.008": 6.15694820988,
			"0.009": 4.46652482928,
			"0.01": 2.62788070648,
			"0.011": 0.058826265674,
			"0.012": 0.0,
			"0.013": 0.0,
			"0.014": 0.0,
			"0.015": 0.0,
			"0.016": 0.0,
			"0.017": 0.0,
			"0.018": 0.0,
			"0.019": 0.0,
			"0.02": 0.0,
			"0.021": 0.0,
			"0.022": 0.0,
			"0.023": 0.0,
			"0.024": 0.0,
			"0.025": 0.0
		}
	}
}
