{
	 "smiles": "CC(C)(C)N1NC(=CC1=N)C1=CC=CC=C1", 
	 "Tm": 377.15, 
	 "num_atms": 33, 
	 "gaussian": { 
		 "optdone": 1, 
		 "sigma_profile": "yes", 
		 "theory": "DFT", 
		 "functional": "B3LYP", 
		 "basiset": "6-31G**", 
		 "properties": { 
			 "R2extent": 4647.7598, 
			 "electric_dipole_moment_norm": 4.07822827954, 
			 "electric_quadrupole_moment_norm": 17.5684678521, 
			 "total_energy": -669.84769132, 
			 "HOMO_LUMO_gap": 0.14891, 
			 "cosmo_polarized_energy": -14.14, 
			 "cosmo_cavitation_energy": 34.64, 
			 "cosmo_dispersion_energy": -24.34, 
			 "cosmo_repulsion_energy": 1.85, 
			 "cosmo_total_nonelectrostatic_energy": 12.16, 
			 "SMD_solvation_energy": 4.36 
		},
		"coords": [
			{
				"x": 0.4146606406,
				"y": -1.9986512419,
				"z": -1.9071438087,
				"element": "C" 
			},
			{
				"x": -0.9848972853,
				"y": -1.8560612938,
				"z": -1.2796619307,
				"element": "C" 
			},
			{
				"x": -2.0163237999,
				"y": -2.2668812771,
				"z": -2.3502399888,
				"element": "C" 
			},
			{
				"x": -1.1044022657,
				"y": -2.7491772135,
				"z": -0.0321482201,
				"element": "C" 
			},
			{
				"x": -1.1802803046,
				"y": -0.4123863472,
				"z": -0.9139434479,
				"element": "N" 
			},
			{
				"x": -0.0434279768,
				"y": 0.1423885389,
				"z": -0.2332184207,
				"element": "N" 
			},
			{
				"x": -0.5284193128,
				"y": 1.0892727541,
				"z": 0.6828160885,
				"element": "C" 
			},
			{
				"x": -1.8780015861,
				"y": 1.0266210459,
				"z": 0.7436564838,
				"element": "C" 
			},
			{
				"x": -2.3503216432,
				"y": 0.0545111421,
				"z": -0.2305803265,
				"element": "C" 
			},
			{
				"x": -3.5883349893,
				"y": -0.2583568311,
				"z": -0.3891977826,
				"element": "N" 
			},
			{
				"x": 0.4249790334,
				"y": 1.9445545483,
				"z": 1.3989426031,
				"element": "C" 
			},
			{
				"x": 0.0151577015,
				"y": 3.1800332849,
				"z": 1.9289377211,
				"element": "C" 
			},
			{
				"x": 0.9174273177,
				"y": 3.9887568159,
				"z": 2.614794209,
				"element": "C" 
			},
			{
				"x": 2.2459425173,
				"y": 3.584382607,
				"z": 2.7735936706,
				"element": "C" 
			},
			{
				"x": 2.6646955245,
				"y": 2.3617048571,
				"z": 2.2458855808,
				"element": "C" 
			},
			{
				"x": 1.7621069198,
				"y": 1.5452481609,
				"z": 1.565982141,
				"element": "C" 
			},
			{
				"x": 0.5227009436,
				"y": -1.3415058953,
				"z": -2.7773394196,
				"element": "H" 
			},
			{
				"x": 1.2054816329,
				"y": -1.7706225666,
				"z": -1.1894260836,
				"element": "H" 
			},
			{
				"x": 0.5562635865,
				"y": -3.0292682836,
				"z": -2.2449336711,
				"element": "H" 
			},
			{
				"x": -2.0972083151,
				"y": -1.502948452,
				"z": -3.1289771441,
				"element": "H" 
			},
			{
				"x": -3.0070854694,
				"y": -2.4540642268,
				"z": -1.9315944753,
				"element": "H" 
			},
			{
				"x": -1.6925030874,
				"y": -3.2007949135,
				"z": -2.8204545856,
				"element": "H" 
			},
			{
				"x": -0.3505130634,
				"y": -2.4689176933,
				"z": 0.7095411905,
				"element": "H" 
			},
			{
				"x": -0.9559314111,
				"y": -3.8022293045,
				"z": -0.2937288082,
				"element": "H" 
			},
			{
				"x": -2.0940819871,
				"y": -2.6448005012,
				"z": 0.4220151947,
				"element": "H" 
			},
			{
				"x": 0.6040697879,
				"y": 0.5439542584,
				"z": -0.9095574791,
				"element": "H" 
			},
			{
				"x": -2.5381757367,
				"y": 1.5476485268,
				"z": 1.4201683434,
				"element": "H" 
			},
			{
				"x": -3.7265548186,
				"y": -0.9127431753,
				"z": -1.1538678648,
				"element": "H" 
			},
			{
				"x": -1.0094244424,
				"y": 3.5080699392,
				"z": 1.7837177871,
				"element": "H" 
			},
			{
				"x": 0.586764617,
				"y": 4.9415586204,
				"z": 3.0178894071,
				"element": "H" 
			},
			{
				"x": 2.9492447703,
				"y": 4.2191902073,
				"z": 3.3045621632,
				"element": "H" 
			},
			{
				"x": 3.6939758692,
				"y": 2.0381447197,
				"z": 2.3713839544,
				"element": "H" 
			},
			{
				"x": 2.0801166326,
				"y": 0.5805691899,
				"z": 1.1826269191,
				"element": "H" 
			}
		],
		 "valence_orbital": [ 
			{
				"type": "occ",
				"energy": -0.28366,
				"method": "rhf"
			},
			{
				"type": "occ",
				"energy": -0.26043,
				"method": "rhf"
			},
			{
				"type": "occ",
				"energy": -0.24005,
				"method": "rhf"
			},
			{
				"type": "occ",
				"energy": -0.23469,
				"method": "rhf"
			},
			{
				"type": "occ",
				"energy": -0.19067,
				"method": "rhf"
			},
			{
				"type": "unocc",
				"energy": -0.04176,
				"method": "rhf"
			},
			{
				"type": "unocc",
				"energy": -0.01079,
				"method": "rhf"
			},
			{
				"type": "unocc",
				"energy": 0.03425,
				"method": "rhf"
			},
			{
				"type": "unocc",
				"energy": 0.06937,
				"method": "rhf"
			},
			{
				"type": "unocc",
				"energy": 0.08573,
				"method": "rhf"
			}
		],
		"cosmo_sigma_profile": { 
			"-0.025": 0.0,
			"-0.024": 0.0,
			"-0.023": 0.0,
			"-0.022": 0.0,
			"-0.021": 0.0,
			"-0.02": 0.0,
			"-0.019": 0.0,
			"-0.018": 0.0,
			"-0.017": 0.0,
			"-0.016": 0.0,
			"-0.015": 0.0,
			"-0.014": 0.162494926743,
			"-0.013": 0.917993559246,
			"-0.012": 0.835537190633,
			"-0.011": 1.02194560915,
			"-0.01": 1.2618948627,
			"-0.009": 1.21579316591,
			"-0.008": 1.98403752983,
			"-0.007": 3.64553794405,
			"-0.006": 12.2852360888,
			"-0.005": 15.3307333248,
			"-0.004": 24.4870580425,
			"-0.003": 25.116427008,
			"-0.002": 24.7568240012,
			"-0.001": 23.8948910321,
			"0.0": 28.5489618553,
			"0.001": 23.5732984989,
			"0.002": 16.4478137231,
			"0.003": 15.6653452492,
			"0.004": 17.2961863456,
			"0.005": 12.6341291614,
			"0.006": 2.94431001635,
			"0.007": 2.16381139424,
			"0.008": 1.72424683681,
			"0.009": 1.74907536166,
			"0.01": 1.27426503857,
			"0.011": 1.53459541942,
			"0.012": 1.56085249797,
			"0.013": 0.818331076056,
			"0.014": 1.03153917846,
			"0.015": 1.21554399267,
			"0.016": 1.45733289432,
			"0.017": 1.07470202857,
			"0.018": 1.49213476772,
			"0.019": 1.04649549457,
			"0.02": 0.845092321328,
			"0.021": 0.0812230691794,
			"0.022": 0.0,
			"0.023": 0.0,
			"0.024": 0.0,
			"0.025": 0.0
		}
	}
}
