{
	 "smiles": "O=C(NCOC(=O)C1=CC=C(OCNC(=O)C2=CC=CC=C2)C=C1)C1=CC=CC=C1", 
	 "Tm": 450.15, 
	 "num_atms": 50, 
	 "gaussian": { 
		 "optdone": 1, 
		 "sigma_profile": "yes", 
		 "theory": "DFT", 
		 "functional": "B3LYP", 
		 "basiset": "6-31G**", 
		 "properties": { 
			 "R2extent": 23694.96, 
			 "electric_dipole_moment_norm": 5.39867992105, 
			 "electric_quadrupole_moment_norm": 38.1506051863, 
			 "total_energy": -1374.17439739, 
			 "HOMO_LUMO_gap": 0.1826, 
			 "cosmo_polarized_energy": -23.31, 
			 "cosmo_cavitation_energy": 56.14, 
			 "cosmo_dispersion_energy": -39.62, 
			 "cosmo_repulsion_energy": 2.96, 
			 "cosmo_total_nonelectrostatic_energy": 19.47, 
			 "SMD_solvation_energy": 10.59 
		},
		"coords": [
			{
				"x": -0.8409029061,
				"y": 3.8258168099,
				"z": -3.4424342482,
				"element": "O" 
			},
			{
				"x": -0.2529743425,
				"y": 2.8987543851,
				"z": -3.988935666,
				"element": "C" 
			},
			{
				"x": -0.596695332,
				"y": 1.5829943084,
				"z": -3.77009867,
				"element": "N" 
			},
			{
				"x": -1.5205762711,
				"y": 1.1955925274,
				"z": -2.7551744887,
				"element": "C" 
			},
			{
				"x": -0.8740204662,
				"y": 0.7362663389,
				"z": -1.5404746343,
				"element": "O" 
			},
			{
				"x": -0.1828817659,
				"y": -0.4222192282,
				"z": -1.6646599251,
				"element": "C" 
			},
			{
				"x": -0.06837408,
				"y": -1.0081112396,
				"z": -2.731920722,
				"element": "O" 
			},
			{
				"x": 0.407033656,
				"y": -0.8846466164,
				"z": -0.3882448918,
				"element": "C" 
			},
			{
				"x": 0.2581212298,
				"y": -0.1787911778,
				"z": 0.8124481276,
				"element": "C" 
			},
			{
				"x": 0.8258312918,
				"y": -0.6455695641,
				"z": 1.9969438292,
				"element": "C" 
			},
			{
				"x": 1.5582768163,
				"y": -1.8395898175,
				"z": 1.976686311,
				"element": "C" 
			},
			{
				"x": 2.181108403,
				"y": -2.3984236122,
				"z": 3.0606520505,
				"element": "O" 
			},
			{
				"x": 2.1222707862,
				"y": -1.7749643002,
				"z": 4.3398773436,
				"element": "C" 
			},
			{
				"x": 0.8870132463,
				"y": -2.0300371084,
				"z": 5.0365220315,
				"element": "N" 
			},
			{
				"x": -0.003547848,
				"y": -1.0399586676,
				"z": 5.3848980708,
				"element": "C" 
			},
			{
				"x": 0.1946389396,
				"y": 0.1411577607,
				"z": 5.1093407731,
				"element": "O" 
			},
			{
				"x": -1.2351802325,
				"y": -1.4825472963,
				"z": 6.1188129653,
				"element": "C" 
			},
			{
				"x": -1.3246838543,
				"y": -2.6879893159,
				"z": 6.8302320993,
				"element": "C" 
			},
			{
				"x": -2.5036732173,
				"y": -3.027313089,
				"z": 7.4936864868,
				"element": "C" 
			},
			{
				"x": -3.6023500438,
				"y": -2.1669003099,
				"z": 7.4513965705,
				"element": "C" 
			},
			{
				"x": -3.5150498741,
				"y": -0.9585009627,
				"z": 6.7552397897,
				"element": "C" 
			},
			{
				"x": -2.3357975069,
				"y": -0.6145764907,
				"z": 6.0993571862,
				"element": "C" 
			},
			{
				"x": 1.7109432678,
				"y": -2.5579111592,
				"z": 0.7791118658,
				"element": "C" 
			},
			{
				"x": 1.1415187609,
				"y": -2.0824266821,
				"z": -0.3903253443,
				"element": "C" 
			},
			{
				"x": 0.8608685509,
				"y": 3.1336616657,
				"z": -4.9692202572,
				"element": "C" 
			},
			{
				"x": 1.8224880065,
				"y": 2.1662099468,
				"z": -5.2948818788,
				"element": "C" 
			},
			{
				"x": 2.8371060586,
				"y": 2.4627791219,
				"z": -6.205284187,
				"element": "C" 
			},
			{
				"x": 2.898279749,
				"y": 3.724764791,
				"z": -6.7991176239,
				"element": "C" 
			},
			{
				"x": 1.9495253158,
				"y": 4.6964694076,
				"z": -6.4696490038,
				"element": "C" 
			},
			{
				"x": 0.9413969447,
				"y": 4.4046124711,
				"z": -5.5543710338,
				"element": "C" 
			},
			{
				"x": -0.113133089,
				"y": 0.8337054078,
				"z": -4.2407512675,
				"element": "H" 
			},
			{
				"x": -2.1640772822,
				"y": 0.3919896764,
				"z": -3.1182736258,
				"element": "H" 
			},
			{
				"x": -2.0939096296,
				"y": 2.0700638196,
				"z": -2.4557474303,
				"element": "H" 
			},
			{
				"x": -0.3095457202,
				"y": 0.7446900045,
				"z": 0.821256864,
				"element": "H" 
			},
			{
				"x": 0.6810151979,
				"y": -0.0863002839,
				"z": 2.9147146019,
				"element": "H" 
			},
			{
				"x": 2.958927845,
				"y": -2.2242837982,
				"z": 4.8808215289,
				"element": "H" 
			},
			{
				"x": 2.2523267561,
				"y": -0.6924663799,
				"z": 4.2848250905,
				"element": "H" 
			},
			{
				"x": 0.6246279908,
				"y": -2.9952926691,
				"z": 5.1691137823,
				"element": "H" 
			},
			{
				"x": -0.4689924519,
				"y": -3.3533508212,
				"z": 6.9057021951,
				"element": "H" 
			},
			{
				"x": -2.5609389573,
				"y": -3.9584421632,
				"z": 8.0495081876,
				"element": "H" 
			},
			{
				"x": -4.5207740159,
				"y": -2.433863856,
				"z": 7.9660898612,
				"element": "H" 
			},
			{
				"x": -4.3657387094,
				"y": -0.2841292357,
				"z": 6.7266240087,
				"element": "H" 
			},
			{
				"x": -2.2412229805,
				"y": 0.3235808026,
				"z": 5.5635522365,
				"element": "H" 
			},
			{
				"x": 2.2837879102,
				"y": -3.4791106642,
				"z": 0.7962411769,
				"element": "H" 
			},
			{
				"x": 1.2526059057,
				"y": -2.6239285706,
				"z": -1.3236109957,
				"element": "H" 
			},
			{
				"x": 1.8128737581,
				"y": 1.1900406132,
				"z": -4.8178518118,
				"element": "H" 
			},
			{
				"x": 3.5828572331,
				"y": 1.7104679061,
				"z": -6.4447879927,
				"element": "H" 
			},
			{
				"x": 3.6871802481,
				"y": 3.9525437382,
				"z": -7.5103171455,
				"element": "H" 
			},
			{
				"x": 1.9989170907,
				"y": 5.681569331,
				"z": -6.9244785219,
				"element": "H" 
			},
			{
				"x": 0.201799618,
				"y": 5.1461142458,
				"z": -5.2720436687,
				"element": "H" 
			}
		],
		 "valence_orbital": [ 
			{
				"type": "occ",
				"energy": -0.25802,
				"method": "rhf"
			},
			{
				"type": "occ",
				"energy": -0.25727,
				"method": "rhf"
			},
			{
				"type": "occ",
				"energy": -0.25475,
				"method": "rhf"
			},
			{
				"type": "occ",
				"energy": -0.24724,
				"method": "rhf"
			},
			{
				"type": "occ",
				"energy": -0.23178,
				"method": "rhf"
			},
			{
				"type": "unocc",
				"energy": -0.04918,
				"method": "rhf"
			},
			{
				"type": "unocc",
				"energy": -0.03877,
				"method": "rhf"
			},
			{
				"type": "unocc",
				"energy": -0.03442,
				"method": "rhf"
			},
			{
				"type": "unocc",
				"energy": -0.01831,
				"method": "rhf"
			},
			{
				"type": "unocc",
				"energy": -0.00608,
				"method": "rhf"
			}
		],
		"cosmo_sigma_profile": { 
			"-0.025": 0.0,
			"-0.024": 0.0,
			"-0.023": 0.0,
			"-0.022": 0.0,
			"-0.021": 0.0,
			"-0.02": 0.0,
			"-0.019": 0.0,
			"-0.018": 0.0,
			"-0.017": 0.0,
			"-0.016": 0.0481118643753,
			"-0.015": 0.841396048204,
			"-0.014": 1.17888378038,
			"-0.013": 0.86396889743,
			"-0.012": 1.71352941185,
			"-0.011": 2.05808792629,
			"-0.01": 2.24088112804,
			"-0.009": 2.54988636422,
			"-0.008": 3.97099423779,
			"-0.007": 13.8954999069,
			"-0.006": 31.1300571049,
			"-0.005": 34.6297576401,
			"-0.004": 32.6114197265,
			"-0.003": 24.9686284541,
			"-0.002": 27.179816496,
			"-0.001": 29.3208612379,
			"0.0": 31.497670031,
			"0.001": 33.7929893848,
			"0.002": 37.2748371052,
			"0.003": 40.1923956151,
			"0.004": 38.0956893457,
			"0.005": 13.7199018696,
			"0.006": 6.15330557671,
			"0.007": 5.42500745155,
			"0.008": 5.06403531074,
			"0.009": 4.90389700851,
			"0.01": 4.58807295141,
			"0.011": 6.00267500284,
			"0.012": 6.19801833726,
			"0.013": 7.49030669694,
			"0.014": 0.859684364534,
			"0.015": 0.0,
			"0.016": 0.0,
			"0.017": 0.0,
			"0.018": 0.0,
			"0.019": 0.0,
			"0.02": 0.0,
			"0.021": 0.0,
			"0.022": 0.0,
			"0.023": 0.0,
			"0.024": 0.0,
			"0.025": 0.0
		}
	}
}
