{
	 "smiles": "OC(=O)C1CC1C1=CC=C(OC(F)F)C=C1", 
	 "Tm": 347.15, 
	 "num_atms": 26, 
	 "gaussian": { 
		 "optdone": 1, 
		 "sigma_profile": "yes", 
		 "theory": "DFT", 
		 "functional": "B3LYP", 
		 "basiset": "6-31G**", 
		 "properties": { 
			 "R2extent": 5894.9009, 
			 "electric_dipole_moment_norm": 5.35933759433, 
			 "electric_quadrupole_moment_norm": 13.2258796653, 
			 "total_energy": -850.521415968, 
			 "HOMO_LUMO_gap": 0.21735, 
			 "cosmo_polarized_energy": -17.79, 
			 "cosmo_cavitation_energy": 31.2, 
			 "cosmo_dispersion_energy": -22.33, 
			 "cosmo_repulsion_energy": 1.72, 
			 "cosmo_total_nonelectrostatic_energy": 10.58, 
			 "SMD_solvation_energy": 7.18 
		},
		"coords": [
			{
				"x": 1.8845438,
				"y": -3.6171006286,
				"z": 0.8283581815,
				"element": "O" 
			},
			{
				"x": 2.1574075319,
				"y": -2.4030407217,
				"z": 0.2790926121,
				"element": "C" 
			},
			{
				"x": 2.4522194382,
				"y": -2.3269002932,
				"z": -0.8909560758,
				"element": "O" 
			},
			{
				"x": 2.053900533,
				"y": -1.2374021233,
				"z": 1.2101333016,
				"element": "C" 
			},
			{
				"x": 2.5463783372,
				"y": 0.1040168319,
				"z": 0.7306219154,
				"element": "C" 
			},
			{
				"x": 1.0701140444,
				"y": -0.074766476,
				"z": 0.9020442697,
				"element": "C" 
			},
			{
				"x": 0.0579474146,
				"y": -0.0811013496,
				"z": -0.1972570553,
				"element": "C" 
			},
			{
				"x": -1.2930792139,
				"y": 0.0602694713,
				"z": 0.1490596034,
				"element": "C" 
			},
			{
				"x": -2.3021008517,
				"y": 0.0917529058,
				"z": -0.8136916288,
				"element": "C" 
			},
			{
				"x": -1.9527903527,
				"y": -0.0390829939,
				"z": -2.1586170043,
				"element": "C" 
			},
			{
				"x": -2.8778634682,
				"y": -0.0081569775,
				"z": -3.1933153214,
				"element": "O" 
			},
			{
				"x": -4.1310707587,
				"y": -0.5085022813,
				"z": -2.9509319156,
				"element": "C" 
			},
			{
				"x": -4.6991615639,
				"y": -0.7367326397,
				"z": -4.1480022385,
				"element": "F" 
			},
			{
				"x": -4.9065554604,
				"y": 0.411645761,
				"z": -2.3014173419,
				"element": "F" 
			},
			{
				"x": -0.6154835458,
				"y": -0.1760080909,
				"z": -2.5323413646,
				"element": "C" 
			},
			{
				"x": 0.379894496,
				"y": -0.1894782638,
				"z": -1.5606504887,
				"element": "C" 
			},
			{
				"x": 1.6235101023,
				"y": -3.5147884588,
				"z": 1.7540478055,
				"element": "H" 
			},
			{
				"x": 2.1672352785,
				"y": -1.467382858,
				"z": 2.2676424218,
				"element": "H" 
			},
			{
				"x": 2.9464462926,
				"y": 0.108892937,
				"z": -0.277984838,
				"element": "H" 
			},
			{
				"x": 3.0739987289,
				"y": 0.7360891613,
				"z": 1.4377829123,
				"element": "H" 
			},
			{
				"x": 0.6705665012,
				"y": 0.3477347291,
				"z": 1.8213720794,
				"element": "H" 
			},
			{
				"x": -1.567791509,
				"y": 0.1655924238,
				"z": 1.1957286893,
				"element": "H" 
			},
			{
				"x": -3.3339979404,
				"y": 0.2471827874,
				"z": -0.5229784075,
				"element": "H" 
			},
			{
				"x": -4.1161827941,
				"y": -1.4271917119,
				"z": -2.3520637112,
				"element": "H" 
			},
			{
				"x": -0.3711956751,
				"y": -0.2727990101,
				"z": -3.584731937,
				"element": "H" 
			},
			{
				"x": 1.4101106351,
				"y": -0.3167421303,
				"z": -1.8682444634,
				"element": "H" 
			}
		],
		 "valence_orbital": [ 
			{
				"type": "occ",
				"energy": -0.31719,
				"method": "rhf"
			},
			{
				"type": "occ",
				"energy": -0.30846,
				"method": "rhf"
			},
			{
				"type": "occ",
				"energy": -0.27689,
				"method": "rhf"
			},
			{
				"type": "occ",
				"energy": -0.26024,
				"method": "rhf"
			},
			{
				"type": "occ",
				"energy": -0.23359,
				"method": "rhf"
			},
			{
				"type": "unocc",
				"energy": -0.01624,
				"method": "rhf"
			},
			{
				"type": "unocc",
				"energy": -0.01221,
				"method": "rhf"
			},
			{
				"type": "unocc",
				"energy": 0.00657,
				"method": "rhf"
			},
			{
				"type": "unocc",
				"energy": 0.04902,
				"method": "rhf"
			},
			{
				"type": "unocc",
				"energy": 0.07572,
				"method": "rhf"
			}
		],
		"cosmo_sigma_profile": { 
			"-0.025": 0.0,
			"-0.024": 0.0,
			"-0.023": 0.0,
			"-0.022": 0.0,
			"-0.021": 0.0,
			"-0.02": 0.00458290686866,
			"-0.019": 0.67968209936,
			"-0.018": 1.12411099086,
			"-0.017": 1.11036147288,
			"-0.016": 1.38338430755,
			"-0.015": 0.797785454789,
			"-0.014": 0.49602814936,
			"-0.013": 0.876786086444,
			"-0.012": 1.45085621836,
			"-0.011": 1.65875812799,
			"-0.01": 3.11174252407,
			"-0.009": 3.1323644033,
			"-0.008": 3.82020521498,
			"-0.007": 8.71054863185,
			"-0.006": 15.1944133497,
			"-0.005": 15.2075945562,
			"-0.004": 12.676512322,
			"-0.003": 11.5749247586,
			"-0.002": 13.0143123975,
			"-0.001": 11.2310389424,
			"0.0": 12.7399747823,
			"0.001": 14.5781929771,
			"0.002": 18.7703025762,
			"0.003": 27.6234359644,
			"0.004": 27.9406013161,
			"0.005": 9.0695811492,
			"0.006": 4.52142584935,
			"0.007": 3.85379980677,
			"0.008": 4.17240736406,
			"0.009": 3.58115324453,
			"0.01": 4.03737769261,
			"0.011": 4.62100275844,
			"0.012": 3.51324959669,
			"0.013": 2.13511910145,
			"0.014": 0.284562946647,
			"0.015": 0.0,
			"0.016": 0.0,
			"0.017": 0.0,
			"0.018": 0.0,
			"0.019": 0.0,
			"0.02": 0.0,
			"0.021": 0.0,
			"0.022": 0.0,
			"0.023": 0.0,
			"0.024": 0.0,
			"0.025": 0.0
		}
	}
}
