{
	 "smiles": "CCOC(C)=NO", 
	 "Tm": 297.15, 
	 "num_atms": 16, 
	 "gaussian": { 
		 "optdone": 1, 
		 "sigma_profile": "yes", 
		 "theory": "DFT", 
		 "functional": "B3LYP", 
		 "basiset": "6-31G**", 
		 "properties": { 
			 "R2extent": 1210.8253, 
			 "electric_dipole_moment_norm": 0.649393016593, 
			 "electric_quadrupole_moment_norm": 2.4669588059, 
			 "total_energy": -362.990231373, 
			 "HOMO_LUMO_gap": 0.25332, 
			 "cosmo_polarized_energy": -6.86, 
			 "cosmo_cavitation_energy": 19.35, 
			 "cosmo_dispersion_energy": -14.39, 
			 "cosmo_repulsion_energy": 1.27, 
			 "cosmo_total_nonelectrostatic_energy": 6.22, 
			 "SMD_solvation_energy": 4.57 
		},
		"coords": [
			{
				"x": -0.431297269,
				"y": 3.3834803196,
				"z": -0.8710159414,
				"element": "C" 
			},
			{
				"x": -0.8484749777,
				"y": 2.2980112313,
				"z": 0.1122579148,
				"element": "C" 
			},
			{
				"x": 0.1238027257,
				"y": 1.2358014331,
				"z": 0.1968052937,
				"element": "O" 
			},
			{
				"x": 0.0988996709,
				"y": 0.2674967654,
				"z": -0.7483587162,
				"element": "C" 
			},
			{
				"x": 1.1212230723,
				"y": -0.8059770656,
				"z": -0.5241499126,
				"element": "C" 
			},
			{
				"x": -0.7550390207,
				"y": 0.3237902172,
				"z": -1.7040581538,
				"element": "N" 
			},
			{
				"x": -0.6266381914,
				"y": -0.8166800534,
				"z": -2.5429383582,
				"element": "O" 
			},
			{
				"x": 0.5547951741,
				"y": 3.7808131549,
				"z": -0.6123668595,
				"element": "H" 
			},
			{
				"x": -1.1521717262,
				"y": 4.2076983312,
				"z": -0.8399122909,
				"element": "H" 
			},
			{
				"x": -0.3999888004,
				"y": 2.9904307962,
				"z": -1.8891288977,
				"element": "H" 
			},
			{
				"x": -1.8200266869,
				"y": 1.8737660334,
				"z": -0.1582053606,
				"element": "H" 
			},
			{
				"x": -0.9004896516,
				"y": 2.6920909357,
				"z": 1.1309533857,
				"element": "H" 
			},
			{
				"x": 1.8595032859,
				"y": -0.4696322734,
				"z": 0.2048095438,
				"element": "H" 
			},
			{
				"x": 0.6386270357,
				"y": -1.715512936,
				"z": -0.1509642892,
				"element": "H" 
			},
			{
				"x": 1.6069752296,
				"y": -1.0630416426,
				"z": -1.4680337175,
				"element": "H" 
			},
			{
				"x": -1.2742998703,
				"y": -0.621835247,
				"z": -3.2316936404,
				"element": "H" 
			}
		],
		 "valence_orbital": [ 
			{
				"type": "occ",
				"energy": -0.36301,
				"method": "rhf"
			},
			{
				"type": "occ",
				"energy": -0.33014,
				"method": "rhf"
			},
			{
				"type": "occ",
				"energy": -0.32134,
				"method": "rhf"
			},
			{
				"type": "occ",
				"energy": -0.26889,
				"method": "rhf"
			},
			{
				"type": "occ",
				"energy": -0.2185,
				"method": "rhf"
			},
			{
				"type": "unocc",
				"energy": 0.03482,
				"method": "rhf"
			},
			{
				"type": "unocc",
				"energy": 0.07732,
				"method": "rhf"
			},
			{
				"type": "unocc",
				"energy": 0.11167,
				"method": "rhf"
			},
			{
				"type": "unocc",
				"energy": 0.12286,
				"method": "rhf"
			},
			{
				"type": "unocc",
				"energy": 0.14375,
				"method": "rhf"
			}
		],
		"cosmo_sigma_profile": { 
			"-0.025": 0.0,
			"-0.024": 0.0,
			"-0.023": 0.0,
			"-0.022": 0.0,
			"-0.021": 0.0,
			"-0.02": 0.0,
			"-0.019": 0.0,
			"-0.018": 0.0,
			"-0.017": 0.269890092746,
			"-0.016": 1.01783369961,
			"-0.015": 0.892393925236,
			"-0.014": 0.759024361867,
			"-0.013": 0.785325703602,
			"-0.012": 1.04661955441,
			"-0.011": 0.318082663315,
			"-0.01": 0.239223135273,
			"-0.009": 0.773467769662,
			"-0.008": 0.683726199459,
			"-0.007": 0.486756012415,
			"-0.006": 2.62712072881,
			"-0.005": 7.11431804662,
			"-0.004": 12.5736627861,
			"-0.003": 16.5033543928,
			"-0.002": 17.5231537743,
			"-0.001": 15.9646562943,
			"0.0": 13.6912510514,
			"0.001": 10.2840683063,
			"0.002": 7.18092645084,
			"0.003": 4.72876180713,
			"0.004": 5.37655285265,
			"0.005": 5.21192783015,
			"0.006": 4.57780572593,
			"0.007": 4.61033322467,
			"0.008": 5.29706185396,
			"0.009": 4.10674592055,
			"0.01": 4.38801454392,
			"0.011": 1.51530796465,
			"0.012": 0.512585681266,
			"0.013": 0.0,
			"0.014": 0.0,
			"0.015": 0.0,
			"0.016": 0.0,
			"0.017": 0.0,
			"0.018": 0.0,
			"0.019": 0.0,
			"0.02": 0.0,
			"0.021": 0.0,
			"0.022": 0.0,
			"0.023": 0.0,
			"0.024": 0.0,
			"0.025": 0.0
		}
	}
}
