{
	 "smiles": "COC1=CC(I)=C(OC)C=C1Cl", 
	 "Tm": 389.15, 
	 "num_atms": 20, 
	 "gaussian": { 
		 "optdone": 1, 
		 "sigma_profile": "no", 
		 "theory": "DFT", 
		 "functional": "B3LYP", 
		 "basiset": "6-31G**", 
		 "properties": { 
			 "R2extent": 3303.2082, 
			 "electric_dipole_moment_norm": 2.09277666271, 
			 "electric_quadrupole_moment_norm": 14.9309281547, 
			 "total_energy": -931.663148529, 
			 "HOMO_LUMO_gap": 0.18693, 
			 "cosmo_polarized_energy": -92899.97, 
			 "cosmo_cavitation_energy": 28.92, 
			 "cosmo_dispersion_energy": -22.36, 
			 "cosmo_repulsion_energy": 1.77, 
			 "cosmo_total_nonelectrostatic_energy": 8.33, 
			 "SMD_solvation_energy": 5.44 
		},
		"coords": [
			{
				"x": 1.4222301382,
				"y": -1.3584866258,
				"z": -4.2376536757,
				"element": "C" 
			},
			{
				"x": 1.8814866881,
				"y": -0.2722612505,
				"z": -3.4267766097,
				"element": "O" 
			},
			{
				"x": 1.0499093481,
				"y": 0.0671436535,
				"z": -2.3921917561,
				"element": "C" 
			},
			{
				"x": 0.092581675,
				"y": 1.0726359922,
				"z": -2.5736892965,
				"element": "C" 
			},
			{
				"x": -0.7294977332,
				"y": 1.4804099922,
				"z": -1.529810943,
				"element": "C" 
			},
			{
				"x": -2.1514784069,
				"y": 3.0073302419,
				"z": -1.8593301188,
				"element": "I" 
			},
			{
				"x": -0.6168951543,
				"y": 0.8851895381,
				"z": -0.2584743449,
				"element": "C" 
			},
			{
				"x": -1.4476098488,
				"y": 1.3280115984,
				"z": 0.7172586241,
				"element": "O" 
			},
			{
				"x": -1.3497366796,
				"y": 0.7511039426,
				"z": 2.0124367068,
				"element": "C" 
			},
			{
				"x": 0.3403656511,
				"y": -0.1196845871,
				"z": -0.071326022,
				"element": "C" 
			},
			{
				"x": 1.1585155595,
				"y": -0.5211308182,
				"z": -1.1279287785,
				"element": "C" 
			},
			{
				"x": 2.3522081332,
				"y": -1.7716857585,
				"z": -0.846873024,
				"element": "Cl" 
			},
			{
				"x": 0.4551186442,
				"y": -1.1241156913,
				"z": -4.7004920263,
				"element": "H" 
			},
			{
				"x": 1.3300835179,
				"y": -2.2813716421,
				"z": -3.6536419715,
				"element": "H" 
			},
			{
				"x": 2.1734689058,
				"y": -1.49709984,
				"z": -5.0171639464,
				"element": "H" 
			},
			{
				"x": 0.0198553646,
				"y": 1.5367424328,
				"z": -3.5505367974,
				"element": "H" 
			},
			{
				"x": -0.3583198143,
				"y": 0.9159145427,
				"z": 2.4521614105,
				"element": "H" 
			},
			{
				"x": -1.564005165,
				"y": -0.3246341602,
				"z": 1.9909236361,
				"element": "H" 
			},
			{
				"x": -2.1019274993,
				"y": 1.2566479105,
				"z": 2.6186355167,
				"element": "H" 
			},
			{
				"x": 0.4621466755,
				"y": -0.597059471,
				"z": 0.8919734168,
				"element": "H" 
			}
		],
		 "valence_orbital": [ 
			{
				"type": "occ",
				"energy": -0.28516,
				"method": "rhf"
			},
			{
				"type": "occ",
				"energy": -0.28233,
				"method": "rhf"
			},
			{
				"type": "occ",
				"energy": -0.26325,
				"method": "rhf"
			},
			{
				"type": "occ",
				"energy": -0.24973,
				"method": "rhf"
			},
			{
				"type": "occ",
				"energy": -0.22432,
				"method": "rhf"
			},
			{
				"type": "unocc",
				"energy": -0.03739,
				"method": "rhf"
			},
			{
				"type": "unocc",
				"energy": -0.02716,
				"method": "rhf"
			},
			{
				"type": "unocc",
				"energy": -0.00557,
				"method": "rhf"
			},
			{
				"type": "unocc",
				"energy": 0.02452,
				"method": "rhf"
			},
			{
				"type": "unocc",
				"energy": 0.04387,
				"method": "rhf"
			}
		],
		"cosmo_sigma_profile": { 
			"0.0": 0.0,
			"0.0": 0.0,
			"0.0": 0.0,
			"0.0": 0.0,
			"0.0": 0.0,
			"0.0": 0.0,
			"0.0": 0.0,
			"0.0": 0.0,
			"0.0": 0.0,
			"0.0": 0.0,
			"0.0": 0.0,
			"0.0": 0.0,
			"0.0": 0.0,
			"0.0": 0.0,
			"0.0": 0.0,
			"0.0": 0.0,
			"0.0": 0.0,
			"0.0": 0.0,
			"0.0": 0.0,
			"0.0": 0.0,
			"0.0": 0.0,
			"0.0": 0.0,
			"0.0": 0.0,
			"0.0": 0.0,
			"0.0": 0.0,
			"0.0": 0.0,
			"0.0": 0.0,
			"0.0": 0.0,
			"0.0": 0.0,
			"0.0": 0.0,
			"0.0": 0.0,
			"0.0": 0.0,
			"0.0": 0.0,
			"0.0": 0.0,
			"0.0": 0.0,
			"0.0": 0.0,
			"0.0": 0.0,
			"0.0": 0.0,
			"0.0": 0.0,
			"0.0": 0.0,
			"0.0": 0.0,
			"0.0": 0.0,
			"0.0": 0.0,
			"0.0": 0.0,
			"0.0": 0.0,
			"0.0": 0.0,
			"0.0": 0.0,
			"0.0": 0.0,
			"0.0": 0.0,
			"0.0": 0.0,
			"0.0": 0.0
		}
	}
}
