{
	 "smiles": "OC(=O)COC1=CC=C(C=C1)C1SCCS1", 
	 "Tm": 411.15, 
	 "num_atms": 28, 
	 "gaussian": { 
		 "optdone": 1, 
		 "sigma_profile": "yes", 
		 "theory": "DFT", 
		 "functional": "B3LYP", 
		 "basiset": "6-31G**", 
		 "properties": { 
			 "R2extent": 7452.1133, 
			 "electric_dipole_moment_norm": 5.39621723525, 
			 "electric_quadrupole_moment_norm": 21.2992803047, 
			 "total_energy": -1448.44508598, 
			 "HOMO_LUMO_gap": 0.2005, 
			 "cosmo_polarized_energy": -17.27, 
			 "cosmo_cavitation_energy": 34.89, 
			 "cosmo_dispersion_energy": -26.25, 
			 "cosmo_repulsion_energy": 1.97, 
			 "cosmo_total_nonelectrostatic_energy": 10.61, 
			 "SMD_solvation_energy": 6.15 
		},
		"coords": [
			{
				"x": 1.5923605144,
				"y": -0.7838901717,
				"z": 4.9955828087,
				"element": "O" 
			},
			{
				"x": 0.2594817406,
				"y": -0.8871776273,
				"z": 4.8715260219,
				"element": "C" 
			},
			{
				"x": -0.4751090198,
				"y": -1.1047694036,
				"z": 5.8016596255,
				"element": "O" 
			},
			{
				"x": -0.2880866097,
				"y": -0.7097525568,
				"z": 3.4538074579,
				"element": "C" 
			},
			{
				"x": 0.7974635475,
				"y": -0.4669841104,
				"z": 2.5681663525,
				"element": "O" 
			},
			{
				"x": 0.550211889,
				"y": -0.2756736808,
				"z": 1.2290371498,
				"element": "C" 
			},
			{
				"x": 1.6705606195,
				"y": -0.0422490331,
				"z": 0.426618656,
				"element": "C" 
			},
			{
				"x": 1.5079095536,
				"y": 0.1623986188,
				"z": -0.9396234516,
				"element": "C" 
			},
			{
				"x": 0.2371022101,
				"y": 0.139468097,
				"z": -1.5307074177,
				"element": "C" 
			},
			{
				"x": -0.8718325749,
				"y": -0.0934343017,
				"z": -0.7100786366,
				"element": "C" 
			},
			{
				"x": -0.7282433381,
				"y": -0.3018370473,
				"z": 0.660708385,
				"element": "C" 
			},
			{
				"x": 0.0995876042,
				"y": 0.3529218251,
				"z": -3.0193215693,
				"element": "C" 
			},
			{
				"x": -0.5708083304,
				"y": -1.1464911217,
				"z": -3.8617331918,
				"element": "S" 
			},
			{
				"x": -1.2068025815,
				"y": -0.2192941914,
				"z": -5.3034283551,
				"element": "C" 
			},
			{
				"x": -1.9855814447,
				"y": 0.9832142676,
				"z": -4.773608121,
				"element": "C" 
			},
			{
				"x": -0.9880281126,
				"y": 1.8127230718,
				"z": -3.4660934469,
				"element": "S" 
			},
			{
				"x": 1.9627516207,
				"y": -0.6076198611,
				"z": 4.1122786475,
				"element": "H" 
			},
			{
				"x": -0.9957719073,
				"y": 0.1281956882,
				"z": 3.4617582497,
				"element": "H" 
			},
			{
				"x": -0.8341136056,
				"y": -1.6209132214,
				"z": 3.1805402038,
				"element": "H" 
			},
			{
				"x": 2.6542704129,
				"y": -0.0234690593,
				"z": 0.884071446,
				"element": "H" 
			},
			{
				"x": 2.3844410902,
				"y": 0.3424023338,
				"z": -1.556377451,
				"element": "H" 
			},
			{
				"x": -1.864172818,
				"y": -0.1072269113,
				"z": -1.1490035139,
				"element": "H" 
			},
			{
				"x": -1.6086557161,
				"y": -0.4784668808,
				"z": 1.2670625469,
				"element": "H" 
			},
			{
				"x": 1.0848760368,
				"y": 0.5659011521,
				"z": -3.4389473987,
				"element": "H" 
			},
			{
				"x": -1.8520833783,
				"y": -0.8958165381,
				"z": -5.8721422755,
				"element": "H" 
			},
			{
				"x": -0.3782993241,
				"y": 0.0968071716,
				"z": -5.9438402511,
				"element": "H" 
			},
			{
				"x": -2.9441525743,
				"y": 0.6684726501,
				"z": -4.3547029162,
				"element": "H" 
			},
			{
				"x": -2.1672755039,
				"y": 1.7166608417,
				"z": -5.5650095548,
				"element": "H" 
			}
		],
		 "valence_orbital": [ 
			{
				"type": "occ",
				"energy": -0.27752,
				"method": "rhf"
			},
			{
				"type": "occ",
				"energy": -0.26926,
				"method": "rhf"
			},
			{
				"type": "occ",
				"energy": -0.24715,
				"method": "rhf"
			},
			{
				"type": "occ",
				"energy": -0.23679,
				"method": "rhf"
			},
			{
				"type": "occ",
				"energy": -0.22586,
				"method": "rhf"
			},
			{
				"type": "unocc",
				"energy": -0.02536,
				"method": "rhf"
			},
			{
				"type": "unocc",
				"energy": -0.01579,
				"method": "rhf"
			},
			{
				"type": "unocc",
				"energy": -0.00749,
				"method": "rhf"
			},
			{
				"type": "unocc",
				"energy": 0.00724,
				"method": "rhf"
			},
			{
				"type": "unocc",
				"energy": 0.04747,
				"method": "rhf"
			}
		],
		"cosmo_sigma_profile": { 
			"-0.025": 0.0,
			"-0.024": 0.0,
			"-0.023": 0.0,
			"-0.022": 0.0,
			"-0.021": 0.0,
			"-0.02": 0.0,
			"-0.019": 0.0,
			"-0.018": 0.0,
			"-0.017": 0.0,
			"-0.016": 0.0,
			"-0.015": 0.42384955785,
			"-0.014": 0.416767375695,
			"-0.013": 0.219214582834,
			"-0.012": 0.947816781436,
			"-0.011": 1.16464900147,
			"-0.01": 0.540844514759,
			"-0.009": 1.93831217841,
			"-0.008": 11.550129806,
			"-0.007": 15.0122644331,
			"-0.006": 20.2175988773,
			"-0.005": 22.0400382701,
			"-0.004": 21.3012857806,
			"-0.003": 17.6391387771,
			"-0.002": 15.6234505098,
			"-0.001": 11.1064532418,
			"0.0": 12.0789228084,
			"0.001": 14.0499836156,
			"0.002": 16.2996963379,
			"0.003": 16.9524912399,
			"0.004": 20.1758235874,
			"0.005": 12.0927509315,
			"0.006": 9.22747006054,
			"0.007": 7.81389696528,
			"0.008": 6.27132896184,
			"0.009": 8.6634404919,
			"0.01": 6.19657532552,
			"0.011": 5.1004434853,
			"0.012": 4.83341131795,
			"0.013": 1.08965231077,
			"0.014": 0.0,
			"0.015": 0.0,
			"0.016": 0.0,
			"0.017": 0.0,
			"0.018": 0.0,
			"0.019": 0.0,
			"0.02": 0.0,
			"0.021": 0.0,
			"0.022": 0.0,
			"0.023": 0.0,
			"0.024": 0.0,
			"0.025": 0.0
		}
	}
}
