{
	 "smiles": "CC1=NC=C(C(O)=O)C(=O)N1", 
	 "Tm": 584.15, 
	 "num_atms": 17, 
	 "gaussian": { 
		 "optdone": 1, 
		 "sigma_profile": "yes", 
		 "theory": "DFT", 
		 "functional": "B3LYP", 
		 "basiset": "6-31G**", 
		 "properties": { 
			 "R2extent": 1924.8052, 
			 "electric_dipole_moment_norm": 7.10030438855, 
			 "electric_quadrupole_moment_norm": 13.8675635593, 
			 "total_energy": -567.443564818, 
			 "HOMO_LUMO_gap": 0.18169, 
			 "cosmo_polarized_energy": -26.51, 
			 "cosmo_cavitation_energy": 22.43, 
			 "cosmo_dispersion_energy": -16.54, 
			 "cosmo_repulsion_energy": 1.34, 
			 "cosmo_total_nonelectrostatic_energy": 7.23, 
			 "SMD_solvation_energy": 4.5 
		},
		"coords": [
			{
				"x": -2.4219576151,
				"y": 0.3757101663,
				"z": -2.0375387917,
				"element": "C" 
			},
			{
				"x": -1.5241494291,
				"y": 0.3291821295,
				"z": -0.8353434383,
				"element": "C" 
			},
			{
				"x": -1.8788544003,
				"y": 0.9222371403,
				"z": 0.2773982563,
				"element": "N" 
			},
			{
				"x": -0.996277685,
				"y": 0.8347858156,
				"z": 1.3181374644,
				"element": "C" 
			},
			{
				"x": 0.2112317086,
				"y": 0.1828621359,
				"z": 1.2985692876,
				"element": "C" 
			},
			{
				"x": 1.1537503319,
				"y": 0.2467351817,
				"z": 2.4604890577,
				"element": "C" 
			},
			{
				"x": 0.5684855768,
				"y": 0.1623944305,
				"z": 3.6911009548,
				"element": "O" 
			},
			{
				"x": 2.3413085293,
				"y": 0.4099868305,
				"z": 2.357887469,
				"element": "O" 
			},
			{
				"x": 0.6280957465,
				"y": -0.4934155547,
				"z": 0.0703580744,
				"element": "C" 
			},
			{
				"x": 1.6325911724,
				"y": -1.1444317956,
				"z": -0.1446225221,
				"element": "O" 
			},
			{
				"x": -0.3476629049,
				"y": -0.3430247995,
				"z": -0.9538193176,
				"element": "N" 
			},
			{
				"x": -1.9212600556,
				"y": 0.8691789908,
				"z": -2.8780355845,
				"element": "H" 
			},
			{
				"x": -3.3239659544,
				"y": 0.9310622967,
				"z": -1.7836592208,
				"element": "H" 
			},
			{
				"x": -2.6984454878,
				"y": -0.6343003562,
				"z": -2.3597331769,
				"element": "H" 
			},
			{
				"x": -1.3060172453,
				"y": 1.3673900104,
				"z": 2.2162864921,
				"element": "H" 
			},
			{
				"x": -0.3442932217,
				"y": -0.1453235503,
				"z": 3.6011706585,
				"element": "H" 
			},
			{
				"x": -0.0990790662,
				"y": -0.7939290718,
				"z": -1.8280456629,
				"element": "H" 
			}
		],
		 "valence_orbital": [ 
			{
				"type": "occ",
				"energy": -0.31818,
				"method": "rhf"
			},
			{
				"type": "occ",
				"energy": -0.30333,
				"method": "rhf"
			},
			{
				"type": "occ",
				"energy": -0.28313,
				"method": "rhf"
			},
			{
				"type": "occ",
				"energy": -0.26573,
				"method": "rhf"
			},
			{
				"type": "occ",
				"energy": -0.2579,
				"method": "rhf"
			},
			{
				"type": "unocc",
				"energy": -0.07621,
				"method": "rhf"
			},
			{
				"type": "unocc",
				"energy": -0.02053,
				"method": "rhf"
			},
			{
				"type": "unocc",
				"energy": 0.01692,
				"method": "rhf"
			},
			{
				"type": "unocc",
				"energy": 0.05842,
				"method": "rhf"
			},
			{
				"type": "unocc",
				"energy": 0.0678,
				"method": "rhf"
			}
		],
		"cosmo_sigma_profile": { 
			"-0.025": 0.0,
			"-0.024": 0.0,
			"-0.023": 0.0,
			"-0.022": 0.0,
			"-0.021": 0.0,
			"-0.02": 0.0,
			"-0.019": 0.571465730297,
			"-0.018": 0.69551827471,
			"-0.017": 2.06614079563,
			"-0.016": 1.88104999592,
			"-0.015": 1.72951692148,
			"-0.014": 2.66686710847,
			"-0.013": 2.38870474036,
			"-0.012": 2.16021782433,
			"-0.011": 2.44374260015,
			"-0.01": 3.11068056791,
			"-0.009": 3.8018193092,
			"-0.008": 4.46123145357,
			"-0.007": 8.64973720402,
			"-0.006": 8.19682990962,
			"-0.005": 11.0001953902,
			"-0.004": 12.5238806731,
			"-0.003": 13.3545413691,
			"-0.002": 12.2242608675,
			"-0.001": 5.900888771,
			"0.0": 5.11760608039,
			"0.001": 4.56241334772,
			"0.002": 4.03550894478,
			"0.003": 3.98812091344,
			"0.004": 3.48868553556,
			"0.005": 3.75326031762,
			"0.006": 4.3811564447,
			"0.007": 4.2549630615,
			"0.008": 4.85283574194,
			"0.009": 4.88836225141,
			"0.01": 7.13681213297,
			"0.011": 9.10177600472,
			"0.012": 10.172265579,
			"0.013": 5.68465231863,
			"0.014": 2.3414107388,
			"0.015": 1.36138417598,
			"0.016": 0.154841411219,
			"0.017": 0.0,
			"0.018": 0.0,
			"0.019": 0.0,
			"0.02": 0.0,
			"0.021": 0.0,
			"0.022": 0.0,
			"0.023": 0.0,
			"0.024": 0.0,
			"0.025": 0.0
		}
	}
}
