{
	 "smiles": "O1C=NC2=CC=CC=C12", 
	 "Tm": 303.65, 
	 "num_atms": 14, 
	 "gaussian": { 
		 "optdone": 1, 
		 "sigma_profile": "yes", 
		 "theory": "DFT", 
		 "functional": "B3LYP", 
		 "basiset": "6-31G**", 
		 "properties": { 
			 "R2extent": 1195.7456, 
			 "electric_dipole_moment_norm": 1.3064016113, 
			 "electric_quadrupole_moment_norm": 5.94577018392, 
			 "total_energy": -399.723014301, 
			 "HOMO_LUMO_gap": 0.21261, 
			 "cosmo_polarized_energy": -6.27, 
			 "cosmo_cavitation_energy": 18.22, 
			 "cosmo_dispersion_energy": -14.04, 
			 "cosmo_repulsion_energy": 1.12, 
			 "cosmo_total_nonelectrostatic_energy": 5.3, 
			 "SMD_solvation_energy": 2.2 
		},
		"coords": [
			{
				"x": 1.4204687019,
				"y": -0.9379973905,
				"z": 2.3074331733,
				"element": "O" 
			},
			{
				"x": 0.8817545506,
				"y": -2.165508714,
				"z": 2.0233269393,
				"element": "C" 
			},
			{
				"x": 0.2954784289,
				"y": -2.2877220232,
				"z": 0.8811210044,
				"element": "N" 
			},
			{
				"x": 0.4328211755,
				"y": -1.0212296237,
				"z": 0.3000656504,
				"element": "C" 
			},
			{
				"x": 0.0073649878,
				"y": -0.5197423576,
				"z": -0.9330444282,
				"element": "C" 
			},
			{
				"x": 0.3071739963,
				"y": 0.8113744029,
				"z": -1.2188592806,
				"element": "C" 
			},
			{
				"x": 1.0094555888,
				"y": 1.6229396236,
				"z": -0.3072261777,
				"element": "C" 
			},
			{
				"x": 1.4405304341,
				"y": 1.1350373431,
				"z": 0.928281246,
				"element": "C" 
			},
			{
				"x": 1.1301001036,
				"y": -0.1919277913,
				"z": 1.1890545931,
				"element": "C" 
			},
			{
				"x": 1.0015041884,
				"y": -2.9183932013,
				"z": 2.7897844191,
				"element": "H" 
			},
			{
				"x": -0.53332214,
				"y": -1.1488558874,
				"z": -1.631988884,
				"element": "H" 
			},
			{
				"x": -0.006870666,
				"y": 1.2369756583,
				"z": -2.1671114768,
				"element": "H" 
			},
			{
				"x": 1.2215369077,
				"y": 2.6545254568,
				"z": -0.5711252294,
				"element": "H" 
			},
			{
				"x": 1.9819037424,
				"y": 1.7506245044,
				"z": 1.637888451,
				"element": "H" 
			}
		],
		 "valence_orbital": [ 
			{
				"type": "occ",
				"energy": -0.35879,
				"method": "rhf"
			},
			{
				"type": "occ",
				"energy": -0.33286,
				"method": "rhf"
			},
			{
				"type": "occ",
				"energy": -0.29374,
				"method": "rhf"
			},
			{
				"type": "occ",
				"energy": -0.24886,
				"method": "rhf"
			},
			{
				"type": "occ",
				"energy": -0.24149,
				"method": "rhf"
			},
			{
				"type": "unocc",
				"energy": -0.02888,
				"method": "rhf"
			},
			{
				"type": "unocc",
				"energy": 0.00441,
				"method": "rhf"
			},
			{
				"type": "unocc",
				"energy": 0.03634,
				"method": "rhf"
			},
			{
				"type": "unocc",
				"energy": 0.0909,
				"method": "rhf"
			},
			{
				"type": "unocc",
				"energy": 0.12577,
				"method": "rhf"
			}
		],
		"cosmo_sigma_profile": { 
			"-0.025": 0.0,
			"-0.024": 0.0,
			"-0.023": 0.0,
			"-0.022": 0.0,
			"-0.021": 0.0,
			"-0.02": 0.0,
			"-0.019": 0.0,
			"-0.018": 0.0,
			"-0.017": 0.0,
			"-0.016": 0.0,
			"-0.015": 0.0,
			"-0.014": 0.0,
			"-0.013": 0.0,
			"-0.012": 0.215717345105,
			"-0.011": 1.94884819881,
			"-0.01": 1.40167762689,
			"-0.009": 1.99441962679,
			"-0.008": 1.70286402984,
			"-0.007": 4.61715020507,
			"-0.006": 9.13338025337,
			"-0.005": 8.96986820243,
			"-0.004": 10.2820056594,
			"-0.003": 8.63662959008,
			"-0.002": 10.1387460215,
			"-0.001": 9.56510939905,
			"0.0": 9.82849704514,
			"0.001": 10.1022000565,
			"0.002": 12.2474745687,
			"0.003": 12.8527789483,
			"0.004": 11.5066446192,
			"0.005": 7.86554926269,
			"0.006": 2.84897675468,
			"0.007": 2.49291498104,
			"0.008": 1.42317505278,
			"0.009": 1.33104559384,
			"0.01": 1.00929382331,
			"0.011": 1.36122784066,
			"0.012": 0.943596365945,
			"0.013": 1.04278323923,
			"0.014": 0.912028825555,
			"0.015": 1.00168601336,
			"0.016": 0.190043961689,
			"0.017": 0.0,
			"0.018": 0.0,
			"0.019": 0.0,
			"0.02": 0.0,
			"0.021": 0.0,
			"0.022": 0.0,
			"0.023": 0.0,
			"0.024": 0.0,
			"0.025": 0.0
		}
	}
}
