{
	 "smiles": "CCC(C)OC(C)=O", 
	 "Tm": 174.15, 
	 "num_atms": 20, 
	 "gaussian": { 
		 "optdone": 1, 
		 "sigma_profile": "yes", 
		 "theory": "DFT", 
		 "functional": "B3LYP", 
		 "basiset": "6-31G**", 
		 "properties": { 
			 "R2extent": 1373.6868, 
			 "electric_dipole_moment_norm": 1.91895556228, 
			 "electric_quadrupole_moment_norm": 8.82758909103, 
			 "total_energy": -386.347900888, 
			 "HOMO_LUMO_gap": 0.28267, 
			 "cosmo_polarized_energy": -6.12, 
			 "cosmo_cavitation_energy": 22.63, 
			 "cosmo_dispersion_energy": -16.12, 
			 "cosmo_repulsion_energy": 1.38, 
			 "cosmo_total_nonelectrostatic_energy": 7.89, 
			 "SMD_solvation_energy": 5.28 
		},
		"coords": [
			{
				"x": 2.1123053086,
				"y": 1.2195830383,
				"z": -1.2186410459,
				"element": "C" 
			},
			{
				"x": 1.9999419151,
				"y": 0.5771543117,
				"z": 0.1685372916,
				"element": "C" 
			},
			{
				"x": 0.7256533684,
				"y": 0.9171374772,
				"z": 0.9464042862,
				"element": "C" 
			},
			{
				"x": 0.5135030046,
				"y": 2.4029516963,
				"z": 1.2236682548,
				"element": "C" 
			},
			{
				"x": -0.3890675537,
				"y": 0.4090678293,
				"z": 0.154072225,
				"element": "O" 
			},
			{
				"x": -1.504694951,
				"y": 0.0370296861,
				"z": 0.8213917518,
				"element": "C" 
			},
			{
				"x": -2.5569733347,
				"y": -0.4691925288,
				"z": -0.1387656325,
				"element": "C" 
			},
			{
				"x": -1.6333875026,
				"y": 0.1040991184,
				"z": 2.0254079402,
				"element": "O" 
			},
			{
				"x": 1.2522089415,
				"y": 0.955664705,
				"z": -1.8405169981,
				"element": "H" 
			},
			{
				"x": 3.0169393991,
				"y": 0.8744426551,
				"z": -1.7288856173,
				"element": "H" 
			},
			{
				"x": 2.1649747791,
				"y": 2.3113675456,
				"z": -1.1609266847,
				"element": "H" 
			},
			{
				"x": 2.0519010645,
				"y": -0.5138253909,
				"z": 0.071215045,
				"element": "H" 
			},
			{
				"x": 2.8542546177,
				"y": 0.8738750501,
				"z": 0.7904647478,
				"element": "H" 
			},
			{
				"x": 0.7216489249,
				"y": 0.3736793646,
				"z": 1.8958630568,
				"element": "H" 
			},
			{
				"x": 0.3991622786,
				"y": 2.9686375122,
				"z": 0.2947799117,
				"element": "H" 
			},
			{
				"x": -0.3815709346,
				"y": 2.5455813017,
				"z": 1.8335586288,
				"element": "H" 
			},
			{
				"x": 1.3693005338,
				"y": 2.8098799938,
				"z": 1.7727091032,
				"element": "H" 
			},
			{
				"x": -2.836052309,
				"y": 0.3242367563,
				"z": -0.8387407646,
				"element": "H" 
			},
			{
				"x": -2.160390708,
				"y": -1.2995780233,
				"z": -0.7300855442,
				"element": "H" 
			},
			{
				"x": -3.4333568426,
				"y": -0.7935920988,
				"z": 0.4213900442,
				"element": "H" 
			}
		],
		 "valence_orbital": [ 
			{
				"type": "occ",
				"energy": -0.34419,
				"method": "rhf"
			},
			{
				"type": "occ",
				"energy": -0.33566,
				"method": "rhf"
			},
			{
				"type": "occ",
				"energy": -0.32356,
				"method": "rhf"
			},
			{
				"type": "occ",
				"energy": -0.29114,
				"method": "rhf"
			},
			{
				"type": "occ",
				"energy": -0.26527,
				"method": "rhf"
			},
			{
				"type": "unocc",
				"energy": 0.0174,
				"method": "rhf"
			},
			{
				"type": "unocc",
				"energy": 0.08804,
				"method": "rhf"
			},
			{
				"type": "unocc",
				"energy": 0.11368,
				"method": "rhf"
			},
			{
				"type": "unocc",
				"energy": 0.12342,
				"method": "rhf"
			},
			{
				"type": "unocc",
				"energy": 0.12703,
				"method": "rhf"
			}
		],
		"cosmo_sigma_profile": { 
			"-0.025": 0.0,
			"-0.024": 0.0,
			"-0.023": 0.0,
			"-0.022": 0.0,
			"-0.021": 0.0,
			"-0.02": 0.0,
			"-0.019": 0.0,
			"-0.018": 0.0,
			"-0.017": 0.0,
			"-0.016": 0.0,
			"-0.015": 0.0,
			"-0.014": 0.0,
			"-0.013": 0.0,
			"-0.012": 0.0,
			"-0.011": 0.0,
			"-0.01": 0.0,
			"-0.009": 0.0,
			"-0.008": 0.0,
			"-0.007": 0.418461073703,
			"-0.006": 4.23225317645,
			"-0.005": 5.64556217981,
			"-0.004": 13.5009646282,
			"-0.003": 24.2848216447,
			"-0.002": 26.3260151263,
			"-0.001": 25.6566823791,
			"0.0": 22.6589290569,
			"0.001": 15.8001222029,
			"0.002": 6.51639973393,
			"0.003": 3.90154719816,
			"0.004": 3.61858771871,
			"0.005": 3.86488108743,
			"0.006": 2.96212682468,
			"0.007": 3.29424571188,
			"0.008": 1.17565413105,
			"0.009": 1.53160290181,
			"0.01": 1.65590836334,
			"0.011": 2.03037910344,
			"0.012": 4.65411248143,
			"0.013": 2.12985571736,
			"0.014": 0.187076636741,
			"0.015": 0.0,
			"0.016": 0.0,
			"0.017": 0.0,
			"0.018": 0.0,
			"0.019": 0.0,
			"0.02": 0.0,
			"0.021": 0.0,
			"0.022": 0.0,
			"0.023": 0.0,
			"0.024": 0.0,
			"0.025": 0.0
		}
	}
}
