{
	 "smiles": "COC1=C(OCCC(O)=O)C=CC(C=O)=C1", 
	 "Tm": 404.15, 
	 "num_atms": 28, 
	 "gaussian": { 
		 "optdone": 1, 
		 "sigma_profile": "yes", 
		 "theory": "DFT", 
		 "functional": "B3LYP", 
		 "basiset": "6-31G**", 
		 "properties": { 
			 "R2extent": 4730.9425, 
			 "electric_dipole_moment_norm": 4.16893281428, 
			 "electric_quadrupole_moment_norm": 30.0151557227, 
			 "total_energy": -802.503171194, 
			 "HOMO_LUMO_gap": 0.17421, 
			 "cosmo_polarized_energy": -18.3, 
			 "cosmo_cavitation_energy": 32.68, 
			 "cosmo_dispersion_energy": -22.84, 
			 "cosmo_repulsion_energy": 1.78, 
			 "cosmo_total_nonelectrostatic_energy": 11.63, 
			 "SMD_solvation_energy": 8.63 
		},
		"coords": [
			{
				"x": -0.5603520993,
				"y": 1.6551415086,
				"z": 2.3011189422,
				"element": "C" 
			},
			{
				"x": -0.2688262872,
				"y": 0.8148706675,
				"z": 1.1867776355,
				"element": "O" 
			},
			{
				"x": -0.6051464966,
				"y": 1.2458908293,
				"z": -0.0576137821,
				"element": "C" 
			},
			{
				"x": -0.3434159444,
				"y": 0.3217324235,
				"z": -1.0985553585,
				"element": "C" 
			},
			{
				"x": 0.1712732605,
				"y": -0.9165440133,
				"z": -0.7747643632,
				"element": "O" 
			},
			{
				"x": 1.6102902874,
				"y": -0.9682081699,
				"z": -0.6113013897,
				"element": "C" 
			},
			{
				"x": 1.9617972389,
				"y": -2.3407773554,
				"z": -0.0521193573,
				"element": "C" 
			},
			{
				"x": 1.5297362135,
				"y": -2.6115529564,
				"z": 1.3928313154,
				"element": "C" 
			},
			{
				"x": 0.3657363371,
				"y": -2.0590514106,
				"z": 1.7885579211,
				"element": "O" 
			},
			{
				"x": 2.1775363047,
				"y": -3.3064629842,
				"z": 2.1385647432,
				"element": "O" 
			},
			{
				"x": -0.6535988444,
				"y": 0.6299679909,
				"z": -2.4174995551,
				"element": "C" 
			},
			{
				"x": -1.2258899757,
				"y": 1.8660757313,
				"z": -2.7259900582,
				"element": "C" 
			},
			{
				"x": -1.4807800842,
				"y": 2.7842700571,
				"z": -1.7045498876,
				"element": "C" 
			},
			{
				"x": -2.085718346,
				"y": 4.0967680224,
				"z": -2.0238664359,
				"element": "C" 
			},
			{
				"x": -2.3411491913,
				"y": 4.9558761189,
				"z": -1.2010669034,
				"element": "O" 
			},
			{
				"x": -1.1739008441,
				"y": 2.4755318371,
				"z": -0.3675600875,
				"element": "C" 
			},
			{
				"x": -1.6337769099,
				"y": 1.8668809108,
				"z": 2.3663625524,
				"element": "H" 
			},
			{
				"x": -0.0057833236,
				"y": 2.5989171423,
				"z": 2.2422355526,
				"element": "H" 
			},
			{
				"x": -0.242462918,
				"y": 1.0954542402,
				"z": 3.180632385,
				"element": "H" 
			},
			{
				"x": 2.0840258992,
				"y": -0.8161873183,
				"z": -1.5883453891,
				"element": "H" 
			},
			{
				"x": 1.931087071,
				"y": -0.1648779112,
				"z": 0.0617153612,
				"element": "H" 
			},
			{
				"x": 1.5041948456,
				"y": -3.1074617036,
				"z": -0.690159455,
				"element": "H" 
			},
			{
				"x": 3.0429404194,
				"y": -2.4922298917,
				"z": -0.0923659666,
				"element": "H" 
			},
			{
				"x": -0.0208333055,
				"y": -1.5199904146,
				"z": 1.0726372069,
				"element": "H" 
			},
			{
				"x": -0.453331672,
				"y": -0.1115357532,
				"z": -3.1840733176,
				"element": "H" 
			},
			{
				"x": -1.4737694245,
				"y": 2.1149175848,
				"z": -3.7541963239,
				"element": "H" 
			},
			{
				"x": -2.3006627462,
				"y": 4.2566270671,
				"z": -3.1034122837,
				"element": "H" 
			},
			{
				"x": -1.3971194644,
				"y": 3.2178577503,
				"z": 0.3897062986,
				"element": "H" 
			}
		],
		 "valence_orbital": [ 
			{
				"type": "occ",
				"energy": -0.29974,
				"method": "rhf"
			},
			{
				"type": "occ",
				"energy": -0.27304,
				"method": "rhf"
			},
			{
				"type": "occ",
				"energy": -0.26467,
				"method": "rhf"
			},
			{
				"type": "occ",
				"energy": -0.25881,
				"method": "rhf"
			},
			{
				"type": "occ",
				"energy": -0.24742,
				"method": "rhf"
			},
			{
				"type": "unocc",
				"energy": -0.07321,
				"method": "rhf"
			},
			{
				"type": "unocc",
				"energy": -0.01876,
				"method": "rhf"
			},
			{
				"type": "unocc",
				"energy": 0.01889,
				"method": "rhf"
			},
			{
				"type": "unocc",
				"energy": 0.02968,
				"method": "rhf"
			},
			{
				"type": "unocc",
				"energy": 0.06276,
				"method": "rhf"
			}
		],
		"cosmo_sigma_profile": { 
			"-0.025": 0.0,
			"-0.024": 0.0,
			"-0.023": 0.0,
			"-0.022": 0.0,
			"-0.021": 0.0,
			"-0.02": 0.0,
			"-0.019": 0.0,
			"-0.018": 0.0,
			"-0.017": 0.0,
			"-0.016": 0.0,
			"-0.015": 0.0,
			"-0.014": 0.0,
			"-0.013": 0.0,
			"-0.012": 0.0,
			"-0.011": 0.0,
			"-0.01": 0.0,
			"-0.009": 0.0,
			"-0.008": 1.97227008989,
			"-0.007": 14.7538987552,
			"-0.006": 28.4590718562,
			"-0.005": 26.1585202716,
			"-0.004": 25.908579866,
			"-0.003": 18.1201590332,
			"-0.002": 13.4091834678,
			"-0.001": 12.8946569071,
			"0.0": 14.1888819281,
			"0.001": 16.38305565,
			"0.002": 16.7141816738,
			"0.003": 11.9282352218,
			"0.004": 5.30635155764,
			"0.005": 5.25988950596,
			"0.006": 3.99054200358,
			"0.007": 4.63163486976,
			"0.008": 5.07091874223,
			"0.009": 4.74193506524,
			"0.01": 6.28821338057,
			"0.011": 9.39560474614,
			"0.012": 9.09194700628,
			"0.013": 4.77341762509,
			"0.014": 0.532895272691,
			"0.015": 0.0,
			"0.016": 0.0,
			"0.017": 0.0,
			"0.018": 0.0,
			"0.019": 0.0,
			"0.02": 0.0,
			"0.021": 0.0,
			"0.022": 0.0,
			"0.023": 0.0,
			"0.024": 0.0,
			"0.025": 0.0
		}
	}
}
