{
	 "smiles": "O=C(C1=CC=CS1)C1=NN2C(S1)=NC(=O)C1=C2C=CC=C1", 
	 "Tm": 509.15, 
	 "num_atms": 28, 
	 "gaussian": { 
		 "optdone": 1, 
		 "sigma_profile": "yes", 
		 "theory": "DFT", 
		 "functional": "B3LYP", 
		 "basiset": "6-31G**", 
		 "properties": { 
			 "R2extent": 7930.2279, 
			 "electric_dipole_moment_norm": 8.26571559818, 
			 "electric_quadrupole_moment_norm": 9.53044817362, 
			 "total_energy": -1648.75134385, 
			 "HOMO_LUMO_gap": 0.12843, 
			 "cosmo_polarized_energy": -18.19, 
			 "cosmo_cavitation_energy": 37.15, 
			 "cosmo_dispersion_energy": -28.05, 
			 "cosmo_repulsion_energy": 1.98, 
			 "cosmo_total_nonelectrostatic_energy": 11.08, 
			 "SMD_solvation_energy": 4.97 
		},
		"coords": [
			{
				"x": 2.3359892068,
				"y": 0.5519926828,
				"z": -3.6819831489,
				"element": "O" 
			},
			{
				"x": 1.5045091968,
				"y": -0.0577235752,
				"z": -3.0135736607,
				"element": "C" 
			},
			{
				"x": 0.8851944058,
				"y": -1.2962833758,
				"z": -3.4979901679,
				"element": "C" 
			},
			{
				"x": 1.1978850424,
				"y": -1.847575465,
				"z": -4.7276719385,
				"element": "C" 
			},
			{
				"x": 0.4912569341,
				"y": -3.0411797078,
				"z": -5.0054972763,
				"element": "C" 
			},
			{
				"x": -0.3572244756,
				"y": -3.3921323276,
				"z": -3.9832130091,
				"element": "C" 
			},
			{
				"x": -0.3084501914,
				"y": -2.276426813,
				"z": -2.6694517322,
				"element": "S" 
			},
			{
				"x": 1.1514561865,
				"y": 0.5175262458,
				"z": -1.685306922,
				"element": "C" 
			},
			{
				"x": 0.2994748433,
				"y": 0.0127888497,
				"z": -0.8506878588,
				"element": "N" 
			},
			{
				"x": 0.2102527868,
				"y": 0.7789266459,
				"z": 0.2624767813,
				"element": "N" 
			},
			{
				"x": 1.0070429639,
				"y": 1.922698392,
				"z": 0.3232924565,
				"element": "C" 
			},
			{
				"x": 1.9427219323,
				"y": 2.0085119205,
				"z": -1.1801324918,
				"element": "S" 
			},
			{
				"x": 1.066713189,
				"y": 2.7717383611,
				"z": 1.2842896949,
				"element": "N" 
			},
			{
				"x": 0.2593837142,
				"y": 2.5677394243,
				"z": 2.4191443199,
				"element": "C" 
			},
			{
				"x": 0.2816446262,
				"y": 3.3470650756,
				"z": 3.3573844247,
				"element": "O" 
			},
			{
				"x": -0.6200329066,
				"y": 1.3604487993,
				"z": 2.4208966381,
				"element": "C" 
			},
			{
				"x": -0.6395918753,
				"y": 0.4672500759,
				"z": 1.3353833118,
				"element": "C" 
			},
			{
				"x": -1.4609211644,
				"y": -0.666311254,
				"z": 1.3293655528,
				"element": "C" 
			},
			{
				"x": -2.2726323296,
				"y": -0.9013549894,
				"z": 2.4326815446,
				"element": "C" 
			},
			{
				"x": -2.2709492944,
				"y": -0.0246795445,
				"z": 3.5283640299,
				"element": "C" 
			},
			{
				"x": -1.4503274712,
				"y": 1.0953398375,
				"z": 3.5186067148,
				"element": "C" 
			},
			{
				"x": 1.919740711,
				"y": -1.3804397155,
				"z": -5.3862417828,
				"element": "H" 
			},
			{
				"x": 0.6023286949,
				"y": -3.616086589,
				"z": -5.9170732418,
				"element": "H" 
			},
			{
				"x": -1.0126042196,
				"y": -4.2516308463,
				"z": -3.9307680447,
				"element": "H" 
			},
			{
				"x": -1.4527100229,
				"y": -1.3350178026,
				"z": 0.4772871987,
				"element": "H" 
			},
			{
				"x": -2.914664591,
				"y": -1.7770540499,
				"z": 2.4409936465,
				"element": "H" 
			},
			{
				"x": -2.9114109718,
				"y": -0.2238638328,
				"z": 4.3817737347,
				"element": "H" 
			},
			{
				"x": -1.4215749202,
				"y": 1.7955335782,
				"z": 4.3465512263,
				"element": "H" 
			}
		],
		 "valence_orbital": [ 
			{
				"type": "occ",
				"energy": -0.27743,
				"method": "rhf"
			},
			{
				"type": "occ",
				"energy": -0.2733,
				"method": "rhf"
			},
			{
				"type": "occ",
				"energy": -0.26441,
				"method": "rhf"
			},
			{
				"type": "occ",
				"energy": -0.2515,
				"method": "rhf"
			},
			{
				"type": "occ",
				"energy": -0.23809,
				"method": "rhf"
			},
			{
				"type": "unocc",
				"energy": -0.10966,
				"method": "rhf"
			},
			{
				"type": "unocc",
				"energy": -0.05666,
				"method": "rhf"
			},
			{
				"type": "unocc",
				"energy": -0.0437,
				"method": "rhf"
			},
			{
				"type": "unocc",
				"energy": -0.03673,
				"method": "rhf"
			},
			{
				"type": "unocc",
				"energy": -0.0118,
				"method": "rhf"
			}
		],
		"cosmo_sigma_profile": { 
			"-0.025": 0.0,
			"-0.024": 0.0,
			"-0.023": 0.0,
			"-0.022": 0.0,
			"-0.021": 0.0,
			"-0.02": 0.0,
			"-0.019": 0.0,
			"-0.018": 0.0,
			"-0.017": 0.0,
			"-0.016": 0.0,
			"-0.015": 0.0,
			"-0.014": 0.0,
			"-0.013": 0.0,
			"-0.012": 0.0,
			"-0.011": 0.0,
			"-0.01": 0.89793850574,
			"-0.009": 2.79404906406,
			"-0.008": 5.45550970018,
			"-0.007": 14.3305704515,
			"-0.006": 18.5520568743,
			"-0.005": 21.9547385554,
			"-0.004": 17.5075851173,
			"-0.003": 20.007987157,
			"-0.002": 22.6280476191,
			"-0.001": 25.8064229315,
			"0.0": 26.5745530738,
			"0.001": 32.4157268327,
			"0.002": 30.9822202972,
			"0.003": 17.8478092943,
			"0.004": 4.06564285803,
			"0.005": 4.05780513052,
			"0.006": 3.43025886599,
			"0.007": 4.16371080729,
			"0.008": 2.92515321813,
			"0.009": 4.87387787109,
			"0.01": 5.89884016774,
			"0.011": 4.19251494715,
			"0.012": 4.99953321353,
			"0.013": 5.13616839719,
			"0.014": 3.51529766444,
			"0.015": 1.1164639598,
			"0.016": 0.0,
			"0.017": 0.0,
			"0.018": 0.0,
			"0.019": 0.0,
			"0.02": 0.0,
			"0.021": 0.0,
			"0.022": 0.0,
			"0.023": 0.0,
			"0.024": 0.0,
			"0.025": 0.0
		}
	}
}
