{
	 "smiles": "ICCCCCI", 
	 "Tm": 282.15, 
	 "num_atms": 17, 
	 "gaussian": { 
		 "optdone": 1, 
		 "sigma_profile": "no", 
		 "theory": "DFT", 
		 "functional": "B3LYP", 
		 "basiset": "6-31G**", 
		 "properties": { 
			 "R2extent": 1223.5396, 
			 "electric_dipole_moment_norm": 2.21584070953, 
			 "electric_quadrupole_moment_norm": 11.0392138991, 
			 "total_energy": -219.350482346, 
			 "HOMO_LUMO_gap": 0.20679, 
			 "cosmo_polarized_energy": -176196.01, 
			 "cosmo_cavitation_energy": 24.96, 
			 "cosmo_dispersion_energy": -20.65, 
			 "cosmo_repulsion_energy": 1.67, 
			 "cosmo_total_nonelectrostatic_energy": 5.98, 
			 "SMD_solvation_energy": 2.06 
		},
		"coords": [
			{
				"x": -1.5792590361,
				"y": 0.5341759997,
				"z": -2.6710208666,
				"element": "I" 
			},
			{
				"x": -1.435489211,
				"y": -1.4522156762,
				"z": -1.7339378249,
				"element": "C" 
			},
			{
				"x": -0.9601655321,
				"y": -1.4771019973,
				"z": -0.282973458,
				"element": "C" 
			},
			{
				"x": 0.5580548355,
				"y": -1.4042372743,
				"z": -0.0373047714,
				"element": "C" 
			},
			{
				"x": 1.252004576,
				"y": -0.0441894757,
				"z": -0.2127533444,
				"element": "C" 
			},
			{
				"x": 0.7380227514,
				"y": 1.0987286465,
				"z": 0.6522219938,
				"element": "C" 
			},
			{
				"x": 0.9861029922,
				"y": 0.7659528323,
				"z": 2.811941144,
				"element": "I" 
			},
			{
				"x": -2.4532693742,
				"y": -1.8274030258,
				"z": -1.8274641203,
				"element": "H" 
			},
			{
				"x": -0.7815020025,
				"y": -2.0173093416,
				"z": -2.3987368252,
				"element": "H" 
			},
			{
				"x": -1.4962456139,
				"y": -0.7249432566,
				"z": 0.3056773267,
				"element": "H" 
			},
			{
				"x": -1.3011038579,
				"y": -2.4473044054,
				"z": 0.1077710827,
				"element": "H" 
			},
			{
				"x": 1.054935111,
				"y": -2.1282627089,
				"z": -0.6962905758,
				"element": "H" 
			},
			{
				"x": 0.7433514884,
				"y": -1.7515621873,
				"z": 0.9858110008,
				"element": "H" 
			},
			{
				"x": 2.3249237075,
				"y": -0.1768680779,
				"z": -0.0343128121,
				"element": "H" 
			},
			{
				"x": 1.1507498516,
				"y": 0.2995023888,
				"z": -1.250780829,
				"element": "H" 
			},
			{
				"x": 1.2877797082,
				"y": 2.0205740894,
				"z": 0.4692345178,
				"element": "H" 
			},
			{
				"x": -0.326990394,
				"y": 1.2879634704,
				"z": 0.5281183619,
				"element": "H" 
			}
		],
		 "valence_orbital": [ 
			{
				"type": "occ",
				"energy": -0.32245,
				"method": "rhf"
			},
			{
				"type": "occ",
				"energy": -0.26473,
				"method": "rhf"
			},
			{
				"type": "occ",
				"energy": -0.26214,
				"method": "rhf"
			},
			{
				"type": "occ",
				"energy": -0.25739,
				"method": "rhf"
			},
			{
				"type": "occ",
				"energy": -0.25543,
				"method": "rhf"
			},
			{
				"type": "unocc",
				"energy": -0.04864,
				"method": "rhf"
			},
			{
				"type": "unocc",
				"energy": -0.04005,
				"method": "rhf"
			},
			{
				"type": "unocc",
				"energy": 0.02892,
				"method": "rhf"
			},
			{
				"type": "unocc",
				"energy": 0.03101,
				"method": "rhf"
			},
			{
				"type": "unocc",
				"energy": 0.04761,
				"method": "rhf"
			}
		],
		"cosmo_sigma_profile": { 
			"0.0": 0.0,
			"0.0": 0.0,
			"0.0": 0.0,
			"0.0": 0.0,
			"0.0": 0.0,
			"0.0": 0.0,
			"0.0": 0.0,
			"0.0": 0.0,
			"0.0": 0.0,
			"0.0": 0.0,
			"0.0": 0.0,
			"0.0": 0.0,
			"0.0": 0.0,
			"0.0": 0.0,
			"0.0": 0.0,
			"0.0": 0.0,
			"0.0": 0.0,
			"0.0": 0.0,
			"0.0": 0.0,
			"0.0": 0.0,
			"0.0": 0.0,
			"0.0": 0.0,
			"0.0": 0.0,
			"0.0": 0.0,
			"0.0": 0.0,
			"0.0": 0.0,
			"0.0": 0.0,
			"0.0": 0.0,
			"0.0": 0.0,
			"0.0": 0.0,
			"0.0": 0.0,
			"0.0": 0.0,
			"0.0": 0.0,
			"0.0": 0.0,
			"0.0": 0.0,
			"0.0": 0.0,
			"0.0": 0.0,
			"0.0": 0.0,
			"0.0": 0.0,
			"0.0": 0.0,
			"0.0": 0.0,
			"0.0": 0.0,
			"0.0": 0.0,
			"0.0": 0.0,
			"0.0": 0.0,
			"0.0": 0.0,
			"0.0": 0.0,
			"0.0": 0.0,
			"0.0": 0.0,
			"0.0": 0.0,
			"0.0": 0.0
		}
	}
}
