{
	 "smiles": "COC(=O)C1=CC(=O)C2=C(N1)C=CC=C2", 
	 "Tm": 497.15, 
	 "num_atms": 24, 
	 "gaussian": { 
		 "optdone": 1, 
		 "sigma_profile": "yes", 
		 "theory": "DFT", 
		 "functional": "B3LYP", 
		 "basiset": "6-31G**", 
		 "properties": { 
			 "R2extent": 3877.4906, 
			 "electric_dipole_moment_norm": 6.98403848286, 
			 "electric_quadrupole_moment_norm": 8.23450849292, 
			 "total_energy": -705.037195169, 
			 "HOMO_LUMO_gap": 0.14632, 
			 "cosmo_polarized_energy": -18.26, 
			 "cosmo_cavitation_energy": 28.9, 
			 "cosmo_dispersion_energy": -21.39, 
			 "cosmo_repulsion_energy": 1.65, 
			 "cosmo_total_nonelectrostatic_energy": 9.16, 
			 "SMD_solvation_energy": 6.85 
		},
		"coords": [
			{
				"x": -0.3760566998,
				"y": 1.727982163,
				"z": 3.4438808178,
				"element": "C" 
			},
			{
				"x": -0.5417310672,
				"y": 1.2999809628,
				"z": 2.078984981,
				"element": "O" 
			},
			{
				"x": 0.548140066,
				"y": 0.7231906027,
				"z": 1.5164994713,
				"element": "C" 
			},
			{
				"x": 1.6005169238,
				"y": 0.5639607695,
				"z": 2.0919958001,
				"element": "O" 
			},
			{
				"x": 0.2779612857,
				"y": 0.3145481735,
				"z": 0.1042688391,
				"element": "C" 
			},
			{
				"x": 1.2462614569,
				"y": -0.2858870535,
				"z": -0.6423013569,
				"element": "C" 
			},
			{
				"x": 0.9996006866,
				"y": -0.6915299226,
				"z": -2.0231229482,
				"element": "C" 
			},
			{
				"x": 1.8541096034,
				"y": -1.2372481583,
				"z": -2.7253089053,
				"element": "O" 
			},
			{
				"x": -0.3682510917,
				"y": -0.3952625216,
				"z": -2.5201949097,
				"element": "C" 
			},
			{
				"x": -1.3240840169,
				"y": 0.2307984851,
				"z": -1.6895702898,
				"element": "C" 
			},
			{
				"x": -0.9734045234,
				"y": 0.5696297461,
				"z": -0.3957359867,
				"element": "N" 
			},
			{
				"x": -2.616935229,
				"y": 0.5050390771,
				"z": -2.1760352001,
				"element": "C" 
			},
			{
				"x": -2.9459584325,
				"y": 0.1565964401,
				"z": -3.4759141139,
				"element": "C" 
			},
			{
				"x": -2.0032347881,
				"y": -0.4673101797,
				"z": -4.3131811487,
				"element": "C" 
			},
			{
				"x": -0.7316341916,
				"y": -0.7366828846,
				"z": -3.8336496818,
				"element": "C" 
			},
			{
				"x": 0.4226795658,
				"y": 2.4696539304,
				"z": 3.5141119925,
				"element": "H" 
			},
			{
				"x": -1.3322711568,
				"y": 2.16170341,
				"z": 3.7343596114,
				"element": "H" 
			},
			{
				"x": -0.128061919,
				"y": 0.8759589939,
				"z": 4.0807004734,
				"element": "H" 
			},
			{
				"x": 2.2193719353,
				"y": -0.4667086858,
				"z": -0.2040356492,
				"element": "H" 
			},
			{
				"x": -1.6433815314,
				"y": 1.0176694147,
				"z": 0.2123120498,
				"element": "H" 
			},
			{
				"x": -3.3454879436,
				"y": 0.9871840596,
				"z": -1.5290866698,
				"element": "H" 
			},
			{
				"x": -3.9439211349,
				"y": 0.3695303488,
				"z": -3.8479937627,
				"element": "H" 
			},
			{
				"x": -2.2750191177,
				"y": -0.7347288461,
				"z": -5.3295091698,
				"element": "H" 
			},
			{
				"x": 0.0249913202,
				"y": -1.2162683253,
				"z": -4.4461742438,
				"element": "H" 
			}
		],
		 "valence_orbital": [ 
			{
				"type": "occ",
				"energy": -0.29916,
				"method": "rhf"
			},
			{
				"type": "occ",
				"energy": -0.27418,
				"method": "rhf"
			},
			{
				"type": "occ",
				"energy": -0.26008,
				"method": "rhf"
			},
			{
				"type": "occ",
				"energy": -0.2314,
				"method": "rhf"
			},
			{
				"type": "occ",
				"energy": -0.21864,
				"method": "rhf"
			},
			{
				"type": "unocc",
				"energy": -0.07232,
				"method": "rhf"
			},
			{
				"type": "unocc",
				"energy": -0.02926,
				"method": "rhf"
			},
			{
				"type": "unocc",
				"energy": -5e-05,
				"method": "rhf"
			},
			{
				"type": "unocc",
				"energy": 0.04892,
				"method": "rhf"
			},
			{
				"type": "unocc",
				"energy": 0.06697,
				"method": "rhf"
			}
		],
		"cosmo_sigma_profile": { 
			"-0.025": 0.0,
			"-0.024": 0.0,
			"-0.023": 0.0,
			"-0.022": 0.0,
			"-0.021": 0.0,
			"-0.02": 0.0,
			"-0.019": 0.0,
			"-0.018": 0.0,
			"-0.017": 0.0,
			"-0.016": 0.0211729955952,
			"-0.015": 0.807402260642,
			"-0.014": 1.20783930216,
			"-0.013": 0.978901717484,
			"-0.012": 0.801491508897,
			"-0.011": 1.22656045654,
			"-0.01": 1.37163612579,
			"-0.009": 1.01709395502,
			"-0.008": 1.50289088212,
			"-0.007": 7.42678233382,
			"-0.006": 15.2622350648,
			"-0.005": 20.0757689322,
			"-0.004": 22.4814337055,
			"-0.003": 14.5414447231,
			"-0.002": 14.4250966136,
			"-0.001": 14.5770530893,
			"0.0": 16.2918905314,
			"0.001": 17.4042618166,
			"0.002": 16.740979145,
			"0.003": 14.6447831222,
			"0.004": 10.4063522691,
			"0.005": 4.20843879872,
			"0.006": 3.13139169007,
			"0.007": 2.60878084291,
			"0.008": 3.29929848862,
			"0.009": 3.51165437441,
			"0.01": 4.59570381233,
			"0.011": 5.45136006322,
			"0.012": 1.34213676699,
			"0.013": 3.08130982278,
			"0.014": 5.25474415092,
			"0.015": 1.97425899404,
			"0.016": 0.209428587193,
			"0.017": 0.0,
			"0.018": 0.0,
			"0.019": 0.0,
			"0.02": 0.0,
			"0.021": 0.0,
			"0.022": 0.0,
			"0.023": 0.0,
			"0.024": 0.0,
			"0.025": 0.0
		}
	}
}
