{
	 "smiles": "OC(=O)C1=CC(=CC=C1)S(=O)(=O)N1CCOCC1", 
	 "Tm": 472.15, 
	 "num_atms": 31, 
	 "gaussian": { 
		 "optdone": 1, 
		 "sigma_profile": "yes", 
		 "theory": "DFT", 
		 "functional": "B3LYP", 
		 "basiset": "6-31G**", 
		 "properties": { 
			 "R2extent": 5499.6335, 
			 "electric_dipole_moment_norm": 4.31873652936, 
			 "electric_quadrupole_moment_norm": 27.2456505516, 
			 "total_energy": -1255.98168585, 
			 "HOMO_LUMO_gap": 0.18433, 
			 "cosmo_polarized_energy": -23.99, 
			 "cosmo_cavitation_energy": 35.66, 
			 "cosmo_dispersion_energy": -25.46, 
			 "cosmo_repulsion_energy": 1.93, 
			 "cosmo_total_nonelectrostatic_energy": 12.12, 
			 "SMD_solvation_energy": 5.77 
		},
		"coords": [
			{
				"x": -2.1429165129,
				"y": 0.5446366255,
				"z": 4.9221106258,
				"element": "O" 
			},
			{
				"x": -1.7994915944,
				"y": -0.080919355,
				"z": 3.7663751912,
				"element": "C" 
			},
			{
				"x": -2.0852358701,
				"y": -1.241244837,
				"z": 3.5935379046,
				"element": "O" 
			},
			{
				"x": -1.0688039088,
				"y": 0.7417810085,
				"z": 2.7435332512,
				"element": "C" 
			},
			{
				"x": -0.3136203638,
				"y": 0.0550510826,
				"z": 1.7874510588,
				"element": "C" 
			},
			{
				"x": 0.3628588255,
				"y": 0.7764633914,
				"z": 0.8068126629,
				"element": "C" 
			},
			{
				"x": 0.2957807981,
				"y": 2.1697386346,
				"z": 0.748888569,
				"element": "C" 
			},
			{
				"x": -0.4741181099,
				"y": 2.8505169367,
				"z": 1.6936174336,
				"element": "C" 
			},
			{
				"x": -1.150849389,
				"y": 2.141904108,
				"z": 2.6853549724,
				"element": "C" 
			},
			{
				"x": 1.4186383933,
				"y": -0.090969519,
				"z": -0.3672641514,
				"element": "S" 
			},
			{
				"x": 2.3984137624,
				"y": -0.8891581713,
				"z": 0.374592831,
				"element": "O" 
			},
			{
				"x": 1.860045454,
				"y": 0.9022499869,
				"z": -1.3569336931,
				"element": "O" 
			},
			{
				"x": 0.3174505559,
				"y": -1.1940955516,
				"z": -1.0370303301,
				"element": "N" 
			},
			{
				"x": -0.6034015769,
				"y": -0.6263843266,
				"z": -2.0408522933,
				"element": "C" 
			},
			{
				"x": -1.6883143247,
				"y": -1.6655642895,
				"z": -2.3289467206,
				"element": "C" 
			},
			{
				"x": -1.1266412991,
				"y": -2.8935794958,
				"z": -2.7631527076,
				"element": "O" 
			},
			{
				"x": -0.2551735756,
				"y": -3.4332894769,
				"z": -1.7787284717,
				"element": "C" 
			},
			{
				"x": 0.9000014007,
				"y": -2.4810979413,
				"z": -1.4758008008,
				"element": "C" 
			},
			{
				"x": -1.6971876485,
				"y": 1.4003374034,
				"z": 4.9900641642,
				"element": "H" 
			},
			{
				"x": -0.2741839472,
				"y": -1.0275286008,
				"z": 1.8204209593,
				"element": "H" 
			},
			{
				"x": 0.8351260778,
				"y": 2.6968654267,
				"z": -0.0303588579,
				"element": "H" 
			},
			{
				"x": -0.5516929369,
				"y": 3.9322082867,
				"z": 1.6503800235,
				"element": "H" 
			},
			{
				"x": -1.7749152873,
				"y": 2.6872920992,
				"z": 3.3889402924,
				"element": "H" 
			},
			{
				"x": -0.0687344988,
				"y": -0.3670066939,
				"z": -2.9647047952,
				"element": "H" 
			},
			{
				"x": -1.0603185663,
				"y": 0.2832692795,
				"z": -1.6391101583,
				"element": "H" 
			},
			{
				"x": -2.2970370828,
				"y": -1.8195907642,
				"z": -1.4236540517,
				"element": "H" 
			},
			{
				"x": -2.3384387894,
				"y": -1.3137046812,
				"z": -3.1349305706,
				"element": "H" 
			},
			{
				"x": -0.8095735538,
				"y": -3.6466268262,
				"z": -0.8511490749,
				"element": "H" 
			},
			{
				"x": 0.1310136365,
				"y": -4.3730673005,
				"z": -2.1829929965,
				"element": "H" 
			},
			{
				"x": 1.5279827218,
				"y": -2.8734892775,
				"z": -0.6744668552,
				"element": "H" 
			},
			{
				"x": 1.5158372103,
				"y": -2.3510971615,
				"z": -2.3778034106,
				"element": "H" 
			}
		],
		 "valence_orbital": [ 
			{
				"type": "occ",
				"energy": -0.29662,
				"method": "rhf"
			},
			{
				"type": "occ",
				"energy": -0.29483,
				"method": "rhf"
			},
			{
				"type": "occ",
				"energy": -0.2822,
				"method": "rhf"
			},
			{
				"type": "occ",
				"energy": -0.27549,
				"method": "rhf"
			},
			{
				"type": "occ",
				"energy": -0.25532,
				"method": "rhf"
			},
			{
				"type": "unocc",
				"energy": -0.07099,
				"method": "rhf"
			},
			{
				"type": "unocc",
				"energy": -0.05533,
				"method": "rhf"
			},
			{
				"type": "unocc",
				"energy": 0.02226,
				"method": "rhf"
			},
			{
				"type": "unocc",
				"energy": 0.04379,
				"method": "rhf"
			},
			{
				"type": "unocc",
				"energy": 0.05574,
				"method": "rhf"
			}
		],
		"cosmo_sigma_profile": { 
			"-0.025": 0.0,
			"-0.024": 0.0,
			"-0.023": 0.0,
			"-0.022": 0.0,
			"-0.021": 0.0,
			"-0.02": 0.0408724431675,
			"-0.019": 0.927841263274,
			"-0.018": 0.931956522202,
			"-0.017": 0.967292789925,
			"-0.016": 1.16308458278,
			"-0.015": 0.709651756736,
			"-0.014": 1.02483781092,
			"-0.013": 1.36220070986,
			"-0.012": 1.27420360666,
			"-0.011": 0.786235532411,
			"-0.01": 1.26700120699,
			"-0.009": 2.23013995372,
			"-0.008": 4.92083039531,
			"-0.007": 7.96676570908,
			"-0.006": 17.0858038809,
			"-0.005": 25.209562398,
			"-0.004": 30.9765594664,
			"-0.003": 21.9216630819,
			"-0.002": 17.4142828037,
			"-0.001": 15.3285984078,
			"0.0": 17.7543501274,
			"0.001": 16.6238267775,
			"0.002": 10.5065246158,
			"0.003": 6.52691773276,
			"0.004": 7.1532737632,
			"0.005": 5.36844500087,
			"0.006": 5.19701333298,
			"0.007": 7.41257093598,
			"0.008": 7.82772761235,
			"0.009": 8.24108303105,
			"0.01": 14.1932721503,
			"0.011": 13.7402503084,
			"0.012": 6.82825559055,
			"0.013": 1.90363335312,
			"0.014": 0.0,
			"0.015": 0.0,
			"0.016": 0.0,
			"0.017": 0.0,
			"0.018": 0.0,
			"0.019": 0.0,
			"0.02": 0.0,
			"0.021": 0.0,
			"0.022": 0.0,
			"0.023": 0.0,
			"0.024": 0.0,
			"0.0": 0.0
		}
	}
}
