{
	 "smiles": "OC(=O)C1=CC=C(C=C1)S(=O)(=O)CC(F)(F)F", 
	 "Tm": 513.15, 
	 "num_atms": 24, 
	 "gaussian": { 
		 "optdone": 1, 
		 "sigma_profile": "yes", 
		 "theory": "DFT", 
		 "functional": "B3LYP", 
		 "basiset": "6-31G**", 
		 "properties": { 
			 "R2extent": 5990.1784, 
			 "electric_dipole_moment_norm": 4.71211471953, 
			 "electric_quadrupole_moment_norm": 15.6209808946, 
			 "total_energy": -1345.71862289, 
			 "HOMO_LUMO_gap": 0.20142, 
			 "cosmo_polarized_energy": -23.9, 
			 "cosmo_cavitation_energy": 31.77, 
			 "cosmo_dispersion_energy": -22.72, 
			 "cosmo_repulsion_energy": 1.65, 
			 "cosmo_total_nonelectrostatic_energy": 10.71, 
			 "SMD_solvation_energy": 6.92 
		},
		"coords": [
			{
				"x": -2.6639570159,
				"y": -2.7097438155,
				"z": -0.1596779421,
				"element": "O" 
			},
			{
				"x": -2.7284715347,
				"y": -1.3647424804,
				"z": 0.0114223452,
				"element": "C" 
			},
			{
				"x": -3.7256010786,
				"y": -0.8542020938,
				"z": 0.4606856147,
				"element": "O" 
			},
			{
				"x": -1.5132293402,
				"y": -0.5702568097,
				"z": -0.3837581651,
				"element": "C" 
			},
			{
				"x": -1.3721499402,
				"y": 0.7090801616,
				"z": 0.1713702518,
				"element": "C" 
			},
			{
				"x": -0.2747893308,
				"y": 1.5003360929,
				"z": -0.1534701283,
				"element": "C" 
			},
			{
				"x": 0.6715960259,
				"y": 1.0035326991,
				"z": -1.0524387389,
				"element": "C" 
			},
			{
				"x": 0.5312931894,
				"y": -0.2500372245,
				"z": -1.6484084587,
				"element": "C" 
			},
			{
				"x": -0.5653026827,
				"y": -1.0389419437,
				"z": -1.3045760332,
				"element": "C" 
			},
			{
				"x": 2.0756521477,
				"y": 2.0327337762,
				"z": -1.5193796987,
				"element": "S" 
			},
			{
				"x": 1.7309194776,
				"y": 3.4300905312,
				"z": -1.2418139081,
				"element": "O" 
			},
			{
				"x": 2.5299758773,
				"y": 1.5889345484,
				"z": -2.8441251099,
				"element": "O" 
			},
			{
				"x": 3.43616182,
				"y": 1.5319151232,
				"z": -0.3924612797,
				"element": "C" 
			},
			{
				"x": 3.3372010135,
				"y": 1.9912435538,
				"z": 1.0506834991,
				"element": "C" 
			},
			{
				"x": 3.3863474495,
				"y": 3.3236736977,
				"z": 1.1665211421,
				"element": "F" 
			},
			{
				"x": 4.3691504276,
				"y": 1.4735570981,
				"z": 1.7504861652,
				"element": "F" 
			},
			{
				"x": 2.1960420288,
				"y": 1.5629616641,
				"z": 1.6343694057,
				"element": "F" 
			},
			{
				"x": -1.7603275058,
				"y": -2.9850147014,
				"z": -0.3669941952,
				"element": "H" 
			},
			{
				"x": -2.137083043,
				"y": 1.065245162,
				"z": 0.8524335513,
				"element": "H" 
			},
			{
				"x": -0.1545111749,
				"y": 2.4925654274,
				"z": 0.2659516707,
				"element": "H" 
			},
			{
				"x": 1.2510621155,
				"y": -0.5834146826,
				"z": -2.3881283911,
				"element": "H" 
			},
			{
				"x": -0.6949191362,
				"y": -1.9978275245,
				"z": -1.7996244181,
				"element": "H" 
			},
			{
				"x": 3.5062364104,
				"y": 0.4434718901,
				"z": -0.428863257,
				"element": "H" 
			},
			{
				"x": 4.3307038,
				"y": 1.9624398504,
				"z": -0.8485039218,
				"element": "H" 
			}
		],
		 "valence_orbital": [ 
			{
				"type": "occ",
				"energy": -0.32253,
				"method": "rhf"
			},
			{
				"type": "occ",
				"energy": -0.31429,
				"method": "rhf"
			},
			{
				"type": "occ",
				"energy": -0.30243,
				"method": "rhf"
			},
			{
				"type": "occ",
				"energy": -0.2982,
				"method": "rhf"
			},
			{
				"type": "occ",
				"energy": -0.28846,
				"method": "rhf"
			},
			{
				"type": "unocc",
				"energy": -0.08704,
				"method": "rhf"
			},
			{
				"type": "unocc",
				"energy": -0.04933,
				"method": "rhf"
			},
			{
				"type": "unocc",
				"energy": 0.00701,
				"method": "rhf"
			},
			{
				"type": "unocc",
				"energy": 0.02938,
				"method": "rhf"
			},
			{
				"type": "unocc",
				"energy": 0.04402,
				"method": "rhf"
			}
		],
		"cosmo_sigma_profile": { 
			"-0.025": 0.0,
			"-0.024": 0.0,
			"-0.023": 0.0,
			"-0.022": 0.0,
			"-0.021": 0.0,
			"-0.02": 0.118803293639,
			"-0.019": 0.91495533872,
			"-0.018": 0.80979440143,
			"-0.017": 1.24538841798,
			"-0.016": 1.02750625977,
			"-0.015": 0.934592506911,
			"-0.014": 1.05816282016,
			"-0.013": 0.811766040861,
			"-0.012": 2.510660004,
			"-0.011": 6.56378020511,
			"-0.01": 5.97454474003,
			"-0.009": 5.32963287575,
			"-0.008": 9.17883597928,
			"-0.007": 10.222168751,
			"-0.006": 9.3279136901,
			"-0.005": 8.57230265659,
			"-0.004": 9.82089782546,
			"-0.003": 8.44991273463,
			"-0.002": 12.1539805345,
			"-0.001": 13.3941334648,
			"0.0": 20.8683112205,
			"0.001": 20.2832892803,
			"0.002": 28.1265056862,
			"0.003": 12.0787909311,
			"0.004": 4.6766987664,
			"0.005": 5.18059301081,
			"0.006": 5.00051061618,
			"0.007": 6.22521819725,
			"0.008": 6.18565419916,
			"0.009": 9.66704906267,
			"0.01": 13.2610812504,
			"0.011": 11.6344755194,
			"0.012": 2.83208045683,
			"0.013": 0.31207597316,
			"0.014": 0.0,
			"0.015": 0.0,
			"0.016": 0.0,
			"0.017": 0.0,
			"0.018": 0.0,
			"0.019": 0.0,
			"0.02": 0.0,
			"0.021": 0.0,
			"0.022": 0.0,
			"0.023": 0.0,
			"0.024": 0.0,
			"0.025": 0.0
		}
	}
}
