{
	 "smiles": "CC(C)(N)C1=NOC(=N1)C(N)=O", 
	 "Tm": 442.15, 
	 "num_atms": 22, 
	 "gaussian": { 
		 "optdone": 1, 
		 "sigma_profile": "yes", 
		 "theory": "DFT", 
		 "functional": "B3LYP", 
		 "basiset": "6-31G**", 
		 "properties": { 
			 "R2extent": 2824.2147, 
			 "electric_dipole_moment_norm": 5.17849454089, 
			 "electric_quadrupole_moment_norm": 20.2778125349, 
			 "total_energy": -604.091587468, 
			 "HOMO_LUMO_gap": 0.17877, 
			 "cosmo_polarized_energy": -17.77, 
			 "cosmo_cavitation_energy": 26.4, 
			 "cosmo_dispersion_energy": -18.96, 
			 "cosmo_repulsion_energy": 1.55, 
			 "cosmo_total_nonelectrostatic_energy": 8.99, 
			 "SMD_solvation_energy": 4.0 
		},
		"coords": [
			{
				"x": 0.9126364592,
				"y": -0.1270657035,
				"z": 1.7377945818,
				"element": "C" 
			},
			{
				"x": 0.7132565146,
				"y": -0.9167497389,
				"z": 0.4305573533,
				"element": "C" 
			},
			{
				"x": 1.7833897377,
				"y": -0.4992458666,
				"z": -0.6104459205,
				"element": "C" 
			},
			{
				"x": 0.7403281811,
				"y": -2.3477478251,
				"z": 0.7545337746,
				"element": "N" 
			},
			{
				"x": -0.6450828854,
				"y": -0.5878638961,
				"z": -0.149527958,
				"element": "C" 
			},
			{
				"x": -1.5033524109,
				"y": -1.5036299448,
				"z": -0.5312013117,
				"element": "N" 
			},
			{
				"x": -2.5762785449,
				"y": -0.7637087279,
				"z": -1.0476548738,
				"element": "O" 
			},
			{
				"x": -2.2409921688,
				"y": 0.521458426,
				"z": -0.9158879923,
				"element": "C" 
			},
			{
				"x": -1.0691472322,
				"y": 0.7054124931,
				"z": -0.3772871303,
				"element": "N" 
			},
			{
				"x": -3.2086350077,
				"y": 1.5751444578,
				"z": -1.3806198912,
				"element": "C" 
			},
			{
				"x": -2.7349557972,
				"y": 2.8305389296,
				"z": -1.1693155632,
				"element": "N" 
			},
			{
				"x": -4.2813007777,
				"y": 1.292575917,
				"z": -1.8848777636,
				"element": "O" 
			},
			{
				"x": 1.903935662,
				"y": -0.345136237,
				"z": 2.1498136694,
				"element": "H" 
			},
			{
				"x": 0.8409513431,
				"y": 0.9490969868,
				"z": 1.5633524191,
				"element": "H" 
			},
			{
				"x": 0.1631438123,
				"y": -0.4237508966,
				"z": 2.475290206,
				"element": "H" 
			},
			{
				"x": 2.7826911773,
				"y": -0.6954660074,
				"z": -0.206539824,
				"element": "H" 
			},
			{
				"x": 1.7167385379,
				"y": 0.5650720441,
				"z": -0.8566909311,
				"element": "H" 
			},
			{
				"x": 1.6676645027,
				"y": -1.0741014573,
				"z": -1.5351531353,
				"element": "H" 
			},
			{
				"x": 0.4962409152,
				"y": -2.9034332464,
				"z": -0.0618348015,
				"element": "H" 
			},
			{
				"x": 1.6854149438,
				"y": -2.6081641716,
				"z": 1.0254704413,
				"element": "H" 
			},
			{
				"x": -3.3092082762,
				"y": 3.6134167403,
				"z": -1.4401905466,
				"element": "H" 
			},
			{
				"x": -1.8355386858,
				"y": 2.9764477245,
				"z": -0.7364848025,
				"element": "H" 
			}
		],
		 "valence_orbital": [ 
			{
				"type": "occ",
				"energy": -0.31193,
				"method": "rhf"
			},
			{
				"type": "occ",
				"energy": -0.29697,
				"method": "rhf"
			},
			{
				"type": "occ",
				"energy": -0.28646,
				"method": "rhf"
			},
			{
				"type": "occ",
				"energy": -0.27579,
				"method": "rhf"
			},
			{
				"type": "occ",
				"energy": -0.244,
				"method": "rhf"
			},
			{
				"type": "unocc",
				"energy": -0.06523,
				"method": "rhf"
			},
			{
				"type": "unocc",
				"energy": 0.01339,
				"method": "rhf"
			},
			{
				"type": "unocc",
				"energy": 0.06446,
				"method": "rhf"
			},
			{
				"type": "unocc",
				"energy": 0.07794,
				"method": "rhf"
			},
			{
				"type": "unocc",
				"energy": 0.08613,
				"method": "rhf"
			}
		],
		"cosmo_sigma_profile": { 
			"-0.025": 0.0,
			"-0.024": 0.0,
			"-0.023": 0.0,
			"-0.022": 0.0,
			"-0.021": 0.0,
			"-0.02": 0.0,
			"-0.019": 0.0,
			"-0.018": 0.0,
			"-0.017": 0.0,
			"-0.016": 0.271406757989,
			"-0.015": 1.43359968606,
			"-0.014": 1.73808641424,
			"-0.013": 2.036922287,
			"-0.012": 1.77738420334,
			"-0.011": 2.14441243743,
			"-0.01": 3.26846981817,
			"-0.009": 4.3136985787,
			"-0.008": 4.0324630676,
			"-0.007": 5.11648208223,
			"-0.006": 7.92304071002,
			"-0.005": 9.25033888292,
			"-0.004": 14.4579112339,
			"-0.003": 17.0087148056,
			"-0.002": 17.97371269,
			"-0.001": 16.3627327622,
			"0.0": 19.5579228133,
			"0.001": 11.5597783446,
			"0.002": 6.46735859861,
			"0.003": 5.98523594385,
			"0.004": 5.14386770402,
			"0.005": 7.6653808692,
			"0.006": 7.09137124643,
			"0.007": 4.88203058136,
			"0.008": 3.04550437115,
			"0.009": 3.74571799274,
			"0.01": 4.96226576582,
			"0.011": 4.79434891419,
			"0.012": 7.59944403293,
			"0.013": 2.99990116873,
			"0.014": 0.712981675963,
			"0.015": 0.482345455937,
			"0.016": 0.381188079801,
			"0.017": 0.75531209348,
			"0.018": 0.572522625639,
			"0.019": 0.0973371078589,
			"0.02": 0.0,
			"0.021": 0.0,
			"0.022": 0.0,
			"0.023": 0.0,
			"0.024": 0.0,
			"0.025": 0.0
		}
	}
}
