{
	 "smiles": "CCC1=CNC(=O)NC1=O", 
	 "Tm": 582.15, 
	 "num_atms": 18, 
	 "gaussian": { 
		 "optdone": 1, 
		 "sigma_profile": "yes", 
		 "theory": "DFT", 
		 "functional": "B3LYP", 
		 "basiset": "6-31G**", 
		 "properties": { 
			 "R2extent": 2300.2005, 
			 "electric_dipole_moment_norm": 4.02515063196, 
			 "electric_quadrupole_moment_norm": 6.10749026033, 
			 "total_energy": -493.455718125, 
			 "HOMO_LUMO_gap": 0.20244, 
			 "cosmo_polarized_energy": -16.62, 
			 "cosmo_cavitation_energy": 22.07, 
			 "cosmo_dispersion_energy": -16.41, 
			 "cosmo_repulsion_energy": 1.35, 
			 "cosmo_total_nonelectrostatic_energy": 7.01, 
			 "SMD_solvation_energy": 5.65 
		},
		"coords": [
			{
				"x": 2.2285577445,
				"y": -2.4416645101,
				"z": -0.6778789011,
				"element": "C" 
			},
			{
				"x": 0.9999541092,
				"y": -1.8538435017,
				"z": -1.3936687511,
				"element": "C" 
			},
			{
				"x": -0.1071711974,
				"y": -1.4563178365,
				"z": -0.4518485926,
				"element": "C" 
			},
			{
				"x": -0.4277336256,
				"y": -0.1719218769,
				"z": -0.1729403177,
				"element": "C" 
			},
			{
				"x": -1.4371178919,
				"y": 0.1742783028,
				"z": 0.7014139432,
				"element": "N" 
			},
			{
				"x": -2.2254936301,
				"y": -0.7492101224,
				"z": 1.3778042027,
				"element": "C" 
			},
			{
				"x": -3.1139908754,
				"y": -0.4307962792,
				"z": 2.1475383626,
				"element": "O" 
			},
			{
				"x": -1.8836203338,
				"y": -2.0583514515,
				"z": 1.077855806,
				"element": "N" 
			},
			{
				"x": -0.8805694022,
				"y": -2.5190516262,
				"z": 0.2047744332,
				"element": "C" 
			},
			{
				"x": -0.7135695585,
				"y": -3.7192312387,
				"z": 0.0398280861,
				"element": "O" 
			},
			{
				"x": 2.9955318728,
				"y": -2.7288290701,
				"z": -1.4043594742,
				"element": "H" 
			},
			{
				"x": 1.9473753229,
				"y": -3.3312428593,
				"z": -0.1092285756,
				"element": "H" 
			},
			{
				"x": 2.6689980313,
				"y": -1.7141574034,
				"z": 0.0120187879,
				"element": "H" 
			},
			{
				"x": 0.6080534307,
				"y": -2.6009805341,
				"z": -2.0931704102,
				"element": "H" 
			},
			{
				"x": 1.2956715391,
				"y": -0.9813782701,
				"z": -1.9882230946,
				"element": "H" 
			},
			{
				"x": 0.0945860166,
				"y": 0.6644490702,
				"z": -0.6262588461,
				"element": "H" 
			},
			{
				"x": -1.6579577954,
				"y": 1.1413940188,
				"z": 0.8882079091,
				"element": "H" 
			},
			{
				"x": -2.4322037568,
				"y": -2.7720448117,
				"z": 1.5423354325,
				"element": "H" 
			}
		],
		 "valence_orbital": [ 
			{
				"type": "occ",
				"energy": -0.34751,
				"method": "rhf"
			},
			{
				"type": "occ",
				"energy": -0.2921,
				"method": "rhf"
			},
			{
				"type": "occ",
				"energy": -0.28408,
				"method": "rhf"
			},
			{
				"type": "occ",
				"energy": -0.26307,
				"method": "rhf"
			},
			{
				"type": "occ",
				"energy": -0.24103,
				"method": "rhf"
			},
			{
				"type": "unocc",
				"energy": -0.03859,
				"method": "rhf"
			},
			{
				"type": "unocc",
				"energy": 0.01237,
				"method": "rhf"
			},
			{
				"type": "unocc",
				"energy": 0.05765,
				"method": "rhf"
			},
			{
				"type": "unocc",
				"energy": 0.09521,
				"method": "rhf"
			},
			{
				"type": "unocc",
				"energy": 0.10503,
				"method": "rhf"
			}
		],
		"cosmo_sigma_profile": { 
			"-0.025": 0.0,
			"-0.024": 0.0,
			"-0.023": 0.0,
			"-0.022": 0.0,
			"-0.021": 0.0,
			"-0.02": 0.0,
			"-0.019": 0.0,
			"-0.018": 0.0,
			"-0.017": 0.771607971685,
			"-0.016": 1.85108826917,
			"-0.015": 1.6508010551,
			"-0.014": 2.65988941228,
			"-0.013": 1.95390854273,
			"-0.012": 2.29341065475,
			"-0.011": 1.95915951686,
			"-0.01": 2.66040599822,
			"-0.009": 3.33377298501,
			"-0.008": 2.83782810354,
			"-0.007": 2.9984516002,
			"-0.006": 3.79274702788,
			"-0.005": 4.41031872303,
			"-0.004": 6.87650741873,
			"-0.003": 13.0031210351,
			"-0.002": 15.7498472528,
			"-0.001": 22.694638878,
			"0.0": 18.9632162698,
			"0.001": 15.4049433481,
			"0.002": 4.63319943868,
			"0.003": 2.98435052005,
			"0.004": 2.82086695138,
			"0.005": 2.03486711609,
			"0.006": 2.52658908274,
			"0.007": 2.64416020057,
			"0.008": 2.77326490072,
			"0.009": 2.71270846724,
			"0.01": 3.19302226763,
			"0.011": 3.34648529431,
			"0.012": 6.66763920998,
			"0.013": 10.6955337636,
			"0.014": 1.46319430911,
			"0.015": 0.0,
			"0.016": 0.0,
			"0.017": 0.0,
			"0.018": 0.0,
			"0.019": 0.0,
			"0.02": 0.0,
			"0.021": 0.0,
			"0.022": 0.0,
			"0.023": 0.0,
			"0.024": 0.0,
			"0.025": 0.0
		}
	}
}
