{
	 "smiles": "OCCOC1=C(C=CC=C1)C(F)(F)F", 
	 "Tm": 348.15, 
	 "num_atms": 23, 
	 "gaussian": { 
		 "optdone": 1, 
		 "sigma_profile": "yes", 
		 "theory": "DFT", 
		 "functional": "B3LYP", 
		 "basiset": "6-31G**", 
		 "properties": { 
			 "R2extent": 2957.9512, 
			 "electric_dipole_moment_norm": 3.75963759557, 
			 "electric_quadrupole_moment_norm": 9.86658644112, 
			 "total_energy": -798.332493599, 
			 "HOMO_LUMO_gap": 0.21161, 
			 "cosmo_polarized_energy": -9.61, 
			 "cosmo_cavitation_energy": 27.89, 
			 "cosmo_dispersion_energy": -19.87, 
			 "cosmo_repulsion_energy": 1.54, 
			 "cosmo_total_nonelectrostatic_energy": 9.55, 
			 "SMD_solvation_energy": 6.38 
		},
		"coords": [
			{
				"x": 3.6383511802,
				"y": -0.5380027061,
				"z": 1.3345376639,
				"element": "O" 
			},
			{
				"x": 2.9413520177,
				"y": -1.7235954982,
				"z": 0.9783885201,
				"element": "C" 
			},
			{
				"x": 2.0328923241,
				"y": -1.4423239716,
				"z": -0.2060746071,
				"element": "C" 
			},
			{
				"x": 0.8348146971,
				"y": -0.7572062448,
				"z": 0.1666672398,
				"element": "O" 
			},
			{
				"x": 0.6766138714,
				"y": 0.5708756889,
				"z": -0.1010914756,
				"element": "C" 
			},
			{
				"x": -0.6466999711,
				"y": 1.0114868354,
				"z": -0.3058260755,
				"element": "C" 
			},
			{
				"x": -0.8943151195,
				"y": 2.3610823501,
				"z": -0.559839109,
				"element": "C" 
			},
			{
				"x": 0.155230445,
				"y": 3.276983185,
				"z": -0.6249508535,
				"element": "C" 
			},
			{
				"x": 1.4612477522,
				"y": 2.8341955302,
				"z": -0.4194893566,
				"element": "C" 
			},
			{
				"x": 1.7292123645,
				"y": 1.4907904293,
				"z": -0.1519998811,
				"element": "C" 
			},
			{
				"x": -1.7824724177,
				"y": 0.0240183441,
				"z": -0.2638590821,
				"element": "C" 
			},
			{
				"x": -1.6464432389,
				"y": -0.9494139866,
				"z": -1.1930970048,
				"element": "F" 
			},
			{
				"x": -2.9729044335,
				"y": 0.6265123267,
				"z": -0.5018805088,
				"element": "F" 
			},
			{
				"x": -1.8884441533,
				"y": -0.5875286512,
				"z": 0.9363005609,
				"element": "F" 
			},
			{
				"x": 3.9882406801,
				"y": -0.6388715467,
				"z": 2.2273697251,
				"element": "H" 
			},
			{
				"x": 2.3244811909,
				"y": -2.1005240346,
				"z": 1.8061147075,
				"element": "H" 
			},
			{
				"x": 3.6423896574,
				"y": -2.523256111,
				"z": 0.6868669088,
				"element": "H" 
			},
			{
				"x": 2.5761274616,
				"y": -0.8884518284,
				"z": -0.9799023256,
				"element": "H" 
			},
			{
				"x": 1.7043541127,
				"y": -2.3975466931,
				"z": -0.630255,
				"element": "H" 
			},
			{
				"x": -1.9167051266,
				"y": 2.684932974,
				"z": -0.7162390267,
				"element": "H" 
			},
			{
				"x": -0.0476638925,
				"y": 4.3235615844,
				"z": -0.8277768375,
				"element": "H" 
			},
			{
				"x": 2.2865426475,
				"y": 3.5400358334,
				"z": -0.4525754272,
				"element": "H" 
			},
			{
				"x": 2.7369979508,
				"y": 1.1591461908,
				"z": 0.0655112451,
				"element": "H" 
			}
		],
		 "valence_orbital": [ 
			{
				"type": "occ",
				"energy": -0.3298,
				"method": "rhf"
			},
			{
				"type": "occ",
				"energy": -0.30959,
				"method": "rhf"
			},
			{
				"type": "occ",
				"energy": -0.2863,
				"method": "rhf"
			},
			{
				"type": "occ",
				"energy": -0.25795,
				"method": "rhf"
			},
			{
				"type": "occ",
				"energy": -0.22693,
				"method": "rhf"
			},
			{
				"type": "unocc",
				"energy": -0.01532,
				"method": "rhf"
			},
			{
				"type": "unocc",
				"energy": 0.00365,
				"method": "rhf"
			},
			{
				"type": "unocc",
				"energy": 0.06199,
				"method": "rhf"
			},
			{
				"type": "unocc",
				"energy": 0.09721,
				"method": "rhf"
			},
			{
				"type": "unocc",
				"energy": 0.11118,
				"method": "rhf"
			}
		],
		"cosmo_sigma_profile": { 
			"-0.025": 0.0,
			"-0.024": 0.0,
			"-0.023": 0.0,
			"-0.022": 0.0,
			"-0.021": 0.0,
			"-0.02": 0.0,
			"-0.019": 0.0,
			"-0.018": 0.0,
			"-0.017": 0.0768670140241,
			"-0.016": 1.01729956227,
			"-0.015": 1.10904367467,
			"-0.014": 0.669898620281,
			"-0.013": 1.50111691646,
			"-0.012": 0.776001140366,
			"-0.011": 0.487141351678,
			"-0.01": 0.729037113395,
			"-0.009": 0.575037524866,
			"-0.008": 1.48646073172,
			"-0.007": 2.12551302772,
			"-0.006": 10.7279551109,
			"-0.005": 18.0042491871,
			"-0.004": 18.7034844925,
			"-0.003": 15.028822086,
			"-0.002": 11.6209267688,
			"-0.001": 11.0993285856,
			"0.0": 9.63555929151,
			"0.001": 13.0997491848,
			"0.002": 18.1838902846,
			"0.003": 35.2716403381,
			"0.004": 23.4421339261,
			"0.005": 9.99618335048,
			"0.006": 4.48876477301,
			"0.007": 3.88767116719,
			"0.008": 3.90144967045,
			"0.009": 1.8713248,
			"0.01": 0.154746008537,
			"0.011": 0.911053490645,
			"0.012": 0.782040766596,
			"0.013": 0.317172067637,
			"0.014": 0.064213469122,
			"0.015": 0.0,
			"0.016": 0.0,
			"0.017": 0.0,
			"0.018": 0.0,
			"0.019": 0.0,
			"0.02": 0.0,
			"0.021": 0.0,
			"0.022": 0.0,
			"0.023": 0.0,
			"0.024": 0.0,
			"0.025": 0.0
		}
	}
}
