{
	 "smiles": "CC1=CC2=C(CCCC2)C=C1C", 
	 "Tm": 283.15, 
	 "num_atms": 28, 
	 "gaussian": { 
		 "optdone": 1, 
		 "sigma_profile": "yes", 
		 "theory": "DFT", 
		 "functional": "B3LYP", 
		 "basiset": "6-31G**", 
		 "properties": { 
			 "R2extent": 2618.9951, 
			 "electric_dipole_moment_norm": 0.00158113883008, 
			 "electric_quadrupole_moment_norm": 4.70828780131, 
			 "total_energy": -466.955041533, 
			 "HOMO_LUMO_gap": 0.22584, 
			 "cosmo_polarized_energy": -3.04, 
			 "cosmo_cavitation_energy": 28.47, 
			 "cosmo_dispersion_energy": -21.15, 
			 "cosmo_repulsion_energy": 1.68, 
			 "cosmo_total_nonelectrostatic_energy": 9.0, 
			 "SMD_solvation_energy": 3.94 
		},
		"coords": [
			{
				"x": -3.4764349202,
				"y": -0.0818422319,
				"z": -1.9662379274,
				"element": "C" 
			},
			{
				"x": -2.2729508135,
				"y": -0.27550439,
				"z": -1.0744788361,
				"element": "C" 
			},
			{
				"x": -1.0306205097,
				"y": -0.5939804497,
				"z": -1.6229957924,
				"element": "C" 
			},
			{
				"x": 0.1183621508,
				"y": -0.7857297601,
				"z": -0.8430235234,
				"element": "C" 
			},
			{
				"x": 0.0143965337,
				"y": -0.6545489242,
				"z": 0.5497838492,
				"element": "C" 
			},
			{
				"x": 1.2068919424,
				"y": -0.8840772707,
				"z": 1.4631735215,
				"element": "C" 
			},
			{
				"x": 2.5519221492,
				"y": -0.8276373596,
				"z": 0.727356626,
				"element": "C" 
			},
			{
				"x": 2.4935135199,
				"y": -1.6663243145,
				"z": -0.5545563972,
				"element": "C" 
			},
			{
				"x": 1.4441963932,
				"y": -1.0959061721,
				"z": -1.5174958423,
				"element": "C" 
			},
			{
				"x": -1.2331043548,
				"y": -0.3327922304,
				"z": 1.1025113727,
				"element": "C" 
			},
			{
				"x": -2.3768794036,
				"y": -0.1400076099,
				"z": 0.3277415971,
				"element": "C" 
			},
			{
				"x": -3.6940682067,
				"y": 0.2064640297,
				"z": 0.9804929618,
				"element": "C" 
			},
			{
				"x": -3.9010598879,
				"y": 0.924637077,
				"z": -1.8637675602,
				"element": "H" 
			},
			{
				"x": -4.281132504,
				"y": -0.7869369188,
				"z": -1.723221079,
				"element": "H" 
			},
			{
				"x": -3.2149810901,
				"y": -0.2261010506,
				"z": -3.0180633959,
				"element": "H" 
			},
			{
				"x": -0.9486562545,
				"y": -0.6988076249,
				"z": -2.7039519635,
				"element": "H" 
			},
			{
				"x": 1.1884336662,
				"y": -0.1559619187,
				"z": 2.2834245605,
				"element": "H" 
			},
			{
				"x": 1.1041518151,
				"y": -1.8711992237,
				"z": 1.9385981376,
				"element": "H" 
			},
			{
				"x": 3.353636076,
				"y": -1.1782926135,
				"z": 1.3873508282,
				"element": "H" 
			},
			{
				"x": 2.7889601561,
				"y": 0.2130912009,
				"z": 0.4672508294,
				"element": "H" 
			},
			{
				"x": 2.2356004461,
				"y": -2.7025807478,
				"z": -0.2964630116,
				"element": "H" 
			},
			{
				"x": 3.4728992283,
				"y": -1.6979390422,
				"z": -1.045580719,
				"element": "H" 
			},
			{
				"x": 1.8391585739,
				"y": -0.1712009705,
				"z": -1.9646264244,
				"element": "H" 
			},
			{
				"x": 1.2793194534,
				"y": -1.7842578726,
				"z": -2.3555172377,
				"element": "H" 
			},
			{
				"x": -1.3114241291,
				"y": -0.2287399369,
				"z": 2.1838126568,
				"element": "H" 
			},
			{
				"x": -4.0849668724,
				"y": 1.1676379096,
				"z": 0.6239900017,
				"element": "H" 
			},
			{
				"x": -3.5902472871,
				"y": 0.2726797201,
				"z": 2.0669283425,
				"element": "H" 
			},
			{
				"x": -4.4649158708,
				"y": -0.543941304,
				"z": 0.7648644249,
				"element": "H" 
			}
		],
		 "valence_orbital": [ 
			{
				"type": "occ",
				"energy": -0.31587,
				"method": "rhf"
			},
			{
				"type": "occ",
				"energy": -0.30494,
				"method": "rhf"
			},
			{
				"type": "occ",
				"energy": -0.29878,
				"method": "rhf"
			},
			{
				"type": "occ",
				"energy": -0.22731,
				"method": "rhf"
			},
			{
				"type": "occ",
				"energy": -0.21488,
				"method": "rhf"
			},
			{
				"type": "unocc",
				"energy": 0.01096,
				"method": "rhf"
			},
			{
				"type": "unocc",
				"energy": 0.01365,
				"method": "rhf"
			},
			{
				"type": "unocc",
				"energy": 0.0977,
				"method": "rhf"
			},
			{
				"type": "unocc",
				"energy": 0.09985,
				"method": "rhf"
			},
			{
				"type": "unocc",
				"energy": 0.12273,
				"method": "rhf"
			}
		],
		"cosmo_sigma_profile": { 
			"-0.025": 0.0,
			"-0.024": 0.0,
			"-0.023": 0.0,
			"-0.022": 0.0,
			"-0.021": 0.0,
			"-0.02": 0.0,
			"-0.019": 0.0,
			"-0.018": 0.0,
			"-0.017": 0.0,
			"-0.016": 0.0,
			"-0.015": 0.0,
			"-0.014": 0.0,
			"-0.013": 0.0,
			"-0.012": 0.0,
			"-0.011": 0.0,
			"-0.01": 0.0,
			"-0.009": 0.0,
			"-0.008": 0.0,
			"-0.007": 0.0,
			"-0.006": 0.0,
			"-0.005": 0.150155706459,
			"-0.004": 9.4615814287,
			"-0.003": 27.4723746252,
			"-0.002": 35.1266928508,
			"-0.001": 36.132762678,
			"0.0": 41.032791213,
			"0.001": 27.0534760268,
			"0.002": 11.6426939757,
			"0.003": 6.20174416643,
			"0.004": 6.57353178095,
			"0.005": 5.74497703941,
			"0.006": 5.820985629,
			"0.007": 6.31312073561,
			"0.008": 2.87618014985,
			"0.009": 0.0,
			"0.01": 0.0,
			"0.011": 0.0,
			"0.012": 0.0,
			"0.013": 0.0,
			"0.014": 0.0,
			"0.015": 0.0,
			"0.016": 0.0,
			"0.017": 0.0,
			"0.018": 0.0,
			"0.019": 0.0,
			"0.02": 0.0,
			"0.021": 0.0,
			"0.022": 0.0,
			"0.023": 0.0,
			"0.024": 0.0,
			"0.025": 0.0
		}
	}
}
