{
	 "smiles": "ClCC(=O)N1CCN(CC1)C(=O)C1COC2=C(O1)C=CC=C2", 
	 "Tm": 473.15, 
	 "num_atms": 39, 
	 "gaussian": { 
		 "optdone": 1, 
		 "sigma_profile": "yes", 
		 "theory": "DFT", 
		 "functional": "B3LYP", 
		 "basiset": "6-31G**", 
		 "properties": { 
			 "R2extent": 10997.5705, 
			 "electric_dipole_moment_norm": 2.23501096642, 
			 "electric_quadrupole_moment_norm": 36.8781874161, 
			 "total_energy": -1452.41985467, 
			 "HOMO_LUMO_gap": 0.20791, 
			 "cosmo_polarized_energy": -25.34, 
			 "cosmo_cavitation_energy": 42.66, 
			 "cosmo_dispersion_energy": -30.65, 
			 "cosmo_repulsion_energy": 2.34, 
			 "cosmo_total_nonelectrostatic_energy": 14.35, 
			 "SMD_solvation_energy": 6.46 
		},
		"coords": [
			{
				"x": 5.3559926818,
				"y": 3.0717599098,
				"z": 2.398245227,
				"element": "Cl" 
			},
			{
				"x": 3.6594467537,
				"y": 2.5206691251,
				"z": 2.27653459,
				"element": "C" 
			},
			{
				"x": 3.3743915604,
				"y": 1.7853096148,
				"z": 0.9560623422,
				"element": "C" 
			},
			{
				"x": 4.2003969414,
				"y": 1.6825053306,
				"z": 0.0640284131,
				"element": "O" 
			},
			{
				"x": 2.1054446004,
				"y": 1.263332599,
				"z": 0.8610704172,
				"element": "N" 
			},
			{
				"x": 1.1023286931,
				"y": 1.3143657167,
				"z": 1.9329308169,
				"element": "C" 
			},
			{
				"x": -0.2653874976,
				"y": 0.8930964222,
				"z": 1.3980125311,
				"element": "C" 
			},
			{
				"x": -0.2150772024,
				"y": -0.4413690887,
				"z": 0.7942182805,
				"element": "N" 
			},
			{
				"x": 0.997727531,
				"y": -0.7748047189,
				"z": 0.0239878631,
				"element": "C" 
			},
			{
				"x": 1.7571810939,
				"y": 0.4975319533,
				"z": -0.3396066301,
				"element": "C" 
			},
			{
				"x": -1.1935369571,
				"y": -1.3371448095,
				"z": 1.1410098239,
				"element": "C" 
			},
			{
				"x": -2.0829016218,
				"y": -1.0668317373,
				"z": 1.9421599089,
				"element": "O" 
			},
			{
				"x": -1.1217123875,
				"y": -2.7511296358,
				"z": 0.5092600766,
				"element": "C" 
			},
			{
				"x": -2.3281260444,
				"y": -3.6009634841,
				"z": 0.902294585,
				"element": "C" 
			},
			{
				"x": -3.5308047707,
				"y": -3.114854879,
				"z": 0.3170236206,
				"element": "O" 
			},
			{
				"x": -3.4226656831,
				"y": -2.7430051465,
				"z": -0.9945305008,
				"element": "C" 
			},
			{
				"x": -2.1772040788,
				"y": -2.5446528128,
				"z": -1.6083292538,
				"element": "C" 
			},
			{
				"x": -0.9928377075,
				"y": -2.7223480484,
				"z": -0.9169678374,
				"element": "O" 
			},
			{
				"x": -2.1062788042,
				"y": -2.1763051051,
				"z": -2.9513184607,
				"element": "C" 
			},
			{
				"x": -3.27677666,
				"y": -1.9910427848,
				"z": -3.6855273005,
				"element": "C" 
			},
			{
				"x": -4.5202320958,
				"y": -2.1658857528,
				"z": -3.0707932364,
				"element": "C" 
			},
			{
				"x": -4.5921334646,
				"y": -2.5432860912,
				"z": -1.7314610847,
				"element": "C" 
			},
			{
				"x": 3.461493508,
				"y": 1.8748147696,
				"z": 3.1349230541,
				"element": "H" 
			},
			{
				"x": 3.0220767841,
				"y": 3.404512357,
				"z": 2.3631941387,
				"element": "H" 
			},
			{
				"x": 1.0148184512,
				"y": 2.331598267,
				"z": 2.3306046101,
				"element": "H" 
			},
			{
				"x": 1.3832938561,
				"y": 0.6556774018,
				"z": 2.7676259358,
				"element": "H" 
			},
			{
				"x": -0.6194666223,
				"y": 1.6275686596,
				"z": 0.663237107,
				"element": "H" 
			},
			{
				"x": -0.9926345025,
				"y": 0.8579112431,
				"z": 2.2095228352,
				"element": "H" 
			},
			{
				"x": 0.7245464913,
				"y": -1.3096179445,
				"z": -0.8857811122,
				"element": "H" 
			},
			{
				"x": 1.6576694832,
				"y": -1.4265973889,
				"z": 0.6150025783,
				"element": "H" 
			},
			{
				"x": 2.6891243709,
				"y": 0.2484012625,
				"z": -0.8479275949,
				"element": "H" 
			},
			{
				"x": 1.1603955267,
				"y": 1.1104102224,
				"z": -1.0277129182,
				"element": "H" 
			},
			{
				"x": -0.2102442364,
				"y": -3.2458565909,
				"z": 0.8674420925,
				"element": "H" 
			},
			{
				"x": -2.1461079268,
				"y": -4.6336095273,
				"z": 0.5750010071,
				"element": "H" 
			},
			{
				"x": -2.4794568481,
				"y": -3.575040807,
				"z": 1.9809949999,
				"element": "H" 
			},
			{
				"x": -1.127183052,
				"y": -2.0415240835,
				"z": -3.4006341049,
				"element": "H" 
			},
			{
				"x": -3.2160837898,
				"y": -1.7052473321,
				"z": -4.7308700893,
				"element": "H" 
			},
			{
				"x": -5.4352505399,
				"y": -2.0158617627,
				"z": -3.6352967764,
				"element": "H" 
			},
			{
				"x": -5.5433258338,
				"y": -2.6947853226,
				"z": -1.2315299543,
				"element": "H" 
			}
		],
		 "valence_orbital": [ 
			{
				"type": "occ",
				"energy": -0.26482,
				"method": "rhf"
			},
			{
				"type": "occ",
				"energy": -0.25767,
				"method": "rhf"
			},
			{
				"type": "occ",
				"energy": -0.25372,
				"method": "rhf"
			},
			{
				"type": "occ",
				"energy": -0.23655,
				"method": "rhf"
			},
			{
				"type": "occ",
				"energy": -0.21516,
				"method": "rhf"
			},
			{
				"type": "unocc",
				"energy": -0.00725,
				"method": "rhf"
			},
			{
				"type": "unocc",
				"energy": 0.00033,
				"method": "rhf"
			},
			{
				"type": "unocc",
				"energy": 0.01058,
				"method": "rhf"
			},
			{
				"type": "unocc",
				"energy": 0.01253,
				"method": "rhf"
			},
			{
				"type": "unocc",
				"energy": 0.02197,
				"method": "rhf"
			}
		],
		"cosmo_sigma_profile": { 
			"-0.025": 0.0,
			"-0.024": 0.0,
			"-0.023": 0.0,
			"-0.022": 0.0,
			"-0.021": 0.0,
			"-0.02": 0.0,
			"-0.019": 0.0,
			"-0.018": 0.0,
			"-0.017": 0.0,
			"-0.016": 0.0,
			"-0.015": 0.0,
			"-0.014": 0.0,
			"-0.013": 0.0,
			"-0.012": 0.0,
			"-0.011": 0.0,
			"-0.01": 1.42079221614,
			"-0.009": 8.80765603155,
			"-0.008": 10.1898845786,
			"-0.007": 11.6178220586,
			"-0.006": 26.5131606153,
			"-0.005": 38.1664981149,
			"-0.004": 28.4790014066,
			"-0.003": 22.3216353955,
			"-0.002": 15.8193822646,
			"-0.001": 16.1126237488,
			"0.0": 15.5205970622,
			"0.001": 15.8885294017,
			"0.002": 15.3106806015,
			"0.003": 15.0826709386,
			"0.004": 19.0685166062,
			"0.005": 18.1659315602,
			"0.006": 16.2845556453,
			"0.007": 5.95577415483,
			"0.008": 5.12939276017,
			"0.009": 4.77785762831,
			"0.01": 4.92346359877,
			"0.011": 4.86116219525,
			"0.012": 4.84317841193,
			"0.013": 10.0680143681,
			"0.014": 3.53663077185,
			"0.015": 0.766336270635,
			"0.016": 0.0,
			"0.017": 0.0,
			"0.018": 0.0,
			"0.019": 0.0,
			"0.02": 0.0,
			"0.021": 0.0,
			"0.022": 0.0,
			"0.023": 0.0,
			"0.024": 0.0,
			"0.025": 0.0
		}
	}
}
