{
	 "smiles": "OC(=O)CN1N=CC=N1", 
	 "Tm": 403.15, 
	 "num_atms": 14, 
	 "gaussian": { 
		 "optdone": 1, 
		 "sigma_profile": "yes", 
		 "theory": "DFT", 
		 "functional": "B3LYP", 
		 "basiset": "6-31G**", 
		 "properties": { 
			 "R2extent": 1483.7899, 
			 "electric_dipole_moment_norm": 1.42679115851, 
			 "electric_quadrupole_moment_norm": 11.104594265, 
			 "total_energy": -470.108948575, 
			 "HOMO_LUMO_gap": 0.25613, 
			 "cosmo_polarized_energy": -13.61, 
			 "cosmo_cavitation_energy": 19.54, 
			 "cosmo_dispersion_energy": -14.19, 
			 "cosmo_repulsion_energy": 1.18, 
			 "cosmo_total_nonelectrostatic_energy": 6.53, 
			 "SMD_solvation_energy": 3.41 
		},
		"coords": [
			{
				"x": -2.4931204228,
				"y": 1.1180935299,
				"z": 2.4650731604,
				"element": "O" 
			},
			{
				"x": -1.3977826246,
				"y": 0.388280413,
				"z": 2.1536302236,
				"element": "C" 
			},
			{
				"x": -0.5934814823,
				"y": -0.0055242684,
				"z": 2.9591261746,
				"element": "O" 
			},
			{
				"x": -1.3558683307,
				"y": 0.1550075397,
				"z": 0.6458086199,
				"element": "C" 
			},
			{
				"x": -0.2098421993,
				"y": -0.6189706501,
				"z": 0.241736675,
				"element": "N" 
			},
			{
				"x": -0.2303016003,
				"y": -1.9524221368,
				"z": 0.226944108,
				"element": "N" 
			},
			{
				"x": 1.0232986351,
				"y": -2.2742113431,
				"z": -0.0980496965,
				"element": "C" 
			},
			{
				"x": 1.7653193071,
				"y": -1.0907792477,
				"z": -0.2602966378,
				"element": "C" 
			},
			{
				"x": 0.9636022461,
				"y": -0.0482974803,
				"z": -0.0341037066,
				"element": "N" 
			},
			{
				"x": -2.4790216353,
				"y": 1.2416133471,
				"z": 3.4291052818,
				"element": "H" 
			},
			{
				"x": -1.3256058527,
				"y": 1.1196286424,
				"z": 0.1343529907,
				"element": "H" 
			},
			{
				"x": -2.2614745527,
				"y": -0.373117051,
				"z": 0.3392799988,
				"element": "H" 
			},
			{
				"x": 1.3235718457,
				"y": -3.3060794322,
				"z": -0.2042314011,
				"element": "H" 
			},
			{
				"x": 2.8019066666,
				"y": -0.9483218625,
				"z": -0.5274757909,
				"element": "H" 
			}
		],
		 "valence_orbital": [ 
			{
				"type": "occ",
				"energy": -0.32884,
				"method": "rhf"
			},
			{
				"type": "occ",
				"energy": -0.29504,
				"method": "rhf"
			},
			{
				"type": "occ",
				"energy": -0.29458,
				"method": "rhf"
			},
			{
				"type": "occ",
				"energy": -0.289,
				"method": "rhf"
			},
			{
				"type": "occ",
				"energy": -0.26485,
				"method": "rhf"
			},
			{
				"type": "unocc",
				"energy": -0.00872,
				"method": "rhf"
			},
			{
				"type": "unocc",
				"energy": -0.0037,
				"method": "rhf"
			},
			{
				"type": "unocc",
				"energy": 0.05622,
				"method": "rhf"
			},
			{
				"type": "unocc",
				"energy": 0.06612,
				"method": "rhf"
			},
			{
				"type": "unocc",
				"energy": 0.10428,
				"method": "rhf"
			}
		],
		"cosmo_sigma_profile": { 
			"-0.025": 0.0,
			"-0.024": 0.0,
			"-0.023": 0.0,
			"-0.022": 0.0,
			"-0.021": 0.0,
			"-0.02": 0.0,
			"-0.019": 0.721087613665,
			"-0.018": 0.767962895436,
			"-0.017": 0.922616927716,
			"-0.016": 0.77555760931,
			"-0.015": 1.14962144393,
			"-0.014": 0.75835697043,
			"-0.013": 0.488192855699,
			"-0.012": 0.573024073577,
			"-0.011": 0.690585431282,
			"-0.01": 2.37994315421,
			"-0.009": 6.40627703467,
			"-0.008": 8.11058090541,
			"-0.007": 6.93323363629,
			"-0.006": 9.72008719444,
			"-0.005": 6.33620810993,
			"-0.004": 7.45679391206,
			"-0.003": 6.44595804162,
			"-0.002": 6.21213281026,
			"-0.001": 6.53885834091,
			"0.0": 7.37778572734,
			"0.001": 7.23744362326,
			"0.002": 9.63943371459,
			"0.003": 6.81745131762,
			"0.004": 6.07216660653,
			"0.005": 6.18275116801,
			"0.006": 6.17294116743,
			"0.007": 6.17605848189,
			"0.008": 6.7455496503,
			"0.009": 4.80369710803,
			"0.01": 5.18503545525,
			"0.011": 6.62783403542,
			"0.012": 1.91000920134,
			"0.013": 1.79847345842,
			"0.014": 0.295679941713,
			"0.015": 0.0,
			"0.016": 0.0,
			"0.017": 0.0,
			"0.018": 0.0,
			"0.019": 0.0,
			"0.02": 0.0,
			"0.021": 0.0,
			"0.022": 0.0,
			"0.023": 0.0,
			"0.024": 0.0,
			"0.025": 0.0
		}
	}
}
