{
	 "smiles": "CC1=C(N=C(S1)C1=CC=CC=N1)C1=CC=CC=C1", 
	 "Tm": 359.15, 
	 "num_atms": 30, 
	 "gaussian": { 
		 "optdone": 1, 
		 "sigma_profile": "yes", 
		 "theory": "DFT", 
		 "functional": "B3LYP", 
		 "basiset": "6-31G**", 
		 "properties": { 
			 "R2extent": 6622.2746, 
			 "electric_dipole_moment_norm": 0.677112413119, 
			 "electric_quadrupole_moment_norm": 18.3328650298, 
			 "total_energy": -1086.52949576, 
			 "HOMO_LUMO_gap": 0.1526, 
			 "cosmo_polarized_energy": -9.42, 
			 "cosmo_cavitation_energy": 35.74, 
			 "cosmo_dispersion_energy": -26.48, 
			 "cosmo_repulsion_energy": 1.98, 
			 "cosmo_total_nonelectrostatic_energy": 11.25, 
			 "SMD_solvation_energy": 3.46 
		},
		"coords": [
			{
				"x": 0.1592152702,
				"y": -3.8109102363,
				"z": -1.2539880034,
				"element": "C" 
			},
			{
				"x": -0.0736292068,
				"y": -2.3391791671,
				"z": -1.0733866107,
				"element": "C" 
			},
			{
				"x": 0.8354241022,
				"y": -1.3014291504,
				"z": -0.9570214729,
				"element": "C" 
			},
			{
				"x": 0.2725292082,
				"y": -0.0431286557,
				"z": -0.8793388233,
				"element": "N" 
			},
			{
				"x": -1.0299235201,
				"y": -0.0865619593,
				"z": -0.9084744787,
				"element": "C" 
			},
			{
				"x": -1.695273892,
				"y": -1.7026754557,
				"z": -1.0527000666,
				"element": "S" 
			},
			{
				"x": -1.9124083512,
				"y": 1.0830221349,
				"z": -0.8254900028,
				"element": "C" 
			},
			{
				"x": -1.3800069641,
				"y": 2.3753547185,
				"z": -0.6989899689,
				"element": "C" 
			},
			{
				"x": -2.2624973401,
				"y": 3.4478822639,
				"z": -0.6273442535,
				"element": "C" 
			},
			{
				"x": -3.635819959,
				"y": 3.2016150885,
				"z": -0.6822876335,
				"element": "C" 
			},
			{
				"x": -4.0651724014,
				"y": 1.8786957785,
				"z": -0.8072448195,
				"element": "C" 
			},
			{
				"x": -3.2330141712,
				"y": 0.8371631739,
				"z": -0.8781227103,
				"element": "N" 
			},
			{
				"x": 2.3113454779,
				"y": -1.404099726,
				"z": -0.9450938609,
				"element": "C" 
			},
			{
				"x": 3.0766477555,
				"y": -0.3691099801,
				"z": -1.5114312747,
				"element": "C" 
			},
			{
				"x": 4.4674862411,
				"y": -0.4349515201,
				"z": -1.5213003643,
				"element": "C" 
			},
			{
				"x": 5.1258719312,
				"y": -1.5322281721,
				"z": -0.9596233721,
				"element": "C" 
			},
			{
				"x": 4.3789161571,
				"y": -2.5567441697,
				"z": -0.3776635587,
				"element": "C" 
			},
			{
				"x": 2.9849653755,
				"y": -2.4922861463,
				"z": -0.3656915944,
				"element": "C" 
			},
			{
				"x": 0.1441683119,
				"y": -4.3508591144,
				"z": -0.2989364277,
				"element": "H" 
			},
			{
				"x": 1.13084066,
				"y": -3.9887566467,
				"z": -1.7216415143,
				"element": "H" 
			},
			{
				"x": -0.6106318659,
				"y": -4.2569657458,
				"z": -1.8906974482,
				"element": "H" 
			},
			{
				"x": -0.3047346297,
				"y": 2.5049802927,
				"z": -0.659011001,
				"element": "H" 
			},
			{
				"x": -1.8856490601,
				"y": 4.4619081318,
				"z": -0.5289979827,
				"element": "H" 
			},
			{
				"x": -4.3579857301,
				"y": 4.0098610644,
				"z": -0.6290881646,
				"element": "H" 
			},
			{
				"x": -5.127374778,
				"y": 1.6453135773,
				"z": -0.8524051778,
				"element": "H" 
			},
			{
				"x": 2.562115308,
				"y": 0.4844604681,
				"z": -1.9394511469,
				"element": "H" 
			},
			{
				"x": 5.0405908391,
				"y": 0.3722659864,
				"z": -1.9690123648,
				"element": "H" 
			},
			{
				"x": 6.2108832082,
				"y": -1.5827391408,
				"z": -0.9676074822,
				"element": "H" 
			},
			{
				"x": 4.8805375387,
				"y": -3.4042984218,
				"z": 0.0810010219,
				"element": "H" 
			},
			{
				"x": 2.4211844849,
				"y": -3.2768992704,
				"z": 0.1272405572,
				"element": "H" 
			}
		],
		 "valence_orbital": [ 
			{
				"type": "occ",
				"energy": -0.2737,
				"method": "rhf"
			},
			{
				"type": "occ",
				"energy": -0.26118,
				"method": "rhf"
			},
			{
				"type": "occ",
				"energy": -0.24941,
				"method": "rhf"
			},
			{
				"type": "occ",
				"energy": -0.24679,
				"method": "rhf"
			},
			{
				"type": "occ",
				"energy": -0.20962,
				"method": "rhf"
			},
			{
				"type": "unocc",
				"energy": -0.05702,
				"method": "rhf"
			},
			{
				"type": "unocc",
				"energy": -0.02314,
				"method": "rhf"
			},
			{
				"type": "unocc",
				"energy": -0.01873,
				"method": "rhf"
			},
			{
				"type": "unocc",
				"energy": 0.00132,
				"method": "rhf"
			},
			{
				"type": "unocc",
				"energy": 0.03099,
				"method": "rhf"
			}
		],
		"cosmo_sigma_profile": { 
			"-0.025": 0.0,
			"-0.024": 0.0,
			"-0.023": 0.0,
			"-0.022": 0.0,
			"-0.021": 0.0,
			"-0.02": 0.0,
			"-0.019": 0.0,
			"-0.018": 0.0,
			"-0.017": 0.0,
			"-0.016": 0.0,
			"-0.015": 0.0,
			"-0.014": 0.0,
			"-0.013": 0.0,
			"-0.012": 0.0,
			"-0.011": 0.0,
			"-0.01": 0.0,
			"-0.009": 0.0,
			"-0.008": 0.544324686436,
			"-0.007": 5.93691635426,
			"-0.006": 14.4247992582,
			"-0.005": 23.9386202582,
			"-0.004": 22.2118053721,
			"-0.003": 24.5681691993,
			"-0.002": 19.2442674263,
			"-0.001": 20.3133909429,
			"0.0": 18.8021571966,
			"0.001": 30.3788601714,
			"0.002": 34.0733743917,
			"0.003": 21.9601893438,
			"0.004": 15.7241384131,
			"0.005": 15.7237730384,
			"0.006": 8.38906920973,
			"0.007": 3.53521830025,
			"0.008": 3.46505345984,
			"0.009": 1.64457146977,
			"0.01": 2.21691841397,
			"0.011": 1.2404880105,
			"0.012": 1.1569530334,
			"0.013": 0.134083094856,
			"0.014": 0.0,
			"0.015": 0.0,
			"0.016": 0.0,
			"0.017": 0.0,
			"0.018": 0.0,
			"0.019": 0.0,
			"0.02": 0.0,
			"0.021": 0.0,
			"0.022": 0.0,
			"0.023": 0.0,
			"0.024": 0.0,
			"0.025": 0.0
		}
	}
}
