{
	 "smiles": "OC(=O)C=CC1=CC(F)=C(Cl)C=C1", 
	 "Tm": 516.15, 
	 "num_atms": 19, 
	 "gaussian": { 
		 "optdone": 1, 
		 "sigma_profile": "yes", 
		 "theory": "DFT", 
		 "functional": "B3LYP", 
		 "basiset": "6-31G**", 
		 "properties": { 
			 "R2extent": 4321.5581, 
			 "electric_dipole_moment_norm": 2.80659545357, 
			 "electric_quadrupole_moment_norm": 12.3531678783, 
			 "total_energy": -1057.0470566, 
			 "HOMO_LUMO_gap": 0.16368, 
			 "cosmo_polarized_energy": -11.1, 
			 "cosmo_cavitation_energy": 27.11, 
			 "cosmo_dispersion_energy": -19.76, 
			 "cosmo_repulsion_energy": 1.54, 
			 "cosmo_total_nonelectrostatic_energy": 8.9, 
			 "SMD_solvation_energy": 6.27 
		},
		"coords": [
			{
				"x": 3.4353884442,
				"y": 2.7121780744,
				"z": 0.2693013288,
				"element": "O" 
			},
			{
				"x": 3.5764479077,
				"y": 1.3639470894,
				"z": 0.3809364213,
				"element": "C" 
			},
			{
				"x": 4.6673426771,
				"y": 0.8289901874,
				"z": 0.4296596985,
				"element": "O" 
			},
			{
				"x": 2.2983185843,
				"y": 0.6331496157,
				"z": 0.4356490243,
				"element": "C" 
			},
			{
				"x": 1.0924630899,
				"y": 1.2284132076,
				"z": 0.3809102973,
				"element": "C" 
			},
			{
				"x": -0.2172267574,
				"y": 0.5760056188,
				"z": 0.4289015668,
				"element": "C" 
			},
			{
				"x": -0.3737407481,
				"y": -0.817584003,
				"z": 0.5423914854,
				"element": "C" 
			},
			{
				"x": -1.6406633848,
				"y": -1.3733786045,
				"z": 0.5826496514,
				"element": "C" 
			},
			{
				"x": -1.7687876895,
				"y": -2.7034659975,
				"z": 0.6911598062,
				"element": "F" 
			},
			{
				"x": -2.7881907217,
				"y": -0.5744163851,
				"z": 0.5124831178,
				"element": "C" 
			},
			{
				"x": -4.3630714837,
				"y": -1.3152106209,
				"z": 0.5666435561,
				"element": "Cl" 
			},
			{
				"x": -2.6459752602,
				"y": 0.8077296275,
				"z": 0.3998574822,
				"element": "C" 
			},
			{
				"x": -1.3739981127,
				"y": 1.3727945894,
				"z": 0.3588100095,
				"element": "C" 
			},
			{
				"x": 4.3386839827,
				"y": 3.0672330383,
				"z": 0.2437607744,
				"element": "H" 
			},
			{
				"x": 2.421311534,
				"y": -0.4409362415,
				"z": 0.5250302108,
				"element": "H" 
			},
			{
				"x": 1.0700022435,
				"y": 2.3118733235,
				"z": 0.2913390275,
				"element": "H" 
			},
			{
				"x": 0.4767628574,
				"y": -1.4871723203,
				"z": 0.6007746158,
				"element": "H" 
			},
			{
				"x": -3.5325086553,
				"y": 1.4296435195,
				"z": 0.3452676291,
				"element": "H" 
			},
			{
				"x": -1.2739585075,
				"y": 2.4504062812,
				"z": 0.2709742968,
				"element": "H" 
			}
		],
		 "valence_orbital": [ 
			{
				"type": "occ",
				"energy": -0.32186,
				"method": "rhf"
			},
			{
				"type": "occ",
				"energy": -0.30608,
				"method": "rhf"
			},
			{
				"type": "occ",
				"energy": -0.27801,
				"method": "rhf"
			},
			{
				"type": "occ",
				"energy": -0.27358,
				"method": "rhf"
			},
			{
				"type": "occ",
				"energy": -0.24574,
				"method": "rhf"
			},
			{
				"type": "unocc",
				"energy": -0.08206,
				"method": "rhf"
			},
			{
				"type": "unocc",
				"energy": -0.02515,
				"method": "rhf"
			},
			{
				"type": "unocc",
				"energy": 0.00459,
				"method": "rhf"
			},
			{
				"type": "unocc",
				"energy": 0.01346,
				"method": "rhf"
			},
			{
				"type": "unocc",
				"energy": 0.07476,
				"method": "rhf"
			}
		],
		"cosmo_sigma_profile": { 
			"-0.025": 0.0,
			"-0.024": 0.0,
			"-0.023": 0.0,
			"-0.022": 0.0,
			"-0.021": 0.0,
			"-0.02": 0.0,
			"-0.019": 0.0,
			"-0.018": 0.587765169925,
			"-0.017": 0.789043174974,
			"-0.016": 1.15046538028,
			"-0.015": 0.521190383805,
			"-0.014": 0.840026835299,
			"-0.013": 0.62536036779,
			"-0.012": 0.598824836825,
			"-0.011": 0.918152218608,
			"-0.01": 1.6810550502,
			"-0.009": 2.94570657703,
			"-0.008": 7.51698159074,
			"-0.007": 7.85153505854,
			"-0.006": 7.62662866951,
			"-0.005": 6.86729978279,
			"-0.004": 7.58802516057,
			"-0.003": 7.30147042727,
			"-0.002": 12.4589272991,
			"-0.001": 19.8919295751,
			"0.0": 25.2703311309,
			"0.001": 25.3817329804,
			"0.002": 21.2186141737,
			"0.003": 18.4283240165,
			"0.004": 15.9879182704,
			"0.005": 4.73125719464,
			"0.006": 2.40900966105,
			"0.007": 3.43095835874,
			"0.008": 2.22840323001,
			"0.009": 1.79247817463,
			"0.01": 1.1882067358,
			"0.011": 3.42619719675,
			"0.012": 5.25248488072,
			"0.013": 1.78254788951,
			"0.014": 0.0244161409794,
			"0.015": 0.0,
			"0.016": 0.0,
			"0.017": 0.0,
			"0.018": 0.0,
			"0.019": 0.0,
			"0.02": 0.0,
			"0.021": 0.0,
			"0.022": 0.0,
			"0.023": 0.0,
			"0.024": 0.0,
			"0.025": 0.0
		}
	}
}
