{
	 "smiles": "CC(C)C1=CC(C(C)C)=C(C(=C1)C(C)C)C1=C(C=CC=C1)P(C1CCCCC1)C1CCCCC1", 
	 "Tm": 458.15, 
	 "num_atms": 83, 
	 "gaussian": { 
		 "optdone": 1, 
		 "sigma_profile": "yes", 
		 "theory": "DFT", 
		 "functional": "B3LYP", 
		 "basiset": "6-31G**", 
		 "properties": { 
			 "R2extent": 15928.8164, 
			 "electric_dipole_moment_norm": 1.09632561313, 
			 "electric_quadrupole_moment_norm": 5.12381755335, 
			 "total_energy": -1628.44692591, 
			 "HOMO_LUMO_gap": 0.18569, 
			 "cosmo_polarized_energy": -7.47, 
			 "cosmo_cavitation_energy": 73.99, 
			 "cosmo_dispersion_energy": -43.84, 
			 "cosmo_repulsion_energy": 3.31, 
			 "cosmo_total_nonelectrostatic_energy": 33.46, 
			 "SMD_solvation_energy": 10.17 
		},
		"coords": [
			{
				"x": 4.6453855678,
				"y": -0.6440284984,
				"z": -3.4521788252,
				"element": "C" 
			},
			{
				"x": 3.3243773182,
				"y": -0.630622965,
				"z": -4.2444081752,
				"element": "C" 
			},
			{
				"x": 3.4176915818,
				"y": 0.3131214934,
				"z": -5.4581889608,
				"element": "C" 
			},
			{
				"x": 2.1346376024,
				"y": -0.2982021716,
				"z": -3.3538282715,
				"element": "C" 
			},
			{
				"x": 1.0999194683,
				"y": -1.2132668207,
				"z": -3.1665194014,
				"element": "C" 
			},
			{
				"x": -0.0075936289,
				"y": -0.9363351574,
				"z": -2.3584389017,
				"element": "C" 
			},
			{
				"x": -1.1400552867,
				"y": -1.9706136756,
				"z": -2.3264711215,
				"element": "C" 
			},
			{
				"x": -0.64942134,
				"y": -3.4284529656,
				"z": -2.2354805552,
				"element": "C" 
			},
			{
				"x": -2.0502585247,
				"y": -1.8293377329,
				"z": -3.5663230447,
				"element": "C" 
			},
			{
				"x": -0.0827672875,
				"y": 0.3095324439,
				"z": -1.669042958,
				"element": "C" 
			},
			{
				"x": 0.94062714,
				"y": 1.2700436963,
				"z": -1.8778987188,
				"element": "C" 
			},
			{
				"x": 2.0184227332,
				"y": 0.9319362641,
				"z": -2.7114137169,
				"element": "C" 
			},
			{
				"x": 1.0506508168,
				"y": 2.6917073269,
				"z": -1.2948025694,
				"element": "C" 
			},
			{
				"x": 2.1013486073,
				"y": 2.7259348528,
				"z": -0.1637988783,
				"element": "C" 
			},
			{
				"x": -0.2325641328,
				"y": 3.421942415,
				"z": -0.8737988734,
				"element": "C" 
			},
			{
				"x": -1.3418640745,
				"y": 0.5825294429,
				"z": -0.875089666,
				"element": "C" 
			},
			{
				"x": -1.507897858,
				"y": 0.3558217289,
				"z": 0.5187517171,
				"element": "C" 
			},
			{
				"x": -2.7987595409,
				"y": 0.5133175354,
				"z": 1.06123927,
				"element": "C" 
			},
			{
				"x": -3.8905098396,
				"y": 0.9197374308,
				"z": 0.2974682301,
				"element": "C" 
			},
			{
				"x": -3.7109602155,
				"y": 1.1928050437,
				"z": -1.0566605734,
				"element": "C" 
			},
			{
				"x": -2.4525549533,
				"y": 1.0138753261,
				"z": -1.6237814335,
				"element": "C" 
			},
			{
				"x": -0.0412773396,
				"y": 0.0148416973,
				"z": 1.634911302,
				"element": "P" 
			},
			{
				"x": -0.1398474823,
				"y": -1.8457570617,
				"z": 2.0493144642,
				"element": "C" 
			},
			{
				"x": 0.9983372189,
				"y": -2.6177269726,
				"z": 1.3521337976,
				"element": "C" 
			},
			{
				"x": 1.0462649932,
				"y": -4.0878128721,
				"z": 1.8039146217,
				"element": "C" 
			},
			{
				"x": -0.3079494232,
				"y": -4.7918194215,
				"z": 1.6293973984,
				"element": "C" 
			},
			{
				"x": -1.4360362807,
				"y": -4.0137819372,
				"z": 2.3220992603,
				"element": "C" 
			},
			{
				"x": -1.4930250695,
				"y": -2.5499429081,
				"z": 1.8483976404,
				"element": "C" 
			},
			{
				"x": -0.6407747167,
				"y": 0.6896486841,
				"z": 3.3239021035,
				"element": "C" 
			},
			{
				"x": -1.0784589207,
				"y": 2.1751103899,
				"z": 3.3280136036,
				"element": "C" 
			},
			{
				"x": 0.0836733736,
				"y": 3.1772274129,
				"z": 3.2408398334,
				"element": "C" 
			},
			{
				"x": 1.1345101755,
				"y": 2.9299314664,
				"z": 4.3310849294,
				"element": "C" 
			},
			{
				"x": 1.626781179,
				"y": 1.4773542967,
				"z": 4.2934104864,
				"element": "C" 
			},
			{
				"x": 0.4561503445,
				"y": 0.4878111242,
				"z": 4.4033519106,
				"element": "C" 
			},
			{
				"x": 5.4806013916,
				"y": -0.943354628,
				"z": -4.0952328603,
				"element": "H" 
			},
			{
				"x": 4.8754209591,
				"y": 0.3480769727,
				"z": -3.048356033,
				"element": "H" 
			},
			{
				"x": 4.5949634028,
				"y": -1.3417455055,
				"z": -2.6105448004,
				"element": "H" 
			},
			{
				"x": 3.1616438939,
				"y": -1.646128389,
				"z": -4.6297086853,
				"element": "H" 
			},
			{
				"x": 3.5957457507,
				"y": 1.3476739761,
				"z": -5.1447646373,
				"element": "H" 
			},
			{
				"x": 2.4933522464,
				"y": 0.2973503753,
				"z": -6.0441108775,
				"element": "H" 
			},
			{
				"x": 4.2437230703,
				"y": 0.0189197377,
				"z": -6.1152341704,
				"element": "H" 
			},
			{
				"x": 1.1514813271,
				"y": -2.1666952019,
				"z": -3.6847612023,
				"element": "H" 
			},
			{
				"x": -1.7554809953,
				"y": -1.7758430559,
				"z": -1.4435215573,
				"element": "H" 
			},
			{
				"x": 0.0745900357,
				"y": -3.5713536356,
				"z": -1.4300672749,
				"element": "H" 
			},
			{
				"x": -0.1801372289,
				"y": -3.7611392996,
				"z": -3.1673594857,
				"element": "H" 
			},
			{
				"x": -1.4989581011,
				"y": -4.0951964392,
				"z": -2.0513956026,
				"element": "H" 
			},
			{
				"x": -1.4770995879,
				"y": -1.9980757599,
				"z": -4.4848784455,
				"element": "H" 
			},
			{
				"x": -2.5022690054,
				"y": -0.8373796042,
				"z": -3.6310588129,
				"element": "H" 
			},
			{
				"x": -2.8601996773,
				"y": -2.5671186869,
				"z": -3.5339980475,
				"element": "H" 
			},
			{
				"x": 2.7927519402,
				"y": 1.6807325484,
				"z": -2.8642628231,
				"element": "H" 
			},
			{
				"x": 1.4657872166,
				"y": 3.2884511911,
				"z": -2.1188804109,
				"element": "H" 
			},
			{
				"x": 2.2276478356,
				"y": 3.7475080282,
				"z": 0.2132333133,
				"element": "H" 
			},
			{
				"x": 1.8003338433,
				"y": 2.0774977684,
				"z": 0.6629172693,
				"element": "H" 
			},
			{
				"x": 3.0751826573,
				"y": 2.374318207,
				"z": -0.5183307165,
				"element": "H" 
			},
			{
				"x": 0.0151230964,
				"y": 4.4659131877,
				"z": -0.6504317501,
				"element": "H" 
			},
			{
				"x": -0.9835278712,
				"y": 3.4205173344,
				"z": -1.6682549082,
				"element": "H" 
			},
			{
				"x": -0.6920615794,
				"y": 2.9943939432,
				"z": 0.018962465,
				"element": "H" 
			},
			{
				"x": -2.9586531995,
				"y": 0.3226679039,
				"z": 2.1167183069,
				"element": "H" 
			},
			{
				"x": -4.8669266675,
				"y": 1.0299712851,
				"z": 0.7609779415,
				"element": "H" 
			},
			{
				"x": -4.5410380526,
				"y": 1.5337380075,
				"z": -1.6689935851,
				"element": "H" 
			},
			{
				"x": -2.3098195558,
				"y": 1.216663682,
				"z": -2.6808689306,
				"element": "H" 
			},
			{
				"x": 0.0765475837,
				"y": -1.8714695422,
				"z": 3.1260723028,
				"element": "H" 
			},
			{
				"x": 0.8642592831,
				"y": -2.5639831941,
				"z": 0.2647549117,
				"element": "H" 
			},
			{
				"x": 1.9576701939,
				"y": -2.1302568996,
				"z": 1.5604436898,
				"element": "H" 
			},
			{
				"x": 1.8286480525,
				"y": -4.6243071405,
				"z": 1.2529092059,
				"element": "H" 
			},
			{
				"x": 1.3345398817,
				"y": -4.1245364284,
				"z": 2.8646391344,
				"element": "H" 
			},
			{
				"x": -0.2563234005,
				"y": -5.815201464,
				"z": 2.0208499501,
				"element": "H" 
			},
			{
				"x": -0.5371971222,
				"y": -4.8796919523,
				"z": 0.5588363086,
				"element": "H" 
			},
			{
				"x": -2.4019654647,
				"y": -4.5020443335,
				"z": 2.1421884455,
				"element": "H" 
			},
			{
				"x": -1.2751321537,
				"y": -4.0339841808,
				"z": 3.4097397182,
				"element": "H" 
			},
			{
				"x": -2.2878729499,
				"y": -2.0200198118,
				"z": 2.3855029789,
				"element": "H" 
			},
			{
				"x": -1.7696469085,
				"y": -2.522360979,
				"z": 0.7870735799,
				"element": "H" 
			},
			{
				"x": -1.5053986577,
				"y": 0.0831588877,
				"z": 3.626315224,
				"element": "H" 
			},
			{
				"x": -1.6139585788,
				"y": 2.3508593667,
				"z": 4.2733122559,
				"element": "H" 
			},
			{
				"x": -1.800087081,
				"y": 2.3734197101,
				"z": 2.5306527079,
				"element": "H" 
			},
			{
				"x": -0.3137864699,
				"y": 4.1967410572,
				"z": 3.3183801295,
				"element": "H" 
			},
			{
				"x": 0.562073274,
				"y": 3.1063247021,
				"z": 2.2579463769,
				"element": "H" 
			},
			{
				"x": 1.9763832255,
				"y": 3.6230056118,
				"z": 4.2142894059,
				"element": "H" 
			},
			{
				"x": 0.6928002612,
				"y": 3.1372029845,
				"z": 5.3169279458,
				"element": "H" 
			},
			{
				"x": 2.3369502255,
				"y": 1.2927467163,
				"z": 5.1087854289,
				"element": "H" 
			},
			{
				"x": 2.1706805981,
				"y": 1.3009353946,
				"z": 3.3568769432,
				"element": "H" 
			},
			{
				"x": -0.0226058859,
				"y": 0.6200729536,
				"z": 5.3848649201,
				"element": "H" 
			},
			{
				"x": 0.8382427431,
				"y": -0.5389043128,
				"z": 4.3963388336,
				"element": "H" 
			}
		],
		 "valence_orbital": [ 
			{
				"type": "occ",
				"energy": -0.24654,
				"method": "rhf"
			},
			{
				"type": "occ",
				"energy": -0.24061,
				"method": "rhf"
			},
			{
				"type": "occ",
				"energy": -0.22822,
				"method": "rhf"
			},
			{
				"type": "occ",
				"energy": -0.22303,
				"method": "rhf"
			},
			{
				"type": "occ",
				"energy": -0.20429,
				"method": "rhf"
			},
			{
				"type": "unocc",
				"energy": -0.0186,
				"method": "rhf"
			},
			{
				"type": "unocc",
				"energy": -0.00568,
				"method": "rhf"
			},
			{
				"type": "unocc",
				"energy": 0.00596,
				"method": "rhf"
			},
			{
				"type": "unocc",
				"energy": 0.01244,
				"method": "rhf"
			},
			{
				"type": "unocc",
				"energy": 0.05991,
				"method": "rhf"
			}
		],
		"cosmo_sigma_profile": { 
			"-0.025": 0.0,
			"-0.024": 0.0,
			"-0.023": 0.0,
			"-0.022": 0.0,
			"-0.021": 0.0,
			"-0.02": 0.0,
			"-0.019": 0.0,
			"-0.018": 0.0,
			"-0.017": 0.0,
			"-0.016": 0.0,
			"-0.015": 0.0,
			"-0.014": 0.0,
			"-0.013": 0.0,
			"-0.012": 0.0,
			"-0.011": 0.0,
			"-0.01": 0.0,
			"-0.009": 0.0,
			"-0.008": 0.0,
			"-0.007": 0.012184807947,
			"-0.006": 2.44986643308,
			"-0.005": 8.99483714926,
			"-0.004": 18.0535482819,
			"-0.003": 36.0556820453,
			"-0.002": 76.9518107244,
			"-0.001": 106.868541743,
			"0.0": 106.520200703,
			"0.001": 97.8932947041,
			"0.002": 51.8592494391,
			"0.003": 17.7986230695,
			"0.004": 13.9134445045,
			"0.005": 11.2070377551,
			"0.006": 6.92857397276,
			"0.007": 4.36471312883,
			"0.008": 2.00770236859,
			"0.009": 1.48256577805,
			"0.01": 1.56581013333,
			"0.011": 1.29688111173,
			"0.012": 0.105079051949,
			"0.013": 0.0,
			"0.014": 0.0,
			"0.015": 0.0,
			"0.016": 0.0,
			"0.017": 0.0,
			"0.018": 0.0,
			"0.019": 0.0,
			"0.02": 0.0,
			"0.021": 0.0,
			"0.022": 0.0,
			"0.023": 0.0,
			"0.024": 0.0,
			"0.025": 0.0
		}
	}
}
