{
	 "smiles": "ClC1=CC=C(Cl)S1", 
	 "Tm": 232.35, 
	 "num_atms": 9, 
	 "gaussian": { 
		 "optdone": 1, 
		 "sigma_profile": "yes", 
		 "theory": "DFT", 
		 "functional": "B3LYP", 
		 "basiset": "6-31G**", 
		 "properties": { 
			 "R2extent": 2625.1823, 
			 "electric_dipole_moment_norm": 1.24311844166, 
			 "electric_quadrupole_moment_norm": 5.49432726637, 
			 "total_energy": -1472.17171309, 
			 "HOMO_LUMO_gap": 0.19913, 
			 "cosmo_polarized_energy": -2.63, 
			 "cosmo_cavitation_energy": 18.63, 
			 "cosmo_dispersion_energy": -14.88, 
			 "cosmo_repulsion_energy": 1.21, 
			 "cosmo_total_nonelectrostatic_energy": 4.96, 
			 "SMD_solvation_energy": 2.51 
		},
		"coords": [
			{
				"x": -3.1599523101,
				"y": -1.8031696316,
				"z": -1.7638093335,
				"element": "Cl" 
			},
			{
				"x": -1.5000686465,
				"y": -1.8325321994,
				"z": -1.2764459455,
				"element": "C" 
			},
			{
				"x": -0.4048096693,
				"y": -1.6577117496,
				"z": -2.0720975478,
				"element": "C" 
			},
			{
				"x": 0.8201702017,
				"y": -1.7442631782,
				"z": -1.3393194841,
				"element": "C" 
			},
			{
				"x": 0.6156284365,
				"y": -1.9820219796,
				"z": -0.0108403621,
				"element": "C" 
			},
			{
				"x": 1.8225360085,
				"y": -2.1551826071,
				"z": 1.2167625064,
				"element": "Cl" 
			},
			{
				"x": -1.0788812502,
				"y": -2.1093763543,
				"z": 0.3967717317,
				"element": "S" 
			},
			{
				"x": -0.4662423279,
				"y": -1.4745469648,
				"z": -3.1375533526,
				"element": "H" 
			},
			{
				"x": 1.8032195573,
				"y": -1.6348953353,
				"z": -1.7799682125,
				"element": "H" 
			}
		],
		 "valence_orbital": [ 
			{
				"type": "occ",
				"energy": -0.33524,
				"method": "rhf"
			},
			{
				"type": "occ",
				"energy": -0.32818,
				"method": "rhf"
			},
			{
				"type": "occ",
				"energy": -0.32547,
				"method": "rhf"
			},
			{
				"type": "occ",
				"energy": -0.27499,
				"method": "rhf"
			},
			{
				"type": "occ",
				"energy": -0.23475,
				"method": "rhf"
			},
			{
				"type": "unocc",
				"energy": -0.03562,
				"method": "rhf"
			},
			{
				"type": "unocc",
				"energy": -0.0034,
				"method": "rhf"
			},
			{
				"type": "unocc",
				"energy": -0.00332,
				"method": "rhf"
			},
			{
				"type": "unocc",
				"energy": 0.04525,
				"method": "rhf"
			},
			{
				"type": "unocc",
				"energy": 0.04628,
				"method": "rhf"
			}
		],
		"cosmo_sigma_profile": { 
			"-0.025": 0.0,
			"-0.024": 0.0,
			"-0.023": 0.0,
			"-0.022": 0.0,
			"-0.021": 0.0,
			"-0.02": 0.0,
			"-0.019": 0.0,
			"-0.018": 0.0,
			"-0.017": 0.0,
			"-0.016": 0.0,
			"-0.015": 0.0,
			"-0.014": 0.0,
			"-0.013": 0.0,
			"-0.012": 0.0,
			"-0.011": 0.0,
			"-0.01": 0.0,
			"-0.009": 1.02636494724,
			"-0.008": 3.59096041192,
			"-0.007": 3.34517652064,
			"-0.006": 4.17295109096,
			"-0.005": 3.19272837541,
			"-0.004": 4.96680977176,
			"-0.003": 9.95280273691,
			"-0.002": 11.8757176743,
			"-0.001": 13.0569218383,
			"0.0": 17.6013388313,
			"0.001": 24.8512863485,
			"0.002": 26.3241762839,
			"0.003": 26.3223698205,
			"0.004": 7.18084160245,
			"0.005": 0.0,
			"0.006": 0.0,
			"0.007": 0.0,
			"0.008": 0.0,
			"0.009": 0.0,
			"0.01": 0.0,
			"0.011": 0.0,
			"0.012": 0.0,
			"0.013": 0.0,
			"0.014": 0.0,
			"0.015": 0.0,
			"0.016": 0.0,
			"0.017": 0.0,
			"0.018": 0.0,
			"0.019": 0.0,
			"0.02": 0.0,
			"0.021": 0.0,
			"0.022": 0.0,
			"0.023": 0.0,
			"0.024": 0.0,
			"0.025": 0.0
		}
	}
}
