{
	 "smiles": "CN(C(C)=O)C1=NC(C=O)=CS1", 
	 "Tm": 438.15, 
	 "num_atms": 20, 
	 "gaussian": { 
		 "optdone": 1, 
		 "sigma_profile": "yes", 
		 "theory": "DFT", 
		 "functional": "B3LYP", 
		 "basiset": "6-31G**", 
		 "properties": { 
			 "R2extent": 2888.7446, 
			 "electric_dipole_moment_norm": 2.07739709733, 
			 "electric_quadrupole_moment_norm": 20.0424034444, 
			 "total_energy": -929.693521256, 
			 "HOMO_LUMO_gap": 0.16808, 
			 "cosmo_polarized_energy": -11.03, 
			 "cosmo_cavitation_energy": 26.08, 
			 "cosmo_dispersion_energy": -19.4, 
			 "cosmo_repulsion_energy": 1.49, 
			 "cosmo_total_nonelectrostatic_energy": 8.16, 
			 "SMD_solvation_energy": 5.99 
		},
		"coords": [
			{
				"x": -0.8677958422,
				"y": 2.4878603165,
				"z": 0.0621636511,
				"element": "C" 
			},
			{
				"x": -0.2452809065,
				"y": 1.2235193332,
				"z": -0.3477658716,
				"element": "N" 
			},
			{
				"x": 0.982093579,
				"y": 1.3177670587,
				"z": -1.0626255375,
				"element": "C" 
			},
			{
				"x": 1.6778752536,
				"y": 0.0581369487,
				"z": -1.5157609514,
				"element": "C" 
			},
			{
				"x": 1.4446462671,
				"y": 2.4213159403,
				"z": -1.2940702999,
				"element": "O" 
			},
			{
				"x": -0.8992494762,
				"y": 0.0488738776,
				"z": -0.0074654334,
				"element": "C" 
			},
			{
				"x": -0.5236849242,
				"y": -1.1676654565,
				"z": -0.2716000694,
				"element": "N" 
			},
			{
				"x": -1.4245427868,
				"y": -2.0887647546,
				"z": 0.2226068677,
				"element": "C" 
			},
			{
				"x": -1.1737209981,
				"y": -3.5309197477,
				"z": 0.0234130615,
				"element": "C" 
			},
			{
				"x": -1.9124105565,
				"y": -4.4099848736,
				"z": 0.4241512618,
				"element": "O" 
			},
			{
				"x": -2.5129395862,
				"y": -1.5805260494,
				"z": 0.8785103735,
				"element": "C" 
			},
			{
				"x": -2.4400940669,
				"y": 0.1433673939,
				"z": 0.898367257,
				"element": "S" 
			},
			{
				"x": -0.2247126763,
				"y": 3.2923589257,
				"z": -0.2851557493,
				"element": "H" 
			},
			{
				"x": -0.9581713568,
				"y": 2.53632498,
				"z": 1.1523133688,
				"element": "H" 
			},
			{
				"x": -1.860115613,
				"y": 2.5918899393,
				"z": -0.3888534705,
				"element": "H" 
			},
			{
				"x": 2.5836489271,
				"y": 0.371187179,
				"z": -2.0348636084,
				"element": "H" 
			},
			{
				"x": 1.0419916639,
				"y": -0.533997199,
				"z": -2.1771860881,
				"element": "H" 
			},
			{
				"x": 1.9240447678,
				"y": -0.5885579945,
				"z": -0.6709906416,
				"element": "H" 
			},
			{
				"x": -0.2388756167,
				"y": -3.7514769605,
				"z": -0.5320573571,
				"element": "H" 
			},
			{
				"x": -3.3224060522,
				"y": -2.1331088573,
				"z": 1.3325692369,
				"element": "H" 
			}
		],
		 "valence_orbital": [ 
			{
				"type": "occ",
				"energy": -0.29905,
				"method": "rhf"
			},
			{
				"type": "occ",
				"energy": -0.29881,
				"method": "rhf"
			},
			{
				"type": "occ",
				"energy": -0.27506,
				"method": "rhf"
			},
			{
				"type": "occ",
				"energy": -0.26249,
				"method": "rhf"
			},
			{
				"type": "occ",
				"energy": -0.2381,
				"method": "rhf"
			},
			{
				"type": "unocc",
				"energy": -0.07002,
				"method": "rhf"
			},
			{
				"type": "unocc",
				"energy": -0.03069,
				"method": "rhf"
			},
			{
				"type": "unocc",
				"energy": -0.00673,
				"method": "rhf"
			},
			{
				"type": "unocc",
				"energy": 0.02413,
				"method": "rhf"
			},
			{
				"type": "unocc",
				"energy": 0.06855,
				"method": "rhf"
			}
		],
		"cosmo_sigma_profile": { 
			"-0.025": 0.0,
			"-0.024": 0.0,
			"-0.023": 0.0,
			"-0.022": 0.0,
			"-0.021": 0.0,
			"-0.02": 0.0,
			"-0.019": 0.0,
			"-0.018": 0.0,
			"-0.017": 0.0,
			"-0.016": 0.0,
			"-0.015": 0.0,
			"-0.014": 0.0,
			"-0.013": 0.0,
			"-0.012": 0.0,
			"-0.011": 0.0902969375395,
			"-0.01": 1.47069566737,
			"-0.009": 2.01173212975,
			"-0.008": 1.26847393108,
			"-0.007": 3.37936695948,
			"-0.006": 10.764856978,
			"-0.005": 17.3263417266,
			"-0.004": 18.0719123492,
			"-0.003": 22.1029524543,
			"-0.002": 21.3343082181,
			"-0.001": 20.0540028209,
			"0.0": 18.820711692,
			"0.001": 14.6586388878,
			"0.002": 9.54254152065,
			"0.003": 6.2192871775,
			"0.004": 5.22225210999,
			"0.005": 4.01481383007,
			"0.006": 4.73586629277,
			"0.007": 3.32790146074,
			"0.008": 2.54005995659,
			"0.009": 3.60227006248,
			"0.01": 5.24291437503,
			"0.011": 6.97158984768,
			"0.012": 5.83983977532,
			"0.013": 1.85534839716,
			"0.014": 0.0525623468172,
			"0.015": 0.0,
			"0.016": 0.0,
			"0.017": 0.0,
			"0.018": 0.0,
			"0.019": 0.0,
			"0.02": 0.0,
			"0.021": 0.0,
			"0.022": 0.0,
			"0.023": 0.0,
			"0.024": 0.0,
			"0.025": 0.0
		}
	}
}
