{
	 "smiles": "[O-][N+](=O)C1=C(Br)N=CC(Cl)=C1", 
	 "Tm": 349.15, 
	 "num_atms": 13, 
	 "gaussian": { 
		 "optdone": 1, 
		 "sigma_profile": "yes", 
		 "theory": "DFT", 
		 "functional": "B3LYP", 
		 "basiset": "6-31G**", 
		 "properties": { 
			 "R2extent": 3732.6849, 
			 "electric_dipole_moment_norm": 2.8545411838, 
			 "electric_quadrupole_moment_norm": 4.66249769544, 
			 "total_energy": -3483.15508322, 
			 "HOMO_LUMO_gap": 0.16702, 
			 "cosmo_polarized_energy": -8.77, 
			 "cosmo_cavitation_energy": 23.01, 
			 "cosmo_dispersion_energy": -17.58, 
			 "cosmo_repulsion_energy": 1.42, 
			 "cosmo_total_nonelectrostatic_energy": 6.85, 
			 "SMD_solvation_energy": 3.61 
		},
		"coords": [
			{
				"x": -0.0920847821,
				"y": 1.298922579,
				"z": -2.9671626119,
				"element": "O" 
			},
			{
				"x": -0.8854364295,
				"y": 1.1794173751,
				"z": -2.0428304038,
				"element": "N" 
			},
			{
				"x": -1.8081803373,
				"y": 1.9509563113,
				"z": -1.7837518478,
				"element": "O" 
			},
			{
				"x": -0.7123442555,
				"y": 0.0367559268,
				"z": -1.1248116341,
				"element": "C" 
			},
			{
				"x": -0.2132847765,
				"y": -1.2222085299,
				"z": -1.5015664304,
				"element": "C" 
			},
			{
				"x": 0.2018845435,
				"y": -1.6921789997,
				"z": -3.2949852072,
				"element": "Br" 
			},
			{
				"x": -0.0574185144,
				"y": -2.1939635781,
				"z": -0.6148969732,
				"element": "N" 
			},
			{
				"x": -0.3677998238,
				"y": -1.9863511545,
				"z": 0.6647799806,
				"element": "C" 
			},
			{
				"x": -0.8915487494,
				"y": -0.7723403343,
				"z": 1.1163874507,
				"element": "C" 
			},
			{
				"x": -1.3057264883,
				"y": -0.5600894976,
				"z": 2.7952432626,
				"element": "Cl" 
			},
			{
				"x": -1.0765740529,
				"y": 0.2565784964,
				"z": 0.201577491,
				"element": "C" 
			},
			{
				"x": -0.202637802,
				"y": -2.8107810466,
				"z": 1.3530298805,
				"element": "H" 
			},
			{
				"x": -1.4912485318,
				"y": 1.2148824521,
				"z": 0.488787043,
				"element": "H" 
			}
		],
		 "valence_orbital": [ 
			{
				"type": "occ",
				"energy": -0.32722,
				"method": "rhf"
			},
			{
				"type": "occ",
				"energy": -0.31482,
				"method": "rhf"
			},
			{
				"type": "occ",
				"energy": -0.30396,
				"method": "rhf"
			},
			{
				"type": "occ",
				"energy": -0.29103,
				"method": "rhf"
			},
			{
				"type": "occ",
				"energy": -0.27769,
				"method": "rhf"
			},
			{
				"type": "unocc",
				"energy": -0.11067,
				"method": "rhf"
			},
			{
				"type": "unocc",
				"energy": -0.07147,
				"method": "rhf"
			},
			{
				"type": "unocc",
				"energy": -0.04263,
				"method": "rhf"
			},
			{
				"type": "unocc",
				"energy": -0.01597,
				"method": "rhf"
			},
			{
				"type": "unocc",
				"energy": -0.00014,
				"method": "rhf"
			}
		],
		"cosmo_sigma_profile": { 
			"-0.025": 0.0,
			"-0.024": 0.0,
			"-0.023": 0.0,
			"-0.022": 0.0,
			"-0.021": 0.0,
			"-0.02": 0.0,
			"-0.019": 0.0,
			"-0.018": 0.0,
			"-0.017": 0.0,
			"-0.016": 0.0,
			"-0.015": 0.0,
			"-0.014": 0.0,
			"-0.013": 0.0,
			"-0.012": 0.0,
			"-0.011": 0.175201350842,
			"-0.01": 2.60615542212,
			"-0.009": 5.72382445605,
			"-0.008": 4.31178835205,
			"-0.007": 4.70397736896,
			"-0.006": 7.90959782004,
			"-0.005": 10.1686046168,
			"-0.004": 15.0676357784,
			"-0.003": 16.6370546676,
			"-0.002": 11.3480199052,
			"-0.001": 11.8929919831,
			"0.0": 9.67935376061,
			"0.001": 12.4961491043,
			"0.002": 16.4369653905,
			"0.003": 18.3905375377,
			"0.004": 7.04771946509,
			"0.005": 6.24581764434,
			"0.006": 8.92484125441,
			"0.007": 11.7492299333,
			"0.008": 5.55876084721,
			"0.009": 2.67624320583,
			"0.01": 0.807662388396,
			"0.011": 0.835055953204,
			"0.012": 0.567323936921,
			"0.013": 0.0,
			"0.014": 0.0,
			"0.015": 0.0,
			"0.016": 0.0,
			"0.017": 0.0,
			"0.018": 0.0,
			"0.019": 0.0,
			"0.02": 0.0,
			"0.021": 0.0,
			"0.022": 0.0,
			"0.023": 0.0,
			"0.024": 0.0,
			"0.025": 0.0
		}
	}
}
