{
	 "smiles": "NC1=CC(=NN1C1=CC=CC=C1)C1CC1", 
	 "Tm": 408.15, 
	 "num_atms": 28, 
	 "gaussian": { 
		 "optdone": 1, 
		 "sigma_profile": "yes", 
		 "theory": "DFT", 
		 "functional": "B3LYP", 
		 "basiset": "6-31G**", 
		 "properties": { 
			 "R2extent": 4557.4607, 
			 "electric_dipole_moment_norm": 2.84210659547, 
			 "electric_quadrupole_moment_norm": 10.6203439968, 
			 "total_energy": -629.31847419, 
			 "HOMO_LUMO_gap": 0.18961, 
			 "cosmo_polarized_energy": -12.9, 
			 "cosmo_cavitation_energy": 31.32, 
			 "cosmo_dispersion_energy": -23.0, 
			 "cosmo_repulsion_energy": 1.8, 
			 "cosmo_total_nonelectrostatic_energy": 10.13, 
			 "SMD_solvation_energy": 4.11 
		},
		"coords": [
			{
				"x": -0.9607190694,
				"y": -1.8456733302,
				"z": -2.7245568062,
				"element": "N" 
			},
			{
				"x": -0.3782147932,
				"y": -1.177318989,
				"z": -1.6477625594,
				"element": "C" 
			},
			{
				"x": 0.7745850568,
				"y": -0.4174679696,
				"z": -1.5907610877,
				"element": "C" 
			},
			{
				"x": 0.8804663015,
				"y": -0.0134396507,
				"z": -0.2320582878,
				"element": "C" 
			},
			{
				"x": -0.1236972499,
				"y": -0.4799180069,
				"z": 0.499685741,
				"element": "N" 
			},
			{
				"x": -0.8924989474,
				"y": -1.2177158906,
				"z": -0.3746471728,
				"element": "N" 
			},
			{
				"x": -2.0848940665,
				"y": -1.8224291263,
				"z": 0.0939816188,
				"element": "C" 
			},
			{
				"x": -2.8011667816,
				"y": -1.1969924254,
				"z": 1.1242213253,
				"element": "C" 
			},
			{
				"x": -3.970209508,
				"y": -1.780599649,
				"z": 1.6046511742,
				"element": "C" 
			},
			{
				"x": -4.4428786541,
				"y": -2.9794897935,
				"z": 1.0631236688,
				"element": "C" 
			},
			{
				"x": -3.7212137332,
				"y": -3.6028244374,
				"z": 0.0454136724,
				"element": "C" 
			},
			{
				"x": -2.5382156082,
				"y": -3.0387717857,
				"z": -0.4359959102,
				"element": "C" 
			},
			{
				"x": 1.9237129592,
				"y": 0.8160965835,
				"z": 0.4094566031,
				"element": "C" 
			},
			{
				"x": 3.3731684216,
				"y": 0.7122446963,
				"z": -0.0252021774,
				"element": "C" 
			},
			{
				"x": 2.5868508394,
				"y": 1.9520091813,
				"z": -0.3464856677,
				"element": "C" 
			},
			{
				"x": -0.6166637446,
				"y": -1.4974490122,
				"z": -3.6104979875,
				"element": "H" 
			},
			{
				"x": -1.9748253205,
				"y": -1.8381207663,
				"z": -2.7097254117,
				"element": "H" 
			},
			{
				"x": 1.4312874952,
				"y": -0.1836874066,
				"z": -2.4160486674,
				"element": "H" 
			},
			{
				"x": -2.4185078591,
				"y": -0.2711758013,
				"z": 1.5361298057,
				"element": "H" 
			},
			{
				"x": -4.5194090352,
				"y": -1.2911041645,
				"z": 2.4039026246,
				"element": "H" 
			},
			{
				"x": -5.3590944099,
				"y": -3.4260649769,
				"z": 1.4374624386,
				"element": "H" 
			},
			{
				"x": -4.066003976,
				"y": -4.5458263467,
				"z": -0.3692392643,
				"element": "H" 
			},
			{
				"x": -1.9570701258,
				"y": -3.5497619398,
				"z": -1.1951381824,
				"element": "H" 
			},
			{
				"x": 1.7417933798,
				"y": 0.9741909199,
				"z": 1.4681720946,
				"element": "H" 
			},
			{
				"x": 3.6022851949,
				"y": 0.0242514042,
				"z": -0.8336905372,
				"element": "H" 
			},
			{
				"x": 4.1370610912,
				"y": 0.7658779658,
				"z": 0.7446779019,
				"element": "H" 
			},
			{
				"x": 2.8063332631,
				"y": 2.8635908557,
				"z": 0.2012919988,
				"element": "H" 
			},
			{
				"x": 2.27893888,
				"y": 2.1139698622,
				"z": -1.375360948,
				"element": "H" 
			}
		],
		 "valence_orbital": [ 
			{
				"type": "occ",
				"energy": -0.27401,
				"method": "rhf"
			},
			{
				"type": "occ",
				"energy": -0.26204,
				"method": "rhf"
			},
			{
				"type": "occ",
				"energy": -0.252,
				"method": "rhf"
			},
			{
				"type": "occ",
				"energy": -0.21237,
				"method": "rhf"
			},
			{
				"type": "occ",
				"energy": -0.20038,
				"method": "rhf"
			},
			{
				"type": "unocc",
				"energy": -0.01077,
				"method": "rhf"
			},
			{
				"type": "unocc",
				"energy": -0.00423,
				"method": "rhf"
			},
			{
				"type": "unocc",
				"energy": 0.05067,
				"method": "rhf"
			},
			{
				"type": "unocc",
				"energy": 0.07264,
				"method": "rhf"
			},
			{
				"type": "unocc",
				"energy": 0.08701,
				"method": "rhf"
			}
		],
		"cosmo_sigma_profile": { 
			"-0.025": 0.0,
			"-0.024": 0.0,
			"-0.023": 0.0,
			"-0.022": 0.0,
			"-0.021": 0.0,
			"-0.02": 0.0,
			"-0.019": 0.0,
			"-0.018": 0.0,
			"-0.017": 0.0,
			"-0.016": 0.0,
			"-0.015": 0.0,
			"-0.014": 0.155533236558,
			"-0.013": 1.5835537653,
			"-0.012": 2.1205774036,
			"-0.011": 3.10461213047,
			"-0.01": 2.52975608946,
			"-0.009": 2.06593265956,
			"-0.008": 2.75758886294,
			"-0.007": 2.43692759286,
			"-0.006": 9.46973667824,
			"-0.005": 16.2915697544,
			"-0.004": 24.2908048054,
			"-0.003": 21.0082777444,
			"-0.002": 15.9295762571,
			"-0.001": 15.3097021082,
			"0.0": 16.2102080914,
			"0.001": 14.9406669005,
			"0.002": 15.3568665074,
			"0.003": 15.9755090198,
			"0.004": 19.2444333032,
			"0.005": 21.0000835245,
			"0.006": 9.37173149432,
			"0.007": 4.00722307555,
			"0.008": 2.85833331869,
			"0.009": 2.6600485495,
			"0.01": 1.91838480783,
			"0.011": 2.340612342,
			"0.012": 1.51841284167,
			"0.013": 0.809179530079,
			"0.014": 1.01952143971,
			"0.015": 0.824173738594,
			"0.016": 0.182103586992,
			"0.017": 0.0,
			"0.018": 0.0,
			"0.019": 0.0,
			"0.02": 0.0,
			"0.021": 0.0,
			"0.022": 0.0,
			"0.023": 0.0,
			"0.024": 0.0,
			"0.025": 0.0
		}
	}
}
