{
	 "smiles": "CCCCCCCC(C)O", 
	 "Tm": 237.95, 
	 "num_atms": 30, 
	 "gaussian": { 
		 "optdone": 1, 
		 "sigma_profile": "yes", 
		 "theory": "DFT", 
		 "functional": "B3LYP", 
		 "basiset": "6-31G**", 
		 "properties": { 
			 "R2extent": 2595.0589, 
			 "electric_dipole_moment_norm": 1.53283082563, 
			 "electric_quadrupole_moment_norm": 6.31352973859, 
			 "total_energy": -430.251111904, 
			 "HOMO_LUMO_gap": 0.33233, 
			 "cosmo_polarized_energy": -5.9, 
			 "cosmo_cavitation_energy": 29.95, 
			 "cosmo_dispersion_energy": -20.8, 
			 "cosmo_repulsion_energy": 1.73, 
			 "cosmo_total_nonelectrostatic_energy": 10.87, 
			 "SMD_solvation_energy": 4.46 
		},
		"coords": [
			{
				"x": -0.5759967581,
				"y": -4.2673900572,
				"z": -1.3500488172,
				"element": "C" 
			},
			{
				"x": -1.6697883953,
				"y": -3.3065982113,
				"z": -0.867635863,
				"element": "C" 
			},
			{
				"x": -1.1536486708,
				"y": -1.9315969712,
				"z": -0.4105520489,
				"element": "C" 
			},
			{
				"x": -0.2993072023,
				"y": -1.9726749067,
				"z": 0.8679837574,
				"element": "C" 
			},
			{
				"x": 0.1479186775,
				"y": -0.5973023015,
				"z": 1.4122572787,
				"element": "C" 
			},
			{
				"x": 1.5073829133,
				"y": -0.0754190388,
				"z": 0.9049230586,
				"element": "C" 
			},
			{
				"x": 1.6339648484,
				"y": 0.2136671763,
				"z": -0.6008950688,
				"element": "C" 
			},
			{
				"x": 0.7045611534,
				"y": 1.2969927966,
				"z": -1.1708571233,
				"element": "C" 
			},
			{
				"x": 0.9595538325,
				"y": 2.690306495,
				"z": -0.5912013271,
				"element": "C" 
			},
			{
				"x": 0.7918001303,
				"y": 1.318860793,
				"z": -2.5988338698,
				"element": "O" 
			},
			{
				"x": -1.0075783976,
				"y": -5.2079764213,
				"z": -1.708196158,
				"element": "H" 
			},
			{
				"x": 0.1322143637,
				"y": -4.515753479,
				"z": -0.5528238868,
				"element": "H" 
			},
			{
				"x": -0.0042907423,
				"y": -3.829060257,
				"z": -2.17649032,
				"element": "H" 
			},
			{
				"x": -2.2302945524,
				"y": -3.7735799899,
				"z": -0.0456431797,
				"element": "H" 
			},
			{
				"x": -2.3924456433,
				"y": -3.1562356871,
				"z": -1.6797328475,
				"element": "H" 
			},
			{
				"x": -0.5953173802,
				"y": -1.4706452738,
				"z": -1.2348233583,
				"element": "H" 
			},
			{
				"x": -2.0165473919,
				"y": -1.2766229121,
				"z": -0.2267818149,
				"element": "H" 
			},
			{
				"x": -0.8895779571,
				"y": -2.4800695504,
				"z": 1.6432665334,
				"element": "H" 
			},
			{
				"x": 0.5879248756,
				"y": -2.6009369735,
				"z": 0.7123552132,
				"element": "H" 
			},
			{
				"x": 0.2257727519,
				"y": -0.6656643908,
				"z": 2.5046182577,
				"element": "H" 
			},
			{
				"x": -0.6404273521,
				"y": 0.1439614067,
				"z": 1.2227037716,
				"element": "H" 
			},
			{
				"x": 1.7608456517,
				"y": 0.8318597616,
				"z": 1.468548137,
				"element": "H" 
			},
			{
				"x": 2.2768929718,
				"y": -0.8120129269,
				"z": 1.1726745372,
				"element": "H" 
			},
			{
				"x": 1.4656677841,
				"y": -0.7028202778,
				"z": -1.1771327919,
				"element": "H" 
			},
			{
				"x": 2.6722886437,
				"y": 0.5161945176,
				"z": -0.8084999189,
				"element": "H" 
			},
			{
				"x": -0.3372981554,
				"y": 1.0193181643,
				"z": -0.9749929481,
				"element": "H" 
			},
			{
				"x": 2.0008830385,
				"y": 2.9956196292,
				"z": -0.7588457529,
				"element": "H" 
			},
			{
				"x": 0.7730545928,
				"y": 2.7258634897,
				"z": 0.4870033956,
				"element": "H" 
			},
			{
				"x": 0.3079173297,
				"y": 3.4219900729,
				"z": -1.076879306,
				"element": "H" 
			},
			{
				"x": 1.7072750398,
				"y": 1.5320253232,
				"z": -2.8271675391,
				"element": "H" 
			}
		],
		 "valence_orbital": [ 
			{
				"type": "occ",
				"energy": -0.31442,
				"method": "rhf"
			},
			{
				"type": "occ",
				"energy": -0.30683,
				"method": "rhf"
			},
			{
				"type": "occ",
				"energy": -0.3042,
				"method": "rhf"
			},
			{
				"type": "occ",
				"energy": -0.29832,
				"method": "rhf"
			},
			{
				"type": "occ",
				"energy": -0.25811,
				"method": "rhf"
			},
			{
				"type": "unocc",
				"energy": 0.07422,
				"method": "rhf"
			},
			{
				"type": "unocc",
				"energy": 0.09097,
				"method": "rhf"
			},
			{
				"type": "unocc",
				"energy": 0.0961,
				"method": "rhf"
			},
			{
				"type": "unocc",
				"energy": 0.1059,
				"method": "rhf"
			},
			{
				"type": "unocc",
				"energy": 0.12,
				"method": "rhf"
			}
		],
		"cosmo_sigma_profile": { 
			"-0.025": 0.0,
			"-0.024": 0.0,
			"-0.023": 0.0,
			"-0.022": 0.0,
			"-0.021": 0.0,
			"-0.02": 0.0,
			"-0.019": 0.0,
			"-0.018": 0.0,
			"-0.017": 0.0,
			"-0.016": 0.0,
			"-0.015": 0.048455947382,
			"-0.014": 0.714968313715,
			"-0.013": 1.1000631043,
			"-0.012": 0.497352492688,
			"-0.011": 1.05139232553,
			"-0.01": 1.02776435736,
			"-0.009": 1.38737438309,
			"-0.008": 0.845980597912,
			"-0.007": 0.818644496064,
			"-0.006": 1.34807720533,
			"-0.005": 1.19855313856,
			"-0.004": 2.26970706094,
			"-0.003": 10.1451487209,
			"-0.002": 34.4655960796,
			"-0.001": 44.811776511,
			"0.0": 49.8520280091,
			"0.001": 42.6576638857,
			"0.002": 16.7041303639,
			"0.003": 1.20149068951,
			"0.004": 1.72909805459,
			"0.005": 1.43461354046,
			"0.006": 1.05564482739,
			"0.007": 1.25443263043,
			"0.008": 1.4989427489,
			"0.009": 1.52607134036,
			"0.01": 0.788619466697,
			"0.011": 0.803180570702,
			"0.012": 0.910328260758,
			"0.013": 1.61685327871,
			"0.014": 1.8406246565,
			"0.015": 2.07463199147,
			"0.016": 0.225967229552,
			"0.017": 0.0,
			"0.018": 0.0,
			"0.019": 0.0,
			"0.02": 0.0,
			"0.021": 0.0,
			"0.022": 0.0,
			"0.023": 0.0,
			"0.024": 0.0,
			"0.025": 0.0
		}
	}
}
