{
	 "smiles": "CNC(=O)OC1=CC(=CC(C)=C1)C(C)C", 
	 "Tm": 360.15, 
	 "num_atms": 32, 
	 "gaussian": { 
		 "optdone": 1, 
		 "sigma_profile": "yes", 
		 "theory": "DFT", 
		 "functional": "B3LYP", 
		 "basiset": "6-31G**", 
		 "properties": { 
			 "R2extent": 4300.1775, 
			 "electric_dipole_moment_norm": 2.49841304431, 
			 "electric_quadrupole_moment_norm": 18.4685351837, 
			 "total_energy": -672.759802476, 
			 "HOMO_LUMO_gap": 0.23106, 
			 "cosmo_polarized_energy": -11.05, 
			 "cosmo_cavitation_energy": 35.12, 
			 "cosmo_dispersion_energy": -24.51, 
			 "cosmo_repulsion_energy": 1.98, 
			 "cosmo_total_nonelectrostatic_energy": 12.59, 
			 "SMD_solvation_energy": 7.01 
		},
		"coords": [
			{
				"x": 4.6380966296,
				"y": 1.1616533876,
				"z": 1.1702806905,
				"element": "C" 
			},
			{
				"x": 3.7243770271,
				"y": 1.9807707232,
				"z": 0.3897402626,
				"element": "N" 
			},
			{
				"x": 2.4927755218,
				"y": 1.6044059157,
				"z": -0.058205746,
				"element": "C" 
			},
			{
				"x": 1.8015732705,
				"y": 2.2572457938,
				"z": -0.8135921332,
				"element": "O" 
			},
			{
				"x": 2.1553482242,
				"y": 0.3878087833,
				"z": 0.4850777055,
				"element": "O" 
			},
			{
				"x": 0.9115692553,
				"y": -0.1855189494,
				"z": 0.221647832,
				"element": "C" 
			},
			{
				"x": -0.2800524052,
				"y": 0.5380925297,
				"z": 0.2791860494,
				"element": "C" 
			},
			{
				"x": -1.4953017492,
				"y": -0.123180295,
				"z": 0.0788428062,
				"element": "C" 
			},
			{
				"x": -1.4844045717,
				"y": -1.5049481884,
				"z": -0.1647596694,
				"element": "C" 
			},
			{
				"x": -0.2925658608,
				"y": -2.2337433547,
				"z": -0.2129085574,
				"element": "C" 
			},
			{
				"x": -0.2985188616,
				"y": -3.7261872685,
				"z": -0.4513447794,
				"element": "C" 
			},
			{
				"x": 0.9173552138,
				"y": -1.5547738021,
				"z": -0.0199115608,
				"element": "C" 
			},
			{
				"x": -2.8027073853,
				"y": 0.6590532661,
				"z": 0.1223462278,
				"element": "C" 
			},
			{
				"x": -3.7332468974,
				"y": 0.1641470513,
				"z": 1.2454167389,
				"element": "C" 
			},
			{
				"x": -3.5209425574,
				"y": 0.6438480247,
				"z": -1.2402798073,
				"element": "C" 
			},
			{
				"x": 4.1173436392,
				"y": 0.7240257804,
				"z": 2.0238014682,
				"element": "H" 
			},
			{
				"x": 5.4414994693,
				"y": 1.7999133629,
				"z": 1.545014676,
				"element": "H" 
			},
			{
				"x": 5.0827582523,
				"y": 0.3478288985,
				"z": 0.5835450183,
				"element": "H" 
			},
			{
				"x": 4.0700731014,
				"y": 2.8157831541,
				"z": -0.0570397703,
				"element": "H" 
			},
			{
				"x": -0.256059223,
				"y": 1.6062542723,
				"z": 0.4540492487,
				"element": "H" 
			},
			{
				"x": -2.4238706237,
				"y": -2.0288073394,
				"z": -0.3228532483,
				"element": "H" 
			},
			{
				"x": -1.2680150071,
				"y": -4.0659906385,
				"z": -0.8261228398,
				"element": "H" 
			},
			{
				"x": -0.0906572232,
				"y": -4.2775546479,
				"z": 0.4740277256,
				"element": "H" 
			},
			{
				"x": 0.4660933897,
				"y": -4.0186683945,
				"z": -1.1787621306,
				"element": "H" 
			},
			{
				"x": 1.8672839328,
				"y": -2.0799192949,
				"z": -0.0528323421,
				"element": "H" 
			},
			{
				"x": -2.5438503118,
				"y": 1.7021355061,
				"z": 0.3448974667,
				"element": "H" 
			},
			{
				"x": -4.0476465,
				"y": -0.8715425192,
				"z": 1.0757985271,
				"element": "H" 
			},
			{
				"x": -3.2360868004,
				"y": 0.2060076292,
				"z": 2.2196010988,
				"element": "H" 
			},
			{
				"x": -4.6375341197,
				"y": 0.7805654097,
				"z": 1.2969643134,
				"element": "H" 
			},
			{
				"x": -2.8727248927,
				"y": 1.0308099089,
				"z": -2.0323087838,
				"element": "H" 
			},
			{
				"x": -4.4260402009,
				"y": 1.2604442382,
				"z": -1.2069224033,
				"element": "H" 
			},
			{
				"x": -3.8208217356,
				"y": -0.3721589433,
				"z": -1.5199940838,
				"element": "H" 
			}
		],
		 "valence_orbital": [ 
			{
				"type": "occ",
				"energy": -0.30364,
				"method": "rhf"
			},
			{
				"type": "occ",
				"energy": -0.26999,
				"method": "rhf"
			},
			{
				"type": "occ",
				"energy": -0.2547,
				"method": "rhf"
			},
			{
				"type": "occ",
				"energy": -0.23153,
				"method": "rhf"
			},
			{
				"type": "occ",
				"energy": -0.22609,
				"method": "rhf"
			},
			{
				"type": "unocc",
				"energy": 0.00497,
				"method": "rhf"
			},
			{
				"type": "unocc",
				"energy": 0.00783,
				"method": "rhf"
			},
			{
				"type": "unocc",
				"energy": 0.05724,
				"method": "rhf"
			},
			{
				"type": "unocc",
				"energy": 0.08163,
				"method": "rhf"
			},
			{
				"type": "unocc",
				"energy": 0.09265,
				"method": "rhf"
			}
		],
		"cosmo_sigma_profile": { 
			"-0.025": 0.0,
			"-0.024": 0.0,
			"-0.023": 0.0,
			"-0.022": 0.0,
			"-0.021": 0.0,
			"-0.02": 0.0,
			"-0.019": 0.0,
			"-0.018": 0.0,
			"-0.017": 0.0,
			"-0.016": 0.0,
			"-0.015": 0.128208711104,
			"-0.014": 1.25259797448,
			"-0.013": 1.2845529856,
			"-0.012": 0.818446512815,
			"-0.011": 0.701792409167,
			"-0.01": 1.07703658711,
			"-0.009": 1.24293266724,
			"-0.008": 1.21878275711,
			"-0.007": 1.24404872736,
			"-0.006": 3.73537028263,
			"-0.005": 9.2926402519,
			"-0.004": 21.6818566312,
			"-0.003": 28.2947082677,
			"-0.002": 36.2201287767,
			"-0.001": 30.7324933353,
			"0.0": 32.5786608939,
			"0.001": 28.522654315,
			"0.002": 15.24510661,
			"0.003": 12.185576732,
			"0.004": 11.890699332,
			"0.005": 11.8753981905,
			"0.006": 6.14472867595,
			"0.007": 2.20376555954,
			"0.008": 1.44187421736,
			"0.009": 1.18658886146,
			"0.01": 1.80383259376,
			"0.011": 1.688121495,
			"0.012": 2.83587161182,
			"0.013": 5.7562538767,
			"0.014": 1.08474105157,
			"0.015": 0.0,
			"0.016": 0.0,
			"0.017": 0.0,
			"0.018": 0.0,
			"0.019": 0.0,
			"0.02": 0.0,
			"0.021": 0.0,
			"0.022": 0.0,
			"0.023": 0.0,
			"0.024": 0.0,
			"0.025": 0.0
		}
	}
}
