{
	 "smiles": "CCC(CC1=C(I)C=C(I)C(O)=C1I)C(O)=O", 
	 "Tm": 420.15, 
	 "num_atms": 28, 
	 "gaussian": { 
		 "optdone": 1, 
		 "sigma_profile": "no", 
		 "theory": "DFT", 
		 "functional": "B3LYP", 
		 "basiset": "6-31G**", 
		 "properties": { 
			 "R2extent": 5321.6778, 
			 "electric_dipole_moment_norm": 5.41959602738, 
			 "electric_quadrupole_moment_norm": 13.8850576715, 
			 "total_energy": -685.628214546, 
			 "HOMO_LUMO_gap": 0.15654, 
			 "cosmo_polarized_energy": -249980.88, 
			 "cosmo_cavitation_energy": 39.48, 
			 "cosmo_dispersion_energy": -30.5, 
			 "cosmo_repulsion_energy": 2.29, 
			 "cosmo_total_nonelectrostatic_energy": 11.28, 
			 "SMD_solvation_energy": 5.51 
		},
		"coords": [
			{
				"x": -0.0828523267,
				"y": 0.2740519958,
				"z": -2.7211977918,
				"element": "C" 
			},
			{
				"x": -1.0930486842,
				"y": -0.2092830613,
				"z": -1.6723324283,
				"element": "C" 
			},
			{
				"x": -0.5226785098,
				"y": -1.226029353,
				"z": -0.651228806,
				"element": "C" 
			},
			{
				"x": 0.2065052988,
				"y": -0.622288845,
				"z": 0.5923361791,
				"element": "C" 
			},
			{
				"x": 1.3773623143,
				"y": 0.2981433691,
				"z": 0.3203072733,
				"element": "C" 
			},
			{
				"x": 1.2757100632,
				"y": 1.7001925269,
				"z": 0.4431966632,
				"element": "C" 
			},
			{
				"x": -0.5069272817,
				"y": 2.6877923974,
				"z": 1.0829244111,
				"element": "I" 
			},
			{
				"x": 2.3504431025,
				"y": 2.5484302022,
				"z": 0.1810016,
				"element": "C" 
			},
			{
				"x": 3.5710200381,
				"y": 2.0090932482,
				"z": -0.2063887414,
				"element": "C" 
			},
			{
				"x": 5.1984387383,
				"y": 3.3085099189,
				"z": -0.6111698234,
				"element": "I" 
			},
			{
				"x": 3.7475684702,
				"y": 0.6206624036,
				"z": -0.3151619613,
				"element": "C" 
			},
			{
				"x": 4.9144613115,
				"y": 0.0451839087,
				"z": -0.6623273845,
				"element": "O" 
			},
			{
				"x": 2.6426332386,
				"y": -0.209096608,
				"z": -0.0408077651,
				"element": "C" 
			},
			{
				"x": 3.0089292738,
				"y": -2.2965520119,
				"z": -0.1576001756,
				"element": "I" 
			},
			{
				"x": -1.6111982891,
				"y": -2.1535394277,
				"z": -0.1000037109,
				"element": "C" 
			},
			{
				"x": -2.7598986419,
				"y": -1.5477237055,
				"z": 0.3138714059,
				"element": "O" 
			},
			{
				"x": -1.4893342426,
				"y": -3.3473534896,
				"z": 0.0113973348,
				"element": "O" 
			},
			{
				"x": 0.330763835,
				"y": -0.5726230495,
				"z": -3.2792143949,
				"element": "H" 
			},
			{
				"x": 0.7504576743,
				"y": 0.8197021686,
				"z": -2.2733661765,
				"element": "H" 
			},
			{
				"x": -0.5699372339,
				"y": 0.9406986121,
				"z": -3.439737694,
				"element": "H" 
			},
			{
				"x": -1.926154691,
				"y": -0.6877449525,
				"z": -2.2022403786,
				"element": "H" 
			},
			{
				"x": -1.5168100544,
				"y": 0.6609237258,
				"z": -1.1526558203,
				"element": "H" 
			},
			{
				"x": 0.1708083307,
				"y": -1.8927378173,
				"z": -1.1689789969,
				"element": "H" 
			},
			{
				"x": 0.5575427377,
				"y": -1.463819504,
				"z": 1.1977273748,
				"element": "H" 
			},
			{
				"x": -0.5248857333,
				"y": -0.0866786696,
				"z": 1.201474742,
				"element": "H" 
			},
			{
				"x": 2.2402358041,
				"y": 3.6202560101,
				"z": 0.2806708934,
				"element": "H" 
			},
			{
				"x": 5.587365334,
				"y": 0.7308220327,
				"z": -0.8062174095,
				"element": "H" 
			},
			{
				"x": -2.7232198765,
				"y": -0.5964920254,
				"z": 0.1376215815,
				"element": "H" 
			}
		],
		 "valence_orbital": [ 
			{
				"type": "occ",
				"energy": -0.28248,
				"method": "rhf"
			},
			{
				"type": "occ",
				"energy": -0.27284,
				"method": "rhf"
			},
			{
				"type": "occ",
				"energy": -0.26493,
				"method": "rhf"
			},
			{
				"type": "occ",
				"energy": -0.25517,
				"method": "rhf"
			},
			{
				"type": "occ",
				"energy": -0.24251,
				"method": "rhf"
			},
			{
				"type": "unocc",
				"energy": -0.08597,
				"method": "rhf"
			},
			{
				"type": "unocc",
				"energy": -0.05156,
				"method": "rhf"
			},
			{
				"type": "unocc",
				"energy": -0.04702,
				"method": "rhf"
			},
			{
				"type": "unocc",
				"energy": -0.03549,
				"method": "rhf"
			},
			{
				"type": "unocc",
				"energy": -0.03341,
				"method": "rhf"
			}
		],
		"cosmo_sigma_profile": { 
			"0.0": 0.0,
			"0.0": 0.0,
			"0.0": 0.0,
			"0.0": 0.0,
			"0.0": 0.0,
			"0.0": 0.0,
			"0.0": 0.0,
			"0.0": 0.0,
			"0.0": 0.0,
			"0.0": 0.0,
			"0.0": 0.0,
			"0.0": 0.0,
			"0.0": 0.0,
			"0.0": 0.0,
			"0.0": 0.0,
			"0.0": 0.0,
			"0.0": 0.0,
			"0.0": 0.0,
			"0.0": 0.0,
			"0.0": 0.0,
			"0.0": 0.0,
			"0.0": 0.0,
			"0.0": 0.0,
			"0.0": 0.0,
			"0.0": 0.0,
			"0.0": 0.0,
			"0.0": 0.0,
			"0.0": 0.0,
			"0.0": 0.0,
			"0.0": 0.0,
			"0.0": 0.0,
			"0.0": 0.0,
			"0.0": 0.0,
			"0.0": 0.0,
			"0.0": 0.0,
			"0.0": 0.0,
			"0.0": 0.0,
			"0.0": 0.0,
			"0.0": 0.0,
			"0.0": 0.0,
			"0.0": 0.0,
			"0.0": 0.0,
			"0.0": 0.0,
			"0.0": 0.0,
			"0.0": 0.0,
			"0.0": 0.0,
			"0.0": 0.0,
			"0.0": 0.0,
			"0.0": 0.0,
			"0.0": 0.0,
			"0.0": 0.0
		}
	}
}
