{
	 "smiles": "NC1CCN(C1)C1=CC=C(C=C1)C(F)(F)F", 
	 "Tm": 334.15, 
	 "num_atms": 29, 
	 "gaussian": { 
		 "optdone": 1, 
		 "sigma_profile": "yes", 
		 "theory": "DFT", 
		 "functional": "B3LYP", 
		 "basiset": "6-31G**", 
		 "properties": { 
			 "R2extent": 5764.6002, 
			 "electric_dipole_moment_norm": 6.20952118685, 
			 "electric_quadrupole_moment_norm": 9.4382339063, 
			 "total_energy": -836.035582175, 
			 "HOMO_LUMO_gap": 0.19437, 
			 "cosmo_polarized_energy": -10.14, 
			 "cosmo_cavitation_energy": 32.57, 
			 "cosmo_dispersion_energy": -23.52, 
			 "cosmo_repulsion_energy": 1.77, 
			 "cosmo_total_nonelectrostatic_energy": 10.83, 
			 "SMD_solvation_energy": 4.25 
		},
		"coords": [
			{
				"x": -1.9645347881,
				"y": 2.3027600088,
				"z": 4.1988030685,
				"element": "N" 
			},
			{
				"x": -1.4414575046,
				"y": 2.2532875293,
				"z": 2.8402381128,
				"element": "C" 
			},
			{
				"x": -0.1634779904,
				"y": 3.0574367163,
				"z": 2.5116918246,
				"element": "C" 
			},
			{
				"x": 0.3660179646,
				"y": 2.3920956468,
				"z": 1.2361455097,
				"element": "C" 
			},
			{
				"x": -0.0822010416,
				"y": 1.0036434411,
				"z": 1.3624525645,
				"element": "N" 
			},
			{
				"x": -1.0473096881,
				"y": 0.8203734628,
				"z": 2.4394505951,
				"element": "C" 
			},
			{
				"x": 0.3568508505,
				"y": -0.0120378053,
				"z": 0.5478933274,
				"element": "C" 
			},
			{
				"x": -0.0246280107,
				"y": -1.355113149,
				"z": 0.7824935538,
				"element": "C" 
			},
			{
				"x": 0.4235859999,
				"y": -2.375663036,
				"z": -0.0445987122,
				"element": "C" 
			},
			{
				"x": 1.2624177504,
				"y": -2.1048222793,
				"z": -1.1304422695,
				"element": "C" 
			},
			{
				"x": 1.6461342945,
				"y": -0.7821329806,
				"z": -1.372520143,
				"element": "C" 
			},
			{
				"x": 1.2038309915,
				"y": 0.2496672913,
				"z": -0.5559429256,
				"element": "C" 
			},
			{
				"x": 1.7916302246,
				"y": -3.2176505961,
				"z": -1.9789918344,
				"element": "C" 
			},
			{
				"x": 2.0389547557,
				"y": -2.8155554503,
				"z": -3.2488851897,
				"element": "F" 
			},
			{
				"x": 0.929722197,
				"y": -4.2605703581,
				"z": -2.045686729,
				"element": "F" 
			},
			{
				"x": 2.9610991946,
				"y": -3.7200370018,
				"z": -1.5044193158,
				"element": "F" 
			},
			{
				"x": -1.2204798308,
				"y": 2.1121985144,
				"z": 4.8675455768,
				"element": "H" 
			},
			{
				"x": -2.3151213959,
				"y": 3.2332796842,
				"z": 4.4098574028,
				"element": "H" 
			},
			{
				"x": -2.2447041115,
				"y": 2.5874642625,
				"z": 2.1711711018,
				"element": "H" 
			},
			{
				"x": -0.348467844,
				"y": 4.1282387219,
				"z": 2.3854536571,
				"element": "H" 
			},
			{
				"x": 0.5585937272,
				"y": 2.9337360209,
				"z": 3.3290425104,
				"element": "H" 
			},
			{
				"x": -0.0488172421,
				"y": 2.865177615,
				"z": 0.3320239214,
				"element": "H" 
			},
			{
				"x": 1.4587544209,
				"y": 2.4481990334,
				"z": 1.160181886,
				"element": "H" 
			},
			{
				"x": -0.6072616486,
				"y": 0.2911420003,
				"z": 3.3015210832,
				"element": "H" 
			},
			{
				"x": -1.9168324366,
				"y": 0.2403468679,
				"z": 2.1108786495,
				"element": "H" 
			},
			{
				"x": -0.6681013574,
				"y": -1.5983382374,
				"z": 1.6198480684,
				"element": "H" 
			},
			{
				"x": 0.1141795652,
				"y": -3.3969463598,
				"z": 0.1526495368,
				"element": "H" 
			},
			{
				"x": 2.2873511978,
				"y": -0.5559395888,
				"z": -2.2183056676,
				"element": "H" 
			},
			{
				"x": 1.503371756,
				"y": 1.2661600256,
				"z": -0.7825491636,
				"element": "H" 
			}
		],
		 "valence_orbital": [ 
			{
				"type": "occ",
				"energy": -0.34053,
				"method": "rhf"
			},
			{
				"type": "occ",
				"energy": -0.29148,
				"method": "rhf"
			},
			{
				"type": "occ",
				"energy": -0.25314,
				"method": "rhf"
			},
			{
				"type": "occ",
				"energy": -0.24799,
				"method": "rhf"
			},
			{
				"type": "occ",
				"energy": -0.19655,
				"method": "rhf"
			},
			{
				"type": "unocc",
				"energy": -0.00218,
				"method": "rhf"
			},
			{
				"type": "unocc",
				"energy": 0.00087,
				"method": "rhf"
			},
			{
				"type": "unocc",
				"energy": 0.06378,
				"method": "rhf"
			},
			{
				"type": "unocc",
				"energy": 0.08691,
				"method": "rhf"
			},
			{
				"type": "unocc",
				"energy": 0.09765,
				"method": "rhf"
			}
		],
		"cosmo_sigma_profile": { 
			"-0.025": 0.0,
			"-0.024": 0.0,
			"-0.023": 0.0,
			"-0.022": 0.0,
			"-0.021": 0.0,
			"-0.02": 0.0,
			"-0.019": 0.0,
			"-0.018": 0.0,
			"-0.017": 0.0,
			"-0.016": 0.0,
			"-0.015": 0.0,
			"-0.014": 0.0,
			"-0.013": 0.0,
			"-0.012": 0.0,
			"-0.011": 0.00950808213421,
			"-0.01": 1.16641899883,
			"-0.009": 2.85293863086,
			"-0.008": 3.20935037883,
			"-0.007": 3.60094752467,
			"-0.006": 8.44556183452,
			"-0.005": 13.0306756316,
			"-0.004": 26.0426054691,
			"-0.003": 29.3076949752,
			"-0.002": 23.0214526125,
			"-0.001": 14.7585631097,
			"0.0": 12.826310172,
			"0.001": 13.1221621465,
			"0.002": 17.2881862021,
			"0.003": 34.6740206102,
			"0.004": 29.0500267111,
			"0.005": 11.617268187,
			"0.006": 4.66193231268,
			"0.007": 0.324843923558,
			"0.008": 0.600429224428,
			"0.009": 1.08213962759,
			"0.01": 0.608630616163,
			"0.011": 0.548779312303,
			"0.012": 0.748797952918,
			"0.013": 0.742226407601,
			"0.014": 0.529093408272,
			"0.015": 0.337438227896,
			"0.016": 0.786367844679,
			"0.017": 0.656664335657,
			"0.018": 0.420691681786,
			"0.019": 0.471830299462,
			"0.02": 0.0339954672454,
			"0.021": 0.0,
			"0.022": 0.0,
			"0.023": 0.0,
			"0.024": 0.0,
			"0.025": 0.0
		}
	}
}
