{
	 "smiles": "ClC1=CC(Cl)=C2CCC(=O)C2=C1", 
	 "Tm": 383.15, 
	 "num_atms": 18, 
	 "gaussian": { 
		 "optdone": 1, 
		 "sigma_profile": "yes", 
		 "theory": "DFT", 
		 "functional": "B3LYP", 
		 "basiset": "6-31G**", 
		 "properties": { 
			 "R2extent": 4229.0399, 
			 "electric_dipole_moment_norm": 2.39121732597, 
			 "electric_quadrupole_moment_norm": 10.2835307842, 
			 "total_energy": -1342.19125222, 
			 "HOMO_LUMO_gap": 0.18355, 
			 "cosmo_polarized_energy": -7.8, 
			 "cosmo_cavitation_energy": 25.78, 
			 "cosmo_dispersion_energy": -19.3, 
			 "cosmo_repulsion_energy": 1.54, 
			 "cosmo_total_nonelectrostatic_energy": 8.02, 
			 "SMD_solvation_energy": 3.99 
		},
		"coords": [
			{
				"x": 1.0173702155,
				"y": 1.4517288633,
				"z": -2.287703091,
				"element": "Cl" 
			},
			{
				"x": 0.025333916,
				"y": 1.5145736421,
				"z": -0.8418427554,
				"element": "C" 
			},
			{
				"x": -1.3565108969,
				"y": 1.7021933153,
				"z": -0.9855666451,
				"element": "C" 
			},
			{
				"x": -2.163485092,
				"y": 1.7551579398,
				"z": 0.1510757573,
				"element": "C" 
			},
			{
				"x": -3.8928769747,
				"y": 1.9901522049,
				"z": -0.0334350298,
				"element": "Cl" 
			},
			{
				"x": -1.6061581367,
				"y": 1.6232689278,
				"z": 1.4224118793,
				"element": "C" 
			},
			{
				"x": -2.2769061933,
				"y": 1.6483054996,
				"z": 2.7783725316,
				"element": "C" 
			},
			{
				"x": -1.1186884352,
				"y": 1.4502628382,
				"z": 3.7858199479,
				"element": "C" 
			},
			{
				"x": 0.1663427878,
				"y": 1.3203443853,
				"z": 2.9529863147,
				"element": "C" 
			},
			{
				"x": 1.2899678437,
				"y": 1.153308758,
				"z": 3.3817934858,
				"element": "O" 
			},
			{
				"x": -0.2244936603,
				"y": 1.4377906702,
				"z": 1.5207920973,
				"element": "C" 
			},
			{
				"x": 0.6166250299,
				"y": 1.3791185751,
				"z": 0.4096536825,
				"element": "C" 
			},
			{
				"x": -1.7937690527,
				"y": 1.8051918697,
				"z": -1.9714779892,
				"element": "H" 
			},
			{
				"x": -3.0333700673,
				"y": 0.8592898121,
				"z": 2.851639936,
				"element": "H" 
			},
			{
				"x": -2.8064136399,
				"y": 2.5949859996,
				"z": 2.9318798379,
				"element": "H" 
			},
			{
				"x": -1.0091810712,
				"y": 2.2898715198,
				"z": 4.4794652451,
				"element": "H" 
			},
			{
				"x": -1.236794969,
				"y": 0.5516424507,
				"z": 4.3995043102,
				"element": "H" 
			},
			{
				"x": 1.6843083963,
				"y": 1.2337127288,
				"z": 0.5299304849,
				"element": "H" 
			}
		],
		 "valence_orbital": [ 
			{
				"type": "occ",
				"energy": -0.32609,
				"method": "rhf"
			},
			{
				"type": "occ",
				"energy": -0.32454,
				"method": "rhf"
			},
			{
				"type": "occ",
				"energy": -0.2741,
				"method": "rhf"
			},
			{
				"type": "occ",
				"energy": -0.25936,
				"method": "rhf"
			},
			{
				"type": "occ",
				"energy": -0.25711,
				"method": "rhf"
			},
			{
				"type": "unocc",
				"energy": -0.07356,
				"method": "rhf"
			},
			{
				"type": "unocc",
				"energy": -0.03416,
				"method": "rhf"
			},
			{
				"type": "unocc",
				"energy": 0.00037,
				"method": "rhf"
			},
			{
				"type": "unocc",
				"energy": 0.02503,
				"method": "rhf"
			},
			{
				"type": "unocc",
				"energy": 0.03996,
				"method": "rhf"
			}
		],
		"cosmo_sigma_profile": { 
			"-0.025": 0.0,
			"-0.024": 0.0,
			"-0.023": 0.0,
			"-0.022": 0.0,
			"-0.021": 0.0,
			"-0.02": 0.0,
			"-0.019": 0.0,
			"-0.018": 0.0,
			"-0.017": 0.0,
			"-0.016": 0.0,
			"-0.015": 0.0,
			"-0.014": 0.0,
			"-0.013": 0.0,
			"-0.012": 0.0,
			"-0.011": 0.0,
			"-0.01": 0.0170024297062,
			"-0.009": 0.92133963139,
			"-0.008": 2.57247911465,
			"-0.007": 3.33339239077,
			"-0.006": 11.0749602848,
			"-0.005": 17.9241593456,
			"-0.004": 12.5812566539,
			"-0.003": 14.5221200919,
			"-0.002": 17.0917395787,
			"-0.001": 17.7619045133,
			"0.0": 27.2036257526,
			"0.001": 19.6907318964,
			"0.002": 11.6465359383,
			"0.003": 17.2715878862,
			"0.004": 16.5669845602,
			"0.005": 3.86062291929,
			"0.006": 1.11198354852,
			"0.007": 1.55903016494,
			"0.008": 1.39714255592,
			"0.009": 1.69926220283,
			"0.01": 2.42312830892,
			"0.011": 3.75736044335,
			"0.012": 4.2986404118,
			"0.013": 0.865016365837,
			"0.014": 0.0,
			"0.015": 0.0,
			"0.016": 0.0,
			"0.017": 0.0,
			"0.018": 0.0,
			"0.019": 0.0,
			"0.02": 0.0,
			"0.021": 0.0,
			"0.022": 0.0,
			"0.023": 0.0,
			"0.024": 0.0,
			"0.025": 0.0
		}
	}
}
