{
	 "smiles": "CC(C)(C)C1=CSC(=N1)C1=CC=C(C=O)C=C1", 
	 "Tm": 379.15, 
	 "num_atms": 32, 
	 "gaussian": { 
		 "optdone": 1, 
		 "sigma_profile": "yes", 
		 "theory": "DFT", 
		 "functional": "B3LYP", 
		 "basiset": "6-31G**", 
		 "properties": { 
			 "R2extent": 6767.6558, 
			 "electric_dipole_moment_norm": 4.14980679068, 
			 "electric_quadrupole_moment_norm": 16.0933067326, 
			 "total_energy": -1070.70255048, 
			 "HOMO_LUMO_gap": 0.14762, 
			 "cosmo_polarized_energy": -9.57, 
			 "cosmo_cavitation_energy": 36.88, 
			 "cosmo_dispersion_energy": -26.27, 
			 "cosmo_repulsion_energy": 1.97, 
			 "cosmo_total_nonelectrostatic_energy": 12.57, 
			 "SMD_solvation_energy": 6.55 
		},
		"coords": [
			{
				"x": 0.4303478918,
				"y": -1.6819109161,
				"z": 2.9351441955,
				"element": "C" 
			},
			{
				"x": 1.7016241129,
				"y": -1.7620302339,
				"z": 2.0595452342,
				"element": "C" 
			},
			{
				"x": 1.5705676662,
				"y": -2.9444396002,
				"z": 1.0727425494,
				"element": "C" 
			},
			{
				"x": 2.9310329243,
				"y": -1.9776357646,
				"z": 2.9585485937,
				"element": "C" 
			},
			{
				"x": 1.8253620087,
				"y": -0.4717970914,
				"z": 1.2608173948,
				"element": "C" 
			},
			{
				"x": 2.8636459471,
				"y": 0.4239166812,
				"z": 1.2885284346,
				"element": "C" 
			},
			{
				"x": 2.5669035125,
				"y": 1.7457859624,
				"z": 0.211902315,
				"element": "S" 
			},
			{
				"x": 1.0272572397,
				"y": 0.9983692032,
				"z": -0.2224993664,
				"element": "C" 
			},
			{
				"x": 0.8043151166,
				"y": -0.1268581191,
				"z": 0.4032912792,
				"element": "N" 
			},
			{
				"x": 0.09928323,
				"y": 1.593500577,
				"z": -1.1921709054,
				"element": "C" 
			},
			{
				"x": -1.1090648919,
				"y": 0.9241169671,
				"z": -1.4784439975,
				"element": "C" 
			},
			{
				"x": -2.0079839897,
				"y": 1.4573116525,
				"z": -2.3882441441,
				"element": "C" 
			},
			{
				"x": -1.7253956924,
				"y": 2.6714145027,
				"z": -3.0359532665,
				"element": "C" 
			},
			{
				"x": -2.6819654755,
				"y": 3.244099091,
				"z": -4.0075458889,
				"element": "C" 
			},
			{
				"x": -3.7444261109,
				"y": 2.7358350443,
				"z": -4.3134132004,
				"element": "O" 
			},
			{
				"x": -0.5265879412,
				"y": 3.339311334,
				"z": -2.7545268809,
				"element": "C" 
			},
			{
				"x": 0.3780629627,
				"y": 2.8077663111,
				"z": -1.8423334356,
				"element": "C" 
			},
			{
				"x": 0.2896938327,
				"y": -2.6181678615,
				"z": 3.4864384678,
				"element": "H" 
			},
			{
				"x": -0.4545382497,
				"y": -1.5066478749,
				"z": 2.3179347439,
				"element": "H" 
			},
			{
				"x": 0.504200908,
				"y": -0.8665633213,
				"z": 3.6626516273,
				"element": "H" 
			},
			{
				"x": 2.4687478566,
				"y": -3.0419114647,
				"z": 0.453649005,
				"element": "H" 
			},
			{
				"x": 1.4317378395,
				"y": -3.8827363575,
				"z": 1.6210331244,
				"element": "H" 
			},
			{
				"x": 0.7145530143,
				"y": -2.8012306101,
				"z": 0.4083338778,
				"element": "H" 
			},
			{
				"x": 2.8218181499,
				"y": -2.9088392787,
				"z": 3.5233341101,
				"element": "H" 
			},
			{
				"x": 3.0495089454,
				"y": -1.163671271,
				"z": 3.68199531,
				"element": "H" 
			},
			{
				"x": 3.8523871526,
				"y": -2.0531627063,
				"z": 2.3708591591,
				"element": "H" 
			},
			{
				"x": 3.772652192,
				"y": 0.3863493902,
				"z": 1.8695792731,
				"element": "H" 
			},
			{
				"x": -1.313236583,
				"y": -0.0116272481,
				"z": -0.9708602185,
				"element": "H" 
			},
			{
				"x": -2.9414272117,
				"y": 0.9534241992,
				"z": -2.6182991867,
				"element": "H" 
			},
			{
				"x": -2.3588146169,
				"y": 4.2078921579,
				"z": -4.4613004489,
				"element": "H" 
			},
			{
				"x": -0.3049500644,
				"y": 4.2793794043,
				"z": -3.2542599083,
				"element": "H" 
			},
			{
				"x": 1.3028883238,
				"y": 3.3385572413,
				"z": -1.6355778467,
				"element": "H" 
			}
		],
		 "valence_orbital": [ 
			{
				"type": "occ",
				"energy": -0.27943,
				"method": "rhf"
			},
			{
				"type": "occ",
				"energy": -0.27847,
				"method": "rhf"
			},
			{
				"type": "occ",
				"energy": -0.26908,
				"method": "rhf"
			},
			{
				"type": "occ",
				"energy": -0.25569,
				"method": "rhf"
			},
			{
				"type": "occ",
				"energy": -0.22945,
				"method": "rhf"
			},
			{
				"type": "unocc",
				"energy": -0.08183,
				"method": "rhf"
			},
			{
				"type": "unocc",
				"energy": -0.02165,
				"method": "rhf"
			},
			{
				"type": "unocc",
				"energy": -0.01741,
				"method": "rhf"
			},
			{
				"type": "unocc",
				"energy": 0.0131,
				"method": "rhf"
			},
			{
				"type": "unocc",
				"energy": 0.03318,
				"method": "rhf"
			}
		],
		"cosmo_sigma_profile": { 
			"-0.025": 0.0,
			"-0.024": 0.0,
			"-0.023": 0.0,
			"-0.022": 0.0,
			"-0.021": 0.0,
			"-0.02": 0.0,
			"-0.019": 0.0,
			"-0.018": 0.0,
			"-0.017": 0.0,
			"-0.016": 0.0,
			"-0.015": 0.0,
			"-0.014": 0.0,
			"-0.013": 0.0,
			"-0.012": 0.0,
			"-0.011": 0.0,
			"-0.01": 0.0,
			"-0.009": 0.573498789835,
			"-0.008": 3.71828507913,
			"-0.007": 8.73370591466,
			"-0.006": 11.4572165731,
			"-0.005": 11.4110625846,
			"-0.004": 12.0735842939,
			"-0.003": 24.2634845344,
			"-0.002": 29.1322403553,
			"-0.001": 29.1541523056,
			"0.0": 31.0718932145,
			"0.001": 42.9360747965,
			"0.002": 36.2463398006,
			"0.003": 19.9344017944,
			"0.004": 5.50290779803,
			"0.005": 4.89965112574,
			"0.006": 3.87717351251,
			"0.007": 4.17938856293,
			"0.008": 2.58574506466,
			"0.009": 2.60347052983,
			"0.01": 2.54162689437,
			"0.011": 4.1130028357,
			"0.012": 2.97874409881,
			"0.013": 0.643194484706,
			"0.014": 0.0,
			"0.015": 0.0,
			"0.016": 0.0,
			"0.017": 0.0,
			"0.018": 0.0,
			"0.019": 0.0,
			"0.02": 0.0,
			"0.021": 0.0,
			"0.022": 0.0,
			"0.023": 0.0,
			"0.024": 0.0,
			"0.025": 0.0
		}
	}
}
