{
	 "smiles": "CCOC(=O)C1=CC2=C(NC1=O)C1=CC=CC=C1OC2=O", 
	 "Tm": 587.15, 
	 "num_atms": 32, 
	 "gaussian": { 
		 "optdone": 1, 
		 "sigma_profile": "yes", 
		 "theory": "DFT", 
		 "functional": "B3LYP", 
		 "basiset": "6-31G**", 
		 "properties": { 
			 "R2extent": 8263.693, 
			 "electric_dipole_moment_norm": 6.18904623589, 
			 "electric_quadrupole_moment_norm": 26.3840703607, 
			 "total_energy": -1009.14341183, 
			 "HOMO_LUMO_gap": 0.1445, 
			 "cosmo_polarized_energy": -23.29, 
			 "cosmo_cavitation_energy": 37.55, 
			 "cosmo_dispersion_energy": -27.48, 
			 "cosmo_repulsion_energy": 2.06, 
			 "cosmo_total_nonelectrostatic_energy": 12.13, 
			 "SMD_solvation_energy": 8.89 
		},
		"coords": [
			{
				"x": -0.349551662,
				"y": 3.338462388,
				"z": -5.2281604893,
				"element": "C" 
			},
			{
				"x": -0.961450508,
				"y": 3.7582300036,
				"z": -3.905522906,
				"element": "C" 
			},
			{
				"x": -0.624495954,
				"y": 2.7399078744,
				"z": -2.9350232211,
				"element": "O" 
			},
			{
				"x": -1.0859027661,
				"y": 2.944639987,
				"z": -1.6943608574,
				"element": "C" 
			},
			{
				"x": -1.7488607862,
				"y": 3.9141456417,
				"z": -1.3698950991,
				"element": "O" 
			},
			{
				"x": -0.7117999104,
				"y": 1.865888865,
				"z": -0.7284840012,
				"element": "C" 
			},
			{
				"x": -1.1528635933,
				"y": 2.0176036534,
				"z": 0.5614711884,
				"element": "C" 
			},
			{
				"x": -0.875671891,
				"y": 1.0755711074,
				"z": 1.5872410732,
				"element": "C" 
			},
			{
				"x": -0.1243029574,
				"y": -0.0530421075,
				"z": 1.2765701839,
				"element": "C" 
			},
			{
				"x": 0.3076275684,
				"y": -0.19613993,
				"z": 0.0005380648,
				"element": "N" 
			},
			{
				"x": 0.0831020049,
				"y": 0.6899875518,
				"z": -1.0964365369,
				"element": "C" 
			},
			{
				"x": 0.5596555033,
				"y": 0.3807169119,
				"z": -2.1751882562,
				"element": "O" 
			},
			{
				"x": 0.1776605053,
				"y": -1.0359203455,
				"z": 2.300650709,
				"element": "C" 
			},
			{
				"x": 0.9277244918,
				"y": -2.2108761712,
				"z": 2.0958869211,
				"element": "C" 
			},
			{
				"x": 1.1650453197,
				"y": -3.092744321,
				"z": 3.1390571458,
				"element": "C" 
			},
			{
				"x": 0.6543903071,
				"y": -2.8167804663,
				"z": 4.4164672739,
				"element": "C" 
			},
			{
				"x": -0.0881339943,
				"y": -1.6659191263,
				"z": 4.6457135129,
				"element": "C" 
			},
			{
				"x": -0.3254782169,
				"y": -0.7789609755,
				"z": 3.5916337927,
				"element": "C" 
			},
			{
				"x": -1.0606069795,
				"y": 0.3295245145,
				"z": 3.8860915687,
				"element": "O" 
			},
			{
				"x": -1.3788963901,
				"y": 1.3043950202,
				"z": 2.9390833362,
				"element": "C" 
			},
			{
				"x": -2.035899608,
				"y": 2.2475337842,
				"z": 3.3054319714,
				"element": "O" 
			},
			{
				"x": 0.7371575521,
				"y": 3.2509414088,
				"z": -5.1443690026,
				"element": "H" 
			},
			{
				"x": -0.580096731,
				"y": 4.0837087483,
				"z": -5.9960041939,
				"element": "H" 
			},
			{
				"x": -0.7461806802,
				"y": 2.3722559546,
				"z": -5.5517970688,
				"element": "H" 
			},
			{
				"x": -2.0512693078,
				"y": 3.845062751,
				"z": -3.9614850215,
				"element": "H" 
			},
			{
				"x": -0.5739630774,
				"y": 4.7204990974,
				"z": -3.5558608499,
				"element": "H" 
			},
			{
				"x": -1.7395016318,
				"y": 2.8965109759,
				"z": 0.8087027033,
				"element": "H" 
			},
			{
				"x": 0.8575501335,
				"y": -1.0019075076,
				"z": -0.2706884006,
				"element": "H" 
			},
			{
				"x": 1.3301946742,
				"y": -2.4395600921,
				"z": 1.1134871416,
				"element": "H" 
			},
			{
				"x": 1.7444525693,
				"y": -3.9932907787,
				"z": 2.96551322,
				"element": "H" 
			},
			{
				"x": 0.8392140899,
				"y": -3.506124959,
				"z": 5.2344346435,
				"element": "H" 
			},
			{
				"x": -0.4939480741,
				"y": -1.4291194582,
				"z": 5.6229014543,
				"element": "H" 
			}
		],
		 "valence_orbital": [ 
			{
				"type": "occ",
				"energy": -0.29023,
				"method": "rhf"
			},
			{
				"type": "occ",
				"energy": -0.27364,
				"method": "rhf"
			},
			{
				"type": "occ",
				"energy": -0.26773,
				"method": "rhf"
			},
			{
				"type": "occ",
				"energy": -0.2663,
				"method": "rhf"
			},
			{
				"type": "occ",
				"energy": -0.23805,
				"method": "rhf"
			},
			{
				"type": "unocc",
				"energy": -0.09355,
				"method": "rhf"
			},
			{
				"type": "unocc",
				"energy": -0.05102,
				"method": "rhf"
			},
			{
				"type": "unocc",
				"energy": -0.02988,
				"method": "rhf"
			},
			{
				"type": "unocc",
				"energy": -0.01245,
				"method": "rhf"
			},
			{
				"type": "unocc",
				"energy": 0.01595,
				"method": "rhf"
			}
		],
		"cosmo_sigma_profile": { 
			"-0.025": 0.0,
			"-0.024": 0.0,
			"-0.023": 0.0,
			"-0.022": 0.0,
			"-0.021": 0.0,
			"-0.02": 0.0,
			"-0.019": 0.0,
			"-0.018": 0.307594590551,
			"-0.017": 1.13867928737,
			"-0.016": 0.600831314208,
			"-0.015": 1.14337201527,
			"-0.014": 1.37078729161,
			"-0.013": 1.194703284,
			"-0.012": 0.947614268146,
			"-0.011": 1.12931864964,
			"-0.01": 1.35807352716,
			"-0.009": 1.73613527208,
			"-0.008": 3.03507906182,
			"-0.007": 9.38279672109,
			"-0.006": 12.6515241046,
			"-0.005": 19.2559444136,
			"-0.004": 28.2409107416,
			"-0.003": 32.1546343346,
			"-0.002": 28.6549825771,
			"-0.001": 25.0590892139,
			"0.0": 23.0276778576,
			"0.001": 17.1915905217,
			"0.002": 14.826103796,
			"0.003": 10.127760522,
			"0.004": 5.7891890944,
			"0.005": 4.28544550573,
			"0.006": 5.97064051812,
			"0.007": 4.77418998864,
			"0.008": 6.37519664507,
			"0.009": 4.34713987541,
			"0.01": 6.95761527837,
			"0.011": 10.3647320643,
			"0.012": 10.7991019514,
			"0.013": 4.53531964132,
			"0.014": 2.43862738138,
			"0.015": 0.468052265205,
			"0.016": 0.0,
			"0.017": 0.0,
			"0.018": 0.0,
			"0.019": 0.0,
			"0.02": 0.0,
			"0.021": 0.0,
			"0.022": 0.0,
			"0.023": 0.0,
			"0.024": 0.0,
			"0.025": 0.0
		}
	}
}
