{
	 "smiles": "CN1C=C(CO)N=N1", 
	 "Tm": 303.15, 
	 "num_atms": 15, 
	 "gaussian": { 
		 "optdone": 1, 
		 "sigma_profile": "yes", 
		 "theory": "DFT", 
		 "functional": "B3LYP", 
		 "basiset": "6-31G**", 
		 "properties": { 
			 "R2extent": 1284.816, 
			 "electric_dipole_moment_norm": 3.41249026079, 
			 "electric_quadrupole_moment_norm": 13.8546927043, 
			 "total_energy": -396.065078097, 
			 "HOMO_LUMO_gap": 0.24612, 
			 "cosmo_polarized_energy": -14.87, 
			 "cosmo_cavitation_energy": 19.15, 
			 "cosmo_dispersion_energy": -14.43, 
			 "cosmo_repulsion_energy": 1.23, 
			 "cosmo_total_nonelectrostatic_energy": 5.95, 
			 "SMD_solvation_energy": 2.5 
		},
		"coords": [
			{
				"x": -0.0943003395,
				"y": -0.8120802269,
				"z": -1.6856112537,
				"element": "C" 
			},
			{
				"x": -0.2942510769,
				"y": -0.1371328055,
				"z": -0.4142873756,
				"element": "N" 
			},
			{
				"x": 0.3146709004,
				"y": 0.9770934627,
				"z": 0.0724269641,
				"element": "C" 
			},
			{
				"x": -0.2605577494,
				"y": 1.159130914,
				"z": 1.3102647488,
				"element": "C" 
			},
			{
				"x": 0.0048817809,
				"y": 2.2276334925,
				"z": 2.3237189627,
				"element": "C" 
			},
			{
				"x": 1.0035179807,
				"y": 3.0893000387,
				"z": 1.7937021441,
				"element": "O" 
			},
			{
				"x": -1.1731756844,
				"y": 0.1676078849,
				"z": 1.5137826139,
				"element": "N" 
			},
			{
				"x": -1.1934400179,
				"y": -0.6178558361,
				"z": 0.4682333728,
				"element": "N" 
			},
			{
				"x": 0.2358453247,
				"y": -1.8393638098,
				"z": -1.5149955942,
				"element": "H" 
			},
			{
				"x": -1.0285053541,
				"y": -0.826242393,
				"z": -2.2517162823,
				"element": "H" 
			},
			{
				"x": 0.6664384152,
				"y": -0.2760375267,
				"z": -2.2540239123,
				"element": "H" 
			},
			{
				"x": 1.0687280682,
				"y": 1.5276185061,
				"z": -0.4651769557,
				"element": "H" 
			},
			{
				"x": 0.3269848561,
				"y": 1.7626692153,
				"z": 3.269003371,
				"element": "H" 
			},
			{
				"x": -0.9302872305,
				"y": 2.7694319219,
				"z": 2.5368407579,
				"element": "H" 
			},
			{
				"x": 1.1779501267,
				"y": 3.779927162,
				"z": 2.4437384385,
				"element": "H" 
			}
		],
		 "valence_orbital": [ 
			{
				"type": "occ",
				"energy": -0.31452,
				"method": "rhf"
			},
			{
				"type": "occ",
				"energy": -0.2871,
				"method": "rhf"
			},
			{
				"type": "occ",
				"energy": -0.27282,
				"method": "rhf"
			},
			{
				"type": "occ",
				"energy": -0.25708,
				"method": "rhf"
			},
			{
				"type": "occ",
				"energy": -0.24061,
				"method": "rhf"
			},
			{
				"type": "unocc",
				"energy": 0.00551,
				"method": "rhf"
			},
			{
				"type": "unocc",
				"energy": 0.05816,
				"method": "rhf"
			},
			{
				"type": "unocc",
				"energy": 0.069,
				"method": "rhf"
			},
			{
				"type": "unocc",
				"energy": 0.09403,
				"method": "rhf"
			},
			{
				"type": "unocc",
				"energy": 0.12041,
				"method": "rhf"
			}
		],
		"cosmo_sigma_profile": { 
			"-0.025": 0.0,
			"-0.024": 0.0,
			"-0.023": 0.0,
			"-0.022": 0.0,
			"-0.021": 0.0,
			"-0.02": 0.0,
			"-0.019": 0.0,
			"-0.018": 0.0,
			"-0.017": 0.0836527545522,
			"-0.016": 1.09796558868,
			"-0.015": 1.02450923648,
			"-0.014": 1.11714970835,
			"-0.013": 0.673633037733,
			"-0.012": 0.989136556729,
			"-0.011": 0.882520911487,
			"-0.01": 2.12804333033,
			"-0.009": 3.53383457448,
			"-0.008": 3.87574436327,
			"-0.007": 7.40442053007,
			"-0.006": 8.64927735341,
			"-0.005": 12.4012820035,
			"-0.004": 16.2607239713,
			"-0.003": 11.7226711922,
			"-0.002": 5.74604792202,
			"-0.001": 5.18163127432,
			"0.0": 5.36151427385,
			"0.001": 6.17302507056,
			"0.002": 7.33391605611,
			"0.003": 6.05175373338,
			"0.004": 4.47521116128,
			"0.005": 3.54208645476,
			"0.006": 3.49610162387,
			"0.007": 3.1295970189,
			"0.008": 3.56539581476,
			"0.009": 3.04793027591,
			"0.01": 5.06667917732,
			"0.011": 5.27918880324,
			"0.012": 4.93114380225,
			"0.013": 2.78405659931,
			"0.014": 2.09617248783,
			"0.015": 1.43610385191,
			"0.016": 0.786771500068,
			"0.017": 0.245191753728,
			"0.018": 0.0,
			"0.019": 0.0,
			"0.02": 0.0,
			"0.021": 0.0,
			"0.022": 0.0,
			"0.023": 0.0,
			"0.024": 0.0,
			"0.025": 0.0
		}
	}
}
