{
	 "smiles": "OCC1=CC2=C(OCO2)C=C1[N+]([O-])=O", 
	 "Tm": 396.15, 
	 "num_atms": 21, 
	 "gaussian": { 
		 "optdone": 1, 
		 "sigma_profile": "yes", 
		 "theory": "DFT", 
		 "functional": "B3LYP", 
		 "basiset": "6-31G**", 
		 "properties": { 
			 "R2extent": 3010.6289, 
			 "electric_dipole_moment_norm": 5.27349539679, 
			 "electric_quadrupole_moment_norm": 9.37326671817, 
			 "total_energy": -739.800460472, 
			 "HOMO_LUMO_gap": 0.14413, 
			 "cosmo_polarized_energy": -12.6, 
			 "cosmo_cavitation_energy": 25.42, 
			 "cosmo_dispersion_energy": -19.56, 
			 "cosmo_repulsion_energy": 1.52, 
			 "cosmo_total_nonelectrostatic_energy": 7.38, 
			 "SMD_solvation_energy": 6.89 
		},
		"coords": [
			{
				"x": -0.7719416564,
				"y": 2.5239607794,
				"z": -1.2703051991,
				"element": "O" 
			},
			{
				"x": -0.4931130809,
				"y": 2.3724946472,
				"z": 0.1062210384,
				"element": "C" 
			},
			{
				"x": -0.1356646209,
				"y": 0.9403744723,
				"z": 0.4937491611,
				"element": "C" 
			},
			{
				"x": 1.2237315551,
				"y": 0.6583665186,
				"z": 0.7361872741,
				"element": "C" 
			},
			{
				"x": 1.5891617206,
				"y": -0.6255593607,
				"z": 1.0889260457,
				"element": "C" 
			},
			{
				"x": 0.6499778452,
				"y": -1.6492968907,
				"z": 1.2213399892,
				"element": "C" 
			},
			{
				"x": 1.2790425909,
				"y": -2.8115770568,
				"z": 1.5792836273,
				"element": "O" 
			},
			{
				"x": 2.6749958236,
				"y": -2.5008309097,
				"z": 1.6628321252,
				"element": "C" 
			},
			{
				"x": 2.8350495645,
				"y": -1.1036485003,
				"z": 1.3578253307,
				"element": "O" 
			},
			{
				"x": -0.6866250791,
				"y": -1.4277383742,
				"z": 1.0055182061,
				"element": "C" 
			},
			{
				"x": -1.0580260116,
				"y": -0.1176355226,
				"z": 0.630330366,
				"element": "C" 
			},
			{
				"x": -2.4914129261,
				"y": 0.0746475528,
				"z": 0.4068113936,
				"element": "N" 
			},
			{
				"x": -2.8778168212,
				"y": 1.0877710669,
				"z": -0.19540547,
				"element": "O" 
			},
			{
				"x": -3.2603666388,
				"y": -0.7901244392,
				"z": 0.8237340098,
				"element": "O" 
			},
			{
				"x": -1.6405284233,
				"y": 2.1126452174,
				"z": -1.3960934279,
				"element": "H" 
			},
			{
				"x": 0.3763397108,
				"y": 3.0026217045,
				"z": 0.3154890315,
				"element": "H" 
			},
			{
				"x": -1.3204212426,
				"y": 2.7301093173,
				"z": 0.732449973,
				"element": "H" 
			},
			{
				"x": 1.9684747078,
				"y": 1.44047823,
				"z": 0.6433012726,
				"element": "H" 
			},
			{
				"x": 3.2306917363,
				"y": -3.0961230382,
				"z": 0.9295160966,
				"element": "H" 
			},
			{
				"x": 3.0349821774,
				"y": -2.6919538934,
				"z": 2.6797433256,
				"element": "H" 
			},
			{
				"x": -1.4357309312,
				"y": -2.1999815206,
				"z": 1.1096458303,
				"element": "H" 
			}
		],
		 "valence_orbital": [ 
			{
				"type": "occ",
				"energy": -0.31164,
				"method": "rhf"
			},
			{
				"type": "occ",
				"energy": -0.29577,
				"method": "rhf"
			},
			{
				"type": "occ",
				"energy": -0.27705,
				"method": "rhf"
			},
			{
				"type": "occ",
				"energy": -0.26648,
				"method": "rhf"
			},
			{
				"type": "occ",
				"energy": -0.23762,
				"method": "rhf"
			},
			{
				"type": "unocc",
				"energy": -0.09349,
				"method": "rhf"
			},
			{
				"type": "unocc",
				"energy": -0.02635,
				"method": "rhf"
			},
			{
				"type": "unocc",
				"energy": -0.00076,
				"method": "rhf"
			},
			{
				"type": "unocc",
				"energy": 0.0738,
				"method": "rhf"
			},
			{
				"type": "unocc",
				"energy": 0.08426,
				"method": "rhf"
			}
		],
		"cosmo_sigma_profile": { 
			"-0.025": 0.0,
			"-0.024": 0.0,
			"-0.023": 0.0,
			"-0.022": 0.0,
			"-0.021": 0.0,
			"-0.02": 0.0,
			"-0.019": 0.0,
			"-0.018": 0.0,
			"-0.017": 0.0,
			"-0.016": 0.0,
			"-0.015": 0.0,
			"-0.014": 0.0,
			"-0.013": 0.0,
			"-0.012": 0.0,
			"-0.011": 0.0,
			"-0.01": 0.13213608549,
			"-0.009": 3.88810943918,
			"-0.008": 11.9648985503,
			"-0.007": 11.8535988879,
			"-0.006": 12.2640149841,
			"-0.005": 11.8366240206,
			"-0.004": 12.0867713987,
			"-0.003": 12.3535799407,
			"-0.002": 13.5163816222,
			"-0.001": 14.7196824226,
			"0.0": 17.3141269352,
			"0.001": 13.0036066387,
			"0.002": 7.63626222496,
			"0.003": 5.45092457733,
			"0.004": 6.54559048767,
			"0.005": 5.92202512207,
			"0.006": 7.08393783603,
			"0.007": 8.81088595732,
			"0.008": 9.1789885596,
			"0.009": 6.02381433188,
			"0.01": 4.27277306456,
			"0.011": 1.70901914819,
			"0.012": 1.39423944067,
			"0.013": 1.63084654856,
			"0.014": 2.43445194824,
			"0.015": 0.382519589264,
			"0.016": 0.0,
			"0.017": 0.0,
			"0.018": 0.0,
			"0.019": 0.0,
			"0.02": 0.0,
			"0.021": 0.0,
			"0.022": 0.0,
			"0.023": 0.0,
			"0.024": 0.0,
			"0.025": 0.0
		}
	}
}
