{
	 "smiles": "CCOC(=O)NC1=CC=C(C=C1)C(O)=O", 
	 "Tm": 444.15, 
	 "num_atms": 26, 
	 "gaussian": { 
		 "optdone": 1, 
		 "sigma_profile": "yes", 
		 "theory": "DFT", 
		 "functional": "B3LYP", 
		 "basiset": "6-31G**", 
		 "properties": { 
			 "R2extent": 5839.1497, 
			 "electric_dipole_moment_norm": 4.97655070305, 
			 "electric_quadrupole_moment_norm": 27.3163418751, 
			 "total_energy": -743.377663263, 
			 "HOMO_LUMO_gap": 0.18757, 
			 "cosmo_polarized_energy": -19.82, 
			 "cosmo_cavitation_energy": 30.95, 
			 "cosmo_dispersion_energy": -22.55, 
			 "cosmo_repulsion_energy": 1.77, 
			 "cosmo_total_nonelectrostatic_energy": 10.17, 
			 "SMD_solvation_energy": 7.74 
		},
		"coords": [
			{
				"x": -4.5219416959,
				"y": -1.1679122336,
				"z": -1.8563971428,
				"element": "C" 
			},
			{
				"x": -4.0147952837,
				"y": -0.6403524995,
				"z": -0.5243057241,
				"element": "C" 
			},
			{
				"x": -2.6926769407,
				"y": -1.1578580982,
				"z": -0.2178600771,
				"element": "O" 
			},
			{
				"x": -2.663434437,
				"y": -2.3751253664,
				"z": 0.3592543986,
				"element": "C" 
			},
			{
				"x": -3.6423452934,
				"y": -3.0397013757,
				"z": 0.6436409367,
				"element": "O" 
			},
			{
				"x": -1.3830820789,
				"y": -2.8291467537,
				"z": 0.617455484,
				"element": "N" 
			},
			{
				"x": -0.1008764346,
				"y": -2.3001969609,
				"z": 0.4114379555,
				"element": "C" 
			},
			{
				"x": 0.9832177661,
				"y": -3.1102805823,
				"z": 0.8057097863,
				"element": "C" 
			},
			{
				"x": 2.2889970686,
				"y": -2.6778408392,
				"z": 0.6468517356,
				"element": "C" 
			},
			{
				"x": 2.5642600025,
				"y": -1.428412596,
				"z": 0.0717534617,
				"element": "C" 
			},
			{
				"x": 1.4836912141,
				"y": -0.620256632,
				"z": -0.3046599316,
				"element": "C" 
			},
			{
				"x": 0.165266207,
				"y": -1.0370219915,
				"z": -0.142202894,
				"element": "C" 
			},
			{
				"x": 3.9956187229,
				"y": -1.0231507803,
				"z": -0.0655662828,
				"element": "C" 
			},
			{
				"x": 4.2676092013,
				"y": -0.0021310734,
				"z": -0.9254475475,
				"element": "O" 
			},
			{
				"x": 4.8984835717,
				"y": -1.5534982169,
				"z": 0.5400144596,
				"element": "O" 
			},
			{
				"x": -3.8197116897,
				"y": -0.9361818852,
				"z": -2.6626131455,
				"element": "H" 
			},
			{
				"x": -4.6672229869,
				"y": -2.2496426978,
				"z": -1.809137291,
				"element": "H" 
			},
			{
				"x": -5.4840072835,
				"y": -0.7023577928,
				"z": -2.0946487808,
				"element": "H" 
			},
			{
				"x": -3.8753102678,
				"y": 0.4427909538,
				"z": -0.544874889,
				"element": "H" 
			},
			{
				"x": -4.6895260186,
				"y": -0.9056183954,
				"z": 0.2919032019,
				"element": "H" 
			},
			{
				"x": -1.4171465351,
				"y": -3.7434641299,
				"z": 1.046929899,
				"element": "H" 
			},
			{
				"x": 0.788816488,
				"y": -4.0865378072,
				"z": 1.2430633293,
				"element": "H" 
			},
			{
				"x": 3.1216579836,
				"y": -3.2974137779,
				"z": 0.9615474469,
				"element": "H" 
			},
			{
				"x": 1.6496341301,
				"y": 0.3791544596,
				"z": -0.700816419,
				"element": "H" 
			},
			{
				"x": -0.6485115982,
				"y": -0.389925221,
				"z": -0.432344359,
				"element": "H" 
			},
			{
				"x": 3.4865361881,
				"y": 0.2026822933,
				"z": -1.4571876109,
				"element": "H" 
			}
		],
		 "valence_orbital": [ 
			{
				"type": "occ",
				"energy": -0.3089,
				"method": "rhf"
			},
			{
				"type": "occ",
				"energy": -0.29305,
				"method": "rhf"
			},
			{
				"type": "occ",
				"energy": -0.27458,
				"method": "rhf"
			},
			{
				"type": "occ",
				"energy": -0.26976,
				"method": "rhf"
			},
			{
				"type": "occ",
				"energy": -0.23707,
				"method": "rhf"
			},
			{
				"type": "unocc",
				"energy": -0.0495,
				"method": "rhf"
			},
			{
				"type": "unocc",
				"energy": -0.0237,
				"method": "rhf"
			},
			{
				"type": "unocc",
				"energy": 0.0288,
				"method": "rhf"
			},
			{
				"type": "unocc",
				"energy": 0.05846,
				"method": "rhf"
			},
			{
				"type": "unocc",
				"energy": 0.06777,
				"method": "rhf"
			}
		],
		"cosmo_sigma_profile": { 
			"-0.025": 0.0,
			"-0.024": 0.0,
			"-0.023": 0.0,
			"-0.022": 0.0,
			"-0.021": 0.0,
			"-0.02": 0.0,
			"-0.019": 0.0754054110628,
			"-0.018": 0.9640484774,
			"-0.017": 0.843815444475,
			"-0.016": 0.980556309566,
			"-0.015": 2.1627253413,
			"-0.014": 2.52236332571,
			"-0.013": 1.72335874053,
			"-0.012": 2.05000096307,
			"-0.011": 2.23603412668,
			"-0.01": 3.24977647134,
			"-0.009": 2.31565612291,
			"-0.008": 2.65335144437,
			"-0.007": 3.71543582835,
			"-0.006": 8.93870623895,
			"-0.005": 12.4760509023,
			"-0.004": 17.3118902099,
			"-0.003": 17.4818529712,
			"-0.002": 19.1294531516,
			"-0.001": 21.3765440452,
			"0.0": 20.9912886917,
			"0.001": 16.2646545075,
			"0.002": 14.1246322481,
			"0.003": 18.8864020828,
			"0.004": 7.04456966538,
			"0.005": 4.0788802484,
			"0.006": 3.26457412804,
			"0.007": 3.59066296593,
			"0.008": 3.23938685535,
			"0.009": 5.7223783033,
			"0.01": 5.27329963317,
			"0.011": 6.82386954585,
			"0.012": 10.2783175184,
			"0.013": 4.3157596453,
			"0.014": 0.297910261043,
			"0.015": 0.0,
			"0.016": 0.0,
			"0.017": 0.0,
			"0.018": 0.0,
			"0.019": 0.0,
			"0.02": 0.0,
			"0.021": 0.0,
			"0.022": 0.0,
			"0.023": 0.0,
			"0.024": 0.0,
			"0.025": 0.0
		}
	}
}
