{
	 "smiles": "ClCC1=CC2=CC=CC=C2N=C1Cl", 
	 "Tm": 387.15, 
	 "num_atms": 20, 
	 "gaussian": { 
		 "optdone": 1, 
		 "sigma_profile": "yes", 
		 "theory": "DFT", 
		 "functional": "B3LYP", 
		 "basiset": "6-31G**", 
		 "properties": { 
			 "R2extent": 4098.704, 
			 "electric_dipole_moment_norm": 4.37109575621, 
			 "electric_quadrupole_moment_norm": 15.232517675, 
			 "total_energy": -1360.43270863, 
			 "HOMO_LUMO_gap": 0.17518, 
			 "cosmo_polarized_energy": -10.07, 
			 "cosmo_cavitation_energy": 27.7, 
			 "cosmo_dispersion_energy": -20.6, 
			 "cosmo_repulsion_energy": 1.62, 
			 "cosmo_total_nonelectrostatic_energy": 8.72, 
			 "SMD_solvation_energy": 2.43 
		},
		"coords": [
			{
				"x": 1.4697771306,
				"y": 2.2026319413,
				"z": -3.8640084058,
				"element": "Cl" 
			},
			{
				"x": 1.2964973421,
				"y": 2.651587719,
				"z": -2.0957210331,
				"element": "C" 
			},
			{
				"x": 0.3896910896,
				"y": 1.7153867571,
				"z": -1.3605020166,
				"element": "C" 
			},
			{
				"x": -0.9498960032,
				"y": 2.0053729388,
				"z": -1.2064219564,
				"element": "C" 
			},
			{
				"x": -1.8162527225,
				"y": 1.1249871968,
				"z": -0.513854502,
				"element": "C" 
			},
			{
				"x": -3.2006344043,
				"y": 1.3723517607,
				"z": -0.3263752862,
				"element": "C" 
			},
			{
				"x": -3.9792994871,
				"y": 0.4659141144,
				"z": 0.3589901383,
				"element": "C" 
			},
			{
				"x": -3.4066513229,
				"y": -0.7192542412,
				"z": 0.8836241671,
				"element": "C" 
			},
			{
				"x": -2.0646773336,
				"y": -0.9861850266,
				"z": 0.718363998,
				"element": "C" 
			},
			{
				"x": -1.2414992303,
				"y": -0.0707225474,
				"z": 0.0164462084,
				"element": "C" 
			},
			{
				"x": 0.0862776697,
				"y": -0.3562681287,
				"z": -0.1323673224,
				"element": "N" 
			},
			{
				"x": 0.8339899971,
				"y": 0.484534079,
				"z": -0.7792853628,
				"element": "C" 
			},
			{
				"x": 2.541261675,
				"y": 0.0511345549,
				"z": -0.9248825816,
				"element": "Cl" 
			},
			{
				"x": 0.8973875614,
				"y": 3.6656095053,
				"z": -2.088330989,
				"element": "H" 
			},
			{
				"x": 2.3072406619,
				"y": 2.649592711,
				"z": -1.6924204459,
				"element": "H" 
			},
			{
				"x": -1.3516484695,
				"y": 2.9242223362,
				"z": -1.6275552118,
				"element": "H" 
			},
			{
				"x": -3.6348711894,
				"y": 2.282311148,
				"z": -0.7318765949,
				"element": "H" 
			},
			{
				"x": -5.0388452072,
				"y": 0.6566672316,
				"z": 0.5000203573,
				"element": "H" 
			},
			{
				"x": -4.0358379013,
				"y": -1.4224687628,
				"z": 1.4211755241,
				"element": "H" 
			},
			{
				"x": -1.6044098562,
				"y": -1.8865052877,
				"z": 1.1110813153,
				"element": "H" 
			}
		],
		 "valence_orbital": [ 
			{
				"type": "occ",
				"energy": -0.30148,
				"method": "rhf"
			},
			{
				"type": "occ",
				"energy": -0.29749,
				"method": "rhf"
			},
			{
				"type": "occ",
				"energy": -0.27827,
				"method": "rhf"
			},
			{
				"type": "occ",
				"energy": -0.25865,
				"method": "rhf"
			},
			{
				"type": "occ",
				"energy": -0.24698,
				"method": "rhf"
			},
			{
				"type": "unocc",
				"energy": -0.0718,
				"method": "rhf"
			},
			{
				"type": "unocc",
				"energy": -0.04141,
				"method": "rhf"
			},
			{
				"type": "unocc",
				"energy": 0.00406,
				"method": "rhf"
			},
			{
				"type": "unocc",
				"energy": 0.02077,
				"method": "rhf"
			},
			{
				"type": "unocc",
				"energy": 0.02997,
				"method": "rhf"
			}
		],
		"cosmo_sigma_profile": { 
			"-0.025": 0.0,
			"-0.024": 0.0,
			"-0.023": 0.0,
			"-0.022": 0.0,
			"-0.021": 0.0,
			"-0.02": 0.0,
			"-0.019": 0.0,
			"-0.018": 0.0,
			"-0.017": 0.0,
			"-0.016": 0.0,
			"-0.015": 0.0,
			"-0.014": 0.0,
			"-0.013": 0.0,
			"-0.012": 0.0,
			"-0.011": 0.0,
			"-0.01": 0.29648935366,
			"-0.009": 3.35202409838,
			"-0.008": 6.55675236721,
			"-0.007": 9.58148371597,
			"-0.006": 13.6456230593,
			"-0.005": 14.4922390106,
			"-0.004": 11.4437196186,
			"-0.003": 9.34733465638,
			"-0.002": 11.9994430448,
			"-0.001": 15.1608070809,
			"0.0": 18.0078766678,
			"0.001": 20.7719037705,
			"0.002": 21.0198045801,
			"0.003": 20.728854407,
			"0.004": 15.859488794,
			"0.005": 11.3860932733,
			"0.006": 12.8303210759,
			"0.007": 3.97900743206,
			"0.008": 1.65351231306,
			"0.009": 1.38635517865,
			"0.01": 0.890758716893,
			"0.011": 1.12616376087,
			"0.012": 0.743776886569,
			"0.013": 0.763179531235,
			"0.014": 0.21287086412,
			"0.015": 0.0,
			"0.016": 0.0,
			"0.017": 0.0,
			"0.018": 0.0,
			"0.019": 0.0,
			"0.02": 0.0,
			"0.021": 0.0,
			"0.022": 0.0,
			"0.023": 0.0,
			"0.024": 0.0,
			"0.025": 0.0
		}
	}
}
