{
	 "smiles": "CC(CC(O)=O)C(=O)C1=CC=C(Cl)C=C1", 
	 "Tm": 347.15, 
	 "num_atms": 26, 
	 "gaussian": { 
		 "optdone": 1, 
		 "sigma_profile": "yes", 
		 "theory": "DFT", 
		 "functional": "B3LYP", 
		 "basiset": "6-31G**", 
		 "properties": { 
			 "R2extent": 5934.3028, 
			 "electric_dipole_moment_norm": 6.11501604495, 
			 "electric_quadrupole_moment_norm": 25.3276121555, 
			 "total_energy": -1111.68755691, 
			 "HOMO_LUMO_gap": 0.15922, 
			 "cosmo_polarized_energy": -15.98, 
			 "cosmo_cavitation_energy": 31.62, 
			 "cosmo_dispersion_energy": -22.81, 
			 "cosmo_repulsion_energy": 1.77, 
			 "cosmo_total_nonelectrostatic_energy": 10.58, 
			 "SMD_solvation_energy": 6.38 
		},
		"coords": [
			{
				"x": 1.1364056986,
				"y": -2.3464751145,
				"z": -0.9561830685,
				"element": "C" 
			},
			{
				"x": 1.0128258544,
				"y": -0.8390268272,
				"z": -0.6284226615,
				"element": "C" 
			},
			{
				"x": 2.0554420715,
				"y": 0.0171222678,
				"z": -1.3935035407,
				"element": "C" 
			},
			{
				"x": 2.3044238058,
				"y": -0.3608891636,
				"z": -2.8594208115,
				"element": "C" 
			},
			{
				"x": 1.2502098521,
				"y": -0.263213687,
				"z": -3.6857324935,
				"element": "O" 
			},
			{
				"x": 3.3902143487,
				"y": -0.7183663549,
				"z": -3.2557771243,
				"element": "O" 
			},
			{
				"x": -0.4227725016,
				"y": -0.3755280686,
				"z": -0.8639124948,
				"element": "C" 
			},
			{
				"x": -0.7372706007,
				"y": 0.1844409319,
				"z": -1.9167676027,
				"element": "O" 
			},
			{
				"x": -1.4725987285,
				"y": -0.6185769907,
				"z": 0.1684185565,
				"element": "C" 
			},
			{
				"x": -1.2112601785,
				"y": -1.2107862993,
				"z": 1.4153625725,
				"element": "C" 
			},
			{
				"x": -2.2343672431,
				"y": -1.4128433218,
				"z": 2.338185556,
				"element": "C" 
			},
			{
				"x": -3.5321641472,
				"y": -1.0164822347,
				"z": 2.0121156798,
				"element": "C" 
			},
			{
				"x": -4.8213690741,
				"y": -1.2650247016,
				"z": 3.1685174259,
				"element": "Cl" 
			},
			{
				"x": -3.8203717007,
				"y": -0.4245399705,
				"z": 0.779083663,
				"element": "C" 
			},
			{
				"x": -2.7907223006,
				"y": -0.2311815986,
				"z": -0.1326894175,
				"element": "C" 
			},
			{
				"x": 0.8843999122,
				"y": -2.5347618083,
				"z": -2.0036457148,
				"element": "H" 
			},
			{
				"x": 0.4736334641,
				"y": -2.9513108968,
				"z": -0.3314610799,
				"element": "H" 
			},
			{
				"x": 2.1654678121,
				"y": -2.6780959948,
				"z": -0.7922009801,
				"element": "H" 
			},
			{
				"x": 1.2312061928,
				"y": -0.7067655019,
				"z": 0.4368671836,
				"element": "H" 
			},
			{
				"x": 1.7666239964,
				"y": 1.0740185909,
				"z": -1.3454653356,
				"element": "H" 
			},
			{
				"x": 3.0212638491,
				"y": -0.0861974218,
				"z": -0.8958189083,
				"element": "H" 
			},
			{
				"x": 0.4592020629,
				"y": 0.024304604,
				"z": -3.1743453013,
				"element": "H" 
			},
			{
				"x": -0.2080895707,
				"y": -1.522972055,
				"z": 1.6830273423,
				"element": "H" 
			},
			{
				"x": -2.0313499418,
				"y": -1.8698902878,
				"z": 3.2999475357,
				"element": "H" 
			},
			{
				"x": -4.8355551297,
				"y": -0.1243897833,
				"z": 0.5450596549,
				"element": "H" 
			},
			{
				"x": -2.9870278039,
				"y": 0.2245316881,
				"z": -1.096838635,
				"element": "H" 
			}
		],
		 "valence_orbital": [ 
			{
				"type": "occ",
				"energy": -0.29385,
				"method": "rhf"
			},
			{
				"type": "occ",
				"energy": -0.29187,
				"method": "rhf"
			},
			{
				"type": "occ",
				"energy": -0.28653,
				"method": "rhf"
			},
			{
				"type": "occ",
				"energy": -0.27507,
				"method": "rhf"
			},
			{
				"type": "occ",
				"energy": -0.25106,
				"method": "rhf"
			},
			{
				"type": "unocc",
				"energy": -0.09184,
				"method": "rhf"
			},
			{
				"type": "unocc",
				"energy": -0.04074,
				"method": "rhf"
			},
			{
				"type": "unocc",
				"energy": 0.00433,
				"method": "rhf"
			},
			{
				"type": "unocc",
				"energy": 0.00901,
				"method": "rhf"
			},
			{
				"type": "unocc",
				"energy": 0.02287,
				"method": "rhf"
			}
		],
		"cosmo_sigma_profile": { 
			"-0.025": 0.0,
			"-0.024": 0.0,
			"-0.023": 0.0,
			"-0.022": 0.0,
			"-0.021": 0.0,
			"-0.02": 0.0,
			"-0.019": 0.0,
			"-0.018": 0.0,
			"-0.017": 0.0,
			"-0.016": 0.0,
			"-0.015": 0.0,
			"-0.014": 0.0,
			"-0.013": 0.0,
			"-0.012": 0.0,
			"-0.011": 0.0,
			"-0.01": 0.304326418771,
			"-0.009": 1.64128797619,
			"-0.008": 5.39877028055,
			"-0.007": 12.0764773539,
			"-0.006": 15.245531364,
			"-0.005": 18.6361584565,
			"-0.004": 19.7867920362,
			"-0.003": 20.1904087104,
			"-0.002": 17.092599812,
			"-0.001": 20.2694690743,
			"0.0": 20.1140878401,
			"0.001": 22.5203958959,
			"0.002": 18.6141696776,
			"0.003": 10.6511285266,
			"0.004": 12.2422736257,
			"0.005": 4.19284276462,
			"0.006": 3.27995451452,
			"0.007": 3.47218219173,
			"0.008": 3.44706218585,
			"0.009": 3.79922839592,
			"0.01": 2.93378627644,
			"0.011": 4.85648375972,
			"0.012": 6.93252051299,
			"0.013": 4.83102645885,
			"0.014": 1.44045813039,
			"0.015": 0.00170513521564,
			"0.016": 0.0,
			"0.017": 0.0,
			"0.018": 0.0,
			"0.019": 0.0,
			"0.02": 0.0,
			"0.021": 0.0,
			"0.022": 0.0,
			"0.023": 0.0,
			"0.024": 0.0,
			"0.025": 0.0
		}
	}
}
