{
	 "smiles": "COC(=O)C1=NC=C(C=C1)C(O)=O", 
	 "Tm": 484.15, 
	 "num_atms": 20, 
	 "gaussian": { 
		 "optdone": 1, 
		 "sigma_profile": "yes", 
		 "theory": "DFT", 
		 "functional": "B3LYP", 
		 "basiset": "6-31G**", 
		 "properties": { 
			 "R2extent": 3349.974, 
			 "electric_dipole_moment_norm": 3.04031701801, 
			 "electric_quadrupole_moment_norm": 19.3514565286, 
			 "total_energy": -664.719170754, 
			 "HOMO_LUMO_gap": 0.18807, 
			 "cosmo_polarized_energy": -19.75, 
			 "cosmo_cavitation_energy": 25.93, 
			 "cosmo_dispersion_energy": -19.08, 
			 "cosmo_repulsion_energy": 1.51, 
			 "cosmo_total_nonelectrostatic_energy": 8.36, 
			 "SMD_solvation_energy": 6.15 
		},
		"coords": [
			{
				"x": 0.1112840689,
				"y": 2.4883129956,
				"z": 3.1247836576,
				"element": "C" 
			},
			{
				"x": -0.3024467608,
				"y": 1.5850937311,
				"z": 2.0855990992,
				"element": "O" 
			},
			{
				"x": 0.6896335192,
				"y": 0.8407684171,
				"z": 1.5454879764,
				"element": "C" 
			},
			{
				"x": 1.8466986364,
				"y": 0.9075726748,
				"z": 1.8874080679,
				"element": "O" 
			},
			{
				"x": 0.1589127213,
				"y": -0.0726893905,
				"z": 0.4677014604,
				"element": "C" 
			},
			{
				"x": 1.0730433488,
				"y": -0.8651279578,
				"z": -0.1084656765,
				"element": "N" 
			},
			{
				"x": 0.6621577557,
				"y": -1.6804771096,
				"z": -1.077325613,
				"element": "C" 
			},
			{
				"x": -0.6631273588,
				"y": -1.7521688192,
				"z": -1.5320667109,
				"element": "C" 
			},
			{
				"x": -1.610694479,
				"y": -0.9399273748,
				"z": -0.9005556029,
				"element": "C" 
			},
			{
				"x": -1.1968968403,
				"y": -0.0814058702,
				"z": 0.1107597981,
				"element": "C" 
			},
			{
				"x": -1.1267353991,
				"y": -2.6788573001,
				"z": -2.6172720621,
				"element": "C" 
			},
			{
				"x": -0.1794484486,
				"y": -3.1753947898,
				"z": -3.4515968974,
				"element": "O" 
			},
			{
				"x": -2.286296175,
				"y": -2.9851885971,
				"z": -2.760192535,
				"element": "O" 
			},
			{
				"x": 0.8436448409,
				"y": 3.2027499398,
				"z": 2.741125911,
				"element": "H" 
			},
			{
				"x": -0.794620842,
				"y": 3.0011143824,
				"z": 3.4468086446,
				"element": "H" 
			},
			{
				"x": 0.5583556754,
				"y": 1.9364662196,
				"z": 3.9551331476,
				"element": "H" 
			},
			{
				"x": 1.4337176736,
				"y": -2.3314178511,
				"z": -1.4905036511,
				"element": "H" 
			},
			{
				"x": -2.6472492326,
				"y": -0.9984865431,
				"z": -1.2151870444,
				"element": "H" 
			},
			{
				"x": -1.8962327086,
				"y": 0.5698561445,
				"z": 0.6195446099,
				"element": "H" 
			},
			{
				"x": 0.6710000046,
				"y": -2.7363929019,
				"z": -3.3112865795,
				"element": "H" 
			}
		],
		 "valence_orbital": [ 
			{
				"type": "occ",
				"energy": -0.31023,
				"method": "rhf"
			},
			{
				"type": "occ",
				"energy": -0.29922,
				"method": "rhf"
			},
			{
				"type": "occ",
				"energy": -0.28999,
				"method": "rhf"
			},
			{
				"type": "occ",
				"energy": -0.28503,
				"method": "rhf"
			},
			{
				"type": "occ",
				"energy": -0.2769,
				"method": "rhf"
			},
			{
				"type": "unocc",
				"energy": -0.08883,
				"method": "rhf"
			},
			{
				"type": "unocc",
				"energy": -0.05,
				"method": "rhf"
			},
			{
				"type": "unocc",
				"energy": -0.00288,
				"method": "rhf"
			},
			{
				"type": "unocc",
				"energy": 0.05012,
				"method": "rhf"
			},
			{
				"type": "unocc",
				"energy": 0.06422,
				"method": "rhf"
			}
		],
		"cosmo_sigma_profile": { 
			"-0.025": 0.0,
			"-0.024": 0.0,
			"-0.023": 0.0,
			"-0.022": 0.0,
			"-0.021": 0.0,
			"-0.02": 0.191021291308,
			"-0.019": 1.04514400603,
			"-0.018": 1.01079728347,
			"-0.017": 1.44464614829,
			"-0.016": 0.816285483932,
			"-0.015": 0.807070124083,
			"-0.014": 1.4033369009,
			"-0.013": 1.22418037052,
			"-0.012": 0.969104350592,
			"-0.011": 1.34451585814,
			"-0.01": 1.35762800717,
			"-0.009": 1.80978623874,
			"-0.008": 4.31253531051,
			"-0.007": 7.20027804036,
			"-0.006": 11.2758232032,
			"-0.005": 13.1534037894,
			"-0.004": 18.2297961842,
			"-0.003": 16.7511321621,
			"-0.002": 17.3356321832,
			"-0.001": 16.0927950112,
			"0.0": 11.1272898049,
			"0.001": 7.47777904044,
			"0.002": 6.85018924152,
			"0.003": 4.89717349591,
			"0.004": 5.38076219342,
			"0.005": 5.43387375086,
			"0.006": 4.36577351181,
			"0.007": 5.04401430059,
			"0.008": 4.19990393942,
			"0.009": 6.1884224516,
			"0.01": 8.5646695611,
			"0.011": 9.90311560759,
			"0.012": 5.0699619219,
			"0.013": 1.77000022876,
			"0.014": 1.27910294154,
			"0.015": 1.51663175928,
			"0.016": 0.972355250945,
			"0.017": 0.317566023074,
			"0.018": 0.0,
			"0.019": 0.0,
			"0.02": 0.0,
			"0.021": 0.0,
			"0.022": 0.0,
			"0.023": 0.0,
			"0.024": 0.0,
			"0.025": 0.0
		}
	}
}
