{
	 "smiles": "CN(C1=CC(Cl)=CC=C1)S(=O)(=O)C1=CC(=CC=C1)C(O)=O", 
	 "Tm": 436.15, 
	 "num_atms": 33, 
	 "gaussian": { 
		 "optdone": 1, 
		 "sigma_profile": "yes", 
		 "theory": "DFT", 
		 "functional": "B3LYP", 
		 "basiset": "6-31G**", 
		 "properties": { 
			 "R2extent": 9782.1409, 
			 "electric_dipole_moment_norm": 4.7313927104, 
			 "electric_quadrupole_moment_norm": 35.2857451197, 
			 "total_energy": -1754.67575049, 
			 "HOMO_LUMO_gap": 0.18566, 
			 "cosmo_polarized_energy": -23.52, 
			 "cosmo_cavitation_energy": 41.38, 
			 "cosmo_dispersion_energy": -28.65, 
			 "cosmo_repulsion_energy": 2.16, 
			 "cosmo_total_nonelectrostatic_energy": 14.89, 
			 "SMD_solvation_energy": 6.98 
		},
		"coords": [
			{
				"x": -1.2126358132,
				"y": 0.4348995522,
				"z": -0.5143212907,
				"element": "C" 
			},
			{
				"x": -0.2291378192,
				"y": -0.6558514123,
				"z": -0.3762462402,
				"element": "N" 
			},
			{
				"x": -0.7960247238,
				"y": -1.9881969084,
				"z": -0.3963289834,
				"element": "C" 
			},
			{
				"x": -1.6197463503,
				"y": -2.4396380008,
				"z": 0.6418555881,
				"element": "C" 
			},
			{
				"x": -2.1718650704,
				"y": -3.7156340027,
				"z": 0.5554055628,
				"element": "C" 
			},
			{
				"x": -3.2046760415,
				"y": -4.2925294637,
				"z": 1.8533841762,
				"element": "Cl" 
			},
			{
				"x": -1.9235558792,
				"y": -4.5428908888,
				"z": -0.5405379111,
				"element": "C" 
			},
			{
				"x": -1.0997860413,
				"y": -4.0771942403,
				"z": -1.5655836908,
				"element": "C" 
			},
			{
				"x": -0.5325818648,
				"y": -2.8047403944,
				"z": -1.4971537848,
				"element": "C" 
			},
			{
				"x": 0.9194610334,
				"y": -0.4078203716,
				"z": 0.8756809756,
				"element": "S" 
			},
			{
				"x": 1.7028068558,
				"y": -1.6407071765,
				"z": 0.9569640334,
				"element": "O" 
			},
			{
				"x": 0.2721432022,
				"y": 0.1656935274,
				"z": 2.0638814809,
				"element": "O" 
			},
			{
				"x": 1.9524958809,
				"y": 0.8750819566,
				"z": 0.1550666028,
				"element": "C" 
			},
			{
				"x": 2.8764677022,
				"y": 0.5170437506,
				"z": -0.827980924,
				"element": "C" 
			},
			{
				"x": 3.7079951281,
				"y": 1.4982293226,
				"z": -1.3756373905,
				"element": "C" 
			},
			{
				"x": 3.6187029386,
				"y": 2.8186776818,
				"z": -0.9060945854,
				"element": "C" 
			},
			{
				"x": 2.6995363047,
				"y": 3.1596006636,
				"z": 0.0810909176,
				"element": "C" 
			},
			{
				"x": 1.8560117553,
				"y": 2.18487658,
				"z": 0.6225429272,
				"element": "C" 
			},
			{
				"x": 4.7417427733,
				"y": 1.2097809275,
				"z": -2.4291216082,
				"element": "C" 
			},
			{
				"x": 4.6249706022,
				"y": 0.0428008707,
				"z": -3.1105391013,
				"element": "O" 
			},
			{
				"x": 5.6458603739,
				"y": 1.9704773816,
				"z": -2.6798479073,
				"element": "O" 
			},
			{
				"x": -1.8923807939,
				"y": 0.510438753,
				"z": 0.3422032789,
				"element": "H" 
			},
			{
				"x": -0.6874978929,
				"y": 1.3854965625,
				"z": -0.6365089048,
				"element": "H" 
			},
			{
				"x": -1.7910460424,
				"y": 0.2450262673,
				"z": -1.4207167521,
				"element": "H" 
			},
			{
				"x": -1.813484287,
				"y": -1.8133182893,
				"z": 1.5055153917,
				"element": "H" 
			},
			{
				"x": -2.3664008502,
				"y": -5.5314654404,
				"z": -0.5851715311,
				"element": "H" 
			},
			{
				"x": -0.8981914806,
				"y": -4.7152038154,
				"z": -2.4204650427,
				"element": "H" 
			},
			{
				"x": 0.1113186864,
				"y": -2.4332413051,
				"z": -2.286722281,
				"element": "H" 
			},
			{
				"x": 2.9549892237,
				"y": -0.5304682921,
				"z": -1.1045137639,
				"element": "H" 
			},
			{
				"x": 4.2910875867,
				"y": 3.5568628076,
				"z": -1.3293683899,
				"element": "H" 
			},
			{
				"x": 2.641571001,
				"y": 4.1823368074,
				"z": 0.4398084812,
				"element": "H" 
			},
			{
				"x": 1.1463109883,
				"y": 2.4209244798,
				"z": 1.4079515662,
				"element": "H" 
			},
			{
				"x": 3.7888389137,
				"y": -0.3966478903,
				"z": -2.9045908993,
				"element": "H" 
			}
		],
		 "valence_orbital": [ 
			{
				"type": "occ",
				"energy": -0.29579,
				"method": "rhf"
			},
			{
				"type": "occ",
				"energy": -0.28483,
				"method": "rhf"
			},
			{
				"type": "occ",
				"energy": -0.27416,
				"method": "rhf"
			},
			{
				"type": "occ",
				"energy": -0.2712,
				"method": "rhf"
			},
			{
				"type": "occ",
				"energy": -0.25856,
				"method": "rhf"
			},
			{
				"type": "unocc",
				"energy": -0.0729,
				"method": "rhf"
			},
			{
				"type": "unocc",
				"energy": -0.06056,
				"method": "rhf"
			},
			{
				"type": "unocc",
				"energy": -0.03257,
				"method": "rhf"
			},
			{
				"type": "unocc",
				"energy": -0.02706,
				"method": "rhf"
			},
			{
				"type": "unocc",
				"energy": 0.01951,
				"method": "rhf"
			}
		],
		"cosmo_sigma_profile": { 
			"-0.025": 0.0,
			"-0.024": 0.0,
			"-0.023": 0.0,
			"-0.022": 0.0,
			"-0.021": 0.0,
			"-0.02": 0.155831415019,
			"-0.019": 1.1888816901,
			"-0.018": 1.03022248765,
			"-0.017": 1.19138285051,
			"-0.016": 0.695737230324,
			"-0.015": 0.746290205584,
			"-0.014": 1.2455984751,
			"-0.013": 1.00122853712,
			"-0.012": 1.0934478909,
			"-0.011": 1.45158829113,
			"-0.01": 0.591103302436,
			"-0.009": 1.28020256452,
			"-0.008": 5.08830126984,
			"-0.007": 14.9107320953,
			"-0.006": 18.9506112987,
			"-0.005": 20.6646985675,
			"-0.004": 20.7984466259,
			"-0.003": 24.3746079849,
			"-0.002": 19.8852031734,
			"-0.001": 22.1146267431,
			"0.0": 28.8872365619,
			"0.001": 26.1848098051,
			"0.002": 20.4861727561,
			"0.003": 18.5848812098,
			"0.004": 16.8215559876,
			"0.005": 9.17378157597,
			"0.006": 5.24036859328,
			"0.007": 7.33564948693,
			"0.008": 6.08475174274,
			"0.009": 8.21161806762,
			"0.01": 14.2031353806,
			"0.011": 10.6170884345,
			"0.012": 3.11573746827,
			"0.013": 0.612829297483,
			"0.014": 0.0,
			"0.015": 0.0,
			"0.016": 0.0,
			"0.017": 0.0,
			"0.018": 0.0,
			"0.019": 0.0,
			"0.02": 0.0,
			"0.021": 0.0,
			"0.022": 0.0,
			"0.023": 0.0,
			"0.024": 0.0,
			"0.0": 0.0
		}
	}
}
