{
	 "smiles": "CN1CCC2=C1C=C(C=C2)S(Cl)(=O)=O", 
	 "Tm": 336.15, 
	 "num_atms": 24, 
	 "gaussian": { 
		 "optdone": 1, 
		 "sigma_profile": "yes", 
		 "theory": "DFT", 
		 "functional": "B3LYP", 
		 "basiset": "6-31G**", 
		 "properties": { 
			 "R2extent": 7050.3438, 
			 "electric_dipole_moment_norm": 7.49965230461, 
			 "electric_quadrupole_moment_norm": 25.6851423381, 
			 "total_energy": -1412.49810751, 
			 "HOMO_LUMO_gap": 0.13379, 
			 "cosmo_polarized_energy": -10.71, 
			 "cosmo_cavitation_energy": 30.42, 
			 "cosmo_dispersion_energy": -22.76, 
			 "cosmo_repulsion_energy": 1.76, 
			 "cosmo_total_nonelectrostatic_energy": 9.42, 
			 "SMD_solvation_energy": 2.31 
		},
		"coords": [
			{
				"x": 2.1005393667,
				"y": 2.1167846386,
				"z": -0.8367458594,
				"element": "C" 
			},
			{
				"x": 0.8552114604,
				"y": 1.384855146,
				"z": -0.728875197,
				"element": "N" 
			},
			{
				"x": 0.0276945099,
				"y": 1.575399361,
				"z": 0.4735459826,
				"element": "C" 
			},
			{
				"x": -1.0491536114,
				"y": 0.4719675039,
				"z": 0.3604354862,
				"element": "C" 
			},
			{
				"x": -0.3582610967,
				"y": -0.5615446617,
				"z": -0.5022893286,
				"element": "C" 
			},
			{
				"x": 0.7563994539,
				"y": 0.054967855,
				"z": -1.1150731255,
				"element": "C" 
			},
			{
				"x": 1.5814151844,
				"y": -0.6654720924,
				"z": -1.9791854304,
				"element": "C" 
			},
			{
				"x": 1.2284201835,
				"y": -2.0007053537,
				"z": -2.2153355111,
				"element": "C" 
			},
			{
				"x": 0.1306935917,
				"y": -2.6315711207,
				"z": -1.6351041445,
				"element": "C" 
			},
			{
				"x": -0.6719699894,
				"y": -1.8850964984,
				"z": -0.7585607907,
				"element": "C" 
			},
			{
				"x": 2.2675567912,
				"y": -2.9515329946,
				"z": -3.3104232765,
				"element": "S" 
			},
			{
				"x": 1.373628807,
				"y": -2.5392174659,
				"z": -5.2146968791,
				"element": "Cl" 
			},
			{
				"x": 2.0647491386,
				"y": -4.3760292674,
				"z": -3.0748493693,
				"element": "O" 
			},
			{
				"x": 3.5989352325,
				"y": -2.3577400974,
				"z": -3.3628135979,
				"element": "O" 
			},
			{
				"x": 2.8746006175,
				"y": 1.7509694324,
				"z": -0.1418167076,
				"element": "H" 
			},
			{
				"x": 2.4901206476,
				"y": 2.0493779549,
				"z": -1.8560253579,
				"element": "H" 
			},
			{
				"x": 1.9157962681,
				"y": 3.1731215301,
				"z": -0.6233573208,
				"element": "H" 
			},
			{
				"x": 0.6334367978,
				"y": 1.434821578,
				"z": 1.385051525,
				"element": "H" 
			},
			{
				"x": -0.3897312771,
				"y": 2.5863892776,
				"z": 0.4975005335,
				"element": "H" 
			},
			{
				"x": -1.943008061,
				"y": 0.8532269403,
				"z": -0.1502610784,
				"element": "H" 
			},
			{
				"x": -1.3637028979,
				"y": 0.0912775153,
				"z": 1.335697524,
				"element": "H" 
			},
			{
				"x": 2.4640578141,
				"y": -0.2405985658,
				"z": -2.4406754281,
				"element": "H" 
			},
			{
				"x": -0.0800768704,
				"y": -3.6722668946,
				"z": -1.8482534512,
				"element": "H" 
			},
			{
				"x": -1.5266520609,
				"y": -2.3536837203,
				"z": -0.2790891972,
				"element": "H" 
			}
		],
		 "valence_orbital": [ 
			{
				"type": "occ",
				"energy": -0.32328,
				"method": "rhf"
			},
			{
				"type": "occ",
				"energy": -0.30795,
				"method": "rhf"
			},
			{
				"type": "occ",
				"energy": -0.30276,
				"method": "rhf"
			},
			{
				"type": "occ",
				"energy": -0.27435,
				"method": "rhf"
			},
			{
				"type": "occ",
				"energy": -0.21421,
				"method": "rhf"
			},
			{
				"type": "unocc",
				"energy": -0.08042,
				"method": "rhf"
			},
			{
				"type": "unocc",
				"energy": -0.03214,
				"method": "rhf"
			},
			{
				"type": "unocc",
				"energy": -0.01305,
				"method": "rhf"
			},
			{
				"type": "unocc",
				"energy": 0.06189,
				"method": "rhf"
			},
			{
				"type": "unocc",
				"energy": 0.076,
				"method": "rhf"
			}
		],
		"cosmo_sigma_profile": { 
			"-0.025": 0.0,
			"-0.024": 0.0,
			"-0.023": 0.0,
			"-0.022": 0.0,
			"-0.021": 0.0,
			"-0.02": 0.0,
			"-0.019": 0.0,
			"-0.018": 0.0,
			"-0.017": 0.0,
			"-0.016": 0.0,
			"-0.015": 0.0,
			"-0.014": 0.0,
			"-0.013": 0.0,
			"-0.012": 0.0,
			"-0.011": 0.0,
			"-0.01": 0.0,
			"-0.009": 0.0,
			"-0.008": 0.81113308338,
			"-0.007": 5.34020067225,
			"-0.006": 7.76642770749,
			"-0.005": 17.5030257918,
			"-0.004": 25.3558098389,
			"-0.003": 27.2595437486,
			"-0.002": 26.1300968534,
			"-0.001": 16.7193847734,
			"0.0": 13.2798593557,
			"0.001": 13.6563527624,
			"0.002": 20.017451839,
			"0.003": 20.4841487579,
			"0.004": 17.4531676812,
			"0.005": 4.95949579337,
			"0.006": 4.30348895622,
			"0.007": 5.47626085271,
			"0.008": 10.1084330188,
			"0.009": 7.39875962304,
			"0.01": 0.594024689377,
			"0.011": 0.0,
			"0.012": 0.0,
			"0.013": 0.0,
			"0.014": 0.0,
			"0.015": 0.0,
			"0.016": 0.0,
			"0.017": 0.0,
			"0.018": 0.0,
			"0.019": 0.0,
			"0.02": 0.0,
			"0.021": 0.0,
			"0.022": 0.0,
			"0.023": 0.0,
			"0.024": 0.0,
			"0.025": 0.0
		}
	}
}
