{
	 "smiles": "CC1=C(Cl)C=C(NC2=NN=C(S)S2)C=C1", 
	 "Tm": 484.15, 
	 "num_atms": 23, 
	 "gaussian": { 
		 "optdone": 1, 
		 "sigma_profile": "yes", 
		 "theory": "DFT", 
		 "functional": "B3LYP", 
		 "basiset": "6-31G**", 
		 "properties": { 
			 "R2extent": 6863.8935, 
			 "electric_dipole_moment_norm": 3.85927169295, 
			 "electric_quadrupole_moment_norm": 16.0928219797, 
			 "total_energy": -1768.56705551, 
			 "HOMO_LUMO_gap": 0.17056, 
			 "cosmo_polarized_energy": -14.71, 
			 "cosmo_cavitation_energy": 32.84, 
			 "cosmo_dispersion_energy": -25.31, 
			 "cosmo_repulsion_energy": 1.88, 
			 "cosmo_total_nonelectrostatic_energy": 9.41, 
			 "SMD_solvation_energy": 2.67 
		},
		"coords": [
			{
				"x": -2.7886689015,
				"y": -0.5688916698,
				"z": 3.3735839819,
				"element": "C" 
			},
			{
				"x": -1.6690147884,
				"y": -0.2214611655,
				"z": 2.4279094986,
				"element": "C" 
			},
			{
				"x": -0.3984199705,
				"y": 0.1756299779,
				"z": 2.8737898074,
				"element": "C" 
			},
			{
				"x": -0.0740605413,
				"y": 0.2786591096,
				"z": 4.601201296,
				"element": "Cl" 
			},
			{
				"x": 0.6396395863,
				"y": 0.4857999789,
				"z": 2.0031794663,
				"element": "C" 
			},
			{
				"x": 0.4321248759,
				"y": 0.4228839305,
				"z": 0.6168599182,
				"element": "C" 
			},
			{
				"x": 1.5085838452,
				"y": 0.7666763549,
				"z": -0.2159967474,
				"element": "N" 
			},
			{
				"x": 1.7604203794,
				"y": 0.459381736,
				"z": -1.5233087716,
				"element": "C" 
			},
			{
				"x": 2.7520642621,
				"y": 1.0468215573,
				"z": -2.1582782912,
				"element": "N" 
			},
			{
				"x": 2.9564416138,
				"y": 0.5433613793,
				"z": -3.4062572873,
				"element": "N" 
			},
			{
				"x": 2.1278594243,
				"y": -0.3978988392,
				"z": -3.7382457167,
				"element": "C" 
			},
			{
				"x": 2.075453544,
				"y": -1.1097572741,
				"z": -5.3566025414,
				"element": "S" 
			},
			{
				"x": 0.9416624791,
				"y": -0.7770316362,
				"z": -2.4709502379,
				"element": "S" 
			},
			{
				"x": -0.8302375988,
				"y": 0.0505186032,
				"z": 0.137721176,
				"element": "C" 
			},
			{
				"x": -1.8425102217,
				"y": -0.2714510342,
				"z": 1.0396300022,
				"element": "C" 
			},
			{
				"x": -2.5189911551,
				"y": -1.4100787773,
				"z": 4.0213441566,
				"element": "H" 
			},
			{
				"x": -3.6901305722,
				"y": -0.8409343224,
				"z": 2.8191019191,
				"element": "H" 
			},
			{
				"x": -3.0323392107,
				"y": 0.2717992732,
				"z": 4.032021469,
				"element": "H" 
			},
			{
				"x": 1.6095052179,
				"y": 0.7660776318,
				"z": 2.4006895132,
				"element": "H" 
			},
			{
				"x": 2.2374575454,
				"y": 1.3428939188,
				"z": 0.1858224945,
				"element": "H" 
			},
			{
				"x": 2.1961721715,
				"y": -2.3978424312,
				"z": -4.9696766901,
				"element": "H" 
			},
			{
				"x": -1.0422102244,
				"y": 0.0404781848,
				"z": -0.9244166409,
				"element": "H" 
			},
			{
				"x": -2.8150017605,
				"y": -0.5584344861,
				"z": 0.6493782257,
				"element": "H" 
			}
		],
		 "valence_orbital": [ 
			{
				"type": "occ",
				"energy": -0.28949,
				"method": "rhf"
			},
			{
				"type": "occ",
				"energy": -0.27104,
				"method": "rhf"
			},
			{
				"type": "occ",
				"energy": -0.26297,
				"method": "rhf"
			},
			{
				"type": "occ",
				"energy": -0.25912,
				"method": "rhf"
			},
			{
				"type": "occ",
				"energy": -0.21921,
				"method": "rhf"
			},
			{
				"type": "unocc",
				"energy": -0.04865,
				"method": "rhf"
			},
			{
				"type": "unocc",
				"energy": -0.0303,
				"method": "rhf"
			},
			{
				"type": "unocc",
				"energy": -0.01394,
				"method": "rhf"
			},
			{
				"type": "unocc",
				"energy": -0.00261,
				"method": "rhf"
			},
			{
				"type": "unocc",
				"energy": 0.01424,
				"method": "rhf"
			}
		],
		"cosmo_sigma_profile": { 
			"-0.025": 0.0,
			"-0.024": 0.0,
			"-0.023": 0.0,
			"-0.022": 0.0,
			"-0.021": 0.0,
			"-0.02": 0.0,
			"-0.019": 0.0,
			"-0.018": 0.0,
			"-0.017": 0.0156873450124,
			"-0.016": 0.683916957007,
			"-0.015": 0.958802701909,
			"-0.014": 1.57011696936,
			"-0.013": 1.24773130812,
			"-0.012": 1.82215103647,
			"-0.011": 4.32349374521,
			"-0.01": 3.25439454107,
			"-0.009": 3.4611087078,
			"-0.008": 3.20358283346,
			"-0.007": 4.19724041184,
			"-0.006": 8.95336168883,
			"-0.005": 11.0681180811,
			"-0.004": 13.2370243029,
			"-0.003": 13.2217679869,
			"-0.002": 21.9059927672,
			"-0.001": 27.1077424614,
			"0.0": 28.1560704279,
			"0.001": 22.0901957045,
			"0.002": 23.3972615351,
			"0.003": 23.1321031221,
			"0.004": 16.0105594857,
			"0.005": 8.52088836499,
			"0.006": 4.71881611955,
			"0.007": 3.8494037237,
			"0.008": 3.6009854942,
			"0.009": 2.41763877053,
			"0.01": 2.62553967756,
			"0.011": 3.55277890203,
			"0.012": 3.09068302706,
			"0.013": 2.73631926266,
			"0.014": 1.62768144183,
			"0.015": 0.454433628824,
			"0.016": 0.0,
			"0.017": 0.0,
			"0.018": 0.0,
			"0.019": 0.0,
			"0.02": 0.0,
			"0.021": 0.0,
			"0.022": 0.0,
			"0.023": 0.0,
			"0.024": 0.0,
			"0.025": 0.0
		}
	}
}
