{
	 "smiles": "CC(C)S(=O)(=O)NC1=C(F)C=CC=C1", 
	 "Tm": 326.15, 
	 "num_atms": 26, 
	 "gaussian": { 
		 "optdone": 1, 
		 "sigma_profile": "yes", 
		 "theory": "DFT", 
		 "functional": "B3LYP", 
		 "basiset": "6-31G**", 
		 "properties": { 
			 "R2extent": 3738.0714, 
			 "electric_dipole_moment_norm": 3.77043833791, 
			 "electric_quadrupole_moment_norm": 14.7851299311, 
			 "total_energy": -1053.35536222, 
			 "HOMO_LUMO_gap": 0.217, 
			 "cosmo_polarized_energy": -12.48, 
			 "cosmo_cavitation_energy": 30.55, 
			 "cosmo_dispersion_energy": -22.15, 
			 "cosmo_repulsion_energy": 1.66, 
			 "cosmo_total_nonelectrostatic_energy": 10.07, 
			 "SMD_solvation_energy": 4.99 
		},
		"coords": [
			{
				"x": 0.5758001305,
				"y": 1.6879989709,
				"z": 1.3451701636,
				"element": "C" 
			},
			{
				"x": -0.8901370674,
				"y": 1.4628019961,
				"z": 1.7082594707,
				"element": "C" 
			},
			{
				"x": -1.1947318888,
				"y": 1.7081492664,
				"z": 3.1897101481,
				"element": "C" 
			},
			{
				"x": -1.4140824853,
				"y": -0.2441339135,
				"z": 1.2995208851,
				"element": "S" 
			},
			{
				"x": -0.4636403275,
				"y": -1.1879082695,
				"z": 1.8939825585,
				"element": "O" 
			},
			{
				"x": -2.8552973378,
				"y": -0.3370630696,
				"z": 1.5580589575,
				"element": "O" 
			},
			{
				"x": -1.2490999137,
				"y": -0.2732073197,
				"z": -0.4071080087,
				"element": "N" 
			},
			{
				"x": -0.4093986925,
				"y": -1.1707727363,
				"z": -1.1119559163,
				"element": "C" 
			},
			{
				"x": -0.9223189089,
				"y": -1.7437696618,
				"z": -2.2831437958,
				"element": "C" 
			},
			{
				"x": -2.2044659763,
				"y": -1.4407100621,
				"z": -2.6180771194,
				"element": "F" 
			},
			{
				"x": -0.1789409349,
				"y": -2.5774167587,
				"z": -3.1006284663,
				"element": "C" 
			},
			{
				"x": 1.135809554,
				"y": -2.8758411522,
				"z": -2.7363997087,
				"element": "C" 
			},
			{
				"x": 1.6702197923,
				"y": -2.3250768142,
				"z": -1.571026648,
				"element": "C" 
			},
			{
				"x": 0.9131489541,
				"y": -1.4719910807,
				"z": -0.7664011117,
				"element": "C" 
			},
			{
				"x": 0.8418855426,
				"y": 2.7276670141,
				"z": 1.5601298477,
				"element": "H" 
			},
			{
				"x": 1.2258775102,
				"y": 1.0395315208,
				"z": 1.939151275,
				"element": "H" 
			},
			{
				"x": 0.762990066,
				"y": 1.5043630681,
				"z": 0.2841806361,
				"element": "H" 
			},
			{
				"x": -1.5415622515,
				"y": 2.0797156934,
				"z": 1.0800415695,
				"element": "H" 
			},
			{
				"x": -2.2501981669,
				"y": 1.5377572093,
				"z": 3.4116046678,
				"element": "H" 
			},
			{
				"x": -0.5921603777,
				"y": 1.0502525993,
				"z": 3.8227482379,
				"element": "H" 
			},
			{
				"x": -0.9479899605,
				"y": 2.7446098718,
				"z": 3.4388654107,
				"element": "H" 
			},
			{
				"x": -2.1811933093,
				"y": -0.2296436333,
				"z": -0.810614698,
				"element": "H" 
			},
			{
				"x": -0.6373799886,
				"y": -2.98197322,
				"z": -3.9964587546,
				"element": "H" 
			},
			{
				"x": 1.7329236248,
				"y": -3.5328864472,
				"z": -3.3602392481,
				"element": "H" 
			},
			{
				"x": 2.690439243,
				"y": -2.5552595947,
				"z": -1.2804379383,
				"element": "H" 
			},
			{
				"x": 1.3343031701,
				"y": -1.0616934765,
				"z": 0.1419675857,
				"element": "H" 
			}
		],
		 "valence_orbital": [ 
			{
				"type": "occ",
				"energy": -0.32169,
				"method": "rhf"
			},
			{
				"type": "occ",
				"energy": -0.30703,
				"method": "rhf"
			},
			{
				"type": "occ",
				"energy": -0.30126,
				"method": "rhf"
			},
			{
				"type": "occ",
				"energy": -0.25508,
				"method": "rhf"
			},
			{
				"type": "occ",
				"energy": -0.22933,
				"method": "rhf"
			},
			{
				"type": "unocc",
				"energy": -0.01233,
				"method": "rhf"
			},
			{
				"type": "unocc",
				"energy": -0.00242,
				"method": "rhf"
			},
			{
				"type": "unocc",
				"energy": 0.04827,
				"method": "rhf"
			},
			{
				"type": "unocc",
				"energy": 0.05994,
				"method": "rhf"
			},
			{
				"type": "unocc",
				"energy": 0.07872,
				"method": "rhf"
			}
		],
		"cosmo_sigma_profile": { 
			"-0.025": 0.0,
			"-0.024": 0.0,
			"-0.023": 0.0,
			"-0.022": 0.0,
			"-0.021": 0.0,
			"-0.02": 0.0,
			"-0.019": 0.0,
			"-0.018": 0.0,
			"-0.017": 0.0,
			"-0.016": 0.0,
			"-0.015": 0.0,
			"-0.014": 0.0,
			"-0.013": 0.389326226146,
			"-0.012": 0.463657393477,
			"-0.011": 0.77657310375,
			"-0.01": 0.8144553759,
			"-0.009": 1.45668606234,
			"-0.008": 2.46248752351,
			"-0.007": 6.37350662194,
			"-0.006": 11.4369572735,
			"-0.005": 18.7324552584,
			"-0.004": 20.3657038109,
			"-0.003": 21.9323373552,
			"-0.002": 21.3209360185,
			"-0.001": 22.4813705724,
			"0.0": 16.7327031415,
			"0.001": 13.4275342431,
			"0.002": 12.6028111703,
			"0.003": 15.8207342123,
			"0.004": 15.9440012479,
			"0.005": 7.40306726067,
			"0.006": 3.16604979344,
			"0.007": 3.22874537726,
			"0.008": 3.78246668832,
			"0.009": 3.38519608856,
			"0.01": 8.09084714029,
			"0.011": 7.88926751247,
			"0.012": 1.67521614198,
			"0.013": 0.0,
			"0.014": 0.0,
			"0.015": 0.0,
			"0.016": 0.0,
			"0.017": 0.0,
			"0.018": 0.0,
			"0.019": 0.0,
			"0.02": 0.0,
			"0.021": 0.0,
			"0.022": 0.0,
			"0.023": 0.0,
			"0.024": 0.0,
			"0.025": 0.0
		}
	}
}
