{
	 "smiles": "BrC1=CC2=C(OCCO2)C=C1C(=O)CC1=CC=CC=C1", 
	 "Tm": 416.15, 
	 "num_atms": 33, 
	 "gaussian": { 
		 "optdone": 1, 
		 "sigma_profile": "yes", 
		 "theory": "DFT", 
		 "functional": "B3LYP", 
		 "basiset": "6-31G**", 
		 "properties": { 
			 "R2extent": 9113.3709, 
			 "electric_dipole_moment_norm": 4.50809342073, 
			 "electric_quadrupole_moment_norm": 17.606285437, 
			 "total_energy": -3414.58855736, 
			 "HOMO_LUMO_gap": 0.17636, 
			 "cosmo_polarized_energy": -12.22, 
			 "cosmo_cavitation_energy": 39.21, 
			 "cosmo_dispersion_energy": -28.03, 
			 "cosmo_repulsion_energy": 2.16, 
			 "cosmo_total_nonelectrostatic_energy": 13.34, 
			 "SMD_solvation_energy": 6.16 
		},
		"coords": [
			{
				"x": -1.0386503428,
				"y": 3.18498903,
				"z": -2.6215555029,
				"element": "Br" 
			},
			{
				"x": -1.4027372938,
				"y": 1.3183179625,
				"z": -2.3597226871,
				"element": "C" 
			},
			{
				"x": -2.5774284243,
				"y": 0.8354302903,
				"z": -2.9283003008,
				"element": "C" 
			},
			{
				"x": -2.8783444432,
				"y": -0.5246295373,
				"z": -2.8603603215,
				"element": "C" 
			},
			{
				"x": -1.9656957241,
				"y": -1.4100363386,
				"z": -2.258594556,
				"element": "C" 
			},
			{
				"x": -2.2009925856,
				"y": -2.7593759153,
				"z": -2.2005308224,
				"element": "O" 
			},
			{
				"x": -3.2109382066,
				"y": -3.20377386,
				"z": -3.1080073613,
				"element": "C" 
			},
			{
				"x": -4.4205709377,
				"y": -2.2868667089,
				"z": -3.0330355826,
				"element": "C" 
			},
			{
				"x": -4.0552742933,
				"y": -0.9538863912,
				"z": -3.4059917954,
				"element": "O" 
			},
			{
				"x": -0.7938913411,
				"y": -0.9098246086,
				"z": -1.7057399515,
				"element": "C" 
			},
			{
				"x": -0.4977453361,
				"y": 0.4623455375,
				"z": -1.7119655213,
				"element": "C" 
			},
			{
				"x": 0.7950113552,
				"y": 0.8477407442,
				"z": -1.0384105241,
				"element": "C" 
			},
			{
				"x": 1.7891582112,
				"y": 0.1623415413,
				"z": -1.2103934725,
				"element": "O" 
			},
			{
				"x": 0.8135478672,
				"y": 1.9797002697,
				"z": -0.0076675516,
				"element": "C" 
			},
			{
				"x": 0.6401210703,
				"y": 1.4030467461,
				"z": 1.3914603289,
				"element": "C" 
			},
			{
				"x": 1.6210917188,
				"y": 0.5692801538,
				"z": 1.9472292268,
				"element": "C" 
			},
			{
				"x": 1.4612775552,
				"y": 0.0457295385,
				"z": 3.2296329601,
				"element": "C" 
			},
			{
				"x": 0.3177835763,
				"y": 0.3446059454,
				"z": 3.9750509774,
				"element": "C" 
			},
			{
				"x": -0.6656857712,
				"y": 1.1687595095,
				"z": 3.4275621755,
				"element": "C" 
			},
			{
				"x": -0.5052404943,
				"y": 1.6920962246,
				"z": 2.1426503516,
				"element": "C" 
			},
			{
				"x": -3.2691775107,
				"y": 1.4982839767,
				"z": -3.4338285715,
				"element": "H" 
			},
			{
				"x": -2.8127902998,
				"y": -3.2183211404,
				"z": -4.1315606159,
				"element": "H" 
			},
			{
				"x": -3.4678283493,
				"y": -4.2231737751,
				"z": -2.8106111086,
				"element": "H" 
			},
			{
				"x": -5.2014677715,
				"y": -2.5977060607,
				"z": -3.7310220514,
				"element": "H" 
			},
			{
				"x": -4.8289667863,
				"y": -2.2855109948,
				"z": -2.0139681948,
				"element": "H" 
			},
			{
				"x": -0.0892539018,
				"y": -1.5998073579,
				"z": -1.2552051367,
				"element": "H" 
			},
			{
				"x": 1.7866495464,
				"y": 2.4739088746,
				"z": -0.094589529,
				"element": "H" 
			},
			{
				"x": 0.0349335612,
				"y": 2.7160875955,
				"z": -0.2016894499,
				"element": "H" 
			},
			{
				"x": 2.5023879792,
				"y": 0.3260857594,
				"z": 1.3612769169,
				"element": "H" 
			},
			{
				"x": 2.2313425408,
				"y": -0.5961709163,
				"z": 3.6484920239,
				"element": "H" 
			},
			{
				"x": 0.1957339769,
				"y": -0.0618876355,
				"z": 4.9750148695,
				"element": "H" 
			},
			{
				"x": -1.5587921002,
				"y": 1.4066800468,
				"z": 3.998724946,
				"element": "H" 
			},
			{
				"x": -1.2735670449,
				"y": 2.3358414943,
				"z": 1.7218558323,
				"element": "H" 
			}
		],
		 "valence_orbital": [ 
			{
				"type": "occ",
				"energy": -0.26069,
				"method": "rhf"
			},
			{
				"type": "occ",
				"energy": -0.24781,
				"method": "rhf"
			},
			{
				"type": "occ",
				"energy": -0.24469,
				"method": "rhf"
			},
			{
				"type": "occ",
				"energy": -0.23315,
				"method": "rhf"
			},
			{
				"type": "occ",
				"energy": -0.2242,
				"method": "rhf"
			},
			{
				"type": "unocc",
				"energy": -0.04784,
				"method": "rhf"
			},
			{
				"type": "unocc",
				"energy": -0.01564,
				"method": "rhf"
			},
			{
				"type": "unocc",
				"energy": -0.00615,
				"method": "rhf"
			},
			{
				"type": "unocc",
				"energy": 0.00226,
				"method": "rhf"
			},
			{
				"type": "unocc",
				"energy": 0.00435,
				"method": "rhf"
			}
		],
		"cosmo_sigma_profile": { 
			"-0.025": 0.0,
			"-0.024": 0.0,
			"-0.023": 0.0,
			"-0.022": 0.0,
			"-0.021": 0.0,
			"-0.02": 0.0,
			"-0.019": 0.0,
			"-0.018": 0.0,
			"-0.017": 0.0,
			"-0.016": 0.0,
			"-0.015": 0.0,
			"-0.014": 0.0,
			"-0.013": 0.0,
			"-0.012": 0.0,
			"-0.011": 0.0,
			"-0.01": 0.0,
			"-0.009": 0.0,
			"-0.008": 2.72707870727,
			"-0.007": 11.2196479057,
			"-0.006": 20.1650935953,
			"-0.005": 24.8485367518,
			"-0.004": 24.4265127045,
			"-0.003": 23.0851620384,
			"-0.002": 21.3944085284,
			"-0.001": 20.3501908471,
			"0.0": 22.1064121737,
			"0.001": 28.4982169182,
			"0.002": 29.2091799859,
			"0.003": 21.0692821738,
			"0.004": 20.0114128176,
			"0.005": 14.1052799048,
			"0.006": 10.3221763956,
			"0.007": 4.34887629107,
			"0.008": 4.63455562713,
			"0.009": 4.26507215915,
			"0.01": 3.62248197725,
			"0.011": 3.69896157755,
			"0.012": 2.27058992115,
			"0.013": 0.0756779007114,
			"0.014": 0.0,
			"0.015": 0.0,
			"0.016": 0.0,
			"0.017": 0.0,
			"0.018": 0.0,
			"0.019": 0.0,
			"0.02": 0.0,
			"0.021": 0.0,
			"0.022": 0.0,
			"0.023": 0.0,
			"0.024": 0.0,
			"0.025": 0.0
		}
	}
}
