{
	 "smiles": "CCCN(CCOC1=C(Cl)C=C(Cl)C=C1Cl)C(=O)N1C=CN=C1", 
	 "Tm": 321.45, 
	 "num_atms": 39, 
	 "gaussian": { 
		 "optdone": 1, 
		 "sigma_profile": "yes", 
		 "theory": "DFT", 
		 "functional": "B3LYP", 
		 "basiset": "6-31G**", 
		 "properties": { 
			 "R2extent": 11729.681, 
			 "electric_dipole_moment_norm": 6.30634945036, 
			 "electric_quadrupole_moment_norm": 16.4230176977, 
			 "total_energy": -2276.50136483, 
			 "HOMO_LUMO_gap": 0.1925, 
			 "cosmo_polarized_energy": -18.88, 
			 "cosmo_cavitation_energy": 48.52, 
			 "cosmo_dispersion_energy": -31.96, 
			 "cosmo_repulsion_energy": 2.44, 
			 "cosmo_total_nonelectrostatic_energy": 18.99, 
			 "SMD_solvation_energy": 7.07 
		},
		"coords": [
			{
				"x": -2.510808111,
				"y": 4.3079624913,
				"z": 1.7595968428,
				"element": "C" 
			},
			{
				"x": -1.5991582445,
				"y": 3.3153716712,
				"z": 1.0302522834,
				"element": "C" 
			},
			{
				"x": -2.3807428036,
				"y": 2.4722999175,
				"z": 0.0157534709,
				"element": "C" 
			},
			{
				"x": -1.5802962139,
				"y": 1.4545451864,
				"z": -0.6879215799,
				"element": "N" 
			},
			{
				"x": -0.6327314722,
				"y": 1.9420441333,
				"z": -1.6961310285,
				"element": "C" 
			},
			{
				"x": 0.8156229083,
				"y": 1.9495948095,
				"z": -1.2217182792,
				"element": "C" 
			},
			{
				"x": 1.2137221917,
				"y": 0.5848181914,
				"z": -0.9987565969,
				"element": "O" 
			},
			{
				"x": 2.5032568256,
				"y": 0.3963621968,
				"z": -0.6100125923,
				"element": "C" 
			},
			{
				"x": 3.5315484952,
				"y": 0.2159811141,
				"z": -1.5518086655,
				"element": "C" 
			},
			{
				"x": 3.1495850516,
				"y": 0.3024526258,
				"z": -3.2549565712,
				"element": "Cl" 
			},
			{
				"x": 4.8454383925,
				"y": -0.0449785075,
				"z": -1.1679069124,
				"element": "C" 
			},
			{
				"x": 5.1414140848,
				"y": -0.1253060716,
				"z": 0.1910063313,
				"element": "C" 
			},
			{
				"x": 6.7885542124,
				"y": -0.4518584862,
				"z": 0.6912382857,
				"element": "Cl" 
			},
			{
				"x": 4.1561465325,
				"y": 0.0436677073,
				"z": 1.1610071463,
				"element": "C" 
			},
			{
				"x": 2.8508933548,
				"y": 0.3046550517,
				"z": 0.7483458748,
				"element": "C" 
			},
			{
				"x": 1.608375281,
				"y": 0.5053621755,
				"z": 1.963002137,
				"element": "Cl" 
			},
			{
				"x": -2.0009134424,
				"y": 0.1492683273,
				"z": -0.8499564228,
				"element": "C" 
			},
			{
				"x": -1.7739414727,
				"y": -0.5367390631,
				"z": -1.8298740033,
				"element": "O" 
			},
			{
				"x": -2.7413622617,
				"y": -0.4079312267,
				"z": 0.2376659268,
				"element": "N" 
			},
			{
				"x": -2.632216655,
				"y": -0.1962201627,
				"z": 1.6113853589,
				"element": "C" 
			},
			{
				"x": -3.4973125631,
				"y": -1.0853677469,
				"z": 2.1846109689,
				"element": "C" 
			},
			{
				"x": -4.1405708405,
				"y": -1.8433800985,
				"z": 1.2217466225,
				"element": "N" 
			},
			{
				"x": -3.6569475945,
				"y": -1.4303750917,
				"z": 0.0786513561,
				"element": "C" 
			},
			{
				"x": -1.9418767467,
				"y": 4.9163477537,
				"z": 2.4685112829,
				"element": "H" 
			},
			{
				"x": -3.2956649366,
				"y": 3.788599823,
				"z": 2.3203749107,
				"element": "H" 
			},
			{
				"x": -3.0016311078,
				"y": 4.9900467141,
				"z": 1.0562811486,
				"element": "H" 
			},
			{
				"x": -1.1044968051,
				"y": 2.6537434955,
				"z": 1.7511347181,
				"element": "H" 
			},
			{
				"x": -0.7989221362,
				"y": 3.8645441618,
				"z": 0.5193137548,
				"element": "H" 
			},
			{
				"x": -3.2116127828,
				"y": 1.9745300486,
				"z": 0.5165799019,
				"element": "H" 
			},
			{
				"x": -2.8238578017,
				"y": 3.139215339,
				"z": -0.7395554323,
				"element": "H" 
			},
			{
				"x": -0.7135526545,
				"y": 1.3078773486,
				"z": -2.5811843925,
				"element": "H" 
			},
			{
				"x": -0.9093072265,
				"y": 2.9646322233,
				"z": -1.9762846832,
				"element": "H" 
			},
			{
				"x": 0.9341065417,
				"y": 2.5196364518,
				"z": -0.2931983485,
				"element": "H" 
			},
			{
				"x": 1.4464274329,
				"y": 2.4003338013,
				"z": -1.9986132837,
				"element": "H" 
			},
			{
				"x": 5.6161811767,
				"y": -0.1847568431,
				"z": -1.9153392683,
				"element": "H" 
			},
			{
				"x": 4.3935606524,
				"y": -0.0269183316,
				"z": 2.2149612579,
				"element": "H" 
			},
			{
				"x": -1.9299185421,
				"y": 0.5068017389,
				"z": 2.0268243331,
				"element": "H" 
			},
			{
				"x": -3.6904854213,
				"y": -1.2336404374,
				"z": 3.2381975862,
				"element": "H" 
			},
			{
				"x": -3.9084052979,
				"y": -1.8007224317,
				"z": -0.904123439,
				"element": "H" 
			}
		],
		 "valence_orbital": [ 
			{
				"type": "occ",
				"energy": -0.26777,
				"method": "rhf"
			},
			{
				"type": "occ",
				"energy": -0.2673,
				"method": "rhf"
			},
			{
				"type": "occ",
				"energy": -0.25855,
				"method": "rhf"
			},
			{
				"type": "occ",
				"energy": -0.25584,
				"method": "rhf"
			},
			{
				"type": "occ",
				"energy": -0.23354,
				"method": "rhf"
			},
			{
				"type": "unocc",
				"energy": -0.04104,
				"method": "rhf"
			},
			{
				"type": "unocc",
				"energy": -0.03577,
				"method": "rhf"
			},
			{
				"type": "unocc",
				"energy": -0.02122,
				"method": "rhf"
			},
			{
				"type": "unocc",
				"energy": -0.01698,
				"method": "rhf"
			},
			{
				"type": "unocc",
				"energy": 0.03437,
				"method": "rhf"
			}
		],
		"cosmo_sigma_profile": { 
			"-0.025": 0.0,
			"-0.024": 0.0,
			"-0.023": 0.0,
			"-0.022": 0.0,
			"-0.021": 0.0,
			"-0.02": 0.0,
			"-0.019": 0.0,
			"-0.018": 0.0,
			"-0.017": 0.0,
			"-0.016": 0.0,
			"-0.015": 0.0,
			"-0.014": 0.0,
			"-0.013": 0.0,
			"-0.012": 0.0,
			"-0.011": 0.0,
			"-0.01": 0.0357012292797,
			"-0.009": 3.07401601327,
			"-0.008": 3.77261756891,
			"-0.007": 12.9558905321,
			"-0.006": 14.9295183763,
			"-0.005": 24.8827165718,
			"-0.004": 28.9917756252,
			"-0.003": 33.2794113263,
			"-0.002": 30.8492276896,
			"-0.001": 38.0004750248,
			"0.0": 46.3725765661,
			"0.001": 35.5185547677,
			"0.002": 22.6082904154,
			"0.003": 28.2652854746,
			"0.004": 23.5870382142,
			"0.005": 8.67153844223,
			"0.006": 5.62904055487,
			"0.007": 3.22853800354,
			"0.008": 4.04095510131,
			"0.009": 4.55490741078,
			"0.01": 3.9432690715,
			"0.011": 4.52095754381,
			"0.012": 5.50478440318,
			"0.013": 1.36926591137,
			"0.014": 1.38056312568,
			"0.015": 1.31185455827,
			"0.016": 0.884724263075,
			"0.017": 0.861030417825,
			"0.018": 0.156526970989,
			"0.019": 0.0,
			"0.02": 0.0,
			"0.021": 0.0,
			"0.022": 0.0,
			"0.023": 0.0,
			"0.024": 0.0,
			"0.025": 0.0
		}
	}
}
