{
	 "smiles": "OC(=O)C1=C(Cl)N=C(Cl)S1", 
	 "Tm": 438.15, 
	 "num_atms": 11, 
	 "gaussian": { 
		 "optdone": 1, 
		 "sigma_profile": "yes", 
		 "theory": "DFT", 
		 "functional": "B3LYP", 
		 "basiset": "6-31G**", 
		 "properties": { 
			 "R2extent": 3472.3562, 
			 "electric_dipole_moment_norm": 4.27751407362, 
			 "electric_quadrupole_moment_norm": 16.5212208042, 
			 "total_energy": -1676.77091739, 
			 "HOMO_LUMO_gap": 0.17906, 
			 "cosmo_polarized_energy": -14.37, 
			 "cosmo_cavitation_energy": 21.8, 
			 "cosmo_dispersion_energy": -17.24, 
			 "cosmo_repulsion_energy": 1.36, 
			 "cosmo_total_nonelectrostatic_energy": 5.93, 
			 "SMD_solvation_energy": 2.68 
		},
		"coords": [
			{
				"x": 2.3272987002,
				"y": 3.0221349187,
				"z": -1.0636395495,
				"element": "O" 
			},
			{
				"x": 1.408062012,
				"y": 2.0516712227,
				"z": -1.3119192433,
				"element": "C" 
			},
			{
				"x": 1.5314074319,
				"y": 1.3404499482,
				"z": -2.2772941907,
				"element": "O" 
			},
			{
				"x": 0.2795303109,
				"y": 1.9217513166,
				"z": -0.3539655979,
				"element": "C" 
			},
			{
				"x": -0.7691094892,
				"y": 1.0223793402,
				"z": -0.3884456661,
				"element": "C" 
			},
			{
				"x": -1.0148279269,
				"y": -0.189048618,
				"z": -1.5850232449,
				"element": "Cl" 
			},
			{
				"x": -1.6922344869,
				"y": 1.1031792039,
				"z": 0.6171861936,
				"element": "N" 
			},
			{
				"x": -1.3811369307,
				"y": 2.0526803256,
				"z": 1.4381924381,
				"element": "C" 
			},
			{
				"x": -2.3112628579,
				"y": 2.4526390247,
				"z": 2.8298743529,
				"element": "Cl" 
			},
			{
				"x": 0.0711618066,
				"y": 2.9412202371,
				"z": 1.0624586978,
				"element": "S" 
			},
			{
				"x": 2.13671143,
				"y": 3.5351430804,
				"z": -0.2660241899,
				"element": "H" 
			}
		],
		 "valence_orbital": [ 
			{
				"type": "occ",
				"energy": -0.33648,
				"method": "rhf"
			},
			{
				"type": "occ",
				"energy": -0.32738,
				"method": "rhf"
			},
			{
				"type": "occ",
				"energy": -0.32375,
				"method": "rhf"
			},
			{
				"type": "occ",
				"energy": -0.29134,
				"method": "rhf"
			},
			{
				"type": "occ",
				"energy": -0.27239,
				"method": "rhf"
			},
			{
				"type": "unocc",
				"energy": -0.09333,
				"method": "rhf"
			},
			{
				"type": "unocc",
				"energy": -0.05665,
				"method": "rhf"
			},
			{
				"type": "unocc",
				"energy": -0.02063,
				"method": "rhf"
			},
			{
				"type": "unocc",
				"energy": -0.00505,
				"method": "rhf"
			},
			{
				"type": "unocc",
				"energy": 0.0172,
				"method": "rhf"
			}
		],
		"cosmo_sigma_profile": { 
			"-0.025": 0.0,
			"-0.024": 0.0,
			"-0.023": 0.0,
			"-0.022": 0.0,
			"-0.021": 0.0,
			"-0.02": 0.301936053973,
			"-0.019": 0.65619811459,
			"-0.018": 1.27801245251,
			"-0.017": 0.832405641645,
			"-0.016": 1.20282447755,
			"-0.015": 0.854977903838,
			"-0.014": 1.06301333596,
			"-0.013": 0.714865075527,
			"-0.012": 1.44621723682,
			"-0.011": 1.15537925364,
			"-0.01": 1.23819654641,
			"-0.009": 1.05395251427,
			"-0.008": 1.33201403782,
			"-0.007": 1.34249357149,
			"-0.006": 4.03911462156,
			"-0.005": 11.9346743658,
			"-0.004": 14.0303945516,
			"-0.003": 16.5928316907,
			"-0.002": 13.9314088357,
			"-0.001": 13.1521079138,
			"0.0": 12.7213173111,
			"0.001": 15.7165848939,
			"0.002": 14.1034892003,
			"0.003": 10.2756461909,
			"0.004": 5.66540458189,
			"0.005": 3.86086885356,
			"0.006": 3.95891275109,
			"0.007": 4.38942371712,
			"0.008": 4.67377891588,
			"0.009": 5.94802208272,
			"0.01": 6.44591633279,
			"0.011": 6.07950410746,
			"0.012": 1.42079836534,
			"0.013": 0.0125846277051,
			"0.014": 0.0,
			"0.015": 0.0,
			"0.016": 0.0,
			"0.017": 0.0,
			"0.018": 0.0,
			"0.019": 0.0,
			"0.02": 0.0,
			"0.021": 0.0,
			"0.022": 0.0,
			"0.023": 0.0,
			"0.024": 0.0,
			"0.025": 0.0
		}
	}
}
