{
	 "smiles": "OCC1=CCN2CCC(O)C12", 
	 "Tm": 393.15, 
	 "num_atms": 24, 
	 "gaussian": { 
		 "optdone": 1, 
		 "sigma_profile": "yes", 
		 "theory": "DFT", 
		 "functional": "B3LYP", 
		 "basiset": "6-31G**", 
		 "properties": { 
			 "R2extent": 2050.45, 
			 "electric_dipole_moment_norm": 2.74149929965, 
			 "electric_quadrupole_moment_norm": 16.3575673589, 
			 "total_energy": -517.836947449, 
			 "HOMO_LUMO_gap": 0.21744, 
			 "cosmo_polarized_energy": -10.49, 
			 "cosmo_cavitation_energy": 24.35, 
			 "cosmo_dispersion_energy": -18.54, 
			 "cosmo_repulsion_energy": 1.49, 
			 "cosmo_total_nonelectrostatic_energy": 7.3, 
			 "SMD_solvation_energy": 0.51 
		},
		"coords": [
			{
				"x": -0.2352860773,
				"y": 3.2958146162,
				"z": 1.6876251554,
				"element": "O" 
			},
			{
				"x": -0.3492500078,
				"y": 1.9409857402,
				"z": 2.1006719656,
				"element": "C" 
			},
			{
				"x": 0.444860766,
				"y": 0.974250004,
				"z": 1.2583317451,
				"element": "C" 
			},
			{
				"x": 1.6378364968,
				"y": 0.4387070118,
				"z": 1.5409138124,
				"element": "C" 
			},
			{
				"x": 2.1004961678,
				"y": -0.5122778941,
				"z": 0.4664027291,
				"element": "C" 
			},
			{
				"x": 1.0422201753,
				"y": -0.4532187506,
				"z": -0.5537298833,
				"element": "N" 
			},
			{
				"x": 1.4431092125,
				"y": -0.0353918888,
				"z": -1.9010502608,
				"element": "C" 
			},
			{
				"x": 0.2074511007,
				"y": 0.6962653583,
				"z": -2.4421005963,
				"element": "C" 
			},
			{
				"x": -0.3127406921,
				"y": 1.4486751662,
				"z": -1.2094006082,
				"element": "C" 
			},
			{
				"x": 0.3669846196,
				"y": 2.6985380654,
				"z": -1.0191795603,
				"element": "O" 
			},
			{
				"x": -0.0533616141,
				"y": 0.4289103449,
				"z": -0.0680709608,
				"element": "C" 
			},
			{
				"x": -0.1991776482,
				"y": 3.307518054,
				"z": 0.7149709063,
				"element": "H" 
			},
			{
				"x": -1.4057375107,
				"y": 1.6175722745,
				"z": 2.1085941918,
				"element": "H" 
			},
			{
				"x": 0.0037078405,
				"y": 1.8978116708,
				"z": 3.1367979044,
				"element": "H" 
			},
			{
				"x": 2.2078255128,
				"y": 0.6255866503,
				"z": 2.4463734493,
				"element": "H" 
			},
			{
				"x": 3.0777881962,
				"y": -0.2201885842,
				"z": 0.0467748219,
				"element": "H" 
			},
			{
				"x": 2.2317012883,
				"y": -1.5319535836,
				"z": 0.8616535461,
				"element": "H" 
			},
			{
				"x": 1.7292198732,
				"y": -0.8925359937,
				"z": -2.521595982,
				"element": "H" 
			},
			{
				"x": 2.315098846,
				"y": 0.647693071,
				"z": -1.883625165,
				"element": "H" 
			},
			{
				"x": 0.4255787841,
				"y": 1.3728498525,
				"z": -3.2719506138,
				"element": "H" 
			},
			{
				"x": -0.5439505043,
				"y": -0.0298934737,
				"z": -2.7716197458,
				"element": "H" 
			},
			{
				"x": -1.3684448587,
				"y": 1.7180434408,
				"z": -1.2911670547,
				"element": "H" 
			},
			{
				"x": 1.2780449174,
				"y": 2.5127050472,
				"z": -0.7493126946,
				"element": "H" 
			},
			{
				"x": -0.9797748842,
				"y": -0.1492661994,
				"z": 0.0886928984,
				"element": "H" 
			}
		],
		 "valence_orbital": [ 
			{
				"type": "occ",
				"energy": -0.31374,
				"method": "rhf"
			},
			{
				"type": "occ",
				"energy": -0.28754,
				"method": "rhf"
			},
			{
				"type": "occ",
				"energy": -0.25812,
				"method": "rhf"
			},
			{
				"type": "occ",
				"energy": -0.24741,
				"method": "rhf"
			},
			{
				"type": "occ",
				"energy": -0.21077,
				"method": "rhf"
			},
			{
				"type": "unocc",
				"energy": 0.00667,
				"method": "rhf"
			},
			{
				"type": "unocc",
				"energy": 0.05814,
				"method": "rhf"
			},
			{
				"type": "unocc",
				"energy": 0.09086,
				"method": "rhf"
			},
			{
				"type": "unocc",
				"energy": 0.10709,
				"method": "rhf"
			},
			{
				"type": "unocc",
				"energy": 0.1148,
				"method": "rhf"
			}
		],
		"cosmo_sigma_profile": { 
			"-0.025": 0.0,
			"-0.024": 0.0,
			"-0.023": 0.0,
			"-0.022": 0.0,
			"-0.021": 0.0,
			"-0.02": 0.0,
			"-0.019": 0.0,
			"-0.018": 0.0,
			"-0.017": 0.0,
			"-0.016": 0.0,
			"-0.015": 0.00855362134288,
			"-0.014": 0.431514903756,
			"-0.013": 0.500479204727,
			"-0.012": 0.973704730051,
			"-0.011": 1.39165345831,
			"-0.01": 0.964877822128,
			"-0.009": 1.01732181765,
			"-0.008": 1.20514975031,
			"-0.007": 1.1593315295,
			"-0.006": 2.86612406811,
			"-0.005": 6.95594658759,
			"-0.004": 22.6195144355,
			"-0.003": 28.4311773471,
			"-0.002": 25.5569249933,
			"-0.001": 23.329940011,
			"0.0": 15.0411254982,
			"0.001": 7.3693107933,
			"0.002": 7.66637133781,
			"0.003": 5.07922555253,
			"0.004": 4.19081399962,
			"0.005": 3.9402208286,
			"0.006": 3.47839133614,
			"0.007": 2.42878116919,
			"0.008": 2.92902280983,
			"0.009": 2.3193151525,
			"0.01": 2.57362373545,
			"0.011": 2.55828401177,
			"0.012": 2.93152925318,
			"0.013": 2.83452568191,
			"0.014": 2.21499246383,
			"0.015": 3.08977017655,
			"0.016": 0.969821686094,
			"0.017": 0.108048789154,
			"0.018": 0.0,
			"0.019": 0.0,
			"0.02": 0.0,
			"0.021": 0.0,
			"0.022": 0.0,
			"0.023": 0.0,
			"0.024": 0.0,
			"0.025": 0.0
		}
	}
}
