{
	 "smiles": "CC1=CC=C(C=C[N+]([O-])=O)C=C1", 
	 "Tm": 370.65, 
	 "num_atms": 21, 
	 "gaussian": { 
		 "optdone": 1, 
		 "sigma_profile": "yes", 
		 "theory": "DFT", 
		 "functional": "B3LYP", 
		 "basiset": "6-31G**", 
		 "properties": { 
			 "R2extent": 3924.5625, 
			 "electric_dipole_moment_norm": 6.54255585379, 
			 "electric_quadrupole_moment_norm": 21.6444184269, 
			 "total_energy": -553.473217461, 
			 "HOMO_LUMO_gap": 0.15362, 
			 "cosmo_polarized_energy": -10.77, 
			 "cosmo_cavitation_energy": 26.25, 
			 "cosmo_dispersion_energy": -18.99, 
			 "cosmo_repulsion_energy": 1.51, 
			 "cosmo_total_nonelectrostatic_energy": 8.76, 
			 "SMD_solvation_energy": 7.3 
		},
		"coords": [
			{
				"x": -0.1128130191,
				"y": 3.0832932608,
				"z": -1.7475314145,
				"element": "C" 
			},
			{
				"x": -0.3089196216,
				"y": 1.9599899194,
				"z": -0.7598773246,
				"element": "C" 
			},
			{
				"x": -1.5032288784,
				"y": 1.2166480939,
				"z": -0.7506280338,
				"element": "C" 
			},
			{
				"x": -1.6981177942,
				"y": 0.1773612385,
				"z": 0.1468935943,
				"element": "C" 
			},
			{
				"x": -0.6984279524,
				"y": -0.164563938,
				"z": 1.0809517283,
				"element": "C" 
			},
			{
				"x": -0.8400687322,
				"y": -1.243764545,
				"z": 2.0503373527,
				"element": "C" 
			},
			{
				"x": -1.8965226071,
				"y": -2.0551347005,
				"z": 2.2097317698,
				"element": "C" 
			},
			{
				"x": -1.8835743014,
				"y": -3.0885804168,
				"z": 3.2267279169,
				"element": "N" 
			},
			{
				"x": -2.9013083329,
				"y": -3.7844708655,
				"z": 3.2967025817,
				"element": "O" 
			},
			{
				"x": -0.8905660652,
				"y": -3.2172818674,
				"z": 3.9472298811,
				"element": "O" 
			},
			{
				"x": 0.4941034279,
				"y": 0.5791688713,
				"z": 1.0711720329,
				"element": "C" 
			},
			{
				"x": 0.6834148156,
				"y": 1.6216471463,
				"z": 0.1672382334,
				"element": "C" 
			},
			{
				"x": -0.9145063152,
				"y": 3.8260764695,
				"z": -1.6676943687,
				"element": "H" 
			},
			{
				"x": 0.8390767087,
				"y": 3.5961648764,
				"z": -1.5881123125,
				"element": "H" 
			},
			{
				"x": -0.1242459287,
				"y": 2.7096269649,
				"z": -2.7781568026,
				"element": "H" 
			},
			{
				"x": -2.2886645272,
				"y": 1.4622733578,
				"z": -1.4609527752,
				"element": "H" 
			},
			{
				"x": -2.6330808638,
				"y": -0.3739839577,
				"z": 0.1247298496,
				"element": "H" 
			},
			{
				"x": -0.0025195149,
				"y": -1.4174292356,
				"z": 2.7219187869,
				"element": "H" 
			},
			{
				"x": -2.8224498053,
				"y": -2.0531227864,
				"z": 1.6530300856,
				"element": "H" 
			},
			{
				"x": 1.2781730876,
				"y": 0.3339429955,
				"z": 1.782578543,
				"element": "H" 
			},
			{
				"x": 1.6150462197,
				"y": 2.1807391187,
				"z": 0.1820106757,
				"element": "H" 
			}
		],
		 "valence_orbital": [ 
			{
				"type": "occ",
				"energy": -0.29693,
				"method": "rhf"
			},
			{
				"type": "occ",
				"energy": -0.29657,
				"method": "rhf"
			},
			{
				"type": "occ",
				"energy": -0.27899,
				"method": "rhf"
			},
			{
				"type": "occ",
				"energy": -0.2724,
				"method": "rhf"
			},
			{
				"type": "occ",
				"energy": -0.24668,
				"method": "rhf"
			},
			{
				"type": "unocc",
				"energy": -0.09306,
				"method": "rhf"
			},
			{
				"type": "unocc",
				"energy": -0.02247,
				"method": "rhf"
			},
			{
				"type": "unocc",
				"energy": -0.02006,
				"method": "rhf"
			},
			{
				"type": "unocc",
				"energy": 0.04802,
				"method": "rhf"
			},
			{
				"type": "unocc",
				"energy": 0.07897,
				"method": "rhf"
			}
		],
		"cosmo_sigma_profile": { 
			"-0.025": 0.0,
			"-0.024": 0.0,
			"-0.023": 0.0,
			"-0.022": 0.0,
			"-0.021": 0.0,
			"-0.02": 0.0,
			"-0.019": 0.0,
			"-0.018": 0.0,
			"-0.017": 0.0,
			"-0.016": 0.0,
			"-0.015": 0.0,
			"-0.014": 0.0,
			"-0.013": 0.0,
			"-0.012": 0.0,
			"-0.011": 0.0387225659694,
			"-0.01": 1.58466489028,
			"-0.009": 2.56748247756,
			"-0.008": 3.90887201193,
			"-0.007": 4.90671151349,
			"-0.006": 9.01491045518,
			"-0.005": 14.4617815863,
			"-0.004": 18.3245130719,
			"-0.003": 16.1938838189,
			"-0.002": 17.3875137573,
			"-0.001": 18.72474244,
			"0.0": 18.6810815205,
			"0.001": 15.0306004131,
			"0.002": 10.6084799099,
			"0.003": 12.1029494846,
			"0.004": 11.7232476565,
			"0.005": 2.43293612944,
			"0.006": 2.81885476278,
			"0.007": 4.06214157328,
			"0.008": 8.73693214222,
			"0.009": 8.89625575626,
			"0.01": 4.79170617946,
			"0.011": 2.49709002742,
			"0.012": 0.0975545908726,
			"0.013": 0.0,
			"0.014": 0.0,
			"0.015": 0.0,
			"0.016": 0.0,
			"0.017": 0.0,
			"0.018": 0.0,
			"0.019": 0.0,
			"0.02": 0.0,
			"0.021": 0.0,
			"0.022": 0.0,
			"0.023": 0.0,
			"0.024": 0.0,
			"0.025": 0.0
		}
	}
}
