{
	 "smiles": "NNC1=C(Cl)C=C(Cl)C=C1Cl", 
	 "Tm": 415.15, 
	 "num_atms": 16, 
	 "gaussian": { 
		 "optdone": 1, 
		 "sigma_profile": "yes", 
		 "theory": "DFT", 
		 "functional": "B3LYP", 
		 "basiset": "6-31G**", 
		 "properties": { 
			 "R2extent": 5039.6119, 
			 "electric_dipole_moment_norm": 0.91572367011, 
			 "electric_quadrupole_moment_norm": 6.71223955025, 
			 "total_energy": -1721.68924785, 
			 "HOMO_LUMO_gap": 0.18966, 
			 "cosmo_polarized_energy": -7.24, 
			 "cosmo_cavitation_energy": 25.29, 
			 "cosmo_dispersion_energy": -19.18, 
			 "cosmo_repulsion_energy": 1.54, 
			 "cosmo_total_nonelectrostatic_energy": 7.66, 
			 "SMD_solvation_energy": 3.71 
		},
		"coords": [
			{
				"x": -1.9854040388,
				"y": -0.1779176776,
				"z": 2.2285221138,
				"element": "N" 
			},
			{
				"x": -1.1018829597,
				"y": -0.6157111072,
				"z": 1.2006193435,
				"element": "N" 
			},
			{
				"x": -1.5669750993,
				"y": -0.8220726494,
				"z": -0.0999467077,
				"element": "C" 
			},
			{
				"x": -0.9400891591,
				"y": -0.2152731991,
				"z": -1.2136122327,
				"element": "C" 
			},
			{
				"x": 0.4249344123,
				"y": 0.864317873,
				"z": -0.9462651187,
				"element": "Cl" 
			},
			{
				"x": -1.3469066416,
				"y": -0.4257752715,
				"z": -2.5265580699,
				"element": "C" 
			},
			{
				"x": -2.4349939133,
				"y": -1.2605086463,
				"z": -2.7648605202,
				"element": "C" 
			},
			{
				"x": -2.9837974765,
				"y": -1.5216118863,
				"z": -4.4085598058,
				"element": "Cl" 
			},
			{
				"x": -3.084507981,
				"y": -1.8989214915,
				"z": -1.7125096094,
				"element": "C" 
			},
			{
				"x": -2.6359434352,
				"y": -1.6919877344,
				"z": -0.4108368555,
				"element": "C" 
			},
			{
				"x": -3.4182692408,
				"y": -2.6264774305,
				"z": 0.8565342118,
				"element": "Cl" 
			},
			{
				"x": -2.4288249687,
				"y": -0.9935534449,
				"z": 2.6384290044,
				"element": "H" 
			},
			{
				"x": -2.722235456,
				"y": 0.4098574743,
				"z": 1.8378862179,
				"element": "H" 
			},
			{
				"x": -0.266939063,
				"y": -0.0454536457,
				"z": 1.221139925,
				"element": "H" 
			},
			{
				"x": -0.8334145102,
				"y": 0.0676344624,
				"z": -3.3421478859,
				"element": "H" 
			},
			{
				"x": -3.912450469,
				"y": -2.5717456254,
				"z": -1.8977340106,
				"element": "H" 
			}
		],
		 "valence_orbital": [ 
			{
				"type": "occ",
				"energy": -0.32343,
				"method": "rhf"
			},
			{
				"type": "occ",
				"energy": -0.30226,
				"method": "rhf"
			},
			{
				"type": "occ",
				"energy": -0.27308,
				"method": "rhf"
			},
			{
				"type": "occ",
				"energy": -0.2651,
				"method": "rhf"
			},
			{
				"type": "occ",
				"energy": -0.22769,
				"method": "rhf"
			},
			{
				"type": "unocc",
				"energy": -0.03803,
				"method": "rhf"
			},
			{
				"type": "unocc",
				"energy": -0.03011,
				"method": "rhf"
			},
			{
				"type": "unocc",
				"energy": -0.01838,
				"method": "rhf"
			},
			{
				"type": "unocc",
				"energy": 0.03751,
				"method": "rhf"
			},
			{
				"type": "unocc",
				"energy": 0.04031,
				"method": "rhf"
			}
		],
		"cosmo_sigma_profile": { 
			"-0.025": 0.0,
			"-0.024": 0.0,
			"-0.023": 0.0,
			"-0.022": 0.0,
			"-0.021": 0.0,
			"-0.02": 0.0,
			"-0.019": 0.0,
			"-0.018": 0.0,
			"-0.017": 0.0,
			"-0.016": 0.0,
			"-0.015": 0.0,
			"-0.014": 0.0,
			"-0.013": 0.0,
			"-0.012": 0.282554879231,
			"-0.011": 1.18314743297,
			"-0.01": 2.48719769735,
			"-0.009": 3.96730443257,
			"-0.008": 6.50954351362,
			"-0.007": 6.4579826478,
			"-0.006": 5.92265978367,
			"-0.005": 7.70893119208,
			"-0.004": 7.4706332893,
			"-0.003": 10.8683115285,
			"-0.002": 12.8310167086,
			"-0.001": 15.5906947884,
			"0.0": 21.0550483789,
			"0.001": 32.4013637104,
			"0.002": 18.0947179373,
			"0.003": 19.5552102909,
			"0.004": 20.465466724,
			"0.005": 4.52447911084,
			"0.006": 1.96640710837,
			"0.007": 1.91002579273,
			"0.008": 1.28078503827,
			"0.009": 1.10604296961,
			"0.01": 1.00165600305,
			"0.011": 1.51383135593,
			"0.012": 0.494704748531,
			"0.013": 0.119033013252,
			"0.014": 0.909562566468,
			"0.015": 0.614848951366,
			"0.016": 0.628241155161,
			"0.017": 0.181735312914,
			"0.018": 0.0,
			"0.019": 0.0,
			"0.02": 0.0,
			"0.021": 0.0,
			"0.022": 0.0,
			"0.023": 0.0,
			"0.024": 0.0,
			"0.025": 0.0
		}
	}
}
