{
	 "smiles": "N#CC1=C(N=CC=C1)N1C=CC=N1", 
	 "Tm": 388.15, 
	 "num_atms": 19, 
	 "gaussian": { 
		 "optdone": 1, 
		 "sigma_profile": "yes", 
		 "theory": "DFT", 
		 "functional": "B3LYP", 
		 "basiset": "6-31G**", 
		 "properties": { 
			 "R2extent": 2555.2725, 
			 "electric_dipole_moment_norm": 4.69967908372, 
			 "electric_quadrupole_moment_norm": 20.2642387903, 
			 "total_energy": -565.528523277, 
			 "HOMO_LUMO_gap": 0.17992, 
			 "cosmo_polarized_energy": -13.29, 
			 "cosmo_cavitation_energy": 24.93, 
			 "cosmo_dispersion_energy": -17.98, 
			 "cosmo_repulsion_energy": 1.4, 
			 "cosmo_total_nonelectrostatic_energy": 8.35, 
			 "SMD_solvation_energy": 4.71 
		},
		"coords": [
			{
				"x": 3.0044137015,
				"y": 0.1974189458,
				"z": 1.8291907715,
				"element": "N" 
			},
			{
				"x": 2.2643225803,
				"y": 0.0390822643,
				"z": 0.9458190382,
				"element": "C" 
			},
			{
				"x": 1.4422988971,
				"y": -0.3660867965,
				"z": -0.1558744585,
				"element": "C" 
			},
			{
				"x": 0.4626954266,
				"y": 0.4222870983,
				"z": -0.8103461567,
				"element": "C" 
			},
			{
				"x": -0.2632317351,
				"y": -0.0321872826,
				"z": -1.8330208623,
				"element": "N" 
			},
			{
				"x": -0.0662556924,
				"y": -1.2785658781,
				"z": -2.2646198765,
				"element": "C" 
			},
			{
				"x": 0.867946432,
				"y": -2.1461087687,
				"z": -1.7004491056,
				"element": "C" 
			},
			{
				"x": 1.6248168642,
				"y": -1.6747834104,
				"z": -0.6354548446,
				"element": "C" 
			},
			{
				"x": 0.1764660757,
				"y": 1.7443650458,
				"z": -0.4363054778,
				"element": "N" 
			},
			{
				"x": -0.754944793,
				"y": 2.5759701913,
				"z": -1.0148336279,
				"element": "C" 
			},
			{
				"x": -0.6895827706,
				"y": 3.7631357986,
				"z": -0.3299131993,
				"element": "C" 
			},
			{
				"x": 0.3156529111,
				"y": 3.5611644645,
				"z": 0.6543720402,
				"element": "C" 
			},
			{
				"x": 0.8357473468,
				"y": 2.3461594744,
				"z": 0.5891582823,
				"element": "N" 
			},
			{
				"x": -0.686407614,
				"y": -1.594378917,
				"z": -3.1007873423,
				"element": "H" 
			},
			{
				"x": 0.9967685466,
				"y": -3.1526409327,
				"z": -2.0818209504,
				"element": "H" 
			},
			{
				"x": 2.3674427443,
				"y": -2.3029348505,
				"z": -0.155095915,
				"element": "H" 
			},
			{
				"x": -1.3562098506,
				"y": 2.2367425702,
				"z": -1.8415619679,
				"element": "H" 
			},
			{
				"x": -1.2776569941,
				"y": 4.6508969782,
				"z": -0.5075926817,
				"element": "H" 
			},
			{
				"x": 0.6758179236,
				"y": 4.2541640049,
				"z": 1.4029363344,
				"element": "H" 
			}
		],
		 "valence_orbital": [ 
			{
				"type": "occ",
				"energy": -0.29617,
				"method": "rhf"
			},
			{
				"type": "occ",
				"energy": -0.29355,
				"method": "rhf"
			},
			{
				"type": "occ",
				"energy": -0.28667,
				"method": "rhf"
			},
			{
				"type": "occ",
				"energy": -0.26117,
				"method": "rhf"
			},
			{
				"type": "occ",
				"energy": -0.24698,
				"method": "rhf"
			},
			{
				"type": "unocc",
				"energy": -0.06706,
				"method": "rhf"
			},
			{
				"type": "unocc",
				"energy": -0.05575,
				"method": "rhf"
			},
			{
				"type": "unocc",
				"energy": 0.02407,
				"method": "rhf"
			},
			{
				"type": "unocc",
				"energy": 0.03976,
				"method": "rhf"
			},
			{
				"type": "unocc",
				"energy": 0.06146,
				"method": "rhf"
			}
		],
		"cosmo_sigma_profile": { 
			"-0.025": 0.0,
			"-0.024": 0.0,
			"-0.023": 0.0,
			"-0.022": 0.0,
			"-0.021": 0.0,
			"-0.02": 0.0,
			"-0.019": 0.0,
			"-0.018": 0.0,
			"-0.017": 0.0,
			"-0.016": 0.0,
			"-0.015": 0.0,
			"-0.014": 0.0,
			"-0.013": 0.0,
			"-0.012": 0.0,
			"-0.011": 0.0,
			"-0.01": 0.183039227048,
			"-0.009": 2.9506537264,
			"-0.008": 10.1546677895,
			"-0.007": 12.4768795367,
			"-0.006": 9.83913525515,
			"-0.005": 10.2366670179,
			"-0.004": 9.04306882037,
			"-0.003": 15.8322846772,
			"-0.002": 18.4354087873,
			"-0.001": 15.9192803504,
			"0.0": 17.732908094,
			"0.001": 11.4681059797,
			"0.002": 10.0539342286,
			"0.003": 10.8632886674,
			"0.004": 7.41785447704,
			"0.005": 4.6911748911,
			"0.006": 5.21452090977,
			"0.007": 4.44144000709,
			"0.008": 4.66291829444,
			"0.009": 5.24225341758,
			"0.01": 5.53619343887,
			"0.011": 5.09933515855,
			"0.012": 3.5676393112,
			"0.013": 1.94121937145,
			"0.014": 0.102350092105,
			"0.015": 0.0,
			"0.016": 0.0,
			"0.017": 0.0,
			"0.018": 0.0,
			"0.019": 0.0,
			"0.02": 0.0,
			"0.021": 0.0,
			"0.022": 0.0,
			"0.023": 0.0,
			"0.024": 0.0,
			"0.025": 0.0
		}
	}
}
