{
	 "smiles": "COC(=O)C1=CC(F)=C(C)C(O)=C1", 
	 "Tm": 403.15, 
	 "num_atms": 22, 
	 "gaussian": { 
		 "optdone": 1, 
		 "sigma_profile": "yes", 
		 "theory": "DFT", 
		 "functional": "B3LYP", 
		 "basiset": "6-31G**", 
		 "properties": { 
			 "R2extent": 2898.3377, 
			 "electric_dipole_moment_norm": 0.566341469433, 
			 "electric_quadrupole_moment_norm": 12.8324357548, 
			 "total_energy": -673.903829497, 
			 "HOMO_LUMO_gap": 0.1857, 
			 "cosmo_polarized_energy": -10.42, 
			 "cosmo_cavitation_energy": 26.99, 
			 "cosmo_dispersion_energy": -19.7, 
			 "cosmo_repulsion_energy": 1.54, 
			 "cosmo_total_nonelectrostatic_energy": 8.83, 
			 "SMD_solvation_energy": 7.13 
		},
		"coords": [
			{
				"x": -3.8311104667,
				"y": 0.4451097764,
				"z": 1.8968119679,
				"element": "C" 
			},
			{
				"x": -2.7271380781,
				"y": 0.2552092837,
				"z": 0.9988822542,
				"element": "O" 
			},
			{
				"x": -1.5048104808,
				"y": 0.4605279102,
				"z": 1.5378482438,
				"element": "C" 
			},
			{
				"x": -1.3355649281,
				"y": 0.7833484727,
				"z": 2.6984011533,
				"element": "O" 
			},
			{
				"x": -0.4049393931,
				"y": 0.2475254753,
				"z": 0.5556178404,
				"element": "C" 
			},
			{
				"x": -0.6478066638,
				"y": -0.1237451945,
				"z": -0.7698014055,
				"element": "C" 
			},
			{
				"x": 0.4453393273,
				"y": -0.2984157395,
				"z": -1.6091976163,
				"element": "C" 
			},
			{
				"x": 0.2068392002,
				"y": -0.6579041625,
				"z": -2.8917819972,
				"element": "F" 
			},
			{
				"x": 1.770445739,
				"y": -0.1258151311,
				"z": -1.2099443408,
				"element": "C" 
			},
			{
				"x": 2.929437331,
				"y": -0.3239233867,
				"z": -2.1475925019,
				"element": "C" 
			},
			{
				"x": 1.9753363444,
				"y": 0.248197434,
				"z": 0.1322949916,
				"element": "C" 
			},
			{
				"x": 3.2750132027,
				"y": 0.4157863225,
				"z": 0.5176752831,
				"element": "O" 
			},
			{
				"x": 0.9067974896,
				"y": 0.4336343111,
				"z": 1.0071526971,
				"element": "C" 
			},
			{
				"x": -3.8454833346,
				"y": 1.4692712163,
				"z": 2.2781076109,
				"element": "H" 
			},
			{
				"x": -3.7622949531,
				"y": -0.2436117288,
				"z": 2.7426402176,
				"element": "H" 
			},
			{
				"x": -4.7262874496,
				"y": 0.2422620148,
				"z": 1.3091314629,
				"element": "H" 
			},
			{
				"x": -1.6517441088,
				"y": -0.2739380616,
				"z": -1.1440148685,
				"element": "H" 
			},
			{
				"x": 2.5797304939,
				"y": -0.6094715145,
				"z": -3.1398176381,
				"element": "H" 
			},
			{
				"x": 3.5222422126,
				"y": 0.5930848883,
				"z": -2.2317145081,
				"element": "H" 
			},
			{
				"x": 3.6038345548,
				"y": -1.1012176625,
				"z": -1.772880324,
				"element": "H" 
			},
			{
				"x": 3.2975665303,
				"y": 0.669676771,
				"z": 1.4495549574,
				"element": "H" 
			},
			{
				"x": 1.065797431,
				"y": 0.7220087055,
				"z": 2.0421265201,
				"element": "H" 
			}
		],
		 "valence_orbital": [ 
			{
				"type": "occ",
				"energy": -0.33148,
				"method": "rhf"
			},
			{
				"type": "occ",
				"energy": -0.30375,
				"method": "rhf"
			},
			{
				"type": "occ",
				"energy": -0.27652,
				"method": "rhf"
			},
			{
				"type": "occ",
				"energy": -0.24782,
				"method": "rhf"
			},
			{
				"type": "occ",
				"energy": -0.23237,
				"method": "rhf"
			},
			{
				"type": "unocc",
				"energy": -0.04667,
				"method": "rhf"
			},
			{
				"type": "unocc",
				"energy": 0.00605,
				"method": "rhf"
			},
			{
				"type": "unocc",
				"energy": 0.06095,
				"method": "rhf"
			},
			{
				"type": "unocc",
				"energy": 0.06297,
				"method": "rhf"
			},
			{
				"type": "unocc",
				"energy": 0.09624,
				"method": "rhf"
			}
		],
		"cosmo_sigma_profile": { 
			"-0.025": 0.0,
			"-0.024": 0.0,
			"-0.023": 0.0,
			"-0.022": 0.0,
			"-0.021": 0.0,
			"-0.02": 0.0,
			"-0.019": 0.186345765118,
			"-0.018": 0.827972078623,
			"-0.017": 1.16478098116,
			"-0.016": 1.24918752126,
			"-0.015": 0.890220386188,
			"-0.014": 0.552437818778,
			"-0.013": 0.715537406412,
			"-0.012": 1.08530106013,
			"-0.011": 1.19316656901,
			"-0.01": 1.62643962472,
			"-0.009": 0.918713846018,
			"-0.008": 0.739221107151,
			"-0.007": 2.05694590859,
			"-0.006": 6.95353135327,
			"-0.005": 10.3945691624,
			"-0.004": 15.5334918189,
			"-0.003": 16.364217626,
			"-0.002": 14.235466081,
			"-0.001": 16.8975507839,
			"0.0": 20.6117471749,
			"0.001": 20.1782361405,
			"0.002": 21.3387659613,
			"0.003": 15.1955298861,
			"0.004": 13.2067584956,
			"0.005": 6.92802842189,
			"0.006": 4.12667974435,
			"0.007": 3.06634725879,
			"0.008": 2.83500553975,
			"0.009": 3.71966309521,
			"0.01": 2.73265072316,
			"0.011": 3.19554237258,
			"0.012": 3.9059763739,
			"0.013": 0.140523011273,
			"0.014": 0.0,
			"0.015": 0.0,
			"0.016": 0.0,
			"0.017": 0.0,
			"0.018": 0.0,
			"0.019": 0.0,
			"0.02": 0.0,
			"0.021": 0.0,
			"0.022": 0.0,
			"0.023": 0.0,
			"0.024": 0.0,
			"0.025": 0.0
		}
	}
}
