{
	 "smiles": "ClCC(=O)C1=CC=C(OC2=CC=CC=C2)C=C1", 
	 "Tm": 328.15, 
	 "num_atms": 28, 
	 "gaussian": { 
		 "optdone": 1, 
		 "sigma_profile": "yes", 
		 "theory": "DFT", 
		 "functional": "B3LYP", 
		 "basiset": "6-31G**", 
		 "properties": { 
			 "R2extent": 7911.6656, 
			 "electric_dipole_moment_norm": 6.19758465614, 
			 "electric_quadrupole_moment_norm": 25.7159521858, 
			 "total_energy": -1150.74863452, 
			 "HOMO_LUMO_gap": 0.17964, 
			 "cosmo_polarized_energy": -13.93, 
			 "cosmo_cavitation_energy": 34.85, 
			 "cosmo_dispersion_energy": -25.21, 
			 "cosmo_repulsion_energy": 1.96, 
			 "cosmo_total_nonelectrostatic_energy": 11.6, 
			 "SMD_solvation_energy": 6.29 
		},
		"coords": [
			{
				"x": 2.3588760939,
				"y": -6.0041428268,
				"z": 2.1433693878,
				"element": "Cl" 
			},
			{
				"x": 1.881360587,
				"y": -4.2893757159,
				"z": 1.9542576503,
				"element": "C" 
			},
			{
				"x": 1.665543945,
				"y": -3.8784706358,
				"z": 0.4901622081,
				"element": "C" 
			},
			{
				"x": 1.814708103,
				"y": -4.6684404321,
				"z": -0.4230002066,
				"element": "O" 
			},
			{
				"x": 1.2640845946,
				"y": -2.46217297,
				"z": 0.2470009509,
				"element": "C" 
			},
			{
				"x": 1.059509849,
				"y": -2.0588072865,
				"z": -1.085938713,
				"element": "C" 
			},
			{
				"x": 0.6828470802,
				"y": -0.7611694301,
				"z": -1.3887345356,
				"element": "C" 
			},
			{
				"x": 0.5015937686,
				"y": 0.1698039893,
				"z": -0.354644935,
				"element": "C" 
			},
			{
				"x": 0.1595861223,
				"y": 1.4356314698,
				"z": -0.7480238333,
				"element": "O" 
			},
			{
				"x": -0.2837755023,
				"y": 2.3695193761,
				"z": 0.1818820435,
				"element": "C" 
			},
			{
				"x": 0.5011658194,
				"y": 3.4997440561,
				"z": 0.4030748129,
				"element": "C" 
			},
			{
				"x": 0.0356209632,
				"y": 4.4941253104,
				"z": 1.2656511203,
				"element": "C" 
			},
			{
				"x": -1.1989431167,
				"y": 4.3533806325,
				"z": 1.9023145888,
				"element": "C" 
			},
			{
				"x": -1.9753833701,
				"y": 3.2151849853,
				"z": 1.6696446438,
				"element": "C" 
			},
			{
				"x": -1.5243062989,
				"y": 2.2178022361,
				"z": 0.8045437488,
				"element": "C" 
			},
			{
				"x": 0.703941088,
				"y": -0.2062466548,
				"z": 0.9784754874,
				"element": "C" 
			},
			{
				"x": 1.081482248,
				"y": -1.5155849865,
				"z": 1.2669830663,
				"element": "C" 
			},
			{
				"x": 2.6664951593,
				"y": -3.6758787033,
				"z": 2.4034127028,
				"element": "H" 
			},
			{
				"x": 0.9621999981,
				"y": -4.1369929437,
				"z": 2.525557855,
				"element": "H" 
			},
			{
				"x": 1.2024858764,
				"y": -2.7939903442,
				"z": -1.8705251098,
				"element": "H" 
			},
			{
				"x": 0.5220092127,
				"y": -0.4404539995,
				"z": -2.4125462456,
				"element": "H" 
			},
			{
				"x": 1.4552750489,
				"y": 3.5894733632,
				"z": -0.1056156192,
				"element": "H" 
			},
			{
				"x": 0.6412154846,
				"y": 5.3786558243,
				"z": 1.4392963253,
				"element": "H" 
			},
			{
				"x": -1.557349314,
				"y": 5.1283803733,
				"z": 2.5728250588,
				"element": "H" 
			},
			{
				"x": -2.9402585186,
				"y": 3.1050944139,
				"z": 2.1557839904,
				"element": "H" 
			},
			{
				"x": -2.1225832696,
				"y": 1.33504077,
				"z": 0.603359399,
				"element": "H" 
			},
			{
				"x": 0.5721579228,
				"y": 0.5150245627,
				"z": 1.7760830772,
				"element": "H" 
			},
			{
				"x": 1.2355404253,
				"y": -1.784234434,
				"z": 2.3073510805,
				"element": "H" 
			}
		],
		 "valence_orbital": [ 
			{
				"type": "occ",
				"energy": -0.27247,
				"method": "rhf"
			},
			{
				"type": "occ",
				"energy": -0.26782,
				"method": "rhf"
			},
			{
				"type": "occ",
				"energy": -0.26174,
				"method": "rhf"
			},
			{
				"type": "occ",
				"energy": -0.25895,
				"method": "rhf"
			},
			{
				"type": "occ",
				"energy": -0.23841,
				"method": "rhf"
			},
			{
				"type": "unocc",
				"energy": -0.05877,
				"method": "rhf"
			},
			{
				"type": "unocc",
				"energy": -0.02523,
				"method": "rhf"
			},
			{
				"type": "unocc",
				"energy": -0.01424,
				"method": "rhf"
			},
			{
				"type": "unocc",
				"energy": -0.01299,
				"method": "rhf"
			},
			{
				"type": "unocc",
				"energy": 0.02742,
				"method": "rhf"
			}
		],
		"cosmo_sigma_profile": { 
			"-0.025": 0.0,
			"-0.024": 0.0,
			"-0.023": 0.0,
			"-0.022": 0.0,
			"-0.021": 0.0,
			"-0.02": 0.0,
			"-0.019": 0.0,
			"-0.018": 0.0,
			"-0.017": 0.0,
			"-0.016": 0.0,
			"-0.015": 0.0,
			"-0.014": 0.0,
			"-0.013": 0.0,
			"-0.012": 0.0,
			"-0.011": 0.0,
			"-0.01": 0.427978857806,
			"-0.009": 7.91963572631,
			"-0.008": 6.58901310971,
			"-0.007": 9.05339834129,
			"-0.006": 18.1672697654,
			"-0.005": 18.4683693863,
			"-0.004": 19.3922343698,
			"-0.003": 14.8344479317,
			"-0.002": 16.3071447274,
			"-0.001": 15.8866787624,
			"0.0": 18.1609033707,
			"0.001": 21.4379983494,
			"0.002": 24.8050488944,
			"0.003": 26.96482922,
			"0.004": 17.7873350723,
			"0.005": 13.8166840895,
			"0.006": 10.0269040252,
			"0.007": 4.63193680767,
			"0.008": 3.36880164723,
			"0.009": 2.77475999586,
			"0.01": 2.68354427688,
			"0.011": 3.84446580739,
			"0.012": 2.89372437543,
			"0.013": 1.49928011603,
			"0.014": 0.209040757916,
			"0.015": 0.0,
			"0.016": 0.0,
			"0.017": 0.0,
			"0.018": 0.0,
			"0.019": 0.0,
			"0.02": 0.0,
			"0.021": 0.0,
			"0.022": 0.0,
			"0.023": 0.0,
			"0.024": 0.0,
			"0.025": 0.0
		}
	}
}
