{
	 "smiles": "CC(=O)OC[C@H]1O[C@@H](OC2=CC=C(C)C=C2)[C@H](OC(C)=O)[C@@H](OC(C)=O)[C@@H]1OC(C)=O", 
	 "Tm": 399.15, 
	 "num_atms": 57, 
	 "gaussian": { 
		 "optdone": 1, 
		 "sigma_profile": "yes", 
		 "theory": "DFT", 
		 "functional": "B3LYP", 
		 "basiset": "6-31G**", 
		 "properties": { 
			 "R2extent": 17891.9616, 
			 "electric_dipole_moment_norm": 1.02912165462, 
			 "electric_quadrupole_moment_norm": 16.5376456006, 
			 "total_energy": -1568.19322645, 
			 "HOMO_LUMO_gap": 0.21831, 
			 "cosmo_polarized_energy": -21.47, 
			 "cosmo_cavitation_energy": 60.04, 
			 "cosmo_dispersion_energy": -38.26, 
			 "cosmo_repulsion_energy": 2.94, 
			 "cosmo_total_nonelectrostatic_energy": 24.71, 
			 "SMD_solvation_energy": 13.63 
		},
		"coords": [
			{
				"x": -0.0143395065,
				"y": 5.6037009833,
				"z": 0.9319727192,
				"element": "C" 
			},
			{
				"x": 0.5491600329,
				"y": 4.2683530324,
				"z": 1.3385129164,
				"element": "C" 
			},
			{
				"x": 1.7291705542,
				"y": 4.0073661962,
				"z": 1.4406495922,
				"element": "O" 
			},
			{
				"x": -0.4474251708,
				"y": 3.3632405309,
				"z": 1.5400694132,
				"element": "O" 
			},
			{
				"x": -0.0566283161,
				"y": 2.0117369258,
				"z": 1.8365313489,
				"element": "C" 
			},
			{
				"x": -0.6754933532,
				"y": 1.0353176033,
				"z": 0.846304439,
				"element": "C" 
			},
			{
				"x": -2.0772597558,
				"y": 0.9470676689,
				"z": 1.0953605711,
				"element": "O" 
			},
			{
				"x": -2.6821865476,
				"y": -0.1496929141,
				"z": 0.4129344947,
				"element": "C" 
			},
			{
				"x": -4.0413662559,
				"y": -0.171508096,
				"z": 0.7150212001,
				"element": "O" 
			},
			{
				"x": -4.459818926,
				"y": -0.7730982446,
				"z": 1.8871370687,
				"element": "C" 
			},
			{
				"x": -5.7984663493,
				"y": -1.1759822604,
				"z": 1.9173219772,
				"element": "C" 
			},
			{
				"x": -6.3122951698,
				"y": -1.782194148,
				"z": 3.0584125589,
				"element": "C" 
			},
			{
				"x": -5.5118314111,
				"y": -2.0099655418,
				"z": 4.1890530728,
				"element": "C" 
			},
			{
				"x": -6.0755637996,
				"y": -2.6921155578,
				"z": 5.413766402,
				"element": "C" 
			},
			{
				"x": -4.1793447268,
				"y": -1.5912883961,
				"z": 4.1356811675,
				"element": "C" 
			},
			{
				"x": -3.6459961594,
				"y": -0.969484643,
				"z": 3.0029400663,
				"element": "C" 
			},
			{
				"x": -2.5723800235,
				"y": 0.1032069502,
				"z": -1.1032886063,
				"element": "C" 
			},
			{
				"x": -3.1579592906,
				"y": -0.927274558,
				"z": -1.9187665767,
				"element": "O" 
			},
			{
				"x": -2.6687467716,
				"y": -2.196463953,
				"z": -1.8458561494,
				"element": "C" 
			},
			{
				"x": -3.2759010254,
				"y": -3.0583184511,
				"z": -2.9204855501,
				"element": "C" 
			},
			{
				"x": -1.842578273,
				"y": -2.5591862343,
				"z": -1.0371995814,
				"element": "O" 
			},
			{
				"x": -1.132516486,
				"y": 0.4070374866,
				"z": -1.5444093639,
				"element": "C" 
			},
			{
				"x": -1.1660235327,
				"y": 0.9902612039,
				"z": -2.8634987545,
				"element": "O" 
			},
			{
				"x": -0.911478932,
				"y": 0.1912963504,
				"z": -3.9315472132,
				"element": "C" 
			},
			{
				"x": -0.9734651205,
				"y": 0.994096713,
				"z": -5.2073938535,
				"element": "C" 
			},
			{
				"x": -0.6761268339,
				"y": -0.99450375,
				"z": -3.8555907214,
				"element": "O" 
			},
			{
				"x": -0.4817602972,
				"y": 1.4373322102,
				"z": -0.6235982746,
				"element": "C" 
			},
			{
				"x": 0.9273008288,
				"y": 1.4930576686,
				"z": -0.9060983737,
				"element": "O" 
			},
			{
				"x": 1.4195630645,
				"y": 2.6397601837,
				"z": -1.460775698,
				"element": "C" 
			},
			{
				"x": 2.9202531461,
				"y": 2.5778227394,
				"z": -1.5598943416,
				"element": "C" 
			},
			{
				"x": 0.7319983446,
				"y": 3.5830873729,
				"z": -1.7814171106,
				"element": "O" 
			},
			{
				"x": -0.9950616486,
				"y": 5.7769507009,
				"z": 1.3777846078,
				"element": "H" 
			},
			{
				"x": 0.6853619571,
				"y": 6.3929197201,
				"z": 1.208726853,
				"element": "H" 
			},
			{
				"x": -0.1216967916,
				"y": 5.5967239214,
				"z": -0.1580541305,
				"element": "H" 
			},
			{
				"x": 1.031482326,
				"y": 1.938465553,
				"z": 1.8110514695,
				"element": "H" 
			},
			{
				"x": -0.4198559668,
				"y": 1.7754255288,
				"z": 2.8404706651,
				"element": "H" 
			},
			{
				"x": -0.1984847629,
				"y": 0.056079969,
				"z": 1.0225438741,
				"element": "H" 
			},
			{
				"x": -2.1947170004,
				"y": -1.0857190746,
				"z": 0.707660507,
				"element": "H" 
			},
			{
				"x": -6.414478405,
				"y": -1.0079357571,
				"z": 1.0398977636,
				"element": "H" 
			},
			{
				"x": -7.3550893177,
				"y": -2.0904305957,
				"z": 3.0695090898,
				"element": "H" 
			},
			{
				"x": -5.3879575714,
				"y": -2.6215215751,
				"z": 6.2613627747,
				"element": "H" 
			},
			{
				"x": -7.0291694903,
				"y": -2.2471625158,
				"z": 5.7185602643,
				"element": "H" 
			},
			{
				"x": -6.2624020065,
				"y": -3.757302076,
				"z": 5.2295022545,
				"element": "H" 
			},
			{
				"x": -3.5383979095,
				"y": -1.7402452481,
				"z": 5.0011728823,
				"element": "H" 
			},
			{
				"x": -2.6228281716,
				"y": -0.6144551809,
				"z": 3.0060744595,
				"element": "H" 
			},
			{
				"x": -3.1906656307,
				"y": 0.9810513641,
				"z": -1.3094121106,
				"element": "H" 
			},
			{
				"x": -2.7283634831,
				"y": -2.8665015678,
				"z": -3.849170382,
				"element": "H" 
			},
			{
				"x": -3.1622061768,
				"y": -4.1082337258,
				"z": -2.6507031839,
				"element": "H" 
			},
			{
				"x": -4.3266632946,
				"y": -2.8098891444,
				"z": -3.0824465284,
				"element": "H" 
			},
			{
				"x": -0.5392446988,
				"y": -0.5089177332,
				"z": -1.5720870735,
				"element": "H" 
			},
			{
				"x": -0.3596953297,
				"y": 1.8942990572,
				"z": -5.1201408375,
				"element": "H" 
			},
			{
				"x": -0.6356979957,
				"y": 0.3787696482,
				"z": -6.0406384349,
				"element": "H" 
			},
			{
				"x": -2.0038971125,
				"y": 1.3183402454,
				"z": -5.3845817285,
				"element": "H" 
			},
			{
				"x": -0.9219990114,
				"y": 2.4212999367,
				"z": -0.7929727267,
				"element": "H" 
			},
			{
				"x": 3.2616188122,
				"y": 3.2577577365,
				"z": -2.3408103206,
				"element": "H" 
			},
			{
				"x": 3.3263978864,
				"y": 2.9138913509,
				"z": -0.5995945093,
				"element": "H" 
			},
			{
				"x": 3.2688168568,
				"y": 1.560874391,
				"z": -1.7479543381,
				"element": "H" 
			}
		],
		 "valence_orbital": [ 
			{
				"type": "occ",
				"energy": -0.27793,
				"method": "rhf"
			},
			{
				"type": "occ",
				"energy": -0.27676,
				"method": "rhf"
			},
			{
				"type": "occ",
				"energy": -0.26799,
				"method": "rhf"
			},
			{
				"type": "occ",
				"energy": -0.24857,
				"method": "rhf"
			},
			{
				"type": "occ",
				"energy": -0.21982,
				"method": "rhf"
			},
			{
				"type": "unocc",
				"energy": -0.00151,
				"method": "rhf"
			},
			{
				"type": "unocc",
				"energy": 0.00032,
				"method": "rhf"
			},
			{
				"type": "unocc",
				"energy": 0.00326,
				"method": "rhf"
			},
			{
				"type": "unocc",
				"energy": 0.00764,
				"method": "rhf"
			},
			{
				"type": "unocc",
				"energy": 0.00906,
				"method": "rhf"
			}
		],
		"cosmo_sigma_profile": { 
			"-0.025": 0.0,
			"-0.024": 0.0,
			"-0.023": 0.0,
			"-0.022": 0.0,
			"-0.021": 0.0,
			"-0.02": 0.0,
			"-0.019": 0.0,
			"-0.018": 0.0,
			"-0.017": 0.0,
			"-0.016": 0.0,
			"-0.015": 0.0,
			"-0.014": 0.0,
			"-0.013": 0.0,
			"-0.012": 0.0,
			"-0.011": 0.0,
			"-0.01": 0.0,
			"-0.009": 0.854662592933,
			"-0.008": 5.00123810434,
			"-0.007": 13.1185966518,
			"-0.006": 25.3705987358,
			"-0.005": 32.8479648282,
			"-0.004": 48.601569652,
			"-0.003": 46.1901386809,
			"-0.002": 54.0359357621,
			"-0.001": 35.9262760249,
			"0.0": 29.6987988257,
			"0.001": 25.1318565079,
			"0.002": 21.1657205553,
			"0.003": 21.2173401063,
			"0.004": 19.7200749665,
			"0.005": 21.080282371,
			"0.006": 16.8196593167,
			"0.007": 12.4271212768,
			"0.008": 11.8543210168,
			"0.009": 7.93816890082,
			"0.01": 8.66691430729,
			"0.011": 9.41593038441,
			"0.012": 5.61765209096,
			"0.013": 0.553766119449,
			"0.014": 0.0,
			"0.015": 0.0,
			"0.016": 0.0,
			"0.017": 0.0,
			"0.018": 0.0,
			"0.019": 0.0,
			"0.02": 0.0,
			"0.021": 0.0,
			"0.022": 0.0,
			"0.023": 0.0,
			"0.024": 0.0,
			"0.025": 0.0
		}
	}
}
