{
	 "smiles": "O=C1CCN(CC#N)CC1", 
	 "Tm": 365.15, 
	 "num_atms": 20, 
	 "gaussian": { 
		 "optdone": 1, 
		 "sigma_profile": "yes", 
		 "theory": "DFT", 
		 "functional": "B3LYP", 
		 "basiset": "6-31G**", 
		 "properties": { 
			 "R2extent": 1666.2203, 
			 "electric_dipole_moment_norm": 3.93289536347, 
			 "electric_quadrupole_moment_norm": 12.2280070948, 
			 "total_energy": -457.458378874, 
			 "HOMO_LUMO_gap": 0.21577, 
			 "cosmo_polarized_energy": -14.32, 
			 "cosmo_cavitation_energy": 23.23, 
			 "cosmo_dispersion_energy": -16.47, 
			 "cosmo_repulsion_energy": 1.34, 
			 "cosmo_total_nonelectrostatic_energy": 8.1, 
			 "SMD_solvation_energy": 3.11 
		},
		"coords": [
			{
				"x": -1.822319381,
				"y": 3.1812116594,
				"z": 0.0705640161,
				"element": "O" 
			},
			{
				"x": -1.0464676181,
				"y": 2.2538491017,
				"z": -0.0367245634,
				"element": "C" 
			},
			{
				"x": -1.433326776,
				"y": 0.8052591535,
				"z": 0.2313648857,
				"element": "C" 
			},
			{
				"x": -0.2356239829,
				"y": 0.0046564487,
				"z": 0.7682325636,
				"element": "C" 
			},
			{
				"x": 0.957129593,
				"y": 0.0535231791,
				"z": -0.109169937,
				"element": "N" 
			},
			{
				"x": 1.3221534026,
				"y": -1.2148991168,
				"z": -0.7093621442,
				"element": "C" 
			},
			{
				"x": 0.3312315997,
				"y": -1.7413551643,
				"z": -1.6889194034,
				"element": "C" 
			},
			{
				"x": -0.4904859407,
				"y": -2.0931772981,
				"z": -2.4306453842,
				"element": "N" 
			},
			{
				"x": 0.9870751919,
				"y": 1.1657802736,
				"z": -1.0704247333,
				"element": "C" 
			},
			{
				"x": 0.4112564545,
				"y": 2.4397677292,
				"z": -0.4490579405,
				"element": "C" 
			},
			{
				"x": -2.2772448147,
				"y": 0.7829120578,
				"z": 0.9263984254,
				"element": "H" 
			},
			{
				"x": -1.7806811374,
				"y": 0.3677054095,
				"z": -0.7148788287,
				"element": "H" 
			},
			{
				"x": 0.0379917654,
				"y": 0.3914266265,
				"z": 1.7593032705,
				"element": "H" 
			},
			{
				"x": -0.5321338904,
				"y": -1.0385239383,
				"z": 0.9139790827,
				"element": "H" 
			},
			{
				"x": 2.2837904845,
				"y": -1.1086155949,
				"z": -1.225020619,
				"element": "H" 
			},
			{
				"x": 1.4625080742,
				"y": -1.9707523781,
				"z": 0.070805034,
				"element": "H" 
			},
			{
				"x": 2.0284795038,
				"y": 1.330592534,
				"z": -1.372437766,
				"element": "H" 
			},
			{
				"x": 0.4241914949,
				"y": 0.9307531715,
				"z": -1.9917256469,
				"element": "H" 
			},
			{
				"x": 0.9827407585,
				"y": 2.703266157,
				"z": 0.4519299273,
				"element": "H" 
			},
			{
				"x": 0.4819352182,
				"y": 3.2889199889,
				"z": -1.1341102387,
				"element": "H" 
			}
		],
		 "valence_orbital": [ 
			{
				"type": "occ",
				"energy": -0.34409,
				"method": "rhf"
			},
			{
				"type": "occ",
				"energy": -0.33744,
				"method": "rhf"
			},
			{
				"type": "occ",
				"energy": -0.33187,
				"method": "rhf"
			},
			{
				"type": "occ",
				"energy": -0.24768,
				"method": "rhf"
			},
			{
				"type": "occ",
				"energy": -0.23746,
				"method": "rhf"
			},
			{
				"type": "unocc",
				"energy": -0.02169,
				"method": "rhf"
			},
			{
				"type": "unocc",
				"energy": 0.01592,
				"method": "rhf"
			},
			{
				"type": "unocc",
				"energy": 0.02973,
				"method": "rhf"
			},
			{
				"type": "unocc",
				"energy": 0.0697,
				"method": "rhf"
			},
			{
				"type": "unocc",
				"energy": 0.0949,
				"method": "rhf"
			}
		],
		"cosmo_sigma_profile": { 
			"-0.025": 0.0,
			"-0.024": 0.0,
			"-0.023": 0.0,
			"-0.022": 0.0,
			"-0.021": 0.0,
			"-0.02": 0.0,
			"-0.019": 0.0,
			"-0.018": 0.0,
			"-0.017": 0.0,
			"-0.016": 0.0,
			"-0.015": 0.0,
			"-0.014": 0.0,
			"-0.013": 0.0,
			"-0.012": 0.0,
			"-0.011": 0.0,
			"-0.01": 0.0,
			"-0.009": 1.845039159,
			"-0.008": 7.09196806688,
			"-0.007": 8.02873714457,
			"-0.006": 14.3920737138,
			"-0.005": 18.7065031035,
			"-0.004": 21.0234365514,
			"-0.003": 19.5733663422,
			"-0.002": 15.6827422845,
			"-0.001": 7.78758004427,
			"0.0": 4.70731181475,
			"0.001": 4.94934807897,
			"0.002": 4.08569424278,
			"0.003": 2.58495094511,
			"0.004": 4.65363465151,
			"0.005": 4.04799404921,
			"0.006": 4.29141080415,
			"0.007": 3.89994048449,
			"0.008": 5.58721408862,
			"0.009": 5.23325116277,
			"0.01": 5.73596830006,
			"0.011": 6.27662051395,
			"0.012": 7.45409147441,
			"0.013": 4.78526966958,
			"0.014": 0.461344513555,
			"0.015": 0.0,
			"0.016": 0.0,
			"0.017": 0.0,
			"0.018": 0.0,
			"0.019": 0.0,
			"0.02": 0.0,
			"0.021": 0.0,
			"0.022": 0.0,
			"0.023": 0.0,
			"0.024": 0.0,
			"0.025": 0.0
		}
	}
}
