{
	 "smiles": "NCC1=C(Br)SC=C1", 
	 "Tm": 473.15, 
	 "num_atms": 14, 
	 "gaussian": { 
		 "optdone": 1, 
		 "sigma_profile": "yes", 
		 "theory": "DFT", 
		 "functional": "B3LYP", 
		 "basiset": "6-31G**", 
		 "properties": { 
			 "R2extent": 2243.1812, 
			 "electric_dipole_moment_norm": 1.88914787934, 
			 "electric_quadrupole_moment_norm": 7.00879255008, 
			 "total_energy": -3218.46349751, 
			 "HOMO_LUMO_gap": 0.20089, 
			 "cosmo_polarized_energy": -6.84, 
			 "cosmo_cavitation_energy": 21.49, 
			 "cosmo_dispersion_energy": -16.7, 
			 "cosmo_repulsion_energy": 1.34, 
			 "cosmo_total_nonelectrostatic_energy": 6.13, 
			 "SMD_solvation_energy": 1.15 
		},
		"coords": [
			{
				"x": -1.9299897255,
				"y": 1.2777437519,
				"z": -2.2319794873,
				"element": "N" 
			},
			{
				"x": -0.5074097452,
				"y": 1.339471547,
				"z": -2.5935544763,
				"element": "C" 
			},
			{
				"x": 0.4286509704,
				"y": 0.4912396274,
				"z": -1.7550486138,
				"element": "C" 
			},
			{
				"x": 0.9130155942,
				"y": 0.8288015942,
				"z": -0.5168350269,
				"element": "C" 
			},
			{
				"x": 0.5737904169,
				"y": 2.4342315701,
				"z": 0.4236415886,
				"element": "Br" 
			},
			{
				"x": 1.9171468853,
				"y": -0.4021366086,
				"z": 0.1926255472,
				"element": "S" 
			},
			{
				"x": 1.696682051,
				"y": -1.4104224637,
				"z": -1.2032448507,
				"element": "C" 
			},
			{
				"x": 0.8959237784,
				"y": -0.8126795233,
				"z": -2.1340131315,
				"element": "C" 
			},
			{
				"x": -2.0469186052,
				"y": 1.6194967677,
				"z": -1.2804077229,
				"element": "H" 
			},
			{
				"x": -2.2376579926,
				"y": 0.3075240975,
				"z": -2.2212831231,
				"element": "H" 
			},
			{
				"x": -0.4096194017,
				"y": 1.0381094811,
				"z": -3.642282851,
				"element": "H" 
			},
			{
				"x": -0.1975729447,
				"y": 2.3878112383,
				"z": -2.53773939,
				"element": "H" 
			},
			{
				"x": 2.1778557871,
				"y": -2.3775571445,
				"z": -1.2498175783,
				"element": "H" 
			},
			{
				"x": 0.6392029316,
				"y": -1.2740339353,
				"z": -3.082060884,
				"element": "H" 
			}
		],
		 "valence_orbital": [ 
			{
				"type": "occ",
				"energy": -0.31948,
				"method": "rhf"
			},
			{
				"type": "occ",
				"energy": -0.30019,
				"method": "rhf"
			},
			{
				"type": "occ",
				"energy": -0.26395,
				"method": "rhf"
			},
			{
				"type": "occ",
				"energy": -0.24201,
				"method": "rhf"
			},
			{
				"type": "occ",
				"energy": -0.22668,
				"method": "rhf"
			},
			{
				"type": "unocc",
				"energy": -0.02579,
				"method": "rhf"
			},
			{
				"type": "unocc",
				"energy": -0.00496,
				"method": "rhf"
			},
			{
				"type": "unocc",
				"energy": 0.01912,
				"method": "rhf"
			},
			{
				"type": "unocc",
				"energy": 0.04984,
				"method": "rhf"
			},
			{
				"type": "unocc",
				"energy": 0.09749,
				"method": "rhf"
			}
		],
		"cosmo_sigma_profile": { 
			"-0.025": 0.0,
			"-0.024": 0.0,
			"-0.023": 0.0,
			"-0.022": 0.0,
			"-0.021": 0.0,
			"-0.02": 0.0,
			"-0.019": 0.0,
			"-0.018": 0.0,
			"-0.017": 0.0,
			"-0.016": 0.0,
			"-0.015": 0.0,
			"-0.014": 0.0,
			"-0.013": 0.0,
			"-0.012": 0.0,
			"-0.011": 0.0,
			"-0.01": 0.538903199617,
			"-0.009": 2.71291992691,
			"-0.008": 4.41880701882,
			"-0.007": 6.15252840903,
			"-0.006": 7.48590778714,
			"-0.005": 10.4978728285,
			"-0.004": 11.0397050952,
			"-0.003": 11.3980378335,
			"-0.002": 10.0379944674,
			"-0.001": 15.4017085404,
			"0.0": 12.7406905931,
			"0.001": 15.7745636903,
			"0.002": 17.720922262,
			"0.003": 21.8582111042,
			"0.004": 14.2868652,
			"0.005": 4.06748300082,
			"0.006": 0.968464192334,
			"0.007": 0.921106069488,
			"0.008": 0.583611656624,
			"0.009": 1.03624875647,
			"0.01": 0.863645791653,
			"0.011": 0.52094017978,
			"0.012": 0.346712448091,
			"0.013": 0.641944768788,
			"0.014": 0.860055491411,
			"0.015": 0.668784909801,
			"0.016": 0.562422972409,
			"0.017": 0.841293187761,
			"0.018": 0.553406394914,
			"0.019": 0.587110942562,
			"0.02": 0.142137197971,
			"0.021": 0.0,
			"0.022": 0.0,
			"0.023": 0.0,
			"0.024": 0.0,
			"0.025": 0.0
		}
	}
}
