{
	 "smiles": "OCC1=CC=C(C=C1)C1=CC=CO1", 
	 "Tm": 358.65, 
	 "num_atms": 23, 
	 "gaussian": { 
		 "optdone": 1, 
		 "sigma_profile": "yes", 
		 "theory": "DFT", 
		 "functional": "B3LYP", 
		 "basiset": "6-31G**", 
		 "properties": { 
			 "R2extent": 3523.4151, 
			 "electric_dipole_moment_norm": 1.58588078367, 
			 "electric_quadrupole_moment_norm": 6.09588551156, 
			 "total_energy": -575.61559891, 
			 "HOMO_LUMO_gap": 0.17074, 
			 "cosmo_polarized_energy": -9.28, 
			 "cosmo_cavitation_energy": 27.22, 
			 "cosmo_dispersion_energy": -20.14, 
			 "cosmo_repulsion_energy": 1.58, 
			 "cosmo_total_nonelectrostatic_energy": 8.65, 
			 "SMD_solvation_energy": 5.49 
		},
		"coords": [
			{
				"x": 0.4676005932,
				"y": -0.56769779,
				"z": -4.0289452114,
				"element": "O" 
			},
			{
				"x": -0.6471214183,
				"y": -0.3435632296,
				"z": -3.1762063067,
				"element": "C" 
			},
			{
				"x": -0.2653858732,
				"y": 0.1040150425,
				"z": -1.7792882481,
				"element": "C" 
			},
			{
				"x": 0.9229112308,
				"y": -0.3459215433,
				"z": -1.1875339964,
				"element": "C" 
			},
			{
				"x": 1.2669281904,
				"y": 0.0382241682,
				"z": 0.1035209795,
				"element": "C" 
			},
			{
				"x": 0.4288932744,
				"y": 0.8861547497,
				"z": 0.8509448528,
				"element": "C" 
			},
			{
				"x": -0.7619931602,
				"y": 1.3379714198,
				"z": 0.2557676686,
				"element": "C" 
			},
			{
				"x": -1.0959183805,
				"y": 0.9537779464,
				"z": -1.0401156092,
				"element": "C" 
			},
			{
				"x": 0.7928010886,
				"y": 1.2877717169,
				"z": 2.2043187337,
				"element": "C" 
			},
			{
				"x": 1.8659272589,
				"y": 1.0203316766,
				"z": 3.0171881469,
				"element": "C" 
			},
			{
				"x": 1.6393114531,
				"y": 1.7150707317,
				"z": 4.245713846,
				"element": "C" 
			},
			{
				"x": 0.4475930289,
				"y": 2.3582505759,
				"z": 4.101855596,
				"element": "C" 
			},
			{
				"x": -0.0798265245,
				"y": 2.1107814146,
				"z": 2.8709734052,
				"element": "O" 
			},
			{
				"x": 0.9769987265,
				"y": 0.2533813498,
				"z": -4.0591674067,
				"element": "H" 
			},
			{
				"x": -1.3538467978,
				"y": 0.3794270791,
				"z": -3.6141170236,
				"element": "H" 
			},
			{
				"x": -1.1696533116,
				"y": -1.307284657,
				"z": -3.1343179845,
				"element": "H" 
			},
			{
				"x": 1.5787088769,
				"y": -0.9975785864,
				"z": -1.7568167288,
				"element": "H" 
			},
			{
				"x": 2.1938420772,
				"y": -0.3240585182,
				"z": 0.5381803047,
				"element": "H" 
			},
			{
				"x": -1.4169240827,
				"y": 1.9986672489,
				"z": 0.8130351318,
				"element": "H" 
			},
			{
				"x": -2.0173158549,
				"y": 1.3241644513,
				"z": -1.4842577842,
				"element": "H" 
			},
			{
				"x": 2.7176523807,
				"y": 0.4027957609,
				"z": 2.7725356831,
				"element": "H" 
			},
			{
				"x": 2.2789946264,
				"y": 1.7314891542,
				"z": 5.1163122514,
				"element": "H" 
			},
			{
				"x": -0.1368774022,
				"y": 2.9984298379,
				"z": 4.7441196998,
				"element": "H" 
			}
		],
		 "valence_orbital": [ 
			{
				"type": "occ",
				"energy": -0.28526,
				"method": "rhf"
			},
			{
				"type": "occ",
				"energy": -0.2775,
				"method": "rhf"
			},
			{
				"type": "occ",
				"energy": -0.26549,
				"method": "rhf"
			},
			{
				"type": "occ",
				"energy": -0.25194,
				"method": "rhf"
			},
			{
				"type": "occ",
				"energy": -0.20265,
				"method": "rhf"
			},
			{
				"type": "unocc",
				"energy": -0.03191,
				"method": "rhf"
			},
			{
				"type": "unocc",
				"energy": -0.0028,
				"method": "rhf"
			},
			{
				"type": "unocc",
				"energy": 0.04045,
				"method": "rhf"
			},
			{
				"type": "unocc",
				"energy": 0.07851,
				"method": "rhf"
			},
			{
				"type": "unocc",
				"energy": 0.09188,
				"method": "rhf"
			}
		],
		"cosmo_sigma_profile": { 
			"-0.025": 0.0,
			"-0.024": 0.0,
			"-0.023": 0.0,
			"-0.022": 0.0,
			"-0.021": 0.0,
			"-0.02": 0.0,
			"-0.019": 0.0,
			"-0.018": 0.0,
			"-0.017": 0.0,
			"-0.016": 0.107966030192,
			"-0.015": 0.731584133025,
			"-0.014": 1.078207327,
			"-0.013": 0.829228442244,
			"-0.012": 0.694103763066,
			"-0.011": 0.806292365986,
			"-0.01": 0.692065699191,
			"-0.009": 1.84059207068,
			"-0.008": 3.16603603732,
			"-0.007": 7.4501712916,
			"-0.006": 8.788022089,
			"-0.005": 14.1216791311,
			"-0.004": 18.8451678055,
			"-0.003": 15.7538649119,
			"-0.002": 14.2954884284,
			"-0.001": 12.4415808296,
			"0.0": 11.2225241817,
			"0.001": 10.4737536837,
			"0.002": 16.4811204056,
			"0.003": 22.1758743023,
			"0.004": 17.6793724697,
			"0.005": 19.0832101891,
			"0.006": 7.68727817124,
			"0.007": 1.7075621629,
			"0.008": 0.885882736426,
			"0.009": 1.11247012611,
			"0.01": 0.931525889872,
			"0.011": 1.00328875758,
			"0.012": 1.73867224271,
			"0.013": 1.51996321961,
			"0.014": 1.90192740819,
			"0.015": 0.187741683477,
			"0.016": 0.0,
			"0.017": 0.0,
			"0.018": 0.0,
			"0.019": 0.0,
			"0.02": 0.0,
			"0.021": 0.0,
			"0.022": 0.0,
			"0.023": 0.0,
			"0.024": 0.0,
			"0.025": 0.0
		}
	}
}
