{
	 "smiles": "COC1=CC2=C(NC=C2CCNC(C)=O)C=C1", 
	 "Tm": 390.15, 
	 "num_atms": 33, 
	 "gaussian": { 
		 "optdone": 1, 
		 "sigma_profile": "yes", 
		 "theory": "DFT", 
		 "functional": "B3LYP", 
		 "basiset": "6-31G**", 
		 "properties": { 
			 "R2extent": 5693.8072, 
			 "electric_dipole_moment_norm": 3.43022089813, 
			 "electric_quadrupole_moment_norm": 32.557387448, 
			 "total_energy": -764.989277549, 
			 "HOMO_LUMO_gap": 0.18726, 
			 "cosmo_polarized_energy": -18.88, 
			 "cosmo_cavitation_energy": 36.53, 
			 "cosmo_dispersion_energy": -25.71, 
			 "cosmo_repulsion_energy": 2.03, 
			 "cosmo_total_nonelectrostatic_energy": 12.85, 
			 "SMD_solvation_energy": 6.72 
		},
		"coords": [
			{
				"x": 3.8915245609,
				"y": 0.3605956702,
				"z": 1.6483712536,
				"element": "C" 
			},
			{
				"x": 3.8351353636,
				"y": -0.9128276456,
				"z": 1.0339218548,
				"element": "O" 
			},
			{
				"x": 2.6435878162,
				"y": -1.3079828961,
				"z": 0.4823012003,
				"element": "C" 
			},
			{
				"x": 1.4802780959,
				"y": -0.5450573544,
				"z": 0.4853376234,
				"element": "C" 
			},
			{
				"x": 0.3234115867,
				"y": -1.0794216986,
				"z": -0.1203554831,
				"element": "C" 
			},
			{
				"x": 0.373658013,
				"y": -2.3684098195,
				"z": -0.7083987414,
				"element": "C" 
			},
			{
				"x": -0.8845488106,
				"y": -2.6425545421,
				"z": -1.2113822361,
				"element": "N" 
			},
			{
				"x": -1.7144492546,
				"y": -1.5702641572,
				"z": -0.9581670501,
				"element": "C" 
			},
			{
				"x": -1.0222810033,
				"y": -0.5853561524,
				"z": -0.288714814,
				"element": "C" 
			},
			{
				"x": -1.5592049585,
				"y": 0.7478893229,
				"z": 0.1487317382,
				"element": "C" 
			},
			{
				"x": -1.1417409608,
				"y": 1.9168875908,
				"z": -0.7693826295,
				"element": "C" 
			},
			{
				"x": -1.6336241801,
				"y": 1.7151030146,
				"z": -2.1210707357,
				"element": "N" 
			},
			{
				"x": -2.0129330149,
				"y": 2.6511331212,
				"z": -3.0483516337,
				"element": "C" 
			},
			{
				"x": -2.1001069101,
				"y": 4.0965955647,
				"z": -2.5782486545,
				"element": "C" 
			},
			{
				"x": -2.2858624025,
				"y": 2.3266208298,
				"z": -4.1981870089,
				"element": "O" 
			},
			{
				"x": 1.5467346844,
				"y": -3.1332035062,
				"z": -0.7108182627,
				"element": "C" 
			},
			{
				"x": 2.6731417969,
				"y": -2.5923835863,
				"z": -0.1145155765,
				"element": "C" 
			},
			{
				"x": 3.1950647538,
				"y": 0.435715822,
				"z": 2.4946887423,
				"element": "H" 
			},
			{
				"x": 3.6706535621,
				"y": 1.1667533514,
				"z": 0.9354441057,
				"element": "H" 
			},
			{
				"x": 4.9130247168,
				"y": 0.4773121237,
				"z": 2.0146730149,
				"element": "H" 
			},
			{
				"x": 1.4513235765,
				"y": 0.4368968612,
				"z": 0.9426081547,
				"element": "H" 
			},
			{
				"x": -1.1540718843,
				"y": -3.487350579,
				"z": -1.6874879584,
				"element": "H" 
			},
			{
				"x": -2.7521708149,
				"y": -1.5922636811,
				"z": -1.2616788892,
				"element": "H" 
			},
			{
				"x": -2.6538314258,
				"y": 0.7133972171,
				"z": 0.1870037384,
				"element": "H" 
			},
			{
				"x": -1.2127275289,
				"y": 0.9764283138,
				"z": 1.1649839953,
				"element": "H" 
			},
			{
				"x": -1.5556263257,
				"y": 2.8477625586,
				"z": -0.3731060026,
				"element": "H" 
			},
			{
				"x": -0.0453931155,
				"y": 2.0157864245,
				"z": -0.7559345779,
				"element": "H" 
			},
			{
				"x": -1.5200477829,
				"y": 0.7846213365,
				"z": -2.5061378716,
				"element": "H" 
			},
			{
				"x": -1.1317173905,
				"y": 4.4634720101,
				"z": -2.2214143955,
				"element": "H" 
			},
			{
				"x": -2.4232674025,
				"y": 4.70212995,
				"z": -3.4244669135,
				"element": "H" 
			},
			{
				"x": -2.8199770646,
				"y": 4.2108526091,
				"z": -1.7604086318,
				"element": "H" 
			},
			{
				"x": 1.5803053128,
				"y": -4.1200590684,
				"z": -1.163618292,
				"element": "H" 
			},
			{
				"x": 3.6088383914,
				"y": -3.140419005,
				"z": -0.0878190628,
				"element": "H" 
			}
		],
		 "valence_orbital": [ 
			{
				"type": "occ",
				"energy": -0.27435,
				"method": "rhf"
			},
			{
				"type": "occ",
				"energy": -0.2388,
				"method": "rhf"
			},
			{
				"type": "occ",
				"energy": -0.23254,
				"method": "rhf"
			},
			{
				"type": "occ",
				"energy": -0.20758,
				"method": "rhf"
			},
			{
				"type": "occ",
				"energy": -0.19933,
				"method": "rhf"
			},
			{
				"type": "unocc",
				"energy": -0.01207,
				"method": "rhf"
			},
			{
				"type": "unocc",
				"energy": 0.03502,
				"method": "rhf"
			},
			{
				"type": "unocc",
				"energy": 0.03891,
				"method": "rhf"
			},
			{
				"type": "unocc",
				"energy": 0.05658,
				"method": "rhf"
			},
			{
				"type": "unocc",
				"energy": 0.07716,
				"method": "rhf"
			}
		],
		"cosmo_sigma_profile": { 
			"-0.025": 0.0,
			"-0.024": 0.0,
			"-0.023": 0.0,
			"-0.022": 0.0,
			"-0.021": 0.0,
			"-0.02": 0.0,
			"-0.019": 0.0,
			"-0.018": 0.0,
			"-0.017": 0.0,
			"-0.016": 0.108045151453,
			"-0.015": 1.47404036728,
			"-0.014": 1.65634191366,
			"-0.013": 1.22003958266,
			"-0.012": 1.05023402527,
			"-0.011": 1.24081670326,
			"-0.01": 0.953086082091,
			"-0.009": 1.8246052763,
			"-0.008": 2.50080660921,
			"-0.007": 4.87779435231,
			"-0.006": 11.0513693799,
			"-0.005": 22.3898977004,
			"-0.004": 32.7263728232,
			"-0.003": 33.1793457193,
			"-0.002": 25.0104076143,
			"-0.001": 20.7421582964,
			"0.0": 16.7899563083,
			"0.001": 10.7143363891,
			"0.002": 11.0431075614,
			"0.003": 10.4040609172,
			"0.004": 12.0174505359,
			"0.005": 16.8777141197,
			"0.006": 16.6532256076,
			"0.007": 7.09268396665,
			"0.008": 2.76682333394,
			"0.009": 2.48247672208,
			"0.01": 2.72051672074,
			"0.011": 2.63246200984,
			"0.012": 1.40217379601,
			"0.013": 2.38164615347,
			"0.014": 5.42384206631,
			"0.015": 4.32730538255,
			"0.016": 0.621309201313,
			"0.017": 0.0,
			"0.018": 0.0,
			"0.019": 0.0,
			"0.02": 0.0,
			"0.021": 0.0,
			"0.022": 0.0,
			"0.023": 0.0,
			"0.024": 0.0,
			"0.025": 0.0
		}
	}
}
