{
	 "smiles": "FC(F)(F)C(C(=O)NC1=C(Br)C=CC=C1)C(F)(F)F", 
	 "Tm": 457.15, 
	 "num_atms": 25, 
	 "gaussian": { 
		 "optdone": 1, 
		 "sigma_profile": "yes", 
		 "theory": "DFT", 
		 "functional": "B3LYP", 
		 "basiset": "6-31G**", 
		 "properties": { 
			 "R2extent": 7548.1718, 
			 "electric_dipole_moment_norm": 3.44053371005, 
			 "electric_quadrupole_moment_norm": 8.47143506851, 
			 "total_energy": -3685.12449239, 
			 "HOMO_LUMO_gap": 0.20047, 
			 "cosmo_polarized_energy": -10.64, 
			 "cosmo_cavitation_energy": 34.39, 
			 "cosmo_dispersion_energy": -23.88, 
			 "cosmo_repulsion_energy": 1.71, 
			 "cosmo_total_nonelectrostatic_energy": 12.22, 
			 "SMD_solvation_energy": 7.17 
		},
		"coords": [
			{
				"x": 1.4411746857,
				"y": -1.3504769821,
				"z": 1.5785293353,
				"element": "F" 
			},
			{
				"x": 0.1725647817,
				"y": -1.760887886,
				"z": 1.711946146,
				"element": "C" 
			},
			{
				"x": -0.5545180935,
				"y": -0.713015762,
				"z": 2.1747693266,
				"element": "F" 
			},
			{
				"x": 0.1362835927,
				"y": -2.7178712834,
				"z": 2.6522623642,
				"element": "F" 
			},
			{
				"x": -0.4208539401,
				"y": -2.2353428642,
				"z": 0.3805601715,
				"element": "C" 
			},
			{
				"x": -0.236702973,
				"y": -1.1488841638,
				"z": -0.7112292355,
				"element": "C" 
			},
			{
				"x": 0.642290528,
				"y": -1.231773377,
				"z": -1.5492814248,
				"element": "O" 
			},
			{
				"x": -1.1602542617,
				"y": -0.1409309155,
				"z": -0.6136526769,
				"element": "N" 
			},
			{
				"x": -1.2853806082,
				"y": 1.0066590507,
				"z": -1.418697723,
				"element": "C" 
			},
			{
				"x": -2.2989221301,
				"y": 1.9390808884,
				"z": -1.1241574691,
				"element": "C" 
			},
			{
				"x": -3.4835779565,
				"y": 1.6442149235,
				"z": 0.3590699392,
				"element": "Br" 
			},
			{
				"x": -2.4765724534,
				"y": 3.08877515,
				"z": -1.8859530815,
				"element": "C" 
			},
			{
				"x": -1.6369412942,
				"y": 3.3338263081,
				"z": -2.97179941,
				"element": "C" 
			},
			{
				"x": -0.6292145529,
				"y": 2.4204120278,
				"z": -3.2790394531,
				"element": "C" 
			},
			{
				"x": -0.4486858711,
				"y": 1.2686230796,
				"z": -2.5168039932,
				"element": "C" 
			},
			{
				"x": 0.1557779995,
				"y": -3.5803673609,
				"z": -0.0786003243,
				"element": "C" 
			},
			{
				"x": -0.2189417616,
				"y": -4.557297493,
				"z": 0.7748797531,
				"element": "F" 
			},
			{
				"x": -0.331570715,
				"y": -3.9014763133,
				"z": -1.2898604167,
				"element": "F" 
			},
			{
				"x": 1.4922454384,
				"y": -3.5761856072,
				"z": -0.1356978916,
				"element": "F" 
			},
			{
				"x": -1.4851020795,
				"y": -2.4124294059,
				"z": 0.5625876024,
				"element": "H" 
			},
			{
				"x": -1.787061524,
				"y": -0.1627080687,
				"z": 0.1816897738,
				"element": "H" 
			},
			{
				"x": -3.2678720977,
				"y": 3.7825165535,
				"z": -1.6264038707,
				"element": "H" 
			},
			{
				"x": -1.7747793252,
				"y": 4.2305452636,
				"z": -3.5672848652,
				"element": "H" 
			},
			{
				"x": 0.0307070708,
				"y": 2.6002184405,
				"z": -4.1220516829,
				"element": "H" 
			},
			{
				"x": 0.3325075409,
				"y": 0.5601757974,
				"z": -2.7519808935,
				"element": "H" 
			}
		],
		 "valence_orbital": [ 
			{
				"type": "occ",
				"energy": -0.32938,
				"method": "rhf"
			},
			{
				"type": "occ",
				"energy": -0.31353,
				"method": "rhf"
			},
			{
				"type": "occ",
				"energy": -0.28521,
				"method": "rhf"
			},
			{
				"type": "occ",
				"energy": -0.26214,
				"method": "rhf"
			},
			{
				"type": "occ",
				"energy": -0.24233,
				"method": "rhf"
			},
			{
				"type": "unocc",
				"energy": -0.04186,
				"method": "rhf"
			},
			{
				"type": "unocc",
				"energy": -0.02421,
				"method": "rhf"
			},
			{
				"type": "unocc",
				"energy": -0.01413,
				"method": "rhf"
			},
			{
				"type": "unocc",
				"energy": 0.01418,
				"method": "rhf"
			},
			{
				"type": "unocc",
				"energy": 0.06413,
				"method": "rhf"
			}
		],
		"cosmo_sigma_profile": { 
			"-0.025": 0.0,
			"-0.024": 0.0,
			"-0.023": 0.0,
			"-0.022": 0.0,
			"-0.021": 0.0,
			"-0.02": 0.0,
			"-0.019": 0.0,
			"-0.018": 0.0,
			"-0.017": 0.0687746626434,
			"-0.016": 0.432314620616,
			"-0.015": 0.797814744714,
			"-0.014": 1.01866630873,
			"-0.013": 1.83415646621,
			"-0.012": 2.43598372751,
			"-0.011": 1.78005639442,
			"-0.01": 1.56142367907,
			"-0.009": 1.47830959483,
			"-0.008": 2.09474981571,
			"-0.007": 5.18267529645,
			"-0.006": 8.11744576461,
			"-0.005": 11.9438175276,
			"-0.004": 12.5398450664,
			"-0.003": 11.5249969735,
			"-0.002": 16.2547982786,
			"-0.001": 18.8160936522,
			"0.0": 20.5896447634,
			"0.001": 40.4587911404,
			"0.002": 62.8812419223,
			"0.003": 28.1800457133,
			"0.004": 13.1544740691,
			"0.005": 3.30818456476,
			"0.006": 2.33463886595,
			"0.007": 2.11420490995,
			"0.008": 2.45556693597,
			"0.009": 2.18694335146,
			"0.01": 2.8856544257,
			"0.011": 1.4387970677,
			"0.012": 0.0,
			"0.013": 0.0,
			"0.014": 0.0,
			"0.015": 0.0,
			"0.016": 0.0,
			"0.017": 0.0,
			"0.018": 0.0,
			"0.019": 0.0,
			"0.02": 0.0,
			"0.021": 0.0,
			"0.022": 0.0,
			"0.023": 0.0,
			"0.024": 0.0,
			"0.025": 0.0
		}
	}
}
