{
	 "smiles": "COC1=NN(C(=C1)C(O)=O)C1=C(Cl)C=CC=N1", 
	 "Tm": 516.15, 
	 "num_atms": 25, 
	 "gaussian": { 
		 "optdone": 1, 
		 "sigma_profile": "yes", 
		 "theory": "DFT", 
		 "functional": "B3LYP", 
		 "basiset": "6-31G**", 
		 "properties": { 
			 "R2extent": 4599.6717, 
			 "electric_dipole_moment_norm": 3.11664484502, 
			 "electric_quadrupole_moment_norm": 21.0041034293, 
			 "total_energy": -1235.96132872, 
			 "HOMO_LUMO_gap": 0.18035, 
			 "cosmo_polarized_energy": -18.09, 
			 "cosmo_cavitation_energy": 32.69, 
			 "cosmo_dispersion_energy": -22.98, 
			 "cosmo_repulsion_energy": 1.8, 
			 "cosmo_total_nonelectrostatic_energy": 11.51, 
			 "SMD_solvation_energy": 6.03 
		},
		"coords": [
			{
				"x": -3.1818049103,
				"y": 1.8175311307,
				"z": 1.43304051,
				"element": "C" 
			},
			{
				"x": -2.3223437881,
				"y": 1.0488827231,
				"z": 2.2819430384,
				"element": "O" 
			},
			{
				"x": -1.1543951378,
				"y": 0.6676961498,
				"z": 1.7409243247,
				"element": "C" 
			},
			{
				"x": -0.7990433835,
				"y": 0.9508052194,
				"z": 0.4949238483,
				"element": "N" 
			},
			{
				"x": 0.4504667135,
				"y": 0.4174630013,
				"z": 0.3640982573,
				"element": "N" 
			},
			{
				"x": 0.8512917965,
				"y": -0.229732382,
				"z": 1.5035078711,
				"element": "C" 
			},
			{
				"x": -0.1645012264,
				"y": -0.0773757572,
				"z": 2.4297840779,
				"element": "C" 
			},
			{
				"x": 2.2078729019,
				"y": -0.8129435945,
				"z": 1.6695457972,
				"element": "C" 
			},
			{
				"x": 2.2807463033,
				"y": -1.8134572884,
				"z": 2.5836607865,
				"element": "O" 
			},
			{
				"x": 3.1911974807,
				"y": -0.4225672298,
				"z": 1.0901355741,
				"element": "O" 
			},
			{
				"x": 1.0495588765,
				"y": 0.3449337405,
				"z": -0.9226136145,
				"element": "C" 
			},
			{
				"x": 1.2901473381,
				"y": 1.4996310394,
				"z": -1.6841290668,
				"element": "C" 
			},
			{
				"x": 0.9613493763,
				"y": 3.1031280241,
				"z": -1.0835071574,
				"element": "Cl" 
			},
			{
				"x": 1.8533547639,
				"y": 1.3474677668,
				"z": -2.9500791762,
				"element": "C" 
			},
			{
				"x": 2.1777933807,
				"y": 0.0686379932,
				"z": -3.3956581824,
				"element": "C" 
			},
			{
				"x": 1.9248131288,
				"y": -1.0114180246,
				"z": -2.5512476235,
				"element": "C" 
			},
			{
				"x": 1.358156719,
				"y": -0.8762481815,
				"z": -1.3499832005,
				"element": "N" 
			},
			{
				"x": -4.0578280823,
				"y": 2.0547742095,
				"z": 2.0372478713,
				"element": "H" 
			},
			{
				"x": -2.6851515276,
				"y": 2.7358324354,
				"z": 1.104440792,
				"element": "H" 
			},
			{
				"x": -3.4748724649,
				"y": 1.2413679171,
				"z": 0.5496734265,
				"element": "H" 
			},
			{
				"x": -0.1776566732,
				"y": -0.377047344,
				"z": 3.4669353689,
				"element": "H" 
			},
			{
				"x": 1.3878513861,
				"y": -2.0885352141,
				"z": 2.8381974206,
				"element": "H" 
			},
			{
				"x": 2.047247338,
				"y": 2.2242106489,
				"z": -3.5581447064,
				"element": "H" 
			},
			{
				"x": 2.623852505,
				"y": -0.0830169615,
				"z": -4.3728658841,
				"element": "H" 
			},
			{
				"x": 2.174397186,
				"y": -2.0263200216,
				"z": -2.8507303529,
				"element": "H" 
			}
		],
		 "valence_orbital": [ 
			{
				"type": "occ",
				"energy": -0.28287,
				"method": "rhf"
			},
			{
				"type": "occ",
				"energy": -0.28166,
				"method": "rhf"
			},
			{
				"type": "occ",
				"energy": -0.27476,
				"method": "rhf"
			},
			{
				"type": "occ",
				"energy": -0.25999,
				"method": "rhf"
			},
			{
				"type": "occ",
				"energy": -0.23371,
				"method": "rhf"
			},
			{
				"type": "unocc",
				"energy": -0.05336,
				"method": "rhf"
			},
			{
				"type": "unocc",
				"energy": -0.04161,
				"method": "rhf"
			},
			{
				"type": "unocc",
				"energy": -0.02538,
				"method": "rhf"
			},
			{
				"type": "unocc",
				"energy": 0.02196,
				"method": "rhf"
			},
			{
				"type": "unocc",
				"energy": 0.04602,
				"method": "rhf"
			}
		],
		"cosmo_sigma_profile": { 
			"-0.025": 0.0,
			"-0.024": 0.0,
			"-0.023": 0.0,
			"-0.022": 0.0,
			"-0.021": 0.0,
			"-0.02": 0.0,
			"-0.019": 0.363274486661,
			"-0.018": 0.765570730793,
			"-0.017": 1.10056803159,
			"-0.016": 1.09720281905,
			"-0.015": 1.09769464696,
			"-0.014": 1.03071129516,
			"-0.013": 1.33386986736,
			"-0.012": 1.03723909175,
			"-0.011": 1.60125356754,
			"-0.01": 1.5389111921,
			"-0.009": 3.71467383981,
			"-0.008": 7.71625636291,
			"-0.007": 10.0183598324,
			"-0.006": 11.888005246,
			"-0.005": 11.2053823435,
			"-0.004": 16.1109326839,
			"-0.003": 15.2684787451,
			"-0.002": 14.209170289,
			"-0.001": 16.7121057172,
			"0.0": 25.6701580621,
			"0.001": 22.9819857382,
			"0.002": 15.7106377978,
			"0.003": 14.4202170286,
			"0.004": 12.3473017704,
			"0.005": 8.35046057958,
			"0.006": 7.61494624161,
			"0.007": 7.83222483193,
			"0.008": 7.96371982702,
			"0.009": 8.0054071654,
			"0.01": 7.42964908041,
			"0.011": 6.00652085784,
			"0.012": 2.66480072035,
			"0.013": 0.110066261147,
			"0.014": 0.0,
			"0.015": 0.0,
			"0.016": 0.0,
			"0.017": 0.0,
			"0.018": 0.0,
			"0.019": 0.0,
			"0.02": 0.0,
			"0.021": 0.0,
			"0.022": 0.0,
			"0.023": 0.0,
			"0.024": 0.0,
			"0.025": 0.0
		}
	}
}
