{
	 "smiles": "CCOC(CN=CC1=CC=C(C=NCC(OCC)OCC)C(=C1)[N+]([O-])=O)OCC", 
	 "Tm": 311.15, 
	 "num_atms": 60, 
	 "gaussian": { 
		 "optdone": 1, 
		 "sigma_profile": "yes", 
		 "theory": "DFT", 
		 "functional": "B3LYP", 
		 "basiset": "6-31G**", 
		 "properties": { 
			 "R2extent": 21468.5944, 
			 "electric_dipole_moment_norm": 5.54368699062, 
			 "electric_quadrupole_moment_norm": 30.9705309795, 
			 "total_energy": -1396.25739615, 
			 "HOMO_LUMO_gap": 0.14923, 
			 "cosmo_polarized_energy": -20.63, 
			 "cosmo_cavitation_energy": 64.79, 
			 "cosmo_dispersion_energy": -41.95, 
			 "cosmo_repulsion_energy": 3.35, 
			 "cosmo_total_nonelectrostatic_energy": 26.19, 
			 "SMD_solvation_energy": 10.2 
		},
		"coords": [
			{
				"x": 6.1605047379,
				"y": 0.1796368893,
				"z": -2.8952104708,
				"element": "C" 
			},
			{
				"x": 5.3474036171,
				"y": 1.2795567492,
				"z": -3.5553136966,
				"element": "C" 
			},
			{
				"x": 4.6692447665,
				"y": 2.0030055589,
				"z": -2.5279973753,
				"element": "O" 
			},
			{
				"x": 3.9189893871,
				"y": 3.0789879397,
				"z": -2.9834378989,
				"element": "C" 
			},
			{
				"x": 3.399352629,
				"y": 3.8595810696,
				"z": -1.7618559711,
				"element": "C" 
			},
			{
				"x": 2.5874719674,
				"y": 3.0261724411,
				"z": -0.9030478719,
				"element": "N" 
			},
			{
				"x": 1.3283924575,
				"y": 3.2117058736,
				"z": -0.911817528,
				"element": "C" 
			},
			{
				"x": 0.4134048898,
				"y": 2.3855635353,
				"z": -0.1043685694,
				"element": "C" 
			},
			{
				"x": 0.8860472326,
				"y": 1.3242328575,
				"z": 0.6890938114,
				"element": "C" 
			},
			{
				"x": 0.0048099602,
				"y": 0.5579128661,
				"z": 1.4327235446,
				"element": "C" 
			},
			{
				"x": -1.3822233095,
				"y": 0.8108184185,
				"z": 1.446862379,
				"element": "C" 
			},
			{
				"x": -2.2620055487,
				"y": -0.1019470954,
				"z": 2.2170706365,
				"element": "C" 
			},
			{
				"x": -1.7541886262,
				"y": -1.0080682123,
				"z": 2.958579435,
				"element": "N" 
			},
			{
				"x": -2.663716434,
				"y": -1.887493885,
				"z": 3.6640295504,
				"element": "C" 
			},
			{
				"x": -2.3587409719,
				"y": -3.3598373689,
				"z": 3.3553674899,
				"element": "C" 
			},
			{
				"x": -2.6156903823,
				"y": -3.659315325,
				"z": 1.9930816517,
				"element": "O" 
			},
			{
				"x": -1.465997774,
				"y": -3.739638827,
				"z": 1.1512929304,
				"element": "C" 
			},
			{
				"x": -1.9325597919,
				"y": -4.1044129418,
				"z": -0.2480240351,
				"element": "C" 
			},
			{
				"x": -3.209401484,
				"y": -4.0957537269,
				"z": 4.1802764056,
				"element": "O" 
			},
			{
				"x": -3.0604802352,
				"y": -5.5186036403,
				"z": 4.1210588419,
				"element": "C" 
			},
			{
				"x": -4.1665790753,
				"y": -6.1649736244,
				"z": 3.2961709881,
				"element": "C" 
			},
			{
				"x": -1.8293816134,
				"y": 1.8893881704,
				"z": 0.6575291167,
				"element": "C" 
			},
			{
				"x": -0.9555751869,
				"y": 2.6523818603,
				"z": -0.1172304428,
				"element": "C" 
			},
			{
				"x": -3.2447248072,
				"y": 2.3017579575,
				"z": 0.6099729394,
				"element": "N" 
			},
			{
				"x": -3.6322101375,
				"y": 2.8754957924,
				"z": -0.4072807325,
				"element": "O" 
			},
			{
				"x": -3.9520296148,
				"y": 2.0777583451,
				"z": 1.5935248796,
				"element": "O" 
			},
			{
				"x": 2.8504366381,
				"y": 2.6067027232,
				"z": -3.7867645704,
				"element": "O" 
			},
			{
				"x": 2.4404986744,
				"y": 3.4788865756,
				"z": -4.833657369,
				"element": "C" 
			},
			{
				"x": 1.3783176161,
				"y": 2.7661985281,
				"z": -5.6543046762,
				"element": "C" 
			},
			{
				"x": 5.5058599334,
				"y": -0.4971309255,
				"z": -2.3388535165,
				"element": "H" 
			},
			{
				"x": 6.6983244675,
				"y": -0.4009517648,
				"z": -3.651410449,
				"element": "H" 
			},
			{
				"x": 6.8893339417,
				"y": 0.6015159506,
				"z": -2.1970665864,
				"element": "H" 
			},
			{
				"x": 4.6173678844,
				"y": 0.8626488283,
				"z": -4.259393042,
				"element": "H" 
			},
			{
				"x": 6.0023230448,
				"y": 1.9653702123,
				"z": -4.1191496869,
				"element": "H" 
			},
			{
				"x": 4.545842866,
				"y": 3.7618805199,
				"z": -3.5924859391,
				"element": "H" 
			},
			{
				"x": 2.8562467322,
				"y": 4.7439955605,
				"z": -2.1368487627,
				"element": "H" 
			},
			{
				"x": 4.27118942,
				"y": 4.2074613604,
				"z": -1.1966367318,
				"element": "H" 
			},
			{
				"x": 0.850257068,
				"y": 4.000598026,
				"z": -1.515546044,
				"element": "H" 
			},
			{
				"x": 1.9513191702,
				"y": 1.1194907937,
				"z": 0.6942042162,
				"element": "H" 
			},
			{
				"x": 0.3581729141,
				"y": -0.2727641919,
				"z": 2.0330390006,
				"element": "H" 
			},
			{
				"x": -3.3404431501,
				"y": 0.0289873587,
				"z": 2.1115447659,
				"element": "H" 
			},
			{
				"x": -2.5166140164,
				"y": -1.7444840429,
				"z": 4.7415059961,
				"element": "H" 
			},
			{
				"x": -3.7230467991,
				"y": -1.7035804419,
				"z": 3.4306119506,
				"element": "H" 
			},
			{
				"x": -1.2996605122,
				"y": -3.5849438347,
				"z": 3.57598929,
				"element": "H" 
			},
			{
				"x": -0.9297897069,
				"y": -2.781375807,
				"z": 1.1406934495,
				"element": "H" 
			},
			{
				"x": -0.7686270785,
				"y": -4.5005526293,
				"z": 1.5377067042,
				"element": "H" 
			},
			{
				"x": -2.62011081,
				"y": -3.3458957591,
				"z": -0.6330842538,
				"element": "H" 
			},
			{
				"x": -2.4529980952,
				"y": -5.066726233,
				"z": -0.2446863705,
				"element": "H" 
			},
			{
				"x": -1.0773323242,
				"y": -4.174231857,
				"z": -0.9277069494,
				"element": "H" 
			},
			{
				"x": -3.0986150224,
				"y": -5.8735692914,
				"z": 5.1579586016,
				"element": "H" 
			},
			{
				"x": -2.0714270092,
				"y": -5.7783134974,
				"z": 3.7194392393,
				"element": "H" 
			},
			{
				"x": -4.118965726,
				"y": -5.8211114488,
				"z": 2.2610456568,
				"element": "H" 
			},
			{
				"x": -5.1468014963,
				"y": -5.8987558468,
				"z": 3.7030281864,
				"element": "H" 
			},
			{
				"x": -4.071467681,
				"y": -7.2566975045,
				"z": 3.3170280517,
				"element": "H" 
			},
			{
				"x": -1.3632757619,
				"y": 3.4569349533,
				"z": -0.7181835832,
				"element": "H" 
			},
			{
				"x": 2.0368997707,
				"y": 4.4190054309,
				"z": -4.4247352935,
				"element": "H" 
			},
			{
				"x": 3.3044840591,
				"y": 3.7457781914,
				"z": -5.4639489566,
				"element": "H" 
			},
			{
				"x": 0.5171822696,
				"y": 2.511508969,
				"z": -5.0301297722,
				"element": "H" 
			},
			{
				"x": 1.7783141892,
				"y": 1.8406071274,
				"z": -6.0780986131,
				"element": "H" 
			},
			{
				"x": 1.0364878774,
				"y": 3.4060022889,
				"z": -6.4738539503,
				"element": "H" 
			}
		],
		 "valence_orbital": [ 
			{
				"type": "occ",
				"energy": -0.26684,
				"method": "rhf"
			},
			{
				"type": "occ",
				"energy": -0.25961,
				"method": "rhf"
			},
			{
				"type": "occ",
				"energy": -0.25715,
				"method": "rhf"
			},
			{
				"type": "occ",
				"energy": -0.25419,
				"method": "rhf"
			},
			{
				"type": "occ",
				"energy": -0.24404,
				"method": "rhf"
			},
			{
				"type": "unocc",
				"energy": -0.09481,
				"method": "rhf"
			},
			{
				"type": "unocc",
				"energy": -0.06778,
				"method": "rhf"
			},
			{
				"type": "unocc",
				"energy": -0.01643,
				"method": "rhf"
			},
			{
				"type": "unocc",
				"energy": -0.00223,
				"method": "rhf"
			},
			{
				"type": "unocc",
				"energy": 0.06105,
				"method": "rhf"
			}
		],
		"cosmo_sigma_profile": { 
			"-0.025": 0.0,
			"-0.024": 0.0,
			"-0.023": 0.0,
			"-0.022": 0.0,
			"-0.021": 0.0,
			"-0.02": 0.0,
			"-0.019": 0.0,
			"-0.018": 0.0,
			"-0.017": 0.0,
			"-0.016": 0.0,
			"-0.015": 0.0,
			"-0.014": 0.0,
			"-0.013": 0.0,
			"-0.012": 0.0,
			"-0.011": 0.0,
			"-0.01": 0.0963988768799,
			"-0.009": 1.59753579294,
			"-0.008": 3.20826448879,
			"-0.007": 4.80653835555,
			"-0.006": 11.6125447535,
			"-0.005": 28.3698673128,
			"-0.004": 45.2069600895,
			"-0.003": 62.9653379969,
			"-0.002": 62.5057446755,
			"-0.001": 58.5685012714,
			"0.0": 56.9439005656,
			"0.001": 47.5377916312,
			"0.002": 19.0922123078,
			"0.003": 12.2627098266,
			"0.004": 11.7812790814,
			"0.005": 11.4569891942,
			"0.006": 9.93239595288,
			"0.007": 15.1300331806,
			"0.008": 12.278922045,
			"0.009": 10.2596104407,
			"0.01": 7.66655118155,
			"0.011": 4.934054113,
			"0.012": 4.81591753384,
			"0.013": 2.23263509373,
			"0.014": 1.41300341171,
			"0.015": 0.921589270139,
			"0.016": 0.473620141276,
			"0.017": 0.0,
			"0.018": 0.0,
			"0.019": 0.0,
			"0.02": 0.0,
			"0.021": 0.0,
			"0.022": 0.0,
			"0.023": 0.0,
			"0.024": 0.0,
			"0.025": 0.0
		}
	}
}
