{
	 "smiles": "CCCC1=CC=C(C=C1)C(=O)CCl", 
	 "Tm": 304.15, 
	 "num_atms": 26, 
	 "gaussian": { 
		 "optdone": 1, 
		 "sigma_profile": "yes", 
		 "theory": "DFT", 
		 "functional": "B3LYP", 
		 "basiset": "6-31G**", 
		 "properties": { 
			 "R2extent": 4807.2036, 
			 "electric_dipole_moment_norm": 3.65527775415, 
			 "electric_quadrupole_moment_norm": 10.7337796284, 
			 "total_energy": -962.434974478, 
			 "HOMO_LUMO_gap": 0.18461, 
			 "cosmo_polarized_energy": -8.49, 
			 "cosmo_cavitation_energy": 30.95, 
			 "cosmo_dispersion_energy": -22.0, 
			 "cosmo_repulsion_energy": 1.77, 
			 "cosmo_total_nonelectrostatic_energy": 10.72, 
			 "SMD_solvation_energy": 5.31 
		},
		"coords": [
			{
				"x": -2.7809344306,
				"y": 0.0296383842,
				"z": 3.0623147712,
				"element": "C" 
			},
			{
				"x": -1.3346057534,
				"y": -0.0656143992,
				"z": 3.5562167166,
				"element": "C" 
			},
			{
				"x": -0.3568459019,
				"y": -0.6780363889,
				"z": 2.5268161018,
				"element": "C" 
			},
			{
				"x": -0.1684642316,
				"y": 0.1646048937,
				"z": 1.2843575749,
				"element": "C" 
			},
			{
				"x": -0.7999458113,
				"y": -0.1637948417,
				"z": 0.0743529859,
				"element": "C" 
			},
			{
				"x": -0.6379730383,
				"y": 0.6278047372,
				"z": -1.0565675083,
				"element": "C" 
			},
			{
				"x": 0.1679882555,
				"y": 1.7767910841,
				"z": -1.0145573841,
				"element": "C" 
			},
			{
				"x": 0.80713353,
				"y": 2.1095569048,
				"z": 0.1911693708,
				"element": "C" 
			},
			{
				"x": 0.6374173508,
				"y": 1.3131311827,
				"z": 1.3194967243,
				"element": "C" 
			},
			{
				"x": 0.2798235038,
				"y": 2.5946406055,
				"z": -2.2534026347,
				"element": "C" 
			},
			{
				"x": -0.3366742459,
				"y": 2.3168193434,
				"z": -3.270277556,
				"element": "O" 
			},
			{
				"x": 1.1551690903,
				"y": 3.8531018426,
				"z": -2.2636050476,
				"element": "C" 
			},
			{
				"x": 2.9251246633,
				"y": 3.4499691778,
				"z": -2.1993402657,
				"element": "Cl" 
			},
			{
				"x": -2.8598539726,
				"y": 0.6577922147,
				"z": 2.1694099794,
				"element": "H" 
			},
			{
				"x": -3.4303017975,
				"y": 0.4596110631,
				"z": 3.8315632649,
				"element": "H" 
			},
			{
				"x": -3.1778512759,
				"y": -0.9601737605,
				"z": 2.8083675524,
				"element": "H" 
			},
			{
				"x": -1.2977982266,
				"y": -0.6767238614,
				"z": 4.4665908944,
				"element": "H" 
			},
			{
				"x": -0.9750749888,
				"y": 0.9316056388,
				"z": 3.8404465978,
				"element": "H" 
			},
			{
				"x": -0.7149672137,
				"y": -1.6746760918,
				"z": 2.2416366561,
				"element": "H" 
			},
			{
				"x": 0.6163189224,
				"y": -0.8213906744,
				"z": 3.0123781041,
				"element": "H" 
			},
			{
				"x": -1.4221170348,
				"y": -1.0534730053,
				"z": 0.0229670627,
				"element": "H" 
			},
			{
				"x": -1.1275092993,
				"y": 0.377068327,
				"z": -1.9916641846,
				"element": "H" 
			},
			{
				"x": 1.4543157366,
				"y": 2.9779793089,
				"z": 0.2511472228,
				"element": "H" 
			},
			{
				"x": 1.1458804624,
				"y": 1.5804177278,
				"z": 2.2424938632,
				"element": "H" 
			},
			{
				"x": 0.9472055061,
				"y": 4.5099887149,
				"z": -1.4168919301,
				"element": "H" 
			},
			{
				"x": 0.979040201,
				"y": 4.3753618719,
				"z": -3.2019189321,
				"element": "H" 
			}
		],
		 "valence_orbital": [ 
			{
				"type": "occ",
				"energy": -0.3154,
				"method": "rhf"
			},
			{
				"type": "occ",
				"energy": -0.30446,
				"method": "rhf"
			},
			{
				"type": "occ",
				"energy": -0.26302,
				"method": "rhf"
			},
			{
				"type": "occ",
				"energy": -0.25864,
				"method": "rhf"
			},
			{
				"type": "occ",
				"energy": -0.25407,
				"method": "rhf"
			},
			{
				"type": "unocc",
				"energy": -0.06946,
				"method": "rhf"
			},
			{
				"type": "unocc",
				"energy": -0.01331,
				"method": "rhf"
			},
			{
				"type": "unocc",
				"energy": 0.0032,
				"method": "rhf"
			},
			{
				"type": "unocc",
				"energy": 0.05186,
				"method": "rhf"
			},
			{
				"type": "unocc",
				"energy": 0.08705,
				"method": "rhf"
			}
		],
		"cosmo_sigma_profile": { 
			"-0.025": 0.0,
			"-0.024": 0.0,
			"-0.023": 0.0,
			"-0.022": 0.0,
			"-0.021": 0.0,
			"-0.02": 0.0,
			"-0.019": 0.0,
			"-0.018": 0.0,
			"-0.017": 0.0,
			"-0.016": 0.0,
			"-0.015": 0.0,
			"-0.014": 0.0,
			"-0.013": 0.0,
			"-0.012": 0.0,
			"-0.011": 0.0,
			"-0.01": 0.119954087704,
			"-0.009": 2.89778958002,
			"-0.008": 4.06109348418,
			"-0.007": 4.82060471117,
			"-0.006": 8.32889436125,
			"-0.005": 12.1875481435,
			"-0.004": 14.595942483,
			"-0.003": 18.8482173822,
			"-0.002": 22.7521359337,
			"-0.001": 25.3982581298,
			"0.0": 27.4646473987,
			"0.001": 25.2623146274,
			"0.002": 17.3750666555,
			"0.003": 17.6548579987,
			"0.004": 16.3818323016,
			"0.005": 10.4163337734,
			"0.006": 4.49666105882,
			"0.007": 1.51529229756,
			"0.008": 1.91055345682,
			"0.009": 1.56758861034,
			"0.01": 2.84762872047,
			"0.011": 4.03332694442,
			"0.012": 1.54179510464,
			"0.013": 0.0406098960422,
			"0.014": 0.0,
			"0.015": 0.0,
			"0.016": 0.0,
			"0.017": 0.0,
			"0.018": 0.0,
			"0.019": 0.0,
			"0.02": 0.0,
			"0.021": 0.0,
			"0.022": 0.0,
			"0.023": 0.0,
			"0.024": 0.0,
			"0.025": 0.0
		}
	}
}
