{
	 "smiles": "BrC1=CC=C(OC2=CC=C(Br)C=C2Br)C=C1", 
	 "Tm": 337.35, 
	 "num_atms": 23, 
	 "gaussian": { 
		 "optdone": 1, 
		 "sigma_profile": "yes", 
		 "theory": "DFT", 
		 "functional": "B3LYP", 
		 "basiset": "6-31G**", 
		 "properties": { 
			 "R2extent": 12817.3784, 
			 "electric_dipole_moment_norm": 1.05446014624, 
			 "electric_quadrupole_moment_norm": 8.49091889256, 
			 "total_energy": -8250.91735308, 
			 "HOMO_LUMO_gap": 0.1935, 
			 "cosmo_polarized_energy": -7.03, 
			 "cosmo_cavitation_energy": 35.29, 
			 "cosmo_dispersion_energy": -26.4, 
			 "cosmo_repulsion_energy": 2.08, 
			 "cosmo_total_nonelectrostatic_energy": 10.97, 
			 "SMD_solvation_energy": 2.75 
		},
		"coords": [
			{
				"x": 1.4552345539,
				"y": 5.849787679,
				"z": -1.264019266,
				"element": "Br" 
			},
			{
				"x": 1.2785335369,
				"y": 3.9625409602,
				"z": -1.0258366106,
				"element": "C" 
			},
			{
				"x": 0.3255670809,
				"y": 3.2630672225,
				"z": -1.7657571046,
				"element": "C" 
			},
			{
				"x": 0.1946192619,
				"y": 1.8854379483,
				"z": -1.5948023251,
				"element": "C" 
			},
			{
				"x": 1.0138292609,
				"y": 1.224701691,
				"z": -0.6755406924,
				"element": "C" 
			},
			{
				"x": 0.9869939855,
				"y": -0.1484116376,
				"z": -0.5117701515,
				"element": "O" 
			},
			{
				"x": -0.2046462763,
				"y": -0.8225431824,
				"z": -0.4421603462,
				"element": "C" 
			},
			{
				"x": -1.33140887,
				"y": -0.3031393152,
				"z": 0.2040860044,
				"element": "C" 
			},
			{
				"x": -2.4996470547,
				"y": -1.0540642665,
				"z": 0.3092512407,
				"element": "C" 
			},
			{
				"x": -2.536469091,
				"y": -2.3396395944,
				"z": -0.2277392738,
				"element": "C" 
			},
			{
				"x": -4.1309734817,
				"y": -3.3788905725,
				"z": -0.0890989248,
				"element": "Br" 
			},
			{
				"x": -1.4232736073,
				"y": -2.8808755333,
				"z": -0.8666387616,
				"element": "C" 
			},
			{
				"x": -0.2616151495,
				"y": -2.1181460583,
				"z": -0.9750289631,
				"element": "C" 
			},
			{
				"x": 1.2550288387,
				"y": -2.8551199906,
				"z": -1.8534632613,
				"element": "Br" 
			},
			{
				"x": 1.9678108562,
				"y": 1.9274163363,
				"z": 0.0611543808,
				"element": "C" 
			},
			{
				"x": 2.1047110463,
				"y": 3.3033773643,
				"z": -0.1165014612,
				"element": "C" 
			},
			{
				"x": -0.3035528517,
				"y": 3.785768723,
				"z": -2.4770668233,
				"element": "H" 
			},
			{
				"x": -0.5338162454,
				"y": 1.3302311082,
				"z": -2.1757179642,
				"element": "H" 
			},
			{
				"x": -1.2863857135,
				"y": 0.6938192611,
				"z": 0.6285336072,
				"element": "H" 
			},
			{
				"x": -3.368184268,
				"y": -0.6451958683,
				"z": 0.8119480926,
				"element": "H" 
			},
			{
				"x": -1.4538673352,
				"y": -3.8797932838,
				"z": -1.2824559558,
				"element": "H" 
			},
			{
				"x": 2.5972094188,
				"y": 1.3884631901,
				"z": 0.7610780018,
				"element": "H" 
			},
			{
				"x": 2.8438021044,
				"y": 3.8571078189,
				"z": 0.4508465582,
				"element": "H" 
			}
		],
		 "valence_orbital": [ 
			{
				"type": "occ",
				"energy": -0.29217,
				"method": "rhf"
			},
			{
				"type": "occ",
				"energy": -0.27664,
				"method": "rhf"
			},
			{
				"type": "occ",
				"energy": -0.26393,
				"method": "rhf"
			},
			{
				"type": "occ",
				"energy": -0.2512,
				"method": "rhf"
			},
			{
				"type": "occ",
				"energy": -0.23008,
				"method": "rhf"
			},
			{
				"type": "unocc",
				"energy": -0.03658,
				"method": "rhf"
			},
			{
				"type": "unocc",
				"energy": -0.03069,
				"method": "rhf"
			},
			{
				"type": "unocc",
				"energy": -0.02305,
				"method": "rhf"
			},
			{
				"type": "unocc",
				"energy": -0.02054,
				"method": "rhf"
			},
			{
				"type": "unocc",
				"energy": -0.01099,
				"method": "rhf"
			}
		],
		"cosmo_sigma_profile": { 
			"-0.025": 0.0,
			"-0.024": 0.0,
			"-0.023": 0.0,
			"-0.022": 0.0,
			"-0.021": 0.0,
			"-0.02": 0.0,
			"-0.019": 0.0,
			"-0.018": 0.0,
			"-0.017": 0.0,
			"-0.016": 0.0,
			"-0.015": 0.0,
			"-0.014": 0.0,
			"-0.013": 0.0,
			"-0.012": 0.0,
			"-0.011": 0.0,
			"-0.01": 0.0,
			"-0.009": 0.127672471121,
			"-0.008": 4.58114995493,
			"-0.007": 13.6781520632,
			"-0.006": 12.4085676388,
			"-0.005": 14.1326987505,
			"-0.004": 15.2617265448,
			"-0.003": 15.9457369311,
			"-0.002": 16.0193165724,
			"-0.001": 19.548059744,
			"0.0": 25.5637957923,
			"0.001": 37.3554582655,
			"0.002": 39.0763419106,
			"0.003": 31.4168929758,
			"0.004": 31.6873914058,
			"0.005": 12.0436367239,
			"0.006": 2.41826569583,
			"0.007": 1.60472095821,
			"0.008": 1.48298044261,
			"0.009": 0.223729038703,
			"0.01": 0.0,
			"0.011": 0.0,
			"0.012": 0.0,
			"0.013": 0.0,
			"0.014": 0.0,
			"0.015": 0.0,
			"0.016": 0.0,
			"0.017": 0.0,
			"0.018": 0.0,
			"0.019": 0.0,
			"0.02": 0.0,
			"0.021": 0.0,
			"0.022": 0.0,
			"0.023": 0.0,
			"0.024": 0.0,
			"0.025": 0.0
		}
	}
}
