{
	 "smiles": "COC1=NC=C(C=N1)C(O)=O", 
	 "Tm": 493.15, 
	 "num_atms": 17, 
	 "gaussian": { 
		 "optdone": 1, 
		 "sigma_profile": "yes", 
		 "theory": "DFT", 
		 "functional": "B3LYP", 
		 "basiset": "6-31G**", 
		 "properties": { 
			 "R2extent": 2893.9137, 
			 "electric_dipole_moment_norm": 4.85977486413, 
			 "electric_quadrupole_moment_norm": 18.3416325568, 
			 "total_energy": -567.422614557, 
			 "HOMO_LUMO_gap": 0.206, 
			 "cosmo_polarized_energy": -17.55, 
			 "cosmo_cavitation_energy": 22.32, 
			 "cosmo_dispersion_energy": -16.78, 
			 "cosmo_repulsion_energy": 1.35, 
			 "cosmo_total_nonelectrostatic_energy": 6.89, 
			 "SMD_solvation_energy": 3.59 
		},
		"coords": [
			{
				"x": -0.9885690498,
				"y": 2.0818860788,
				"z": -0.0736644329,
				"element": "C" 
			},
			{
				"x": -0.4324498871,
				"y": 1.1894337196,
				"z": 0.9018887821,
				"element": "O" 
			},
			{
				"x": -0.4086692796,
				"y": -0.11154572,
				"z": 0.6136156418,
				"element": "C" 
			},
			{
				"x": -0.8981911644,
				"y": -0.5263151601,
				"z": -0.5618092981,
				"element": "N" 
			},
			{
				"x": -0.8253704298,
				"y": -1.8393922898,
				"z": -0.7905251239,
				"element": "C" 
			},
			{
				"x": -0.2748244661,
				"y": -2.7406214477,
				"z": 0.1206122812,
				"element": "C" 
			},
			{
				"x": 0.1732569927,
				"y": -2.1741612831,
				"z": 1.3299354937,
				"element": "C" 
			},
			{
				"x": 0.1213073171,
				"y": -0.87572818,
				"z": 1.5861717841,
				"element": "N" 
			},
			{
				"x": -0.1866012342,
				"y": -4.2170006084,
				"z": -0.0640008275,
				"element": "C" 
			},
			{
				"x": -0.3190832762,
				"y": -4.6918554122,
				"z": -1.3316966373,
				"element": "O" 
			},
			{
				"x": -0.0101225215,
				"y": -4.9826371886,
				"z": 0.8539723611,
				"element": "O" 
			},
			{
				"x": -0.9068968608,
				"y": 3.0738861696,
				"z": 0.3704129835,
				"element": "H" 
			},
			{
				"x": -2.0344791423,
				"y": 1.8370898592,
				"z": -0.2751400279,
				"element": "H" 
			},
			{
				"x": -0.427897151,
				"y": 2.0348778229,
				"z": -1.0107450982,
				"element": "H" 
			},
			{
				"x": -1.2548856552,
				"y": -2.1701671144,
				"z": -1.7373297641,
				"element": "H" 
			},
			{
				"x": 0.586126586,
				"y": -2.8222527438,
				"z": 2.0995868533,
				"element": "H" 
			},
			{
				"x": -0.2872507778,
				"y": -3.9721965021,
				"z": -1.9766849709,
				"element": "H" 
			}
		],
		 "valence_orbital": [ 
			{
				"type": "occ",
				"energy": -0.34032,
				"method": "rhf"
			},
			{
				"type": "occ",
				"energy": -0.32484,
				"method": "rhf"
			},
			{
				"type": "occ",
				"energy": -0.28512,
				"method": "rhf"
			},
			{
				"type": "occ",
				"energy": -0.27214,
				"method": "rhf"
			},
			{
				"type": "occ",
				"energy": -0.27034,
				"method": "rhf"
			},
			{
				"type": "unocc",
				"energy": -0.06434,
				"method": "rhf"
			},
			{
				"type": "unocc",
				"energy": -0.05722,
				"method": "rhf"
			},
			{
				"type": "unocc",
				"energy": 0.03353,
				"method": "rhf"
			},
			{
				"type": "unocc",
				"energy": 0.04872,
				"method": "rhf"
			},
			{
				"type": "unocc",
				"energy": 0.10397,
				"method": "rhf"
			}
		],
		"cosmo_sigma_profile": { 
			"-0.025": 0.0,
			"-0.024": 0.0,
			"-0.023": 0.0,
			"-0.022": 0.0,
			"-0.021": 0.0,
			"-0.02": 0.539109009962,
			"-0.019": 0.899107366192,
			"-0.018": 1.43209060431,
			"-0.017": 0.716089445205,
			"-0.016": 1.15181390166,
			"-0.015": 1.03524240924,
			"-0.014": 0.960633570234,
			"-0.013": 1.38359320894,
			"-0.012": 1.67891334298,
			"-0.011": 1.05958521437,
			"-0.01": 1.16254389145,
			"-0.009": 1.58611595979,
			"-0.008": 3.05608871861,
			"-0.007": 5.13622421247,
			"-0.006": 9.12790835714,
			"-0.005": 11.4464426178,
			"-0.004": 17.0224997986,
			"-0.003": 17.9072911795,
			"-0.002": 12.7216737259,
			"-0.001": 8.36716907561,
			"0.0": 6.90991987033,
			"0.001": 5.90125513921,
			"0.002": 6.16057677475,
			"0.003": 5.40105769663,
			"0.004": 5.59445973064,
			"0.005": 4.5239035083,
			"0.006": 5.40359138347,
			"0.007": 5.04117825273,
			"0.008": 5.57271933984,
			"0.009": 6.89170452899,
			"0.01": 7.84497028046,
			"0.011": 7.46452317316,
			"0.012": 4.95455609019,
			"0.013": 1.90252905506,
			"0.014": 0.902858586295,
			"0.015": 0.239560512996,
			"0.016": 0.0,
			"0.017": 0.0,
			"0.018": 0.0,
			"0.019": 0.0,
			"0.02": 0.0,
			"0.021": 0.0,
			"0.022": 0.0,
			"0.023": 0.0,
			"0.024": 0.0,
			"0.025": 0.0
		}
	}
}
