{
	 "smiles": "OC(=O)C1=C(N=CC=C1)C(O)=O", 
	 "Tm": 501.15, 
	 "num_atms": 17, 
	 "gaussian": { 
		 "optdone": 1, 
		 "sigma_profile": "yes", 
		 "theory": "DFT", 
		 "functional": "B3LYP", 
		 "basiset": "6-31G**", 
		 "properties": { 
			 "R2extent": 2438.0011, 
			 "electric_dipole_moment_norm": 4.62374722601, 
			 "electric_quadrupole_moment_norm": 19.1216545032, 
			 "total_energy": -625.419931571, 
			 "HOMO_LUMO_gap": 0.1744, 
			 "cosmo_polarized_energy": -16.47, 
			 "cosmo_cavitation_energy": 22.19, 
			 "cosmo_dispersion_energy": -16.93, 
			 "cosmo_repulsion_energy": 1.33, 
			 "cosmo_total_nonelectrostatic_energy": 6.58, 
			 "SMD_solvation_energy": 5.36 
		},
		"coords": [
			{
				"x": 2.8443351372,
				"y": 2.368061476,
				"z": 0.4438775124,
				"element": "O" 
			},
			{
				"x": 2.0179214833,
				"y": 1.6497702977,
				"z": 1.186370092,
				"element": "C" 
			},
			{
				"x": 2.1869894423,
				"y": 1.5330176278,
				"z": 2.3838700095,
				"element": "O" 
			},
			{
				"x": 0.8343893584,
				"y": 0.9108529271,
				"z": 0.5374448387,
				"element": "C" 
			},
			{
				"x": 0.2281843145,
				"y": 1.0333501804,
				"z": -0.7401412718,
				"element": "C" 
			},
			{
				"x": -0.8421352195,
				"y": 0.3105801677,
				"z": -1.1125600548,
				"element": "N" 
			},
			{
				"x": -1.3592503964,
				"y": -0.5749048521,
				"z": -0.267560631,
				"element": "C" 
			},
			{
				"x": -0.8478834384,
				"y": -0.7790839836,
				"z": 1.0150166545,
				"element": "C" 
			},
			{
				"x": 0.244258503,
				"y": -0.0215897682,
				"z": 1.4081701283,
				"element": "C" 
			},
			{
				"x": 0.6932737057,
				"y": 1.9624540367,
				"z": -1.8282190674,
				"element": "C" 
			},
			{
				"x": -0.1899963291,
				"y": 2.1191603959,
				"z": -2.812274905,
				"element": "O" 
			},
			{
				"x": 1.7794862186,
				"y": 2.5347660443,
				"z": -1.8658184334,
				"element": "O" 
			},
			{
				"x": 2.5531461879,
				"y": 2.4136373457,
				"z": -0.5051082792,
				"element": "H" 
			},
			{
				"x": -2.2174459306,
				"y": -1.1387975523,
				"z": -0.6275592688,
				"element": "H" 
			},
			{
				"x": -1.2980915585,
				"y": -1.5049397734,
				"z": 1.6844889317,
				"element": "H" 
			},
			{
				"x": 0.675949043,
				"y": -0.1136973036,
				"z": 2.3978208717,
				"element": "H" 
			},
			{
				"x": 0.2263694784,
				"y": 2.720262734,
				"z": -3.4539171274,
				"element": "H" 
			}
		],
		 "valence_orbital": [ 
			{
				"type": "occ",
				"energy": -0.31634,
				"method": "rhf"
			},
			{
				"type": "occ",
				"energy": -0.30379,
				"method": "rhf"
			},
			{
				"type": "occ",
				"energy": -0.29313,
				"method": "rhf"
			},
			{
				"type": "occ",
				"energy": -0.28898,
				"method": "rhf"
			},
			{
				"type": "occ",
				"energy": -0.26624,
				"method": "rhf"
			},
			{
				"type": "unocc",
				"energy": -0.09184,
				"method": "rhf"
			},
			{
				"type": "unocc",
				"energy": -0.06084,
				"method": "rhf"
			},
			{
				"type": "unocc",
				"energy": 0.01607,
				"method": "rhf"
			},
			{
				"type": "unocc",
				"energy": 0.0407,
				"method": "rhf"
			},
			{
				"type": "unocc",
				"energy": 0.05706,
				"method": "rhf"
			}
		],
		"cosmo_sigma_profile": { 
			"-0.025": 0.0,
			"-0.024": 0.0,
			"-0.023": 0.0,
			"-0.022": 0.0,
			"-0.021": 0.0,
			"-0.02": 0.31921687633,
			"-0.019": 1.18438556276,
			"-0.018": 0.909942017449,
			"-0.017": 0.545121250617,
			"-0.016": 0.506617554596,
			"-0.015": 0.587860198773,
			"-0.014": 0.891881236746,
			"-0.013": 1.73298779398,
			"-0.012": 0.561307220588,
			"-0.011": 0.286302135246,
			"-0.01": 0.764325656544,
			"-0.009": 2.75293985102,
			"-0.008": 7.41351779483,
			"-0.007": 9.66021351179,
			"-0.006": 9.38528127487,
			"-0.005": 9.72712208897,
			"-0.004": 9.51226426809,
			"-0.003": 10.9401333477,
			"-0.002": 14.4113154831,
			"-0.001": 15.1001293888,
			"0.0": 13.4074596927,
			"0.001": 5.70318416632,
			"0.002": 4.71529293831,
			"0.003": 5.13183150876,
			"0.004": 4.6321798075,
			"0.005": 4.77511957433,
			"0.006": 5.01692571919,
			"0.007": 5.6119836936,
			"0.008": 5.03117400974,
			"0.009": 5.69065084502,
			"0.01": 4.14213528492,
			"0.011": 7.38691403412,
			"0.012": 5.73542499304,
			"0.013": 2.79548972735,
			"0.014": 1.08966340682,
			"0.015": 0.884665902636,
			"0.016": 0.251795531758,
			"0.017": 0.0,
			"0.018": 0.0,
			"0.019": 0.0,
			"0.02": 0.0,
			"0.021": 0.0,
			"0.022": 0.0,
			"0.023": 0.0,
			"0.024": 0.0,
			"0.025": 0.0
		}
	}
}
