{
	 "smiles": "CC1CCC2CC1C2(C)C", 
	 "Tm": 221.65, 
	 "num_atms": 28, 
	 "gaussian": { 
		 "optdone": 1, 
		 "sigma_profile": "yes", 
		 "theory": "DFT", 
		 "functional": "B3LYP", 
		 "basiset": "6-31G**", 
		 "properties": { 
			 "R2extent": 1456.7176, 
			 "electric_dipole_moment_norm": 0.122642977785, 
			 "electric_quadrupole_moment_norm": 0.45439651187, 
			 "total_energy": -391.901587639, 
			 "HOMO_LUMO_gap": 0.34207, 
			 "cosmo_polarized_energy": -0.79, 
			 "cosmo_cavitation_energy": 25.86, 
			 "cosmo_dispersion_energy": -19.22, 
			 "cosmo_repulsion_energy": 1.53, 
			 "cosmo_total_nonelectrostatic_energy": 8.17, 
			 "SMD_solvation_energy": 3.84 
		},
		"coords": [
			{
				"x": 1.0147655512,
				"y": -2.2271235637,
				"z": 1.4235534875,
				"element": "C" 
			},
			{
				"x": 0.9320756918,
				"y": -1.0755892944,
				"z": 0.4123989578,
				"element": "C" 
			},
			{
				"x": 1.4432751958,
				"y": 0.2536562726,
				"z": 1.045987394,
				"element": "C" 
			},
			{
				"x": 0.7613165355,
				"y": 1.5381330347,
				"z": 0.4948555945,
				"element": "C" 
			},
			{
				"x": -0.6384610116,
				"y": 1.2308904911,
				"z": -0.0625369868,
				"element": "C" 
			},
			{
				"x": -1.2869060055,
				"y": 0.0992102816,
				"z": 0.7857349823,
				"element": "C" 
			},
			{
				"x": -0.5022296201,
				"y": -0.8886996861,
				"z": -0.1268562626,
				"element": "C" 
			},
			{
				"x": -0.5589990261,
				"y": 0.2076799887,
				"z": -1.2510121388,
				"element": "C" 
			},
			{
				"x": -1.8730532039,
				"y": 0.1449369428,
				"z": -2.047682047,
				"element": "C" 
			},
			{
				"x": 0.5940235788,
				"y": 0.3177654706,
				"z": -2.2541615612,
				"element": "C" 
			},
			{
				"x": 0.7413814556,
				"y": -3.1825036082,
				"z": 0.961947271,
				"element": "H" 
			},
			{
				"x": 2.0290167894,
				"y": -2.328360547,
				"z": 1.826377302,
				"element": "H" 
			},
			{
				"x": 0.3380187605,
				"y": -2.0591955441,
				"z": 2.2700442047,
				"element": "H" 
			},
			{
				"x": 1.5768087566,
				"y": -1.3422301865,
				"z": -0.4347692973,
				"element": "H" 
			},
			{
				"x": 1.2497537642,
				"y": 0.2019905186,
				"z": 2.1236752679,
				"element": "H" 
			},
			{
				"x": 2.5326020828,
				"y": 0.3228746469,
				"z": 0.9482947517,
				"element": "H" 
			},
			{
				"x": 0.6797652663,
				"y": 2.2742506049,
				"z": 1.3040532872,
				"element": "H" 
			},
			{
				"x": 1.3732954951,
				"y": 2.010402977,
				"z": -0.2820447464,
				"element": "H" 
			},
			{
				"x": -1.2136102818,
				"y": 2.1486384243,
				"z": -0.2351855648,
				"element": "H" 
			},
			{
				"x": -1.0718779851,
				"y": 0.0843026651,
				"z": 1.8587995516,
				"element": "H" 
			},
			{
				"x": -2.3681385972,
				"y": 0.0317000448,
				"z": 0.6549774472,
				"element": "H" 
			},
			{
				"x": -0.9646093526,
				"y": -1.8567075531,
				"z": -0.358719255,
				"element": "H" 
			},
			{
				"x": -1.8724363142,
				"y": -0.7196840958,
				"z": -2.7222079325,
				"element": "H" 
			},
			{
				"x": -2.7580196997,
				"y": 0.0638060701,
				"z": -1.4113065865,
				"element": "H" 
			},
			{
				"x": -1.9919938441,
				"y": 1.0440123921,
				"z": -2.6641599139,
				"element": "H" 
			},
			{
				"x": 1.5797175134,
				"y": 0.3821998895,
				"z": -1.7890751509,
				"element": "H" 
			},
			{
				"x": 0.6038560791,
				"y": -0.5506932388,
				"z": -2.9240737952,
				"element": "H" 
			},
			{
				"x": 0.4691624258,
				"y": 1.2090366022,
				"z": -2.8812082604,
				"element": "H" 
			}
		],
		 "valence_orbital": [ 
			{
				"type": "occ",
				"energy": -0.32243,
				"method": "rhf"
			},
			{
				"type": "occ",
				"energy": -0.2975,
				"method": "rhf"
			},
			{
				"type": "occ",
				"energy": -0.28102,
				"method": "rhf"
			},
			{
				"type": "occ",
				"energy": -0.27723,
				"method": "rhf"
			},
			{
				"type": "occ",
				"energy": -0.26361,
				"method": "rhf"
			},
			{
				"type": "unocc",
				"energy": 0.07846,
				"method": "rhf"
			},
			{
				"type": "unocc",
				"energy": 0.10172,
				"method": "rhf"
			},
			{
				"type": "unocc",
				"energy": 0.11477,
				"method": "rhf"
			},
			{
				"type": "unocc",
				"energy": 0.12213,
				"method": "rhf"
			},
			{
				"type": "unocc",
				"energy": 0.13021,
				"method": "rhf"
			}
		],
		"cosmo_sigma_profile": { 
			"-0.025": 0.0,
			"-0.024": 0.0,
			"-0.023": 0.0,
			"-0.022": 0.0,
			"-0.021": 0.0,
			"-0.02": 0.0,
			"-0.019": 0.0,
			"-0.018": 0.0,
			"-0.017": 0.0,
			"-0.016": 0.0,
			"-0.015": 0.0,
			"-0.014": 0.0,
			"-0.013": 0.0,
			"-0.012": 0.0,
			"-0.011": 0.0,
			"-0.01": 0.0,
			"-0.009": 0.0,
			"-0.008": 0.0,
			"-0.007": 0.0,
			"-0.006": 0.0,
			"-0.005": 0.0,
			"-0.004": 0.557246841912,
			"-0.003": 4.26139535065,
			"-0.002": 29.6061486315,
			"-0.001": 41.9843101689,
			"0.0": 42.7479191706,
			"0.001": 45.5399295116,
			"0.002": 28.2671598579,
			"0.003": 4.86830326557,
			"0.004": 0.0908455502611,
			"0.005": 0.0,
			"0.006": 0.0,
			"0.007": 0.0,
			"0.008": 0.0,
			"0.009": 0.0,
			"0.01": 0.0,
			"0.011": 0.0,
			"0.012": 0.0,
			"0.013": 0.0,
			"0.014": 0.0,
			"0.015": 0.0,
			"0.016": 0.0,
			"0.017": 0.0,
			"0.018": 0.0,
			"0.019": 0.0,
			"0.02": 0.0,
			"0.021": 0.0,
			"0.022": 0.0,
			"0.023": 0.0,
			"0.024": 0.0,
			"0.025": 0.0
		}
	}
}
