{
	 "smiles": "CC1=CC=C(C=C1Cl)[N+]([O-])=O", 
	 "Tm": 339.65, 
	 "num_atms": 17, 
	 "gaussian": { 
		 "optdone": 1, 
		 "sigma_profile": "yes", 
		 "theory": "DFT", 
		 "functional": "B3LYP", 
		 "basiset": "6-31G**", 
		 "properties": { 
			 "R2extent": 2863.5397, 
			 "electric_dipole_moment_norm": 4.54665888428, 
			 "electric_quadrupole_moment_norm": 8.76895439548, 
			 "total_energy": -935.65949856, 
			 "HOMO_LUMO_gap": 0.17505, 
			 "cosmo_polarized_energy": -7.58, 
			 "cosmo_cavitation_energy": 23.58, 
			 "cosmo_dispersion_energy": -17.47, 
			 "cosmo_repulsion_energy": 1.39, 
			 "cosmo_total_nonelectrostatic_energy": 7.5, 
			 "SMD_solvation_energy": 6.15 
		},
		"coords": [
			{
				"x": -0.1515374198,
				"y": -4.0580831191,
				"z": 1.7124520789,
				"element": "C" 
			},
			{
				"x": -0.2505175768,
				"y": -2.7942128336,
				"z": 0.9018363192,
				"element": "C" 
			},
			{
				"x": 0.5327564338,
				"y": -2.6114460279,
				"z": -0.2482112485,
				"element": "C" 
			},
			{
				"x": 0.4617022173,
				"y": -1.4534958101,
				"z": -1.0163025179,
				"element": "C" 
			},
			{
				"x": -0.4190652841,
				"y": -0.4518831528,
				"z": -0.6197810346,
				"element": "C" 
			},
			{
				"x": -1.2203532656,
				"y": -0.5782161607,
				"z": 0.511693607,
				"element": "C" 
			},
			{
				"x": -1.1235458795,
				"y": -1.7487451281,
				"z": 1.2558364244,
				"element": "C" 
			},
			{
				"x": -2.1356825235,
				"y": -1.905335736,
				"z": 2.6830902973,
				"element": "Cl" 
			},
			{
				"x": -0.5121082438,
				"y": 0.7821106687,
				"z": -1.4158601138,
				"element": "N" 
			},
			{
				"x": -1.3007540766,
				"y": 1.6472101845,
				"z": -1.0378279497,
				"element": "O" 
			},
			{
				"x": 0.2053967732,
				"y": 0.8706937886,
				"z": -2.4112724547,
				"element": "O" 
			},
			{
				"x": 0.578324568,
				"y": -4.7434606972,
				"z": 1.2762747287,
				"element": "H" 
			},
			{
				"x": -1.1186439055,
				"y": -4.5692356503,
				"z": 1.7658435243,
				"element": "H" 
			},
			{
				"x": 0.1478458207,
				"y": -3.8428884847,
				"z": 2.7437067676,
				"element": "H" 
			},
			{
				"x": 1.2147822337,
				"y": -3.4032220826,
				"z": -0.5432804868,
				"element": "H" 
			},
			{
				"x": 1.0669304419,
				"y": -1.3148813372,
				"z": -1.9029368559,
				"element": "H" 
			},
			{
				"x": -1.8945303133,
				"y": 0.2202915786,
				"z": 0.7916389144,
				"element": "H" 
			}
		],
		 "valence_orbital": [ 
			{
				"type": "occ",
				"energy": -0.31406,
				"method": "rhf"
			},
			{
				"type": "occ",
				"energy": -0.311,
				"method": "rhf"
			},
			{
				"type": "occ",
				"energy": -0.29567,
				"method": "rhf"
			},
			{
				"type": "occ",
				"energy": -0.28441,
				"method": "rhf"
			},
			{
				"type": "occ",
				"energy": -0.26923,
				"method": "rhf"
			},
			{
				"type": "unocc",
				"energy": -0.09418,
				"method": "rhf"
			},
			{
				"type": "unocc",
				"energy": -0.03725,
				"method": "rhf"
			},
			{
				"type": "unocc",
				"energy": -0.00666,
				"method": "rhf"
			},
			{
				"type": "unocc",
				"energy": 0.01339,
				"method": "rhf"
			},
			{
				"type": "unocc",
				"energy": 0.08797,
				"method": "rhf"
			}
		],
		"cosmo_sigma_profile": { 
			"-0.025": 0.0,
			"-0.024": 0.0,
			"-0.023": 0.0,
			"-0.022": 0.0,
			"-0.021": 0.0,
			"-0.02": 0.0,
			"-0.019": 0.0,
			"-0.018": 0.0,
			"-0.017": 0.0,
			"-0.016": 0.0,
			"-0.015": 0.0,
			"-0.014": 0.0,
			"-0.013": 0.0,
			"-0.012": 0.0,
			"-0.011": 0.0,
			"-0.01": 0.0,
			"-0.009": 0.0116710328753,
			"-0.008": 2.25135803972,
			"-0.007": 7.06481272151,
			"-0.006": 8.10186989973,
			"-0.005": 11.4112330684,
			"-0.004": 11.2505682385,
			"-0.003": 14.1023925399,
			"-0.002": 18.8734680037,
			"-0.001": 21.4524649042,
			"0.0": 23.251080088,
			"0.001": 14.987294166,
			"0.002": 9.52957433014,
			"0.003": 9.91368673646,
			"0.004": 9.11148125388,
			"0.005": 4.21376918041,
			"0.006": 3.53682258054,
			"0.007": 8.43653700813,
			"0.008": 7.28516852497,
			"0.009": 3.97871968373,
			"0.01": 2.27925748308,
			"0.011": 0.0195630080886,
			"0.012": 0.0,
			"0.013": 0.0,
			"0.014": 0.0,
			"0.015": 0.0,
			"0.016": 0.0,
			"0.017": 0.0,
			"0.018": 0.0,
			"0.019": 0.0,
			"0.02": 0.0,
			"0.021": 0.0,
			"0.022": 0.0,
			"0.023": 0.0,
			"0.024": 0.0,
			"0.025": 0.0
		}
	}
}
