{
	 "smiles": "OC1OCCCC1(Cl)Cl", 
	 "Tm": 361.65, 
	 "num_atms": 17, 
	 "gaussian": { 
		 "optdone": 1, 
		 "sigma_profile": "yes", 
		 "theory": "DFT", 
		 "functional": "B3LYP", 
		 "basiset": "6-31G**", 
		 "properties": { 
			 "R2extent": 2142.8365, 
			 "electric_dipole_moment_norm": 3.29425576572, 
			 "electric_quadrupole_moment_norm": 3.31993272673, 
			 "total_energy": -1266.17874211, 
			 "HOMO_LUMO_gap": 0.25987, 
			 "cosmo_polarized_energy": -9.54, 
			 "cosmo_cavitation_energy": 22.05, 
			 "cosmo_dispersion_energy": -16.93, 
			 "cosmo_repulsion_energy": 1.37, 
			 "cosmo_total_nonelectrostatic_energy": 6.49, 
			 "SMD_solvation_energy": 2.89 
		},
		"coords": [
			{
				"x": -1.5199891699,
				"y": -1.8791640023,
				"z": 1.2466755709,
				"element": "O" 
			},
			{
				"x": -1.0530806008,
				"y": -0.9726911387,
				"z": 0.3244390143,
				"element": "C" 
			},
			{
				"x": -1.7020541718,
				"y": -1.1918819978,
				"z": -0.9100846838,
				"element": "O" 
			},
			{
				"x": -1.1869848062,
				"y": -0.4039200725,
				"z": -1.9835815079,
				"element": "C" 
			},
			{
				"x": -1.397198497,
				"y": 1.0860850909,
				"z": -1.7191023065,
				"element": "C" 
			},
			{
				"x": -0.7735327686,
				"y": 1.4655925115,
				"z": -0.3683111243,
				"element": "C" 
			},
			{
				"x": -1.2369871213,
				"y": 0.5208270687,
				"z": 0.7437837428,
				"element": "C" 
			},
			{
				"x": -3.0013083705,
				"y": 0.8055653538,
				"z": 1.1123983072,
				"element": "Cl" 
			},
			{
				"x": -0.2763336251,
				"y": 0.8374823119,
				"z": 2.2451755339,
				"element": "Cl" 
			},
			{
				"x": -2.4694619179,
				"y": -1.7185033934,
				"z": 1.3626439071,
				"element": "H" 
			},
			{
				"x": 0.0316747279,
				"y": -1.1396068039,
				"z": 0.2308006558,
				"element": "H" 
			},
			{
				"x": -0.1148733822,
				"y": -0.6211606382,
				"z": -2.123963526,
				"element": "H" 
			},
			{
				"x": -1.719004715,
				"y": -0.7352044422,
				"z": -2.8787225987,
				"element": "H" 
			},
			{
				"x": -2.4686508093,
				"y": 1.3085893865,
				"z": -1.7161410877,
				"element": "H" 
			},
			{
				"x": -0.9372838836,
				"y": 1.6805815018,
				"z": -2.5166177198,
				"element": "H" 
			},
			{
				"x": -0.9936655942,
				"y": 2.4985803741,
				"z": -0.0876439001,
				"element": "H" 
			},
			{
				"x": 0.3179347054,
				"y": 1.37062889,
				"z": -0.426248277,
				"element": "H" 
			}
		],
		 "valence_orbital": [ 
			{
				"type": "occ",
				"energy": -0.32382,
				"method": "rhf"
			},
			{
				"type": "occ",
				"energy": -0.31264,
				"method": "rhf"
			},
			{
				"type": "occ",
				"energy": -0.30445,
				"method": "rhf"
			},
			{
				"type": "occ",
				"energy": -0.30188,
				"method": "rhf"
			},
			{
				"type": "occ",
				"energy": -0.27243,
				"method": "rhf"
			},
			{
				"type": "unocc",
				"energy": -0.01256,
				"method": "rhf"
			},
			{
				"type": "unocc",
				"energy": 0.01177,
				"method": "rhf"
			},
			{
				"type": "unocc",
				"energy": 0.08379,
				"method": "rhf"
			},
			{
				"type": "unocc",
				"energy": 0.09703,
				"method": "rhf"
			},
			{
				"type": "unocc",
				"energy": 0.11135,
				"method": "rhf"
			}
		],
		"cosmo_sigma_profile": { 
			"-0.025": 0.0,
			"-0.024": 0.0,
			"-0.023": 0.0,
			"-0.022": 0.0,
			"-0.021": 0.0,
			"-0.02": 0.0,
			"-0.019": 0.0,
			"-0.018": 0.0,
			"-0.017": 0.0,
			"-0.016": 0.0,
			"-0.015": 0.241800680103,
			"-0.014": 0.814567142854,
			"-0.013": 0.634427617412,
			"-0.012": 0.393197686764,
			"-0.011": 0.743161147759,
			"-0.01": 0.634902909878,
			"-0.009": 1.77526794242,
			"-0.008": 2.47510121595,
			"-0.007": 4.46046161331,
			"-0.006": 7.80296973042,
			"-0.005": 14.5599990024,
			"-0.004": 16.1605493564,
			"-0.003": 16.0900213585,
			"-0.002": 13.0196255999,
			"-0.001": 10.6827939999,
			"0.0": 8.518686106,
			"0.001": 8.84629405597,
			"0.002": 8.61650308736,
			"0.003": 11.3117582033,
			"0.004": 13.6840017054,
			"0.005": 12.8807300766,
			"0.006": 4.00158211259,
			"0.007": 2.38338925526,
			"0.008": 3.0413259246,
			"0.009": 2.77518209426,
			"0.01": 2.88342398031,
			"0.011": 4.1030927472,
			"0.012": 2.88433014543,
			"0.013": 0.0128398668708,
			"0.014": 0.0,
			"0.015": 0.0,
			"0.016": 0.0,
			"0.017": 0.0,
			"0.018": 0.0,
			"0.019": 0.0,
			"0.02": 0.0,
			"0.021": 0.0,
			"0.022": 0.0,
			"0.023": 0.0,
			"0.024": 0.0,
			"0.025": 0.0
		}
	}
}
