{
	 "smiles": "OC(=O)C1=CC=CC=C1O", 
	 "Tm": 430.15, 
	 "num_atms": 16, 
	 "gaussian": { 
		 "optdone": 1, 
		 "sigma_profile": "yes", 
		 "theory": "DFT", 
		 "functional": "B3LYP", 
		 "basiset": "6-31G**", 
		 "properties": { 
			 "R2extent": 1765.8991, 
			 "electric_dipole_moment_norm": 2.08624905033, 
			 "electric_quadrupole_moment_norm": 9.98888282642, 
			 "total_energy": -496.059352099, 
			 "HOMO_LUMO_gap": 0.17552, 
			 "cosmo_polarized_energy": -8.48, 
			 "cosmo_cavitation_energy": 20.2, 
			 "cosmo_dispersion_energy": -15.57, 
			 "cosmo_repulsion_energy": 1.25, 
			 "cosmo_total_nonelectrostatic_energy": 5.88, 
			 "SMD_solvation_energy": 5.01 
		},
		"coords": [
			{
				"x": -2.2734167739,
				"y": -0.7598327468,
				"z": 2.8435144845,
				"element": "O" 
			},
			{
				"x": -1.9729670385,
				"y": 0.3351491459,
				"z": 2.1173204556,
				"element": "C" 
			},
			{
				"x": -2.4669336642,
				"y": 1.4297006645,
				"z": 2.4000593935,
				"element": "O" 
			},
			{
				"x": -1.0445148421,
				"y": 0.1076281201,
				"z": 1.0084029064,
				"element": "C" 
			},
			{
				"x": -0.5116049094,
				"y": -1.167228168,
				"z": 0.7321001686,
				"element": "C" 
			},
			{
				"x": 0.3651386231,
				"y": -1.3555073458,
				"z": -0.3236755965,
				"element": "C" 
			},
			{
				"x": 0.7226754366,
				"y": -0.2577560048,
				"z": -1.1241209855,
				"element": "C" 
			},
			{
				"x": 0.2126283788,
				"y": 1.0075528398,
				"z": -0.8738667136,
				"element": "C" 
			},
			{
				"x": -0.6775398658,
				"y": 1.2117607529,
				"z": 0.1939964978,
				"element": "C" 
			},
			{
				"x": -1.1451515122,
				"y": 2.4523985293,
				"z": 0.3981048675,
				"element": "O" 
			},
			{
				"x": -2.8899423986,
				"y": -0.4632329014,
				"z": 3.5335540345,
				"element": "H" 
			},
			{
				"x": -0.8025029561,
				"y": -1.9990524124,
				"z": 1.3639797744,
				"element": "H" 
			},
			{
				"x": 0.7712982776,
				"y": -2.3401394016,
				"z": -0.5301786756,
				"element": "H" 
			},
			{
				"x": 1.4098937036,
				"y": -0.3979811294,
				"z": -1.9539852187,
				"element": "H" 
			},
			{
				"x": 0.4819488359,
				"y": 1.8619710665,
				"z": -1.4854418686,
				"element": "H" 
			},
			{
				"x": -1.7483092948,
				"y": 2.4109689913,
				"z": 1.1784364759,
				"element": "H" 
			}
		],
		 "valence_orbital": [ 
			{
				"type": "occ",
				"energy": -0.34108,
				"method": "rhf"
			},
			{
				"type": "occ",
				"energy": -0.33248,
				"method": "rhf"
			},
			{
				"type": "occ",
				"energy": -0.29132,
				"method": "rhf"
			},
			{
				"type": "occ",
				"energy": -0.26606,
				"method": "rhf"
			},
			{
				"type": "occ",
				"energy": -0.22908,
				"method": "rhf"
			},
			{
				"type": "unocc",
				"energy": -0.05356,
				"method": "rhf"
			},
			{
				"type": "unocc",
				"energy": 0.00295,
				"method": "rhf"
			},
			{
				"type": "unocc",
				"energy": 0.04978,
				"method": "rhf"
			},
			{
				"type": "unocc",
				"energy": 0.06919,
				"method": "rhf"
			},
			{
				"type": "unocc",
				"energy": 0.09738,
				"method": "rhf"
			}
		],
		"cosmo_sigma_profile": { 
			"-0.025": 0.0,
			"-0.024": 0.0,
			"-0.023": 0.0,
			"-0.022": 0.0,
			"-0.021": 0.0,
			"-0.02": 0.0,
			"-0.019": 0.280764913305,
			"-0.018": 1.12954003404,
			"-0.017": 0.53613365032,
			"-0.016": 1.00304211473,
			"-0.015": 0.718197800331,
			"-0.014": 0.89059778603,
			"-0.013": 0.566576867558,
			"-0.012": 0.670028923155,
			"-0.011": 0.771238048085,
			"-0.01": 0.644947318242,
			"-0.009": 0.193607958747,
			"-0.008": 1.12321502125,
			"-0.007": 3.38470250595,
			"-0.006": 8.7243415007,
			"-0.005": 8.63931521722,
			"-0.004": 10.6430354719,
			"-0.003": 11.5338750689,
			"-0.002": 10.7299047951,
			"-0.001": 10.7905034468,
			"0.0": 9.32417876483,
			"0.001": 11.7838287075,
			"0.002": 13.5129103871,
			"0.003": 15.4614825715,
			"0.004": 12.361870775,
			"0.005": 4.56539049361,
			"0.006": 4.27375386612,
			"0.007": 4.44752177531,
			"0.008": 3.13507913299,
			"0.009": 2.69300789485,
			"0.01": 3.64259688252,
			"0.011": 3.34656496282,
			"0.012": 0.399911403502,
			"0.013": 0.0,
			"0.014": 0.0,
			"0.015": 0.0,
			"0.016": 0.0,
			"0.017": 0.0,
			"0.018": 0.0,
			"0.019": 0.0,
			"0.02": 0.0,
			"0.021": 0.0,
			"0.022": 0.0,
			"0.023": 0.0,
			"0.024": 0.0,
			"0.025": 0.0
		}
	}
}
