{
	 "smiles": "NC(=S)C1=CC2=CC=CC=C2OC1=N", 
	 "Tm": 527.15, 
	 "num_atms": 22, 
	 "gaussian": { 
		 "optdone": 1, 
		 "sigma_profile": "yes", 
		 "theory": "DFT", 
		 "functional": "B3LYP", 
		 "basiset": "6-31G**", 
		 "properties": { 
			 "R2extent": 3705.615, 
			 "electric_dipole_moment_norm": 7.025883933, 
			 "electric_quadrupole_moment_norm": 13.7316436897, 
			 "total_energy": -968.786218765, 
			 "HOMO_LUMO_gap": 0.13295, 
			 "cosmo_polarized_energy": -22.72, 
			 "cosmo_cavitation_energy": 28.07, 
			 "cosmo_dispersion_energy": -21.32, 
			 "cosmo_repulsion_energy": 1.61, 
			 "cosmo_total_nonelectrostatic_energy": 8.37, 
			 "SMD_solvation_energy": 3.22 
		},
		"coords": [
			{
				"x": -1.6112891119,
				"y": -1.6042853129,
				"z": -2.7362856563,
				"element": "N" 
			},
			{
				"x": -1.2053394583,
				"y": -1.6518948011,
				"z": -1.4459221625,
				"element": "C" 
			},
			{
				"x": -1.4707356594,
				"y": -3.0066607036,
				"z": -0.5071772895,
				"element": "S" 
			},
			{
				"x": -0.5945597461,
				"y": -0.3860724165,
				"z": -0.9558767353,
				"element": "C" 
			},
			{
				"x": -1.1553275133,
				"y": 0.8011644653,
				"z": -1.3197181709,
				"element": "C" 
			},
			{
				"x": -0.6259648109,
				"y": 2.0638817896,
				"z": -0.8832020068,
				"element": "C" 
			},
			{
				"x": -1.1930150994,
				"y": 3.3107275696,
				"z": -1.2055690679,
				"element": "C" 
			},
			{
				"x": -0.6037028092,
				"y": 4.4872797276,
				"z": -0.7630394321,
				"element": "C" 
			},
			{
				"x": 0.565843131,
				"y": 4.4296943858,
				"z": 0.0106081175,
				"element": "C" 
			},
			{
				"x": 1.1441745642,
				"y": 3.2085346539,
				"z": 0.3449787248,
				"element": "C" 
			},
			{
				"x": 0.5438062724,
				"y": 2.0293035071,
				"z": -0.1021239327,
				"element": "C" 
			},
			{
				"x": 1.1289750955,
				"y": 0.8562598398,
				"z": 0.2403419073,
				"element": "O" 
			},
			{
				"x": 0.592623894,
				"y": -0.3987785062,
				"z": -0.0612428685,
				"element": "C" 
			},
			{
				"x": 1.2253588531,
				"y": -1.3649980688,
				"z": 0.4538599129,
				"element": "N" 
			},
			{
				"x": -2.0472690974,
				"y": -2.4272970311,
				"z": -3.1278512232,
				"element": "H" 
			},
			{
				"x": -1.2811844943,
				"y": -0.8843800098,
				"z": -3.3621296225,
				"element": "H" 
			},
			{
				"x": -2.05148465,
				"y": 0.8072753666,
				"z": -1.9353323419,
				"element": "H" 
			},
			{
				"x": -2.0985388146,
				"y": 3.3375640062,
				"z": -1.8060701585,
				"element": "H" 
			},
			{
				"x": -1.0443344509,
				"y": 5.4467477878,
				"z": -1.01333348,
				"element": "H" 
			},
			{
				"x": 1.0282424729,
				"y": 5.3488361375,
				"z": 0.357844573,
				"element": "H" 
			},
			{
				"x": 2.045149486,
				"y": 3.1449266269,
				"z": 0.9450204798,
				"element": "H" 
			},
			{
				"x": 0.7726719466,
				"y": -2.2485290137,
				"z": 0.2181204332,
				"element": "H" 
			}
		],
		 "valence_orbital": [ 
			{
				"type": "occ",
				"energy": -0.27424,
				"method": "rhf"
			},
			{
				"type": "occ",
				"energy": -0.26257,
				"method": "rhf"
			},
			{
				"type": "occ",
				"energy": -0.24369,
				"method": "rhf"
			},
			{
				"type": "occ",
				"energy": -0.22377,
				"method": "rhf"
			},
			{
				"type": "occ",
				"energy": -0.21958,
				"method": "rhf"
			},
			{
				"type": "unocc",
				"energy": -0.08663,
				"method": "rhf"
			},
			{
				"type": "unocc",
				"energy": -0.03182,
				"method": "rhf"
			},
			{
				"type": "unocc",
				"energy": -0.01211,
				"method": "rhf"
			},
			{
				"type": "unocc",
				"energy": 0.00206,
				"method": "rhf"
			},
			{
				"type": "unocc",
				"energy": 0.06151,
				"method": "rhf"
			}
		],
		"cosmo_sigma_profile": { 
			"-0.025": 0.0,
			"-0.024": 0.0,
			"-0.023": 0.0,
			"-0.022": 0.0,
			"-0.021": 0.0,
			"-0.02": 0.0,
			"-0.019": 0.0,
			"-0.018": 0.0,
			"-0.017": 0.0145250916389,
			"-0.016": 0.999329478407,
			"-0.015": 2.51605192863,
			"-0.014": 2.38935023327,
			"-0.013": 2.49148094938,
			"-0.012": 2.1064017012,
			"-0.011": 2.91291152356,
			"-0.01": 2.13449309939,
			"-0.009": 4.00214722199,
			"-0.008": 4.69227575948,
			"-0.007": 9.5206496571,
			"-0.006": 10.1090657035,
			"-0.005": 12.6031988666,
			"-0.004": 13.3802415832,
			"-0.003": 13.8576321393,
			"-0.002": 11.7428159461,
			"-0.001": 12.1043629227,
			"0.0": 13.603532775,
			"0.001": 15.3512531987,
			"0.002": 14.6770117514,
			"0.003": 15.7239299095,
			"0.004": 10.5849209009,
			"0.005": 7.098220491,
			"0.006": 5.58638896462,
			"0.007": 6.62563579999,
			"0.008": 7.67525759571,
			"0.009": 6.06576041881,
			"0.01": 4.93890748384,
			"0.011": 3.21614417145,
			"0.012": 1.71683019855,
			"0.013": 1.91356349759,
			"0.014": 1.57681971157,
			"0.015": 1.36328518871,
			"0.016": 1.52235763356,
			"0.017": 1.19422628876,
			"0.018": 0.370232769923,
			"0.019": 0.0,
			"0.02": 0.0,
			"0.021": 0.0,
			"0.022": 0.0,
			"0.023": 0.0,
			"0.024": 0.0,
			"0.025": 0.0
		}
	}
}
