{
	 "smiles": "OC(=O)C1=NNC(=C1)C1=CC=C(Cl)S1", 
	 "Tm": 505.15, 
	 "num_atms": 19, 
	 "gaussian": { 
		 "optdone": 1, 
		 "sigma_profile": "yes", 
		 "theory": "DFT", 
		 "functional": "B3LYP", 
		 "basiset": "6-31G**", 
		 "properties": { 
			 "R2extent": 5095.1481, 
			 "electric_dipole_moment_norm": 6.22497258869, 
			 "electric_quadrupole_moment_norm": 34.0508584, 
			 "total_energy": -1426.15698808, 
			 "HOMO_LUMO_gap": 0.17191, 
			 "cosmo_polarized_energy": -22.7, 
			 "cosmo_cavitation_energy": 28.71, 
			 "cosmo_dispersion_energy": -21.64, 
			 "cosmo_repulsion_energy": 1.67, 
			 "cosmo_total_nonelectrostatic_energy": 8.74, 
			 "SMD_solvation_energy": 4.5 
		},
		"coords": [
			{
				"x": 3.5498609126,
				"y": 2.4663035791,
				"z": -2.4002646039,
				"element": "O" 
			},
			{
				"x": 2.3529299656,
				"y": 3.1188267715,
				"z": -2.4259915397,
				"element": "C" 
			},
			{
				"x": 2.25747008,
				"y": 4.2096575437,
				"z": -2.9258642791,
				"element": "O" 
			},
			{
				"x": 1.2296190933,
				"y": 2.3816537317,
				"z": -1.7782325457,
				"element": "C" 
			},
			{
				"x": -0.0332594411,
				"y": 2.6975899556,
				"z": -2.0841550633,
				"element": "N" 
			},
			{
				"x": -0.7713921746,
				"y": 1.8797407031,
				"z": -1.3246417463,
				"element": "N" 
			},
			{
				"x": -0.0378148503,
				"y": 1.0451203527,
				"z": -0.5244189838,
				"element": "C" 
			},
			{
				"x": 1.2869484723,
				"y": 1.3492881452,
				"z": -0.8072740067,
				"element": "C" 
			},
			{
				"x": -0.6556776911,
				"y": 0.1043905167,
				"z": 0.3913663584,
				"element": "C" 
			},
			{
				"x": -1.8719149284,
				"y": 0.1992637051,
				"z": 1.0289476365,
				"element": "C" 
			},
			{
				"x": -2.1729411049,
				"y": -0.9179125413,
				"z": 1.85909223,
				"element": "C" 
			},
			{
				"x": -1.1722662757,
				"y": -1.8499709576,
				"z": 1.8462291441,
				"element": "C" 
			},
			{
				"x": -1.1245850965,
				"y": -3.3379576638,
				"z": 2.7228094208,
				"element": "Cl" 
			},
			{
				"x": 0.1509453882,
				"y": -1.3942189504,
				"z": 0.8077128552,
				"element": "S" 
			},
			{
				"x": 3.4248248271,
				"y": 1.5524025625,
				"z": -2.1084978408,
				"element": "H" 
			},
			{
				"x": -1.7757716568,
				"y": 1.8924063051,
				"z": -1.4263016319,
				"element": "H" 
			},
			{
				"x": 2.1534697645,
				"y": 0.9333176243,
				"z": -0.3133544678,
				"element": "H" 
			},
			{
				"x": -2.5234383097,
				"y": 1.0614565109,
				"z": 0.937643611,
				"element": "H" 
			},
			{
				"x": -3.0759069746,
				"y": -1.021257894,
				"z": 2.447395453,
				"element": "H" 
			}
		],
		 "valence_orbital": [ 
			{
				"type": "occ",
				"energy": -0.29607,
				"method": "rhf"
			},
			{
				"type": "occ",
				"energy": -0.28853,
				"method": "rhf"
			},
			{
				"type": "occ",
				"energy": -0.28524,
				"method": "rhf"
			},
			{
				"type": "occ",
				"energy": -0.26992,
				"method": "rhf"
			},
			{
				"type": "occ",
				"energy": -0.23688,
				"method": "rhf"
			},
			{
				"type": "unocc",
				"energy": -0.06497,
				"method": "rhf"
			},
			{
				"type": "unocc",
				"energy": -0.03377,
				"method": "rhf"
			},
			{
				"type": "unocc",
				"energy": -0.01101,
				"method": "rhf"
			},
			{
				"type": "unocc",
				"energy": 0.00115,
				"method": "rhf"
			},
			{
				"type": "unocc",
				"energy": 0.01344,
				"method": "rhf"
			}
		],
		"cosmo_sigma_profile": { 
			"-0.025": 0.0,
			"-0.024": 0.0,
			"-0.023": 0.0,
			"-0.022": 0.0,
			"-0.021": 0.0,
			"-0.02": 0.0,
			"-0.019": 0.0854504003215,
			"-0.018": 1.15205546091,
			"-0.017": 2.19606791814,
			"-0.016": 2.24116708424,
			"-0.015": 2.18151531818,
			"-0.014": 1.6961602106,
			"-0.013": 2.89403661439,
			"-0.012": 2.83604827579,
			"-0.011": 2.84934718545,
			"-0.01": 2.47563768504,
			"-0.009": 3.3423477548,
			"-0.008": 6.57528608883,
			"-0.007": 6.66962160447,
			"-0.006": 6.90553826718,
			"-0.005": 6.15142827327,
			"-0.004": 7.67255982347,
			"-0.003": 9.38336231554,
			"-0.002": 13.1958412972,
			"-0.001": 15.5199099908,
			"0.0": 19.7837299364,
			"0.001": 27.001228665,
			"0.002": 24.974623383,
			"0.003": 20.0435093077,
			"0.004": 5.28488322706,
			"0.005": 3.10175060982,
			"0.006": 3.22908879856,
			"0.007": 3.45822814666,
			"0.008": 3.44326015904,
			"0.009": 4.54866747571,
			"0.01": 6.31091248177,
			"0.011": 6.53489722197,
			"0.012": 6.20580898542,
			"0.013": 4.06307406383,
			"0.014": 1.52635207464,
			"0.015": 0.35562470884,
			"0.016": 0.0,
			"0.017": 0.0,
			"0.018": 0.0,
			"0.019": 0.0,
			"0.02": 0.0,
			"0.021": 0.0,
			"0.022": 0.0,
			"0.023": 0.0,
			"0.024": 0.0,
			"0.025": 0.0
		}
	}
}
