{
	 "smiles": "CC(C)(C)OC(=O)N1CCC(=O)C1", 
	 "Tm": 309.15, 
	 "num_atms": 28, 
	 "gaussian": { 
		 "optdone": 1, 
		 "sigma_profile": "yes", 
		 "theory": "DFT", 
		 "functional": "B3LYP", 
		 "basiset": "6-31G**", 
		 "properties": { 
			 "R2extent": 3242.0227, 
			 "electric_dipole_moment_norm": 0.963551083233, 
			 "electric_quadrupole_moment_norm": 14.4663345126, 
			 "total_energy": -632.44998856, 
			 "HOMO_LUMO_gap": 0.2126, 
			 "cosmo_polarized_energy": -11.46, 
			 "cosmo_cavitation_energy": 30.18, 
			 "cosmo_dispersion_energy": -21.33, 
			 "cosmo_repulsion_energy": 1.72, 
			 "cosmo_total_nonelectrostatic_energy": 10.57, 
			 "SMD_solvation_energy": 6.1 
		},
		"coords": [
			{
				"x": 0.9111157215,
				"y": -0.5024532297,
				"z": -2.9067378042,
				"element": "C" 
			},
			{
				"x": -0.1848208302,
				"y": -1.2217336912,
				"z": -2.1132413424,
				"element": "C" 
			},
			{
				"x": -0.1024381114,
				"y": -2.7361138981,
				"z": -2.3215713167,
				"element": "C" 
			},
			{
				"x": -1.585299308,
				"y": -0.7008883272,
				"z": -2.4532057067,
				"element": "C" 
			},
			{
				"x": 0.0659120514,
				"y": -1.0841877579,
				"z": -0.6688745656,
				"element": "O" 
			},
			{
				"x": 0.0803197143,
				"y": 0.1367775758,
				"z": -0.0798766882,
				"element": "C" 
			},
			{
				"x": -0.1113310298,
				"y": 1.2124616028,
				"z": -0.6286198416,
				"element": "O" 
			},
			{
				"x": 0.3560741756,
				"y": 0.0127533163,
				"z": 1.2527626383,
				"element": "N" 
			},
			{
				"x": 0.3662965989,
				"y": 1.1955028975,
				"z": 2.1244061292,
				"element": "C" 
			},
			{
				"x": 1.1492939958,
				"y": 0.7285975612,
				"z": 3.3574441073,
				"element": "C" 
			},
			{
				"x": 1.0025765813,
				"y": -0.7937950488,
				"z": 3.3615496498,
				"element": "C" 
			},
			{
				"x": 1.2212579176,
				"y": -1.537927556,
				"z": 4.2882744648,
				"element": "O" 
			},
			{
				"x": 0.5260057357,
				"y": -1.2369892981,
				"z": 1.9740073333,
				"element": "C" 
			},
			{
				"x": 0.7823667523,
				"y": -0.7028785476,
				"z": -3.9753808691,
				"element": "H" 
			},
			{
				"x": 0.869093892,
				"y": 0.57436043,
				"z": -2.7417767024,
				"element": "H" 
			},
			{
				"x": 1.8986148638,
				"y": -0.8699758985,
				"z": -2.6096706496,
				"element": "H" 
			},
			{
				"x": -0.8554620199,
				"y": -3.251046802,
				"z": -1.7178772873,
				"element": "H" 
			},
			{
				"x": -0.2758657793,
				"y": -2.9803271105,
				"z": -3.3737720629,
				"element": "H" 
			},
			{
				"x": 0.8844346922,
				"y": -3.1127692808,
				"z": -2.0370178163,
				"element": "H" 
			},
			{
				"x": -1.6539829304,
				"y": 0.3736415305,
				"z": -2.2826824722,
				"element": "H" 
			},
			{
				"x": -2.3378811089,
				"y": -1.2074324298,
				"z": -1.840469048,
				"element": "H" 
			},
			{
				"x": -1.8088115835,
				"y": -0.9081882429,
				"z": -3.5047701783,
				"element": "H" 
			},
			{
				"x": 0.8240903218,
				"y": 2.032247204,
				"z": 1.5950754488,
				"element": "H" 
			},
			{
				"x": -0.6570093943,
				"y": 1.4935744076,
				"z": 2.3919473396,
				"element": "H" 
			},
			{
				"x": 2.2189418241,
				"y": 0.9539624643,
				"z": 3.2590190323,
				"element": "H" 
			},
			{
				"x": 0.8067935937,
				"y": 1.155577629,
				"z": 4.302373923,
				"element": "H" 
			},
			{
				"x": 1.2674900643,
				"y": -1.891264677,
				"z": 1.5032595874,
				"element": "H" 
			},
			{
				"x": -0.4036764004,
				"y": -1.8154848228,
				"z": 2.0727246977,
				"element": "H" 
			}
		],
		 "valence_orbital": [ 
			{
				"type": "occ",
				"energy": -0.33306,
				"method": "rhf"
			},
			{
				"type": "occ",
				"energy": -0.28949,
				"method": "rhf"
			},
			{
				"type": "occ",
				"energy": -0.26742,
				"method": "rhf"
			},
			{
				"type": "occ",
				"energy": -0.25597,
				"method": "rhf"
			},
			{
				"type": "occ",
				"energy": -0.24418,
				"method": "rhf"
			},
			{
				"type": "unocc",
				"energy": -0.03158,
				"method": "rhf"
			},
			{
				"type": "unocc",
				"energy": 0.04989,
				"method": "rhf"
			},
			{
				"type": "unocc",
				"energy": 0.08007,
				"method": "rhf"
			},
			{
				"type": "unocc",
				"energy": 0.09397,
				"method": "rhf"
			},
			{
				"type": "unocc",
				"energy": 0.09949,
				"method": "rhf"
			}
		],
		"cosmo_sigma_profile": { 
			"-0.025": 0.0,
			"-0.024": 0.0,
			"-0.023": 0.0,
			"-0.022": 0.0,
			"-0.021": 0.0,
			"-0.02": 0.0,
			"-0.019": 0.0,
			"-0.018": 0.0,
			"-0.017": 0.0,
			"-0.016": 0.0,
			"-0.015": 0.0,
			"-0.014": 0.0,
			"-0.013": 0.0,
			"-0.012": 0.0,
			"-0.011": 0.0,
			"-0.01": 0.0,
			"-0.009": 0.0,
			"-0.008": 0.790441598209,
			"-0.007": 8.74728075973,
			"-0.006": 11.2755211716,
			"-0.005": 15.4174568756,
			"-0.004": 22.1325427906,
			"-0.003": 26.0887494544,
			"-0.002": 20.9936493624,
			"-0.001": 21.1861338695,
			"0.0": 27.6132260745,
			"0.001": 21.6705472194,
			"0.002": 8.16525710294,
			"0.003": 5.51436016244,
			"0.004": 5.25365209222,
			"0.005": 5.90444050431,
			"0.006": 4.38833771174,
			"0.007": 3.41891054179,
			"0.008": 3.57718084185,
			"0.009": 3.60922679617,
			"0.01": 3.74974923024,
			"0.011": 6.43883546901,
			"0.012": 4.66135524402,
			"0.013": 3.32129575564,
			"0.014": 1.58802467467,
			"0.015": 0.0,
			"0.016": 0.0,
			"0.017": 0.0,
			"0.018": 0.0,
			"0.019": 0.0,
			"0.02": 0.0,
			"0.021": 0.0,
			"0.022": 0.0,
			"0.023": 0.0,
			"0.024": 0.0,
			"0.025": 0.0
		}
	}
}
