{
	 "smiles": "OC(=O)CC1=CC(Cl)=C(Cl)C=C1", 
	 "Tm": 363.15, 
	 "num_atms": 18, 
	 "gaussian": { 
		 "optdone": 1, 
		 "sigma_profile": "yes", 
		 "theory": "DFT", 
		 "functional": "B3LYP", 
		 "basiset": "6-31G**", 
		 "properties": { 
			 "R2extent": 4022.0794, 
			 "electric_dipole_moment_norm": 2.75001438542, 
			 "electric_quadrupole_moment_norm": 15.9446986162, 
			 "total_energy": -1379.30611529, 
			 "HOMO_LUMO_gap": 0.21283, 
			 "cosmo_polarized_energy": -14.33, 
			 "cosmo_cavitation_energy": 26.42, 
			 "cosmo_dispersion_energy": -19.29, 
			 "cosmo_repulsion_energy": 1.56, 
			 "cosmo_total_nonelectrostatic_energy": 8.69, 
			 "SMD_solvation_energy": 5.13 
		},
		"coords": [
			{
				"x": 1.2350505293,
				"y": -0.5059413163,
				"z": 1.7559252894,
				"element": "O" 
			},
			{
				"x": 1.4347543303,
				"y": 0.7748125066,
				"z": 1.3691181631,
				"element": "C" 
			},
			{
				"x": 2.2611236621,
				"y": 1.464736368,
				"z": 1.9090211758,
				"element": "O" 
			},
			{
				"x": 0.5194047087,
				"y": 1.3080402876,
				"z": 0.2515438132,
				"element": "C" 
			},
			{
				"x": -0.0250687224,
				"y": 0.2705466143,
				"z": -0.7037948381,
				"element": "C" 
			},
			{
				"x": -1.2893794873,
				"y": -0.2951781102,
				"z": -0.4998855793,
				"element": "C" 
			},
			{
				"x": -1.7896406984,
				"y": -1.2772495354,
				"z": -1.360774922,
				"element": "C" 
			},
			{
				"x": -3.3765802721,
				"y": -1.9312892976,
				"z": -1.0506136431,
				"element": "Cl" 
			},
			{
				"x": -1.0191005795,
				"y": -1.7070639741,
				"z": -2.4483645052,
				"element": "C" 
			},
			{
				"x": -1.5965947084,
				"y": -2.9249994438,
				"z": -3.5538050304,
				"element": "Cl" 
			},
			{
				"x": 0.2444362931,
				"y": -1.1457781974,
				"z": -2.6584444484,
				"element": "C" 
			},
			{
				"x": 0.7356809905,
				"y": -0.1714098204,
				"z": -1.7967496473,
				"element": "C" 
			},
			{
				"x": 0.5690643146,
				"y": -0.9250742595,
				"z": 1.1884003625,
				"element": "H" 
			},
			{
				"x": -0.3033161898,
				"y": 1.8308206639,
				"z": 0.7542180755,
				"element": "H" 
			},
			{
				"x": 1.0974271198,
				"y": 2.0708860372,
				"z": -0.2749310087,
				"element": "H" 
			},
			{
				"x": -1.9125003358,
				"y": 0.0362443492,
				"z": 0.3252250762,
				"element": "H" 
			},
			{
				"x": 0.8334822639,
				"y": -1.4823678882,
				"z": -3.5043495473,
				"element": "H" 
			},
			{
				"x": 1.7192567815,
				"y": 0.2526650162,
				"z": -1.9769387862,
				"element": "H" 
			}
		],
		 "valence_orbital": [ 
			{
				"type": "occ",
				"energy": -0.32384,
				"method": "rhf"
			},
			{
				"type": "occ",
				"energy": -0.3197,
				"method": "rhf"
			},
			{
				"type": "occ",
				"energy": -0.2894,
				"method": "rhf"
			},
			{
				"type": "occ",
				"energy": -0.27753,
				"method": "rhf"
			},
			{
				"type": "occ",
				"energy": -0.26016,
				"method": "rhf"
			},
			{
				"type": "unocc",
				"energy": -0.04733,
				"method": "rhf"
			},
			{
				"type": "unocc",
				"energy": -0.04665,
				"method": "rhf"
			},
			{
				"type": "unocc",
				"energy": -0.013,
				"method": "rhf"
			},
			{
				"type": "unocc",
				"energy": 0.00654,
				"method": "rhf"
			},
			{
				"type": "unocc",
				"energy": 0.04721,
				"method": "rhf"
			}
		],
		"cosmo_sigma_profile": { 
			"-0.025": 0.0,
			"-0.024": 0.0,
			"-0.023": 0.0,
			"-0.022": 0.0,
			"-0.021": 0.0,
			"-0.02": 0.0,
			"-0.019": 0.0,
			"-0.018": 0.0,
			"-0.017": 0.0,
			"-0.016": 0.0,
			"-0.015": 0.353338997826,
			"-0.014": 0.807921834645,
			"-0.013": 0.467793289596,
			"-0.012": 1.07403334228,
			"-0.011": 2.33857666906,
			"-0.01": 2.16537235553,
			"-0.009": 3.98465019927,
			"-0.008": 9.19379449766,
			"-0.007": 11.9779738124,
			"-0.006": 9.93762484473,
			"-0.005": 9.44182479793,
			"-0.004": 7.94978068767,
			"-0.003": 10.9090947292,
			"-0.002": 10.785516718,
			"-0.001": 12.4644246594,
			"0.0": 19.0918485419,
			"0.001": 19.7943064727,
			"0.002": 15.8367789421,
			"0.003": 16.3276569486,
			"0.004": 16.921677365,
			"0.005": 6.02868162008,
			"0.006": 2.1997056483,
			"0.007": 2.13609282374,
			"0.008": 2.93249645716,
			"0.009": 3.20835061402,
			"0.01": 5.20073913029,
			"0.011": 4.76898202283,
			"0.012": 5.71246502487,
			"0.013": 1.92415798448,
			"0.014": 0.0338112327484,
			"0.015": 0.0,
			"0.016": 0.0,
			"0.017": 0.0,
			"0.018": 0.0,
			"0.019": 0.0,
			"0.02": 0.0,
			"0.021": 0.0,
			"0.022": 0.0,
			"0.023": 0.0,
			"0.024": 0.0,
			"0.025": 0.0
		}
	}
}
