{
	 "smiles": "CS(=O)(=O)NC1=CC(F)=C(C=C1)S(Cl)(=O)=O", 
	 "Tm": 423.15, 
	 "num_atms": 23, 
	 "gaussian": { 
		 "optdone": 1, 
		 "sigma_profile": "yes", 
		 "theory": "DFT", 
		 "functional": "B3LYP", 
		 "basiset": "6-31G**", 
		 "properties": { 
			 "R2extent": 7790.7574, 
			 "electric_dipole_moment_norm": 5.34237438411, 
			 "electric_quadrupole_moment_norm": 31.5113189992, 
			 "total_energy": -1982.86960321, 
			 "HOMO_LUMO_gap": 0.17853, 
			 "cosmo_polarized_energy": -21.98, 
			 "cosmo_cavitation_energy": 32.93, 
			 "cosmo_dispersion_energy": -24.82, 
			 "cosmo_repulsion_energy": 1.82, 
			 "cosmo_total_nonelectrostatic_energy": 9.93, 
			 "SMD_solvation_energy": 4.52 
		},
		"coords": [
			{
				"x": 2.1349224305,
				"y": -1.4929904406,
				"z": -1.7165526242,
				"element": "C" 
			},
			{
				"x": 2.3270404996,
				"y": 0.1995545331,
				"z": -1.1294114587,
				"element": "S" 
			},
			{
				"x": 1.4135281556,
				"y": 1.0408817313,
				"z": -1.8969359673,
				"element": "O" 
			},
			{
				"x": 3.7483374514,
				"y": 0.5034162725,
				"z": -1.0000222484,
				"element": "O" 
			},
			{
				"x": 1.7898913132,
				"y": 0.1342243279,
				"z": 0.4806492279,
				"element": "N" 
			},
			{
				"x": 0.5004543426,
				"y": -0.1179220736,
				"z": 0.9582681089,
				"element": "C" 
			},
			{
				"x": 0.368359705,
				"y": -0.5260355504,
				"z": 2.2972612071,
				"element": "C" 
			},
			{
				"x": -0.8897192053,
				"y": -0.779786183,
				"z": 2.8144451867,
				"element": "C" 
			},
			{
				"x": -0.9946216324,
				"y": -1.1496742119,
				"z": 4.0932735786,
				"element": "F" 
			},
			{
				"x": -2.0354832762,
				"y": -0.6537959302,
				"z": 2.0217391844,
				"element": "C" 
			},
			{
				"x": -1.9000214884,
				"y": -0.236673664,
				"z": 0.6941306226,
				"element": "C" 
			},
			{
				"x": -0.6480526128,
				"y": 0.034860699,
				"z": 0.1576598969,
				"element": "C" 
			},
			{
				"x": -3.6531347989,
				"y": -1.0437453705,
				"z": 2.6446013943,
				"element": "S" 
			},
			{
				"x": -3.9897159335,
				"y": 0.5618335116,
				"z": 3.9975517133,
				"element": "Cl" 
			},
			{
				"x": -3.6073022384,
				"y": -2.2560713667,
				"z": 3.4484821288,
				"element": "O" 
			},
			{
				"x": -4.6097847592,
				"y": -0.8723256656,
				"z": 1.5578554361,
				"element": "O" 
			},
			{
				"x": 2.7983113672,
				"y": -2.1422892533,
				"z": -1.1446089175,
				"element": "H" 
			},
			{
				"x": 1.0918258479,
				"y": -1.7925899783,
				"z": -1.6031321218,
				"element": "H" 
			},
			{
				"x": 2.4140024716,
				"y": -1.4927388433,
				"z": -2.7718193765,
				"element": "H" 
			},
			{
				"x": 2.5644229658,
				"y": 0.0757101022,
				"z": 1.1305515265,
				"element": "H" 
			},
			{
				"x": 1.2309907614,
				"y": -0.6504658728,
				"z": 2.9433286443,
				"element": "H" 
			},
			{
				"x": -2.7923957459,
				"y": -0.1207439181,
				"z": 0.0896699728,
				"element": "H" 
			},
			{
				"x": -0.559155621,
				"y": 0.3942671447,
				"z": -0.8592851147,
				"element": "H" 
			}
		],
		 "valence_orbital": [ 
			{
				"type": "occ",
				"energy": -0.33339,
				"method": "rhf"
			},
			{
				"type": "occ",
				"energy": -0.33072,
				"method": "rhf"
			},
			{
				"type": "occ",
				"energy": -0.31458,
				"method": "rhf"
			},
			{
				"type": "occ",
				"energy": -0.29312,
				"method": "rhf"
			},
			{
				"type": "occ",
				"energy": -0.26865,
				"method": "rhf"
			},
			{
				"type": "unocc",
				"energy": -0.09012,
				"method": "rhf"
			},
			{
				"type": "unocc",
				"energy": -0.05286,
				"method": "rhf"
			},
			{
				"type": "unocc",
				"energy": -0.04408,
				"method": "rhf"
			},
			{
				"type": "unocc",
				"energy": 0.02456,
				"method": "rhf"
			},
			{
				"type": "unocc",
				"energy": 0.03404,
				"method": "rhf"
			}
		],
		"cosmo_sigma_profile": { 
			"-0.025": 0.0,
			"-0.024": 0.0,
			"-0.023": 0.0,
			"-0.022": 0.0,
			"-0.021": 0.0,
			"-0.02": 0.0,
			"-0.019": 0.0,
			"-0.018": 0.0,
			"-0.017": 0.893305798564,
			"-0.016": 1.45074181349,
			"-0.015": 1.53682770285,
			"-0.014": 1.05722938759,
			"-0.013": 1.06156703969,
			"-0.012": 1.49456858602,
			"-0.011": 1.47248809459,
			"-0.01": 4.02641273109,
			"-0.009": 7.28475487744,
			"-0.008": 9.23808615126,
			"-0.007": 11.1458413875,
			"-0.006": 10.8453799038,
			"-0.005": 13.2832245723,
			"-0.004": 11.4359208166,
			"-0.003": 11.9062377327,
			"-0.002": 15.7791808047,
			"-0.001": 18.9336005009,
			"0.0": 17.8137712607,
			"0.001": 15.7299066673,
			"0.002": 19.3370669603,
			"0.003": 21.1435134349,
			"0.004": 10.2099049856,
			"0.005": 6.13086582528,
			"0.006": 6.4464596442,
			"0.007": 8.81759823257,
			"0.008": 14.6097493538,
			"0.009": 9.1335744358,
			"0.01": 9.78443517709,
			"0.011": 5.04845900598,
			"0.012": 0.00792723035498,
			"0.013": 0.0,
			"0.014": 0.0,
			"0.015": 0.0,
			"0.016": 0.0,
			"0.017": 0.0,
			"0.018": 0.0,
			"0.019": 0.0,
			"0.02": 0.0,
			"0.021": 0.0,
			"0.022": 0.0,
			"0.023": 0.0,
			"0.024": 0.0,
			"0.025": 0.0
		}
	}
}
