{
	 "smiles": "OC(=O)C1=NC=C(F)C=C1", 
	 "Tm": 438.15, 
	 "num_atms": 14, 
	 "gaussian": { 
		 "optdone": 1, 
		 "sigma_profile": "yes", 
		 "theory": "DFT", 
		 "functional": "B3LYP", 
		 "basiset": "6-31G**", 
		 "properties": { 
			 "R2extent": 1712.6221, 
			 "electric_dipole_moment_norm": 4.2795753294, 
			 "electric_quadrupole_moment_norm": 18.0612130694, 
			 "total_energy": -536.090448404, 
			 "HOMO_LUMO_gap": 0.20238, 
			 "cosmo_polarized_energy": -10.57, 
			 "cosmo_cavitation_energy": 19.65, 
			 "cosmo_dispersion_energy": -14.67, 
			 "cosmo_repulsion_energy": 1.16, 
			 "cosmo_total_nonelectrostatic_energy": 6.15, 
			 "SMD_solvation_energy": 4.58 
		},
		"coords": [
			{
				"x": 1.0896931836,
				"y": -0.1310352668,
				"z": 3.5893313064,
				"element": "O" 
			},
			{
				"x": 0.2633175101,
				"y": 0.6004264959,
				"z": 2.8264512926,
				"element": "C" 
			},
			{
				"x": -0.477485758,
				"y": 1.4474918834,
				"z": 3.2722464995,
				"element": "O" 
			},
			{
				"x": 0.3418238349,
				"y": 0.2729865371,
				"z": 1.3568702569,
				"element": "C" 
			},
			{
				"x": 1.2114635369,
				"y": -0.6900045723,
				"z": 1.0137607903,
				"element": "N" 
			},
			{
				"x": 1.3229681954,
				"y": -1.0213845951,
				"z": -0.2731326746,
				"element": "C" 
			},
			{
				"x": 0.557005567,
				"y": -0.38734672,
				"z": -1.2514142916,
				"element": "C" 
			},
			{
				"x": 0.703217754,
				"y": -0.7539993921,
				"z": -2.533196519,
				"element": "F" 
			},
			{
				"x": -0.3480472841,
				"y": 0.6118987985,
				"z": -0.9121606427,
				"element": "C" 
			},
			{
				"x": -0.4572146597,
				"y": 0.9506370262,
				"z": 0.4334382775,
				"element": "C" 
			},
			{
				"x": 1.5698266163,
				"y": -0.7326237911,
				"z": 2.9831791308,
				"element": "H" 
			},
			{
				"x": 2.0274609403,
				"y": -1.8011743791,
				"z": -0.5489768292,
				"element": "H" 
			},
			{
				"x": -0.9371626838,
				"y": 1.0963771383,
				"z": -1.6834601651,
				"element": "H" 
			},
			{
				"x": -1.1372667529,
				"y": 1.7176508371,
				"z": 0.7853635682,
				"element": "H" 
			}
		],
		 "valence_orbital": [ 
			{
				"type": "occ",
				"energy": -0.32272,
				"method": "rhf"
			},
			{
				"type": "occ",
				"energy": -0.31284,
				"method": "rhf"
			},
			{
				"type": "occ",
				"energy": -0.31142,
				"method": "rhf"
			},
			{
				"type": "occ",
				"energy": -0.28282,
				"method": "rhf"
			},
			{
				"type": "occ",
				"energy": -0.27273,
				"method": "rhf"
			},
			{
				"type": "unocc",
				"energy": -0.07035,
				"method": "rhf"
			},
			{
				"type": "unocc",
				"energy": -0.05412,
				"method": "rhf"
			},
			{
				"type": "unocc",
				"energy": 0.04599,
				"method": "rhf"
			},
			{
				"type": "unocc",
				"energy": 0.07153,
				"method": "rhf"
			},
			{
				"type": "unocc",
				"energy": 0.1163,
				"method": "rhf"
			}
		],
		"cosmo_sigma_profile": { 
			"-0.025": 0.0,
			"-0.024": 0.0,
			"-0.023": 0.0,
			"-0.022": 0.0,
			"-0.021": 0.0,
			"-0.02": 0.0,
			"-0.019": 0.0,
			"-0.018": 0.0,
			"-0.017": 0.0,
			"-0.016": 0.0,
			"-0.015": 0.0,
			"-0.014": 0.031460084751,
			"-0.013": 0.441394134932,
			"-0.012": 0.291751873656,
			"-0.011": 0.63600032921,
			"-0.01": 1.31593958343,
			"-0.009": 4.82091433292,
			"-0.008": 5.78675589915,
			"-0.007": 6.15419046992,
			"-0.006": 5.64835790127,
			"-0.005": 7.63303271392,
			"-0.004": 7.75452813769,
			"-0.003": 12.598662913,
			"-0.002": 18.8219354298,
			"-0.001": 14.6359550119,
			"0.0": 10.101443629,
			"0.001": 6.80142064022,
			"0.002": 7.70348212839,
			"0.003": 12.1121655364,
			"0.004": 5.58781011147,
			"0.005": 3.45856155243,
			"0.006": 1.57229796421,
			"0.007": 3.39418582946,
			"0.008": 2.52123927414,
			"0.009": 3.69098011633,
			"0.01": 5.64916679585,
			"0.011": 4.72842318367,
			"0.012": 3.7356923349,
			"0.013": 1.22047024189,
			"0.014": 0.0152010900848,
			"0.015": 0.0,
			"0.016": 0.0,
			"0.017": 0.0,
			"0.018": 0.0,
			"0.019": 0.0,
			"0.02": 0.0,
			"0.021": 0.0,
			"0.022": 0.0,
			"0.023": 0.0,
			"0.024": 0.0,
			"0.025": 0.0
		}
	}
}
