{
	 "smiles": "[O-][N+](=O)C1=CC(=C(F)C=C1F)[N+]([O-])=O", 
	 "Tm": 346.65, 
	 "num_atms": 16, 
	 "gaussian": { 
		 "optdone": 1, 
		 "sigma_profile": "yes", 
		 "theory": "DFT", 
		 "functional": "B3LYP", 
		 "basiset": "6-31G**", 
		 "properties": { 
			 "R2extent": 3364.3467, 
			 "electric_dipole_moment_norm": 3.45251963934, 
			 "electric_quadrupole_moment_norm": 14.0645974045, 
			 "total_energy": -839.679335944, 
			 "HOMO_LUMO_gap": 0.19648, 
			 "cosmo_polarized_energy": -12.45, 
			 "cosmo_cavitation_energy": 23.81, 
			 "cosmo_dispersion_energy": -17.28, 
			 "cosmo_repulsion_energy": 1.31, 
			 "cosmo_total_nonelectrostatic_energy": 7.84, 
			 "SMD_solvation_energy": 9.57 
		},
		"coords": [
			{
				"x": 2.9210844879,
				"y": -0.1318978532,
				"z": 1.6968618945,
				"element": "O" 
			},
			{
				"x": 2.4016898551,
				"y": -1.1017125246,
				"z": 1.155297612,
				"element": "N" 
			},
			{
				"x": 2.7691457192,
				"y": -2.2683312513,
				"z": 1.277545484,
				"element": "O" 
			},
			{
				"x": 1.2403516828,
				"y": -0.8594738431,
				"z": 0.2841989965,
				"element": "C" 
			},
			{
				"x": 0.6452413439,
				"y": -1.9566054812,
				"z": -0.3266791232,
				"element": "C" 
			},
			{
				"x": -0.4546145044,
				"y": -1.7994416666,
				"z": -1.1613310855,
				"element": "C" 
			},
			{
				"x": -0.9697575976,
				"y": -0.5103283591,
				"z": -1.3884085022,
				"element": "C" 
			},
			{
				"x": -2.0154906935,
				"y": -0.2907546377,
				"z": -2.1718269237,
				"element": "F" 
			},
			{
				"x": -0.3806278232,
				"y": 0.59251258,
				"z": -0.7813926551,
				"element": "C" 
			},
			{
				"x": 0.719240466,
				"y": 0.4263159586,
				"z": 0.0519566129,
				"element": "C" 
			},
			{
				"x": 1.2389251144,
				"y": 1.5137840483,
				"z": 0.6022741088,
				"element": "F" 
			},
			{
				"x": -1.0325960715,
				"y": -3.0063275971,
				"z": -1.7741376331,
				"element": "N" 
			},
			{
				"x": -1.9989642098,
				"y": -2.8632267022,
				"z": -2.515254443,
				"element": "O" 
			},
			{
				"x": -0.4997673971,
				"y": -4.0786190324,
				"z": -1.4961993417,
				"element": "O" 
			},
			{
				"x": 1.0438584001,
				"y": -2.9471098754,
				"z": -0.1499923977,
				"element": "H" 
			},
			{
				"x": -0.7796187721,
				"y": 1.583916237,
				"z": -0.9582126036,
				"element": "H" 
			}
		],
		 "valence_orbital": [ 
			{
				"type": "occ",
				"energy": -0.32885,
				"method": "rhf"
			},
			{
				"type": "occ",
				"energy": -0.31825,
				"method": "rhf"
			},
			{
				"type": "occ",
				"energy": -0.31457,
				"method": "rhf"
			},
			{
				"type": "occ",
				"energy": -0.313,
				"method": "rhf"
			},
			{
				"type": "occ",
				"energy": -0.31293,
				"method": "rhf"
			},
			{
				"type": "unocc",
				"energy": -0.11645,
				"method": "rhf"
			},
			{
				"type": "unocc",
				"energy": -0.11304,
				"method": "rhf"
			},
			{
				"type": "unocc",
				"energy": -0.04903,
				"method": "rhf"
			},
			{
				"type": "unocc",
				"energy": -0.01859,
				"method": "rhf"
			},
			{
				"type": "unocc",
				"energy": 0.0279,
				"method": "rhf"
			}
		],
		"cosmo_sigma_profile": { 
			"-0.025": 0.0,
			"-0.024": 0.0,
			"-0.023": 0.0,
			"-0.022": 0.0,
			"-0.021": 0.0,
			"-0.02": 0.0,
			"-0.019": 0.0,
			"-0.018": 0.0,
			"-0.017": 0.0,
			"-0.016": 0.0,
			"-0.015": 0.0,
			"-0.014": 0.0,
			"-0.013": 0.0,
			"-0.012": 0.240066888014,
			"-0.011": 1.6457002446,
			"-0.01": 1.41110261497,
			"-0.009": 3.48568086168,
			"-0.008": 5.80555387074,
			"-0.007": 8.53213971915,
			"-0.006": 14.2511552674,
			"-0.005": 17.4849266397,
			"-0.004": 17.8250679775,
			"-0.003": 10.4905612623,
			"-0.002": 6.52169550311,
			"-0.001": 5.68146492083,
			"0.0": 6.34514133057,
			"0.001": 10.0418568693,
			"0.002": 14.351246983,
			"0.003": 6.23156813275,
			"0.004": 7.05360409003,
			"0.005": 7.98288332571,
			"0.006": 14.4128576044,
			"0.007": 18.7352715848,
			"0.008": 9.22099655161,
			"0.009": 5.19028732223,
			"0.01": 0.325099815482,
			"0.011": 0.0,
			"0.012": 0.0,
			"0.013": 0.0,
			"0.014": 0.0,
			"0.015": 0.0,
			"0.016": 0.0,
			"0.017": 0.0,
			"0.018": 0.0,
			"0.019": 0.0,
			"0.02": 0.0,
			"0.021": 0.0,
			"0.022": 0.0,
			"0.023": 0.0,
			"0.024": 0.0,
			"0.025": 0.0
		}
	}
}
