{
	 "smiles": "CN1C=CC2=C1C=CC(C=O)=C2", 
	 "Tm": 358.15, 
	 "num_atms": 21, 
	 "gaussian": { 
		 "optdone": 1, 
		 "sigma_profile": "yes", 
		 "theory": "DFT", 
		 "functional": "B3LYP", 
		 "basiset": "6-31G**", 
		 "properties": { 
			 "R2extent": 2623.4189, 
			 "electric_dipole_moment_norm": 6.22272540693, 
			 "electric_quadrupole_moment_norm": 14.3705417991, 
			 "total_energy": -516.459576369, 
			 "HOMO_LUMO_gap": 0.16725, 
			 "cosmo_polarized_energy": -11.59, 
			 "cosmo_cavitation_energy": 25.15, 
			 "cosmo_dispersion_energy": -18.36, 
			 "cosmo_repulsion_energy": 1.43, 
			 "cosmo_total_nonelectrostatic_energy": 8.22, 
			 "SMD_solvation_energy": 5.51 
		},
		"coords": [
			{
				"x": 0.4441637922,
				"y": -2.3597619503,
				"z": -0.7533158251,
				"element": "C" 
			},
			{
				"x": -0.0660968651,
				"y": -1.0033899544,
				"z": -0.7849615542,
				"element": "N" 
			},
			{
				"x": -0.4055221562,
				"y": -0.2847234998,
				"z": -1.92413011,
				"element": "C" 
			},
			{
				"x": -0.8517248783,
				"y": 0.9620981355,
				"z": -1.5838871261,
				"element": "C" 
			},
			{
				"x": -0.7952194954,
				"y": 1.0467913005,
				"z": -0.1500261414,
				"element": "C" 
			},
			{
				"x": -0.2958292064,
				"y": -0.2094616059,
				"z": 0.3154671559,
				"element": "C" 
			},
			{
				"x": -0.1084764331,
				"y": -0.4853703445,
				"z": 1.6775228373,
				"element": "C" 
			},
			{
				"x": -0.4286496982,
				"y": 0.5174945992,
				"z": 2.5797816539,
				"element": "C" 
			},
			{
				"x": -0.9248511078,
				"y": 1.7702672674,
				"z": 2.1454971306,
				"element": "C" 
			},
			{
				"x": -1.2500812403,
				"y": 2.8031493763,
				"z": 3.1465630693,
				"element": "C" 
			},
			{
				"x": -1.6815789492,
				"y": 3.9144903607,
				"z": 2.8940724265,
				"element": "O" 
			},
			{
				"x": -1.1084573437,
				"y": 2.0364112502,
				"z": 0.7845438115,
				"element": "C" 
			},
			{
				"x": 0.5216500124,
				"y": -2.7348680492,
				"z": -1.7750937462,
				"element": "H" 
			},
			{
				"x": -0.2261163099,
				"y": -3.0192073191,
				"z": -0.1910094552,
				"element": "H" 
			},
			{
				"x": 1.4380606642,
				"y": -2.3955271984,
				"z": -0.2937255281,
				"element": "H" 
			},
			{
				"x": -0.2943554674,
				"y": -0.7413906207,
				"z": -2.8979434617,
				"element": "H" 
			},
			{
				"x": -1.1815824523,
				"y": 1.7299337111,
				"z": -2.2684625485,
				"element": "H" 
			},
			{
				"x": 0.2717217329,
				"y": -1.4441806093,
				"z": 2.0160282994,
				"element": "H" 
			},
			{
				"x": -0.2987720431,
				"y": 0.3463159683,
				"z": 3.6456804447,
				"element": "H" 
			},
			{
				"x": -1.0685057904,
				"y": 2.4934111656,
				"z": 4.2016587867,
				"element": "H" 
			},
			{
				"x": -1.490976765,
				"y": 3.0088180167,
				"z": 0.4895398805,
				"element": "H" 
			}
		],
		 "valence_orbital": [ 
			{
				"type": "occ",
				"energy": -0.32632,
				"method": "rhf"
			},
			{
				"type": "occ",
				"energy": -0.28261,
				"method": "rhf"
			},
			{
				"type": "occ",
				"energy": -0.23968,
				"method": "rhf"
			},
			{
				"type": "occ",
				"energy": -0.23076,
				"method": "rhf"
			},
			{
				"type": "occ",
				"energy": -0.21146,
				"method": "rhf"
			},
			{
				"type": "unocc",
				"energy": -0.04421,
				"method": "rhf"
			},
			{
				"type": "unocc",
				"energy": -0.01341,
				"method": "rhf"
			},
			{
				"type": "unocc",
				"energy": 0.05647,
				"method": "rhf"
			},
			{
				"type": "unocc",
				"energy": 0.07218,
				"method": "rhf"
			},
			{
				"type": "unocc",
				"energy": 0.07983,
				"method": "rhf"
			}
		],
		"cosmo_sigma_profile": { 
			"-0.025": 0.0,
			"-0.024": 0.0,
			"-0.023": 0.0,
			"-0.022": 0.0,
			"-0.021": 0.0,
			"-0.02": 0.0,
			"-0.019": 0.0,
			"-0.018": 0.0,
			"-0.017": 0.0,
			"-0.016": 0.0,
			"-0.015": 0.0,
			"-0.014": 0.0,
			"-0.013": 0.0,
			"-0.012": 0.0,
			"-0.011": 0.0,
			"-0.01": 0.0,
			"-0.009": 0.943196207078,
			"-0.008": 3.59116077608,
			"-0.007": 4.92523218381,
			"-0.006": 15.9247462252,
			"-0.005": 19.4756560231,
			"-0.004": 17.6741938459,
			"-0.003": 18.817493763,
			"-0.002": 13.5761228442,
			"-0.001": 9.38054978454,
			"0.0": 9.53133601582,
			"0.001": 9.80665159017,
			"0.002": 10.7686644505,
			"0.003": 13.8480763371,
			"0.004": 17.2819051883,
			"0.005": 12.7980154041,
			"0.006": 5.46463046581,
			"0.007": 1.47284555071,
			"0.008": 1.73546833533,
			"0.009": 1.95358570573,
			"0.01": 1.90788628918,
			"0.011": 2.81736693586,
			"0.012": 4.84355220313,
			"0.013": 2.41280466613,
			"0.014": 0.462608702393,
			"0.015": 0.0,
			"0.016": 0.0,
			"0.017": 0.0,
			"0.018": 0.0,
			"0.019": 0.0,
			"0.02": 0.0,
			"0.021": 0.0,
			"0.022": 0.0,
			"0.023": 0.0,
			"0.024": 0.0,
			"0.025": 0.0
		}
	}
}
