{
	 "smiles": "NC(=O)COC1=CN=CC=C1", 
	 "Tm": 367.15, 
	 "num_atms": 19, 
	 "gaussian": { 
		 "optdone": 1, 
		 "sigma_profile": "yes", 
		 "theory": "DFT", 
		 "functional": "B3LYP", 
		 "basiset": "6-31G**", 
		 "properties": { 
			 "R2extent": 2278.6091, 
			 "electric_dipole_moment_norm": 1.17496207173, 
			 "electric_quadrupole_moment_norm": 16.6496541027, 
			 "total_energy": -531.511236564, 
			 "HOMO_LUMO_gap": 0.20893, 
			 "cosmo_polarized_energy": -14.91, 
			 "cosmo_cavitation_energy": 23.45, 
			 "cosmo_dispersion_energy": -17.2, 
			 "cosmo_repulsion_energy": 1.41, 
			 "cosmo_total_nonelectrostatic_energy": 7.65, 
			 "SMD_solvation_energy": 3.78 
		},
		"coords": [
			{
				"x": -0.3198345076,
				"y": -2.5881474417,
				"z": 2.5004928396,
				"element": "N" 
			},
			{
				"x": -1.4747995285,
				"y": -1.8789555094,
				"z": 2.593004788,
				"element": "C" 
			},
			{
				"x": -2.5683278333,
				"y": -2.3600195139,
				"z": 2.8488364888,
				"element": "O" 
			},
			{
				"x": -1.3080285023,
				"y": -0.3636259436,
				"z": 2.4123787692,
				"element": "C" 
			},
			{
				"x": -0.162033126,
				"y": 0.0162466192,
				"z": 1.655528963,
				"element": "O" 
			},
			{
				"x": -0.2375016412,
				"y": -0.058265865,
				"z": 0.2872835978,
				"element": "C" 
			},
			{
				"x": 0.842730473,
				"y": 0.4989185923,
				"z": -0.4158743218,
				"element": "C" 
			},
			{
				"x": 0.9298074987,
				"y": 0.5032016339,
				"z": -1.7442928256,
				"element": "N" 
			},
			{
				"x": -0.0749052712,
				"y": -0.0528744579,
				"z": -2.438500827,
				"element": "C" 
			},
			{
				"x": -1.1870408015,
				"y": -0.6302425647,
				"z": -1.8312811675,
				"element": "C" 
			},
			{
				"x": -1.2792041944,
				"y": -0.6409594691,
				"z": -0.4373233749,
				"element": "C" 
			},
			{
				"x": 0.5418563851,
				"y": -2.1397154549,
				"z": 2.2317530191,
				"element": "H" 
			},
			{
				"x": -0.3583494581,
				"y": -3.5912176091,
				"z": 2.5956735142,
				"element": "H" 
			},
			{
				"x": -1.1671918436,
				"y": 0.0844174737,
				"z": 3.4007281113,
				"element": "H" 
			},
			{
				"x": -2.2331658551,
				"y": 0.0351545645,
				"z": 1.9858475858,
				"element": "H" 
			},
			{
				"x": 1.6552989829,
				"y": 0.9552128091,
				"z": 0.1466139892,
				"element": "H" 
			},
			{
				"x": 0.018770527,
				"y": -0.0339759187,
				"z": -3.5219692555,
				"element": "H" 
			},
			{
				"x": -1.9742742609,
				"y": -1.0726570238,
				"z": -2.433864697,
				"element": "H" 
			},
			{
				"x": -2.1315070431,
				"y": -1.0996949208,
				"z": 0.0515648032,
				"element": "H" 
			}
		],
		 "valence_orbital": [ 
			{
				"type": "occ",
				"energy": -0.28881,
				"method": "rhf"
			},
			{
				"type": "occ",
				"energy": -0.27885,
				"method": "rhf"
			},
			{
				"type": "occ",
				"energy": -0.26443,
				"method": "rhf"
			},
			{
				"type": "occ",
				"energy": -0.25751,
				"method": "rhf"
			},
			{
				"type": "occ",
				"energy": -0.2377,
				"method": "rhf"
			},
			{
				"type": "unocc",
				"energy": -0.02877,
				"method": "rhf"
			},
			{
				"type": "unocc",
				"energy": -0.00729,
				"method": "rhf"
			},
			{
				"type": "unocc",
				"energy": 0.01475,
				"method": "rhf"
			},
			{
				"type": "unocc",
				"energy": 0.07458,
				"method": "rhf"
			},
			{
				"type": "unocc",
				"energy": 0.08842,
				"method": "rhf"
			}
		],
		"cosmo_sigma_profile": { 
			"-0.025": 0.0,
			"-0.024": 0.0,
			"-0.023": 0.0,
			"-0.022": 0.0,
			"-0.021": 0.0,
			"-0.02": 0.0,
			"-0.019": 0.0,
			"-0.018": 0.0,
			"-0.017": 0.0,
			"-0.016": 0.0,
			"-0.015": 0.213432405381,
			"-0.014": 1.52896011178,
			"-0.013": 1.69786677039,
			"-0.012": 1.95554936852,
			"-0.011": 2.12685814123,
			"-0.01": 1.93812186061,
			"-0.009": 2.5368468243,
			"-0.008": 5.69395866406,
			"-0.007": 10.0996873968,
			"-0.006": 12.7161103308,
			"-0.005": 12.0972598122,
			"-0.004": 12.3272345447,
			"-0.003": 10.4208385581,
			"-0.002": 8.38546712971,
			"-0.001": 7.77044938699,
			"0.0": 11.3293603767,
			"0.001": 13.3274411443,
			"0.002": 13.9446624122,
			"0.003": 12.4832565601,
			"0.004": 6.0805074803,
			"0.005": 4.29746088259,
			"0.006": 2.98174236653,
			"0.007": 3.29538392985,
			"0.008": 4.56262299499,
			"0.009": 2.28752397979,
			"0.01": 1.95719191819,
			"0.011": 2.30784933539,
			"0.012": 2.50877007199,
			"0.013": 6.32146899376,
			"0.014": 5.3151288467,
			"0.015": 1.28448897392,
			"0.016": 0.832139726256,
			"0.017": 0.246901457863,
			"0.018": 0.0,
			"0.019": 0.0,
			"0.02": 0.0,
			"0.021": 0.0,
			"0.022": 0.0,
			"0.023": 0.0,
			"0.024": 0.0,
			"0.025": 0.0
		}
	}
}
