{
	 "smiles": "CCN1C=CC(NS(=O)(=O)C2=CC=C(N)C=C2)=NC1=O", 
	 "Tm": 440.15, 
	 "num_atms": 34, 
	 "gaussian": { 
		 "optdone": 1, 
		 "sigma_profile": "yes", 
		 "theory": "DFT", 
		 "functional": "B3LYP", 
		 "basiset": "6-31G**", 
		 "properties": { 
			 "R2extent": 7619.9281, 
			 "electric_dipole_moment_norm": 7.46452359163, 
			 "electric_quadrupole_moment_norm": 39.8448438374, 
			 "total_energy": -1308.53298913, 
			 "HOMO_LUMO_gap": 0.17419, 
			 "cosmo_polarized_energy": -32.31, 
			 "cosmo_cavitation_energy": 39.61, 
			 "cosmo_dispersion_energy": -28.45, 
			 "cosmo_repulsion_energy": 2.15, 
			 "cosmo_total_nonelectrostatic_energy": 13.3, 
			 "SMD_solvation_energy": 6.58 
		},
		"coords": [
			{
				"x": -1.4431444465,
				"y": -2.2721311446,
				"z": -3.5860455865,
				"element": "C" 
			},
			{
				"x": -0.5971276627,
				"y": -1.0844104683,
				"z": -4.0451641386,
				"element": "C" 
			},
			{
				"x": -0.3320365973,
				"y": -0.1262795196,
				"z": -2.9608495137,
				"element": "N" 
			},
			{
				"x": -1.0778923545,
				"y": 0.9958328169,
				"z": -2.8102389181,
				"element": "C" 
			},
			{
				"x": -0.849557449,
				"y": 1.874019139,
				"z": -1.7936983129,
				"element": "C" 
			},
			{
				"x": 0.2270629418,
				"y": 1.5388124262,
				"z": -0.9099701755,
				"element": "C" 
			},
			{
				"x": 0.4934426467,
				"y": 2.3875002215,
				"z": 0.1451842469,
				"element": "N" 
			},
			{
				"x": 1.947856406,
				"y": 2.4437524787,
				"z": 1.0819918093,
				"element": "S" 
			},
			{
				"x": 3.0952443629,
				"y": 2.3518167518,
				"z": 0.1871326632,
				"element": "O" 
			},
			{
				"x": 1.6980047778,
				"y": 3.6443819965,
				"z": 1.8873550989,
				"element": "O" 
			},
			{
				"x": 1.896088718,
				"y": 1.0197987712,
				"z": 2.1344539907,
				"element": "C" 
			},
			{
				"x": 1.3862078929,
				"y": 1.1580738955,
				"z": 3.4299794713,
				"element": "C" 
			},
			{
				"x": 1.3725867088,
				"y": 0.0630839133,
				"z": 4.2820837239,
				"element": "C" 
			},
			{
				"x": 1.8698138902,
				"y": -1.1842508819,
				"z": 3.8525108501,
				"element": "C" 
			},
			{
				"x": 1.9009087913,
				"y": -2.263906285,
				"z": 4.715794096,
				"element": "N" 
			},
			{
				"x": 2.3827407512,
				"y": -1.2990731484,
				"z": 2.5440902842,
				"element": "C" 
			},
			{
				"x": 2.4000913259,
				"y": -0.2081423737,
				"z": 1.6883932075,
				"element": "C" 
			},
			{
				"x": 0.9565648557,
				"y": 0.453953012,
				"z": -1.0287295493,
				"element": "N" 
			},
			{
				"x": 0.7181199044,
				"y": -0.4463041762,
				"z": -2.0360277415,
				"element": "C" 
			},
			{
				"x": 1.3371182408,
				"y": -1.4904785709,
				"z": -2.1871614377,
				"element": "O" 
			},
			{
				"x": -0.9241470808,
				"y": -2.8116989191,
				"z": -2.791151606,
				"element": "H" 
			},
			{
				"x": -1.6054859434,
				"y": -2.9597455,
				"z": -4.4221570173,
				"element": "H" 
			},
			{
				"x": -2.4207983444,
				"y": -1.9459100241,
				"z": -3.2162597589,
				"element": "H" 
			},
			{
				"x": 0.3738683449,
				"y": -1.4318657952,
				"z": -4.4021987008,
				"element": "H" 
			},
			{
				"x": -1.0904780095,
				"y": -0.535724898,
				"z": -4.8536127447,
				"element": "H" 
			},
			{
				"x": -1.8578507355,
				"y": 1.1560831334,
				"z": -3.5483851106,
				"element": "H" 
			},
			{
				"x": -1.438753857,
				"y": 2.7750820403,
				"z": -1.6831883018,
				"element": "H" 
			},
			{
				"x": -0.0090701494,
				"y": 3.2637470578,
				"z": 0.2174733266,
				"element": "H" 
			},
			{
				"x": 1.0200386866,
				"y": 2.1224974403,
				"z": 3.7640323391,
				"element": "H" 
			},
			{
				"x": 0.9870161347,
				"y": 0.1681509222,
				"z": 5.2926756683,
				"element": "H" 
			},
			{
				"x": 1.9900926374,
				"y": -3.1792656252,
				"z": 4.3004314059,
				"element": "H" 
			},
			{
				"x": 1.2788163642,
				"y": -2.2357556001,
				"z": 5.5097658476,
				"element": "H" 
			},
			{
				"x": 2.7705424446,
				"y": -2.2549110903,
				"z": 2.202564197,
				"element": "H" 
			},
			{
				"x": 2.7707158033,
				"y": -0.3048319959,
				"z": 0.6755263876,
				"element": "H" 
			}
		],
		 "valence_orbital": [ 
			{
				"type": "occ",
				"energy": -0.26472,
				"method": "rhf"
			},
			{
				"type": "occ",
				"energy": -0.25755,
				"method": "rhf"
			},
			{
				"type": "occ",
				"energy": -0.2545,
				"method": "rhf"
			},
			{
				"type": "occ",
				"energy": -0.23277,
				"method": "rhf"
			},
			{
				"type": "occ",
				"energy": -0.2166,
				"method": "rhf"
			},
			{
				"type": "unocc",
				"energy": -0.04241,
				"method": "rhf"
			},
			{
				"type": "unocc",
				"energy": -0.01789,
				"method": "rhf"
			},
			{
				"type": "unocc",
				"energy": -0.00632,
				"method": "rhf"
			},
			{
				"type": "unocc",
				"energy": 0.01085,
				"method": "rhf"
			},
			{
				"type": "unocc",
				"energy": 0.05412,
				"method": "rhf"
			}
		],
		"cosmo_sigma_profile": { 
			"-0.025": 0.0,
			"-0.024": 0.0,
			"-0.023": 0.0,
			"-0.022": 0.0,
			"-0.021": 0.0,
			"-0.02": 0.0,
			"-0.019": 0.0,
			"-0.018": 0.0,
			"-0.017": 0.105648747421,
			"-0.016": 1.0192788444,
			"-0.015": 1.47660381176,
			"-0.014": 1.38373622696,
			"-0.013": 3.49338184201,
			"-0.012": 4.34953583194,
			"-0.011": 5.42682905549,
			"-0.01": 6.74647655671,
			"-0.009": 7.6096369448,
			"-0.008": 9.14212927533,
			"-0.007": 10.0726527539,
			"-0.006": 11.6498778377,
			"-0.005": 14.0927209347,
			"-0.004": 18.2052709859,
			"-0.003": 19.9807419557,
			"-0.002": 22.4731904338,
			"-0.001": 20.4486197167,
			"0.0": 21.8367363464,
			"0.001": 16.0659932626,
			"0.002": 14.3082041921,
			"0.003": 17.361778238,
			"0.004": 15.7723028753,
			"0.005": 7.46860651649,
			"0.006": 6.50988675612,
			"0.007": 7.13441892228,
			"0.008": 6.94197089512,
			"0.009": 6.56511660835,
			"0.01": 12.4563356701,
			"0.011": 12.2276147786,
			"0.012": 3.87085437708,
			"0.013": 3.1579106688,
			"0.014": 4.41797366492,
			"0.015": 1.47360037342,
			"0.016": 0.0,
			"0.017": 0.0,
			"0.018": 0.0,
			"0.019": 0.0,
			"0.02": 0.0,
			"0.021": 0.0,
			"0.022": 0.0,
			"0.023": 0.0,
			"0.024": 0.0,
			"0.025": 0.0
		}
	}
}
