{
	 "smiles": "CCOC(=O)C1=C(NC(=O)CN(CC)CC)SC=C1C1=CC=CC=C1", 
	 "Tm": 366.65, 
	 "num_atms": 49, 
	 "gaussian": { 
		 "optdone": 1, 
		 "sigma_profile": "yes", 
		 "theory": "DFT", 
		 "functional": "B3LYP", 
		 "basiset": "6-31G**", 
		 "properties": { 
			 "R2extent": 10166.0181, 
			 "electric_dipole_moment_norm": 4.5570588267, 
			 "electric_quadrupole_moment_norm": 15.4499005256, 
			 "total_energy": -1471.85291469, 
			 "HOMO_LUMO_gap": 0.16599, 
			 "cosmo_polarized_energy": -16.66, 
			 "cosmo_cavitation_energy": 52.85, 
			 "cosmo_dispersion_energy": -32.71, 
			 "cosmo_repulsion_energy": 2.47, 
			 "cosmo_total_nonelectrostatic_energy": 22.61, 
			 "SMD_solvation_energy": 9.3 
		},
		"coords": [
			{
				"x": 1.7843463946,
				"y": -3.009192238,
				"z": 0.1053974002,
				"element": "C" 
			},
			{
				"x": 1.4843797505,
				"y": -1.8275454247,
				"z": -0.8038671482,
				"element": "C" 
			},
			{
				"x": 0.5804688207,
				"y": -0.8803381829,
				"z": -0.1765086223,
				"element": "O" 
			},
			{
				"x": 1.1388428511,
				"y": 0.0229497793,
				"z": 0.6597051952,
				"element": "C" 
			},
			{
				"x": 2.3304030166,
				"y": 0.1012138096,
				"z": 0.8808570798,
				"element": "O" 
			},
			{
				"x": 0.1140515374,
				"y": 0.9480912701,
				"z": 1.2256845997,
				"element": "C" 
			},
			{
				"x": 0.3387807916,
				"y": 2.3088911196,
				"z": 1.2443230352,
				"element": "C" 
			},
			{
				"x": 1.4641894902,
				"y": 3.0186969748,
				"z": 0.7998206415,
				"element": "N" 
			},
			{
				"x": 1.9113406001,
				"y": 3.19256284,
				"z": -0.5041419892,
				"element": "C" 
			},
			{
				"x": 3.0132804646,
				"y": 3.6722244131,
				"z": -0.7116407881,
				"element": "O" 
			},
			{
				"x": 0.9757599825,
				"y": 2.7834691862,
				"z": -1.6422695126,
				"element": "C" 
			},
			{
				"x": -0.2901116527,
				"y": 3.5097284691,
				"z": -1.6305335908,
				"element": "N" 
			},
			{
				"x": -1.263338077,
				"y": 2.9500112417,
				"z": -2.5766226688,
				"element": "C" 
			},
			{
				"x": -1.9073378298,
				"y": 1.6529406164,
				"z": -2.0799884949,
				"element": "C" 
			},
			{
				"x": -0.131595862,
				"y": 4.9678999169,
				"z": -1.7385182827,
				"element": "C" 
			},
			{
				"x": 0.5082486905,
				"y": 5.511253711,
				"z": -3.0270852179,
				"element": "C" 
			},
			{
				"x": -1.0309174285,
				"y": 3.1672634803,
				"z": 1.9030669124,
				"element": "S" 
			},
			{
				"x": -1.8837145355,
				"y": 1.6900684746,
				"z": 2.161893957,
				"element": "C" 
			},
			{
				"x": -1.1797502391,
				"y": 0.5826234891,
				"z": 1.7531561911,
				"element": "C" 
			},
			{
				"x": -1.6945890971,
				"y": -0.7946870903,
				"z": 1.9425482752,
				"element": "C" 
			},
			{
				"x": -0.9054489977,
				"y": -1.7861383607,
				"z": 2.5479805691,
				"element": "C" 
			},
			{
				"x": -1.4150213216,
				"y": -3.0649884754,
				"z": 2.7678956363,
				"element": "C" 
			},
			{
				"x": -2.7234037982,
				"y": -3.3761078113,
				"z": 2.3898358953,
				"element": "C" 
			},
			{
				"x": -3.5181519536,
				"y": -2.3977452039,
				"z": 1.7906280626,
				"element": "C" 
			},
			{
				"x": -3.0078963662,
				"y": -1.1186684507,
				"z": 1.568065375,
				"element": "C" 
			},
			{
				"x": 2.3467470337,
				"y": -2.6858188494,
				"z": 0.984615206,
				"element": "H" 
			},
			{
				"x": 0.860132398,
				"y": -3.4936079006,
				"z": 0.4316096716,
				"element": "H" 
			},
			{
				"x": 2.3898322839,
				"y": -3.7437832624,
				"z": -0.4361195762,
				"element": "H" 
			},
			{
				"x": 2.4006113257,
				"y": -1.3027044929,
				"z": -1.084823995,
				"element": "H" 
			},
			{
				"x": 0.9526791287,
				"y": -2.1413442278,
				"z": -1.7047889698,
				"element": "H" 
			},
			{
				"x": 2.1855468346,
				"y": 3.2284268188,
				"z": 1.4811988969,
				"element": "H" 
			},
			{
				"x": 0.7600325418,
				"y": 1.7141729509,
				"z": -1.5535624,
				"element": "H" 
			},
			{
				"x": 1.5623883137,
				"y": 2.9215363043,
				"z": -2.5640035505,
				"element": "H" 
			},
			{
				"x": -2.0506192554,
				"y": 3.7003452354,
				"z": -2.71082212,
				"element": "H" 
			},
			{
				"x": -0.8213521151,
				"y": 2.784312845,
				"z": -3.576744554,
				"element": "H" 
			},
			{
				"x": -1.1799450978,
				"y": 0.848207653,
				"z": -1.9358589666,
				"element": "H" 
			},
			{
				"x": -2.6451596105,
				"y": 1.2992887146,
				"z": -2.8084063292,
				"element": "H" 
			},
			{
				"x": -2.4119223224,
				"y": 1.8186175135,
				"z": -1.123924048,
				"element": "H" 
			},
			{
				"x": 0.459657811,
				"y": 5.3043056881,
				"z": -0.8786824258,
				"element": "H" 
			},
			{
				"x": -1.1293282833,
				"y": 5.4042519156,
				"z": -1.6114798669,
				"element": "H" 
			},
			{
				"x": -0.0478150974,
				"y": 5.2045871785,
				"z": -3.9192495974,
				"element": "H" 
			},
			{
				"x": 0.5177596927,
				"y": 6.6061264791,
				"z": -3.0020827225,
				"element": "H" 
			},
			{
				"x": 1.5445653471,
				"y": 5.1778419673,
				"z": -3.1343242561,
				"element": "H" 
			},
			{
				"x": -2.8455958309,
				"y": 1.6951358676,
				"z": 2.6559872539,
				"element": "H" 
			},
			{
				"x": 0.1048590471,
				"y": -1.5463244052,
				"z": 2.8669018363,
				"element": "H" 
			},
			{
				"x": -0.7925956482,
				"y": -3.8166436591,
				"z": 3.2452404407,
				"element": "H" 
			},
			{
				"x": -3.1196136355,
				"y": -4.3725571087,
				"z": 2.5623640381,
				"element": "H" 
			},
			{
				"x": -4.535258896,
				"y": -2.631186634,
				"z": 1.4887344419,
				"element": "H" 
			},
			{
				"x": -3.6218211969,
				"y": -0.3653641456,
				"z": 1.0830390824,
				"element": "H" 
			}
		],
		 "valence_orbital": [ 
			{
				"type": "occ",
				"energy": -0.25574,
				"method": "rhf"
			},
			{
				"type": "occ",
				"energy": -0.25485,
				"method": "rhf"
			},
			{
				"type": "occ",
				"energy": -0.24669,
				"method": "rhf"
			},
			{
				"type": "occ",
				"energy": -0.23115,
				"method": "rhf"
			},
			{
				"type": "occ",
				"energy": -0.20824,
				"method": "rhf"
			},
			{
				"type": "unocc",
				"energy": -0.04225,
				"method": "rhf"
			},
			{
				"type": "unocc",
				"energy": -0.02217,
				"method": "rhf"
			},
			{
				"type": "unocc",
				"energy": -0.00779,
				"method": "rhf"
			},
			{
				"type": "unocc",
				"energy": 0.00456,
				"method": "rhf"
			},
			{
				"type": "unocc",
				"energy": 0.01389,
				"method": "rhf"
			}
		],
		"cosmo_sigma_profile": { 
			"-0.025": 0.0,
			"-0.024": 0.0,
			"-0.023": 0.0,
			"-0.022": 0.0,
			"-0.021": 0.0,
			"-0.02": 0.0,
			"-0.019": 0.0,
			"-0.018": 0.0,
			"-0.017": 0.0,
			"-0.016": 0.0,
			"-0.015": 0.492531361003,
			"-0.014": 1.12767517769,
			"-0.013": 0.857208295573,
			"-0.012": 0.545280719069,
			"-0.011": 0.687632418466,
			"-0.01": 0.809490724526,
			"-0.009": 2.38834369416,
			"-0.008": 2.57504787794,
			"-0.007": 2.69489311934,
			"-0.006": 11.0166028778,
			"-0.005": 19.9492320898,
			"-0.004": 33.5835793386,
			"-0.003": 41.0701508384,
			"-0.002": 47.3194026607,
			"-0.001": 47.396590886,
			"0.0": 43.963387326,
			"0.001": 41.8648188185,
			"0.002": 29.9905038496,
			"0.003": 18.3074117411,
			"0.004": 14.5782129857,
			"0.005": 14.0101556395,
			"0.006": 9.40027964098,
			"0.007": 5.37833730125,
			"0.008": 4.79876068243,
			"0.009": 3.49703420296,
			"0.01": 3.70749125222,
			"0.011": 4.76234636779,
			"0.012": 5.67721804825,
			"0.013": 4.80251278769,
			"0.014": 0.984656260855,
			"0.015": 0.0,
			"0.016": 0.0,
			"0.017": 0.0,
			"0.018": 0.0,
			"0.019": 0.0,
			"0.02": 0.0,
			"0.021": 0.0,
			"0.022": 0.0,
			"0.023": 0.0,
			"0.024": 0.0,
			"0.025": 0.0
		}
	}
}
