{
	 "smiles": "COC1=C(NC(=O)NC2=C(OC)C=CC(N)=C2)C=CC=C1", 
	 "Tm": 441.15, 
	 "num_atms": 38, 
	 "gaussian": { 
		 "optdone": 1, 
		 "sigma_profile": "yes", 
		 "theory": "DFT", 
		 "functional": "B3LYP", 
		 "basiset": "6-31G**", 
		 "properties": { 
			 "R2extent": 6725.7595, 
			 "electric_dipole_moment_norm": 4.60027634605, 
			 "electric_quadrupole_moment_norm": 29.1987048636, 
			 "total_energy": -971.765022308, 
			 "HOMO_LUMO_gap": 0.17047, 
			 "cosmo_polarized_energy": -18.92, 
			 "cosmo_cavitation_energy": 41.34, 
			 "cosmo_dispersion_energy": -28.51, 
			 "cosmo_repulsion_energy": 2.23, 
			 "cosmo_total_nonelectrostatic_energy": 15.06, 
			 "SMD_solvation_energy": 9.45 
		},
		"coords": [
			{
				"x": 4.3950012192,
				"y": -0.0848846647,
				"z": 1.8030848677,
				"element": "C" 
			},
			{
				"x": 3.3975759852,
				"y": 0.0016994219,
				"z": 0.797999427,
				"element": "O" 
			},
			{
				"x": 2.2679175173,
				"y": 0.7344576322,
				"z": 1.0635287414,
				"element": "C" 
			},
			{
				"x": 1.3725250447,
				"y": 0.8556326704,
				"z": -0.0278137529,
				"element": "C" 
			},
			{
				"x": 1.7622520941,
				"y": 0.217996731,
				"z": -1.222559229,
				"element": "N" 
			},
			{
				"x": 1.1503400318,
				"y": 0.184369387,
				"z": -2.4723014409,
				"element": "C" 
			},
			{
				"x": 1.8170456565,
				"y": 0.2652436631,
				"z": -3.4962471801,
				"element": "O" 
			},
			{
				"x": -0.2303790034,
				"y": 0.0565473952,
				"z": -2.5276663449,
				"element": "N" 
			},
			{
				"x": -1.1224203412,
				"y": -0.7029830623,
				"z": -1.7433670751,
				"element": "C" 
			},
			{
				"x": -2.4892866758,
				"y": -0.6127582643,
				"z": -2.097955996,
				"element": "C" 
			},
			{
				"x": -2.7602793995,
				"y": 0.2141840161,
				"z": -3.1660225793,
				"element": "O" 
			},
			{
				"x": -4.0943779778,
				"y": 0.2697591169,
				"z": -3.6381491525,
				"element": "C" 
			},
			{
				"x": -3.4330908205,
				"y": -1.3454610189,
				"z": -1.3867764679,
				"element": "C" 
			},
			{
				"x": -3.0443530335,
				"y": -2.1599003658,
				"z": -0.3185662389,
				"element": "C" 
			},
			{
				"x": -1.6959293687,
				"y": -2.2633762674,
				"z": 0.0364538303,
				"element": "C" 
			},
			{
				"x": -1.2783746239,
				"y": -3.128239345,
				"z": 1.0601361981,
				"element": "N" 
			},
			{
				"x": -0.7403421022,
				"y": -1.5364633864,
				"z": -0.6944051224,
				"element": "C" 
			},
			{
				"x": 0.2084697672,
				"y": 1.6086124729,
				"z": 0.138957142,
				"element": "C" 
			},
			{
				"x": -0.0758963295,
				"y": 2.2123387637,
				"z": 1.3673760788,
				"element": "C" 
			},
			{
				"x": 0.8036944748,
				"y": 2.0822459817,
				"z": 2.4365011226,
				"element": "C" 
			},
			{
				"x": 1.9839763207,
				"y": 1.3455760129,
				"z": 2.2828190252,
				"element": "C" 
			},
			{
				"x": 4.0192493858,
				"y": -0.5929853799,
				"z": 2.700331667,
				"element": "H" 
			},
			{
				"x": 4.7713076721,
				"y": 0.9069555619,
				"z": 2.083626562,
				"element": "H" 
			},
			{
				"x": 5.2076514582,
				"y": -0.6721145413,
				"z": 1.3728953051,
				"element": "H" 
			},
			{
				"x": 2.764666193,
				"y": 0.1084286747,
				"z": -1.3134059715,
				"element": "H" 
			},
			{
				"x": -0.574931903,
				"y": 0.2456425461,
				"z": -3.4607932106,
				"element": "H" 
			},
			{
				"x": -4.0855723918,
				"y": 0.9406178359,
				"z": -4.4988687449,
				"element": "H" 
			},
			{
				"x": -4.4538473227,
				"y": -0.7191298745,
				"z": -3.9520043521,
				"element": "H" 
			},
			{
				"x": -4.7757142608,
				"y": 0.6716330042,
				"z": -2.8765947012,
				"element": "H" 
			},
			{
				"x": -4.4831943833,
				"y": -1.2847522513,
				"z": -1.6479956212,
				"element": "H" 
			},
			{
				"x": -3.7964210681,
				"y": -2.7194367744,
				"z": 0.2308044489,
				"element": "H" 
			},
			{
				"x": -1.9964321516,
				"y": -3.334605932,
				"z": 1.7420504253,
				"element": "H" 
			},
			{
				"x": -0.4223090588,
				"y": -2.841468183,
				"z": 1.5167572451,
				"element": "H" 
			},
			{
				"x": 0.3097019837,
				"y": -1.6334914662,
				"z": -0.4465180778,
				"element": "H" 
			},
			{
				"x": -0.4705232774,
				"y": 1.7279929378,
				"z": -0.6955738751,
				"element": "H" 
			},
			{
				"x": -0.98870966,
				"y": 2.7899847398,
				"z": 1.4750251485,
				"element": "H" 
			},
			{
				"x": 0.5869744441,
				"y": 2.5518674598,
				"z": 3.3910123325,
				"element": "H" 
			},
			{
				"x": 2.6728359052,
				"y": 1.252564752,
				"z": 3.1142255665,
				"element": "H" 
			}
		],
		 "valence_orbital": [ 
			{
				"type": "occ",
				"energy": -0.25802,
				"method": "rhf"
			},
			{
				"type": "occ",
				"energy": -0.2361,
				"method": "rhf"
			},
			{
				"type": "occ",
				"energy": -0.21615,
				"method": "rhf"
			},
			{
				"type": "occ",
				"energy": -0.2028,
				"method": "rhf"
			},
			{
				"type": "occ",
				"energy": -0.18102,
				"method": "rhf"
			},
			{
				"type": "unocc",
				"energy": -0.01055,
				"method": "rhf"
			},
			{
				"type": "unocc",
				"energy": 0.00956,
				"method": "rhf"
			},
			{
				"type": "unocc",
				"energy": 0.0162,
				"method": "rhf"
			},
			{
				"type": "unocc",
				"energy": 0.03111,
				"method": "rhf"
			},
			{
				"type": "unocc",
				"energy": 0.06447,
				"method": "rhf"
			}
		],
		"cosmo_sigma_profile": { 
			"-0.025": 0.0,
			"-0.024": 0.0,
			"-0.023": 0.0,
			"-0.022": 0.0,
			"-0.021": 0.0,
			"-0.02": 0.0,
			"-0.019": 0.0,
			"-0.018": 0.0,
			"-0.017": 0.0,
			"-0.016": 0.0,
			"-0.015": 0.0,
			"-0.014": 0.0,
			"-0.013": 0.00420089964474,
			"-0.012": 1.16939760164,
			"-0.011": 3.28522245902,
			"-0.01": 3.23235647312,
			"-0.009": 4.44369135211,
			"-0.008": 4.88016105119,
			"-0.007": 4.81662465648,
			"-0.006": 16.8096648934,
			"-0.005": 31.0138227678,
			"-0.004": 29.5950608042,
			"-0.003": 31.1875780571,
			"-0.002": 21.138372813,
			"-0.001": 19.0963744642,
			"0.0": 18.5254387167,
			"0.001": 17.3253284661,
			"0.002": 16.7770918078,
			"0.003": 17.6252579307,
			"0.004": 17.2852793228,
			"0.005": 17.5968604588,
			"0.006": 18.5129343959,
			"0.007": 9.18192512318,
			"0.008": 3.63558855848,
			"0.009": 2.04927764205,
			"0.01": 2.31822393517,
			"0.011": 1.85211323787,
			"0.012": 3.27780557668,
			"0.013": 6.19428397809,
			"0.014": 4.31913321306,
			"0.015": 0.597446762539,
			"0.016": 0.238243018162,
			"0.017": 0.0,
			"0.018": 0.0,
			"0.019": 0.0,
			"0.02": 0.0,
			"0.021": 0.0,
			"0.022": 0.0,
			"0.023": 0.0,
			"0.024": 0.0,
			"0.025": 0.0
		}
	}
}
