{
	 "smiles": "CN(C)CCCC1(OCC2=CC(=CC=C12)C#N)C1=CC=C(F)C=C1", 
	 "Tm": 455.65, 
	 "num_atms": 45, 
	 "gaussian": { 
		 "optdone": 1, 
		 "sigma_profile": "yes", 
		 "theory": "DFT", 
		 "functional": "B3LYP", 
		 "basiset": "6-31G**", 
		 "properties": { 
			 "R2extent": 9559.8806, 
			 "electric_dipole_moment_norm": 3.65473992235, 
			 "electric_quadrupole_moment_norm": 26.9144393165, 
			 "total_energy": -1059.31711882, 
			 "HOMO_LUMO_gap": 0.16097, 
			 "cosmo_polarized_energy": -13.57, 
			 "cosmo_cavitation_energy": 48.4, 
			 "cosmo_dispersion_energy": -31.54, 
			 "cosmo_repulsion_energy": 2.4, 
			 "cosmo_total_nonelectrostatic_energy": 19.25, 
			 "SMD_solvation_energy": 8.43 
		},
		"coords": [
			{
				"x": -5.0524454676,
				"y": 0.3526008386,
				"z": -1.0631094464,
				"element": "C" 
			},
			{
				"x": -3.6010099735,
				"y": 0.471020747,
				"z": -1.1299603265,
				"element": "N" 
			},
			{
				"x": -3.166885246,
				"y": 0.7045577537,
				"z": -2.5022064944,
				"element": "C" 
			},
			{
				"x": -3.1005096025,
				"y": 1.4901651558,
				"z": -0.2020992974,
				"element": "C" 
			},
			{
				"x": -1.5987884054,
				"y": 1.3719847723,
				"z": 0.0898813571,
				"element": "C" 
			},
			{
				"x": -1.2368869552,
				"y": 0.0363034113,
				"z": 0.7488146726,
				"element": "C" 
			},
			{
				"x": 0.2712287227,
				"y": -0.1960249482,
				"z": 0.959040052,
				"element": "C" 
			},
			{
				"x": 0.789799355,
				"y": 0.9222830593,
				"z": 1.7152621185,
				"element": "O" 
			},
			{
				"x": 2.1224627587,
				"y": 1.2277472574,
				"z": 1.2976498206,
				"element": "C" 
			},
			{
				"x": 2.2079872454,
				"y": 0.6812366329,
				"z": -0.1039042712,
				"element": "C" 
			},
			{
				"x": 3.1552921063,
				"y": 0.8907032682,
				"z": -1.0949073588,
				"element": "C" 
			},
			{
				"x": 2.9695527981,
				"y": 0.2625236151,
				"z": -2.3415896817,
				"element": "C" 
			},
			{
				"x": 1.8460282574,
				"y": -0.552212388,
				"z": -2.5689427947,
				"element": "C" 
			},
			{
				"x": 0.9085966833,
				"y": -0.7579721153,
				"z": -1.5559614139,
				"element": "C" 
			},
			{
				"x": 1.1027403228,
				"y": -0.1461447859,
				"z": -0.3185476471,
				"element": "C" 
			},
			{
				"x": 3.9240703358,
				"y": 0.4676270462,
				"z": -3.3922058633,
				"element": "C" 
			},
			{
				"x": 4.6992726551,
				"y": 0.6347312128,
				"z": -4.2434568983,
				"element": "N" 
			},
			{
				"x": 0.5007027179,
				"y": -1.50300989,
				"z": 1.7437486252,
				"element": "C" 
			},
			{
				"x": 0.7704168708,
				"y": -1.4479763149,
				"z": 3.1171298053,
				"element": "C" 
			},
			{
				"x": 0.9372027851,
				"y": -2.6134225187,
				"z": 3.8661125989,
				"element": "C" 
			},
			{
				"x": 0.8254696774,
				"y": -3.8413986501,
				"z": 3.2268188292,
				"element": "C" 
			},
			{
				"x": 0.9864788107,
				"y": -4.9742770619,
				"z": 3.9426148472,
				"element": "F" 
			},
			{
				"x": 0.553552148,
				"y": -3.9346344509,
				"z": 1.8667733445,
				"element": "C" 
			},
			{
				"x": 0.3930016664,
				"y": -2.7597204136,
				"z": 1.1331236304,
				"element": "C" 
			},
			{
				"x": -5.3877944816,
				"y": -0.457052809,
				"z": -1.7196127427,
				"element": "H" 
			},
			{
				"x": -5.5830682638,
				"y": 1.275633994,
				"z": -1.3681663148,
				"element": "H" 
			},
			{
				"x": -5.3598847632,
				"y": 0.1082986914,
				"z": -0.0414489249,
				"element": "H" 
			},
			{
				"x": -2.0754572177,
				"y": 0.7100538652,
				"z": -2.5670750653,
				"element": "H" 
			},
			{
				"x": -3.5331943329,
				"y": -0.10223654,
				"z": -3.1451746459,
				"element": "H" 
			},
			{
				"x": -3.5359944174,
				"y": 1.6636204816,
				"z": -2.9159069119,
				"element": "H" 
			},
			{
				"x": -3.3242584099,
				"y": 2.5126829257,
				"z": -0.5665100635,
				"element": "H" 
			},
			{
				"x": -3.6486511861,
				"y": 1.3710975158,
				"z": 0.7406818045,
				"element": "H" 
			},
			{
				"x": -1.0230587638,
				"y": 1.5070104129,
				"z": -0.8330535405,
				"element": "H" 
			},
			{
				"x": -1.3060768323,
				"y": 2.194751369,
				"z": 0.7501266117,
				"element": "H" 
			},
			{
				"x": -1.6396283974,
				"y": -0.7899210533,
				"z": 0.152738618,
				"element": "H" 
			},
			{
				"x": -1.7203535912,
				"y": -0.0334407298,
				"z": 1.730898795,
				"element": "H" 
			},
			{
				"x": 2.2600241463,
				"y": 2.3129992688,
				"z": 1.3557625573,
				"element": "H" 
			},
			{
				"x": 2.8634437461,
				"y": 0.7519420808,
				"z": 1.9601131455,
				"element": "H" 
			},
			{
				"x": 4.01846118,
				"y": 1.5292557333,
				"z": -0.9355038548,
				"element": "H" 
			},
			{
				"x": 1.7130959714,
				"y": -1.0135815248,
				"z": -3.5416205131,
				"element": "H" 
			},
			{
				"x": 0.0364785767,
				"y": -1.3748797156,
				"z": -1.7494574312,
				"element": "H" 
			},
			{
				"x": 0.8477112715,
				"y": -0.4790019181,
				"z": 3.5966254033,
				"element": "H" 
			},
			{
				"x": 1.1497968202,
				"y": -2.5793872343,
				"z": 4.9293636126,
				"element": "H" 
			},
			{
				"x": 0.4754802509,
				"y": -4.9108990885,
				"z": 1.4006238686,
				"element": "H" 
			},
			{
				"x": 0.1896984276,
				"y": -2.8369369581,
				"z": 0.0701173843,
				"element": "H" 
			}
		],
		 "valence_orbital": [ 
			{
				"type": "occ",
				"energy": -0.27325,
				"method": "rhf"
			},
			{
				"type": "occ",
				"energy": -0.26317,
				"method": "rhf"
			},
			{
				"type": "occ",
				"energy": -0.25764,
				"method": "rhf"
			},
			{
				"type": "occ",
				"energy": -0.24242,
				"method": "rhf"
			},
			{
				"type": "occ",
				"energy": -0.21635,
				"method": "rhf"
			},
			{
				"type": "unocc",
				"energy": -0.05538,
				"method": "rhf"
			},
			{
				"type": "unocc",
				"energy": -0.03263,
				"method": "rhf"
			},
			{
				"type": "unocc",
				"energy": -0.01478,
				"method": "rhf"
			},
			{
				"type": "unocc",
				"energy": -0.00169,
				"method": "rhf"
			},
			{
				"type": "unocc",
				"energy": 0.03452,
				"method": "rhf"
			}
		],
		"cosmo_sigma_profile": { 
			"-0.025": 0.0,
			"-0.024": 0.0,
			"-0.023": 0.0,
			"-0.022": 0.0,
			"-0.021": 0.0,
			"-0.02": 0.0,
			"-0.019": 0.0,
			"-0.018": 0.0,
			"-0.017": 0.0,
			"-0.016": 0.0,
			"-0.015": 0.0,
			"-0.014": 0.0,
			"-0.013": 0.0,
			"-0.012": 0.0,
			"-0.011": 0.0,
			"-0.01": 0.0,
			"-0.009": 0.422102896482,
			"-0.008": 6.20922364574,
			"-0.007": 10.8829910703,
			"-0.006": 15.812213481,
			"-0.005": 16.3050940115,
			"-0.004": 22.6447849659,
			"-0.003": 29.049205381,
			"-0.002": 36.9776824203,
			"-0.001": 48.2452593203,
			"0.0": 48.0732678082,
			"0.001": 36.5494304645,
			"0.002": 25.7338538252,
			"0.003": 17.0784599159,
			"0.004": 22.9687995189,
			"0.005": 11.8713538303,
			"0.006": 5.34901636813,
			"0.007": 5.11750268796,
			"0.008": 4.73749416213,
			"0.009": 5.25753664713,
			"0.01": 4.33463336808,
			"0.011": 4.39128357745,
			"0.012": 3.34249712134,
			"0.013": 2.02563597733,
			"0.014": 0.150025473884,
			"0.015": 0.0,
			"0.016": 0.0,
			"0.017": 0.0,
			"0.018": 0.0,
			"0.019": 0.0,
			"0.02": 0.0,
			"0.021": 0.0,
			"0.022": 0.0,
			"0.023": 0.0,
			"0.024": 0.0,
			"0.025": 0.0
		}
	}
}
