{
	 "smiles": "C1=CC=C(C=C1)C(=C(C1=CC=CC=C1)C1=CC=CC=C1)C1=CC=CC=C1", 
	 "Tm": 497.15, 
	 "num_atms": 46, 
	 "gaussian": { 
		 "optdone": 1, 
		 "sigma_profile": "yes", 
		 "theory": "DFT", 
		 "functional": "B3LYP", 
		 "basiset": "6-31G**", 
		 "properties": { 
			 "R2extent": 8805.8473, 
			 "electric_dipole_moment_norm": 0.000424264068712, 
			 "electric_quadrupole_moment_norm": 2.87018607759, 
			 "total_energy": -1002.815338, 
			 "HOMO_LUMO_gap": 0.15081, 
			 "cosmo_polarized_energy": -8.55, 
			 "cosmo_cavitation_energy": 48.97, 
			 "cosmo_dispersion_energy": -31.5, 
			 "cosmo_repulsion_energy": 2.45, 
			 "cosmo_total_nonelectrostatic_energy": 19.91, 
			 "SMD_solvation_energy": 8.0 
		},
		"coords": [
			{
				"x": -2.5375882213,
				"y": 3.8198825559,
				"z": 1.8438619166,
				"element": "C" 
			},
			{
				"x": -1.5888638534,
				"y": 3.7380709981,
				"z": 0.8226020876,
				"element": "C" 
			},
			{
				"x": -0.9494871374,
				"y": 2.5290126619,
				"z": 0.5523266882,
				"element": "C" 
			},
			{
				"x": -1.243451781,
				"y": 1.3745964257,
				"z": 1.2980149437,
				"element": "C" 
			},
			{
				"x": -2.1845343934,
				"y": 1.4780369049,
				"z": 2.3379645598,
				"element": "C" 
			},
			{
				"x": -2.8329999737,
				"y": 2.6838110465,
				"z": 2.600560662,
				"element": "C" 
			},
			{
				"x": -0.5356838161,
				"y": 0.082731615,
				"z": 1.0415659382,
				"element": "C" 
			},
			{
				"x": -0.4059066759,
				"y": -0.4522668734,
				"z": -0.2091834313,
				"element": "C" 
			},
			{
				"x": 0.5130963165,
				"y": -1.5932962627,
				"z": -0.507760484,
				"element": "C" 
			},
			{
				"x": 1.8558856697,
				"y": -1.5771432903,
				"z": -0.0933022065,
				"element": "C" 
			},
			{
				"x": 2.7149472641,
				"y": -2.6292349016,
				"z": -0.4076548891,
				"element": "C" 
			},
			{
				"x": 2.2503828755,
				"y": -3.7219480918,
				"z": -1.1424231313,
				"element": "C" 
			},
			{
				"x": 0.9211343429,
				"y": -3.7478422114,
				"z": -1.5701720796,
				"element": "C" 
			},
			{
				"x": 0.0657220246,
				"y": -2.6899426932,
				"z": -1.26607644,
				"element": "C" 
			},
			{
				"x": -1.1713672799,
				"y": 0.0563783848,
				"z": -1.3885800165,
				"element": "C" 
			},
			{
				"x": -2.5631015049,
				"y": 0.2430136494,
				"z": -1.3306791887,
				"element": "C" 
			},
			{
				"x": -3.2734863255,
				"y": 0.6832121312,
				"z": -2.4466001105,
				"element": "C" 
			},
			{
				"x": -2.6080995893,
				"y": 0.9479984146,
				"z": -3.6453022566,
				"element": "C" 
			},
			{
				"x": -1.2266529705,
				"y": 0.7574314851,
				"z": -3.7215574698,
				"element": "C" 
			},
			{
				"x": -0.5185032457,
				"y": 0.3055942176,
				"z": -2.6090249763,
				"element": "C" 
			},
			{
				"x": 0.0187643448,
				"y": -0.5773392447,
				"z": 2.2632805269,
				"element": "C" 
			},
			{
				"x": 0.7561201712,
				"y": 0.1651136821,
				"z": 3.2028972337,
				"element": "C" 
			},
			{
				"x": 1.2574486847,
				"y": -0.4354007755,
				"z": 4.3567602008,
				"element": "C" 
			},
			{
				"x": 1.0126600898,
				"y": -1.7871464645,
				"z": 4.6085785005,
				"element": "C" 
			},
			{
				"x": 0.2630432229,
				"y": -2.5317633116,
				"z": 3.6957081618,
				"element": "C" 
			},
			{
				"x": -0.2278090339,
				"y": -1.9338034744,
				"z": 2.5358709261,
				"element": "C" 
			},
			{
				"x": -3.0367799503,
				"y": 4.7617456108,
				"z": 2.0530234138,
				"element": "H" 
			},
			{
				"x": -1.3419339349,
				"y": 4.618868239,
				"z": 0.2363810095,
				"element": "H" 
			},
			{
				"x": -0.2128076556,
				"y": 2.4727219229,
				"z": -0.242377497,
				"element": "H" 
			},
			{
				"x": -2.4089812564,
				"y": 0.6019073144,
				"z": 2.9391257714,
				"element": "H" 
			},
			{
				"x": -3.5662797563,
				"y": 2.7373757456,
				"z": 3.4005513794,
				"element": "H" 
			},
			{
				"x": 2.223697653,
				"y": -0.7308125436,
				"z": 0.4775568786,
				"element": "H" 
			},
			{
				"x": 3.7505332357,
				"y": -2.5927928409,
				"z": -0.081055925,
				"element": "H" 
			},
			{
				"x": 2.9196272378,
				"y": -4.542293242,
				"z": -1.3857188702,
				"element": "H" 
			},
			{
				"x": 0.5503628472,
				"y": -4.5911621147,
				"z": -2.1462752881,
				"element": "H" 
			},
			{
				"x": -0.9629904841,
				"y": -2.7101389956,
				"z": -1.6135508857,
				"element": "H" 
			},
			{
				"x": -3.0865981152,
				"y": 0.0385693815,
				"z": -0.4024665902,
				"element": "H" 
			},
			{
				"x": -4.3498185707,
				"y": 0.815558439,
				"z": -2.3800666474,
				"element": "H" 
			},
			{
				"x": -3.1617607027,
				"y": 1.2925895612,
				"z": -4.5140748524,
				"element": "H" 
			},
			{
				"x": -0.6995706811,
				"y": 0.9561152542,
				"z": -4.650676496,
				"element": "H" 
			},
			{
				"x": 0.5534738302,
				"y": 0.1464254676,
				"z": -2.6791568875,
				"element": "H" 
			},
			{
				"x": 0.9385420637,
				"y": 1.2199510971,
				"z": 3.0200306538,
				"element": "H" 
			},
			{
				"x": 1.8357781621,
				"y": 0.1544151047,
				"z": 5.0625985186,
				"element": "H" 
			},
			{
				"x": 1.3963799355,
				"y": -2.2538472874,
				"z": 5.5113509009,
				"element": "H" 
			},
			{
				"x": 0.0556435091,
				"y": -3.5807554832,
				"z": 3.8881504472,
				"element": "H" 
			},
			{
				"x": -0.8100865716,
				"y": -2.5181972084,
				"z": 1.8309753009,
				"element": "H" 
			}
		],
		 "valence_orbital": [ 
			{
				"type": "occ",
				"energy": -0.24926,
				"method": "rhf"
			},
			{
				"type": "occ",
				"energy": -0.24125,
				"method": "rhf"
			},
			{
				"type": "occ",
				"energy": -0.24111,
				"method": "rhf"
			},
			{
				"type": "occ",
				"energy": -0.23735,
				"method": "rhf"
			},
			{
				"type": "occ",
				"energy": -0.19562,
				"method": "rhf"
			},
			{
				"type": "unocc",
				"energy": -0.04481,
				"method": "rhf"
			},
			{
				"type": "unocc",
				"energy": -0.00937,
				"method": "rhf"
			},
			{
				"type": "unocc",
				"energy": -0.0089,
				"method": "rhf"
			},
			{
				"type": "unocc",
				"energy": 0.00092,
				"method": "rhf"
			},
			{
				"type": "unocc",
				"energy": 0.00622,
				"method": "rhf"
			}
		],
		"cosmo_sigma_profile": { 
			"-0.025": 0.0,
			"-0.024": 0.0,
			"-0.023": 0.0,
			"-0.022": 0.0,
			"-0.021": 0.0,
			"-0.02": 0.0,
			"-0.019": 0.0,
			"-0.018": 0.0,
			"-0.017": 0.0,
			"-0.016": 0.0,
			"-0.015": 0.0,
			"-0.014": 0.0,
			"-0.013": 0.0,
			"-0.012": 0.0,
			"-0.011": 0.0,
			"-0.01": 0.0,
			"-0.009": 0.0,
			"-0.008": 0.0,
			"-0.007": 0.0,
			"-0.006": 9.57490913082,
			"-0.005": 32.1837896413,
			"-0.004": 38.9168114737,
			"-0.003": 42.8322302429,
			"-0.002": 30.1952735997,
			"-0.001": 33.3648755437,
			"0.0": 33.2287909217,
			"0.001": 30.777193827,
			"0.002": 26.6945923573,
			"0.003": 28.1078758379,
			"0.004": 29.1479307505,
			"0.005": 31.0035113895,
			"0.006": 25.1956291158,
			"0.007": 0.824187514015,
			"0.008": 0.0,
			"0.009": 0.0,
			"0.01": 0.0,
			"0.011": 0.0,
			"0.012": 0.0,
			"0.013": 0.0,
			"0.014": 0.0,
			"0.015": 0.0,
			"0.016": 0.0,
			"0.017": 0.0,
			"0.018": 0.0,
			"0.019": 0.0,
			"0.02": 0.0,
			"0.021": 0.0,
			"0.022": 0.0,
			"0.023": 0.0,
			"0.024": 0.0,
			"0.025": 0.0
		}
	}
}
