{
	 "smiles": "CC1=C(C=CC(N)=C1)C(=O)OC(C)(C)C", 
	 "Tm": 343.15, 
	 "num_atms": 32, 
	 "gaussian": { 
		 "optdone": 1, 
		 "sigma_profile": "yes", 
		 "theory": "DFT", 
		 "functional": "B3LYP", 
		 "basiset": "6-31G**", 
		 "properties": { 
			 "R2extent": 4425.9182, 
			 "electric_dipole_moment_norm": 3.13831765441, 
			 "electric_quadrupole_moment_norm": 14.8297550644, 
			 "total_energy": -672.765902682, 
			 "HOMO_LUMO_gap": 0.1839, 
			 "cosmo_polarized_energy": -11.69, 
			 "cosmo_cavitation_energy": 33.97, 
			 "cosmo_dispersion_energy": -24.09, 
			 "cosmo_repulsion_energy": 1.89, 
			 "cosmo_total_nonelectrostatic_energy": 11.77, 
			 "SMD_solvation_energy": 6.65 
		},
		"coords": [
			{
				"x": 2.7416532916,
				"y": 1.0353481833,
				"z": 1.8958885547,
				"element": "C" 
			},
			{
				"x": 1.7290374456,
				"y": 1.3583543613,
				"z": 0.8221655023,
				"element": "C" 
			},
			{
				"x": 0.527097669,
				"y": 0.6255905059,
				"z": 0.6311173108,
				"element": "C" 
			},
			{
				"x": -0.3446334242,
				"y": 1.0148322891,
				"z": -0.4027612485,
				"element": "C" 
			},
			{
				"x": -0.0663776419,
				"y": 2.0849310463,
				"z": -1.2361937431,
				"element": "C" 
			},
			{
				"x": 1.1200639025,
				"y": 2.8178999104,
				"z": -1.0576188287,
				"element": "C" 
			},
			{
				"x": 1.3992032285,
				"y": 3.9244443582,
				"z": -1.8449575454,
				"element": "N" 
			},
			{
				"x": 1.9940606018,
				"y": 2.4333402748,
				"z": -0.0262588672,
				"element": "C" 
			},
			{
				"x": 0.182157061,
				"y": -0.5327477724,
				"z": 1.4951439794,
				"element": "C" 
			},
			{
				"x": 0.8731075601,
				"y": -0.9495047907,
				"z": 2.4123686704,
				"element": "O" 
			},
			{
				"x": -1.0070553535,
				"y": -1.083662284,
				"z": 1.1437069706,
				"element": "O" 
			},
			{
				"x": -1.5622493419,
				"y": -2.2434787317,
				"z": 1.854614637,
				"element": "C" 
			},
			{
				"x": -2.8798544753,
				"y": -2.4898345668,
				"z": 1.1133632531,
				"element": "C" 
			},
			{
				"x": -0.6283606246,
				"y": -3.45086642,
				"z": 1.7094551419,
				"element": "C" 
			},
			{
				"x": -1.82794319,
				"y": -1.8879876401,
				"z": 3.3222735763,
				"element": "C" 
			},
			{
				"x": 3.5801059351,
				"y": 1.736279767,
				"z": 1.8472684442,
				"element": "H" 
			},
			{
				"x": 3.1239291613,
				"y": 0.0165334473,
				"z": 1.7929131392,
				"element": "H" 
			},
			{
				"x": 2.2963182807,
				"y": 1.0835170815,
				"z": 2.8928422196,
				"element": "H" 
			},
			{
				"x": -1.2590859816,
				"y": 0.4525479523,
				"z": -0.546116406,
				"element": "H" 
			},
			{
				"x": -0.7625617278,
				"y": 2.3624551589,
				"z": -2.023505281,
				"element": "H" 
			},
			{
				"x": 0.9306636462,
				"y": 3.9694049369,
				"z": -2.7381282984,
				"element": "H" 
			},
			{
				"x": 2.3655533354,
				"y": 4.2138938857,
				"z": -1.8871647685,
				"element": "H" 
			},
			{
				"x": 2.9117433394,
				"y": 2.9993323029,
				"z": 0.1182541686,
				"element": "H" 
			},
			{
				"x": -2.6940526456,
				"y": -2.7019930729,
				"z": 0.0562975504,
				"element": "H" 
			},
			{
				"x": -3.5299171847,
				"y": -1.6124288716,
				"z": 1.1800531197,
				"element": "H" 
			},
			{
				"x": -3.405237196,
				"y": -3.3441716587,
				"z": 1.5508938367,
				"element": "H" 
			},
			{
				"x": -1.1103924812,
				"y": -4.3396208449,
				"z": 2.1301950625,
				"element": "H" 
			},
			{
				"x": 0.3151210435,
				"y": -3.2821577456,
				"z": 2.2282951211,
				"element": "H" 
			},
			{
				"x": -0.4221928568,
				"y": -3.6453306691,
				"z": 0.6520889041,
				"element": "H" 
			},
			{
				"x": -2.4559113902,
				"y": -0.9937456494,
				"z": 3.3875838636,
				"element": "H" 
			},
			{
				"x": -2.3598585486,
				"y": -2.7125185519,
				"z": 3.8085430591,
				"element": "H" 
			},
			{
				"x": -0.8960314376,
				"y": -1.705156192,
				"z": 3.8569789015,
				"element": "H" 
			}
		],
		 "valence_orbital": [ 
			{
				"type": "occ",
				"energy": -0.30169,
				"method": "rhf"
			},
			{
				"type": "occ",
				"energy": -0.28064,
				"method": "rhf"
			},
			{
				"type": "occ",
				"energy": -0.24735,
				"method": "rhf"
			},
			{
				"type": "occ",
				"energy": -0.24105,
				"method": "rhf"
			},
			{
				"type": "occ",
				"energy": -0.20643,
				"method": "rhf"
			},
			{
				"type": "unocc",
				"energy": -0.02253,
				"method": "rhf"
			},
			{
				"type": "unocc",
				"energy": 0.00632,
				"method": "rhf"
			},
			{
				"type": "unocc",
				"energy": 0.06906,
				"method": "rhf"
			},
			{
				"type": "unocc",
				"energy": 0.08259,
				"method": "rhf"
			},
			{
				"type": "unocc",
				"energy": 0.09043,
				"method": "rhf"
			}
		],
		"cosmo_sigma_profile": { 
			"-0.025": 0.0,
			"-0.024": 0.0,
			"-0.023": 0.0,
			"-0.022": 0.0,
			"-0.021": 0.0,
			"-0.02": 0.0,
			"-0.019": 0.0,
			"-0.018": 0.0,
			"-0.017": 0.0,
			"-0.016": 0.0,
			"-0.015": 0.0,
			"-0.014": 0.0141116120898,
			"-0.013": 1.54940005566,
			"-0.012": 2.82916409259,
			"-0.011": 2.91204116427,
			"-0.01": 3.35996439829,
			"-0.009": 2.67075473807,
			"-0.008": 2.85069383095,
			"-0.007": 3.43515266276,
			"-0.006": 3.73721569692,
			"-0.005": 5.61495821522,
			"-0.004": 15.6670213721,
			"-0.003": 24.3355890367,
			"-0.002": 22.8690001051,
			"-0.001": 23.8544486096,
			"0.0": 33.7851421974,
			"0.001": 32.9524020506,
			"0.002": 14.1136002413,
			"0.003": 14.0645478348,
			"0.004": 14.1182924931,
			"0.005": 17.7205230965,
			"0.006": 8.44921125807,
			"0.007": 2.53803896389,
			"0.008": 2.30122706472,
			"0.009": 2.35741002244,
			"0.01": 2.28367886077,
			"0.011": 2.24086321981,
			"0.012": 2.09680475248,
			"0.013": 1.31924245186,
			"0.014": 0.0150185830455,
			"0.015": 0.0,
			"0.016": 0.0,
			"0.017": 0.0,
			"0.018": 0.0,
			"0.019": 0.0,
			"0.02": 0.0,
			"0.021": 0.0,
			"0.022": 0.0,
			"0.023": 0.0,
			"0.024": 0.0,
			"0.025": 0.0
		}
	}
}
