{
	 "smiles": "COC1=CC=C(C=C1)C1NN2C(S1)=NN=C2C1=CC=C(OC)C=C1", 
	 "Tm": 425.15, 
	 "num_atms": 40, 
	 "gaussian": { 
		 "optdone": 1, 
		 "sigma_profile": "yes", 
		 "theory": "DFT", 
		 "functional": "B3LYP", 
		 "basiset": "6-31G**", 
		 "properties": { 
			 "R2extent": 11119.7711, 
			 "electric_dipole_moment_norm": 7.74970592023, 
			 "electric_quadrupole_moment_norm": 22.6181620882, 
			 "total_energy": -1424.99954177, 
			 "HOMO_LUMO_gap": 0.16952, 
			 "cosmo_polarized_energy": -25.59, 
			 "cosmo_cavitation_energy": 45.72, 
			 "cosmo_dispersion_energy": -32.77, 
			 "cosmo_repulsion_energy": 2.42, 
			 "cosmo_total_nonelectrostatic_energy": 15.36, 
			 "SMD_solvation_energy": 6.49 
		},
		"coords": [
			{
				"x": -0.6762324107,
				"y": -0.75242694,
				"z": -5.1818611156,
				"element": "C" 
			},
			{
				"x": -1.3026787042,
				"y": 0.4926266726,
				"z": -4.9102738018,
				"element": "O" 
			},
			{
				"x": -1.1865433533,
				"y": 1.0138753356,
				"z": -3.6576489478,
				"element": "C" 
			},
			{
				"x": -1.8504873381,
				"y": 2.2335624214,
				"z": -3.4421744084,
				"element": "C" 
			},
			{
				"x": -1.7981738662,
				"y": 2.8421328678,
				"z": -2.1990164291,
				"element": "C" 
			},
			{
				"x": -1.081284353,
				"y": 2.264160444,
				"z": -1.1373836069,
				"element": "C" 
			},
			{
				"x": -0.4165961597,
				"y": 1.0586808647,
				"z": -1.3643219335,
				"element": "C" 
			},
			{
				"x": -0.4672249431,
				"y": 0.4283791432,
				"z": -2.6114262214,
				"element": "C" 
			},
			{
				"x": -1.0287563399,
				"y": 2.9748250282,
				"z": 0.1934706941,
				"element": "C" 
			},
			{
				"x": -0.1933803014,
				"y": 2.3020250297,
				"z": 1.1918184851,
				"element": "N" 
			},
			{
				"x": -1.0406648674,
				"y": 1.3816689022,
				"z": 1.8399346293,
				"element": "N" 
			},
			{
				"x": -2.3853655825,
				"y": 1.6510154378,
				"z": 1.8681138124,
				"element": "C" 
			},
			{
				"x": -2.7764813839,
				"y": 3.12817989,
				"z": 0.9976482047,
				"element": "S" 
			},
			{
				"x": -3.0343090394,
				"y": 0.7202101403,
				"z": 2.5149840129,
				"element": "N" 
			},
			{
				"x": -2.0762697653,
				"y": -0.1897164143,
				"z": 2.9431424547,
				"element": "N" 
			},
			{
				"x": -0.8805219678,
				"y": 0.1959044373,
				"z": 2.5270385668,
				"element": "C" 
			},
			{
				"x": 0.3682646229,
				"y": -0.5270314939,
				"z": 2.7654654287,
				"element": "C" 
			},
			{
				"x": 1.6082321247,
				"y": -0.1000628404,
				"z": 2.2731815781,
				"element": "C" 
			},
			{
				"x": 2.7733203572,
				"y": -0.8295083343,
				"z": 2.5230167108,
				"element": "C" 
			},
			{
				"x": 2.7092515947,
				"y": -2.0052994347,
				"z": 3.2784492483,
				"element": "C" 
			},
			{
				"x": 3.778575469,
				"y": -2.7919111946,
				"z": 3.584625239,
				"element": "O" 
			},
			{
				"x": 5.058605661,
				"y": -2.4037651113,
				"z": 3.1105950424,
				"element": "C" 
			},
			{
				"x": 1.4690827054,
				"y": -2.4412379654,
				"z": 3.7769981258,
				"element": "C" 
			},
			{
				"x": 0.3192955392,
				"y": -1.7146925276,
				"z": 3.5246689465,
				"element": "C" 
			},
			{
				"x": -0.9067944783,
				"y": -0.9844102385,
				"z": -6.2225523584,
				"element": "H" 
			},
			{
				"x": 0.4127201447,
				"y": -0.6926832811,
				"z": -5.058290174,
				"element": "H" 
			},
			{
				"x": -1.0676912086,
				"y": -1.5501388458,
				"z": -4.5381365843,
				"element": "H" 
			},
			{
				"x": -2.4026893434,
				"y": 2.6761069206,
				"z": -4.26440359,
				"element": "H" 
			},
			{
				"x": -2.3313452031,
				"y": 3.7773094559,
				"z": -2.0464283048,
				"element": "H" 
			},
			{
				"x": 0.1578413094,
				"y": 0.6004850535,
				"z": -0.5674484123,
				"element": "H" 
			},
			{
				"x": 0.0564733552,
				"y": -0.5098994239,
				"z": -2.7489017711,
				"element": "H" 
			},
			{
				"x": -0.6666309709,
				"y": 3.9992801835,
				"z": 0.0819647271,
				"element": "H" 
			},
			{
				"x": 0.0935578545,
				"y": 2.9863004257,
				"z": 1.8943101079,
				"element": "H" 
			},
			{
				"x": 1.6736497191,
				"y": 0.8071798669,
				"z": 1.682356969,
				"element": "H" 
			},
			{
				"x": 3.7154487634,
				"y": -0.4707967781,
				"z": 2.1260482597,
				"element": "H" 
			},
			{
				"x": 5.091093561,
				"y": -2.3701569325,
				"z": 2.0139682708,
				"element": "H" 
			},
			{
				"x": 5.75516439,
				"y": -3.1640552091,
				"z": 3.4668712859,
				"element": "H" 
			},
			{
				"x": 5.3579094861,
				"y": -1.4254965952,
				"z": 3.5082551056,
				"element": "H" 
			},
			{
				"x": 1.4391305225,
				"y": -3.3555179598,
				"z": 4.3605066078,
				"element": "H" 
			},
			{
				"x": -0.6396955995,
				"y": -2.0479010003,
				"z": 3.9057351461,
				"element": "H" 
			}
		],
		 "valence_orbital": [ 
			{
				"type": "occ",
				"energy": -0.25743,
				"method": "rhf"
			},
			{
				"type": "occ",
				"energy": -0.24818,
				"method": "rhf"
			},
			{
				"type": "occ",
				"energy": -0.24284,
				"method": "rhf"
			},
			{
				"type": "occ",
				"energy": -0.22564,
				"method": "rhf"
			},
			{
				"type": "occ",
				"energy": -0.20296,
				"method": "rhf"
			},
			{
				"type": "unocc",
				"energy": -0.03344,
				"method": "rhf"
			},
			{
				"type": "unocc",
				"energy": -0.02162,
				"method": "rhf"
			},
			{
				"type": "unocc",
				"energy": -0.01049,
				"method": "rhf"
			},
			{
				"type": "unocc",
				"energy": -0.00723,
				"method": "rhf"
			},
			{
				"type": "unocc",
				"energy": 0.01373,
				"method": "rhf"
			}
		],
		"cosmo_sigma_profile": { 
			"-0.025": 0.0,
			"-0.024": 0.0,
			"-0.023": 0.0,
			"-0.022": 0.0,
			"-0.021": 0.0,
			"-0.02": 0.0,
			"-0.019": 0.0,
			"-0.018": 0.0,
			"-0.017": 0.0,
			"-0.016": 0.41103088387,
			"-0.015": 2.2361402784,
			"-0.014": 1.45581752298,
			"-0.013": 1.34354833452,
			"-0.012": 2.24679702748,
			"-0.011": 1.61332810976,
			"-0.01": 4.02591923911,
			"-0.009": 3.88264212971,
			"-0.008": 3.20519636427,
			"-0.007": 5.82383830998,
			"-0.006": 20.6060223612,
			"-0.005": 30.003322744,
			"-0.004": 32.3724521485,
			"-0.003": 32.2016081081,
			"-0.002": 19.8278043998,
			"-0.001": 18.1696830989,
			"0.0": 19.0284379087,
			"0.001": 20.6209887785,
			"0.002": 24.5227268051,
			"0.003": 29.9037910039,
			"0.004": 30.3790089113,
			"0.005": 20.0233376144,
			"0.006": 8.53149156617,
			"0.007": 4.83662459125,
			"0.008": 4.16880227035,
			"0.009": 5.01852597805,
			"0.01": 4.53394552192,
			"0.011": 3.07702855704,
			"0.012": 2.46653529726,
			"0.013": 3.7056059821,
			"0.014": 3.12275741919,
			"0.015": 2.6673766109,
			"0.016": 1.5906726776,
			"0.017": 0.307944731673,
			"0.018": 0.0,
			"0.019": 0.0,
			"0.02": 0.0,
			"0.021": 0.0,
			"0.022": 0.0,
			"0.023": 0.0,
			"0.024": 0.0,
			"0.025": 0.0
		}
	}
}
