{
	 "smiles": "CC1=CC=C2N=C(N)SC2=C1", 
	 "Tm": 414.15, 
	 "num_atms": 19, 
	 "gaussian": { 
		 "optdone": 1, 
		 "sigma_profile": "yes", 
		 "theory": "DFT", 
		 "functional": "B3LYP", 
		 "basiset": "6-31G**", 
		 "properties": { 
			 "R2extent": 2220.5131, 
			 "electric_dipole_moment_norm": 1.61975613597, 
			 "electric_quadrupole_moment_norm": 13.7160922719, 
			 "total_energy": -817.38293639, 
			 "HOMO_LUMO_gap": 0.19626, 
			 "cosmo_polarized_energy": -10.66, 
			 "cosmo_cavitation_energy": 24.39, 
			 "cosmo_dispersion_energy": -18.92, 
			 "cosmo_repulsion_energy": 1.47, 
			 "cosmo_total_nonelectrostatic_energy": 6.94, 
			 "SMD_solvation_energy": 1.98 
		},
		"coords": [
			{
				"x": -1.0106719529,
				"y": 0.9464654867,
				"z": 3.408067477,
				"element": "C" 
			},
			{
				"x": -0.6094944576,
				"y": 0.6378464005,
				"z": 1.9837233309,
				"element": "C" 
			},
			{
				"x": -1.1146696141,
				"y": 1.410131783,
				"z": 0.9190013206,
				"element": "C" 
			},
			{
				"x": -0.7740313034,
				"y": 1.1529771683,
				"z": -0.4042755258,
				"element": "C" 
			},
			{
				"x": 0.0969707229,
				"y": 0.0955160013,
				"z": -0.6971704028,
				"element": "C" 
			},
			{
				"x": 0.5311187016,
				"y": -0.2630058726,
				"z": -1.9660832643,
				"element": "N" 
			},
			{
				"x": 1.330785511,
				"y": -1.2788455785,
				"z": -1.9058616577,
				"element": "C" 
			},
			{
				"x": 1.8694302494,
				"y": -1.9028704625,
				"z": -3.0034239216,
				"element": "N" 
			},
			{
				"x": 1.6592533438,
				"y": -1.9348952274,
				"z": -0.2724302739,
				"element": "S" 
			},
			{
				"x": 0.6020823476,
				"y": -0.6793812795,
				"z": 0.3725972306,
				"element": "C" 
			},
			{
				"x": 0.2616979558,
				"y": -0.4188803543,
				"z": 1.6987988894,
				"element": "C" 
			},
			{
				"x": -2.0873288018,
				"y": 0.8045790655,
				"z": 3.5603906529,
				"element": "H" 
			},
			{
				"x": -0.7838564337,
				"y": 1.9859263583,
				"z": 3.6716320101,
				"element": "H" 
			},
			{
				"x": -0.4882185867,
				"y": 0.3011742387,
				"z": 4.1198614574,
				"element": "H" 
			},
			{
				"x": -1.7909165661,
				"y": 2.2319199485,
				"z": 1.1414183047,
				"element": "H" 
			},
			{
				"x": -1.1681526281,
				"y": 1.7554378193,
				"z": -1.216275329,
				"element": "H" 
			},
			{
				"x": 2.761364738,
				"y": -2.3609506498,
				"z": -2.8854867424,
				"element": "H" 
			},
			{
				"x": 1.7844235584,
				"y": -1.3620052983,
				"z": -3.8540137292,
				"element": "H" 
			},
			{
				"x": 0.6625132158,
				"y": -1.0258395472,
				"z": 2.5055301732,
				"element": "H" 
			}
		],
		 "valence_orbital": [ 
			{
				"type": "occ",
				"energy": -0.29375,
				"method": "rhf"
			},
			{
				"type": "occ",
				"energy": -0.28648,
				"method": "rhf"
			},
			{
				"type": "occ",
				"energy": -0.27157,
				"method": "rhf"
			},
			{
				"type": "occ",
				"energy": -0.22678,
				"method": "rhf"
			},
			{
				"type": "occ",
				"energy": -0.20502,
				"method": "rhf"
			},
			{
				"type": "unocc",
				"energy": -0.00876,
				"method": "rhf"
			},
			{
				"type": "unocc",
				"energy": 0.00239,
				"method": "rhf"
			},
			{
				"type": "unocc",
				"energy": 0.00597,
				"method": "rhf"
			},
			{
				"type": "unocc",
				"energy": 0.05022,
				"method": "rhf"
			},
			{
				"type": "unocc",
				"energy": 0.07057,
				"method": "rhf"
			}
		],
		"cosmo_sigma_profile": { 
			"-0.025": 0.0,
			"-0.024": 0.0,
			"-0.023": 0.0,
			"-0.022": 0.0,
			"-0.021": 0.0,
			"-0.02": 0.0,
			"-0.019": 0.0,
			"-0.018": 0.0,
			"-0.017": 0.0,
			"-0.016": 0.0,
			"-0.015": 0.66894283258,
			"-0.014": 2.29639193753,
			"-0.013": 2.9291810963,
			"-0.012": 2.23760224991,
			"-0.011": 2.68658502421,
			"-0.01": 2.31253093465,
			"-0.009": 1.80955688193,
			"-0.008": 1.44079770582,
			"-0.007": 2.52792395961,
			"-0.006": 5.47173166233,
			"-0.005": 8.27811480365,
			"-0.004": 11.8896519299,
			"-0.003": 14.4213856317,
			"-0.002": 13.0618322891,
			"-0.001": 14.1000720425,
			"0.0": 16.1216343551,
			"0.001": 13.7212125333,
			"0.002": 13.7877593301,
			"0.003": 14.4636732116,
			"0.004": 16.0755759034,
			"0.005": 15.7223108139,
			"0.006": 7.34594442003,
			"0.007": 2.48656890498,
			"0.008": 2.26724656457,
			"0.009": 1.09234158396,
			"0.01": 1.88541781025,
			"0.011": 1.60903534194,
			"0.012": 1.40616861195,
			"0.013": 0.769573372889,
			"0.014": 0.71310882426,
			"0.015": 0.886732769608,
			"0.016": 0.126935674513,
			"0.017": 0.0,
			"0.018": 0.0,
			"0.019": 0.0,
			"0.02": 0.0,
			"0.021": 0.0,
			"0.022": 0.0,
			"0.023": 0.0,
			"0.024": 0.0,
			"0.025": 0.0
		}
	}
}
