{
	 "smiles": "ON=CC(=O)NC1=CC2=C(OCCO2)C=C1", 
	 "Tm": 404.15, 
	 "num_atms": 26, 
	 "gaussian": { 
		 "optdone": 1, 
		 "sigma_profile": "yes", 
		 "theory": "DFT", 
		 "functional": "B3LYP", 
		 "basiset": "6-31G**", 
		 "properties": { 
			 "R2extent": 4497.0799, 
			 "electric_dipole_moment_norm": 5.11648614383, 
			 "electric_quadrupole_moment_norm": 15.658014742, 
			 "total_energy": -797.402081187, 
			 "HOMO_LUMO_gap": 0.17426, 
			 "cosmo_polarized_energy": -18.21, 
			 "cosmo_cavitation_energy": 30.64, 
			 "cosmo_dispersion_energy": -22.16, 
			 "cosmo_repulsion_energy": 1.77, 
			 "cosmo_total_nonelectrostatic_energy": 10.25, 
			 "SMD_solvation_energy": 6.28 
		},
		"coords": [
			{
				"x": 0.7621539679,
				"y": -4.0508380046,
				"z": -0.1928791153,
				"element": "O" 
			},
			{
				"x": 0.6717800241,
				"y": -4.0346773673,
				"z": 1.1994177064,
				"element": "N" 
			},
			{
				"x": -0.4881349963,
				"y": -3.6907341584,
				"z": 1.6145745243,
				"element": "C" 
			},
			{
				"x": -1.7519803118,
				"y": -3.4678650307,
				"z": 0.8218572069,
				"element": "C" 
			},
			{
				"x": -2.7306648419,
				"y": -4.1546682483,
				"z": 1.0892194545,
				"element": "O" 
			},
			{
				"x": -1.7845425659,
				"y": -2.5178639832,
				"z": -0.1648851862,
				"element": "N" 
			},
			{
				"x": -0.8297312988,
				"y": -1.5301712236,
				"z": -0.5161691109,
				"element": "C" 
			},
			{
				"x": -0.1776543328,
				"y": -0.7740617278,
				"z": 0.4612767918,
				"element": "C" 
			},
			{
				"x": 0.7452907552,
				"y": 0.2030071872,
				"z": 0.0898409658,
				"element": "C" 
			},
			{
				"x": 0.999009777,
				"y": 0.4554001065,
				"z": -1.2689624097,
				"element": "C" 
			},
			{
				"x": 1.8973012684,
				"y": 1.4126538199,
				"z": -1.6757834041,
				"element": "O" 
			},
			{
				"x": 2.7763920438,
				"y": 1.8508935783,
				"z": -0.6400157922,
				"element": "C" 
			},
			{
				"x": 1.9920444753,
				"y": 2.1156955329,
				"z": 0.6350654804,
				"element": "C" 
			},
			{
				"x": 1.3662488613,
				"y": 0.9138746161,
				"z": 1.086742155,
				"element": "O" 
			},
			{
				"x": 0.3130158325,
				"y": -0.2742399414,
				"z": -2.2402391579,
				"element": "C" 
			},
			{
				"x": -0.5916099618,
				"y": -1.264871306,
				"z": -1.8715556887,
				"element": "C" 
			},
			{
				"x": 1.6835046067,
				"y": -4.304403627,
				"z": -0.3382342281,
				"element": "H" 
			},
			{
				"x": -0.6146242399,
				"y": -3.7257390032,
				"z": 2.6938251923,
				"element": "H" 
			},
			{
				"x": -2.6472218641,
				"y": -2.5437493286,
				"z": -0.6954589832,
				"element": "H" 
			},
			{
				"x": -0.3816661877,
				"y": -0.9142908028,
				"z": 1.5161654282,
				"element": "H" 
			},
			{
				"x": 3.5450234712,
				"y": 1.0882479143,
				"z": -0.4532794182,
				"element": "H" 
			},
			{
				"x": 3.2587424359,
				"y": 2.7606823565,
				"z": -1.0061788706,
				"element": "H" 
			},
			{
				"x": 2.6477678245,
				"y": 2.4460511452,
				"z": 1.444504405,
				"element": "H" 
			},
			{
				"x": 1.2314769552,
				"y": 2.8870788065,
				"z": 0.4524925797,
				"element": "H" 
			},
			{
				"x": 0.5180541559,
				"y": -0.0614748607,
				"z": -3.2843280472,
				"element": "H" 
			},
			{
				"x": -1.097975854,
				"y": -1.8514364496,
				"z": -2.6315124779,
				"element": "H" 
			}
		],
		 "valence_orbital": [ 
			{
				"type": "occ",
				"energy": -0.27624,
				"method": "rhf"
			},
			{
				"type": "occ",
				"energy": -0.27055,
				"method": "rhf"
			},
			{
				"type": "occ",
				"energy": -0.24661,
				"method": "rhf"
			},
			{
				"type": "occ",
				"energy": -0.23776,
				"method": "rhf"
			},
			{
				"type": "occ",
				"energy": -0.20862,
				"method": "rhf"
			},
			{
				"type": "unocc",
				"energy": -0.03436,
				"method": "rhf"
			},
			{
				"type": "unocc",
				"energy": -0.00687,
				"method": "rhf"
			},
			{
				"type": "unocc",
				"energy": 0.00915,
				"method": "rhf"
			},
			{
				"type": "unocc",
				"energy": 0.04907,
				"method": "rhf"
			},
			{
				"type": "unocc",
				"energy": 0.07609,
				"method": "rhf"
			}
		],
		"cosmo_sigma_profile": { 
			"-0.025": 0.0,
			"-0.024": 0.0,
			"-0.023": 0.0,
			"-0.022": 0.0,
			"-0.021": 0.0,
			"-0.02": 0.0,
			"-0.019": 0.0183759390308,
			"-0.018": 0.637553314032,
			"-0.017": 1.27585483563,
			"-0.016": 0.532375723023,
			"-0.015": 1.67366268483,
			"-0.014": 2.09895488442,
			"-0.013": 1.34575012275,
			"-0.012": 1.1942342358,
			"-0.011": 1.77971809273,
			"-0.01": 1.85296615617,
			"-0.009": 3.22662575465,
			"-0.008": 4.83109435573,
			"-0.007": 12.9784975123,
			"-0.006": 20.5029175444,
			"-0.005": 16.9892097256,
			"-0.004": 14.9872519386,
			"-0.003": 11.8798312169,
			"-0.002": 9.62464833446,
			"-0.001": 7.85690700466,
			"0.0": 9.72805397872,
			"0.001": 12.8117893089,
			"0.002": 13.2796435727,
			"0.003": 15.1902178646,
			"0.004": 17.3430174403,
			"0.005": 10.9139703998,
			"0.006": 7.45892446069,
			"0.007": 7.68536623328,
			"0.008": 7.89614715289,
			"0.009": 6.32007461938,
			"0.01": 5.2559609394,
			"0.011": 3.57175289806,
			"0.012": 5.04780451946,
			"0.013": 4.95242479146,
			"0.014": 0.747523248598,
			"0.015": 0.0,
			"0.016": 0.0,
			"0.017": 0.0,
			"0.018": 0.0,
			"0.019": 0.0,
			"0.02": 0.0,
			"0.021": 0.0,
			"0.022": 0.0,
			"0.023": 0.0,
			"0.024": 0.0,
			"0.025": 0.0
		}
	}
}
