{
	 "smiles": "OC(=O)C(CC1=CC=CC=C1)NS(=O)(=O)C1=C(F)C=CC=C1", 
	 "Tm": 532.15, 
	 "num_atms": 36, 
	 "gaussian": { 
		 "optdone": 1, 
		 "sigma_profile": "yes", 
		 "theory": "DFT", 
		 "functional": "B3LYP", 
		 "basiset": "6-31G**", 
		 "properties": { 
			 "R2extent": 6668.9775, 
			 "electric_dipole_moment_norm": 7.86170586387, 
			 "electric_quadrupole_moment_norm": 27.1176825557, 
			 "total_energy": -1433.64387968, 
			 "HOMO_LUMO_gap": 0.20404, 
			 "cosmo_polarized_energy": -22.39, 
			 "cosmo_cavitation_energy": 41.29, 
			 "cosmo_dispersion_energy": -27.35, 
			 "cosmo_repulsion_energy": 2.03, 
			 "cosmo_total_nonelectrostatic_energy": 15.97, 
			 "SMD_solvation_energy": 6.73 
		},
		"coords": [
			{
				"x": 3.2144964051,
				"y": 1.4072152037,
				"z": -3.1138840653,
				"element": "O" 
			},
			{
				"x": 2.3981272386,
				"y": 2.0069318446,
				"z": -2.2370803049,
				"element": "C" 
			},
			{
				"x": 2.149337665,
				"y": 3.1879267968,
				"z": -2.2719887991,
				"element": "O" 
			},
			{
				"x": 1.8684876647,
				"y": 1.1211512665,
				"z": -1.0923958783,
				"element": "C" 
			},
			{
				"x": 2.6730890712,
				"y": 1.4749004157,
				"z": 0.1861647997,
				"element": "C" 
			},
			{
				"x": 2.204702627,
				"y": 0.7487547406,
				"z": 1.4280148933,
				"element": "C" 
			},
			{
				"x": 2.9363283851,
				"y": -0.3261517231,
				"z": 1.9514129928,
				"element": "C" 
			},
			{
				"x": 2.4915247766,
				"y": -1.011739561,
				"z": 3.084670436,
				"element": "C" 
			},
			{
				"x": 1.3088408313,
				"y": -0.62560537,
				"z": 3.71424649,
				"element": "C" 
			},
			{
				"x": 0.5743292733,
				"y": 0.4500561565,
				"z": 3.2067220295,
				"element": "C" 
			},
			{
				"x": 1.0181211998,
				"y": 1.1293980735,
				"z": 2.0730446761,
				"element": "C" 
			},
			{
				"x": 2.0163200982,
				"y": -0.3142821994,
				"z": -1.3969770795,
				"element": "N" 
			},
			{
				"x": 0.7868719653,
				"y": -1.0854162645,
				"z": -2.2770527577,
				"element": "S" 
			},
			{
				"x": 1.2104595631,
				"y": -2.4755601502,
				"z": -2.4066874435,
				"element": "O" 
			},
			{
				"x": 0.5295488049,
				"y": -0.2334368972,
				"z": -3.4372273528,
				"element": "O" 
			},
			{
				"x": -0.6860794913,
				"y": -1.0192434525,
				"z": -1.2508786173,
				"element": "C" 
			},
			{
				"x": -0.7054471815,
				"y": -1.6073331148,
				"z": 0.0150789514,
				"element": "C" 
			},
			{
				"x": 0.4218062063,
				"y": -2.1628433424,
				"z": 0.4999405207,
				"element": "F" 
			},
			{
				"x": -1.8542479934,
				"y": -1.6135596862,
				"z": 0.7928884367,
				"element": "C" 
			},
			{
				"x": -3.0113123405,
				"y": -1.0203158676,
				"z": 0.2838286594,
				"element": "C" 
			},
			{
				"x": -3.0103526794,
				"y": -0.4236088681,
				"z": -0.9794552582,
				"element": "C" 
			},
			{
				"x": -1.8469099072,
				"y": -0.4210697796,
				"z": -1.7487673737,
				"element": "C" 
			},
			{
				"x": 3.2039362468,
				"y": 0.4509615618,
				"z": -2.923013565,
				"element": "H" 
			},
			{
				"x": 0.8199207027,
				"y": 1.3992467791,
				"z": -0.9359648977,
				"element": "H" 
			},
			{
				"x": 2.5830530969,
				"y": 2.5579606364,
				"z": 0.3095333642,
				"element": "H" 
			},
			{
				"x": 3.7314951637,
				"y": 1.2592683514,
				"z": -0.0000282601,
				"element": "H" 
			},
			{
				"x": 3.8714990618,
				"y": -0.6187289777,
				"z": 1.4786945947,
				"element": "H" 
			},
			{
				"x": 3.0734195431,
				"y": -1.8408956529,
				"z": 3.4763078618,
				"element": "H" 
			},
			{
				"x": 0.9647816139,
				"y": -1.151989174,
				"z": 4.5997579777,
				"element": "H" 
			},
			{
				"x": -0.3410198631,
				"y": 0.7649886331,
				"z": 3.6997708356,
				"element": "H" 
			},
			{
				"x": 0.445766727,
				"y": 1.970748203,
				"z": 1.6894970754,
				"element": "H" 
			},
			{
				"x": 2.2470751782,
				"y": -0.8851093431,
				"z": -0.583995875,
				"element": "H" 
			},
			{
				"x": -1.8249731946,
				"y": -2.0742057358,
				"z": 1.7738500534,
				"element": "H" 
			},
			{
				"x": -3.9168779171,
				"y": -1.0229045974,
				"z": 0.8826225463,
				"element": "H" 
			},
			{
				"x": -3.9127042737,
				"y": 0.0380848694,
				"z": -1.3661942764,
				"element": "H" 
			},
			{
				"x": -1.816514268,
				"y": 0.0331062249,
				"z": -2.7330553903,
				"element": "H" 
			}
		],
		 "valence_orbital": [ 
			{
				"type": "occ",
				"energy": -0.28973,
				"method": "rhf"
			},
			{
				"type": "occ",
				"energy": -0.27857,
				"method": "rhf"
			},
			{
				"type": "occ",
				"energy": -0.26892,
				"method": "rhf"
			},
			{
				"type": "occ",
				"energy": -0.2673,
				"method": "rhf"
			},
			{
				"type": "occ",
				"energy": -0.25984,
				"method": "rhf"
			},
			{
				"type": "unocc",
				"energy": -0.0558,
				"method": "rhf"
			},
			{
				"type": "unocc",
				"energy": -0.03341,
				"method": "rhf"
			},
			{
				"type": "unocc",
				"energy": -0.02695,
				"method": "rhf"
			},
			{
				"type": "unocc",
				"energy": -0.02145,
				"method": "rhf"
			},
			{
				"type": "unocc",
				"energy": 0.0154,
				"method": "rhf"
			}
		],
		"cosmo_sigma_profile": { 
			"-0.025": 0.0,
			"-0.024": 0.0,
			"-0.023": 0.0,
			"-0.022": 0.0,
			"-0.021": 0.0,
			"-0.02": 0.0,
			"-0.019": 0.0,
			"-0.018": 0.0,
			"-0.017": 0.0,
			"-0.016": 0.0,
			"-0.015": 0.0148973255831,
			"-0.014": 0.476801792215,
			"-0.013": 0.844675836935,
			"-0.012": 0.556951847837,
			"-0.011": 1.04452297125,
			"-0.01": 1.89774560225,
			"-0.009": 2.98868126756,
			"-0.008": 8.1481678228,
			"-0.007": 16.1941152124,
			"-0.006": 26.0011205578,
			"-0.005": 23.9446442863,
			"-0.004": 22.9803650022,
			"-0.003": 21.5794625581,
			"-0.002": 17.5837428993,
			"-0.001": 19.7265329913,
			"0.0": 20.5215861796,
			"0.001": 22.2602930315,
			"0.002": 24.0552128311,
			"0.003": 16.4852487149,
			"0.004": 13.4057247422,
			"0.005": 11.7858739972,
			"0.006": 7.78567183211,
			"0.007": 5.93301514747,
			"0.008": 7.52377900103,
			"0.009": 9.84076556033,
			"0.01": 12.6082528794,
			"0.011": 7.68290411236,
			"0.012": 4.64067160574,
			"0.013": 1.25554775223,
			"0.014": 0.0,
			"0.015": 0.0,
			"0.016": 0.0,
			"0.017": 0.0,
			"0.018": 0.0,
			"0.019": 0.0,
			"0.02": 0.0,
			"0.021": 0.0,
			"0.022": 0.0,
			"0.023": 0.0,
			"0.024": 0.0,
			"0.025": 0.0
		}
	}
}
