{
	 "smiles": "CC1CN(CC(C)O1)S(=O)(=O)C1=CC(=CC=C1)C(O)=O", 
	 "Tm": 462.15, 
	 "num_atms": 37, 
	 "gaussian": { 
		 "optdone": 1, 
		 "sigma_profile": "yes", 
		 "theory": "DFT", 
		 "functional": "B3LYP", 
		 "basiset": "6-31G**", 
		 "properties": { 
			 "R2extent": 7412.1431, 
			 "electric_dipole_moment_norm": 4.47756940873, 
			 "electric_quadrupole_moment_norm": 30.8448946991, 
			 "total_energy": -1334.61592482, 
			 "HOMO_LUMO_gap": 0.18545, 
			 "cosmo_polarized_energy": -22.54, 
			 "cosmo_cavitation_energy": 40.85, 
			 "cosmo_dispersion_energy": -28.86, 
			 "cosmo_repulsion_energy": 2.2, 
			 "cosmo_total_nonelectrostatic_energy": 14.19, 
			 "SMD_solvation_energy": 6.2 
		},
		"coords": [
			{
				"x": 2.6632375691,
				"y": 2.5270661241,
				"z": 2.975573098,
				"element": "C" 
			},
			{
				"x": 1.5321115801,
				"y": 1.5851724781,
				"z": 2.5857001349,
				"element": "C" 
			},
			{
				"x": 1.3105163426,
				"y": 1.5402983382,
				"z": 1.0735697766,
				"element": "C" 
			},
			{
				"x": 0.237296094,
				"y": 0.5826651729,
				"z": 0.7229879168,
				"element": "N" 
			},
			{
				"x": 0.0470316918,
				"y": -0.5285231938,
				"z": 1.6791813572,
				"element": "C" 
			},
			{
				"x": 1.3841636136,
				"y": -0.8364498614,
				"z": 2.3560073554,
				"element": "C" 
			},
			{
				"x": 1.2733461986,
				"y": -2.0043389683,
				"z": 3.3274896481,
				"element": "C" 
			},
			{
				"x": 1.8624148382,
				"y": 0.2862399499,
				"z": 3.0999468055,
				"element": "O" 
			},
			{
				"x": -1.1778681368,
				"y": 1.1904171919,
				"z": 0.0278583492,
				"element": "S" 
			},
			{
				"x": -2.3028527846,
				"y": 1.0647185256,
				"z": 0.9625780681,
				"element": "O" 
			},
			{
				"x": -0.8297946505,
				"y": 2.4808641019,
				"z": -0.5777273595,
				"element": "O" 
			},
			{
				"x": -1.4759985912,
				"y": 0.0209329398,
				"z": -1.305818089,
				"element": "C" 
			},
			{
				"x": -0.7921066471,
				"y": 0.1876512737,
				"z": -2.5109583731,
				"element": "C" 
			},
			{
				"x": -1.0142673849,
				"y": -0.7134658189,
				"z": -3.5565830994,
				"element": "C" 
			},
			{
				"x": -1.9390653229,
				"y": -1.755806258,
				"z": -3.3846554637,
				"element": "C" 
			},
			{
				"x": -2.6196541883,
				"y": -1.9063585839,
				"z": -2.1806412194,
				"element": "C" 
			},
			{
				"x": -2.3940745111,
				"y": -1.0134300506,
				"z": -1.128670712,
				"element": "C" 
			},
			{
				"x": -0.3379119743,
				"y": -0.6054000686,
				"z": -4.8950781263,
				"element": "C" 
			},
			{
				"x": 0.7705932637,
				"y": 0.1731398322,
				"z": -4.9692396808,
				"element": "O" 
			},
			{
				"x": -0.7415437874,
				"y": -1.1799851539,
				"z": -5.8780839183,
				"element": "O" 
			},
			{
				"x": 3.5905595086,
				"y": 2.2502583908,
				"z": 2.4637170639,
				"element": "H" 
			},
			{
				"x": 2.8394510495,
				"y": 2.4667862272,
				"z": 4.0526568824,
				"element": "H" 
			},
			{
				"x": 2.4139392025,
				"y": 3.5622961769,
				"z": 2.7220764677,
				"element": "H" 
			},
			{
				"x": 0.5969643041,
				"y": 1.9255990249,
				"z": 3.0584738447,
				"element": "H" 
			},
			{
				"x": 2.2390609291,
				"y": 1.2315927106,
				"z": 0.5759823456,
				"element": "H" 
			},
			{
				"x": 1.0428987702,
				"y": 2.5278042611,
				"z": 0.6958061815,
				"element": "H" 
			},
			{
				"x": -0.701927715,
				"y": -0.2788812867,
				"z": 2.4411319328,
				"element": "H" 
			},
			{
				"x": -0.302215591,
				"y": -1.4140967436,
				"z": 1.1360463523,
				"element": "H" 
			},
			{
				"x": 2.1149729259,
				"y": -1.0909244049,
				"z": 1.5706675574,
				"element": "H" 
			},
			{
				"x": 0.5077854378,
				"y": -1.8048736683,
				"z": 4.0835144174,
				"element": "H" 
			},
			{
				"x": 1.0201707745,
				"y": -2.929713801,
				"z": 2.8004723852,
				"element": "H" 
			},
			{
				"x": 2.2282540235,
				"y": -2.1473954959,
				"z": 3.8395530877,
				"element": "H" 
			},
			{
				"x": -0.1411276537,
				"y": 1.0508070063,
				"z": -2.6172280247,
				"element": "H" 
			},
			{
				"x": -2.1113613557,
				"y": -2.4281294907,
				"z": -4.2179616004,
				"element": "H" 
			},
			{
				"x": -3.3371968329,
				"y": -2.7117241606,
				"z": -2.0593053805,
				"element": "H" 
			},
			{
				"x": -2.9356048528,
				"y": -1.0945015441,
				"z": -0.1926240455,
				"element": "H" 
			},
			{
				"x": 1.0547038627,
				"y": 0.4552888275,
				"z": -4.0892159356,
				"element": "H" 
			}
		],
		 "valence_orbital": [ 
			{
				"type": "occ",
				"energy": -0.2961,
				"method": "rhf"
			},
			{
				"type": "occ",
				"energy": -0.29237,
				"method": "rhf"
			},
			{
				"type": "occ",
				"energy": -0.28136,
				"method": "rhf"
			},
			{
				"type": "occ",
				"energy": -0.26461,
				"method": "rhf"
			},
			{
				"type": "occ",
				"energy": -0.2548,
				"method": "rhf"
			},
			{
				"type": "unocc",
				"energy": -0.06935,
				"method": "rhf"
			},
			{
				"type": "unocc",
				"energy": -0.05429,
				"method": "rhf"
			},
			{
				"type": "unocc",
				"energy": 0.0272,
				"method": "rhf"
			},
			{
				"type": "unocc",
				"energy": 0.03814,
				"method": "rhf"
			},
			{
				"type": "unocc",
				"energy": 0.05971,
				"method": "rhf"
			}
		],
		"cosmo_sigma_profile": { 
			"-0.025": 0.0,
			"-0.024": 0.0,
			"-0.023": 0.0,
			"-0.022": 0.0,
			"-0.021": 0.0,
			"-0.02": 0.225136081467,
			"-0.019": 0.97310875768,
			"-0.018": 0.971712060052,
			"-0.017": 1.02461780554,
			"-0.016": 0.800979988228,
			"-0.015": 1.49900975604,
			"-0.014": 0.830514473486,
			"-0.013": 1.06550290559,
			"-0.012": 0.923954226402,
			"-0.011": 0.919962737575,
			"-0.01": 0.648839400622,
			"-0.009": 1.32534771206,
			"-0.008": 3.64277043154,
			"-0.007": 7.97582434028,
			"-0.006": 10.5775341515,
			"-0.005": 19.7638346108,
			"-0.004": 35.1545696399,
			"-0.003": 30.5767982412,
			"-0.002": 28.0996005405,
			"-0.001": 27.0584567325,
			"0.0": 30.2385419955,
			"0.001": 22.5310974398,
			"0.002": 10.6779092094,
			"0.003": 7.63151318727,
			"0.004": 7.02009140651,
			"0.005": 7.11502643058,
			"0.006": 5.88623315432,
			"0.007": 6.41118974851,
			"0.008": 8.18645463596,
			"0.009": 9.26600769877,
			"0.01": 13.1659879401,
			"0.011": 12.703362649,
			"0.012": 6.09373076507,
			"0.013": 1.33547597523,
			"0.014": 0.0,
			"0.015": 0.0,
			"0.016": 0.0,
			"0.017": 0.0,
			"0.018": 0.0,
			"0.019": 0.0,
			"0.02": 0.0,
			"0.021": 0.0,
			"0.022": 0.0,
			"0.023": 0.0,
			"0.024": 0.0,
			"0.0": 0.0
		}
	}
}
