{
	 "smiles": "OC(C1=CC=C(Cl)C=C1)(C1=CC=C(Cl)C=C1)C(Cl)(Cl)Cl", 
	 "Tm": 351.15, 
	 "num_atms": 29, 
	 "gaussian": { 
		 "optdone": 1, 
		 "sigma_profile": "yes", 
		 "theory": "DFT", 
		 "functional": "B3LYP", 
		 "basiset": "6-31G**", 
		 "properties": { 
			 "R2extent": 9231.5274, 
			 "electric_dipole_moment_norm": 1.34059606519, 
			 "electric_quadrupole_moment_norm": 11.8071693661, 
			 "total_energy": -2915.07024672, 
			 "HOMO_LUMO_gap": 0.19317, 
			 "cosmo_polarized_energy": -8.49, 
			 "cosmo_cavitation_energy": 40.31, 
			 "cosmo_dispersion_energy": -28.68, 
			 "cosmo_repulsion_energy": 2.21, 
			 "cosmo_total_nonelectrostatic_energy": 13.84, 
			 "SMD_solvation_energy": 5.4 
		},
		"coords": [
			{
				"x": -1.6946298528,
				"y": 1.0409422965,
				"z": -0.1391539833,
				"element": "O" 
			},
			{
				"x": -0.8200403709,
				"y": -0.0730431007,
				"z": -0.1377992476,
				"element": "C" 
			},
			{
				"x": -0.7716835201,
				"y": -0.6630524915,
				"z": -1.5668570079,
				"element": "C" 
			},
			{
				"x": -0.6936830496,
				"y": 0.2856323461,
				"z": -2.6011687314,
				"element": "C" 
			},
			{
				"x": -0.6189431313,
				"y": -0.0971147427,
				"z": -3.9368106317,
				"element": "C" 
			},
			{
				"x": -0.6203682303,
				"y": -1.4549190699,
				"z": -4.2554491043,
				"element": "C" 
			},
			{
				"x": -0.5288364925,
				"y": -1.9527679703,
				"z": -5.9360383677,
				"element": "Cl" 
			},
			{
				"x": -0.6944825373,
				"y": -2.41722761,
				"z": -3.2533524749,
				"element": "C" 
			},
			{
				"x": -0.7671214096,
				"y": -2.0185646551,
				"z": -1.9163885451,
				"element": "C" 
			},
			{
				"x": 0.5629517589,
				"y": 0.4580172269,
				"z": 0.2690144017,
				"element": "C" 
			},
			{
				"x": 0.676257141,
				"y": 1.6866917016,
				"z": 0.9314680193,
				"element": "C" 
			},
			{
				"x": 1.9245285236,
				"y": 2.1892867404,
				"z": 1.2963146128,
				"element": "C" 
			},
			{
				"x": 3.0698166399,
				"y": 1.4539073535,
				"z": 0.9980598374,
				"element": "C" 
			},
			{
				"x": 4.64582885,
				"y": 2.0802729673,
				"z": 1.4546108563,
				"element": "Cl" 
			},
			{
				"x": 2.9831740965,
				"y": 0.232050919,
				"z": 0.3325887141,
				"element": "C" 
			},
			{
				"x": 1.7300421804,
				"y": -0.2549300467,
				"z": -0.033115994,
				"element": "C" 
			},
			{
				"x": -1.3888796469,
				"y": -1.0620397505,
				"z": 0.9864670385,
				"element": "C" 
			},
			{
				"x": -0.3300229644,
				"y": -2.480222245,
				"z": 1.3207781108,
				"element": "Cl" 
			},
			{
				"x": -3.0281090803,
				"y": -1.6634061674,
				"z": 0.4733421006,
				"element": "Cl" 
			},
			{
				"x": -1.6019009547,
				"y": -0.1769835138,
				"z": 2.5360538237,
				"element": "Cl" 
			},
			{
				"x": -2.5498172773,
				"y": 0.747305862,
				"z": -0.4864926468,
				"element": "H" 
			},
			{
				"x": -0.6939319358,
				"y": 1.3406612339,
				"z": -2.3513655566,
				"element": "H" 
			},
			{
				"x": -0.558856411,
				"y": 0.64839835,
				"z": -4.7218826217,
				"element": "H" 
			},
			{
				"x": -0.6996140116,
				"y": -3.4710215918,
				"z": -3.5084772208,
				"element": "H" 
			},
			{
				"x": -0.8276751969,
				"y": -2.7911125756,
				"z": -1.1627454408,
				"element": "H" 
			},
			{
				"x": -0.2158875212,
				"y": 2.2570405637,
				"z": 1.1554890145,
				"element": "H" 
			},
			{
				"x": 2.006551318,
				"y": 3.1426588928,
				"z": 1.8062231255,
				"element": "H" 
			},
			{
				"x": 3.882266643,
				"y": -0.3252924985,
				"z": 0.0952666047,
				"element": "H" 
			},
			{
				"x": 1.670766443,
				"y": -1.1944684241,
				"z": -0.5705786856,
				"element": "H" 
			}
		],
		 "valence_orbital": [ 
			{
				"type": "occ",
				"energy": -0.30581,
				"method": "rhf"
			},
			{
				"type": "occ",
				"energy": -0.27504,
				"method": "rhf"
			},
			{
				"type": "occ",
				"energy": -0.2686,
				"method": "rhf"
			},
			{
				"type": "occ",
				"energy": -0.2605,
				"method": "rhf"
			},
			{
				"type": "occ",
				"energy": -0.24742,
				"method": "rhf"
			},
			{
				"type": "unocc",
				"energy": -0.05425,
				"method": "rhf"
			},
			{
				"type": "unocc",
				"energy": -0.03254,
				"method": "rhf"
			},
			{
				"type": "unocc",
				"energy": -0.03084,
				"method": "rhf"
			},
			{
				"type": "unocc",
				"energy": -0.02458,
				"method": "rhf"
			},
			{
				"type": "unocc",
				"energy": -0.01677,
				"method": "rhf"
			}
		],
		"cosmo_sigma_profile": { 
			"-0.025": 0.0,
			"-0.024": 0.0,
			"-0.023": 0.0,
			"-0.022": 0.0,
			"-0.021": 0.0,
			"-0.02": 0.0,
			"-0.019": 0.0,
			"-0.018": 0.0,
			"-0.017": 0.0,
			"-0.016": 0.24502497519,
			"-0.015": 0.728680545952,
			"-0.014": 0.422974153702,
			"-0.013": 0.772025149354,
			"-0.012": 0.855917194841,
			"-0.011": 0.413923789822,
			"-0.01": 1.00018742038,
			"-0.009": 0.880257841089,
			"-0.008": 2.65902119948,
			"-0.007": 9.31809588448,
			"-0.006": 13.747042796,
			"-0.005": 13.0390799553,
			"-0.004": 16.2584009831,
			"-0.003": 17.6348249553,
			"-0.002": 22.5447669208,
			"-0.001": 24.1801792517,
			"0.0": 28.036066773,
			"0.001": 37.8594062753,
			"0.002": 47.6648004837,
			"0.003": 53.8480629933,
			"0.004": 26.0688941181,
			"0.005": 10.423719171,
			"0.006": 1.48598837317,
			"0.007": 1.98331776835,
			"0.008": 1.48717037576,
			"0.009": 0.0754955328314,
			"0.01": 0.0,
			"0.011": 0.0,
			"0.012": 0.0,
			"0.013": 0.0,
			"0.014": 0.0,
			"0.015": 0.0,
			"0.016": 0.0,
			"0.017": 0.0,
			"0.018": 0.0,
			"0.019": 0.0,
			"0.02": 0.0,
			"0.021": 0.0,
			"0.022": 0.0,
			"0.023": 0.0,
			"0.024": 0.0,
			"0.025": 0.0
		}
	}
}
