{
	 "smiles": "CCOC(=O)NC1=CC=C(NC(C)C2=NC=CC=C2)C=C1", 
	 "Tm": 419.15, 
	 "num_atms": 40, 
	 "gaussian": { 
		 "optdone": 1, 
		 "sigma_profile": "yes", 
		 "theory": "DFT", 
		 "functional": "B3LYP", 
		 "basiset": "6-31G**", 
		 "properties": { 
			 "R2extent": 8700.0655, 
			 "electric_dipole_moment_norm": 3.02667445557, 
			 "electric_quadrupole_moment_norm": 20.3885018329, 
			 "total_energy": -935.880682931, 
			 "HOMO_LUMO_gap": 0.1593, 
			 "cosmo_polarized_energy": -16.33, 
			 "cosmo_cavitation_energy": 43.3, 
			 "cosmo_dispersion_energy": -30.32, 
			 "cosmo_repulsion_energy": 2.37, 
			 "cosmo_total_nonelectrostatic_energy": 15.34, 
			 "SMD_solvation_energy": 7.26 
		},
		"coords": [
			{
				"x": -3.0873227547,
				"y": -3.9550692571,
				"z": -1.9509858861,
				"element": "C" 
			},
			{
				"x": -1.8314292778,
				"y": -4.1669338331,
				"z": -2.7749544683,
				"element": "C" 
			},
			{
				"x": -0.9208981317,
				"y": -3.0889938292,
				"z": -2.4607059023,
				"element": "O" 
			},
			{
				"x": 0.2598520323,
				"y": -3.134289603,
				"z": -3.1190943708,
				"element": "C" 
			},
			{
				"x": 0.56458558,
				"y": -4.0017604655,
				"z": -3.9206079575,
				"element": "O" 
			},
			{
				"x": 1.1047307198,
				"y": -2.099023985,
				"z": -2.8018091751,
				"element": "N" 
			},
			{
				"x": 1.0159438629,
				"y": -0.986795499,
				"z": -1.9314242261,
				"element": "C" 
			},
			{
				"x": -0.0921594189,
				"y": -0.6668939359,
				"z": -1.1377280386,
				"element": "C" 
			},
			{
				"x": -0.0764286631,
				"y": 0.4577234347,
				"z": -0.312024031,
				"element": "C" 
			},
			{
				"x": 1.0383916962,
				"y": 1.3097747999,
				"z": -0.2502170178,
				"element": "C" 
			},
			{
				"x": 1.1224709308,
				"y": 2.4177063494,
				"z": 0.6084037707,
				"element": "N" 
			},
			{
				"x": -0.0463190984,
				"y": 3.1831589006,
				"z": 1.0642378029,
				"element": "C" 
			},
			{
				"x": -0.9555282884,
				"y": 3.6902914024,
				"z": -0.0668149837,
				"element": "C" 
			},
			{
				"x": -0.8015272956,
				"y": 2.4532809643,
				"z": 2.1828476929,
				"element": "C" 
			},
			{
				"x": -2.1041746994,
				"y": 2.7387347641,
				"z": 2.3190901367,
				"element": "N" 
			},
			{
				"x": -2.7765082936,
				"y": 2.1663815096,
				"z": 3.3262637023,
				"element": "C" 
			},
			{
				"x": -2.1975542564,
				"y": 1.2906232113,
				"z": 4.2422495088,
				"element": "C" 
			},
			{
				"x": -0.8409293898,
				"y": 0.9960547752,
				"z": 4.0974902266,
				"element": "C" 
			},
			{
				"x": -0.1305554203,
				"y": 1.5835740903,
				"z": 3.054988595,
				"element": "C" 
			},
			{
				"x": 2.1451703758,
				"y": 0.9817028524,
				"z": -1.0542806068,
				"element": "C" 
			},
			{
				"x": 2.1346301111,
				"y": -0.1403280726,
				"z": -1.8710953383,
				"element": "C" 
			},
			{
				"x": -3.5592873542,
				"y": -2.9983618592,
				"z": -2.1932992262,
				"element": "H" 
			},
			{
				"x": -2.861453802,
				"y": -3.9683434049,
				"z": -0.8806778714,
				"element": "H" 
			},
			{
				"x": -3.8051754659,
				"y": -4.7543357786,
				"z": -2.1601573454,
				"element": "H" 
			},
			{
				"x": -1.3451745437,
				"y": -5.119640648,
				"z": -2.5447029685,
				"element": "H" 
			},
			{
				"x": -2.0382556136,
				"y": -4.1539537941,
				"z": -3.8492894718,
				"element": "H" 
			},
			{
				"x": 1.9695338952,
				"y": -2.1817279896,
				"z": -3.3168589589,
				"element": "H" 
			},
			{
				"x": -0.9711918336,
				"y": -1.2940229135,
				"z": -1.1590260315,
				"element": "H" 
			},
			{
				"x": -0.9515265542,
				"y": 0.6606965374,
				"z": 0.2933835098,
				"element": "H" 
			},
			{
				"x": 1.8965736619,
				"y": 3.0211234732,
				"z": 0.3663953944,
				"element": "H" 
			},
			{
				"x": 0.3882112965,
				"y": 4.0701748926,
				"z": 1.5473830241,
				"element": "H" 
			},
			{
				"x": -1.7664213482,
				"y": 4.2944031611,
				"z": 0.3419513312,
				"element": "H" 
			},
			{
				"x": -0.368130485,
				"y": 4.2975200881,
				"z": -0.762880454,
				"element": "H" 
			},
			{
				"x": -1.4012559643,
				"y": 2.8644806286,
				"z": -0.6258772884,
				"element": "H" 
			},
			{
				"x": -3.8322956194,
				"y": 2.4228064437,
				"z": 3.4002358408,
				"element": "H" 
			},
			{
				"x": -2.7914628748,
				"y": 0.8538195038,
				"z": 5.0388824261,
				"element": "H" 
			},
			{
				"x": -0.3448911132,
				"y": 0.3167351826,
				"z": 4.7852924293,
				"element": "H" 
			},
			{
				"x": 0.9217141771,
				"y": 1.3776714033,
				"z": 2.8964892237,
				"element": "H" 
			},
			{
				"x": 3.0292664504,
				"y": 1.6152666735,
				"z": -1.0350746913,
				"element": "H" 
			},
			{
				"x": 3.0096827701,
				"y": -0.3610301741,
				"z": -2.4785983054,
				"element": "H" 
			}
		],
		 "valence_orbital": [ 
			{
				"type": "occ",
				"energy": -0.26415,
				"method": "rhf"
			},
			{
				"type": "occ",
				"energy": -0.25351,
				"method": "rhf"
			},
			{
				"type": "occ",
				"energy": -0.24918,
				"method": "rhf"
			},
			{
				"type": "occ",
				"energy": -0.24564,
				"method": "rhf"
			},
			{
				"type": "occ",
				"energy": -0.18227,
				"method": "rhf"
			},
			{
				"type": "unocc",
				"energy": -0.02297,
				"method": "rhf"
			},
			{
				"type": "unocc",
				"energy": -0.01227,
				"method": "rhf"
			},
			{
				"type": "unocc",
				"energy": 0.00284,
				"method": "rhf"
			},
			{
				"type": "unocc",
				"energy": 0.01358,
				"method": "rhf"
			},
			{
				"type": "unocc",
				"energy": 0.07303,
				"method": "rhf"
			}
		],
		"cosmo_sigma_profile": { 
			"-0.025": 0.0,
			"-0.024": 0.0,
			"-0.023": 0.0,
			"-0.022": 0.0,
			"-0.021": 0.0,
			"-0.02": 0.0,
			"-0.019": 0.0,
			"-0.018": 0.0,
			"-0.017": 0.0,
			"-0.016": 0.0,
			"-0.015": 0.253278527187,
			"-0.014": 0.727907884507,
			"-0.013": 1.2418632721,
			"-0.012": 2.46042290872,
			"-0.011": 2.35742910917,
			"-0.01": 2.73628209997,
			"-0.009": 2.89621031653,
			"-0.008": 2.9220211832,
			"-0.007": 6.07152816221,
			"-0.006": 12.1450133773,
			"-0.005": 18.8043780404,
			"-0.004": 28.3495945182,
			"-0.003": 29.3732674336,
			"-0.002": 27.0095443366,
			"-0.001": 27.4868379439,
			"0.0": 30.9551997457,
			"0.001": 25.3194329605,
			"0.002": 24.5764038775,
			"0.003": 25.9703102511,
			"0.004": 17.8117843693,
			"0.005": 12.9896599305,
			"0.006": 12.6870252272,
			"0.007": 6.17239375585,
			"0.008": 2.26056775345,
			"0.009": 2.42359134639,
			"0.01": 2.38525228212,
			"0.011": 2.42630277215,
			"0.012": 3.49945874287,
			"0.013": 7.04893809334,
			"0.014": 1.58947544152,
			"0.015": 0.0,
			"0.016": 0.0,
			"0.017": 0.0,
			"0.018": 0.0,
			"0.019": 0.0,
			"0.02": 0.0,
			"0.021": 0.0,
			"0.022": 0.0,
			"0.023": 0.0,
			"0.024": 0.0,
			"0.025": 0.0
		}
	}
}
