{
	 "smiles": "NC(=NO)C1=CC=C(Br)S1", 
	 "Tm": 398.15, 
	 "num_atms": 15, 
	 "gaussian": { 
		 "optdone": 1, 
		 "sigma_profile": "yes", 
		 "theory": "DFT", 
		 "functional": "B3LYP", 
		 "basiset": "6-31G**", 
		 "properties": { 
			 "R2extent": 4196.7387, 
			 "electric_dipole_moment_norm": 2.18298800272, 
			 "electric_quadrupole_moment_norm": 8.26564929452, 
			 "total_energy": -3347.78585219, 
			 "HOMO_LUMO_gap": 0.1658, 
			 "cosmo_polarized_energy": -11.16, 
			 "cosmo_cavitation_energy": 23.44, 
			 "cosmo_dispersion_energy": -18.59, 
			 "cosmo_repulsion_energy": 1.48, 
			 "cosmo_total_nonelectrostatic_energy": 6.33, 
			 "SMD_solvation_energy": 2.72 
		},
		"coords": [
			{
				"x": 2.7939923983,
				"y": -1.4321423876,
				"z": 0.7996761635,
				"element": "N" 
			},
			{
				"x": 2.1848438027,
				"y": -0.9503177876,
				"z": -0.3694869908,
				"element": "C" 
			},
			{
				"x": 2.9257531029,
				"y": -0.223984758,
				"z": -1.1411167684,
				"element": "N" 
			},
			{
				"x": 2.2744612425,
				"y": 0.0693597666,
				"z": -2.3574737105,
				"element": "O" 
			},
			{
				"x": 0.7994327355,
				"y": -1.3730833702,
				"z": -0.5771878994,
				"element": "C" 
			},
			{
				"x": 0.1310460203,
				"y": -2.3056052581,
				"z": 0.1910279313,
				"element": "C" 
			},
			{
				"x": -1.2331627022,
				"y": -2.4749166971,
				"z": -0.1632740278,
				"element": "C" 
			},
			{
				"x": -1.5834697744,
				"y": -1.6604663302,
				"z": -1.2069663494,
				"element": "C" 
			},
			{
				"x": -3.2794672966,
				"y": -1.5531070086,
				"z": -2.0249010181,
				"element": "Br" 
			},
			{
				"x": -0.2665493952,
				"y": -0.6950060957,
				"z": -1.7945517268,
				"element": "S" 
			},
			{
				"x": 2.2602057855,
				"y": -1.230331299,
				"z": 1.6382977141,
				"element": "H" 
			},
			{
				"x": 3.7419108679,
				"y": -1.0797875384,
				"z": 0.8788193006,
				"element": "H" 
			},
			{
				"x": 2.8905852499,
				"y": 0.6799986739,
				"z": -2.7809827169,
				"element": "H" 
			},
			{
				"x": 0.6212616635,
				"y": -2.868419288,
				"z": 0.976131527,
				"element": "H" 
			},
			{
				"x": -1.9150437006,
				"y": -3.163590622,
				"z": 0.3188885716,
				"element": "H" 
			}
		],
		 "valence_orbital": [ 
			{
				"type": "occ",
				"energy": -0.29775,
				"method": "rhf"
			},
			{
				"type": "occ",
				"energy": -0.27848,
				"method": "rhf"
			},
			{
				"type": "occ",
				"energy": -0.26103,
				"method": "rhf"
			},
			{
				"type": "occ",
				"energy": -0.24346,
				"method": "rhf"
			},
			{
				"type": "occ",
				"energy": -0.21342,
				"method": "rhf"
			},
			{
				"type": "unocc",
				"energy": -0.04762,
				"method": "rhf"
			},
			{
				"type": "unocc",
				"energy": -0.00067,
				"method": "rhf"
			},
			{
				"type": "unocc",
				"energy": 0.02787,
				"method": "rhf"
			},
			{
				"type": "unocc",
				"energy": 0.03189,
				"method": "rhf"
			},
			{
				"type": "unocc",
				"energy": 0.06671,
				"method": "rhf"
			}
		],
		"cosmo_sigma_profile": { 
			"-0.025": 0.0,
			"-0.024": 0.0,
			"-0.023": 0.0,
			"-0.022": 0.0,
			"-0.021": 0.0,
			"-0.02": 0.0,
			"-0.019": 0.0,
			"-0.018": 0.0884701754394,
			"-0.017": 1.0067806479,
			"-0.016": 0.930567441509,
			"-0.015": 0.731815829008,
			"-0.014": 1.2040349182,
			"-0.013": 1.48591919396,
			"-0.012": 3.01193473922,
			"-0.011": 2.04700925852,
			"-0.01": 3.75382198439,
			"-0.009": 3.26404248337,
			"-0.008": 4.74095579949,
			"-0.007": 6.53131916781,
			"-0.006": 6.1569726922,
			"-0.005": 7.55811634275,
			"-0.004": 5.7297378281,
			"-0.003": 6.44666973349,
			"-0.002": 6.34423567598,
			"-0.001": 9.32678515583,
			"0.0": 12.5955792688,
			"0.001": 16.079429563,
			"0.002": 23.2139140386,
			"0.003": 27.4790057747,
			"0.004": 13.9071163453,
			"0.005": 5.18467053169,
			"0.006": 5.58867630366,
			"0.007": 4.3080459001,
			"0.008": 3.74804929065,
			"0.009": 2.91523695543,
			"0.01": 2.33190231717,
			"0.011": 1.55319285369,
			"0.012": 1.58500141202,
			"0.013": 1.37782231256,
			"0.014": 0.193507781565,
			"0.015": 0.0,
			"0.016": 0.0,
			"0.017": 0.0,
			"0.018": 0.0,
			"0.019": 0.0,
			"0.02": 0.0,
			"0.021": 0.0,
			"0.022": 0.0,
			"0.023": 0.0,
			"0.024": 0.0,
			"0.025": 0.0
		}
	}
}
