{
	 "smiles": "CNC(=O)C1=NC(N)=CC=C1", 
	 "Tm": 376.15, 
	 "num_atms": 20, 
	 "gaussian": { 
		 "optdone": 1, 
		 "sigma_profile": "yes", 
		 "theory": "DFT", 
		 "functional": "B3LYP", 
		 "basiset": "6-31G**", 
		 "properties": { 
			 "R2extent": 2955.0171, 
			 "electric_dipole_moment_norm": 4.23371736185, 
			 "electric_quadrupole_moment_norm": 21.2570212953, 
			 "total_energy": -511.665478019, 
			 "HOMO_LUMO_gap": 0.17914, 
			 "cosmo_polarized_energy": -15.06, 
			 "cosmo_cavitation_energy": 24.13, 
			 "cosmo_dispersion_energy": -17.76, 
			 "cosmo_repulsion_energy": 1.44, 
			 "cosmo_total_nonelectrostatic_energy": 7.81, 
			 "SMD_solvation_energy": 4.01 
		},
		"coords": [
			{
				"x": 1.8833359358,
				"y": -3.3114902578,
				"z": 1.129733071,
				"element": "C" 
			},
			{
				"x": 1.4226497771,
				"y": -3.0772114781,
				"z": 2.4924023976,
				"element": "N" 
			},
			{
				"x": 0.6199722501,
				"y": -2.1134461118,
				"z": 3.0345689779,
				"element": "C" 
			},
			{
				"x": 0.4599684872,
				"y": -2.056663322,
				"z": 4.2545433253,
				"element": "O" 
			},
			{
				"x": -0.076259329,
				"y": -1.1110636189,
				"z": 2.1424149527,
				"element": "C" 
			},
			{
				"x": -0.1617756205,
				"y": -1.3438958347,
				"z": 0.8229080366,
				"element": "N" 
			},
			{
				"x": -0.8073868037,
				"y": -0.4526768477,
				"z": 0.0584252436,
				"element": "C" 
			},
			{
				"x": -0.83071694,
				"y": -0.7121697746,
				"z": -1.3016726776,
				"element": "N" 
			},
			{
				"x": -1.3943531461,
				"y": 0.7143206119,
				"z": 0.5899528266,
				"element": "C" 
			},
			{
				"x": -1.3037315134,
				"y": 0.9317803732,
				"z": 1.9569163275,
				"element": "C" 
			},
			{
				"x": -0.6371510145,
				"y": 0.006152192,
				"z": 2.7624570355,
				"element": "C" 
			},
			{
				"x": 2.2218706704,
				"y": -2.3894374903,
				"z": 0.6540339796,
				"element": "H" 
			},
			{
				"x": 1.1046991661,
				"y": -3.7467719985,
				"z": 0.4970242828,
				"element": "H" 
			},
			{
				"x": 2.7259594257,
				"y": -4.0065114985,
				"z": 1.1827058419,
				"element": "H" 
			},
			{
				"x": 1.8000640383,
				"y": -3.6735768888,
				"z": 3.2160754655,
				"element": "H" 
			},
			{
				"x": -1.593871896,
				"y": -0.3153978224,
				"z": -1.8295724622,
				"element": "H" 
			},
			{
				"x": -0.6116899542,
				"y": -1.6693994798,
				"z": -1.5394869638,
				"element": "H" 
			},
			{
				"x": -1.8998554604,
				"y": 1.4204178971,
				"z": -0.0620983032,
				"element": "H" 
			},
			{
				"x": -1.751507842,
				"y": 1.8192121598,
				"z": 2.3953995545,
				"element": "H" 
			},
			{
				"x": -0.5493202309,
				"y": 0.1148291896,
				"z": 3.8354690882,
				"element": "H" 
			}
		],
		 "valence_orbital": [ 
			{
				"type": "occ",
				"energy": -0.2822,
				"method": "rhf"
			},
			{
				"type": "occ",
				"energy": -0.26893,
				"method": "rhf"
			},
			{
				"type": "occ",
				"energy": -0.23875,
				"method": "rhf"
			},
			{
				"type": "occ",
				"energy": -0.2359,
				"method": "rhf"
			},
			{
				"type": "occ",
				"energy": -0.21739,
				"method": "rhf"
			},
			{
				"type": "unocc",
				"energy": -0.03825,
				"method": "rhf"
			},
			{
				"type": "unocc",
				"energy": -0.0009,
				"method": "rhf"
			},
			{
				"type": "unocc",
				"energy": 0.0699,
				"method": "rhf"
			},
			{
				"type": "unocc",
				"energy": 0.07997,
				"method": "rhf"
			},
			{
				"type": "unocc",
				"energy": 0.09411,
				"method": "rhf"
			}
		],
		"cosmo_sigma_profile": { 
			"-0.025": 0.0,
			"-0.024": 0.0,
			"-0.023": 0.0,
			"-0.022": 0.0,
			"-0.021": 0.0,
			"-0.02": 0.0,
			"-0.019": 0.0,
			"-0.018": 0.0,
			"-0.017": 0.0,
			"-0.016": 0.0,
			"-0.015": 0.0,
			"-0.014": 0.123149713709,
			"-0.013": 2.62784134945,
			"-0.012": 3.35916468997,
			"-0.011": 3.45533866716,
			"-0.01": 4.16656892006,
			"-0.009": 3.37070463979,
			"-0.008": 3.26256899448,
			"-0.007": 5.81569713149,
			"-0.006": 8.34964262642,
			"-0.005": 8.86420128211,
			"-0.004": 11.3980786131,
			"-0.003": 11.203589463,
			"-0.002": 12.5388441447,
			"-0.001": 13.6302869243,
			"0.0": 10.6564263401,
			"0.001": 10.5552860098,
			"0.002": 15.257178626,
			"0.003": 17.3088305723,
			"0.004": 9.89235589626,
			"0.005": 5.09600399168,
			"0.006": 4.7900560314,
			"0.007": 3.81067566381,
			"0.008": 2.88736350656,
			"0.009": 2.11344645705,
			"0.01": 2.09912248753,
			"0.011": 2.34834674406,
			"0.012": 2.55925312525,
			"0.013": 2.74690438579,
			"0.014": 5.68758252019,
			"0.015": 1.25839662444,
			"0.016": 0.0,
			"0.017": 0.0,
			"0.018": 0.0,
			"0.019": 0.0,
			"0.02": 0.0,
			"0.021": 0.0,
			"0.022": 0.0,
			"0.023": 0.0,
			"0.024": 0.0,
			"0.025": 0.0
		}
	}
}
