{
	 "smiles": "CC(Cl)C(=O)NC1=CC2=C(OCO2)C=C1", 
	 "Tm": 442.15, 
	 "num_atms": 25, 
	 "gaussian": { 
		 "optdone": 1, 
		 "sigma_profile": "yes", 
		 "theory": "DFT", 
		 "functional": "B3LYP", 
		 "basiset": "6-31G**", 
		 "properties": { 
			 "R2extent": 5208.2994, 
			 "electric_dipole_moment_norm": 4.65790362824, 
			 "electric_quadrupole_moment_norm": 12.14385938, 
			 "total_energy": -1127.68811608, 
			 "HOMO_LUMO_gap": 0.19487, 
			 "cosmo_polarized_energy": -13.07, 
			 "cosmo_cavitation_energy": 30.46, 
			 "cosmo_dispersion_energy": -22.08, 
			 "cosmo_repulsion_energy": 1.75, 
			 "cosmo_total_nonelectrostatic_energy": 10.13, 
			 "SMD_solvation_energy": 6.35 
		},
		"coords": [
			{
				"x": -0.1157411059,
				"y": -0.8379228702,
				"z": -1.1534282684,
				"element": "C" 
			},
			{
				"x": 0.1336060454,
				"y": -0.0904886843,
				"z": -2.4573902088,
				"element": "C" 
			},
			{
				"x": 1.9295643198,
				"y": -0.0292431292,
				"z": -2.8357500579,
				"element": "Cl" 
			},
			{
				"x": -0.4971733222,
				"y": 1.3063307169,
				"z": -2.5927017842,
				"element": "C" 
			},
			{
				"x": -1.2050032,
				"y": 1.5356692078,
				"z": -3.5640941612,
				"element": "O" 
			},
			{
				"x": -0.3099613062,
				"y": 2.2715018915,
				"z": -1.6315950041,
				"element": "N" 
			},
			{
				"x": 0.3874747809,
				"y": 2.2672296847,
				"z": -0.3817246036,
				"element": "C" 
			},
			{
				"x": -0.3780111518,
				"y": 2.2770436579,
				"z": 0.8073918342,
				"element": "C" 
			},
			{
				"x": 0.3162251362,
				"y": 2.3397041444,
				"z": 1.997319342,
				"element": "C" 
			},
			{
				"x": 1.7092909214,
				"y": 2.3833049851,
				"z": 2.0386367379,
				"element": "C" 
			},
			{
				"x": 2.1322797835,
				"y": 2.4322707121,
				"z": 3.3423661248,
				"element": "O" 
			},
			{
				"x": 0.94718815,
				"y": 2.4205272224,
				"z": 4.1484919753,
				"element": "C" 
			},
			{
				"x": -0.1873216164,
				"y": 2.3590659983,
				"z": 3.2731374638,
				"element": "O" 
			},
			{
				"x": 2.4710507341,
				"y": 2.3785576241,
				"z": 0.8875188722,
				"element": "C" 
			},
			{
				"x": 1.7813108368,
				"y": 2.334568812,
				"z": -0.337855906,
				"element": "C" 
			},
			{
				"x": 0.2447371258,
				"y": -1.8656722828,
				"z": -1.2429930308,
				"element": "H" 
			},
			{
				"x": -1.1938696061,
				"y": -0.8684856061,
				"z": -0.9580704568,
				"element": "H" 
			},
			{
				"x": 0.3791048395,
				"y": -0.3665665759,
				"z": -0.3045388005,
				"element": "H" 
			},
			{
				"x": -0.2882094388,
				"y": -0.6389103442,
				"z": -3.2980986146,
				"element": "H" 
			},
			{
				"x": -0.8479006109,
				"y": 3.10246372,
				"z": -1.8515901455,
				"element": "H" 
			},
			{
				"x": -1.4604956794,
				"y": 2.2299146789,
				"z": 0.7786312788,
				"element": "H" 
			},
			{
				"x": 0.9003088471,
				"y": 3.3406230805,
				"z": 4.7435382219,
				"element": "H" 
			},
			{
				"x": 0.9552107431,
				"y": 1.5371918456,
				"z": 4.7984099558,
				"element": "H" 
			},
			{
				"x": 3.5533001912,
				"y": 2.4207380099,
				"z": 0.9266649698,
				"element": "H" 
			},
			{
				"x": 2.335034583,
				"y": 2.3472835007,
				"z": -1.2679757343,
				"element": "H" 
			}
		],
		 "valence_orbital": [ 
			{
				"type": "occ",
				"energy": -0.29638,
				"method": "rhf"
			},
			{
				"type": "occ",
				"energy": -0.27032,
				"method": "rhf"
			},
			{
				"type": "occ",
				"energy": -0.25984,
				"method": "rhf"
			},
			{
				"type": "occ",
				"energy": -0.25383,
				"method": "rhf"
			},
			{
				"type": "occ",
				"energy": -0.21722,
				"method": "rhf"
			},
			{
				"type": "unocc",
				"energy": -0.02235,
				"method": "rhf"
			},
			{
				"type": "unocc",
				"energy": -0.01213,
				"method": "rhf"
			},
			{
				"type": "unocc",
				"energy": -0.00375,
				"method": "rhf"
			},
			{
				"type": "unocc",
				"energy": 0.05858,
				"method": "rhf"
			},
			{
				"type": "unocc",
				"energy": 0.08888,
				"method": "rhf"
			}
		],
		"cosmo_sigma_profile": { 
			"-0.025": 0.0,
			"-0.024": 0.0,
			"-0.023": 0.0,
			"-0.022": 0.0,
			"-0.021": 0.0,
			"-0.02": 0.0,
			"-0.019": 0.0,
			"-0.018": 0.0,
			"-0.017": 0.0,
			"-0.016": 0.0,
			"-0.015": 0.0834489267141,
			"-0.014": 0.673751255017,
			"-0.013": 1.09954736132,
			"-0.012": 0.935768540051,
			"-0.011": 0.819640433594,
			"-0.01": 1.10686175565,
			"-0.009": 0.84878330444,
			"-0.008": 5.29026710524,
			"-0.007": 14.328503108,
			"-0.006": 15.2019618397,
			"-0.005": 16.0054383235,
			"-0.004": 13.1906707115,
			"-0.003": 14.0439084769,
			"-0.002": 16.1249137876,
			"-0.001": 18.182665416,
			"0.0": 17.5727600193,
			"0.001": 17.1830399894,
			"0.002": 19.2018348597,
			"0.003": 14.610398101,
			"0.004": 12.9005548273,
			"0.005": 9.33298395593,
			"0.006": 8.90095947088,
			"0.007": 4.03692629443,
			"0.008": 4.73207539543,
			"0.009": 4.14801533259,
			"0.01": 2.22883644128,
			"0.011": 1.48279096912,
			"0.012": 3.75843079198,
			"0.013": 5.32700321113,
			"0.014": 0.998863369202,
			"0.015": 0.0,
			"0.016": 0.0,
			"0.017": 0.0,
			"0.018": 0.0,
			"0.019": 0.0,
			"0.02": 0.0,
			"0.021": 0.0,
			"0.022": 0.0,
			"0.023": 0.0,
			"0.024": 0.0,
			"0.025": 0.0
		}
	}
}
