{
	 "smiles": "CC1=NNC(=N1)C1CCCCC1", 
	 "Tm": 401.15, 
	 "num_atms": 27, 
	 "gaussian": { 
		 "optdone": 1, 
		 "sigma_profile": "yes", 
		 "theory": "DFT", 
		 "functional": "B3LYP", 
		 "basiset": "6-31G**", 
		 "properties": { 
			 "R2extent": 2343.5204, 
			 "electric_dipole_moment_norm": 2.34041108355, 
			 "electric_quadrupole_moment_norm": 5.49739306126, 
			 "total_energy": -516.262461074, 
			 "HOMO_LUMO_gap": 0.26117, 
			 "cosmo_polarized_energy": -10.8, 
			 "cosmo_cavitation_energy": 27.77, 
			 "cosmo_dispersion_energy": -20.55, 
			 "cosmo_repulsion_energy": 1.67, 
			 "cosmo_total_nonelectrostatic_energy": 8.89, 
			 "SMD_solvation_energy": 1.92 
		},
		"coords": [
			{
				"x": 1.7945864554,
				"y": -3.6250651649,
				"z": 1.1000198346,
				"element": "C" 
			},
			{
				"x": 0.978369249,
				"y": -2.3947767639,
				"z": 1.3276342769,
				"element": "C" 
			},
			{
				"x": 0.8294175704,
				"y": -1.851505139,
				"z": 2.5285161139,
				"element": "N" 
			},
			{
				"x": 0.0294012868,
				"y": -0.7836494203,
				"z": 2.2570896613,
				"element": "N" 
			},
			{
				"x": -0.2710799403,
				"y": -0.723370626,
				"z": 0.9364973754,
				"element": "C" 
			},
			{
				"x": 0.3202303944,
				"y": -1.737155836,
				"z": 0.3211849718,
				"element": "N" 
			},
			{
				"x": -1.1107822438,
				"y": 0.3688794605,
				"z": 0.3291170605,
				"element": "C" 
			},
			{
				"x": -1.9413005695,
				"y": -0.1314190478,
				"z": -0.8957060644,
				"element": "C" 
			},
			{
				"x": -1.4274827612,
				"y": 0.4151246587,
				"z": -2.2432425754,
				"element": "C" 
			},
			{
				"x": 0.105204988,
				"y": 0.3809745775,
				"z": -2.3026330277,
				"element": "C" 
			},
			{
				"x": 0.7338849093,
				"y": 1.2938642417,
				"z": -1.2176727859,
				"element": "C" 
			},
			{
				"x": -0.2411301186,
				"y": 1.5927514333,
				"z": -0.0610715306,
				"element": "C" 
			},
			{
				"x": 2.2175719278,
				"y": -3.9743249266,
				"z": 2.043695987,
				"element": "H" 
			},
			{
				"x": 1.1811317104,
				"y": -4.4224738269,
				"z": 0.6682867959,
				"element": "H" 
			},
			{
				"x": 2.6099103752,
				"y": -3.4251182917,
				"z": 0.3972029298,
				"element": "H" 
			},
			{
				"x": -0.2684534347,
				"y": -0.1767508905,
				"z": 3.0058852553,
				"element": "H" 
			},
			{
				"x": -1.8039918385,
				"y": 0.6988141047,
				"z": 1.1140512992,
				"element": "H" 
			},
			{
				"x": -1.9079159033,
				"y": -1.2241157439,
				"z": -0.9189822107,
				"element": "H" 
			},
			{
				"x": -2.9903870592,
				"y": 0.1535040068,
				"z": -0.7591390917,
				"element": "H" 
			},
			{
				"x": -1.8564030736,
				"y": -0.1785661712,
				"z": -3.0584623786,
				"element": "H" 
			},
			{
				"x": -1.7828489619,
				"y": 1.4431716423,
				"z": -2.3959723443,
				"element": "H" 
			},
			{
				"x": 0.4312185287,
				"y": -0.6509961589,
				"z": -2.1371863476,
				"element": "H" 
			},
			{
				"x": 0.4578129839,
				"y": 0.6761128386,
				"z": -3.2971726423,
				"element": "H" 
			},
			{
				"x": 1.0494577435,
				"y": 2.2486906636,
				"z": -1.6546047817,
				"element": "H" 
			},
			{
				"x": 1.6391295509,
				"y": 0.8201058402,
				"z": -0.8238296372,
				"element": "H" 
			},
			{
				"x": -0.9266695337,
				"y": 2.3978961094,
				"z": -0.3517892033,
				"element": "H" 
			},
			{
				"x": 0.3080177647,
				"y": 1.9594984305,
				"z": 0.8140830597,
				"element": "H" 
			}
		],
		 "valence_orbital": [ 
			{
				"type": "occ",
				"energy": -0.30153,
				"method": "rhf"
			},
			{
				"type": "occ",
				"energy": -0.29896,
				"method": "rhf"
			},
			{
				"type": "occ",
				"energy": -0.2801,
				"method": "rhf"
			},
			{
				"type": "occ",
				"energy": -0.26359,
				"method": "rhf"
			},
			{
				"type": "occ",
				"energy": -0.24364,
				"method": "rhf"
			},
			{
				"type": "unocc",
				"energy": 0.01753,
				"method": "rhf"
			},
			{
				"type": "unocc",
				"energy": 0.05773,
				"method": "rhf"
			},
			{
				"type": "unocc",
				"energy": 0.06961,
				"method": "rhf"
			},
			{
				"type": "unocc",
				"energy": 0.0913,
				"method": "rhf"
			},
			{
				"type": "unocc",
				"energy": 0.11203,
				"method": "rhf"
			}
		],
		"cosmo_sigma_profile": { 
			"-0.025": 0.0,
			"-0.024": 0.0,
			"-0.023": 0.0,
			"-0.022": 0.0,
			"-0.021": 0.0,
			"-0.02": 0.0,
			"-0.019": 0.0,
			"-0.018": 0.0,
			"-0.017": 0.273994730102,
			"-0.016": 1.64093397401,
			"-0.015": 1.17485477992,
			"-0.014": 0.90143390301,
			"-0.013": 1.52005255742,
			"-0.012": 0.793711744743,
			"-0.011": 1.33776542683,
			"-0.01": 1.25796859893,
			"-0.009": 0.807425438762,
			"-0.008": 1.11161920835,
			"-0.007": 1.31901270614,
			"-0.006": 1.76467355323,
			"-0.005": 5.49482492393,
			"-0.004": 8.67614730468,
			"-0.003": 16.7809048116,
			"-0.002": 26.5855752999,
			"-0.001": 33.0053938655,
			"0.0": 32.5931457588,
			"0.001": 26.0436000923,
			"0.002": 12.9620144762,
			"0.003": 6.06101816289,
			"0.004": 4.11095414281,
			"0.005": 4.68003035839,
			"0.006": 3.91847723842,
			"0.007": 4.04645016678,
			"0.008": 1.63160711851,
			"0.009": 3.26444535429,
			"0.01": 2.54742845728,
			"0.011": 1.8155419715,
			"0.012": 2.36683955859,
			"0.013": 1.91171359738,
			"0.014": 1.44030666713,
			"0.015": 1.4660878207,
			"0.016": 0.549328117934,
			"0.017": 0.0,
			"0.018": 0.0,
			"0.019": 0.0,
			"0.02": 0.0,
			"0.021": 0.0,
			"0.022": 0.0,
			"0.023": 0.0,
			"0.024": 0.0,
			"0.025": 0.0
		}
	}
}
