{
	 "smiles": "BrCCCCCCCCCCCBr", 
	 "Tm": 439.15, 
	 "num_atms": 35, 
	 "gaussian": { 
		 "optdone": 1, 
		 "sigma_profile": "yes", 
		 "theory": "DFT", 
		 "functional": "B3LYP", 
		 "basiset": "6-31G**", 
		 "properties": { 
			 "R2extent": 12860.4743, 
			 "electric_dipole_moment_norm": 2.4996387699, 
			 "electric_quadrupole_moment_norm": 23.9565683638, 
			 "total_energy": -5575.27425069, 
			 "HOMO_LUMO_gap": 0.27008, 
			 "cosmo_polarized_energy": -7.22, 
			 "cosmo_cavitation_energy": 39.96, 
			 "cosmo_dispersion_energy": -28.49, 
			 "cosmo_repulsion_energy": 2.35, 
			 "cosmo_total_nonelectrostatic_energy": 13.82, 
			 "SMD_solvation_energy": 3.04 
		},
		"coords": [
			{
				"x": -0.5542602109,
				"y": 6.149112807,
				"z": -2.1135236453,
				"element": "Br" 
			},
			{
				"x": -0.0160175251,
				"y": 4.3033900278,
				"z": -1.6227657189,
				"element": "C" 
			},
			{
				"x": 1.1955822269,
				"y": 3.841682153,
				"z": -2.4212063358,
				"element": "C" 
			},
			{
				"x": 1.6026354731,
				"y": 2.3897088949,
				"z": -2.1011543838,
				"element": "C" 
			},
			{
				"x": 2.1616388541,
				"y": 2.1801486463,
				"z": -0.6832908091,
				"element": "C" 
			},
			{
				"x": 2.6746956326,
				"y": 0.7513380882,
				"z": -0.3916654135,
				"element": "C" 
			},
			{
				"x": 1.6659363572,
				"y": -0.2154804095,
				"z": 0.2555269715,
				"element": "C" 
			},
			{
				"x": 0.4280149876,
				"y": -0.5566141409,
				"z": -0.5870362421,
				"element": "C" 
			},
			{
				"x": -0.5180326982,
				"y": -1.581335061,
				"z": 0.0648956616,
				"element": "C" 
			},
			{
				"x": 0.0683148468,
				"y": -2.995905679,
				"z": 0.1871039942,
				"element": "C" 
			},
			{
				"x": -0.9305673948,
				"y": -4.0565163241,
				"z": 0.6734224994,
				"element": "C" 
			},
			{
				"x": -1.5096729378,
				"y": -3.8408719506,
				"z": 2.0652814477,
				"element": "C" 
			},
			{
				"x": -0.1206723872,
				"y": -3.891092946,
				"z": 3.4887417944,
				"element": "Br" 
			},
			{
				"x": 0.1684922026,
				"y": 4.3438122842,
				"z": -0.5501590334,
				"element": "H" 
			},
			{
				"x": -0.8965312126,
				"y": 3.6891751215,
				"z": -1.8157861111,
				"element": "H" 
			},
			{
				"x": 0.9661887913,
				"y": 3.9277337464,
				"z": -3.4887571699,
				"element": "H" 
			},
			{
				"x": 2.0368885497,
				"y": 4.516964893,
				"z": -2.22530416,
				"element": "H" 
			},
			{
				"x": 2.3723337012,
				"y": 2.0906143044,
				"z": -2.8245190607,
				"element": "H" 
			},
			{
				"x": 0.7489670968,
				"y": 1.7248222792,
				"z": -2.2813474812,
				"element": "H" 
			},
			{
				"x": 2.98807441,
				"y": 2.8898399444,
				"z": -0.5448573437,
				"element": "H" 
			},
			{
				"x": 1.4092523731,
				"y": 2.4503618881,
				"z": 0.0701607002,
				"element": "H" 
			},
			{
				"x": 3.5355372393,
				"y": 0.8221428285,
				"z": 0.284250458,
				"element": "H" 
			},
			{
				"x": 3.062646098,
				"y": 0.3081679426,
				"z": -1.3198853169,
				"element": "H" 
			},
			{
				"x": 2.2010247965,
				"y": -1.1403711259,
				"z": 0.5034869041,
				"element": "H" 
			},
			{
				"x": 1.3355360637,
				"y": 0.2057059804,
				"z": 1.2160561002,
				"element": "H" 
			},
			{
				"x": -0.1429872312,
				"y": 0.3596390514,
				"z": -0.7807403057,
				"element": "H" 
			},
			{
				"x": 0.7457096917,
				"y": -0.9329107779,
				"z": -1.5703979995,
				"element": "H" 
			},
			{
				"x": -0.8094410962,
				"y": -1.2100905065,
				"z": 1.0569077023,
				"element": "H" 
			},
			{
				"x": -1.4424504354,
				"y": -1.631424407,
				"z": -0.5275510675,
				"element": "H" 
			},
			{
				"x": 0.444227148,
				"y": -3.3112236714,
				"z": -0.7952816212,
				"element": "H" 
			},
			{
				"x": 0.9306016984,
				"y": -2.9928316736,
				"z": 0.8625083155,
				"element": "H" 
			},
			{
				"x": -1.7903331038,
				"y": -4.0902320557,
				"z": -0.0136132139,
				"element": "H" 
			},
			{
				"x": -0.4631153774,
				"y": -5.0466640774,
				"z": 0.6343315204,
				"element": "H" 
			},
			{
				"x": -1.9926199234,
				"y": -2.8712742496,
				"z": 2.1808317127,
				"element": "H" 
			},
			{
				"x": -2.2113967048,
				"y": -4.6280218253,
				"z": 2.3387366509,
				"element": "H" 
			}
		],
		 "valence_orbital": [ 
			{
				"type": "occ",
				"energy": -0.30719,
				"method": "rhf"
			},
			{
				"type": "occ",
				"energy": -0.27136,
				"method": "rhf"
			},
			{
				"type": "occ",
				"energy": -0.26971,
				"method": "rhf"
			},
			{
				"type": "occ",
				"energy": -0.26783,
				"method": "rhf"
			},
			{
				"type": "occ",
				"energy": -0.26725,
				"method": "rhf"
			},
			{
				"type": "unocc",
				"energy": 0.00283,
				"method": "rhf"
			},
			{
				"type": "unocc",
				"energy": 0.004,
				"method": "rhf"
			},
			{
				"type": "unocc",
				"energy": 0.07912,
				"method": "rhf"
			},
			{
				"type": "unocc",
				"energy": 0.08615,
				"method": "rhf"
			},
			{
				"type": "unocc",
				"energy": 0.09453,
				"method": "rhf"
			}
		],
		"cosmo_sigma_profile": { 
			"-0.025": 0.0,
			"-0.024": 0.0,
			"-0.023": 0.0,
			"-0.022": 0.0,
			"-0.021": 0.0,
			"-0.02": 0.0,
			"-0.019": 0.0,
			"-0.018": 0.0,
			"-0.017": 0.0,
			"-0.016": 0.0,
			"-0.015": 0.0,
			"-0.014": 0.0,
			"-0.013": 0.0,
			"-0.012": 0.0,
			"-0.011": 0.0,
			"-0.01": 0.0,
			"-0.009": 0.0,
			"-0.008": 0.0,
			"-0.007": 1.48455211829,
			"-0.006": 7.83785155358,
			"-0.005": 9.44999342289,
			"-0.004": 16.4087442644,
			"-0.003": 28.9060822983,
			"-0.002": 43.9361921587,
			"-0.001": 52.8894412784,
			"0.0": 46.1542390655,
			"0.001": 30.2232511135,
			"0.002": 14.1929519738,
			"0.003": 8.82026194473,
			"0.004": 9.53857946323,
			"0.005": 13.2432960368,
			"0.006": 17.8248345647,
			"0.007": 14.2533781878,
			"0.008": 0.00797246351276,
			"0.009": 0.0,
			"0.01": 0.0,
			"0.011": 0.0,
			"0.012": 0.0,
			"0.013": 0.0,
			"0.014": 0.0,
			"0.015": 0.0,
			"0.016": 0.0,
			"0.017": 0.0,
			"0.018": 0.0,
			"0.019": 0.0,
			"0.02": 0.0,
			"0.021": 0.0,
			"0.022": 0.0,
			"0.023": 0.0,
			"0.024": 0.0,
			"0.025": 0.0
		}
	}
}
