{
	 "smiles": "COC(=O)C1=C(N)C=C2C=CC=CC2=C1", 
	 "Tm": 373.15, 
	 "num_atms": 26, 
	 "gaussian": { 
		 "optdone": 1, 
		 "sigma_profile": "yes", 
		 "theory": "DFT", 
		 "functional": "B3LYP", 
		 "basiset": "6-31G**", 
		 "properties": { 
			 "R2extent": 3739.3392, 
			 "electric_dipole_moment_norm": 2.89953224848, 
			 "electric_quadrupole_moment_norm": 15.3110265129, 
			 "total_energy": -669.133028462, 
			 "HOMO_LUMO_gap": 0.14, 
			 "cosmo_polarized_energy": -11.25, 
			 "cosmo_cavitation_energy": 29.73, 
			 "cosmo_dispersion_energy": -22.16, 
			 "cosmo_repulsion_energy": 1.7, 
			 "cosmo_total_nonelectrostatic_energy": 9.27, 
			 "SMD_solvation_energy": 6.16 
		},
		"coords": [
			{
				"x": 4.8815985481,
				"y": -0.4815997709,
				"z": 0.8721116207,
				"element": "C" 
			},
			{
				"x": 3.5328695542,
				"y": 0.0159724149,
				"z": 0.889652102,
				"element": "O" 
			},
			{
				"x": 2.6505930976,
				"y": -0.6776741699,
				"z": 0.1126943947,
				"element": "C" 
			},
			{
				"x": 3.0058750596,
				"y": -1.6490014513,
				"z": -0.5269304518,
				"element": "O" 
			},
			{
				"x": 1.2587832426,
				"y": -0.1520490471,
				"z": 0.146364986,
				"element": "C" 
			},
			{
				"x": 0.8205520739,
				"y": 1.0519129313,
				"z": 0.8127651927,
				"element": "C" 
			},
			{
				"x": 1.6986274399,
				"y": 1.9098720372,
				"z": 1.4419379802,
				"element": "N" 
			},
			{
				"x": -0.5341574367,
				"y": 1.3732605712,
				"z": 0.7620434405,
				"element": "C" 
			},
			{
				"x": -1.4805018359,
				"y": 0.5816701589,
				"z": 0.0805724455,
				"element": "C" 
			},
			{
				"x": -2.8652018916,
				"y": 0.9123509687,
				"z": 0.0284522576,
				"element": "C" 
			},
			{
				"x": -3.7537337439,
				"y": 0.1112767751,
				"z": -0.6505008236,
				"element": "C" 
			},
			{
				"x": -3.3148347227,
				"y": -1.0644474884,
				"z": -1.3151339566,
				"element": "C" 
			},
			{
				"x": -1.9851805114,
				"y": -1.4127330586,
				"z": -1.283583524,
				"element": "C" 
			},
			{
				"x": -1.039528156,
				"y": -0.6064898633,
				"z": -0.5911857801,
				"element": "C" 
			},
			{
				"x": 0.3299107784,
				"y": -0.9299954756,
				"z": -0.5312674427,
				"element": "C" 
			},
			{
				"x": 5.284325183,
				"y": -0.4605941067,
				"z": -0.1429474956,
				"element": "H" 
			},
			{
				"x": 4.9164587812,
				"y": -1.5081397185,
				"z": 1.2440858692,
				"element": "H" 
			},
			{
				"x": 5.4483743343,
				"y": 0.1830811401,
				"z": 1.5243302365,
				"element": "H" 
			},
			{
				"x": 1.2931037518,
				"y": 2.5720193371,
				"z": 2.0850271876,
				"element": "H" 
			},
			{
				"x": 2.6038239936,
				"y": 1.5425810822,
				"z": 1.689367428,
				"element": "H" 
			},
			{
				"x": -0.8737432571,
				"y": 2.2792109048,
				"z": 1.2596504597,
				"element": "H" 
			},
			{
				"x": -3.2096951652,
				"y": 1.8108929174,
				"z": 0.533856737,
				"element": "H" 
			},
			{
				"x": -4.8064881878,
				"y": 0.3787636817,
				"z": -0.6807835884,
				"element": "H" 
			},
			{
				"x": -4.0325446844,
				"y": -1.6829455303,
				"z": -1.8454479124,
				"element": "H" 
			},
			{
				"x": -1.6347347577,
				"y": -2.3099314444,
				"z": -1.7875187422,
				"element": "H" 
			},
			{
				"x": 0.6938485122,
				"y": -1.8255637958,
				"z": -1.0247126204,
				"element": "H" 
			}
		],
		 "valence_orbital": [ 
			{
				"type": "occ",
				"energy": -0.2919,
				"method": "rhf"
			},
			{
				"type": "occ",
				"energy": -0.27505,
				"method": "rhf"
			},
			{
				"type": "occ",
				"energy": -0.272,
				"method": "rhf"
			},
			{
				"type": "occ",
				"energy": -0.22916,
				"method": "rhf"
			},
			{
				"type": "occ",
				"energy": -0.19192,
				"method": "rhf"
			},
			{
				"type": "unocc",
				"energy": -0.05192,
				"method": "rhf"
			},
			{
				"type": "unocc",
				"energy": -0.00968,
				"method": "rhf"
			},
			{
				"type": "unocc",
				"energy": 0.03055,
				"method": "rhf"
			},
			{
				"type": "unocc",
				"energy": 0.04937,
				"method": "rhf"
			},
			{
				"type": "unocc",
				"energy": 0.09071,
				"method": "rhf"
			}
		],
		"cosmo_sigma_profile": { 
			"-0.025": 0.0,
			"-0.024": 0.0,
			"-0.023": 0.0,
			"-0.022": 0.0,
			"-0.021": 0.0,
			"-0.02": 0.0,
			"-0.019": 0.0,
			"-0.018": 0.0,
			"-0.017": 0.0,
			"-0.016": 0.0,
			"-0.015": 0.0,
			"-0.014": 0.0,
			"-0.013": 0.537898481867,
			"-0.012": 1.69174288356,
			"-0.011": 0.761946218483,
			"-0.01": 2.10379319162,
			"-0.009": 2.25673953162,
			"-0.008": 1.94186755743,
			"-0.007": 3.42626607499,
			"-0.006": 14.1104159668,
			"-0.005": 19.9460896567,
			"-0.004": 19.4254972168,
			"-0.003": 21.3801969355,
			"-0.002": 14.3002908869,
			"-0.001": 14.7633246772,
			"0.0": 11.7695833515,
			"0.001": 12.5584788102,
			"0.002": 14.8287888326,
			"0.003": 18.9562873461,
			"0.004": 23.1219375663,
			"0.005": 16.038933226,
			"0.006": 5.23130472204,
			"0.007": 2.73345857805,
			"0.008": 2.62528469321,
			"0.009": 2.1278720226,
			"0.01": 2.26704023118,
			"0.011": 3.29986499083,
			"0.012": 5.02755088899,
			"0.013": 0.235656298757,
			"0.014": 0.0,
			"0.015": 0.0,
			"0.016": 0.0,
			"0.017": 0.0,
			"0.018": 0.0,
			"0.019": 0.0,
			"0.02": 0.0,
			"0.021": 0.0,
			"0.022": 0.0,
			"0.023": 0.0,
			"0.024": 0.0,
			"0.025": 0.0
		}
	}
}
