{
	 "smiles": "CSCCC(NC(=O)C1=CC(C)=CC=C1)C(O)=O", 
	 "Tm": 389.15, 
	 "num_atms": 35, 
	 "gaussian": { 
		 "optdone": 1, 
		 "sigma_profile": "yes", 
		 "theory": "DFT", 
		 "functional": "B3LYP", 
		 "basiset": "6-31G**", 
		 "properties": { 
			 "R2extent": 6028.6024, 
			 "electric_dipole_moment_norm": 6.15443177231, 
			 "electric_quadrupole_moment_norm": 19.3593760868, 
			 "total_energy": -1184.26695026, 
			 "HOMO_LUMO_gap": 0.1854, 
			 "cosmo_polarized_energy": -24.25, 
			 "cosmo_cavitation_energy": 40.31, 
			 "cosmo_dispersion_energy": -26.69, 
			 "cosmo_repulsion_energy": 2.06, 
			 "cosmo_total_nonelectrostatic_energy": 15.68, 
			 "SMD_solvation_energy": 7.78 
		},
		"coords": [
			{
				"x": -1.1966150505,
				"y": 0.505762622,
				"z": -3.1452104182,
				"element": "C" 
			},
			{
				"x": -1.4243499464,
				"y": -1.2641315037,
				"z": -2.7502560038,
				"element": "S" 
			},
			{
				"x": 0.0042610426,
				"y": -1.5486383346,
				"z": -1.6358971693,
				"element": "C" 
			},
			{
				"x": -0.2050221547,
				"y": -1.0032748453,
				"z": -0.2192894622,
				"element": "C" 
			},
			{
				"x": 1.0369869546,
				"y": -1.1481083126,
				"z": 0.7090484015,
				"element": "C" 
			},
			{
				"x": 2.2169321658,
				"y": -0.443696182,
				"z": 0.2343022684,
				"element": "N" 
			},
			{
				"x": 2.3254861268,
				"y": 0.8933608788,
				"z": -0.0906891092,
				"element": "C" 
			},
			{
				"x": 3.1321014006,
				"y": 1.2718917446,
				"z": -0.9321040157,
				"element": "O" 
			},
			{
				"x": 1.4625042568,
				"y": 1.877262495,
				"z": 0.6495708487,
				"element": "C" 
			},
			{
				"x": 1.2554616449,
				"y": 1.7998979611,
				"z": 2.034151597,
				"element": "C" 
			},
			{
				"x": 0.5085634522,
				"y": 2.7694058949,
				"z": 2.7132724167,
				"element": "C" 
			},
			{
				"x": 0.3293015654,
				"y": 2.7066125107,
				"z": 4.2123365163,
				"element": "C" 
			},
			{
				"x": -0.0491679423,
				"y": 3.8185877949,
				"z": 1.9686451909,
				"element": "C" 
			},
			{
				"x": 0.1622596224,
				"y": 3.9135773944,
				"z": 0.5926737462,
				"element": "C" 
			},
			{
				"x": 0.9305084552,
				"y": 2.9559140934,
				"z": -0.0672000864,
				"element": "C" 
			},
			{
				"x": 1.422596601,
				"y": -2.6268503826,
				"z": 0.8490386975,
				"element": "C" 
			},
			{
				"x": 0.5490500927,
				"y": -3.3953066415,
				"z": 1.5393019344,
				"element": "O" 
			},
			{
				"x": 2.4079062928,
				"y": -3.1120477606,
				"z": 0.350826242,
				"element": "O" 
			},
			{
				"x": -1.9991448204,
				"y": 0.775395335,
				"z": -3.8352905599,
				"element": "H" 
			},
			{
				"x": -0.2356025157,
				"y": 0.6745437455,
				"z": -3.6381953728,
				"element": "H" 
			},
			{
				"x": -1.2740190182,
				"y": 1.1389535551,
				"z": -2.2577842966,
				"element": "H" 
			},
			{
				"x": 0.898787508,
				"y": -1.1176699384,
				"z": -2.0958857503,
				"element": "H" 
			},
			{
				"x": 0.1414774511,
				"y": -2.6343528544,
				"z": -1.6211556795,
				"element": "H" 
			},
			{
				"x": -0.4560138908,
				"y": 0.0609096539,
				"z": -0.254634441,
				"element": "H" 
			},
			{
				"x": -1.0659920775,
				"y": -1.5050209467,
				"z": 0.2395343578,
				"element": "H" 
			},
			{
				"x": 0.7495888467,
				"y": -0.7799624779,
				"z": 1.7015146464,
				"element": "H" 
			},
			{
				"x": 2.8721024105,
				"y": -1.0374888557,
				"z": -0.2658466162,
				"element": "H" 
			},
			{
				"x": 1.7196384282,
				"y": 0.9960456418,
				"z": 2.5998594579,
				"element": "H" 
			},
			{
				"x": 0.9565839312,
				"y": 3.4513449503,
				"z": 4.7167795009,
				"element": "H" 
			},
			{
				"x": -0.7072769204,
				"y": 2.9111329686,
				"z": 4.5000254209,
				"element": "H" 
			},
			{
				"x": 0.6033394299,
				"y": 1.7251084929,
				"z": 4.6093618188,
				"element": "H" 
			},
			{
				"x": -0.6440554191,
				"y": 4.5747159938,
				"z": 2.475341831,
				"element": "H" 
			},
			{
				"x": -0.2659536343,
				"y": 4.7422937185,
				"z": 0.0361455351,
				"element": "H" 
			},
			{
				"x": 1.1334645938,
				"y": 3.0325753529,
				"z": -1.130300178,
				"element": "H" 
			},
			{
				"x": -0.1778888827,
				"y": -2.8602437622,
				"z": 1.8894087309,
				"element": "H" 
			}
		],
		 "valence_orbital": [ 
			{
				"type": "occ",
				"energy": -0.27069,
				"method": "rhf"
			},
			{
				"type": "occ",
				"energy": -0.26415,
				"method": "rhf"
			},
			{
				"type": "occ",
				"energy": -0.25991,
				"method": "rhf"
			},
			{
				"type": "occ",
				"energy": -0.24584,
				"method": "rhf"
			},
			{
				"type": "occ",
				"energy": -0.22636,
				"method": "rhf"
			},
			{
				"type": "unocc",
				"energy": -0.04096,
				"method": "rhf"
			},
			{
				"type": "unocc",
				"energy": -0.01712,
				"method": "rhf"
			},
			{
				"type": "unocc",
				"energy": -0.01048,
				"method": "rhf"
			},
			{
				"type": "unocc",
				"energy": 0.02515,
				"method": "rhf"
			},
			{
				"type": "unocc",
				"energy": 0.03741,
				"method": "rhf"
			}
		],
		"cosmo_sigma_profile": { 
			"-0.025": 0.0,
			"-0.024": 0.0,
			"-0.023": 0.0,
			"-0.022": 0.0,
			"-0.021": 0.0,
			"-0.02": 0.331898072479,
			"-0.019": 1.1542879803,
			"-0.018": 1.0898761399,
			"-0.017": 1.62399314058,
			"-0.016": 0.904705876171,
			"-0.015": 0.760674589565,
			"-0.014": 1.43406110744,
			"-0.013": 1.19722874606,
			"-0.012": 1.14459698766,
			"-0.011": 1.41102971615,
			"-0.01": 1.39639872655,
			"-0.009": 2.46742371877,
			"-0.008": 3.09928359524,
			"-0.007": 3.92319817335,
			"-0.006": 13.3237797115,
			"-0.005": 23.4881156672,
			"-0.004": 29.9497617286,
			"-0.003": 29.3424027653,
			"-0.002": 29.8299816105,
			"-0.001": 26.4564453053,
			"0.0": 21.5436557525,
			"0.001": 12.9077270205,
			"0.002": 14.0215149983,
			"0.003": 14.0829059415,
			"0.004": 14.0085180199,
			"0.005": 12.677676714,
			"0.006": 6.98407908347,
			"0.007": 6.54899248555,
			"0.008": 6.20440670161,
			"0.009": 8.83771733022,
			"0.01": 8.08373718065,
			"0.011": 6.84607152391,
			"0.012": 4.03902113462,
			"0.013": 4.89292717124,
			"0.014": 3.44258741479,
			"0.015": 0.282585088587,
			"0.016": 0.0,
			"0.017": 0.0,
			"0.018": 0.0,
			"0.019": 0.0,
			"0.02": 0.0,
			"0.021": 0.0,
			"0.022": 0.0,
			"0.023": 0.0,
			"0.024": 0.0,
			"0.025": 0.0
		}
	}
}
