{
	 "smiles": "[O-][N+](=O)C1=CC=CC2=CC=CC=C12", 
	 "Tm": 332.65, 
	 "num_atms": 20, 
	 "gaussian": { 
		 "optdone": 1, 
		 "sigma_profile": "yes", 
		 "theory": "DFT", 
		 "functional": "B3LYP", 
		 "basiset": "6-31G**", 
		 "properties": { 
			 "R2extent": 2342.913, 
			 "electric_dipole_moment_norm": 4.64081306669, 
			 "electric_quadrupole_moment_norm": 13.9622299007, 
			 "total_energy": -590.387211033, 
			 "HOMO_LUMO_gap": 0.14688, 
			 "cosmo_polarized_energy": -8.55, 
			 "cosmo_cavitation_energy": 24.39, 
			 "cosmo_dispersion_energy": -18.33, 
			 "cosmo_repulsion_energy": 1.41, 
			 "cosmo_total_nonelectrostatic_energy": 7.46, 
			 "SMD_solvation_energy": 6.09 
		},
		"coords": [
			{
				"x": -1.6686303966,
				"y": -0.4372327167,
				"z": 2.6758492508,
				"element": "O" 
			},
			{
				"x": -1.0101965398,
				"y": 0.5867921947,
				"z": 2.4836957146,
				"element": "N" 
			},
			{
				"x": -0.6375626858,
				"y": 1.3411946633,
				"z": 3.3830852427,
				"element": "O" 
			},
			{
				"x": -0.6674022064,
				"y": 0.9593933824,
				"z": 1.0987367349,
				"element": "C" 
			},
			{
				"x": -0.4231486318,
				"y": 2.3020842387,
				"z": 0.8938631354,
				"element": "C" 
			},
			{
				"x": -0.1222467886,
				"y": 2.7824165683,
				"z": -0.3944406257,
				"element": "C" 
			},
			{
				"x": -0.052794869,
				"y": 1.9022800943,
				"z": -1.4497317468,
				"element": "C" 
			},
			{
				"x": -0.2746032299,
				"y": 0.5125126806,
				"z": -1.2651984241,
				"element": "C" 
			},
			{
				"x": -0.1702804658,
				"y": -0.3819357057,
				"z": -2.3646304717,
				"element": "C" 
			},
			{
				"x": -0.3635883762,
				"y": -1.732414835,
				"z": -2.1989142806,
				"element": "C" 
			},
			{
				"x": -0.6682267225,
				"y": -2.2415900612,
				"z": -0.9160293802,
				"element": "C" 
			},
			{
				"x": -0.7884204842,
				"y": -1.4075762914,
				"z": 0.1744065822,
				"element": "C" 
			},
			{
				"x": -0.6008559158,
				"y": -0.0034501923,
				"z": 0.0391262624,
				"element": "C" 
			},
			{
				"x": -0.4752295061,
				"y": 2.9730725493,
				"z": 1.7418070518,
				"element": "H" 
			},
			{
				"x": 0.0509639574,
				"y": 3.8430810818,
				"z": -0.543494605,
				"element": "H" 
			},
			{
				"x": 0.1793413481,
				"y": 2.2602763336,
				"z": -2.4491813265,
				"element": "H" 
			},
			{
				"x": 0.0725984988,
				"y": 0.02714005,
				"z": -3.3415495613,
				"element": "H" 
			},
			{
				"x": -0.2791859426,
				"y": -2.4075342348,
				"z": -3.045103485,
				"element": "H" 
			},
			{
				"x": -0.8133632008,
				"y": -3.3097867269,
				"z": -0.7842553785,
				"element": "H" 
			},
			{
				"x": -1.0322678423,
				"y": -1.8162230728,
				"z": 1.1434593106,
				"element": "H" 
			}
		],
		 "valence_orbital": [ 
			{
				"type": "occ",
				"energy": -0.30584,
				"method": "rhf"
			},
			{
				"type": "occ",
				"energy": -0.30199,
				"method": "rhf"
			},
			{
				"type": "occ",
				"energy": -0.28282,
				"method": "rhf"
			},
			{
				"type": "occ",
				"energy": -0.26448,
				"method": "rhf"
			},
			{
				"type": "occ",
				"energy": -0.23789,
				"method": "rhf"
			},
			{
				"type": "unocc",
				"energy": -0.09101,
				"method": "rhf"
			},
			{
				"type": "unocc",
				"energy": -0.03912,
				"method": "rhf"
			},
			{
				"type": "unocc",
				"energy": -0.02926,
				"method": "rhf"
			},
			{
				"type": "unocc",
				"energy": 0.02292,
				"method": "rhf"
			},
			{
				"type": "unocc",
				"energy": 0.08129,
				"method": "rhf"
			}
		],
		"cosmo_sigma_profile": { 
			"-0.025": 0.0,
			"-0.024": 0.0,
			"-0.023": 0.0,
			"-0.022": 0.0,
			"-0.021": 0.0,
			"-0.02": 0.0,
			"-0.019": 0.0,
			"-0.018": 0.0,
			"-0.017": 0.0,
			"-0.016": 0.0,
			"-0.015": 0.0,
			"-0.014": 0.0,
			"-0.013": 0.0,
			"-0.012": 0.0,
			"-0.011": 0.0,
			"-0.01": 0.0,
			"-0.009": 0.0,
			"-0.008": 2.18355023686,
			"-0.007": 9.62217173873,
			"-0.006": 14.0692740407,
			"-0.005": 15.1476174823,
			"-0.004": 13.6702474612,
			"-0.003": 12.031396763,
			"-0.002": 10.7152588353,
			"-0.001": 10.7517260381,
			"0.0": 14.5728316248,
			"0.001": 20.0714670641,
			"0.002": 19.6737003584,
			"0.003": 14.658685643,
			"0.004": 10.7726907314,
			"0.005": 2.86439232207,
			"0.006": 4.0250909497,
			"0.007": 5.91192281942,
			"0.008": 7.70956717993,
			"0.009": 4.72634993417,
			"0.01": 3.18844095124,
			"0.011": 0.422960864594,
			"0.012": 0.0,
			"0.013": 0.0,
			"0.014": 0.0,
			"0.015": 0.0,
			"0.016": 0.0,
			"0.017": 0.0,
			"0.018": 0.0,
			"0.019": 0.0,
			"0.02": 0.0,
			"0.021": 0.0,
			"0.022": 0.0,
			"0.023": 0.0,
			"0.024": 0.0,
			"0.025": 0.0
		}
	}
}
