{
	 "smiles": "CC1=C(SC(=N1)C1=CC=C(C=C1)C(F)(F)F)C#N", 
	 "Tm": 429.15, 
	 "num_atms": 25, 
	 "gaussian": { 
		 "optdone": 1, 
		 "sigma_profile": "yes", 
		 "theory": "DFT", 
		 "functional": "B3LYP", 
		 "basiset": "6-31G**", 
		 "properties": { 
			 "R2extent": 7557.0598, 
			 "electric_dipole_moment_norm": 2.05194286958, 
			 "electric_quadrupole_moment_norm": 27.6136128464, 
			 "total_energy": -1268.70311284, 
			 "HOMO_LUMO_gap": 0.15378, 
			 "cosmo_polarized_energy": -9.59, 
			 "cosmo_cavitation_energy": 34.26, 
			 "cosmo_dispersion_energy": -24.36, 
			 "cosmo_repulsion_energy": 1.76, 
			 "cosmo_total_nonelectrostatic_energy": 11.66, 
			 "SMD_solvation_energy": 6.79 
		},
		"coords": [
			{
				"x": 1.1381628782,
				"y": 4.4789531891,
				"z": -0.9858491265,
				"element": "C" 
			},
			{
				"x": 0.1995143125,
				"y": 3.3134246871,
				"z": -0.9413724025,
				"element": "C" 
			},
			{
				"x": -0.9800274361,
				"y": 3.1990232837,
				"z": -1.6576821286,
				"element": "C" 
			},
			{
				"x": -1.7598506314,
				"y": 1.6760398205,
				"z": -1.3036054249,
				"element": "S" 
			},
			{
				"x": -0.4311141343,
				"y": 1.3044060881,
				"z": -0.2102940818,
				"element": "C" 
			},
			{
				"x": 0.4819227908,
				"y": 2.2425370467,
				"z": -0.1415932042,
				"element": "N" 
			},
			{
				"x": -0.3640536507,
				"y": 0.0504361085,
				"z": 0.5503394572,
				"element": "C" 
			},
			{
				"x": 0.7334834917,
				"y": -0.1673195446,
				"z": 1.4025185402,
				"element": "C" 
			},
			{
				"x": 0.8293578216,
				"y": -1.3420372229,
				"z": 2.1382528559,
				"element": "C" 
			},
			{
				"x": -0.1683012073,
				"y": -2.3167623179,
				"z": 2.0358015792,
				"element": "C" 
			},
			{
				"x": -1.2638577674,
				"y": -2.1100357964,
				"z": 1.1935567116,
				"element": "C" 
			},
			{
				"x": -1.3607229277,
				"y": -0.9344307564,
				"z": 0.4569590802,
				"element": "C" 
			},
			{
				"x": -0.0318521305,
				"y": -3.6128528089,
				"z": 2.7904431995,
				"element": "C" 
			},
			{
				"x": 0.6146958385,
				"y": -3.442233832,
				"z": 3.9637760319,
				"element": "F" 
			},
			{
				"x": -1.2343093806,
				"y": -4.1648722246,
				"z": 3.0613092873,
				"element": "F" 
			},
			{
				"x": 0.6715331515,
				"y": -4.5252262943,
				"z": 2.08157105,
				"element": "F" 
			},
			{
				"x": -1.5332272389,
				"y": 4.135828615,
				"z": -2.5599323306,
				"element": "C" 
			},
			{
				"x": -1.979673726,
				"y": 4.9161520345,
				"z": -3.3015718071,
				"element": "N" 
			},
			{
				"x": 2.1303131815,
				"y": 4.1515480278,
				"z": -1.313015834,
				"element": "H" 
			},
			{
				"x": 1.2512321427,
				"y": 4.910172091,
				"z": 0.0140821965,
				"element": "H" 
			},
			{
				"x": 0.7805391016,
				"y": 5.2541429448,
				"z": -1.6658727689,
				"element": "H" 
			},
			{
				"x": 1.4975235822,
				"y": 0.5979062334,
				"z": 1.4746358344,
				"element": "H" 
			},
			{
				"x": 1.6735867044,
				"y": -1.5020982785,
				"z": 2.8000424946,
				"element": "H" 
			},
			{
				"x": -2.0405447861,
				"y": -2.8632090815,
				"z": 1.1226036319,
				"element": "H" 
			},
			{
				"x": -2.2206299802,
				"y": -0.7874920123,
				"z": -0.1902028411,
				"element": "H" 
			}
		],
		 "valence_orbital": [ 
			{
				"type": "occ",
				"energy": -0.30751,
				"method": "rhf"
			},
			{
				"type": "occ",
				"energy": -0.30151,
				"method": "rhf"
			},
			{
				"type": "occ",
				"energy": -0.30018,
				"method": "rhf"
			},
			{
				"type": "occ",
				"energy": -0.28399,
				"method": "rhf"
			},
			{
				"type": "occ",
				"energy": -0.24767,
				"method": "rhf"
			},
			{
				"type": "unocc",
				"energy": -0.09389,
				"method": "rhf"
			},
			{
				"type": "unocc",
				"energy": -0.03584,
				"method": "rhf"
			},
			{
				"type": "unocc",
				"energy": -0.02846,
				"method": "rhf"
			},
			{
				"type": "unocc",
				"energy": -0.01953,
				"method": "rhf"
			},
			{
				"type": "unocc",
				"energy": 0.0091,
				"method": "rhf"
			}
		],
		"cosmo_sigma_profile": { 
			"-0.025": 0.0,
			"-0.024": 0.0,
			"-0.023": 0.0,
			"-0.022": 0.0,
			"-0.021": 0.0,
			"-0.02": 0.0,
			"-0.019": 0.0,
			"-0.018": 0.0,
			"-0.017": 0.0,
			"-0.016": 0.0,
			"-0.015": 0.0,
			"-0.014": 0.0,
			"-0.013": 0.0,
			"-0.012": 0.0,
			"-0.011": 0.0,
			"-0.01": 0.0,
			"-0.009": 0.384437847751,
			"-0.008": 3.51869472625,
			"-0.007": 6.70861392871,
			"-0.006": 12.0426768009,
			"-0.005": 14.7751536064,
			"-0.004": 16.6053537026,
			"-0.003": 21.9352880141,
			"-0.002": 29.8755924146,
			"-0.001": 27.5705444731,
			"0.0": 22.2153920038,
			"0.001": 29.6647381268,
			"0.002": 33.7100328995,
			"0.003": 27.1883622086,
			"0.004": 3.76556612874,
			"0.005": 3.92124489844,
			"0.006": 3.77623846975,
			"0.007": 3.63611041702,
			"0.008": 4.87475592921,
			"0.009": 4.10080909177,
			"0.01": 3.72840514047,
			"0.011": 2.70744010587,
			"0.012": 2.13269011039,
			"0.013": 0.716615669089,
			"0.014": 0.0,
			"0.015": 0.0,
			"0.016": 0.0,
			"0.017": 0.0,
			"0.018": 0.0,
			"0.019": 0.0,
			"0.02": 0.0,
			"0.021": 0.0,
			"0.022": 0.0,
			"0.023": 0.0,
			"0.024": 0.0,
			"0.025": 0.0
		}
	}
}
