{
	 "smiles": "CCCCCOC1=CC=C(C=C1)C(O)=O", 
	 "Tm": 398.15, 
	 "num_atms": 31, 
	 "gaussian": { 
		 "optdone": 1, 
		 "sigma_profile": "yes", 
		 "theory": "DFT", 
		 "functional": "B3LYP", 
		 "basiset": "6-31G**", 
		 "properties": { 
			 "R2extent": 7180.096, 
			 "electric_dipole_moment_norm": 6.87187133538, 
			 "electric_quadrupole_moment_norm": 42.7412628376, 
			 "total_energy": -692.603019494, 
			 "HOMO_LUMO_gap": 0.1959, 
			 "cosmo_polarized_energy": -15.9, 
			 "cosmo_cavitation_energy": 33.9, 
			 "cosmo_dispersion_energy": -24.21, 
			 "cosmo_repulsion_energy": 1.91, 
			 "cosmo_total_nonelectrostatic_energy": 11.61, 
			 "SMD_solvation_energy": 6.77 
		},
		"coords": [
			{
				"x": -0.0121473633,
				"y": -1.7552381755,
				"z": -1.5078150427,
				"element": "C" 
			},
			{
				"x": 0.525113055,
				"y": -2.5087687972,
				"z": -0.285459327,
				"element": "C" 
			},
			{
				"x": -0.3847486177,
				"y": -2.5225510091,
				"z": 0.9562400815,
				"element": "C" 
			},
			{
				"x": -0.6145780726,
				"y": -1.1677558947,
				"z": 1.6604473956,
				"element": "C" 
			},
			{
				"x": -1.7952638723,
				"y": -0.3618649777,
				"z": 1.111207966,
				"element": "C" 
			},
			{
				"x": -2.1044474779,
				"y": 0.7704623149,
				"z": 1.9354230179,
				"element": "O" 
			},
			{
				"x": -1.4124248182,
				"y": 1.9301494831,
				"z": 1.8014316534,
				"element": "C" 
			},
			{
				"x": -0.3758691674,
				"y": 2.1531828316,
				"z": 0.8831582582,
				"element": "C" 
			},
			{
				"x": 0.2491909769,
				"y": 3.3992082596,
				"z": 0.8398725265,
				"element": "C" 
			},
			{
				"x": -0.132964041,
				"y": 4.4368767038,
				"z": 1.6980997016,
				"element": "C" 
			},
			{
				"x": -1.1871096911,
				"y": 4.2051569807,
				"z": 2.5993255924,
				"element": "C" 
			},
			{
				"x": -1.8116762085,
				"y": 2.9718332092,
				"z": 2.6593732473,
				"element": "C" 
			},
			{
				"x": 0.4898126301,
				"y": 5.7935404248,
				"z": 1.6852294661,
				"element": "C" 
			},
			{
				"x": 1.7147337898,
				"y": 5.904051707,
				"z": 1.0962941592,
				"element": "O" 
			},
			{
				"x": -0.0331519526,
				"y": 6.7734868342,
				"z": 2.1645658335,
				"element": "O" 
			},
			{
				"x": -1.009878818,
				"y": -2.1112079184,
				"z": -1.7897518064,
				"element": "H" 
			},
			{
				"x": -0.0810869499,
				"y": -0.6762611927,
				"z": -1.3331320313,
				"element": "H" 
			},
			{
				"x": 0.6448575997,
				"y": -1.8970907427,
				"z": -2.3721239698,
				"element": "H" 
			},
			{
				"x": 0.7124451708,
				"y": -3.5508008944,
				"z": -0.5741227103,
				"element": "H" 
			},
			{
				"x": 1.5034008215,
				"y": -2.0956186068,
				"z": -0.0043290681,
				"element": "H" 
			},
			{
				"x": 0.0646314211,
				"y": -3.2065181165,
				"z": 1.6857145684,
				"element": "H" 
			},
			{
				"x": -1.3550617162,
				"y": -2.9683301289,
				"z": 0.6929973342,
				"element": "H" 
			},
			{
				"x": -0.8268630355,
				"y": -1.3423389854,
				"z": 2.721470051,
				"element": "H" 
			},
			{
				"x": 0.3028551647,
				"y": -0.5673219401,
				"z": 1.6271769752,
				"element": "H" 
			},
			{
				"x": -1.6496816998,
				"y": -0.0434582053,
				"z": 0.0738065812,
				"element": "H" 
			},
			{
				"x": -2.7030497031,
				"y": -0.9718719039,
				"z": 1.1416748984,
				"element": "H" 
			},
			{
				"x": -0.0544263865,
				"y": 1.3758882214,
				"z": 0.2011230984,
				"element": "H" 
			},
			{
				"x": 1.0218582534,
				"y": 3.5536265531,
				"z": 0.0898506224,
				"element": "H" 
			},
			{
				"x": -1.4976237067,
				"y": 5.0176793121,
				"z": 3.2473297325,
				"element": "H" 
			},
			{
				"x": -2.6209389487,
				"y": 2.7814669234,
				"z": 3.3563791788,
				"element": "H" 
			},
			{
				"x": 2.079193364,
				"y": 5.0253877304,
				"z": 0.9238420161,
				"element": "H" 
			}
		],
		 "valence_orbital": [ 
			{
				"type": "occ",
				"energy": -0.32417,
				"method": "rhf"
			},
			{
				"type": "occ",
				"energy": -0.30582,
				"method": "rhf"
			},
			{
				"type": "occ",
				"energy": -0.269,
				"method": "rhf"
			},
			{
				"type": "occ",
				"energy": -0.26418,
				"method": "rhf"
			},
			{
				"type": "occ",
				"energy": -0.23356,
				"method": "rhf"
			},
			{
				"type": "unocc",
				"energy": -0.03766,
				"method": "rhf"
			},
			{
				"type": "unocc",
				"energy": -0.01813,
				"method": "rhf"
			},
			{
				"type": "unocc",
				"energy": 0.05115,
				"method": "rhf"
			},
			{
				"type": "unocc",
				"energy": 0.05843,
				"method": "rhf"
			},
			{
				"type": "unocc",
				"energy": 0.07131,
				"method": "rhf"
			}
		],
		"cosmo_sigma_profile": { 
			"-0.025": 0.0,
			"-0.024": 0.0,
			"-0.023": 0.0,
			"-0.022": 0.0,
			"-0.021": 0.0,
			"-0.02": 0.0,
			"-0.019": 0.149088742086,
			"-0.018": 0.662950669768,
			"-0.017": 1.11081440565,
			"-0.016": 0.807190033578,
			"-0.015": 1.12332344552,
			"-0.014": 0.660872374023,
			"-0.013": 1.02790419356,
			"-0.012": 1.02035524971,
			"-0.011": 1.29787796435,
			"-0.01": 1.01804768686,
			"-0.009": 1.22104743729,
			"-0.008": 2.37033272581,
			"-0.007": 4.22047850533,
			"-0.006": 8.44303823192,
			"-0.005": 11.6878036615,
			"-0.004": 12.2050018299,
			"-0.003": 21.6927702868,
			"-0.002": 32.3087657527,
			"-0.001": 29.6934615772,
			"0.0": 30.1417015316,
			"0.001": 23.7380370155,
			"0.002": 15.2791532142,
			"0.003": 16.7360277514,
			"0.004": 10.0436024525,
			"0.005": 4.3799601597,
			"0.006": 3.04815836108,
			"0.007": 3.28647936431,
			"0.008": 4.23200406857,
			"0.009": 4.4310550099,
			"0.01": 4.42224180401,
			"0.011": 5.3555464403,
			"0.012": 5.7603263295,
			"0.013": 2.7178520773,
			"0.014": 0.391262636621,
			"0.015": 0.0,
			"0.016": 0.0,
			"0.017": 0.0,
			"0.018": 0.0,
			"0.019": 0.0,
			"0.02": 0.0,
			"0.021": 0.0,
			"0.022": 0.0,
			"0.023": 0.0,
			"0.024": 0.0,
			"0.025": 0.0
		}
	}
}
