{
	 "smiles": "CCN1N=C(CC1=O)C1=CC=CC=C1", 
	 "Tm": 414.15, 
	 "num_atms": 26, 
	 "gaussian": { 
		 "optdone": 1, 
		 "sigma_profile": "yes", 
		 "theory": "DFT", 
		 "functional": "B3LYP", 
		 "basiset": "6-31G**", 
		 "properties": { 
			 "R2extent": 4055.8018, 
			 "electric_dipole_moment_norm": 2.56676821899, 
			 "electric_quadrupole_moment_norm": 14.2215971185, 
			 "total_energy": -611.125713074, 
			 "HOMO_LUMO_gap": 0.16034, 
			 "cosmo_polarized_energy": -10.94, 
			 "cosmo_cavitation_energy": 29.88, 
			 "cosmo_dispersion_energy": -21.62, 
			 "cosmo_repulsion_energy": 1.72, 
			 "cosmo_total_nonelectrostatic_energy": 9.98, 
			 "SMD_solvation_energy": 4.88 
		},
		"coords": [
			{
				"x": 0.7210556988,
				"y": 2.4622864603,
				"z": -2.6392337667,
				"element": "C" 
			},
			{
				"x": -0.4821831163,
				"y": 2.8158847275,
				"z": -1.7633261522,
				"element": "C" 
			},
			{
				"x": -1.2317829752,
				"y": 1.6473689415,
				"z": -1.3354316196,
				"element": "N" 
			},
			{
				"x": -0.6693664561,
				"y": 0.7475421657,
				"z": -0.4480484754,
				"element": "N" 
			},
			{
				"x": -1.5188889315,
				"y": -0.2114712308,
				"z": -0.238875531,
				"element": "C" 
			},
			{
				"x": -2.7914687001,
				"y": -0.0119625828,
				"z": -1.0236634039,
				"element": "C" 
			},
			{
				"x": -2.5015032049,
				"y": 1.2984943549,
				"z": -1.7584211106,
				"element": "C" 
			},
			{
				"x": -3.1994398451,
				"y": 1.9221093472,
				"z": -2.5383739683,
				"element": "O" 
			},
			{
				"x": -1.2264125622,
				"y": -1.3281394644,
				"z": 0.6634298131,
				"element": "C" 
			},
			{
				"x": 0.0042052712,
				"y": -1.3982468935,
				"z": 1.3439149351,
				"element": "C" 
			},
			{
				"x": 0.2768323209,
				"y": -2.4601758224,
				"z": 2.1985431927,
				"element": "C" 
			},
			{
				"x": -0.6690924903,
				"y": -3.4729878913,
				"z": 2.3929134063,
				"element": "C" 
			},
			{
				"x": -1.8915615078,
				"y": -3.41319254,
				"z": 1.7236263471,
				"element": "C" 
			},
			{
				"x": -2.1693129096,
				"y": -2.3494232708,
				"z": 0.865225975,
				"element": "C" 
			},
			{
				"x": 1.4055747114,
				"y": 1.7987491205,
				"z": -2.1035202544,
				"element": "H" 
			},
			{
				"x": 0.4006677455,
				"y": 1.961899421,
				"z": -3.5579230394,
				"element": "H" 
			},
			{
				"x": 1.2661401895,
				"y": 3.3707976284,
				"z": -2.9144971592,
				"element": "H" 
			},
			{
				"x": -1.1992337482,
				"y": 3.4354435652,
				"z": -2.3080676918,
				"element": "H" 
			},
			{
				"x": -0.1611022654,
				"y": 3.3655119652,
				"z": -0.8714556827,
				"element": "H" 
			},
			{
				"x": -3.6807525754,
				"y": 0.0928963539,
				"z": -0.3928466796,
				"element": "H" 
			},
			{
				"x": -2.9934274439,
				"y": -0.8156178516,
				"z": -1.7398864207,
				"element": "H" 
			},
			{
				"x": 0.7326594147,
				"y": -0.6096084484,
				"z": 1.1888424604,
				"element": "H" 
			},
			{
				"x": 1.2303982947,
				"y": -2.5013975487,
				"z": 2.7172290241,
				"element": "H" 
			},
			{
				"x": -0.4525993802,
				"y": -4.3010863538,
				"z": 3.0614279687,
				"element": "H" 
			},
			{
				"x": -2.6317641314,
				"y": -4.1947240341,
				"z": 1.8684829182,
				"element": "H" 
			},
			{
				"x": -3.1248414031,
				"y": -2.3144501186,
				"z": 0.3501349149,
				"element": "H" 
			}
		],
		 "valence_orbital": [ 
			{
				"type": "occ",
				"energy": -0.31016,
				"method": "rhf"
			},
			{
				"type": "occ",
				"energy": -0.275,
				"method": "rhf"
			},
			{
				"type": "occ",
				"energy": -0.2583,
				"method": "rhf"
			},
			{
				"type": "occ",
				"energy": -0.25134,
				"method": "rhf"
			},
			{
				"type": "occ",
				"energy": -0.21359,
				"method": "rhf"
			},
			{
				"type": "unocc",
				"energy": -0.05325,
				"method": "rhf"
			},
			{
				"type": "unocc",
				"energy": -0.0078,
				"method": "rhf"
			},
			{
				"type": "unocc",
				"energy": 0.01379,
				"method": "rhf"
			},
			{
				"type": "unocc",
				"energy": 0.05838,
				"method": "rhf"
			},
			{
				"type": "unocc",
				"energy": 0.08651,
				"method": "rhf"
			}
		],
		"cosmo_sigma_profile": { 
			"-0.025": 0.0,
			"-0.024": 0.0,
			"-0.023": 0.0,
			"-0.022": 0.0,
			"-0.021": 0.0,
			"-0.02": 0.0,
			"-0.019": 0.0,
			"-0.018": 0.0,
			"-0.017": 0.0,
			"-0.016": 0.0,
			"-0.015": 0.0,
			"-0.014": 0.0,
			"-0.013": 0.0,
			"-0.012": 0.0,
			"-0.011": 0.0,
			"-0.01": 0.0,
			"-0.009": 0.564151674813,
			"-0.008": 4.4635538924,
			"-0.007": 7.58288467734,
			"-0.006": 12.5314650864,
			"-0.005": 16.8910450872,
			"-0.004": 21.3052910452,
			"-0.003": 22.4592311958,
			"-0.002": 20.4669631936,
			"-0.001": 18.7568952975,
			"0.0": 18.3916013223,
			"0.001": 14.853049359,
			"0.002": 12.583175247,
			"0.003": 13.3158928763,
			"0.004": 14.5616651579,
			"0.005": 13.1957341997,
			"0.006": 3.17892593481,
			"0.007": 2.81391971766,
			"0.008": 2.4935339096,
			"0.009": 2.11841028256,
			"0.01": 2.60648010273,
			"0.011": 1.95344849447,
			"0.012": 3.32540348053,
			"0.013": 5.78083913946,
			"0.014": 1.54298564956,
			"0.015": 0.0106831473031,
			"0.016": 0.0,
			"0.017": 0.0,
			"0.018": 0.0,
			"0.019": 0.0,
			"0.02": 0.0,
			"0.021": 0.0,
			"0.022": 0.0,
			"0.023": 0.0,
			"0.024": 0.0,
			"0.025": 0.0
		}
	}
}
