{
	 "smiles": "COC(=O)C1=CSC=C1SC1=CC=C(Cl)C=C1", 
	 "Tm": 351.15, 
	 "num_atms": 26, 
	 "gaussian": { 
		 "optdone": 1, 
		 "sigma_profile": "yes", 
		 "theory": "DFT", 
		 "functional": "B3LYP", 
		 "basiset": "6-31G**", 
		 "properties": { 
			 "R2extent": 6473.1854, 
			 "electric_dipole_moment_norm": 1.19044015389, 
			 "electric_quadrupole_moment_norm": 14.6329242095, 
			 "total_energy": -1869.70198143, 
			 "HOMO_LUMO_gap": 0.16919, 
			 "cosmo_polarized_energy": -10.27, 
			 "cosmo_cavitation_energy": 36.17, 
			 "cosmo_dispersion_energy": -25.64, 
			 "cosmo_repulsion_energy": 1.92, 
			 "cosmo_total_nonelectrostatic_energy": 12.46, 
			 "SMD_solvation_energy": 7.09 
		},
		"coords": [
			{
				"x": -0.2380875063,
				"y": -0.8964437951,
				"z": 3.0001535551,
				"element": "C" 
			},
			{
				"x": 0.271642977,
				"y": -0.3511552055,
				"z": 1.7722097969,
				"element": "O" 
			},
			{
				"x": 1.6093405414,
				"y": -0.2369435837,
				"z": 1.703622206,
				"element": "C" 
			},
			{
				"x": 2.3588098775,
				"y": -0.5634285003,
				"z": 2.6046915227,
				"element": "O" 
			},
			{
				"x": 2.0847951602,
				"y": 0.3191745617,
				"z": 0.4082001187,
				"element": "C" 
			},
			{
				"x": 3.440341041,
				"y": 0.3959005292,
				"z": 0.2040968317,
				"element": "C" 
			},
			{
				"x": 3.8451138199,
				"y": 1.0667135253,
				"z": -1.3284105788,
				"element": "S" 
			},
			{
				"x": 2.1706739373,
				"y": 1.2454816531,
				"z": -1.7373205703,
				"element": "C" 
			},
			{
				"x": 1.3397880796,
				"y": 0.8173374017,
				"z": -0.7330230366,
				"element": "C" 
			},
			{
				"x": -0.4141800284,
				"y": 1.0759679214,
				"z": -0.8978019512,
				"element": "S" 
			},
			{
				"x": -1.0902391509,
				"y": -0.5781867867,
				"z": -1.0094837804,
				"element": "C" 
			},
			{
				"x": -2.4281824811,
				"y": -0.7501946016,
				"z": -0.6308103381,
				"element": "C" 
			},
			{
				"x": -3.043574766,
				"y": -1.9952965918,
				"z": -0.7506581823,
				"element": "C" 
			},
			{
				"x": -2.308425434,
				"y": -3.0767605482,
				"z": -1.2345339101,
				"element": "C" 
			},
			{
				"x": -3.0731569465,
				"y": -4.6541400892,
				"z": -1.371181586,
				"element": "Cl" 
			},
			{
				"x": -0.9741061314,
				"y": -2.9237709323,
				"z": -1.6089673583,
				"element": "C" 
			},
			{
				"x": -0.3707740875,
				"y": -1.670933052,
				"z": -1.5055069159,
				"element": "C" 
			},
			{
				"x": 0.0186008203,
				"y": -0.2494220174,
				"z": 3.8426039793,
				"element": "H" 
			},
			{
				"x": -1.3182213712,
				"y": -0.9476487602,
				"z": 2.8679864137,
				"element": "H" 
			},
			{
				"x": 0.1766039362,
				"y": -1.8912386722,
				"z": 3.1791603158,
				"element": "H" 
			},
			{
				"x": 4.201179998,
				"y": 0.0874255579,
				"z": 0.906849776,
				"element": "H" 
			},
			{
				"x": 1.8770807564,
				"y": 1.662375034,
				"z": -2.6901877266,
				"element": "H" 
			},
			{
				"x": -2.9925103422,
				"y": 0.0890485937,
				"z": -0.23498924,
				"element": "H" 
			},
			{
				"x": -4.0798107847,
				"y": -2.1275588218,
				"z": -0.4593530587,
				"element": "H" 
			},
			{
				"x": -0.414757683,
				"y": -3.7726429709,
				"z": -1.9869266954,
				"element": "H" 
			},
			{
				"x": 0.6630557685,
				"y": -1.5493598489,
				"z": -1.8109195875,
				"element": "H" 
			}
		],
		 "valence_orbital": [ 
			{
				"type": "occ",
				"energy": -0.28001,
				"method": "rhf"
			},
			{
				"type": "occ",
				"energy": -0.27039,
				"method": "rhf"
			},
			{
				"type": "occ",
				"energy": -0.26741,
				"method": "rhf"
			},
			{
				"type": "occ",
				"energy": -0.2586,
				"method": "rhf"
			},
			{
				"type": "occ",
				"energy": -0.21843,
				"method": "rhf"
			},
			{
				"type": "unocc",
				"energy": -0.04924,
				"method": "rhf"
			},
			{
				"type": "unocc",
				"energy": -0.02459,
				"method": "rhf"
			},
			{
				"type": "unocc",
				"energy": -0.01988,
				"method": "rhf"
			},
			{
				"type": "unocc",
				"energy": -0.01394,
				"method": "rhf"
			},
			{
				"type": "unocc",
				"energy": 0.01072,
				"method": "rhf"
			}
		],
		"cosmo_sigma_profile": { 
			"-0.025": 0.0,
			"-0.024": 0.0,
			"-0.023": 0.0,
			"-0.022": 0.0,
			"-0.021": 0.0,
			"-0.02": 0.0,
			"-0.019": 0.0,
			"-0.018": 0.0,
			"-0.017": 0.0,
			"-0.016": 0.0,
			"-0.015": 0.0,
			"-0.014": 0.0,
			"-0.013": 0.0,
			"-0.012": 0.0,
			"-0.011": 0.0,
			"-0.01": 1.11594702368,
			"-0.009": 3.6162184255,
			"-0.008": 4.25640484231,
			"-0.007": 8.92749685689,
			"-0.006": 14.6895939886,
			"-0.005": 16.8235994777,
			"-0.004": 18.4480136873,
			"-0.003": 20.7985338593,
			"-0.002": 17.8849071876,
			"-0.001": 23.1620246229,
			"0.0": 26.2135951794,
			"0.001": 33.2286660481,
			"0.002": 28.006586615,
			"0.003": 25.1155416577,
			"0.004": 19.3320958535,
			"0.005": 12.7972285847,
			"0.006": 4.84480310959,
			"0.007": 3.58262444127,
			"0.008": 2.68936712165,
			"0.009": 2.08182920178,
			"0.01": 2.2439095325,
			"0.011": 2.89624479779,
			"0.012": 4.13659293275,
			"0.013": 0.223899756412,
			"0.014": 0.0,
			"0.015": 0.0,
			"0.016": 0.0,
			"0.017": 0.0,
			"0.018": 0.0,
			"0.019": 0.0,
			"0.02": 0.0,
			"0.021": 0.0,
			"0.022": 0.0,
			"0.023": 0.0,
			"0.024": 0.0,
			"0.025": 0.0
		}
	}
}
