{
	 "smiles": "NC1CC(C=C1)C(O)=O", 
	 "Tm": 453.15, 
	 "num_atms": 18, 
	 "gaussian": { 
		 "optdone": 1, 
		 "sigma_profile": "yes", 
		 "theory": "DFT", 
		 "functional": "B3LYP", 
		 "basiset": "6-31G**", 
		 "properties": { 
			 "R2extent": 1802.0351, 
			 "electric_dipole_moment_norm": 4.25386602281, 
			 "electric_quadrupole_moment_norm": 17.627889752, 
			 "total_energy": -439.242252091, 
			 "HOMO_LUMO_gap": 0.21079, 
			 "cosmo_polarized_energy": -16.27, 
			 "cosmo_cavitation_energy": 20.75, 
			 "cosmo_dispersion_energy": -15.53, 
			 "cosmo_repulsion_energy": 1.29, 
			 "cosmo_total_nonelectrostatic_energy": 6.52, 
			 "SMD_solvation_energy": 3.23 
		},
		"coords": [
			{
				"x": -3.1048016837,
				"y": -0.7869506141,
				"z": 0.243531315,
				"element": "N" 
			},
			{
				"x": -1.9265521588,
				"y": -0.1242226573,
				"z": 0.8211216,
				"element": "C" 
			},
			{
				"x": -1.7815467673,
				"y": 1.320347863,
				"z": 0.2721761778,
				"element": "C" 
			},
			{
				"x": -0.6535046323,
				"y": 1.2734139105,
				"z": -0.7912251716,
				"element": "C" 
			},
			{
				"x": 0.0918830956,
				"y": -0.0072103553,
				"z": -0.4370205043,
				"element": "C" 
			},
			{
				"x": -0.5941394233,
				"y": -0.7476274787,
				"z": 0.4365788156,
				"element": "C" 
			},
			{
				"x": -1.1887205551,
				"y": 1.150173917,
				"z": -2.2233848705,
				"element": "C" 
			},
			{
				"x": -0.3994576334,
				"y": 1.6641785191,
				"z": -3.2016469991,
				"element": "O" 
			},
			{
				"x": -2.2199022668,
				"y": 0.5935551976,
				"z": -2.5164585438,
				"element": "O" 
			},
			{
				"x": -3.1191074483,
				"y": -1.7712676626,
				"z": 0.5025138806,
				"element": "H" 
			},
			{
				"x": -3.0370748737,
				"y": -0.7403924255,
				"z": -0.7728150625,
				"element": "H" 
			},
			{
				"x": -2.0621552238,
				"y": -0.1160331774,
				"z": 1.9099538768,
				"element": "H" 
			},
			{
				"x": -1.4718112542,
				"y": 1.9938001331,
				"z": 1.076227338,
				"element": "H" 
			},
			{
				"x": -2.729210959,
				"y": 1.6811055352,
				"z": -0.1313534591,
				"element": "H" 
			},
			{
				"x": -0.0030857428,
				"y": 2.1571409539,
				"z": -0.7241881387,
				"element": "H" 
			},
			{
				"x": 1.0327124438,
				"y": -0.2816423916,
				"z": -0.9054885128,
				"element": "H" 
			},
			{
				"x": -0.2804464935,
				"y": -1.7229445796,
				"z": 0.8000023323,
				"element": "H" 
			},
			{
				"x": 0.3729215768,
				"y": 2.0968753128,
				"z": -2.8118240737,
				"element": "H" 
			}
		],
		 "valence_orbital": [ 
			{
				"type": "occ",
				"energy": -0.33739,
				"method": "rhf"
			},
			{
				"type": "occ",
				"energy": -0.31954,
				"method": "rhf"
			},
			{
				"type": "occ",
				"energy": -0.28741,
				"method": "rhf"
			},
			{
				"type": "occ",
				"energy": -0.25979,
				"method": "rhf"
			},
			{
				"type": "occ",
				"energy": -0.22389,
				"method": "rhf"
			},
			{
				"type": "unocc",
				"energy": -0.0131,
				"method": "rhf"
			},
			{
				"type": "unocc",
				"energy": 0.02878,
				"method": "rhf"
			},
			{
				"type": "unocc",
				"energy": 0.04833,
				"method": "rhf"
			},
			{
				"type": "unocc",
				"energy": 0.09494,
				"method": "rhf"
			},
			{
				"type": "unocc",
				"energy": 0.12243,
				"method": "rhf"
			}
		],
		"cosmo_sigma_profile": { 
			"-0.025": 0.0,
			"-0.024": 0.0,
			"-0.023": 0.0,
			"-0.022": 0.0,
			"-0.021": 0.0,
			"-0.02": 0.0,
			"-0.019": 0.539217276778,
			"-0.018": 1.16985897692,
			"-0.017": 1.11133626459,
			"-0.016": 1.23756404053,
			"-0.015": 1.18063132181,
			"-0.014": 1.2196856162,
			"-0.013": 0.948099503295,
			"-0.012": 0.917196314928,
			"-0.011": 1.20588582158,
			"-0.01": 1.6068100022,
			"-0.009": 2.28027758189,
			"-0.008": 2.79246487423,
			"-0.007": 4.11967193056,
			"-0.006": 7.47040233608,
			"-0.005": 8.84934875788,
			"-0.004": 12.6690844329,
			"-0.003": 14.5324611106,
			"-0.002": 13.1486461079,
			"-0.001": 10.5577401274,
			"0.0": 8.42383039285,
			"0.001": 6.20065793909,
			"0.002": 7.54792094664,
			"0.003": 5.78224194531,
			"0.004": 6.32510299744,
			"0.005": 5.49273710341,
			"0.006": 4.27321364698,
			"0.007": 3.77362852586,
			"0.008": 3.86875060937,
			"0.009": 3.73653740898,
			"0.01": 5.70572926516,
			"0.011": 4.58734725954,
			"0.012": 3.05214609182,
			"0.013": 1.99055710889,
			"0.014": 0.82659938486,
			"0.015": 0.768342601713,
			"0.016": 0.764417706033,
			"0.017": 0.31733323411,
			"0.018": 0.385270035293,
			"0.019": 0.83375488235,
			"0.02": 0.268554764105,
			"0.021": 0.0,
			"0.022": 0.0,
			"0.023": 0.0,
			"0.024": 0.0,
			"0.025": 0.0
		}
	}
}
