{
	 "smiles": "NC(=O)C1=CC=CC=C1[N+]([O-])=O", 
	 "Tm": 449.15, 
	 "num_atms": 18, 
	 "gaussian": { 
		 "optdone": 1, 
		 "sigma_profile": "yes", 
		 "theory": "DFT", 
		 "functional": "B3LYP", 
		 "basiset": "6-31G**", 
		 "properties": { 
			 "R2extent": 2185.1003, 
			 "electric_dipole_moment_norm": 5.4067967134, 
			 "electric_quadrupole_moment_norm": 15.6383289433, 
			 "total_energy": -605.441616353, 
			 "HOMO_LUMO_gap": 0.16222, 
			 "cosmo_polarized_energy": -16.72, 
			 "cosmo_cavitation_energy": 23.65, 
			 "cosmo_dispersion_energy": -16.97, 
			 "cosmo_repulsion_energy": 1.37, 
			 "cosmo_total_nonelectrostatic_energy": 8.05, 
			 "SMD_solvation_energy": 6.88 
		},
		"coords": [
			{
				"x": 1.6703046863,
				"y": -1.0750933356,
				"z": -3.0171205394,
				"element": "N" 
			},
			{
				"x": 1.140551065,
				"y": -1.6507033033,
				"z": -1.8942639806,
				"element": "C" 
			},
			{
				"x": 1.1279276012,
				"y": -2.8505170512,
				"z": -1.6849939053,
				"element": "O" 
			},
			{
				"x": 0.7211553325,
				"y": -0.6714951532,
				"z": -0.8091966078,
				"element": "C" 
			},
			{
				"x": 1.7163682293,
				"y": -0.1671548703,
				"z": 0.0360897901,
				"element": "C" 
			},
			{
				"x": 1.3917105687,
				"y": 0.6241943665,
				"z": 1.1385047129,
				"element": "C" 
			},
			{
				"x": 0.0569979894,
				"y": 0.91829128,
				"z": 1.4256522335,
				"element": "C" 
			},
			{
				"x": -0.9510032028,
				"y": 0.4265616832,
				"z": 0.6015022501,
				"element": "C" 
			},
			{
				"x": -0.6075851881,
				"y": -0.3517102072,
				"z": -0.5033432773,
				"element": "C" 
			},
			{
				"x": -1.6990646498,
				"y": -0.7973929716,
				"z": -1.3853586713,
				"element": "N" 
			},
			{
				"x": -1.394685765,
				"y": -1.1752781369,
				"z": -2.517200988,
				"element": "O" 
			},
			{
				"x": -2.846848425,
				"y": -0.7428300183,
				"z": -0.9499977997,
				"element": "O" 
			},
			{
				"x": 1.3755515317,
				"y": -0.1424508619,
				"z": -3.2673131652,
				"element": "H" 
			},
			{
				"x": 1.8457249501,
				"y": -1.7094737314,
				"z": -3.7855162266,
				"element": "H" 
			},
			{
				"x": 2.7532083807,
				"y": -0.4110650473,
				"z": -0.1729914864,
				"element": "H" 
			},
			{
				"x": 2.182665415,
				"y": 1.0059294405,
				"z": 1.7769774413,
				"element": "H" 
			},
			{
				"x": -0.1990041854,
				"y": 1.5308262602,
				"z": 2.2840591943,
				"element": "H" 
			},
			{
				"x": -1.9969743337,
				"y": 0.6353616578,
				"z": 0.7884110253,
				"element": "H" 
			}
		],
		 "valence_orbital": [ 
			{
				"type": "occ",
				"energy": -0.30159,
				"method": "rhf"
			},
			{
				"type": "occ",
				"energy": -0.28903,
				"method": "rhf"
			},
			{
				"type": "occ",
				"energy": -0.28554,
				"method": "rhf"
			},
			{
				"type": "occ",
				"energy": -0.28035,
				"method": "rhf"
			},
			{
				"type": "occ",
				"energy": -0.25603,
				"method": "rhf"
			},
			{
				"type": "unocc",
				"energy": -0.09381,
				"method": "rhf"
			},
			{
				"type": "unocc",
				"energy": -0.03528,
				"method": "rhf"
			},
			{
				"type": "unocc",
				"energy": -0.00969,
				"method": "rhf"
			},
			{
				"type": "unocc",
				"energy": 0.01803,
				"method": "rhf"
			},
			{
				"type": "unocc",
				"energy": 0.07226,
				"method": "rhf"
			}
		],
		"cosmo_sigma_profile": { 
			"-0.025": 0.0,
			"-0.024": 0.0,
			"-0.023": 0.0,
			"-0.022": 0.0,
			"-0.021": 0.0,
			"-0.02": 0.0,
			"-0.019": 0.0,
			"-0.018": 0.0,
			"-0.017": 0.0,
			"-0.016": 0.0,
			"-0.015": 0.503052138204,
			"-0.014": 1.91945814172,
			"-0.013": 2.62447038324,
			"-0.012": 2.40890355912,
			"-0.011": 1.99499357944,
			"-0.01": 2.13169973619,
			"-0.009": 1.88026033828,
			"-0.008": 6.48498806441,
			"-0.007": 10.7914019824,
			"-0.006": 12.4720763903,
			"-0.005": 9.36547071224,
			"-0.004": 10.3736603242,
			"-0.003": 8.95855685486,
			"-0.002": 8.22834046451,
			"-0.001": 10.3122689329,
			"0.0": 13.2248462219,
			"0.001": 13.8562683888,
			"0.002": 11.8001822249,
			"0.003": 4.79388662131,
			"0.004": 4.27358612805,
			"0.005": 5.4804321219,
			"0.006": 6.49610027601,
			"0.007": 10.3441277423,
			"0.008": 7.50229562395,
			"0.009": 5.29295496821,
			"0.01": 3.51152963192,
			"0.011": 1.9542211454,
			"0.012": 3.69156816006,
			"0.013": 5.423823063,
			"0.014": 1.06921091924,
			"0.015": 0.0,
			"0.016": 0.0,
			"0.017": 0.0,
			"0.018": 0.0,
			"0.019": 0.0,
			"0.02": 0.0,
			"0.021": 0.0,
			"0.022": 0.0,
			"0.023": 0.0,
			"0.024": 0.0,
			"0.025": 0.0
		}
	}
}
