{
	 "smiles": "COC1=CC(=NC2=C1C=CC=C2)C(O)=O", 
	 "Tm": 470.15, 
	 "num_atms": 24, 
	 "gaussian": { 
		 "optdone": 1, 
		 "sigma_profile": "yes", 
		 "theory": "DFT", 
		 "functional": "B3LYP", 
		 "basiset": "6-31G**", 
		 "properties": { 
			 "R2extent": 3485.2977, 
			 "electric_dipole_moment_norm": 5.5734051046, 
			 "electric_quadrupole_moment_norm": 21.5349518662, 
			 "total_energy": -705.037932314, 
			 "HOMO_LUMO_gap": 0.16753, 
			 "cosmo_polarized_energy": -12.02, 
			 "cosmo_cavitation_energy": 28.55, 
			 "cosmo_dispersion_energy": -21.23, 
			 "cosmo_repulsion_energy": 1.64, 
			 "cosmo_total_nonelectrostatic_energy": 8.96, 
			 "SMD_solvation_energy": 5.95 
		},
		"coords": [
			{
				"x": -1.1406675184,
				"y": 0.0180852595,
				"z": -3.1753257886,
				"element": "C" 
			},
			{
				"x": -1.64478148,
				"y": 0.0421826366,
				"z": -1.8405102415,
				"element": "O" 
			},
			{
				"x": -0.8211699377,
				"y": -0.3282931159,
				"z": -0.8385090317,
				"element": "C" 
			},
			{
				"x": 0.489955993,
				"y": -0.7352961667,
				"z": -0.9981074559,
				"element": "C" 
			},
			{
				"x": 1.2156764718,
				"y": -1.0903074782,
				"z": 0.1574273084,
				"element": "C" 
			},
			{
				"x": 0.7456039951,
				"y": -1.0670343081,
				"z": 1.3914204083,
				"element": "N" 
			},
			{
				"x": -0.5475678814,
				"y": -0.6679083889,
				"z": 1.5716472523,
				"element": "C" 
			},
			{
				"x": -1.3846866909,
				"y": -0.2834881495,
				"z": 0.4788726912,
				"element": "C" 
			},
			{
				"x": -2.7181198264,
				"y": 0.1210692346,
				"z": 0.7311221347,
				"element": "C" 
			},
			{
				"x": -3.2036201078,
				"y": 0.1434095388,
				"z": 2.0215012756,
				"element": "C" 
			},
			{
				"x": -2.3774243706,
				"y": -0.2365468012,
				"z": 3.1056386642,
				"element": "C" 
			},
			{
				"x": -1.0768858122,
				"y": -0.6339791353,
				"z": 2.8870446164,
				"element": "C" 
			},
			{
				"x": 2.6528310814,
				"y": -1.5403481888,
				"z": 0.0163577555,
				"element": "C" 
			},
			{
				"x": 3.2305686691,
				"y": -1.8477026648,
				"z": 1.1853317119,
				"element": "O" 
			},
			{
				"x": 3.2222789393,
				"y": -1.6122539999,
				"z": -1.0503894724,
				"element": "O" 
			},
			{
				"x": -0.2903609981,
				"y": 0.6997204174,
				"z": -3.2888564652,
				"element": "H" 
			},
			{
				"x": -1.9632002234,
				"y": 0.3496799041,
				"z": -3.8089708398,
				"element": "H" 
			},
			{
				"x": -0.8376093425,
				"y": -0.9942510166,
				"z": -3.464939758,
				"element": "H" 
			},
			{
				"x": 0.9907859535,
				"y": -0.7974109866,
				"z": -1.9544878566,
				"element": "H" 
			},
			{
				"x": -3.3438689391,
				"y": 0.41042622,
				"z": -0.1054694187,
				"element": "H" 
			},
			{
				"x": -4.2267489693,
				"y": 0.4543557262,
				"z": 2.2099402398,
				"element": "H" 
			},
			{
				"x": -2.7748669901,
				"y": -0.2134306816,
				"z": 4.1160725971,
				"element": "H" 
			},
			{
				"x": -0.4241623775,
				"y": -0.929804012,
				"z": 3.7018084626,
				"element": "H" 
			},
			{
				"x": 2.5399403621,
				"y": -1.695773843,
				"z": 1.8675812106,
				"element": "H" 
			}
		],
		 "valence_orbital": [ 
			{
				"type": "occ",
				"energy": -0.2974,
				"method": "rhf"
			},
			{
				"type": "occ",
				"energy": -0.28569,
				"method": "rhf"
			},
			{
				"type": "occ",
				"energy": -0.26535,
				"method": "rhf"
			},
			{
				"type": "occ",
				"energy": -0.26207,
				"method": "rhf"
			},
			{
				"type": "occ",
				"energy": -0.23841,
				"method": "rhf"
			},
			{
				"type": "unocc",
				"energy": -0.07088,
				"method": "rhf"
			},
			{
				"type": "unocc",
				"energy": -0.03964,
				"method": "rhf"
			},
			{
				"type": "unocc",
				"energy": 0.00634,
				"method": "rhf"
			},
			{
				"type": "unocc",
				"energy": 0.04227,
				"method": "rhf"
			},
			{
				"type": "unocc",
				"energy": 0.08647,
				"method": "rhf"
			}
		],
		"cosmo_sigma_profile": { 
			"-0.025": 0.0,
			"-0.024": 0.0,
			"-0.023": 0.0,
			"-0.022": 0.0,
			"-0.021": 0.0,
			"-0.02": 0.0,
			"-0.019": 0.0,
			"-0.018": 0.0,
			"-0.017": 0.0,
			"-0.016": 0.0,
			"-0.015": 0.0,
			"-0.014": 0.0,
			"-0.013": 0.0101777443121,
			"-0.012": 0.529994520885,
			"-0.011": 0.534379045898,
			"-0.01": 0.637363190018,
			"-0.009": 0.496078048387,
			"-0.008": 0.865626501565,
			"-0.007": 8.06713997966,
			"-0.006": 18.024756522,
			"-0.005": 18.6071551982,
			"-0.004": 20.2142028935,
			"-0.003": 14.4239455607,
			"-0.002": 12.5525738749,
			"-0.001": 15.3959453389,
			"0.0": 18.0295569337,
			"0.001": 19.6956991457,
			"0.002": 18.1774392324,
			"0.003": 17.5763871869,
			"0.004": 11.5612596351,
			"0.005": 4.97838370012,
			"0.006": 3.94484978763,
			"0.007": 2.23973503333,
			"0.008": 3.89571777717,
			"0.009": 3.07672937973,
			"0.01": 5.35693962274,
			"0.011": 5.253596886,
			"0.012": 3.74507743809,
			"0.013": 1.33628097719,
			"0.014": 0.0245672924442,
			"0.015": 0.0,
			"0.016": 0.0,
			"0.017": 0.0,
			"0.018": 0.0,
			"0.019": 0.0,
			"0.02": 0.0,
			"0.021": 0.0,
			"0.022": 0.0,
			"0.023": 0.0,
			"0.024": 0.0,
			"0.025": 0.0
		}
	}
}
