{
	 "smiles": "O=C1NC(SC1=C/C1=CC=CC=C1)=N/N=CC1=CC=CC=C1", 
	 "Tm": 568.15, 
	 "num_atms": 35, 
	 "gaussian": { 
		 "optdone": 1, 
		 "sigma_profile": "yes", 
		 "theory": "DFT", 
		 "functional": "B3LYP", 
		 "basiset": "6-31G**", 
		 "properties": { 
			 "R2extent": 13058.1212, 
			 "electric_dipole_moment_norm": 2.47280205839, 
			 "electric_quadrupole_moment_norm": 23.3352348105, 
			 "total_energy": -1293.27969678, 
			 "HOMO_LUMO_gap": 0.13407, 
			 "cosmo_polarized_energy": -12.44, 
			 "cosmo_cavitation_energy": 42.32, 
			 "cosmo_dispersion_energy": -31.42, 
			 "cosmo_repulsion_energy": 2.32, 
			 "cosmo_total_nonelectrostatic_energy": 13.22, 
			 "SMD_solvation_energy": 6.72 
		},
		"coords": [
			{
				"x": 2.6266572007,
				"y": 2.9156864601,
				"z": -0.8713535371,
				"element": "O" 
			},
			{
				"x": 1.84899693,
				"y": 1.9839798791,
				"z": -0.9616300485,
				"element": "C" 
			},
			{
				"x": 1.9402398904,
				"y": 0.9730838653,
				"z": -1.9090165421,
				"element": "N" 
			},
			{
				"x": 0.9912635346,
				"y": -0.0192416718,
				"z": -1.8954840513,
				"element": "C" 
			},
			{
				"x": -0.184607091,
				"y": 0.2533382491,
				"z": -0.5942826348,
				"element": "S" 
			},
			{
				"x": 0.6567204768,
				"y": 1.7351018567,
				"z": -0.091283668,
				"element": "C" 
			},
			{
				"x": 0.3695347019,
				"y": 2.598259717,
				"z": 0.9074827154,
				"element": "C" 
			},
			{
				"x": -0.6972041136,
				"y": 2.6229833583,
				"z": 1.8977760664,
				"element": "C" 
			},
			{
				"x": -0.7071707659,
				"y": 3.69366879,
				"z": 2.8170967476,
				"element": "C" 
			},
			{
				"x": -1.6898380158,
				"y": 3.7953232252,
				"z": 3.7961716005,
				"element": "C" 
			},
			{
				"x": -2.6919266356,
				"y": 2.8259530882,
				"z": 3.8826236252,
				"element": "C" 
			},
			{
				"x": -2.6995989823,
				"y": 1.757860083,
				"z": 2.9819127024,
				"element": "C" 
			},
			{
				"x": -1.7170540232,
				"y": 1.6542795529,
				"z": 2.0011518256,
				"element": "C" 
			},
			{
				"x": 0.8971474056,
				"y": -1.0370714623,
				"z": -2.6803310282,
				"element": "N" 
			},
			{
				"x": 1.9331506956,
				"y": -1.0328823368,
				"z": -3.6171637035,
				"element": "N" 
			},
			{
				"x": 1.9539134114,
				"y": -2.0042028795,
				"z": -4.4682088075,
				"element": "C" 
			},
			{
				"x": 1.100603219,
				"y": -3.1776103232,
				"z": -4.699525867,
				"element": "C" 
			},
			{
				"x": 1.4826437503,
				"y": -4.018409194,
				"z": -5.7649056635,
				"element": "C" 
			},
			{
				"x": 0.7528673082,
				"y": -5.1602585718,
				"z": -6.0811016152,
				"element": "C" 
			},
			{
				"x": -0.3809381468,
				"y": -5.4873644825,
				"z": -5.334406096,
				"element": "C" 
			},
			{
				"x": -0.773481432,
				"y": -4.6647726185,
				"z": -4.275227699,
				"element": "C" 
			},
			{
				"x": -0.0468477182,
				"y": -3.5205557942,
				"z": -3.9540999952,
				"element": "C" 
			},
			{
				"x": 2.6700390766,
				"y": 0.927373173,
				"z": -2.6107371556,
				"element": "H" 
			},
			{
				"x": 1.0816170513,
				"y": 3.4207475795,
				"z": 0.9632569815,
				"element": "H" 
			},
			{
				"x": 0.0712345734,
				"y": 4.4490562713,
				"z": 2.7520635978,
				"element": "H" 
			},
			{
				"x": -1.6750359003,
				"y": 4.6292681616,
				"z": 4.4916088362,
				"element": "H" 
			},
			{
				"x": -3.4610900922,
				"y": 2.9013999162,
				"z": 4.6455426778,
				"element": "H" 
			},
			{
				"x": -3.4756162861,
				"y": 1.0006498145,
				"z": 3.0435889392,
				"element": "H" 
			},
			{
				"x": -1.7513785617,
				"y": 0.8132856372,
				"z": 1.3183131743,
				"element": "H" 
			},
			{
				"x": 2.7926805101,
				"y": -1.9269560396,
				"z": -5.1628878347,
				"element": "H" 
			},
			{
				"x": 2.3649882495,
				"y": -3.7661358824,
				"z": -6.347987366,
				"element": "H" 
			},
			{
				"x": 1.0664678948,
				"y": -5.7928921,
				"z": -6.9063434863,
				"element": "H" 
			},
			{
				"x": -0.9549934222,
				"y": -6.377381617,
				"z": -5.5761630555,
				"element": "H" 
			},
			{
				"x": -1.6551214744,
				"y": -4.9168477122,
				"z": -3.6927289756,
				"element": "H" 
			},
			{
				"x": -0.3491632189,
				"y": -2.8834159926,
				"z": -3.1352206592,
				"element": "H" 
			}
		],
		 "valence_orbital": [ 
			{
				"type": "occ",
				"energy": -0.2642,
				"method": "rhf"
			},
			{
				"type": "occ",
				"energy": -0.25473,
				"method": "rhf"
			},
			{
				"type": "occ",
				"energy": -0.24027,
				"method": "rhf"
			},
			{
				"type": "occ",
				"energy": -0.23691,
				"method": "rhf"
			},
			{
				"type": "occ",
				"energy": -0.21422,
				"method": "rhf"
			},
			{
				"type": "unocc",
				"energy": -0.08015,
				"method": "rhf"
			},
			{
				"type": "unocc",
				"energy": -0.05079,
				"method": "rhf"
			},
			{
				"type": "unocc",
				"energy": -0.01307,
				"method": "rhf"
			},
			{
				"type": "unocc",
				"energy": -0.00468,
				"method": "rhf"
			},
			{
				"type": "unocc",
				"energy": 0.00299,
				"method": "rhf"
			}
		],
		"cosmo_sigma_profile": { 
			"-0.025": 0.0,
			"-0.024": 0.0,
			"-0.023": 0.0,
			"-0.022": 0.0,
			"-0.021": 0.0,
			"-0.02": 0.0,
			"-0.019": 0.0,
			"-0.018": 0.0,
			"-0.017": 0.0,
			"-0.016": 0.0,
			"-0.015": 0.170065965517,
			"-0.014": 0.765434532927,
			"-0.013": 0.92617249056,
			"-0.012": 0.470764854495,
			"-0.011": 0.476320270196,
			"-0.01": 0.904447562099,
			"-0.009": 0.614661550811,
			"-0.008": 2.28335361731,
			"-0.007": 8.35898317585,
			"-0.006": 21.8695188999,
			"-0.005": 23.9779111402,
			"-0.004": 24.9134623377,
			"-0.003": 22.6586091208,
			"-0.002": 23.4826010402,
			"-0.001": 20.9755493705,
			"0.0": 26.0591215474,
			"0.001": 29.2766725191,
			"0.002": 31.306924416,
			"0.003": 30.1132670628,
			"0.004": 34.1908797766,
			"0.005": 15.687157417,
			"0.006": 5.02593417535,
			"0.007": 4.05413906804,
			"0.008": 2.90583894235,
			"0.009": 1.57408957069,
			"0.01": 1.93837590131,
			"0.011": 4.37183734116,
			"0.012": 4.00315715852,
			"0.013": 0.26705002349,
			"0.014": 0.0,
			"0.015": 0.0,
			"0.016": 0.0,
			"0.017": 0.0,
			"0.018": 0.0,
			"0.019": 0.0,
			"0.02": 0.0,
			"0.021": 0.0,
			"0.022": 0.0,
			"0.023": 0.0,
			"0.024": 0.0,
			"0.025": 0.0
		}
	}
}
