{
	 "smiles": "CC1=C2N=CC=CC2=C(C=C1)[N+]([O-])=O", 
	 "Tm": 361.15, 
	 "num_atms": 22, 
	 "gaussian": { 
		 "optdone": 1, 
		 "sigma_profile": "yes", 
		 "theory": "DFT", 
		 "functional": "B3LYP", 
		 "basiset": "6-31G**", 
		 "properties": { 
			 "R2extent": 3211.9393, 
			 "electric_dipole_moment_norm": 3.33011039757, 
			 "electric_quadrupole_moment_norm": 20.3736130323, 
			 "total_energy": -645.744951685, 
			 "HOMO_LUMO_gap": 0.15455, 
			 "cosmo_polarized_energy": -8.71, 
			 "cosmo_cavitation_energy": 26.32, 
			 "cosmo_dispersion_energy": -19.67, 
			 "cosmo_repulsion_energy": 1.51, 
			 "cosmo_total_nonelectrostatic_energy": 8.17, 
			 "SMD_solvation_energy": 5.59 
		},
		"coords": [
			{
				"x": -2.0964173298,
				"y": -1.0272024519,
				"z": -0.0315177383,
				"element": "C" 
			},
			{
				"x": -0.6479725961,
				"y": -0.6880673848,
				"z": 0.183564626,
				"element": "C" 
			},
			{
				"x": 0.1831839381,
				"y": -0.3722354098,
				"z": -0.9425342391,
				"element": "C" 
			},
			{
				"x": -0.4118278128,
				"y": -0.4186398345,
				"z": -2.1674068247,
				"element": "N" 
			},
			{
				"x": 0.3155330167,
				"y": -0.150834513,
				"z": -3.2320925711,
				"element": "C" 
			},
			{
				"x": 1.6878355472,
				"y": 0.1771398993,
				"z": -3.174113025,
				"element": "C" 
			},
			{
				"x": 2.3134084657,
				"y": 0.2398977131,
				"z": -1.950738577,
				"element": "C" 
			},
			{
				"x": 1.568946088,
				"y": -0.0307936093,
				"z": -0.7696245131,
				"element": "C" 
			},
			{
				"x": 2.0750669359,
				"y": -0.0308468346,
				"z": 0.5698270622,
				"element": "C" 
			},
			{
				"x": 1.269406846,
				"y": -0.3552561228,
				"z": 1.6401242182,
				"element": "C" 
			},
			{
				"x": -0.0861143697,
				"y": -0.6746031427,
				"z": 1.4449834936,
				"element": "C" 
			},
			{
				"x": 3.4668735764,
				"y": 0.3188413508,
				"z": 0.8970835864,
				"element": "N" 
			},
			{
				"x": 3.8959414216,
				"y": -0.024122646,
				"z": 1.999194889,
				"element": "O" 
			},
			{
				"x": 4.1304405331,
				"y": 0.95116927,
				"z": 0.0714393316,
				"element": "O" 
			},
			{
				"x": -2.5910583805,
				"y": -1.2461951507,
				"z": 0.9179697564,
				"element": "H" 
			},
			{
				"x": -2.199482432,
				"y": -1.8913289347,
				"z": -0.6947734805,
				"element": "H" 
			},
			{
				"x": -2.6208342758,
				"y": -0.202709413,
				"z": -0.524021758,
				"element": "H" 
			},
			{
				"x": -0.1946639181,
				"y": -0.1967089108,
				"z": -4.1935254967,
				"element": "H" 
			},
			{
				"x": 2.2379144929,
				"y": 0.3777680471,
				"z": -4.0879653082,
				"element": "H" 
			},
			{
				"x": 3.359713351,
				"y": 0.4954519907,
				"z": -1.8742594739,
				"element": "H" 
			},
			{
				"x": 1.7008740047,
				"y": -0.3523438858,
				"z": 2.6330052495,
				"element": "H" 
			},
			{
				"x": -0.6983671025,
				"y": -0.9120800268,
				"z": 2.3096807928,
				"element": "H" 
			}
		],
		 "valence_orbital": [ 
			{
				"type": "occ",
				"energy": -0.3083,
				"method": "rhf"
			},
			{
				"type": "occ",
				"energy": -0.28856,
				"method": "rhf"
			},
			{
				"type": "occ",
				"energy": -0.2715,
				"method": "rhf"
			},
			{
				"type": "occ",
				"energy": -0.26802,
				"method": "rhf"
			},
			{
				"type": "occ",
				"energy": -0.25129,
				"method": "rhf"
			},
			{
				"type": "unocc",
				"energy": -0.09674,
				"method": "rhf"
			},
			{
				"type": "unocc",
				"energy": -0.05028,
				"method": "rhf"
			},
			{
				"type": "unocc",
				"energy": -0.03494,
				"method": "rhf"
			},
			{
				"type": "unocc",
				"energy": 0.01697,
				"method": "rhf"
			},
			{
				"type": "unocc",
				"energy": 0.07407,
				"method": "rhf"
			}
		],
		"cosmo_sigma_profile": { 
			"-0.025": 0.0,
			"-0.024": 0.0,
			"-0.023": 0.0,
			"-0.022": 0.0,
			"-0.021": 0.0,
			"-0.02": 0.0,
			"-0.019": 0.0,
			"-0.018": 0.0,
			"-0.017": 0.0,
			"-0.016": 0.0,
			"-0.015": 0.0,
			"-0.014": 0.0,
			"-0.013": 0.0,
			"-0.012": 0.0,
			"-0.011": 0.0,
			"-0.01": 0.0,
			"-0.009": 0.0,
			"-0.008": 1.35904450824,
			"-0.007": 9.15578281638,
			"-0.006": 12.6077015404,
			"-0.005": 13.5218590649,
			"-0.004": 13.5274048953,
			"-0.003": 15.1369882619,
			"-0.002": 14.2790659966,
			"-0.001": 22.0678982708,
			"0.0": 30.9712722686,
			"0.001": 19.7872804449,
			"0.002": 11.4390329292,
			"0.003": 6.13698880079,
			"0.004": 4.43923325465,
			"0.005": 5.00038968808,
			"0.006": 4.47910187648,
			"0.007": 8.04883689017,
			"0.008": 7.60571363713,
			"0.009": 5.24783635358,
			"0.01": 4.36967064137,
			"0.011": 0.792658300911,
			"0.012": 1.2461496756,
			"0.013": 0.394223258587,
			"0.014": 0.0544945884055,
			"0.015": 0.0,
			"0.016": 0.0,
			"0.017": 0.0,
			"0.018": 0.0,
			"0.019": 0.0,
			"0.02": 0.0,
			"0.021": 0.0,
			"0.022": 0.0,
			"0.023": 0.0,
			"0.024": 0.0,
			"0.025": 0.0
		}
	}
}
