{
	 "smiles": "CCCS(=O)(=O)NC(C)C(O)=O", 
	 "Tm": 338.15, 
	 "num_atms": 25, 
	 "gaussian": { 
		 "optdone": 1, 
		 "sigma_profile": "yes", 
		 "theory": "DFT", 
		 "functional": "B3LYP", 
		 "basiset": "6-31G**", 
		 "properties": { 
			 "R2extent": 3028.7966, 
			 "electric_dipole_moment_norm": 4.44819810148, 
			 "electric_quadrupole_moment_norm": 15.3690791334, 
			 "total_energy": -990.270443022, 
			 "HOMO_LUMO_gap": 0.26502, 
			 "cosmo_polarized_energy": -17.16, 
			 "cosmo_cavitation_energy": 29.78, 
			 "cosmo_dispersion_energy": -21.18, 
			 "cosmo_repulsion_energy": 1.69, 
			 "cosmo_total_nonelectrostatic_energy": 10.29, 
			 "SMD_solvation_energy": 5.32 
		},
		"coords": [
			{
				"x": -3.5505890343,
				"y": 1.3857719492,
				"z": 1.3981278008,
				"element": "C" 
			},
			{
				"x": -2.2066696871,
				"y": 0.6490633122,
				"z": 1.4403427192,
				"element": "C" 
			},
			{
				"x": -1.0394221378,
				"y": 1.5906421394,
				"z": 1.1478348589,
				"element": "C" 
			},
			{
				"x": 0.5842425116,
				"y": 0.7919349127,
				"z": 1.2264161092,
				"element": "S" 
			},
			{
				"x": 1.5839813486,
				"y": 1.8189995891,
				"z": 0.9009259568,
				"element": "O" 
			},
			{
				"x": 0.6571176328,
				"y": 0.0179935989,
				"z": 2.4701251003,
				"element": "O" 
			},
			{
				"x": 0.5194958321,
				"y": -0.3414631971,
				"z": -0.0333602093,
				"element": "N" 
			},
			{
				"x": 1.3051804801,
				"y": -0.0964002012,
				"z": -1.2494051489,
				"element": "C" 
			},
			{
				"x": 0.4125741741,
				"y": 0.2650481699,
				"z": -2.4482968787,
				"element": "C" 
			},
			{
				"x": 2.1329921484,
				"y": -1.3474485729,
				"z": -1.5235248486,
				"element": "C" 
			},
			{
				"x": 2.9017213343,
				"y": -1.2097355265,
				"z": -2.6202816024,
				"element": "O" 
			},
			{
				"x": 2.1120008615,
				"y": -2.3539503153,
				"z": -0.8476308308,
				"element": "O" 
			},
			{
				"x": -4.3741425503,
				"y": 0.6976200392,
				"z": 1.6110599496,
				"element": "H" 
			},
			{
				"x": -3.7342815377,
				"y": 1.8302926526,
				"z": 0.4136692839,
				"element": "H" 
			},
			{
				"x": -3.5891966416,
				"y": 2.1906676891,
				"z": 2.140216951,
				"element": "H" 
			},
			{
				"x": -2.0546041574,
				"y": 0.1943683589,
				"z": 2.4242777412,
				"element": "H" 
			},
			{
				"x": -2.2003110303,
				"y": -0.1642308263,
				"z": 0.7068070047,
				"element": "H" 
			},
			{
				"x": -0.9713365473,
				"y": 2.3991526947,
				"z": 1.8834690151,
				"element": "H" 
			},
			{
				"x": -1.1044308395,
				"y": 2.0429407632,
				"z": 0.1534503203,
				"element": "H" 
			},
			{
				"x": 0.7152793411,
				"y": -1.2653164203,
				"z": 0.3551585742,
				"element": "H" 
			},
			{
				"x": 2.0149795569,
				"y": 0.7214611461,
				"z": -1.0726536104,
				"element": "H" 
			},
			{
				"x": -0.1379207108,
				"y": 1.1841539196,
				"z": -2.2309117889,
				"element": "H" 
			},
			{
				"x": 1.015699467,
				"y": 0.4268382092,
				"z": -3.3446976358,
				"element": "H" 
			},
			{
				"x": -0.3124034883,
				"y": -0.5303897008,
				"z": -2.6431727791,
				"element": "H" 
			},
			{
				"x": 3.3952436742,
				"y": -2.0413143836,
				"z": -2.7212460524,
				"element": "H" 
			}
		],
		 "valence_orbital": [ 
			{
				"type": "occ",
				"energy": -0.31447,
				"method": "rhf"
			},
			{
				"type": "occ",
				"energy": -0.30453,
				"method": "rhf"
			},
			{
				"type": "occ",
				"energy": -0.29914,
				"method": "rhf"
			},
			{
				"type": "occ",
				"energy": -0.29451,
				"method": "rhf"
			},
			{
				"type": "occ",
				"energy": -0.27593,
				"method": "rhf"
			},
			{
				"type": "unocc",
				"energy": -0.01091,
				"method": "rhf"
			},
			{
				"type": "unocc",
				"energy": 0.05336,
				"method": "rhf"
			},
			{
				"type": "unocc",
				"energy": 0.06178,
				"method": "rhf"
			},
			{
				"type": "unocc",
				"energy": 0.07525,
				"method": "rhf"
			},
			{
				"type": "unocc",
				"energy": 0.089,
				"method": "rhf"
			}
		],
		"cosmo_sigma_profile": { 
			"-0.025": 0.0,
			"-0.024": 0.0,
			"-0.023": 0.0,
			"-0.022": 0.0,
			"-0.021": 0.0,
			"-0.02": 0.0,
			"-0.019": 0.527456073742,
			"-0.018": 1.25361567349,
			"-0.017": 0.893333079628,
			"-0.016": 0.666289135656,
			"-0.015": 0.633431597587,
			"-0.014": 0.246574191672,
			"-0.013": 1.21243664376,
			"-0.012": 0.929266770163,
			"-0.011": 0.835817805536,
			"-0.01": 0.482731373723,
			"-0.009": 1.21957876582,
			"-0.008": 4.05757730067,
			"-0.007": 7.24966072854,
			"-0.006": 9.86118214834,
			"-0.005": 12.6323265827,
			"-0.004": 19.3526039911,
			"-0.003": 22.5506607628,
			"-0.002": 21.715774633,
			"-0.001": 23.9797296447,
			"0.0": 19.8656972025,
			"0.001": 11.8693094884,
			"0.002": 6.14499910282,
			"0.003": 6.9795202155,
			"0.004": 4.26337069178,
			"0.005": 5.87667640624,
			"0.006": 5.39782890525,
			"0.007": 4.29690756552,
			"0.008": 5.63392453868,
			"0.009": 5.82944834869,
			"0.01": 8.48520195714,
			"0.011": 12.10976676,
			"0.012": 5.80431328745,
			"0.013": 0.0394266364924,
			"0.014": 0.0,
			"0.015": 0.0,
			"0.016": 0.0,
			"0.017": 0.0,
			"0.018": 0.0,
			"0.019": 0.0,
			"0.02": 0.0,
			"0.021": 0.0,
			"0.022": 0.0,
			"0.023": 0.0,
			"0.024": 0.0,
			"0.025": 0.0
		}
	}
}
