{
	 "smiles": "CC1=NC2=C(C=C(Br)C=C2)C(O)=N1", 
	 "Tm": 493.15, 
	 "num_atms": 20, 
	 "gaussian": { 
		 "optdone": 1, 
		 "sigma_profile": "yes", 
		 "theory": "DFT", 
		 "functional": "B3LYP", 
		 "basiset": "6-31G**", 
		 "properties": { 
			 "R2extent": 4192.746, 
			 "electric_dipole_moment_norm": 1.62963615571, 
			 "electric_quadrupole_moment_norm": 7.21164554453, 
			 "total_energy": -3103.32334175, 
			 "HOMO_LUMO_gap": 0.17379, 
			 "cosmo_polarized_energy": -13.44, 
			 "cosmo_cavitation_energy": 26.72, 
			 "cosmo_dispersion_energy": -20.6, 
			 "cosmo_repulsion_energy": 1.62, 
			 "cosmo_total_nonelectrostatic_energy": 7.74, 
			 "SMD_solvation_energy": 0.78 
		},
		"coords": [
			{
				"x": -3.5760751836,
				"y": 1.8954624527,
				"z": -1.6986955022,
				"element": "C" 
			},
			{
				"x": -2.4825104426,
				"y": 1.0237106251,
				"z": -1.1486189513,
				"element": "C" 
			},
			{
				"x": -1.6878827924,
				"y": 1.5244607319,
				"z": -0.2222921727,
				"element": "N" 
			},
			{
				"x": -0.7076129277,
				"y": 0.7027722747,
				"z": 0.2524069669,
				"element": "C" 
			},
			{
				"x": -0.5386420863,
				"y": -0.6304249859,
				"z": -0.2188218166,
				"element": "C" 
			},
			{
				"x": 0.4939965516,
				"y": -1.4430624726,
				"z": 0.3063640422,
				"element": "C" 
			},
			{
				"x": 1.3303700314,
				"y": -0.9323131348,
				"z": 1.2742529033,
				"element": "C" 
			},
			{
				"x": 2.7266161064,
				"y": -2.0197337976,
				"z": 1.9901940902,
				"element": "Br" 
			},
			{
				"x": 1.1786218394,
				"y": 0.3878541265,
				"z": 1.7542402983,
				"element": "C" 
			},
			{
				"x": 0.1770945568,
				"y": 1.1871736391,
				"z": 1.2501053557,
				"element": "C" 
			},
			{
				"x": -1.4801300899,
				"y": -1.0318121608,
				"z": -1.2277255116,
				"element": "C" 
			},
			{
				"x": -1.4580293659,
				"y": -2.2619530443,
				"z": -1.7798730779,
				"element": "O" 
			},
			{
				"x": -2.4154342204,
				"y": -0.2343603057,
				"z": -1.6742687632,
				"element": "N" 
			},
			{
				"x": -3.4594229407,
				"y": 2.0068432855,
				"z": -2.7818251135,
				"element": "H" 
			},
			{
				"x": -4.5511766408,
				"y": 1.4256766063,
				"z": -1.532410137,
				"element": "H" 
			},
			{
				"x": -3.5546351074,
				"y": 2.8764851932,
				"z": -1.2236590505,
				"element": "H" 
			},
			{
				"x": 0.6491132557,
				"y": -2.463363072,
				"z": -0.0314190418,
				"element": "H" 
			},
			{
				"x": 1.854000679,
				"y": 0.759079773,
				"z": 2.5166777353,
				"element": "H" 
			},
			{
				"x": 0.0367439625,
				"y": 2.2044068915,
				"z": 1.5996127987,
				"element": "H" 
			},
			{
				"x": -0.7432051851,
				"y": -2.7891026257,
				"z": -1.4009450524,
				"element": "H" 
			}
		],
		 "valence_orbital": [ 
			{
				"type": "occ",
				"energy": -0.29923,
				"method": "rhf"
			},
			{
				"type": "occ",
				"energy": -0.29895,
				"method": "rhf"
			},
			{
				"type": "occ",
				"energy": -0.27551,
				"method": "rhf"
			},
			{
				"type": "occ",
				"energy": -0.25508,
				"method": "rhf"
			},
			{
				"type": "occ",
				"energy": -0.23917,
				"method": "rhf"
			},
			{
				"type": "unocc",
				"energy": -0.06538,
				"method": "rhf"
			},
			{
				"type": "unocc",
				"energy": -0.03914,
				"method": "rhf"
			},
			{
				"type": "unocc",
				"energy": -0.0079,
				"method": "rhf"
			},
			{
				"type": "unocc",
				"energy": 0.01125,
				"method": "rhf"
			},
			{
				"type": "unocc",
				"energy": 0.04447,
				"method": "rhf"
			}
		],
		"cosmo_sigma_profile": { 
			"-0.025": 0.0,
			"-0.024": 0.0,
			"-0.023": 0.0,
			"-0.022": 0.0,
			"-0.021": 0.0,
			"-0.02": 0.37846614561,
			"-0.019": 1.47465234689,
			"-0.018": 0.617984315977,
			"-0.017": 1.16625782352,
			"-0.016": 1.05177627619,
			"-0.015": 1.12139517542,
			"-0.014": 0.954169255133,
			"-0.013": 0.748181353107,
			"-0.012": 1.24880941599,
			"-0.011": 0.962535664208,
			"-0.01": 1.15811194589,
			"-0.009": 1.21800867928,
			"-0.008": 3.15929511854,
			"-0.007": 3.81472726246,
			"-0.006": 5.4387069553,
			"-0.005": 10.1317882416,
			"-0.004": 11.2207644152,
			"-0.003": 14.8188080345,
			"-0.002": 15.5209412534,
			"-0.001": 20.1653202259,
			"0.0": 23.2735563011,
			"0.001": 23.2546130119,
			"0.002": 16.3565871962,
			"0.003": 11.860040241,
			"0.004": 14.2257155357,
			"0.005": 5.03449832295,
			"0.006": 3.56365715702,
			"0.007": 3.38050397578,
			"0.008": 3.1523133333,
			"0.009": 3.80982108025,
			"0.01": 3.40661010199,
			"0.011": 2.84668667747,
			"0.012": 2.51018816501,
			"0.013": 1.93242497668,
			"0.014": 1.7457540413,
			"0.015": 1.31392215297,
			"0.016": 0.0337004032062,
			"0.017": 0.0,
			"0.018": 0.0,
			"0.019": 0.0,
			"0.02": 0.0,
			"0.021": 0.0,
			"0.022": 0.0,
			"0.023": 0.0,
			"0.024": 0.0,
			"0.025": 0.0
		}
	}
}
