{
	 "smiles": "NNC(=O)NC1=CC=C(C=C1)C(O)=O", 
	 "Tm": 466.15, 
	 "num_atms": 23, 
	 "gaussian": { 
		 "optdone": 1, 
		 "sigma_profile": "yes", 
		 "theory": "DFT", 
		 "functional": "B3LYP", 
		 "basiset": "6-31G**", 
		 "properties": { 
			 "R2extent": 4476.9202, 
			 "electric_dipole_moment_norm": 3.54948647131, 
			 "electric_quadrupole_moment_norm": 30.526100209, 
			 "total_energy": -700.200168061, 
			 "HOMO_LUMO_gap": 0.18551, 
			 "cosmo_polarized_energy": -24.12, 
			 "cosmo_cavitation_energy": 28.18, 
			 "cosmo_dispersion_energy": -20.84, 
			 "cosmo_repulsion_energy": 1.65, 
			 "cosmo_total_nonelectrostatic_energy": 8.99, 
			 "SMD_solvation_energy": 7.27 
		},
		"coords": [
			{
				"x": 0.4479523599,
				"y": -0.7086547427,
				"z": -4.1293739908,
				"element": "N" 
			},
			{
				"x": 0.6171897136,
				"y": -0.0180806488,
				"z": -2.9054443963,
				"element": "N" 
			},
			{
				"x": 1.0173714674,
				"y": 1.3037222486,
				"z": -2.9576900766,
				"element": "C" 
			},
			{
				"x": 1.3785985655,
				"y": 1.8477524798,
				"z": -3.992813474,
				"element": "O" 
			},
			{
				"x": 0.9715523467,
				"y": 2.023089913,
				"z": -1.7628216276,
				"element": "N" 
			},
			{
				"x": 0.7857236381,
				"y": 1.6358542089,
				"z": -0.4298870284,
				"element": "C" 
			},
			{
				"x": 1.0614072502,
				"y": 0.3405100244,
				"z": 0.0480752847,
				"element": "C" 
			},
			{
				"x": 0.8655523349,
				"y": 0.0378898572,
				"z": 1.3897441707,
				"element": "C" 
			},
			{
				"x": 0.42996349,
				"y": 1.0090160015,
				"z": 2.3010660083,
				"element": "C" 
			},
			{
				"x": 0.1664060064,
				"y": 2.3013303509,
				"z": 1.82239006,
				"element": "C" 
			},
			{
				"x": 0.3351812147,
				"y": 2.6107254475,
				"z": 0.479330786,
				"element": "C" 
			},
			{
				"x": 0.2426844009,
				"y": 0.5964736592,
				"z": 3.7255080377,
				"element": "C" 
			},
			{
				"x": 0.1949427745,
				"y": 1.5916343749,
				"z": 4.6540866748,
				"element": "O" 
			},
			{
				"x": 0.1349003989,
				"y": -0.5563298012,
				"z": 4.0741158031,
				"element": "O" 
			},
			{
				"x": 1.3520678429,
				"y": -1.1074394094,
				"z": -4.3761643721,
				"element": "H" 
			},
			{
				"x": 0.2527388931,
				"y": -0.0079008181,
				"z": -4.8458863098,
				"element": "H" 
			},
			{
				"x": -0.0765699707,
				"y": -0.2701455757,
				"z": -2.213008452,
				"element": "H" 
			},
			{
				"x": 1.1119382801,
				"y": 3.0089889017,
				"z": -1.9368171607,
				"element": "H" 
			},
			{
				"x": 1.4516199418,
				"y": -0.4141101649,
				"z": -0.6235756776,
				"element": "H" 
			},
			{
				"x": 1.0663677622,
				"y": -0.9612719807,
				"z": 1.7613202772,
				"element": "H" 
			},
			{
				"x": -0.221788101,
				"y": 3.0734706215,
				"z": 2.4824786761,
				"element": "H" 
			},
			{
				"x": 0.1006972571,
				"y": 3.6084178594,
				"z": 0.1187311323,
				"element": "H" 
			},
			{
				"x": 0.4704021327,
				"y": 2.4308571929,
				"z": 4.2609356551,
				"element": "H" 
			}
		],
		 "valence_orbital": [ 
			{
				"type": "occ",
				"energy": -0.28525,
				"method": "rhf"
			},
			{
				"type": "occ",
				"energy": -0.28192,
				"method": "rhf"
			},
			{
				"type": "occ",
				"energy": -0.27524,
				"method": "rhf"
			},
			{
				"type": "occ",
				"energy": -0.26533,
				"method": "rhf"
			},
			{
				"type": "occ",
				"energy": -0.24104,
				"method": "rhf"
			},
			{
				"type": "unocc",
				"energy": -0.05553,
				"method": "rhf"
			},
			{
				"type": "unocc",
				"energy": -0.0336,
				"method": "rhf"
			},
			{
				"type": "unocc",
				"energy": 0.02475,
				"method": "rhf"
			},
			{
				"type": "unocc",
				"energy": 0.05188,
				"method": "rhf"
			},
			{
				"type": "unocc",
				"energy": 0.05997,
				"method": "rhf"
			}
		],
		"cosmo_sigma_profile": { 
			"-0.025": 0.0,
			"-0.024": 0.0,
			"-0.023": 0.0,
			"-0.022": 0.0,
			"-0.021": 0.0,
			"-0.02": 0.0,
			"-0.019": 0.295982110703,
			"-0.018": 0.626080684695,
			"-0.017": 1.08174098317,
			"-0.016": 1.37735653616,
			"-0.015": 1.12907817547,
			"-0.014": 1.96293807726,
			"-0.013": 2.65835150469,
			"-0.012": 4.34145040614,
			"-0.011": 4.06843803423,
			"-0.01": 6.4323538027,
			"-0.009": 6.26204080724,
			"-0.008": 6.22623225833,
			"-0.007": 8.25317864113,
			"-0.006": 9.25533446758,
			"-0.005": 10.4544020983,
			"-0.004": 9.71070287252,
			"-0.003": 10.4781422728,
			"-0.002": 11.7658556918,
			"-0.001": 11.3912853769,
			"0.0": 12.7858734894,
			"0.001": 12.6593251388,
			"0.002": 14.1798340789,
			"0.003": 16.0655131842,
			"0.004": 5.85856104374,
			"0.005": 3.41260817031,
			"0.006": 4.05826389584,
			"0.007": 3.75093430921,
			"0.008": 4.39547869042,
			"0.009": 5.34426128117,
			"0.01": 6.30690845263,
			"0.011": 7.21687577564,
			"0.012": 8.85132778463,
			"0.013": 7.97825387995,
			"0.014": 1.76303858685,
			"0.015": 1.16498381434,
			"0.016": 0.44364581994,
			"0.017": 0.216904984235,
			"0.018": 0.0,
			"0.019": 0.0,
			"0.02": 0.0,
			"0.021": 0.0,
			"0.022": 0.0,
			"0.023": 0.0,
			"0.024": 0.0,
			"0.025": 0.0
		}
	}
}
