{
	 "smiles": "CC(C)CCCl", 
	 "Tm": 169.15, 
	 "num_atms": 17, 
	 "gaussian": { 
		 "optdone": 1, 
		 "sigma_profile": "yes", 
		 "theory": "DFT", 
		 "functional": "B3LYP", 
		 "basiset": "6-31G**", 
		 "properties": { 
			 "R2extent": 1192.8449, 
			 "electric_dipole_moment_norm": 2.51416385504, 
			 "electric_quadrupole_moment_norm": 5.0204816263, 
			 "total_energy": -657.37338115, 
			 "HOMO_LUMO_gap": 0.30933, 
			 "cosmo_polarized_energy": -3.76, 
			 "cosmo_cavitation_energy": 20.41, 
			 "cosmo_dispersion_energy": -15.02, 
			 "cosmo_repulsion_energy": 1.3, 
			 "cosmo_total_nonelectrostatic_energy": 6.69, 
			 "SMD_solvation_energy": 3.15 
		},
		"coords": [
			{
				"x": 1.9201914106,
				"y": -1.1873134405,
				"z": 0.9587100801,
				"element": "C" 
			},
			{
				"x": 0.9539414186,
				"y": -0.0149481527,
				"z": 1.191986688,
				"element": "C" 
			},
			{
				"x": 1.7172596131,
				"y": 1.2933054041,
				"z": 1.4532901216,
				"element": "C" 
			},
			{
				"x": -0.10348658,
				"y": 0.1221583695,
				"z": 0.0695060341,
				"element": "C" 
			},
			{
				"x": 0.4708994209,
				"y": 0.4440791595,
				"z": -1.306551461,
				"element": "C" 
			},
			{
				"x": -0.8496567856,
				"y": 0.5835112312,
				"z": -2.553813191,
				"element": "Cl" 
			},
			{
				"x": 2.5635093392,
				"y": -1.3385612623,
				"z": 1.8319005664,
				"element": "H" 
			},
			{
				"x": 1.3788517332,
				"y": -2.1221530718,
				"z": 0.7765306133,
				"element": "H" 
			},
			{
				"x": 2.5784274553,
				"y": -1.0090498224,
				"z": 0.1005663215,
				"element": "H" 
			},
			{
				"x": 0.3806407561,
				"y": -0.2431751879,
				"z": 2.1014442317,
				"element": "H" 
			},
			{
				"x": 2.3559993248,
				"y": 1.1988823603,
				"z": 2.3377669696,
				"element": "H" 
			},
			{
				"x": 2.3681287779,
				"y": 1.5608160941,
				"z": 0.6128957922,
				"element": "H" 
			},
			{
				"x": 1.031047401,
				"y": 2.1299484589,
				"z": 1.624444268,
				"element": "H" 
			},
			{
				"x": -0.6753130686,
				"y": -0.8102796471,
				"z": -0.001738183,
				"element": "H" 
			},
			{
				"x": -0.816910223,
				"y": 0.9087155856,
				"z": 0.3413216886,
				"element": "H" 
			},
			{
				"x": 0.9964573554,
				"y": 1.3994460119,
				"z": -1.325903605,
				"element": "H" 
			},
			{
				"x": 1.140112651,
				"y": -0.3356820904,
				"z": -1.671856935,
				"element": "H" 
			}
		],
		 "valence_orbital": [ 
			{
				"type": "occ",
				"energy": -0.33572,
				"method": "rhf"
			},
			{
				"type": "occ",
				"energy": -0.3339,
				"method": "rhf"
			},
			{
				"type": "occ",
				"energy": -0.33147,
				"method": "rhf"
			},
			{
				"type": "occ",
				"energy": -0.28905,
				"method": "rhf"
			},
			{
				"type": "occ",
				"energy": -0.28665,
				"method": "rhf"
			},
			{
				"type": "unocc",
				"energy": 0.02268,
				"method": "rhf"
			},
			{
				"type": "unocc",
				"energy": 0.0867,
				"method": "rhf"
			},
			{
				"type": "unocc",
				"energy": 0.10735,
				"method": "rhf"
			},
			{
				"type": "unocc",
				"energy": 0.113,
				"method": "rhf"
			},
			{
				"type": "unocc",
				"energy": 0.14053,
				"method": "rhf"
			}
		],
		"cosmo_sigma_profile": { 
			"-0.025": 0.0,
			"-0.024": 0.0,
			"-0.023": 0.0,
			"-0.022": 0.0,
			"-0.021": 0.0,
			"-0.02": 0.0,
			"-0.019": 0.0,
			"-0.018": 0.0,
			"-0.017": 0.0,
			"-0.016": 0.0,
			"-0.015": 0.0,
			"-0.014": 0.0,
			"-0.013": 0.0,
			"-0.012": 0.0,
			"-0.011": 0.0,
			"-0.01": 0.0,
			"-0.009": 0.0,
			"-0.008": 0.0,
			"-0.007": 0.131164857375,
			"-0.006": 3.16336971072,
			"-0.005": 4.85995114799,
			"-0.004": 7.7576612897,
			"-0.003": 19.8944222275,
			"-0.002": 25.4408187288,
			"-0.001": 22.5033706566,
			"0.0": 17.9075348695,
			"0.001": 18.7127194549,
			"0.002": 9.32902573526,
			"0.003": 3.83945766899,
			"0.004": 3.54501043432,
			"0.005": 4.96998724889,
			"0.006": 7.34590277075,
			"0.007": 9.64304756881,
			"0.008": 1.01674277087,
			"0.009": 0.0,
			"0.01": 0.0,
			"0.011": 0.0,
			"0.012": 0.0,
			"0.013": 0.0,
			"0.014": 0.0,
			"0.015": 0.0,
			"0.016": 0.0,
			"0.017": 0.0,
			"0.018": 0.0,
			"0.019": 0.0,
			"0.02": 0.0,
			"0.021": 0.0,
			"0.022": 0.0,
			"0.023": 0.0,
			"0.024": 0.0,
			"0.025": 0.0
		}
	}
}
