{
	 "smiles": "CC(O)C(O)(C1=CC=CC=C1)C1=CC=CC=C1", 
	 "Tm": 365.15, 
	 "num_atms": 33, 
	 "gaussian": { 
		 "optdone": 1, 
		 "sigma_profile": "yes", 
		 "theory": "DFT", 
		 "functional": "B3LYP", 
		 "basiset": "6-31G**", 
		 "properties": { 
			 "R2extent": 4119.0982, 
			 "electric_dipole_moment_norm": 2.26217993316, 
			 "electric_quadrupole_moment_norm": 8.89881191508, 
			 "total_energy": -731.677036651, 
			 "HOMO_LUMO_gap": 0.22965, 
			 "cosmo_polarized_energy": -11.34, 
			 "cosmo_cavitation_energy": 34.0, 
			 "cosmo_dispersion_energy": -24.06, 
			 "cosmo_repulsion_energy": 1.85, 
			 "cosmo_total_nonelectrostatic_energy": 11.79, 
			 "SMD_solvation_energy": 5.62 
		},
		"coords": [
			{
				"x": -2.1348174175,
				"y": -0.9769898965,
				"z": 1.8506663898,
				"element": "C" 
			},
			{
				"x": -0.8425826792,
				"y": -0.2543667098,
				"z": 2.2191195506,
				"element": "C" 
			},
			{
				"x": -1.0769225482,
				"y": 0.6704407416,
				"z": 3.2921328898,
				"element": "O" 
			},
			{
				"x": -0.0814746361,
				"y": 0.5164826081,
				"z": 1.0814457152,
				"element": "C" 
			},
			{
				"x": 0.9939126546,
				"y": 1.196943004,
				"z": 1.7362118538,
				"element": "O" 
			},
			{
				"x": 0.5864191627,
				"y": -0.3889114374,
				"z": 0.0382610654,
				"element": "C" 
			},
			{
				"x": 0.6856087778,
				"y": -1.7797333364,
				"z": 0.161482491,
				"element": "C" 
			},
			{
				"x": 1.3671357796,
				"y": -2.538484742,
				"z": -0.7949244855,
				"element": "C" 
			},
			{
				"x": 1.9731233469,
				"y": -1.9169696414,
				"z": -1.8846781028,
				"element": "C" 
			},
			{
				"x": 1.8958227453,
				"y": -0.5277175055,
				"z": -2.0107822777,
				"element": "C" 
			},
			{
				"x": 1.2090912074,
				"y": 0.224145074,
				"z": -1.0605767659,
				"element": "C" 
			},
			{
				"x": -1.0343085328,
				"y": 1.5335012425,
				"z": 0.4213449438,
				"element": "C" 
			},
			{
				"x": -1.0482841862,
				"y": 2.8674840319,
				"z": 0.8497212291,
				"element": "C" 
			},
			{
				"x": -1.9511515111,
				"y": 3.7865185113,
				"z": 0.3070388306,
				"element": "C" 
			},
			{
				"x": -2.8523755951,
				"y": 3.3875847855,
				"z": -0.6790351411,
				"element": "C" 
			},
			{
				"x": -2.8387495163,
				"y": 2.0636179704,
				"z": -1.1253047708,
				"element": "C" 
			},
			{
				"x": -1.9390263034,
				"y": 1.1476524433,
				"z": -0.5811168706,
				"element": "C" 
			},
			{
				"x": -1.9842012354,
				"y": -1.7081336454,
				"z": 1.0522561191,
				"element": "H" 
			},
			{
				"x": -2.5159586488,
				"y": -1.4996471712,
				"z": 2.7325353393,
				"element": "H" 
			},
			{
				"x": -2.8997923341,
				"y": -0.2707516494,
				"z": 1.5141651028,
				"element": "H" 
			},
			{
				"x": -0.1248866864,
				"y": -0.963879105,
				"z": 2.6422081132,
				"element": "H" 
			},
			{
				"x": -1.7412080066,
				"y": 1.305474852,
				"z": 2.9823887579,
				"element": "H" 
			},
			{
				"x": 0.6596925054,
				"y": 1.3884259473,
				"z": 2.6297539266,
				"element": "H" 
			},
			{
				"x": 0.2410645608,
				"y": -2.2960075656,
				"z": 1.0049042495,
				"element": "H" 
			},
			{
				"x": 1.4247463429,
				"y": -3.6172583429,
				"z": -0.6797919438,
				"element": "H" 
			},
			{
				"x": 2.5035486476,
				"y": -2.5065516591,
				"z": -2.6269893193,
				"element": "H" 
			},
			{
				"x": 2.3714070007,
				"y": -0.0288972571,
				"z": -2.850621864,
				"element": "H" 
			},
			{
				"x": 1.155594291,
				"y": 1.3032348956,
				"z": -1.1631167242,
				"element": "H" 
			},
			{
				"x": -0.319369564,
				"y": 3.1919543643,
				"z": 1.5838619681,
				"element": "H" 
			},
			{
				"x": -1.939425053,
				"y": 4.8173440998,
				"z": 0.6504399962,
				"element": "H" 
			},
			{
				"x": -3.5513670453,
				"y": 4.1015938839,
				"z": -1.1050169383,
				"element": "H" 
			},
			{
				"x": -3.5256690403,
				"y": 1.744190162,
				"z": -1.9041475272,
				"element": "H" 
			},
			{
				"x": -1.9263964831,
				"y": 0.127011047,
				"z": -0.9508358007,
				"element": "H" 
			}
		],
		 "valence_orbital": [ 
			{
				"type": "occ",
				"energy": -0.26374,
				"method": "rhf"
			},
			{
				"type": "occ",
				"energy": -0.25413,
				"method": "rhf"
			},
			{
				"type": "occ",
				"energy": -0.25065,
				"method": "rhf"
			},
			{
				"type": "occ",
				"energy": -0.24699,
				"method": "rhf"
			},
			{
				"type": "occ",
				"energy": -0.23848,
				"method": "rhf"
			},
			{
				"type": "unocc",
				"energy": -0.00883,
				"method": "rhf"
			},
			{
				"type": "unocc",
				"energy": -0.00689,
				"method": "rhf"
			},
			{
				"type": "unocc",
				"energy": -0.00319,
				"method": "rhf"
			},
			{
				"type": "unocc",
				"energy": 0.0045,
				"method": "rhf"
			},
			{
				"type": "unocc",
				"energy": 0.07925,
				"method": "rhf"
			}
		],
		"cosmo_sigma_profile": { 
			"-0.025": 0.0,
			"-0.024": 0.0,
			"-0.023": 0.0,
			"-0.022": 0.0,
			"-0.021": 0.0,
			"-0.02": 0.0,
			"-0.019": 0.0,
			"-0.018": 0.0,
			"-0.017": 0.0,
			"-0.016": 0.0,
			"-0.015": 0.0,
			"-0.014": 0.126017173668,
			"-0.013": 0.659269460447,
			"-0.012": 0.30767981767,
			"-0.011": 0.886242151529,
			"-0.01": 1.2541847346,
			"-0.009": 1.35302501021,
			"-0.008": 2.67261611264,
			"-0.007": 2.52304264916,
			"-0.006": 10.7757863905,
			"-0.005": 22.4550767047,
			"-0.004": 26.2722083359,
			"-0.003": 27.2941117893,
			"-0.002": 21.986242983,
			"-0.001": 20.6199705233,
			"0.0": 19.0621249933,
			"0.001": 16.8407961158,
			"0.002": 14.266871128,
			"0.003": 15.2934774557,
			"0.004": 16.414094164,
			"0.005": 15.9473535475,
			"0.006": 12.0781559919,
			"0.007": 3.00689441496,
			"0.008": 2.6889490675,
			"0.009": 2.70788147893,
			"0.01": 2.05787243741,
			"0.011": 2.29464989193,
			"0.012": 3.05094710728,
			"0.013": 2.53276633079,
			"0.014": 1.57939569451,
			"0.015": 0.0418300769118,
			"0.016": 0.0,
			"0.017": 0.0,
			"0.018": 0.0,
			"0.019": 0.0,
			"0.02": 0.0,
			"0.021": 0.0,
			"0.022": 0.0,
			"0.023": 0.0,
			"0.024": 0.0,
			"0.025": 0.0
		}
	}
}
