{
	 "smiles": "CCN(CC)CCCC(C)NC1=C2C=C(OC)C=CC2=NC2=C1C=CC(Cl)=C2", 
	 "Tm": 522.15, 
	 "num_atms": 58, 
	 "gaussian": { 
		 "optdone": 1, 
		 "sigma_profile": "yes", 
		 "theory": "DFT", 
		 "functional": "B3LYP", 
		 "basiset": "6-31G**", 
		 "properties": { 
			 "R2extent": 15169.1502, 
			 "electric_dipole_moment_norm": 6.34495244821, 
			 "electric_quadrupole_moment_norm": 18.4600612615, 
			 "total_energy": -1594.20736966, 
			 "HOMO_LUMO_gap": 0.12574, 
			 "cosmo_polarized_energy": -14.58, 
			 "cosmo_cavitation_energy": 59.42, 
			 "cosmo_dispersion_energy": -38.04, 
			 "cosmo_repulsion_energy": 2.86, 
			 "cosmo_total_nonelectrostatic_energy": 24.24, 
			 "SMD_solvation_energy": 7.1 
		},
		"coords": [
			{
				"x": 2.9780814871,
				"y": 0.0215373085,
				"z": -3.3688242437,
				"element": "C" 
			},
			{
				"x": 2.6801451796,
				"y": -1.3799252942,
				"z": -2.8335288331,
				"element": "C" 
			},
			{
				"x": 2.4077288745,
				"y": -1.4190472493,
				"z": -1.3919511373,
				"element": "N" 
			},
			{
				"x": 3.5374448776,
				"y": -0.991282957,
				"z": -0.5527131559,
				"element": "C" 
			},
			{
				"x": 4.8089069749,
				"y": -1.8572267041,
				"z": -0.593342228,
				"element": "C" 
			},
			{
				"x": 1.8410017153,
				"y": -2.7106197281,
				"z": -0.9794430985,
				"element": "C" 
			},
			{
				"x": 0.3327051315,
				"y": -2.8557845583,
				"z": -1.2492963314,
				"element": "C" 
			},
			{
				"x": -0.5896454288,
				"y": -2.0749829067,
				"z": -0.2963855863,
				"element": "C" 
			},
			{
				"x": -0.5574648236,
				"y": -0.5391091457,
				"z": -0.3885409102,
				"element": "C" 
			},
			{
				"x": -0.9855129155,
				"y": -0.010412479,
				"z": -1.7646278301,
				"element": "C" 
			},
			{
				"x": -1.4304478431,
				"y": 0.0040702067,
				"z": 0.6858574809,
				"element": "N" 
			},
			{
				"x": -1.2275174905,
				"y": 1.2940074586,
				"z": 1.1877412555,
				"element": "C" 
			},
			{
				"x": -2.1913619474,
				"y": 2.3244999145,
				"z": 1.0302415044,
				"element": "C" 
			},
			{
				"x": -3.421858897,
				"y": 2.1475803222,
				"z": 0.3206375321,
				"element": "C" 
			},
			{
				"x": -4.3242503451,
				"y": 3.1807057416,
				"z": 0.2136798365,
				"element": "C" 
			},
			{
				"x": -5.5213836161,
				"y": 3.1197153591,
				"z": -0.4363635979,
				"element": "O" 
			},
			{
				"x": -5.8878637162,
				"y": 1.8951995327,
				"z": -1.0495263352,
				"element": "C" 
			},
			{
				"x": -4.0410764001,
				"y": 4.4533284867,
				"z": 0.7981475718,
				"element": "C" 
			},
			{
				"x": -2.864655152,
				"y": 4.6606501476,
				"z": 1.455825969,
				"element": "C" 
			},
			{
				"x": -1.8926154401,
				"y": 3.6166061609,
				"z": 1.5969525193,
				"element": "C" 
			},
			{
				"x": -0.7496276037,
				"y": 3.9179408961,
				"z": 2.2312120387,
				"element": "N" 
			},
			{
				"x": 0.1482761359,
				"y": 2.9329133139,
				"z": 2.3970132072,
				"element": "C" 
			},
			{
				"x": -0.0540239144,
				"y": 1.5856715865,
				"z": 1.9309704665,
				"element": "C" 
			},
			{
				"x": 0.907737192,
				"y": 0.5942303209,
				"z": 2.2889870611,
				"element": "C" 
			},
			{
				"x": 2.040872681,
				"y": 0.9156847866,
				"z": 2.9919790841,
				"element": "C" 
			},
			{
				"x": 2.2640864867,
				"y": 2.2671337892,
				"z": 3.3730223654,
				"element": "C" 
			},
			{
				"x": 3.7425261035,
				"y": 2.6504203043,
				"z": 4.2473392624,
				"element": "Cl" 
			},
			{
				"x": 1.3521880653,
				"y": 3.2494796704,
				"z": 3.1018910935,
				"element": "C" 
			},
			{
				"x": 3.9308772271,
				"y": 0.4147266486,
				"z": -3.0022150323,
				"element": "H" 
			},
			{
				"x": 3.0354981964,
				"y": -0.0015017341,
				"z": -4.4618651251,
				"element": "H" 
			},
			{
				"x": 2.1889458582,
				"y": 0.7222895842,
				"z": -3.0791168012,
				"element": "H" 
			},
			{
				"x": 3.500507956,
				"y": -2.0663973868,
				"z": -3.1170852125,
				"element": "H" 
			},
			{
				"x": 1.7879329529,
				"y": -1.7601289858,
				"z": -3.3427288894,
				"element": "H" 
			},
			{
				"x": 3.7931268482,
				"y": 0.0371762102,
				"z": -0.8268098225,
				"element": "H" 
			},
			{
				"x": 3.1694758415,
				"y": -0.9381742096,
				"z": 0.478545174,
				"element": "H" 
			},
			{
				"x": 5.5597879037,
				"y": -1.4478607543,
				"z": 0.0907380753,
				"element": "H" 
			},
			{
				"x": 4.6086089915,
				"y": -2.8891096009,
				"z": -0.2865462579,
				"element": "H" 
			},
			{
				"x": 5.2560489169,
				"y": -1.8855355473,
				"z": -1.5921535457,
				"element": "H" 
			},
			{
				"x": 2.3682996227,
				"y": -3.5560571154,
				"z": -1.4590079069,
				"element": "H" 
			},
			{
				"x": 2.0076585205,
				"y": -2.8240345794,
				"z": 0.0989351445,
				"element": "H" 
			},
			{
				"x": 0.0862617138,
				"y": -3.9208715501,
				"z": -1.1490282955,
				"element": "H" 
			},
			{
				"x": 0.1093447589,
				"y": -2.6024638793,
				"z": -2.2922612958,
				"element": "H" 
			},
			{
				"x": -0.3564753823,
				"y": -2.3563504438,
				"z": 0.7387102586,
				"element": "H" 
			},
			{
				"x": -1.625425219,
				"y": -2.4050322597,
				"z": -0.4684094325,
				"element": "H" 
			},
			{
				"x": 0.4584377359,
				"y": -0.1930777571,
				"z": -0.1965281445,
				"element": "H" 
			},
			{
				"x": -1.9862673234,
				"y": -0.3738667416,
				"z": -2.0334885844,
				"element": "H" 
			},
			{
				"x": -0.2909802285,
				"y": -0.3323136985,
				"z": -2.5451277535,
				"element": "H" 
			},
			{
				"x": -1.0088667528,
				"y": 1.0834914819,
				"z": -1.7667596587,
				"element": "H" 
			},
			{
				"x": -2.4043728994,
				"y": -0.1677362376,
				"z": 0.4650815149,
				"element": "H" 
			},
			{
				"x": -3.6353631177,
				"y": 1.198358077,
				"z": -0.1534982665,
				"element": "H" 
			},
			{
				"x": -5.1774581097,
				"y": 1.6102933517,
				"z": -1.8368458415,
				"element": "H" 
			},
			{
				"x": -5.9541721445,
				"y": 1.0813934334,
				"z": -0.3154107793,
				"element": "H" 
			},
			{
				"x": -6.870274366,
				"y": 2.0601373126,
				"z": -1.4942625969,
				"element": "H" 
			},
			{
				"x": -4.7826747041,
				"y": 5.2381139124,
				"z": 0.6893695904,
				"element": "H" 
			},
			{
				"x": -2.6211541228,
				"y": 5.6209878187,
				"z": 1.8977315103,
				"element": "H" 
			},
			{
				"x": 0.7119877978,
				"y": -0.4405540262,
				"z": 2.0333961208,
				"element": "H" 
			},
			{
				"x": 2.7565843836,
				"y": 0.1539694345,
				"z": 3.2802292661,
				"element": "H" 
			},
			{
				"x": 1.4967037737,
				"y": 4.2748449577,
				"z": 3.4203576269,
				"element": "H" 
			}
		],
		 "valence_orbital": [ 
			{
				"type": "occ",
				"energy": -0.24836,
				"method": "rhf"
			},
			{
				"type": "occ",
				"energy": -0.24426,
				"method": "rhf"
			},
			{
				"type": "occ",
				"energy": -0.22906,
				"method": "rhf"
			},
			{
				"type": "occ",
				"energy": -0.21005,
				"method": "rhf"
			},
			{
				"type": "occ",
				"energy": -0.1911,
				"method": "rhf"
			},
			{
				"type": "unocc",
				"energy": -0.06536,
				"method": "rhf"
			},
			{
				"type": "unocc",
				"energy": -0.01444,
				"method": "rhf"
			},
			{
				"type": "unocc",
				"energy": 0.00477,
				"method": "rhf"
			},
			{
				"type": "unocc",
				"energy": 0.03476,
				"method": "rhf"
			},
			{
				"type": "unocc",
				"energy": 0.03878,
				"method": "rhf"
			}
		],
		"cosmo_sigma_profile": { 
			"-0.025": 0.0,
			"-0.024": 0.0,
			"-0.023": 0.0,
			"-0.022": 0.0,
			"-0.021": 0.0,
			"-0.02": 0.0,
			"-0.019": 0.0,
			"-0.018": 0.0,
			"-0.017": 0.0,
			"-0.016": 0.0,
			"-0.015": 0.0,
			"-0.014": 0.0,
			"-0.013": 0.276935252569,
			"-0.012": 1.03429358309,
			"-0.011": 0.936080069117,
			"-0.01": 1.0816423084,
			"-0.009": 1.70117146651,
			"-0.008": 1.24875980209,
			"-0.007": 5.13199102203,
			"-0.006": 11.5995074589,
			"-0.005": 18.4139497747,
			"-0.004": 21.6299739691,
			"-0.003": 41.1191807396,
			"-0.002": 49.42150139,
			"-0.001": 61.3213835964,
			"0.0": 57.8051900456,
			"0.001": 52.7922679573,
			"0.002": 45.8392687366,
			"0.003": 37.2419873687,
			"0.004": 23.6641320357,
			"0.005": 12.4879513155,
			"0.006": 4.55199581984,
			"0.007": 4.91844810155,
			"0.008": 4.65828236977,
			"0.009": 2.93913700314,
			"0.01": 2.49524842355,
			"0.011": 1.22923786022,
			"0.012": 0.684264947439,
			"0.013": 0.907794079461,
			"0.014": 0.872011392758,
			"0.015": 0.697722159753,
			"0.016": 0.381705101566,
			"0.017": 0.0,
			"0.018": 0.0,
			"0.019": 0.0,
			"0.02": 0.0,
			"0.021": 0.0,
			"0.022": 0.0,
			"0.023": 0.0,
			"0.024": 0.0,
			"0.025": 0.0
		}
	}
}
