{
	 "smiles": "CC1=C(OC2=CC=C(C=C2)C(O)=O)C=CC(=C1)C#N", 
	 "Tm": 486.15, 
	 "num_atms": 30, 
	 "gaussian": { 
		 "optdone": 1, 
		 "sigma_profile": "yes", 
		 "theory": "DFT", 
		 "functional": "B3LYP", 
		 "basiset": "6-31G**", 
		 "properties": { 
			 "R2extent": 7819.5843, 
			 "electric_dipole_moment_norm": 1.27387291752, 
			 "electric_quadrupole_moment_norm": 49.2244737621, 
			 "total_energy": -858.640526508, 
			 "HOMO_LUMO_gap": 0.18285, 
			 "cosmo_polarized_energy": -21.5, 
			 "cosmo_cavitation_energy": 36.67, 
			 "cosmo_dispersion_energy": -25.42, 
			 "cosmo_repulsion_energy": 1.95, 
			 "cosmo_total_nonelectrostatic_energy": 13.21, 
			 "SMD_solvation_energy": 9.03 
		},
		"coords": [
			{
				"x": 4.1313543884,
				"y": -0.8075363075,
				"z": -0.4663214896,
				"element": "C" 
			},
			{
				"x": 3.07350229,
				"y": -1.2999000013,
				"z": -1.4202783253,
				"element": "C" 
			},
			{
				"x": 1.865071533,
				"y": -0.5954412563,
				"z": -1.5733143351,
				"element": "C" 
			},
			{
				"x": 1.7573038912,
				"y": 0.5768904123,
				"z": -0.8548538498,
				"element": "O" 
			},
			{
				"x": 0.5537402314,
				"y": 1.0070815844,
				"z": -0.3415193112,
				"element": "C" 
			},
			{
				"x": -0.3861530814,
				"y": 0.1336997483,
				"z": 0.2152419557,
				"element": "C" 
			},
			{
				"x": -1.5476199072,
				"y": 0.6567190458,
				"z": 0.7785382608,
				"element": "C" 
			},
			{
				"x": -1.7799529807,
				"y": 2.0395267739,
				"z": 0.8006074204,
				"element": "C" 
			},
			{
				"x": -0.8084659445,
				"y": 2.8984790089,
				"z": 0.2655058668,
				"element": "C" 
			},
			{
				"x": 0.3472522214,
				"y": 2.3901307925,
				"z": -0.3127889078,
				"element": "C" 
			},
			{
				"x": -2.9981881543,
				"y": 2.6623199958,
				"z": 1.4091933991,
				"element": "C" 
			},
			{
				"x": -4.0829300797,
				"y": 1.8579870952,
				"z": 1.5770318304,
				"element": "O" 
			},
			{
				"x": -3.0498533076,
				"y": 3.821709617,
				"z": 1.7468059608,
				"element": "O" 
			},
			{
				"x": 0.8748896703,
				"y": -1.0164894996,
				"z": -2.4652811743,
				"element": "C" 
			},
			{
				"x": 1.0681492354,
				"y": -2.1717597717,
				"z": -3.2142319582,
				"element": "C" 
			},
			{
				"x": 2.2591409621,
				"y": -2.9009138769,
				"z": -3.0752797614,
				"element": "C" 
			},
			{
				"x": 3.2492358751,
				"y": -2.453121718,
				"z": -2.1834748876,
				"element": "C" 
			},
			{
				"x": 2.4679912244,
				"y": -4.094858213,
				"z": -3.8393876741,
				"element": "C" 
			},
			{
				"x": 2.6367357113,
				"y": -5.0652484256,
				"z": -4.4588529473,
				"element": "N" 
			},
			{
				"x": 3.7326163772,
				"y": -0.70154899,
				"z": 0.547707083,
				"element": "H" 
			},
			{
				"x": 4.9776266015,
				"y": -1.4975681626,
				"z": -0.434972518,
				"element": "H" 
			},
			{
				"x": 4.5026818117,
				"y": 0.1791645988,
				"z": -0.7628339755,
				"element": "H" 
			},
			{
				"x": -0.2032268007,
				"y": -0.9349028884,
				"z": 0.221032074,
				"element": "H" 
			},
			{
				"x": -2.2471221794,
				"y": -0.0332377873,
				"z": 1.2443674259,
				"element": "H" 
			},
			{
				"x": -0.9850959711,
				"y": 3.9675687255,
				"z": 0.3098503099,
				"element": "H" 
			},
			{
				"x": 1.1014764196,
				"y": 3.0424515492,
				"z": -0.7395438441,
				"element": "H" 
			},
			{
				"x": -3.9576152764,
				"y": 1.0212804094,
				"z": 1.1090595036,
				"element": "H" 
			},
			{
				"x": -0.0356976034,
				"y": -0.4384243083,
				"z": -2.5749288035,
				"element": "H" 
			},
			{
				"x": 0.3068604289,
				"y": -2.5060981366,
				"z": -3.9105423885,
				"element": "H" 
			},
			{
				"x": 4.1687924134,
				"y": -3.0212600137,
				"z": -2.0847349393,
				"element": "H" 
			}
		],
		 "valence_orbital": [ 
			{
				"type": "occ",
				"energy": -0.28759,
				"method": "rhf"
			},
			{
				"type": "occ",
				"energy": -0.28298,
				"method": "rhf"
			},
			{
				"type": "occ",
				"energy": -0.2795,
				"method": "rhf"
			},
			{
				"type": "occ",
				"energy": -0.27259,
				"method": "rhf"
			},
			{
				"type": "occ",
				"energy": -0.24625,
				"method": "rhf"
			},
			{
				"type": "unocc",
				"energy": -0.0634,
				"method": "rhf"
			},
			{
				"type": "unocc",
				"energy": -0.0485,
				"method": "rhf"
			},
			{
				"type": "unocc",
				"energy": -0.04051,
				"method": "rhf"
			},
			{
				"type": "unocc",
				"energy": -0.02839,
				"method": "rhf"
			},
			{
				"type": "unocc",
				"energy": 0.03318,
				"method": "rhf"
			}
		],
		"cosmo_sigma_profile": { 
			"-0.025": 0.0,
			"-0.024": 0.0,
			"-0.023": 0.0,
			"-0.022": 0.0,
			"-0.021": 0.0,
			"-0.02": 0.0,
			"-0.019": 0.159247558938,
			"-0.018": 1.14878132317,
			"-0.017": 0.839954175899,
			"-0.016": 1.32582522062,
			"-0.015": 0.717819590844,
			"-0.014": 0.819224759302,
			"-0.013": 0.902407225234,
			"-0.012": 1.32351051729,
			"-0.011": 1.11712047863,
			"-0.01": 1.39454345829,
			"-0.009": 1.58572008759,
			"-0.008": 6.40959448507,
			"-0.007": 13.5695239145,
			"-0.006": 14.8394510112,
			"-0.005": 15.1617382702,
			"-0.004": 18.353569647,
			"-0.003": 20.1159961806,
			"-0.002": 17.8773630872,
			"-0.001": 27.051190535,
			"0.0": 24.7297186904,
			"0.001": 24.6608422064,
			"0.002": 27.7687703461,
			"0.003": 11.15186169,
			"0.004": 5.32580548856,
			"0.005": 5.61523800804,
			"0.006": 5.8284548149,
			"0.007": 5.18110320941,
			"0.008": 6.40921604618,
			"0.009": 6.58178311221,
			"0.01": 7.77759912432,
			"0.011": 8.51570719679,
			"0.012": 7.22686431645,
			"0.013": 3.57258531817,
			"0.014": 0.285028369677,
			"0.015": 0.0,
			"0.016": 0.0,
			"0.017": 0.0,
			"0.018": 0.0,
			"0.019": 0.0,
			"0.02": 0.0,
			"0.021": 0.0,
			"0.022": 0.0,
			"0.023": 0.0,
			"0.024": 0.0,
			"0.025": 0.0
		}
	}
}
