{
	 "smiles": "CC1=CC=CC(C)=C1Cl", 
	 "Tm": 237.65, 
	 "num_atms": 18, 
	 "gaussian": { 
		 "optdone": 1, 
		 "sigma_profile": "yes", 
		 "theory": "DFT", 
		 "functional": "B3LYP", 
		 "basiset": "6-31G**", 
		 "properties": { 
			 "R2extent": 2512.8789, 
			 "electric_dipole_moment_norm": 1.33189019442, 
			 "electric_quadrupole_moment_norm": 6.72394680972, 
			 "total_energy": -770.484649187, 
			 "HOMO_LUMO_gap": 0.2302, 
			 "cosmo_polarized_energy": -3.37, 
			 "cosmo_cavitation_energy": 22.6, 
			 "cosmo_dispersion_energy": -16.75, 
			 "cosmo_repulsion_energy": 1.36, 
			 "cosmo_total_nonelectrostatic_energy": 7.2, 
			 "SMD_solvation_energy": 3.7 
		},
		"coords": [
			{
				"x": -1.5725345861,
				"y": -1.0108650003,
				"z": -2.1153065312,
				"element": "C" 
			},
			{
				"x": -0.079504498,
				"y": -1.083919678,
				"z": -2.3115625625,
				"element": "C" 
			},
			{
				"x": 0.463211022,
				"y": -1.4170418014,
				"z": -3.5593540368,
				"element": "C" 
			},
			{
				"x": 1.8405638809,
				"y": -1.4876819004,
				"z": -3.7531950622,
				"element": "C" 
			},
			{
				"x": 2.7047562768,
				"y": -1.2240645427,
				"z": -2.6933130919,
				"element": "C" 
			},
			{
				"x": 2.2172596452,
				"y": -0.8862174601,
				"z": -1.424179682,
				"element": "C" 
			},
			{
				"x": 3.1638131882,
				"y": -0.6032291949,
				"z": -0.2853407867,
				"element": "C" 
			},
			{
				"x": 0.8236125428,
				"y": -0.8253496816,
				"z": -1.268640252,
				"element": "C" 
			},
			{
				"x": 0.1731210613,
				"y": -0.4017329178,
				"z": 0.3206483724,
				"element": "Cl" 
			},
			{
				"x": -1.9097161281,
				"y": -1.7130447771,
				"z": -1.3452979268,
				"element": "H" 
			},
			{
				"x": -2.0945597137,
				"y": -1.2457159845,
				"z": -3.0461305531,
				"element": "H" 
			},
			{
				"x": -1.8847487476,
				"y": -0.0132879495,
				"z": -1.7881552694,
				"element": "H" 
			},
			{
				"x": -0.2138984152,
				"y": -1.6220715714,
				"z": -4.3840797928,
				"element": "H" 
			},
			{
				"x": 2.2399522271,
				"y": -1.7478361976,
				"z": -4.7289448403,
				"element": "H" 
			},
			{
				"x": 3.7798981084,
				"y": -1.2782642536,
				"z": -2.8410251813,
				"element": "H" 
			},
			{
				"x": 2.9996490559,
				"y": -1.2904519995,
				"z": 0.5515805379,
				"element": "H" 
			},
			{
				"x": 4.201199949,
				"y": -0.7039857252,
				"z": -0.6136289535,
				"element": "H" 
			},
			{
				"x": 3.0245251311,
				"y": 0.4092606353,
				"z": 0.1085256123,
				"element": "H" 
			}
		],
		 "valence_orbital": [ 
			{
				"type": "occ",
				"energy": -0.34509,
				"method": "rhf"
			},
			{
				"type": "occ",
				"energy": -0.32781,
				"method": "rhf"
			},
			{
				"type": "occ",
				"energy": -0.3053,
				"method": "rhf"
			},
			{
				"type": "occ",
				"energy": -0.24364,
				"method": "rhf"
			},
			{
				"type": "occ",
				"energy": -0.23747,
				"method": "rhf"
			},
			{
				"type": "unocc",
				"energy": -0.00727,
				"method": "rhf"
			},
			{
				"type": "unocc",
				"energy": -0.00164,
				"method": "rhf"
			},
			{
				"type": "unocc",
				"energy": 0.03782,
				"method": "rhf"
			},
			{
				"type": "unocc",
				"energy": 0.10198,
				"method": "rhf"
			},
			{
				"type": "unocc",
				"energy": 0.1234,
				"method": "rhf"
			}
		],
		"cosmo_sigma_profile": { 
			"-0.025": 0.0,
			"-0.024": 0.0,
			"-0.023": 0.0,
			"-0.022": 0.0,
			"-0.021": 0.0,
			"-0.02": 0.0,
			"-0.019": 0.0,
			"-0.018": 0.0,
			"-0.017": 0.0,
			"-0.016": 0.0,
			"-0.015": 0.0,
			"-0.014": 0.0,
			"-0.013": 0.0,
			"-0.012": 0.0,
			"-0.011": 0.0,
			"-0.01": 0.0,
			"-0.009": 0.0,
			"-0.008": 0.0,
			"-0.007": 0.0210275783566,
			"-0.006": 4.53925423472,
			"-0.005": 10.1769261974,
			"-0.004": 14.9434162277,
			"-0.003": 15.4871801914,
			"-0.002": 15.7331260615,
			"-0.001": 19.964644879,
			"0.0": 23.4941190742,
			"0.001": 16.0258265578,
			"0.002": 13.7655300306,
			"0.003": 15.1195554291,
			"0.004": 16.2292948698,
			"0.005": 12.9352411654,
			"0.006": 2.75309661796,
			"0.007": 0.0,
			"0.008": 0.0,
			"0.009": 0.0,
			"0.01": 0.0,
			"0.011": 0.0,
			"0.012": 0.0,
			"0.013": 0.0,
			"0.014": 0.0,
			"0.015": 0.0,
			"0.016": 0.0,
			"0.017": 0.0,
			"0.018": 0.0,
			"0.019": 0.0,
			"0.02": 0.0,
			"0.021": 0.0,
			"0.022": 0.0,
			"0.023": 0.0,
			"0.024": 0.0,
			"0.025": 0.0
		}
	}
}
