{
	 "smiles": "NC1=C(CO)C(Br)=CC=C1", 
	 "Tm": 368.15, 
	 "num_atms": 18, 
	 "gaussian": { 
		 "optdone": 1, 
		 "sigma_profile": "yes", 
		 "theory": "DFT", 
		 "functional": "B3LYP", 
		 "basiset": "6-31G**", 
		 "properties": { 
			 "R2extent": 2940.3213, 
			 "electric_dipole_moment_norm": 2.51012995082, 
			 "electric_quadrupole_moment_norm": 13.3393469312, 
			 "total_energy": -2972.93948687, 
			 "HOMO_LUMO_gap": 0.19558, 
			 "cosmo_polarized_energy": -10.46, 
			 "cosmo_cavitation_energy": 23.22, 
			 "cosmo_dispersion_energy": -18.01, 
			 "cosmo_repulsion_energy": 1.47, 
			 "cosmo_total_nonelectrostatic_energy": 6.68, 
			 "SMD_solvation_energy": 2.89 
		},
		"coords": [
			{
				"x": -1.6074060186,
				"y": -0.0849134934,
				"z": 3.3062489512,
				"element": "N" 
			},
			{
				"x": -1.3608793285,
				"y": 0.5455865131,
				"z": 2.0908445408,
				"element": "C" 
			},
			{
				"x": -1.5222925102,
				"y": -0.189682706,
				"z": 0.8858959473,
				"element": "C" 
			},
			{
				"x": -1.9371248302,
				"y": -1.6343626157,
				"z": 0.979583394,
				"element": "C" 
			},
			{
				"x": -3.2009682391,
				"y": -1.7253849188,
				"z": 1.6655606169,
				"element": "O" 
			},
			{
				"x": -1.2319300952,
				"y": 0.465950296,
				"z": -0.3149192475,
				"element": "C" 
			},
			{
				"x": -1.4222413155,
				"y": -0.4375127453,
				"z": -2.0056336527,
				"element": "Br" 
			},
			{
				"x": -0.7803928842,
				"y": 1.7837956181,
				"z": -0.3694257042,
				"element": "C" 
			},
			{
				"x": -0.615607885,
				"y": 2.4780492004,
				"z": 0.8283514823,
				"element": "C" 
			},
			{
				"x": -0.9052150577,
				"y": 1.8728939609,
				"z": 2.0455193512,
				"element": "C" 
			},
			{
				"x": -2.3630044715,
				"y": -0.760649532,
				"z": 3.2602080152,
				"element": "H" 
			},
			{
				"x": -1.6810939902,
				"y": 0.5407290941,
				"z": 4.0964900423,
				"element": "H" 
			},
			{
				"x": -2.0105977172,
				"y": -2.0737981709,
				"z": -0.0184253303,
				"element": "H" 
			},
			{
				"x": -1.1679646418,
				"y": -2.1849398757,
				"z": 1.5446129219,
				"element": "H" 
			},
			{
				"x": -3.4106669869,
				"y": -2.6638111373,
				"z": 1.7591979718,
				"element": "H" 
			},
			{
				"x": -0.5651974134,
				"y": 2.2486065021,
				"z": -1.3232817683,
				"element": "H" 
			},
			{
				"x": -0.2661604074,
				"y": 3.5063379648,
				"z": 0.8070362333,
				"element": "H" 
			},
			{
				"x": -0.7832562074,
				"y": 2.4237060457,
				"z": 2.9746362349,
				"element": "H" 
			}
		],
		 "valence_orbital": [ 
			{
				"type": "occ",
				"energy": -0.29287,
				"method": "rhf"
			},
			{
				"type": "occ",
				"energy": -0.28738,
				"method": "rhf"
			},
			{
				"type": "occ",
				"energy": -0.27151,
				"method": "rhf"
			},
			{
				"type": "occ",
				"energy": -0.23759,
				"method": "rhf"
			},
			{
				"type": "occ",
				"energy": -0.20505,
				"method": "rhf"
			},
			{
				"type": "unocc",
				"energy": -0.00947,
				"method": "rhf"
			},
			{
				"type": "unocc",
				"energy": 0.00987,
				"method": "rhf"
			},
			{
				"type": "unocc",
				"energy": 0.0128,
				"method": "rhf"
			},
			{
				"type": "unocc",
				"energy": 0.0699,
				"method": "rhf"
			},
			{
				"type": "unocc",
				"energy": 0.09746,
				"method": "rhf"
			}
		],
		"cosmo_sigma_profile": { 
			"-0.025": 0.0,
			"-0.024": 0.0,
			"-0.023": 0.0,
			"-0.022": 0.0,
			"-0.021": 0.0,
			"-0.02": 0.0,
			"-0.019": 0.0,
			"-0.018": 0.0,
			"-0.017": 0.0913603697152,
			"-0.016": 0.906948864924,
			"-0.015": 1.16679208997,
			"-0.014": 0.998125674472,
			"-0.013": 0.943913510898,
			"-0.012": 2.50418418089,
			"-0.011": 2.04710087803,
			"-0.01": 2.42517316568,
			"-0.009": 2.69784022168,
			"-0.008": 3.26123654767,
			"-0.007": 3.69295617853,
			"-0.006": 7.46116225006,
			"-0.005": 9.54835155263,
			"-0.004": 11.1530333992,
			"-0.003": 12.6772207065,
			"-0.002": 11.1919590363,
			"-0.001": 8.34071899539,
			"0.0": 10.1934901045,
			"0.001": 10.5732225113,
			"0.002": 13.2351475477,
			"0.003": 16.0269231983,
			"0.004": 19.139424763,
			"0.005": 19.7360837809,
			"0.006": 4.5802783169,
			"0.007": 2.02355905964,
			"0.008": 2.02826272896,
			"0.009": 1.5642398594,
			"0.01": 1.60292126595,
			"0.011": 1.44561957982,
			"0.012": 1.51654986347,
			"0.013": 1.63071414376,
			"0.014": 0.812971798373,
			"0.015": 0.0640152753925,
			"0.016": 0.0,
			"0.017": 0.0,
			"0.018": 0.0,
			"0.019": 0.0,
			"0.02": 0.0,
			"0.021": 0.0,
			"0.022": 0.0,
			"0.023": 0.0,
			"0.024": 0.0,
			"0.025": 0.0
		}
	}
}
