{
	 "smiles": "CN(C(=O)CCl)C1(CCCCC1)C#N", 
	 "Tm": 361.15, 
	 "num_atms": 29, 
	 "gaussian": { 
		 "optdone": 1, 
		 "sigma_profile": "yes", 
		 "theory": "DFT", 
		 "functional": "B3LYP", 
		 "basiset": "6-31G**", 
		 "properties": { 
			 "R2extent": 3361.1497, 
			 "electric_dipole_moment_norm": 5.06932685965, 
			 "electric_quadrupole_moment_norm": 12.3229184405, 
			 "total_energy": -1035.01101239, 
			 "HOMO_LUMO_gap": 0.23046, 
			 "cosmo_polarized_energy": -13.91, 
			 "cosmo_cavitation_energy": 31.26, 
			 "cosmo_dispersion_energy": -22.02, 
			 "cosmo_repulsion_energy": 1.73, 
			 "cosmo_total_nonelectrostatic_energy": 10.96, 
			 "SMD_solvation_energy": 5.89 
		},
		"coords": [
			{
				"x": -1.533947781,
				"y": -0.655198576,
				"z": -2.6034480908,
				"element": "C" 
			},
			{
				"x": -0.7200178909,
				"y": -0.9094597754,
				"z": -1.4064102648,
				"element": "N" 
			},
			{
				"x": -0.6342760584,
				"y": -2.2414000096,
				"z": -1.0214391377,
				"element": "C" 
			},
			{
				"x": -1.1404331307,
				"y": -3.1380947148,
				"z": -1.6820808383,
				"element": "O" 
			},
			{
				"x": 0.112473259,
				"y": -2.6470039141,
				"z": 0.2541205465,
				"element": "C" 
			},
			{
				"x": -1.0782055134,
				"y": -3.1405016946,
				"z": 1.5333863607,
				"element": "Cl" 
			},
			{
				"x": -0.1609445377,
				"y": 0.2501230197,
				"z": -0.650179335,
				"element": "C" 
			},
			{
				"x": -0.9224816454,
				"y": 0.4766053256,
				"z": 0.6883015963,
				"element": "C" 
			},
			{
				"x": -0.4182542311,
				"y": 1.6973635979,
				"z": 1.4716826011,
				"element": "C" 
			},
			{
				"x": -0.4668330603,
				"y": 2.9754813564,
				"z": 0.6246832904,
				"element": "C" 
			},
			{
				"x": 0.2843965257,
				"y": 2.7847246551,
				"z": -0.6994677582,
				"element": "C" 
			},
			{
				"x": -0.2387139108,
				"y": 1.5695226384,
				"z": -1.4829786457,
				"element": "C" 
			},
			{
				"x": 1.2874373222,
				"y": 0.0269471597,
				"z": -0.4090449209,
				"element": "C" 
			},
			{
				"x": 2.4283541373,
				"y": -0.0984786453,
				"z": -0.2310313454,
				"element": "N" 
			},
			{
				"x": -0.9661921567,
				"y": -0.1216059503,
				"z": -3.3683427747,
				"element": "H" 
			},
			{
				"x": -1.8309142267,
				"y": -1.6253855487,
				"z": -2.9936795162,
				"element": "H" 
			},
			{
				"x": -2.4351301874,
				"y": -0.0832632126,
				"z": -2.3587011844,
				"element": "H" 
			},
			{
				"x": 0.6868428413,
				"y": -3.5390705424,
				"z": 0.0089290565,
				"element": "H" 
			},
			{
				"x": 0.7651797629,
				"y": -1.9052583782,
				"z": 0.7011512502,
				"element": "H" 
			},
			{
				"x": -1.976004407,
				"y": 0.6135761125,
				"z": 0.4135753458,
				"element": "H" 
			},
			{
				"x": -0.8786629897,
				"y": -0.4204756076,
				"z": 1.3085397694,
				"element": "H" 
			},
			{
				"x": 0.6109238109,
				"y": 1.5157011255,
				"z": 1.8073007277,
				"element": "H" 
			},
			{
				"x": -1.0240208868,
				"y": 1.811193143,
				"z": 2.3772960467,
				"element": "H" 
			},
			{
				"x": -0.0419954255,
				"y": 3.817861161,
				"z": 1.1815063149,
				"element": "H" 
			},
			{
				"x": -1.5144767814,
				"y": 3.233507214,
				"z": 0.4151450436,
				"element": "H" 
			},
			{
				"x": 0.1794532515,
				"y": 3.6728327706,
				"z": -1.3323670004,
				"element": "H" 
			},
			{
				"x": 1.3570763358,
				"y": 2.6658712187,
				"z": -0.5053494589,
				"element": "H" 
			},
			{
				"x": 0.3221705879,
				"y": 1.4514981903,
				"z": -2.4142723959,
				"element": "H" 
			},
			{
				"x": -1.2868030136,
				"y": 1.7421878812,
				"z": -1.7440252825,
				"element": "H" 
			}
		],
		 "valence_orbital": [ 
			{
				"type": "occ",
				"energy": -0.32566,
				"method": "rhf"
			},
			{
				"type": "occ",
				"energy": -0.30946,
				"method": "rhf"
			},
			{
				"type": "occ",
				"energy": -0.30188,
				"method": "rhf"
			},
			{
				"type": "occ",
				"energy": -0.26402,
				"method": "rhf"
			},
			{
				"type": "occ",
				"energy": -0.25893,
				"method": "rhf"
			},
			{
				"type": "unocc",
				"energy": -0.02847,
				"method": "rhf"
			},
			{
				"type": "unocc",
				"energy": 0.00821,
				"method": "rhf"
			},
			{
				"type": "unocc",
				"energy": 0.01915,
				"method": "rhf"
			},
			{
				"type": "unocc",
				"energy": 0.05171,
				"method": "rhf"
			},
			{
				"type": "unocc",
				"energy": 0.06458,
				"method": "rhf"
			}
		],
		"cosmo_sigma_profile": { 
			"-0.025": 0.0,
			"-0.024": 0.0,
			"-0.023": 0.0,
			"-0.022": 0.0,
			"-0.021": 0.0,
			"-0.02": 0.0,
			"-0.019": 0.0,
			"-0.018": 0.0,
			"-0.017": 0.0,
			"-0.016": 0.0,
			"-0.015": 0.0,
			"-0.014": 0.0,
			"-0.013": 0.0,
			"-0.012": 0.0,
			"-0.011": 0.0,
			"-0.01": 0.00770600081009,
			"-0.009": 1.74473210517,
			"-0.008": 3.22621842036,
			"-0.007": 6.87136893366,
			"-0.006": 11.6828381361,
			"-0.005": 14.6658925565,
			"-0.004": 18.5738193984,
			"-0.003": 29.7012918231,
			"-0.002": 34.3758208047,
			"-0.001": 26.8364070475,
			"0.0": 19.0306520594,
			"0.001": 9.07339641039,
			"0.002": 7.12645894468,
			"0.003": 7.04809080437,
			"0.004": 8.42206468787,
			"0.005": 10.4340677608,
			"0.006": 6.67508042441,
			"0.007": 4.37490623836,
			"0.008": 4.18385093818,
			"0.009": 4.45305502693,
			"0.01": 4.14719791811,
			"0.011": 4.66761650049,
			"0.012": 6.16846688394,
			"0.013": 3.52097263345,
			"0.014": 0.320044190318,
			"0.015": 0.0,
			"0.016": 0.0,
			"0.017": 0.0,
			"0.018": 0.0,
			"0.019": 0.0,
			"0.02": 0.0,
			"0.021": 0.0,
			"0.022": 0.0,
			"0.023": 0.0,
			"0.024": 0.0,
			"0.025": 0.0
		}
	}
}
