{
	 "smiles": "NC1=C2OCC(=O)NC2=CC(=C1)C(F)(F)F", 
	 "Tm": 473.15, 
	 "num_atms": 23, 
	 "gaussian": { 
		 "optdone": 1, 
		 "sigma_profile": "yes", 
		 "theory": "DFT", 
		 "functional": "B3LYP", 
		 "basiset": "6-31G**", 
		 "properties": { 
			 "R2extent": 4659.4569, 
			 "electric_dipole_moment_norm": 2.69736097881, 
			 "electric_quadrupole_moment_norm": 16.4301118438, 
			 "total_energy": -906.664967009, 
			 "HOMO_LUMO_gap": 0.18812, 
			 "cosmo_polarized_energy": -14.63, 
			 "cosmo_cavitation_energy": 28.83, 
			 "cosmo_dispersion_energy": -21.08, 
			 "cosmo_repulsion_energy": 1.58, 
			 "cosmo_total_nonelectrostatic_energy": 9.33, 
			 "SMD_solvation_energy": 6.78 
		},
		"coords": [
			{
				"x": 2.1832290398,
				"y": -1.6466515285,
				"z": 0.7768464031,
				"element": "N" 
			},
			{
				"x": 1.4632076539,
				"y": -0.9907750995,
				"z": -0.2097503414,
				"element": "C" 
			},
			{
				"x": 0.8905145321,
				"y": 0.2610443482,
				"z": 0.073544749,
				"element": "C" 
			},
			{
				"x": 1.1646563778,
				"y": 0.8360925577,
				"z": 1.2930138938,
				"element": "O" 
			},
			{
				"x": 0.1355004109,
				"y": 1.6910913403,
				"z": 1.7976811166,
				"element": "C" 
			},
			{
				"x": -0.4060114862,
				"y": 2.676915621,
				"z": 0.7639408562,
				"element": "C" 
			},
			{
				"x": -0.8704846007,
				"y": 3.76039622,
				"z": 1.0728414478,
				"element": "O" 
			},
			{
				"x": -0.3708109253,
				"y": 2.2055883734,
				"z": -0.5244151263,
				"element": "N" 
			},
			{
				"x": 0.1252698926,
				"y": 0.9391672888,
				"z": -0.8778563962,
				"element": "C" 
			},
			{
				"x": -0.096264632,
				"y": 0.3778705578,
				"z": -2.1370423218,
				"element": "C" 
			},
			{
				"x": 0.4775348437,
				"y": -0.8612652757,
				"z": -2.4245264311,
				"element": "C" 
			},
			{
				"x": 1.2476483515,
				"y": -1.5425617284,
				"z": -1.4814772282,
				"element": "C" 
			},
			{
				"x": 0.2005551817,
				"y": -1.5094277857,
				"z": -3.7528988362,
				"element": "C" 
			},
			{
				"x": 1.2258342849,
				"y": -2.2932404858,
				"z": -4.1570316826,
				"element": "F" 
			},
			{
				"x": -0.0185786179,
				"y": -0.5953045786,
				"z": -4.7254151279,
				"element": "F" 
			},
			{
				"x": -0.8980955271,
				"y": -2.2997877278,
				"z": -3.7069978573,
				"element": "F" 
			},
			{
				"x": 2.5030310793,
				"y": -1.0580951087,
				"z": 1.5327390622,
				"element": "H" 
			},
			{
				"x": 2.8737863779,
				"y": -2.3086055926,
				"z": 0.4548932627,
				"element": "H" 
			},
			{
				"x": -0.7051236678,
				"y": 1.0924706717,
				"z": 2.1806666977,
				"element": "H" 
			},
			{
				"x": 0.5667896847,
				"y": 2.2588958871,
				"z": 2.6218719978,
				"element": "H" 
			},
			{
				"x": -0.7862266535,
				"y": 2.7989971237,
				"z": -1.2310059935,
				"element": "H" 
			},
			{
				"x": -0.6876384715,
				"y": 0.9019387259,
				"z": -2.8791382633,
				"element": "H" 
			},
			{
				"x": 1.679876871,
				"y": -2.5062538044,
				"z": -1.728183881,
				"element": "H" 
			}
		],
		 "valence_orbital": [ 
			{
				"type": "occ",
				"energy": -0.33775,
				"method": "rhf"
			},
			{
				"type": "occ",
				"energy": -0.30283,
				"method": "rhf"
			},
			{
				"type": "occ",
				"energy": -0.26843,
				"method": "rhf"
			},
			{
				"type": "occ",
				"energy": -0.22916,
				"method": "rhf"
			},
			{
				"type": "occ",
				"energy": -0.21623,
				"method": "rhf"
			},
			{
				"type": "unocc",
				"energy": -0.02811,
				"method": "rhf"
			},
			{
				"type": "unocc",
				"energy": -0.01063,
				"method": "rhf"
			},
			{
				"type": "unocc",
				"energy": 0.02133,
				"method": "rhf"
			},
			{
				"type": "unocc",
				"energy": 0.06421,
				"method": "rhf"
			},
			{
				"type": "unocc",
				"energy": 0.08449,
				"method": "rhf"
			}
		],
		"cosmo_sigma_profile": { 
			"-0.025": 0.0,
			"-0.024": 0.0,
			"-0.023": 0.0,
			"-0.022": 0.0,
			"-0.021": 0.0,
			"-0.02": 0.0,
			"-0.019": 0.0,
			"-0.018": 0.0,
			"-0.017": 0.0,
			"-0.016": 0.51058286803,
			"-0.015": 1.30532467193,
			"-0.014": 1.25405935176,
			"-0.013": 2.26286655873,
			"-0.012": 3.3761823375,
			"-0.011": 3.21493254631,
			"-0.01": 4.10487735858,
			"-0.009": 3.61897186759,
			"-0.008": 7.71372070815,
			"-0.007": 9.23221314624,
			"-0.006": 8.62404869173,
			"-0.005": 8.03808225624,
			"-0.004": 9.40476396877,
			"-0.003": 8.30402345856,
			"-0.002": 9.07477686902,
			"-0.001": 9.57421668993,
			"0.0": 13.5470698798,
			"0.001": 15.6190585273,
			"0.002": 25.1707725266,
			"0.003": 43.5167843516,
			"0.004": 13.9697855366,
			"0.005": 2.90061547708,
			"0.006": 3.85721920978,
			"0.007": 1.86564184218,
			"0.008": 2.11092268511,
			"0.009": 2.09001564743,
			"0.01": 2.44328318092,
			"0.011": 2.80927057141,
			"0.012": 5.56426390859,
			"0.013": 4.67936436714,
			"0.014": 0.460289844442,
			"0.015": 0.0,
			"0.016": 0.0,
			"0.017": 0.0,
			"0.018": 0.0,
			"0.019": 0.0,
			"0.02": 0.0,
			"0.021": 0.0,
			"0.022": 0.0,
			"0.023": 0.0,
			"0.024": 0.0,
			"0.025": 0.0
		}
	}
}
