{
	 "smiles": "OCC1=CC=C(C=C1)N1C=CN=C1", 
	 "Tm": 361.15, 
	 "num_atms": 23, 
	 "gaussian": { 
		 "optdone": 1, 
		 "sigma_profile": "yes", 
		 "theory": "DFT", 
		 "functional": "B3LYP", 
		 "basiset": "6-31G**", 
		 "properties": { 
			 "R2extent": 3540.7453, 
			 "electric_dipole_moment_norm": 3.23308316472, 
			 "electric_quadrupole_moment_norm": 24.3252136056, 
			 "total_energy": -571.796778214, 
			 "HOMO_LUMO_gap": 0.19839, 
			 "cosmo_polarized_energy": -13.97, 
			 "cosmo_cavitation_energy": 27.21, 
			 "cosmo_dispersion_energy": -19.92, 
			 "cosmo_repulsion_energy": 1.56, 
			 "cosmo_total_nonelectrostatic_energy": 8.84, 
			 "SMD_solvation_energy": 3.79 
		},
		"coords": [
			{
				"x": -3.9435863798,
				"y": -0.8926115582,
				"z": 0.229864619,
				"element": "O" 
			},
			{
				"x": -3.1524469713,
				"y": 0.230974234,
				"z": -0.1263656892,
				"element": "C" 
			},
			{
				"x": -1.6991771986,
				"y": 0.1105751981,
				"z": 0.2923859812,
				"element": "C" 
			},
			{
				"x": -0.9393984404,
				"y": 1.2465870452,
				"z": 0.5929909949,
				"element": "C" 
			},
			{
				"x": 0.4020655555,
				"y": 1.1399846413,
				"z": 0.9543448833,
				"element": "C" 
			},
			{
				"x": 1.0101366183,
				"y": -0.1195415124,
				"z": 1.007450839,
				"element": "C" 
			},
			{
				"x": 0.2613095323,
				"y": -1.2638793106,
				"z": 0.7092566562,
				"element": "C" 
			},
			{
				"x": -1.0823632897,
				"y": -1.1444436896,
				"z": 0.362931064,
				"element": "C" 
			},
			{
				"x": 2.3794362495,
				"y": -0.2329263635,
				"z": 1.3642169329,
				"element": "N" 
			},
			{
				"x": 2.9647656168,
				"y": -1.2246237427,
				"z": 2.1382909881,
				"element": "C" 
			},
			{
				"x": 4.2986090647,
				"y": -0.9138390777,
				"z": 2.1905817412,
				"element": "C" 
			},
			{
				"x": 4.5639352893,
				"y": 0.2293610829,
				"z": 1.4673294914,
				"element": "N" 
			},
			{
				"x": 3.4018311078,
				"y": 0.6107072583,
				"z": 0.9904744432,
				"element": "C" 
			},
			{
				"x": -3.9114549535,
				"y": -0.9788809836,
				"z": 1.1921618893,
				"element": "H" 
			},
			{
				"x": -3.5735970489,
				"y": 1.1682473625,
				"z": 0.2705267423,
				"element": "H" 
			},
			{
				"x": -3.2225171561,
				"y": 0.2933301268,
				"z": -1.2191201871,
				"element": "H" 
			},
			{
				"x": -1.4042382952,
				"y": 2.2292274011,
				"z": 0.5641019042,
				"element": "H" 
			},
			{
				"x": 0.9695461001,
				"y": 2.0243795592,
				"z": 1.2249134282,
				"element": "H" 
			},
			{
				"x": 0.7381237728,
				"y": -2.2385837511,
				"z": 0.728666884,
				"element": "H" 
			},
			{
				"x": -1.6670233421,
				"y": -2.0300599173,
				"z": 0.1349005392,
				"element": "H" 
			},
			{
				"x": 2.3786120389,
				"y": -2.0065408437,
				"z": 2.5945433035,
				"element": "H" 
			},
			{
				"x": 5.0824556241,
				"y": -1.4456639121,
				"z": 2.7120267991,
				"element": "H" 
			},
			{
				"x": 3.2272765053,
				"y": 1.4591207531,
				"z": 0.343625752,
				"element": "H" 
			}
		],
		 "valence_orbital": [ 
			{
				"type": "occ",
				"energy": -0.28394,
				"method": "rhf"
			},
			{
				"type": "occ",
				"energy": -0.26928,
				"method": "rhf"
			},
			{
				"type": "occ",
				"energy": -0.26468,
				"method": "rhf"
			},
			{
				"type": "occ",
				"energy": -0.24219,
				"method": "rhf"
			},
			{
				"type": "occ",
				"energy": -0.22543,
				"method": "rhf"
			},
			{
				"type": "unocc",
				"energy": -0.02704,
				"method": "rhf"
			},
			{
				"type": "unocc",
				"energy": -0.02084,
				"method": "rhf"
			},
			{
				"type": "unocc",
				"energy": 0.03571,
				"method": "rhf"
			},
			{
				"type": "unocc",
				"energy": 0.06649,
				"method": "rhf"
			},
			{
				"type": "unocc",
				"energy": 0.07655,
				"method": "rhf"
			}
		],
		"cosmo_sigma_profile": { 
			"-0.025": 0.0,
			"-0.024": 0.0,
			"-0.023": 0.0,
			"-0.022": 0.0,
			"-0.021": 0.0,
			"-0.02": 0.0,
			"-0.019": 0.0,
			"-0.018": 0.0,
			"-0.017": 0.0,
			"-0.016": 0.279297999981,
			"-0.015": 1.13344047221,
			"-0.014": 0.725375942362,
			"-0.013": 0.579015045179,
			"-0.012": 1.1291701197,
			"-0.011": 0.685981497909,
			"-0.01": 1.21804716145,
			"-0.009": 1.68372018908,
			"-0.008": 4.49825217681,
			"-0.007": 8.93927591909,
			"-0.006": 14.2076972074,
			"-0.005": 17.2060199144,
			"-0.004": 16.6113315624,
			"-0.003": 15.5306803483,
			"-0.002": 13.3779370053,
			"-0.001": 13.122311221,
			"0.0": 12.0580815199,
			"0.001": 14.0698189947,
			"0.002": 12.5606396908,
			"0.003": 12.1636839439,
			"0.004": 16.1310132449,
			"0.005": 8.51062197271,
			"0.006": 5.02322272589,
			"0.007": 3.2505820726,
			"0.008": 2.5603759883,
			"0.009": 2.68213557593,
			"0.01": 1.91952741878,
			"0.011": 2.89497317889,
			"0.012": 2.7234627956,
			"0.013": 2.69230905326,
			"0.014": 3.34549053277,
			"0.015": 1.12854728136,
			"0.016": 0.767777706693,
			"0.017": 1.3436574136,
			"0.018": 0.524138375274,
			"0.019": 0.00392392859896,
			"0.02": 0.0,
			"0.021": 0.0,
			"0.022": 0.0,
			"0.023": 0.0,
			"0.024": 0.0,
			"0.025": 0.0
		}
	}
}
