{
	 "smiles": "NS(=O)(=O)C1=C(Cl)C=C(Br)C=C1", 
	 "Tm": 447.15, 
	 "num_atms": 17, 
	 "gaussian": { 
		 "optdone": 1, 
		 "sigma_profile": "yes", 
		 "theory": "DFT", 
		 "functional": "B3LYP", 
		 "basiset": "6-31G**", 
		 "properties": { 
			 "R2extent": 4471.2235, 
			 "electric_dipole_moment_norm": 4.10349570245, 
			 "electric_quadrupole_moment_norm": 20.3710968946, 
			 "total_energy": -3866.55319091, 
			 "HOMO_LUMO_gap": 0.2096, 
			 "cosmo_polarized_energy": -15.87, 
			 "cosmo_cavitation_energy": 26.95, 
			 "cosmo_dispersion_energy": -20.97, 
			 "cosmo_repulsion_energy": 1.63, 
			 "cosmo_total_nonelectrostatic_energy": 7.61, 
			 "SMD_solvation_energy": 2.94 
		},
		"coords": [
			{
				"x": 0.9922704748,
				"y": -0.5309897078,
				"z": 3.7621023873,
				"element": "N" 
			},
			{
				"x": 1.2880380416,
				"y": 0.5561233963,
				"z": 2.4997772349,
				"element": "S" 
			},
			{
				"x": 0.7959760736,
				"y": 1.8645665483,
				"z": 2.9315432487,
				"element": "O" 
			},
			{
				"x": 2.6690225075,
				"y": 0.3475913787,
				"z": 2.0639143864,
				"element": "O" 
			},
			{
				"x": 0.1909734609,
				"y": -0.0558393204,
				"z": 1.2013960146,
				"element": "C" 
			},
			{
				"x": 0.1373635824,
				"y": 0.5903150239,
				"z": -0.0449095307,
				"element": "C" 
			},
			{
				"x": 1.1081964181,
				"y": 1.9942675709,
				"z": -0.4056801271,
				"element": "Cl" 
			},
			{
				"x": -0.7098639434,
				"y": 0.1181383421,
				"z": -1.0476047897,
				"element": "C" 
			},
			{
				"x": -1.5024786515,
				"y": -1.0006366623,
				"z": -0.8010634477,
				"element": "C" 
			},
			{
				"x": -2.6563024721,
				"y": -1.6380660792,
				"z": -2.1752098682,
				"element": "Br" 
			},
			{
				"x": -1.4644659991,
				"y": -1.6558001064,
				"z": 0.4269816902,
				"element": "C" 
			},
			{
				"x": -0.6149300989,
				"y": -1.1761692585,
				"z": 1.4216051633,
				"element": "C" 
			},
			{
				"x": 0.6248594078,
				"y": -0.019789154,
				"z": 4.5602140524,
				"element": "H" 
			},
			{
				"x": 1.8556483309,
				"y": -1.0166989321,
				"z": 3.9900563037,
				"element": "H" 
			},
			{
				"x": -0.7437859932,
				"y": 0.6233041013,
				"z": -2.0045568058,
				"element": "H" 
			},
			{
				"x": -2.0855605552,
				"y": -2.5249827055,
				"z": 0.6069789235,
				"element": "H" 
			},
			{
				"x": -0.5684605841,
				"y": -1.6693344352,
				"z": 2.3845551643,
				"element": "H" 
			}
		],
		 "valence_orbital": [ 
			{
				"type": "occ",
				"energy": -0.31078,
				"method": "rhf"
			},
			{
				"type": "occ",
				"energy": -0.30521,
				"method": "rhf"
			},
			{
				"type": "occ",
				"energy": -0.29875,
				"method": "rhf"
			},
			{
				"type": "occ",
				"energy": -0.27611,
				"method": "rhf"
			},
			{
				"type": "occ",
				"energy": -0.26313,
				"method": "rhf"
			},
			{
				"type": "unocc",
				"energy": -0.05353,
				"method": "rhf"
			},
			{
				"type": "unocc",
				"energy": -0.04101,
				"method": "rhf"
			},
			{
				"type": "unocc",
				"energy": -0.02004,
				"method": "rhf"
			},
			{
				"type": "unocc",
				"energy": 0.02123,
				"method": "rhf"
			},
			{
				"type": "unocc",
				"energy": 0.04619,
				"method": "rhf"
			}
		],
		"cosmo_sigma_profile": { 
			"-0.025": 0.0,
			"-0.024": 0.0,
			"-0.023": 0.0,
			"-0.022": 0.0,
			"-0.021": 0.0,
			"-0.02": 0.0,
			"-0.019": 0.0,
			"-0.018": 0.0,
			"-0.017": 0.0,
			"-0.016": 0.170844898411,
			"-0.015": 2.22769668467,
			"-0.014": 2.77510129983,
			"-0.013": 2.26360161575,
			"-0.012": 2.59220644673,
			"-0.011": 1.70788130265,
			"-0.01": 1.90916846107,
			"-0.009": 3.29989570678,
			"-0.008": 5.80167229232,
			"-0.007": 6.91899539956,
			"-0.006": 6.13396411118,
			"-0.005": 7.58465929616,
			"-0.004": 8.68406059203,
			"-0.003": 11.3845505033,
			"-0.002": 12.5841276516,
			"-0.001": 20.4272206693,
			"0.0": 25.959765381,
			"0.001": 16.7325705062,
			"0.002": 14.7781501196,
			"0.003": 18.1124983571,
			"0.004": 10.4371434461,
			"0.005": 3.60489435977,
			"0.006": 3.77449740436,
			"0.007": 4.16721733569,
			"0.008": 3.21742938806,
			"0.009": 5.1357493492,
			"0.01": 10.9369673525,
			"0.011": 8.09653339424,
			"0.012": 0.360096844856,
			"0.013": 0.0,
			"0.014": 0.0,
			"0.015": 0.0,
			"0.016": 0.0,
			"0.017": 0.0,
			"0.018": 0.0,
			"0.019": 0.0,
			"0.02": 0.0,
			"0.021": 0.0,
			"0.022": 0.0,
			"0.023": 0.0,
			"0.024": 0.0,
			"0.025": 0.0
		}
	}
}
