{
	 "smiles": "CC(C)C1(COCOC1=O)NC(=O)C1=CC=CC=C1", 
	 "Tm": 435.15, 
	 "num_atms": 36, 
	 "gaussian": { 
		 "optdone": 1, 
		 "sigma_profile": "yes", 
		 "theory": "DFT", 
		 "functional": "B3LYP", 
		 "basiset": "6-31G**", 
		 "properties": { 
			 "R2extent": 5364.7111, 
			 "electric_dipole_moment_norm": 3.29391369954, 
			 "electric_quadrupole_moment_norm": 17.4755583559, 
			 "total_energy": -899.384202822, 
			 "HOMO_LUMO_gap": 0.20595, 
			 "cosmo_polarized_energy": -15.83, 
			 "cosmo_cavitation_energy": 37.09, 
			 "cosmo_dispersion_energy": -26.07, 
			 "cosmo_repulsion_energy": 1.97, 
			 "cosmo_total_nonelectrostatic_energy": 12.99, 
			 "SMD_solvation_energy": 8.29 
		},
		"coords": [
			{
				"x": 0.9834581803,
				"y": -1.0309215799,
				"z": -3.2977095503,
				"element": "C" 
			},
			{
				"x": 1.7087838463,
				"y": 0.1323009775,
				"z": -2.5955706527,
				"element": "C" 
			},
			{
				"x": 2.925409524,
				"y": -0.4084399966,
				"z": -1.8261474121,
				"element": "C" 
			},
			{
				"x": 0.7713712592,
				"y": 1.0079090055,
				"z": -1.7002420679,
				"element": "C" 
			},
			{
				"x": -0.5629607274,
				"y": 1.3347819705,
				"z": -2.4333742726,
				"element": "C" 
			},
			{
				"x": -1.127820971,
				"y": 2.6023284537,
				"z": -2.0669279382,
				"element": "O" 
			},
			{
				"x": -0.7600681143,
				"y": 3.0438158389,
				"z": -0.8101160161,
				"element": "C" 
			},
			{
				"x": 0.6651766924,
				"y": 3.2778079815,
				"z": -0.7505917717,
				"element": "O" 
			},
			{
				"x": 1.4552519862,
				"y": 2.3668791698,
				"z": -1.3676835605,
				"element": "C" 
			},
			{
				"x": 2.6149134457,
				"y": 2.6252466702,
				"z": -1.5814272239,
				"element": "O" 
			},
			{
				"x": 0.5307550922,
				"y": 0.4113663994,
				"z": -0.3635098678,
				"element": "N" 
			},
			{
				"x": -0.3409457501,
				"y": -0.6016488591,
				"z": -0.0284333115,
				"element": "C" 
			},
			{
				"x": -1.1163820571,
				"y": -1.1314973629,
				"z": -0.8200656689,
				"element": "O" 
			},
			{
				"x": -0.2926518964,
				"y": -1.0274485282,
				"z": 1.415266328,
				"element": "C" 
			},
			{
				"x": -0.7931379884,
				"y": -2.3007453791,
				"z": 1.7206022178,
				"element": "C" 
			},
			{
				"x": -0.7827101318,
				"y": -2.7651672478,
				"z": 3.0334507149,
				"element": "C" 
			},
			{
				"x": -0.2852072271,
				"y": -1.9564317615,
				"z": 4.0587406546,
				"element": "C" 
			},
			{
				"x": 0.1961405426,
				"y": -0.6790758066,
				"z": 3.7663537366,
				"element": "C" 
			},
			{
				"x": 0.1932645622,
				"y": -0.2149798618,
				"z": 2.4507543522,
				"element": "C" 
			},
			{
				"x": 0.5428631194,
				"y": -1.7246536672,
				"z": -2.5784019614,
				"element": "H" 
			},
			{
				"x": 0.1826735935,
				"y": -0.6953422305,
				"z": -3.9625620591,
				"element": "H" 
			},
			{
				"x": 1.7027967927,
				"y": -1.5820489225,
				"z": -3.912163432,
				"element": "H" 
			},
			{
				"x": 2.0829988615,
				"y": 0.8196683582,
				"z": -3.3645485039,
				"element": "H" 
			},
			{
				"x": 3.6059474511,
				"y": -0.9058940969,
				"z": -2.5241225792,
				"element": "H" 
			},
			{
				"x": 3.4814635769,
				"y": 0.390299766,
				"z": -1.3324339337,
				"element": "H" 
			},
			{
				"x": 2.6251051568,
				"y": -1.153667906,
				"z": -1.081154221,
				"element": "H" 
			},
			{
				"x": -1.2831239925,
				"y": 0.5338269191,
				"z": -2.2622853698,
				"element": "H" 
			},
			{
				"x": -0.3569256156,
				"y": 1.4141375873,
				"z": -3.503020048,
				"element": "H" 
			},
			{
				"x": -1.0323414043,
				"y": 2.3438224629,
				"z": -0.0105271358,
				"element": "H" 
			},
			{
				"x": -1.2213664078,
				"y": 4.0185137119,
				"z": -0.6468323621,
				"element": "H" 
			},
			{
				"x": 1.280007586,
				"y": 0.559739643,
				"z": 0.2976854976,
				"element": "H" 
			},
			{
				"x": -1.1871497982,
				"y": -2.9061295052,
				"z": 0.911500723,
				"element": "H" 
			},
			{
				"x": -1.1646206416,
				"y": -3.7564622706,
				"z": 3.2590314641,
				"element": "H" 
			},
			{
				"x": -0.2800241155,
				"y": -2.3172081122,
				"z": 5.0831918968,
				"element": "H" 
			},
			{
				"x": 0.5658933475,
				"y": -0.0396879525,
				"z": 4.5624002117,
				"element": "H" 
			},
			{
				"x": 0.5385622228,
				"y": 0.7948061315,
				"z": 2.2467731228,
				"element": "H" 
			}
		],
		 "valence_orbital": [ 
			{
				"type": "occ",
				"energy": -0.28297,
				"method": "rhf"
			},
			{
				"type": "occ",
				"energy": -0.27316,
				"method": "rhf"
			},
			{
				"type": "occ",
				"energy": -0.26775,
				"method": "rhf"
			},
			{
				"type": "occ",
				"energy": -0.26446,
				"method": "rhf"
			},
			{
				"type": "occ",
				"energy": -0.25508,
				"method": "rhf"
			},
			{
				"type": "unocc",
				"energy": -0.04913,
				"method": "rhf"
			},
			{
				"type": "unocc",
				"energy": -0.01915,
				"method": "rhf"
			},
			{
				"type": "unocc",
				"energy": -0.00963,
				"method": "rhf"
			},
			{
				"type": "unocc",
				"energy": 0.04204,
				"method": "rhf"
			},
			{
				"type": "unocc",
				"energy": 0.06443,
				"method": "rhf"
			}
		],
		"cosmo_sigma_profile": { 
			"-0.025": 0.0,
			"-0.024": 0.0,
			"-0.023": 0.0,
			"-0.022": 0.0,
			"-0.021": 0.0,
			"-0.02": 0.0,
			"-0.019": 0.0,
			"-0.018": 0.0,
			"-0.017": 0.0,
			"-0.016": 0.0,
			"-0.015": 0.406585354236,
			"-0.014": 0.663536001585,
			"-0.013": 1.01250547638,
			"-0.012": 0.913586588936,
			"-0.011": 1.17999924169,
			"-0.01": 1.5489805534,
			"-0.009": 1.5729213236,
			"-0.008": 4.24754905834,
			"-0.007": 8.34515293505,
			"-0.006": 19.9994216821,
			"-0.005": 20.4113925212,
			"-0.004": 19.9809271618,
			"-0.003": 23.4637437753,
			"-0.002": 22.8999238551,
			"-0.001": 20.9154278797,
			"0.0": 22.2608700806,
			"0.001": 23.1913705378,
			"0.002": 15.3730910929,
			"0.003": 16.1426941042,
			"0.004": 17.1531552144,
			"0.005": 9.22218592492,
			"0.006": 4.84022940698,
			"0.007": 4.38061813999,
			"0.008": 6.70362493854,
			"0.009": 5.93791398454,
			"0.01": 6.50853177539,
			"0.011": 7.59276705376,
			"0.012": 3.7569166799,
			"0.013": 2.22199240608,
			"0.014": 0.229644728517,
			"0.015": 0.0,
			"0.016": 0.0,
			"0.017": 0.0,
			"0.018": 0.0,
			"0.019": 0.0,
			"0.02": 0.0,
			"0.021": 0.0,
			"0.022": 0.0,
			"0.023": 0.0,
			"0.024": 0.0,
			"0.025": 0.0
		}
	}
}
