{
	 "smiles": "CC(OC1C(O)C(CO)OC(O)C1NC(C)=O)C(O)=O", 
	 "Tm": 398.15, 
	 "num_atms": 39, 
	 "gaussian": { 
		 "optdone": 1, 
		 "sigma_profile": "yes", 
		 "theory": "DFT", 
		 "functional": "B3LYP", 
		 "basiset": "6-31G**", 
		 "properties": { 
			 "R2extent": 5996.8297, 
			 "electric_dipole_moment_norm": 9.60638198023, 
			 "electric_quadrupole_moment_norm": 23.4127726438, 
			 "total_energy": -1087.15595096, 
			 "HOMO_LUMO_gap": 0.2389, 
			 "cosmo_polarized_energy": -32.64, 
			 "cosmo_cavitation_energy": 40.29, 
			 "cosmo_dispersion_energy": -27.43, 
			 "cosmo_repulsion_energy": 2.14, 
			 "cosmo_total_nonelectrostatic_energy": 15.0, 
			 "SMD_solvation_energy": 8.0 
		},
		"coords": [
			{
				"x": 0.7189909789,
				"y": -2.4952719266,
				"z": 2.4099552883,
				"element": "C" 
			},
			{
				"x": 1.3366028414,
				"y": -1.8003543744,
				"z": 1.1991298701,
				"element": "C" 
			},
			{
				"x": 0.5016771184,
				"y": -0.679064286,
				"z": 0.8894230436,
				"element": "O" 
			},
			{
				"x": 0.7625167101,
				"y": -0.049756109,
				"z": -0.3510684034,
				"element": "C" 
			},
			{
				"x": -0.1562962167,
				"y": -0.5527679978,
				"z": -1.4664930598,
				"element": "C" 
			},
			{
				"x": -0.0331063094,
				"y": -1.9548678604,
				"z": -1.5804120679,
				"element": "O" 
			},
			{
				"x": 0.2693777203,
				"y": 0.13511505,
				"z": -2.7852375076,
				"element": "C" 
			},
			{
				"x": -0.83371565,
				"y": 0.1212742397,
				"z": -3.8452101342,
				"element": "C" 
			},
			{
				"x": -1.2329043209,
				"y": -1.2401822021,
				"z": -4.0132490167,
				"element": "O" 
			},
			{
				"x": 0.7266651877,
				"y": 1.481961539,
				"z": -2.5972287474,
				"element": "O" 
			},
			{
				"x": 0.1488592623,
				"y": 2.1629385509,
				"z": -1.4961876532,
				"element": "C" 
			},
			{
				"x": 0.4922023969,
				"y": 3.5045438594,
				"z": -1.5717643589,
				"element": "O" 
			},
			{
				"x": 0.5933395946,
				"y": 1.4910950529,
				"z": -0.1728000176,
				"element": "C" 
			},
			{
				"x": -0.3523048687,
				"y": 1.8542203703,
				"z": 0.8695169853,
				"element": "N" 
			},
			{
				"x": -0.0158843545,
				"y": 1.9296058405,
				"z": 2.1835768878,
				"element": "C" 
			},
			{
				"x": -1.1268660949,
				"y": 2.3321791035,
				"z": 3.133868928,
				"element": "C" 
			},
			{
				"x": 1.1218596367,
				"y": 1.696858821,
				"z": 2.5982368801,
				"element": "O" 
			},
			{
				"x": 2.7917110856,
				"y": -1.3927465546,
				"z": 1.5020227216,
				"element": "C" 
			},
			{
				"x": 3.0141906209,
				"y": -0.1364342521,
				"z": 1.905799742,
				"element": "O" 
			},
			{
				"x": 3.6898709154,
				"y": -2.1981950751,
				"z": 1.3908545527,
				"element": "O" 
			},
			{
				"x": 0.6606731567,
				"y": -1.8065852992,
				"z": 3.2586615528,
				"element": "H" 
			},
			{
				"x": 1.3311929953,
				"y": -3.354275208,
				"z": 2.6944176627,
				"element": "H" 
			},
			{
				"x": -0.2899506537,
				"y": -2.8377505802,
				"z": 2.165802519,
				"element": "H" 
			},
			{
				"x": 1.3733957756,
				"y": -2.488860322,
				"z": 0.3508345783,
				"element": "H" 
			},
			{
				"x": 1.7978183892,
				"y": -0.238374759,
				"z": -0.6653015917,
				"element": "H" 
			},
			{
				"x": -1.1968852951,
				"y": -0.2812670326,
				"z": -1.2132437481,
				"element": "H" 
			},
			{
				"x": -0.5493092553,
				"y": -2.2079803967,
				"z": -2.3624047281,
				"element": "H" 
			},
			{
				"x": 1.129935971,
				"y": -0.4284894607,
				"z": -3.1620353566,
				"element": "H" 
			},
			{
				"x": -0.4463202496,
				"y": 0.5492720775,
				"z": -4.7791430323,
				"element": "H" 
			},
			{
				"x": -1.6775869174,
				"y": 0.7440532407,
				"z": -3.50996236,
				"element": "H" 
			},
			{
				"x": -1.9587102593,
				"y": -1.2842379985,
				"z": -4.6466241864,
				"element": "H" 
			},
			{
				"x": -0.951527044,
				"y": 2.1452391309,
				"z": -1.5699726026,
				"element": "H" 
			},
			{
				"x": 1.4590886751,
				"y": 3.5617060832,
				"z": -1.581354769,
				"element": "H" 
			},
			{
				"x": 1.5627481558,
				"y": 1.901663636,
				"z": 0.1270736579,
				"element": "H" 
			},
			{
				"x": -1.3147965301,
				"y": 2.0153034466,
				"z": 0.6125157277,
				"element": "H" 
			},
			{
				"x": -1.3936290056,
				"y": 1.4666671845,
				"z": 3.7479116905,
				"element": "H" 
			},
			{
				"x": -2.024984277,
				"y": 2.6991286219,
				"z": 2.629989613,
				"element": "H" 
			},
			{
				"x": -0.7470997867,
				"y": 3.1058176308,
				"z": 3.8047053062,
				"element": "H" 
			},
			{
				"x": 2.194359901,
				"y": 0.3940182159,
				"z": 2.0561961337,
				"element": "H" 
			}
		],
		 "valence_orbital": [ 
			{
				"type": "occ",
				"energy": -0.28057,
				"method": "rhf"
			},
			{
				"type": "occ",
				"energy": -0.27548,
				"method": "rhf"
			},
			{
				"type": "occ",
				"energy": -0.26876,
				"method": "rhf"
			},
			{
				"type": "occ",
				"energy": -0.26094,
				"method": "rhf"
			},
			{
				"type": "occ",
				"energy": -0.23279,
				"method": "rhf"
			},
			{
				"type": "unocc",
				"energy": 0.00611,
				"method": "rhf"
			},
			{
				"type": "unocc",
				"energy": 0.03043,
				"method": "rhf"
			},
			{
				"type": "unocc",
				"energy": 0.03411,
				"method": "rhf"
			},
			{
				"type": "unocc",
				"energy": 0.04522,
				"method": "rhf"
			},
			{
				"type": "unocc",
				"energy": 0.06725,
				"method": "rhf"
			}
		],
		"cosmo_sigma_profile": { 
			"-0.025": 0.0,
			"-0.024": 0.0,
			"-0.023": 0.0,
			"-0.022": 0.0,
			"-0.021": 0.0,
			"-0.02": 0.0,
			"-0.019": 0.0,
			"-0.018": 0.0,
			"-0.017": 0.964703844943,
			"-0.016": 2.16745098505,
			"-0.015": 2.60219504466,
			"-0.014": 3.9690175435,
			"-0.013": 3.51446101762,
			"-0.012": 3.57574820333,
			"-0.011": 3.62218943404,
			"-0.01": 3.36042038401,
			"-0.009": 4.30927165896,
			"-0.008": 5.77376834886,
			"-0.007": 8.05151858111,
			"-0.006": 13.0852647328,
			"-0.005": 20.8569351499,
			"-0.004": 25.3268247127,
			"-0.003": 24.489963872,
			"-0.002": 25.4660102313,
			"-0.001": 21.804000303,
			"0.0": 15.633341208,
			"0.001": 10.947889083,
			"0.002": 8.26509898499,
			"0.003": 9.33510361371,
			"0.004": 9.65892123019,
			"0.005": 9.83228896839,
			"0.006": 9.02349536133,
			"0.007": 8.6916070559,
			"0.008": 8.05068861866,
			"0.009": 8.99111226705,
			"0.01": 10.5016463539,
			"0.011": 11.5319285276,
			"0.012": 10.9616619932,
			"0.013": 6.66805335326,
			"0.014": 2.04767275323,
			"0.015": 0.0272346897952,
			"0.016": 0.0,
			"0.017": 0.0,
			"0.018": 0.0,
			"0.019": 0.0,
			"0.02": 0.0,
			"0.021": 0.0,
			"0.022": 0.0,
			"0.023": 0.0,
			"0.024": 0.0,
			"0.025": 0.0
		}
	}
}
