{
	 "smiles": "CC(C)N(C)S(=O)(=O)NC(=O)C1=C(Cl)C=C(F)C(=C1)N1C(=O)C=C(N(C)C1=O)C(F)(F)F", 
	 "Tm": 463.15, 
	 "num_atms": 49, 
	 "gaussian": { 
		 "optdone": 1, 
		 "sigma_profile": "yes", 
		 "theory": "DFT", 
		 "functional": "B3LYP", 
		 "basiset": "6-31G**", 
		 "properties": { 
			 "R2extent": 22508.7086, 
			 "electric_dipole_moment_norm": 1.7381177463, 
			 "electric_quadrupole_moment_norm": 47.1682500083, 
			 "total_energy": -2510.86067088, 
			 "HOMO_LUMO_gap": 0.1831, 
			 "cosmo_polarized_energy": -26.51, 
			 "cosmo_cavitation_energy": 57.43, 
			 "cosmo_dispersion_energy": -37.69, 
			 "cosmo_repulsion_energy": 2.67, 
			 "cosmo_total_nonelectrostatic_energy": 22.41, 
			 "SMD_solvation_energy": 12.5 
		},
		"coords": [
			{
				"x": -3.1681403024,
				"y": -0.9292680326,
				"z": -5.0290141419,
				"element": "C" 
			},
			{
				"x": -2.1697897192,
				"y": 0.1981864896,
				"z": -4.7388302721,
				"element": "C" 
			},
			{
				"x": -2.4519199009,
				"y": 1.4604523047,
				"z": -5.5621795048,
				"element": "C" 
			},
			{
				"x": -0.7556125977,
				"y": -0.2276548302,
				"z": -4.9413244319,
				"element": "N" 
			},
			{
				"x": -0.3701088179,
				"y": -0.8577423536,
				"z": -6.2083309509,
				"element": "C" 
			},
			{
				"x": 0.1843698777,
				"y": -0.5067158711,
				"z": -3.6123414564,
				"element": "S" 
			},
			{
				"x": 1.547784607,
				"y": -0.7351164138,
				"z": -4.0779528739,
				"element": "O" 
			},
			{
				"x": -0.133162606,
				"y": 0.4751626596,
				"z": -2.5886854305,
				"element": "O" 
			},
			{
				"x": -0.4003862102,
				"y": -2.035826083,
				"z": -3.0136271809,
				"element": "N" 
			},
			{
				"x": -0.2169470234,
				"y": -2.5744850273,
				"z": -1.7297035395,
				"element": "C" 
			},
			{
				"x": -0.0243035957,
				"y": -3.7715340424,
				"z": -1.6110439354,
				"element": "O" 
			},
			{
				"x": -0.2698579769,
				"y": -1.6751712901,
				"z": -0.5287494162,
				"element": "C" 
			},
			{
				"x": -1.3785222041,
				"y": -0.9114010615,
				"z": -0.138285242,
				"element": "C" 
			},
			{
				"x": -2.8658742711,
				"y": -0.9212517979,
				"z": -1.0648285977,
				"element": "Cl" 
			},
			{
				"x": -1.3598001126,
				"y": -0.163019098,
				"z": 1.0358585157,
				"element": "C" 
			},
			{
				"x": -0.2195570701,
				"y": -0.185853054,
				"z": 1.8252893617,
				"element": "C" 
			},
			{
				"x": -0.1881443088,
				"y": 0.5534318035,
				"z": 2.9421933729,
				"element": "F" 
			},
			{
				"x": 0.8839171334,
				"y": -0.9733176293,
				"z": 1.4962444918,
				"element": "C" 
			},
			{
				"x": 0.8399393363,
				"y": -1.7181963289,
				"z": 0.3237740946,
				"element": "C" 
			},
			{
				"x": 2.0301436155,
				"y": -0.9973028976,
				"z": 2.3569457796,
				"element": "N" 
			},
			{
				"x": 3.2546339257,
				"y": -0.465010721,
				"z": 1.8589927394,
				"element": "C" 
			},
			{
				"x": 3.3432002434,
				"y": -0.0342724527,
				"z": 0.7242885469,
				"element": "O" 
			},
			{
				"x": 4.3415400892,
				"y": -0.496555691,
				"z": 2.8234500122,
				"element": "C" 
			},
			{
				"x": 4.1618210851,
				"y": -0.9991753426,
				"z": 4.0635174069,
				"element": "C" 
			},
			{
				"x": 2.9506483278,
				"y": -1.509091117,
				"z": 4.4922358159,
				"element": "N" 
			},
			{
				"x": 2.7532766242,
				"y": -2.1017300917,
				"z": 5.8284409364,
				"element": "C" 
			},
			{
				"x": 1.8368760469,
				"y": -1.5451188136,
				"z": 3.6335393822,
				"element": "C" 
			},
			{
				"x": 0.7724798259,
				"y": -2.0220787516,
				"z": 3.9790159849,
				"element": "O" 
			},
			{
				"x": 5.3256504975,
				"y": -1.0005939544,
				"z": 5.0403519159,
				"element": "C" 
			},
			{
				"x": 5.5908370864,
				"y": -2.2445906914,
				"z": 5.4905674427,
				"element": "F" 
			},
			{
				"x": 6.4419279142,
				"y": -0.5303521659,
				"z": 4.4663103121,
				"element": "F" 
			},
			{
				"x": 5.0647535158,
				"y": -0.224869757,
				"z": 6.1158009625,
				"element": "F" 
			},
			{
				"x": -3.1607366566,
				"y": -1.2189033047,
				"z": -6.0852535781,
				"element": "H" 
			},
			{
				"x": -4.181616174,
				"y": -0.5924512153,
				"z": -4.7900755005,
				"element": "H" 
			},
			{
				"x": -2.9542499632,
				"y": -1.8120564802,
				"z": -4.4205237047,
				"element": "H" 
			},
			{
				"x": -2.2444213335,
				"y": 0.4660387873,
				"z": -3.6832395898,
				"element": "H" 
			},
			{
				"x": -1.7359831627,
				"y": 2.2481811364,
				"z": -5.3151994856,
				"element": "H" 
			},
			{
				"x": -3.460175601,
				"y": 1.8262093901,
				"z": -5.343651785,
				"element": "H" 
			},
			{
				"x": -2.40067352,
				"y": 1.2684245851,
				"z": -6.6393515145,
				"element": "H" 
			},
			{
				"x": -0.7699932265,
				"y": -0.2556544798,
				"z": -7.0271414964,
				"element": "H" 
			},
			{
				"x": -0.7536026017,
				"y": -1.8817414908,
				"z": -6.31224587,
				"element": "H" 
			},
			{
				"x": 0.7158111751,
				"y": -0.8674307411,
				"z": -6.2878684,
				"element": "H" 
			},
			{
				"x": -0.2385447184,
				"y": -2.7708458854,
				"z": -3.7008231446,
				"element": "H" 
			},
			{
				"x": -2.2142845664,
				"y": 0.4264974179,
				"z": 1.3433148692,
				"element": "H" 
			},
			{
				"x": 1.685332331,
				"y": -2.3405535065,
				"z": 0.0560976118,
				"element": "H" 
			},
			{
				"x": 5.2942837453,
				"y": -0.0994670123,
				"z": 2.5080066167,
				"element": "H" 
			},
			{
				"x": 1.6819321306,
				"y": -2.2195798647,
				"z": 5.9664044854,
				"element": "H" 
			},
			{
				"x": 3.1584509795,
				"y": -1.4392640383,
				"z": 6.5913093332,
				"element": "H" 
			},
			{
				"x": 3.2384981275,
				"y": -3.0779411939,
				"z": 5.8923210528,
				"element": "H" 
			}
		],
		 "valence_orbital": [ 
			{
				"type": "occ",
				"energy": -0.27619,
				"method": "rhf"
			},
			{
				"type": "occ",
				"energy": -0.26719,
				"method": "rhf"
			},
			{
				"type": "occ",
				"energy": -0.25913,
				"method": "rhf"
			},
			{
				"type": "occ",
				"energy": -0.25843,
				"method": "rhf"
			},
			{
				"type": "occ",
				"energy": -0.25248,
				"method": "rhf"
			},
			{
				"type": "unocc",
				"energy": -0.06938,
				"method": "rhf"
			},
			{
				"type": "unocc",
				"energy": -0.04472,
				"method": "rhf"
			},
			{
				"type": "unocc",
				"energy": -0.03065,
				"method": "rhf"
			},
			{
				"type": "unocc",
				"energy": -0.0005,
				"method": "rhf"
			},
			{
				"type": "unocc",
				"energy": 0.00139,
				"method": "rhf"
			}
		],
		"cosmo_sigma_profile": { 
			"-0.025": 0.0,
			"-0.024": 0.0,
			"-0.023": 0.0,
			"-0.022": 0.0,
			"-0.021": 0.0,
			"-0.02": 0.0,
			"-0.019": 0.0,
			"-0.018": 0.0,
			"-0.017": 0.0,
			"-0.016": 0.134175445148,
			"-0.015": 0.703492536216,
			"-0.014": 1.25382345238,
			"-0.013": 0.97779956821,
			"-0.012": 1.08396086258,
			"-0.011": 1.09584790426,
			"-0.01": 1.76942596779,
			"-0.009": 4.82391351917,
			"-0.008": 6.67634747484,
			"-0.007": 11.0946647078,
			"-0.006": 18.3179213316,
			"-0.005": 27.5969736655,
			"-0.004": 40.2803845547,
			"-0.003": 42.4751048211,
			"-0.002": 37.3740241479,
			"-0.001": 38.3445669054,
			"0.0": 39.1471483865,
			"0.001": 40.484351612,
			"0.002": 33.9127636993,
			"0.003": 21.7357683508,
			"0.004": 10.4401489048,
			"0.005": 8.74738780656,
			"0.006": 9.07464604595,
			"0.007": 7.56067890132,
			"0.008": 8.48804476288,
			"0.009": 11.9889032411,
			"0.01": 15.0089397709,
			"0.011": 13.3943641125,
			"0.012": 5.35601994634,
			"0.013": 0.546279020588,
			"0.014": 0.0,
			"0.015": 0.0,
			"0.016": 0.0,
			"0.017": 0.0,
			"0.018": 0.0,
			"0.019": 0.0,
			"0.02": 0.0,
			"0.021": 0.0,
			"0.022": 0.0,
			"0.023": 0.0,
			"0.024": 0.0,
			"0.025": 0.0
		}
	}
}
