{
	 "smiles": "CC1=CC=C(C=C1)N1C=CC=C1", 
	 "Tm": 356.15, 
	 "num_atms": 23, 
	 "gaussian": { 
		 "optdone": 1, 
		 "sigma_profile": "yes", 
		 "theory": "DFT", 
		 "functional": "B3LYP", 
		 "basiset": "6-31G**", 
		 "properties": { 
			 "R2extent": 2803.5615, 
			 "electric_dipole_moment_norm": 1.58312662159, 
			 "electric_quadrupole_moment_norm": 7.11099241667, 
			 "total_energy": -480.541903432, 
			 "HOMO_LUMO_gap": 0.19547, 
			 "cosmo_polarized_energy": -6.29, 
			 "cosmo_cavitation_energy": 26.1, 
			 "cosmo_dispersion_energy": -19.5, 
			 "cosmo_repulsion_energy": 1.51, 
			 "cosmo_total_nonelectrostatic_energy": 8.11, 
			 "SMD_solvation_energy": 5.22 
		},
		"coords": [
			{
				"x": -0.5200417647,
				"y": 0.698598704,
				"z": -3.6846628577,
				"element": "C" 
			},
			{
				"x": -0.5719328884,
				"y": 0.5801851565,
				"z": -2.1801962042,
				"element": "C" 
			},
			{
				"x": -1.5964033773,
				"y": 1.1763887879,
				"z": -1.4361185929,
				"element": "C" 
			},
			{
				"x": -1.6678600061,
				"y": 1.047946397,
				"z": -0.0513350619,
				"element": "C" 
			},
			{
				"x": -0.7017694672,
				"y": 0.3092740846,
				"z": 0.6473314444,
				"element": "C" 
			},
			{
				"x": 0.3322291762,
				"y": -0.2889540601,
				"z": -0.0875739608,
				"element": "C" 
			},
			{
				"x": 0.3888726419,
				"y": -0.1506314854,
				"z": -1.4720951168,
				"element": "C" 
			},
			{
				"x": -0.7660931316,
				"y": 0.1748335852,
				"z": 2.0593864428,
				"element": "N" 
			},
			{
				"x": 0.1288893302,
				"y": -0.5260566864,
				"z": 2.8553436768,
				"element": "C" 
			},
			{
				"x": -0.270943706,
				"y": -0.4241633672,
				"z": 4.1646156962,
				"element": "C" 
			},
			{
				"x": -1.4562930973,
				"y": 0.3678039699,
				"z": 4.1859707002,
				"element": "C" 
			},
			{
				"x": -1.7358676772,
				"y": 0.7199518372,
				"z": 2.8889490653,
				"element": "C" 
			},
			{
				"x": 0.5092021807,
				"y": 0.6552245018,
				"z": -4.0538499888,
				"element": "H" 
			},
			{
				"x": -1.0734438608,
				"y": -0.1158612551,
				"z": -4.1693278241,
				"element": "H" 
			},
			{
				"x": -0.9622486465,
				"y": 1.6391647374,
				"z": -4.0271822986,
				"element": "H" 
			},
			{
				"x": -2.3596692695,
				"y": 1.7589188277,
				"z": -1.9463276106,
				"element": "H" 
			},
			{
				"x": -2.4806701859,
				"y": 1.5327292295,
				"z": 0.4751594531,
				"element": "H" 
			},
			{
				"x": 1.1037971532,
				"y": -0.8632119444,
				"z": 0.4102010691,
				"element": "H" 
			},
			{
				"x": 1.2058127455,
				"y": -0.6244093045,
				"z": -2.010962502,
				"element": "H" 
			},
			{
				"x": 0.9756961478,
				"y": -1.0405286013,
				"z": 2.4336372962,
				"element": "H" 
			},
			{
				"x": 0.2324330633,
				"y": -0.8691821086,
				"z": 5.0114296947,
				"element": "H" 
			},
			{
				"x": -2.0387410117,
				"y": 0.6482875967,
				"z": 5.0523472846,
				"element": "H" 
			},
			{
				"x": -2.5453543487,
				"y": 1.3121913975,
				"z": 2.4970601948,
				"element": "H" 
			}
		],
		 "valence_orbital": [ 
			{
				"type": "occ",
				"energy": -0.34016,
				"method": "rhf"
			},
			{
				"type": "occ",
				"energy": -0.27342,
				"method": "rhf"
			},
			{
				"type": "occ",
				"energy": -0.25461,
				"method": "rhf"
			},
			{
				"type": "occ",
				"energy": -0.2086,
				"method": "rhf"
			},
			{
				"type": "occ",
				"energy": -0.20827,
				"method": "rhf"
			},
			{
				"type": "unocc",
				"energy": -0.0128,
				"method": "rhf"
			},
			{
				"type": "unocc",
				"energy": -0.00559,
				"method": "rhf"
			},
			{
				"type": "unocc",
				"energy": 0.05771,
				"method": "rhf"
			},
			{
				"type": "unocc",
				"energy": 0.0861,
				"method": "rhf"
			},
			{
				"type": "unocc",
				"energy": 0.09043,
				"method": "rhf"
			}
		],
		"cosmo_sigma_profile": { 
			"-0.025": 0.0,
			"-0.024": 0.0,
			"-0.023": 0.0,
			"-0.022": 0.0,
			"-0.021": 0.0,
			"-0.02": 0.0,
			"-0.019": 0.0,
			"-0.018": 0.0,
			"-0.017": 0.0,
			"-0.016": 0.0,
			"-0.015": 0.0,
			"-0.014": 0.0,
			"-0.013": 0.0,
			"-0.012": 0.0,
			"-0.011": 0.0,
			"-0.01": 0.194183595121,
			"-0.009": 2.62331496398,
			"-0.008": 3.85444915093,
			"-0.007": 3.675570745,
			"-0.006": 6.36084771665,
			"-0.005": 13.2723626663,
			"-0.004": 18.1423031087,
			"-0.003": 16.9760393064,
			"-0.002": 16.8989475006,
			"-0.001": 16.1792375812,
			"0.0": 19.7238548047,
			"0.001": 13.7907084511,
			"0.002": 14.0156959549,
			"0.003": 12.7882341462,
			"0.004": 14.7167826568,
			"0.005": 14.3343674193,
			"0.006": 9.92339853544,
			"0.007": 6.1614109794,
			"0.008": 4.97874367606,
			"0.009": 0.364048959105,
			"0.01": 0.0,
			"0.011": 0.0,
			"0.012": 0.0,
			"0.013": 0.0,
			"0.014": 0.0,
			"0.015": 0.0,
			"0.016": 0.0,
			"0.017": 0.0,
			"0.018": 0.0,
			"0.019": 0.0,
			"0.02": 0.0,
			"0.021": 0.0,
			"0.022": 0.0,
			"0.023": 0.0,
			"0.024": 0.0,
			"0.025": 0.0
		}
	}
}
