{
	 "smiles": "NC1=CC=C(C=C1)C#N", 
	 "Tm": 357.65, 
	 "num_atms": 15, 
	 "gaussian": { 
		 "optdone": 1, 
		 "sigma_profile": "yes", 
		 "theory": "DFT", 
		 "functional": "B3LYP", 
		 "basiset": "6-31G**", 
		 "properties": { 
			 "R2extent": 2222.5107, 
			 "electric_dipole_moment_norm": 6.7938085946, 
			 "electric_quadrupole_moment_norm": 22.7474634138, 
			 "total_energy": -379.853352245, 
			 "HOMO_LUMO_gap": 0.19014, 
			 "cosmo_polarized_energy": -14.53, 
			 "cosmo_cavitation_energy": 20.28, 
			 "cosmo_dispersion_energy": -14.59, 
			 "cosmo_repulsion_energy": 1.21, 
			 "cosmo_total_nonelectrostatic_energy": 6.9, 
			 "SMD_solvation_energy": 4.95 
		},
		"coords": [
			{
				"x": -0.0405375668,
				"y": -0.5617648828,
				"z": -1.8840935347,
				"element": "N" 
			},
			{
				"x": -0.7195122991,
				"y": 0.2988448957,
				"z": -1.0404522736,
				"element": "C" 
			},
			{
				"x": -0.3016458642,
				"y": 1.6364617128,
				"z": -0.8890850581,
				"element": "C" 
			},
			{
				"x": -0.951231019,
				"y": 2.484945637,
				"z": -0.0060578716,
				"element": "C" 
			},
			{
				"x": -2.0415579706,
				"y": 2.0272967702,
				"z": 0.7563540748,
				"element": "C" 
			},
			{
				"x": -2.4605402588,
				"y": 0.6924176269,
				"z": 0.6077608387,
				"element": "C" 
			},
			{
				"x": -1.8117451823,
				"y": -0.1569964741,
				"z": -0.2749515929,
				"element": "C" 
			},
			{
				"x": -2.7134770412,
				"y": 2.9039791792,
				"z": 1.664279125,
				"element": "C" 
			},
			{
				"x": -3.2614087671,
				"y": 3.6183416959,
				"z": 2.4028546777,
				"element": "N" 
			},
			{
				"x": 0.5217208287,
				"y": -0.1423571393,
				"z": -2.6097577472,
				"element": "H" 
			},
			{
				"x": -0.5308502811,
				"y": -1.3921252802,
				"z": -2.1819539844,
				"element": "H" 
			},
			{
				"x": 0.5412877318,
				"y": 2.002554375,
				"z": -1.4690459278,
				"element": "H" 
			},
			{
				"x": -0.6203595864,
				"y": 3.5129769917,
				"z": 0.0993766823,
				"element": "H" 
			},
			{
				"x": -3.3012455143,
				"y": 0.3290395346,
				"z": 1.1896654794,
				"element": "H" 
			},
			{
				"x": -2.1439972098,
				"y": -1.1866146428,
				"z": -0.3769928875,
				"element": "H" 
			}
		],
		 "valence_orbital": [ 
			{
				"type": "occ",
				"energy": -0.34453,
				"method": "rhf"
			},
			{
				"type": "occ",
				"energy": -0.31661,
				"method": "rhf"
			},
			{
				"type": "occ",
				"energy": -0.30625,
				"method": "rhf"
			},
			{
				"type": "occ",
				"energy": -0.27002,
				"method": "rhf"
			},
			{
				"type": "occ",
				"energy": -0.22024,
				"method": "rhf"
			},
			{
				"type": "unocc",
				"energy": -0.0301,
				"method": "rhf"
			},
			{
				"type": "unocc",
				"energy": -0.01748,
				"method": "rhf"
			},
			{
				"type": "unocc",
				"energy": 0.04861,
				"method": "rhf"
			},
			{
				"type": "unocc",
				"energy": 0.06163,
				"method": "rhf"
			},
			{
				"type": "unocc",
				"energy": 0.08748,
				"method": "rhf"
			}
		],
		"cosmo_sigma_profile": { 
			"-0.025": 0.0,
			"-0.024": 0.0,
			"-0.023": 0.0,
			"-0.022": 0.0,
			"-0.021": 0.0,
			"-0.02": 0.0,
			"-0.019": 0.0,
			"-0.018": 0.0,
			"-0.017": 0.0,
			"-0.016": 0.0,
			"-0.015": 0.0,
			"-0.014": 0.599400974082,
			"-0.013": 2.79504233453,
			"-0.012": 3.25733687519,
			"-0.011": 2.33457281843,
			"-0.01": 4.02307838517,
			"-0.009": 2.27997537179,
			"-0.008": 4.26479736118,
			"-0.007": 8.18954156371,
			"-0.006": 8.56193855918,
			"-0.005": 9.94560169119,
			"-0.004": 7.34831503066,
			"-0.003": 6.61410562787,
			"-0.002": 6.006827102,
			"-0.001": 7.24965781415,
			"0.0": 9.4816454484,
			"0.001": 10.2753845094,
			"0.002": 9.74230916044,
			"0.003": 12.8848629089,
			"0.004": 14.041020646,
			"0.005": 3.82505909471,
			"0.006": 2.92219411002,
			"0.007": 3.53108186138,
			"0.008": 3.45186582491,
			"0.009": 4.16066429072,
			"0.01": 4.43734300587,
			"0.011": 4.00633150876,
			"0.012": 3.06719255465,
			"0.013": 2.4842247723,
			"0.014": 1.34340399612,
			"0.015": 0.00687250426233,
			"0.016": 0.0,
			"0.017": 0.0,
			"0.018": 0.0,
			"0.019": 0.0,
			"0.02": 0.0,
			"0.021": 0.0,
			"0.022": 0.0,
			"0.023": 0.0,
			"0.024": 0.0,
			"0.025": 0.0
		}
	}
}
