{
	 "smiles": "OC(=O)C1=CC2=C(C=C1)C(=O)N1CCCCCCC1=N2", 
	 "Tm": 290.15, 
	 "num_atms": 36, 
	 "gaussian": { 
		 "optdone": 1, 
		 "sigma_profile": "yes", 
		 "theory": "DFT", 
		 "functional": "B3LYP", 
		 "basiset": "6-31G**", 
		 "properties": { 
			 "R2extent": 6847.8005, 
			 "electric_dipole_moment_norm": 5.42716939666, 
			 "electric_quadrupole_moment_norm": 28.7715489324, 
			 "total_energy": -916.464715708, 
			 "HOMO_LUMO_gap": 0.16707, 
			 "cosmo_polarized_energy": -19.65, 
			 "cosmo_cavitation_energy": 37.37, 
			 "cosmo_dispersion_energy": -27.41, 
			 "cosmo_repulsion_energy": 2.05, 
			 "cosmo_total_nonelectrostatic_energy": 12.02, 
			 "SMD_solvation_energy": 5.39 
		},
		"coords": [
			{
				"x": -1.6186724782,
				"y": 2.823317956,
				"z": 5.2550152513,
				"element": "O" 
			},
			{
				"x": -2.1684637079,
				"y": 2.4110327046,
				"z": 4.0813439491,
				"element": "C" 
			},
			{
				"x": -3.3546669728,
				"y": 2.5339031926,
				"z": 3.8919395512,
				"element": "O" 
			},
			{
				"x": -1.2264838774,
				"y": 1.8110591207,
				"z": 3.0751451613,
				"element": "C" 
			},
			{
				"x": -1.768532764,
				"y": 0.9717618295,
				"z": 2.1094235279,
				"element": "C" 
			},
			{
				"x": -0.9405491686,
				"y": 0.3728414485,
				"z": 1.1403778015,
				"element": "C" 
			},
			{
				"x": 0.4415477903,
				"y": 0.6560878135,
				"z": 1.156110915,
				"element": "C" 
			},
			{
				"x": 0.982838344,
				"y": 1.5247433003,
				"z": 2.1168905066,
				"element": "C" 
			},
			{
				"x": 0.1588108299,
				"y": 2.0958509656,
				"z": 3.0713402621,
				"element": "C" 
			},
			{
				"x": 1.3103098601,
				"y": 0.0371943541,
				"z": 0.1528429456,
				"element": "C" 
			},
			{
				"x": 2.5196889211,
				"y": 0.223837918,
				"z": 0.0714704516,
				"element": "O" 
			},
			{
				"x": 0.6424149588,
				"y": -0.8295092523,
				"z": -0.7464709081,
				"element": "N" 
			},
			{
				"x": 1.5159916024,
				"y": -1.5148739861,
				"z": -1.7258851318,
				"element": "C" 
			},
			{
				"x": 1.6693587076,
				"y": -0.7928647875,
				"z": -3.0720172723,
				"element": "C" 
			},
			{
				"x": 0.4887478116,
				"y": -0.8430749518,
				"z": -4.0588150221,
				"element": "C" 
			},
			{
				"x": -0.8006943389,
				"y": -0.1156131979,
				"z": -3.6167788676,
				"element": "C" 
			},
			{
				"x": -1.8721930196,
				"y": -0.9974993075,
				"z": -2.9539863032,
				"element": "C" 
			},
			{
				"x": -1.4069882305,
				"y": -1.8501880495,
				"z": -1.7504286946,
				"element": "C" 
			},
			{
				"x": -0.7332490612,
				"y": -1.0171078696,
				"z": -0.6877639336,
				"element": "C" 
			},
			{
				"x": -1.5062665902,
				"y": -0.4641863731,
				"z": 0.1997503254,
				"element": "N" 
			},
			{
				"x": -0.7030849531,
				"y": 2.5180914622,
				"z": 5.3203349976,
				"element": "H" 
			},
			{
				"x": -2.8335896475,
				"y": 0.7713326328,
				"z": 2.0979332931,
				"element": "H" 
			},
			{
				"x": 2.046620969,
				"y": 1.7338352642,
				"z": 2.0830897058,
				"element": "H" 
			},
			{
				"x": 0.5821149231,
				"y": 2.7981648141,
				"z": 3.7847318203,
				"element": "H" 
			},
			{
				"x": 1.1596383844,
				"y": -2.5376319613,
				"z": -1.860266903,
				"element": "H" 
			},
			{
				"x": 2.493078453,
				"y": -1.5603256906,
				"z": -1.2451085736,
				"element": "H" 
			},
			{
				"x": 2.5440256926,
				"y": -1.2402407824,
				"z": -3.5614191942,
				"element": "H" 
			},
			{
				"x": 1.9386687067,
				"y": 0.2504873893,
				"z": -2.8686176046,
				"element": "H" 
			},
			{
				"x": 0.2595416418,
				"y": -1.8886758956,
				"z": -4.3101213549,
				"element": "H" 
			},
			{
				"x": 0.8429585644,
				"y": -0.3902159771,
				"z": -4.9922560025,
				"element": "H" 
			},
			{
				"x": -0.5387941689,
				"y": 0.715930954,
				"z": -2.9497393254,
				"element": "H" 
			},
			{
				"x": -1.2671040518,
				"y": 0.3495065009,
				"z": -4.4930371712,
				"element": "H" 
			},
			{
				"x": -2.6966415467,
				"y": -0.3586956253,
				"z": -2.6185947025,
				"element": "H" 
			},
			{
				"x": -2.2889694228,
				"y": -1.6843693215,
				"z": -3.7014438074,
				"element": "H" 
			},
			{
				"x": -2.2845322353,
				"y": -2.2989601639,
				"z": -1.2801154947,
				"element": "H" 
			},
			{
				"x": -0.7678799253,
				"y": -2.6661464279,
				"z": -2.0935741982,
				"element": "H" 
			}
		],
		 "valence_orbital": [ 
			{
				"type": "occ",
				"energy": -0.27983,
				"method": "rhf"
			},
			{
				"type": "occ",
				"energy": -0.27594,
				"method": "rhf"
			},
			{
				"type": "occ",
				"energy": -0.2719,
				"method": "rhf"
			},
			{
				"type": "occ",
				"energy": -0.26707,
				"method": "rhf"
			},
			{
				"type": "occ",
				"energy": -0.23633,
				"method": "rhf"
			},
			{
				"type": "unocc",
				"energy": -0.06926,
				"method": "rhf"
			},
			{
				"type": "unocc",
				"energy": -0.04726,
				"method": "rhf"
			},
			{
				"type": "unocc",
				"energy": 0.01288,
				"method": "rhf"
			},
			{
				"type": "unocc",
				"energy": 0.01695,
				"method": "rhf"
			},
			{
				"type": "unocc",
				"energy": 0.06334,
				"method": "rhf"
			}
		],
		"cosmo_sigma_profile": { 
			"-0.025": 0.0,
			"-0.024": 0.0,
			"-0.023": 0.0,
			"-0.022": 0.0,
			"-0.021": 0.0,
			"-0.02": 0.0,
			"-0.019": 0.389741053217,
			"-0.018": 0.96397628788,
			"-0.017": 0.947661821368,
			"-0.016": 0.811277177459,
			"-0.015": 1.0103518053,
			"-0.014": 0.870429826055,
			"-0.013": 1.29896128109,
			"-0.012": 1.18156101473,
			"-0.011": 0.996929016845,
			"-0.01": 1.2585595843,
			"-0.009": 1.4756702875,
			"-0.008": 3.30863642951,
			"-0.007": 5.9504292863,
			"-0.006": 7.46809582698,
			"-0.005": 10.500112151,
			"-0.004": 20.1580648813,
			"-0.003": 37.5445805002,
			"-0.002": 36.2111671025,
			"-0.001": 31.1010489975,
			"0.0": 26.3029157178,
			"0.001": 23.493727268,
			"0.002": 13.0572768554,
			"0.003": 6.95650885385,
			"0.004": 6.55114375604,
			"0.005": 5.42453748521,
			"0.006": 5.2179992151,
			"0.007": 5.46553951724,
			"0.008": 4.68950597975,
			"0.009": 6.34107955125,
			"0.01": 7.59950043606,
			"0.011": 8.03405641969,
			"0.012": 8.10400625754,
			"0.013": 3.61024239086,
			"0.014": 0.76949074706,
			"0.015": 0.182991591078,
			"0.016": 0.0,
			"0.017": 0.0,
			"0.018": 0.0,
			"0.019": 0.0,
			"0.02": 0.0,
			"0.021": 0.0,
			"0.022": 0.0,
			"0.023": 0.0,
			"0.024": 0.0,
			"0.025": 0.0
		}
	}
}
