{
	 "smiles": "NN=C(C(=O)C1=CC=C2CCC3=CC=CC1=C23)C1=CC=CC=C1", 
	 "Tm": 473.15, 
	 "num_atms": 39, 
	 "gaussian": { 
		 "optdone": 1, 
		 "sigma_profile": "yes", 
		 "theory": "DFT", 
		 "functional": "B3LYP", 
		 "basiset": "6-31G**", 
		 "properties": { 
			 "R2extent": 7605.032, 
			 "electric_dipole_moment_norm": 1.60170614658, 
			 "electric_quadrupole_moment_norm": 11.8802409273, 
			 "total_energy": -956.476975719, 
			 "HOMO_LUMO_gap": 0.13504, 
			 "cosmo_polarized_energy": -12.12, 
			 "cosmo_cavitation_energy": 41.61, 
			 "cosmo_dispersion_energy": -29.72, 
			 "cosmo_repulsion_energy": 2.28, 
			 "cosmo_total_nonelectrostatic_energy": 14.17, 
			 "SMD_solvation_energy": 6.05 
		},
		"coords": [
			{
				"x": -2.3075952047,
				"y": 2.7349125286,
				"z": 3.3836094715,
				"element": "N" 
			},
			{
				"x": -2.4453077376,
				"y": 2.8226799279,
				"z": 2.0767358203,
				"element": "N" 
			},
			{
				"x": -1.6731823753,
				"y": 2.1594523036,
				"z": 1.2431679991,
				"element": "C" 
			},
			{
				"x": -0.6025857677,
				"y": 1.241484442,
				"z": 1.7185393991,
				"element": "C" 
			},
			{
				"x": -0.190014371,
				"y": 1.3294844832,
				"z": 2.889193178,
				"element": "O" 
			},
			{
				"x": -0.0627805337,
				"y": 0.1582284803,
				"z": 0.8419291786,
				"element": "C" 
			},
			{
				"x": -0.9164366116,
				"y": -0.5235106678,
				"z": -0.0223818142,
				"element": "C" 
			},
			{
				"x": -0.5083483837,
				"y": -1.628850307,
				"z": -0.8072918588,
				"element": "C" 
			},
			{
				"x": 0.8042545289,
				"y": -2.0408109784,
				"z": -0.735347777,
				"element": "C" 
			},
			{
				"x": 1.5577179831,
				"y": -3.1535113593,
				"z": -1.4389138445,
				"element": "C" 
			},
			{
				"x": 3.0256434651,
				"y": -3.0467127476,
				"z": -0.9022854643,
				"element": "C" 
			},
			{
				"x": 2.9949001208,
				"y": -1.8926489524,
				"z": 0.0843533073,
				"element": "C" 
			},
			{
				"x": 3.9707882984,
				"y": -1.3319264794,
				"z": 0.8769219204,
				"element": "C" 
			},
			{
				"x": 3.6193610161,
				"y": -0.237281442,
				"z": 1.711185395,
				"element": "C" 
			},
			{
				"x": 2.33826442,
				"y": 0.2847950608,
				"z": 1.7626701442,
				"element": "C" 
			},
			{
				"x": 1.3072715844,
				"y": -0.2693374153,
				"z": 0.9534186373,
				"element": "C" 
			},
			{
				"x": 1.6870667308,
				"y": -1.3575384978,
				"z": 0.1301779193,
				"element": "C" 
			},
			{
				"x": -1.9352729447,
				"y": 2.4392027072,
				"z": -0.1975030894,
				"element": "C" 
			},
			{
				"x": -0.8831514407,
				"y": 2.5892530133,
				"z": -1.1164348473,
				"element": "C" 
			},
			{
				"x": -1.1393220657,
				"y": 2.9032069395,
				"z": -2.450729887,
				"element": "C" 
			},
			{
				"x": -2.4512979268,
				"y": 3.0792955925,
				"z": -2.8941738684,
				"element": "C" 
			},
			{
				"x": -3.5055479287,
				"y": 2.9429807057,
				"z": -1.988207856,
				"element": "C" 
			},
			{
				"x": -3.2505568461,
				"y": 2.6267949621,
				"z": -0.654937982,
				"element": "C" 
			},
			{
				"x": -1.4773477329,
				"y": 2.2930992391,
				"z": 3.7739036557,
				"element": "H" 
			},
			{
				"x": -2.9164204829,
				"y": 3.335331058,
				"z": 3.9156183124,
				"element": "H" 
			},
			{
				"x": -1.949702409,
				"y": -0.20115142,
				"z": -0.0927956636,
				"element": "H" 
			},
			{
				"x": -1.2308178126,
				"y": -2.1235038853,
				"z": -1.4502712991,
				"element": "H" 
			},
			{
				"x": 1.1176792269,
				"y": -4.1323581527,
				"z": -1.2158415468,
				"element": "H" 
			},
			{
				"x": 1.5153039838,
				"y": -3.0370918145,
				"z": -2.527838832,
				"element": "H" 
			},
			{
				"x": 3.345687922,
				"y": -3.9777417323,
				"z": -0.4208702234,
				"element": "H" 
			},
			{
				"x": 3.7358198113,
				"y": -2.8589459681,
				"z": -1.7157891359,
				"element": "H" 
			},
			{
				"x": 4.9911129317,
				"y": -1.7061214311,
				"z": 0.8779656726,
				"element": "H" 
			},
			{
				"x": 4.3881799913,
				"y": 0.2046181536,
				"z": 2.3395420978,
				"element": "H" 
			},
			{
				"x": 2.1128897358,
				"y": 1.1053215342,
				"z": 2.4313897486,
				"element": "H" 
			},
			{
				"x": 0.1430547576,
				"y": 2.4672675974,
				"z": -0.7839402491,
				"element": "H" 
			},
			{
				"x": -0.3098069864,
				"y": 3.0184119423,
				"z": -3.1429036584,
				"element": "H" 
			},
			{
				"x": -2.6500200562,
				"y": 3.3228687053,
				"z": -3.9339799759,
				"element": "H" 
			},
			{
				"x": -4.5308296386,
				"y": 3.0792587188,
				"z": -2.3214973327,
				"element": "H" 
			},
			{
				"x": -4.0683512514,
				"y": 2.5267951555,
				"z": 0.0512143486,
				"element": "H" 
			}
		],
		 "valence_orbital": [ 
			{
				"type": "occ",
				"energy": -0.24516,
				"method": "rhf"
			},
			{
				"type": "occ",
				"energy": -0.23961,
				"method": "rhf"
			},
			{
				"type": "occ",
				"energy": -0.23447,
				"method": "rhf"
			},
			{
				"type": "occ",
				"energy": -0.21376,
				"method": "rhf"
			},
			{
				"type": "occ",
				"energy": -0.20083,
				"method": "rhf"
			},
			{
				"type": "unocc",
				"energy": -0.06579,
				"method": "rhf"
			},
			{
				"type": "unocc",
				"energy": -0.0299,
				"method": "rhf"
			},
			{
				"type": "unocc",
				"energy": -0.01108,
				"method": "rhf"
			},
			{
				"type": "unocc",
				"energy": -0.00181,
				"method": "rhf"
			},
			{
				"type": "unocc",
				"energy": 0.00872,
				"method": "rhf"
			}
		],
		"cosmo_sigma_profile": { 
			"-0.025": 0.0,
			"-0.024": 0.0,
			"-0.023": 0.0,
			"-0.022": 0.0,
			"-0.021": 0.0,
			"-0.02": 0.0,
			"-0.019": 0.0,
			"-0.018": 0.0,
			"-0.017": 0.0,
			"-0.016": 0.0,
			"-0.015": 0.303572871981,
			"-0.014": 1.53498195307,
			"-0.013": 1.22723251999,
			"-0.012": 1.48952799808,
			"-0.011": 1.14982172392,
			"-0.01": 1.70366982228,
			"-0.009": 1.1610984359,
			"-0.008": 2.08521692305,
			"-0.007": 1.67028537792,
			"-0.006": 6.05019837862,
			"-0.005": 22.3141126174,
			"-0.004": 30.4975100801,
			"-0.003": 35.7655600117,
			"-0.002": 30.1395861912,
			"-0.001": 27.1272503074,
			"0.0": 21.0829386292,
			"0.001": 21.0687832496,
			"0.002": 20.0964769746,
			"0.003": 26.3737952402,
			"0.004": 26.7151475413,
			"0.005": 23.0162825336,
			"0.006": 14.5754893267,
			"0.007": 3.63967919822,
			"0.008": 3.2844583023,
			"0.009": 2.58954938616,
			"0.01": 2.49280368867,
			"0.011": 1.96880714784,
			"0.012": 1.62568101956,
			"0.013": 0.152516803286,
			"0.014": 0.0,
			"0.015": 0.0,
			"0.016": 0.0,
			"0.017": 0.0,
			"0.018": 0.0,
			"0.019": 0.0,
			"0.02": 0.0,
			"0.021": 0.0,
			"0.022": 0.0,
			"0.023": 0.0,
			"0.024": 0.0,
			"0.025": 0.0
		}
	}
}
