{
	 "smiles": "CC(C)(C)N1N=CC(Cl)=C(Cl)C1=O", 
	 "Tm": 338.15, 
	 "num_atms": 23, 
	 "gaussian": { 
		 "optdone": 1, 
		 "sigma_profile": "yes", 
		 "theory": "DFT", 
		 "functional": "B3LYP", 
		 "basiset": "6-31G**", 
		 "properties": { 
			 "R2extent": 4211.1787, 
			 "electric_dipole_moment_norm": 2.93435804905, 
			 "electric_quadrupole_moment_norm": 9.91071224787, 
			 "total_energy": -1415.96835413, 
			 "HOMO_LUMO_gap": 0.17013, 
			 "cosmo_polarized_energy": -7.72, 
			 "cosmo_cavitation_energy": 29.08, 
			 "cosmo_dispersion_energy": -21.25, 
			 "cosmo_repulsion_energy": 1.67, 
			 "cosmo_total_nonelectrostatic_energy": 9.5, 
			 "SMD_solvation_energy": 4.85 
		},
		"coords": [
			{
				"x": -1.9862883809,
				"y": 1.6763732067,
				"z": 0.0189381623,
				"element": "C" 
			},
			{
				"x": -0.5381915923,
				"y": 2.1821944764,
				"z": 0.0615279935,
				"element": "C" 
			},
			{
				"x": -0.2516826476,
				"y": 2.7835142463,
				"z": 1.450648274,
				"element": "C" 
			},
			{
				"x": -0.3294009945,
				"y": 3.217642357,
				"z": -1.059894064,
				"element": "C" 
			},
			{
				"x": 0.4085065009,
				"y": 1.0128891527,
				"z": -0.1701029223,
				"element": "N" 
			},
			{
				"x": -0.1728487651,
				"y": -0.1765471331,
				"z": -0.3585136796,
				"element": "N" 
			},
			{
				"x": 0.5617676583,
				"y": -1.2327259293,
				"z": -0.5645655836,
				"element": "C" 
			},
			{
				"x": 1.9857164418,
				"y": -1.1885133528,
				"z": -0.6009935891,
				"element": "C" 
			},
			{
				"x": 2.8466287558,
				"y": -2.6701485898,
				"z": -0.8848613586,
				"element": "Cl" 
			},
			{
				"x": 2.6009257572,
				"y": 0.0146910297,
				"z": -0.4112095441,
				"element": "C" 
			},
			{
				"x": 4.3108264608,
				"y": 0.2190548634,
				"z": -0.4287722798,
				"element": "Cl" 
			},
			{
				"x": 1.8061586348,
				"y": 1.2307240532,
				"z": -0.1756946058,
				"element": "C" 
			},
			{
				"x": 2.3034800837,
				"y": 2.3353509459,
				"z": 0.0005181394,
				"element": "O" 
			},
			{
				"x": -2.239027505,
				"y": 1.2346505666,
				"z": -0.9470340515,
				"element": "H" 
			},
			{
				"x": -2.6406108613,
				"y": 2.5366792741,
				"z": 0.1883418082,
				"element": "H" 
			},
			{
				"x": -2.1848644502,
				"y": 0.9331037409,
				"z": 0.7936862805,
				"element": "H" 
			},
			{
				"x": -0.4006268518,
				"y": 2.0311742006,
				"z": 2.2319081561,
				"element": "H" 
			},
			{
				"x": 0.7639036097,
				"y": 3.1716201987,
				"z": 1.5171010941,
				"element": "H" 
			},
			{
				"x": -0.9531101869,
				"y": 3.6032639097,
				"z": 1.6339755401,
				"element": "H" 
			},
			{
				"x": -0.5326904855,
				"y": 2.769438935,
				"z": -2.0378263866,
				"element": "H" 
			},
			{
				"x": 0.6843183927,
				"y": 3.6161616153,
				"z": -1.0530988721,
				"element": "H" 
			},
			{
				"x": -1.0320981345,
				"y": 4.0440076678,
				"z": -0.9152205632,
				"element": "H" 
			},
			{
				"x": 0.0355085598,
				"y": -2.169599435,
				"z": -0.710857948,
				"element": "H" 
			}
		],
		 "valence_orbital": [ 
			{
				"type": "occ",
				"energy": -0.32398,
				"method": "rhf"
			},
			{
				"type": "occ",
				"energy": -0.31443,
				"method": "rhf"
			},
			{
				"type": "occ",
				"energy": -0.28985,
				"method": "rhf"
			},
			{
				"type": "occ",
				"energy": -0.26467,
				"method": "rhf"
			},
			{
				"type": "occ",
				"energy": -0.24493,
				"method": "rhf"
			},
			{
				"type": "unocc",
				"energy": -0.0748,
				"method": "rhf"
			},
			{
				"type": "unocc",
				"energy": -0.01847,
				"method": "rhf"
			},
			{
				"type": "unocc",
				"energy": -0.00884,
				"method": "rhf"
			},
			{
				"type": "unocc",
				"energy": 0.0545,
				"method": "rhf"
			},
			{
				"type": "unocc",
				"energy": 0.08599,
				"method": "rhf"
			}
		],
		"cosmo_sigma_profile": { 
			"-0.025": 0.0,
			"-0.024": 0.0,
			"-0.023": 0.0,
			"-0.022": 0.0,
			"-0.021": 0.0,
			"-0.02": 0.0,
			"-0.019": 0.0,
			"-0.018": 0.0,
			"-0.017": 0.0,
			"-0.016": 0.0,
			"-0.015": 0.0,
			"-0.014": 0.0,
			"-0.013": 0.0,
			"-0.012": 0.0,
			"-0.011": 0.0,
			"-0.01": 0.300672566541,
			"-0.009": 1.65935407853,
			"-0.008": 1.3685023291,
			"-0.007": 1.8021059839,
			"-0.006": 2.98017460628,
			"-0.005": 5.89465875767,
			"-0.004": 19.6172485779,
			"-0.003": 29.4810576329,
			"-0.002": 27.6407277862,
			"-0.001": 24.3984143351,
			"0.0": 30.2372195375,
			"0.001": 23.9619932466,
			"0.002": 18.05516215,
			"0.003": 17.1086260303,
			"0.004": 7.46101599301,
			"0.005": 3.78330693364,
			"0.006": 2.84765391541,
			"0.007": 2.99767667377,
			"0.008": 2.63863077724,
			"0.009": 1.52347505045,
			"0.01": 1.76086470331,
			"0.011": 1.9961927577,
			"0.012": 2.58906375245,
			"0.013": 2.30264788888,
			"0.014": 0.296005087668,
			"0.015": 0.0,
			"0.016": 0.0,
			"0.017": 0.0,
			"0.018": 0.0,
			"0.019": 0.0,
			"0.02": 0.0,
			"0.021": 0.0,
			"0.022": 0.0,
			"0.023": 0.0,
			"0.024": 0.0,
			"0.025": 0.0
		}
	}
}
