{
	 "smiles": "O=CC1=CC2=C(SC=C2)C=C1", 
	 "Tm": 326.65, 
	 "num_atms": 17, 
	 "gaussian": { 
		 "optdone": 1, 
		 "sigma_profile": "yes", 
		 "theory": "DFT", 
		 "functional": "B3LYP", 
		 "basiset": "6-31G**", 
		 "properties": { 
			 "R2extent": 2358.2061, 
			 "electric_dipole_moment_norm": 3.68784194211, 
			 "electric_quadrupole_moment_norm": 11.2662555891, 
			 "total_energy": -819.976944804, 
			 "HOMO_LUMO_gap": 0.17238, 
			 "cosmo_polarized_energy": -8.65, 
			 "cosmo_cavitation_energy": 23.2, 
			 "cosmo_dispersion_energy": -17.73, 
			 "cosmo_repulsion_energy": 1.34, 
			 "cosmo_total_nonelectrostatic_energy": 6.81, 
			 "SMD_solvation_energy": 4.75 
		},
		"coords": [
			{
				"x": 0.0165825454,
				"y": -0.3071142971,
				"z": 3.7934709861,
				"element": "O" 
			},
			{
				"x": 0.3382119292,
				"y": -0.8494857261,
				"z": 2.7526500723,
				"element": "C" 
			},
			{
				"x": 0.4828589888,
				"y": -0.1597951549,
				"z": 1.4530320043,
				"element": "C" 
			},
			{
				"x": 0.8568533996,
				"y": -0.8903189034,
				"z": 0.3265916518,
				"element": "C" 
			},
			{
				"x": 0.9963793449,
				"y": -0.2429191934,
				"z": -0.911324993,
				"element": "C" 
			},
			{
				"x": 0.7488534594,
				"y": 1.1533344661,
				"z": -0.9769422634,
				"element": "C" 
			},
			{
				"x": 0.9789866142,
				"y": 1.7553430762,
				"z": -2.6047918675,
				"element": "S" 
			},
			{
				"x": 1.3986526638,
				"y": 0.1530096507,
				"z": -3.1734173169,
				"element": "C" 
			},
			{
				"x": 1.3679908712,
				"y": -0.7858663193,
				"z": -2.193402536,
				"element": "C" 
			},
			{
				"x": 0.3720340119,
				"y": 1.893330643,
				"z": 0.1545333223,
				"element": "C" 
			},
			{
				"x": 0.2416020936,
				"y": 1.2305845983,
				"z": 1.3627690367,
				"element": "C" 
			},
			{
				"x": 0.5489018453,
				"y": -1.9423099717,
				"z": 2.7204099193,
				"element": "H" 
			},
			{
				"x": 1.0397279706,
				"y": -1.9596536024,
				"z": 0.4086607031,
				"element": "H" 
			},
			{
				"x": 1.6446655692,
				"y": 0.0131621199,
				"z": -4.21734385,
				"element": "H" 
			},
			{
				"x": 1.598469859,
				"y": -1.8323764549,
				"z": -2.3577918059,
				"element": "H" 
			},
			{
				"x": 0.1872046486,
				"y": 2.9607565635,
				"z": 0.083540219,
				"element": "H" 
			},
			{
				"x": -0.0473758146,
				"y": 1.7586185057,
				"z": 2.2655567178,
				"element": "H" 
			}
		],
		 "valence_orbital": [ 
			{
				"type": "occ",
				"energy": -0.33496,
				"method": "rhf"
			},
			{
				"type": "occ",
				"energy": -0.29805,
				"method": "rhf"
			},
			{
				"type": "occ",
				"energy": -0.254,
				"method": "rhf"
			},
			{
				"type": "occ",
				"energy": -0.24978,
				"method": "rhf"
			},
			{
				"type": "occ",
				"energy": -0.23297,
				"method": "rhf"
			},
			{
				"type": "unocc",
				"energy": -0.06059,
				"method": "rhf"
			},
			{
				"type": "unocc",
				"energy": -0.0386,
				"method": "rhf"
			},
			{
				"type": "unocc",
				"energy": 0.0108,
				"method": "rhf"
			},
			{
				"type": "unocc",
				"energy": 0.01698,
				"method": "rhf"
			},
			{
				"type": "unocc",
				"energy": 0.05855,
				"method": "rhf"
			}
		],
		"cosmo_sigma_profile": { 
			"-0.025": 0.0,
			"-0.024": 0.0,
			"-0.023": 0.0,
			"-0.022": 0.0,
			"-0.021": 0.0,
			"-0.02": 0.0,
			"-0.019": 0.0,
			"-0.018": 0.0,
			"-0.017": 0.0,
			"-0.016": 0.0,
			"-0.015": 0.0,
			"-0.014": 0.0,
			"-0.013": 0.0,
			"-0.012": 0.0,
			"-0.011": 0.0,
			"-0.01": 0.0583986103419,
			"-0.009": 1.61540267568,
			"-0.008": 4.9563494898,
			"-0.007": 11.2326565383,
			"-0.006": 12.5826092446,
			"-0.005": 11.4506305704,
			"-0.004": 11.7227184163,
			"-0.003": 9.13019079974,
			"-0.002": 10.8424068957,
			"-0.001": 8.79780107875,
			"0.0": 12.302934589,
			"0.001": 15.6348481479,
			"0.002": 23.6517087103,
			"0.003": 23.8088747711,
			"0.004": 10.6259484989,
			"0.005": 3.32574177331,
			"0.006": 1.9777188708,
			"0.007": 1.1319113038,
			"0.008": 1.6041005906,
			"0.009": 2.0832244717,
			"0.01": 2.4285318918,
			"0.011": 3.98920642441,
			"0.012": 3.52188109449,
			"0.013": 1.01496193482,
			"0.014": 0.0244094434762,
			"0.015": 0.0,
			"0.016": 0.0,
			"0.017": 0.0,
			"0.018": 0.0,
			"0.019": 0.0,
			"0.02": 0.0,
			"0.021": 0.0,
			"0.022": 0.0,
			"0.023": 0.0,
			"0.024": 0.0,
			"0.025": 0.0
		}
	}
}
