{
	 "smiles": "CC1=CC(C(=O)CCl)=C(C)N1C1=CC(Cl)=CC(Cl)=C1", 
	 "Tm": 387.15, 
	 "num_atms": 31, 
	 "gaussian": { 
		 "optdone": 1, 
		 "sigma_profile": "yes", 
		 "theory": "DFT", 
		 "functional": "B3LYP", 
		 "basiset": "6-31G**", 
		 "properties": { 
			 "R2extent": 9344.4899, 
			 "electric_dipole_moment_norm": 3.94217074465, 
			 "electric_quadrupole_moment_norm": 10.5930465641, 
			 "total_energy": -2051.2800337, 
			 "HOMO_LUMO_gap": 0.16513, 
			 "cosmo_polarized_energy": -12.05, 
			 "cosmo_cavitation_energy": 40.87, 
			 "cosmo_dispersion_energy": -28.08, 
			 "cosmo_repulsion_energy": 2.22, 
			 "cosmo_total_nonelectrostatic_energy": 15.01, 
			 "SMD_solvation_energy": 6.74 
		},
		"coords": [
			{
				"x": 2.3885471187,
				"y": 0.1199642227,
				"z": 1.3639558218,
				"element": "C" 
			},
			{
				"x": 1.0823281282,
				"y": 0.5834129194,
				"z": 0.8050143175,
				"element": "C" 
			},
			{
				"x": 0.1410584311,
				"y": 1.4295604772,
				"z": 1.3223704081,
				"element": "C" 
			},
			{
				"x": -0.9272150814,
				"y": 1.5582150936,
				"z": 0.3696424125,
				"element": "C" 
			},
			{
				"x": -2.1351863202,
				"y": 2.3717030124,
				"z": 0.4991949319,
				"element": "C" 
			},
			{
				"x": -2.9953204074,
				"y": 2.4815808602,
				"z": -0.3694982,
				"element": "O" 
			},
			{
				"x": -2.3237329945,
				"y": 3.1809694082,
				"z": 1.7900616615,
				"element": "C" 
			},
			{
				"x": -2.6822250162,
				"y": 2.117719772,
				"z": 3.2206711483,
				"element": "Cl" 
			},
			{
				"x": -0.5962936788,
				"y": 0.7679659462,
				"z": -0.7335996954,
				"element": "C" 
			},
			{
				"x": -1.3380802705,
				"y": 0.5034439803,
				"z": -2.003488736,
				"element": "C" 
			},
			{
				"x": 0.621781292,
				"y": 0.1826045278,
				"z": -0.4591117473,
				"element": "N" 
			},
			{
				"x": 1.3171334592,
				"y": -0.7097405664,
				"z": -1.332273116,
				"element": "C" 
			},
			{
				"x": 1.2880888235,
				"y": -2.0836564402,
				"z": -1.0774639358,
				"element": "C" 
			},
			{
				"x": 1.9797990344,
				"y": -2.9391698293,
				"z": -1.9337036406,
				"element": "C" 
			},
			{
				"x": 1.9549190706,
				"y": -4.6632504316,
				"z": -1.6258822788,
				"element": "Cl" 
			},
			{
				"x": 2.6876192414,
				"y": -2.4586175293,
				"z": -3.0352000378,
				"element": "C" 
			},
			{
				"x": 2.6940002033,
				"y": -1.0830147584,
				"z": -3.2650606477,
				"element": "C" 
			},
			{
				"x": 3.5790405379,
				"y": -0.4551509244,
				"z": -4.640088147,
				"element": "Cl" 
			},
			{
				"x": 2.0211881679,
				"y": -0.1968981355,
				"z": -2.4251477761,
				"element": "C" 
			},
			{
				"x": 2.5528413918,
				"y": 0.5961635055,
				"z": 2.3330827142,
				"element": "H" 
			},
			{
				"x": 3.2327262173,
				"y": 0.3801902085,
				"z": 0.7141523814,
				"element": "H" 
			},
			{
				"x": 2.4205553009,
				"y": -0.9652350891,
				"z": 1.5163435999,
				"element": "H" 
			},
			{
				"x": 0.1989803624,
				"y": 1.8974711721,
				"z": 2.2944334612,
				"element": "H" 
			},
			{
				"x": -3.1824764369,
				"y": 3.8360197408,
				"z": 1.6560811577,
				"element": "H" 
			},
			{
				"x": -1.4340762186,
				"y": 3.7602583763,
				"z": 2.0447969409,
				"element": "H" 
			},
			{
				"x": -0.7978677263,
				"y": 0.8848739021,
				"z": -2.8783384329,
				"element": "H" 
			},
			{
				"x": -1.4900612115,
				"y": -0.5707472487,
				"z": -2.161091965,
				"element": "H" 
			},
			{
				"x": -2.3050979165,
				"y": 1.0009777306,
				"z": -1.9529717298,
				"element": "H" 
			},
			{
				"x": 0.7309220929,
				"y": -2.4716549945,
				"z": -0.2332094061,
				"element": "H" 
			},
			{
				"x": 3.2175621253,
				"y": -3.1350848127,
				"z": -3.6940066793,
				"element": "H" 
			},
			{
				"x": 2.0449422802,
				"y": 0.870525904,
				"z": -2.6085647853,
				"element": "H" 
			}
		],
		 "valence_orbital": [ 
			{
				"type": "occ",
				"energy": -0.28499,
				"method": "rhf"
			},
			{
				"type": "occ",
				"energy": -0.27223,
				"method": "rhf"
			},
			{
				"type": "occ",
				"energy": -0.25613,
				"method": "rhf"
			},
			{
				"type": "occ",
				"energy": -0.2462,
				"method": "rhf"
			},
			{
				"type": "occ",
				"energy": -0.21801,
				"method": "rhf"
			},
			{
				"type": "unocc",
				"energy": -0.05288,
				"method": "rhf"
			},
			{
				"type": "unocc",
				"energy": -0.0469,
				"method": "rhf"
			},
			{
				"type": "unocc",
				"energy": -0.0447,
				"method": "rhf"
			},
			{
				"type": "unocc",
				"energy": -0.01116,
				"method": "rhf"
			},
			{
				"type": "unocc",
				"energy": 0.0181,
				"method": "rhf"
			}
		],
		"cosmo_sigma_profile": { 
			"-0.025": 0.0,
			"-0.024": 0.0,
			"-0.023": 0.0,
			"-0.022": 0.0,
			"-0.021": 0.0,
			"-0.02": 0.0,
			"-0.019": 0.0,
			"-0.018": 0.0,
			"-0.017": 0.0,
			"-0.016": 0.0,
			"-0.015": 0.0,
			"-0.014": 0.0,
			"-0.013": 0.0,
			"-0.012": 0.0,
			"-0.011": 0.0,
			"-0.01": 0.0,
			"-0.009": 2.15545127143,
			"-0.008": 7.7759281731,
			"-0.007": 8.69618350794,
			"-0.006": 11.71577616,
			"-0.005": 20.003181584,
			"-0.004": 21.0342766631,
			"-0.003": 23.545612128,
			"-0.002": 24.488769954,
			"-0.001": 32.4999167867,
			"0.0": 40.2952000559,
			"0.001": 25.3429713811,
			"0.002": 20.6644004911,
			"0.003": 26.1351240194,
			"0.004": 27.3561247282,
			"0.005": 14.2041463001,
			"0.006": 12.4417934257,
			"0.007": 3.07854509898,
			"0.008": 1.10778871021,
			"0.009": 1.95353107209,
			"0.01": 1.85171311853,
			"0.011": 2.44682920406,
			"0.012": 2.86287990107,
			"0.013": 1.35792685837,
			"0.014": 0.0810191778231,
			"0.015": 0.0,
			"0.016": 0.0,
			"0.017": 0.0,
			"0.018": 0.0,
			"0.019": 0.0,
			"0.02": 0.0,
			"0.021": 0.0,
			"0.022": 0.0,
			"0.023": 0.0,
			"0.024": 0.0,
			"0.025": 0.0
		}
	}
}
