{
	 "smiles": "COC(=O)C1=C2CCCN2C(=C1C(=O)OC)C1=CC=C(N)C=C1", 
	 "Tm": 456.15, 
	 "num_atms": 41, 
	 "gaussian": { 
		 "optdone": 1, 
		 "sigma_profile": "yes", 
		 "theory": "DFT", 
		 "functional": "B3LYP", 
		 "basiset": "6-31G**", 
		 "properties": { 
			 "R2extent": 8402.7371, 
			 "electric_dipole_moment_norm": 4.70732151866, 
			 "electric_quadrupole_moment_norm": 22.2516727466, 
			 "total_energy": -1069.08015319, 
			 "HOMO_LUMO_gap": 0.17229, 
			 "cosmo_polarized_energy": -22.17, 
			 "cosmo_cavitation_energy": 44.45, 
			 "cosmo_dispersion_energy": -30.89, 
			 "cosmo_repulsion_energy": 2.4, 
			 "cosmo_total_nonelectrostatic_energy": 15.97, 
			 "SMD_solvation_energy": 9.26 
		},
		"coords": [
			{
				"x": 2.4479137924,
				"y": 4.2467005024,
				"z": -1.7367810719,
				"element": "C" 
			},
			{
				"x": 1.3548701824,
				"y": 3.3460720256,
				"z": -1.5203211249,
				"element": "O" 
			},
			{
				"x": 1.5893803222,
				"y": 2.3746522819,
				"z": -0.5883145607,
				"element": "C" 
			},
			{
				"x": 2.650206536,
				"y": 2.2764461396,
				"z": -0.0024459057,
				"element": "O" 
			},
			{
				"x": 0.4061650159,
				"y": 1.5345078871,
				"z": -0.3872769615,
				"element": "C" 
			},
			{
				"x": -0.8872279296,
				"y": 1.8314947457,
				"z": -0.7824023641,
				"element": "C" 
			},
			{
				"x": -1.6838491233,
				"y": 2.9169218636,
				"z": -1.4412803531,
				"element": "C" 
			},
			{
				"x": -3.0904733861,
				"y": 2.2669047285,
				"z": -1.5596499071,
				"element": "C" 
			},
			{
				"x": -3.1357689198,
				"y": 1.1903925994,
				"z": -0.4504941302,
				"element": "C" 
			},
			{
				"x": -1.7156104006,
				"y": 0.8602637675,
				"z": -0.2955593888,
				"element": "N" 
			},
			{
				"x": -1.0114796469,
				"y": -0.0692684808,
				"z": 0.4540672656,
				"element": "C" 
			},
			{
				"x": 0.3249731454,
				"y": 0.325943313,
				"z": 0.395418755,
				"element": "C" 
			},
			{
				"x": 1.4658128323,
				"y": -0.4363190393,
				"z": 0.9524949515,
				"element": "C" 
			},
			{
				"x": 1.534684399,
				"y": -0.8801634409,
				"z": 2.0845580169,
				"element": "O" 
			},
			{
				"x": 2.4380303825,
				"y": -0.610642828,
				"z": 0.0332893282,
				"element": "O" 
			},
			{
				"x": 3.645617307,
				"y": -1.2056938012,
				"z": 0.5251810766,
				"element": "C" 
			},
			{
				"x": -1.6695177593,
				"y": -1.2411823488,
				"z": 1.0535410007,
				"element": "C" 
			},
			{
				"x": -1.4133627378,
				"y": -1.626000286,
				"z": 2.3818639692,
				"element": "C" 
			},
			{
				"x": -2.0499583422,
				"y": -2.7251061504,
				"z": 2.9453510867,
				"element": "C" 
			},
			{
				"x": -2.9736549623,
				"y": -3.4848566536,
				"z": 2.2066172595,
				"element": "C" 
			},
			{
				"x": -3.6568565195,
				"y": -4.5493277003,
				"z": 2.7932856086,
				"element": "N" 
			},
			{
				"x": -3.2272605063,
				"y": -3.1117093968,
				"z": 0.8749538182,
				"element": "C" 
			},
			{
				"x": -2.5829967787,
				"y": -2.0150541701,
				"z": 0.314489548,
				"element": "C" 
			},
			{
				"x": 2.7157104489,
				"y": 4.7656081031,
				"z": -0.8122708567,
				"element": "H" 
			},
			{
				"x": 2.1009757315,
				"y": 4.9586298689,
				"z": -2.4867296626,
				"element": "H" 
			},
			{
				"x": 3.3280374291,
				"y": 3.7094469856,
				"z": -2.1001893373,
				"element": "H" 
			},
			{
				"x": -1.7081015206,
				"y": 3.8148512847,
				"z": -0.8101797973,
				"element": "H" 
			},
			{
				"x": -1.2699711464,
				"y": 3.2197587944,
				"z": -2.4055615472,
				"element": "H" 
			},
			{
				"x": -3.1911336645,
				"y": 1.7840442245,
				"z": -2.5366645907,
				"element": "H" 
			},
			{
				"x": -3.9038401883,
				"y": 2.9892869649,
				"z": -1.4598218681,
				"element": "H" 
			},
			{
				"x": -3.7282079933,
				"y": 0.3160478564,
				"z": -0.722701912,
				"element": "H" 
			},
			{
				"x": -3.5280814285,
				"y": 1.5842750395,
				"z": 0.4953944226,
				"element": "H" 
			},
			{
				"x": 3.4500066442,
				"y": -2.1964830945,
				"z": 0.9434233279,
				"element": "H" 
			},
			{
				"x": 4.3098563936,
				"y": -1.277165444,
				"z": -0.3363797364,
				"element": "H" 
			},
			{
				"x": 4.0928879112,
				"y": -0.5746083341,
				"z": 1.2975339119,
				"element": "H" 
			},
			{
				"x": -0.6893946335,
				"y": -1.0662151783,
				"z": 2.9612597696,
				"element": "H" 
			},
			{
				"x": -1.8353420673,
				"y": -2.9992943871,
				"z": 3.9754578277,
				"element": "H" 
			},
			{
				"x": -4.0102827478,
				"y": -5.2440472453,
				"z": 2.1499463533,
				"element": "H" 
			},
			{
				"x": -3.1973509718,
				"y": -4.9694595168,
				"z": 3.589432521,
				"element": "H" 
			},
			{
				"x": -3.9248800322,
				"y": -3.6938224024,
				"z": 0.2774652508,
				"element": "H" 
			},
			{
				"x": -2.7672250668,
				"y": -1.775929078,
				"z": -0.7291999933,
				"element": "H" 
			}
		],
		 "valence_orbital": [ 
			{
				"type": "occ",
				"energy": -0.25504,
				"method": "rhf"
			},
			{
				"type": "occ",
				"energy": -0.24468,
				"method": "rhf"
			},
			{
				"type": "occ",
				"energy": -0.23787,
				"method": "rhf"
			},
			{
				"type": "occ",
				"energy": -0.22684,
				"method": "rhf"
			},
			{
				"type": "occ",
				"energy": -0.18787,
				"method": "rhf"
			},
			{
				"type": "unocc",
				"energy": -0.01558,
				"method": "rhf"
			},
			{
				"type": "unocc",
				"energy": -0.00207,
				"method": "rhf"
			},
			{
				"type": "unocc",
				"energy": 0.00484,
				"method": "rhf"
			},
			{
				"type": "unocc",
				"energy": 0.02892,
				"method": "rhf"
			},
			{
				"type": "unocc",
				"energy": 0.0698,
				"method": "rhf"
			}
		],
		"cosmo_sigma_profile": { 
			"-0.025": 0.0,
			"-0.024": 0.0,
			"-0.023": 0.0,
			"-0.022": 0.0,
			"-0.021": 0.0,
			"-0.02": 0.0,
			"-0.019": 0.0,
			"-0.018": 0.0,
			"-0.017": 0.0,
			"-0.016": 0.0,
			"-0.015": 0.0,
			"-0.014": 0.0,
			"-0.013": 0.547900617061,
			"-0.012": 2.78511155113,
			"-0.011": 3.19748200905,
			"-0.01": 2.31899054989,
			"-0.009": 2.72478919136,
			"-0.008": 3.87155261638,
			"-0.007": 4.68287774137,
			"-0.006": 14.8548149558,
			"-0.005": 29.7828539405,
			"-0.004": 38.9335623382,
			"-0.003": 39.9666061249,
			"-0.002": 24.6809824815,
			"-0.001": 22.7539255088,
			"0.0": 15.7557702405,
			"0.001": 14.7897387014,
			"0.002": 16.0023606899,
			"0.003": 18.7375271905,
			"0.004": 19.413642415,
			"0.005": 17.4551792354,
			"0.006": 16.4687426483,
			"0.007": 8.15590952329,
			"0.008": 6.77381798519,
			"0.009": 6.2126541476,
			"0.01": 6.12232834911,
			"0.011": 5.06464500682,
			"0.012": 6.25144267344,
			"0.013": 3.06782837737,
			"0.014": 0.619651971659,
			"0.015": 0.00970010345642,
			"0.016": 0.0,
			"0.017": 0.0,
			"0.018": 0.0,
			"0.019": 0.0,
			"0.02": 0.0,
			"0.021": 0.0,
			"0.022": 0.0,
			"0.023": 0.0,
			"0.024": 0.0,
			"0.025": 0.0
		}
	}
}
