{
	 "smiles": "OC1=CC2=C(C=C1)C(=O)C1=C(C=CC=C1)C2=O", 
	 "Tm": 579.15, 
	 "num_atms": 25, 
	 "gaussian": { 
		 "optdone": 1, 
		 "sigma_profile": "yes", 
		 "theory": "DFT", 
		 "functional": "B3LYP", 
		 "basiset": "6-31G**", 
		 "properties": { 
			 "R2extent": 4105.1265, 
			 "electric_dipole_moment_norm": 1.37026910131, 
			 "electric_quadrupole_moment_norm": 14.7461160764, 
			 "total_energy": -763.999880682, 
			 "HOMO_LUMO_gap": 0.14213, 
			 "cosmo_polarized_energy": -13.74, 
			 "cosmo_cavitation_energy": 29.79, 
			 "cosmo_dispersion_energy": -22.21, 
			 "cosmo_repulsion_energy": 1.65, 
			 "cosmo_total_nonelectrostatic_energy": 9.22, 
			 "SMD_solvation_energy": 6.03 
		},
		"coords": [
			{
				"x": -2.5022394427,
				"y": 1.9626389166,
				"z": -3.4261564922,
				"element": "O" 
			},
			{
				"x": -1.8151130181,
				"y": 1.0858242445,
				"z": -2.6485174137,
				"element": "C" 
			},
			{
				"x": -1.5462045735,
				"y": 1.3241428402,
				"z": -1.2988735425,
				"element": "C" 
			},
			{
				"x": -0.8346911862,
				"y": 0.3829827083,
				"z": -0.55333303,
				"element": "C" 
			},
			{
				"x": -0.3853232811,
				"y": -0.8082736927,
				"z": -1.1555403035,
				"element": "C" 
			},
			{
				"x": -0.6638056667,
				"y": -1.0323410235,
				"z": -2.5124291098,
				"element": "C" 
			},
			{
				"x": -1.370255345,
				"y": -0.1003553644,
				"z": -3.2570249917,
				"element": "C" 
			},
			{
				"x": 0.3730027103,
				"y": -1.8263549125,
				"z": -0.3879209377,
				"element": "C" 
			},
			{
				"x": 0.7656822262,
				"y": -2.8659202334,
				"z": -0.9104971308,
				"element": "O" 
			},
			{
				"x": 0.6429780068,
				"y": -1.5394721112,
				"z": 1.0537508565,
				"element": "C" 
			},
			{
				"x": 0.1953353476,
				"y": -0.3488864087,
				"z": 1.6607132432,
				"element": "C" 
			},
			{
				"x": 0.4663522854,
				"y": -0.1132537559,
				"z": 3.0137125356,
				"element": "C" 
			},
			{
				"x": 1.1760920246,
				"y": -1.0519120192,
				"z": 3.758372814,
				"element": "C" 
			},
			{
				"x": 1.6207680949,
				"y": -2.2344408083,
				"z": 3.1556808691,
				"element": "C" 
			},
			{
				"x": 1.3552033602,
				"y": -2.4765748683,
				"z": 1.809776854,
				"element": "C" 
			},
			{
				"x": -0.5660446898,
				"y": 0.672205979,
				"z": 0.8870582395,
				"element": "C" 
			},
			{
				"x": -0.9588166474,
				"y": 1.7108007061,
				"z": 1.4091622912,
				"element": "O" 
			},
			{
				"x": -2.7523817803,
				"y": 2.7330175087,
				"z": -2.8984507141,
				"element": "H" 
			},
			{
				"x": -1.8777103304,
				"y": 2.2322137161,
				"z": -0.8020634558,
				"element": "H" 
			},
			{
				"x": -0.3108542143,
				"y": -1.9546467214,
				"z": -2.9614876116,
				"element": "H" 
			},
			{
				"x": -1.5912629045,
				"y": -0.2630372116,
				"z": -4.3066366662,
				"element": "H" 
			},
			{
				"x": 0.1101021386,
				"y": 0.8112928462,
				"z": 3.4554933443,
				"element": "H" 
			},
			{
				"x": 1.3843504608,
				"y": -0.8653835832,
				"z": 4.8078159059,
				"element": "H" 
			},
			{
				"x": 2.1741801139,
				"y": -2.9654072991,
				"z": 3.737966135,
				"element": "H" 
			},
			{
				"x": 1.6881563109,
				"y": -3.3844594523,
				"z": 1.3181283114,
				"element": "H" 
			}
		],
		 "valence_orbital": [ 
			{
				"type": "occ",
				"energy": -0.26985,
				"method": "rhf"
			},
			{
				"type": "occ",
				"energy": -0.26809,
				"method": "rhf"
			},
			{
				"type": "occ",
				"energy": -0.26581,
				"method": "rhf"
			},
			{
				"type": "occ",
				"energy": -0.25553,
				"method": "rhf"
			},
			{
				"type": "occ",
				"energy": -0.24291,
				"method": "rhf"
			},
			{
				"type": "unocc",
				"energy": -0.10078,
				"method": "rhf"
			},
			{
				"type": "unocc",
				"energy": -0.05523,
				"method": "rhf"
			},
			{
				"type": "unocc",
				"energy": -0.01908,
				"method": "rhf"
			},
			{
				"type": "unocc",
				"energy": -0.00928,
				"method": "rhf"
			},
			{
				"type": "unocc",
				"energy": 0.05666,
				"method": "rhf"
			}
		],
		"cosmo_sigma_profile": { 
			"-0.025": 0.0,
			"-0.024": 0.0,
			"-0.023": 0.0,
			"-0.022": 0.0,
			"-0.021": 0.0,
			"-0.02": 0.0,
			"-0.019": 0.385920305296,
			"-0.018": 1.28180496414,
			"-0.017": 1.32238495826,
			"-0.016": 1.01437083236,
			"-0.015": 1.09909841921,
			"-0.014": 1.02946446466,
			"-0.013": 0.632186875373,
			"-0.012": 1.29319931037,
			"-0.011": 0.833771091382,
			"-0.01": 1.5349819109,
			"-0.009": 0.649124083976,
			"-0.008": 1.36237541654,
			"-0.007": 7.30557923279,
			"-0.006": 12.6312941,
			"-0.005": 15.4185710943,
			"-0.004": 12.2635388495,
			"-0.003": 13.6125288579,
			"-0.002": 13.339395748,
			"-0.001": 14.8595822394,
			"0.0": 19.4417144229,
			"0.001": 31.2328059399,
			"0.002": 29.4792551099,
			"0.003": 12.0738522277,
			"0.004": 4.92937483341,
			"0.005": 5.34221522432,
			"0.006": 5.01368084312,
			"0.007": 4.30887862935,
			"0.008": 4.45357102327,
			"0.009": 4.95146608439,
			"0.01": 6.7464104077,
			"0.011": 7.47410336808,
			"0.012": 3.18123500072,
			"0.013": 0.0,
			"0.014": 0.0,
			"0.015": 0.0,
			"0.016": 0.0,
			"0.017": 0.0,
			"0.018": 0.0,
			"0.019": 0.0,
			"0.02": 0.0,
			"0.021": 0.0,
			"0.022": 0.0,
			"0.023": 0.0,
			"0.024": 0.0,
			"0.025": 0.0
		}
	}
}
