{
	 "smiles": "NC1=NC2=C(C(N)=N1)C(F)=CC=C2", 
	 "Tm": 520.15, 
	 "num_atms": 20, 
	 "gaussian": { 
		 "optdone": 1, 
		 "sigma_profile": "yes", 
		 "theory": "DFT", 
		 "functional": "B3LYP", 
		 "basiset": "6-31G**", 
		 "properties": { 
			 "R2extent": 4566.7541, 
			 "electric_dipole_moment_norm": 1.57122916534, 
			 "electric_quadrupole_moment_norm": 10.0860477805, 
			 "total_energy": -627.952110944, 
			 "HOMO_LUMO_gap": 0.16699, 
			 "cosmo_polarized_energy": -12.47, 
			 "cosmo_cavitation_energy": 24.35, 
			 "cosmo_dispersion_energy": -18.82, 
			 "cosmo_repulsion_energy": 1.47, 
			 "cosmo_total_nonelectrostatic_energy": 6.99, 
			 "SMD_solvation_energy": 1.4 
		},
		"coords": [
			{
				"x": -0.5655817609,
				"y": -0.3436705219,
				"z": -1.5825124738,
				"element": "N" 
			},
			{
				"x": -0.7810556492,
				"y": -0.8256429642,
				"z": -0.3209876374,
				"element": "C" 
			},
			{
				"x": -2.0262025093,
				"y": -1.1495895925,
				"z": 0.0034886342,
				"element": "N" 
			},
			{
				"x": -2.2003004404,
				"y": -1.671594416,
				"z": 1.2458451758,
				"element": "C" 
			},
			{
				"x": -1.1096776018,
				"y": -1.8540586808,
				"z": 2.1539226573,
				"element": "C" 
			},
			{
				"x": 0.1857647952,
				"y": -1.4386842871,
				"z": 1.6637266773,
				"element": "C" 
			},
			{
				"x": 1.3004944881,
				"y": -1.5353133948,
				"z": 2.4278101956,
				"element": "N" 
			},
			{
				"x": 0.3355236558,
				"y": -0.9370843104,
				"z": 0.4470611241,
				"element": "N" 
			},
			{
				"x": -1.3911723128,
				"y": -2.4047476759,
				"z": 3.4199574003,
				"element": "C" 
			},
			{
				"x": -0.3647505444,
				"y": -2.59069422,
				"z": 4.30232083,
				"element": "F" 
			},
			{
				"x": -2.6537378806,
				"y": -2.7705789989,
				"z": 3.8199893992,
				"element": "C" 
			},
			{
				"x": -3.7194251847,
				"y": -2.5822273872,
				"z": 2.9133369056,
				"element": "C" 
			},
			{
				"x": -3.5054572795,
				"y": -2.0484421767,
				"z": 1.6606534152,
				"element": "C" 
			},
			{
				"x": 0.3099763928,
				"y": 0.1242987663,
				"z": -1.7518423212,
				"element": "H" 
			},
			{
				"x": -1.3788387887,
				"y": -0.0469223004,
				"z": -2.0978299127,
				"element": "H" 
			},
			{
				"x": 2.1746324053,
				"y": -1.2617461092,
				"z": 2.0090385509,
				"element": "H" 
			},
			{
				"x": 1.269010011,
				"y": -1.9439576661,
				"z": 3.3450125585,
				"element": "H" 
			},
			{
				"x": -2.8044112099,
				"y": -3.1899510666,
				"z": 4.8078321253,
				"element": "H" 
			},
			{
				"x": -4.7228903575,
				"y": -2.8668786303,
				"z": 3.2160697471,
				"element": "H" 
			},
			{
				"x": -4.3170002282,
				"y": -1.9014143672,
				"z": 0.9568069485,
				"element": "H" 
			}
		],
		 "valence_orbital": [ 
			{
				"type": "occ",
				"energy": -0.28772,
				"method": "rhf"
			},
			{
				"type": "occ",
				"energy": -0.2561,
				"method": "rhf"
			},
			{
				"type": "occ",
				"energy": -0.24248,
				"method": "rhf"
			},
			{
				"type": "occ",
				"energy": -0.24039,
				"method": "rhf"
			},
			{
				"type": "occ",
				"energy": -0.20128,
				"method": "rhf"
			},
			{
				"type": "unocc",
				"energy": -0.03429,
				"method": "rhf"
			},
			{
				"type": "unocc",
				"energy": -0.00505,
				"method": "rhf"
			},
			{
				"type": "unocc",
				"energy": 0.04365,
				"method": "rhf"
			},
			{
				"type": "unocc",
				"energy": 0.08886,
				"method": "rhf"
			},
			{
				"type": "unocc",
				"energy": 0.09401,
				"method": "rhf"
			}
		],
		"cosmo_sigma_profile": { 
			"-0.025": 0.0,
			"-0.024": 0.0,
			"-0.023": 0.0,
			"-0.022": 0.0,
			"-0.021": 0.0,
			"-0.02": 0.0,
			"-0.019": 0.0,
			"-0.018": 0.0,
			"-0.017": 0.0,
			"-0.016": 0.0,
			"-0.015": 0.0,
			"-0.014": 0.832393628141,
			"-0.013": 2.45476968486,
			"-0.012": 3.89806506261,
			"-0.011": 4.03604951969,
			"-0.01": 3.78172842273,
			"-0.009": 4.08870753765,
			"-0.008": 2.90052827704,
			"-0.007": 6.02242259821,
			"-0.006": 7.20969869775,
			"-0.005": 8.18010042714,
			"-0.004": 9.29007937457,
			"-0.003": 7.61958339641,
			"-0.002": 9.20901081677,
			"-0.001": 10.9136983173,
			"0.0": 14.7639886078,
			"0.001": 16.1513586255,
			"0.002": 17.9582104326,
			"0.003": 17.4703861837,
			"0.004": 16.5433819254,
			"0.005": 5.37249077689,
			"0.006": 4.12636661245,
			"0.007": 4.28209206552,
			"0.008": 3.59226507644,
			"0.009": 3.32464994153,
			"0.01": 2.70912602171,
			"0.011": 2.66118054936,
			"0.012": 1.79432585348,
			"0.013": 1.61747535262,
			"0.014": 0.876578819656,
			"0.015": 1.07051392647,
			"0.016": 0.400052311011,
			"0.017": 0.0,
			"0.018": 0.0,
			"0.019": 0.0,
			"0.02": 0.0,
			"0.021": 0.0,
			"0.022": 0.0,
			"0.023": 0.0,
			"0.024": 0.0,
			"0.025": 0.0
		}
	}
}
