{
	 "smiles": "NS(=O)(=O)C1=CC2=C(C=C1)N(CC(O)=O)C(=O)O2", 
	 "Tm": 442.15, 
	 "num_atms": 26, 
	 "gaussian": { 
		 "optdone": 1, 
		 "sigma_profile": "yes", 
		 "theory": "DFT", 
		 "functional": "B3LYP", 
		 "basiset": "6-31G**", 
		 "properties": { 
			 "R2extent": 7993.0928, 
			 "electric_dipole_moment_norm": 5.31529894079, 
			 "electric_quadrupole_moment_norm": 34.7283038156, 
			 "total_energy": -1306.76873889, 
			 "HOMO_LUMO_gap": 0.19802, 
			 "cosmo_polarized_energy": -30.52, 
			 "cosmo_cavitation_energy": 33.71, 
			 "cosmo_dispersion_energy": -24.47, 
			 "cosmo_repulsion_energy": 1.85, 
			 "cosmo_total_nonelectrostatic_energy": 11.09, 
			 "SMD_solvation_energy": 8.01 
		},
		"coords": [
			{
				"x": 1.7126176097,
				"y": -4.7062791166,
				"z": -0.5532879397,
				"element": "N" 
			},
			{
				"x": 2.3538962826,
				"y": -4.2523296755,
				"z": 0.9315502751,
				"element": "S" 
			},
			{
				"x": 3.7984419687,
				"y": -4.4330399819,
				"z": 0.8051690836,
				"element": "O" 
			},
			{
				"x": 1.5428026055,
				"y": -4.9373743109,
				"z": 1.935632139,
				"element": "O" 
			},
			{
				"x": 2.0552592793,
				"y": -2.488297049,
				"z": 1.1199921488,
				"element": "C" 
			},
			{
				"x": 3.0071866595,
				"y": -1.5888852449,
				"z": 0.6094560521,
				"element": "C" 
			},
			{
				"x": 2.7094148146,
				"y": -0.2523175535,
				"z": 0.761797372,
				"element": "C" 
			},
			{
				"x": 1.5422217963,
				"y": 0.1980036128,
				"z": 1.3935974542,
				"element": "C" 
			},
			{
				"x": 0.6102256506,
				"y": -0.6962048411,
				"z": 1.9061227618,
				"element": "C" 
			},
			{
				"x": 0.8872046244,
				"y": -2.0611303578,
				"z": 1.7591941186,
				"element": "C" 
			},
			{
				"x": 1.6165910124,
				"y": 1.5847253616,
				"z": 1.3718272191,
				"element": "N" 
			},
			{
				"x": 0.6395588707,
				"y": 2.5348969697,
				"z": 1.8458326257,
				"element": "C" 
			},
			{
				"x": -0.6264464547,
				"y": 2.6529107678,
				"z": 1.0003481651,
				"element": "C" 
			},
			{
				"x": -0.45779429,
				"y": 2.2009622957,
				"z": -0.2570013665,
				"element": "O" 
			},
			{
				"x": -1.6531534018,
				"y": 3.1313908455,
				"z": 1.420138469,
				"element": "O" 
			},
			{
				"x": 2.7844303188,
				"y": 1.9820427489,
				"z": 0.7244135566,
				"element": "C" 
			},
			{
				"x": 3.174633018,
				"y": 3.0993211334,
				"z": 0.511368027,
				"element": "O" 
			},
			{
				"x": 3.4616433249,
				"y": 0.8269953836,
				"z": 0.3601395821,
				"element": "O" 
			},
			{
				"x": 2.19504304,
				"y": -4.2880244941,
				"z": -1.3420811634,
				"element": "H" 
			},
			{
				"x": 0.7034034293,
				"y": -4.6107352991,
				"z": -0.5994874853,
				"element": "H" 
			},
			{
				"x": 3.9275070062,
				"y": -1.9315095657,
				"z": 0.151751747,
				"element": "H" 
			},
			{
				"x": -0.2907761847,
				"y": -0.3615939735,
				"z": 2.4086616724,
				"element": "H" 
			},
			{
				"x": 0.2074110962,
				"y": -2.802290798,
				"z": 2.1643930798,
				"element": "H" 
			},
			{
				"x": 0.334870896,
				"y": 2.3063701229,
				"z": 2.8706940819,
				"element": "H" 
			},
			{
				"x": 1.1259676222,
				"y": 3.5157888771,
				"z": 1.8498196702,
				"element": "H" 
			},
			{
				"x": -1.2981605948,
				"y": 2.3541041428,
				"z": -0.7218413463,
				"element": "H" 
			}
		],
		 "valence_orbital": [ 
			{
				"type": "occ",
				"energy": -0.31156,
				"method": "rhf"
			},
			{
				"type": "occ",
				"energy": -0.30944,
				"method": "rhf"
			},
			{
				"type": "occ",
				"energy": -0.30429,
				"method": "rhf"
			},
			{
				"type": "occ",
				"energy": -0.28151,
				"method": "rhf"
			},
			{
				"type": "occ",
				"energy": -0.24877,
				"method": "rhf"
			},
			{
				"type": "unocc",
				"energy": -0.05075,
				"method": "rhf"
			},
			{
				"type": "unocc",
				"energy": -0.03675,
				"method": "rhf"
			},
			{
				"type": "unocc",
				"energy": -0.02191,
				"method": "rhf"
			},
			{
				"type": "unocc",
				"energy": 0.02204,
				"method": "rhf"
			},
			{
				"type": "unocc",
				"energy": 0.04108,
				"method": "rhf"
			}
		],
		"cosmo_sigma_profile": { 
			"-0.025": 0.0,
			"-0.024": 0.0,
			"-0.023": 0.0,
			"-0.022": 0.0,
			"-0.021": 0.0,
			"-0.02": 0.0130914298221,
			"-0.019": 0.814038469073,
			"-0.018": 0.986652953467,
			"-0.017": 0.6127978517,
			"-0.016": 1.61741898466,
			"-0.015": 3.16755544251,
			"-0.014": 2.95220887807,
			"-0.013": 3.39179942704,
			"-0.012": 4.03990939689,
			"-0.011": 3.49455649219,
			"-0.01": 5.26692130279,
			"-0.009": 9.71747695864,
			"-0.008": 11.2286298274,
			"-0.007": 11.2796242961,
			"-0.006": 12.1805462356,
			"-0.005": 11.8117316619,
			"-0.004": 10.4153503315,
			"-0.003": 10.9362414021,
			"-0.002": 11.7162464662,
			"-0.001": 13.556102744,
			"0.0": 14.2013825135,
			"0.001": 14.4421125661,
			"0.002": 12.4161741965,
			"0.003": 7.9570271908,
			"0.004": 7.91886137255,
			"0.005": 7.75898805448,
			"0.006": 9.15819068391,
			"0.007": 8.74076337545,
			"0.008": 8.87570330642,
			"0.009": 7.41414998101,
			"0.01": 14.6279398186,
			"0.011": 21.0489198747,
			"0.012": 5.97203674419,
			"0.013": 0.102201504006,
			"0.014": 0.0,
			"0.015": 0.0,
			"0.016": 0.0,
			"0.017": 0.0,
			"0.018": 0.0,
			"0.019": 0.0,
			"0.02": 0.0,
			"0.021": 0.0,
			"0.022": 0.0,
			"0.023": 0.0,
			"0.024": 0.0,
			"0.025": 0.0
		}
	}
}
