{
	 "smiles": "OC(=O)CC1=CC(OCC2=C(Cl)C=CC=C2)=CC=C1", 
	 "Tm": 338.15, 
	 "num_atms": 32, 
	 "gaussian": { 
		 "optdone": 1, 
		 "sigma_profile": "yes", 
		 "theory": "DFT", 
		 "functional": "B3LYP", 
		 "basiset": "6-31G**", 
		 "properties": { 
			 "R2extent": 7126.7389, 
			 "electric_dipole_moment_norm": 1.59185634088, 
			 "electric_quadrupole_moment_norm": 12.3936534924, 
			 "total_energy": -1265.30436632, 
			 "HOMO_LUMO_gap": 0.20198, 
			 "cosmo_polarized_energy": -13.37, 
			 "cosmo_cavitation_energy": 38.43, 
			 "cosmo_dispersion_energy": -26.73, 
			 "cosmo_repulsion_energy": 2.11, 
			 "cosmo_total_nonelectrostatic_energy": 13.82, 
			 "SMD_solvation_energy": 7.35 
		},
		"coords": [
			{
				"x": 1.4859189546,
				"y": 2.5464007026,
				"z": 4.0089974897,
				"element": "O" 
			},
			{
				"x": 1.1734523982,
				"y": 3.325341505,
				"z": 2.9443626685,
				"element": "C" 
			},
			{
				"x": 1.8063465343,
				"y": 4.3150776695,
				"z": 2.6549116681,
				"element": "O" 
			},
			{
				"x": -0.0728828261,
				"y": 2.8116549619,
				"z": 2.2382944325,
				"element": "C" 
			},
			{
				"x": -0.0772387915,
				"y": 3.029061969,
				"z": 0.7393854881,
				"element": "C" 
			},
			{
				"x": -0.1084784574,
				"y": 1.9163383986,
				"z": -0.1127051896,
				"element": "C" 
			},
			{
				"x": -0.1298855461,
				"y": 2.0947955591,
				"z": -1.5002069903,
				"element": "C" 
			},
			{
				"x": -0.1640415117,
				"y": 1.0716010538,
				"z": -2.4168990546,
				"element": "O" 
			},
			{
				"x": -0.4238956996,
				"y": -0.2520824598,
				"z": -1.9716203404,
				"element": "C" 
			},
			{
				"x": 0.8166723964,
				"y": -0.9904817883,
				"z": -1.4998389324,
				"element": "C" 
			},
			{
				"x": 0.726586427,
				"y": -2.234258839,
				"z": -0.8615191787,
				"element": "C" 
			},
			{
				"x": -0.8593205677,
				"y": -2.9575453883,
				"z": -0.5707354347,
				"element": "Cl" 
			},
			{
				"x": 1.8565048267,
				"y": -2.937927522,
				"z": -0.4482210661,
				"element": "C" 
			},
			{
				"x": 3.1198985144,
				"y": -2.3936645694,
				"z": -0.6776493817,
				"element": "C" 
			},
			{
				"x": 3.2390537968,
				"y": -1.1600873281,
				"z": -1.3182289561,
				"element": "C" 
			},
			{
				"x": 2.0971771348,
				"y": -0.4714279104,
				"z": -1.725528651,
				"element": "C" 
			},
			{
				"x": -0.107163215,
				"y": 3.3855320421,
				"z": -2.0409579236,
				"element": "C" 
			},
			{
				"x": -0.0691837828,
				"y": 4.4853148891,
				"z": -1.1893907679,
				"element": "C" 
			},
			{
				"x": -0.0590528145,
				"y": 4.3174098812,
				"z": 0.1967831295,
				"element": "C" 
			},
			{
				"x": 2.2580913283,
				"y": 2.962721473,
				"z": 4.4286708165,
				"element": "H" 
			},
			{
				"x": -0.914851761,
				"y": 3.3461345928,
				"z": 2.7005833912,
				"element": "H" 
			},
			{
				"x": -0.2052172116,
				"y": 1.7561734592,
				"z": 2.4862172949,
				"element": "H" 
			},
			{
				"x": -0.096675537,
				"y": 0.9209520496,
				"z": 0.3167450902,
				"element": "H" 
			},
			{
				"x": -0.8475016464,
				"y": -0.7671548433,
				"z": -2.8410791534,
				"element": "H" 
			},
			{
				"x": -1.1961103791,
				"y": -0.2533491772,
				"z": -1.1935658124,
				"element": "H" 
			},
			{
				"x": 1.7406641022,
				"y": -3.8968897388,
				"z": 0.0447409074,
				"element": "H" 
			},
			{
				"x": 4.0038089565,
				"y": -2.9364069612,
				"z": -0.3566454462,
				"element": "H" 
			},
			{
				"x": 4.2198853664,
				"y": -0.7325111493,
				"z": -1.5023625267,
				"element": "H" 
			},
			{
				"x": 2.1822869207,
				"y": 0.4863489134,
				"z": -2.2267725999,
				"element": "H" 
			},
			{
				"x": -0.1268319259,
				"y": 3.4999706748,
				"z": -3.1197417126,
				"element": "H" 
			},
			{
				"x": -0.0531583229,
				"y": 5.4861824776,
				"z": -1.6111705564,
				"element": "H" 
			},
			{
				"x": -0.0159576611,
				"y": 5.1790754028,
				"z": 0.853247298,
				"element": "H" 
			}
		],
		 "valence_orbital": [ 
			{
				"type": "occ",
				"energy": -0.279,
				"method": "rhf"
			},
			{
				"type": "occ",
				"energy": -0.26139,
				"method": "rhf"
			},
			{
				"type": "occ",
				"energy": -0.24967,
				"method": "rhf"
			},
			{
				"type": "occ",
				"energy": -0.2458,
				"method": "rhf"
			},
			{
				"type": "occ",
				"energy": -0.22005,
				"method": "rhf"
			},
			{
				"type": "unocc",
				"energy": -0.01807,
				"method": "rhf"
			},
			{
				"type": "unocc",
				"energy": -0.01471,
				"method": "rhf"
			},
			{
				"type": "unocc",
				"energy": -0.00235,
				"method": "rhf"
			},
			{
				"type": "unocc",
				"energy": 0.00451,
				"method": "rhf"
			},
			{
				"type": "unocc",
				"energy": 0.01612,
				"method": "rhf"
			}
		],
		"cosmo_sigma_profile": { 
			"-0.025": 0.0,
			"-0.024": 0.0,
			"-0.023": 0.0,
			"-0.022": 0.0,
			"-0.021": 0.0,
			"-0.02": 0.0,
			"-0.019": 0.0277481762328,
			"-0.018": 0.671126429759,
			"-0.017": 0.898622707972,
			"-0.016": 0.888578812963,
			"-0.015": 1.07022068143,
			"-0.014": 0.216354486494,
			"-0.013": 0.564529595376,
			"-0.012": 0.930223238803,
			"-0.011": 1.01283098144,
			"-0.01": 0.455988085833,
			"-0.009": 0.336540214776,
			"-0.008": 1.50036915111,
			"-0.007": 9.47924169783,
			"-0.006": 19.3008815092,
			"-0.005": 22.0393934656,
			"-0.004": 23.7643622525,
			"-0.003": 21.8216688191,
			"-0.002": 18.4990557166,
			"-0.001": 19.5562738251,
			"0.0": 18.7783313047,
			"0.001": 20.3523291606,
			"0.002": 24.0393552434,
			"0.003": 26.809014662,
			"0.004": 26.503712755,
			"0.005": 16.5921405269,
			"0.006": 7.29993973406,
			"0.007": 5.26722885725,
			"0.008": 4.6988619026,
			"0.009": 4.07517502224,
			"0.01": 3.84295458872,
			"0.011": 4.0275896576,
			"0.012": 3.38582678285,
			"0.013": 0.0276943268423,
			"0.014": 0.0,
			"0.015": 0.0,
			"0.016": 0.0,
			"0.017": 0.0,
			"0.018": 0.0,
			"0.019": 0.0,
			"0.02": 0.0,
			"0.021": 0.0,
			"0.022": 0.0,
			"0.023": 0.0,
			"0.024": 0.0,
			"0.025": 0.0
		}
	}
}
