{
	 "smiles": "NCC1=CC(NC(=O)C2CCC2)=CC=C1", 
	 "Tm": 335.15, 
	 "num_atms": 31, 
	 "gaussian": { 
		 "optdone": 1, 
		 "sigma_profile": "yes", 
		 "theory": "DFT", 
		 "functional": "B3LYP", 
		 "basiset": "6-31G**", 
		 "properties": { 
			 "R2extent": 3936.8667, 
			 "electric_dipole_moment_norm": 2.69415094789, 
			 "electric_quadrupole_moment_norm": 14.0636503615, 
			 "total_energy": -651.634903605, 
			 "HOMO_LUMO_gap": 0.20708, 
			 "cosmo_polarized_energy": -14.36, 
			 "cosmo_cavitation_energy": 34.13, 
			 "cosmo_dispersion_energy": -23.33, 
			 "cosmo_repulsion_energy": 1.86, 
			 "cosmo_total_nonelectrostatic_energy": 12.66, 
			 "SMD_solvation_energy": 4.35 
		},
		"coords": [
			{
				"x": 1.5030797206,
				"y": 1.1249747033,
				"z": 3.0121400426,
				"element": "N" 
			},
			{
				"x": 1.6019166378,
				"y": 1.8348476036,
				"z": 1.7265042143,
				"element": "C" 
			},
			{
				"x": 0.3537529186,
				"y": 1.7904971793,
				"z": 0.8601946069,
				"element": "C" 
			},
			{
				"x": 0.1700357954,
				"y": 0.7508000984,
				"z": -0.0598917139,
				"element": "C" 
			},
			{
				"x": -1.0059770981,
				"y": 0.6550800587,
				"z": -0.816572239,
				"element": "C" 
			},
			{
				"x": -1.206950947,
				"y": -0.3706177523,
				"z": -1.7686412985,
				"element": "N" 
			},
			{
				"x": -0.9406943209,
				"y": -1.7290786685,
				"z": -1.7319463714,
				"element": "C" 
			},
			{
				"x": -1.1516828366,
				"y": -2.4039827882,
				"z": -2.7332684058,
				"element": "O" 
			},
			{
				"x": -0.4217330296,
				"y": -2.3521021586,
				"z": -0.4512741691,
				"element": "C" 
			},
			{
				"x": -0.8870269444,
				"y": -3.8105248089,
				"z": -0.1741855383,
				"element": "C" 
			},
			{
				"x": 0.5569923252,
				"y": -4.1619256129,
				"z": 0.2660374729,
				"element": "C" 
			},
			{
				"x": 1.0457877229,
				"y": -2.8933552842,
				"z": -0.4785227688,
				"element": "C" 
			},
			{
				"x": -1.9919908913,
				"y": 1.6436330032,
				"z": -0.6774500195,
				"element": "C" 
			},
			{
				"x": -1.8011471592,
				"y": 2.6970462931,
				"z": 0.2134371585,
				"element": "C" 
			},
			{
				"x": -0.6414026613,
				"y": 2.7680289806,
				"z": 0.9863588075,
				"element": "C" 
			},
			{
				"x": 1.265222979,
				"y": 0.1498515379,
				"z": 2.8403364374,
				"element": "H" 
			},
			{
				"x": 0.7248297369,
				"y": 1.5060531417,
				"z": 3.5470414169,
				"element": "H" 
			},
			{
				"x": 2.4484141086,
				"y": 1.4081445375,
				"z": 1.1764809784,
				"element": "H" 
			},
			{
				"x": 1.8613455786,
				"y": 2.8771903286,
				"z": 1.9430285846,
				"element": "H" 
			},
			{
				"x": 0.9639003337,
				"y": 0.0258758769,
				"z": -0.2124534884,
				"element": "H" 
			},
			{
				"x": -1.664532127,
				"y": -0.1058381718,
				"z": -2.6330258234,
				"element": "H" 
			},
			{
				"x": -0.5875853698,
				"y": -1.7056595992,
				"z": 0.4132949252,
				"element": "H" 
			},
			{
				"x": -1.1580236619,
				"y": -4.2940100098,
				"z": -1.1152715634,
				"element": "H" 
			},
			{
				"x": -1.6945189554,
				"y": -3.9433544297,
				"z": 0.5512912184,
				"element": "H" 
			},
			{
				"x": 0.6898717019,
				"y": -4.0735491671,
				"z": 1.3490513985,
				"element": "H" 
			},
			{
				"x": 0.9653933201,
				"y": -5.1233461924,
				"z": -0.0569132701,
				"element": "H" 
			},
			{
				"x": 1.3479231827,
				"y": -3.1190170664,
				"z": -1.5050147372,
				"element": "H" 
			},
			{
				"x": 1.8187436191,
				"y": -2.2808041191,
				"z": -0.0036661181,
				"element": "H" 
			},
			{
				"x": -2.9030723794,
				"y": 1.5761712081,
				"z": -1.2654138841,
				"element": "H" 
			},
			{
				"x": -2.5652736648,
				"y": 3.4633428418,
				"z": 0.3078848019,
				"element": "H" 
			},
			{
				"x": -0.5003976344,
				"y": 3.593328436,
				"z": 1.680029345,
				"element": "H" 
			}
		],
		 "valence_orbital": [ 
			{
				"type": "occ",
				"energy": -0.29393,
				"method": "rhf"
			},
			{
				"type": "occ",
				"energy": -0.26406,
				"method": "rhf"
			},
			{
				"type": "occ",
				"energy": -0.25074,
				"method": "rhf"
			},
			{
				"type": "occ",
				"energy": -0.24032,
				"method": "rhf"
			},
			{
				"type": "occ",
				"energy": -0.22632,
				"method": "rhf"
			},
			{
				"type": "unocc",
				"energy": -0.01924,
				"method": "rhf"
			},
			{
				"type": "unocc",
				"energy": -0.01491,
				"method": "rhf"
			},
			{
				"type": "unocc",
				"energy": 0.02572,
				"method": "rhf"
			},
			{
				"type": "unocc",
				"energy": 0.06674,
				"method": "rhf"
			},
			{
				"type": "unocc",
				"energy": 0.0868,
				"method": "rhf"
			}
		],
		"cosmo_sigma_profile": { 
			"-0.025": 0.0,
			"-0.024": 0.0,
			"-0.023": 0.0,
			"-0.022": 0.0,
			"-0.021": 0.0,
			"-0.02": 0.0,
			"-0.019": 0.0,
			"-0.018": 0.0,
			"-0.017": 0.0,
			"-0.016": 0.0,
			"-0.015": 0.0,
			"-0.014": 0.56072870674,
			"-0.013": 1.01435235552,
			"-0.012": 1.00133611161,
			"-0.011": 0.987156745714,
			"-0.01": 1.39118188436,
			"-0.009": 2.09742102065,
			"-0.008": 3.298854041,
			"-0.007": 4.85122675386,
			"-0.006": 7.57705721054,
			"-0.005": 15.6505401011,
			"-0.004": 21.3475113822,
			"-0.003": 29.5144738264,
			"-0.002": 29.3042293019,
			"-0.001": 27.0874779701,
			"0.0": 24.1197863807,
			"0.001": 21.4293875122,
			"0.002": 13.3527198929,
			"0.003": 11.8449719146,
			"0.004": 9.29204660655,
			"0.005": 10.0962106582,
			"0.006": 5.49733476794,
			"0.007": 1.80662451563,
			"0.008": 2.54940573979,
			"0.009": 2.00863478446,
			"0.01": 1.49237571358,
			"0.011": 2.91032431107,
			"0.012": 2.12427005256,
			"0.013": 4.58124466507,
			"0.014": 4.84307188859,
			"0.015": 1.01185622463,
			"0.016": 0.673463476067,
			"0.017": 0.863227330219,
			"0.018": 0.220346265618,
			"0.019": 0.804239741588,
			"0.02": 0.309564629421,
			"0.021": 0.0,
			"0.022": 0.0,
			"0.023": 0.0,
			"0.024": 0.0,
			"0.025": 0.0
		}
	}
}
