{
	 "smiles": "NC(=O)C1COC2=C(O1)C=CC=C2", 
	 "Tm": 415.15, 
	 "num_atms": 22, 
	 "gaussian": { 
		 "optdone": 1, 
		 "sigma_profile": "yes", 
		 "theory": "DFT", 
		 "functional": "B3LYP", 
		 "basiset": "6-31G**", 
		 "properties": { 
			 "R2extent": 3898.9724, 
			 "electric_dipole_moment_norm": 2.88337061093, 
			 "electric_quadrupole_moment_norm": 20.2511640144, 
			 "total_energy": -628.803378239, 
			 "HOMO_LUMO_gap": 0.21431, 
			 "cosmo_polarized_energy": -12.62, 
			 "cosmo_cavitation_energy": 25.71, 
			 "cosmo_dispersion_energy": -19.42, 
			 "cosmo_repulsion_energy": 1.54, 
			 "cosmo_total_nonelectrostatic_energy": 7.83, 
			 "SMD_solvation_energy": 5.34 
		},
		"coords": [
			{
				"x": -4.2250613769,
				"y": -2.6711440053,
				"z": -1.3844883987,
				"element": "N" 
			},
			{
				"x": -3.0827033833,
				"y": -3.1893388392,
				"z": -0.8733528204,
				"element": "C" 
			},
			{
				"x": -2.7004993314,
				"y": -4.3401577472,
				"z": -1.0368231351,
				"element": "O" 
			},
			{
				"x": -2.238746798,
				"y": -2.2204268722,
				"z": -0.0409653801,
				"element": "C" 
			},
			{
				"x": -0.8204482763,
				"y": -2.1271153991,
				"z": -0.5990152464,
				"element": "C" 
			},
			{
				"x": -0.0248326469,
				"y": -1.2752469634,
				"z": 0.2210687435,
				"element": "O" 
			},
			{
				"x": -0.6340937121,
				"y": -0.0907595737,
				"z": 0.5520941194,
				"element": "C" 
			},
			{
				"x": -2.0213789716,
				"y": 0.0887759024,
				"z": 0.4282879515,
				"element": "C" 
			},
			{
				"x": -2.8431068533,
				"y": -0.9237296566,
				"z": -0.0243745803,
				"element": "O" 
			},
			{
				"x": -2.6019268641,
				"y": 1.3105009431,
				"z": 0.7675518328,
				"element": "C" 
			},
			{
				"x": -1.8067860687,
				"y": 2.3534690126,
				"z": 1.2401002464,
				"element": "C" 
			},
			{
				"x": -0.4283684528,
				"y": 2.1707841732,
				"z": 1.3835090946,
				"element": "C" 
			},
			{
				"x": 0.155304961,
				"y": 0.953593293,
				"z": 1.0369872224,
				"element": "C" 
			},
			{
				"x": -4.8208692764,
				"y": -3.2670438789,
				"z": -1.9378650279,
				"element": "H" 
			},
			{
				"x": -4.4694119529,
				"y": -1.7081785792,
				"z": -1.2150479413,
				"element": "H" 
			},
			{
				"x": -2.1902256047,
				"y": -2.614231409,
				"z": 0.983702577,
				"element": "H" 
			},
			{
				"x": -0.3526790106,
				"y": -3.1112464345,
				"z": -0.6001230614,
				"element": "H" 
			},
			{
				"x": -0.8537874233,
				"y": -1.7381308186,
				"z": -1.6261349386,
				"element": "H" 
			},
			{
				"x": -3.6766908477,
				"y": 1.4191559293,
				"z": 0.6604108203,
				"element": "H" 
			},
			{
				"x": -2.2650561785,
				"y": 3.301623227,
				"z": 1.5030185471,
				"element": "H" 
			},
			{
				"x": 0.1945644357,
				"y": 2.9771180149,
				"z": 1.7577963663,
				"element": "H" 
			},
			{
				"x": 1.2239036328,
				"y": 0.7873296814,
				"z": 1.1277630089,
				"element": "H" 
			}
		],
		 "valence_orbital": [ 
			{
				"type": "occ",
				"energy": -0.31114,
				"method": "rhf"
			},
			{
				"type": "occ",
				"energy": -0.27614,
				"method": "rhf"
			},
			{
				"type": "occ",
				"energy": -0.25923,
				"method": "rhf"
			},
			{
				"type": "occ",
				"energy": -0.23976,
				"method": "rhf"
			},
			{
				"type": "occ",
				"energy": -0.21738,
				"method": "rhf"
			},
			{
				"type": "unocc",
				"energy": -0.00307,
				"method": "rhf"
			},
			{
				"type": "unocc",
				"energy": 0.00968,
				"method": "rhf"
			},
			{
				"type": "unocc",
				"energy": 0.01981,
				"method": "rhf"
			},
			{
				"type": "unocc",
				"energy": 0.07166,
				"method": "rhf"
			},
			{
				"type": "unocc",
				"energy": 0.08986,
				"method": "rhf"
			}
		],
		"cosmo_sigma_profile": { 
			"-0.025": 0.0,
			"-0.024": 0.0,
			"-0.023": 0.0,
			"-0.022": 0.0,
			"-0.021": 0.0,
			"-0.02": 0.0,
			"-0.019": 0.0,
			"-0.018": 0.0,
			"-0.017": 0.0,
			"-0.016": 0.0,
			"-0.015": 0.194125137986,
			"-0.014": 1.32953200088,
			"-0.013": 1.59975699709,
			"-0.012": 2.20355760573,
			"-0.011": 1.92643711726,
			"-0.01": 2.24545052845,
			"-0.009": 1.62137691534,
			"-0.008": 2.483324568,
			"-0.007": 6.77649657704,
			"-0.006": 13.8018307454,
			"-0.005": 14.048531277,
			"-0.004": 14.3711144999,
			"-0.003": 14.6446716631,
			"-0.002": 10.9747805391,
			"-0.001": 11.0665382467,
			"0.0": 10.7589661077,
			"0.001": 11.0976351491,
			"0.002": 13.3163209577,
			"0.003": 15.3495929121,
			"0.004": 14.3270923799,
			"0.005": 11.6834708937,
			"0.006": 6.95801226546,
			"0.007": 2.02341459928,
			"0.008": 1.98006907696,
			"0.009": 2.41683449375,
			"0.01": 3.1193020645,
			"0.011": 1.42580103119,
			"0.012": 2.04320596409,
			"0.013": 4.83655392732,
			"0.014": 3.57503932161,
			"0.015": 0.192551906744,
			"0.016": 0.0,
			"0.017": 0.0,
			"0.018": 0.0,
			"0.019": 0.0,
			"0.02": 0.0,
			"0.021": 0.0,
			"0.022": 0.0,
			"0.023": 0.0,
			"0.024": 0.0,
			"0.025": 0.0
		}
	}
}
