{
	 "smiles": "CC(CC(O)=O)C(O)=O", 
	 "Tm": 391.15, 
	 "num_atms": 17, 
	 "gaussian": { 
		 "optdone": 1, 
		 "sigma_profile": "yes", 
		 "theory": "DFT", 
		 "functional": "B3LYP", 
		 "basiset": "6-31G**", 
		 "properties": { 
			 "R2extent": 1851.1087, 
			 "electric_dipole_moment_norm": 3.09168320175, 
			 "electric_quadrupole_moment_norm": 15.1440515131, 
			 "total_energy": -496.277640181, 
			 "HOMO_LUMO_gap": 0.27091, 
			 "cosmo_polarized_energy": -17.66, 
			 "cosmo_cavitation_energy": 21.24, 
			 "cosmo_dispersion_energy": -15.36, 
			 "cosmo_repulsion_energy": 1.29, 
			 "cosmo_total_nonelectrostatic_energy": 7.17, 
			 "SMD_solvation_energy": 6.13 
		},
		"coords": [
			{
				"x": -2.0538363612,
				"y": 0.010390709,
				"z": 0.9939941136,
				"element": "C" 
			},
			{
				"x": -1.5084858916,
				"y": 0.9749811944,
				"z": -0.0803538873,
				"element": "C" 
			},
			{
				"x": -0.2823734221,
				"y": 0.4023968684,
				"z": -0.7971275337,
				"element": "C" 
			},
			{
				"x": 0.9523755712,
				"y": 0.3970572582,
				"z": 0.0753574281,
				"element": "C" 
			},
			{
				"x": 1.9666593963,
				"y": -0.2817173835,
				"z": -0.5068841402,
				"element": "O" 
			},
			{
				"x": 1.0648484736,
				"y": 0.9369536161,
				"z": 1.156478797,
				"element": "O" 
			},
			{
				"x": -2.587291457,
				"y": 1.3382245777,
				"z": -1.1026492938,
				"element": "C" 
			},
			{
				"x": -3.6840389845,
				"y": 1.9657374383,
				"z": -0.6000133771,
				"element": "O" 
			},
			{
				"x": -2.5201911643,
				"y": 1.1038472238,
				"z": -2.2842817661,
				"element": "O" 
			},
			{
				"x": -2.9015649573,
				"y": 0.4325130492,
				"z": 1.5439784803,
				"element": "H" 
			},
			{
				"x": -1.2696458865,
				"y": -0.2077520635,
				"z": 1.7219996736,
				"element": "H" 
			},
			{
				"x": -2.3874261309,
				"y": -0.9288951981,
				"z": 0.5409684845,
				"element": "H" 
			},
			{
				"x": -1.2024688171,
				"y": 1.9019109251,
				"z": 0.4239515189,
				"element": "H" 
			},
			{
				"x": -0.4700899903,
				"y": -0.6145066459,
				"z": -1.1575449591,
				"element": "H" 
			},
			{
				"x": -0.0583709325,
				"y": 0.9862036423,
				"z": -1.6965813921,
				"element": "H" 
			},
			{
				"x": 2.7231157752,
				"y": -0.2155405845,
				"z": 0.1001994563,
				"element": "H" 
			},
			{
				"x": -3.5852152209,
				"y": 2.1068953731,
				"z": 0.3521083972,
				"element": "H" 
			}
		],
		 "valence_orbital": [ 
			{
				"type": "occ",
				"energy": -0.36022,
				"method": "rhf"
			},
			{
				"type": "occ",
				"energy": -0.32849,
				"method": "rhf"
			},
			{
				"type": "occ",
				"energy": -0.31898,
				"method": "rhf"
			},
			{
				"type": "occ",
				"energy": -0.28769,
				"method": "rhf"
			},
			{
				"type": "occ",
				"energy": -0.27279,
				"method": "rhf"
			},
			{
				"type": "unocc",
				"energy": -0.00188,
				"method": "rhf"
			},
			{
				"type": "unocc",
				"energy": 0.00732,
				"method": "rhf"
			},
			{
				"type": "unocc",
				"energy": 0.04478,
				"method": "rhf"
			},
			{
				"type": "unocc",
				"energy": 0.07142,
				"method": "rhf"
			},
			{
				"type": "unocc",
				"energy": 0.10726,
				"method": "rhf"
			}
		],
		"cosmo_sigma_profile": { 
			"-0.025": 0.0,
			"-0.024": 0.0,
			"-0.023": 0.0,
			"-0.022": 0.0,
			"-0.021": 0.0,
			"-0.02": 0.0,
			"-0.019": 0.459639693566,
			"-0.018": 1.43433379354,
			"-0.017": 2.27861085407,
			"-0.016": 1.98929087812,
			"-0.015": 1.88893379508,
			"-0.014": 1.41188225804,
			"-0.013": 0.756470785671,
			"-0.012": 2.14938322693,
			"-0.011": 2.57222393837,
			"-0.01": 1.91768454782,
			"-0.009": 1.57280755969,
			"-0.008": 2.36816468218,
			"-0.007": 4.83584323708,
			"-0.006": 8.54911497832,
			"-0.005": 10.622986464,
			"-0.004": 10.2328274873,
			"-0.003": 11.1055763834,
			"-0.002": 11.8838577235,
			"-0.001": 10.2773257846,
			"0.0": 8.4003826663,
			"0.001": 4.41376306878,
			"0.002": 4.75417252295,
			"0.003": 4.47584363377,
			"0.004": 4.8517696621,
			"0.005": 4.66381023955,
			"0.006": 4.61192001237,
			"0.007": 5.31919696578,
			"0.008": 5.06970732246,
			"0.009": 6.25003494944,
			"0.01": 7.39738098106,
			"0.011": 8.67605436106,
			"0.012": 7.94495379379,
			"0.013": 1.26995124391,
			"0.014": 0.0231666514384,
			"0.015": 0.0,
			"0.016": 0.0,
			"0.017": 0.0,
			"0.018": 0.0,
			"0.019": 0.0,
			"0.02": 0.0,
			"0.021": 0.0,
			"0.022": 0.0,
			"0.023": 0.0,
			"0.024": 0.0,
			"0.025": 0.0
		}
	}
}
