{
	 "smiles": "O=C=NC1=CC=CC=C1C#N", 
	 "Tm": 334.65, 
	 "num_atms": 15, 
	 "gaussian": { 
		 "optdone": 1, 
		 "sigma_profile": "yes", 
		 "theory": "DFT", 
		 "functional": "B3LYP", 
		 "basiset": "6-31G**", 
		 "properties": { 
			 "R2extent": 2006.386, 
			 "electric_dipole_moment_norm": 5.44043107208, 
			 "electric_quadrupole_moment_norm": 9.86620898319, 
			 "total_energy": -491.967948804, 
			 "HOMO_LUMO_gap": 0.19461, 
			 "cosmo_polarized_energy": -10.64, 
			 "cosmo_cavitation_energy": 22.33, 
			 "cosmo_dispersion_energy": -15.4, 
			 "cosmo_repulsion_energy": 1.25, 
			 "cosmo_total_nonelectrostatic_energy": 8.18, 
			 "SMD_solvation_energy": 7.7 
		},
		"coords": [
			{
				"x": 2.7839410379,
				"y": 3.4136232894,
				"z": -0.5718901116,
				"element": "O" 
			},
			{
				"x": 2.0715857126,
				"y": 2.4900493845,
				"z": -0.7185310193,
				"element": "C" 
			},
			{
				"x": 1.3132497971,
				"y": 1.5881470624,
				"z": -0.9995914319,
				"element": "N" 
			},
			{
				"x": 0.7707065743,
				"y": 0.4423935457,
				"z": -0.4333710004,
				"element": "C" 
			},
			{
				"x": 1.0795617685,
				"y": 0.0324617616,
				"z": 0.8708765982,
				"element": "C" 
			},
			{
				"x": 0.5101758443,
				"y": -1.1245709663,
				"z": 1.3950101528,
				"element": "C" 
			},
			{
				"x": -0.3745194636,
				"y": -1.8913072652,
				"z": 0.6307520009,
				"element": "C" 
			},
			{
				"x": -0.6884379071,
				"y": -1.4944475989,
				"z": -0.6646798733,
				"element": "C" 
			},
			{
				"x": -0.1227948129,
				"y": -0.3296080573,
				"z": -1.2089623152,
				"element": "C" 
			},
			{
				"x": -0.4543827353,
				"y": 0.0679958394,
				"z": -2.5440707115,
				"element": "C" 
			},
			{
				"x": -0.7432301316,
				"y": 0.3646618855,
				"z": -3.6309419601,
				"element": "N" 
			},
			{
				"x": 1.7664735783,
				"y": 0.6279049367,
				"z": 1.4640588794,
				"element": "H" 
			},
			{
				"x": 0.7597066005,
				"y": -1.4284757172,
				"z": 2.4070116512,
				"element": "H" 
			},
			{
				"x": -0.8159049982,
				"y": -2.7923992854,
				"z": 1.0433210214,
				"element": "H" 
			},
			{
				"x": -1.3726308649,
				"y": -2.0764288147,
				"z": -1.2725918807,
				"element": "H" 
			}
		],
		 "valence_orbital": [ 
			{
				"type": "occ",
				"energy": -0.34708,
				"method": "rhf"
			},
			{
				"type": "occ",
				"energy": -0.3358,
				"method": "rhf"
			},
			{
				"type": "occ",
				"energy": -0.32451,
				"method": "rhf"
			},
			{
				"type": "occ",
				"energy": -0.27974,
				"method": "rhf"
			},
			{
				"type": "occ",
				"energy": -0.25767,
				"method": "rhf"
			},
			{
				"type": "unocc",
				"energy": -0.06306,
				"method": "rhf"
			},
			{
				"type": "unocc",
				"energy": -0.04447,
				"method": "rhf"
			},
			{
				"type": "unocc",
				"energy": -0.00664,
				"method": "rhf"
			},
			{
				"type": "unocc",
				"energy": 0.03413,
				"method": "rhf"
			},
			{
				"type": "unocc",
				"energy": 0.05667,
				"method": "rhf"
			}
		],
		"cosmo_sigma_profile": { 
			"-0.025": 0.0,
			"-0.024": 0.0,
			"-0.023": 0.0,
			"-0.022": 0.0,
			"-0.021": 0.0,
			"-0.02": 0.0,
			"-0.019": 0.0,
			"-0.018": 0.0,
			"-0.017": 0.0,
			"-0.016": 0.0,
			"-0.015": 0.0,
			"-0.014": 0.0,
			"-0.013": 0.0,
			"-0.012": 0.0,
			"-0.011": 0.0,
			"-0.01": 0.177511921986,
			"-0.009": 2.6541671532,
			"-0.008": 6.27659494839,
			"-0.007": 10.7194760038,
			"-0.006": 11.2208830698,
			"-0.005": 9.43787397365,
			"-0.004": 10.3226437817,
			"-0.003": 12.1221022235,
			"-0.002": 12.0699506707,
			"-0.001": 16.09825863,
			"0.0": 13.0051377975,
			"0.001": 14.9549176521,
			"0.002": 13.9239428818,
			"0.003": 6.27673205601,
			"0.004": 4.7978940064,
			"0.005": 6.04987277844,
			"0.006": 7.71059316887,
			"0.007": 8.98458601388,
			"0.008": 3.22317795781,
			"0.009": 3.63247820485,
			"0.01": 2.86235860245,
			"0.011": 2.85067661125,
			"0.012": 2.33916363167,
			"0.013": 1.12468660032,
			"0.014": 0.0,
			"0.015": 0.0,
			"0.016": 0.0,
			"0.017": 0.0,
			"0.018": 0.0,
			"0.019": 0.0,
			"0.02": 0.0,
			"0.021": 0.0,
			"0.022": 0.0,
			"0.023": 0.0,
			"0.024": 0.0,
			"0.025": 0.0
		}
	}
}
