{
	 "smiles": "NC(CC1=CC=C(F)C=C1)C(O)=O", 
	 "Tm": 526.15, 
	 "num_atms": 23, 
	 "gaussian": { 
		 "optdone": 1, 
		 "sigma_profile": "yes", 
		 "theory": "DFT", 
		 "functional": "B3LYP", 
		 "basiset": "6-31G**", 
		 "properties": { 
			 "R2extent": 2854.3781, 
			 "electric_dipole_moment_norm": 2.35129722919, 
			 "electric_quadrupole_moment_norm": 14.6735190725, 
			 "total_energy": -654.030182658, 
			 "HOMO_LUMO_gap": 0.2174, 
			 "cosmo_polarized_energy": -14.32, 
			 "cosmo_cavitation_energy": 27.61, 
			 "cosmo_dispersion_energy": -19.07, 
			 "cosmo_repulsion_energy": 1.5, 
			 "cosmo_total_nonelectrostatic_energy": 10.04, 
			 "SMD_solvation_energy": 4.86 
		},
		"coords": [
			{
				"x": 1.3660444679,
				"y": 1.620317229,
				"z": -0.6813949255,
				"element": "N" 
			},
			{
				"x": 0.7781116425,
				"y": 0.4788978223,
				"z": -1.3600856111,
				"element": "C" 
			},
			{
				"x": 1.0840250088,
				"y": -0.9320027671,
				"z": -0.7483691463,
				"element": "C" 
			},
			{
				"x": 0.5760143367,
				"y": -1.1361449027,
				"z": 0.6603420465,
				"element": "C" 
			},
			{
				"x": -0.6924522049,
				"y": -1.689113676,
				"z": 0.8920786374,
				"element": "C" 
			},
			{
				"x": -1.1864938048,
				"y": -1.8576537975,
				"z": 2.1848513092,
				"element": "C" 
			},
			{
				"x": -0.3949427503,
				"y": -1.4635435467,
				"z": 3.2574142649,
				"element": "C" 
			},
			{
				"x": -0.8623355363,
				"y": -1.6268948421,
				"z": 4.5130150782,
				"element": "F" 
			},
			{
				"x": 0.8682594991,
				"y": -0.9148200364,
				"z": 3.0726915732,
				"element": "C" 
			},
			{
				"x": 1.3442968622,
				"y": -0.7564924437,
				"z": 1.7707834821,
				"element": "C" 
			},
			{
				"x": -0.7265959327,
				"y": 0.6929047994,
				"z": -1.4296894573,
				"element": "C" 
			},
			{
				"x": -1.3068768802,
				"y": -0.1166841534,
				"z": -2.350025536,
				"element": "O" 
			},
			{
				"x": -1.3607287074,
				"y": 1.4539813868,
				"z": -0.7353424716,
				"element": "O" 
			},
			{
				"x": 0.8384884562,
				"y": 1.8289380508,
				"z": 0.1618811808,
				"element": "H" 
			},
			{
				"x": 2.3282218099,
				"y": 1.4278348999,
				"z": -0.4205371878,
				"element": "H" 
			},
			{
				"x": 1.1450401403,
				"y": 0.4490747967,
				"z": -2.3943605916,
				"element": "H" 
			},
			{
				"x": 2.1734307623,
				"y": -1.0555812731,
				"z": -0.7748956822,
				"element": "H" 
			},
			{
				"x": 0.6642345742,
				"y": -1.6922177612,
				"z": -1.4155153344,
				"element": "H" 
			},
			{
				"x": -1.3026981289,
				"y": -1.9956750118,
				"z": 0.0467263557,
				"element": "H" 
			},
			{
				"x": -2.1646065374,
				"y": -2.2882806772,
				"z": 2.369980388,
				"element": "H" 
			},
			{
				"x": 1.4599552663,
				"y": -0.6279784316,
				"z": 3.9353191047,
				"element": "H" 
			},
			{
				"x": 2.3372184083,
				"y": -0.341603363,
				"z": 1.6196838565,
				"element": "H" 
			},
			{
				"x": -2.2606107519,
				"y": 0.0661376988,
				"z": -2.3052513335,
				"element": "H" 
			}
		],
		 "valence_orbital": [ 
			{
				"type": "occ",
				"energy": -0.32419,
				"method": "rhf"
			},
			{
				"type": "occ",
				"energy": -0.28047,
				"method": "rhf"
			},
			{
				"type": "occ",
				"energy": -0.26358,
				"method": "rhf"
			},
			{
				"type": "occ",
				"energy": -0.24789,
				"method": "rhf"
			},
			{
				"type": "occ",
				"energy": -0.23371,
				"method": "rhf"
			},
			{
				"type": "unocc",
				"energy": -0.01631,
				"method": "rhf"
			},
			{
				"type": "unocc",
				"energy": -0.00473,
				"method": "rhf"
			},
			{
				"type": "unocc",
				"energy": 0.00757,
				"method": "rhf"
			},
			{
				"type": "unocc",
				"energy": 0.06611,
				"method": "rhf"
			},
			{
				"type": "unocc",
				"energy": 0.07375,
				"method": "rhf"
			}
		],
		"cosmo_sigma_profile": { 
			"-0.025": 0.0,
			"-0.024": 0.0,
			"-0.023": 0.0,
			"-0.022": 0.0,
			"-0.021": 0.0,
			"-0.02": 0.0,
			"-0.019": 0.111936228175,
			"-0.018": 0.797954351732,
			"-0.017": 0.876839087944,
			"-0.016": 1.00126337304,
			"-0.015": 0.65617552485,
			"-0.014": 0.725194162119,
			"-0.013": 0.370962154977,
			"-0.012": 0.550381653972,
			"-0.011": 0.976694036129,
			"-0.01": 2.11367871594,
			"-0.009": 2.49710562259,
			"-0.008": 3.37495438458,
			"-0.007": 7.83131421336,
			"-0.006": 12.1509548475,
			"-0.005": 13.8542000897,
			"-0.004": 18.1570795862,
			"-0.003": 15.1070665772,
			"-0.002": 13.2459052503,
			"-0.001": 10.599386983,
			"0.0": 11.1370604041,
			"0.001": 14.5832823048,
			"0.002": 12.1553343041,
			"0.003": 13.2676268794,
			"0.004": 20.8347323018,
			"0.005": 12.144507705,
			"0.006": 3.16017818679,
			"0.007": 2.90817586625,
			"0.008": 3.5260075329,
			"0.009": 3.80092957778,
			"0.01": 3.09202781714,
			"0.011": 5.5703479868,
			"0.012": 2.61422968292,
			"0.013": 1.12756355555,
			"0.014": 0.448500424668,
			"0.015": 0.762922346373,
			"0.016": 0.511540139346,
			"0.017": 0.346118610702,
			"0.018": 0.8705243986,
			"0.019": 0.0546814618801,
			"0.02": 0.0,
			"0.021": 0.0,
			"0.022": 0.0,
			"0.023": 0.0,
			"0.024": 0.0,
			"0.025": 0.0
		}
	}
}
