{
	 "smiles": "CC1=CC(N2CCCC(Br)C2=O)=C(F)C=C1", 
	 "Tm": 348.15, 
	 "num_atms": 29, 
	 "gaussian": { 
		 "optdone": 1, 
		 "sigma_profile": "yes", 
		 "theory": "DFT", 
		 "functional": "B3LYP", 
		 "basiset": "6-31G**", 
		 "properties": { 
			 "R2extent": 6304.7528, 
			 "electric_dipole_moment_norm": 4.34752919369, 
			 "electric_quadrupole_moment_norm": 20.2282686763, 
			 "total_energy": -3266.34706851, 
			 "HOMO_LUMO_gap": 0.19535, 
			 "cosmo_polarized_energy": -12.7, 
			 "cosmo_cavitation_energy": 33.83, 
			 "cosmo_dispersion_energy": -24.27, 
			 "cosmo_repulsion_energy": 1.89, 
			 "cosmo_total_nonelectrostatic_energy": 11.45, 
			 "SMD_solvation_energy": 4.98 
		},
		"coords": [
			{
				"x": -1.8020117851,
				"y": 4.2262137119,
				"z": 1.9171422637,
				"element": "C" 
			},
			{
				"x": -1.1921689483,
				"y": 2.8440169087,
				"z": 1.8836675086,
				"element": "C" 
			},
			{
				"x": -1.3267709178,
				"y": 2.0357018412,
				"z": 0.7494542648,
				"element": "C" 
			},
			{
				"x": -0.8079826226,
				"y": 0.7375689995,
				"z": 0.7068104314,
				"element": "C" 
			},
			{
				"x": -0.9167200509,
				"y": -0.0928634814,
				"z": -0.4531131974,
				"element": "N" 
			},
			{
				"x": 0.3624120897,
				"y": -0.4358503314,
				"z": -1.1166801956,
				"element": "C" 
			},
			{
				"x": 0.2253345462,
				"y": -1.559590785,
				"z": -2.1382567011,
				"element": "C" 
			},
			{
				"x": -0.9646469057,
				"y": -1.2973548595,
				"z": -3.057714233,
				"element": "C" 
			},
			{
				"x": -2.2422344336,
				"y": -1.2049775136,
				"z": -2.2372414281,
				"element": "C" 
			},
			{
				"x": -2.7909140386,
				"y": -3.0245567403,
				"z": -1.6013951879,
				"element": "Br" 
			},
			{
				"x": -2.1679677127,
				"y": -0.3015598954,
				"z": -1.0027573216,
				"element": "C" 
			},
			{
				"x": -3.1905525542,
				"y": 0.18550995,
				"z": -0.5448694475,
				"element": "O" 
			},
			{
				"x": -0.1397367863,
				"y": 0.2614508895,
				"z": 1.8391586682,
				"element": "C" 
			},
			{
				"x": 0.373725377,
				"y": -0.9908784748,
				"z": 1.8244203378,
				"element": "F" 
			},
			{
				"x": 0.0303070677,
				"y": 1.0438500645,
				"z": 2.9718998376,
				"element": "C" 
			},
			{
				"x": -0.5011621555,
				"y": 2.3325054681,
				"z": 2.9900541394,
				"element": "C" 
			},
			{
				"x": -1.2792205348,
				"y": 4.8765721907,
				"z": 2.6246064178,
				"element": "H" 
			},
			{
				"x": -1.7703221105,
				"y": 4.7026800828,
				"z": 0.9326002472,
				"element": "H" 
			},
			{
				"x": -2.8544172004,
				"y": 4.1859105622,
				"z": 2.2236245151,
				"element": "H" 
			},
			{
				"x": -1.8621498671,
				"y": 2.4057350739,
				"z": -0.1175675464,
				"element": "H" 
			},
			{
				"x": 0.7516630145,
				"y": 0.4706421516,
				"z": -1.6037693904,
				"element": "H" 
			},
			{
				"x": 1.073102395,
				"y": -0.722110852,
				"z": -0.3397069343,
				"element": "H" 
			},
			{
				"x": 0.0847479938,
				"y": -2.5170894789,
				"z": -1.6268148107,
				"element": "H" 
			},
			{
				"x": 1.1563072313,
				"y": -1.6254257059,
				"z": -2.7105019433,
				"element": "H" 
			},
			{
				"x": -0.8326193189,
				"y": -0.3352342642,
				"z": -3.5754475717,
				"element": "H" 
			},
			{
				"x": -1.0638696822,
				"y": -2.0659616727,
				"z": -3.8288655823,
				"element": "H" 
			},
			{
				"x": -3.1030422204,
				"y": -0.877861638,
				"z": -2.8168731787,
				"element": "H" 
			},
			{
				"x": 0.565322699,
				"y": 0.6323598586,
				"z": 3.8209755456,
				"element": "H" 
			},
			{
				"x": -0.3764125687,
				"y": 2.9464979398,
				"z": 3.877760493,
				"element": "H" 
			}
		],
		 "valence_orbital": [ 
			{
				"type": "occ",
				"energy": -0.27871,
				"method": "rhf"
			},
			{
				"type": "occ",
				"energy": -0.26981,
				"method": "rhf"
			},
			{
				"type": "occ",
				"energy": -0.25545,
				"method": "rhf"
			},
			{
				"type": "occ",
				"energy": -0.24121,
				"method": "rhf"
			},
			{
				"type": "occ",
				"energy": -0.23245,
				"method": "rhf"
			},
			{
				"type": "unocc",
				"energy": -0.0371,
				"method": "rhf"
			},
			{
				"type": "unocc",
				"energy": -0.01135,
				"method": "rhf"
			},
			{
				"type": "unocc",
				"energy": 0.00026,
				"method": "rhf"
			},
			{
				"type": "unocc",
				"energy": 0.05043,
				"method": "rhf"
			},
			{
				"type": "unocc",
				"energy": 0.07555,
				"method": "rhf"
			}
		],
		"cosmo_sigma_profile": { 
			"-0.025": 0.0,
			"-0.024": 0.0,
			"-0.023": 0.0,
			"-0.022": 0.0,
			"-0.021": 0.0,
			"-0.02": 0.0,
			"-0.019": 0.0,
			"-0.018": 0.0,
			"-0.017": 0.0,
			"-0.016": 0.0,
			"-0.015": 0.0,
			"-0.014": 0.0,
			"-0.013": 0.0,
			"-0.012": 0.0,
			"-0.011": 0.0,
			"-0.01": 0.0,
			"-0.009": 0.0612548222659,
			"-0.008": 2.14396064618,
			"-0.007": 5.68169048562,
			"-0.006": 9.72528079126,
			"-0.005": 21.8295378591,
			"-0.004": 29.8541550177,
			"-0.003": 26.8142508367,
			"-0.002": 23.2296060846,
			"-0.001": 22.0906548294,
			"0.0": 18.9725951378,
			"0.001": 18.2862426701,
			"0.002": 15.1280111244,
			"0.003": 16.892907554,
			"0.004": 22.2867126459,
			"0.005": 12.5763123924,
			"0.006": 6.49334342963,
			"0.007": 2.18748873803,
			"0.008": 1.79208025425,
			"0.009": 1.67376638419,
			"0.01": 1.87380731396,
			"0.011": 2.27486813136,
			"0.012": 2.57769915302,
			"0.013": 4.8554860555,
			"0.014": 1.41233238686,
			"0.015": 0.0,
			"0.016": 0.0,
			"0.017": 0.0,
			"0.018": 0.0,
			"0.019": 0.0,
			"0.02": 0.0,
			"0.021": 0.0,
			"0.022": 0.0,
			"0.023": 0.0,
			"0.024": 0.0,
			"0.025": 0.0
		}
	}
}
