{
	 "smiles": "CC(C)(C)C1=NNC=C1C=O", 
	 "Tm": 405.15, 
	 "num_atms": 23, 
	 "gaussian": { 
		 "optdone": 1, 
		 "sigma_profile": "yes", 
		 "theory": "DFT", 
		 "functional": "B3LYP", 
		 "basiset": "6-31G**", 
		 "properties": { 
			 "R2extent": 2081.3247, 
			 "electric_dipole_moment_norm": 2.50627830458, 
			 "electric_quadrupole_moment_norm": 17.9818128961, 
			 "total_energy": -496.792112309, 
			 "HOMO_LUMO_gap": 0.20323, 
			 "cosmo_polarized_energy": -12.47, 
			 "cosmo_cavitation_energy": 25.49, 
			 "cosmo_dispersion_energy": -18.22, 
			 "cosmo_repulsion_energy": 1.46, 
			 "cosmo_total_nonelectrostatic_energy": 8.74, 
			 "SMD_solvation_energy": 5.2 
		},
		"coords": [
			{
				"x": -2.0041086888,
				"y": 0.1260153006,
				"z": -0.2434670054,
				"element": "C" 
			},
			{
				"x": -0.7289987538,
				"y": 0.0184438094,
				"z": -1.1023404168,
				"element": "C" 
			},
			{
				"x": -0.7333635026,
				"y": 1.1659560875,
				"z": -2.1400386089,
				"element": "C" 
			},
			{
				"x": -0.7362278362,
				"y": -1.3470065907,
				"z": -1.8296975846,
				"element": "C" 
			},
			{
				"x": 0.5089557752,
				"y": 0.1257911747,
				"z": -0.2215732774,
				"element": "C" 
			},
			{
				"x": 0.3764224787,
				"y": 0.2884528529,
				"z": 1.0923840667,
				"element": "N" 
			},
			{
				"x": 1.6452394611,
				"y": 0.34642378,
				"z": 1.5751785904,
				"element": "N" 
			},
			{
				"x": 2.5835174965,
				"y": 0.2273341807,
				"z": 0.6221457455,
				"element": "C" 
			},
			{
				"x": 1.9020003725,
				"y": 0.0794064116,
				"z": -0.5815123855,
				"element": "C" 
			},
			{
				"x": 2.585292914,
				"y": -0.0802287578,
				"z": -1.8647145859,
				"element": "C" 
			},
			{
				"x": 3.8006346543,
				"y": -0.0967267667,
				"z": -1.9847109376,
				"element": "O" 
			},
			{
				"x": -2.049302789,
				"y": -0.6696472814,
				"z": 0.5046636895,
				"element": "H" 
			},
			{
				"x": -2.0475368072,
				"y": 1.0801430694,
				"z": 0.2881133026,
				"element": "H" 
			},
			{
				"x": -2.8864128949,
				"y": 0.0472190633,
				"z": -0.8874504142,
				"element": "H" 
			},
			{
				"x": -1.6316735262,
				"y": 1.1037392725,
				"z": -2.7639042359,
				"element": "H" 
			},
			{
				"x": 0.1349994311,
				"y": 1.127337461,
				"z": -2.804128157,
				"element": "H" 
			},
			{
				"x": -0.7331406961,
				"y": 2.1413211402,
				"z": -1.643074237,
				"element": "H" 
			},
			{
				"x": -1.6342637455,
				"y": -1.4362029609,
				"z": -2.4506831735,
				"element": "H" 
			},
			{
				"x": 0.1323550204,
				"y": -1.4731965038,
				"z": -2.4825214265,
				"element": "H" 
			},
			{
				"x": -0.7386022538,
				"y": -2.1721716007,
				"z": -1.1103902531,
				"element": "H" 
			},
			{
				"x": 1.7808601182,
				"y": 0.4688261711,
				"z": 2.5671527252,
				"element": "H" 
			},
			{
				"x": 3.6443802712,
				"y": 0.2506163662,
				"z": 0.8222692208,
				"element": "H" 
			},
			{
				"x": 1.9356735007,
				"y": -0.1896456791,
				"z": -2.7565006415,
				"element": "H" 
			}
		],
		 "valence_orbital": [ 
			{
				"type": "occ",
				"energy": -0.33025,
				"method": "rhf"
			},
			{
				"type": "occ",
				"energy": -0.29961,
				"method": "rhf"
			},
			{
				"type": "occ",
				"energy": -0.26465,
				"method": "rhf"
			},
			{
				"type": "occ",
				"energy": -0.25657,
				"method": "rhf"
			},
			{
				"type": "occ",
				"energy": -0.24641,
				"method": "rhf"
			},
			{
				"type": "unocc",
				"energy": -0.04318,
				"method": "rhf"
			},
			{
				"type": "unocc",
				"energy": 0.01388,
				"method": "rhf"
			},
			{
				"type": "unocc",
				"energy": 0.06809,
				"method": "rhf"
			},
			{
				"type": "unocc",
				"energy": 0.08368,
				"method": "rhf"
			},
			{
				"type": "unocc",
				"energy": 0.10094,
				"method": "rhf"
			}
		],
		"cosmo_sigma_profile": { 
			"-0.025": 0.0,
			"-0.024": 0.0,
			"-0.023": 0.0,
			"-0.022": 0.0,
			"-0.021": 0.0,
			"-0.02": 0.0,
			"-0.019": 0.0,
			"-0.018": 0.283525698796,
			"-0.017": 1.64200959011,
			"-0.016": 1.77090785421,
			"-0.015": 0.725712676471,
			"-0.014": 1.0470122433,
			"-0.013": 0.860422054776,
			"-0.012": 1.79338849756,
			"-0.011": 0.751487623502,
			"-0.01": 2.13636547321,
			"-0.009": 2.82967622119,
			"-0.008": 1.84719951215,
			"-0.007": 2.00963237411,
			"-0.006": 6.48021834215,
			"-0.005": 4.76304145012,
			"-0.004": 6.1290328594,
			"-0.003": 16.5679673977,
			"-0.002": 21.9743556911,
			"-0.001": 18.8355716765,
			"0.0": 23.4568843553,
			"0.001": 26.1993274381,
			"0.002": 15.1855866198,
			"0.003": 5.37668437061,
			"0.004": 4.20552333855,
			"0.005": 4.21294162538,
			"0.006": 2.79093417125,
			"0.007": 3.00206130017,
			"0.008": 2.83640092396,
			"0.009": 3.41962204936,
			"0.01": 3.10310144428,
			"0.011": 3.64578578657,
			"0.012": 5.69028484062,
			"0.013": 3.51970077929,
			"0.014": 0.946469514123,
			"0.015": 0.190356782174,
			"0.016": 0.0,
			"0.017": 0.0,
			"0.018": 0.0,
			"0.019": 0.0,
			"0.02": 0.0,
			"0.021": 0.0,
			"0.022": 0.0,
			"0.023": 0.0,
			"0.024": 0.0,
			"0.025": 0.0
		}
	}
}
