{
	 "smiles": "CC1=CC=C(C=C1)S(=O)(=O)OCC#N", 
	 "Tm": 323.65, 
	 "num_atms": 23, 
	 "gaussian": { 
		 "optdone": 1, 
		 "sigma_profile": "yes", 
		 "theory": "DFT", 
		 "functional": "B3LYP", 
		 "basiset": "6-31G**", 
		 "properties": { 
			 "R2extent": 4077.1332, 
			 "electric_dipole_moment_norm": 4.90938259357, 
			 "electric_quadrupole_moment_norm": 16.4726094202, 
			 "total_energy": -1026.89398353, 
			 "HOMO_LUMO_gap": 0.221, 
			 "cosmo_polarized_energy": -14.4, 
			 "cosmo_cavitation_energy": 30.38, 
			 "cosmo_dispersion_energy": -21.75, 
			 "cosmo_repulsion_energy": 1.68, 
			 "cosmo_total_nonelectrostatic_energy": 10.31, 
			 "SMD_solvation_energy": 6.08 
		},
		"coords": [
			{
				"x": -3.7181269651,
				"y": 1.7070315068,
				"z": 0.4906817959,
				"element": "C" 
			},
			{
				"x": -2.5287067108,
				"y": 0.8020137663,
				"z": 0.2831062222,
				"element": "C" 
			},
			{
				"x": -2.0925367722,
				"y": 0.479203916,
				"z": -1.0110027317,
				"element": "C" 
			},
			{
				"x": -1.0144041498,
				"y": -0.3774558882,
				"z": -1.2154098414,
				"element": "C" 
			},
			{
				"x": -0.3639167211,
				"y": -0.9126727908,
				"z": -0.1021379882,
				"element": "C" 
			},
			{
				"x": -0.7736183151,
				"y": -0.6159870258,
				"z": 1.1989244678,
				"element": "C" 
			},
			{
				"x": -1.854278093,
				"y": 0.2431065483,
				"z": 1.3792447521,
				"element": "C" 
			},
			{
				"x": 1.0107934007,
				"y": -2.0068097892,
				"z": -0.3473219751,
				"element": "S" 
			},
			{
				"x": 0.9630018035,
				"y": -2.6012766289,
				"z": -1.6817829038,
				"element": "O" 
			},
			{
				"x": 1.215445511,
				"y": -2.8471275605,
				"z": 0.8309943497,
				"element": "O" 
			},
			{
				"x": 2.2112090938,
				"y": -0.8504951392,
				"z": -0.3548809834,
				"element": "O" 
			},
			{
				"x": 3.5314527761,
				"y": -1.3993669571,
				"z": -0.5413357348,
				"element": "C" 
			},
			{
				"x": 4.480708937,
				"y": -0.2860818301,
				"z": -0.5299971426,
				"element": "C" 
			},
			{
				"x": 5.2533841584,
				"y": 0.5783794234,
				"z": -0.5247728475,
				"element": "N" 
			},
			{
				"x": -3.8095436697,
				"y": 2.4392604133,
				"z": -0.3164332219,
				"element": "H" 
			},
			{
				"x": -4.6487173438,
				"y": 1.1264822804,
				"z": 0.5121086344,
				"element": "H" 
			},
			{
				"x": -3.6491959005,
				"y": 2.2478412749,
				"z": 1.4385931447,
				"element": "H" 
			},
			{
				"x": -2.6053012404,
				"y": 0.9034247465,
				"z": -1.8697395496,
				"element": "H" 
			},
			{
				"x": -0.6829545534,
				"y": -0.6350997593,
				"z": -2.2151477249,
				"element": "H" 
			},
			{
				"x": -0.2580169924,
				"y": -1.0559669295,
				"z": 2.0452586842,
				"element": "H" 
			},
			{
				"x": -2.1809192894,
				"y": 0.4828843259,
				"z": 2.3872607346,
				"element": "H" 
			},
			{
				"x": 3.5922481197,
				"y": -1.9275545284,
				"z": -1.4999286405,
				"element": "H" 
			},
			{
				"x": 3.7710929164,
				"y": -2.0981333748,
				"z": 0.2685185001,
				"element": "H" 
			}
		],
		 "valence_orbital": [ 
			{
				"type": "occ",
				"energy": -0.3336,
				"method": "rhf"
			},
			{
				"type": "occ",
				"energy": -0.33143,
				"method": "rhf"
			},
			{
				"type": "occ",
				"energy": -0.30533,
				"method": "rhf"
			},
			{
				"type": "occ",
				"energy": -0.28166,
				"method": "rhf"
			},
			{
				"type": "occ",
				"energy": -0.27749,
				"method": "rhf"
			},
			{
				"type": "unocc",
				"energy": -0.05649,
				"method": "rhf"
			},
			{
				"type": "unocc",
				"energy": -0.03169,
				"method": "rhf"
			},
			{
				"type": "unocc",
				"energy": -0.00947,
				"method": "rhf"
			},
			{
				"type": "unocc",
				"energy": 0.02468,
				"method": "rhf"
			},
			{
				"type": "unocc",
				"energy": 0.05225,
				"method": "rhf"
			}
		],
		"cosmo_sigma_profile": { 
			"-0.025": 0.0,
			"-0.024": 0.0,
			"-0.023": 0.0,
			"-0.022": 0.0,
			"-0.021": 0.0,
			"-0.02": 0.0,
			"-0.019": 0.0,
			"-0.018": 0.0,
			"-0.017": 0.0,
			"-0.016": 0.0,
			"-0.015": 0.0,
			"-0.014": 0.0,
			"-0.013": 0.0,
			"-0.012": 0.0673139915029,
			"-0.011": 3.25052033884,
			"-0.01": 4.93739677291,
			"-0.009": 4.63176563336,
			"-0.008": 4.45698529322,
			"-0.007": 8.98169922295,
			"-0.006": 12.0743457866,
			"-0.005": 16.6490282148,
			"-0.004": 15.4981738838,
			"-0.003": 13.5054893406,
			"-0.002": 17.347215779,
			"-0.001": 19.0186539559,
			"0.0": 17.7747663979,
			"0.001": 15.4820593573,
			"0.002": 20.1127823968,
			"0.003": 11.0788643132,
			"0.004": 6.65114694853,
			"0.005": 6.72798220791,
			"0.006": 7.33347944454,
			"0.007": 6.48241195197,
			"0.008": 6.95405024819,
			"0.009": 11.9464104065,
			"0.01": 9.02298771998,
			"0.011": 2.68840603427,
			"0.012": 1.25975695544,
			"0.013": 0.0057384269975,
			"0.014": 0.0,
			"0.015": 0.0,
			"0.016": 0.0,
			"0.017": 0.0,
			"0.018": 0.0,
			"0.019": 0.0,
			"0.02": 0.0,
			"0.021": 0.0,
			"0.022": 0.0,
			"0.023": 0.0,
			"0.024": 0.0,
			"0.025": 0.0
		}
	}
}
