{
	 "smiles": "CCOC(=O)C1=C(N)N(CCO)C2=C1N=C1C=CC=CC1=N2", 
	 "Tm": 500.15, 
	 "num_atms": 38, 
	 "gaussian": { 
		 "optdone": 1, 
		 "sigma_profile": "yes", 
		 "theory": "DFT", 
		 "functional": "B3LYP", 
		 "basiset": "6-31G**", 
		 "properties": { 
			 "R2extent": 8514.8135, 
			 "electric_dipole_moment_norm": 7.43888484519, 
			 "electric_quadrupole_moment_norm": 12.4378613708, 
			 "total_energy": -1025.95344855, 
			 "HOMO_LUMO_gap": 0.14732, 
			 "cosmo_polarized_energy": -24.24, 
			 "cosmo_cavitation_energy": 41.56, 
			 "cosmo_dispersion_energy": -30.16, 
			 "cosmo_repulsion_energy": 2.32, 
			 "cosmo_total_nonelectrostatic_energy": 13.72, 
			 "SMD_solvation_energy": 4.7 
		},
		"coords": [
			{
				"x": -4.4483678996,
				"y": -0.6014768319,
				"z": -2.2706228431,
				"element": "C" 
			},
			{
				"x": -3.2766798679,
				"y": 0.3283388134,
				"z": -2.5291135505,
				"element": "C" 
			},
			{
				"x": -2.2684717645,
				"y": 0.0511036312,
				"z": -1.5361780658,
				"element": "O" 
			},
			{
				"x": -1.1277344346,
				"y": 0.8322754971,
				"z": -1.6229551336,
				"element": "C" 
			},
			{
				"x": -1.005419954,
				"y": 1.6824561421,
				"z": -2.480678096,
				"element": "O" 
			},
			{
				"x": -0.1600981733,
				"y": 0.4970036089,
				"z": -0.5925858464,
				"element": "C" 
			},
			{
				"x": -0.2721666612,
				"y": -0.5063277612,
				"z": 0.386699023,
				"element": "C" 
			},
			{
				"x": -1.3077834984,
				"y": -1.3301477936,
				"z": 0.6625124745,
				"element": "N" 
			},
			{
				"x": 0.8772431271,
				"y": -0.56258246,
				"z": 1.161279494,
				"element": "N" 
			},
			{
				"x": 1.0795760285,
				"y": -1.3109284137,
				"z": 2.3952275063,
				"element": "C" 
			},
			{
				"x": 1.4524992186,
				"y": -2.774350314,
				"z": 2.1921084248,
				"element": "C" 
			},
			{
				"x": 0.2913226914,
				"y": -3.4832902987,
				"z": 1.7511046502,
				"element": "O" 
			},
			{
				"x": 1.7579084915,
				"y": 0.4157881765,
				"z": 0.7065411668,
				"element": "C" 
			},
			{
				"x": 1.1360312446,
				"y": 1.1029194156,
				"z": -0.4029598958,
				"element": "C" 
			},
			{
				"x": 1.7611208646,
				"y": 2.0794975087,
				"z": -1.0274825376,
				"element": "N" 
			},
			{
				"x": 3.0059741895,
				"y": 2.3808705895,
				"z": -0.5416111755,
				"element": "C" 
			},
			{
				"x": 3.743358871,
				"y": 3.4226739326,
				"z": -1.1609564444,
				"element": "C" 
			},
			{
				"x": 4.9970020281,
				"y": 3.7660651211,
				"z": -0.7021868175,
				"element": "C" 
			},
			{
				"x": 5.5712671566,
				"y": 3.0836150599,
				"z": 0.397123491,
				"element": "C" 
			},
			{
				"x": 4.8827807622,
				"y": 2.0650739549,
				"z": 1.0225379535,
				"element": "C" 
			},
			{
				"x": 3.5947590786,
				"y": 1.6901603603,
				"z": 0.5727834605,
				"element": "C" 
			},
			{
				"x": 2.9308410339,
				"y": 0.6666964671,
				"z": 1.2090572662,
				"element": "N" 
			},
			{
				"x": -5.2389298255,
				"y": -0.4179257367,
				"z": -3.004983668,
				"element": "H" 
			},
			{
				"x": -4.1455053687,
				"y": -1.6502170459,
				"z": -2.3536581669,
				"element": "H" 
			},
			{
				"x": -4.8667230725,
				"y": -0.4388768265,
				"z": -1.2724243184,
				"element": "H" 
			},
			{
				"x": -3.5677247614,
				"y": 1.3808063203,
				"z": -2.4564106321,
				"element": "H" 
			},
			{
				"x": -2.848538947,
				"y": 0.1781531983,
				"z": -3.5253200623,
				"element": "H" 
			},
			{
				"x": -2.0600498098,
				"y": -1.2814962887,
				"z": -0.0121395953,
				"element": "H" 
			},
			{
				"x": -1.0734524928,
				"y": -2.2335271676,
				"z": 1.0646938863,
				"element": "H" 
			},
			{
				"x": 1.8948803068,
				"y": -0.8083168869,
				"z": 2.9220113368,
				"element": "H" 
			},
			{
				"x": 0.1742379471,
				"y": -1.2483567744,
				"z": 3.0098616032,
				"element": "H" 
			},
			{
				"x": 2.2675017442,
				"y": -2.8460147967,
				"z": 1.4604737707,
				"element": "H" 
			},
			{
				"x": 1.8092432019,
				"y": -3.181645171,
				"z": 3.1494729509,
				"element": "H" 
			},
			{
				"x": 0.5579602982,
				"y": -4.3407099988,
				"z": 1.3989797319,
				"element": "H" 
			},
			{
				"x": 3.2796018718,
				"y": 3.9306466706,
				"z": -2.0005017577,
				"element": "H" 
			},
			{
				"x": 5.5506675487,
				"y": 4.5662456082,
				"z": -1.184982457,
				"element": "H" 
			},
			{
				"x": 6.5598114146,
				"y": 3.3654425143,
				"z": 0.7481632536,
				"element": "H" 
			},
			{
				"x": 5.3021574116,
				"y": 1.5265579757,
				"z": 1.8670196201,
				"element": "H" 
			}
		],
		 "valence_orbital": [ 
			{
				"type": "occ",
				"energy": -0.25558,
				"method": "rhf"
			},
			{
				"type": "occ",
				"energy": -0.24711,
				"method": "rhf"
			},
			{
				"type": "occ",
				"energy": -0.22907,
				"method": "rhf"
			},
			{
				"type": "occ",
				"energy": -0.2188,
				"method": "rhf"
			},
			{
				"type": "occ",
				"energy": -0.19687,
				"method": "rhf"
			},
			{
				"type": "unocc",
				"energy": -0.04955,
				"method": "rhf"
			},
			{
				"type": "unocc",
				"energy": -0.00125,
				"method": "rhf"
			},
			{
				"type": "unocc",
				"energy": 0.00891,
				"method": "rhf"
			},
			{
				"type": "unocc",
				"energy": 0.02755,
				"method": "rhf"
			},
			{
				"type": "unocc",
				"energy": 0.04445,
				"method": "rhf"
			}
		],
		"cosmo_sigma_profile": { 
			"-0.025": 0.0,
			"-0.024": 0.0,
			"-0.023": 0.0,
			"-0.022": 0.0,
			"-0.021": 0.0,
			"-0.02": 0.0,
			"-0.019": 0.0,
			"-0.018": 0.0,
			"-0.017": 0.695048873392,
			"-0.016": 1.16683264638,
			"-0.015": 0.682590536815,
			"-0.014": 1.31169503591,
			"-0.013": 1.20628768018,
			"-0.012": 0.827536067688,
			"-0.011": 1.12440273215,
			"-0.01": 1.2537777535,
			"-0.009": 2.29814837259,
			"-0.008": 2.31766852181,
			"-0.007": 3.85650424779,
			"-0.006": 12.1618580714,
			"-0.005": 25.2257291443,
			"-0.004": 31.4946514146,
			"-0.003": 33.0223208745,
			"-0.002": 28.7525980181,
			"-0.001": 25.2527284775,
			"0.0": 27.1409415519,
			"0.001": 21.1884323987,
			"0.002": 17.9488825274,
			"0.003": 19.0166048075,
			"0.004": 18.2873364329,
			"0.005": 12.3798569674,
			"0.006": 5.60669352444,
			"0.007": 6.04528978548,
			"0.008": 3.5396308577,
			"0.009": 3.55238257269,
			"0.01": 3.80895209091,
			"0.011": 3.48734415717,
			"0.012": 3.81678360754,
			"0.013": 4.73820839284,
			"0.014": 1.93364193807,
			"0.015": 1.67862397842,
			"0.016": 1.42295109276,
			"0.017": 0.994277831688,
			"0.018": 1.06253293889,
			"0.019": 0.261489308814,
			"0.02": 0.0,
			"0.021": 0.0,
			"0.022": 0.0,
			"0.023": 0.0,
			"0.024": 0.0,
			"0.025": 0.0
		}
	}
}
