{
	 "smiles": "C1=CC2=C(C=C1)C1=CC3=C(C=CC4=CC=CC=C34)N=C1C=C2", 
	 "Tm": 489.15, 
	 "num_atms": 35, 
	 "gaussian": { 
		 "optdone": 1, 
		 "sigma_profile": "yes", 
		 "theory": "DFT", 
		 "functional": "B3LYP", 
		 "basiset": "6-31G**", 
		 "properties": { 
			 "R2extent": 7843.1213, 
			 "electric_dipole_moment_norm": 2.02882659929, 
			 "electric_quadrupole_moment_norm": 15.9209755687, 
			 "total_energy": -862.868794789, 
			 "HOMO_LUMO_gap": 0.14777, 
			 "cosmo_polarized_energy": -10.25, 
			 "cosmo_cavitation_energy": 37.99, 
			 "cosmo_dispersion_energy": -28.42, 
			 "cosmo_repulsion_energy": 2.04, 
			 "cosmo_total_nonelectrostatic_energy": 11.61, 
			 "SMD_solvation_energy": 3.84 
		},
		"coords": [
			{
				"x": -2.7217877735,
				"y": -4.6269373637,
				"z": -0.1517122462,
				"element": "C" 
			},
			{
				"x": -3.3001313462,
				"y": -3.9238705114,
				"z": 0.8891762582,
				"element": "C" 
			},
			{
				"x": -2.8542800337,
				"y": -2.6279648132,
				"z": 1.2304556381,
				"element": "C" 
			},
			{
				"x": -1.7903433022,
				"y": -2.0328137941,
				"z": 0.490918834,
				"element": "C" 
			},
			{
				"x": -1.2191240238,
				"y": -2.7745747152,
				"z": -0.5665829976,
				"element": "C" 
			},
			{
				"x": -1.6725647121,
				"y": -4.0442496179,
				"z": -0.8837011948,
				"element": "C" 
			},
			{
				"x": -1.3427718133,
				"y": -0.692690822,
				"z": 0.8578501575,
				"element": "C" 
			},
			{
				"x": -0.3108568396,
				"y": -0.0104125143,
				"z": 0.2061924423,
				"element": "C" 
			},
			{
				"x": 0.0771486144,
				"y": 1.2738235526,
				"z": 0.6001749439,
				"element": "C" 
			},
			{
				"x": -0.6345447864,
				"y": 1.8534319103,
				"z": 1.7027366203,
				"element": "C" 
			},
			{
				"x": -0.2846247474,
				"y": 3.1728994228,
				"z": 2.1584331647,
				"element": "C" 
			},
			{
				"x": 0.7098767513,
				"y": 3.8758771583,
				"z": 1.5586136841,
				"element": "C" 
			},
			{
				"x": 1.4524143906,
				"y": 3.3364973237,
				"z": 0.4488846136,
				"element": "C" 
			},
			{
				"x": 2.4832492251,
				"y": 4.0854686372,
				"z": -0.1602540991,
				"element": "C" 
			},
			{
				"x": 3.2017539529,
				"y": 3.5760768944,
				"z": -1.2263180832,
				"element": "C" 
			},
			{
				"x": 2.9030046533,
				"y": 2.2917260257,
				"z": -1.7135532233,
				"element": "C" 
			},
			{
				"x": 1.8962491609,
				"y": 1.5393935646,
				"z": -1.1315875827,
				"element": "C" 
			},
			{
				"x": 1.145764001,
				"y": 2.0333064811,
				"z": -0.0418156004,
				"element": "C" 
			},
			{
				"x": -1.6278103835,
				"y": 1.2207985433,
				"z": 2.3451505905,
				"element": "N" 
			},
			{
				"x": -1.980488247,
				"y": -0.0107182749,
				"z": 1.9470660894,
				"element": "C" 
			},
			{
				"x": -3.0500815094,
				"y": -0.6573444755,
				"z": 2.6604681627,
				"element": "C" 
			},
			{
				"x": -3.4632126012,
				"y": -1.9038317711,
				"z": 2.3161009805,
				"element": "C" 
			},
			{
				"x": -3.0747649628,
				"y": -5.6226531672,
				"z": -0.4031560336,
				"element": "H" 
			},
			{
				"x": -4.1122396361,
				"y": -4.362640018,
				"z": 1.4633050082,
				"element": "H" 
			},
			{
				"x": -0.4079819024,
				"y": -2.3516823657,
				"z": -1.1495945187,
				"element": "H" 
			},
			{
				"x": -1.2136916611,
				"y": -4.5906886595,
				"z": -1.702500884,
				"element": "H" 
			},
			{
				"x": 0.199157228,
				"y": -0.4871083137,
				"z": -0.6218594452,
				"element": "H" 
			},
			{
				"x": -0.8499043206,
				"y": 3.5700510825,
				"z": 2.9948868943,
				"element": "H" 
			},
			{
				"x": 0.9680183902,
				"y": 4.8720521268,
				"z": 1.908984542,
				"element": "H" 
			},
			{
				"x": 2.7039232745,
				"y": 5.0771714467,
				"z": 0.2263848407,
				"element": "H" 
			},
			{
				"x": 3.9917973111,
				"y": 4.1631419713,
				"z": -1.6850667167,
				"element": "H" 
			},
			{
				"x": 3.463244824,
				"y": 1.8853056995,
				"z": -2.5505393169,
				"element": "H" 
			},
			{
				"x": 1.6890840731,
				"y": 0.5518438468,
				"z": -1.5297379876,
				"element": "H" 
			},
			{
				"x": -3.5020761426,
				"y": -0.1034227344,
				"z": 3.4764326633,
				"element": "H" 
			},
			{
				"x": -4.2719051055,
				"y": -2.3852617556,
				"z": 2.8601638017,
				"element": "H" 
			}
		],
		 "valence_orbital": [ 
			{
				"type": "occ",
				"energy": -0.25134,
				"method": "rhf"
			},
			{
				"type": "occ",
				"energy": -0.24807,
				"method": "rhf"
			},
			{
				"type": "occ",
				"energy": -0.2461,
				"method": "rhf"
			},
			{
				"type": "occ",
				"energy": -0.21472,
				"method": "rhf"
			},
			{
				"type": "occ",
				"energy": -0.21372,
				"method": "rhf"
			},
			{
				"type": "unocc",
				"energy": -0.06595,
				"method": "rhf"
			},
			{
				"type": "unocc",
				"energy": -0.04779,
				"method": "rhf"
			},
			{
				"type": "unocc",
				"energy": -0.02071,
				"method": "rhf"
			},
			{
				"type": "unocc",
				"energy": -0.00983,
				"method": "rhf"
			},
			{
				"type": "unocc",
				"energy": 0.01934,
				"method": "rhf"
			}
		],
		"cosmo_sigma_profile": { 
			"-0.025": 0.0,
			"-0.024": 0.0,
			"-0.023": 0.0,
			"-0.022": 0.0,
			"-0.021": 0.0,
			"-0.02": 0.0,
			"-0.019": 0.0,
			"-0.018": 0.0,
			"-0.017": 0.0,
			"-0.016": 0.0,
			"-0.015": 0.0,
			"-0.014": 0.0,
			"-0.013": 0.0,
			"-0.012": 0.0,
			"-0.011": 0.0,
			"-0.01": 0.922225374995,
			"-0.009": 2.17330401992,
			"-0.008": 2.27094076198,
			"-0.007": 5.23110984689,
			"-0.006": 21.9291241519,
			"-0.005": 22.7021881919,
			"-0.004": 24.024986606,
			"-0.003": 18.7910757312,
			"-0.002": 15.001629848,
			"-0.001": 15.229601985,
			"0.0": 17.072048396,
			"0.001": 28.8504600194,
			"0.002": 38.5008532362,
			"0.003": 37.1654565627,
			"0.004": 31.0720737673,
			"0.005": 15.4251591095,
			"0.006": 1.62446931656,
			"0.007": 1.9710409046,
			"0.008": 1.34129319722,
			"0.009": 0.971731297125,
			"0.01": 0.933644550037,
			"0.011": 1.02671079463,
			"0.012": 0.825081654137,
			"0.013": 0.777002121105,
			"0.014": 0.816583462394,
			"0.015": 0.584029309261,
			"0.016": 0.12185989922,
			"0.017": 0.0,
			"0.018": 0.0,
			"0.019": 0.0,
			"0.02": 0.0,
			"0.021": 0.0,
			"0.022": 0.0,
			"0.023": 0.0,
			"0.024": 0.0,
			"0.025": 0.0
		}
	}
}
