{
	 "smiles": "OC(=O)CCCCC1=CC(O)=C(O)C=C1", 
	 "Tm": 367.15, 
	 "num_atms": 29, 
	 "gaussian": { 
		 "optdone": 1, 
		 "sigma_profile": "yes", 
		 "theory": "DFT", 
		 "functional": "B3LYP", 
		 "basiset": "6-31G**", 
		 "properties": { 
			 "R2extent": 5279.2032, 
			 "electric_dipole_moment_norm": 3.64181546622, 
			 "electric_quadrupole_moment_norm": 11.6653987257, 
			 "total_energy": -728.524264821, 
			 "HOMO_LUMO_gap": 0.20951, 
			 "cosmo_polarized_energy": -16.91, 
			 "cosmo_cavitation_energy": 32.79, 
			 "cosmo_dispersion_energy": -23.16, 
			 "cosmo_repulsion_energy": 1.85, 
			 "cosmo_total_nonelectrostatic_energy": 11.48, 
			 "SMD_solvation_energy": 6.77 
		},
		"coords": [
			{
				"x": -2.349376752,
				"y": 0.5738936798,
				"z": -3.5771590697,
				"element": "O" 
			},
			{
				"x": -2.5953453872,
				"y": 0.2421306163,
				"z": -2.2843225811,
				"element": "C" 
			},
			{
				"x": -3.7039779489,
				"y": 0.3141180485,
				"z": -1.7995726035,
				"element": "O" 
			},
			{
				"x": -1.3397259564,
				"y": -0.2362421804,
				"z": -1.585632148,
				"element": "C" 
			},
			{
				"x": -1.4928679273,
				"y": -0.3660983969,
				"z": -0.0658482073,
				"element": "C" 
			},
			{
				"x": -1.6409665005,
				"y": 0.9666361134,
				"z": 0.6861744031,
				"element": "C" 
			},
			{
				"x": -0.3929227106,
				"y": 1.8783529524,
				"z": 0.66890261,
				"element": "C" 
			},
			{
				"x": 0.8267624982,
				"y": 1.2808977459,
				"z": 1.3422796055,
				"element": "C" 
			},
			{
				"x": 0.8579084685,
				"y": 1.1301172038,
				"z": 2.7384590004,
				"element": "C" 
			},
			{
				"x": 1.9605442509,
				"y": 0.5728437796,
				"z": 3.3765214891,
				"element": "C" 
			},
			{
				"x": 1.9722736869,
				"y": 0.440173265,
				"z": 4.7330764911,
				"element": "O" 
			},
			{
				"x": 3.0652536494,
				"y": 0.1525843432,
				"z": 2.6134662707,
				"element": "C" 
			},
			{
				"x": 4.1060719888,
				"y": -0.3828595898,
				"z": 3.3414741739,
				"element": "O" 
			},
			{
				"x": 3.0512744124,
				"y": 0.2971049626,
				"z": 1.2327144177,
				"element": "C" 
			},
			{
				"x": 1.9351913789,
				"y": 0.859620673,
				"z": 0.6014187246,
				"element": "C" 
			},
			{
				"x": -3.2058943462,
				"y": 0.8393913564,
				"z": -3.9525035361,
				"element": "H" 
			},
			{
				"x": -1.0895576391,
				"y": -1.2091141167,
				"z": -2.0296152718,
				"element": "H" 
			},
			{
				"x": -0.5169237375,
				"y": 0.4290593445,
				"z": -1.8685748129,
				"element": "H" 
			},
			{
				"x": -0.6248514,
				"y": -0.9096020417,
				"z": 0.3236322643,
				"element": "H" 
			},
			{
				"x": -2.3746945026,
				"y": -0.9824497967,
				"z": 0.1375534638,
				"element": "H" 
			},
			{
				"x": -1.8950993882,
				"y": 0.744293103,
				"z": 1.729763848,
				"element": "H" 
			},
			{
				"x": -2.49377323,
				"y": 1.5188797243,
				"z": 0.2754327606,
				"element": "H" 
			},
			{
				"x": -0.1382729651,
				"y": 2.1467361662,
				"z": -0.363402088,
				"element": "H" 
			},
			{
				"x": -0.6567023087,
				"y": 2.8203754687,
				"z": 1.1663234587,
				"element": "H" 
			},
			{
				"x": 0.0226299234,
				"y": 1.4523422427,
				"z": 3.3536408792,
				"element": "H" 
			},
			{
				"x": 2.8215328016,
				"y": 0.0435211384,
				"z": 4.9783096578,
				"element": "H" 
			},
			{
				"x": 4.826836376,
				"y": -0.6276546994,
				"z": 2.7487434708,
				"element": "H" 
			},
			{
				"x": 3.9096110521,
				"y": -0.0249888899,
				"z": 0.6464126149,
				"element": "H" 
			},
			{
				"x": 1.9395622131,
				"y": 0.9754377838,
				"z": -0.478769286,
				"element": "H" 
			}
		],
		 "valence_orbital": [ 
			{
				"type": "occ",
				"energy": -0.31393,
				"method": "rhf"
			},
			{
				"type": "occ",
				"energy": -0.31008,
				"method": "rhf"
			},
			{
				"type": "occ",
				"energy": -0.27244,
				"method": "rhf"
			},
			{
				"type": "occ",
				"energy": -0.23346,
				"method": "rhf"
			},
			{
				"type": "occ",
				"energy": -0.20538,
				"method": "rhf"
			},
			{
				"type": "unocc",
				"energy": 0.00413,
				"method": "rhf"
			},
			{
				"type": "unocc",
				"energy": 0.01177,
				"method": "rhf"
			},
			{
				"type": "unocc",
				"energy": 0.02003,
				"method": "rhf"
			},
			{
				"type": "unocc",
				"energy": 0.05386,
				"method": "rhf"
			},
			{
				"type": "unocc",
				"energy": 0.07729,
				"method": "rhf"
			}
		],
		"cosmo_sigma_profile": { 
			"-0.025": 0.0,
			"-0.024": 0.0,
			"-0.023": 0.0,
			"-0.022": 0.0,
			"-0.021": 0.0,
			"-0.02": 0.0,
			"-0.019": 0.0,
			"-0.018": 1.1313219497,
			"-0.017": 2.22207554043,
			"-0.016": 1.5967325786,
			"-0.015": 1.78562318578,
			"-0.014": 2.31037225953,
			"-0.013": 2.63243573606,
			"-0.012": 1.58394497598,
			"-0.011": 2.25456711984,
			"-0.01": 2.55629626009,
			"-0.009": 2.23126608883,
			"-0.008": 2.38872190365,
			"-0.007": 2.8674197237,
			"-0.006": 6.31763160114,
			"-0.005": 13.0610431538,
			"-0.004": 14.1867431358,
			"-0.003": 20.6692299807,
			"-0.002": 22.4569320368,
			"-0.001": 21.1106233168,
			"0.0": 20.0656998133,
			"0.001": 15.3024209015,
			"0.002": 12.7698072463,
			"0.003": 12.5882204204,
			"0.004": 14.3437173794,
			"0.005": 13.7211524578,
			"0.006": 12.3304272193,
			"0.007": 6.24819847521,
			"0.008": 6.128752947,
			"0.009": 3.72616348597,
			"0.01": 5.53646323487,
			"0.011": 4.39695619321,
			"0.012": 6.11235570187,
			"0.013": 0.554756506492,
			"0.014": 0.0,
			"0.015": 0.0,
			"0.016": 0.0,
			"0.017": 0.0,
			"0.018": 0.0,
			"0.019": 0.0,
			"0.02": 0.0,
			"0.021": 0.0,
			"0.022": 0.0,
			"0.023": 0.0,
			"0.024": 0.0,
			"0.025": 0.0
		}
	}
}
