{
	 "smiles": "CC(C(C)P(C1=CC=CC=C1)C1=CC=CC=C1)P(C1=CC=CC=C1)C1=CC=CC=C1", 
	 "Tm": 379.15, 
	 "num_atms": 58, 
	 "gaussian": { 
		 "optdone": 1, 
		 "sigma_profile": "yes", 
		 "theory": "DFT", 
		 "functional": "B3LYP", 
		 "basiset": "6-31G**", 
		 "properties": { 
			 "R2extent": 12577.1335, 
			 "electric_dipole_moment_norm": 2.37437943261, 
			 "electric_quadrupole_moment_norm": 12.8800178816, 
			 "total_energy": -1766.54396782, 
			 "HOMO_LUMO_gap": 0.17848, 
			 "cosmo_polarized_energy": -12.41, 
			 "cosmo_cavitation_energy": 60.82, 
			 "cosmo_dispersion_energy": -37.74, 
			 "cosmo_repulsion_energy": 2.93, 
			 "cosmo_total_nonelectrostatic_energy": 26.0, 
			 "SMD_solvation_energy": 9.94 
		},
		"coords": [
			{
				"x": -1.1619375243,
				"y": -0.3141439528,
				"z": -2.3305613476,
				"element": "C" 
			},
			{
				"x": -0.1033803216,
				"y": -0.2271445969,
				"z": -1.2156938636,
				"element": "C" 
			},
			{
				"x": 1.3152079881,
				"y": -0.0303929617,
				"z": -1.826760494,
				"element": "C" 
			},
			{
				"x": 1.918054966,
				"y": -1.3011970976,
				"z": -2.4516014446,
				"element": "C" 
			},
			{
				"x": 2.6519384414,
				"y": 0.9694470494,
				"z": -0.8913931127,
				"element": "P" 
			},
			{
				"x": 1.7357723543,
				"y": 2.5536594224,
				"z": -0.5903988495,
				"element": "C" 
			},
			{
				"x": 2.0609696744,
				"y": 3.6249998499,
				"z": -1.4395840941,
				"element": "C" 
			},
			{
				"x": 1.3980070784,
				"y": 4.8503157064,
				"z": -1.343422766,
				"element": "C" 
			},
			{
				"x": 0.4018509507,
				"y": 5.0310581428,
				"z": -0.3834663511,
				"element": "C" 
			},
			{
				"x": 0.0733111938,
				"y": 3.9812462647,
				"z": 0.477178012,
				"element": "C" 
			},
			{
				"x": 0.7313713403,
				"y": 2.7545550053,
				"z": 0.3745052833,
				"element": "C" 
			},
			{
				"x": 2.9168833591,
				"y": 0.2586185182,
				"z": 0.7993913119,
				"element": "C" 
			},
			{
				"x": 3.0145587961,
				"y": 1.0738179305,
				"z": 1.9411794124,
				"element": "C" 
			},
			{
				"x": 3.4040031366,
				"y": 0.5458914561,
				"z": 3.1738911186,
				"element": "C" 
			},
			{
				"x": 3.7136373116,
				"y": -0.8082747875,
				"z": 3.2962128667,
				"element": "C" 
			},
			{
				"x": 3.6459844421,
				"y": -1.6275194769,
				"z": 2.167274778,
				"element": "C" 
			},
			{
				"x": 3.2636755997,
				"y": -1.0989939719,
				"z": 0.9352498187,
				"element": "C" 
			},
			{
				"x": -0.1663908945,
				"y": -1.6550621531,
				"z": 0.0707681528,
				"element": "P" 
			},
			{
				"x": -1.0084584204,
				"y": -0.8231918036,
				"z": 1.4977636684,
				"element": "C" 
			},
			{
				"x": -2.0380343916,
				"y": 0.1289000201,
				"z": 1.3848974826,
				"element": "C" 
			},
			{
				"x": -2.6029428175,
				"y": 0.7124034957,
				"z": 2.5201434872,
				"element": "C" 
			},
			{
				"x": -2.1491662807,
				"y": 0.3543378706,
				"z": 3.7921675155,
				"element": "C" 
			},
			{
				"x": -1.1256512342,
				"y": -0.5846259669,
				"z": 3.9214367644,
				"element": "C" 
			},
			{
				"x": -0.5589426257,
				"y": -1.1637946963,
				"z": 2.7837583457,
				"element": "C" 
			},
			{
				"x": -1.481833474,
				"y": -2.79351697,
				"z": -0.5799484521,
				"element": "C" 
			},
			{
				"x": -2.8054686499,
				"y": -2.8485610742,
				"z": -0.1160462328,
				"element": "C" 
			},
			{
				"x": -3.7048079421,
				"y": -3.7875517597,
				"z": -0.6269442409,
				"element": "C" 
			},
			{
				"x": -3.3024675459,
				"y": -4.68689833,
				"z": -1.6147168035,
				"element": "C" 
			},
			{
				"x": -1.9862986707,
				"y": -4.6515809414,
				"z": -2.0800731043,
				"element": "C" 
			},
			{
				"x": -1.0851073753,
				"y": -3.7241584804,
				"z": -1.5580215665,
				"element": "C" 
			},
			{
				"x": -1.0267249728,
				"y": -1.1921112131,
				"z": -2.9685291211,
				"element": "H" 
			},
			{
				"x": -2.1743182766,
				"y": -0.3752197452,
				"z": -1.9213128489,
				"element": "H" 
			},
			{
				"x": -1.107650823,
				"y": 0.5771360983,
				"z": -2.9672425049,
				"element": "H" 
			},
			{
				"x": -0.3331451255,
				"y": 0.666812467,
				"z": -0.6317033822,
				"element": "H" 
			},
			{
				"x": 1.1739360139,
				"y": 0.679807431,
				"z": -2.6562539377,
				"element": "H" 
			},
			{
				"x": 2.0749489551,
				"y": -2.0861221243,
				"z": -1.7064470988,
				"element": "H" 
			},
			{
				"x": 1.2502611668,
				"y": -1.7076324051,
				"z": -3.2194198835,
				"element": "H" 
			},
			{
				"x": 2.8795148249,
				"y": -1.086802383,
				"z": -2.9277256011,
				"element": "H" 
			},
			{
				"x": 2.8466941971,
				"y": 3.4953163624,
				"z": -2.1793643935,
				"element": "H" 
			},
			{
				"x": 1.6664243879,
				"y": 5.6638610846,
				"z": -2.0116540955,
				"element": "H" 
			},
			{
				"x": -0.1115995839,
				"y": 5.9850225307,
				"z": -0.3016398521,
				"element": "H" 
			},
			{
				"x": -0.6983158409,
				"y": 4.1140054984,
				"z": 1.2306222147,
				"element": "H" 
			},
			{
				"x": 0.4680247618,
				"y": 1.9563231056,
				"z": 1.0608181247,
				"element": "H" 
			},
			{
				"x": 2.791537754,
				"y": 2.1327400274,
				"z": 1.8725424783,
				"element": "H" 
			},
			{
				"x": 3.4653771765,
				"y": 1.2003557556,
				"z": 4.0392591962,
				"element": "H" 
			},
			{
				"x": 4.016784228,
				"y": -1.2187330549,
				"z": 4.2552469761,
				"element": "H" 
			},
			{
				"x": 3.8972227803,
				"y": -2.6820130074,
				"z": 2.2418135555,
				"element": "H" 
			},
			{
				"x": 3.2414482803,
				"y": -1.7546477088,
				"z": 0.0722424654,
				"element": "H" 
			},
			{
				"x": -2.4079628111,
				"y": 0.4174269097,
				"z": 0.4051833176,
				"element": "H" 
			},
			{
				"x": -3.3995889698,
				"y": 1.4435578224,
				"z": 2.4116144373,
				"element": "H" 
			},
			{
				"x": -2.5886607242,
				"y": 0.8092291404,
				"z": 4.6754828503,
				"element": "H" 
			},
			{
				"x": -0.7602814923,
				"y": -0.860959498,
				"z": 4.9065065355,
				"element": "H" 
			},
			{
				"x": 0.2538410413,
				"y": -1.8765762349,
				"z": 2.8896169229,
				"element": "H" 
			},
			{
				"x": -3.1391168922,
				"y": -2.1598841276,
				"z": 0.6528054997,
				"element": "H" 
			},
			{
				"x": -4.7240880155,
				"y": -3.8130890766,
				"z": -0.250656814,
				"element": "H" 
			},
			{
				"x": -4.0042006958,
				"y": -5.4149817404,
				"z": -2.0116290985,
				"element": "H" 
			},
			{
				"x": -1.6570187729,
				"y": -5.3547474687,
				"z": -2.8403032297,
				"element": "H" 
			},
			{
				"x": -0.0559810355,
				"y": -3.7283161564,
				"z": -1.9085580076,
				"element": "H" 
			}
		],
		 "valence_orbital": [ 
			{
				"type": "occ",
				"energy": -0.24924,
				"method": "rhf"
			},
			{
				"type": "occ",
				"energy": -0.24667,
				"method": "rhf"
			},
			{
				"type": "occ",
				"energy": -0.24283,
				"method": "rhf"
			},
			{
				"type": "occ",
				"energy": -0.21041,
				"method": "rhf"
			},
			{
				"type": "occ",
				"energy": -0.19966,
				"method": "rhf"
			},
			{
				"type": "unocc",
				"energy": -0.02118,
				"method": "rhf"
			},
			{
				"type": "unocc",
				"energy": -0.01794,
				"method": "rhf"
			},
			{
				"type": "unocc",
				"energy": -0.00769,
				"method": "rhf"
			},
			{
				"type": "unocc",
				"energy": -0.00674,
				"method": "rhf"
			},
			{
				"type": "unocc",
				"energy": -0.00326,
				"method": "rhf"
			}
		],
		"cosmo_sigma_profile": { 
			"-0.025": 0.0,
			"-0.024": 0.0,
			"-0.023": 0.0,
			"-0.022": 0.0,
			"-0.021": 0.0,
			"-0.02": 0.0,
			"-0.019": 0.0,
			"-0.018": 0.0,
			"-0.017": 0.0,
			"-0.016": 0.0,
			"-0.015": 0.0,
			"-0.014": 0.0,
			"-0.013": 0.0,
			"-0.012": 0.0,
			"-0.011": 0.0,
			"-0.01": 0.0,
			"-0.009": 0.0,
			"-0.008": 0.0,
			"-0.007": 0.0193943291558,
			"-0.006": 12.5157894572,
			"-0.005": 32.8480054834,
			"-0.004": 47.8073705723,
			"-0.003": 53.6686859682,
			"-0.002": 42.7975815753,
			"-0.001": 43.8197905997,
			"0.0": 40.4549292797,
			"0.001": 40.8110456958,
			"0.002": 34.1653127946,
			"0.003": 34.5058547904,
			"0.004": 34.0487461809,
			"0.005": 36.2655230583,
			"0.006": 16.4266009857,
			"0.007": 2.50120227803,
			"0.008": 1.07013280202,
			"0.009": 1.45894706236,
			"0.01": 1.80586804659,
			"0.011": 1.27945873253,
			"0.012": 0.713997577925,
			"0.013": 0.61201908008,
			"0.014": 0.519715762842,
			"0.015": 0.184782621017,
			"0.016": 0.0,
			"0.017": 0.0,
			"0.018": 0.0,
			"0.019": 0.0,
			"0.02": 0.0,
			"0.021": 0.0,
			"0.022": 0.0,
			"0.023": 0.0,
			"0.024": 0.0,
			"0.025": 0.0
		}
	}
}
