{
	 "smiles": "CCN1CCN(CC1)C(=O)C1=CC=C(N)C=C1", 
	 "Tm": 399.15, 
	 "num_atms": 36, 
	 "gaussian": { 
		 "optdone": 1, 
		 "sigma_profile": "yes", 
		 "theory": "DFT", 
		 "functional": "B3LYP", 
		 "basiset": "6-31G**", 
		 "properties": { 
			 "R2extent": 6202.9005, 
			 "electric_dipole_moment_norm": 4.64396478238, 
			 "electric_quadrupole_moment_norm": 24.2699479017, 
			 "total_energy": -746.321002448, 
			 "HOMO_LUMO_gap": 0.18589, 
			 "cosmo_polarized_energy": -17.12, 
			 "cosmo_cavitation_energy": 36.85, 
			 "cosmo_dispersion_energy": -26.57, 
			 "cosmo_repulsion_energy": 2.07, 
			 "cosmo_total_nonelectrostatic_energy": 12.34, 
			 "SMD_solvation_energy": 3.56 
		},
		"coords": [
			{
				"x": -3.8396085422,
				"y": -1.7295953089,
				"z": -2.4891216444,
				"element": "C" 
			},
			{
				"x": -3.3137716815,
				"y": -0.936969066,
				"z": -1.2897117966,
				"element": "C" 
			},
			{
				"x": -2.138304962,
				"y": -1.5665603108,
				"z": -0.6761346291,
				"element": "N" 
			},
			{
				"x": -0.8938299052,
				"y": -1.4209942172,
				"z": -1.4364295325,
				"element": "C" 
			},
			{
				"x": -0.2316268422,
				"y": -0.041129429,
				"z": -1.2820551139,
				"element": "C" 
			},
			{
				"x": -0.0278735461,
				"y": 0.2610782994,
				"z": 0.13971367,
				"element": "N" 
			},
			{
				"x": -1.2681665521,
				"y": 0.188199385,
				"z": 0.9181745095,
				"element": "C" 
			},
			{
				"x": -1.9056313152,
				"y": -1.1962252566,
				"z": 0.7232950081,
				"element": "C" 
			},
			{
				"x": 0.9801366058,
				"y": 1.0807321852,
				"z": 0.6247158139,
				"element": "C" 
			},
			{
				"x": 0.8188097538,
				"y": 1.7594925205,
				"z": 1.6383422556,
				"element": "O" 
			},
			{
				"x": 2.3031653466,
				"y": 1.0760650705,
				"z": -0.0776692891,
				"element": "C" 
			},
			{
				"x": 3.0385239159,
				"y": 2.2706278467,
				"z": -0.104401006,
				"element": "C" 
			},
			{
				"x": 4.3018888267,
				"y": 2.3257180731,
				"z": -0.6760484252,
				"element": "C" 
			},
			{
				"x": 4.8938010537,
				"y": 1.168230372,
				"z": -1.2171381389,
				"element": "C" 
			},
			{
				"x": 6.1830612022,
				"y": 1.2054532733,
				"z": -1.7361468,
				"element": "N" 
			},
			{
				"x": 4.175466863,
				"y": -0.0400420295,
				"z": -1.1596978335,
				"element": "C" 
			},
			{
				"x": 2.9024661783,
				"y": -0.0794435913,
				"z": -0.6012928211,
				"element": "C" 
			},
			{
				"x": -3.1232036605,
				"y": -1.7520541208,
				"z": -3.3167397414,
				"element": "H" 
			},
			{
				"x": -4.7605066443,
				"y": -1.274854835,
				"z": -2.8693275894,
				"element": "H" 
			},
			{
				"x": -4.0515573973,
				"y": -2.7625761664,
				"z": -2.1986907536,
				"element": "H" 
			},
			{
				"x": -3.144416062,
				"y": 0.1124560484,
				"z": -1.5920880631,
				"element": "H" 
			},
			{
				"x": -4.0956351481,
				"y": -0.9063184648,
				"z": -0.5223198581,
				"element": "H" 
			},
			{
				"x": -0.1897186895,
				"y": -2.1873521319,
				"z": -1.0845822416,
				"element": "H" 
			},
			{
				"x": -1.0856178247,
				"y": -1.6193904385,
				"z": -2.4951994697,
				"element": "H" 
			},
			{
				"x": 0.7200381153,
				"y": -0.0115841475,
				"z": -1.811376736,
				"element": "H" 
			},
			{
				"x": -0.8760489998,
				"y": 0.7337799922,
				"z": -1.7287944026,
				"element": "H" 
			},
			{
				"x": -1.961647754,
				"y": 0.9846617871,
				"z": 0.6046213132,
				"element": "H" 
			},
			{
				"x": -1.0223872843,
				"y": 0.3700780096,
				"z": 1.9650363506,
				"element": "H" 
			},
			{
				"x": -2.8548454434,
				"y": -1.2479168892,
				"z": 1.2674129298,
				"element": "H" 
			},
			{
				"x": -1.2340729164,
				"y": -1.9467540147,
				"z": 1.1618445326,
				"element": "H" 
			},
			{
				"x": 2.5994750589,
				"y": 3.158746566,
				"z": 0.3384220917,
				"element": "H" 
			},
			{
				"x": 4.8496737946,
				"y": 3.2647980863,
				"z": -0.6952354502,
				"element": "H" 
			},
			{
				"x": 6.4221535691,
				"y": 0.4684038755,
				"z": -2.3838255137,
				"element": "H" 
			},
			{
				"x": 6.5127672821,
				"y": 2.1115022941,
				"z": -2.036685681,
				"element": "H" 
			},
			{
				"x": 4.62921766,
				"y": -0.9513063676,
				"z": -1.5416433133,
				"element": "H" 
			},
			{
				"x": 2.3801259449,
				"y": -1.0299568993,
				"z": -0.5441226309,
				"element": "H" 
			}
		],
		 "valence_orbital": [ 
			{
				"type": "occ",
				"energy": -0.2515,
				"method": "rhf"
			},
			{
				"type": "occ",
				"energy": -0.24827,
				"method": "rhf"
			},
			{
				"type": "occ",
				"energy": -0.23202,
				"method": "rhf"
			},
			{
				"type": "occ",
				"energy": -0.2049,
				"method": "rhf"
			},
			{
				"type": "occ",
				"energy": -0.19923,
				"method": "rhf"
			},
			{
				"type": "unocc",
				"energy": -0.01334,
				"method": "rhf"
			},
			{
				"type": "unocc",
				"energy": -0.00066,
				"method": "rhf"
			},
			{
				"type": "unocc",
				"energy": 0.05751,
				"method": "rhf"
			},
			{
				"type": "unocc",
				"energy": 0.07697,
				"method": "rhf"
			},
			{
				"type": "unocc",
				"energy": 0.08286,
				"method": "rhf"
			}
		],
		"cosmo_sigma_profile": { 
			"-0.025": 0.0,
			"-0.024": 0.0,
			"-0.023": 0.0,
			"-0.022": 0.0,
			"-0.021": 0.0,
			"-0.02": 0.0,
			"-0.019": 0.0,
			"-0.018": 0.0,
			"-0.017": 0.0,
			"-0.016": 0.0,
			"-0.015": 0.0,
			"-0.014": 0.0,
			"-0.013": 1.3265799347,
			"-0.012": 2.98609302158,
			"-0.011": 2.32123216821,
			"-0.01": 2.81903048413,
			"-0.009": 3.3623937074,
			"-0.008": 2.60054653363,
			"-0.007": 3.96146483392,
			"-0.006": 4.77067466691,
			"-0.005": 10.4642296069,
			"-0.004": 27.0980492241,
			"-0.003": 37.9355751723,
			"-0.002": 31.8600254686,
			"-0.001": 28.5945417585,
			"0.0": 23.2510555577,
			"0.001": 19.1199697621,
			"0.002": 11.4901462534,
			"0.003": 10.6143461293,
			"0.004": 10.3980830014,
			"0.005": 13.7941936908,
			"0.006": 9.23957857802,
			"0.007": 3.11768391684,
			"0.008": 3.23842745965,
			"0.009": 2.6053326671,
			"0.01": 3.43064064629,
			"0.011": 3.13591677448,
			"0.012": 3.24797474556,
			"0.013": 3.46236020649,
			"0.014": 5.66675080434,
			"0.015": 2.06040792417,
			"0.016": 0.286308733628,
			"0.017": 0.0,
			"0.018": 0.0,
			"0.019": 0.0,
			"0.02": 0.0,
			"0.021": 0.0,
			"0.022": 0.0,
			"0.023": 0.0,
			"0.024": 0.0,
			"0.025": 0.0
		}
	}
}
