{
	 "smiles": "[O-][N+](=O)C1=CC2=C(C=CS2(=O)=O)C=C1", 
	 "Tm": 453.15, 
	 "num_atms": 19, 
	 "gaussian": { 
		 "optdone": 1, 
		 "sigma_profile": "yes", 
		 "theory": "DFT", 
		 "functional": "B3LYP", 
		 "basiset": "6-31G**", 
		 "properties": { 
			 "R2extent": 3674.9636, 
			 "electric_dipole_moment_norm": 6.62596189017, 
			 "electric_quadrupole_moment_norm": 15.9006627485, 
			 "total_energy": -1061.49640566, 
			 "HOMO_LUMO_gap": 0.16082, 
			 "cosmo_polarized_energy": -18.86, 
			 "cosmo_cavitation_energy": 26.17, 
			 "cosmo_dispersion_energy": -19.8, 
			 "cosmo_repulsion_energy": 1.49, 
			 "cosmo_total_nonelectrostatic_energy": 7.86, 
			 "SMD_solvation_energy": 6.21 
		},
		"coords": [
			{
				"x": 3.5643941917,
				"y": 1.8833489838,
				"z": 1.5006655612,
				"element": "O" 
			},
			{
				"x": 3.5919132734,
				"y": 1.6189251911,
				"z": 0.300810146,
				"element": "N" 
			},
			{
				"x": 4.6042728322,
				"y": 1.5941019395,
				"z": -0.3966441169,
				"element": "O" 
			},
			{
				"x": 2.3082841963,
				"y": 1.3072012894,
				"z": -0.3527556113,
				"element": "C" 
			},
			{
				"x": 1.1420794773,
				"y": 1.3295968359,
				"z": 0.4209833683,
				"element": "C" 
			},
			{
				"x": -0.0330708208,
				"y": 1.0308486554,
				"z": -0.2373931882,
				"element": "C" 
			},
			{
				"x": -0.085213642,
				"y": 0.7184781786,
				"z": -1.605031655,
				"element": "C" 
			},
			{
				"x": -1.4526299131,
				"y": 0.4363616557,
				"z": -2.0777537976,
				"element": "C" 
			},
			{
				"x": -2.3983959267,
				"y": 0.5250361232,
				"z": -1.1348252701,
				"element": "C" 
			},
			{
				"x": -1.6988133044,
				"y": 0.9717113893,
				"z": 0.4595840983,
				"element": "S" 
			},
			{
				"x": -2.1418073068,
				"y": 2.314546826,
				"z": 0.8528110558,
				"element": "O" 
			},
			{
				"x": -1.8242700793,
				"y": -0.1456952129,
				"z": 1.4028469782,
				"element": "O" 
			},
			{
				"x": 1.0964976897,
				"y": 0.7050640196,
				"z": -2.3475757093,
				"element": "C" 
			},
			{
				"x": 2.3043432009,
				"y": 1.0027783334,
				"z": -1.7129375353,
				"element": "C" 
			},
			{
				"x": 1.1884274451,
				"y": 1.5713075578,
				"z": 1.4759000601,
				"element": "H" 
			},
			{
				"x": -1.6525264545,
				"y": 0.1792133355,
				"z": -3.1129445656,
				"element": "H" 
			},
			{
				"x": -3.4656796088,
				"y": 0.3686547735,
				"z": -1.2182980819,
				"element": "H" 
			},
			{
				"x": 1.0813613378,
				"y": 0.4664889917,
				"z": -3.4065227575,
				"element": "H" 
			},
			{
				"x": 3.243533412,
				"y": 1.0036311337,
				"z": -2.2517189793,
				"element": "H" 
			}
		],
		 "valence_orbital": [ 
			{
				"type": "occ",
				"energy": -0.32189,
				"method": "rhf"
			},
			{
				"type": "occ",
				"energy": -0.31087,
				"method": "rhf"
			},
			{
				"type": "occ",
				"energy": -0.30706,
				"method": "rhf"
			},
			{
				"type": "occ",
				"energy": -0.29823,
				"method": "rhf"
			},
			{
				"type": "occ",
				"energy": -0.28002,
				"method": "rhf"
			},
			{
				"type": "unocc",
				"energy": -0.1192,
				"method": "rhf"
			},
			{
				"type": "unocc",
				"energy": -0.07582,
				"method": "rhf"
			},
			{
				"type": "unocc",
				"energy": -0.05554,
				"method": "rhf"
			},
			{
				"type": "unocc",
				"energy": 0.01112,
				"method": "rhf"
			},
			{
				"type": "unocc",
				"energy": 0.03712,
				"method": "rhf"
			}
		],
		"cosmo_sigma_profile": { 
			"-0.025": 0.0,
			"-0.024": 0.0,
			"-0.023": 0.0,
			"-0.022": 0.0,
			"-0.021": 0.0,
			"-0.02": 0.0,
			"-0.019": 0.0,
			"-0.018": 0.0,
			"-0.017": 0.0,
			"-0.016": 0.0,
			"-0.015": 0.0,
			"-0.014": 0.0,
			"-0.013": 0.0,
			"-0.012": 0.878162116849,
			"-0.011": 3.07694127874,
			"-0.01": 6.79992895588,
			"-0.009": 8.30049908138,
			"-0.008": 9.1901121892,
			"-0.007": 9.98118571233,
			"-0.006": 8.55884510217,
			"-0.005": 8.7029778945,
			"-0.004": 12.0037992178,
			"-0.003": 15.5951628515,
			"-0.002": 19.5941486161,
			"-0.001": 15.7600933895,
			"0.0": 10.4095881045,
			"0.001": 5.14101110361,
			"0.002": 5.42241714079,
			"0.003": 5.2670155531,
			"0.004": 4.75502175282,
			"0.005": 3.89703858453,
			"0.006": 7.71089307932,
			"0.007": 11.6361693559,
			"0.008": 8.31814495571,
			"0.009": 9.11349933748,
			"0.01": 14.0278727444,
			"0.011": 7.80655848207,
			"0.012": 0.025945793772,
			"0.013": 0.0,
			"0.014": 0.0,
			"0.015": 0.0,
			"0.016": 0.0,
			"0.017": 0.0,
			"0.018": 0.0,
			"0.019": 0.0,
			"0.02": 0.0,
			"0.021": 0.0,
			"0.022": 0.0,
			"0.023": 0.0,
			"0.024": 0.0,
			"0.025": 0.0
		}
	}
}
