{
	 "smiles": "FC1=CC(C(=O)CC(F)(F)F)=C(F)C=C1", 
	 "Tm": 319.15, 
	 "num_atms": 20, 
	 "gaussian": { 
		 "optdone": 1, 
		 "sigma_profile": "yes", 
		 "theory": "DFT", 
		 "functional": "B3LYP", 
		 "basiset": "6-31G**", 
		 "properties": { 
			 "R2extent": 3521.9929, 
			 "electric_dipole_moment_norm": 3.30143356286, 
			 "electric_quadrupole_moment_norm": 9.54099973483, 
			 "total_energy": -920.380869368, 
			 "HOMO_LUMO_gap": 0.17814, 
			 "cosmo_polarized_energy": -9.78, 
			 "cosmo_cavitation_energy": 27.25, 
			 "cosmo_dispersion_energy": -18.9, 
			 "cosmo_repulsion_energy": 1.37, 
			 "cosmo_total_nonelectrostatic_energy": 9.71, 
			 "SMD_solvation_energy": 7.22 
		},
		"coords": [
			{
				"x": 0.541178617,
				"y": -0.292080247,
				"z": 3.9186932825,
				"element": "F" 
			},
			{
				"x": -0.0192939386,
				"y": 0.4337915533,
				"z": 2.9312506793,
				"element": "C" 
			},
			{
				"x": 0.4386273605,
				"y": 0.2692622815,
				"z": 1.6334511215,
				"element": "C" 
			},
			{
				"x": -0.1404092902,
				"y": 1.0036020581,
				"z": 0.5828884572,
				"element": "C" 
			},
			{
				"x": 0.3088146387,
				"y": 0.8317388467,
				"z": -0.8337569188,
				"element": "C" 
			},
			{
				"x": -0.396288408,
				"y": 1.1226251694,
				"z": -1.7803301007,
				"element": "O" 
			},
			{
				"x": 1.7316001568,
				"y": 0.3060646165,
				"z": -1.1009499742,
				"element": "C" 
			},
			{
				"x": 1.7788025311,
				"y": -1.1742308966,
				"z": -1.4340144802,
				"element": "C" 
			},
			{
				"x": 1.3761650365,
				"y": -1.9356977055,
				"z": -0.3845127632,
				"element": "F" 
			},
			{
				"x": 0.9946702857,
				"y": -1.4847388414,
				"z": -2.4778619854,
				"element": "F" 
			},
			{
				"x": 3.0394053022,
				"y": -1.5502736776,
				"z": -1.7358091065,
				"element": "F" 
			},
			{
				"x": -1.1762586911,
				"y": 1.8981964184,
				"z": 0.9084193423,
				"element": "C" 
			},
			{
				"x": -1.751751085,
				"y": 2.6463671658,
				"z": -0.041251126,
				"element": "F" 
			},
			{
				"x": -1.6171166773,
				"y": 2.0687330607,
				"z": 2.2171576596,
				"element": "C" 
			},
			{
				"x": -1.0391114016,
				"y": 1.3272583422,
				"z": 3.2445002989,
				"element": "C" 
			},
			{
				"x": 1.2150022195,
				"y": -0.4606057481,
				"z": 1.4436246526,
				"element": "H" 
			},
			{
				"x": 2.415890515,
				"y": 0.4862791539,
				"z": -0.2695862516,
				"element": "H" 
			},
			{
				"x": 2.0984593006,
				"y": 0.8409996722,
				"z": -1.9796690144,
				"element": "H" 
			},
			{
				"x": -2.4098760508,
				"y": 2.7823497068,
				"z": 2.4117082062,
				"element": "H" 
			},
			{
				"x": -1.3659104209,
				"y": 1.4335590706,
				"z": 4.2729480212,
				"element": "H" 
			}
		],
		 "valence_orbital": [ 
			{
				"type": "occ",
				"energy": -0.37429,
				"method": "rhf"
			},
			{
				"type": "occ",
				"energy": -0.36306,
				"method": "rhf"
			},
			{
				"type": "occ",
				"energy": -0.28877,
				"method": "rhf"
			},
			{
				"type": "occ",
				"energy": -0.26845,
				"method": "rhf"
			},
			{
				"type": "occ",
				"energy": -0.25779,
				"method": "rhf"
			},
			{
				"type": "unocc",
				"energy": -0.07965,
				"method": "rhf"
			},
			{
				"type": "unocc",
				"energy": -0.02229,
				"method": "rhf"
			},
			{
				"type": "unocc",
				"energy": 0.01185,
				"method": "rhf"
			},
			{
				"type": "unocc",
				"energy": 0.07064,
				"method": "rhf"
			},
			{
				"type": "unocc",
				"energy": 0.10028,
				"method": "rhf"
			}
		],
		"cosmo_sigma_profile": { 
			"-0.025": 0.0,
			"-0.024": 0.0,
			"-0.023": 0.0,
			"-0.022": 0.0,
			"-0.021": 0.0,
			"-0.02": 0.0,
			"-0.019": 0.0,
			"-0.018": 0.0,
			"-0.017": 0.0,
			"-0.016": 0.0,
			"-0.015": 0.0,
			"-0.014": 0.0,
			"-0.013": 0.0,
			"-0.012": 0.000175597917541,
			"-0.011": 0.403171313159,
			"-0.01": 1.28299221807,
			"-0.009": 4.6915560785,
			"-0.008": 8.78271265784,
			"-0.007": 9.06680229875,
			"-0.006": 9.67510141107,
			"-0.005": 8.90033826852,
			"-0.004": 7.95333727681,
			"-0.003": 7.00604006983,
			"-0.002": 10.2206730098,
			"-0.001": 20.2381687114,
			"0.0": 23.6888559013,
			"0.001": 17.2090814007,
			"0.002": 26.9976851479,
			"0.003": 27.4826631407,
			"0.004": 14.919586941,
			"0.005": 2.89268959777,
			"0.006": 2.39346723011,
			"0.007": 2.62606891759,
			"0.008": 2.31509527861,
			"0.009": 2.26351232889,
			"0.01": 4.10633618692,
			"0.011": 3.80583029707,
			"0.012": 0.547732608795,
			"0.013": 0.0,
			"0.014": 0.0,
			"0.015": 0.0,
			"0.016": 0.0,
			"0.017": 0.0,
			"0.018": 0.0,
			"0.019": 0.0,
			"0.02": 0.0,
			"0.021": 0.0,
			"0.022": 0.0,
			"0.023": 0.0,
			"0.024": 0.0,
			"0.025": 0.0
		}
	}
}
