{
	 "smiles": "FC(Br)(Br)Br", 
	 "Tm": 199.35, 
	 "num_atms": 5, 
	 "gaussian": { 
		 "optdone": 1, 
		 "sigma_profile": "yes", 
		 "theory": "DFT", 
		 "functional": "B3LYP", 
		 "basiset": "6-31G**", 
		 "properties": { 
			 "R2extent": 2404.9113, 
			 "electric_dipole_moment_norm": 0.285633663982, 
			 "electric_quadrupole_moment_norm": 1.22917495907, 
			 "total_energy": -7852.12234171, 
			 "HOMO_LUMO_gap": 0.19922, 
			 "cosmo_polarized_energy": -1.6, 
			 "cosmo_cavitation_energy": 16.57, 
			 "cosmo_dispersion_energy": -13.43, 
			 "cosmo_repulsion_energy": 1.15, 
			 "cosmo_total_nonelectrostatic_energy": 4.29, 
			 "SMD_solvation_energy": -0.16 
		},
		"coords": [
			{
				"x": 0.9634908888,
				"y": 0.252001324,
				"z": -0.0487049409,
				"element": "F" 
			},
			{
				"x": 0.39260206,
				"y": -0.6311166269,
				"z": 0.7744773691,
				"element": "C" 
			},
			{
				"x": 1.0926121443,
				"y": -0.333963904,
				"z": 2.5798334097,
				"element": "Br" 
			},
			{
				"x": -1.5455922967,
				"y": -0.3497825201,
				"z": 0.7334358889,
				"element": "Br" 
			},
			{
				"x": 0.8393872036,
				"y": -2.4338382729,
				"z": 0.1516582731,
				"element": "Br" 
			}
		],
		 "valence_orbital": [ 
			{
				"type": "occ",
				"energy": -0.32737,
				"method": "rhf"
			},
			{
				"type": "occ",
				"energy": -0.32737,
				"method": "rhf"
			},
			{
				"type": "occ",
				"energy": -0.30232,
				"method": "rhf"
			},
			{
				"type": "occ",
				"energy": -0.30232,
				"method": "rhf"
			},
			{
				"type": "occ",
				"energy": -0.28911,
				"method": "rhf"
			},
			{
				"type": "unocc",
				"energy": -0.08989,
				"method": "rhf"
			},
			{
				"type": "unocc",
				"energy": -0.0201,
				"method": "rhf"
			},
			{
				"type": "unocc",
				"energy": -0.02009,
				"method": "rhf"
			},
			{
				"type": "unocc",
				"energy": 0.09387,
				"method": "rhf"
			},
			{
				"type": "unocc",
				"energy": 0.32739,
				"method": "rhf"
			}
		],
		"cosmo_sigma_profile": { 
			"-0.025": 0.0,
			"-0.024": 0.0,
			"-0.023": 0.0,
			"-0.022": 0.0,
			"-0.021": 0.0,
			"-0.02": 0.0,
			"-0.019": 0.0,
			"-0.018": 0.0,
			"-0.017": 0.0,
			"-0.016": 0.0,
			"-0.015": 0.0,
			"-0.014": 0.0,
			"-0.013": 0.0,
			"-0.012": 0.0,
			"-0.011": 0.0,
			"-0.01": 0.0,
			"-0.009": 0.0,
			"-0.008": 0.200433435725,
			"-0.007": 3.06398175752,
			"-0.006": 4.02771626599,
			"-0.005": 4.68167701987,
			"-0.004": 4.7228215669,
			"-0.003": 8.75082643524,
			"-0.002": 8.85142050337,
			"-0.001": 10.6312499637,
			"0.0": 18.2353693895,
			"0.001": 29.4157401709,
			"0.002": 38.7288058814,
			"0.003": 11.8314361649,
			"0.004": 0.0,
			"0.005": 0.0,
			"0.006": 0.0,
			"0.007": 0.0,
			"0.008": 0.0,
			"0.009": 0.0,
			"0.01": 0.0,
			"0.011": 0.0,
			"0.012": 0.0,
			"0.013": 0.0,
			"0.014": 0.0,
			"0.015": 0.0,
			"0.016": 0.0,
			"0.017": 0.0,
			"0.018": 0.0,
			"0.019": 0.0,
			"0.02": 0.0,
			"0.021": 0.0,
			"0.022": 0.0,
			"0.023": 0.0,
			"0.024": 0.0,
			"0.025": 0.0
		}
	}
}
