{
	 "smiles": "COC1=C(O)C=C(C=C1)C1=CC(=O)C2=C(O)C=C(O)C=C2O1", 
	 "Tm": 527.15, 
	 "num_atms": 34, 
	 "gaussian": { 
		 "optdone": 1, 
		 "sigma_profile": "yes", 
		 "theory": "DFT", 
		 "functional": "B3LYP", 
		 "basiset": "6-31G**", 
		 "properties": { 
			 "R2extent": 10376.367, 
			 "electric_dipole_moment_norm": 7.89391024715, 
			 "electric_quadrupole_moment_norm": 25.8094232154, 
			 "total_energy": -1068.24988674, 
			 "HOMO_LUMO_gap": 0.16123, 
			 "cosmo_polarized_energy": -28.53, 
			 "cosmo_cavitation_energy": 39.26, 
			 "cosmo_dispersion_energy": -29.05, 
			 "cosmo_repulsion_energy": 2.16, 
			 "cosmo_total_nonelectrostatic_energy": 12.37, 
			 "SMD_solvation_energy": 9.16 
		},
		"coords": [
			{
				"x": -3.9375575364,
				"y": -1.5460878044,
				"z": -3.2881463017,
				"element": "C" 
			},
			{
				"x": -3.9004261359,
				"y": -1.7551385589,
				"z": -1.8829394367,
				"element": "O" 
			},
			{
				"x": -2.8598652878,
				"y": -1.216058569,
				"z": -1.1730021691,
				"element": "C" 
			},
			{
				"x": -2.9250736404,
				"y": -1.473029732,
				"z": 0.2145965792,
				"element": "C" 
			},
			{
				"x": -3.9606808199,
				"y": -2.1905194844,
				"z": 0.7269022276,
				"element": "O" 
			},
			{
				"x": -1.9388778264,
				"y": -0.9823641164,
				"z": 1.0554652836,
				"element": "C" 
			},
			{
				"x": -0.8636779912,
				"y": -0.2339691716,
				"z": 0.5380674702,
				"element": "C" 
			},
			{
				"x": -0.8142135664,
				"y": 0.0210134934,
				"z": -0.8385557118,
				"element": "C" 
			},
			{
				"x": -1.806821398,
				"y": -0.4689603754,
				"z": -1.6918723911,
				"element": "C" 
			},
			{
				"x": 0.1948277473,
				"y": 0.2657744288,
				"z": 1.432153338,
				"element": "C" 
			},
			{
				"x": 0.4579661685,
				"y": -0.1526194588,
				"z": 2.6915102894,
				"element": "C" 
			},
			{
				"x": 1.5322305028,
				"y": 0.4079937724,
				"z": 3.5142406092,
				"element": "C" 
			},
			{
				"x": 1.7349126963,
				"y": 0.0135666071,
				"z": 4.6607736136,
				"element": "O" 
			},
			{
				"x": 2.3235338023,
				"y": 1.4584937116,
				"z": 2.8309935391,
				"element": "C" 
			},
			{
				"x": 3.424955084,
				"y": 2.1414004203,
				"z": 3.418084241,
				"element": "C" 
			},
			{
				"x": 3.7753725801,
				"y": 1.8193187244,
				"z": 4.6838463076,
				"element": "O" 
			},
			{
				"x": 4.1242801233,
				"y": 3.1156316826,
				"z": 2.7094434142,
				"element": "C" 
			},
			{
				"x": 3.7513040558,
				"y": 3.4397625757,
				"z": 1.3994382387,
				"element": "C" 
			},
			{
				"x": 4.4827427255,
				"y": 4.4021923562,
				"z": 0.7743537913,
				"element": "O" 
			},
			{
				"x": 2.6803314984,
				"y": 2.7959026574,
				"z": 0.7865906249,
				"element": "C" 
			},
			{
				"x": 1.9924096251,
				"y": 1.8219386417,
				"z": 1.5131594107,
				"element": "C" 
			},
			{
				"x": 0.9506822329,
				"y": 1.2421878295,
				"z": 0.8411980407,
				"element": "O" 
			},
			{
				"x": -3.9983895081,
				"y": -0.4779134943,
				"z": -3.5295185412,
				"element": "H" 
			},
			{
				"x": -4.8355782474,
				"y": -2.0504007913,
				"z": -3.6470315161,
				"element": "H" 
			},
			{
				"x": -3.0567063306,
				"y": -1.9789884031,
				"z": -3.7776092307,
				"element": "H" 
			},
			{
				"x": -4.5384722777,
				"y": -2.4296243701,
				"z": -0.0138664959,
				"element": "H" 
			},
			{
				"x": -2.0348360718,
				"y": -1.1777612264,
				"z": 2.1170756899,
				"element": "H" 
			},
			{
				"x": 0.0052658388,
				"y": 0.5972616699,
				"z": -1.2491374403,
				"element": "H" 
			},
			{
				"x": -1.7463916139,
				"y": -0.2646561479,
				"z": -2.7546173285,
				"element": "H" 
			},
			{
				"x": -0.1243172094,
				"y": -0.9464507945,
				"z": 3.1409699547,
				"element": "H" 
			},
			{
				"x": 4.5336510274,
				"y": 2.3612301547,
				"z": 4.941494475,
				"element": "H" 
			},
			{
				"x": 4.9645295196,
				"y": 3.6373385864,
				"z": 3.1580996588,
				"element": "H" 
			},
			{
				"x": 4.133146988,
				"y": 4.5405899516,
				"z": -0.1156012648,
				"element": "H" 
			},
			{
				"x": 2.3670432453,
				"y": 3.0283452347,
				"z": -0.2259589695,
				"element": "H" 
			}
		],
		 "valence_orbital": [ 
			{
				"type": "occ",
				"energy": -0.24072,
				"method": "rhf"
			},
			{
				"type": "occ",
				"energy": -0.22849,
				"method": "rhf"
			},
			{
				"type": "occ",
				"energy": -0.22277,
				"method": "rhf"
			},
			{
				"type": "occ",
				"energy": -0.21875,
				"method": "rhf"
			},
			{
				"type": "occ",
				"energy": -0.21063,
				"method": "rhf"
			},
			{
				"type": "unocc",
				"energy": -0.0494,
				"method": "rhf"
			},
			{
				"type": "unocc",
				"energy": -0.01472,
				"method": "rhf"
			},
			{
				"type": "unocc",
				"energy": 0.00065,
				"method": "rhf"
			},
			{
				"type": "unocc",
				"energy": 0.0076,
				"method": "rhf"
			},
			{
				"type": "unocc",
				"energy": 0.04398,
				"method": "rhf"
			}
		],
		"cosmo_sigma_profile": { 
			"-0.025": 0.0,
			"-0.024": 0.0,
			"-0.023": 0.0,
			"-0.022": 0.0,
			"-0.021": 0.0,
			"-0.02": 0.0,
			"-0.019": 0.405434874556,
			"-0.018": 2.31135645916,
			"-0.017": 1.92458520388,
			"-0.016": 2.20947398471,
			"-0.015": 2.09681960964,
			"-0.014": 2.39591278274,
			"-0.013": 3.04096681566,
			"-0.012": 1.85568466009,
			"-0.011": 3.21174981302,
			"-0.01": 3.16484616612,
			"-0.009": 2.9565294189,
			"-0.008": 5.33774558435,
			"-0.007": 8.91187030761,
			"-0.006": 14.9851049293,
			"-0.005": 16.9035884618,
			"-0.004": 18.786385681,
			"-0.003": 15.2350994713,
			"-0.002": 11.8539009947,
			"-0.001": 16.0735557681,
			"0.0": 21.3912542996,
			"0.001": 28.9887999911,
			"0.002": 32.0003970636,
			"0.003": 28.644454189,
			"0.004": 16.9577176575,
			"0.005": 6.29892853033,
			"0.006": 4.24954383954,
			"0.007": 4.85950825165,
			"0.008": 5.27568182959,
			"0.009": 5.00583245918,
			"0.01": 5.00458608097,
			"0.011": 4.17327393084,
			"0.012": 2.10057078207,
			"0.013": 3.59489048354,
			"0.014": 5.19057392889,
			"0.015": 3.24590441137,
			"0.016": 1.58343751539,
			"0.017": 1.51983980431,
			"0.018": 0.514660070881,
			"0.019": 0.0,
			"0.02": 0.0,
			"0.021": 0.0,
			"0.022": 0.0,
			"0.023": 0.0,
			"0.024": 0.0,
			"0.025": 0.0
		}
	}
}
