{
	 "smiles": "CC(C)COC(=O)C1=CC=C(O)C=C1", 
	 "Tm": 349.15, 
	 "num_atms": 28, 
	 "gaussian": { 
		 "optdone": 1, 
		 "sigma_profile": "yes", 
		 "theory": "DFT", 
		 "functional": "B3LYP", 
		 "basiset": "6-31G**", 
		 "properties": { 
			 "R2extent": 4072.3024, 
			 "electric_dipole_moment_norm": 1.37081157713, 
			 "electric_quadrupole_moment_norm": 18.9738892252, 
			 "total_energy": -653.305915863, 
			 "HOMO_LUMO_gap": 0.19821, 
			 "cosmo_polarized_energy": -12.01, 
			 "cosmo_cavitation_energy": 31.81, 
			 "cosmo_dispersion_energy": -22.43, 
			 "cosmo_repulsion_energy": 1.78, 
			 "cosmo_total_nonelectrostatic_energy": 11.16, 
			 "SMD_solvation_energy": 6.78 
		},
		"coords": [
			{
				"x": -3.5581586737,
				"y": -0.0082817004,
				"z": 1.6739054096,
				"element": "C" 
			},
			{
				"x": -2.5396834826,
				"y": -0.996292693,
				"z": 2.2620723538,
				"element": "C" 
			},
			{
				"x": -1.6374352298,
				"y": -0.3286248467,
				"z": 3.3106702881,
				"element": "C" 
			},
			{
				"x": -1.725495969,
				"y": -1.6894813581,
				"z": 1.1707232054,
				"element": "C" 
			},
			{
				"x": -0.9562484505,
				"y": -0.6926041282,
				"z": 0.4627697896,
				"element": "O" 
			},
			{
				"x": -0.177525785,
				"y": -1.155679963,
				"z": -0.5440866384,
				"element": "C" 
			},
			{
				"x": -0.1182886749,
				"y": -2.3336769291,
				"z": -0.8464840213,
				"element": "O" 
			},
			{
				"x": 0.582030859,
				"y": -0.0756679783,
				"z": -1.2234598203,
				"element": "C" 
			},
			{
				"x": 0.4910526485,
				"y": 1.2749035592,
				"z": -0.8492707436,
				"element": "C" 
			},
			{
				"x": 1.2238699108,
				"y": 2.2459942988,
				"z": -1.5187528238,
				"element": "C" 
			},
			{
				"x": 2.0631355361,
				"y": 1.8762920236,
				"z": -2.578697087,
				"element": "C" 
			},
			{
				"x": 2.7584738864,
				"y": 2.8680256335,
				"z": -3.2000859268,
				"element": "O" 
			},
			{
				"x": 2.1617458309,
				"y": 0.5312727901,
				"z": -2.9607099378,
				"element": "C" 
			},
			{
				"x": 1.4245196257,
				"y": -0.4333385756,
				"z": -2.2847310834,
				"element": "C" 
			},
			{
				"x": -4.2284449558,
				"y": -0.5031882698,
				"z": 0.96253784,
				"element": "H" 
			},
			{
				"x": -4.1739670712,
				"y": 0.4331448243,
				"z": 2.464186554,
				"element": "H" 
			},
			{
				"x": -3.0521562875,
				"y": 0.8057361398,
				"z": 1.1457100165,
				"element": "H" 
			},
			{
				"x": -3.0969092741,
				"y": -1.8048965298,
				"z": 2.7577401487,
				"element": "H" 
			},
			{
				"x": -0.9462139388,
				"y": -1.0505509125,
				"z": 3.7593272649,
				"element": "H" 
			},
			{
				"x": -2.235054946,
				"y": 0.1095733221,
				"z": 4.1165608542,
				"element": "H" 
			},
			{
				"x": -1.0405051437,
				"y": 0.4703779416,
				"z": 2.8602166827,
				"element": "H" 
			},
			{
				"x": -1.0374995168,
				"y": -2.4304795902,
				"z": 1.5916931531,
				"element": "H" 
			},
			{
				"x": -2.3721701207,
				"y": -2.2080506144,
				"z": 0.4548315718,
				"element": "H" 
			},
			{
				"x": -0.1586249797,
				"y": 1.5582804106,
				"z": -0.0293443259,
				"element": "H" 
			},
			{
				"x": 1.1633144231,
				"y": 3.2927330135,
				"z": -1.2404666328,
				"element": "H" 
			},
			{
				"x": 3.2957749251,
				"y": 2.487339087,
				"z": -3.9073378765,
				"element": "H" 
			},
			{
				"x": 2.8137837075,
				"y": 0.246158445,
				"z": -3.783726952,
				"element": "H" 
			},
			{
				"x": 1.4873811469,
				"y": -1.4792173999,
				"z": -2.5654912627,
				"element": "H" 
			}
		],
		 "valence_orbital": [ 
			{
				"type": "occ",
				"energy": -0.32568,
				"method": "rhf"
			},
			{
				"type": "occ",
				"energy": -0.29228,
				"method": "rhf"
			},
			{
				"type": "occ",
				"energy": -0.26567,
				"method": "rhf"
			},
			{
				"type": "occ",
				"energy": -0.26066,
				"method": "rhf"
			},
			{
				"type": "occ",
				"energy": -0.23134,
				"method": "rhf"
			},
			{
				"type": "unocc",
				"energy": -0.03313,
				"method": "rhf"
			},
			{
				"type": "unocc",
				"energy": -0.0087,
				"method": "rhf"
			},
			{
				"type": "unocc",
				"energy": 0.06283,
				"method": "rhf"
			},
			{
				"type": "unocc",
				"energy": 0.06894,
				"method": "rhf"
			},
			{
				"type": "unocc",
				"energy": 0.07796,
				"method": "rhf"
			}
		],
		"cosmo_sigma_profile": { 
			"-0.025": 0.0,
			"-0.024": 0.0,
			"-0.023": 0.0,
			"-0.022": 0.0,
			"-0.021": 0.0,
			"-0.02": 0.0,
			"-0.019": 0.0407974499886,
			"-0.018": 0.858092935073,
			"-0.017": 1.46855689526,
			"-0.016": 1.01449265856,
			"-0.015": 0.838751289717,
			"-0.014": 0.973231798328,
			"-0.013": 1.20548927588,
			"-0.012": 0.968415500157,
			"-0.011": 1.08926105941,
			"-0.01": 1.27244190903,
			"-0.009": 0.773127724211,
			"-0.008": 1.23532878258,
			"-0.007": 2.67263418255,
			"-0.006": 4.63232346304,
			"-0.005": 9.01524803239,
			"-0.004": 16.0764726785,
			"-0.003": 23.125484426,
			"-0.002": 23.1913695235,
			"-0.001": 23.9777515608,
			"0.0": 21.8286727609,
			"0.001": 28.0466678954,
			"0.002": 23.0715073809,
			"0.003": 18.5879596403,
			"0.004": 15.8084266604,
			"0.005": 3.74821054231,
			"0.006": 2.75008287072,
			"0.007": 3.0100292268,
			"0.008": 3.00618359095,
			"0.009": 3.54857095553,
			"0.01": 2.82518678454,
			"0.011": 3.42541359077,
			"0.012": 4.50771002832,
			"0.013": 1.78013073027,
			"0.014": 0.0,
			"0.015": 0.0,
			"0.016": 0.0,
			"0.017": 0.0,
			"0.018": 0.0,
			"0.019": 0.0,
			"0.02": 0.0,
			"0.021": 0.0,
			"0.022": 0.0,
			"0.023": 0.0,
			"0.024": 0.0,
			"0.025": 0.0
		}
	}
}
