{
	 "smiles": "OC(=O)C1CCN(CC1)C1=NN=C(Cl)C=C1", 
	 "Tm": 460.15, 
	 "num_atms": 28, 
	 "gaussian": { 
		 "optdone": 1, 
		 "sigma_profile": "yes", 
		 "theory": "DFT", 
		 "functional": "B3LYP", 
		 "basiset": "6-31G**", 
		 "properties": { 
			 "R2extent": 5992.8648, 
			 "electric_dipole_moment_norm": 3.96143225362, 
			 "electric_quadrupole_moment_norm": 35.7926666104, 
			 "total_energy": -1163.15777882, 
			 "HOMO_LUMO_gap": 0.16456, 
			 "cosmo_polarized_energy": -22.98, 
			 "cosmo_cavitation_energy": 32.59, 
			 "cosmo_dispersion_energy": -24.17, 
			 "cosmo_repulsion_energy": 1.87, 
			 "cosmo_total_nonelectrostatic_energy": 10.29, 
			 "SMD_solvation_energy": 3.58 
		},
		"coords": [
			{
				"x": 4.0387385255,
				"y": 2.0226195067,
				"z": 1.7781327448,
				"element": "O" 
			},
			{
				"x": 2.8493386403,
				"y": 2.3774330957,
				"z": 1.2227350138,
				"element": "C" 
			},
			{
				"x": 2.8264371352,
				"y": 3.1645081193,
				"z": 0.3086392362,
				"element": "O" 
			},
			{
				"x": 1.6160310156,
				"y": 1.7066524208,
				"z": 1.8313231982,
				"element": "C" 
			},
			{
				"x": 1.7437796339,
				"y": 0.1506561693,
				"z": 1.7649145769,
				"element": "C" 
			},
			{
				"x": 0.3906717226,
				"y": -0.5161738562,
				"z": 1.4993621772,
				"element": "C" 
			},
			{
				"x": -0.1600035355,
				"y": -0.0442449433,
				"z": 0.2261522992,
				"element": "N" 
			},
			{
				"x": -0.018345471,
				"y": 1.3775742451,
				"z": -0.1024691679,
				"element": "C" 
			},
			{
				"x": 0.3236221572,
				"y": 2.1900803037,
				"z": 1.1476877684,
				"element": "C" 
			},
			{
				"x": -0.7138847066,
				"y": -0.9228470627,
				"z": -0.6688183519,
				"element": "C" 
			},
			{
				"x": -0.8751671373,
				"y": -2.197512978,
				"z": -0.2516489084,
				"element": "N" 
			},
			{
				"x": -1.4068247837,
				"y": -3.1120776005,
				"z": -1.0588269486,
				"element": "N" 
			},
			{
				"x": -1.7937566799,
				"y": -2.7706487441,
				"z": -2.2716372473,
				"element": "C" 
			},
			{
				"x": -2.5010853354,
				"y": -4.0374069025,
				"z": -3.260754876,
				"element": "Cl" 
			},
			{
				"x": -1.6619197933,
				"y": -1.4751143856,
				"z": -2.7953312087,
				"element": "C" 
			},
			{
				"x": -1.1017461323,
				"y": -0.5227151874,
				"z": -1.9771850436,
				"element": "C" 
			},
			{
				"x": 3.9017120482,
				"y": 1.3918223779,
				"z": 2.4992107654,
				"element": "H" 
			},
			{
				"x": 1.5817277724,
				"y": 2.0127076155,
				"z": 2.8860984149,
				"element": "H" 
			},
			{
				"x": 2.4281320835,
				"y": -0.1398622427,
				"z": 0.9595454859,
				"element": "H" 
			},
			{
				"x": 2.159376065,
				"y": -0.2500478759,
				"z": 2.6970068646,
				"element": "H" 
			},
			{
				"x": -0.3065447299,
				"y": -0.3150146832,
				"z": 2.325660298,
				"element": "H" 
			},
			{
				"x": 0.4965961578,
				"y": -1.5984055088,
				"z": 1.4329010163,
				"element": "H" 
			},
			{
				"x": -0.9605509481,
				"y": 1.7520050796,
				"z": -0.5209534407,
				"element": "H" 
			},
			{
				"x": 0.7608719978,
				"y": 1.5342027854,
				"z": -0.8631824006,
				"element": "H" 
			},
			{
				"x": 0.4332530242,
				"y": 3.238500822,
				"z": 0.8625409902,
				"element": "H" 
			},
			{
				"x": -0.5075462386,
				"y": 2.1234076799,
				"z": 1.8570088328,
				"element": "H" 
			},
			{
				"x": -1.9795563271,
				"y": -1.2468537891,
				"z": -3.8063534922,
				"element": "H" 
			},
			{
				"x": -0.9494561605,
				"y": 0.4883555393,
				"z": -2.3336585968,
				"element": "H" 
			}
		],
		 "valence_orbital": [ 
			{
				"type": "occ",
				"energy": -0.3112,
				"method": "rhf"
			},
			{
				"type": "occ",
				"energy": -0.29381,
				"method": "rhf"
			},
			{
				"type": "occ",
				"energy": -0.28174,
				"method": "rhf"
			},
			{
				"type": "occ",
				"energy": -0.23595,
				"method": "rhf"
			},
			{
				"type": "occ",
				"energy": -0.21727,
				"method": "rhf"
			},
			{
				"type": "unocc",
				"energy": -0.05271,
				"method": "rhf"
			},
			{
				"type": "unocc",
				"energy": -0.01149,
				"method": "rhf"
			},
			{
				"type": "unocc",
				"energy": -0.00272,
				"method": "rhf"
			},
			{
				"type": "unocc",
				"energy": 0.03431,
				"method": "rhf"
			},
			{
				"type": "unocc",
				"energy": 0.03887,
				"method": "rhf"
			}
		],
		"cosmo_sigma_profile": { 
			"-0.025": 0.0,
			"-0.024": 0.0,
			"-0.023": 0.0,
			"-0.022": 0.0,
			"-0.021": 0.0,
			"-0.02": 0.0,
			"-0.019": 0.0424275423036,
			"-0.018": 0.760866399169,
			"-0.017": 0.946544120468,
			"-0.016": 1.59215462011,
			"-0.015": 1.05025691238,
			"-0.014": 0.691246979088,
			"-0.013": 1.21720436183,
			"-0.012": 0.946716300261,
			"-0.011": 1.45168110554,
			"-0.01": 1.08827721038,
			"-0.009": 3.00429313678,
			"-0.008": 6.27119705406,
			"-0.007": 8.78807697077,
			"-0.006": 10.2908200476,
			"-0.005": 19.3640278429,
			"-0.004": 22.860665771,
			"-0.003": 21.8980132792,
			"-0.002": 18.9375985874,
			"-0.001": 18.7922424805,
			"0.0": 16.7893994206,
			"0.001": 11.6228862301,
			"0.002": 10.7887409486,
			"0.003": 9.0880949065,
			"0.004": 13.3949108252,
			"0.005": 9.41920682894,
			"0.006": 6.56445835929,
			"0.007": 3.96118616041,
			"0.008": 4.62572713329,
			"0.009": 5.82980025967,
			"0.01": 6.90849391492,
			"0.011": 6.13638835577,
			"0.012": 7.70702591915,
			"0.013": 3.96745761609,
			"0.014": 2.21522838602,
			"0.015": 0.906650335681,
			"0.016": 0.089961705851,
			"0.017": 0.0,
			"0.018": 0.0,
			"0.019": 0.0,
			"0.02": 0.0,
			"0.021": 0.0,
			"0.022": 0.0,
			"0.023": 0.0,
			"0.024": 0.0,
			"0.025": 0.0
		}
	}
}
