{
	 "smiles": "OC(=O)C1=C2C=C(Br)C=CC2=NC(C=CC2=CC=C(OC(F)(F)F)C=C2)=C1", 
	 "Tm": 585.15, 
	 "num_atms": 38, 
	 "gaussian": { 
		 "optdone": 1, 
		 "sigma_profile": "yes", 
		 "theory": "DFT", 
		 "functional": "B3LYP", 
		 "basiset": "6-31G**", 
		 "properties": { 
			 "R2extent": 26922.9653, 
			 "electric_dipole_moment_norm": 1.73061269208, 
			 "electric_quadrupole_moment_norm": 27.2272552792, 
			 "total_energy": -3882.02049266, 
			 "HOMO_LUMO_gap": 0.12152, 
			 "cosmo_polarized_energy": -13.03, 
			 "cosmo_cavitation_energy": 48.39, 
			 "cosmo_dispersion_energy": -35.07, 
			 "cosmo_repulsion_energy": 2.53, 
			 "cosmo_total_nonelectrostatic_energy": 15.86, 
			 "SMD_solvation_energy": 8.24 
		},
		"coords": [
			{
				"x": -0.5129729044,
				"y": 3.7849697574,
				"z": -3.1880306778,
				"element": "O" 
			},
			{
				"x": 0.8335879663,
				"y": 3.6739551969,
				"z": -3.3063926049,
				"element": "C" 
			},
			{
				"x": 1.470358065,
				"y": 4.4526152841,
				"z": -3.9888411319,
				"element": "O" 
			},
			{
				"x": 1.3842489903,
				"y": 2.5252309913,
				"z": -2.5231432069,
				"element": "C" 
			},
			{
				"x": 2.7855931073,
				"y": 2.2145884744,
				"z": -2.4991928921,
				"element": "C" 
			},
			{
				"x": 3.7936425512,
				"y": 2.935087718,
				"z": -3.1932350089,
				"element": "C" 
			},
			{
				"x": 5.1071090306,
				"y": 2.5372747982,
				"z": -3.0905343856,
				"element": "C" 
			},
			{
				"x": 6.4586905549,
				"y": 3.5099465233,
				"z": -4.0258296029,
				"element": "Br" 
			},
			{
				"x": 5.5009803439,
				"y": 1.4247464951,
				"z": -2.3115130517,
				"element": "C" 
			},
			{
				"x": 4.5425018546,
				"y": 0.7143728656,
				"z": -1.6324656278,
				"element": "C" 
			},
			{
				"x": 3.1690968396,
				"y": 1.0803462482,
				"z": -1.7020156509,
				"element": "C" 
			},
			{
				"x": 2.2917830113,
				"y": 0.3230303581,
				"z": -0.9994985919,
				"element": "N" 
			},
			{
				"x": 1.0000513532,
				"y": 0.6303262848,
				"z": -1.0371085508,
				"element": "C" 
			},
			{
				"x": 0.0467831654,
				"y": -0.1849958654,
				"z": -0.2789587628,
				"element": "C" 
			},
			{
				"x": 0.4029699762,
				"y": -1.2479260639,
				"z": 0.4709649169,
				"element": "C" 
			},
			{
				"x": -0.4713350083,
				"y": -2.1156009848,
				"z": 1.2572295985,
				"element": "C" 
			},
			{
				"x": 0.100216138,
				"y": -3.1815794568,
				"z": 1.9786188821,
				"element": "C" 
			},
			{
				"x": -0.678042799,
				"y": -4.0411716154,
				"z": 2.7438142898,
				"element": "C" 
			},
			{
				"x": -2.0572182076,
				"y": -3.8472669418,
				"z": 2.8025726208,
				"element": "C" 
			},
			{
				"x": -2.7330945751,
				"y": -4.7673700297,
				"z": 3.6035484177,
				"element": "O" 
			},
			{
				"x": -4.083421948,
				"y": -4.7428122398,
				"z": 3.7239936617,
				"element": "C" 
			},
			{
				"x": -4.5331791919,
				"y": -3.5912636078,
				"z": 4.2613562477,
				"element": "F" 
			},
			{
				"x": -4.4285680994,
				"y": -5.7467625769,
				"z": 4.5270061914,
				"element": "F" 
			},
			{
				"x": -4.7101152165,
				"y": -4.9027564192,
				"z": 2.5422237915,
				"element": "F" 
			},
			{
				"x": -2.6630137482,
				"y": -2.8003173741,
				"z": 2.1021368318,
				"element": "C" 
			},
			{
				"x": -1.8668444447,
				"y": -1.9511180744,
				"z": 1.3406968801,
				"element": "C" 
			},
			{
				"x": 0.5184131173,
				"y": 1.733702918,
				"z": -1.7966403182,
				"element": "C" 
			},
			{
				"x": -0.7598102297,
				"y": 4.5526290119,
				"z": -3.7295609047,
				"element": "H" 
			},
			{
				"x": 3.5172428028,
				"y": 3.7883781496,
				"z": -3.794638652,
				"element": "H" 
			},
			{
				"x": 6.5472083011,
				"y": 1.1463201119,
				"z": -2.2587623201,
				"element": "H" 
			},
			{
				"x": 4.7991274318,
				"y": -0.145490303,
				"z": -1.0231106876,
				"element": "H" 
			},
			{
				"x": -0.9940240859,
				"y": 0.1207890315,
				"z": -0.3543941552,
				"element": "H" 
			},
			{
				"x": 1.4632804858,
				"y": -1.491378393,
				"z": 0.4966463922,
				"element": "H" 
			},
			{
				"x": 1.1747151789,
				"y": -3.3351945696,
				"z": 1.9348160505,
				"element": "H" 
			},
			{
				"x": -0.2368780685,
				"y": -4.8622469181,
				"z": 3.2982714466,
				"element": "H" 
			},
			{
				"x": -3.7321513815,
				"y": -2.6412236766,
				"z": 2.143915695,
				"element": "H" 
			},
			{
				"x": -2.3506953315,
				"y": -1.1428713107,
				"z": 0.8019413228,
				"element": "H" 
			},
			{
				"x": -0.5424350256,
				"y": 1.9520362027,
				"z": -1.8020864524,
				"element": "H" 
			}
		],
		 "valence_orbital": [ 
			{
				"type": "occ",
				"energy": -0.2727,
				"method": "rhf"
			},
			{
				"type": "occ",
				"energy": -0.26697,
				"method": "rhf"
			},
			{
				"type": "occ",
				"energy": -0.26224,
				"method": "rhf"
			},
			{
				"type": "occ",
				"energy": -0.24722,
				"method": "rhf"
			},
			{
				"type": "occ",
				"energy": -0.21633,
				"method": "rhf"
			},
			{
				"type": "unocc",
				"energy": -0.09481,
				"method": "rhf"
			},
			{
				"type": "unocc",
				"energy": -0.05791,
				"method": "rhf"
			},
			{
				"type": "unocc",
				"energy": -0.02221,
				"method": "rhf"
			},
			{
				"type": "unocc",
				"energy": -0.01888,
				"method": "rhf"
			},
			{
				"type": "unocc",
				"energy": -0.01139,
				"method": "rhf"
			}
		],
		"cosmo_sigma_profile": { 
			"-0.025": 0.0,
			"-0.024": 0.0,
			"-0.023": 0.0,
			"-0.022": 0.0,
			"-0.021": 0.0,
			"-0.02": 0.0,
			"-0.019": 0.259496348175,
			"-0.018": 1.08116560203,
			"-0.017": 0.796681837692,
			"-0.016": 0.841497409387,
			"-0.015": 0.753658290982,
			"-0.014": 0.821074367163,
			"-0.013": 0.450236841852,
			"-0.012": 0.376990393875,
			"-0.011": 0.992774117007,
			"-0.01": 0.557149992158,
			"-0.009": 1.24645925505,
			"-0.008": 6.53726281466,
			"-0.007": 12.9976387306,
			"-0.006": 14.8352229853,
			"-0.005": 14.4923572753,
			"-0.004": 14.6642977181,
			"-0.003": 18.7161958551,
			"-0.002": 22.1590440182,
			"-0.001": 32.2064772381,
			"0.0": 40.9341121436,
			"0.001": 56.242299812,
			"0.002": 61.3376690066,
			"0.003": 35.3798039906,
			"0.004": 23.8235025687,
			"0.005": 10.6894877112,
			"0.006": 5.57149547181,
			"0.007": 3.34785405238,
			"0.008": 2.7489496279,
			"0.009": 3.52204943742,
			"0.01": 3.53190937807,
			"0.011": 2.04533577646,
			"0.012": 0.155984036659,
			"0.013": 0.0,
			"0.014": 0.0,
			"0.015": 0.0,
			"0.016": 0.0,
			"0.017": 0.0,
			"0.018": 0.0,
			"0.019": 0.0,
			"0.02": 0.0,
			"0.021": 0.0,
			"0.022": 0.0,
			"0.023": 0.0,
			"0.024": 0.0,
			"0.025": 0.0
		}
	}
}
