{
	 "smiles": "CC1=CC=C(C=C1)S(=O)(=O)OCC1COC(C)(C)O1", 
	 "Tm": 303.15, 
	 "num_atms": 37, 
	 "gaussian": { 
		 "optdone": 1, 
		 "sigma_profile": "yes", 
		 "theory": "DFT", 
		 "functional": "B3LYP", 
		 "basiset": "6-31G**", 
		 "properties": { 
			 "R2extent": 7136.3528, 
			 "electric_dipole_moment_norm": 4.03015075897, 
			 "electric_quadrupole_moment_norm": 27.1859243056, 
			 "total_energy": -1280.46779398, 
			 "HOMO_LUMO_gap": 0.20925, 
			 "cosmo_polarized_energy": -15.44, 
			 "cosmo_cavitation_energy": 41.28, 
			 "cosmo_dispersion_energy": -28.27, 
			 "cosmo_repulsion_energy": 2.17, 
			 "cosmo_total_nonelectrostatic_energy": 15.19, 
			 "SMD_solvation_energy": 6.11 
		},
		"coords": [
			{
				"x": 1.3378041566,
				"y": 0.6820551409,
				"z": 5.1156271175,
				"element": "C" 
			},
			{
				"x": 0.7813465584,
				"y": 1.2439989011,
				"z": 3.830024022,
				"element": "C" 
			},
			{
				"x": -0.5464151208,
				"y": 0.9892004242,
				"z": 3.4537207593,
				"element": "C" 
			},
			{
				"x": -1.0633449089,
				"y": 1.4798214385,
				"z": 2.257682884,
				"element": "C" 
			},
			{
				"x": -0.2346679135,
				"y": 2.2357833702,
				"z": 1.4265115184,
				"element": "C" 
			},
			{
				"x": 1.086259096,
				"y": 2.5170071629,
				"z": 1.7766228774,
				"element": "C" 
			},
			{
				"x": 1.5835695313,
				"y": 2.017157094,
				"z": 2.9782244178,
				"element": "C" 
			},
			{
				"x": -0.8865387889,
				"y": 2.8783364197,
				"z": -0.0988247486,
				"element": "S" 
			},
			{
				"x": -2.3383961669,
				"y": 3.024330987,
				"z": -0.0028972107,
				"element": "O" 
			},
			{
				"x": -0.0635758938,
				"y": 3.9967627864,
				"z": -0.5599648864,
				"element": "O" 
			},
			{
				"x": -0.5579419833,
				"y": 1.570107876,
				"z": -1.0460283119,
				"element": "O" 
			},
			{
				"x": -1.0233836523,
				"y": 1.6764772822,
				"z": -2.4154007826,
				"element": "C" 
			},
			{
				"x": -0.5806796377,
				"y": 0.4400341436,
				"z": -3.1806894746,
				"element": "C" 
			},
			{
				"x": 0.9171735844,
				"y": 0.0985492784,
				"z": -3.0941816883,
				"element": "C" 
			},
			{
				"x": 0.9264018409,
				"y": -1.318687347,
				"z": -3.1744885774,
				"element": "O" 
			},
			{
				"x": -0.260801701,
				"y": -1.7829227061,
				"z": -2.53514622,
				"element": "C" 
			},
			{
				"x": -0.024876987,
				"y": -2.039731823,
				"z": -1.0454802789,
				"element": "C" 
			},
			{
				"x": -0.7500518006,
				"y": -3.0140458057,
				"z": -3.2855283183,
				"element": "C" 
			},
			{
				"x": -1.2247510814,
				"y": -0.7238284696,
				"z": -2.6778598113,
				"element": "O" 
			},
			{
				"x": 1.7279998861,
				"y": -0.3315724103,
				"z": 4.9609095447,
				"element": "H" 
			},
			{
				"x": 2.1598881944,
				"y": 1.2935031916,
				"z": 5.4978341793,
				"element": "H" 
			},
			{
				"x": 0.5687380369,
				"y": 0.6190086317,
				"z": 5.8909112703,
				"element": "H" 
			},
			{
				"x": -1.1854443848,
				"y": 0.4046065776,
				"z": 4.1099635574,
				"element": "H" 
			},
			{
				"x": -2.0938247163,
				"y": 1.2964808534,
				"z": 1.9740527673,
				"element": "H" 
			},
			{
				"x": 1.7003619705,
				"y": 3.1280325616,
				"z": 1.1243836163,
				"element": "H" 
			},
			{
				"x": 2.6091310212,
				"y": 2.2363876745,
				"z": 3.2624932937,
				"element": "H" 
			},
			{
				"x": -2.1143810983,
				"y": 1.7515573612,
				"z": -2.4180037375,
				"element": "H" 
			},
			{
				"x": -0.5957356637,
				"y": 2.5743712634,
				"z": -2.8765230995,
				"element": "H" 
			},
			{
				"x": -0.8775433076,
				"y": 0.5993795768,
				"z": -4.2298042538,
				"element": "H" 
			},
			{
				"x": 1.3516669697,
				"y": 0.4571013751,
				"z": -2.1524982777,
				"element": "H" 
			},
			{
				"x": 1.4978149319,
				"y": 0.4955096602,
				"z": -3.9308209649,
				"element": "H" 
			},
			{
				"x": 0.3159689882,
				"y": -1.1267716353,
				"z": -0.5516764368,
				"element": "H" 
			},
			{
				"x": -0.9563582627,
				"y": -2.3553127272,
				"z": -0.5669429148,
				"element": "H" 
			},
			{
				"x": 0.7256219051,
				"y": -2.8238479362,
				"z": -0.9096336352,
				"element": "H" 
			},
			{
				"x": -0.9070381195,
				"y": -2.7630541198,
				"z": -4.3369530492,
				"element": "H" 
			},
			{
				"x": -0.0106796245,
				"y": -3.8171198892,
				"z": -3.2196900397,
				"element": "H" 
			},
			{
				"x": -1.692315858,
				"y": -3.3671661629,
				"z": -2.8585251074,
				"element": "H" 
			}
		],
		 "valence_orbital": [ 
			{
				"type": "occ",
				"energy": -0.28867,
				"method": "rhf"
			},
			{
				"type": "occ",
				"energy": -0.27341,
				"method": "rhf"
			},
			{
				"type": "occ",
				"energy": -0.26892,
				"method": "rhf"
			},
			{
				"type": "occ",
				"energy": -0.2653,
				"method": "rhf"
			},
			{
				"type": "occ",
				"energy": -0.25273,
				"method": "rhf"
			},
			{
				"type": "unocc",
				"energy": -0.04348,
				"method": "rhf"
			},
			{
				"type": "unocc",
				"energy": -0.02373,
				"method": "rhf"
			},
			{
				"type": "unocc",
				"energy": 0.04517,
				"method": "rhf"
			},
			{
				"type": "unocc",
				"energy": 0.06941,
				"method": "rhf"
			},
			{
				"type": "unocc",
				"energy": 0.09058,
				"method": "rhf"
			}
		],
		"cosmo_sigma_profile": { 
			"-0.025": 0.0,
			"-0.024": 0.0,
			"-0.023": 0.0,
			"-0.022": 0.0,
			"-0.021": 0.0,
			"-0.02": 0.0,
			"-0.019": 0.0,
			"-0.018": 0.0,
			"-0.017": 0.0,
			"-0.016": 0.0,
			"-0.015": 0.0,
			"-0.014": 0.0,
			"-0.013": 0.0,
			"-0.012": 0.0,
			"-0.011": 0.0,
			"-0.01": 0.0,
			"-0.009": 0.0,
			"-0.008": 1.78438663526,
			"-0.007": 11.2363081774,
			"-0.006": 22.1114621958,
			"-0.005": 21.9004552077,
			"-0.004": 27.2716538373,
			"-0.003": 27.7909857695,
			"-0.002": 28.4142784681,
			"-0.001": 30.6861046883,
			"0.0": 30.5974316226,
			"0.001": 22.5566526643,
			"0.002": 20.904686907,
			"0.003": 18.2856392558,
			"0.004": 6.98294596656,
			"0.005": 5.6713099251,
			"0.006": 5.18222453637,
			"0.007": 7.12323879967,
			"0.008": 6.04817429475,
			"0.009": 8.33527422475,
			"0.01": 12.3411316214,
			"0.011": 6.2469081499,
			"0.012": 3.11508251899,
			"0.013": 0.589775214526,
			"0.014": 0.0,
			"0.015": 0.0,
			"0.016": 0.0,
			"0.017": 0.0,
			"0.018": 0.0,
			"0.019": 0.0,
			"0.02": 0.0,
			"0.021": 0.0,
			"0.022": 0.0,
			"0.023": 0.0,
			"0.024": 0.0,
			"0.025": 0.0
		}
	}
}
