{
	 "smiles": "CC(=O)NCC1CN(C(=O)O1)C1=CC(F)=C(C=C1)N1CCOCC1", 
	 "Tm": 455.15, 
	 "num_atms": 44, 
	 "gaussian": { 
		 "optdone": 1, 
		 "sigma_profile": "yes", 
		 "theory": "DFT", 
		 "functional": "B3LYP", 
		 "basiset": "6-31G**", 
		 "properties": { 
			 "R2extent": 11048.2269, 
			 "electric_dipole_moment_norm": 3.05919638794, 
			 "electric_quadrupole_moment_norm": 17.1161787695, 
			 "total_energy": -1186.75615381, 
			 "HOMO_LUMO_gap": 0.1813, 
			 "cosmo_polarized_energy": -22.86, 
			 "cosmo_cavitation_energy": 45.69, 
			 "cosmo_dispersion_energy": -32.06, 
			 "cosmo_repulsion_energy": 2.42, 
			 "cosmo_total_nonelectrostatic_energy": 16.05, 
			 "SMD_solvation_energy": 7.62 
		},
		"coords": [
			{
				"x": 0.7141968809,
				"y": 1.6716271272,
				"z": 4.6037452355,
				"element": "C" 
			},
			{
				"x": 0.0678553947,
				"y": 2.6412332101,
				"z": 3.629705606,
				"element": "C" 
			},
			{
				"x": 0.7297537466,
				"y": 3.4019179038,
				"z": 2.9304398284,
				"element": "O" 
			},
			{
				"x": -1.301801852,
				"y": 2.6129478866,
				"z": 3.5867915872,
				"element": "N" 
			},
			{
				"x": -2.0720172405,
				"y": 3.5097930688,
				"z": 2.745243227,
				"element": "C" 
			},
			{
				"x": -2.5836471154,
				"y": 2.8414040194,
				"z": 1.4666569156,
				"element": "C" 
			},
			{
				"x": -1.475268394,
				"y": 2.2713441985,
				"z": 0.5529091948,
				"element": "C" 
			},
			{
				"x": -1.7204887742,
				"y": 0.8361441084,
				"z": 0.6169172734,
				"element": "N" 
			},
			{
				"x": -2.8446182863,
				"y": 0.5401192815,
				"z": 1.3622066867,
				"element": "C" 
			},
			{
				"x": -3.3307163889,
				"y": -0.5386144453,
				"z": 1.6146873714,
				"element": "O" 
			},
			{
				"x": -3.3925043762,
				"y": 1.7070020074,
				"z": 1.8278071502,
				"element": "O" 
			},
			{
				"x": -0.8979143179,
				"y": -0.0979377248,
				"z": -0.0557620462,
				"element": "C" 
			},
			{
				"x": -1.1580020112,
				"y": -1.4789183944,
				"z": -0.022717455,
				"element": "C" 
			},
			{
				"x": -0.3121784342,
				"y": -2.343976633,
				"z": -0.6885730646,
				"element": "C" 
			},
			{
				"x": -0.5803276225,
				"y": -3.6705918125,
				"z": -0.5866506872,
				"element": "F" 
			},
			{
				"x": 0.8022307645,
				"y": -1.9375651368,
				"z": -1.4525593928,
				"element": "C" 
			},
			{
				"x": 1.0296204499,
				"y": -0.5514685113,
				"z": -1.4672664968,
				"element": "C" 
			},
			{
				"x": 0.2136625702,
				"y": 0.3490175086,
				"z": -0.7805416231,
				"element": "C" 
			},
			{
				"x": 1.64197326,
				"y": -2.8879012138,
				"z": -2.0578270695,
				"element": "N" 
			},
			{
				"x": 2.9645521965,
				"y": -2.4895838209,
				"z": -2.5382192051,
				"element": "C" 
			},
			{
				"x": 2.9454703749,
				"y": -2.0796965609,
				"z": -4.0163172974,
				"element": "C" 
			},
			{
				"x": 2.3979110804,
				"y": -3.1211775783,
				"z": -4.8157732312,
				"element": "O" 
			},
			{
				"x": 1.0793308373,
				"y": -3.461022949,
				"z": -4.3975754795,
				"element": "C" 
			},
			{
				"x": 1.0617564523,
				"y": -3.9169964138,
				"z": -2.9363382034,
				"element": "C" 
			},
			{
				"x": 1.3090731909,
				"y": 2.2432586462,
				"z": 5.3213957908,
				"element": "H" 
			},
			{
				"x": -0.0004642481,
				"y": 1.0489730997,
				"z": 5.1481565651,
				"element": "H" 
			},
			{
				"x": 1.4021519044,
				"y": 1.0260272859,
				"z": 4.0516051722,
				"element": "H" 
			},
			{
				"x": -1.8033036844,
				"y": 1.9349326425,
				"z": 4.1401722699,
				"element": "H" 
			},
			{
				"x": -2.9284270801,
				"y": 3.8910675907,
				"z": 3.311433329,
				"element": "H" 
			},
			{
				"x": -1.4239674797,
				"y": 4.3505722154,
				"z": 2.4830073326,
				"element": "H" 
			},
			{
				"x": -3.2248533792,
				"y": 3.5467172185,
				"z": 0.9275198308,
				"element": "H" 
			},
			{
				"x": -1.5671849402,
				"y": 2.6377594185,
				"z": -0.4767497343,
				"element": "H" 
			},
			{
				"x": -0.4789843373,
				"y": 2.5282191934,
				"z": 0.9259515105,
				"element": "H" 
			},
			{
				"x": -1.9918279423,
				"y": -1.878328471,
				"z": 0.5364951726,
				"element": "H" 
			},
			{
				"x": 1.8613926559,
				"y": -0.1507311413,
				"z": -2.0342596408,
				"element": "H" 
			},
			{
				"x": 0.4561308021,
				"y": 1.4034885765,
				"z": -0.832910313,
				"element": "H" 
			},
			{
				"x": 3.626333127,
				"y": -3.3604763947,
				"z": -2.4366526912,
				"element": "H" 
			},
			{
				"x": 3.3694888369,
				"y": -1.6955540185,
				"z": -1.9053093977,
				"element": "H" 
			},
			{
				"x": 3.9612864432,
				"y": -1.9055341928,
				"z": -4.3856037978,
				"element": "H" 
			},
			{
				"x": 2.3630257289,
				"y": -1.1534329932,
				"z": -4.1527947534,
				"element": "H" 
			},
			{
				"x": 0.7432176763,
				"y": -4.264860456,
				"z": -5.0603198634,
				"element": "H" 
			},
			{
				"x": 0.4048485248,
				"y": -2.5975977275,
				"z": -4.5271988486,
				"element": "H" 
			},
			{
				"x": 0.048650323,
				"y": -4.1544567234,
				"z": -2.6154635327,
				"element": "H" 
			},
			{
				"x": 1.6680846828,
				"y": -4.8272428946,
				"z": -2.840463225,
				"element": "H" 
			}
		],
		 "valence_orbital": [ 
			{
				"type": "occ",
				"energy": -0.26652,
				"method": "rhf"
			},
			{
				"type": "occ",
				"energy": -0.25946,
				"method": "rhf"
			},
			{
				"type": "occ",
				"energy": -0.24647,
				"method": "rhf"
			},
			{
				"type": "occ",
				"energy": -0.2426,
				"method": "rhf"
			},
			{
				"type": "occ",
				"energy": -0.1858,
				"method": "rhf"
			},
			{
				"type": "unocc",
				"energy": -0.0045,
				"method": "rhf"
			},
			{
				"type": "unocc",
				"energy": 0.00206,
				"method": "rhf"
			},
			{
				"type": "unocc",
				"energy": 0.01538,
				"method": "rhf"
			},
			{
				"type": "unocc",
				"energy": 0.05596,
				"method": "rhf"
			},
			{
				"type": "unocc",
				"energy": 0.06425,
				"method": "rhf"
			}
		],
		"cosmo_sigma_profile": { 
			"-0.025": 0.0,
			"-0.024": 0.0,
			"-0.023": 0.0,
			"-0.022": 0.0,
			"-0.021": 0.0,
			"-0.02": 0.0,
			"-0.019": 0.0,
			"-0.018": 0.0,
			"-0.017": 0.0,
			"-0.016": 0.0,
			"-0.015": 0.0339787805404,
			"-0.014": 0.806047352707,
			"-0.013": 1.10065066931,
			"-0.012": 1.46309575262,
			"-0.011": 1.02713117814,
			"-0.01": 1.27245277726,
			"-0.009": 1.58238385817,
			"-0.008": 2.88741112514,
			"-0.007": 15.8455706183,
			"-0.006": 22.8924694767,
			"-0.005": 27.2390813071,
			"-0.004": 35.0298979303,
			"-0.003": 37.048709988,
			"-0.002": 30.8878631993,
			"-0.001": 23.9340458096,
			"0.0": 17.408575583,
			"0.001": 14.0884299594,
			"0.002": 17.5804719376,
			"0.003": 18.0293829966,
			"0.004": 20.5378892777,
			"0.005": 13.5048052391,
			"0.006": 7.11369300783,
			"0.007": 5.68671893648,
			"0.008": 6.04164854001,
			"0.009": 5.34198129987,
			"0.01": 6.41587024367,
			"0.011": 6.09348759865,
			"0.012": 6.45796402122,
			"0.013": 6.79161611127,
			"0.014": 4.86283111703,
			"0.015": 1.44184161187,
			"0.016": 0.0982199305501,
			"0.017": 0.0,
			"0.018": 0.0,
			"0.019": 0.0,
			"0.02": 0.0,
			"0.021": 0.0,
			"0.022": 0.0,
			"0.023": 0.0,
			"0.024": 0.0,
			"0.025": 0.0
		}
	}
}
