{
	 "smiles": "NC1=C(C=CC=C1)C(=O)N1CCCCC1", 
	 "Tm": 354.15, 
	 "num_atms": 31, 
	 "gaussian": { 
		 "optdone": 1, 
		 "sigma_profile": "yes", 
		 "theory": "DFT", 
		 "functional": "B3LYP", 
		 "basiset": "6-31G**", 
		 "properties": { 
			 "R2extent": 3810.0109, 
			 "electric_dipole_moment_norm": 1.88218939005, 
			 "electric_quadrupole_moment_norm": 11.2924329048, 
			 "total_energy": -651.679676617, 
			 "HOMO_LUMO_gap": 0.17618, 
			 "cosmo_polarized_energy": -10.42, 
			 "cosmo_cavitation_energy": 31.75, 
			 "cosmo_dispersion_energy": -23.24, 
			 "cosmo_repulsion_energy": 1.83, 
			 "cosmo_total_nonelectrostatic_energy": 10.33, 
			 "SMD_solvation_energy": 4.45 
		},
		"coords": [
			{
				"x": -3.0453767971,
				"y": 0.4407947199,
				"z": -1.8085110647,
				"element": "N" 
			},
			{
				"x": -1.8788232889,
				"y": 0.2233214182,
				"z": -2.5184462339,
				"element": "C" 
			},
			{
				"x": -0.7817465949,
				"y": -0.4683132561,
				"z": -1.9353701579,
				"element": "C" 
			},
			{
				"x": 0.3721209808,
				"y": -0.689427638,
				"z": -2.7029335738,
				"element": "C" 
			},
			{
				"x": 0.4947927819,
				"y": -0.2055853072,
				"z": -4.0018097149,
				"element": "C" 
			},
			{
				"x": -0.5645244185,
				"y": 0.5247598464,
				"z": -4.5501597674,
				"element": "C" 
			},
			{
				"x": -1.7293496233,
				"y": 0.7344873294,
				"z": -3.8233788244,
				"element": "C" 
			},
			{
				"x": -0.9284936228,
				"y": -1.0590332184,
				"z": -0.565430419,
				"element": "C" 
			},
			{
				"x": -1.9958490793,
				"y": -1.5882140865,
				"z": -0.2223709827,
				"element": "O" 
			},
			{
				"x": 0.1595154181,
				"y": -1.0491610054,
				"z": 0.2796331234,
				"element": "N" 
			},
			{
				"x": 0.055329554,
				"y": -1.7798998901,
				"z": 1.5488814243,
				"element": "C" 
			},
			{
				"x": -0.1331192546,
				"y": -0.8288279703,
				"z": 2.7379340687,
				"element": "C" 
			},
			{
				"x": 0.9850681126,
				"y": 0.2230209765,
				"z": 2.7734596715,
				"element": "C" 
			},
			{
				"x": 1.0915933445,
				"y": 0.9441875371,
				"z": 1.4225240539,
				"element": "C" 
			},
			{
				"x": 1.234287464,
				"y": -0.0495071398,
				"z": 0.2566842203,
				"element": "C" 
			},
			{
				"x": -3.8483064287,
				"y": 0.6958875819,
				"z": -2.3648381274,
				"element": "H" 
			},
			{
				"x": -3.2264448496,
				"y": -0.2644655002,
				"z": -1.1023449885,
				"element": "H" 
			},
			{
				"x": 1.1787364031,
				"y": -1.2734887999,
				"z": -2.2693229601,
				"element": "H" 
			},
			{
				"x": 1.3944803545,
				"y": -0.3967632513,
				"z": -4.5775584082,
				"element": "H" 
			},
			{
				"x": -0.4888853154,
				"y": 0.9204934209,
				"z": -5.5594238688,
				"element": "H" 
			},
			{
				"x": -2.5552932125,
				"y": 1.2865766105,
				"z": -4.2655877678,
				"element": "H" 
			},
			{
				"x": -0.7777918298,
				"y": -2.4759840038,
				"z": 1.4618937122,
				"element": "H" 
			},
			{
				"x": 0.9838629349,
				"y": -2.354741591,
				"z": 1.678621549,
				"element": "H" 
			},
			{
				"x": -1.1094779033,
				"y": -0.3379117314,
				"z": 2.6418809245,
				"element": "H" 
			},
			{
				"x": -0.1519874332,
				"y": -1.4079177488,
				"z": 3.668865667,
				"element": "H" 
			},
			{
				"x": 0.8120963967,
				"y": 0.9454920771,
				"z": 3.5792287905,
				"element": "H" 
			},
			{
				"x": 1.9412772414,
				"y": -0.272307543,
				"z": 2.9963558576,
				"element": "H" 
			},
			{
				"x": 1.948357387,
				"y": 1.6288164788,
				"z": 1.4128945853,
				"element": "H" 
			},
			{
				"x": 0.1924153138,
				"y": 1.5511969802,
				"z": 1.25533483,
				"element": "H" 
			},
			{
				"x": 2.1995736207,
				"y": -0.5717356848,
				"z": 0.3305128427,
				"element": "H" 
			},
			{
				"x": 1.2172623439,
				"y": 0.4809503891,
				"z": -0.6932184613,
				"element": "H" 
			}
		],
		 "valence_orbital": [ 
			{
				"type": "occ",
				"energy": -0.30391,
				"method": "rhf"
			},
			{
				"type": "occ",
				"energy": -0.25584,
				"method": "rhf"
			},
			{
				"type": "occ",
				"energy": -0.23973,
				"method": "rhf"
			},
			{
				"type": "occ",
				"energy": -0.23065,
				"method": "rhf"
			},
			{
				"type": "occ",
				"energy": -0.19791,
				"method": "rhf"
			},
			{
				"type": "unocc",
				"energy": -0.02173,
				"method": "rhf"
			},
			{
				"type": "unocc",
				"energy": 0.01545,
				"method": "rhf"
			},
			{
				"type": "unocc",
				"energy": 0.05434,
				"method": "rhf"
			},
			{
				"type": "unocc",
				"energy": 0.08989,
				"method": "rhf"
			},
			{
				"type": "unocc",
				"energy": 0.09989,
				"method": "rhf"
			}
		],
		"cosmo_sigma_profile": { 
			"-0.025": 0.0,
			"-0.024": 0.0,
			"-0.023": 0.0,
			"-0.022": 0.0,
			"-0.021": 0.0,
			"-0.02": 0.0,
			"-0.019": 0.0,
			"-0.018": 0.0,
			"-0.017": 0.0,
			"-0.016": 0.0,
			"-0.015": 0.0,
			"-0.014": 0.0,
			"-0.013": 0.233148326779,
			"-0.012": 1.22248480168,
			"-0.011": 1.45718438223,
			"-0.01": 1.28491830182,
			"-0.009": 1.23538657448,
			"-0.008": 2.14236432791,
			"-0.007": 2.92439210613,
			"-0.006": 3.96387282861,
			"-0.005": 8.68992316363,
			"-0.004": 17.4566258613,
			"-0.003": 33.2650137654,
			"-0.002": 36.4959735331,
			"-0.001": 28.4913485707,
			"0.0": 22.8844170436,
			"0.001": 16.1738013677,
			"0.002": 9.25802632397,
			"0.003": 9.85967940723,
			"0.004": 11.0669327218,
			"0.005": 11.4487100479,
			"0.006": 9.6731957552,
			"0.007": 2.78497836225,
			"0.008": 2.50429166706,
			"0.009": 2.2666309992,
			"0.01": 2.74721077611,
			"0.011": 1.67154424655,
			"0.012": 2.47287187441,
			"0.013": 3.29494112402,
			"0.014": 2.13327994222,
			"0.015": 0.0,
			"0.016": 0.0,
			"0.017": 0.0,
			"0.018": 0.0,
			"0.019": 0.0,
			"0.02": 0.0,
			"0.021": 0.0,
			"0.022": 0.0,
			"0.023": 0.0,
			"0.024": 0.0,
			"0.025": 0.0
		}
	}
}
