{
	 "smiles": "OC1CCN(CC2=CC=C(C=C2)C(O)=O)CC1", 
	 "Tm": 493.15, 
	 "num_atms": 34, 
	 "gaussian": { 
		 "optdone": 1, 
		 "sigma_profile": "yes", 
		 "theory": "DFT", 
		 "functional": "B3LYP", 
		 "basiset": "6-31G**", 
		 "properties": { 
			 "R2extent": 6949.644, 
			 "electric_dipole_moment_norm": 2.20315091403, 
			 "electric_quadrupole_moment_norm": 18.1240467606, 
			 "total_energy": -786.055196678, 
			 "HOMO_LUMO_gap": 0.16507, 
			 "cosmo_polarized_energy": -14.56, 
			 "cosmo_cavitation_energy": 36.02, 
			 "cosmo_dispersion_energy": -25.92, 
			 "cosmo_repulsion_energy": 2.02, 
			 "cosmo_total_nonelectrostatic_energy": 12.11, 
			 "SMD_solvation_energy": 5.39 
		},
		"coords": [
			{
				"x": 2.4859978725,
				"y": -3.4272350184,
				"z": -2.6922194765,
				"element": "O" 
			},
			{
				"x": 1.2011923536,
				"y": -3.0095057798,
				"z": -2.2289472009,
				"element": "C" 
			},
			{
				"x": 0.8835909113,
				"y": -1.6724464962,
				"z": -2.9227920197,
				"element": "C" 
			},
			{
				"x": 1.3114406336,
				"y": -0.4925601907,
				"z": -2.0420137707,
				"element": "C" 
			},
			{
				"x": 0.5910852033,
				"y": -0.4427267258,
				"z": -0.7515797182,
				"element": "N" 
			},
			{
				"x": -0.5030254853,
				"y": 0.5175050233,
				"z": -0.6958996918,
				"element": "C" 
			},
			{
				"x": -0.8878684096,
				"y": 0.9025923905,
				"z": 0.7238217077,
				"element": "C" 
			},
			{
				"x": -2.228199678,
				"y": 1.1286046411,
				"z": 1.0627495251,
				"element": "C" 
			},
			{
				"x": -2.5793857477,
				"y": 1.5379909268,
				"z": 2.34570913,
				"element": "C" 
			},
			{
				"x": -1.5897502642,
				"y": 1.721169603,
				"z": 3.3199293443,
				"element": "C" 
			},
			{
				"x": -0.2456214777,
				"y": 1.489443459,
				"z": 2.9910053363,
				"element": "C" 
			},
			{
				"x": 0.0975105291,
				"y": 1.0854075558,
				"z": 1.7044181708,
				"element": "C" 
			},
			{
				"x": -2.0148820439,
				"y": 2.1529631382,
				"z": 4.6751144087,
				"element": "C" 
			},
			{
				"x": -0.9773526909,
				"y": 2.2978811433,
				"z": 5.5399532656,
				"element": "O" 
			},
			{
				"x": -3.1639404046,
				"y": 2.3650920754,
				"z": 5.0124176503,
				"element": "O" 
			},
			{
				"x": 0.1822426682,
				"y": -1.7676722323,
				"z": -0.2601470122,
				"element": "C" 
			},
			{
				"x": 1.1846591502,
				"y": -2.8382643441,
				"z": -0.693404038,
				"element": "C" 
			},
			{
				"x": 2.73531782,
				"y": -4.22190125,
				"z": -2.2022677746,
				"element": "H" 
			},
			{
				"x": 0.440664811,
				"y": -3.7519660977,
				"z": -2.5204355684,
				"element": "H" 
			},
			{
				"x": -0.1910132495,
				"y": -1.6098296229,
				"z": -3.1307098193,
				"element": "H" 
			},
			{
				"x": 1.4031912533,
				"y": -1.6516240764,
				"z": -3.8859992359,
				"element": "H" 
			},
			{
				"x": 1.1570866596,
				"y": 0.4565051863,
				"z": -2.5639423016,
				"element": "H" 
			},
			{
				"x": 2.3898613182,
				"y": -0.5720227536,
				"z": -1.8524059625,
				"element": "H" 
			},
			{
				"x": -1.4119791995,
				"y": 0.1646077021,
				"z": -1.2234050208,
				"element": "H" 
			},
			{
				"x": -0.1777486052,
				"y": 1.4278563829,
				"z": -1.2158352594,
				"element": "H" 
			},
			{
				"x": -3.0023035933,
				"y": 0.9800280185,
				"z": 0.3138610929,
				"element": "H" 
			},
			{
				"x": -3.6148931348,
				"y": 1.7147643737,
				"z": 2.6166550707,
				"element": "H" 
			},
			{
				"x": 0.5211617882,
				"y": 1.6281833169,
				"z": 3.745025956,
				"element": "H" 
			},
			{
				"x": 1.1329574508,
				"y": 0.8927627839,
				"z": 1.4415027449,
				"element": "H" 
			},
			{
				"x": -1.3761849609,
				"y": 2.5804135212,
				"z": 6.3790964648,
				"element": "H" 
			},
			{
				"x": 0.1016715068,
				"y": -1.7351208483,
				"z": 0.831864612,
				"element": "H" 
			},
			{
				"x": -0.8239763496,
				"y": -2.0432161494,
				"z": -0.6357972377,
				"element": "H" 
			},
			{
				"x": 2.1893936752,
				"y": -2.5367318616,
				"z": -0.3741556757,
				"element": "H" 
			},
			{
				"x": 0.9556996897,
				"y": -3.7880477946,
				"z": -0.1964676961,
				"element": "H" 
			}
		],
		 "valence_orbital": [ 
			{
				"type": "occ",
				"energy": -0.272,
				"method": "rhf"
			},
			{
				"type": "occ",
				"energy": -0.26653,
				"method": "rhf"
			},
			{
				"type": "occ",
				"energy": -0.25625,
				"method": "rhf"
			},
			{
				"type": "occ",
				"energy": -0.24992,
				"method": "rhf"
			},
			{
				"type": "occ",
				"energy": -0.20911,
				"method": "rhf"
			},
			{
				"type": "unocc",
				"energy": -0.04404,
				"method": "rhf"
			},
			{
				"type": "unocc",
				"energy": -0.00598,
				"method": "rhf"
			},
			{
				"type": "unocc",
				"energy": 0.05679,
				"method": "rhf"
			},
			{
				"type": "unocc",
				"energy": 0.07071,
				"method": "rhf"
			},
			{
				"type": "unocc",
				"energy": 0.08182,
				"method": "rhf"
			}
		],
		"cosmo_sigma_profile": { 
			"-0.025": 0.0,
			"-0.024": 0.0,
			"-0.023": 0.0,
			"-0.022": 0.0,
			"-0.021": 0.0,
			"-0.02": 0.0,
			"-0.019": 0.0251749206929,
			"-0.018": 0.757247993914,
			"-0.017": 0.724427466203,
			"-0.016": 0.880462624201,
			"-0.015": 1.4951829199,
			"-0.014": 1.55916015313,
			"-0.013": 1.33623276955,
			"-0.012": 1.80516245411,
			"-0.011": 1.87418710584,
			"-0.01": 1.62765539867,
			"-0.009": 0.982482842491,
			"-0.008": 1.08532661211,
			"-0.007": 2.29149741741,
			"-0.006": 5.38703602483,
			"-0.005": 11.8571984624,
			"-0.004": 15.7432746838,
			"-0.003": 28.4312560834,
			"-0.002": 39.2650111477,
			"-0.001": 29.3073887164,
			"0.0": 25.2116390844,
			"0.001": 19.9086925909,
			"0.002": 16.6504544606,
			"0.003": 14.1301442731,
			"0.004": 15.8069674443,
			"0.005": 6.48874771419,
			"0.006": 5.11659991115,
			"0.007": 5.44014569004,
			"0.008": 4.07818210268,
			"0.009": 4.04363050255,
			"0.01": 3.45939047898,
			"0.011": 4.65766308162,
			"0.012": 5.88260319049,
			"0.013": 1.92206057738,
			"0.014": 2.07480050944,
			"0.015": 0.29340544832,
			"0.016": 0.0,
			"0.017": 0.0,
			"0.018": 0.0,
			"0.019": 0.0,
			"0.02": 0.0,
			"0.021": 0.0,
			"0.022": 0.0,
			"0.023": 0.0,
			"0.024": 0.0,
			"0.025": 0.0
		}
	}
}
