{
	 "smiles": "CC1=C(C=CC(Br)=C1)N1CC(CC1=O)C(O)=O", 
	 "Tm": 355.15, 
	 "num_atms": 29, 
	 "gaussian": { 
		 "optdone": 1, 
		 "sigma_profile": "yes", 
		 "theory": "DFT", 
		 "functional": "B3LYP", 
		 "basiset": "6-31G**", 
		 "properties": { 
			 "R2extent": 7285.8668, 
			 "electric_dipole_moment_norm": 5.11779829028, 
			 "electric_quadrupole_moment_norm": 11.0188344579, 
			 "total_energy": -3316.37278879, 
			 "HOMO_LUMO_gap": 0.20775, 
			 "cosmo_polarized_energy": -18.16, 
			 "cosmo_cavitation_energy": 35.03, 
			 "cosmo_dispersion_energy": -24.91, 
			 "cosmo_repulsion_energy": 1.94, 
			 "cosmo_total_nonelectrostatic_energy": 12.06, 
			 "SMD_solvation_energy": 6.31 
		},
		"coords": [
			{
				"x": -2.2476637966,
				"y": -0.6251707709,
				"z": 0.1653255949,
				"element": "C" 
			},
			{
				"x": -0.911448147,
				"y": -1.3166638962,
				"z": 0.0824094456,
				"element": "C" 
			},
			{
				"x": 0.2540004397,
				"y": -0.6535603529,
				"z": -0.3560667849,
				"element": "C" 
			},
			{
				"x": 1.4829838718,
				"y": -1.3235472001,
				"z": -0.3800490926,
				"element": "C" 
			},
			{
				"x": 1.5857410604,
				"y": -2.6547729026,
				"z": 0.0142917238,
				"element": "C" 
			},
			{
				"x": 0.4315627428,
				"y": -3.3140795642,
				"z": 0.4275790425,
				"element": "C" 
			},
			{
				"x": 0.5370772656,
				"y": -5.1443113506,
				"z": 0.9714021991,
				"element": "Br" 
			},
			{
				"x": -0.7965043152,
				"y": -2.660393236,
				"z": 0.4620023905,
				"element": "C" 
			},
			{
				"x": 0.2074862929,
				"y": 0.7175704114,
				"z": -0.7376354612,
				"element": "N" 
			},
			{
				"x": 1.1567869675,
				"y": 1.7018885078,
				"z": -0.2166383027,
				"element": "C" 
			},
			{
				"x": 0.5218044431,
				"y": 3.0571016577,
				"z": -0.6341615723,
				"element": "C" 
			},
			{
				"x": -0.2623883973,
				"y": 2.7059328554,
				"z": -1.9042210047,
				"element": "C" 
			},
			{
				"x": -0.5557518749,
				"y": 1.2101035291,
				"z": -1.7869746107,
				"element": "C" 
			},
			{
				"x": -1.3066707127,
				"y": 0.5601650483,
				"z": -2.4892812396,
				"element": "O" 
			},
			{
				"x": -0.3931130836,
				"y": 3.5674933913,
				"z": 0.4696705699,
				"element": "C" 
			},
			{
				"x": 0.3241480827,
				"y": 4.0137574367,
				"z": 1.5284118906,
				"element": "O" 
			},
			{
				"x": -1.6034375644,
				"y": 3.5758778325,
				"z": 0.4478229396,
				"element": "O" 
			},
			{
				"x": -2.9336391115,
				"y": -1.1841463369,
				"z": 0.8067379117,
				"element": "H" 
			},
			{
				"x": -2.6911319712,
				"y": -0.5281502004,
				"z": -0.8301635264,
				"element": "H" 
			},
			{
				"x": -2.146827142,
				"y": 0.3894748845,
				"z": 0.5640023983,
				"element": "H" 
			},
			{
				"x": 2.3707243209,
				"y": -0.8018713358,
				"z": -0.7242529679,
				"element": "H" 
			},
			{
				"x": 2.5393102062,
				"y": -3.1689654138,
				"z": -0.0091489059,
				"element": "H" 
			},
			{
				"x": -1.6779476377,
				"y": -3.1928302526,
				"z": 0.8024259556,
				"element": "H" 
			},
			{
				"x": 1.2720231396,
				"y": 1.5993319179,
				"z": 0.8652553938,
				"element": "H" 
			},
			{
				"x": 2.1501850037,
				"y": 1.5946528812,
				"z": -0.6738409651,
				"element": "H" 
			},
			{
				"x": 1.3029849577,
				"y": 3.8058837208,
				"z": -0.7907154508,
				"element": "H" 
			},
			{
				"x": 0.3330671754,
				"y": 2.8745477964,
				"z": -2.8079487191,
				"element": "H" 
			},
			{
				"x": -1.1979813705,
				"y": 3.2586244151,
				"z": -1.9998555018,
				"element": "H" 
			},
			{
				"x": -0.3206808454,
				"y": 4.3003565271,
				"z": 2.1972166498,
				"element": "H" 
			}
		],
		 "valence_orbital": [ 
			{
				"type": "occ",
				"energy": -0.2853,
				"method": "rhf"
			},
			{
				"type": "occ",
				"energy": -0.26921,
				"method": "rhf"
			},
			{
				"type": "occ",
				"energy": -0.25616,
				"method": "rhf"
			},
			{
				"type": "occ",
				"energy": -0.25494,
				"method": "rhf"
			},
			{
				"type": "occ",
				"energy": -0.22807,
				"method": "rhf"
			},
			{
				"type": "unocc",
				"energy": -0.02032,
				"method": "rhf"
			},
			{
				"type": "unocc",
				"energy": -0.0132,
				"method": "rhf"
			},
			{
				"type": "unocc",
				"energy": -0.01183,
				"method": "rhf"
			},
			{
				"type": "unocc",
				"energy": 0.00873,
				"method": "rhf"
			},
			{
				"type": "unocc",
				"energy": 0.0237,
				"method": "rhf"
			}
		],
		"cosmo_sigma_profile": { 
			"-0.025": 0.0,
			"-0.024": 0.0,
			"-0.023": 0.0,
			"-0.022": 0.0,
			"-0.021": 0.0,
			"-0.02": 0.0,
			"-0.019": 0.0441167212075,
			"-0.018": 1.01090115427,
			"-0.017": 0.719300251882,
			"-0.016": 0.995847774842,
			"-0.015": 0.565131055349,
			"-0.014": 1.14746488575,
			"-0.013": 0.686781524384,
			"-0.012": 0.375998943312,
			"-0.011": 0.767523562973,
			"-0.01": 0.709884665866,
			"-0.009": 0.610804509298,
			"-0.008": 2.39837038476,
			"-0.007": 14.3659029497,
			"-0.006": 21.5038902864,
			"-0.005": 17.2812137108,
			"-0.004": 17.8116848581,
			"-0.003": 16.8891545094,
			"-0.002": 18.0725449357,
			"-0.001": 17.7354184936,
			"0.0": 21.5082051607,
			"0.001": 17.5044314713,
			"0.002": 20.2204141273,
			"0.003": 20.9564555825,
			"0.004": 19.3105859621,
			"0.005": 11.2662397591,
			"0.006": 4.28985827296,
			"0.007": 4.20738527199,
			"0.008": 4.13567169066,
			"0.009": 4.51258217795,
			"0.01": 3.1909594276,
			"0.011": 5.61713850785,
			"0.012": 4.21728183296,
			"0.013": 4.4481510433,
			"0.014": 1.80064593647,
			"0.015": 0.134215011681,
			"0.016": 0.0,
			"0.017": 0.0,
			"0.018": 0.0,
			"0.019": 0.0,
			"0.02": 0.0,
			"0.021": 0.0,
			"0.022": 0.0,
			"0.023": 0.0,
			"0.024": 0.0,
			"0.025": 0.0
		}
	}
}
