{
	 "smiles": "CC1=NNC(=O)C1CCN", 
	 "Tm": 503.15, 
	 "num_atms": 21, 
	 "gaussian": { 
		 "optdone": 1, 
		 "sigma_profile": "yes", 
		 "theory": "DFT", 
		 "functional": "B3LYP", 
		 "basiset": "6-31G**", 
		 "properties": { 
			 "R2extent": 1439.0266, 
			 "electric_dipole_moment_norm": 3.24319088091, 
			 "electric_quadrupole_moment_norm": 6.91828531935, 
			 "total_energy": -474.725844255, 
			 "HOMO_LUMO_gap": 0.20377, 
			 "cosmo_polarized_energy": -15.8, 
			 "cosmo_cavitation_energy": 23.79, 
			 "cosmo_dispersion_energy": -16.98, 
			 "cosmo_repulsion_energy": 1.4, 
			 "cosmo_total_nonelectrostatic_energy": 8.21, 
			 "SMD_solvation_energy": 2.32 
		},
		"coords": [
			{
				"x": -2.2695147101,
				"y": 0.8486584253,
				"z": -1.1657295857,
				"element": "C" 
			},
			{
				"x": -1.3456359326,
				"y": -0.2626586425,
				"z": -0.7852589141,
				"element": "C" 
			},
			{
				"x": -1.1248885372,
				"y": -1.2541277533,
				"z": -1.5842932121,
				"element": "N" 
			},
			{
				"x": -0.2772191366,
				"y": -2.1392985318,
				"z": -0.9240039361,
				"element": "N" 
			},
			{
				"x": 0.0972791826,
				"y": -1.7469566457,
				"z": 0.3412255522,
				"element": "C" 
			},
			{
				"x": 0.8606526302,
				"y": -2.3236296007,
				"z": 1.0944828186,
				"element": "O" 
			},
			{
				"x": -0.6537213382,
				"y": -0.4217658354,
				"z": 0.5514663754,
				"element": "C" 
			},
			{
				"x": 0.2578148862,
				"y": 0.7137726185,
				"z": 1.0662384652,
				"element": "C" 
			},
			{
				"x": 1.5043153529,
				"y": 1.0148342982,
				"z": 0.209459074,
				"element": "C" 
			},
			{
				"x": 1.3007139905,
				"y": 1.5436421982,
				"z": -1.1383335161,
				"element": "N" 
			},
			{
				"x": -2.6491511056,
				"y": 0.6871940844,
				"z": -2.176919882,
				"element": "H" 
			},
			{
				"x": -3.1202700331,
				"y": 0.9044059156,
				"z": -0.4755349901,
				"element": "H" 
			},
			{
				"x": -1.7617767073,
				"y": 1.8187054399,
				"z": -1.1280764368,
				"element": "H" 
			},
			{
				"x": 0.0496697973,
				"y": -2.9600865471,
				"z": -1.4104104457,
				"element": "H" 
			},
			{
				"x": -1.4237124143,
				"y": -0.6013392824,
				"z": 1.3167379081,
				"element": "H" 
			},
			{
				"x": -0.3422486152,
				"y": 1.6255253858,
				"z": 1.1860895557,
				"element": "H" 
			},
			{
				"x": 0.5925445721,
				"y": 0.4217060089,
				"z": 2.0687230873,
				"element": "H" 
			},
			{
				"x": 2.1094230207,
				"y": 0.1047172674,
				"z": 0.127973614,
				"element": "H" 
			},
			{
				"x": 2.1197478755,
				"y": 1.7357301449,
				"z": 0.7615112001,
				"element": "H" 
			},
			{
				"x": 0.8162610913,
				"y": 0.8754839685,
				"z": -1.7302516063,
				"element": "H" 
			},
			{
				"x": 0.741116131,
				"y": 2.3921870835,
				"z": -1.1167951257,
				"element": "H" 
			}
		],
		 "valence_orbital": [ 
			{
				"type": "occ",
				"energy": -0.34504,
				"method": "rhf"
			},
			{
				"type": "occ",
				"energy": -0.3092,
				"method": "rhf"
			},
			{
				"type": "occ",
				"energy": -0.25221,
				"method": "rhf"
			},
			{
				"type": "occ",
				"energy": -0.24351,
				"method": "rhf"
			},
			{
				"type": "occ",
				"energy": -0.23072,
				"method": "rhf"
			},
			{
				"type": "unocc",
				"energy": -0.02695,
				"method": "rhf"
			},
			{
				"type": "unocc",
				"energy": 0.03928,
				"method": "rhf"
			},
			{
				"type": "unocc",
				"energy": 0.0629,
				"method": "rhf"
			},
			{
				"type": "unocc",
				"energy": 0.09186,
				"method": "rhf"
			},
			{
				"type": "unocc",
				"energy": 0.11182,
				"method": "rhf"
			}
		],
		"cosmo_sigma_profile": { 
			"-0.025": 0.0,
			"-0.024": 0.0,
			"-0.023": 0.0,
			"-0.022": 0.0,
			"-0.021": 0.0,
			"-0.02": 0.0,
			"-0.019": 0.0,
			"-0.018": 0.0,
			"-0.017": 0.0,
			"-0.016": 0.530416690092,
			"-0.015": 1.42423363587,
			"-0.014": 0.805147754349,
			"-0.013": 1.16065778649,
			"-0.012": 0.63752115019,
			"-0.011": 0.776331604798,
			"-0.01": 1.14525876828,
			"-0.009": 2.08326645149,
			"-0.008": 3.96188196655,
			"-0.007": 6.99634596746,
			"-0.006": 10.2277360735,
			"-0.005": 13.93211726,
			"-0.004": 16.5490218772,
			"-0.003": 19.0498259186,
			"-0.002": 17.4084921981,
			"-0.001": 17.4045056144,
			"0.0": 9.77303726352,
			"0.001": 6.83265415012,
			"0.002": 4.64495723195,
			"0.003": 4.27017291888,
			"0.004": 3.90997082667,
			"0.005": 4.18639410091,
			"0.006": 3.46583435651,
			"0.007": 2.9453368944,
			"0.008": 2.50307679405,
			"0.009": 3.12841574278,
			"0.01": 3.46734973128,
			"0.011": 2.59328699917,
			"0.012": 4.48194161063,
			"0.013": 7.86898045219,
			"0.014": 3.43879146767,
			"0.015": 0.941623339643,
			"0.016": 0.886401285372,
			"0.017": 0.600860437802,
			"0.018": 0.694952618263,
			"0.019": 0.494648185477,
			"0.02": 0.202598693246,
			"0.021": 0.0,
			"0.022": 0.0,
			"0.023": 0.0,
			"0.024": 0.0,
			"0.025": 0.0
		}
	}
}
