{
	 "smiles": "COC1=CC=C(C=C1)C1=C(N=C(N)S1)C1=CC=C(OC)C=C1", 
	 "Tm": 481.15, 
	 "num_atms": 38, 
	 "gaussian": { 
		 "optdone": 1, 
		 "sigma_profile": "yes", 
		 "theory": "DFT", 
		 "functional": "B3LYP", 
		 "basiset": "6-31G**", 
		 "properties": { 
			 "R2extent": 9252.8721, 
			 "electric_dipole_moment_norm": 2.1225566612, 
			 "electric_quadrupole_moment_norm": 20.2284344703, 
			 "total_energy": -1315.57304287, 
			 "HOMO_LUMO_gap": 0.15492, 
			 "cosmo_polarized_energy": -16.54, 
			 "cosmo_cavitation_energy": 43.62, 
			 "cosmo_dispersion_energy": -31.43, 
			 "cosmo_repulsion_energy": 2.38, 
			 "cosmo_total_nonelectrostatic_energy": 14.58, 
			 "SMD_solvation_energy": 7.05 
		},
		"coords": [
			{
				"x": 0.4092639254,
				"y": -2.5523773088,
				"z": -5.9680945976,
				"element": "C" 
			},
			{
				"x": 0.8295982529,
				"y": -1.4435598361,
				"z": -5.189877299,
				"element": "O" 
			},
			{
				"x": 0.7983681755,
				"y": -1.560797311,
				"z": -3.8305141908,
				"element": "C" 
			},
			{
				"x": 0.3726672633,
				"y": -2.6983387111,
				"z": -3.136488787,
				"element": "C" 
			},
			{
				"x": 0.3810321877,
				"y": -2.6983067957,
				"z": -1.7394270679,
				"element": "C" 
			},
			{
				"x": 0.8132614482,
				"y": -1.5857128785,
				"z": -1.0034029058,
				"element": "C" 
			},
			{
				"x": 1.2514785892,
				"y": -0.4554157868,
				"z": -1.7247735005,
				"element": "C" 
			},
			{
				"x": 1.2368642534,
				"y": -0.4376424376,
				"z": -3.1106896675,
				"element": "C" 
			},
			{
				"x": 0.8577211395,
				"y": -1.6110933549,
				"z": 0.4685165479,
				"element": "C" 
			},
			{
				"x": 0.4814479535,
				"y": -0.6856511257,
				"z": 1.4203561025,
				"element": "C" 
			},
			{
				"x": 0.8188073099,
				"y": -0.9989580395,
				"z": 2.7312801877,
				"element": "N" 
			},
			{
				"x": 1.4058863765,
				"y": -2.1541863987,
				"z": 2.8154575428,
				"element": "C" 
			},
			{
				"x": 1.7574357917,
				"y": -2.7502909047,
				"z": 4.0082946541,
				"element": "N" 
			},
			{
				"x": 1.6253591937,
				"y": -2.9860709591,
				"z": 1.279077399,
				"element": "S" 
			},
			{
				"x": -0.2465527627,
				"y": 0.5831103515,
				"z": 1.2021069287,
				"element": "C" 
			},
			{
				"x": -0.0435586186,
				"y": 1.6600789452,
				"z": 2.0873569364,
				"element": "C" 
			},
			{
				"x": -0.7200935237,
				"y": 2.8601051301,
				"z": 1.9280565813,
				"element": "C" 
			},
			{
				"x": -1.636496429,
				"y": 3.0204317762,
				"z": 0.8779657467,
				"element": "C" 
			},
			{
				"x": -2.2505335997,
				"y": 4.2381071145,
				"z": 0.8040752162,
				"element": "O" 
			},
			{
				"x": -3.1917583344,
				"y": 4.4517657905,
				"z": -0.2345291924,
				"element": "C" 
			},
			{
				"x": -1.8685245178,
				"y": 1.9552670545,
				"z": -0.0002615468,
				"element": "C" 
			},
			{
				"x": -1.1796826877,
				"y": 0.7533603101,
				"z": 0.1705807071,
				"element": "C" 
			},
			{
				"x": 1.032436641,
				"y": -3.4370274142,
				"z": -5.7833695415,
				"element": "H" 
			},
			{
				"x": 0.5182715233,
				"y": -2.2485135313,
				"z": -7.0103765689,
				"element": "H" 
			},
			{
				"x": -0.6407016289,
				"y": -2.8086684408,
				"z": -5.7755088874,
				"element": "H" 
			},
			{
				"x": 0.0289839623,
				"y": -3.5803827967,
				"z": -3.6637560543,
				"element": "H" 
			},
			{
				"x": 0.0330307935,
				"y": -3.5825891545,
				"z": -1.2128448912,
				"element": "H" 
			},
			{
				"x": 1.6081594036,
				"y": 0.4135228381,
				"z": -1.1819200979,
				"element": "H" 
			},
			{
				"x": 1.5754347401,
				"y": 0.4320497873,
				"z": -3.6644892878,
				"element": "H" 
			},
			{
				"x": 2.5849387735,
				"y": -3.3300842582,
				"z": 3.9975786684,
				"element": "H" 
			},
			{
				"x": 1.7253944033,
				"y": -2.1032124265,
				"z": 4.7859714232,
				"element": "H" 
			},
			{
				"x": 0.6523001047,
				"y": 1.534599977,
				"z": 2.9095625924,
				"element": "H" 
			},
			{
				"x": -0.5594067313,
				"y": 3.6915970789,
				"z": 2.6067930014,
				"element": "H" 
			},
			{
				"x": -4.0421474611,
				"y": 3.7613389938,
				"z": -0.1606717906,
				"element": "H" 
			},
			{
				"x": -2.7330040101,
				"y": 4.3471430766,
				"z": -1.2264600774,
				"element": "H" 
			},
			{
				"x": -3.5501988907,
				"y": 5.4751822744,
				"z": -0.1118582557,
				"element": "H" 
			},
			{
				"x": -2.5858794727,
				"y": 2.0421914098,
				"z": -0.8077605959,
				"element": "H" 
			},
			{
				"x": -1.3871035373,
				"y": -0.0672720379,
				"z": -0.5069554317,
				"element": "H" 
			}
		],
		 "valence_orbital": [ 
			{
				"type": "occ",
				"energy": -0.25152,
				"method": "rhf"
			},
			{
				"type": "occ",
				"energy": -0.24009,
				"method": "rhf"
			},
			{
				"type": "occ",
				"energy": -0.23108,
				"method": "rhf"
			},
			{
				"type": "occ",
				"energy": -0.21651,
				"method": "rhf"
			},
			{
				"type": "occ",
				"energy": -0.1807,
				"method": "rhf"
			},
			{
				"type": "unocc",
				"energy": -0.02578,
				"method": "rhf"
			},
			{
				"type": "unocc",
				"energy": -0.00724,
				"method": "rhf"
			},
			{
				"type": "unocc",
				"energy": 0.01239,
				"method": "rhf"
			},
			{
				"type": "unocc",
				"energy": 0.01498,
				"method": "rhf"
			},
			{
				"type": "unocc",
				"energy": 0.01965,
				"method": "rhf"
			}
		],
		"cosmo_sigma_profile": { 
			"-0.025": 0.0,
			"-0.024": 0.0,
			"-0.023": 0.0,
			"-0.022": 0.0,
			"-0.021": 0.0,
			"-0.02": 0.0,
			"-0.019": 0.0,
			"-0.018": 0.0,
			"-0.017": 0.0,
			"-0.016": 0.0,
			"-0.015": 0.222490032906,
			"-0.014": 1.52832052381,
			"-0.013": 2.99103263116,
			"-0.012": 2.29220432828,
			"-0.011": 2.83676005735,
			"-0.01": 2.60345366543,
			"-0.009": 1.82101909648,
			"-0.008": 1.66131310419,
			"-0.007": 2.46338761772,
			"-0.006": 15.9596790948,
			"-0.005": 29.0922004805,
			"-0.004": 31.5285429502,
			"-0.003": 30.6125290545,
			"-0.002": 19.2719451256,
			"-0.001": 18.19824598,
			"0.0": 17.5736976934,
			"0.001": 19.0992507884,
			"0.002": 25.900194049,
			"0.003": 32.7354638423,
			"0.004": 32.3255249748,
			"0.005": 24.8914401921,
			"0.006": 9.30536148896,
			"0.007": 5.25860491263,
			"0.008": 5.57060878234,
			"0.009": 4.17313041751,
			"0.01": 5.61191163623,
			"0.011": 2.45454189358,
			"0.012": 0.863696835251,
			"0.013": 0.585700860407,
			"0.014": 0.487013857045,
			"0.015": 0.0,
			"0.016": 0.0,
			"0.017": 0.0,
			"0.018": 0.0,
			"0.019": 0.0,
			"0.02": 0.0,
			"0.021": 0.0,
			"0.022": 0.0,
			"0.023": 0.0,
			"0.024": 0.0,
			"0.025": 0.0
		}
	}
}
