{
	 "smiles": "CCN1C(=O)NC(C1=O)C1=CC=CC=C1", 
	 "Tm": 367.15, 
	 "num_atms": 27, 
	 "gaussian": { 
		 "optdone": 1, 
		 "sigma_profile": "yes", 
		 "theory": "DFT", 
		 "functional": "B3LYP", 
		 "basiset": "6-31G**", 
		 "properties": { 
			 "R2extent": 4153.9326, 
			 "electric_dipole_moment_norm": 1.92637961212, 
			 "electric_quadrupole_moment_norm": 13.9518092246, 
			 "total_energy": -686.402109177, 
			 "HOMO_LUMO_gap": 0.229, 
			 "cosmo_polarized_energy": -14.95, 
			 "cosmo_cavitation_energy": 31.16, 
			 "cosmo_dispersion_energy": -21.95, 
			 "cosmo_repulsion_energy": 1.73, 
			 "cosmo_total_nonelectrostatic_energy": 10.94, 
			 "SMD_solvation_energy": 6.52 
		},
		"coords": [
			{
				"x": -3.9487192027,
				"y": -0.4140764611,
				"z": 2.8154999738,
				"element": "C" 
			},
			{
				"x": -3.1497616209,
				"y": -0.6323425784,
				"z": 1.5298178552,
				"element": "C" 
			},
			{
				"x": -1.7081876487,
				"y": -0.6650323436,
				"z": 1.7625954791,
				"element": "N" 
			},
			{
				"x": -1.0165060074,
				"y": -1.8386431035,
				"z": 2.1327524842,
				"element": "C" 
			},
			{
				"x": -1.5226433386,
				"y": -2.9270697205,
				"z": 2.3203403903,
				"element": "O" 
			},
			{
				"x": 0.3103424824,
				"y": -1.4915814697,
				"z": 2.220390456,
				"element": "N" 
			},
			{
				"x": 0.5465980849,
				"y": -0.0717129802,
				"z": 2.035074475,
				"element": "C" 
			},
			{
				"x": -0.8780023368,
				"y": 0.432990813,
				"z": 1.6931990053,
				"element": "C" 
			},
			{
				"x": -1.1982235165,
				"y": 1.5724198029,
				"z": 1.4252629753,
				"element": "O" 
			},
			{
				"x": 1.5632536411,
				"y": 0.2925106202,
				"z": 0.9655836903,
				"element": "C" 
			},
			{
				"x": 1.9651229749,
				"y": -0.6265450475,
				"z": -0.0083680692,
				"element": "C" 
			},
			{
				"x": 2.8823793591,
				"y": -0.2518141863,
				"z": -0.9922365855,
				"element": "C" 
			},
			{
				"x": 3.3980095634,
				"y": 1.0445045838,
				"z": -1.0151328747,
				"element": "C" 
			},
			{
				"x": 2.9927315145,
				"y": 1.9674155696,
				"z": -0.0480849995,
				"element": "C" 
			},
			{
				"x": 2.082005531,
				"y": 1.5929173408,
				"z": 0.938745164,
				"element": "C" 
			},
			{
				"x": -5.0200562744,
				"y": -0.396689842,
				"z": 2.5916619824,
				"element": "H" 
			},
			{
				"x": -3.6818235767,
				"y": 0.5386062202,
				"z": 3.2820858159,
				"element": "H" 
			},
			{
				"x": -3.7605528006,
				"y": -1.2230235616,
				"z": 3.526737852,
				"element": "H" 
			},
			{
				"x": -3.4187937043,
				"y": -1.5842089132,
				"z": 1.0653240076,
				"element": "H" 
			},
			{
				"x": -3.3307153387,
				"y": 0.1746432745,
				"z": 0.8154146455,
				"element": "H" 
			},
			{
				"x": 0.9678157199,
				"y": -2.127096526,
				"z": 2.6445278454,
				"element": "H" 
			},
			{
				"x": 0.8309940935,
				"y": 0.4141151187,
				"z": 2.9797503738,
				"element": "H" 
			},
			{
				"x": 1.5616135273,
				"y": -1.6341066575,
				"z": 0.007444367,
				"element": "H" 
			},
			{
				"x": 3.1918243847,
				"y": -0.9748933029,
				"z": -1.7415152457,
				"element": "H" 
			},
			{
				"x": 4.1121436859,
				"y": 1.334512831,
				"z": -1.7803689305,
				"element": "H" 
			},
			{
				"x": 3.388191666,
				"y": 2.978934427,
				"z": -0.0599217037,
				"element": "H" 
			},
			{
				"x": 1.7626591377,
				"y": 2.3138660925,
				"z": 1.6858195708,
				"element": "H" 
			}
		],
		 "valence_orbital": [ 
			{
				"type": "occ",
				"energy": -0.2786,
				"method": "rhf"
			},
			{
				"type": "occ",
				"energy": -0.26975,
				"method": "rhf"
			},
			{
				"type": "occ",
				"energy": -0.26414,
				"method": "rhf"
			},
			{
				"type": "occ",
				"energy": -0.25536,
				"method": "rhf"
			},
			{
				"type": "occ",
				"energy": -0.24782,
				"method": "rhf"
			},
			{
				"type": "unocc",
				"energy": -0.01882,
				"method": "rhf"
			},
			{
				"type": "unocc",
				"energy": -0.00748,
				"method": "rhf"
			},
			{
				"type": "unocc",
				"energy": 0.00042,
				"method": "rhf"
			},
			{
				"type": "unocc",
				"energy": 0.05783,
				"method": "rhf"
			},
			{
				"type": "unocc",
				"energy": 0.08339,
				"method": "rhf"
			}
		],
		"cosmo_sigma_profile": { 
			"-0.025": 0.0,
			"-0.024": 0.0,
			"-0.023": 0.0,
			"-0.022": 0.0,
			"-0.021": 0.0,
			"-0.02": 0.0,
			"-0.019": 0.0,
			"-0.018": 0.0,
			"-0.017": 0.0,
			"-0.016": 0.210414213108,
			"-0.015": 1.40235669638,
			"-0.014": 1.37165547316,
			"-0.013": 0.929872644931,
			"-0.012": 1.14158033678,
			"-0.011": 0.40849783232,
			"-0.01": 1.20663922719,
			"-0.009": 1.56070442022,
			"-0.008": 4.34641534291,
			"-0.007": 5.09094576634,
			"-0.006": 9.48354277737,
			"-0.005": 15.8780862659,
			"-0.004": 24.2705959328,
			"-0.003": 27.5860459876,
			"-0.002": 23.9948311513,
			"-0.001": 17.516377972,
			"0.0": 16.511583347,
			"0.001": 11.2023283192,
			"0.002": 10.3203850891,
			"0.003": 10.6253570917,
			"0.004": 10.6056937845,
			"0.005": 12.4075233041,
			"0.006": 6.52139670725,
			"0.007": 4.07370860315,
			"0.008": 2.25898384844,
			"0.009": 3.06708042502,
			"0.01": 3.89983104183,
			"0.011": 4.90294340216,
			"0.012": 9.02431197442,
			"0.013": 5.05986926501,
			"0.014": 0.34165239173,
			"0.015": 0.0,
			"0.016": 0.0,
			"0.017": 0.0,
			"0.018": 0.0,
			"0.019": 0.0,
			"0.02": 0.0,
			"0.021": 0.0,
			"0.022": 0.0,
			"0.023": 0.0,
			"0.024": 0.0,
			"0.025": 0.0
		}
	}
}
