{
	 "smiles": "CC(C)C1=C(N=C(O1)C1=CC=CC=C1)C(O)=O", 
	 "Tm": 427.15, 
	 "num_atms": 30, 
	 "gaussian": { 
		 "optdone": 1, 
		 "sigma_profile": "yes", 
		 "theory": "DFT", 
		 "functional": "B3LYP", 
		 "basiset": "6-31G**", 
		 "properties": { 
			 "R2extent": 6203.2317, 
			 "electric_dipole_moment_norm": 1.83299537643, 
			 "electric_quadrupole_moment_norm": 7.3889799614, 
			 "total_energy": -783.667857551, 
			 "HOMO_LUMO_gap": 0.1797, 
			 "cosmo_polarized_energy": -11.82, 
			 "cosmo_cavitation_energy": 34.19, 
			 "cosmo_dispersion_energy": -24.63, 
			 "cosmo_repulsion_energy": 1.93, 
			 "cosmo_total_nonelectrostatic_energy": 11.48, 
			 "SMD_solvation_energy": 6.03 
		},
		"coords": [
			{
				"x": -0.4650692157,
				"y": -3.0196794174,
				"z": 3.5285357619,
				"element": "C" 
			},
			{
				"x": -0.5867313476,
				"y": -2.5019128093,
				"z": 2.0808220011,
				"element": "C" 
			},
			{
				"x": -1.9967337047,
				"y": -2.749331937,
				"z": 1.5070106871,
				"element": "C" 
			},
			{
				"x": -0.1868445338,
				"y": -1.0585594017,
				"z": 1.970978914,
				"element": "C" 
			},
			{
				"x": -0.61619809,
				"y": 0.1560903727,
				"z": 2.4580689389,
				"element": "C" 
			},
			{
				"x": 0.1997302185,
				"y": 1.171171632,
				"z": 1.976521234,
				"element": "N" 
			},
			{
				"x": 1.0772230901,
				"y": 0.5710258507,
				"z": 1.2324779531,
				"element": "C" 
			},
			{
				"x": 0.8980281144,
				"y": -0.7911732932,
				"z": 1.185856597,
				"element": "O" 
			},
			{
				"x": 2.181271209,
				"y": 1.1524095734,
				"z": 0.4751187743,
				"element": "C" 
			},
			{
				"x": 2.3758943041,
				"y": 2.5432643276,
				"z": 0.5136252112,
				"element": "C" 
			},
			{
				"x": 3.4221099501,
				"y": 3.1190468158,
				"z": -0.2006666255,
				"element": "C" 
			},
			{
				"x": 4.2827940069,
				"y": 2.3190219966,
				"z": -0.9582936561,
				"element": "C" 
			},
			{
				"x": 4.091517005,
				"y": 0.9363150778,
				"z": -0.9982395129,
				"element": "C" 
			},
			{
				"x": 3.0464119232,
				"y": 0.3509627551,
				"z": -0.2860947672,
				"element": "C" 
			},
			{
				"x": -1.7545623884,
				"y": 0.4069628582,
				"z": 3.3528037443,
				"element": "C" 
			},
			{
				"x": -1.9124541592,
				"y": 1.7136159534,
				"z": 3.6465772361,
				"element": "O" 
			},
			{
				"x": -2.4955730623,
				"y": -0.4549810763,
				"z": 3.7986811489,
				"element": "O" 
			},
			{
				"x": -1.1637135683,
				"y": -2.4925992349,
				"z": 4.1816881957,
				"element": "H" 
			},
			{
				"x": 0.5499584774,
				"y": -2.8838710581,
				"z": 3.9146756935,
				"element": "H" 
			},
			{
				"x": -0.6998436675,
				"y": -4.0886198694,
				"z": 3.5587746768,
				"element": "H" 
			},
			{
				"x": 0.1360900185,
				"y": -3.0454068724,
				"z": 1.4605304898,
				"element": "H" 
			},
			{
				"x": -2.7459922104,
				"y": -2.2126023658,
				"z": 2.0927044797,
				"element": "H" 
			},
			{
				"x": -2.0637946624,
				"y": -2.4232524845,
				"z": 0.4644158418,
				"element": "H" 
			},
			{
				"x": -2.2273417765,
				"y": -3.818960435,
				"z": 1.5439653844,
				"element": "H" 
			},
			{
				"x": 1.6998044511,
				"y": 3.150560506,
				"z": 1.1059620494,
				"element": "H" 
			},
			{
				"x": 3.5677322437,
				"y": 4.194760863,
				"z": -0.1671897723,
				"element": "H" 
			},
			{
				"x": 5.0983771203,
				"y": 2.7717806817,
				"z": -1.5145680078,
				"element": "H" 
			},
			{
				"x": 4.7576870353,
				"y": 0.3110812492,
				"z": -1.5854220379,
				"element": "H" 
			},
			{
				"x": 2.896609693,
				"y": -0.7229631623,
				"z": -0.3161827889,
				"element": "H" 
			},
			{
				"x": -2.6840864738,
				"y": 1.7538429037,
				"z": 4.2358621558,
				"element": "H" 
			}
		],
		 "valence_orbital": [ 
			{
				"type": "occ",
				"energy": -0.29251,
				"method": "rhf"
			},
			{
				"type": "occ",
				"energy": -0.28367,
				"method": "rhf"
			},
			{
				"type": "occ",
				"energy": -0.27722,
				"method": "rhf"
			},
			{
				"type": "occ",
				"energy": -0.25879,
				"method": "rhf"
			},
			{
				"type": "occ",
				"energy": -0.22504,
				"method": "rhf"
			},
			{
				"type": "unocc",
				"energy": -0.04534,
				"method": "rhf"
			},
			{
				"type": "unocc",
				"energy": -0.03378,
				"method": "rhf"
			},
			{
				"type": "unocc",
				"energy": -0.00746,
				"method": "rhf"
			},
			{
				"type": "unocc",
				"energy": 0.05389,
				"method": "rhf"
			},
			{
				"type": "unocc",
				"energy": 0.08365,
				"method": "rhf"
			}
		],
		"cosmo_sigma_profile": { 
			"-0.025": 0.0,
			"-0.024": 0.0,
			"-0.023": 0.0,
			"-0.022": 0.0,
			"-0.021": 0.0,
			"-0.02": 0.0,
			"-0.019": 0.134905007698,
			"-0.018": 0.706498423379,
			"-0.017": 1.20956269836,
			"-0.016": 0.888000249511,
			"-0.015": 0.570040466996,
			"-0.014": 0.59576444682,
			"-0.013": 0.269338071111,
			"-0.012": 0.713284101517,
			"-0.011": 1.17252955499,
			"-0.01": 0.716668802096,
			"-0.009": 0.340116693107,
			"-0.008": 0.833589145211,
			"-0.007": 1.84398084434,
			"-0.006": 8.82106367064,
			"-0.005": 12.2129139347,
			"-0.004": 19.6556492751,
			"-0.003": 27.759971847,
			"-0.002": 25.1009973501,
			"-0.001": 26.5028483956,
			"0.0": 31.8531943161,
			"0.001": 25.1381119281,
			"0.002": 17.1316400715,
			"0.003": 15.8740947553,
			"0.004": 17.1535625377,
			"0.005": 7.47408008195,
			"0.006": 3.96919392468,
			"0.007": 3.49886448053,
			"0.008": 3.40398401006,
			"0.009": 3.25997433534,
			"0.01": 3.08519266948,
			"0.011": 3.36980000234,
			"0.012": 3.70293617636,
			"0.013": 1.36082262274,
			"0.014": 1.04211302241,
			"0.015": 0.838208237268,
			"0.016": 0.0,
			"0.017": 0.0,
			"0.018": 0.0,
			"0.019": 0.0,
			"0.02": 0.0,
			"0.021": 0.0,
			"0.022": 0.0,
			"0.023": 0.0,
			"0.024": 0.0,
			"0.025": 0.0
		}
	}
}
