{
	 "smiles": "CCOC(=O)NC=C1/C2CCC(C)(C1=O)C2(C)C", 
	 "Tm": 435.15, 
	 "num_atms": 39, 
	 "gaussian": { 
		 "optdone": 1, 
		 "sigma_profile": "yes", 
		 "theory": "DFT", 
		 "functional": "B3LYP", 
		 "basiset": "6-31G**", 
		 "properties": { 
			 "R2extent": 5117.8651, 
			 "electric_dipole_moment_norm": 3.19943306853, 
			 "electric_quadrupole_moment_norm": 9.54992217769, 
			 "total_energy": -826.584345806, 
			 "HOMO_LUMO_gap": 0.18337, 
			 "cosmo_polarized_energy": -13.73, 
			 "cosmo_cavitation_energy": 39.03, 
			 "cosmo_dispersion_energy": -26.13, 
			 "cosmo_repulsion_energy": 2.0, 
			 "cosmo_total_nonelectrostatic_energy": 14.9, 
			 "SMD_solvation_energy": 8.39 
		},
		"coords": [
			{
				"x": 2.6615047756,
				"y": -2.0468554675,
				"z": -1.5160442389,
				"element": "C" 
			},
			{
				"x": 1.5205265933,
				"y": -3.0262814781,
				"z": -1.7070366916,
				"element": "C" 
			},
			{
				"x": 0.288181202,
				"y": -2.3541732144,
				"z": -1.339679636,
				"element": "O" 
			},
			{
				"x": -0.8185472757,
				"y": -3.0996431283,
				"z": -1.5054004192,
				"element": "C" 
			},
			{
				"x": -0.8333227256,
				"y": -4.2420810199,
				"z": -1.9236100989,
				"element": "O" 
			},
			{
				"x": -1.9893718129,
				"y": -2.431238709,
				"z": -1.1840830438,
				"element": "N" 
			},
			{
				"x": -2.2760991239,
				"y": -1.1546973457,
				"z": -0.7098581585,
				"element": "C" 
			},
			{
				"x": -1.5755862269,
				"y": -0.2586203103,
				"z": 0.0078862837,
				"element": "C" 
			},
			{
				"x": -0.2122689952,
				"y": -0.1860401963,
				"z": 0.6637152652,
				"element": "C" 
			},
			{
				"x": 0.6044000919,
				"y": 0.8497215902,
				"z": -0.1625741039,
				"element": "C" 
			},
			{
				"x": -0.1044932601,
				"y": 2.1971242035,
				"z": 0.1747965285,
				"element": "C" 
			},
			{
				"x": -1.2163890289,
				"y": 1.8055373876,
				"z": 1.2074307289,
				"element": "C" 
			},
			{
				"x": -1.8092635626,
				"y": 2.9640841306,
				"z": 1.9887796884,
				"element": "C" 
			},
			{
				"x": -2.2365378344,
				"y": 1.0380813763,
				"z": 0.3517316254,
				"element": "C" 
			},
			{
				"x": -3.3457386006,
				"y": 1.4212426158,
				"z": 0.0166218468,
				"element": "O" 
			},
			{
				"x": -0.5394508323,
				"y": 0.6125859192,
				"z": 1.9756604327,
				"element": "C" 
			},
			{
				"x": 0.7074282894,
				"y": 1.0047309108,
				"z": 2.7858010394,
				"element": "C" 
			},
			{
				"x": -1.4940557623,
				"y": -0.1342304583,
				"z": 2.9240725016,
				"element": "C" 
			},
			{
				"x": 2.5301754784,
				"y": -1.1612494279,
				"z": -2.1437717367,
				"element": "H" 
			},
			{
				"x": 2.7384606045,
				"y": -1.7242798248,
				"z": -0.4740262723,
				"element": "H" 
			},
			{
				"x": 3.6036857267,
				"y": -2.5287651054,
				"z": -1.7953008258,
				"element": "H" 
			},
			{
				"x": 1.4374928384,
				"y": -3.3617194564,
				"z": -2.7446328267,
				"element": "H" 
			},
			{
				"x": 1.6332511444,
				"y": -3.9162009055,
				"z": -1.0806856685,
				"element": "H" 
			},
			{
				"x": -2.7883782064,
				"y": -2.9833624547,
				"z": -1.4630151533,
				"element": "H" 
			},
			{
				"x": -3.2949515546,
				"y": -0.8524413248,
				"z": -0.9493327569,
				"element": "H" 
			},
			{
				"x": 0.283652623,
				"y": -1.1441294844,
				"z": 0.8120867289,
				"element": "H" 
			},
			{
				"x": 1.6554362822,
				"y": 0.8601283293,
				"z": 0.1414216477,
				"element": "H" 
			},
			{
				"x": 0.5758407572,
				"y": 0.6121819863,
				"z": -1.2280012919,
				"element": "H" 
			},
			{
				"x": -0.5363811053,
				"y": 2.6814668128,
				"z": -0.7064546658,
				"element": "H" 
			},
			{
				"x": 0.5827321823,
				"y": 2.9189759849,
				"z": 0.6273504873,
				"element": "H" 
			},
			{
				"x": -1.0348010063,
				"y": 3.52073408,
				"z": 2.526780406,
				"element": "H" 
			},
			{
				"x": -2.3210178021,
				"y": 3.654052597,
				"z": 1.3110071001,
				"element": "H" 
			},
			{
				"x": -2.5518695648,
				"y": 2.6183846199,
				"z": 2.7146565196,
				"element": "H" 
			},
			{
				"x": 0.4228832685,
				"y": 1.6044988369,
				"z": 3.6570485377,
				"element": "H" 
			},
			{
				"x": 1.2102907361,
				"y": 0.1057106493,
				"z": 3.1609763221,
				"element": "H" 
			},
			{
				"x": 1.4413695468,
				"y": 1.579947777,
				"z": 2.2182232578,
				"element": "H" 
			},
			{
				"x": -2.417784201,
				"y": -0.4548357334,
				"z": 2.4358093065,
				"element": "H" 
			},
			{
				"x": -1.7684762747,
				"y": 0.4987895263,
				"z": 3.774698324,
				"element": "H" 
			},
			{
				"x": -1.0059273841,
				"y": -1.0288342886,
				"z": 3.3273530102,
				"element": "H" 
			}
		],
		 "valence_orbital": [ 
			{
				"type": "occ",
				"energy": -0.30714,
				"method": "rhf"
			},
			{
				"type": "occ",
				"energy": -0.29255,
				"method": "rhf"
			},
			{
				"type": "occ",
				"energy": -0.286,
				"method": "rhf"
			},
			{
				"type": "occ",
				"energy": -0.23117,
				"method": "rhf"
			},
			{
				"type": "occ",
				"energy": -0.22488,
				"method": "rhf"
			},
			{
				"type": "unocc",
				"energy": -0.04151,
				"method": "rhf"
			},
			{
				"type": "unocc",
				"energy": 0.04063,
				"method": "rhf"
			},
			{
				"type": "unocc",
				"energy": 0.06756,
				"method": "rhf"
			},
			{
				"type": "unocc",
				"energy": 0.0733,
				"method": "rhf"
			},
			{
				"type": "unocc",
				"energy": 0.08366,
				"method": "rhf"
			}
		],
		"cosmo_sigma_profile": { 
			"-0.025": 0.0,
			"-0.024": 0.0,
			"-0.023": 0.0,
			"-0.022": 0.0,
			"-0.021": 0.0,
			"-0.02": 0.0,
			"-0.019": 0.0,
			"-0.018": 0.0,
			"-0.017": 0.0,
			"-0.016": 0.684641184026,
			"-0.015": 1.18604415728,
			"-0.014": 1.23301306579,
			"-0.013": 0.845536404284,
			"-0.012": 1.82444760062,
			"-0.011": 0.556271072411,
			"-0.01": 0.967774952582,
			"-0.009": 1.10215971791,
			"-0.008": 1.4812753378,
			"-0.007": 1.2574108432,
			"-0.006": 2.40774319526,
			"-0.005": 7.97823267033,
			"-0.004": 16.2220032888,
			"-0.003": 32.7598488252,
			"-0.002": 49.1390694787,
			"-0.001": 46.8354406299,
			"0.0": 39.6163775889,
			"0.001": 32.4262699292,
			"0.002": 14.0715072094,
			"0.003": 6.71180397483,
			"0.004": 5.25386426968,
			"0.005": 3.40003540525,
			"0.006": 3.25029829789,
			"0.007": 2.50476054083,
			"0.008": 3.201446043,
			"0.009": 3.15352503275,
			"0.01": 3.00376618853,
			"0.011": 4.27075811977,
			"0.012": 8.70840623276,
			"0.013": 6.70833549916,
			"0.014": 0.585111900096,
			"0.015": 0.0,
			"0.016": 0.0,
			"0.017": 0.0,
			"0.018": 0.0,
			"0.019": 0.0,
			"0.02": 0.0,
			"0.021": 0.0,
			"0.022": 0.0,
			"0.023": 0.0,
			"0.024": 0.0,
			"0.025": 0.0
		}
	}
}
