{
	 "smiles": "N#CCC1=NC=CN1CC1=CC=CC=C1", 
	 "Tm": 378.15, 
	 "num_atms": 26, 
	 "gaussian": { 
		 "optdone": 1, 
		 "sigma_profile": "yes", 
		 "theory": "DFT", 
		 "functional": "B3LYP", 
		 "basiset": "6-31G**", 
		 "properties": { 
			 "R2extent": 3208.4495, 
			 "electric_dipole_moment_norm": 4.21234665478, 
			 "electric_quadrupole_moment_norm": 11.5516337295, 
			 "total_energy": -628.13783585, 
			 "HOMO_LUMO_gap": 0.20886, 
			 "cosmo_polarized_energy": -14.14, 
			 "cosmo_cavitation_energy": 30.78, 
			 "cosmo_dispersion_energy": -20.79, 
			 "cosmo_repulsion_energy": 1.61, 
			 "cosmo_total_nonelectrostatic_energy": 11.6, 
			 "SMD_solvation_energy": 4.98 
		},
		"coords": [
			{
				"x": -2.3896151241,
				"y": -2.7758162318,
				"z": -0.5149319566,
				"element": "N" 
			},
			{
				"x": -1.4246633946,
				"y": -2.4408845474,
				"z": -1.0667177531,
				"element": "C" 
			},
			{
				"x": -0.1961072892,
				"y": -1.9810453592,
				"z": -1.729164974,
				"element": "C" 
			},
			{
				"x": -0.2857172905,
				"y": -0.5830785101,
				"z": -2.2793840407,
				"element": "C" 
			},
			{
				"x": -0.0686140533,
				"y": -0.2871747909,
				"z": -3.5455581634,
				"element": "N" 
			},
			{
				"x": -0.210088314,
				"y": 1.0773279275,
				"z": -3.6320025539,
				"element": "C" 
			},
			{
				"x": -0.5181653392,
				"y": 1.6050595161,
				"z": -2.4038384297,
				"element": "C" 
			},
			{
				"x": -0.5669083751,
				"y": 0.5338326149,
				"z": -1.5309542322,
				"element": "N" 
			},
			{
				"x": -0.854804041,
				"y": 0.6076539585,
				"z": -0.0957461515,
				"element": "C" 
			},
			{
				"x": 0.324096506,
				"y": 0.2370917318,
				"z": 0.787532352,
				"element": "C" 
			},
			{
				"x": 0.1523407761,
				"y": -0.6702320601,
				"z": 1.8390707095,
				"element": "C" 
			},
			{
				"x": 1.2202132036,
				"y": -0.9880157783,
				"z": 2.6822560657,
				"element": "C" 
			},
			{
				"x": 2.4708767845,
				"y": -0.4060365878,
				"z": 2.4759068346,
				"element": "C" 
			},
			{
				"x": 2.6513811773,
				"y": 0.494829029,
				"z": 1.4224172121,
				"element": "C" 
			},
			{
				"x": 1.5847005908,
				"y": 0.8154796853,
				"z": 0.5841546426,
				"element": "C" 
			},
			{
				"x": 0.0236636916,
				"y": -2.6364414814,
				"z": -2.5765468786,
				"element": "H" 
			},
			{
				"x": 0.6272759888,
				"y": -2.0766274603,
				"z": -1.0096594338,
				"element": "H" 
			},
			{
				"x": -0.0859294484,
				"y": 1.5999149361,
				"z": -4.5700919662,
				"element": "H" 
			},
			{
				"x": -0.716333238,
				"y": 2.6125112633,
				"z": -2.0701394204,
				"element": "H" 
			},
			{
				"x": -1.7100791268,
				"y": -0.0353757587,
				"z": 0.130731918,
				"element": "H" 
			},
			{
				"x": -1.1688600825,
				"y": 1.6376424213,
				"z": 0.1008267412,
				"element": "H" 
			},
			{
				"x": -0.8179445242,
				"y": -1.1350678135,
				"z": 1.9941595257,
				"element": "H" 
			},
			{
				"x": 1.0737070018,
				"y": -1.6949725479,
				"z": 3.493625161,
				"element": "H" 
			},
			{
				"x": 3.3028101356,
				"y": -0.6548020628,
				"z": 3.1282669762,
				"element": "H" 
			},
			{
				"x": 3.6240848563,
				"y": 0.9482211477,
				"z": 1.2547266723,
				"element": "H" 
			},
			{
				"x": 1.7306789286,
				"y": 1.5115067587,
				"z": -0.2377388567,
				"element": "H" 
			}
		],
		 "valence_orbital": [ 
			{
				"type": "occ",
				"energy": -0.28005,
				"method": "rhf"
			},
			{
				"type": "occ",
				"energy": -0.27373,
				"method": "rhf"
			},
			{
				"type": "occ",
				"energy": -0.26409,
				"method": "rhf"
			},
			{
				"type": "occ",
				"energy": -0.25876,
				"method": "rhf"
			},
			{
				"type": "occ",
				"energy": -0.23071,
				"method": "rhf"
			},
			{
				"type": "unocc",
				"energy": -0.02185,
				"method": "rhf"
			},
			{
				"type": "unocc",
				"energy": -0.01536,
				"method": "rhf"
			},
			{
				"type": "unocc",
				"energy": 0.01073,
				"method": "rhf"
			},
			{
				"type": "unocc",
				"energy": 0.03041,
				"method": "rhf"
			},
			{
				"type": "unocc",
				"energy": 0.04019,
				"method": "rhf"
			}
		],
		"cosmo_sigma_profile": { 
			"-0.025": 0.0,
			"-0.024": 0.0,
			"-0.023": 0.0,
			"-0.022": 0.0,
			"-0.021": 0.0,
			"-0.02": 0.0,
			"-0.019": 0.0,
			"-0.018": 0.0,
			"-0.017": 0.0,
			"-0.016": 0.0,
			"-0.015": 0.0,
			"-0.014": 0.0,
			"-0.013": 0.0,
			"-0.012": 0.0,
			"-0.011": 0.0,
			"-0.01": 0.678093025054,
			"-0.009": 4.81290653065,
			"-0.008": 7.62228355584,
			"-0.007": 7.18339723806,
			"-0.006": 16.8444420019,
			"-0.005": 19.975933278,
			"-0.004": 22.7502231105,
			"-0.003": 18.8658021667,
			"-0.002": 14.8709247551,
			"-0.001": 16.2636354433,
			"0.0": 14.8652295891,
			"0.001": 12.0266193032,
			"0.002": 11.5796368532,
			"0.003": 14.4219259273,
			"0.004": 13.5963322542,
			"0.005": 14.8241426724,
			"0.006": 7.04803794275,
			"0.007": 3.61423273515,
			"0.008": 4.05557358216,
			"0.009": 4.45564007347,
			"0.01": 3.63564038747,
			"0.011": 3.57155074831,
			"0.012": 3.43282127441,
			"0.013": 2.38030245115,
			"0.014": 1.10478594764,
			"0.015": 0.911105098167,
			"0.016": 0.822388308772,
			"0.017": 0.84255774782,
			"0.018": 0.141651821244,
			"0.019": 0.0,
			"0.02": 0.0,
			"0.021": 0.0,
			"0.022": 0.0,
			"0.023": 0.0,
			"0.024": 0.0,
			"0.025": 0.0
		}
	}
}
