{
	 "smiles": "NC1=C(C(O)=O)C(I)=CC=C1", 
	 "Tm": 404.15, 
	 "num_atms": 17, 
	 "gaussian": { 
		 "optdone": 1, 
		 "sigma_profile": "yes", 
		 "theory": "DFT", 
		 "functional": "B3LYP", 
		 "basiset": "6-31G**", 
		 "properties": { 
			 "R2extent": 2119.2259, 
			 "electric_dipole_moment_norm": 5.77861265876, 
			 "electric_quadrupole_moment_norm": 14.5913755013, 
			 "total_energy": -486.946346273, 
			 "HOMO_LUMO_gap": 0.17938, 
			 "cosmo_polarized_energy": -18.04, 
			 "cosmo_cavitation_energy": 24.35, 
			 "cosmo_dispersion_energy": -19.28, 
			 "cosmo_repulsion_energy": 1.52, 
			 "cosmo_total_nonelectrostatic_energy": 6.6, 
			 "SMD_solvation_energy": 4.22 
		},
		"coords": [
			{
				"x": 0.01362385,
				"y": 2.2268200347,
				"z": 1.5273285073,
				"element": "N" 
			},
			{
				"x": -0.5280643805,
				"y": 0.9906026477,
				"z": 1.2294714341,
				"element": "C" 
			},
			{
				"x": -1.1394426712,
				"y": 0.729633051,
				"z": -0.0288533725,
				"element": "C" 
			},
			{
				"x": -1.1822296053,
				"y": 1.8323051879,
				"z": -1.0500468841,
				"element": "C" 
			},
			{
				"x": 0.051496932,
				"y": 2.3232080683,
				"z": -1.4062623672,
				"element": "O" 
			},
			{
				"x": -2.1763555435,
				"y": 2.3248309241,
				"z": -1.5116927612,
				"element": "O" 
			},
			{
				"x": -1.7419372838,
				"y": -0.5209648442,
				"z": -0.2443176199,
				"element": "C" 
			},
			{
				"x": -2.635662003,
				"y": -1.0098377444,
				"z": -2.1091932629,
				"element": "I" 
			},
			{
				"x": -1.7319396145,
				"y": -1.5170640653,
				"z": 0.7289835001,
				"element": "C" 
			},
			{
				"x": -1.125683706,
				"y": -1.2462970403,
				"z": 1.9589660341,
				"element": "C" 
			},
			{
				"x": -0.5348827403,
				"y": -0.0177896452,
				"z": 2.2116410331,
				"element": "C" 
			},
			{
				"x": 0.6097207753,
				"y": 2.2958541795,
				"z": 2.3362213478,
				"element": "H" 
			},
			{
				"x": 0.2037462037,
				"y": 2.8803710427,
				"z": 0.7838753554,
				"element": "H" 
			},
			{
				"x": 0.7340842235,
				"y": 1.6978803759,
				"z": -1.1181885856,
				"element": "H" 
			},
			{
				"x": -2.1851106106,
				"y": -2.4813563439,
				"z": 0.5362887158,
				"element": "H" 
			},
			{
				"x": -1.1174211877,
				"y": -2.0124090744,
				"z": 2.7289212359,
				"element": "H" 
			},
			{
				"x": -0.0778426381,
				"y": 0.1829132458,
				"z": 3.1767576899,
				"element": "H" 
			}
		],
		 "valence_orbital": [ 
			{
				"type": "occ",
				"energy": -0.29685,
				"method": "rhf"
			},
			{
				"type": "occ",
				"energy": -0.27992,
				"method": "rhf"
			},
			{
				"type": "occ",
				"energy": -0.26144,
				"method": "rhf"
			},
			{
				"type": "occ",
				"energy": -0.24797,
				"method": "rhf"
			},
			{
				"type": "occ",
				"energy": -0.22221,
				"method": "rhf"
			},
			{
				"type": "unocc",
				"energy": -0.04283,
				"method": "rhf"
			},
			{
				"type": "unocc",
				"energy": -0.03868,
				"method": "rhf"
			},
			{
				"type": "unocc",
				"energy": -0.01109,
				"method": "rhf"
			},
			{
				"type": "unocc",
				"energy": 0.01414,
				"method": "rhf"
			},
			{
				"type": "unocc",
				"energy": 0.03854,
				"method": "rhf"
			}
		],
		"cosmo_sigma_profile": { 
			"-0.025": 0.0,
			"-0.024": 0.0,
			"-0.023": 0.0,
			"-0.022": 0.0,
			"-0.021": 0.0,
			"-0.02": 0.0,
			"-0.019": 0.246358764031,
			"-0.018": 0.836816908068,
			"-0.017": 0.89534259621,
			"-0.016": 0.736175994161,
			"-0.015": 0.905534854581,
			"-0.014": 1.35889385975,
			"-0.013": 2.73954742915,
			"-0.012": 3.54821672967,
			"-0.011": 2.98864090704,
			"-0.01": 4.09575835097,
			"-0.009": 3.30684286556,
			"-0.008": 3.23367221854,
			"-0.007": 6.2109504771,
			"-0.006": 10.5522475839,
			"-0.005": 10.0525872643,
			"-0.004": 8.10879184962,
			"-0.003": 7.81985202967,
			"-0.002": 8.48708308006,
			"-0.001": 7.88090764705,
			"0.0": 8.64467450939,
			"0.001": 11.0300119533,
			"0.002": 15.2593318654,
			"0.003": 19.3902249916,
			"0.004": 21.7270256081,
			"0.005": 7.21642028323,
			"0.006": 3.26421299868,
			"0.007": 4.14981115461,
			"0.008": 4.1888791792,
			"0.009": 4.31246176689,
			"0.01": 6.30511413669,
			"0.011": 5.82254064749,
			"0.012": 3.75541879044,
			"0.013": 0.307646832475,
			"0.014": 0.0,
			"0.015": 0.0,
			"0.016": 0.0,
			"0.017": 0.0,
			"0.018": 0.0,
			"0.019": 0.0,
			"0.02": 0.0,
			"0.021": 0.0,
			"0.022": 0.0,
			"0.023": 0.0,
			"0.024": 0.0,
			"0.025": 0.0
		}
	}
}
