{
	 "smiles": "NC1=NN=C(O1)C1=CC(Br)=CC=C1", 
	 "Tm": 483.15, 
	 "num_atms": 19, 
	 "gaussian": { 
		 "optdone": 1, 
		 "sigma_profile": "yes", 
		 "theory": "DFT", 
		 "functional": "B3LYP", 
		 "basiset": "6-31G**", 
		 "properties": { 
			 "R2extent": 5633.9375, 
			 "electric_dipole_moment_norm": 2.55982608394, 
			 "electric_quadrupole_moment_norm": 20.5662328279, 
			 "total_energy": -3119.32635695, 
			 "HOMO_LUMO_gap": 0.17329, 
			 "cosmo_polarized_energy": -15.32, 
			 "cosmo_cavitation_energy": 26.89, 
			 "cosmo_dispersion_energy": -20.48, 
			 "cosmo_repulsion_energy": 1.62, 
			 "cosmo_total_nonelectrostatic_energy": 8.03, 
			 "SMD_solvation_energy": 1.98 
		},
		"coords": [
			{
				"x": 2.934710235,
				"y": 2.1683004001,
				"z": 1.8771913486,
				"element": "N" 
			},
			{
				"x": 1.9596974673,
				"y": 1.726959282,
				"z": 1.0297303035,
				"element": "C" 
			},
			{
				"x": 1.7637775555,
				"y": 2.0458642559,
				"z": -0.2177634692,
				"element": "N" 
			},
			{
				"x": 0.6975027721,
				"y": 1.2502911317,
				"z": -0.6399406157,
				"element": "N" 
			},
			{
				"x": 0.32641303,
				"y": 0.5308259339,
				"z": 0.3713343817,
				"element": "C" 
			},
			{
				"x": 1.1005569852,
				"y": 0.7828376203,
				"z": 1.4898219488,
				"element": "O" 
			},
			{
				"x": -0.7497270827,
				"y": -0.4468152858,
				"z": 0.4568644893,
				"element": "C" 
			},
			{
				"x": -0.9992155608,
				"y": -1.137186057,
				"z": 1.6526723059,
				"element": "C" 
			},
			{
				"x": -2.0371823376,
				"y": -2.0630932637,
				"z": 1.6956263697,
				"element": "C" 
			},
			{
				"x": -2.3769861527,
				"y": -3.0022256074,
				"z": 3.3260227356,
				"element": "Br" 
			},
			{
				"x": -2.8321257272,
				"y": -2.3208829387,
				"z": 0.580528019,
				"element": "C" 
			},
			{
				"x": -2.5732834483,
				"y": -1.6275058591,
				"z": -0.6055345999,
				"element": "C" 
			},
			{
				"x": -1.5429753187,
				"y": -0.696147733,
				"z": -0.6756497344,
				"element": "C" 
			},
			{
				"x": 3.4096246455,
				"y": 2.9970144167,
				"z": 1.5478103657,
				"element": "H" 
			},
			{
				"x": 2.6958246133,
				"y": 2.1816828893,
				"z": 2.8587298593,
				"element": "H" 
			},
			{
				"x": -0.392111375,
				"y": -0.9533727727,
				"z": 2.5302561496,
				"element": "H" 
			},
			{
				"x": -3.6348115192,
				"y": -3.0468854642,
				"z": 0.6375669079,
				"element": "H" 
			},
			{
				"x": -3.1863949384,
				"y": -1.8208270588,
				"z": -1.4804594499,
				"element": "H" 
			},
			{
				"x": -1.3370938434,
				"y": -0.1547338897,
				"z": -1.5922073152,
				"element": "H" 
			}
		],
		 "valence_orbital": [ 
			{
				"type": "occ",
				"energy": -0.29189,
				"method": "rhf"
			},
			{
				"type": "occ",
				"energy": -0.28399,
				"method": "rhf"
			},
			{
				"type": "occ",
				"energy": -0.27506,
				"method": "rhf"
			},
			{
				"type": "occ",
				"energy": -0.25287,
				"method": "rhf"
			},
			{
				"type": "occ",
				"energy": -0.22522,
				"method": "rhf"
			},
			{
				"type": "unocc",
				"energy": -0.05193,
				"method": "rhf"
			},
			{
				"type": "unocc",
				"energy": -0.02069,
				"method": "rhf"
			},
			{
				"type": "unocc",
				"energy": 0.00204,
				"method": "rhf"
			},
			{
				"type": "unocc",
				"energy": 0.03112,
				"method": "rhf"
			},
			{
				"type": "unocc",
				"energy": 0.05662,
				"method": "rhf"
			}
		],
		"cosmo_sigma_profile": { 
			"-0.025": 0.0,
			"-0.024": 0.0,
			"-0.023": 0.0,
			"-0.022": 0.0,
			"-0.021": 0.0,
			"-0.02": 0.0,
			"-0.019": 0.0,
			"-0.018": 0.0,
			"-0.017": 0.0,
			"-0.016": 0.568840862832,
			"-0.015": 2.21575523998,
			"-0.014": 2.87450270482,
			"-0.013": 2.64287498972,
			"-0.012": 1.96047518832,
			"-0.011": 2.27841939192,
			"-0.01": 1.64335808373,
			"-0.009": 2.76713892584,
			"-0.008": 2.54033915914,
			"-0.007": 6.67092547054,
			"-0.006": 7.70487174555,
			"-0.005": 10.2875514948,
			"-0.004": 11.2885421603,
			"-0.003": 11.3165305261,
			"-0.002": 13.8714209731,
			"-0.001": 13.5273508484,
			"0.0": 15.693411053,
			"0.001": 21.1093363566,
			"0.002": 25.3680715216,
			"0.003": 17.1364146101,
			"0.004": 14.1744212922,
			"0.005": 5.36212513556,
			"0.006": 3.56971293375,
			"0.007": 1.65942544607,
			"0.008": 2.25965141564,
			"0.009": 2.83497717517,
			"0.01": 2.77994628252,
			"0.011": 2.45639962943,
			"0.012": 3.73476953504,
			"0.013": 2.92367172356,
			"0.014": 2.51151102981,
			"0.015": 1.31350258038,
			"0.016": 0.785239237348,
			"0.017": 0.0,
			"0.018": 0.0,
			"0.019": 0.0,
			"0.02": 0.0,
			"0.021": 0.0,
			"0.022": 0.0,
			"0.023": 0.0,
			"0.024": 0.0,
			"0.025": 0.0
		}
	}
}
