{
	 "smiles": "CNC(=O)OC1=CC(C)=C(C)C(C)=C1", 
	 "Tm": 383.15, 
	 "num_atms": 29, 
	 "gaussian": { 
		 "optdone": 1, 
		 "sigma_profile": "yes", 
		 "theory": "DFT", 
		 "functional": "B3LYP", 
		 "basiset": "6-31G**", 
		 "properties": { 
			 "R2extent": 3817.5938, 
			 "electric_dipole_moment_norm": 2.23400770142, 
			 "electric_quadrupole_moment_norm": 19.1620365844, 
			 "total_energy": -633.445330488, 
			 "HOMO_LUMO_gap": 0.2248, 
			 "cosmo_polarized_energy": -11.23, 
			 "cosmo_cavitation_energy": 31.99, 
			 "cosmo_dispersion_energy": -22.96, 
			 "cosmo_repulsion_energy": 1.83, 
			 "cosmo_total_nonelectrostatic_energy": 10.87, 
			 "SMD_solvation_energy": 6.39 
		},
		"coords": [
			{
				"x": -1.7872030022,
				"y": 4.2903305718,
				"z": -1.2958648958,
				"element": "C" 
			},
			{
				"x": -1.4335149706,
				"y": 4.0894005698,
				"z": 0.1002760262,
				"element": "N" 
			},
			{
				"x": -1.1105282709,
				"y": 2.8990974546,
				"z": 0.6826544387,
				"element": "C" 
			},
			{
				"x": -0.9445775155,
				"y": 2.735512639,
				"z": 1.8746394329,
				"element": "O" 
			},
			{
				"x": -0.9896898308,
				"y": 1.9299793121,
				"z": -0.2829664072,
				"element": "O" 
			},
			{
				"x": -0.6143588695,
				"y": 0.6305142929,
				"z": 0.0584767315,
				"element": "C" 
			},
			{
				"x": 0.4247329744,
				"y": 0.3432344067,
				"z": 0.9374927532,
				"element": "C" 
			},
			{
				"x": 0.7880742321,
				"y": -0.9882448749,
				"z": 1.1623016399,
				"element": "C" 
			},
			{
				"x": 1.9122936744,
				"y": -1.2876192954,
				"z": 2.1272293642,
				"element": "C" 
			},
			{
				"x": 0.1154201164,
				"y": -2.0355871963,
				"z": 0.4959530529,
				"element": "C" 
			},
			{
				"x": 0.5342796184,
				"y": -3.4652535057,
				"z": 0.7594638896,
				"element": "C" 
			},
			{
				"x": -0.9302237967,
				"y": -1.7268841406,
				"z": -0.3981148255,
				"element": "C" 
			},
			{
				"x": -1.6899412431,
				"y": -2.8023573872,
				"z": -1.1457898168,
				"element": "C" 
			},
			{
				"x": -1.285655125,
				"y": -0.3892900537,
				"z": -0.6048563732,
				"element": "C" 
			},
			{
				"x": -1.791417447,
				"y": 5.363220692,
				"z": -1.5013967164,
				"element": "H" 
			},
			{
				"x": -2.7752297834,
				"y": 3.882696621,
				"z": -1.5450237675,
				"element": "H" 
			},
			{
				"x": -1.0478103035,
				"y": 3.8168422811,
				"z": -1.9441724144,
				"element": "H" 
			},
			{
				"x": -1.6376317107,
				"y": 4.8150040616,
				"z": 0.7697137114,
				"element": "H" 
			},
			{
				"x": 0.9325280767,
				"y": 1.1443227069,
				"z": 1.4587846751,
				"element": "H" 
			},
			{
				"x": 2.3226154866,
				"y": -0.3671217917,
				"z": 2.5494146141,
				"element": "H" 
			},
			{
				"x": 1.5737818565,
				"y": -1.914385935,
				"z": 2.9612567902,
				"element": "H" 
			},
			{
				"x": 2.7328129744,
				"y": -1.8290718297,
				"z": 1.6405865019,
				"element": "H" 
			},
			{
				"x": 0.4323006372,
				"y": -3.7232694859,
				"z": 1.8208471036,
				"element": "H" 
			},
			{
				"x": 1.5875150702,
				"y": -3.6293819245,
				"z": 0.4997148615,
				"element": "H" 
			},
			{
				"x": -0.0569846619,
				"y": -4.1839200227,
				"z": 0.1913755491,
				"element": "H" 
			},
			{
				"x": -2.1924255676,
				"y": -3.4983793731,
				"z": -0.4641975045,
				"element": "H" 
			},
			{
				"x": -2.4572465515,
				"y": -2.3591228759,
				"z": -1.7858665413,
				"element": "H" 
			},
			{
				"x": -1.0314542762,
				"y": -3.3997217641,
				"z": -1.7869926717,
				"element": "H" 
			},
			{
				"x": -2.0876617915,
				"y": -0.130144153,
				"z": -1.2890392019,
				"element": "H" 
			}
		],
		 "valence_orbital": [ 
			{
				"type": "occ",
				"energy": -0.30204,
				"method": "rhf"
			},
			{
				"type": "occ",
				"energy": -0.26818,
				"method": "rhf"
			},
			{
				"type": "occ",
				"energy": -0.25314,
				"method": "rhf"
			},
			{
				"type": "occ",
				"energy": -0.23007,
				"method": "rhf"
			},
			{
				"type": "occ",
				"energy": -0.21719,
				"method": "rhf"
			},
			{
				"type": "unocc",
				"energy": 0.00761,
				"method": "rhf"
			},
			{
				"type": "unocc",
				"energy": 0.01185,
				"method": "rhf"
			},
			{
				"type": "unocc",
				"energy": 0.05838,
				"method": "rhf"
			},
			{
				"type": "unocc",
				"energy": 0.08275,
				"method": "rhf"
			},
			{
				"type": "unocc",
				"energy": 0.09326,
				"method": "rhf"
			}
		],
		"cosmo_sigma_profile": { 
			"-0.025": 0.0,
			"-0.024": 0.0,
			"-0.023": 0.0,
			"-0.022": 0.0,
			"-0.021": 0.0,
			"-0.02": 0.0,
			"-0.019": 0.0,
			"-0.018": 0.0,
			"-0.017": 0.0,
			"-0.016": 0.0,
			"-0.015": 0.0809832639083,
			"-0.014": 1.12468662955,
			"-0.013": 1.27385193082,
			"-0.012": 0.751821899479,
			"-0.011": 1.32969587242,
			"-0.01": 0.838552860597,
			"-0.009": 0.711807830471,
			"-0.008": 1.50235498689,
			"-0.007": 1.50709063686,
			"-0.006": 3.15863834385,
			"-0.005": 9.06311779114,
			"-0.004": 24.2227251962,
			"-0.003": 30.5979567578,
			"-0.002": 28.2349395776,
			"-0.001": 25.4084522187,
			"0.0": 29.5099297213,
			"0.001": 21.2750800288,
			"0.002": 11.2233167227,
			"0.003": 10.8199319564,
			"0.004": 11.8258153767,
			"0.005": 10.9774420672,
			"0.006": 7.9290005353,
			"0.007": 2.15586046931,
			"0.008": 1.93123747773,
			"0.009": 1.01166788599,
			"0.01": 1.62111753713,
			"0.011": 1.74514401564,
			"0.012": 2.88333273253,
			"0.013": 5.63595604826,
			"0.014": 1.29594983061,
			"0.015": 0.0,
			"0.016": 0.0,
			"0.017": 0.0,
			"0.018": 0.0,
			"0.019": 0.0,
			"0.02": 0.0,
			"0.021": 0.0,
			"0.022": 0.0,
			"0.023": 0.0,
			"0.024": 0.0,
			"0.025": 0.0
		}
	}
}
