{
	 "smiles": "C1CC(CCN1)C1=NC2=C(S1)C=CC=C2", 
	 "Tm": 401.15, 
	 "num_atms": 29, 
	 "gaussian": { 
		 "optdone": 1, 
		 "sigma_profile": "yes", 
		 "theory": "DFT", 
		 "functional": "B3LYP", 
		 "basiset": "6-31G**", 
		 "properties": { 
			 "R2extent": 4041.8402, 
			 "electric_dipole_moment_norm": 1.94007923034, 
			 "electric_quadrupole_moment_norm": 10.6494250817, 
			 "total_energy": -973.410009902, 
			 "HOMO_LUMO_gap": 0.16832, 
			 "cosmo_polarized_energy": -7.5, 
			 "cosmo_cavitation_energy": 31.54, 
			 "cosmo_dispersion_energy": -23.76, 
			 "cosmo_repulsion_energy": 1.8, 
			 "cosmo_total_nonelectrostatic_energy": 9.59, 
			 "SMD_solvation_energy": 0.39 
		},
		"coords": [
			{
				"x": -0.5761674122,
				"y": -2.3846824655,
				"z": 1.0987058154,
				"element": "C" 
			},
			{
				"x": 0.4909393671,
				"y": -2.8463183543,
				"z": 0.0722597041,
				"element": "C" 
			},
			{
				"x": 0.3833202479,
				"y": -2.0710922715,
				"z": -1.2666675301,
				"element": "C" 
			},
			{
				"x": -1.0408360791,
				"y": -2.2606836165,
				"z": -1.8698487716,
				"element": "C" 
			},
			{
				"x": -2.1038204511,
				"y": -2.5472993091,
				"z": -0.7769462422,
				"element": "C" 
			},
			{
				"x": -1.8242851517,
				"y": -1.8900942672,
				"z": 0.4983146564,
				"element": "N" 
			},
			{
				"x": 0.7565931377,
				"y": -0.6167712808,
				"z": -1.0904744282,
				"element": "C" 
			},
			{
				"x": -0.0396467524,
				"y": 0.3313128721,
				"z": -0.7113323959,
				"element": "N" 
			},
			{
				"x": 0.6147548556,
				"y": 1.5510048347,
				"z": -0.6089907112,
				"element": "C" 
			},
			{
				"x": 1.9935574677,
				"y": 1.5246733886,
				"z": -0.9303895219,
				"element": "C" 
			},
			{
				"x": 2.4433450672,
				"y": -0.1084828931,
				"z": -1.3767700759,
				"element": "S" 
			},
			{
				"x": 2.7762648546,
				"y": 2.6805123832,
				"z": -0.8731523727,
				"element": "C" 
			},
			{
				"x": 2.1628283271,
				"y": 3.8696534956,
				"z": -0.4865843678,
				"element": "C" 
			},
			{
				"x": 0.7952637704,
				"y": 3.9078255114,
				"z": -0.1637180652,
				"element": "C" 
			},
			{
				"x": 0.0160304781,
				"y": 2.7584597037,
				"z": -0.2222049373,
				"element": "C" 
			},
			{
				"x": -0.8030417267,
				"y": -3.2258279459,
				"z": 1.7687331698,
				"element": "H" 
			},
			{
				"x": -0.1715277826,
				"y": -1.5856020027,
				"z": 1.7277131482,
				"element": "H" 
			},
			{
				"x": 1.4974083433,
				"y": -2.7515464908,
				"z": 0.4945784313,
				"element": "H" 
			},
			{
				"x": 0.3522977604,
				"y": -3.9087314294,
				"z": -0.1626540108,
				"element": "H" 
			},
			{
				"x": 1.117914221,
				"y": -2.4980045735,
				"z": -1.9586795951,
				"element": "H" 
			},
			{
				"x": -1.0139847613,
				"y": -3.0886501902,
				"z": -2.5888560853,
				"element": "H" 
			},
			{
				"x": -1.3163191638,
				"y": -1.3626010595,
				"z": -2.4305053744,
				"element": "H" 
			},
			{
				"x": -3.0923465926,
				"y": -2.2350136102,
				"z": -1.1308314354,
				"element": "H" 
			},
			{
				"x": -2.1709504581,
				"y": -3.6273832769,
				"z": -0.5918135746,
				"element": "H" 
			},
			{
				"x": -1.7091240949,
				"y": -0.8956541045,
				"z": 0.3134495183,
				"element": "H" 
			},
			{
				"x": 3.8324304886,
				"y": 2.6560254157,
				"z": -1.1215912789,
				"element": "H" 
			},
			{
				"x": 2.7521630872,
				"y": 4.7802232351,
				"z": -0.4345022134,
				"element": "H" 
			},
			{
				"x": 0.3430981545,
				"y": 4.8486659247,
				"z": 0.1351026645,
				"element": "H" 
			},
			{
				"x": -1.040659202,
				"y": 2.7729823767,
				"z": 0.0240558799,
				"element": "H" 
			}
		],
		 "valence_orbital": [ 
			{
				"type": "occ",
				"energy": -0.30425,
				"method": "rhf"
			},
			{
				"type": "occ",
				"energy": -0.27906,
				"method": "rhf"
			},
			{
				"type": "occ",
				"energy": -0.23916,
				"method": "rhf"
			},
			{
				"type": "occ",
				"energy": -0.23708,
				"method": "rhf"
			},
			{
				"type": "occ",
				"energy": -0.20402,
				"method": "rhf"
			},
			{
				"type": "unocc",
				"energy": -0.0357,
				"method": "rhf"
			},
			{
				"type": "unocc",
				"energy": -0.00808,
				"method": "rhf"
			},
			{
				"type": "unocc",
				"energy": 0.00577,
				"method": "rhf"
			},
			{
				"type": "unocc",
				"energy": 0.0303,
				"method": "rhf"
			},
			{
				"type": "unocc",
				"energy": 0.08442,
				"method": "rhf"
			}
		],
		"cosmo_sigma_profile": { 
			"-0.025": 0.0,
			"-0.024": 0.0,
			"-0.023": 0.0,
			"-0.022": 0.0,
			"-0.021": 0.0,
			"-0.02": 0.0,
			"-0.019": 0.0,
			"-0.018": 0.0,
			"-0.017": 0.0,
			"-0.016": 0.0,
			"-0.015": 0.0,
			"-0.014": 0.0,
			"-0.013": 0.0,
			"-0.012": 0.0,
			"-0.011": 0.0,
			"-0.01": 0.0,
			"-0.009": 0.0,
			"-0.008": 0.0469281158462,
			"-0.007": 2.48073905112,
			"-0.006": 8.68517157352,
			"-0.005": 11.6734901828,
			"-0.004": 14.8199504639,
			"-0.003": 30.4242072735,
			"-0.002": 33.1718895319,
			"-0.001": 29.1887465302,
			"0.0": 24.9365585196,
			"0.001": 18.279771473,
			"0.002": 17.0774107925,
			"0.003": 19.1372242719,
			"0.004": 17.706288139,
			"0.005": 10.267996011,
			"0.006": 2.30511703176,
			"0.007": 1.51429130258,
			"0.008": 1.37157299947,
			"0.009": 1.29780243833,
			"0.01": 0.929189753959,
			"0.011": 0.931667238308,
			"0.012": 0.452396656049,
			"0.013": 0.682824169141,
			"0.014": 0.619004733073,
			"0.015": 0.834722209274,
			"0.016": 0.424504698378,
			"0.017": 0.511841835799,
			"0.018": 0.637713574366,
			"0.019": 0.589200529795,
			"0.02": 0.0814704187261,
			"0.021": 0.0,
			"0.022": 0.0,
			"0.023": 0.0,
			"0.024": 0.0,
			"0.025": 0.0
		}
	}
}
