{
	 "smiles": "ClC(=O)C1=CC=C(C=C1)C1=CC=CS1", 
	 "Tm": 387.15, 
	 "num_atms": 21, 
	 "gaussian": { 
		 "optdone": 1, 
		 "sigma_profile": "yes", 
		 "theory": "DFT", 
		 "functional": "B3LYP", 
		 "basiset": "6-31G**", 
		 "properties": { 
			 "R2extent": 5286.0672, 
			 "electric_dipole_moment_norm": 5.37918918054, 
			 "electric_quadrupole_moment_norm": 10.2224275904, 
			 "total_energy": -1356.99357549, 
			 "HOMO_LUMO_gap": 0.14676, 
			 "cosmo_polarized_energy": -7.92, 
			 "cosmo_cavitation_energy": 29.23, 
			 "cosmo_dispersion_energy": -22.2, 
			 "cosmo_repulsion_energy": 1.67, 
			 "cosmo_total_nonelectrostatic_energy": 8.69, 
			 "SMD_solvation_energy": 5.45 
		},
		"coords": [
			{
				"x": 1.0101552438,
				"y": -0.3914278887,
				"z": 5.1755197333,
				"element": "Cl" 
			},
			{
				"x": 1.8876136743,
				"y": -0.08630192,
				"z": 3.591468354,
				"element": "C" 
			},
			{
				"x": 3.0428903255,
				"y": 0.2171754236,
				"z": 3.6288054588,
				"element": "O" 
			},
			{
				"x": 1.0637531335,
				"y": -0.2471798057,
				"z": 2.3762498581,
				"element": "C" 
			},
			{
				"x": 1.7087856742,
				"y": -0.0207832421,
				"z": 1.1455308629,
				"element": "C" 
			},
			{
				"x": 1.0161705648,
				"y": -0.1540179755,
				"z": -0.0466089539,
				"element": "C" 
			},
			{
				"x": -0.3502707233,
				"y": -0.5061868568,
				"z": -0.0564660049,
				"element": "C" 
			},
			{
				"x": -0.984129598,
				"y": -0.729639431,
				"z": 1.1814533491,
				"element": "C" 
			},
			{
				"x": -0.2913912448,
				"y": -0.60729049,
				"z": 2.3787057559,
				"element": "C" 
			},
			{
				"x": -1.0730239308,
				"y": -0.6283796328,
				"z": -1.3234171876,
				"element": "C" 
			},
			{
				"x": -0.7600620685,
				"y": -0.067893651,
				"z": -2.5442791088,
				"element": "C" 
			},
			{
				"x": -1.6866529527,
				"y": -0.3882930148,
				"z": -3.5745527055,
				"element": "C" 
			},
			{
				"x": -2.7034030166,
				"y": -1.1951506207,
				"z": -3.1385773715,
				"element": "C" 
			},
			{
				"x": -2.5425870925,
				"y": -1.5766270672,
				"z": -1.4588867265,
				"element": "S" 
			},
			{
				"x": 2.7594464265,
				"y": 0.2476980832,
				"z": 1.1470316225,
				"element": "H" 
			},
			{
				"x": 1.5391800485,
				"y": -0.0062731094,
				"z": -0.9854099206,
				"element": "H" 
			},
			{
				"x": -2.0390729111,
				"y": -0.9844525216,
				"z": 1.2069209823,
				"element": "H" 
			},
			{
				"x": -0.8016142108,
				"y": -0.7813114907,
				"z": 3.3181476684,
				"element": "H" 
			},
			{
				"x": 0.095401325,
				"y": 0.5807234745,
				"z": -2.6928693621,
				"element": "H" 
			},
			{
				"x": -1.6038345949,
				"y": -0.0298363615,
				"z": -4.5940226716,
				"element": "H" 
			},
			{
				"x": -3.5346540723,
				"y": -1.592851902,
				"z": -3.7041436324,
				"element": "H" 
			}
		],
		 "valence_orbital": [ 
			{
				"type": "occ",
				"energy": -0.29812,
				"method": "rhf"
			},
			{
				"type": "occ",
				"energy": -0.29005,
				"method": "rhf"
			},
			{
				"type": "occ",
				"energy": -0.27702,
				"method": "rhf"
			},
			{
				"type": "occ",
				"energy": -0.26703,
				"method": "rhf"
			},
			{
				"type": "occ",
				"energy": -0.23222,
				"method": "rhf"
			},
			{
				"type": "unocc",
				"energy": -0.08546,
				"method": "rhf"
			},
			{
				"type": "unocc",
				"energy": -0.02678,
				"method": "rhf"
			},
			{
				"type": "unocc",
				"energy": -0.02406,
				"method": "rhf"
			},
			{
				"type": "unocc",
				"energy": 0.01587,
				"method": "rhf"
			},
			{
				"type": "unocc",
				"energy": 0.02162,
				"method": "rhf"
			}
		],
		"cosmo_sigma_profile": { 
			"-0.025": 0.0,
			"-0.024": 0.0,
			"-0.023": 0.0,
			"-0.022": 0.0,
			"-0.021": 0.0,
			"-0.02": 0.0,
			"-0.019": 0.0,
			"-0.018": 0.0,
			"-0.017": 0.0,
			"-0.016": 0.0,
			"-0.015": 0.0,
			"-0.014": 0.0,
			"-0.013": 0.0,
			"-0.012": 0.0,
			"-0.011": 0.0,
			"-0.01": 0.0,
			"-0.009": 1.32365025879,
			"-0.008": 4.59320146904,
			"-0.007": 10.3400918242,
			"-0.006": 12.1621345688,
			"-0.005": 12.2965935854,
			"-0.004": 13.0761601813,
			"-0.003": 13.3852391013,
			"-0.002": 14.9379587605,
			"-0.001": 17.3479494555,
			"0.0": 20.7392412633,
			"0.001": 23.1790880743,
			"0.002": 31.2563758693,
			"0.003": 22.2660482251,
			"0.004": 19.5401344878,
			"0.005": 9.3507239834,
			"0.006": 3.87720338269,
			"0.007": 2.51384867656,
			"0.008": 3.74362797767,
			"0.009": 3.79675309883,
			"0.01": 0.899402341174,
			"0.011": 0.0,
			"0.012": 0.0,
			"0.013": 0.0,
			"0.014": 0.0,
			"0.015": 0.0,
			"0.016": 0.0,
			"0.017": 0.0,
			"0.018": 0.0,
			"0.019": 0.0,
			"0.02": 0.0,
			"0.021": 0.0,
			"0.022": 0.0,
			"0.023": 0.0,
			"0.024": 0.0,
			"0.025": 0.0
		}
	}
}
