{
	 "smiles": "NC1=CC=C(C=C1)C(=O)NCC=C", 
	 "Tm": 352.15, 
	 "num_atms": 25, 
	 "gaussian": { 
		 "optdone": 1, 
		 "sigma_profile": "yes", 
		 "theory": "DFT", 
		 "functional": "B3LYP", 
		 "basiset": "6-31G**", 
		 "properties": { 
			 "R2extent": 3049.5101, 
			 "electric_dipole_moment_norm": 4.98879816589, 
			 "electric_quadrupole_moment_norm": 13.7012571657, 
			 "total_energy": -573.015764248, 
			 "HOMO_LUMO_gap": 0.19062, 
			 "cosmo_polarized_energy": -16.71, 
			 "cosmo_cavitation_energy": 28.82, 
			 "cosmo_dispersion_energy": -20.59, 
			 "cosmo_repulsion_energy": 1.65, 
			 "cosmo_total_nonelectrostatic_energy": 9.88, 
			 "SMD_solvation_energy": 6.14 
		},
		"coords": [
			{
				"x": -3.0663096564,
				"y": 0.242805426,
				"z": 2.9464755642,
				"element": "N" 
			},
			{
				"x": -2.2601983982,
				"y": -0.0326284737,
				"z": 1.8493723211,
				"element": "C" 
			},
			{
				"x": -1.3798096964,
				"y": 0.9394486788,
				"z": 1.3402827206,
				"element": "C" 
			},
			{
				"x": -0.5430418809,
				"y": 0.6470850557,
				"z": 0.2688117924,
				"element": "C" 
			},
			{
				"x": -0.5520111334,
				"y": -0.6232068038,
				"z": -0.3291709803,
				"element": "C" 
			},
			{
				"x": -1.4097904181,
				"y": -1.5994591304,
				"z": 0.2026994668,
				"element": "C" 
			},
			{
				"x": -2.2590107142,
				"y": -1.3124541113,
				"z": 1.2605797527,
				"element": "C" 
			},
			{
				"x": 0.3662728884,
				"y": -1.0421857205,
				"z": -1.4311370192,
				"element": "C" 
			},
			{
				"x": 0.7574188202,
				"y": -2.2033368365,
				"z": -1.5285542698,
				"element": "O" 
			},
			{
				"x": 0.8109074988,
				"y": -0.0924083789,
				"z": -2.3350637261,
				"element": "N" 
			},
			{
				"x": 0.1288106392,
				"y": 1.1147169448,
				"z": -2.7785990413,
				"element": "C" 
			},
			{
				"x": 0.9204134759,
				"y": 2.3891818389,
				"z": -2.6034879857,
				"element": "C" 
			},
			{
				"x": 2.1131565754,
				"y": 2.4865254318,
				"z": -2.0174295019,
				"element": "C" 
			},
			{
				"x": -3.2679425895,
				"y": 1.2171228522,
				"z": 3.1187521542,
				"element": "H" 
			},
			{
				"x": -3.8725222853,
				"y": -0.3531564568,
				"z": 3.0670360907,
				"element": "H" 
			},
			{
				"x": -1.3452803492,
				"y": 1.9235818273,
				"z": 1.8012745477,
				"element": "H" 
			},
			{
				"x": 0.1431181263,
				"y": 1.4110457486,
				"z": -0.0835422989,
				"element": "H" 
			},
			{
				"x": -1.3907968415,
				"y": -2.5927870517,
				"z": -0.2333444595,
				"element": "H" 
			},
			{
				"x": -2.9214116702,
				"y": -2.0811729303,
				"z": 1.651223857,
				"element": "H" 
			},
			{
				"x": 1.4444587094,
				"y": -0.5126713446,
				"z": -3.0041152499,
				"element": "H" 
			},
			{
				"x": -0.8241786062,
				"y": 1.1970539657,
				"z": -2.2458245249,
				"element": "H" 
			},
			{
				"x": -0.1388288325,
				"y": 1.0106852968,
				"z": -3.8415521796,
				"element": "H" 
			},
			{
				"x": 0.4400173338,
				"y": 3.2790930627,
				"z": -3.0110697567,
				"element": "H" 
			},
			{
				"x": 2.6253283844,
				"y": 3.4396358494,
				"z": -1.9310140485,
				"element": "H" 
			},
			{
				"x": 2.6106306203,
				"y": 1.6116852597,
				"z": -1.6091032249,
				"element": "H" 
			}
		],
		 "valence_orbital": [ 
			{
				"type": "occ",
				"energy": -0.26356,
				"method": "rhf"
			},
			{
				"type": "occ",
				"energy": -0.25077,
				"method": "rhf"
			},
			{
				"type": "occ",
				"energy": -0.24898,
				"method": "rhf"
			},
			{
				"type": "occ",
				"energy": -0.23388,
				"method": "rhf"
			},
			{
				"type": "occ",
				"energy": -0.20578,
				"method": "rhf"
			},
			{
				"type": "unocc",
				"energy": -0.01516,
				"method": "rhf"
			},
			{
				"type": "unocc",
				"energy": 3e-05,
				"method": "rhf"
			},
			{
				"type": "unocc",
				"energy": 0.01677,
				"method": "rhf"
			},
			{
				"type": "unocc",
				"energy": 0.06632,
				"method": "rhf"
			},
			{
				"type": "unocc",
				"energy": 0.08021,
				"method": "rhf"
			}
		],
		"cosmo_sigma_profile": { 
			"-0.025": 0.0,
			"-0.024": 0.0,
			"-0.023": 0.0,
			"-0.022": 0.0,
			"-0.021": 0.0,
			"-0.02": 0.0,
			"-0.019": 0.0,
			"-0.018": 0.0,
			"-0.017": 0.0,
			"-0.016": 0.0,
			"-0.015": 0.0,
			"-0.014": 0.0,
			"-0.013": 1.82693143776,
			"-0.012": 3.91930633598,
			"-0.011": 3.45590973063,
			"-0.01": 4.65104175491,
			"-0.009": 4.41383448295,
			"-0.008": 3.25144950494,
			"-0.007": 4.298696868,
			"-0.006": 8.27998501743,
			"-0.005": 15.2048555413,
			"-0.004": 16.7297702711,
			"-0.003": 16.5015434977,
			"-0.002": 14.8514019561,
			"-0.001": 15.2598578265,
			"0.0": 15.3563626112,
			"0.001": 14.8849425082,
			"0.002": 13.0427364967,
			"0.003": 11.2334876218,
			"0.004": 12.6849129843,
			"0.005": 15.7790684644,
			"0.006": 7.79477568707,
			"0.007": 2.6756233203,
			"0.008": 2.5396989153,
			"0.009": 1.4458749044,
			"0.01": 2.39753439716,
			"0.011": 2.9657156281,
			"0.012": 1.99577482276,
			"0.013": 2.99136160459,
			"0.014": 5.85825762819,
			"0.015": 2.12778273433,
			"0.016": 0.0,
			"0.017": 0.0,
			"0.018": 0.0,
			"0.019": 0.0,
			"0.02": 0.0,
			"0.021": 0.0,
			"0.022": 0.0,
			"0.023": 0.0,
			"0.024": 0.0,
			"0.025": 0.0
		}
	}
}
