{
	 "smiles": "CC1=NC2=C(S1)C=C(C=C2)S(Cl)(=O)=O", 
	 "Tm": 372.65, 
	 "num_atms": 20, 
	 "gaussian": { 
		 "optdone": 1, 
		 "sigma_profile": "yes", 
		 "theory": "DFT", 
		 "functional": "B3LYP", 
		 "basiset": "6-31G**", 
		 "properties": { 
			 "R2extent": 6267.4092, 
			 "electric_dipole_moment_norm": 6.18461193851, 
			 "electric_quadrupole_moment_norm": 20.6014451338, 
			 "total_energy": -1770.17867552, 
			 "HOMO_LUMO_gap": 0.17353, 
			 "cosmo_polarized_energy": -10.62, 
			 "cosmo_cavitation_energy": 29.8, 
			 "cosmo_dispersion_energy": -22.93, 
			 "cosmo_repulsion_energy": 1.71, 
			 "cosmo_total_nonelectrostatic_energy": 8.58, 
			 "SMD_solvation_energy": 1.65 
		},
		"coords": [
			{
				"x": -3.6177831823,
				"y": 1.2372663521,
				"z": 1.0501103528,
				"element": "C" 
			},
			{
				"x": -2.1503584469,
				"y": 1.1761163368,
				"z": 0.7673898318,
				"element": "C" 
			},
			{
				"x": -1.6246284766,
				"y": 0.5357886537,
				"z": -0.2277915013,
				"element": "N" 
			},
			{
				"x": -0.2467263916,
				"y": 0.6540962261,
				"z": -0.2360971899,
				"element": "C" 
			},
			{
				"x": 0.3021074862,
				"y": 1.4306535293,
				"z": 0.8179512919,
				"element": "C" 
			},
			{
				"x": -0.9944165789,
				"y": 2.0190418636,
				"z": 1.8347083573,
				"element": "S" 
			},
			{
				"x": 1.6749028872,
				"y": 1.6357952212,
				"z": 0.9333661646,
				"element": "C" 
			},
			{
				"x": 2.4776075848,
				"y": 1.0422202275,
				"z": -0.0389350206,
				"element": "C" 
			},
			{
				"x": 1.9696423254,
				"y": 0.2688972229,
				"z": -1.0961065683,
				"element": "C" 
			},
			{
				"x": 0.5995504983,
				"y": 0.0754080056,
				"z": -1.1946477818,
				"element": "C" 
			},
			{
				"x": 4.2406139233,
				"y": 1.292343425,
				"z": 0.0658599387,
				"element": "S" 
			},
			{
				"x": 4.8482125053,
				"y": -0.4220182717,
				"z": 1.1871937609,
				"element": "Cl" 
			},
			{
				"x": 4.8325702356,
				"y": 1.1363492648,
				"z": -1.2568664231,
				"element": "O" 
			},
			{
				"x": 4.516859449,
				"y": 2.4459611789,
				"z": 0.9136276474,
				"element": "O" 
			},
			{
				"x": -3.9800780569,
				"y": 2.2705027506,
				"z": 1.0343587586,
				"element": "H" 
			},
			{
				"x": -4.1457721897,
				"y": 0.6623793778,
				"z": 0.2878280321,
				"element": "H" 
			},
			{
				"x": -3.8473330145,
				"y": 0.8200616541,
				"z": 2.036179236,
				"element": "H" 
			},
			{
				"x": 2.1137872302,
				"y": 2.2312708614,
				"z": 1.7253571002,
				"element": "H" 
			},
			{
				"x": 2.6487699523,
				"y": -0.1561558187,
				"z": -1.8259326545,
				"element": "H" 
			},
			{
				"x": 0.1687722599,
				"y": -0.5098780609,
				"z": -1.9994533327,
				"element": "H" 
			}
		],
		 "valence_orbital": [ 
			{
				"type": "occ",
				"energy": -0.32812,
				"method": "rhf"
			},
			{
				"type": "occ",
				"energy": -0.3122,
				"method": "rhf"
			},
			{
				"type": "occ",
				"energy": -0.29989,
				"method": "rhf"
			},
			{
				"type": "occ",
				"energy": -0.2711,
				"method": "rhf"
			},
			{
				"type": "occ",
				"energy": -0.26623,
				"method": "rhf"
			},
			{
				"type": "unocc",
				"energy": -0.0927,
				"method": "rhf"
			},
			{
				"type": "unocc",
				"energy": -0.05915,
				"method": "rhf"
			},
			{
				"type": "unocc",
				"energy": -0.03887,
				"method": "rhf"
			},
			{
				"type": "unocc",
				"energy": -0.01445,
				"method": "rhf"
			},
			{
				"type": "unocc",
				"energy": -0.00348,
				"method": "rhf"
			}
		],
		"cosmo_sigma_profile": { 
			"-0.025": 0.0,
			"-0.024": 0.0,
			"-0.023": 0.0,
			"-0.022": 0.0,
			"-0.021": 0.0,
			"-0.02": 0.0,
			"-0.019": 0.0,
			"-0.018": 0.0,
			"-0.017": 0.0,
			"-0.016": 0.0,
			"-0.015": 0.0,
			"-0.014": 0.0,
			"-0.013": 0.0,
			"-0.012": 0.0,
			"-0.011": 0.0,
			"-0.01": 0.915414251462,
			"-0.009": 2.11937969304,
			"-0.008": 4.71349257228,
			"-0.007": 8.53935172084,
			"-0.006": 14.3607330204,
			"-0.005": 13.6925250578,
			"-0.004": 11.9206294636,
			"-0.003": 15.8732763899,
			"-0.002": 21.2753871568,
			"-0.001": 20.31059702,
			"0.0": 27.4413773541,
			"0.001": 21.5075530575,
			"0.002": 15.6408305054,
			"0.003": 18.0071034622,
			"0.004": 12.9683966553,
			"0.005": 4.57030149571,
			"0.006": 4.27982190783,
			"0.007": 6.29218108694,
			"0.008": 10.906030001,
			"0.009": 5.67048299895,
			"0.01": 0.929648104245,
			"0.011": 1.06928856751,
			"0.012": 0.805633677299,
			"0.013": 0.372996904213,
			"0.014": 0.669403235769,
			"0.015": 0.00489688384365,
			"0.016": 0.0,
			"0.017": 0.0,
			"0.018": 0.0,
			"0.019": 0.0,
			"0.02": 0.0,
			"0.021": 0.0,
			"0.022": 0.0,
			"0.023": 0.0,
			"0.024": 0.0,
			"0.025": 0.0
		}
	}
}
