{
	 "smiles": "BrC(C1=CC=CC=C1)(C1=CC=CC=C1)C1=CC=CC=C1", 
	 "Tm": 427.15, 
	 "num_atms": 35, 
	 "gaussian": { 
		 "optdone": 1, 
		 "sigma_profile": "yes", 
		 "theory": "DFT", 
		 "functional": "B3LYP", 
		 "basiset": "6-31G**", 
		 "properties": { 
			 "R2extent": 6427.6099, 
			 "electric_dipole_moment_norm": 2.37743141647, 
			 "electric_quadrupole_moment_norm": 10.1914021955, 
			 "total_energy": -3304.46520615, 
			 "HOMO_LUMO_gap": 0.18828, 
			 "cosmo_polarized_energy": -7.6, 
			 "cosmo_cavitation_energy": 39.12, 
			 "cosmo_dispersion_energy": -27.3, 
			 "cosmo_repulsion_energy": 2.1, 
			 "cosmo_total_nonelectrostatic_energy": 13.92, 
			 "SMD_solvation_energy": 5.6 
		},
		"coords": [
			{
				"x": -1.976576954,
				"y": -2.526121048,
				"z": 0.7104287188,
				"element": "Br" 
			},
			{
				"x": -0.7917018587,
				"y": -0.8540902251,
				"z": 0.2981237541,
				"element": "C" 
			},
			{
				"x": 0.6548769079,
				"y": -1.3467618989,
				"z": 0.3629810207,
				"element": "C" 
			},
			{
				"x": 1.0532499072,
				"y": -2.4941802772,
				"z": -0.3449564862,
				"element": "C" 
			},
			{
				"x": 2.3819474616,
				"y": -2.9069740688,
				"z": -0.3486127033,
				"element": "C" 
			},
			{
				"x": 3.3490441222,
				"y": -2.179564903,
				"z": 0.3520597588,
				"element": "C" 
			},
			{
				"x": 2.9696598843,
				"y": -1.0353374725,
				"z": 1.0487810676,
				"element": "C" 
			},
			{
				"x": 1.6341679829,
				"y": -0.6206706234,
				"z": 1.0539084338,
				"element": "C" 
			},
			{
				"x": -1.1242621141,
				"y": 0.167271845,
				"z": 1.3870962561,
				"element": "C" 
			},
			{
				"x": -1.1098658618,
				"y": -0.2012685477,
				"z": 2.7436963991,
				"element": "C" 
			},
			{
				"x": -1.3403991819,
				"y": 0.7391741708,
				"z": 3.742861747,
				"element": "C" 
			},
			{
				"x": -1.5864237604,
				"y": 2.0752107971,
				"z": 3.4115547013,
				"element": "C" 
			},
			{
				"x": -1.5929995446,
				"y": 2.4556219545,
				"z": 2.0721893724,
				"element": "C" 
			},
			{
				"x": -1.3627402623,
				"y": 1.5106417759,
				"z": 1.0674681397,
				"element": "C" 
			},
			{
				"x": -1.2030602882,
				"y": -0.391039364,
				"z": -1.1004327533,
				"element": "C" 
			},
			{
				"x": -2.5583393315,
				"y": -0.2012202802,
				"z": -1.4223323638,
				"element": "C" 
			},
			{
				"x": -2.9356458603,
				"y": 0.2882309454,
				"z": -2.6689019311,
				"element": "C" 
			},
			{
				"x": -1.966366851,
				"y": 0.6060017936,
				"z": -3.6253890095,
				"element": "C" 
			},
			{
				"x": -0.6200293425,
				"y": 0.4326719575,
				"z": -3.31563027,
				"element": "C" 
			},
			{
				"x": -0.240236218,
				"y": -0.0605108308,
				"z": -2.0634178186,
				"element": "C" 
			},
			{
				"x": 0.3083882376,
				"y": -3.0707341734,
				"z": -0.8823599809,
				"element": "H" 
			},
			{
				"x": 2.6631231717,
				"y": -3.8019868506,
				"z": -0.8961813011,
				"element": "H" 
			},
			{
				"x": 4.3853156021,
				"y": -2.5051052312,
				"z": 0.3530216768,
				"element": "H" 
			},
			{
				"x": 3.709209336,
				"y": -0.4569140838,
				"z": 1.5951107094,
				"element": "H" 
			},
			{
				"x": 1.3607088535,
				"y": 0.2762781568,
				"z": 1.5964133574,
				"element": "H" 
			},
			{
				"x": -0.9306445445,
				"y": -1.2371853925,
				"z": 3.009730179,
				"element": "H" 
			},
			{
				"x": -1.332748114,
				"y": 0.427710148,
				"z": 4.7834730081,
				"element": "H" 
			},
			{
				"x": -1.7713543718,
				"y": 2.8079987668,
				"z": 4.1917214831,
				"element": "H" 
			},
			{
				"x": -1.7787994184,
				"y": 3.4901863811,
				"z": 1.7980734779,
				"element": "H" 
			},
			{
				"x": -1.3651611499,
				"y": 1.8282530681,
				"z": 0.0317372696,
				"element": "H" 
			},
			{
				"x": -3.3175734089,
				"y": -0.4551557028,
				"z": -0.6908076794,
				"element": "H" 
			},
			{
				"x": -3.9898215395,
				"y": 0.4177900469,
				"z": -2.8966476999,
				"element": "H" 
			},
			{
				"x": -2.2616857496,
				"y": 0.9832991215,
				"z": -4.6002067487,
				"element": "H" 
			},
			{
				"x": 0.1455598438,
				"y": 0.6782548934,
				"z": -4.0460722325,
				"element": "H" 
			},
			{
				"x": 0.8127844148,
				"y": -0.1815748485,
				"z": -1.8395815525,
				"element": "H" 
			}
		],
		 "valence_orbital": [ 
			{
				"type": "occ",
				"energy": -0.25192,
				"method": "rhf"
			},
			{
				"type": "occ",
				"energy": -0.25192,
				"method": "rhf"
			},
			{
				"type": "occ",
				"energy": -0.24119,
				"method": "rhf"
			},
			{
				"type": "occ",
				"energy": -0.24116,
				"method": "rhf"
			},
			{
				"type": "occ",
				"energy": -0.24,
				"method": "rhf"
			},
			{
				"type": "unocc",
				"energy": -0.05172,
				"method": "rhf"
			},
			{
				"type": "unocc",
				"energy": -0.01448,
				"method": "rhf"
			},
			{
				"type": "unocc",
				"energy": -0.01021,
				"method": "rhf"
			},
			{
				"type": "unocc",
				"energy": -0.01019,
				"method": "rhf"
			},
			{
				"type": "unocc",
				"energy": 0.00474,
				"method": "rhf"
			}
		],
		"cosmo_sigma_profile": { 
			"-0.025": 0.0,
			"-0.024": 0.0,
			"-0.023": 0.0,
			"-0.022": 0.0,
			"-0.021": 0.0,
			"-0.02": 0.0,
			"-0.019": 0.0,
			"-0.018": 0.0,
			"-0.017": 0.0,
			"-0.016": 0.0,
			"-0.015": 0.0,
			"-0.014": 0.0,
			"-0.013": 0.0,
			"-0.012": 0.0,
			"-0.011": 0.0,
			"-0.01": 0.0,
			"-0.009": 0.0,
			"-0.008": 0.0,
			"-0.007": 0.418338827936,
			"-0.006": 14.5874857209,
			"-0.005": 25.9112695176,
			"-0.004": 32.1618355089,
			"-0.003": 23.6190509168,
			"-0.002": 20.9701650071,
			"-0.001": 26.6222553762,
			"0.0": 24.0721926368,
			"0.001": 24.7873947851,
			"0.002": 26.2006109714,
			"0.003": 27.9049618477,
			"0.004": 28.2544090363,
			"0.005": 30.8384220254,
			"0.006": 8.83081740253,
			"0.007": 1.07647091031,
			"0.008": 0.0,
			"0.009": 0.0,
			"0.01": 0.0,
			"0.011": 0.0,
			"0.012": 0.0,
			"0.013": 0.0,
			"0.014": 0.0,
			"0.015": 0.0,
			"0.016": 0.0,
			"0.017": 0.0,
			"0.018": 0.0,
			"0.019": 0.0,
			"0.02": 0.0,
			"0.021": 0.0,
			"0.022": 0.0,
			"0.023": 0.0,
			"0.024": 0.0,
			"0.025": 0.0
		}
	}
}
