{
	 "smiles": "CC1=C(C)C(NC(=O)CN2CCNCC2)=CC=C1", 
	 "Tm": 329.15, 
	 "num_atms": 39, 
	 "gaussian": { 
		 "optdone": 1, 
		 "sigma_profile": "yes", 
		 "theory": "DFT", 
		 "functional": "B3LYP", 
		 "basiset": "6-31G**", 
		 "properties": { 
			 "R2extent": 7613.6408, 
			 "electric_dipole_moment_norm": 3.77923035551, 
			 "electric_quadrupole_moment_norm": 6.09350355871, 
			 "total_energy": -785.636939173, 
			 "HOMO_LUMO_gap": 0.18588, 
			 "cosmo_polarized_energy": -15.32, 
			 "cosmo_cavitation_energy": 39.18, 
			 "cosmo_dispersion_energy": -28.65, 
			 "cosmo_repulsion_energy": 2.21, 
			 "cosmo_total_nonelectrostatic_energy": 12.74, 
			 "SMD_solvation_energy": 1.54 
		},
		"coords": [
			{
				"x": -2.7813340679,
				"y": -2.3135330948,
				"z": 4.1239174673,
				"element": "C" 
			},
			{
				"x": -2.5892658613,
				"y": -2.0044181486,
				"z": 2.65393297,
				"element": "C" 
			},
			{
				"x": -1.5784308036,
				"y": -1.1298907929,
				"z": 2.2088936206,
				"element": "C" 
			},
			{
				"x": -0.6346623775,
				"y": -0.456668806,
				"z": 3.1835797265,
				"element": "C" 
			},
			{
				"x": -1.448611488,
				"y": -0.8805114451,
				"z": 0.8217453874,
				"element": "C" 
			},
			{
				"x": -0.4224835603,
				"y": 0.0025334584,
				"z": 0.4082013557,
				"element": "N" 
			},
			{
				"x": -0.0762930191,
				"y": 0.4239823044,
				"z": -0.8577880751,
				"element": "C" 
			},
			{
				"x": -0.6370906866,
				"y": 0.0736167918,
				"z": -1.8873325269,
				"element": "O" 
			},
			{
				"x": 1.119273911,
				"y": 1.4096581481,
				"z": -0.8483078498,
				"element": "C" 
			},
			{
				"x": 1.5863421129,
				"y": 1.8872740449,
				"z": -2.125355884,
				"element": "N" 
			},
			{
				"x": 0.6481108942,
				"y": 2.7567293943,
				"z": -2.8444520145,
				"element": "C" 
			},
			{
				"x": 1.3622806116,
				"y": 3.405551993,
				"z": -4.0379299369,
				"element": "C" 
			},
			{
				"x": 1.9995378025,
				"y": 2.4366147901,
				"z": -4.9349668558,
				"element": "N" 
			},
			{
				"x": 2.8772670729,
				"y": 1.5364949537,
				"z": -4.1807235181,
				"element": "C" 
			},
			{
				"x": 2.1839346765,
				"y": 0.8627098859,
				"z": -2.9888304377,
				"element": "C" 
			},
			{
				"x": -2.3083864694,
				"y": -1.4899721729,
				"z": -0.1030881107,
				"element": "C" 
			},
			{
				"x": -3.2997378905,
				"y": -2.3499856513,
				"z": 0.3580808799,
				"element": "C" 
			},
			{
				"x": -3.440728246,
				"y": -2.6059028759,
				"z": 1.7190489077,
				"element": "C" 
			},
			{
				"x": -3.6128285123,
				"y": -3.0092439368,
				"z": 4.2621295303,
				"element": "H" 
			},
			{
				"x": -1.8919468039,
				"y": -2.7746245972,
				"z": 4.5693165501,
				"element": "H" 
			},
			{
				"x": -3.0065914707,
				"y": -1.4145674603,
				"z": 4.7096844148,
				"element": "H" 
			},
			{
				"x": -0.7047947063,
				"y": 0.638792456,
				"z": 3.1334146251,
				"element": "H" 
			},
			{
				"x": -0.8478626371,
				"y": -0.7356180996,
				"z": 4.2147934752,
				"element": "H" 
			},
			{
				"x": 0.4133645958,
				"y": -0.7280061106,
				"z": 2.9950005943,
				"element": "H" 
			},
			{
				"x": 0.1409486504,
				"y": 0.3837371784,
				"z": 1.1532541171,
				"element": "H" 
			},
			{
				"x": 0.8346199082,
				"y": 2.2744999496,
				"z": -0.2307708455,
				"element": "H" 
			},
			{
				"x": 1.9552125757,
				"y": 0.9194025587,
				"z": -0.32734362,
				"element": "H" 
			},
			{
				"x": -0.2377368636,
				"y": 2.203141426,
				"z": -3.1969832061,
				"element": "H" 
			},
			{
				"x": 0.2979054598,
				"y": 3.5340011113,
				"z": -2.1521414014,
				"element": "H" 
			},
			{
				"x": 0.6528800722,
				"y": 4.0104074388,
				"z": -4.6138880131,
				"element": "H" 
			},
			{
				"x": 2.1450123511,
				"y": 4.0780904799,
				"z": -3.663911776,
				"element": "H" 
			},
			{
				"x": 1.2735896928,
				"y": 1.8828694949,
				"z": -5.3886530468,
				"element": "H" 
			},
			{
				"x": 3.7252053894,
				"y": 2.1287038871,
				"z": -3.8131050352,
				"element": "H" 
			},
			{
				"x": 3.2749229215,
				"y": 0.774894027,
				"z": -4.8609106624,
				"element": "H" 
			},
			{
				"x": 1.4321523639,
				"y": 0.1435296032,
				"z": -3.3540738044,
				"element": "H" 
			},
			{
				"x": 2.9199280509,
				"y": 0.3001249079,
				"z": -2.3989272867,
				"element": "H" 
			},
			{
				"x": -2.1855979263,
				"y": -1.2809544434,
				"z": -1.1556885113,
				"element": "H" 
			},
			{
				"x": -3.9672347306,
				"y": -2.823531145,
				"z": -0.3562174017,
				"element": "H" 
			},
			{
				"x": -4.2187709922,
				"y": -3.2796315035,
				"z": 2.067296198,
				"element": "H" 
			}
		],
		 "valence_orbital": [ 
			{
				"type": "occ",
				"energy": -0.26546,
				"method": "rhf"
			},
			{
				"type": "occ",
				"energy": -0.23531,
				"method": "rhf"
			},
			{
				"type": "occ",
				"energy": -0.21968,
				"method": "rhf"
			},
			{
				"type": "occ",
				"energy": -0.215,
				"method": "rhf"
			},
			{
				"type": "occ",
				"energy": -0.19647,
				"method": "rhf"
			},
			{
				"type": "unocc",
				"energy": -0.01059,
				"method": "rhf"
			},
			{
				"type": "unocc",
				"energy": 0.00324,
				"method": "rhf"
			},
			{
				"type": "unocc",
				"energy": 0.04391,
				"method": "rhf"
			},
			{
				"type": "unocc",
				"energy": 0.06634,
				"method": "rhf"
			},
			{
				"type": "unocc",
				"energy": 0.08503,
				"method": "rhf"
			}
		],
		"cosmo_sigma_profile": { 
			"-0.025": 0.0,
			"-0.024": 0.0,
			"-0.023": 0.0,
			"-0.022": 0.0,
			"-0.021": 0.0,
			"-0.02": 0.0,
			"-0.019": 0.0,
			"-0.018": 0.0,
			"-0.017": 0.0,
			"-0.016": 0.0,
			"-0.015": 0.0,
			"-0.014": 0.0267758851104,
			"-0.013": 0.909877556093,
			"-0.012": 1.67738466242,
			"-0.011": 1.23037102626,
			"-0.01": 1.61568009666,
			"-0.009": 3.80069011251,
			"-0.008": 2.65694796564,
			"-0.007": 4.6580215613,
			"-0.006": 7.93163194553,
			"-0.005": 13.2910995203,
			"-0.004": 27.8962257993,
			"-0.003": 32.824193991,
			"-0.002": 33.9909951062,
			"-0.001": 33.9544181204,
			"0.0": 28.3232488362,
			"0.001": 18.3827218268,
			"0.002": 12.8726620419,
			"0.003": 13.5690638404,
			"0.004": 12.9351738459,
			"0.005": 12.0934435239,
			"0.006": 12.2728062355,
			"0.007": 6.80863498956,
			"0.008": 3.45133452641,
			"0.009": 3.05917446371,
			"0.01": 3.48062680486,
			"0.011": 3.25838531626,
			"0.012": 3.0969233584,
			"0.013": 2.72075092628,
			"0.014": 0.49333011588,
			"0.015": 0.495997768582,
			"0.016": 1.11249631509,
			"0.017": 0.451985828728,
			"0.018": 0.569284517373,
			"0.019": 0.297242721661,
			"0.02": 0.0,
			"0.021": 0.0,
			"0.022": 0.0,
			"0.023": 0.0,
			"0.024": 0.0,
			"0.025": 0.0
		}
	}
}
