{
	 "smiles": "CCOC(=O)C1=NC(=NC(C)=C1)C1=CC=CC=C1", 
	 "Tm": 368.15, 
	 "num_atms": 32, 
	 "gaussian": { 
		 "optdone": 1, 
		 "sigma_profile": "yes", 
		 "theory": "DFT", 
		 "functional": "B3LYP", 
		 "basiset": "6-31G**", 
		 "properties": { 
			 "R2extent": 5980.8787, 
			 "electric_dipole_moment_norm": 0.322341139168, 
			 "electric_quadrupole_moment_norm": 11.0508097776, 
			 "total_energy": -801.908763177, 
			 "HOMO_LUMO_gap": 0.16818, 
			 "cosmo_polarized_energy": -10.86, 
			 "cosmo_cavitation_energy": 37.03, 
			 "cosmo_dispersion_energy": -26.37, 
			 "cosmo_repulsion_energy": 2.07, 
			 "cosmo_total_nonelectrostatic_energy": 12.73, 
			 "SMD_solvation_energy": 5.69 
		},
		"coords": [
			{
				"x": 1.3850514308,
				"y": 3.9978321268,
				"z": 1.3724659018,
				"element": "C" 
			},
			{
				"x": -0.1094878968,
				"y": 3.7856444139,
				"z": 1.2310373158,
				"element": "C" 
			},
			{
				"x": -0.313510728,
				"y": 2.4205640487,
				"z": 0.7952344626,
				"element": "O" 
			},
			{
				"x": -1.5875118417,
				"y": 2.0543218807,
				"z": 0.6174192596,
				"element": "C" 
			},
			{
				"x": -2.5451675118,
				"y": 2.7825914157,
				"z": 0.7971985808,
				"element": "O" 
			},
			{
				"x": -1.7310061077,
				"y": 0.6215264475,
				"z": 0.1638031777,
				"element": "C" 
			},
			{
				"x": -0.6326175428,
				"y": -0.1179145929,
				"z": -0.0128506927,
				"element": "N" 
			},
			{
				"x": -0.8185419521,
				"y": -1.384017554,
				"z": -0.4167950731,
				"element": "C" 
			},
			{
				"x": -2.0183925635,
				"y": -1.9518078305,
				"z": -0.6527289082,
				"element": "N" 
			},
			{
				"x": -3.113057289,
				"y": -1.2055212774,
				"z": -0.4737155172,
				"element": "C" 
			},
			{
				"x": -4.4473472337,
				"y": -1.8508243651,
				"z": -0.7404143252,
				"element": "C" 
			},
			{
				"x": -3.0135466701,
				"y": 0.1279618925,
				"z": -0.0530527246,
				"element": "C" 
			},
			{
				"x": 0.389833157,
				"y": -2.2224828299,
				"z": -0.6190673447,
				"element": "C" 
			},
			{
				"x": 1.667649104,
				"y": -1.6874231477,
				"z": -0.3892369768,
				"element": "C" 
			},
			{
				"x": 2.8018329632,
				"y": -2.4735022351,
				"z": -0.5788729877,
				"element": "C" 
			},
			{
				"x": 2.6760306619,
				"y": -3.8000843015,
				"z": -0.9991828481,
				"element": "C" 
			},
			{
				"x": 1.4073683518,
				"y": -4.3379209445,
				"z": -1.2294264959,
				"element": "C" 
			},
			{
				"x": 0.2698602481,
				"y": -3.5559288364,
				"z": -1.0412047139,
				"element": "C" 
			},
			{
				"x": 1.8939998352,
				"y": 3.8370446438,
				"z": 0.418057245,
				"element": "H" 
			},
			{
				"x": 1.5837448159,
				"y": 5.0225517938,
				"z": 1.701740944,
				"element": "H" 
			},
			{
				"x": 1.8087667926,
				"y": 3.3100612402,
				"z": 2.1094962115,
				"element": "H" 
			},
			{
				"x": -0.5561172189,
				"y": 4.460146279,
				"z": 0.4934277058,
				"element": "H" 
			},
			{
				"x": -0.640928317,
				"y": 3.9355856046,
				"z": 2.1763266178,
				"element": "H" 
			},
			{
				"x": -5.0744861494,
				"y": -1.8343357376,
				"z": 0.1578174937,
				"element": "H" 
			},
			{
				"x": -4.3033438911,
				"y": -2.8851078984,
				"z": -1.0553789027,
				"element": "H" 
			},
			{
				"x": -4.9916177054,
				"y": -1.3109261339,
				"z": -1.5231552579,
				"element": "H" 
			},
			{
				"x": -3.8786253334,
				"y": 0.7612406496,
				"z": 0.101890675,
				"element": "H" 
			},
			{
				"x": 1.7492216395,
				"y": -0.6565830181,
				"z": -0.0634601527,
				"element": "H" 
			},
			{
				"x": 3.7865310127,
				"y": -2.0514282779,
				"z": -0.3987064756,
				"element": "H" 
			},
			{
				"x": 3.5619673355,
				"y": -4.41144491,
				"z": -1.1464794351,
				"element": "H" 
			},
			{
				"x": 1.3048805904,
				"y": -5.3688759936,
				"z": -1.5562928073,
				"element": "H" 
			},
			{
				"x": -0.7205319865,
				"y": -3.9602425522,
				"z": -1.2160939516,
				"element": "H" 
			}
		],
		 "valence_orbital": [ 
			{
				"type": "occ",
				"energy": -0.29275,
				"method": "rhf"
			},
			{
				"type": "occ",
				"energy": -0.2823,
				"method": "rhf"
			},
			{
				"type": "occ",
				"energy": -0.24896,
				"method": "rhf"
			},
			{
				"type": "occ",
				"energy": -0.24756,
				"method": "rhf"
			},
			{
				"type": "occ",
				"energy": -0.23488,
				"method": "rhf"
			},
			{
				"type": "unocc",
				"energy": -0.0667,
				"method": "rhf"
			},
			{
				"type": "unocc",
				"energy": -0.04975,
				"method": "rhf"
			},
			{
				"type": "unocc",
				"energy": 0.00341,
				"method": "rhf"
			},
			{
				"type": "unocc",
				"energy": 0.01585,
				"method": "rhf"
			},
			{
				"type": "unocc",
				"energy": 0.05873,
				"method": "rhf"
			}
		],
		"cosmo_sigma_profile": { 
			"-0.025": 0.0,
			"-0.024": 0.0,
			"-0.023": 0.0,
			"-0.022": 0.0,
			"-0.021": 0.0,
			"-0.02": 0.0,
			"-0.019": 0.0,
			"-0.018": 0.0,
			"-0.017": 0.0,
			"-0.016": 0.0,
			"-0.015": 0.0,
			"-0.014": 0.0,
			"-0.013": 0.0,
			"-0.012": 0.0,
			"-0.011": 0.0,
			"-0.01": 0.0,
			"-0.009": 0.0,
			"-0.008": 0.189649021209,
			"-0.007": 1.55356759089,
			"-0.006": 9.81549853439,
			"-0.005": 24.5790079345,
			"-0.004": 34.4164483288,
			"-0.003": 29.5724722557,
			"-0.002": 28.7937751854,
			"-0.001": 31.0875867338,
			"0.0": 24.5571816897,
			"0.001": 15.2419255561,
			"0.002": 15.4464299663,
			"0.003": 17.7368598234,
			"0.004": 16.8083977094,
			"0.005": 14.6430823393,
			"0.006": 6.10390620841,
			"0.007": 4.32782043792,
			"0.008": 3.87706858701,
			"0.009": 4.37696804008,
			"0.01": 3.64960061685,
			"0.011": 5.39019067075,
			"0.012": 2.03456218649,
			"0.013": 1.24014785771,
			"0.014": 0.0852529749473,
			"0.015": 0.0,
			"0.016": 0.0,
			"0.017": 0.0,
			"0.018": 0.0,
			"0.019": 0.0,
			"0.02": 0.0,
			"0.021": 0.0,
			"0.022": 0.0,
			"0.023": 0.0,
			"0.024": 0.0,
			"0.025": 0.0
		}
	}
}
