{
	 "smiles": "CN1CCN(CC1)S(=O)(=O)C1=CC2=C(NCC2)C=C1", 
	 "Tm": 450.15, 
	 "num_atms": 38, 
	 "gaussian": { 
		 "optdone": 1, 
		 "sigma_profile": "yes", 
		 "theory": "DFT", 
		 "functional": "B3LYP", 
		 "basiset": "6-31G**", 
		 "properties": { 
			 "R2extent": 7665.5723, 
			 "electric_dipole_moment_norm": 6.67810443614, 
			 "electric_quadrupole_moment_norm": 32.4868510213, 
			 "total_energy": -1219.63576413, 
			 "HOMO_LUMO_gap": 0.18799, 
			 "cosmo_polarized_energy": -18.11, 
			 "cosmo_cavitation_energy": 39.91, 
			 "cosmo_dispersion_energy": -29.01, 
			 "cosmo_repulsion_energy": 2.2, 
			 "cosmo_total_nonelectrostatic_energy": 13.09, 
			 "SMD_solvation_energy": 0.57 
		},
		"coords": [
			{
				"x": 1.7533693958,
				"y": -3.8042420462,
				"z": -0.6635818441,
				"element": "C" 
			},
			{
				"x": 1.718813154,
				"y": -2.6791123399,
				"z": 0.2561485986,
				"element": "N" 
			},
			{
				"x": 0.6573027988,
				"y": -2.7616102187,
				"z": 1.2780461024,
				"element": "C" 
			},
			{
				"x": -0.5401605563,
				"y": -1.857581367,
				"z": 0.969410925,
				"element": "C" 
			},
			{
				"x": -0.1113272608,
				"y": -0.4416298748,
				"z": 0.8512037614,
				"element": "N" 
			},
			{
				"x": 1.3048776704,
				"y": -0.2583712099,
				"z": 0.4606628188,
				"element": "C" 
			},
			{
				"x": 1.7178800232,
				"y": -1.4014780985,
				"z": -0.4604989573,
				"element": "C" 
			},
			{
				"x": -0.6436882979,
				"y": 0.6225691082,
				"z": 2.0668045337,
				"element": "S" 
			},
			{
				"x": -1.9608752353,
				"y": 0.1257659071,
				"z": 2.486776559,
				"element": "O" 
			},
			{
				"x": 0.4145092559,
				"y": 0.8455610793,
				"z": 3.0660328084,
				"element": "O" 
			},
			{
				"x": -0.8534256903,
				"y": 2.1422860515,
				"z": 1.1592951818,
				"element": "C" 
			},
			{
				"x": -1.9131891386,
				"y": 2.2483791672,
				"z": 0.2395565786,
				"element": "C" 
			},
			{
				"x": -2.0727066209,
				"y": 3.4369321812,
				"z": -0.4436990471,
				"element": "C" 
			},
			{
				"x": -1.1971556926,
				"y": 4.5204758957,
				"z": -0.2087820663,
				"element": "C" 
			},
			{
				"x": -1.571146142,
				"y": 5.615746924,
				"z": -0.9744730319,
				"element": "N" 
			},
			{
				"x": -2.4818428209,
				"y": 5.1636147642,
				"z": -2.0418231137,
				"element": "C" 
			},
			{
				"x": -3.1169736922,
				"y": 3.8808278051,
				"z": -1.4482164508,
				"element": "C" 
			},
			{
				"x": -0.1507322079,
				"y": 4.4176832578,
				"z": 0.711156031,
				"element": "C" 
			},
			{
				"x": 0.0117659272,
				"y": 3.2117650572,
				"z": 1.3979374527,
				"element": "C" 
			},
			{
				"x": 0.8598612179,
				"y": -3.8822520609,
				"z": -1.3145637989,
				"element": "H" 
			},
			{
				"x": 1.8532050776,
				"y": -4.7410527082,
				"z": -0.1069447277,
				"element": "H" 
			},
			{
				"x": 2.6276619834,
				"y": -3.7133580184,
				"z": -1.3180821846,
				"element": "H" 
			},
			{
				"x": 1.065825028,
				"y": -2.482529353,
				"z": 2.2583231456,
				"element": "H" 
			},
			{
				"x": 0.3184235312,
				"y": -3.7996362376,
				"z": 1.3593349272,
				"element": "H" 
			},
			{
				"x": -1.3041077312,
				"y": -1.9320920978,
				"z": 1.7448781245,
				"element": "H" 
			},
			{
				"x": -1.0075905107,
				"y": -2.1545430725,
				"z": 0.0220016504,
				"element": "H" 
			},
			{
				"x": 1.9633925053,
				"y": -0.2344996962,
				"z": 1.3382701763,
				"element": "H" 
			},
			{
				"x": 1.4044756646,
				"y": 0.6977939889,
				"z": -0.0633689407,
				"element": "H" 
			},
			{
				"x": 2.7260295666,
				"y": -1.2038171963,
				"z": -0.8465901344,
				"element": "H" 
			},
			{
				"x": 1.0385024504,
				"y": -1.4120034984,
				"z": -1.3352851759,
				"element": "H" 
			},
			{
				"x": -2.5814356964,
				"y": 1.4078842081,
				"z": 0.0815775976,
				"element": "H" 
			},
			{
				"x": -0.8603340823,
				"y": 6.2922377059,
				"z": -1.2177011693,
				"element": "H" 
			},
			{
				"x": -3.2206937373,
				"y": 5.9343299638,
				"z": -2.2776376258,
				"element": "H" 
			},
			{
				"x": -1.9281148935,
				"y": 4.9257354276,
				"z": -2.9631073803,
				"element": "H" 
			},
			{
				"x": -3.3380983495,
				"y": 3.1348159531,
				"z": -2.21632471,
				"element": "H" 
			},
			{
				"x": -4.0593636655,
				"y": 4.1186499793,
				"z": -0.938214747,
				"element": "H" 
			},
			{
				"x": 0.5204425412,
				"y": 5.2511292382,
				"z": 0.8951871979,
				"element": "H" 
			},
			{
				"x": 0.8061242304,
				"y": 3.0928254308,
				"z": 2.1264909351,
				"element": "H" 
			}
		],
		 "valence_orbital": [ 
			{
				"type": "occ",
				"energy": -0.28408,
				"method": "rhf"
			},
			{
				"type": "occ",
				"energy": -0.2577,
				"method": "rhf"
			},
			{
				"type": "occ",
				"energy": -0.23829,
				"method": "rhf"
			},
			{
				"type": "occ",
				"energy": -0.20915,
				"method": "rhf"
			},
			{
				"type": "occ",
				"energy": -0.20417,
				"method": "rhf"
			},
			{
				"type": "unocc",
				"energy": -0.01618,
				"method": "rhf"
			},
			{
				"type": "unocc",
				"energy": -0.01073,
				"method": "rhf"
			},
			{
				"type": "unocc",
				"energy": 0.07049,
				"method": "rhf"
			},
			{
				"type": "unocc",
				"energy": 0.07403,
				"method": "rhf"
			},
			{
				"type": "unocc",
				"energy": 0.08242,
				"method": "rhf"
			}
		],
		"cosmo_sigma_profile": { 
			"-0.025": 0.0,
			"-0.024": 0.0,
			"-0.023": 0.0,
			"-0.022": 0.0,
			"-0.021": 0.0,
			"-0.02": 0.0,
			"-0.019": 0.0,
			"-0.018": 0.0,
			"-0.017": 0.0,
			"-0.016": 0.0,
			"-0.015": 0.0,
			"-0.014": 0.108066635648,
			"-0.013": 1.50578516609,
			"-0.012": 1.12481925004,
			"-0.011": 1.57674133601,
			"-0.01": 1.15275768502,
			"-0.009": 1.50480465273,
			"-0.008": 1.65469007118,
			"-0.007": 2.74505380044,
			"-0.006": 6.01183753961,
			"-0.005": 14.7471640131,
			"-0.004": 37.4788742373,
			"-0.003": 44.0099805428,
			"-0.002": 41.858532617,
			"-0.001": 30.2686218703,
			"0.0": 19.6709657489,
			"0.001": 13.3086840042,
			"0.002": 11.4323574959,
			"0.003": 13.9810190403,
			"0.004": 16.9733959037,
			"0.005": 6.98738883368,
			"0.006": 5.8705373209,
			"0.007": 4.4851177294,
			"0.008": 4.17807706809,
			"0.009": 5.58995119145,
			"0.01": 5.54175545102,
			"0.011": 8.86862191855,
			"0.012": 7.58946148622,
			"0.013": 1.40033965798,
			"0.014": 0.628883535417,
			"0.015": 0.358680491681,
			"0.016": 0.376903093249,
			"0.017": 0.0365747081726,
			"0.018": 0.0,
			"0.019": 0.0,
			"0.02": 0.0,
			"0.021": 0.0,
			"0.022": 0.0,
			"0.023": 0.0,
			"0.024": 0.0,
			"0.025": 0.0
		}
	}
}
