{
	 "smiles": "CC1=CC=C(CNC2=CC3=C(NC(=O)N3)C=C2)C=C1", 
	 "Tm": 545.15, 
	 "num_atms": 34, 
	 "gaussian": { 
		 "optdone": 1, 
		 "sigma_profile": "yes", 
		 "theory": "DFT", 
		 "functional": "B3LYP", 
		 "basiset": "6-31G**", 
		 "properties": { 
			 "R2extent": 8447.1029, 
			 "electric_dipole_moment_norm": 4.1507441369, 
			 "electric_quadrupole_moment_norm": 33.93190072, 
			 "total_energy": -820.155471006, 
			 "HOMO_LUMO_gap": 0.17742, 
			 "cosmo_polarized_energy": -18.8, 
			 "cosmo_cavitation_energy": 37.83, 
			 "cosmo_dispersion_energy": -27.43, 
			 "cosmo_repulsion_energy": 2.13, 
			 "cosmo_total_nonelectrostatic_energy": 12.53, 
			 "SMD_solvation_energy": 6.34 
		},
		"coords": [
			{
				"x": -0.7779424312,
				"y": 5.083575548,
				"z": -0.5392024125,
				"element": "C" 
			},
			{
				"x": -0.3605026588,
				"y": 3.7196795276,
				"z": -0.0409641965,
				"element": "C" 
			},
			{
				"x": -0.8977900986,
				"y": 3.1834610486,
				"z": 1.1361459971,
				"element": "C" 
			},
			{
				"x": -0.5377843243,
				"y": 1.909483563,
				"z": 1.5757052883,
				"element": "C" 
			},
			{
				"x": 0.3789179761,
				"y": 1.1344215597,
				"z": 0.8567292034,
				"element": "C" 
			},
			{
				"x": 0.8116960807,
				"y": -0.2248739177,
				"z": 1.3898584251,
				"element": "C" 
			},
			{
				"x": 1.2373546074,
				"y": -1.1701713911,
				"z": 0.3669675638,
				"element": "N" 
			},
			{
				"x": 0.3122102318,
				"y": -1.9610752759,
				"z": -0.3288787286,
				"element": "C" 
			},
			{
				"x": 0.7766409409,
				"y": -3.1238149878,
				"z": -0.9823260104,
				"element": "C" 
			},
			{
				"x": -0.1339388337,
				"y": -3.8873767808,
				"z": -1.6944383932,
				"element": "C" 
			},
			{
				"x": -1.4962915026,
				"y": -3.5302536365,
				"z": -1.7764411627,
				"element": "C" 
			},
			{
				"x": -2.1169619496,
				"y": -4.5083911064,
				"z": -2.5574084204,
				"element": "N" 
			},
			{
				"x": -1.2071344859,
				"y": -5.4735673316,
				"z": -2.9778320385,
				"element": "C" 
			},
			{
				"x": -1.414761524,
				"y": -6.4554649215,
				"z": -3.6688529353,
				"element": "O" 
			},
			{
				"x": 0.0101477138,
				"y": -5.0616733078,
				"z": -2.4244250063,
				"element": "N" 
			},
			{
				"x": -1.9584891264,
				"y": -2.3902941031,
				"z": -1.140422447,
				"element": "C" 
			},
			{
				"x": -1.0477168415,
				"y": -1.6085330661,
				"z": -0.4164423804,
				"element": "C" 
			},
			{
				"x": 0.920028349,
				"y": 1.6650927527,
				"z": -0.3186497401,
				"element": "C" 
			},
			{
				"x": 0.5543934453,
				"y": 2.9367189247,
				"z": -0.758015199,
				"element": "C" 
			},
			{
				"x": -1.6276307538,
				"y": 5.0123128383,
				"z": -1.2301148753,
				"element": "H" 
			},
			{
				"x": -1.0840173017,
				"y": 5.7351722309,
				"z": 0.2848967904,
				"element": "H" 
			},
			{
				"x": 0.0355007274,
				"y": 5.5791338783,
				"z": -1.0781908281,
				"element": "H" 
			},
			{
				"x": -1.6109505777,
				"y": 3.767427316,
				"z": 1.713378072,
				"element": "H" 
			},
			{
				"x": -0.9738836372,
				"y": 1.5154152896,
				"z": 2.4916241572,
				"element": "H" 
			},
			{
				"x": 0.0021084971,
				"y": -0.6412878349,
				"z": 2.0107823091,
				"element": "H" 
			},
			{
				"x": 1.6688212722,
				"y": -0.0804846212,
				"z": 2.0593787622,
				"element": "H" 
			},
			{
				"x": 2.0799112165,
				"y": -1.6710911321,
				"z": 0.6083239984,
				"element": "H" 
			},
			{
				"x": 1.8245343305,
				"y": -3.4062582735,
				"z": -0.9269354688,
				"element": "H" 
			},
			{
				"x": -3.0883047945,
				"y": -4.5538717052,
				"z": -2.817209341,
				"element": "H" 
			},
			{
				"x": 0.857367461,
				"y": -5.583470232,
				"z": -2.5779602344,
				"element": "H" 
			},
			{
				"x": -3.0024750729,
				"y": -2.0976604185,
				"z": -1.1963786203,
				"element": "H" 
			},
			{
				"x": -1.4008306019,
				"y": -0.7039091325,
				"z": 0.0626105408,
				"element": "H" 
			},
			{
				"x": 1.6232554153,
				"y": 1.0668521749,
				"z": -0.8898670787,
				"element": "H" 
			},
			{
				"x": 0.9870182511,
				"y": 3.3290765235,
				"z": -1.6756455904,
				"element": "H" 
			}
		],
		 "valence_orbital": [ 
			{
				"type": "occ",
				"energy": -0.25985,
				"method": "rhf"
			},
			{
				"type": "occ",
				"energy": -0.24636,
				"method": "rhf"
			},
			{
				"type": "occ",
				"energy": -0.23278,
				"method": "rhf"
			},
			{
				"type": "occ",
				"energy": -0.22173,
				"method": "rhf"
			},
			{
				"type": "occ",
				"energy": -0.18166,
				"method": "rhf"
			},
			{
				"type": "unocc",
				"energy": -0.00424,
				"method": "rhf"
			},
			{
				"type": "unocc",
				"energy": 0.00151,
				"method": "rhf"
			},
			{
				"type": "unocc",
				"energy": 0.00462,
				"method": "rhf"
			},
			{
				"type": "unocc",
				"energy": 0.0316,
				"method": "rhf"
			},
			{
				"type": "unocc",
				"energy": 0.07573,
				"method": "rhf"
			}
		],
		"cosmo_sigma_profile": { 
			"-0.025": 0.0,
			"-0.024": 0.0,
			"-0.023": 0.0,
			"-0.022": 0.0,
			"-0.021": 0.0,
			"-0.02": 0.0,
			"-0.019": 0.0,
			"-0.018": 0.0,
			"-0.017": 0.0,
			"-0.016": 1.23144917388,
			"-0.015": 2.62057639872,
			"-0.014": 2.36798995922,
			"-0.013": 1.71389523159,
			"-0.012": 3.74871737608,
			"-0.011": 3.18075113018,
			"-0.01": 3.53706463182,
			"-0.009": 4.0621092582,
			"-0.008": 3.69056183365,
			"-0.007": 5.61115656303,
			"-0.006": 8.17810930123,
			"-0.005": 12.4629992085,
			"-0.004": 21.0915962269,
			"-0.003": 24.6777940581,
			"-0.002": 22.5636994896,
			"-0.001": 20.2361975867,
			"0.0": 24.2959726137,
			"0.001": 20.8140837584,
			"0.002": 17.9255877747,
			"0.003": 17.8277605092,
			"0.004": 14.756459453,
			"0.005": 17.5404358459,
			"0.006": 19.2157094905,
			"0.007": 7.92632601878,
			"0.008": 1.43588410167,
			"0.009": 1.32659690864,
			"0.01": 1.46446588692,
			"0.011": 1.29320173094,
			"0.012": 1.41318778644,
			"0.013": 3.2561119008,
			"0.014": 7.60436955114,
			"0.015": 1.44697061075,
			"0.016": 0.0,
			"0.017": 0.0,
			"0.018": 0.0,
			"0.019": 0.0,
			"0.02": 0.0,
			"0.021": 0.0,
			"0.022": 0.0,
			"0.023": 0.0,
			"0.024": 0.0,
			"0.025": 0.0
		}
	}
}
