{
	 "smiles": "CC1=C(C=NN1C1=CC=CC=C1)C(=O)CBr", 
	 "Tm": 368.15, 
	 "num_atms": 27, 
	 "gaussian": { 
		 "optdone": 1, 
		 "sigma_profile": "yes", 
		 "theory": "DFT", 
		 "functional": "B3LYP", 
		 "basiset": "6-31G**", 
		 "properties": { 
			 "R2extent": 7081.7189, 
			 "electric_dipole_moment_norm": 3.40769808815, 
			 "electric_quadrupole_moment_norm": 10.4145009866, 
			 "total_energy": -3220.02414009, 
			 "HOMO_LUMO_gap": 0.18196, 
			 "cosmo_polarized_energy": -11.86, 
			 "cosmo_cavitation_energy": 33.4, 
			 "cosmo_dispersion_energy": -24.28, 
			 "cosmo_repulsion_energy": 1.89, 
			 "cosmo_total_nonelectrostatic_energy": 11.01, 
			 "SMD_solvation_energy": 4.37 
		},
		"coords": [
			{
				"x": 0.5991532586,
				"y": -1.2507693898,
				"z": 0.9173247501,
				"element": "C" 
			},
			{
				"x": -0.1600743273,
				"y": -0.4859869489,
				"z": -0.1180169626,
				"element": "C" 
			},
			{
				"x": -0.7594365979,
				"y": -0.9407941704,
				"z": -1.3009081941,
				"element": "C" 
			},
			{
				"x": -1.2672797347,
				"y": 0.2337697215,
				"z": -1.9220891221,
				"element": "C" 
			},
			{
				"x": -1.0247937745,
				"y": 1.3167508683,
				"z": -1.2099419443,
				"element": "N" 
			},
			{
				"x": -0.354442636,
				"y": 0.863178258,
				"z": -0.1002141708,
				"element": "N" 
			},
			{
				"x": 0.0757383604,
				"y": 1.8244879038,
				"z": 0.8621289754,
				"element": "C" 
			},
			{
				"x": 0.6095638302,
				"y": 3.0353249458,
				"z": 0.4080995227,
				"element": "C" 
			},
			{
				"x": 1.0232100515,
				"y": 3.9915761949,
				"z": 1.3325759424,
				"element": "C" 
			},
			{
				"x": 0.9131608023,
				"y": 3.7447420788,
				"z": 2.7035148623,
				"element": "C" 
			},
			{
				"x": 0.3707948983,
				"y": 2.5386771914,
				"z": 3.1481102325,
				"element": "C" 
			},
			{
				"x": -0.0593247729,
				"y": 1.5781718262,
				"z": 2.2315215504,
				"element": "C" 
			},
			{
				"x": -0.825591341,
				"y": -2.3268406119,
				"z": -1.7597545762,
				"element": "C" 
			},
			{
				"x": -0.3602375834,
				"y": -3.2710506219,
				"z": -1.1305724227,
				"element": "O" 
			},
			{
				"x": -1.553792274,
				"y": -2.6179734248,
				"z": -3.0711583905,
				"element": "C" 
			},
			{
				"x": -0.506689421,
				"y": -1.996723152,
				"z": -4.6337583796,
				"element": "Br" 
			},
			{
				"x": -0.0583605004,
				"y": -1.5943074594,
				"z": 1.7248438024,
				"element": "H" 
			},
			{
				"x": 1.022797039,
				"y": -2.1431664965,
				"z": 0.4571698235,
				"element": "H" 
			},
			{
				"x": 1.3897950256,
				"y": -0.6418760743,
				"z": 1.3627162736,
				"element": "H" 
			},
			{
				"x": -1.7854774359,
				"y": 0.3233539987,
				"z": -2.8672939815,
				"element": "H" 
			},
			{
				"x": 0.683246779,
				"y": 3.2115216168,
				"z": -0.658486727,
				"element": "H" 
			},
			{
				"x": 1.4377790369,
				"y": 4.9310406279,
				"z": 0.9796110608,
				"element": "H" 
			},
			{
				"x": 1.2415682802,
				"y": 4.4913576349,
				"z": 3.4201487274,
				"element": "H" 
			},
			{
				"x": 0.2655080005,
				"y": 2.3457651516,
				"z": 4.2114452609,
				"element": "H" 
			},
			{
				"x": -0.5164346757,
				"y": 0.6584566386,
				"z": 2.5777991184,
				"element": "H" 
			},
			{
				"x": -2.5185992783,
				"y": -2.1150518534,
				"z": -3.1411807435,
				"element": "H" 
			},
			{
				"x": -1.6605810093,
				"y": -3.6939344538,
				"z": -3.1838342881,
				"element": "H" 
			}
		],
		 "valence_orbital": [ 
			{
				"type": "occ",
				"energy": -0.27941,
				"method": "rhf"
			},
			{
				"type": "occ",
				"energy": -0.26714,
				"method": "rhf"
			},
			{
				"type": "occ",
				"energy": -0.25544,
				"method": "rhf"
			},
			{
				"type": "occ",
				"energy": -0.25174,
				"method": "rhf"
			},
			{
				"type": "occ",
				"energy": -0.24286,
				"method": "rhf"
			},
			{
				"type": "unocc",
				"energy": -0.0609,
				"method": "rhf"
			},
			{
				"type": "unocc",
				"energy": -0.02737,
				"method": "rhf"
			},
			{
				"type": "unocc",
				"energy": -0.01763,
				"method": "rhf"
			},
			{
				"type": "unocc",
				"energy": 0.00943,
				"method": "rhf"
			},
			{
				"type": "unocc",
				"energy": 0.02018,
				"method": "rhf"
			}
		],
		"cosmo_sigma_profile": { 
			"-0.025": 0.0,
			"-0.024": 0.0,
			"-0.023": 0.0,
			"-0.022": 0.0,
			"-0.021": 0.0,
			"-0.02": 0.0,
			"-0.019": 0.0,
			"-0.018": 0.0,
			"-0.017": 0.0,
			"-0.016": 0.0,
			"-0.015": 0.0,
			"-0.014": 0.0,
			"-0.013": 0.0,
			"-0.012": 0.0,
			"-0.011": 0.0,
			"-0.01": 0.0239304735192,
			"-0.009": 2.53696031588,
			"-0.008": 6.63503174077,
			"-0.007": 9.84516132542,
			"-0.006": 16.7789011498,
			"-0.005": 18.822043426,
			"-0.004": 19.8369507062,
			"-0.003": 17.4191736412,
			"-0.002": 19.0776753994,
			"-0.001": 20.7859447406,
			"0.0": 16.6215636425,
			"0.001": 19.29949633,
			"0.002": 17.9672380785,
			"0.003": 19.7664470108,
			"0.004": 23.1570418617,
			"0.005": 15.1482923539,
			"0.006": 5.10349717357,
			"0.007": 3.37419209184,
			"0.008": 3.0118108816,
			"0.009": 3.22945431715,
			"0.01": 3.19772664358,
			"0.011": 3.84430209059,
			"0.012": 2.91449861823,
			"0.013": 1.5498220185,
			"0.014": 0.605320033562,
			"0.015": 0.0714875401716,
			"0.016": 0.0,
			"0.017": 0.0,
			"0.018": 0.0,
			"0.019": 0.0,
			"0.02": 0.0,
			"0.021": 0.0,
			"0.022": 0.0,
			"0.023": 0.0,
			"0.024": 0.0,
			"0.025": 0.0
		}
	}
}
