{
	 "smiles": "CC(C)(OCC1=CC=C(C=C1)C1=CC=C(Cl)C=C1)C(O)=O", 
	 "Tm": 427.15, 
	 "num_atms": 38, 
	 "gaussian": { 
		 "optdone": 1, 
		 "sigma_profile": "yes", 
		 "theory": "DFT", 
		 "functional": "B3LYP", 
		 "basiset": "6-31G**", 
		 "properties": { 
			 "R2extent": 13091.5282, 
			 "electric_dipole_moment_norm": 3.08090193612, 
			 "electric_quadrupole_moment_norm": 32.259831841, 
			 "total_energy": -1343.9274819, 
			 "HOMO_LUMO_gap": 0.18769, 
			 "cosmo_polarized_energy": -18.33, 
			 "cosmo_cavitation_energy": 43.22, 
			 "cosmo_dispersion_energy": -30.24, 
			 "cosmo_repulsion_energy": 2.3, 
			 "cosmo_total_nonelectrostatic_energy": 15.28, 
			 "SMD_solvation_energy": 7.72 
		},
		"coords": [
			{
				"x": 1.894521356,
				"y": -4.4749691055,
				"z": 0.3275109932,
				"element": "C" 
			},
			{
				"x": 2.4019296266,
				"y": -3.2422900849,
				"z": -0.4423194398,
				"element": "C" 
			},
			{
				"x": 1.2856284288,
				"y": -2.6483210065,
				"z": -1.3276518825,
				"element": "C" 
			},
			{
				"x": 2.8186975536,
				"y": -2.3484089998,
				"z": 0.5751034972,
				"element": "O" 
			},
			{
				"x": 3.3019088564,
				"y": -1.0563456793,
				"z": 0.2010157326,
				"element": "C" 
			},
			{
				"x": 2.2515399983,
				"y": 0.0314109636,
				"z": 0.3187847835,
				"element": "C" 
			},
			{
				"x": 1.2464895487,
				"y": -0.0340013933,
				"z": 1.2912774837,
				"element": "C" 
			},
			{
				"x": 0.3179874032,
				"y": 0.9949014379,
				"z": 1.4269813241,
				"element": "C" 
			},
			{
				"x": 0.3636752526,
				"y": 2.1295200028,
				"z": 0.5982602337,
				"element": "C" 
			},
			{
				"x": 1.3754761794,
				"y": 2.1899759188,
				"z": -0.3740709758,
				"element": "C" 
			},
			{
				"x": 2.3008922903,
				"y": 1.1570049082,
				"z": -0.511283822,
				"element": "C" 
			},
			{
				"x": -0.6260579329,
				"y": 3.225929296,
				"z": 0.7436560844,
				"element": "C" 
			},
			{
				"x": -0.2491012526,
				"y": 4.56965726,
				"z": 0.579180359,
				"element": "C" 
			},
			{
				"x": -1.1718093901,
				"y": 5.6050572812,
				"z": 0.7128467135,
				"element": "C" 
			},
			{
				"x": -2.4973558673,
				"y": 5.2999347944,
				"z": 1.0188241589,
				"element": "C" 
			},
			{
				"x": -3.6696220328,
				"y": 6.5988662694,
				"z": 1.1909071102,
				"element": "Cl" 
			},
			{
				"x": -2.9051973922,
				"y": 3.9778301149,
				"z": 1.1902555428,
				"element": "C" 
			},
			{
				"x": -1.9701379197,
				"y": 2.9543302589,
				"z": 1.0507530865,
				"element": "C" 
			},
			{
				"x": 3.6264838999,
				"y": -3.6619040997,
				"z": -1.3034501448,
				"element": "C" 
			},
			{
				"x": 3.3659840663,
				"y": -4.5302248964,
				"z": -2.3188410697,
				"element": "O" 
			},
			{
				"x": 4.753313342,
				"y": -3.2813477905,
				"z": -1.1166587024,
				"element": "O" 
			},
			{
				"x": 2.6876747676,
				"y": -4.8638963918,
				"z": 0.9704912211,
				"element": "H" 
			},
			{
				"x": 1.563048542,
				"y": -5.2738135245,
				"z": -0.3427733396,
				"element": "H" 
			},
			{
				"x": 1.0505738245,
				"y": -4.1808767092,
				"z": 0.9568444001,
				"element": "H" 
			},
			{
				"x": 1.6354913453,
				"y": -1.7909746626,
				"z": -1.907956514,
				"element": "H" 
			},
			{
				"x": 0.8833231625,
				"y": -3.3848322389,
				"z": -2.0319650864,
				"element": "H" 
			},
			{
				"x": 0.4630595397,
				"y": -2.3151697664,
				"z": -0.690582327,
				"element": "H" 
			},
			{
				"x": 4.1261045723,
				"y": -0.8501654649,
				"z": 0.8944235384,
				"element": "H" 
			},
			{
				"x": 3.7412764087,
				"y": -1.0650100679,
				"z": -0.8008375944,
				"element": "H" 
			},
			{
				"x": 1.2002787131,
				"y": -0.9006244059,
				"z": 1.9432508524,
				"element": "H" 
			},
			{
				"x": -0.4364004785,
				"y": 0.9329893299,
				"z": 2.2061236189,
				"element": "H" 
			},
			{
				"x": 1.4174779215,
				"y": 3.0378413353,
				"z": -1.0515676799,
				"element": "H" 
			},
			{
				"x": 3.0656855738,
				"y": 1.2243270679,
				"z": -1.281951746,
				"element": "H" 
			},
			{
				"x": 0.7877940149,
				"y": 4.8129372867,
				"z": 0.3685326575,
				"element": "H" 
			},
			{
				"x": -0.8654778056,
				"y": 6.6383216915,
				"z": 0.5920863498,
				"element": "H" 
			},
			{
				"x": -3.9412748562,
				"y": 3.7536697625,
				"z": 1.4191088189,
				"element": "H" 
			},
			{
				"x": -2.2973444721,
				"y": 1.9247306513,
				"z": 1.1584783818,
				"element": "H" 
			},
			{
				"x": 2.4249632118,
				"y": -4.7506593429,
				"z": -2.3488866175,
				"element": "H" 
			}
		],
		 "valence_orbital": [ 
			{
				"type": "occ",
				"energy": -0.26926,
				"method": "rhf"
			},
			{
				"type": "occ",
				"energy": -0.26563,
				"method": "rhf"
			},
			{
				"type": "occ",
				"energy": -0.26293,
				"method": "rhf"
			},
			{
				"type": "occ",
				"energy": -0.25703,
				"method": "rhf"
			},
			{
				"type": "occ",
				"energy": -0.22577,
				"method": "rhf"
			},
			{
				"type": "unocc",
				"energy": -0.03808,
				"method": "rhf"
			},
			{
				"type": "unocc",
				"energy": -0.01719,
				"method": "rhf"
			},
			{
				"type": "unocc",
				"energy": -0.01056,
				"method": "rhf"
			},
			{
				"type": "unocc",
				"energy": 0.004,
				"method": "rhf"
			},
			{
				"type": "unocc",
				"energy": 0.017,
				"method": "rhf"
			}
		],
		"cosmo_sigma_profile": { 
			"-0.025": 0.0,
			"-0.024": 0.0,
			"-0.023": 0.0,
			"-0.022": 0.0,
			"-0.021": 0.0,
			"-0.02": 0.0,
			"-0.019": 0.0819847058964,
			"-0.018": 0.885034292923,
			"-0.017": 0.946745218393,
			"-0.016": 1.20998683634,
			"-0.015": 1.04284163582,
			"-0.014": 0.806928511594,
			"-0.013": 0.736727550883,
			"-0.012": 1.47260598503,
			"-0.011": 0.750351261125,
			"-0.01": 1.01959384327,
			"-0.009": 0.944313511319,
			"-0.008": 2.53568350605,
			"-0.007": 6.55049548602,
			"-0.006": 16.5342350267,
			"-0.005": 25.9345551448,
			"-0.004": 27.0165565019,
			"-0.003": 26.608955552,
			"-0.002": 24.4965611155,
			"-0.001": 27.0010529521,
			"0.0": 22.3520997521,
			"0.001": 20.9656144779,
			"0.002": 26.1600271463,
			"0.003": 28.1364841319,
			"0.004": 27.5573326931,
			"0.005": 18.7010888644,
			"0.006": 4.84625824057,
			"0.007": 3.46739797539,
			"0.008": 3.27407927975,
			"0.009": 4.38871154385,
			"0.01": 5.93771868888,
			"0.011": 6.95861793738,
			"0.012": 5.20594628726,
			"0.013": 0.698445622499,
			"0.014": 0.0,
			"0.015": 0.0,
			"0.016": 0.0,
			"0.017": 0.0,
			"0.018": 0.0,
			"0.019": 0.0,
			"0.02": 0.0,
			"0.021": 0.0,
			"0.022": 0.0,
			"0.023": 0.0,
			"0.024": 0.0,
			"0.025": 0.0
		}
	}
}
