{
	 "smiles": "CN1C=CN=C1SC1=CC=C(N)C=C1", 
	 "Tm": 391.15, 
	 "num_atms": 25, 
	 "gaussian": { 
		 "optdone": 1, 
		 "sigma_profile": "yes", 
		 "theory": "DFT", 
		 "functional": "B3LYP", 
		 "basiset": "6-31G**", 
		 "properties": { 
			 "R2extent": 3827.6922, 
			 "electric_dipole_moment_norm": 5.21677376259, 
			 "electric_quadrupole_moment_norm": 14.8335073678, 
			 "total_energy": -950.124820951, 
			 "HOMO_LUMO_gap": 0.19543, 
			 "cosmo_polarized_energy": -16.5, 
			 "cosmo_cavitation_energy": 30.68, 
			 "cosmo_dispersion_energy": -22.29, 
			 "cosmo_repulsion_energy": 1.72, 
			 "cosmo_total_nonelectrostatic_energy": 10.11, 
			 "SMD_solvation_energy": 4.02 
		},
		"coords": [
			{
				"x": -3.2046100048,
				"y": -0.0684998064,
				"z": 1.9174300497,
				"element": "C" 
			},
			{
				"x": -3.0811771656,
				"y": 0.7539816999,
				"z": 0.7241374022,
				"element": "N" 
			},
			{
				"x": -3.991490129,
				"y": 0.8058975873,
				"z": -0.3067148549,
				"element": "C" 
			},
			{
				"x": -3.4680033683,
				"y": 1.6782528943,
				"z": -1.230684049,
				"element": "C" 
			},
			{
				"x": -2.2656058929,
				"y": 2.1725427303,
				"z": -0.7975980485,
				"element": "N" 
			},
			{
				"x": -2.0475775933,
				"y": 1.6005352772,
				"z": 0.3754000594,
				"element": "C" 
			},
			{
				"x": -0.631971221,
				"y": 1.8934553339,
				"z": 1.3966159322,
				"element": "S" 
			},
			{
				"x": 0.5902292143,
				"y": 0.777971401,
				"z": 0.6807122251,
				"element": "C" 
			},
			{
				"x": 1.3035789474,
				"y": -0.0864508123,
				"z": 1.5170519195,
				"element": "C" 
			},
			{
				"x": 2.3059044156,
				"y": -0.9048554879,
				"z": 1.0009336773,
				"element": "C" 
			},
			{
				"x": 2.6057743497,
				"y": -0.8900339288,
				"z": -0.3715078703,
				"element": "C" 
			},
			{
				"x": 3.6383955094,
				"y": -1.6730460491,
				"z": -0.8868071331,
				"element": "N" 
			},
			{
				"x": 1.8767149127,
				"y": -0.0230491502,
				"z": -1.2069390324,
				"element": "C" 
			},
			{
				"x": 0.8927234164,
				"y": 0.8097103107,
				"z": -0.6865821397,
				"element": "C" 
			},
			{
				"x": -4.1513392834,
				"y": 0.1398653842,
				"z": 2.4239828974,
				"element": "H" 
			},
			{
				"x": -2.3795715018,
				"y": 0.1682274883,
				"z": 2.588762371,
				"element": "H" 
			},
			{
				"x": -3.1623123232,
				"y": -1.1311992401,
				"z": 1.6592701474,
				"element": "H" 
			},
			{
				"x": -4.9086629418,
				"y": 0.2361059503,
				"z": -0.2821165618,
				"element": "H" 
			},
			{
				"x": -3.8960235983,
				"y": 1.982390306,
				"z": -2.176091133,
				"element": "H" 
			},
			{
				"x": 1.0751644377,
				"y": -0.1234866357,
				"z": 2.5782392295,
				"element": "H" 
			},
			{
				"x": 2.8570146929,
				"y": -1.56726642,
				"z": 1.6641851677,
				"element": "H" 
			},
			{
				"x": 3.8788667197,
				"y": -2.4885759536,
				"z": -0.3408232016,
				"element": "H" 
			},
			{
				"x": 3.572847575,
				"y": -1.8818048403,
				"z": -1.8732913247,
				"element": "H" 
			},
			{
				"x": 2.099258842,
				"y": 0.006535498,
				"z": -2.2709708968,
				"element": "H" 
			},
			{
				"x": 0.3397719905,
				"y": 1.4771964631,
				"z": -1.3400948325,
				"element": "H" 
			}
		],
		 "valence_orbital": [ 
			{
				"type": "occ",
				"energy": -0.26469,
				"method": "rhf"
			},
			{
				"type": "occ",
				"energy": -0.24852,
				"method": "rhf"
			},
			{
				"type": "occ",
				"energy": -0.24473,
				"method": "rhf"
			},
			{
				"type": "occ",
				"energy": -0.22194,
				"method": "rhf"
			},
			{
				"type": "occ",
				"energy": -0.19633,
				"method": "rhf"
			},
			{
				"type": "unocc",
				"energy": -0.0009,
				"method": "rhf"
			},
			{
				"type": "unocc",
				"energy": 0.00621,
				"method": "rhf"
			},
			{
				"type": "unocc",
				"energy": 0.00974,
				"method": "rhf"
			},
			{
				"type": "unocc",
				"energy": 0.05648,
				"method": "rhf"
			},
			{
				"type": "unocc",
				"energy": 0.07588,
				"method": "rhf"
			}
		],
		"cosmo_sigma_profile": { 
			"-0.025": 0.0,
			"-0.024": 0.0,
			"-0.023": 0.0,
			"-0.022": 0.0,
			"-0.021": 0.0,
			"-0.02": 0.0,
			"-0.019": 0.0,
			"-0.018": 0.0,
			"-0.017": 0.0,
			"-0.016": 0.0,
			"-0.015": 0.0,
			"-0.014": 0.0,
			"-0.013": 0.739295330361,
			"-0.012": 2.7566384894,
			"-0.011": 2.46881994749,
			"-0.01": 3.4296703876,
			"-0.009": 4.00042305662,
			"-0.008": 4.86970725874,
			"-0.007": 7.36144897597,
			"-0.006": 14.6677826767,
			"-0.005": 16.2067403295,
			"-0.004": 18.3849856104,
			"-0.003": 18.1262519449,
			"-0.002": 14.6655490871,
			"-0.001": 13.4278542079,
			"0.0": 13.0397221879,
			"0.001": 11.9904392771,
			"0.002": 12.4257784949,
			"0.003": 14.2076838748,
			"0.004": 18.195787606,
			"0.005": 19.5816825005,
			"0.006": 13.1342731053,
			"0.007": 4.70007423384,
			"0.008": 3.3300059535,
			"0.009": 2.95109514332,
			"0.01": 2.80513755113,
			"0.011": 2.1532843774,
			"0.012": 1.14986299039,
			"0.013": 1.80570352788,
			"0.014": 1.84885161316,
			"0.015": 0.683680124105,
			"0.016": 0.881009974682,
			"0.017": 0.629459488281,
			"0.018": 0.150968415214,
			"0.019": 0.0,
			"0.02": 0.0,
			"0.021": 0.0,
			"0.022": 0.0,
			"0.023": 0.0,
			"0.024": 0.0,
			"0.025": 0.0
		}
	}
}
