{
	 "smiles": "OC1=C(Br)C=C(Br)C=C1[N+]([O-])=O", 
	 "Tm": 391.15, 
	 "num_atms": 15, 
	 "gaussian": { 
		 "optdone": 1, 
		 "sigma_profile": "yes", 
		 "theory": "DFT", 
		 "functional": "B3LYP", 
		 "basiset": "6-31G**", 
		 "properties": { 
			 "R2extent": 6128.8204, 
			 "electric_dipole_moment_norm": 4.36183555513, 
			 "electric_quadrupole_moment_norm": 10.4317426809, 
			 "total_energy": -5653.55903364, 
			 "HOMO_LUMO_gap": 0.1579, 
			 "cosmo_polarized_energy": -10.92, 
			 "cosmo_cavitation_energy": 25.16, 
			 "cosmo_dispersion_energy": -19.59, 
			 "cosmo_repulsion_energy": 1.56, 
			 "cosmo_total_nonelectrostatic_energy": 7.13, 
			 "SMD_solvation_energy": 4.75 
		},
		"coords": [
			{
				"x": -1.8764442077,
				"y": 0.1154052634,
				"z": -0.1594367644,
				"element": "O" 
			},
			{
				"x": -0.9652991543,
				"y": -0.8620027436,
				"z": -0.0816595896,
				"element": "C" 
			},
			{
				"x": -0.3169552015,
				"y": -1.1992917275,
				"z": 1.1264551863,
				"element": "C" 
			},
			{
				"x": -0.7943735958,
				"y": -0.2195737454,
				"z": 2.698385028,
				"element": "Br" 
			},
			{
				"x": 0.6424197157,
				"y": -2.1973910697,
				"z": 1.2126355211,
				"element": "C" 
			},
			{
				"x": 0.9970841715,
				"y": -2.8970099862,
				"z": 0.0581620536,
				"element": "C" 
			},
			{
				"x": 2.3121483287,
				"y": -4.2691538328,
				"z": 0.1606797748,
				"element": "Br" 
			},
			{
				"x": 0.3988153169,
				"y": -2.5961152676,
				"z": -1.1556545782,
				"element": "C" 
			},
			{
				"x": -0.5748285302,
				"y": -1.5983497355,
				"z": -1.2209679322,
				"element": "C" 
			},
			{
				"x": -1.1792304238,
				"y": -1.3559581418,
				"z": -2.5430615605,
				"element": "N" 
			},
			{
				"x": -0.5602300367,
				"y": -1.7796751849,
				"z": -3.5207251986,
				"element": "O" 
			},
			{
				"x": -2.2557526905,
				"y": -0.7723084391,
				"z": -2.5909797678,
				"element": "O" 
			},
			{
				"x": -1.9717160275,
				"y": 0.5176604382,
				"z": 0.7215835574,
				"element": "H" 
			},
			{
				"x": 1.1087990441,
				"y": -2.4240668316,
				"z": 2.1630481324,
				"element": "H" 
			},
			{
				"x": 0.665163291,
				"y": -3.1131689957,
				"z": -2.0674638625,
				"element": "H" 
			}
		],
		 "valence_orbital": [ 
			{
				"type": "occ",
				"energy": -0.31266,
				"method": "rhf"
			},
			{
				"type": "occ",
				"energy": -0.30744,
				"method": "rhf"
			},
			{
				"type": "occ",
				"energy": -0.29648,
				"method": "rhf"
			},
			{
				"type": "occ",
				"energy": -0.28624,
				"method": "rhf"
			},
			{
				"type": "occ",
				"energy": -0.25424,
				"method": "rhf"
			},
			{
				"type": "unocc",
				"energy": -0.09634,
				"method": "rhf"
			},
			{
				"type": "unocc",
				"energy": -0.04502,
				"method": "rhf"
			},
			{
				"type": "unocc",
				"energy": -0.0411,
				"method": "rhf"
			},
			{
				"type": "unocc",
				"energy": -0.02129,
				"method": "rhf"
			},
			{
				"type": "unocc",
				"energy": 0.00169,
				"method": "rhf"
			}
		],
		"cosmo_sigma_profile": { 
			"-0.025": 0.0,
			"-0.024": 0.0,
			"-0.023": 0.0,
			"-0.022": 0.0,
			"-0.021": 0.0,
			"-0.02": 0.0,
			"-0.019": 0.0,
			"-0.018": 0.0,
			"-0.017": 0.0,
			"-0.016": 0.294779736849,
			"-0.015": 0.527820381464,
			"-0.014": 0.947019760456,
			"-0.013": 0.719743503046,
			"-0.012": 0.85979522484,
			"-0.011": 0.899621392088,
			"-0.01": 1.45849870528,
			"-0.009": 2.51635353775,
			"-0.008": 3.81263508835,
			"-0.007": 5.60617116951,
			"-0.006": 7.5668176977,
			"-0.005": 9.41493969083,
			"-0.004": 12.1553706368,
			"-0.003": 15.652948185,
			"-0.002": 18.6545595526,
			"-0.001": 22.0718913142,
			"0.0": 17.0942568096,
			"0.001": 13.5722254356,
			"0.002": 14.9298733201,
			"0.003": 14.9518752343,
			"0.004": 9.55904501339,
			"0.005": 4.06427616848,
			"0.006": 4.7119560866,
			"0.007": 7.57864109707,
			"0.008": 8.64037337342,
			"0.009": 6.02053236943,
			"0.01": 3.17927482347,
			"0.011": 1.43923869465,
			"0.012": 0.714103082252,
			"0.013": 0.0,
			"0.014": 0.0,
			"0.015": 0.0,
			"0.016": 0.0,
			"0.017": 0.0,
			"0.018": 0.0,
			"0.019": 0.0,
			"0.02": 0.0,
			"0.021": 0.0,
			"0.022": 0.0,
			"0.023": 0.0,
			"0.024": 0.0,
			"0.025": 0.0
		}
	}
}
