{
	 "smiles": "CCC(O)CNC1=CC=CC=C1", 
	 "Tm": 322.15, 
	 "num_atms": 27, 
	 "gaussian": { 
		 "optdone": 1, 
		 "sigma_profile": "yes", 
		 "theory": "DFT", 
		 "functional": "B3LYP", 
		 "basiset": "6-31G**", 
		 "properties": { 
			 "R2extent": 2990.9489, 
			 "electric_dipole_moment_norm": 1.74063775094, 
			 "electric_quadrupole_moment_norm": 10.4792801547, 
			 "total_energy": -520.081477786, 
			 "HOMO_LUMO_gap": 0.20432, 
			 "cosmo_polarized_energy": -9.7, 
			 "cosmo_cavitation_energy": 29.05, 
			 "cosmo_dispersion_energy": -20.97, 
			 "cosmo_repulsion_energy": 1.69, 
			 "cosmo_total_nonelectrostatic_energy": 9.77, 
			 "SMD_solvation_energy": 4.53 
		},
		"coords": [
			{
				"x": 3.9589152778,
				"y": 0.2588585757,
				"z": -0.5594436833,
				"element": "C" 
			},
			{
				"x": 2.946210207,
				"y": 1.3511540149,
				"z": -0.9200234595,
				"element": "C" 
			},
			{
				"x": 1.5060749889,
				"y": 1.039108357,
				"z": -0.511139951,
				"element": "C" 
			},
			{
				"x": 0.7373991311,
				"y": 2.2108862392,
				"z": -0.736687373,
				"element": "O" 
			},
			{
				"x": 0.8912492051,
				"y": -0.1289595403,
				"z": -1.3068926437,
				"element": "C" 
			},
			{
				"x": -0.5454202145,
				"y": -0.2567809303,
				"z": -1.0482072885,
				"element": "N" 
			},
			{
				"x": -1.0596054101,
				"y": -1.1549133187,
				"z": -0.1016050841,
				"element": "C" 
			},
			{
				"x": -2.4081220226,
				"y": -1.5493428227,
				"z": -0.1950253144,
				"element": "C" 
			},
			{
				"x": -2.9637748319,
				"y": -2.4137738655,
				"z": 0.7423288444,
				"element": "C" 
			},
			{
				"x": -2.1935659675,
				"y": -2.9109974131,
				"z": 1.7974840237,
				"element": "C" 
			},
			{
				"x": -0.8580531714,
				"y": -2.5227567751,
				"z": 1.8958188252,
				"element": "C" 
			},
			{
				"x": -0.28941373,
				"y": -1.6538536223,
				"z": 0.9630293759,
				"element": "C" 
			},
			{
				"x": 4.9755090893,
				"y": 0.5738777524,
				"z": -0.8141599243,
				"element": "H" 
			},
			{
				"x": 3.7665958932,
				"y": -0.6782602184,
				"z": -1.092661008,
				"element": "H" 
			},
			{
				"x": 3.9421816901,
				"y": 0.0390795796,
				"z": 0.5142890727,
				"element": "H" 
			},
			{
				"x": 2.9663922398,
				"y": 1.5523406913,
				"z": -1.9990978862,
				"element": "H" 
			},
			{
				"x": 3.222875276,
				"y": 2.2906436502,
				"z": -0.4285733093,
				"element": "H" 
			},
			{
				"x": 1.4927248344,
				"y": 0.7812150763,
				"z": 0.5630333422,
				"element": "H" 
			},
			{
				"x": -0.1862311473,
				"y": 1.9314188977,
				"z": -0.6329888125,
				"element": "H" 
			},
			{
				"x": 1.4142245003,
				"y": -1.0716042854,
				"z": -1.0996660107,
				"element": "H" 
			},
			{
				"x": 1.0165767413,
				"y": 0.0921410645,
				"z": -2.3726303844,
				"element": "H" 
			},
			{
				"x": -1.1087768849,
				"y": -0.217781989,
				"z": -1.8858708109,
				"element": "H" 
			},
			{
				"x": -3.0178585844,
				"y": -1.1702167839,
				"z": -1.0125709539,
				"element": "H" 
			},
			{
				"x": -4.0063068712,
				"y": -2.704022493,
				"z": 0.644237646,
				"element": "H" 
			},
			{
				"x": -2.6282162727,
				"y": -3.5860051913,
				"z": 2.5278915888,
				"element": "H" 
			},
			{
				"x": -0.242557558,
				"y": -2.8959478871,
				"z": 2.7099328124,
				"element": "H" 
			},
			{
				"x": 0.7484735923,
				"y": -1.3606067625,
				"z": 1.0725983665,
				"element": "H" 
			}
		],
		 "valence_orbital": [ 
			{
				"type": "occ",
				"energy": -0.31774,
				"method": "rhf"
			},
			{
				"type": "occ",
				"energy": -0.29611,
				"method": "rhf"
			},
			{
				"type": "occ",
				"energy": -0.25709,
				"method": "rhf"
			},
			{
				"type": "occ",
				"energy": -0.24664,
				"method": "rhf"
			},
			{
				"type": "occ",
				"energy": -0.20257,
				"method": "rhf"
			},
			{
				"type": "unocc",
				"energy": 0.00175,
				"method": "rhf"
			},
			{
				"type": "unocc",
				"energy": 0.01581,
				"method": "rhf"
			},
			{
				"type": "unocc",
				"energy": 0.07268,
				"method": "rhf"
			},
			{
				"type": "unocc",
				"energy": 0.08186,
				"method": "rhf"
			},
			{
				"type": "unocc",
				"energy": 0.10233,
				"method": "rhf"
			}
		],
		"cosmo_sigma_profile": { 
			"-0.025": 0.0,
			"-0.024": 0.0,
			"-0.023": 0.0,
			"-0.022": 0.0,
			"-0.021": 0.0,
			"-0.02": 0.0,
			"-0.019": 0.0,
			"-0.018": 0.0,
			"-0.017": 0.0,
			"-0.016": 0.0,
			"-0.015": 0.0,
			"-0.014": 0.0,
			"-0.013": 0.381118276113,
			"-0.012": 1.318686162,
			"-0.011": 1.74902541168,
			"-0.01": 1.87603444368,
			"-0.009": 2.0650714883,
			"-0.008": 2.08494613345,
			"-0.007": 2.68472953901,
			"-0.006": 4.0123635159,
			"-0.005": 11.4399955007,
			"-0.004": 16.854076496,
			"-0.003": 26.3029196444,
			"-0.002": 25.079378297,
			"-0.001": 24.2543139267,
			"0.0": 20.8577347894,
			"0.001": 18.049474569,
			"0.002": 10.1931429884,
			"0.003": 8.50047993159,
			"0.004": 8.24855991257,
			"0.005": 10.2897413958,
			"0.006": 9.25663122962,
			"0.007": 9.16601683229,
			"0.008": 2.30927914839,
			"0.009": 1.46731272922,
			"0.01": 1.64206349584,
			"0.011": 0.858560265166,
			"0.012": 1.31158394053,
			"0.013": 1.59034068089,
			"0.014": 1.66385927266,
			"0.015": 1.82574586084,
			"0.016": 0.0345106079182,
			"0.017": 0.0,
			"0.018": 0.0,
			"0.019": 0.0,
			"0.02": 0.0,
			"0.021": 0.0,
			"0.022": 0.0,
			"0.023": 0.0,
			"0.024": 0.0,
			"0.025": 0.0
		}
	}
}
