{
	 "smiles": "OC(=O)C1=CSC(=C1)C(=O)CCl", 
	 "Tm": 421.15, 
	 "num_atms": 17, 
	 "gaussian": { 
		 "optdone": 1, 
		 "sigma_profile": "yes", 
		 "theory": "DFT", 
		 "functional": "B3LYP", 
		 "basiset": "6-31G**", 
		 "properties": { 
			 "R2extent": 3141.0732, 
			 "electric_dipole_moment_norm": 2.6883234943, 
			 "electric_quadrupole_moment_norm": 22.5788337677, 
			 "total_energy": -1353.79678195, 
			 "HOMO_LUMO_gap": 0.1796, 
			 "cosmo_polarized_energy": -19.27, 
			 "cosmo_cavitation_energy": 26.1, 
			 "cosmo_dispersion_energy": -19.36, 
			 "cosmo_repulsion_energy": 1.52, 
			 "cosmo_total_nonelectrostatic_energy": 8.25, 
			 "SMD_solvation_energy": 5.91 
		},
		"coords": [
			{
				"x": 2.7100378116,
				"y": -2.5354989585,
				"z": -0.9483660844,
				"element": "O" 
			},
			{
				"x": 1.9748108422,
				"y": -1.8747577774,
				"z": -0.0167802219,
				"element": "C" 
			},
			{
				"x": 2.0708373398,
				"y": -2.1586538864,
				"z": 1.1532159787,
				"element": "O" 
			},
			{
				"x": 1.070957537,
				"y": -0.7954176421,
				"z": -0.5087338575,
				"element": "C" 
			},
			{
				"x": 1.1341453948,
				"y": -0.147018136,
				"z": -1.7266156732,
				"element": "C" 
			},
			{
				"x": -0.0584098078,
				"y": 1.078849845,
				"z": -1.8901930371,
				"element": "S" 
			},
			{
				"x": -0.6796538172,
				"y": 0.7325089425,
				"z": -0.2896010417,
				"element": "C" 
			},
			{
				"x": 0.0304461565,
				"y": -0.2775391726,
				"z": 0.3147656407,
				"element": "C" 
			},
			{
				"x": -1.8051729414,
				"y": 1.5405950674,
				"z": 0.2017388233,
				"element": "C" 
			},
			{
				"x": -2.2861910941,
				"y": 2.4386028742,
				"z": -0.4717151167,
				"element": "O" 
			},
			{
				"x": -2.3485536737,
				"y": 1.2680951869,
				"z": 1.6048515966,
				"element": "C" 
			},
			{
				"x": -3.1951943049,
				"y": -0.3315759293,
				"z": 1.6981386576,
				"element": "Cl" 
			},
			{
				"x": 2.4038261492,
				"y": -2.3198683911,
				"z": -1.8400355409,
				"element": "H" 
			},
			{
				"x": 1.849048162,
				"y": -0.2970044669,
				"z": -2.5262767398,
				"element": "H" 
			},
			{
				"x": -0.170530428,
				"y": -0.6686979994,
				"z": 1.304066714,
				"element": "H" 
			},
			{
				"x": -1.5529403919,
				"y": 1.2544468337,
				"z": 2.352383591,
				"element": "H" 
			},
			{
				"x": -3.0787629341,
				"y": 2.0409336101,
				"z": 1.8380563114,
				"element": "H" 
			}
		],
		 "valence_orbital": [ 
			{
				"type": "occ",
				"energy": -0.3165,
				"method": "rhf"
			},
			{
				"type": "occ",
				"energy": -0.29339,
				"method": "rhf"
			},
			{
				"type": "occ",
				"energy": -0.28435,
				"method": "rhf"
			},
			{
				"type": "occ",
				"energy": -0.27958,
				"method": "rhf"
			},
			{
				"type": "occ",
				"energy": -0.27566,
				"method": "rhf"
			},
			{
				"type": "unocc",
				"energy": -0.09606,
				"method": "rhf"
			},
			{
				"type": "unocc",
				"energy": -0.05309,
				"method": "rhf"
			},
			{
				"type": "unocc",
				"energy": -0.00504,
				"method": "rhf"
			},
			{
				"type": "unocc",
				"energy": 0.00177,
				"method": "rhf"
			},
			{
				"type": "unocc",
				"energy": 0.03642,
				"method": "rhf"
			}
		],
		"cosmo_sigma_profile": { 
			"-0.025": 0.0,
			"-0.024": 0.0,
			"-0.023": 0.0,
			"-0.022": 0.0,
			"-0.021": 0.0,
			"-0.02": 0.291836976729,
			"-0.019": 1.10872252055,
			"-0.018": 1.13870643596,
			"-0.017": 1.04471586456,
			"-0.016": 1.03916313425,
			"-0.015": 1.27753929373,
			"-0.014": 0.930610561507,
			"-0.013": 1.79487275906,
			"-0.012": 1.88501141495,
			"-0.011": 2.03860512626,
			"-0.01": 3.65787813016,
			"-0.009": 6.41456115313,
			"-0.008": 7.47832754295,
			"-0.007": 6.7809511247,
			"-0.006": 7.11215907603,
			"-0.005": 6.56789031116,
			"-0.004": 6.44104653998,
			"-0.003": 7.94828245002,
			"-0.002": 11.0744402619,
			"-0.001": 18.5824665879,
			"0.0": 19.2978498589,
			"0.001": 16.9125399758,
			"0.002": 10.691513729,
			"0.003": 10.0640626613,
			"0.004": 9.91120760575,
			"0.005": 10.5123910318,
			"0.006": 5.28649687696,
			"0.007": 5.274117311,
			"0.008": 3.5942026507,
			"0.009": 6.05797227788,
			"0.01": 9.34526214129,
			"0.011": 7.8209476367,
			"0.012": 3.77069411239,
			"0.013": 0.648583594039,
			"0.014": 0.0,
			"0.015": 0.0,
			"0.016": 0.0,
			"0.017": 0.0,
			"0.018": 0.0,
			"0.019": 0.0,
			"0.02": 0.0,
			"0.021": 0.0,
			"0.022": 0.0,
			"0.023": 0.0,
			"0.024": 0.0,
			"0.025": 0.0
		}
	}
}
