{
	 "smiles": "CC1=CC(=CC=C1)N1C=C(N=N1)C(=O)CCl", 
	 "Tm": 415.15, 
	 "num_atms": 26, 
	 "gaussian": { 
		 "optdone": 1, 
		 "sigma_profile": "yes", 
		 "theory": "DFT", 
		 "functional": "B3LYP", 
		 "basiset": "6-31G**", 
		 "properties": { 
			 "R2extent": 6075.6957, 
			 "electric_dipole_moment_norm": 5.47990198635, 
			 "electric_quadrupole_moment_norm": 10.9041578712, 
			 "total_energy": -1124.83105388, 
			 "HOMO_LUMO_gap": 0.18446, 
			 "cosmo_polarized_energy": -13.72, 
			 "cosmo_cavitation_energy": 33.34, 
			 "cosmo_dispersion_energy": -23.99, 
			 "cosmo_repulsion_energy": 1.88, 
			 "cosmo_total_nonelectrostatic_energy": 11.23, 
			 "SMD_solvation_energy": 5.08 
		},
		"coords": [
			{
				"x": -3.6027984663,
				"y": -3.0889584666,
				"z": -2.6013507777,
				"element": "C" 
			},
			{
				"x": -3.1630475112,
				"y": -1.7909469033,
				"z": -1.9664096098,
				"element": "C" 
			},
			{
				"x": -2.0391525667,
				"y": -1.7517798381,
				"z": -1.1358984258,
				"element": "C" 
			},
			{
				"x": -1.6253441775,
				"y": -0.5425216329,
				"z": -0.5715266971,
				"element": "C" 
			},
			{
				"x": -2.3193046873,
				"y": 0.6439227025,
				"z": -0.8164297994,
				"element": "C" 
			},
			{
				"x": -3.433277061,
				"y": 0.6064060603,
				"z": -1.6541171609,
				"element": "C" 
			},
			{
				"x": -3.8523973609,
				"y": -0.5961225601,
				"z": -2.2210665401,
				"element": "C" 
			},
			{
				"x": -0.474655721,
				"y": -0.5318099012,
				"z": 0.2706971722,
				"element": "N" 
			},
			{
				"x": 0.4040788315,
				"y": 0.4674675583,
				"z": 0.5053540862,
				"element": "C" 
			},
			{
				"x": 1.3163798677,
				"y": -0.0748912957,
				"z": 1.3922009681,
				"element": "C" 
			},
			{
				"x": 0.9470316559,
				"y": -1.3678831745,
				"z": 1.6516767024,
				"element": "N" 
			},
			{
				"x": -0.1262027415,
				"y": -1.6507857623,
				"z": 0.9875773629,
				"element": "N" 
			},
			{
				"x": 2.4856246404,
				"y": 0.5844943815,
				"z": 1.9949837262,
				"element": "C" 
			},
			{
				"x": 2.7009790441,
				"y": 1.774517103,
				"z": 1.8337348478,
				"element": "O" 
			},
			{
				"x": 3.4180653991,
				"y": -0.2851871168,
				"z": 2.8328964104,
				"element": "C" 
			},
			{
				"x": 4.5988322091,
				"y": -1.1251639603,
				"z": 1.7396454813,
				"element": "Cl" 
			},
			{
				"x": -3.2203745104,
				"y": -3.1742629958,
				"z": -3.625841869,
				"element": "H" 
			},
			{
				"x": -3.2361540641,
				"y": -3.9529851023,
				"z": -2.0409377137,
				"element": "H" 
			},
			{
				"x": -4.693606112,
				"y": -3.155476882,
				"z": -2.6557415632,
				"element": "H" 
			},
			{
				"x": -1.4790007781,
				"y": -2.6535546696,
				"z": -0.916516542,
				"element": "H" 
			},
			{
				"x": -2.0147877853,
				"y": 1.5721224442,
				"z": -0.3448201205,
				"element": "H" 
			},
			{
				"x": -3.9847122882,
				"y": 1.5207787214,
				"z": -1.8504669897,
				"element": "H" 
			},
			{
				"x": -4.727837698,
				"y": -0.6110115193,
				"z": -2.8646937373,
				"element": "H" 
			},
			{
				"x": 0.3550480853,
				"y": 1.4359453713,
				"z": 0.036066414,
				"element": "H" 
			},
			{
				"x": 3.9928137097,
				"y": 0.3508285655,
				"z": 3.5042358525,
				"element": "H" 
			},
			{
				"x": 2.8783000863,
				"y": -1.0646411273,
				"z": 3.3698485222,
				"element": "H" 
			}
		],
		 "valence_orbital": [ 
			{
				"type": "occ",
				"energy": -0.28739,
				"method": "rhf"
			},
			{
				"type": "occ",
				"energy": -0.28304,
				"method": "rhf"
			},
			{
				"type": "occ",
				"energy": -0.26731,
				"method": "rhf"
			},
			{
				"type": "occ",
				"energy": -0.26209,
				"method": "rhf"
			},
			{
				"type": "occ",
				"energy": -0.25495,
				"method": "rhf"
			},
			{
				"type": "unocc",
				"energy": -0.07049,
				"method": "rhf"
			},
			{
				"type": "unocc",
				"energy": -0.04577,
				"method": "rhf"
			},
			{
				"type": "unocc",
				"energy": -0.02357,
				"method": "rhf"
			},
			{
				"type": "unocc",
				"energy": 0.00548,
				"method": "rhf"
			},
			{
				"type": "unocc",
				"energy": 0.02486,
				"method": "rhf"
			}
		],
		"cosmo_sigma_profile": { 
			"-0.025": 0.0,
			"-0.024": 0.0,
			"-0.023": 0.0,
			"-0.022": 0.0,
			"-0.021": 0.0,
			"-0.02": 0.0,
			"-0.019": 0.0,
			"-0.018": 0.0,
			"-0.017": 0.0,
			"-0.016": 0.0,
			"-0.015": 0.0,
			"-0.014": 0.0,
			"-0.013": 0.0,
			"-0.012": 0.90107618758,
			"-0.011": 2.18225213889,
			"-0.01": 1.90421456486,
			"-0.009": 2.52720529735,
			"-0.008": 6.41850484342,
			"-0.007": 8.9645338234,
			"-0.006": 12.9785387036,
			"-0.005": 16.3513548829,
			"-0.004": 19.072818199,
			"-0.003": 19.0955298352,
			"-0.002": 22.4847480149,
			"-0.001": 21.5522647564,
			"0.0": 18.6406065881,
			"0.001": 14.8471280199,
			"0.002": 15.2514315912,
			"0.003": 20.3755645244,
			"0.004": 16.9137383642,
			"0.005": 13.6240073639,
			"0.006": 8.09669438858,
			"0.007": 3.85510879534,
			"0.008": 4.13924432868,
			"0.009": 5.80466895756,
			"0.01": 6.21917964921,
			"0.011": 5.49950091233,
			"0.012": 1.66253898452,
			"0.013": 0.140470862548,
			"0.014": 0.0,
			"0.015": 0.0,
			"0.016": 0.0,
			"0.017": 0.0,
			"0.018": 0.0,
			"0.019": 0.0,
			"0.02": 0.0,
			"0.021": 0.0,
			"0.022": 0.0,
			"0.023": 0.0,
			"0.024": 0.0,
			"0.025": 0.0
		}
	}
}
