{
	 "smiles": "N#CC1(CCCCC1)N=N/C1(CCCCC1)C#N", 
	 "Tm": 389.15, 
	 "num_atms": 38, 
	 "gaussian": { 
		 "optdone": 1, 
		 "sigma_profile": "yes", 
		 "theory": "DFT", 
		 "functional": "B3LYP", 
		 "basiset": "6-31G**", 
		 "properties": { 
			 "R2extent": 4970.3757, 
			 "electric_dipole_moment_norm": 0.949378264971, 
			 "electric_quadrupole_moment_norm": 27.5706265868, 
			 "total_energy": -764.469790535, 
			 "HOMO_LUMO_gap": 0.18247, 
			 "cosmo_polarized_energy": -12.38, 
			 "cosmo_cavitation_energy": 39.15, 
			 "cosmo_dispersion_energy": -25.6, 
			 "cosmo_repulsion_energy": 2.03, 
			 "cosmo_total_nonelectrostatic_energy": 15.58, 
			 "SMD_solvation_energy": 6.7 
		},
		"coords": [
			{
				"x": 2.7225644758,
				"y": -0.4476177427,
				"z": 1.9211068709,
				"element": "N" 
			},
			{
				"x": 2.077543147,
				"y": 0.2516306737,
				"z": 1.2558112406,
				"element": "C" 
			},
			{
				"x": 1.2639432128,
				"y": 1.1675441446,
				"z": 0.4347668468,
				"element": "C" 
			},
			{
				"x": 0.6384113018,
				"y": 2.2815191553,
				"z": 1.3196551548,
				"element": "C" 
			},
			{
				"x": 1.5350052605,
				"y": 3.5255807816,
				"z": 1.3627487704,
				"element": "C" 
			},
			{
				"x": 1.665997969,
				"y": 4.1708244003,
				"z": -0.0368973392,
				"element": "C" 
			},
			{
				"x": 1.5918050861,
				"y": 3.1166841045,
				"z": -1.1669718355,
				"element": "C" 
			},
			{
				"x": 2.1541650088,
				"y": 1.7701481357,
				"z": -0.7041257984,
				"element": "C" 
			},
			{
				"x": 0.2818124073,
				"y": 0.2611086194,
				"z": -0.273274799,
				"element": "N" 
			},
			{
				"x": -0.8646196915,
				"y": 0.7039785551,
				"z": -0.3425441452,
				"element": "N" 
			},
			{
				"x": -1.844637647,
				"y": -0.1780804643,
				"z": -1.0943394533,
				"element": "C" 
			},
			{
				"x": -1.2758319399,
				"y": -1.4880966233,
				"z": -1.7165871223,
				"element": "C" 
			},
			{
				"x": -1.5840067951,
				"y": -2.7402150983,
				"z": -0.8705227364,
				"element": "C" 
			},
			{
				"x": -1.4643710289,
				"y": -2.4534334703,
				"z": 0.6313694444,
				"element": "C" 
			},
			{
				"x": -2.4787217516,
				"y": -1.3713929575,
				"z": 1.0835533795,
				"element": "C" 
			},
			{
				"x": -2.9749557744,
				"y": -0.482787089,
				"z": -0.0765885614,
				"element": "C" 
			},
			{
				"x": -2.3587239419,
				"y": 0.7121782846,
				"z": -2.1518894525,
				"element": "C" 
			},
			{
				"x": -2.7632383922,
				"y": 1.4001068871,
				"z": -2.995039105,
				"element": "N" 
			},
			{
				"x": -0.3349375055,
				"y": 2.5329195929,
				"z": 0.8903804881,
				"element": "H" 
			},
			{
				"x": 0.4524507236,
				"y": 1.8895394771,
				"z": 2.323780135,
				"element": "H" 
			},
			{
				"x": 1.1254470014,
				"y": 4.247058072,
				"z": 2.0771213704,
				"element": "H" 
			},
			{
				"x": 2.5239051342,
				"y": 3.2473145131,
				"z": 1.7479041887,
				"element": "H" 
			},
			{
				"x": 2.6136196258,
				"y": 4.7179642815,
				"z": -0.096084701,
				"element": "H" 
			},
			{
				"x": 0.8715573007,
				"y": 4.9110098238,
				"z": -0.1829787878,
				"element": "H" 
			},
			{
				"x": 0.5530219951,
				"y": 2.9766611596,
				"z": -1.4888313852,
				"element": "H" 
			},
			{
				"x": 2.1401207292,
				"y": 3.4594204056,
				"z": -2.0503508563,
				"element": "H" 
			},
			{
				"x": 3.1740068377,
				"y": 1.8931127991,
				"z": -0.3251522984,
				"element": "H" 
			},
			{
				"x": 2.204339919,
				"y": 1.0427873195,
				"z": -1.5203720909,
				"element": "H" 
			},
			{
				"x": -1.6880001472,
				"y": -1.6061823445,
				"z": -2.7225285816,
				"element": "H" 
			},
			{
				"x": -0.1954977785,
				"y": -1.3613285633,
				"z": -1.8211109774,
				"element": "H" 
			},
			{
				"x": -2.595083608,
				"y": -3.103345517,
				"z": -1.0958616292,
				"element": "H" 
			},
			{
				"x": -0.8984912414,
				"y": -3.5427452963,
				"z": -1.1629312221,
				"element": "H" 
			},
			{
				"x": -0.4427122446,
				"y": -2.119306604,
				"z": 0.8423455705,
				"element": "H" 
			},
			{
				"x": -1.6146111842,
				"y": -3.3722188875,
				"z": 1.2074016592,
				"element": "H" 
			},
			{
				"x": -2.0287295539,
				"y": -0.7422115489,
				"z": 1.8582878387,
				"element": "H" 
			},
			{
				"x": -3.356455585,
				"y": -1.8397679927,
				"z": 1.5419092912,
				"element": "H" 
			},
			{
				"x": -3.3841748851,
				"y": 0.4583622437,
				"z": 0.3010949592,
				"element": "H" 
			},
			{
				"x": -3.7768164398,
				"y": -0.9821232303,
				"z": -0.6301543302,
				"element": "H" 
			}
		],
		 "valence_orbital": [ 
			{
				"type": "occ",
				"energy": -0.32499,
				"method": "rhf"
			},
			{
				"type": "occ",
				"energy": -0.32177,
				"method": "rhf"
			},
			{
				"type": "occ",
				"energy": -0.31497,
				"method": "rhf"
			},
			{
				"type": "occ",
				"energy": -0.31278,
				"method": "rhf"
			},
			{
				"type": "occ",
				"energy": -0.25182,
				"method": "rhf"
			},
			{
				"type": "unocc",
				"energy": -0.06935,
				"method": "rhf"
			},
			{
				"type": "unocc",
				"energy": 0.01457,
				"method": "rhf"
			},
			{
				"type": "unocc",
				"energy": 0.02906,
				"method": "rhf"
			},
			{
				"type": "unocc",
				"energy": 0.03111,
				"method": "rhf"
			},
			{
				"type": "unocc",
				"energy": 0.04277,
				"method": "rhf"
			}
		],
		"cosmo_sigma_profile": { 
			"-0.025": 0.0,
			"-0.024": 0.0,
			"-0.023": 0.0,
			"-0.022": 0.0,
			"-0.021": 0.0,
			"-0.02": 0.0,
			"-0.019": 0.0,
			"-0.018": 0.0,
			"-0.017": 0.0,
			"-0.016": 0.0,
			"-0.015": 0.0,
			"-0.014": 0.0,
			"-0.013": 0.0,
			"-0.012": 0.0,
			"-0.011": 0.0,
			"-0.01": 0.0,
			"-0.009": 0.0,
			"-0.008": 0.0,
			"-0.007": 0.237017486842,
			"-0.006": 3.49540410143,
			"-0.005": 15.5963188714,
			"-0.004": 24.7875840626,
			"-0.003": 47.4651070656,
			"-0.002": 58.6169182756,
			"-0.001": 41.0861305898,
			"0.0": 31.3950115688,
			"0.001": 13.6063633286,
			"0.002": 7.36809906737,
			"0.003": 6.70265706805,
			"0.004": 6.11631951028,
			"0.005": 7.03458286458,
			"0.006": 5.66395549269,
			"0.007": 4.75205006801,
			"0.008": 7.49085770687,
			"0.009": 6.36461636575,
			"0.01": 6.58427124447,
			"0.011": 4.95296685214,
			"0.012": 4.73325477087,
			"0.013": 2.34024220431,
			"0.014": 0.0122903269955,
			"0.015": 0.0,
			"0.016": 0.0,
			"0.017": 0.0,
			"0.018": 0.0,
			"0.019": 0.0,
			"0.02": 0.0,
			"0.021": 0.0,
			"0.022": 0.0,
			"0.023": 0.0,
			"0.024": 0.0,
			"0.025": 0.0
		}
	}
}
