{
	 "smiles": "CC(C)(C)N1N=C(C(C#N)=C1N)C1=CC=C(Cl)C=C1", 
	 "Tm": 427.15, 
	 "num_atms": 34, 
	 "gaussian": { 
		 "optdone": 1, 
		 "sigma_profile": "yes", 
		 "theory": "DFT", 
		 "functional": "B3LYP", 
		 "basiset": "6-31G**", 
		 "properties": { 
			 "R2extent": 9204.2418, 
			 "electric_dipole_moment_norm": 7.16354367405, 
			 "electric_quadrupole_moment_norm": 14.3903998134, 
			 "total_energy": -1221.72035959, 
			 "HOMO_LUMO_gap": 0.1824, 
			 "cosmo_polarized_energy": -15.91, 
			 "cosmo_cavitation_energy": 39.29, 
			 "cosmo_dispersion_energy": -27.3, 
			 "cosmo_repulsion_energy": 2.08, 
			 "cosmo_total_nonelectrostatic_energy": 14.07, 
			 "SMD_solvation_energy": 6.86 
		},
		"coords": [
			{
				"x": -3.2577286457,
				"y": 0.0140649385,
				"z": -1.5966154806,
				"element": "C" 
			},
			{
				"x": -1.7196096831,
				"y": 0.0067010836,
				"z": -1.5060905736,
				"element": "C" 
			},
			{
				"x": -1.0829263368,
				"y": -0.7079673084,
				"z": -2.7151585988,
				"element": "C" 
			},
			{
				"x": -1.2073039785,
				"y": 1.4540625091,
				"z": -1.4608239057,
				"element": "C" 
			},
			{
				"x": -1.3077085562,
				"y": -0.6896200884,
				"z": -0.2488819754,
				"element": "N" 
			},
			{
				"x": -0.5289524072,
				"y": -0.0348947309,
				"z": 0.6660005177,
				"element": "N" 
			},
			{
				"x": -0.3392045646,
				"y": -0.8690909159,
				"z": 1.6801771309,
				"element": "C" 
			},
			{
				"x": -0.9971523835,
				"y": -2.1138827348,
				"z": 1.4201684836,
				"element": "C" 
			},
			{
				"x": -1.0621574743,
				"y": -3.3201214326,
				"z": 2.150838659,
				"element": "C" 
			},
			{
				"x": -1.1512027624,
				"y": -4.3448572518,
				"z": 2.7022778873,
				"element": "N" 
			},
			{
				"x": -1.602069362,
				"y": -1.9501625721,
				"z": 0.1670262808,
				"element": "C" 
			},
			{
				"x": -2.4173369399,
				"y": -2.8486143257,
				"z": -0.4976378077,
				"element": "N" 
			},
			{
				"x": 0.4643695456,
				"y": -0.4529019365,
				"z": 2.841927276,
				"element": "C" 
			},
			{
				"x": 1.1342414504,
				"y": 0.7832649304,
				"z": 2.8141397494,
				"element": "C" 
			},
			{
				"x": 1.8978984005,
				"y": 1.2107993002,
				"z": 3.8943395614,
				"element": "C" 
			},
			{
				"x": 1.9998704968,
				"y": 0.3952513971,
				"z": 5.0227319553,
				"element": "C" 
			},
			{
				"x": 2.9661675795,
				"y": 0.9283237383,
				"z": 6.3912191434,
				"element": "Cl" 
			},
			{
				"x": 1.3470924966,
				"y": -0.8339091274,
				"z": 5.0781968486,
				"element": "C" 
			},
			{
				"x": 0.5823321293,
				"y": -1.2517138427,
				"z": 3.9897300608,
				"element": "C" 
			},
			{
				"x": -3.5658753158,
				"y": 0.5102129428,
				"z": -2.5218242335,
				"element": "H" 
			},
			{
				"x": -3.6832615184,
				"y": 0.565806705,
				"z": -0.7536319454,
				"element": "H" 
			},
			{
				"x": -3.6802013224,
				"y": -0.9925606863,
				"z": -1.5884746832,
				"element": "H" 
			},
			{
				"x": 0.0041535873,
				"y": -0.753550861,
				"z": -2.6059786597,
				"element": "H" 
			},
			{
				"x": -1.4544597424,
				"y": -1.7278806499,
				"z": -2.8573676153,
				"element": "H" 
			},
			{
				"x": -1.3142160798,
				"y": -0.1568440095,
				"z": -3.6313302163,
				"element": "H" 
			},
			{
				"x": -1.5357134693,
				"y": 1.9607697904,
				"z": -2.3732632286,
				"element": "H" 
			},
			{
				"x": -0.1181034431,
				"y": 1.4942087365,
				"z": -1.4077520163,
				"element": "H" 
			},
			{
				"x": -1.6063053959,
				"y": 1.9898859641,
				"z": -0.5980738245,
				"element": "H" 
			},
			{
				"x": -2.2606697979,
				"y": -2.9368333205,
				"z": -1.4924027735,
				"element": "H" 
			},
			{
				"x": -2.439093635,
				"y": -3.7538655148,
				"z": -0.0425183476,
				"element": "H" 
			},
			{
				"x": 1.0481456238,
				"y": 1.4064704616,
				"z": 1.9312019766,
				"element": "H" 
			},
			{
				"x": 2.412222638,
				"y": 2.165075605,
				"z": 3.8650179999,
				"element": "H" 
			},
			{
				"x": 1.4326322074,
				"y": -1.4575539163,
				"z": 5.9609940664,
				"element": "H" 
			},
			{
				"x": 0.0765266588,
				"y": -2.2086728772,
				"z": 4.0492382889,
				"element": "H" 
			}
		],
		 "valence_orbital": [ 
			{
				"type": "occ",
				"energy": -0.29524,
				"method": "rhf"
			},
			{
				"type": "occ",
				"energy": -0.27752,
				"method": "rhf"
			},
			{
				"type": "occ",
				"energy": -0.25993,
				"method": "rhf"
			},
			{
				"type": "occ",
				"energy": -0.23463,
				"method": "rhf"
			},
			{
				"type": "occ",
				"energy": -0.21962,
				"method": "rhf"
			},
			{
				"type": "unocc",
				"energy": -0.03722,
				"method": "rhf"
			},
			{
				"type": "unocc",
				"energy": -0.01141,
				"method": "rhf"
			},
			{
				"type": "unocc",
				"energy": 0.00068,
				"method": "rhf"
			},
			{
				"type": "unocc",
				"energy": 0.02163,
				"method": "rhf"
			},
			{
				"type": "unocc",
				"energy": 0.03491,
				"method": "rhf"
			}
		],
		"cosmo_sigma_profile": { 
			"-0.025": 0.0,
			"-0.024": 0.0,
			"-0.023": 0.0,
			"-0.022": 0.0,
			"-0.021": 0.0,
			"-0.02": 0.0,
			"-0.019": 0.0,
			"-0.018": 0.0,
			"-0.017": 0.0,
			"-0.016": 0.0,
			"-0.015": 0.0937491774228,
			"-0.014": 1.22662079661,
			"-0.013": 2.36965451284,
			"-0.012": 2.34201697858,
			"-0.011": 3.01299582846,
			"-0.01": 2.01361549452,
			"-0.009": 1.92853307144,
			"-0.008": 3.89848562428,
			"-0.007": 7.10006241004,
			"-0.006": 6.6896369627,
			"-0.005": 12.917438609,
			"-0.004": 20.2675602129,
			"-0.003": 23.3841722432,
			"-0.002": 26.4501300516,
			"-0.001": 29.5402876175,
			"0.0": 32.2461283656,
			"0.001": 27.0721352613,
			"0.002": 26.0892040209,
			"0.003": 27.2735031013,
			"0.004": 17.456849347,
			"0.005": 11.3303262578,
			"0.006": 4.43651077193,
			"0.007": 5.28466037275,
			"0.008": 5.00537547305,
			"0.009": 3.99488314077,
			"0.01": 3.14860245185,
			"0.011": 3.0204962682,
			"0.012": 2.80467301294,
			"0.013": 2.39347459775,
			"0.014": 0.558069328729,
			"0.015": 0.0,
			"0.016": 0.0,
			"0.017": 0.0,
			"0.018": 0.0,
			"0.019": 0.0,
			"0.02": 0.0,
			"0.021": 0.0,
			"0.022": 0.0,
			"0.023": 0.0,
			"0.024": 0.0,
			"0.025": 0.0
		}
	}
}
