{
	 "smiles": "COC(=O)C(=CC1=CC=C(O)C=C1)C(=O)OC", 
	 "Tm": 431.15, 
	 "num_atms": 29, 
	 "gaussian": { 
		 "optdone": 1, 
		 "sigma_profile": "yes", 
		 "theory": "DFT", 
		 "functional": "B3LYP", 
		 "basiset": "6-31G**", 
		 "properties": { 
			 "R2extent": 5428.1391, 
			 "electric_dipole_moment_norm": 2.61629983756, 
			 "electric_quadrupole_moment_norm": 13.6099232573, 
			 "total_energy": -840.620968531, 
			 "HOMO_LUMO_gap": 0.15625, 
			 "cosmo_polarized_energy": -16.39, 
			 "cosmo_cavitation_energy": 34.6, 
			 "cosmo_dispersion_energy": -24.37, 
			 "cosmo_repulsion_energy": 1.92, 
			 "cosmo_total_nonelectrostatic_energy": 12.14, 
			 "SMD_solvation_energy": 9.33 
		},
		"coords": [
			{
				"x": -0.205298618,
				"y": 1.3000901888,
				"z": 3.3883185074,
				"element": "C" 
			},
			{
				"x": -0.7249142684,
				"y": 0.8933467037,
				"z": 2.1122071879,
				"element": "O" 
			},
			{
				"x": 0.127588343,
				"y": 1.0135824788,
				"z": 1.0755789705,
				"element": "C" 
			},
			{
				"x": 1.2810099253,
				"y": 1.3773866197,
				"z": 1.2054747868,
				"element": "O" 
			},
			{
				"x": -0.5358636644,
				"y": 0.6237989459,
				"z": -0.2084230496,
				"element": "C" 
			},
			{
				"x": -0.1362692341,
				"y": -0.3701746398,
				"z": -1.0417291134,
				"element": "C" 
			},
			{
				"x": 0.9730574272,
				"y": -1.314516792,
				"z": -1.0247611444,
				"element": "C" 
			},
			{
				"x": 2.1487242751,
				"y": -1.18934544,
				"z": -0.2547994072,
				"element": "C" 
			},
			{
				"x": 3.1451588078,
				"y": -2.1553343788,
				"z": -0.3160598058,
				"element": "C" 
			},
			{
				"x": 3.0003308303,
				"y": -3.2749940518,
				"z": -1.1465799864,
				"element": "C" 
			},
			{
				"x": 3.9454671253,
				"y": -4.248888809,
				"z": -1.2395907269,
				"element": "O" 
			},
			{
				"x": 1.8497218219,
				"y": -3.4127602452,
				"z": -1.9335037558,
				"element": "C" 
			},
			{
				"x": 0.8649287464,
				"y": -2.4391860798,
				"z": -1.8746018975,
				"element": "C" 
			},
			{
				"x": -1.7611899426,
				"y": 1.3704872696,
				"z": -0.6195970816,
				"element": "C" 
			},
			{
				"x": -2.4977074519,
				"y": 1.059522271,
				"z": -1.5367001107,
				"element": "O" 
			},
			{
				"x": -1.94111099,
				"y": 2.4859002551,
				"z": 0.1235785493,
				"element": "O" 
			},
			{
				"x": -3.0852546099,
				"y": 3.27736894,
				"z": -0.2280329831,
				"element": "C" 
			},
			{
				"x": -1.0168322696,
				"y": 1.1423143721,
				"z": 4.0984011264,
				"element": "H" 
			},
			{
				"x": 0.0862083105,
				"y": 2.3531917177,
				"z": 3.3654372632,
				"element": "H" 
			},
			{
				"x": 0.6656400478,
				"y": 0.6985130104,
				"z": 3.6602920397,
				"element": "H" 
			},
			{
				"x": -0.8208193669,
				"y": -0.5103271137,
				"z": -1.8777132369,
				"element": "H" 
			},
			{
				"x": 2.2934736071,
				"y": -0.3155013306,
				"z": 0.3671110385,
				"element": "H" 
			},
			{
				"x": 4.0500616082,
				"y": -2.035070667,
				"z": 0.2763557771,
				"element": "H" 
			},
			{
				"x": 4.6859536985,
				"y": -4.0331669636,
				"z": -0.6572125969,
				"element": "H" 
			},
			{
				"x": 1.7543283149,
				"y": -4.2775386723,
				"z": -2.5812507292,
				"element": "H" 
			},
			{
				"x": -0.0234356679,
				"y": -2.5488737687,
				"z": -2.4908106665,
				"element": "H" 
			},
			{
				"x": -4.0048521518,
				"y": 2.6982333304,
				"z": -0.1117368688,
				"element": "H" 
			},
			{
				"x": -3.0775645181,
				"y": 4.1252124992,
				"z": 0.4569500002,
				"element": "H" 
			},
			{
				"x": -3.0139401357,
				"y": 3.6192303501,
				"z": -1.2637020864,
				"element": "H" 
			}
		],
		 "valence_orbital": [ 
			{
				"type": "occ",
				"energy": -0.29278,
				"method": "rhf"
			},
			{
				"type": "occ",
				"energy": -0.28278,
				"method": "rhf"
			},
			{
				"type": "occ",
				"energy": -0.26353,
				"method": "rhf"
			},
			{
				"type": "occ",
				"energy": -0.26105,
				"method": "rhf"
			},
			{
				"type": "occ",
				"energy": -0.21965,
				"method": "rhf"
			},
			{
				"type": "unocc",
				"energy": -0.0634,
				"method": "rhf"
			},
			{
				"type": "unocc",
				"energy": -0.01071,
				"method": "rhf"
			},
			{
				"type": "unocc",
				"energy": 0.00559,
				"method": "rhf"
			},
			{
				"type": "unocc",
				"energy": 0.02687,
				"method": "rhf"
			},
			{
				"type": "unocc",
				"energy": 0.06167,
				"method": "rhf"
			}
		],
		"cosmo_sigma_profile": { 
			"-0.025": 0.0,
			"-0.024": 0.0,
			"-0.023": 0.0,
			"-0.022": 0.0,
			"-0.021": 0.0,
			"-0.02": 0.0,
			"-0.019": 0.156438547002,
			"-0.018": 1.0353992108,
			"-0.017": 1.28476832932,
			"-0.016": 0.819809381135,
			"-0.015": 1.23081963378,
			"-0.014": 0.993414702779,
			"-0.013": 0.928130314321,
			"-0.012": 0.896521906723,
			"-0.011": 1.1927348428,
			"-0.01": 0.957751202142,
			"-0.009": 1.09358092705,
			"-0.008": 2.33270634064,
			"-0.007": 6.82566138271,
			"-0.006": 17.1373668278,
			"-0.005": 19.2578503298,
			"-0.004": 22.1307965495,
			"-0.003": 23.0431320307,
			"-0.002": 17.9311944204,
			"-0.001": 13.6547378997,
			"0.0": 14.7078008945,
			"0.001": 17.5386401141,
			"0.002": 21.4139892978,
			"0.003": 22.084958735,
			"0.004": 16.1075221504,
			"0.005": 7.87252120429,
			"0.006": 7.65065982656,
			"0.007": 5.57450456385,
			"0.008": 6.52333628302,
			"0.009": 5.32505034736,
			"0.01": 5.41909842766,
			"0.011": 7.35221054164,
			"0.012": 5.24615956949,
			"0.013": 0.191103024294,
			"0.014": 0.0,
			"0.015": 0.0,
			"0.016": 0.0,
			"0.017": 0.0,
			"0.018": 0.0,
			"0.019": 0.0,
			"0.02": 0.0,
			"0.021": 0.0,
			"0.022": 0.0,
			"0.023": 0.0,
			"0.024": 0.0,
			"0.025": 0.0
		}
	}
}
