{
	 "smiles": "NS(=O)(=O)C1=CC(C(O)=O)=C(Cl)C(Cl)=C1", 
	 "Tm": 511.15, 
	 "num_atms": 20, 
	 "gaussian": { 
		 "optdone": 1, 
		 "sigma_profile": "yes", 
		 "theory": "DFT", 
		 "functional": "B3LYP", 
		 "basiset": "6-31G**", 
		 "properties": { 
			 "R2extent": 5203.1025, 
			 "electric_dipole_moment_norm": 3.09148801389, 
			 "electric_quadrupole_moment_norm": 22.097847397, 
			 "total_energy": -1943.90817873, 
			 "HOMO_LUMO_gap": 0.18981, 
			 "cosmo_polarized_energy": -19.27, 
			 "cosmo_cavitation_energy": 30.39, 
			 "cosmo_dispersion_energy": -23.01, 
			 "cosmo_repulsion_energy": 1.77, 
			 "cosmo_total_nonelectrostatic_energy": 9.15, 
			 "SMD_solvation_energy": 5.58 
		},
		"coords": [
			{
				"x": 1.6476422905,
				"y": 3.417216685,
				"z": 0.3371940857,
				"element": "N" 
			},
			{
				"x": 1.6998431902,
				"y": 1.839503914,
				"z": 0.9417705476,
				"element": "S" 
			},
			{
				"x": 3.0831637597,
				"y": 1.3724581224,
				"z": 0.827566261,
				"element": "O" 
			},
			{
				"x": 0.9589898999,
				"y": 1.8329354937,
				"z": 2.204458406,
				"element": "O" 
			},
			{
				"x": 0.7281864761,
				"y": 0.9128577534,
				"z": -0.2520238114,
				"element": "C" 
			},
			{
				"x": -0.6425267631,
				"y": 0.7859869407,
				"z": -0.0707706211,
				"element": "C" 
			},
			{
				"x": -1.4153772966,
				"y": 0.0777143927,
				"z": -1.0011746002,
				"element": "C" 
			},
			{
				"x": -2.8981373188,
				"y": 0.0144736675,
				"z": -0.7812262046,
				"element": "C" 
			},
			{
				"x": -3.220600351,
				"y": 0.3344812953,
				"z": 0.4972935292,
				"element": "O" 
			},
			{
				"x": -3.7381873599,
				"y": -0.2589701375,
				"z": -1.6076216536,
				"element": "O" 
			},
			{
				"x": -0.7809934856,
				"y": -0.522241496,
				"z": -2.1130223252,
				"element": "C" 
			},
			{
				"x": -1.6614566774,
				"y": -1.4472356129,
				"z": -3.2840144146,
				"element": "Cl" 
			},
			{
				"x": 0.6146547926,
				"y": -0.3967124253,
				"z": -2.2592223944,
				"element": "C" 
			},
			{
				"x": 1.4562663952,
				"y": -1.136769825,
				"z": -3.5946642168,
				"element": "Cl" 
			},
			{
				"x": 1.3700803046,
				"y": 0.3202635698,
				"z": -1.33420999,
				"element": "C" 
			},
			{
				"x": 1.2066636844,
				"y": 4.0301056692,
				"z": 1.0178647545,
				"element": "H" 
			},
			{
				"x": 2.5873399934,
				"y": 3.7272296297,
				"z": 0.1041861887,
				"element": "H" 
			},
			{
				"x": -1.1194935339,
				"y": 1.2241997002,
				"z": 0.7960064583,
				"element": "H" 
			},
			{
				"x": -4.1904386753,
				"y": 0.3005096213,
				"z": 0.5409926943,
				"element": "H" 
			},
			{
				"x": 2.4448806751,
				"y": 0.3959930414,
				"z": -1.4486826934,
				"element": "H" 
			}
		],
		 "valence_orbital": [ 
			{
				"type": "occ",
				"energy": -0.32116,
				"method": "rhf"
			},
			{
				"type": "occ",
				"energy": -0.31161,
				"method": "rhf"
			},
			{
				"type": "occ",
				"energy": -0.28843,
				"method": "rhf"
			},
			{
				"type": "occ",
				"energy": -0.28626,
				"method": "rhf"
			},
			{
				"type": "occ",
				"energy": -0.271,
				"method": "rhf"
			},
			{
				"type": "unocc",
				"energy": -0.08119,
				"method": "rhf"
			},
			{
				"type": "unocc",
				"energy": -0.05804,
				"method": "rhf"
			},
			{
				"type": "unocc",
				"energy": -0.01261,
				"method": "rhf"
			},
			{
				"type": "unocc",
				"energy": 0.01481,
				"method": "rhf"
			},
			{
				"type": "unocc",
				"energy": 0.04147,
				"method": "rhf"
			}
		],
		"cosmo_sigma_profile": { 
			"-0.025": 0.0,
			"-0.024": 0.0,
			"-0.023": 0.0,
			"-0.022": 0.0,
			"-0.021": 0.0,
			"-0.02": 0.0,
			"-0.019": 0.576876153701,
			"-0.018": 0.921735743495,
			"-0.017": 0.886458424536,
			"-0.016": 0.977146725793,
			"-0.015": 2.630104489,
			"-0.014": 2.87264831278,
			"-0.013": 3.36110064155,
			"-0.012": 3.55628399478,
			"-0.011": 3.28944567688,
			"-0.01": 2.11143443779,
			"-0.009": 2.4127808819,
			"-0.008": 4.32113023774,
			"-0.007": 5.53953410804,
			"-0.006": 5.61828420146,
			"-0.005": 7.85518376931,
			"-0.004": 11.448941076,
			"-0.003": 18.5384632074,
			"-0.002": 23.9946567325,
			"-0.001": 20.4797850752,
			"0.0": 12.0476620111,
			"0.001": 12.7987396701,
			"0.002": 17.5312883048,
			"0.003": 18.2027286159,
			"0.004": 11.7591492767,
			"0.005": 5.31051126168,
			"0.006": 5.42731729296,
			"0.007": 6.71989534484,
			"0.008": 4.90578745456,
			"0.009": 7.81825569038,
			"0.01": 12.9339603654,
			"0.011": 10.7323332006,
			"0.012": 0.515018800006,
			"0.013": 0.0,
			"0.014": 0.0,
			"0.015": 0.0,
			"0.016": 0.0,
			"0.017": 0.0,
			"0.018": 0.0,
			"0.019": 0.0,
			"0.02": 0.0,
			"0.021": 0.0,
			"0.022": 0.0,
			"0.023": 0.0,
			"0.024": 0.0,
			"0.025": 0.0
		}
	}
}
