{
	 "smiles": "CC(C)CC(C)=C", 
	 "Tm": 149.15, 
	 "num_atms": 21, 
	 "gaussian": { 
		 "optdone": 1, 
		 "sigma_profile": "yes", 
		 "theory": "DFT", 
		 "functional": "B3LYP", 
		 "basiset": "6-31G**", 
		 "properties": { 
			 "R2extent": 1071.9143, 
			 "electric_dipole_moment_norm": 0.515436649842, 
			 "electric_quadrupole_moment_norm": 1.89421393195, 
			 "total_energy": -275.182121386, 
			 "HOMO_LUMO_gap": 0.2669, 
			 "cosmo_polarized_energy": -1.66, 
			 "cosmo_cavitation_energy": 22.58, 
			 "cosmo_dispersion_energy": -15.73, 
			 "cosmo_repulsion_energy": 1.32, 
			 "cosmo_total_nonelectrostatic_energy": 8.17, 
			 "SMD_solvation_energy": 4.68 
		},
		"coords": [
			{
				"x": -0.2209188714,
				"y": 2.117053631,
				"z": -1.6713721953,
				"element": "C" 
			},
			{
				"x": -0.2108897447,
				"y": 1.0698379571,
				"z": -0.5485579203,
				"element": "C" 
			},
			{
				"x": -1.30183061,
				"y": 0.0137132362,
				"z": -0.7703629811,
				"element": "C" 
			},
			{
				"x": 1.1936236089,
				"y": 0.4273732766,
				"z": -0.4281052165,
				"element": "C" 
			},
			{
				"x": 1.3746245041,
				"y": -0.5271007449,
				"z": 0.7337679678,
				"element": "C" 
			},
			{
				"x": 1.2952552798,
				"y": 0.0668827735,
				"z": 2.1199629753,
				"element": "C" 
			},
			{
				"x": 1.6126351131,
				"y": -1.8295895404,
				"z": 0.5429888329,
				"element": "C" 
			},
			{
				"x": -1.1997496564,
				"y": 2.6021174849,
				"z": -1.7521272836,
				"element": "H" 
			},
			{
				"x": 0.5274466886,
				"y": 2.8984953171,
				"z": -1.4985461464,
				"element": "H" 
			},
			{
				"x": -0.0002642631,
				"y": 1.6535206319,
				"z": -2.6408224503,
				"element": "H" 
			},
			{
				"x": -0.4289464047,
				"y": 1.5921695071,
				"z": 0.3938316443,
				"element": "H" 
			},
			{
				"x": -1.3074808206,
				"y": -0.7341934763,
				"z": 0.0280521319,
				"element": "H" 
			},
			{
				"x": -1.1408206755,
				"y": -0.5167333658,
				"z": -1.7172643076,
				"element": "H" 
			},
			{
				"x": -2.2942516758,
				"y": 0.4754889424,
				"z": -0.8132326804,
				"element": "H" 
			},
			{
				"x": 1.4198943019,
				"y": -0.0950366034,
				"z": -1.3665516818,
				"element": "H" 
			},
			{
				"x": 1.931517377,
				"y": 1.2385646259,
				"z": -0.3361268591,
				"element": "H" 
			},
			{
				"x": 1.4919162342,
				"y": -0.6830070611,
				"z": 2.8908222264,
				"element": "H" 
			},
			{
				"x": 0.3075890441,
				"y": 0.5011415163,
				"z": 2.3180232367,
				"element": "H" 
			},
			{
				"x": 2.022506833,
				"y": 0.8805124013,
				"z": 2.2402023453,
				"element": "H" 
			},
			{
				"x": 1.6779281627,
				"y": -2.2569625606,
				"z": -0.4539963796,
				"element": "H" 
			},
			{
				"x": 1.7546155748,
				"y": -2.5131479487,
				"z": 1.3760147415,
				"element": "H" 
			}
		],
		 "valence_orbital": [ 
			{
				"type": "occ",
				"energy": -0.34322,
				"method": "rhf"
			},
			{
				"type": "occ",
				"energy": -0.32793,
				"method": "rhf"
			},
			{
				"type": "occ",
				"energy": -0.31765,
				"method": "rhf"
			},
			{
				"type": "occ",
				"energy": -0.31447,
				"method": "rhf"
			},
			{
				"type": "occ",
				"energy": -0.23897,
				"method": "rhf"
			},
			{
				"type": "unocc",
				"energy": 0.02793,
				"method": "rhf"
			},
			{
				"type": "unocc",
				"energy": 0.08396,
				"method": "rhf"
			},
			{
				"type": "unocc",
				"energy": 0.11828,
				"method": "rhf"
			},
			{
				"type": "unocc",
				"energy": 0.12209,
				"method": "rhf"
			},
			{
				"type": "unocc",
				"energy": 0.14015,
				"method": "rhf"
			}
		],
		"cosmo_sigma_profile": { 
			"-0.025": 0.0,
			"-0.024": 0.0,
			"-0.023": 0.0,
			"-0.022": 0.0,
			"-0.021": 0.0,
			"-0.02": 0.0,
			"-0.019": 0.0,
			"-0.018": 0.0,
			"-0.017": 0.0,
			"-0.016": 0.0,
			"-0.015": 0.0,
			"-0.014": 0.0,
			"-0.013": 0.0,
			"-0.012": 0.0,
			"-0.011": 0.0,
			"-0.01": 0.0,
			"-0.009": 0.0,
			"-0.008": 0.0,
			"-0.007": 0.0,
			"-0.006": 0.0,
			"-0.005": 0.000289578653666,
			"-0.004": 3.63410155049,
			"-0.003": 16.2187904382,
			"-0.002": 29.0934154957,
			"-0.001": 31.4797749712,
			"0.0": 28.8026632295,
			"0.001": 27.0681543391,
			"0.002": 17.9675764892,
			"0.003": 6.34205922425,
			"0.004": 4.52621611178,
			"0.005": 4.28018607708,
			"0.006": 3.21249403781,
			"0.007": 1.32383683232,
			"0.008": 0.411500591712,
			"0.009": 0.0,
			"0.01": 0.0,
			"0.011": 0.0,
			"0.012": 0.0,
			"0.013": 0.0,
			"0.014": 0.0,
			"0.015": 0.0,
			"0.016": 0.0,
			"0.017": 0.0,
			"0.018": 0.0,
			"0.019": 0.0,
			"0.02": 0.0,
			"0.021": 0.0,
			"0.022": 0.0,
			"0.023": 0.0,
			"0.024": 0.0,
			"0.025": 0.0
		}
	}
}
