{
	 "smiles": "CCS(=O)(=O)N1CCC2=C1C=CC(=C2)C(=O)CCl", 
	 "Tm": 505.15, 
	 "num_atms": 32, 
	 "gaussian": { 
		 "optdone": 1, 
		 "sigma_profile": "yes", 
		 "theory": "DFT", 
		 "functional": "B3LYP", 
		 "basiset": "6-31G**", 
		 "properties": { 
			 "R2extent": 8289.7319, 
			 "electric_dipole_moment_norm": 6.56305476665, 
			 "electric_quadrupole_moment_norm": 38.494631353, 
			 "total_energy": -1604.45589986, 
			 "HOMO_LUMO_gap": 0.16972, 
			 "cosmo_polarized_energy": -22.94, 
			 "cosmo_cavitation_energy": 37.65, 
			 "cosmo_dispersion_energy": -27.57, 
			 "cosmo_repulsion_energy": 2.09, 
			 "cosmo_total_nonelectrostatic_energy": 12.17, 
			 "SMD_solvation_energy": 5.08 
		},
		"coords": [
			{
				"x": 0.7947831189,
				"y": 3.6882979893,
				"z": 1.0162993789,
				"element": "C" 
			},
			{
				"x": 1.2466313706,
				"y": 2.9798122262,
				"z": 2.2882745848,
				"element": "C" 
			},
			{
				"x": 2.3341901379,
				"y": 1.5482895545,
				"z": 2.0004673723,
				"element": "S" 
			},
			{
				"x": 2.6884468358,
				"y": 1.0192256847,
				"z": 3.3169655631,
				"element": "O" 
			},
			{
				"x": 3.3480795554,
				"y": 1.9268437545,
				"z": 1.016380232,
				"element": "O" 
			},
			{
				"x": 1.3605417448,
				"y": 0.3652194655,
				"z": 1.2887823285,
				"element": "N" 
			},
			{
				"x": 0.4125051439,
				"y": -0.4129410253,
				"z": 2.1287889977,
				"element": "C" 
			},
			{
				"x": -0.2206506611,
				"y": -1.414865848,
				"z": 1.135143163,
				"element": "C" 
			},
			{
				"x": 0.1005128204,
				"y": -0.8196644819,
				"z": -0.2189997235,
				"element": "C" 
			},
			{
				"x": 1.06513292,
				"y": 0.1947086264,
				"z": -0.0787535858,
				"element": "C" 
			},
			{
				"x": 1.596471368,
				"y": 0.8449804094,
				"z": -1.1980353166,
				"element": "C" 
			},
			{
				"x": 1.1143743992,
				"y": 0.4802256401,
				"z": -2.451553063,
				"element": "C" 
			},
			{
				"x": 0.1353119295,
				"y": -0.5145151079,
				"z": -2.6161216497,
				"element": "C" 
			},
			{
				"x": -0.3631333596,
				"y": -1.1739821051,
				"z": -1.4740142384,
				"element": "C" 
			},
			{
				"x": -0.3149345214,
				"y": -0.8178700968,
				"z": -4.0056358335,
				"element": "C" 
			},
			{
				"x": 0.129174629,
				"y": -0.2242467749,
				"z": -4.970486144,
				"element": "O" 
			},
			{
				"x": -1.3716621834,
				"y": -1.9226097845,
				"z": -4.1578541269,
				"element": "C" 
			},
			{
				"x": -1.8588086355,
				"y": -2.2052968068,
				"z": -5.8567347921,
				"element": "Cl" 
			},
			{
				"x": 1.6546206462,
				"y": 4.0304992408,
				"z": 0.4364129621,
				"element": "H" 
			},
			{
				"x": 0.1864000268,
				"y": 3.0381060564,
				"z": 0.3825504798,
				"element": "H" 
			},
			{
				"x": 0.1903195229,
				"y": 4.5600081898,
				"z": 1.2840098795,
				"element": "H" 
			},
			{
				"x": 1.851914695,
				"y": 3.6290057198,
				"z": 2.9286294287,
				"element": "H" 
			},
			{
				"x": 0.4121340286,
				"y": 2.6067650552,
				"z": 2.8892814918,
				"element": "H" 
			},
			{
				"x": 0.9513080151,
				"y": -0.88735154,
				"z": 2.9483060709,
				"element": "H" 
			},
			{
				"x": -0.3499512439,
				"y": 0.2537260026,
				"z": 2.5540461408,
				"element": "H" 
			},
			{
				"x": 0.2405935309,
				"y": -2.4046598445,
				"z": 1.2373500946,
				"element": "H" 
			},
			{
				"x": -1.2930771685,
				"y": -1.5353183034,
				"z": 1.3133841993,
				"element": "H" 
			},
			{
				"x": 2.3656741751,
				"y": 1.5981290742,
				"z": -1.0912990583,
				"element": "H" 
			},
			{
				"x": 1.4939168625,
				"y": 0.9663742638,
				"z": -3.3438919443,
				"element": "H" 
			},
			{
				"x": -1.107535002,
				"y": -1.9600559677,
				"z": -1.5599853491,
				"element": "H" 
			},
			{
				"x": -0.9857387004,
				"y": -2.8659940906,
				"z": -3.7630137962,
				"element": "H" 
			},
			{
				"x": -2.2716460008,
				"y": -1.6614451762,
				"z": -3.5953937466,
				"element": "H" 
			}
		],
		 "valence_orbital": [ 
			{
				"type": "occ",
				"energy": -0.29736,
				"method": "rhf"
			},
			{
				"type": "occ",
				"energy": -0.29639,
				"method": "rhf"
			},
			{
				"type": "occ",
				"energy": -0.26995,
				"method": "rhf"
			},
			{
				"type": "occ",
				"energy": -0.26003,
				"method": "rhf"
			},
			{
				"type": "occ",
				"energy": -0.23094,
				"method": "rhf"
			},
			{
				"type": "unocc",
				"energy": -0.06122,
				"method": "rhf"
			},
			{
				"type": "unocc",
				"energy": -0.02537,
				"method": "rhf"
			},
			{
				"type": "unocc",
				"energy": 0.02523,
				"method": "rhf"
			},
			{
				"type": "unocc",
				"energy": 0.02874,
				"method": "rhf"
			},
			{
				"type": "unocc",
				"energy": 0.04655,
				"method": "rhf"
			}
		],
		"cosmo_sigma_profile": { 
			"-0.025": 0.0,
			"-0.024": 0.0,
			"-0.023": 0.0,
			"-0.022": 0.0,
			"-0.021": 0.0,
			"-0.02": 0.0,
			"-0.019": 0.0,
			"-0.018": 0.0,
			"-0.017": 0.0,
			"-0.016": 0.0,
			"-0.015": 0.0,
			"-0.014": 0.0,
			"-0.013": 0.0,
			"-0.012": 0.0,
			"-0.011": 0.0,
			"-0.01": 0.160738613116,
			"-0.009": 9.26029437377,
			"-0.008": 12.4133864198,
			"-0.007": 10.2869451813,
			"-0.006": 17.2113974348,
			"-0.005": 27.2287820823,
			"-0.004": 25.4569441205,
			"-0.003": 21.2492426608,
			"-0.002": 17.443271897,
			"-0.001": 18.2087838773,
			"0.0": 13.5322991844,
			"0.001": 14.6634232388,
			"0.002": 17.9785630594,
			"0.003": 18.1311727826,
			"0.004": 10.2186393585,
			"0.005": 10.0112068023,
			"0.006": 11.5302547382,
			"0.007": 6.42856341157,
			"0.008": 5.77647063074,
			"0.009": 5.81246962113,
			"0.01": 9.54654438838,
			"0.011": 11.8679918859,
			"0.012": 4.61909395465,
			"0.013": 1.68424504096,
			"0.014": 0.198341050724,
			"0.015": 0.0,
			"0.016": 0.0,
			"0.017": 0.0,
			"0.018": 0.0,
			"0.019": 0.0,
			"0.02": 0.0,
			"0.021": 0.0,
			"0.022": 0.0,
			"0.023": 0.0,
			"0.024": 0.0,
			"0.025": 0.0
		}
	}
}
