{
	 "smiles": "CC1=C(CC2=C(Cl)C=CC=C2)SC(N)=N1", 
	 "Tm": 400.15, 
	 "num_atms": 26, 
	 "gaussian": { 
		 "optdone": 1, 
		 "sigma_profile": "yes", 
		 "theory": "DFT", 
		 "functional": "B3LYP", 
		 "basiset": "6-31G**", 
		 "properties": { 
			 "R2extent": 5194.6401, 
			 "electric_dipole_moment_norm": 2.81035304544, 
			 "electric_quadrupole_moment_norm": 10.0798193268, 
			 "total_energy": -1393.6911932, 
			 "HOMO_LUMO_gap": 0.19387, 
			 "cosmo_polarized_energy": -11.38, 
			 "cosmo_cavitation_energy": 33.11, 
			 "cosmo_dispersion_energy": -24.11, 
			 "cosmo_repulsion_energy": 1.88, 
			 "cosmo_total_nonelectrostatic_energy": 10.88, 
			 "SMD_solvation_energy": 3.22 
		},
		"coords": [
			{
				"x": -1.458463585,
				"y": -1.3537408415,
				"z": -1.6897083878,
				"element": "C" 
			},
			{
				"x": -1.5844075842,
				"y": 0.1261490189,
				"z": -1.468326826,
				"element": "C" 
			},
			{
				"x": -0.5544095515,
				"y": 1.0153480619,
				"z": -1.3251185788,
				"element": "C" 
			},
			{
				"x": 0.9298617114,
				"y": 0.7945907116,
				"z": -1.3546233055,
				"element": "C" 
			},
			{
				"x": 1.6294331536,
				"y": 0.6940359602,
				"z": -0.0025876213,
				"element": "C" 
			},
			{
				"x": 3.0299176302,
				"y": 0.6889418735,
				"z": 0.0902005984,
				"element": "C" 
			},
			{
				"x": 4.0113860109,
				"y": 0.8066609137,
				"z": -1.3745127618,
				"element": "Cl" 
			},
			{
				"x": 3.6961897064,
				"y": 0.5847090101,
				"z": 1.3101067206,
				"element": "C" 
			},
			{
				"x": 2.9559515925,
				"y": 0.4774676977,
				"z": 2.487092298,
				"element": "C" 
			},
			{
				"x": 1.562968387,
				"y": 0.4726894806,
				"z": 2.4283757952,
				"element": "C" 
			},
			{
				"x": 0.9160795719,
				"y": 0.5793542465,
				"z": 1.1973009026,
				"element": "C" 
			},
			{
				"x": -1.2209814895,
				"y": 2.6374086423,
				"z": -1.0931807695,
				"element": "S" 
			},
			{
				"x": -2.8374765008,
				"y": 1.9369239187,
				"z": -1.202791664,
				"element": "C" 
			},
			{
				"x": -3.9612342847,
				"y": 2.7324330532,
				"z": -1.1598296471,
				"element": "N" 
			},
			{
				"x": -2.8667186303,
				"y": 0.6515962649,
				"z": -1.3941842744,
				"element": "N" 
			},
			{
				"x": -1.954294279,
				"y": -1.6419712685,
				"z": -2.6229902207,
				"element": "H" 
			},
			{
				"x": -0.4171849789,
				"y": -1.6787991506,
				"z": -1.7350214622,
				"element": "H" 
			},
			{
				"x": -1.9529286804,
				"y": -1.9032747235,
				"z": -0.8812408645,
				"element": "H" 
			},
			{
				"x": 1.4112676874,
				"y": 1.5887911396,
				"z": -1.9367692035,
				"element": "H" 
			},
			{
				"x": 1.1331150922,
				"y": -0.1232713464,
				"z": -1.9200578931,
				"element": "H" 
			},
			{
				"x": 4.7804891006,
				"y": 0.5873804583,
				"z": 1.3298995756,
				"element": "H" 
			},
			{
				"x": 3.4701925417,
				"y": 0.3970449635,
				"z": 3.4400675391,
				"element": "H" 
			},
			{
				"x": 0.9772903327,
				"y": 0.3865621074,
				"z": 3.3387657191,
				"element": "H" 
			},
			{
				"x": -0.1680839491,
				"y": 0.5744028612,
				"z": 1.1513046443,
				"element": "H" 
			},
			{
				"x": -4.8129858495,
				"y": 2.1995427373,
				"z": -1.0396153221,
				"element": "H" 
			},
			{
				"x": -3.9122731555,
				"y": 3.5625242095,
				"z": -0.5866549906,
				"element": "H" 
			}
		],
		 "valence_orbital": [ 
			{
				"type": "occ",
				"energy": -0.26769,
				"method": "rhf"
			},
			{
				"type": "occ",
				"energy": -0.26755,
				"method": "rhf"
			},
			{
				"type": "occ",
				"energy": -0.25222,
				"method": "rhf"
			},
			{
				"type": "occ",
				"energy": -0.24195,
				"method": "rhf"
			},
			{
				"type": "occ",
				"energy": -0.20431,
				"method": "rhf"
			},
			{
				"type": "unocc",
				"energy": -0.01044,
				"method": "rhf"
			},
			{
				"type": "unocc",
				"energy": -0.00765,
				"method": "rhf"
			},
			{
				"type": "unocc",
				"energy": -0.00204,
				"method": "rhf"
			},
			{
				"type": "unocc",
				"energy": 0.01227,
				"method": "rhf"
			},
			{
				"type": "unocc",
				"energy": 0.03332,
				"method": "rhf"
			}
		],
		"cosmo_sigma_profile": { 
			"-0.025": 0.0,
			"-0.024": 0.0,
			"-0.023": 0.0,
			"-0.022": 0.0,
			"-0.021": 0.0,
			"-0.02": 0.0,
			"-0.019": 0.0,
			"-0.018": 0.0,
			"-0.017": 0.0,
			"-0.016": 0.0,
			"-0.015": 0.184404574683,
			"-0.014": 1.65730862028,
			"-0.013": 2.59518830358,
			"-0.012": 2.40058938953,
			"-0.011": 2.35019948889,
			"-0.01": 2.79293112466,
			"-0.009": 2.09300073611,
			"-0.008": 1.69354211814,
			"-0.007": 3.7303522771,
			"-0.006": 9.1934355377,
			"-0.005": 14.1751707168,
			"-0.004": 17.3303791996,
			"-0.003": 16.8163560851,
			"-0.002": 18.7430424817,
			"-0.001": 19.890405452,
			"0.0": 23.7897511857,
			"0.001": 20.6753645875,
			"0.002": 22.1177183345,
			"0.003": 25.1542505209,
			"0.004": 25.1774805192,
			"0.005": 17.4122053924,
			"0.006": 3.40597693427,
			"0.007": 2.78032467668,
			"0.008": 2.04632227715,
			"0.009": 2.28015147705,
			"0.01": 1.3509836439,
			"0.011": 1.60812492811,
			"0.012": 1.46190303335,
			"0.013": 1.0250161143,
			"0.014": 0.75639781,
			"0.015": 0.822471233639,
			"0.016": 0.547423124972,
			"0.017": 0.0119702394604,
			"0.018": 0.0,
			"0.019": 0.0,
			"0.02": 0.0,
			"0.021": 0.0,
			"0.022": 0.0,
			"0.023": 0.0,
			"0.024": 0.0,
			"0.025": 0.0
		}
	}
}
