{
	 "smiles": "CCOC(=O)COC1=C(F)C=C(Br)C=C1", 
	 "Tm": 304.15, 
	 "num_atms": 25, 
	 "gaussian": { 
		 "optdone": 1, 
		 "sigma_profile": "yes", 
		 "theory": "DFT", 
		 "functional": "B3LYP", 
		 "basiset": "6-31G**", 
		 "properties": { 
			 "R2extent": 10162.6172, 
			 "electric_dipole_moment_norm": 2.71989807162, 
			 "electric_quadrupole_moment_norm": 4.18953633831, 
			 "total_energy": -3283.99037958, 
			 "HOMO_LUMO_gap": 0.20647, 
			 "cosmo_polarized_energy": -9.97, 
			 "cosmo_cavitation_energy": 32.88, 
			 "cosmo_dispersion_energy": -24.2, 
			 "cosmo_repulsion_energy": 1.91, 
			 "cosmo_total_nonelectrostatic_energy": 10.59, 
			 "SMD_solvation_energy": 6.33 
		},
		"coords": [
			{
				"x": -4.3093572574,
				"y": -0.7820010998,
				"z": 1.6156753401,
				"element": "C" 
			},
			{
				"x": -3.6757223652,
				"y": -1.3329692857,
				"z": 0.3478410957,
				"element": "C" 
			},
			{
				"x": -2.2449510386,
				"y": -1.0936697097,
				"z": 0.3275904841,
				"element": "O" 
			},
			{
				"x": -1.8409261597,
				"y": 0.1026661483,
				"z": -0.1488305292,
				"element": "C" 
			},
			{
				"x": -2.5672421685,
				"y": 0.9756381462,
				"z": -0.5570393969,
				"element": "O" 
			},
			{
				"x": -0.3202250751,
				"y": 0.1549198385,
				"z": -0.0896943083,
				"element": "C" 
			},
			{
				"x": 0.0805237837,
				"y": 1.4226645605,
				"z": -0.5782421391,
				"element": "O" 
			},
			{
				"x": 1.3922141401,
				"y": 1.7778112048,
				"z": -0.6453527688,
				"element": "C" 
			},
			{
				"x": 2.5044048154,
				"y": 1.0045866158,
				"z": -0.2818262386,
				"element": "C" 
			},
			{
				"x": 2.345094411,
				"y": -0.2535167427,
				"z": 0.2021715583,
				"element": "F" 
			},
			{
				"x": 3.8044517813,
				"y": 1.4836380548,
				"z": -0.3985860426,
				"element": "C" 
			},
			{
				"x": 4.0133141591,
				"y": 2.767393151,
				"z": -0.8907188442,
				"element": "C" 
			},
			{
				"x": 5.794653003,
				"y": 3.4331996276,
				"z": -1.0544507998,
				"element": "Br" 
			},
			{
				"x": 2.9328949551,
				"y": 3.5670486385,
				"z": -1.2634950774,
				"element": "C" 
			},
			{
				"x": 1.6413225701,
				"y": 3.0674798392,
				"z": -1.1377825147,
				"element": "C" 
			},
			{
				"x": -3.8316567877,
				"y": -1.2025267731,
				"z": 2.5054312599,
				"element": "H" 
			},
			{
				"x": -5.3726786038,
				"y": -1.0423546631,
				"z": 1.6412915429,
				"element": "H" 
			},
			{
				"x": -4.2232544048,
				"y": 0.3069140491,
				"z": 1.6470779168,
				"element": "H" 
			},
			{
				"x": -4.1181984308,
				"y": -0.8828730425,
				"z": -0.5439029751,
				"element": "H" 
			},
			{
				"x": -3.7681716857,
				"y": -2.4198983882,
				"z": 0.2908353515,
				"element": "H" 
			},
			{
				"x": 0.0002253595,
				"y": -0.0070841424,
				"z": 0.945360405,
				"element": "H" 
			},
			{
				"x": 0.0861686108,
				"y": -0.6650644992,
				"z": -0.6919862059,
				"element": "H" 
			},
			{
				"x": 4.6252064384,
				"y": 0.8418636424,
				"z": -0.1023338163,
				"element": "H" 
			},
			{
				"x": 3.096923252,
				"y": 4.5670516564,
				"z": -1.6468744745,
				"element": "H" 
			},
			{
				"x": 0.7824866978,
				"y": 3.6671831736,
				"z": -1.4198588232,
				"element": "H" 
			}
		],
		 "valence_orbital": [ 
			{
				"type": "occ",
				"energy": -0.29349,
				"method": "rhf"
			},
			{
				"type": "occ",
				"energy": -0.28992,
				"method": "rhf"
			},
			{
				"type": "occ",
				"energy": -0.28117,
				"method": "rhf"
			},
			{
				"type": "occ",
				"energy": -0.26418,
				"method": "rhf"
			},
			{
				"type": "occ",
				"energy": -0.226,
				"method": "rhf"
			},
			{
				"type": "unocc",
				"energy": -0.01953,
				"method": "rhf"
			},
			{
				"type": "unocc",
				"energy": -0.00825,
				"method": "rhf"
			},
			{
				"type": "unocc",
				"energy": 0.00216,
				"method": "rhf"
			},
			{
				"type": "unocc",
				"energy": 0.00642,
				"method": "rhf"
			},
			{
				"type": "unocc",
				"energy": 0.07265,
				"method": "rhf"
			}
		],
		"cosmo_sigma_profile": { 
			"-0.025": 0.0,
			"-0.024": 0.0,
			"-0.023": 0.0,
			"-0.022": 0.0,
			"-0.021": 0.0,
			"-0.02": 0.0,
			"-0.019": 0.0,
			"-0.018": 0.0,
			"-0.017": 0.0,
			"-0.016": 0.0,
			"-0.015": 0.0,
			"-0.014": 0.0,
			"-0.013": 0.0,
			"-0.012": 0.0,
			"-0.011": 0.0,
			"-0.01": 0.0,
			"-0.009": 0.302565607488,
			"-0.008": 6.15815453736,
			"-0.007": 9.04695739298,
			"-0.006": 11.2643888663,
			"-0.005": 14.6559778475,
			"-0.004": 20.4619092998,
			"-0.003": 21.972120818,
			"-0.002": 20.4746059915,
			"-0.001": 21.0173338054,
			"0.0": 23.0465420622,
			"0.001": 23.2752150353,
			"0.002": 24.2263117896,
			"0.003": 20.1466634569,
			"0.004": 18.5622819165,
			"0.005": 7.881880777,
			"0.006": 3.18387245756,
			"0.007": 2.51553677412,
			"0.008": 2.76622066478,
			"0.009": 2.12461870891,
			"0.01": 2.57446768578,
			"0.011": 4.23190511072,
			"0.012": 2.88737480089,
			"0.013": 1.55677535978,
			"0.014": 1.0041928635,
			"0.015": 0.0135582302391,
			"0.016": 0.0,
			"0.017": 0.0,
			"0.018": 0.0,
			"0.019": 0.0,
			"0.02": 0.0,
			"0.021": 0.0,
			"0.022": 0.0,
			"0.023": 0.0,
			"0.024": 0.0,
			"0.025": 0.0
		}
	}
}
