{
	 "smiles": "CS(=O)(=O)NC1=CC=C(C=C1)C1=CSC(N)=N1", 
	 "Tm": 470.15, 
	 "num_atms": 28, 
	 "gaussian": { 
		 "optdone": 1, 
		 "sigma_profile": "yes", 
		 "theory": "DFT", 
		 "functional": "B3LYP", 
		 "basiset": "6-31G**", 
		 "properties": { 
			 "R2extent": 8455.7559, 
			 "electric_dipole_moment_norm": 5.46920394025, 
			 "electric_quadrupole_moment_norm": 34.4298873836, 
			 "total_energy": -1498.70761701, 
			 "HOMO_LUMO_gap": 0.16594, 
			 "cosmo_polarized_energy": -23.66, 
			 "cosmo_cavitation_energy": 35.46, 
			 "cosmo_dispersion_energy": -26.98, 
			 "cosmo_repulsion_energy": 1.99, 
			 "cosmo_total_nonelectrostatic_energy": 10.47, 
			 "SMD_solvation_energy": 4.22 
		},
		"coords": [
			{
				"x": -1.4318944144,
				"y": -3.8160937265,
				"z": -3.3705190346,
				"element": "C" 
			},
			{
				"x": -2.2417025673,
				"y": -4.2743393785,
				"z": -1.8227097145,
				"element": "S" 
			},
			{
				"x": -3.5910539121,
				"y": -4.7533501327,
				"z": -2.1210378997,
				"element": "O" 
			},
			{
				"x": -1.2884446907,
				"y": -5.0774631221,
				"z": -1.0596647541,
				"element": "O" 
			},
			{
				"x": -2.491697194,
				"y": -2.8139518122,
				"z": -1.0046270704,
				"element": "N" 
			},
			{
				"x": -1.4731689823,
				"y": -1.8699456812,
				"z": -0.7126718483,
				"element": "C" 
			},
			{
				"x": -1.7347641355,
				"y": -0.5047249402,
				"z": -0.9048713894,
				"element": "C" 
			},
			{
				"x": -0.7742573212,
				"y": 0.4476664182,
				"z": -0.5875258202,
				"element": "C" 
			},
			{
				"x": 0.484493384,
				"y": 0.071111093,
				"z": -0.0905112865,
				"element": "C" 
			},
			{
				"x": 0.7359308432,
				"y": -1.2994989234,
				"z": 0.084857496,
				"element": "C" 
			},
			{
				"x": -0.2268537703,
				"y": -2.2620414946,
				"z": -0.2046497579,
				"element": "C" 
			},
			{
				"x": 1.5235034903,
				"y": 1.0606452736,
				"z": 0.2474283216,
				"element": "C" 
			},
			{
				"x": 1.3781998285,
				"y": 2.4220809379,
				"z": 0.2537631565,
				"element": "C" 
			},
			{
				"x": 2.8720200364,
				"y": 3.1972237237,
				"z": 0.7131977968,
				"element": "S" 
			},
			{
				"x": 3.5856271816,
				"y": 1.5862736618,
				"z": 0.8868245643,
				"element": "C" 
			},
			{
				"x": 4.9147140302,
				"y": 1.4306256855,
				"z": 1.207362812,
				"element": "N" 
			},
			{
				"x": 2.7822594701,
				"y": 0.6026331068,
				"z": 0.6161745983,
				"element": "N" 
			},
			{
				"x": -1.1889544766,
				"y": -4.746067244,
				"z": -3.8871124775,
				"element": "H" 
			},
			{
				"x": -2.1198094453,
				"y": -3.2155207234,
				"z": -3.9667698531,
				"element": "H" 
			},
			{
				"x": -0.5209435679,
				"y": -3.2615435467,
				"z": -3.1407825849,
				"element": "H" 
			},
			{
				"x": -3.3970786667,
				"y": -2.4301502613,
				"z": -1.2525870919,
				"element": "H" 
			},
			{
				"x": -2.6955854998,
				"y": -0.1900980019,
				"z": -1.3052306968,
				"element": "H" 
			},
			{
				"x": -1.006372071,
				"y": 1.4954409079,
				"z": -0.7516274045,
				"element": "H" 
			},
			{
				"x": 1.7020007078,
				"y": -1.6020368976,
				"z": 0.4720946877,
				"element": "H" 
			},
			{
				"x": -0.0247862186,
				"y": -3.3122611212,
				"z": -0.0304820067,
				"element": "H" 
			},
			{
				"x": 0.5029455449,
				"y": 3.0178959752,
				"z": 0.0444628025,
				"element": "H" 
			},
			{
				"x": 5.3235938606,
				"y": 2.1256136646,
				"z": 1.81545943,
				"element": "H" 
			},
			{
				"x": 5.1514785561,
				"y": 0.4784765593,
				"z": 1.4543550255,
				"element": "H" 
			}
		],
		 "valence_orbital": [ 
			{
				"type": "occ",
				"energy": -0.28214,
				"method": "rhf"
			},
			{
				"type": "occ",
				"energy": -0.27772,
				"method": "rhf"
			},
			{
				"type": "occ",
				"energy": -0.25896,
				"method": "rhf"
			},
			{
				"type": "occ",
				"energy": -0.24102,
				"method": "rhf"
			},
			{
				"type": "occ",
				"energy": -0.20147,
				"method": "rhf"
			},
			{
				"type": "unocc",
				"energy": -0.03553,
				"method": "rhf"
			},
			{
				"type": "unocc",
				"energy": -0.01037,
				"method": "rhf"
			},
			{
				"type": "unocc",
				"energy": 0.00456,
				"method": "rhf"
			},
			{
				"type": "unocc",
				"energy": 0.01112,
				"method": "rhf"
			},
			{
				"type": "unocc",
				"energy": 0.05742,
				"method": "rhf"
			}
		],
		"cosmo_sigma_profile": { 
			"-0.025": 0.0,
			"-0.024": 0.0,
			"-0.023": 0.0,
			"-0.022": 0.0,
			"-0.021": 0.0,
			"-0.02": 0.0,
			"-0.019": 0.0,
			"-0.018": 0.0,
			"-0.017": 0.0,
			"-0.016": 0.264999618192,
			"-0.015": 1.43558971666,
			"-0.014": 3.06539671925,
			"-0.013": 4.16756400513,
			"-0.012": 3.97622868674,
			"-0.011": 4.10590385514,
			"-0.01": 4.80812968267,
			"-0.009": 7.02523330039,
			"-0.008": 10.5979877779,
			"-0.007": 10.6644465132,
			"-0.006": 11.9524244259,
			"-0.005": 14.159148594,
			"-0.004": 16.7013222452,
			"-0.003": 13.1620982444,
			"-0.002": 9.4815127278,
			"-0.001": 10.5199127187,
			"0.0": 11.067448271,
			"0.001": 14.1090639688,
			"0.002": 18.2331930261,
			"0.003": 22.8004104743,
			"0.004": 28.1596567214,
			"0.005": 15.4289648243,
			"0.006": 7.535698848,
			"0.007": 6.08762221021,
			"0.008": 5.95183460097,
			"0.009": 6.20008176672,
			"0.01": 8.75368298865,
			"0.011": 12.0128688919,
			"0.012": 3.21872963911,
			"0.013": 0.00160956409242,
			"0.014": 0.0,
			"0.015": 0.0,
			"0.016": 0.0,
			"0.017": 0.0,
			"0.018": 0.0,
			"0.019": 0.0,
			"0.02": 0.0,
			"0.021": 0.0,
			"0.022": 0.0,
			"0.023": 0.0,
			"0.024": 0.0,
			"0.025": 0.0
		}
	}
}
