{
	 "smiles": "CCOC(=O)C(C)=O", 
	 "Tm": 223.15, 
	 "num_atms": 16, 
	 "gaussian": { 
		 "optdone": 1, 
		 "sigma_profile": "yes", 
		 "theory": "DFT", 
		 "functional": "B3LYP", 
		 "basiset": "6-31G**", 
		 "properties": { 
			 "R2extent": 1273.3666, 
			 "electric_dipole_moment_norm": 1.53167012441, 
			 "electric_quadrupole_moment_norm": 10.6516065525, 
			 "total_energy": -421.025451492, 
			 "HOMO_LUMO_gap": 0.18084, 
			 "cosmo_polarized_energy": -8.75, 
			 "cosmo_cavitation_energy": 20.56, 
			 "cosmo_dispersion_energy": -14.76, 
			 "cosmo_repulsion_energy": 1.27, 
			 "cosmo_total_nonelectrostatic_energy": 7.07, 
			 "SMD_solvation_energy": 5.9 
		},
		"coords": [
			{
				"x": -0.2742246038,
				"y": -0.0188102425,
				"z": -2.3369394006,
				"element": "C" 
			},
			{
				"x": 0.1204029521,
				"y": -1.2501508509,
				"z": -1.5363323899,
				"element": "C" 
			},
			{
				"x": -0.2377776276,
				"y": -1.1006963183,
				"z": -0.1376540213,
				"element": "O" 
			},
			{
				"x": 0.6470680402,
				"y": -0.4754520975,
				"z": 0.6416911894,
				"element": "C" 
			},
			{
				"x": 1.71954732,
				"y": -0.0289208962,
				"z": 0.2867147441,
				"element": "O" 
			},
			{
				"x": 0.1534552653,
				"y": -0.3746427685,
				"z": 2.1064248927,
				"element": "C" 
			},
			{
				"x": 1.1339015156,
				"y": 0.2710373148,
				"z": 3.053307257,
				"element": "C" 
			},
			{
				"x": -0.9392375438,
				"y": -0.7876831616,
				"z": 2.4245409024,
				"element": "O" 
			},
			{
				"x": -0.0678390727,
				"y": -0.1883107114,
				"z": -3.398822097,
				"element": "H" 
			},
			{
				"x": -1.3409466636,
				"y": 0.193668109,
				"z": -2.2230135392,
				"element": "H" 
			},
			{
				"x": 0.2987637558,
				"y": 0.8534482596,
				"z": -2.0127202115,
				"element": "H" 
			},
			{
				"x": -0.4311087895,
				"y": -2.1352297387,
				"z": -1.8600350839,
				"element": "H" 
			},
			{
				"x": 1.1940438896,
				"y": -1.4416905095,
				"z": -1.6049744967,
				"element": "H" 
			},
			{
				"x": 2.0767047894,
				"y": -0.2858877988,
				"z": 3.0577223414,
				"element": "H" 
			},
			{
				"x": 1.3780601738,
				"y": 1.2819915737,
				"z": 2.7111995594,
				"element": "H" 
			},
			{
				"x": 0.7059865993,
				"y": 0.3013298368,
				"z": 4.0555903536,
				"element": "H" 
			}
		],
		 "valence_orbital": [ 
			{
				"type": "occ",
				"energy": -0.36682,
				"method": "rhf"
			},
			{
				"type": "occ",
				"energy": -0.34936,
				"method": "rhf"
			},
			{
				"type": "occ",
				"energy": -0.31769,
				"method": "rhf"
			},
			{
				"type": "occ",
				"energy": -0.30974,
				"method": "rhf"
			},
			{
				"type": "occ",
				"energy": -0.25242,
				"method": "rhf"
			},
			{
				"type": "unocc",
				"energy": -0.07158,
				"method": "rhf"
			},
			{
				"type": "unocc",
				"energy": 0.05948,
				"method": "rhf"
			},
			{
				"type": "unocc",
				"energy": 0.1026,
				"method": "rhf"
			},
			{
				"type": "unocc",
				"energy": 0.11188,
				"method": "rhf"
			},
			{
				"type": "unocc",
				"energy": 0.11679,
				"method": "rhf"
			}
		],
		"cosmo_sigma_profile": { 
			"-0.025": 0.0,
			"-0.024": 0.0,
			"-0.023": 0.0,
			"-0.022": 0.0,
			"-0.021": 0.0,
			"-0.02": 0.0,
			"-0.019": 0.0,
			"-0.018": 0.0,
			"-0.017": 0.0,
			"-0.016": 0.0,
			"-0.015": 0.0,
			"-0.014": 0.0,
			"-0.013": 0.0,
			"-0.012": 0.0,
			"-0.011": 0.0,
			"-0.01": 0.0,
			"-0.009": 0.0931507009758,
			"-0.008": 2.03243879236,
			"-0.007": 5.24726158186,
			"-0.006": 8.92154514016,
			"-0.005": 13.6767641341,
			"-0.004": 19.0556126223,
			"-0.003": 17.4519950132,
			"-0.002": 18.1229765743,
			"-0.001": 14.3658953416,
			"0.0": 10.7138439316,
			"0.001": 4.94573968501,
			"0.002": 3.88571851463,
			"0.003": 4.28111040604,
			"0.004": 3.16455122424,
			"0.005": 3.60244983673,
			"0.006": 3.29929739783,
			"0.007": 3.922371876,
			"0.008": 3.49563552113,
			"0.009": 5.63179750763,
			"0.01": 6.71024767152,
			"0.011": 7.1721001654,
			"0.012": 1.73666754867,
			"0.013": 0.582194767674,
			"0.014": 0.0,
			"0.015": 0.0,
			"0.016": 0.0,
			"0.017": 0.0,
			"0.018": 0.0,
			"0.019": 0.0,
			"0.02": 0.0,
			"0.021": 0.0,
			"0.022": 0.0,
			"0.023": 0.0,
			"0.024": 0.0,
			"0.025": 0.0
		}
	}
}
