{
	 "smiles": "COC(=O)C1=C(C)N=C2C3=CC=CC=C3OC(=O)C2=C1", 
	 "Tm": 488.15, 
	 "num_atms": 31, 
	 "gaussian": { 
		 "optdone": 1, 
		 "sigma_profile": "yes", 
		 "theory": "DFT", 
		 "functional": "B3LYP", 
		 "basiset": "6-31G**", 
		 "properties": { 
			 "R2extent": 6432.8752, 
			 "electric_dipole_moment_norm": 1.7247193018, 
			 "electric_quadrupole_moment_norm": 27.9205118451, 
			 "total_energy": -933.913498122, 
			 "HOMO_LUMO_gap": 0.16257, 
			 "cosmo_polarized_energy": -11.85, 
			 "cosmo_cavitation_energy": 35.9, 
			 "cosmo_dispersion_energy": -26.38, 
			 "cosmo_repulsion_energy": 1.98, 
			 "cosmo_total_nonelectrostatic_energy": 11.5, 
			 "SMD_solvation_energy": 7.51 
		},
		"coords": [
			{
				"x": -0.2201989099,
				"y": 5.1111253269,
				"z": -1.0606006412,
				"element": "C" 
			},
			{
				"x": 0.0069480094,
				"y": 3.6972378781,
				"z": -0.9469695714,
				"element": "O" 
			},
			{
				"x": -0.9141847943,
				"y": 3.0193136021,
				"z": -0.2253500766,
				"element": "C" 
			},
			{
				"x": -1.8707773422,
				"y": 3.5623164009,
				"z": 0.2938896089,
				"element": "O" 
			},
			{
				"x": -0.6015864093,
				"y": 1.5625791853,
				"z": -0.1590602046,
				"element": "C" 
			},
			{
				"x": -1.437496269,
				"y": 0.6485342978,
				"z": 0.5501453981,
				"element": "C" 
			},
			{
				"x": -2.6858566034,
				"y": 1.0639281063,
				"z": 1.2813365338,
				"element": "C" 
			},
			{
				"x": -1.1539590869,
				"y": -0.6563786556,
				"z": 0.6072298934,
				"element": "N" 
			},
			{
				"x": -0.0600114071,
				"y": -1.1333406481,
				"z": -0.012467853,
				"element": "C" 
			},
			{
				"x": 0.2365161617,
				"y": -2.5581343159,
				"z": 0.0581042096,
				"element": "C" 
			},
			{
				"x": -0.5688922731,
				"y": -3.4806014951,
				"z": 0.7487623223,
				"element": "C" 
			},
			{
				"x": -0.2308304656,
				"y": -4.8262028083,
				"z": 0.7778819214,
				"element": "C" 
			},
			{
				"x": 0.9219543782,
				"y": -5.2729738923,
				"z": 0.1146987887,
				"element": "C" 
			},
			{
				"x": 1.7336071342,
				"y": -4.3784032171,
				"z": -0.5748615466,
				"element": "C" 
			},
			{
				"x": 1.3862715111,
				"y": -3.0265768265,
				"z": -0.5991708431,
				"element": "C" 
			},
			{
				"x": 2.2277414505,
				"y": -2.1926363708,
				"z": -1.2969126321,
				"element": "O" 
			},
			{
				"x": 2.0138744098,
				"y": -0.833199298,
				"z": -1.4090878267,
				"element": "C" 
			},
			{
				"x": 2.8067442498,
				"y": -0.1778291857,
				"z": -2.042766145,
				"element": "O" 
			},
			{
				"x": 0.8166975559,
				"y": -0.3021887099,
				"z": -0.7326629988,
				"element": "C" 
			},
			{
				"x": 0.5301938494,
				"y": 1.0612030677,
				"z": -0.7986857252,
				"element": "C" 
			},
			{
				"x": -1.1775985397,
				"y": 5.3084021718,
				"z": -1.5490449763,
				"element": "H" 
			},
			{
				"x": 0.6041441541,
				"y": 5.4915058313,
				"z": -1.6631272531,
				"element": "H" 
			},
			{
				"x": -0.2246619422,
				"y": 5.5801102588,
				"z": -0.0736277542,
				"element": "H" 
			},
			{
				"x": -2.4642451825,
				"y": 1.8076463132,
				"z": 2.0515609417,
				"element": "H" 
			},
			{
				"x": -3.1335568102,
				"y": 0.1782884321,
				"z": 1.7334409479,
				"element": "H" 
			},
			{
				"x": -3.3997049904,
				"y": 1.5423792339,
				"z": 0.6053596759,
				"element": "H" 
			},
			{
				"x": -1.4529869714,
				"y": -3.1045888531,
				"z": 1.2512653894,
				"element": "H" 
			},
			{
				"x": -0.8575480753,
				"y": -5.5323681095,
				"z": 1.3131632939,
				"element": "H" 
			},
			{
				"x": 1.1875378197,
				"y": -6.3256470964,
				"z": 0.1367676011,
				"element": "H" 
			},
			{
				"x": 2.6294177031,
				"y": -4.6990667873,
				"z": -1.0951164531,
				"element": "H" 
			},
			{
				"x": 1.1948476858,
				"y": 1.7154661634,
				"z": -1.3491940247,
				"element": "H" 
			}
		],
		 "valence_orbital": [ 
			{
				"type": "occ",
				"energy": -0.29276,
				"method": "rhf"
			},
			{
				"type": "occ",
				"energy": -0.28118,
				"method": "rhf"
			},
			{
				"type": "occ",
				"energy": -0.26979,
				"method": "rhf"
			},
			{
				"type": "occ",
				"energy": -0.25649,
				"method": "rhf"
			},
			{
				"type": "occ",
				"energy": -0.2418,
				"method": "rhf"
			},
			{
				"type": "unocc",
				"energy": -0.07923,
				"method": "rhf"
			},
			{
				"type": "unocc",
				"energy": -0.06298,
				"method": "rhf"
			},
			{
				"type": "unocc",
				"energy": -0.01826,
				"method": "rhf"
			},
			{
				"type": "unocc",
				"energy": -0.00713,
				"method": "rhf"
			},
			{
				"type": "unocc",
				"energy": 0.0237,
				"method": "rhf"
			}
		],
		"cosmo_sigma_profile": { 
			"-0.025": 0.0,
			"-0.024": 0.0,
			"-0.023": 0.0,
			"-0.022": 0.0,
			"-0.021": 0.0,
			"-0.02": 0.0,
			"-0.019": 0.0,
			"-0.018": 0.0,
			"-0.017": 0.0,
			"-0.016": 0.0,
			"-0.015": 0.0,
			"-0.014": 0.0,
			"-0.013": 0.0,
			"-0.012": 0.0,
			"-0.011": 0.0,
			"-0.01": 0.0,
			"-0.009": 0.0,
			"-0.008": 0.786607264848,
			"-0.007": 5.99595989065,
			"-0.006": 14.8432525485,
			"-0.005": 19.6623444427,
			"-0.004": 26.8943265729,
			"-0.003": 30.6216535678,
			"-0.002": 30.7480630378,
			"-0.001": 27.8242599609,
			"0.0": 21.0469648731,
			"0.001": 18.5441980898,
			"0.002": 19.1669703783,
			"0.003": 17.5945203142,
			"0.004": 10.5177469329,
			"0.005": 6.89191953775,
			"0.006": 4.28639195953,
			"0.007": 5.44574081974,
			"0.008": 5.50453529026,
			"0.009": 5.32832378624,
			"0.01": 5.03031771303,
			"0.011": 7.94919347671,
			"0.012": 3.82088443229,
			"0.013": 0.189401770006,
			"0.014": 0.0,
			"0.015": 0.0,
			"0.016": 0.0,
			"0.017": 0.0,
			"0.018": 0.0,
			"0.019": 0.0,
			"0.02": 0.0,
			"0.021": 0.0,
			"0.022": 0.0,
			"0.023": 0.0,
			"0.024": 0.0,
			"0.025": 0.0
		}
	}
}
