{
	 "smiles": "[O-][N+](=O)C1=C(F)C=CC(F)=C1", 
	 "Tm": 261.35, 
	 "num_atms": 14, 
	 "gaussian": { 
		 "optdone": 1, 
		 "sigma_profile": "yes", 
		 "theory": "DFT", 
		 "functional": "B3LYP", 
		 "basiset": "6-31G**", 
		 "properties": { 
			 "R2extent": 1932.5309, 
			 "electric_dipole_moment_norm": 4.32699429859, 
			 "electric_quadrupole_moment_norm": 7.46339923292, 
			 "total_energy": -635.197364344, 
			 "HOMO_LUMO_gap": 0.17155, 
			 "cosmo_polarized_energy": -8.25, 
			 "cosmo_cavitation_energy": 20.47, 
			 "cosmo_dispersion_energy": -14.96, 
			 "cosmo_repulsion_energy": 1.15, 
			 "cosmo_total_nonelectrostatic_energy": 6.67, 
			 "SMD_solvation_energy": 6.83 
		},
		"coords": [
			{
				"x": 3.5271685899,
				"y": -0.2774782401,
				"z": 1.1181729561,
				"element": "O" 
			},
			{
				"x": 2.3915770135,
				"y": -0.6222472121,
				"z": 1.4458317377,
				"element": "N" 
			},
			{
				"x": 2.1242898333,
				"y": -1.3576997686,
				"z": 2.3904780716,
				"element": "O" 
			},
			{
				"x": 1.2780852788,
				"y": -0.1050689107,
				"z": 0.6338349675,
				"element": "C" 
			},
			{
				"x": -0.0606385531,
				"y": -0.4303176051,
				"z": 0.8985484671,
				"element": "C" 
			},
			{
				"x": -0.4190171015,
				"y": -1.2308171408,
				"z": 1.9027633438,
				"element": "F" 
			},
			{
				"x": -1.0715055665,
				"y": 0.0916448503,
				"z": 0.0929564805,
				"element": "C" 
			},
			{
				"x": -0.7616822694,
				"y": 0.9325752698,
				"z": -0.9708631112,
				"element": "C" 
			},
			{
				"x": 0.5741475203,
				"y": 1.2436178115,
				"z": -1.2174109748,
				"element": "C" 
			},
			{
				"x": 0.8772822399,
				"y": 2.0560233444,
				"z": -2.244823789,
				"element": "F" 
			},
			{
				"x": 1.5971684426,
				"y": 0.7387835496,
				"z": -0.433334376,
				"element": "C" 
			},
			{
				"x": -2.0970675162,
				"y": -0.1765531694,
				"z": 0.3202789744,
				"element": "H" 
			},
			{
				"x": -1.5364601842,
				"y": 1.3466005026,
				"z": -1.6063874505,
				"element": "H" 
			},
			{
				"x": 2.6330522727,
				"y": 0.9826367186,
				"z": -0.628545297,
				"element": "H" 
			}
		],
		 "valence_orbital": [ 
			{
				"type": "occ",
				"energy": -0.31713,
				"method": "rhf"
			},
			{
				"type": "occ",
				"energy": -0.31487,
				"method": "rhf"
			},
			{
				"type": "occ",
				"energy": -0.30348,
				"method": "rhf"
			},
			{
				"type": "occ",
				"energy": -0.29762,
				"method": "rhf"
			},
			{
				"type": "occ",
				"energy": -0.27163,
				"method": "rhf"
			},
			{
				"type": "unocc",
				"energy": -0.10008,
				"method": "rhf"
			},
			{
				"type": "unocc",
				"energy": -0.03457,
				"method": "rhf"
			},
			{
				"type": "unocc",
				"energy": -0.01087,
				"method": "rhf"
			},
			{
				"type": "unocc",
				"energy": 0.05063,
				"method": "rhf"
			},
			{
				"type": "unocc",
				"energy": 0.10605,
				"method": "rhf"
			}
		],
		"cosmo_sigma_profile": { 
			"-0.025": 0.0,
			"-0.024": 0.0,
			"-0.023": 0.0,
			"-0.022": 0.0,
			"-0.021": 0.0,
			"-0.02": 0.0,
			"-0.019": 0.0,
			"-0.018": 0.0,
			"-0.017": 0.0,
			"-0.016": 0.0,
			"-0.015": 0.0,
			"-0.014": 0.0,
			"-0.013": 0.0,
			"-0.012": 0.0,
			"-0.011": 0.0,
			"-0.01": 0.560654521089,
			"-0.009": 4.67676010833,
			"-0.008": 5.19840359975,
			"-0.007": 7.28221603539,
			"-0.006": 5.38013137895,
			"-0.005": 6.86932763063,
			"-0.004": 7.5764658958,
			"-0.003": 10.9116726983,
			"-0.002": 20.1114329274,
			"-0.001": 16.9643977403,
			"0.0": 11.676292665,
			"0.001": 6.27164688069,
			"0.002": 5.97834423581,
			"0.003": 16.7839409025,
			"0.004": 8.4696372671,
			"0.005": 4.08740610421,
			"0.006": 4.11850374698,
			"0.007": 10.1312319283,
			"0.008": 7.72611551262,
			"0.009": 3.77021688529,
			"0.01": 1.25517079943,
			"0.011": 0.0,
			"0.012": 0.0,
			"0.013": 0.0,
			"0.014": 0.0,
			"0.015": 0.0,
			"0.016": 0.0,
			"0.017": 0.0,
			"0.018": 0.0,
			"0.019": 0.0,
			"0.02": 0.0,
			"0.021": 0.0,
			"0.022": 0.0,
			"0.023": 0.0,
			"0.024": 0.0,
			"0.025": 0.0
		}
	}
}
