{
	 "smiles": "CCOC(=O)C1=C(CC)C(C(=O)OCC)=C(C)N1", 
	 "Tm": 382.15, 
	 "num_atms": 37, 
	 "gaussian": { 
		 "optdone": 1, 
		 "sigma_profile": "yes", 
		 "theory": "DFT", 
		 "functional": "B3LYP", 
		 "basiset": "6-31G**", 
		 "properties": { 
			 "R2extent": 7288.1006, 
			 "electric_dipole_moment_norm": 1.71811773753, 
			 "electric_quadrupole_moment_norm": 15.2731320802, 
			 "total_energy": -862.540814359, 
			 "HOMO_LUMO_gap": 0.19654, 
			 "cosmo_polarized_energy": -12.4, 
			 "cosmo_cavitation_energy": 40.22, 
			 "cosmo_dispersion_energy": -27.36, 
			 "cosmo_repulsion_energy": 2.17, 
			 "cosmo_total_nonelectrostatic_energy": 15.02, 
			 "SMD_solvation_energy": 8.76 
		},
		"coords": [
			{
				"x": -5.2734917159,
				"y": 1.2493737321,
				"z": -3.5681537928,
				"element": "C" 
			},
			{
				"x": -4.2110926912,
				"y": 0.3000421179,
				"z": -4.0883790813,
				"element": "C" 
			},
			{
				"x": -3.3119416196,
				"y": 0.0129071641,
				"z": -2.9929895063,
				"element": "O" 
			},
			{
				"x": -2.2936464564,
				"y": -0.825891859,
				"z": -3.2786052432,
				"element": "C" 
			},
			{
				"x": -2.113220728,
				"y": -1.3190033298,
				"z": -4.3845590659,
				"element": "O" 
			},
			{
				"x": -1.4101181759,
				"y": -1.0919792679,
				"z": -2.1486359638,
				"element": "C" 
			},
			{
				"x": -1.3510549358,
				"y": -0.7177861251,
				"z": -0.8105826246,
				"element": "C" 
			},
			{
				"x": -2.3084828633,
				"y": 0.1821972906,
				"z": -0.0782266206,
				"element": "C" 
			},
			{
				"x": -1.8306984367,
				"y": 1.645234805,
				"z": -0.0307021513,
				"element": "C" 
			},
			{
				"x": -0.1808621809,
				"y": -1.3532627575,
				"z": -0.2748967696,
				"element": "C" 
			},
			{
				"x": 0.2815240846,
				"y": -1.2336833963,
				"z": 1.1102049388,
				"element": "C" 
			},
			{
				"x": -0.2366328919,
				"y": -0.5403851706,
				"z": 1.9703718622,
				"element": "O" 
			},
			{
				"x": 1.3832856429,
				"y": -1.9995775926,
				"z": 1.3530017555,
				"element": "O" 
			},
			{
				"x": 1.9212914486,
				"y": -1.9403589771,
				"z": 2.6930612162,
				"element": "C" 
			},
			{
				"x": 2.8645328426,
				"y": -0.7584053352,
				"z": 2.8650912371,
				"element": "C" 
			},
			{
				"x": 0.4260500763,
				"y": -2.0988160494,
				"z": -1.3028639996,
				"element": "C" 
			},
			{
				"x": 1.6489410853,
				"y": -2.9593509657,
				"z": -1.3344413897,
				"element": "C" 
			},
			{
				"x": -0.3294145222,
				"y": -1.9210419604,
				"z": -2.4074061312,
				"element": "N" 
			},
			{
				"x": -5.9744965157,
				"y": 1.4965023376,
				"z": -4.3715532228,
				"element": "H" 
			},
			{
				"x": -5.8369920444,
				"y": 0.795522287,
				"z": -2.7478296662,
				"element": "H" 
			},
			{
				"x": -4.8243771038,
				"y": 2.1782415641,
				"z": -3.2052144888,
				"element": "H" 
			},
			{
				"x": -4.6401791906,
				"y": -0.6396765234,
				"z": -4.4502530394,
				"element": "H" 
			},
			{
				"x": -3.6366756327,
				"y": 0.7367251857,
				"z": -4.9114069877,
				"element": "H" 
			},
			{
				"x": -2.4184417879,
				"y": -0.1823899726,
				"z": 0.9455820183,
				"element": "H" 
			},
			{
				"x": -3.2835270029,
				"y": 0.1352860226,
				"z": -0.568106142,
				"element": "H" 
			},
			{
				"x": -2.5572925169,
				"y": 2.2664390052,
				"z": 0.5035457561,
				"element": "H" 
			},
			{
				"x": -0.8737390379,
				"y": 1.7200526854,
				"z": 0.4922582868,
				"element": "H" 
			},
			{
				"x": -1.711887355,
				"y": 2.0517111861,
				"z": -1.0402137201,
				"element": "H" 
			},
			{
				"x": 2.446138429,
				"y": -2.8910948536,
				"z": 2.8179014668,
				"element": "H" 
			},
			{
				"x": 1.093945731,
				"y": -1.8869481707,
				"z": 3.4044117254,
				"element": "H" 
			},
			{
				"x": 2.3207441861,
				"y": 0.1827689,
				"z": 2.7555652312,
				"element": "H" 
			},
			{
				"x": 3.6706763175,
				"y": -0.7908646877,
				"z": 2.1257986345,
				"element": "H" 
			},
			{
				"x": 3.3137465127,
				"y": -0.7820717422,
				"z": 3.8637623168,
				"element": "H" 
			},
			{
				"x": 2.5338418924,
				"y": -2.3979112094,
				"z": -1.0235566183,
				"element": "H" 
			},
			{
				"x": 1.5550475437,
				"y": -3.8030360977,
				"z": -0.6450145784,
				"element": "H" 
			},
			{
				"x": 1.8182318162,
				"y": -3.349588348,
				"z": -2.3425593313,
				"element": "H" 
			},
			{
				"x": -0.1752322031,
				"y": -2.3161798914,
				"z": -3.3251063107,
				"element": "H" 
			}
		],
		 "valence_orbital": [ 
			{
				"type": "occ",
				"energy": -0.28953,
				"method": "rhf"
			},
			{
				"type": "occ",
				"energy": -0.27471,
				"method": "rhf"
			},
			{
				"type": "occ",
				"energy": -0.26226,
				"method": "rhf"
			},
			{
				"type": "occ",
				"energy": -0.24772,
				"method": "rhf"
			},
			{
				"type": "occ",
				"energy": -0.22024,
				"method": "rhf"
			},
			{
				"type": "unocc",
				"energy": -0.0237,
				"method": "rhf"
			},
			{
				"type": "unocc",
				"energy": -0.01171,
				"method": "rhf"
			},
			{
				"type": "unocc",
				"energy": 0.08608,
				"method": "rhf"
			},
			{
				"type": "unocc",
				"energy": 0.09794,
				"method": "rhf"
			},
			{
				"type": "unocc",
				"energy": 0.09915,
				"method": "rhf"
			}
		],
		"cosmo_sigma_profile": { 
			"-0.025": 0.0,
			"-0.024": 0.0,
			"-0.023": 0.0,
			"-0.022": 0.0,
			"-0.021": 0.0,
			"-0.02": 0.0,
			"-0.019": 0.0,
			"-0.018": 0.0,
			"-0.017": 0.0,
			"-0.016": 0.0,
			"-0.015": 0.486354873222,
			"-0.014": 0.747009646323,
			"-0.013": 0.977511490751,
			"-0.012": 1.64587575479,
			"-0.011": 0.729149914154,
			"-0.01": 0.987456357812,
			"-0.009": 1.1302028263,
			"-0.008": 1.09369980761,
			"-0.007": 1.13831143088,
			"-0.006": 2.86098107415,
			"-0.005": 12.3947939579,
			"-0.004": 25.4459586001,
			"-0.003": 30.8719385676,
			"-0.002": 35.4594078152,
			"-0.001": 37.9168437561,
			"0.0": 42.0510530681,
			"0.001": 34.6889923767,
			"0.002": 21.5531277363,
			"0.003": 18.0044780074,
			"0.004": 11.3368787329,
			"0.005": 5.78863161045,
			"0.006": 3.73225858663,
			"0.007": 2.14624156124,
			"0.008": 3.52291381617,
			"0.009": 3.60293588306,
			"0.01": 2.37980902873,
			"0.011": 3.69433197471,
			"0.012": 6.2384645834,
			"0.013": 2.98726713447,
			"0.014": 0.00591106496734,
			"0.015": 0.0,
			"0.016": 0.0,
			"0.017": 0.0,
			"0.018": 0.0,
			"0.019": 0.0,
			"0.02": 0.0,
			"0.021": 0.0,
			"0.022": 0.0,
			"0.023": 0.0,
			"0.024": 0.0,
			"0.025": 0.0
		}
	}
}
