{
	 "smiles": "OC(=O)C(Cl)=C", 
	 "Tm": 338.65, 
	 "num_atms": 9, 
	 "gaussian": { 
		 "optdone": 1, 
		 "sigma_profile": "yes", 
		 "theory": "DFT", 
		 "functional": "B3LYP", 
		 "basiset": "6-31G**", 
		 "properties": { 
			 "R2extent": 1170.8248, 
			 "electric_dipole_moment_norm": 0.196859670832, 
			 "electric_quadrupole_moment_norm": 7.6339336197, 
			 "total_energy": -726.751759923, 
			 "HOMO_LUMO_gap": 0.2119, 
			 "cosmo_polarized_energy": -8.21, 
			 "cosmo_cavitation_energy": 15.73, 
			 "cosmo_dispersion_energy": -11.64, 
			 "cosmo_repulsion_energy": 1.01, 
			 "cosmo_total_nonelectrostatic_energy": 5.11, 
			 "SMD_solvation_energy": 4.76 
		},
		"coords": [
			{
				"x": -2.4001360167,
				"y": -1.2708604071,
				"z": 0.9556873581,
				"element": "O" 
			},
			{
				"x": -1.705842118,
				"y": -0.1194129575,
				"z": 0.9586915184,
				"element": "C" 
			},
			{
				"x": -1.435041966,
				"y": 0.4954100784,
				"z": 1.9692824476,
				"element": "O" 
			},
			{
				"x": -1.2934198471,
				"y": 0.337983548,
				"z": -0.4071631927,
				"element": "C" 
			},
			{
				"x": -1.7476073847,
				"y": -0.6426674649,
				"z": -1.7851916362,
				"element": "Cl" 
			},
			{
				"x": -0.5976513478,
				"y": 1.467370699,
				"z": -0.5502866803,
				"element": "C" 
			},
			{
				"x": -2.6074185106,
				"y": -1.4610135258,
				"z": 1.8860337006,
				"element": "H" 
			},
			{
				"x": -0.3431661247,
				"y": 2.0360195741,
				"z": 0.3371312055,
				"element": "H" 
			},
			{
				"x": -0.2829166845,
				"y": 1.8282704559,
				"z": -1.5216847209,
				"element": "H" 
			}
		],
		 "valence_orbital": [ 
			{
				"type": "occ",
				"energy": -0.37031,
				"method": "rhf"
			},
			{
				"type": "occ",
				"energy": -0.33375,
				"method": "rhf"
			},
			{
				"type": "occ",
				"energy": -0.33153,
				"method": "rhf"
			},
			{
				"type": "occ",
				"energy": -0.28788,
				"method": "rhf"
			},
			{
				"type": "occ",
				"energy": -0.27459,
				"method": "rhf"
			},
			{
				"type": "unocc",
				"energy": -0.06269,
				"method": "rhf"
			},
			{
				"type": "unocc",
				"energy": 0.02462,
				"method": "rhf"
			},
			{
				"type": "unocc",
				"energy": 0.06742,
				"method": "rhf"
			},
			{
				"type": "unocc",
				"energy": 0.06889,
				"method": "rhf"
			},
			{
				"type": "unocc",
				"energy": 0.1293,
				"method": "rhf"
			}
		],
		"cosmo_sigma_profile": { 
			"-0.025": 0.0,
			"-0.024": 0.0,
			"-0.023": 0.0,
			"-0.022": 0.0,
			"-0.021": 0.0,
			"-0.02": 0.0,
			"-0.019": 0.880373763469,
			"-0.018": 0.946255327439,
			"-0.017": 0.629458105891,
			"-0.016": 0.985476550141,
			"-0.015": 0.589733938535,
			"-0.014": 0.491219140723,
			"-0.013": 0.566865528338,
			"-0.012": 1.31593816787,
			"-0.011": 0.706315069124,
			"-0.01": 0.655644768519,
			"-0.009": 1.31287622658,
			"-0.008": 3.74572814291,
			"-0.007": 3.86989484188,
			"-0.006": 3.64214097025,
			"-0.005": 4.25243665857,
			"-0.004": 7.05354622611,
			"-0.003": 7.74269986025,
			"-0.002": 7.90970175834,
			"-0.001": 8.45926801858,
			"0.0": 10.5197687206,
			"0.001": 10.4271704277,
			"0.002": 7.40913263234,
			"0.003": 8.31336400388,
			"0.004": 9.62850664383,
			"0.005": 3.94601215948,
			"0.006": 3.77445463909,
			"0.007": 3.67552189589,
			"0.008": 2.96599918014,
			"0.009": 3.26966391335,
			"0.01": 3.43719874049,
			"0.011": 4.67967626559,
			"0.012": 0.385629459106,
			"0.013": 0.0,
			"0.014": 0.0,
			"0.015": 0.0,
			"0.016": 0.0,
			"0.017": 0.0,
			"0.018": 0.0,
			"0.019": 0.0,
			"0.02": 0.0,
			"0.021": 0.0,
			"0.022": 0.0,
			"0.023": 0.0,
			"0.024": 0.0,
			"0.025": 0.0
		}
	}
}
