{
	 "smiles": "OC(=O)C1=CN=C(S1)C1=CC=CO1", 
	 "Tm": 511.15, 
	 "num_atms": 18, 
	 "gaussian": { 
		 "optdone": 1, 
		 "sigma_profile": "yes", 
		 "theory": "DFT", 
		 "functional": "B3LYP", 
		 "basiset": "6-31G**", 
		 "properties": { 
			 "R2extent": 3801.9618, 
			 "electric_dipole_moment_norm": 6.13704103783, 
			 "electric_quadrupole_moment_norm": 16.1494270378, 
			 "total_energy": -986.445088926, 
			 "HOMO_LUMO_gap": 0.146, 
			 "cosmo_polarized_energy": -14.83, 
			 "cosmo_cavitation_energy": 25.64, 
			 "cosmo_dispersion_energy": -19.51, 
			 "cosmo_repulsion_energy": 1.48, 
			 "cosmo_total_nonelectrostatic_energy": 7.61, 
			 "SMD_solvation_energy": 4.86 
		},
		"coords": [
			{
				"x": 0.8299756619,
				"y": -3.5609409148,
				"z": -3.6215477205,
				"element": "O" 
			},
			{
				"x": 0.8986153898,
				"y": -3.6297144821,
				"z": -2.2658594613,
				"element": "C" 
			},
			{
				"x": 1.2042488431,
				"y": -4.6682311257,
				"z": -1.7267480493,
				"element": "O" 
			},
			{
				"x": 0.5898069611,
				"y": -2.4058857934,
				"z": -1.4947265641,
				"element": "C" 
			},
			{
				"x": 0.6189330483,
				"y": -2.3303756777,
				"z": -0.1208399409,
				"element": "C" 
			},
			{
				"x": 0.3084042258,
				"y": -1.128951055,
				"z": 0.4350284239,
				"element": "N" 
			},
			{
				"x": 0.0296074768,
				"y": -0.2382886163,
				"z": -0.4897930505,
				"element": "C" 
			},
			{
				"x": 0.1362544668,
				"y": -0.8440476834,
				"z": -2.1422293309,
				"element": "S" 
			},
			{
				"x": -0.3352802171,
				"y": 1.1243988732,
				"z": -0.2093132522,
				"element": "C" 
			},
			{
				"x": -0.4836335752,
				"y": 1.8180681267,
				"z": 0.9659580072,
				"element": "C" 
			},
			{
				"x": -0.8615770285,
				"y": 3.1434050462,
				"z": 0.6006432611,
				"element": "C" 
			},
			{
				"x": -0.9168424189,
				"y": 3.1644115457,
				"z": -0.7632615694,
				"element": "C" 
			},
			{
				"x": -0.5994744339,
				"y": 1.9441273619,
				"z": -1.2736494133,
				"element": "O" 
			},
			{
				"x": 0.5756034597,
				"y": -2.6786002053,
				"z": -3.9268850321,
				"element": "H" 
			},
			{
				"x": 0.8742731843,
				"y": -3.174841957,
				"z": 0.5077335275,
				"element": "H" 
			},
			{
				"x": -0.336414628,
				"y": 1.4134543183,
				"z": 1.9558349769,
				"element": "H" 
			},
			{
				"x": -1.0654260515,
				"y": 3.97152338,
				"z": 1.2636190048,
				"element": "H" 
			},
			{
				"x": -1.1533743647,
				"y": 3.9284888589,
				"z": -1.487163817,
				"element": "H" 
			}
		],
		 "valence_orbital": [ 
			{
				"type": "occ",
				"energy": -0.30129,
				"method": "rhf"
			},
			{
				"type": "occ",
				"energy": -0.29622,
				"method": "rhf"
			},
			{
				"type": "occ",
				"energy": -0.29232,
				"method": "rhf"
			},
			{
				"type": "occ",
				"energy": -0.2798,
				"method": "rhf"
			},
			{
				"type": "occ",
				"energy": -0.23012,
				"method": "rhf"
			},
			{
				"type": "unocc",
				"energy": -0.08412,
				"method": "rhf"
			},
			{
				"type": "unocc",
				"energy": -0.01823,
				"method": "rhf"
			},
			{
				"type": "unocc",
				"energy": -0.01674,
				"method": "rhf"
			},
			{
				"type": "unocc",
				"energy": 0.02445,
				"method": "rhf"
			},
			{
				"type": "unocc",
				"energy": 0.05421,
				"method": "rhf"
			}
		],
		"cosmo_sigma_profile": { 
			"-0.025": 0.0,
			"-0.024": 0.0,
			"-0.023": 0.0,
			"-0.022": 0.0,
			"-0.021": 0.0,
			"-0.02": 0.0,
			"-0.019": 0.132309451955,
			"-0.018": 0.899810597824,
			"-0.017": 0.729479079692,
			"-0.016": 0.919690758155,
			"-0.015": 1.40404158875,
			"-0.014": 0.672605386327,
			"-0.013": 0.986606297198,
			"-0.012": 1.35765341358,
			"-0.011": 1.50864671209,
			"-0.01": 2.41022806737,
			"-0.009": 3.59024040598,
			"-0.008": 6.68414223115,
			"-0.007": 6.7713743409,
			"-0.006": 6.72299196296,
			"-0.005": 8.49287795145,
			"-0.004": 8.47619857039,
			"-0.003": 8.90047214931,
			"-0.002": 13.0732139076,
			"-0.001": 17.6498665996,
			"0.0": 24.8322240807,
			"0.001": 20.0358417734,
			"0.002": 15.6279402667,
			"0.003": 11.6409518089,
			"0.004": 7.58186665507,
			"0.005": 4.82062390078,
			"0.006": 3.17173720661,
			"0.007": 3.1762671703,
			"0.008": 4.44545869599,
			"0.009": 4.53072066374,
			"0.01": 5.77799324499,
			"0.011": 6.57476136654,
			"0.012": 4.65117550191,
			"0.013": 1.45558840013,
			"0.014": 0.0,
			"0.015": 0.0,
			"0.016": 0.0,
			"0.017": 0.0,
			"0.018": 0.0,
			"0.019": 0.0,
			"0.02": 0.0,
			"0.021": 0.0,
			"0.022": 0.0,
			"0.023": 0.0,
			"0.024": 0.0,
			"0.025": 0.0
		}
	}
}
