{
	 "smiles": "CC1=C(C=C(C(F)=C1)S(N)(=O)=O)[N+]([O-])=O", 
	 "Tm": 433.15, 
	 "num_atms": 22, 
	 "gaussian": { 
		 "optdone": 1, 
		 "sigma_profile": "yes", 
		 "theory": "DFT", 
		 "functional": "B3LYP", 
		 "basiset": "6-31G**", 
		 "properties": { 
			 "R2extent": 4051.8822, 
			 "electric_dipole_moment_norm": 6.63190637675, 
			 "electric_quadrupole_moment_norm": 20.6342652932, 
			 "total_energy": -1179.20947469, 
			 "HOMO_LUMO_gap": 0.18621, 
			 "cosmo_polarized_energy": -21.06, 
			 "cosmo_cavitation_energy": 28.75, 
			 "cosmo_dispersion_energy": -21.47, 
			 "cosmo_repulsion_energy": 1.6, 
			 "cosmo_total_nonelectrostatic_energy": 8.88, 
			 "SMD_solvation_energy": 7.03 
		},
		"coords": [
			{
				"x": -2.20485928,
				"y": 1.4137060883,
				"z": -1.2166364242,
				"element": "C" 
			},
			{
				"x": -1.0078953508,
				"y": 0.7990258906,
				"z": -0.5359547958,
				"element": "C" 
			},
			{
				"x": 0.2909984218,
				"y": 0.707408202,
				"z": -1.0820658548,
				"element": "C" 
			},
			{
				"x": 1.352730878,
				"y": 0.115998193,
				"z": -0.3945825359,
				"element": "C" 
			},
			{
				"x": 1.153680282,
				"y": -0.4025834342,
				"z": 0.8774435655,
				"element": "C" 
			},
			{
				"x": -0.1253284736,
				"y": -0.3244304624,
				"z": 1.4288052562,
				"element": "C" 
			},
			{
				"x": -0.3505851612,
				"y": -0.8474256711,
				"z": 2.6479432436,
				"element": "F" 
			},
			{
				"x": -1.1826382232,
				"y": 0.2515480454,
				"z": 0.7437298985,
				"element": "C" 
			},
			{
				"x": 2.5466594092,
				"y": -1.0844665301,
				"z": 1.8002720662,
				"element": "S" 
			},
			{
				"x": 2.094541088,
				"y": -2.6257446241,
				"z": 2.2525632724,
				"element": "N" 
			},
			{
				"x": 3.6347843235,
				"y": -1.2353179223,
				"z": 0.8392618219,
				"element": "O" 
			},
			{
				"x": 2.6719283057,
				"y": -0.3083106399,
				"z": 3.0275182636,
				"element": "O" 
			},
			{
				"x": 0.6108214052,
				"y": 1.2319656151,
				"z": -2.4233705334,
				"element": "N" 
			},
			{
				"x": 1.6940273341,
				"y": 0.9171190799,
				"z": -2.9114696887,
				"element": "O" 
			},
			{
				"x": -0.2169108538,
				"y": 1.9564035677,
				"z": -2.9760227699,
				"element": "O" 
			},
			{
				"x": -3.0992631235,
				"y": 1.2487708727,
				"z": -0.6114221123,
				"element": "H" 
			},
			{
				"x": -2.3635901543,
				"y": 0.9922216373,
				"z": -2.2117265484,
				"element": "H" 
			},
			{
				"x": -2.0651875824,
				"y": 2.4877333938,
				"z": -1.3611310312,
				"element": "H" 
			},
			{
				"x": 2.3308994937,
				"y": 0.0614485977,
				"z": -0.8560943112,
				"element": "H" 
			},
			{
				"x": -2.1569694236,
				"y": 0.2735358563,
				"z": 1.2195247415,
				"element": "H" 
			},
			{
				"x": 2.0285348086,
				"y": -3.2716368517,
				"z": 1.4728194899,
				"element": "H" 
			},
			{
				"x": 1.2949218769,
				"y": -2.639368904,
				"z": 2.8774949867,
				"element": "H" 
			}
		],
		 "valence_orbital": [ 
			{
				"type": "occ",
				"energy": -0.31965,
				"method": "rhf"
			},
			{
				"type": "occ",
				"energy": -0.31542,
				"method": "rhf"
			},
			{
				"type": "occ",
				"energy": -0.30568,
				"method": "rhf"
			},
			{
				"type": "occ",
				"energy": -0.29775,
				"method": "rhf"
			},
			{
				"type": "occ",
				"energy": -0.28927,
				"method": "rhf"
			},
			{
				"type": "unocc",
				"energy": -0.10306,
				"method": "rhf"
			},
			{
				"type": "unocc",
				"energy": -0.06338,
				"method": "rhf"
			},
			{
				"type": "unocc",
				"energy": -0.02486,
				"method": "rhf"
			},
			{
				"type": "unocc",
				"energy": 0.03305,
				"method": "rhf"
			},
			{
				"type": "unocc",
				"energy": 0.04729,
				"method": "rhf"
			}
		],
		"cosmo_sigma_profile": { 
			"-0.025": 0.0,
			"-0.024": 0.0,
			"-0.023": 0.0,
			"-0.022": 0.0,
			"-0.021": 0.0,
			"-0.02": 0.0,
			"-0.019": 0.0,
			"-0.018": 0.0,
			"-0.017": 0.0,
			"-0.016": 0.93511005515,
			"-0.015": 2.15020505923,
			"-0.014": 2.03775742057,
			"-0.013": 3.02662123334,
			"-0.012": 2.5263825229,
			"-0.011": 2.16035924354,
			"-0.01": 2.23030706588,
			"-0.009": 4.03165306821,
			"-0.008": 5.08266103986,
			"-0.007": 6.07236548047,
			"-0.006": 8.08132239624,
			"-0.005": 12.3069049454,
			"-0.004": 14.5729450281,
			"-0.003": 22.0137441929,
			"-0.002": 23.6734515222,
			"-0.001": 15.6934550791,
			"0.0": 8.14025355724,
			"0.001": 7.01900166502,
			"0.002": 9.91133522602,
			"0.003": 6.20332234037,
			"0.004": 5.87663442572,
			"0.005": 7.02306483437,
			"0.006": 8.9419849654,
			"0.007": 11.336159398,
			"0.008": 9.51986520977,
			"0.009": 9.70665896356,
			"0.01": 12.9754207212,
			"0.011": 6.70902912753,
			"0.012": 0.097423751826,
			"0.013": 0.0,
			"0.014": 0.0,
			"0.015": 0.0,
			"0.016": 0.0,
			"0.017": 0.0,
			"0.018": 0.0,
			"0.019": 0.0,
			"0.02": 0.0,
			"0.021": 0.0,
			"0.022": 0.0,
			"0.023": 0.0,
			"0.024": 0.0,
			"0.025": 0.0
		}
	}
}
