{
	 "smiles": "CC1=C(F)C=C(N)C(=C1)C(O)=O", 
	 "Tm": 493.15, 
	 "num_atms": 20, 
	 "gaussian": { 
		 "optdone": 1, 
		 "sigma_profile": "yes", 
		 "theory": "DFT", 
		 "functional": "B3LYP", 
		 "basiset": "6-31G**", 
		 "properties": { 
			 "R2extent": 2455.6419, 
			 "electric_dipole_moment_norm": 2.65683959245, 
			 "electric_quadrupole_moment_norm": 17.1400504766, 
			 "total_energy": -614.734008861, 
			 "HOMO_LUMO_gap": 0.16897, 
			 "cosmo_polarized_energy": -13.78, 
			 "cosmo_cavitation_energy": 24.29, 
			 "cosmo_dispersion_energy": -18.16, 
			 "cosmo_repulsion_energy": 1.42, 
			 "cosmo_total_nonelectrostatic_energy": 7.55, 
			 "SMD_solvation_energy": 5.6 
		},
		"coords": [
			{
				"x": -1.1956407177,
				"y": -0.5246167203,
				"z": -2.7793269692,
				"element": "C" 
			},
			{
				"x": -1.009987962,
				"y": 0.2153952959,
				"z": -1.4803718113,
				"element": "C" 
			},
			{
				"x": -1.9692071265,
				"y": 1.1363464428,
				"z": -1.0319494198,
				"element": "C" 
			},
			{
				"x": -3.0686771353,
				"y": 1.3190701067,
				"z": -1.7933491724,
				"element": "F" 
			},
			{
				"x": -1.8487938228,
				"y": 1.8726657667,
				"z": 0.126961719,
				"element": "C" 
			},
			{
				"x": -0.7097913831,
				"y": 1.7195244333,
				"z": 0.947891419,
				"element": "C" 
			},
			{
				"x": -0.5948955416,
				"y": 2.43952669,
				"z": 2.099962614,
				"element": "N" 
			},
			{
				"x": 0.275681776,
				"y": 0.7639631236,
				"z": 0.5531775214,
				"element": "C" 
			},
			{
				"x": 0.0970216506,
				"y": 0.0623855754,
				"z": -0.6566225796,
				"element": "C" 
			},
			{
				"x": 1.4795744403,
				"y": 0.5609594835,
				"z": 1.3914454509,
				"element": "C" 
			},
			{
				"x": 2.2243635564,
				"y": -0.553979873,
				"z": 1.1636638502,
				"element": "O" 
			},
			{
				"x": 1.8463456297,
				"y": 1.3243531378,
				"z": 2.2704011097,
				"element": "O" 
			},
			{
				"x": -1.2857420535,
				"y": 0.1643287764,
				"z": -3.6263617528,
				"element": "H" 
			},
			{
				"x": -0.3480762234,
				"y": -1.1874721336,
				"z": -2.9726063861,
				"element": "H" 
			},
			{
				"x": -2.1060943221,
				"y": -1.1340385471,
				"z": -2.7683180921,
				"element": "H" 
			},
			{
				"x": -2.6338742547,
				"y": 2.5724096561,
				"z": 0.3940461154,
				"element": "H" 
			},
			{
				"x": 0.3176205189,
				"y": 2.4451844007,
				"z": 2.540966659,
				"element": "H" 
			},
			{
				"x": -1.2190434368,
				"y": 3.2153657102,
				"z": 2.2486172073,
				"element": "H" 
			},
			{
				"x": 0.8804895643,
				"y": -0.6086802906,
				"z": -1.0026487518,
				"element": "H" 
			},
			{
				"x": 1.7383268431,
				"y": -1.1681910343,
				"z": 0.5974212693,
				"element": "H" 
			}
		],
		 "valence_orbital": [ 
			{
				"type": "occ",
				"energy": -0.31551,
				"method": "rhf"
			},
			{
				"type": "occ",
				"energy": -0.31311,
				"method": "rhf"
			},
			{
				"type": "occ",
				"energy": -0.27586,
				"method": "rhf"
			},
			{
				"type": "occ",
				"energy": -0.25947,
				"method": "rhf"
			},
			{
				"type": "occ",
				"energy": -0.21257,
				"method": "rhf"
			},
			{
				"type": "unocc",
				"energy": -0.0436,
				"method": "rhf"
			},
			{
				"type": "unocc",
				"energy": -0.00228,
				"method": "rhf"
			},
			{
				"type": "unocc",
				"energy": 0.05134,
				"method": "rhf"
			},
			{
				"type": "unocc",
				"energy": 0.06398,
				"method": "rhf"
			},
			{
				"type": "unocc",
				"energy": 0.08434,
				"method": "rhf"
			}
		],
		"cosmo_sigma_profile": { 
			"-0.025": 0.0,
			"-0.024": 0.0,
			"-0.023": 0.0,
			"-0.022": 0.0,
			"-0.021": 0.0,
			"-0.02": 0.0,
			"-0.019": 0.118215382219,
			"-0.018": 0.678998769868,
			"-0.017": 1.01851698603,
			"-0.016": 0.878250828313,
			"-0.015": 0.590410490043,
			"-0.014": 0.799403391266,
			"-0.013": 2.9577577429,
			"-0.012": 3.05038738222,
			"-0.011": 2.46722928904,
			"-0.01": 2.06126722111,
			"-0.009": 3.09568256646,
			"-0.008": 4.62721987973,
			"-0.007": 4.44884124611,
			"-0.006": 4.93988426664,
			"-0.005": 6.74142868203,
			"-0.004": 8.95136281237,
			"-0.003": 8.85749743375,
			"-0.002": 10.694815755,
			"-0.001": 14.0736427961,
			"0.0": 16.0168229035,
			"0.001": 15.4211179718,
			"0.002": 16.4940175498,
			"0.003": 18.43261077,
			"0.004": 14.7629045265,
			"0.005": 4.8534510333,
			"0.006": 2.75624283465,
			"0.007": 2.19771171535,
			"0.008": 3.68971952251,
			"0.009": 3.79812770081,
			"0.01": 3.87718272833,
			"0.011": 4.64845679895,
			"0.012": 2.83809464863,
			"0.013": 2.11562199156,
			"0.014": 0.478976793978,
			"0.015": 0.0,
			"0.016": 0.0,
			"0.017": 0.0,
			"0.018": 0.0,
			"0.019": 0.0,
			"0.02": 0.0,
			"0.021": 0.0,
			"0.022": 0.0,
			"0.023": 0.0,
			"0.024": 0.0,
			"0.025": 0.0
		}
	}
}
