{
	 "smiles": "CCOC(=O)C(NC=O)C(=O)OCC", 
	 "Tm": 323.95, 
	 "num_atms": 27, 
	 "gaussian": { 
		 "optdone": 1, 
		 "sigma_profile": "yes", 
		 "theory": "DFT", 
		 "functional": "B3LYP", 
		 "basiset": "6-31G**", 
		 "properties": { 
			 "R2extent": 4702.1495, 
			 "electric_dipole_moment_norm": 7.11967193696, 
			 "electric_quadrupole_moment_norm": 25.057288901, 
			 "total_energy": -743.581801887, 
			 "HOMO_LUMO_gap": 0.23299, 
			 "cosmo_polarized_energy": -17.78, 
			 "cosmo_cavitation_energy": 32.53, 
			 "cosmo_dispersion_energy": -21.9, 
			 "cosmo_repulsion_energy": 1.83, 
			 "cosmo_total_nonelectrostatic_energy": 12.45, 
			 "SMD_solvation_energy": 8.89 
		},
		"coords": [
			{
				"x": -3.5908843443,
				"y": 2.0083183517,
				"z": 1.460563523,
				"element": "C" 
			},
			{
				"x": -2.3290723696,
				"y": 2.7549562438,
				"z": 1.844679448,
				"element": "C" 
			},
			{
				"x": -1.2032651863,
				"y": 2.0283680345,
				"z": 1.2813785918,
				"element": "O" 
			},
			{
				"x": 0.0116214868,
				"y": 2.5360548606,
				"z": 1.5390237925,
				"element": "C" 
			},
			{
				"x": 0.2298368212,
				"y": 3.5305565933,
				"z": 2.187451148,
				"element": "O" 
			},
			{
				"x": 1.1215124456,
				"y": 1.7018155821,
				"z": 0.8497376057,
				"element": "C" 
			},
			{
				"x": 2.4218062268,
				"y": 1.9684702544,
				"z": 1.4059878201,
				"element": "N" 
			},
			{
				"x": 3.1772240888,
				"y": 3.0648547977,
				"z": 1.0842092818,
				"element": "C" 
			},
			{
				"x": 4.193664391,
				"y": 3.3934893176,
				"z": 1.6618451827,
				"element": "O" 
			},
			{
				"x": 0.8321989135,
				"y": 0.2038119198,
				"z": 0.9746402875,
				"element": "C" 
			},
			{
				"x": 1.1279903092,
				"y": -0.4370976903,
				"z": 1.9604175873,
				"element": "O" 
			},
			{
				"x": 0.2270683281,
				"y": -0.2759549471,
				"z": -0.1172207044,
				"element": "O" 
			},
			{
				"x": -0.1386791289,
				"y": -1.6838604239,
				"z": -0.0929760708,
				"element": "C" 
			},
			{
				"x": 1.0198337616,
				"y": -2.5583639765,
				"z": -0.5445189193,
				"element": "C" 
			},
			{
				"x": -3.580838512,
				"y": 0.9906749669,
				"z": 1.8609563264,
				"element": "H" 
			},
			{
				"x": -4.4638623897,
				"y": 2.5286320694,
				"z": 1.8663020451,
				"element": "H" 
			},
			{
				"x": -3.6981594079,
				"y": 1.9523646213,
				"z": 0.3736363968,
				"element": "H" 
			},
			{
				"x": -2.1946053874,
				"y": 2.8146482218,
				"z": 2.9285409904,
				"element": "H" 
			},
			{
				"x": -2.3137299941,
				"y": 3.7753855376,
				"z": 1.4502263652,
				"element": "H" 
			},
			{
				"x": 1.1037397551,
				"y": 1.9749066144,
				"z": -0.2108834462,
				"element": "H" 
			},
			{
				"x": 2.6576997628,
				"y": 1.4806450006,
				"z": 2.2628179786,
				"element": "H" 
			},
			{
				"x": 2.7756190888,
				"y": 3.6067130104,
				"z": 0.2039821522,
				"element": "H" 
			},
			{
				"x": -0.4633402264,
				"y": -1.9413577655,
				"z": 0.9175617999,
				"element": "H" 
			},
			{
				"x": -0.986839632,
				"y": -1.7494541734,
				"z": -0.777598173,
				"element": "H" 
			},
			{
				"x": 1.8527054775,
				"y": -2.4899844144,
				"z": 0.1593359852,
				"element": "H" 
			},
			{
				"x": 1.3682758672,
				"y": -2.2626175211,
				"z": -1.5382210164,
				"element": "H" 
			},
			{
				"x": 0.6954798546,
				"y": -3.6030750857,
				"z": -0.591275978,
				"element": "H" 
			}
		],
		 "valence_orbital": [ 
			{
				"type": "occ",
				"energy": -0.31813,
				"method": "rhf"
			},
			{
				"type": "occ",
				"energy": -0.30085,
				"method": "rhf"
			},
			{
				"type": "occ",
				"energy": -0.29255,
				"method": "rhf"
			},
			{
				"type": "occ",
				"energy": -0.26026,
				"method": "rhf"
			},
			{
				"type": "occ",
				"energy": -0.25038,
				"method": "rhf"
			},
			{
				"type": "unocc",
				"energy": -0.01739,
				"method": "rhf"
			},
			{
				"type": "unocc",
				"energy": -0.00218,
				"method": "rhf"
			},
			{
				"type": "unocc",
				"energy": 0.02813,
				"method": "rhf"
			},
			{
				"type": "unocc",
				"energy": 0.08647,
				"method": "rhf"
			},
			{
				"type": "unocc",
				"energy": 0.09622,
				"method": "rhf"
			}
		],
		"cosmo_sigma_profile": { 
			"-0.025": 0.0,
			"-0.024": 0.0,
			"-0.023": 0.0,
			"-0.022": 0.0,
			"-0.021": 0.0,
			"-0.02": 0.0,
			"-0.019": 0.0,
			"-0.018": 0.0,
			"-0.017": 0.0,
			"-0.016": 0.0,
			"-0.015": 0.0,
			"-0.014": 0.0332914840519,
			"-0.013": 0.381086336434,
			"-0.012": 0.950735198722,
			"-0.011": 2.43546125233,
			"-0.01": 4.41850810855,
			"-0.009": 3.03475284663,
			"-0.008": 2.51409754781,
			"-0.007": 4.9737311366,
			"-0.006": 10.1217685616,
			"-0.005": 19.0223080703,
			"-0.004": 30.4197426353,
			"-0.003": 25.8140804212,
			"-0.002": 21.0927722925,
			"-0.001": 22.2981476217,
			"0.0": 19.4595374396,
			"0.001": 9.81769458576,
			"0.002": 8.6650089218,
			"0.003": 6.34157815833,
			"0.004": 6.62747827601,
			"0.005": 7.24293534241,
			"0.006": 6.43023974332,
			"0.007": 6.02512173855,
			"0.008": 5.47049421666,
			"0.009": 5.19817094477,
			"0.01": 7.20791242898,
			"0.011": 8.07552799875,
			"0.012": 3.91085656531,
			"0.013": 5.62762384724,
			"0.014": 2.01741427359,
			"0.015": 0.0769575481798,
			"0.016": 0.0,
			"0.017": 0.0,
			"0.018": 0.0,
			"0.019": 0.0,
			"0.02": 0.0,
			"0.021": 0.0,
			"0.022": 0.0,
			"0.023": 0.0,
			"0.024": 0.0,
			"0.025": 0.0
		}
	}
}
