{
	 "smiles": "NC1=CC=C(Cl)C=C1", 
	 "Tm": 344.35, 
	 "num_atms": 14, 
	 "gaussian": { 
		 "optdone": 1, 
		 "sigma_profile": "yes", 
		 "theory": "DFT", 
		 "functional": "B3LYP", 
		 "basiset": "6-31G**", 
		 "properties": { 
			 "R2extent": 1842.7882, 
			 "electric_dipole_moment_norm": 3.61352926929, 
			 "electric_quadrupole_moment_norm": 13.793938986, 
			 "total_energy": -747.20161816, 
			 "HOMO_LUMO_gap": 0.19697, 
			 "cosmo_polarized_energy": -8.68, 
			 "cosmo_cavitation_energy": 19.62, 
			 "cosmo_dispersion_energy": -14.96, 
			 "cosmo_repulsion_energy": 1.25, 
			 "cosmo_total_nonelectrostatic_energy": 5.91, 
			 "SMD_solvation_energy": 3.09 
		},
		"coords": [
			{
				"x": 0.9546032899,
				"y": -4.1528625229,
				"z": 0.7432533504,
				"element": "N" 
			},
			{
				"x": 0.566207285,
				"y": -2.8204871815,
				"z": 0.8901245097,
				"element": "C" 
			},
			{
				"x": 0.6853335944,
				"y": -1.9142128092,
				"z": -0.1777933795,
				"element": "C" 
			},
			{
				"x": 0.3525687459,
				"y": -0.5716341565,
				"z": -0.0175137577,
				"element": "C" 
			},
			{
				"x": -0.1058564438,
				"y": -0.1163456085,
				"z": 1.2176467914,
				"element": "C" 
			},
			{
				"x": -0.5318894324,
				"y": 1.5811896176,
				"z": 1.4221783035,
				"element": "Cl" 
			},
			{
				"x": -0.2315802013,
				"y": -0.9964476573,
				"z": 2.291274382,
				"element": "C" 
			},
			{
				"x": 0.1023657474,
				"y": -2.3381682047,
				"z": 2.1263275148,
				"element": "C" 
			},
			{
				"x": 0.531321809,
				"y": -4.7996815934,
				"z": 1.3942432648,
				"element": "H" 
			},
			{
				"x": 0.9357698227,
				"y": -4.5056557958,
				"z": -0.2035905006,
				"element": "H" 
			},
			{
				"x": 1.0464978321,
				"y": -2.2641555866,
				"z": -1.1415179867,
				"element": "H" 
			},
			{
				"x": 0.4469808223,
				"y": 0.1174656385,
				"z": -0.8497457585,
				"element": "H" 
			},
			{
				"x": -0.5902206486,
				"y": -0.6368135595,
				"z": 3.249617934,
				"element": "H" 
			},
			{
				"x": 0.0068977775,
				"y": -3.0201905804,
				"z": 2.9673953325,
				"element": "H" 
			}
		],
		 "valence_orbital": [ 
			{
				"type": "occ",
				"energy": -0.34956,
				"method": "rhf"
			},
			{
				"type": "occ",
				"energy": -0.30265,
				"method": "rhf"
			},
			{
				"type": "occ",
				"energy": -0.29101,
				"method": "rhf"
			},
			{
				"type": "occ",
				"energy": -0.25711,
				"method": "rhf"
			},
			{
				"type": "occ",
				"energy": -0.20443,
				"method": "rhf"
			},
			{
				"type": "unocc",
				"energy": -0.00746,
				"method": "rhf"
			},
			{
				"type": "unocc",
				"energy": 0.00888,
				"method": "rhf"
			},
			{
				"type": "unocc",
				"energy": 0.03729,
				"method": "rhf"
			},
			{
				"type": "unocc",
				"energy": 0.07809,
				"method": "rhf"
			},
			{
				"type": "unocc",
				"energy": 0.1151,
				"method": "rhf"
			}
		],
		"cosmo_sigma_profile": { 
			"-0.025": 0.0,
			"-0.024": 0.0,
			"-0.023": 0.0,
			"-0.022": 0.0,
			"-0.021": 0.0,
			"-0.02": 0.0,
			"-0.019": 0.0,
			"-0.018": 0.0,
			"-0.017": 0.0,
			"-0.016": 0.0,
			"-0.015": 0.0,
			"-0.014": 0.0,
			"-0.013": 0.768712108189,
			"-0.012": 3.11214264947,
			"-0.011": 2.32685098264,
			"-0.01": 3.32333798544,
			"-0.009": 3.05132650425,
			"-0.008": 2.83356689662,
			"-0.007": 5.44927445799,
			"-0.006": 8.15686394197,
			"-0.005": 9.08519646177,
			"-0.004": 8.33222007352,
			"-0.003": 5.27917517217,
			"-0.002": 6.40984664584,
			"-0.001": 7.25620578455,
			"0.0": 7.78789326958,
			"0.001": 8.61216186431,
			"0.002": 10.6311113793,
			"0.003": 14.4413579002,
			"0.004": 15.3006636635,
			"0.005": 23.0895465054,
			"0.006": 7.57764220543,
			"0.007": 1.23231419152,
			"0.008": 0.221049364824,
			"0.009": 0.624510874253,
			"0.01": 1.3332162083,
			"0.011": 0.548514831863,
			"0.012": 0.545331765321,
			"0.013": 0.628062400076,
			"0.014": 0.661962904818,
			"0.015": 0.0108386789859,
			"0.016": 0.0,
			"0.017": 0.0,
			"0.018": 0.0,
			"0.019": 0.0,
			"0.02": 0.0,
			"0.021": 0.0,
			"0.022": 0.0,
			"0.023": 0.0,
			"0.024": 0.0,
			"0.025": 0.0
		}
	}
}
