{
	 "smiles": "OC1=CC=C(C=C1)C(=O)C=CC1=CC=CC=C1", 
	 "Tm": 449.15, 
	 "num_atms": 29, 
	 "gaussian": { 
		 "optdone": 1, 
		 "sigma_profile": "yes", 
		 "theory": "DFT", 
		 "functional": "B3LYP", 
		 "basiset": "6-31G**", 
		 "properties": { 
			 "R2extent": 6447.6031, 
			 "electric_dipole_moment_norm": 4.88640782784, 
			 "electric_quadrupole_moment_norm": 14.3590805033, 
			 "total_energy": -729.260331206, 
			 "HOMO_LUMO_gap": 0.16009, 
			 "cosmo_polarized_energy": -16.02, 
			 "cosmo_cavitation_energy": 34.14, 
			 "cosmo_dispersion_energy": -24.57, 
			 "cosmo_repulsion_energy": 1.89, 
			 "cosmo_total_nonelectrostatic_energy": 11.46, 
			 "SMD_solvation_energy": 6.63 
		},
		"coords": [
			{
				"x": 1.6395448387,
				"y": 3.8670206258,
				"z": 2.6121643843,
				"element": "O" 
			},
			{
				"x": 1.7026288479,
				"y": 2.9420707115,
				"z": 1.6149221174,
				"element": "C" 
			},
			{
				"x": 1.6281945984,
				"y": 1.5651895044,
				"z": 1.8543769168,
				"element": "C" 
			},
			{
				"x": 1.6878362398,
				"y": 0.670895038,
				"z": 0.787480299,
				"element": "C" 
			},
			{
				"x": 1.8296303853,
				"y": 1.1310074093,
				"z": -0.5301567846,
				"element": "C" 
			},
			{
				"x": 1.9323963143,
				"y": 2.5177177985,
				"z": -0.7469475912,
				"element": "C" 
			},
			{
				"x": 1.8568171356,
				"y": 3.4178992726,
				"z": 0.3041433498,
				"element": "C" 
			},
			{
				"x": 1.9665742209,
				"y": 0.2269592204,
				"z": -1.7134129892,
				"element": "C" 
			},
			{
				"x": 2.5694762833,
				"y": 0.6067272566,
				"z": -2.7160635121,
				"element": "O" 
			},
			{
				"x": 1.3704506874,
				"y": -1.1334459626,
				"z": -1.7217011968,
				"element": "C" 
			},
			{
				"x": 0.2586304109,
				"y": -1.5094970008,
				"z": -1.0582146947,
				"element": "C" 
			},
			{
				"x": -0.429187099,
				"y": -2.8025923882,
				"z": -1.141514778,
				"element": "C" 
			},
			{
				"x": 0.0557290785,
				"y": -3.8884644726,
				"z": -1.8962890258,
				"element": "C" 
			},
			{
				"x": -0.638139172,
				"y": -5.0933907077,
				"z": -1.935190629,
				"element": "C" 
			},
			{
				"x": -1.8321222959,
				"y": -5.2458083448,
				"z": -1.2224468275,
				"element": "C" 
			},
			{
				"x": -2.3260571376,
				"y": -4.1807629918,
				"z": -0.4683009199,
				"element": "C" 
			},
			{
				"x": -1.6300144049,
				"y": -2.9740529176,
				"z": -0.4287721348,
				"element": "C" 
			},
			{
				"x": 1.5414629609,
				"y": 3.4164909757,
				"z": 3.4613482407,
				"element": "H" 
			},
			{
				"x": 1.5335809991,
				"y": 1.194359411,
				"z": 2.8729411894,
				"element": "H" 
			},
			{
				"x": 1.655800854,
				"y": -0.3942421529,
				"z": 0.9890381487,
				"element": "H" 
			},
			{
				"x": 2.073910376,
				"y": 2.8671052349,
				"z": -1.7642494777,
				"element": "H" 
			},
			{
				"x": 1.921228348,
				"y": 4.4885669283,
				"z": 0.1408143284,
				"element": "H" 
			},
			{
				"x": 1.8399458425,
				"y": -1.7914474255,
				"z": -2.4486663903,
				"element": "H" 
			},
			{
				"x": -0.2170790374,
				"y": -0.7840773565,
				"z": -0.4012749869,
				"element": "H" 
			},
			{
				"x": 0.9818929517,
				"y": -3.7895615677,
				"z": -2.4534859158,
				"element": "H" 
			},
			{
				"x": -0.2478362984,
				"y": -5.919301067,
				"z": -2.5228637755,
				"element": "H" 
			},
			{
				"x": -2.3706940567,
				"y": -6.188320743,
				"z": -1.2560343766,
				"element": "H" 
			},
			{
				"x": -3.2522059001,
				"y": -4.2890812245,
				"z": 0.0886679964,
				"element": "H" 
			},
			{
				"x": -2.0182959712,
				"y": -2.1459630639,
				"z": 0.1589890355,
				"element": "H" 
			}
		],
		 "valence_orbital": [ 
			{
				"type": "occ",
				"energy": -0.26071,
				"method": "rhf"
			},
			{
				"type": "occ",
				"energy": -0.26027,
				"method": "rhf"
			},
			{
				"type": "occ",
				"energy": -0.24429,
				"method": "rhf"
			},
			{
				"type": "occ",
				"energy": -0.23196,
				"method": "rhf"
			},
			{
				"type": "occ",
				"energy": -0.22843,
				"method": "rhf"
			},
			{
				"type": "unocc",
				"energy": -0.06834,
				"method": "rhf"
			},
			{
				"type": "unocc",
				"energy": -0.02078,
				"method": "rhf"
			},
			{
				"type": "unocc",
				"energy": -0.00956,
				"method": "rhf"
			},
			{
				"type": "unocc",
				"energy": -0.00896,
				"method": "rhf"
			},
			{
				"type": "unocc",
				"energy": 0.03263,
				"method": "rhf"
			}
		],
		"cosmo_sigma_profile": { 
			"-0.025": 0.0,
			"-0.024": 0.0,
			"-0.023": 0.0,
			"-0.022": 0.0,
			"-0.021": 0.0,
			"-0.02": 0.0,
			"-0.019": 0.121146062928,
			"-0.018": 0.770517963146,
			"-0.017": 1.37551593195,
			"-0.016": 1.07782854726,
			"-0.015": 1.01631935418,
			"-0.014": 0.927223525495,
			"-0.013": 0.708092904473,
			"-0.012": 0.952470394737,
			"-0.011": 1.25249713918,
			"-0.01": 1.33136798676,
			"-0.009": 0.691515250049,
			"-0.008": 2.36729908456,
			"-0.007": 6.72994103061,
			"-0.006": 17.5730769147,
			"-0.005": 19.0948095328,
			"-0.004": 21.275477013,
			"-0.003": 15.9194544821,
			"-0.002": 16.294672124,
			"-0.001": 15.755454791,
			"0.0": 16.4640905291,
			"0.001": 18.3655487746,
			"0.002": 21.7864777638,
			"0.003": 26.0375670465,
			"0.004": 25.2786756504,
			"0.005": 12.8853167102,
			"0.006": 2.52359759436,
			"0.007": 2.96953557124,
			"0.008": 3.07821230443,
			"0.009": 3.66264450446,
			"0.01": 3.37113725246,
			"0.011": 3.07373885567,
			"0.012": 3.48405217838,
			"0.013": 4.41969406712,
			"0.014": 1.19861926426,
			"0.015": 0.0193237511008,
			"0.016": 0.0,
			"0.017": 0.0,
			"0.018": 0.0,
			"0.019": 0.0,
			"0.02": 0.0,
			"0.021": 0.0,
			"0.022": 0.0,
			"0.023": 0.0,
			"0.024": 0.0,
			"0.025": 0.0
		}
	}
}
