{
	 "smiles": "CC1(C)N=C(N)N=C(N)N1C1=CC=C(Cl)C=C1", 
	 "Tm": 419.15, 
	 "num_atms": 31, 
	 "gaussian": { 
		 "optdone": 1, 
		 "sigma_profile": "yes", 
		 "theory": "DFT", 
		 "functional": "B3LYP", 
		 "basiset": "6-31G**", 
		 "properties": { 
			 "R2extent": 6075.1205, 
			 "electric_dipole_moment_norm": 1.9651636624, 
			 "electric_quadrupole_moment_norm": 6.13872278491, 
			 "total_energy": -1161.5766382, 
			 "HOMO_LUMO_gap": 0.16359, 
			 "cosmo_polarized_energy": -16.82, 
			 "cosmo_cavitation_energy": 35.29, 
			 "cosmo_dispersion_energy": -24.93, 
			 "cosmo_repulsion_energy": 1.96, 
			 "cosmo_total_nonelectrostatic_energy": 12.33, 
			 "SMD_solvation_energy": 1.88 
		},
		"coords": [
			{
				"x": 1.7857067437,
				"y": -0.3210087977,
				"z": 0.3899985198,
				"element": "C" 
			},
			{
				"x": 0.3827081366,
				"y": -0.9113378671,
				"z": 0.5858394927,
				"element": "C" 
			},
			{
				"x": 0.40878423,
				"y": -2.4397973438,
				"z": 0.3731278829,
				"element": "C" 
			},
			{
				"x": -0.0409614262,
				"y": -0.6222251854,
				"z": 1.9322716516,
				"element": "N" 
			},
			{
				"x": -1.2917252864,
				"y": -0.3588796232,
				"z": 2.1313728287,
				"element": "C" 
			},
			{
				"x": -1.7302564678,
				"y": -0.1155778758,
				"z": 3.4166713783,
				"element": "N" 
			},
			{
				"x": -2.299793772,
				"y": -0.2223336238,
				"z": 1.1882924962,
				"element": "N" 
			},
			{
				"x": -1.8833680777,
				"y": -0.152642623,
				"z": -0.0499515906,
				"element": "C" 
			},
			{
				"x": -2.823910179,
				"y": 0.0593828669,
				"z": -1.0269049538,
				"element": "N" 
			},
			{
				"x": -0.5723586461,
				"y": -0.2844371068,
				"z": -0.4290013079,
				"element": "N" 
			},
			{
				"x": -0.1932840229,
				"y": -0.1405957897,
				"z": -1.8007539216,
				"element": "C" 
			},
			{
				"x": -0.3818699319,
				"y": -1.1826445572,
				"z": -2.7214287958,
				"element": "C" 
			},
			{
				"x": -0.005945633,
				"y": -1.0311260103,
				"z": -4.0558171093,
				"element": "C" 
			},
			{
				"x": 0.5610607439,
				"y": 0.1737005833,
				"z": -4.4715663797,
				"element": "C" 
			},
			{
				"x": 1.0377184543,
				"y": 0.3701289256,
				"z": -6.1500668654,
				"element": "Cl" 
			},
			{
				"x": 0.7491501295,
				"y": 1.2274022885,
				"z": -3.5768274114,
				"element": "C" 
			},
			{
				"x": 0.3667157051,
				"y": 1.0653782791,
				"z": -2.2458427422,
				"element": "C" 
			},
			{
				"x": 2.2085498729,
				"y": -0.5539548192,
				"z": -0.5912464949,
				"element": "H" 
			},
			{
				"x": 1.7622360841,
				"y": 0.7633266084,
				"z": 0.5270745376,
				"element": "H" 
			},
			{
				"x": 2.4358470376,
				"y": -0.7420327079,
				"z": 1.1602633235,
				"element": "H" 
			},
			{
				"x": -0.598166101,
				"y": -2.8533843364,
				"z": 0.4852588948,
				"element": "H" 
			},
			{
				"x": 0.7995947017,
				"y": -2.7110186884,
				"z": -0.613234957,
				"element": "H" 
			},
			{
				"x": 1.0483501226,
				"y": -2.893589241,
				"z": 1.1350215898,
				"element": "H" 
			},
			{
				"x": -2.7239334865,
				"y": -0.2164949954,
				"z": 3.5551341303,
				"element": "H" 
			},
			{
				"x": -1.132270918,
				"y": -0.4681935639,
				"z": 4.1486292887,
				"element": "H" 
			},
			{
				"x": -2.5273587716,
				"y": 0.4089648123,
				"z": -1.9242317451,
				"element": "H" 
			},
			{
				"x": -3.6989518418,
				"y": 0.4116503487,
				"z": -0.6681277838,
				"element": "H" 
			},
			{
				"x": -0.83324136,
				"y": -2.1111567243,
				"z": -2.3889310162,
				"element": "H" 
			},
			{
				"x": -0.1518501887,
				"y": -1.8373710036,
				"z": -4.7660702424,
				"element": "H" 
			},
			{
				"x": 1.1856678842,
				"y": 2.1595900752,
				"z": -3.9176870407,
				"element": "H" 
			},
			{
				"x": 0.5026562646,
				"y": 1.8754776958,
				"z": -1.537065657,
				"element": "H" 
			}
		],
		 "valence_orbital": [ 
			{
				"type": "occ",
				"energy": -0.26694,
				"method": "rhf"
			},
			{
				"type": "occ",
				"energy": -0.25934,
				"method": "rhf"
			},
			{
				"type": "occ",
				"energy": -0.23363,
				"method": "rhf"
			},
			{
				"type": "occ",
				"energy": -0.21846,
				"method": "rhf"
			},
			{
				"type": "occ",
				"energy": -0.19522,
				"method": "rhf"
			},
			{
				"type": "unocc",
				"energy": -0.03163,
				"method": "rhf"
			},
			{
				"type": "unocc",
				"energy": -0.02924,
				"method": "rhf"
			},
			{
				"type": "unocc",
				"energy": 0.01635,
				"method": "rhf"
			},
			{
				"type": "unocc",
				"energy": 0.01993,
				"method": "rhf"
			},
			{
				"type": "unocc",
				"energy": 0.08617,
				"method": "rhf"
			}
		],
		"cosmo_sigma_profile": { 
			"-0.025": 0.0,
			"-0.024": 0.0,
			"-0.023": 0.0,
			"-0.022": 0.0,
			"-0.021": 0.0,
			"-0.02": 0.0,
			"-0.019": 0.0,
			"-0.018": 0.0,
			"-0.017": 0.0,
			"-0.016": 0.0,
			"-0.015": 0.0,
			"-0.014": 0.210899847184,
			"-0.013": 1.35718876069,
			"-0.012": 3.4798100748,
			"-0.011": 3.77630802518,
			"-0.01": 3.97972518316,
			"-0.009": 3.94165902539,
			"-0.008": 4.85372142701,
			"-0.007": 9.74613174239,
			"-0.006": 11.0342272884,
			"-0.005": 10.5331928743,
			"-0.004": 12.8281327356,
			"-0.003": 22.1093559227,
			"-0.002": 21.8122090202,
			"-0.001": 20.987750527,
			"0.0": 26.0474208686,
			"0.001": 29.6967076548,
			"0.002": 19.7909612217,
			"0.003": 15.4214312493,
			"0.004": 14.7375816946,
			"0.005": 8.50727977677,
			"0.006": 4.00317086416,
			"0.007": 4.48268859666,
			"0.008": 4.00256319345,
			"0.009": 4.63894973478,
			"0.01": 4.01685024616,
			"0.011": 3.05707611063,
			"0.012": 2.76244299425,
			"0.013": 3.63737364301,
			"0.014": 1.7534934493,
			"0.015": 1.16595374628,
			"0.016": 1.32366314277,
			"0.017": 0.692403307025,
			"0.018": 0.394364048758,
			"0.019": 0.0,
			"0.02": 0.0,
			"0.021": 0.0,
			"0.022": 0.0,
			"0.023": 0.0,
			"0.024": 0.0,
			"0.025": 0.0
		}
	}
}
