{
	 "smiles": "NCC(C1=CC=CC=C1)C1=CC=CC=C1", 
	 "Tm": 319.15, 
	 "num_atms": 30, 
	 "gaussian": { 
		 "optdone": 1, 
		 "sigma_profile": "yes", 
		 "theory": "DFT", 
		 "functional": "B3LYP", 
		 "basiset": "6-31G**", 
		 "properties": { 
			 "R2extent": 4192.9473, 
			 "electric_dipole_moment_norm": 1.61578253797, 
			 "electric_quadrupole_moment_norm": 6.37820699962, 
			 "total_energy": -597.278900837, 
			 "HOMO_LUMO_gap": 0.22241, 
			 "cosmo_polarized_energy": -9.42, 
			 "cosmo_cavitation_energy": 32.56, 
			 "cosmo_dispersion_energy": -22.86, 
			 "cosmo_repulsion_energy": 1.83, 
			 "cosmo_total_nonelectrostatic_energy": 11.53, 
			 "SMD_solvation_energy": 4.61 
		},
		"coords": [
			{
				"x": 1.5031612301,
				"y": -2.7979523848,
				"z": -0.9776603471,
				"element": "N" 
			},
			{
				"x": 0.9042825566,
				"y": -1.4655351964,
				"z": -0.8737885392,
				"element": "C" 
			},
			{
				"x": -0.5140982983,
				"y": -1.512427444,
				"z": -0.2657563535,
				"element": "C" 
			},
			{
				"x": -1.1287378282,
				"y": -0.1140719458,
				"z": -0.3376790007,
				"element": "C" 
			},
			{
				"x": -0.8059790393,
				"y": 0.8683647894,
				"z": 0.609291854,
				"element": "C" 
			},
			{
				"x": -1.3270453855,
				"y": 2.1580487906,
				"z": 0.5060410275,
				"element": "C" 
			},
			{
				"x": -2.1851914741,
				"y": 2.4887877253,
				"z": -0.545340835,
				"element": "C" 
			},
			{
				"x": -2.5172132458,
				"y": 1.5191551349,
				"z": -1.4919832969,
				"element": "C" 
			},
			{
				"x": -1.9906618333,
				"y": 0.2300697248,
				"z": -1.3867937492,
				"element": "C" 
			},
			{
				"x": -0.6132752233,
				"y": -2.1094397241,
				"z": 1.1387014598,
				"element": "C" 
			},
			{
				"x": 0.4982387687,
				"y": -2.3634117162,
				"z": 1.9508151199,
				"element": "C" 
			},
			{
				"x": 0.337220783,
				"y": -2.8767311809,
				"z": 3.2411329238,
				"element": "C" 
			},
			{
				"x": -0.9353117808,
				"y": -3.1514152572,
				"z": 3.7397937165,
				"element": "C" 
			},
			{
				"x": -2.0522503577,
				"y": -2.9105850385,
				"z": 2.9358003113,
				"element": "C" 
			},
			{
				"x": -1.8885111287,
				"y": -2.3943817813,
				"z": 1.6520711901,
				"element": "C" 
			},
			{
				"x": 0.9338904788,
				"y": -3.3877871519,
				"z": -1.5807358566,
				"element": "H" 
			},
			{
				"x": 2.4168301569,
				"y": -2.7332735505,
				"z": -1.419260347,
				"element": "H" 
			},
			{
				"x": 1.5499819005,
				"y": -0.8465130976,
				"z": -0.2382679689,
				"element": "H" 
			},
			{
				"x": 0.8240830411,
				"y": -0.9326213048,
				"z": -1.8362580711,
				"element": "H" 
			},
			{
				"x": -1.1148010047,
				"y": -2.1536974863,
				"z": -0.9282428037,
				"element": "H" 
			},
			{
				"x": -0.1549187404,
				"y": 0.6136767357,
				"z": 1.4408965401,
				"element": "H" 
			},
			{
				"x": -1.0670587928,
				"y": 2.9048149928,
				"z": 1.2513105199,
				"element": "H" 
			},
			{
				"x": -2.5949781911,
				"y": 3.4918695822,
				"z": -0.6223093675,
				"element": "H" 
			},
			{
				"x": -3.1884882404,
				"y": 1.7629700143,
				"z": -2.3109020442,
				"element": "H" 
			},
			{
				"x": -2.2540899491,
				"y": -0.5206807821,
				"z": -2.1287125742,
				"element": "H" 
			},
			{
				"x": 1.4973325722,
				"y": -2.19666474,
				"z": 1.5667832724,
				"element": "H" 
			},
			{
				"x": 1.2143991444,
				"y": -3.0693740795,
				"z": 3.853011901,
				"element": "H" 
			},
			{
				"x": -1.0573130635,
				"y": -3.5540750847,
				"z": 4.7414168527,
				"element": "H" 
			},
			{
				"x": -3.0503322748,
				"y": -3.1233881527,
				"z": 3.3090836628,
				"element": "H" 
			},
			{
				"x": -2.7637647803,
				"y": -2.1985303908,
				"z": 1.0368408033,
				"element": "H" 
			}
		],
		 "valence_orbital": [ 
			{
				"type": "occ",
				"energy": -0.24718,
				"method": "rhf"
			},
			{
				"type": "occ",
				"energy": -0.24497,
				"method": "rhf"
			},
			{
				"type": "occ",
				"energy": -0.24268,
				"method": "rhf"
			},
			{
				"type": "occ",
				"energy": -0.23122,
				"method": "rhf"
			},
			{
				"type": "occ",
				"energy": -0.22384,
				"method": "rhf"
			},
			{
				"type": "unocc",
				"energy": -0.00143,
				"method": "rhf"
			},
			{
				"type": "unocc",
				"energy": 0.00193,
				"method": "rhf"
			},
			{
				"type": "unocc",
				"energy": 0.00661,
				"method": "rhf"
			},
			{
				"type": "unocc",
				"energy": 0.01767,
				"method": "rhf"
			},
			{
				"type": "unocc",
				"energy": 0.08127,
				"method": "rhf"
			}
		],
		"cosmo_sigma_profile": { 
			"-0.025": 0.0,
			"-0.024": 0.0,
			"-0.023": 0.0,
			"-0.022": 0.0,
			"-0.021": 0.0,
			"-0.02": 0.0,
			"-0.019": 0.0,
			"-0.018": 0.0,
			"-0.017": 0.0,
			"-0.016": 0.0,
			"-0.015": 0.0,
			"-0.014": 0.0,
			"-0.013": 0.0,
			"-0.012": 0.0,
			"-0.011": 0.0,
			"-0.01": 0.830001349307,
			"-0.009": 2.75488464583,
			"-0.008": 3.14084294889,
			"-0.007": 2.93291738621,
			"-0.006": 5.98679396983,
			"-0.005": 20.4868536595,
			"-0.004": 23.5328726621,
			"-0.003": 30.3106056618,
			"-0.002": 24.4128051512,
			"-0.001": 21.2134799674,
			"0.0": 16.5591249856,
			"0.001": 13.5175149452,
			"0.002": 13.871264199,
			"0.003": 14.1014533215,
			"0.004": 14.2787283348,
			"0.005": 17.5132520148,
			"0.006": 16.3838431053,
			"0.007": 7.83486623745,
			"0.008": 1.0713811196,
			"0.009": 0.875559299998,
			"0.01": 1.24753288472,
			"0.011": 0.731526968464,
			"0.012": 0.72634938656,
			"0.013": 0.592528898955,
			"0.014": 0.876060734997,
			"0.015": 0.727313425629,
			"0.016": 0.72463410466,
			"0.017": 0.262227778743,
			"0.018": 0.0,
			"0.019": 0.0,
			"0.02": 0.0,
			"0.021": 0.0,
			"0.022": 0.0,
			"0.023": 0.0,
			"0.024": 0.0,
			"0.025": 0.0
		}
	}
}
