{
	 "smiles": "OC1CCCCC1", 
	 "Tm": 296.65, 
	 "num_atms": 19, 
	 "gaussian": { 
		 "optdone": 1, 
		 "sigma_profile": "yes", 
		 "theory": "DFT", 
		 "functional": "B3LYP", 
		 "basiset": "6-31G**", 
		 "properties": { 
			 "R2extent": 896.1867, 
			 "electric_dipole_moment_norm": 1.41054122946, 
			 "electric_quadrupole_moment_norm": 6.15248764485, 
			 "total_energy": -311.095264363, 
			 "HOMO_LUMO_gap": 0.33219, 
			 "cosmo_polarized_energy": -5.51, 
			 "cosmo_cavitation_energy": 19.53, 
			 "cosmo_dispersion_energy": -15.04, 
			 "cosmo_repulsion_energy": 1.28, 
			 "cosmo_total_nonelectrostatic_energy": 5.77, 
			 "SMD_solvation_energy": 2.58 
		},
		"coords": [
			{
				"x": 0.1061273974,
				"y": -1.2378310213,
				"z": 2.1273048778,
				"element": "O" 
			},
			{
				"x": 0.3886301029,
				"y": -0.4179802296,
				"z": 0.9900235631,
				"element": "C" 
			},
			{
				"x": -0.3112418687,
				"y": -0.9453756924,
				"z": -0.2833871823,
				"element": "C" 
			},
			{
				"x": -1.7558477846,
				"y": -0.4412238951,
				"z": -0.3687537859,
				"element": "C" 
			},
			{
				"x": -1.7896364369,
				"y": 1.098416117,
				"z": -0.5341113974,
				"element": "C" 
			},
			{
				"x": -0.5665412962,
				"y": 1.7794975348,
				"z": 0.1263266281,
				"element": "C" 
			},
			{
				"x": -0.0949800003,
				"y": 0.9982105992,
				"z": 1.3595634171,
				"element": "C" 
			},
			{
				"x": 0.4688902996,
				"y": -2.1166022485,
				"z": 1.9552427681,
				"element": "H" 
			},
			{
				"x": 1.4759880731,
				"y": -0.3982586132,
				"z": 0.8088410334,
				"element": "H" 
			},
			{
				"x": -0.2718721301,
				"y": -2.0424999149,
				"z": -0.2836293776,
				"element": "H" 
			},
			{
				"x": 0.2495029053,
				"y": -0.6183482844,
				"z": -1.1693529466,
				"element": "H" 
			},
			{
				"x": -2.293200177,
				"y": -0.9259956804,
				"z": -1.1911048906,
				"element": "H" 
			},
			{
				"x": -2.2718859443,
				"y": -0.7323311436,
				"z": 0.5538116804,
				"element": "H" 
			},
			{
				"x": -2.7145073727,
				"y": 1.4895914624,
				"z": -0.0938546239,
				"element": "H" 
			},
			{
				"x": -1.8209431332,
				"y": 1.3615986844,
				"z": -1.5981837467,
				"element": "H" 
			},
			{
				"x": -0.8100130081,
				"y": 2.8118977187,
				"z": 0.3998857782,
				"element": "H" 
			},
			{
				"x": 0.2590577862,
				"y": 1.8460749068,
				"z": -0.5946206696,
				"element": "H" 
			},
			{
				"x": 0.6925093694,
				"y": 1.5364067225,
				"z": 1.8970938528,
				"element": "H" 
			},
			{
				"x": -0.9286367818,
				"y": 0.8805529777,
				"z": 2.0625050216,
				"element": "H" 
			}
		],
		 "valence_orbital": [ 
			{
				"type": "occ",
				"energy": -0.32483,
				"method": "rhf"
			},
			{
				"type": "occ",
				"energy": -0.30907,
				"method": "rhf"
			},
			{
				"type": "occ",
				"energy": -0.30865,
				"method": "rhf"
			},
			{
				"type": "occ",
				"energy": -0.29135,
				"method": "rhf"
			},
			{
				"type": "occ",
				"energy": -0.25606,
				"method": "rhf"
			},
			{
				"type": "unocc",
				"energy": 0.07613,
				"method": "rhf"
			},
			{
				"type": "unocc",
				"energy": 0.09534,
				"method": "rhf"
			},
			{
				"type": "unocc",
				"energy": 0.11083,
				"method": "rhf"
			},
			{
				"type": "unocc",
				"energy": 0.14149,
				"method": "rhf"
			},
			{
				"type": "unocc",
				"energy": 0.14558,
				"method": "rhf"
			}
		],
		"cosmo_sigma_profile": { 
			"-0.025": 0.0,
			"-0.024": 0.0,
			"-0.023": 0.0,
			"-0.022": 0.0,
			"-0.021": 0.0,
			"-0.02": 0.0,
			"-0.019": 0.0,
			"-0.018": 0.0,
			"-0.017": 0.0,
			"-0.016": 0.0,
			"-0.015": 0.496273745614,
			"-0.014": 0.755101037227,
			"-0.013": 1.20176017446,
			"-0.012": 0.811651387142,
			"-0.011": 0.869665165783,
			"-0.01": 1.00017357068,
			"-0.009": 0.585167565345,
			"-0.008": 1.01630447629,
			"-0.007": 0.807197231914,
			"-0.006": 1.78927619021,
			"-0.005": 1.32043286371,
			"-0.004": 1.45319248885,
			"-0.003": 6.96653476932,
			"-0.002": 24.8471851294,
			"-0.001": 28.6617831029,
			"0.0": 27.1619887378,
			"0.001": 21.8656310733,
			"0.002": 8.50823483791,
			"0.003": 1.54746712984,
			"0.004": 1.86420726405,
			"0.005": 1.83387793334,
			"0.006": 1.60716528968,
			"0.007": 1.44219921828,
			"0.008": 1.71090663709,
			"0.009": 0.91614283035,
			"0.01": 1.03105301477,
			"0.011": 1.72221581526,
			"0.012": 1.26863539877,
			"0.013": 1.36041595783,
			"0.014": 1.73822252772,
			"0.015": 1.15496539315,
			"0.016": 0.0,
			"0.017": 0.0,
			"0.018": 0.0,
			"0.019": 0.0,
			"0.02": 0.0,
			"0.021": 0.0,
			"0.022": 0.0,
			"0.023": 0.0,
			"0.024": 0.0,
			"0.025": 0.0
		}
	}
}
