{
	 "smiles": "O=C(C1=CC=CC=C1)C1=CC=CC=C1C(=O)C1=CC=CC=C1", 
	 "Tm": 419.65, 
	 "num_atms": 36, 
	 "gaussian": { 
		 "optdone": 1, 
		 "sigma_profile": "yes", 
		 "theory": "DFT", 
		 "functional": "B3LYP", 
		 "basiset": "6-31G**", 
		 "properties": { 
			 "R2extent": 7567.0632, 
			 "electric_dipole_moment_norm": 3.05906362144, 
			 "electric_quadrupole_moment_norm": 19.9559290099, 
			 "total_energy": -921.012095461, 
			 "HOMO_LUMO_gap": 0.17666, 
			 "cosmo_polarized_energy": -15.53, 
			 "cosmo_cavitation_energy": 40.95, 
			 "cosmo_dispersion_energy": -28.31, 
			 "cosmo_repulsion_energy": 2.16, 
			 "cosmo_total_nonelectrostatic_energy": 14.8, 
			 "SMD_solvation_energy": 7.6 
		},
		"coords": [
			{
				"x": -0.9626478057,
				"y": 1.314572442,
				"z": -0.2864420829,
				"element": "O" 
			},
			{
				"x": -1.2009399851,
				"y": 0.3687965835,
				"z": 0.452414879,
				"element": "C" 
			},
			{
				"x": -2.5768259698,
				"y": -0.2073970565,
				"z": 0.5536321572,
				"element": "C" 
			},
			{
				"x": -2.8276716675,
				"y": -1.4760480029,
				"z": 1.0979398832,
				"element": "C" 
			},
			{
				"x": -4.1275924575,
				"y": -1.9814673082,
				"z": 1.1295255397,
				"element": "C" 
			},
			{
				"x": -5.1851848317,
				"y": -1.2225122885,
				"z": 0.625349913,
				"element": "C" 
			},
			{
				"x": -4.9415206573,
				"y": 0.0406289023,
				"z": 0.0755768007,
				"element": "C" 
			},
			{
				"x": -3.6445969579,
				"y": 0.5415208496,
				"z": 0.0326270595,
				"element": "C" 
			},
			{
				"x": -0.0931627331,
				"y": -0.1809848678,
				"z": 1.3181000793,
				"element": "C" 
			},
			{
				"x": -0.2757734064,
				"y": -0.2868994364,
				"z": 2.7011369173,
				"element": "C" 
			},
			{
				"x": 0.7855603725,
				"y": -0.6401577405,
				"z": 3.5381343438,
				"element": "C" 
			},
			{
				"x": 2.0422072643,
				"y": -0.8955366147,
				"z": 2.9934924063,
				"element": "C" 
			},
			{
				"x": 2.236788554,
				"y": -0.7875493796,
				"z": 1.6142376156,
				"element": "C" 
			},
			{
				"x": 1.1821166502,
				"y": -0.429694532,
				"z": 0.7676257678,
				"element": "C" 
			},
			{
				"x": 1.3669178547,
				"y": -0.4877252593,
				"z": -0.7296792316,
				"element": "C" 
			},
			{
				"x": 0.5835425929,
				"y": -1.1476097635,
				"z": -1.3989414033,
				"element": "O" 
			},
			{
				"x": 2.5304873465,
				"y": 0.2075412908,
				"z": -1.3603968749,
				"element": "C" 
			},
			{
				"x": 3.2398164235,
				"y": 1.2320035173,
				"z": -0.7154573412,
				"element": "C" 
			},
			{
				"x": 4.2923246515,
				"y": 1.8747089418,
				"z": -1.3676599055,
				"element": "C" 
			},
			{
				"x": 4.6478802998,
				"y": 1.4952289544,
				"z": -2.6631503144,
				"element": "C" 
			},
			{
				"x": 3.9410498797,
				"y": 0.4787068943,
				"z": -3.3144889488,
				"element": "C" 
			},
			{
				"x": 2.8840149261,
				"y": -0.1555732682,
				"z": -2.6702098668,
				"element": "C" 
			},
			{
				"x": -2.0052647222,
				"y": -2.0736666477,
				"z": 1.4763988495,
				"element": "H" 
			},
			{
				"x": -4.3137418338,
				"y": -2.9682687576,
				"z": 1.543162861,
				"element": "H" 
			},
			{
				"x": -6.1975913107,
				"y": -1.6155703055,
				"z": 0.6549700001,
				"element": "H" 
			},
			{
				"x": -5.763979238,
				"y": 0.6284182155,
				"z": -0.3216767594,
				"element": "H" 
			},
			{
				"x": -3.4275936305,
				"y": 1.5114567927,
				"z": -0.4023383887,
				"element": "H" 
			},
			{
				"x": -1.2511677499,
				"y": -0.0723262701,
				"z": 3.1271646274,
				"element": "H" 
			},
			{
				"x": 0.6280736735,
				"y": -0.71077282,
				"z": 4.6103404942,
				"element": "H" 
			},
			{
				"x": 2.87018146,
				"y": -1.181436828,
				"z": 3.635475463,
				"element": "H" 
			},
			{
				"x": 3.2122712416,
				"y": -1.0014990254,
				"z": 1.1880335338,
				"element": "H" 
			},
			{
				"x": 2.955354021,
				"y": 1.5386072351,
				"z": 0.2854508949,
				"element": "H" 
			},
			{
				"x": 4.831123334,
				"y": 2.6736210791,
				"z": -0.8666968014,
				"element": "H" 
			},
			{
				"x": 5.4707622851,
				"y": 1.9936062906,
				"z": -3.1679573942,
				"element": "H" 
			},
			{
				"x": 4.2145423559,
				"y": 0.187628577,
				"z": -4.324548167,
				"element": "H" 
			},
			{
				"x": 2.3106397705,
				"y": -0.9360503936,
				"z": -3.1592466062,
				"element": "H" 
			}
		],
		 "valence_orbital": [ 
			{
				"type": "occ",
				"energy": -0.25711,
				"method": "rhf"
			},
			{
				"type": "occ",
				"energy": -0.25591,
				"method": "rhf"
			},
			{
				"type": "occ",
				"energy": -0.25544,
				"method": "rhf"
			},
			{
				"type": "occ",
				"energy": -0.2485,
				"method": "rhf"
			},
			{
				"type": "occ",
				"energy": -0.23931,
				"method": "rhf"
			},
			{
				"type": "unocc",
				"energy": -0.06265,
				"method": "rhf"
			},
			{
				"type": "unocc",
				"energy": -0.05584,
				"method": "rhf"
			},
			{
				"type": "unocc",
				"energy": -0.01965,
				"method": "rhf"
			},
			{
				"type": "unocc",
				"energy": -0.01603,
				"method": "rhf"
			},
			{
				"type": "unocc",
				"energy": -0.00574,
				"method": "rhf"
			}
		],
		"cosmo_sigma_profile": { 
			"-0.025": 0.0,
			"-0.024": 0.0,
			"-0.023": 0.0,
			"-0.022": 0.0,
			"-0.021": 0.0,
			"-0.02": 0.0,
			"-0.019": 0.0,
			"-0.018": 0.0,
			"-0.017": 0.0,
			"-0.016": 0.0,
			"-0.015": 0.0,
			"-0.014": 0.0,
			"-0.013": 0.0,
			"-0.012": 0.0,
			"-0.011": 0.0,
			"-0.01": 0.0,
			"-0.009": 0.0,
			"-0.008": 0.0156439698643,
			"-0.007": 7.68630644278,
			"-0.006": 26.4185398606,
			"-0.005": 31.7252158641,
			"-0.004": 29.1754566483,
			"-0.003": 22.9351070212,
			"-0.002": 21.775668089,
			"-0.001": 19.8493843423,
			"0.0": 20.7333090553,
			"0.001": 22.528924624,
			"0.002": 26.3338672774,
			"0.003": 35.7763344123,
			"0.004": 26.7806900245,
			"0.005": 4.82150277354,
			"0.006": 3.78212491219,
			"0.007": 3.86047824707,
			"0.008": 4.89679738063,
			"0.009": 4.39730499316,
			"0.01": 4.32284752936,
			"0.011": 6.96905026519,
			"0.012": 4.82940052251,
			"0.013": 0.0139713575667,
			"0.014": 0.0,
			"0.015": 0.0,
			"0.016": 0.0,
			"0.017": 0.0,
			"0.018": 0.0,
			"0.019": 0.0,
			"0.02": 0.0,
			"0.021": 0.0,
			"0.022": 0.0,
			"0.023": 0.0,
			"0.024": 0.0,
			"0.025": 0.0
		}
	}
}
