{
	 "smiles": "ClC1=NC(C#N)=C(Cl)C=C1", 
	 "Tm": 372.15, 
	 "num_atms": 12, 
	 "gaussian": { 
		 "optdone": 1, 
		 "sigma_profile": "yes", 
		 "theory": "DFT", 
		 "functional": "B3LYP", 
		 "basiset": "6-31G**", 
		 "properties": { 
			 "R2extent": 3043.2653, 
			 "electric_dipole_moment_norm": 5.4121811629, 
			 "electric_quadrupole_moment_norm": 12.934693347, 
			 "total_energy": -1259.69690742, 
			 "HOMO_LUMO_gap": 0.18817, 
			 "cosmo_polarized_energy": -10.31, 
			 "cosmo_cavitation_energy": 21.94, 
			 "cosmo_dispersion_energy": -15.99, 
			 "cosmo_repulsion_energy": 1.31, 
			 "cosmo_total_nonelectrostatic_energy": 7.26, 
			 "SMD_solvation_energy": 3.26 
		},
		"coords": [
			{
				"x": 2.133240435,
				"y": -2.1987058914,
				"z": -2.5905585589,
				"element": "Cl" 
			},
			{
				"x": 1.0370858762,
				"y": -2.1250904449,
				"z": -1.2260018758,
				"element": "C" 
			},
			{
				"x": 0.0567927552,
				"y": -1.2488046024,
				"z": -1.2939711285,
				"element": "N" 
			},
			{
				"x": -0.8005068579,
				"y": -1.1693535522,
				"z": -0.2613297251,
				"element": "C" 
			},
			{
				"x": -1.856830499,
				"y": -0.1973531677,
				"z": -0.3787485658,
				"element": "C" 
			},
			{
				"x": -2.7081954375,
				"y": 0.5870365548,
				"z": -0.474886586,
				"element": "N" 
			},
			{
				"x": -0.6817786188,
				"y": -1.9855697778,
				"z": 0.8758265641,
				"element": "C" 
			},
			{
				"x": -1.8032230938,
				"y": -1.8632923143,
				"z": 2.1973512196,
				"element": "Cl" 
			},
			{
				"x": 0.3660983036,
				"y": -2.90853614,
				"z": 0.9267060726,
				"element": "C" 
			},
			{
				"x": 1.249106018,
				"y": -2.9875262557,
				"z": -0.1413683131,
				"element": "C" 
			},
			{
				"x": 0.4800958699,
				"y": -3.5504464893,
				"z": 1.7931643975,
				"element": "H" 
			},
			{
				"x": 2.0746152492,
				"y": -3.6889579193,
				"z": -0.1420835006,
				"element": "H" 
			}
		],
		 "valence_orbital": [ 
			{
				"type": "occ",
				"energy": -0.34296,
				"method": "rhf"
			},
			{
				"type": "occ",
				"energy": -0.33815,
				"method": "rhf"
			},
			{
				"type": "occ",
				"energy": -0.32331,
				"method": "rhf"
			},
			{
				"type": "occ",
				"energy": -0.31234,
				"method": "rhf"
			},
			{
				"type": "occ",
				"energy": -0.27886,
				"method": "rhf"
			},
			{
				"type": "unocc",
				"energy": -0.09069,
				"method": "rhf"
			},
			{
				"type": "unocc",
				"energy": -0.06558,
				"method": "rhf"
			},
			{
				"type": "unocc",
				"energy": -0.00226,
				"method": "rhf"
			},
			{
				"type": "unocc",
				"energy": 0.00597,
				"method": "rhf"
			},
			{
				"type": "unocc",
				"energy": 0.02293,
				"method": "rhf"
			}
		],
		"cosmo_sigma_profile": { 
			"-0.025": 0.0,
			"-0.024": 0.0,
			"-0.023": 0.0,
			"-0.022": 0.0,
			"-0.021": 0.0,
			"-0.02": 0.0,
			"-0.019": 0.0,
			"-0.018": 0.0,
			"-0.017": 0.0,
			"-0.016": 0.0,
			"-0.015": 0.0,
			"-0.014": 0.0,
			"-0.013": 0.0,
			"-0.012": 0.0,
			"-0.011": 0.255264004157,
			"-0.01": 4.65613617908,
			"-0.009": 4.3600353551,
			"-0.008": 3.89607613495,
			"-0.007": 3.05504251844,
			"-0.006": 3.99467554952,
			"-0.005": 8.54112009014,
			"-0.004": 13.4496764479,
			"-0.003": 19.3294838334,
			"-0.002": 15.0826599501,
			"-0.001": 10.5697531287,
			"0.0": 11.2477099622,
			"0.001": 12.1933456722,
			"0.002": 19.6186689204,
			"0.003": 15.7440191499,
			"0.004": 8.60393082205,
			"0.005": 5.22587727073,
			"0.006": 4.6907376536,
			"0.007": 4.45484577094,
			"0.008": 4.41569310875,
			"0.009": 3.39723277259,
			"0.01": 3.61100425748,
			"0.011": 2.50936511424,
			"0.012": 0.797978036314,
			"0.013": 0.0,
			"0.014": 0.0,
			"0.015": 0.0,
			"0.016": 0.0,
			"0.017": 0.0,
			"0.018": 0.0,
			"0.019": 0.0,
			"0.02": 0.0,
			"0.021": 0.0,
			"0.022": 0.0,
			"0.023": 0.0,
			"0.024": 0.0,
			"0.025": 0.0
		}
	}
}
