{
	 "smiles": "CC1=C(SC(N)=N1)C1=CC=CC=C1", 
	 "Tm": 437.15, 
	 "num_atms": 23, 
	 "gaussian": { 
		 "optdone": 1, 
		 "sigma_profile": "yes", 
		 "theory": "DFT", 
		 "functional": "B3LYP", 
		 "basiset": "6-31G**", 
		 "properties": { 
			 "R2extent": 3370.2089, 
			 "electric_dipole_moment_norm": 1.39492277206, 
			 "electric_quadrupole_moment_norm": 13.3163619533, 
			 "total_energy": -894.789054671, 
			 "HOMO_LUMO_gap": 0.17052, 
			 "cosmo_polarized_energy": -10.72, 
			 "cosmo_cavitation_energy": 28.19, 
			 "cosmo_dispersion_energy": -21.27, 
			 "cosmo_repulsion_energy": 1.65, 
			 "cosmo_total_nonelectrostatic_energy": 8.57, 
			 "SMD_solvation_energy": 2.83 
		},
		"coords": [
			{
				"x": 2.572437053,
				"y": -2.176294524,
				"z": -0.3763437512,
				"element": "C" 
			},
			{
				"x": 1.3762855785,
				"y": -1.634476792,
				"z": -1.106149777,
				"element": "C" 
			},
			{
				"x": 0.7389843149,
				"y": -0.4413225036,
				"z": -0.8608738282,
				"element": "C" 
			},
			{
				"x": -0.6521176349,
				"y": -0.3026128551,
				"z": -1.9512267483,
				"element": "S" 
			},
			{
				"x": -0.2339594541,
				"y": -1.8801813693,
				"z": -2.6132557157,
				"element": "C" 
			},
			{
				"x": -0.9432696119,
				"y": -2.4248961486,
				"z": -3.6610456507,
				"element": "N" 
			},
			{
				"x": 0.8204963305,
				"y": -2.4344524302,
				"z": -2.0895382835,
				"element": "N" 
			},
			{
				"x": 1.0334188181,
				"y": 0.626055854,
				"z": 0.1057568368,
				"element": "C" 
			},
			{
				"x": 2.355457655,
				"y": 1.0533083378,
				"z": 0.3325781398,
				"element": "C" 
			},
			{
				"x": 2.6340162389,
				"y": 2.055999987,
				"z": 1.2606620697,
				"element": "C" 
			},
			{
				"x": 1.5995494148,
				"y": 2.6714886587,
				"z": 1.967302942,
				"element": "C" 
			},
			{
				"x": 0.2807479436,
				"y": 2.272787267,
				"z": 1.7378919698,
				"element": "C" 
			},
			{
				"x": 0.0006855874,
				"y": 1.2609364834,
				"z": 0.8222481888,
				"element": "C" 
			},
			{
				"x": 3.4770911218,
				"y": -2.1079247614,
				"z": -0.9929293261,
				"element": "H" 
			},
			{
				"x": 2.7544392365,
				"y": -1.6428695626,
				"z": 0.5582331864,
				"element": "H" 
			},
			{
				"x": 2.4149238463,
				"y": -3.2364495967,
				"z": -0.1563091958,
				"element": "H" 
			},
			{
				"x": -0.7183140823,
				"y": -3.3989475037,
				"z": -3.8184456829,
				"element": "H" 
			},
			{
				"x": -1.9320223762,
				"y": -2.2218374992,
				"z": -3.6975268776,
				"element": "H" 
			},
			{
				"x": 3.1631969681,
				"y": 0.6117619373,
				"z": -0.2415484811,
				"element": "H" 
			},
			{
				"x": 3.6626151377,
				"y": 2.3681554099,
				"z": 1.4187214639,
				"element": "H" 
			},
			{
				"x": 1.817469655,
				"y": 3.4577662347,
				"z": 2.6840929065,
				"element": "H" 
			},
			{
				"x": -0.5333260827,
				"y": 2.7455035983,
				"z": 2.2802652629,
				"element": "H" 
			},
			{
				"x": -1.0267056579,
				"y": 0.9439017785,
				"z": 0.6675403517,
				"element": "H" 
			}
		],
		 "valence_orbital": [ 
			{
				"type": "occ",
				"energy": -0.27207,
				"method": "rhf"
			},
			{
				"type": "occ",
				"energy": -0.26494,
				"method": "rhf"
			},
			{
				"type": "occ",
				"energy": -0.25091,
				"method": "rhf"
			},
			{
				"type": "occ",
				"energy": -0.24935,
				"method": "rhf"
			},
			{
				"type": "occ",
				"energy": -0.19489,
				"method": "rhf"
			},
			{
				"type": "unocc",
				"energy": -0.02437,
				"method": "rhf"
			},
			{
				"type": "unocc",
				"energy": -0.00371,
				"method": "rhf"
			},
			{
				"type": "unocc",
				"energy": 0.01722,
				"method": "rhf"
			},
			{
				"type": "unocc",
				"energy": 0.02378,
				"method": "rhf"
			},
			{
				"type": "unocc",
				"energy": 0.06774,
				"method": "rhf"
			}
		],
		"cosmo_sigma_profile": { 
			"-0.025": 0.0,
			"-0.024": 0.0,
			"-0.023": 0.0,
			"-0.022": 0.0,
			"-0.021": 0.0,
			"-0.02": 0.0,
			"-0.019": 0.0,
			"-0.018": 0.0,
			"-0.017": 0.0,
			"-0.016": 0.0,
			"-0.015": 0.318192717378,
			"-0.014": 1.77404800102,
			"-0.013": 2.07361639504,
			"-0.012": 3.15227120863,
			"-0.011": 2.53739610875,
			"-0.01": 2.43796203791,
			"-0.009": 1.719826451,
			"-0.008": 1.74352907581,
			"-0.007": 2.07581348766,
			"-0.006": 5.92440413707,
			"-0.005": 11.2453254395,
			"-0.004": 16.5678788909,
			"-0.003": 18.0829277025,
			"-0.002": 16.2176804443,
			"-0.001": 16.2834043347,
			"0.0": 17.1482036558,
			"0.001": 14.5868159201,
			"0.002": 18.2073389389,
			"0.003": 19.2081090311,
			"0.004": 18.9029027976,
			"0.005": 14.6586214382,
			"0.006": 8.33005520266,
			"0.007": 2.77876684543,
			"0.008": 1.85374702183,
			"0.009": 2.10699763999,
			"0.01": 1.10946191843,
			"0.011": 1.30963713497,
			"0.012": 1.84926190728,
			"0.013": 1.11731039185,
			"0.014": 0.420553882097,
			"0.015": 0.91952972585,
			"0.016": 0.309805872559,
			"0.017": 0.0,
			"0.018": 0.0,
			"0.019": 0.0,
			"0.02": 0.0,
			"0.021": 0.0,
			"0.022": 0.0,
			"0.023": 0.0,
			"0.024": 0.0,
			"0.025": 0.0
		}
	}
}
