{
	 "smiles": "CC(C)(C)OC1=CC=C(C=C1)C(N)=S", 
	 "Tm": 453.15, 
	 "num_atms": 29, 
	 "gaussian": { 
		 "optdone": 1, 
		 "sigma_profile": "yes", 
		 "theory": "DFT", 
		 "functional": "B3LYP", 
		 "basiset": "6-31G**", 
		 "properties": { 
			 "R2extent": 5365.0554, 
			 "electric_dipole_moment_norm": 4.32263394934, 
			 "electric_quadrupole_moment_norm": 28.8754171674, 
			 "total_energy": -956.389053177, 
			 "HOMO_LUMO_gap": 0.14767, 
			 "cosmo_polarized_energy": -16.13, 
			 "cosmo_cavitation_energy": 33.11, 
			 "cosmo_dispersion_energy": -23.84, 
			 "cosmo_repulsion_energy": 1.84, 
			 "cosmo_total_nonelectrostatic_energy": 11.1, 
			 "SMD_solvation_energy": 4.91 
		},
		"coords": [
			{
				"x": -0.9065811021,
				"y": -2.6724587526,
				"z": -1.3233712504,
				"element": "C" 
			},
			{
				"x": -0.2161238582,
				"y": -1.3972086121,
				"z": -1.8204180592,
				"element": "C" 
			},
			{
				"x": -0.6670508305,
				"y": -1.0519205671,
				"z": -3.2407352189,
				"element": "C" 
			},
			{
				"x": 1.3089127578,
				"y": -1.5356100314,
				"z": -1.7487855984,
				"element": "C" 
			},
			{
				"x": -0.6598118132,
				"y": -0.2329638166,
				"z": -1.0459252913,
				"element": "O" 
			},
			{
				"x": -0.4242267063,
				"y": -0.1578739547,
				"z": 0.3026563819,
				"element": "C" 
			},
			{
				"x": 0.708181638,
				"y": 0.5149620413,
				"z": 0.7794455553,
				"element": "C" 
			},
			{
				"x": 0.9031125544,
				"y": 0.674945082,
				"z": 2.1485413019,
				"element": "C" 
			},
			{
				"x": -0.0221443363,
				"y": 0.1626501909,
				"z": 3.0760660445,
				"element": "C" 
			},
			{
				"x": -1.1529051019,
				"y": -0.5113855774,
				"z": 2.5866770595,
				"element": "C" 
			},
			{
				"x": -1.3590611908,
				"y": -0.6597311798,
				"z": 1.220273327,
				"element": "C" 
			},
			{
				"x": 0.1793267851,
				"y": 0.3259146894,
				"z": 4.5400888435,
				"element": "C" 
			},
			{
				"x": 0.8802952337,
				"y": 1.4258812259,
				"z": 4.9057751338,
				"element": "N" 
			},
			{
				"x": -0.3718981274,
				"y": -0.7657357802,
				"z": 5.6780104174,
				"element": "S" 
			},
			{
				"x": -1.9944828748,
				"y": -2.562939349,
				"z": -1.3633169368,
				"element": "H" 
			},
			{
				"x": -0.6257152921,
				"y": -3.5201435842,
				"z": -1.9565029038,
				"element": "H" 
			},
			{
				"x": -0.6180139119,
				"y": -2.9124863916,
				"z": -0.2962680604,
				"element": "H" 
			},
			{
				"x": -1.7520189535,
				"y": -0.9187833199,
				"z": -3.2734615009,
				"element": "H" 
			},
			{
				"x": -0.1974340943,
				"y": -0.1220728145,
				"z": -3.5736597285,
				"element": "H" 
			},
			{
				"x": -0.3918977613,
				"y": -1.8510434857,
				"z": -3.9355726583,
				"element": "H" 
			},
			{
				"x": 1.6404524065,
				"y": -2.3633340826,
				"z": -2.3837162074,
				"element": "H" 
			},
			{
				"x": 1.7963923707,
				"y": -0.6206680259,
				"z": -2.0988963048,
				"element": "H" 
			},
			{
				"x": 1.6454519981,
				"y": -1.7407197447,
				"z": -0.7285314724,
				"element": "H" 
			},
			{
				"x": 1.4240857443,
				"y": 0.911673734,
				"z": 0.0676853465,
				"element": "H" 
			},
			{
				"x": 1.807471825,
				"y": 1.1660085798,
				"z": 2.4962742272,
				"element": "H" 
			},
			{
				"x": -1.8690771735,
				"y": -0.9071984711,
				"z": 3.2984379824,
				"element": "H" 
			},
			{
				"x": -2.2516786763,
				"y": -1.150421478,
				"z": 0.8480499087,
				"element": "H" 
			},
			{
				"x": 1.0136511354,
				"y": 2.19517687,
				"z": 4.2661882238,
				"element": "H" 
			},
			{
				"x": 1.0151873554,
				"y": 1.5924866061,
				"z": 5.8922914383,
				"element": "H" 
			}
		],
		 "valence_orbital": [ 
			{
				"type": "occ",
				"energy": -0.27328,
				"method": "rhf"
			},
			{
				"type": "occ",
				"energy": -0.26179,
				"method": "rhf"
			},
			{
				"type": "occ",
				"energy": -0.25059,
				"method": "rhf"
			},
			{
				"type": "occ",
				"energy": -0.22433,
				"method": "rhf"
			},
			{
				"type": "occ",
				"energy": -0.20359,
				"method": "rhf"
			},
			{
				"type": "unocc",
				"energy": -0.05592,
				"method": "rhf"
			},
			{
				"type": "unocc",
				"energy": -0.01304,
				"method": "rhf"
			},
			{
				"type": "unocc",
				"energy": 0.02452,
				"method": "rhf"
			},
			{
				"type": "unocc",
				"energy": 0.07194,
				"method": "rhf"
			},
			{
				"type": "unocc",
				"energy": 0.07879,
				"method": "rhf"
			}
		],
		"cosmo_sigma_profile": { 
			"-0.025": 0.0,
			"-0.024": 0.0,
			"-0.023": 0.0,
			"-0.022": 0.0,
			"-0.021": 0.0,
			"-0.02": 0.0,
			"-0.019": 0.0,
			"-0.018": 0.0,
			"-0.017": 0.0,
			"-0.016": 0.133724425811,
			"-0.015": 1.60895727593,
			"-0.014": 2.47792460701,
			"-0.013": 2.29843706847,
			"-0.012": 2.87520954836,
			"-0.011": 1.86275263937,
			"-0.01": 2.07793086972,
			"-0.009": 2.75464110969,
			"-0.008": 1.85302373073,
			"-0.007": 3.10168273507,
			"-0.006": 5.28104608653,
			"-0.005": 7.88260360291,
			"-0.004": 17.9853106386,
			"-0.003": 26.8083002838,
			"-0.002": 24.2144994691,
			"-0.001": 23.5988886244,
			"0.0": 28.9299264356,
			"0.001": 20.9363426025,
			"0.002": 11.6382703074,
			"0.003": 17.0943688136,
			"0.004": 11.0948354572,
			"0.005": 6.30000601692,
			"0.006": 5.61975050291,
			"0.007": 6.36807277152,
			"0.008": 6.63670938709,
			"0.009": 7.23479828374,
			"0.01": 7.16419319606,
			"0.011": 4.6294638888,
			"0.012": 2.49328308397,
			"0.013": 0.0547831811895,
			"0.014": 0.0,
			"0.015": 0.0,
			"0.016": 0.0,
			"0.017": 0.0,
			"0.018": 0.0,
			"0.019": 0.0,
			"0.02": 0.0,
			"0.021": 0.0,
			"0.022": 0.0,
			"0.023": 0.0,
			"0.024": 0.0,
			"0.025": 0.0
		}
	}
}
