{
	 "smiles": "CC1=C(O)C=CC(C=O)=C1", 
	 "Tm": 392.15, 
	 "num_atms": 18, 
	 "gaussian": { 
		 "optdone": 1, 
		 "sigma_profile": "yes", 
		 "theory": "DFT", 
		 "functional": "B3LYP", 
		 "basiset": "6-31G**", 
		 "properties": { 
			 "R2extent": 1832.4606, 
			 "electric_dipole_moment_norm": 3.78273775723, 
			 "electric_quadrupole_moment_norm": 13.7292193314, 
			 "total_energy": -460.118153491, 
			 "HOMO_LUMO_gap": 0.18192, 
			 "cosmo_polarized_energy": -12.17, 
			 "cosmo_cavitation_energy": 22.34, 
			 "cosmo_dispersion_energy": -16.35, 
			 "cosmo_repulsion_energy": 1.32, 
			 "cosmo_total_nonelectrostatic_energy": 7.3, 
			 "SMD_solvation_energy": 5.34 
		},
		"coords": [
			{
				"x": 0.9567669614,
				"y": -2.820080014,
				"z": 1.1499858832,
				"element": "C" 
			},
			{
				"x": 0.8230033646,
				"y": -1.4230759667,
				"z": 0.6013638855,
				"element": "C" 
			},
			{
				"x": -0.4126007411,
				"y": -0.7491548705,
				"z": 0.6814987899,
				"element": "C" 
			},
			{
				"x": -1.4392316532,
				"y": -1.425995172,
				"z": 1.2686572251,
				"element": "O" 
			},
			{
				"x": -0.5694336606,
				"y": 0.5513780967,
				"z": 0.1802332361,
				"element": "C" 
			},
			{
				"x": 0.5048499176,
				"y": 1.2013437453,
				"z": -0.4096802577,
				"element": "C" 
			},
			{
				"x": 1.7457849925,
				"y": 0.5555922537,
				"z": -0.5032194461,
				"element": "C" 
			},
			{
				"x": 2.8952766382,
				"y": 1.2339511271,
				"z": -1.1272051899,
				"element": "C" 
			},
			{
				"x": 2.8718903265,
				"y": 2.3592692767,
				"z": -1.5940112907,
				"element": "O" 
			},
			{
				"x": 1.8831448953,
				"y": -0.745849777,
				"z": 0.0041708496,
				"element": "C" 
			},
			{
				"x": 0.7210346775,
				"y": -2.8510909433,
				"z": 2.2193676025,
				"element": "H" 
			},
			{
				"x": 0.261682344,
				"y": -3.5085922838,
				"z": 0.6571083463,
				"element": "H" 
			},
			{
				"x": 1.9727340635,
				"y": -3.197766073,
				"z": 1.0102253771,
				"element": "H" 
			},
			{
				"x": -2.2309222838,
				"y": -0.8718070826,
				"z": 1.2685231148,
				"element": "H" 
			},
			{
				"x": -1.537032412,
				"y": 1.0435086155,
				"z": 0.2579823487,
				"element": "H" 
			},
			{
				"x": 0.40883362,
				"y": 2.2074665442,
				"z": -0.8049384705,
				"element": "H" 
			},
			{
				"x": 3.8307380977,
				"y": 0.6295255204,
				"z": -1.1482045425,
				"element": "H" 
			},
			{
				"x": 2.8487808519,
				"y": -1.2428229967,
				"z": -0.0709574614,
				"element": "H" 
			}
		],
		 "valence_orbital": [ 
			{
				"type": "occ",
				"energy": -0.3468,
				"method": "rhf"
			},
			{
				"type": "occ",
				"energy": -0.33441,
				"method": "rhf"
			},
			{
				"type": "occ",
				"energy": -0.26064,
				"method": "rhf"
			},
			{
				"type": "occ",
				"energy": -0.24636,
				"method": "rhf"
			},
			{
				"type": "occ",
				"energy": -0.23266,
				"method": "rhf"
			},
			{
				"type": "unocc",
				"energy": -0.05074,
				"method": "rhf"
			},
			{
				"type": "unocc",
				"energy": -0.01087,
				"method": "rhf"
			},
			{
				"type": "unocc",
				"energy": 0.04966,
				"method": "rhf"
			},
			{
				"type": "unocc",
				"energy": 0.05626,
				"method": "rhf"
			},
			{
				"type": "unocc",
				"energy": 0.10387,
				"method": "rhf"
			}
		],
		"cosmo_sigma_profile": { 
			"-0.025": 0.0,
			"-0.024": 0.0,
			"-0.023": 0.0,
			"-0.022": 0.0,
			"-0.021": 0.0,
			"-0.02": 0.0,
			"-0.019": 0.172105238799,
			"-0.018": 0.94534518615,
			"-0.017": 1.36948122057,
			"-0.016": 1.33926099702,
			"-0.015": 0.840825994983,
			"-0.014": 0.5184195599,
			"-0.013": 0.801634605415,
			"-0.012": 1.39306635011,
			"-0.011": 1.11832518926,
			"-0.01": 1.17721399605,
			"-0.009": 0.946762555106,
			"-0.008": 1.12316290575,
			"-0.007": 3.42590665249,
			"-0.006": 8.5493712172,
			"-0.005": 10.7905437505,
			"-0.004": 11.1212952139,
			"-0.003": 10.7623641277,
			"-0.002": 11.7966373233,
			"-0.001": 12.8356958717,
			"0.0": 14.6887691039,
			"0.001": 13.0423812766,
			"0.002": 14.2378691602,
			"0.003": 13.4319646147,
			"0.004": 11.4105941785,
			"0.005": 4.08853047179,
			"0.006": 2.63426020249,
			"0.007": 2.85716183209,
			"0.008": 3.17617178046,
			"0.009": 3.64158882928,
			"0.01": 3.39589555972,
			"0.011": 3.00884889291,
			"0.012": 4.58455849868,
			"0.013": 2.06853340262,
			"0.014": 0.25397955018,
			"0.015": 0.0,
			"0.016": 0.0,
			"0.017": 0.0,
			"0.018": 0.0,
			"0.019": 0.0,
			"0.02": 0.0,
			"0.021": 0.0,
			"0.022": 0.0,
			"0.023": 0.0,
			"0.024": 0.0,
			"0.025": 0.0
		}
	}
}
