{
	 "smiles": "CC1=CC=C(CN2CC(CC2=O)C(O)=O)C=C1", 
	 "Tm": 427.15, 
	 "num_atms": 32, 
	 "gaussian": { 
		 "optdone": 1, 
		 "sigma_profile": "yes", 
		 "theory": "DFT", 
		 "functional": "B3LYP", 
		 "basiset": "6-31G**", 
		 "properties": { 
			 "R2extent": 5162.1769, 
			 "electric_dipole_moment_norm": 5.9847132471, 
			 "electric_quadrupole_moment_norm": 19.5162537076, 
			 "total_energy": -784.879007983, 
			 "HOMO_LUMO_gap": 0.22607, 
			 "cosmo_polarized_energy": -23.81, 
			 "cosmo_cavitation_energy": 35.58, 
			 "cosmo_dispersion_energy": -24.26, 
			 "cosmo_repulsion_energy": 1.9, 
			 "cosmo_total_nonelectrostatic_energy": 13.22, 
			 "SMD_solvation_energy": 7.39 
		},
		"coords": [
			{
				"x": 5.1476893564,
				"y": -1.5253280573,
				"z": 2.2883842131,
				"element": "C" 
			},
			{
				"x": 3.853595665,
				"y": -0.8969723291,
				"z": 1.827101566,
				"element": "C" 
			},
			{
				"x": 3.2471849543,
				"y": 0.1348267287,
				"z": 2.5519791865,
				"element": "C" 
			},
			{
				"x": 2.0593903168,
				"y": 0.7222884754,
				"z": 2.1119329194,
				"element": "C" 
			},
			{
				"x": 1.4476415449,
				"y": 0.3017167631,
				"z": 0.9278356726,
				"element": "C" 
			},
			{
				"x": 0.1798275087,
				"y": 0.9757977777,
				"z": 0.4331503308,
				"element": "C" 
			},
			{
				"x": -0.8012838084,
				"y": 0.0439928056,
				"z": -0.0948753503,
				"element": "N" 
			},
			{
				"x": -1.4264984681,
				"y": -0.9846710738,
				"z": 0.714279051,
				"element": "C" 
			},
			{
				"x": -2.1248098911,
				"y": -1.8970821384,
				"z": -0.3423421795,
				"element": "C" 
			},
			{
				"x": -2.3424521481,
				"y": -0.9665175739,
				"z": -1.5443047558,
				"element": "C" 
			},
			{
				"x": -1.3187535308,
				"y": 0.1545828584,
				"z": -1.3658618577,
				"element": "C" 
			},
			{
				"x": -1.0156926124,
				"y": 1.0062806251,
				"z": -2.1832701571,
				"element": "O" 
			},
			{
				"x": -1.2095032496,
				"y": -3.0724569408,
				"z": -0.6980648795,
				"element": "C" 
			},
			{
				"x": -1.1349925119,
				"y": -4.0543148445,
				"z": 0.2405011947,
				"element": "O" 
			},
			{
				"x": -0.5576586033,
				"y": -3.1542470799,
				"z": -1.7081735986,
				"element": "O" 
			},
			{
				"x": 2.0479264098,
				"y": -0.7347269283,
				"z": 0.1987832273,
				"element": "C" 
			},
			{
				"x": 3.2280473737,
				"y": -1.3240682883,
				"z": 0.6460592526,
				"element": "C" 
			},
			{
				"x": 5.9956642046,
				"y": -1.1735470173,
				"z": 1.6878006296,
				"element": "H" 
			},
			{
				"x": 5.1192264939,
				"y": -2.6160157094,
				"z": 2.1949859197,
				"element": "H" 
			},
			{
				"x": 5.3617473544,
				"y": -1.2810715904,
				"z": 3.3328167688,
				"element": "H" 
			},
			{
				"x": 3.7037609713,
				"y": 0.4790314769,
				"z": 3.4768853327,
				"element": "H" 
			},
			{
				"x": 1.6049117314,
				"y": 1.5175993053,
				"z": 2.6988696515,
				"element": "H" 
			},
			{
				"x": -0.2620530925,
				"y": 1.5715155692,
				"z": 1.2445522689,
				"element": "H" 
			},
			{
				"x": 0.3948798653,
				"y": 1.6611462765,
				"z": -0.3943799414,
				"element": "H" 
			},
			{
				"x": -0.6772365314,
				"y": -1.5193937254,
				"z": 1.3085722731,
				"element": "H" 
			},
			{
				"x": -2.163015872,
				"y": -0.5560215508,
				"z": 1.4114248521,
				"element": "H" 
			},
			{
				"x": -3.0647722376,
				"y": -2.2926998277,
				"z": 0.0588156952,
				"element": "H" 
			},
			{
				"x": -3.3463131237,
				"y": -0.5288393278,
				"z": -1.5455193525,
				"element": "H" 
			},
			{
				"x": -2.1797913495,
				"y": -1.4667279821,
				"z": -2.499741894,
				"element": "H" 
			},
			{
				"x": -1.7282012115,
				"y": -3.8635797693,
				"z": 0.980855863,
				"element": "H" 
			},
			{
				"x": 1.5810287569,
				"y": -1.090280827,
				"z": -0.7158593255,
				"element": "H" 
			},
			{
				"x": 3.6718057345,
				"y": -2.1308160805,
				"z": 0.0675074234,
				"element": "H" 
			}
		],
		 "valence_orbital": [ 
			{
				"type": "occ",
				"energy": -0.28279,
				"method": "rhf"
			},
			{
				"type": "occ",
				"energy": -0.25234,
				"method": "rhf"
			},
			{
				"type": "occ",
				"energy": -0.25009,
				"method": "rhf"
			},
			{
				"type": "occ",
				"energy": -0.2477,
				"method": "rhf"
			},
			{
				"type": "occ",
				"energy": -0.23275,
				"method": "rhf"
			},
			{
				"type": "unocc",
				"energy": -0.00668,
				"method": "rhf"
			},
			{
				"type": "unocc",
				"energy": -0.00304,
				"method": "rhf"
			},
			{
				"type": "unocc",
				"energy": -0.00125,
				"method": "rhf"
			},
			{
				"type": "unocc",
				"energy": 0.02781,
				"method": "rhf"
			},
			{
				"type": "unocc",
				"energy": 0.04105,
				"method": "rhf"
			}
		],
		"cosmo_sigma_profile": { 
			"-0.025": 0.0,
			"-0.024": 0.0,
			"-0.023": 0.0,
			"-0.022": 0.0,
			"-0.021": 0.0,
			"-0.02": 0.0270740731596,
			"-0.019": 1.09516983832,
			"-0.018": 0.763935526983,
			"-0.017": 1.57288777444,
			"-0.016": 1.17455607435,
			"-0.015": 1.07353630968,
			"-0.014": 1.02599343595,
			"-0.013": 1.26599568868,
			"-0.012": 0.981764970535,
			"-0.011": 1.0038368133,
			"-0.01": 1.9815294978,
			"-0.009": 1.65185171926,
			"-0.008": 2.61685524295,
			"-0.007": 4.14004941352,
			"-0.006": 14.5382090378,
			"-0.005": 21.6814340943,
			"-0.004": 23.9437773777,
			"-0.003": 25.6306182924,
			"-0.002": 24.577100036,
			"-0.001": 19.6523782509,
			"0.0": 20.6376338372,
			"0.001": 15.4270795413,
			"0.002": 10.7540747059,
			"0.003": 10.3864795995,
			"0.004": 10.6485438944,
			"0.005": 11.4720773274,
			"0.006": 9.42519187763,
			"0.007": 5.07781924002,
			"0.008": 3.62686211035,
			"0.009": 4.57713481768,
			"0.01": 6.17740043768,
			"0.011": 5.99351730435,
			"0.012": 5.58605913693,
			"0.013": 5.42594799725,
			"0.014": 4.22279484621,
			"0.015": 0.814065764298,
			"0.016": 0.0,
			"0.017": 0.0,
			"0.018": 0.0,
			"0.019": 0.0,
			"0.02": 0.0,
			"0.021": 0.0,
			"0.022": 0.0,
			"0.023": 0.0,
			"0.024": 0.0,
			"0.025": 0.0
		}
	}
}
