{
	 "smiles": "COC1=C(Cl)C(C)=C2OC3=C(C(C)=C(Cl)C(O)=C3Cl)C(=O)OC2=C1Cl", 
	 "Tm": 505.15, 
	 "num_atms": 35, 
	 "gaussian": { 
		 "optdone": 1, 
		 "sigma_profile": "yes", 
		 "theory": "DFT", 
		 "functional": "B3LYP", 
		 "basiset": "6-31G**", 
		 "properties": { 
			 "R2extent": 11867.8592, 
			 "electric_dipole_moment_norm": 4.23081139972, 
			 "electric_quadrupole_moment_norm": 18.6052734479, 
			 "total_energy": -2832.5759032, 
			 "HOMO_LUMO_gap": 0.18766, 
			 "cosmo_polarized_energy": -13.79, 
			 "cosmo_cavitation_energy": 45.09, 
			 "cosmo_dispersion_energy": -32.36, 
			 "cosmo_repulsion_energy": 2.41, 
			 "cosmo_total_nonelectrostatic_energy": 15.13, 
			 "SMD_solvation_energy": 8.89 
		},
		"coords": [
			{
				"x": 1.4742867752,
				"y": 4.8325874693,
				"z": -0.0421757771,
				"element": "C" 
			},
			{
				"x": 2.5056964362,
				"y": 3.9504032858,
				"z": -0.5110124695,
				"element": "O" 
			},
			{
				"x": 2.1775505178,
				"y": 2.6310599478,
				"z": -0.5458424546,
				"element": "C" 
			},
			{
				"x": 1.6659969882,
				"y": 2.0438033248,
				"z": -1.713267144,
				"element": "C" 
			},
			{
				"x": 1.4001816478,
				"y": 3.0839898219,
				"z": -3.0973443595,
				"element": "Cl" 
			},
			{
				"x": 1.3706857571,
				"y": 0.6742741894,
				"z": -1.8117095679,
				"element": "C" 
			},
			{
				"x": 0.8725127658,
				"y": 0.0638811698,
				"z": -3.0948140807,
				"element": "C" 
			},
			{
				"x": 1.5915413343,
				"y": -0.1014033432,
				"z": -0.6665932527,
				"element": "C" 
			},
			{
				"x": 1.3169783177,
				"y": -1.4693841752,
				"z": -0.6957777104,
				"element": "O" 
			},
			{
				"x": 0.3432549974,
				"y": -1.8972645763,
				"z": 0.1815774334,
				"element": "C" 
			},
			{
				"x": 0.4736444006,
				"y": -1.7256172635,
				"z": 1.5706285883,
				"element": "C" 
			},
			{
				"x": -0.5596189759,
				"y": -2.1536700775,
				"z": 2.4447983361,
				"element": "C" 
			},
			{
				"x": -0.49427274,
				"y": -1.9364584914,
				"z": 3.9370642978,
				"element": "C" 
			},
			{
				"x": -1.676422263,
				"y": -2.7822795542,
				"z": 1.8863997243,
				"element": "C" 
			},
			{
				"x": -2.9919719007,
				"y": -3.3413762738,
				"z": 2.8944039044,
				"element": "Cl" 
			},
			{
				"x": -1.7846991255,
				"y": -3.0294507547,
				"z": 0.5066567214,
				"element": "C" 
			},
			{
				"x": -2.8668955365,
				"y": -3.6780882799,
				"z": 0.047347466,
				"element": "O" 
			},
			{
				"x": -0.7633410552,
				"y": -2.56939714,
				"z": -0.3380872698,
				"element": "C" 
			},
			{
				"x": -0.9188687165,
				"y": -2.8894178053,
				"z": -2.0530350719,
				"element": "Cl" 
			},
			{
				"x": 1.7897896892,
				"y": -1.3283006696,
				"z": 2.1521799194,
				"element": "C" 
			},
			{
				"x": 2.2591830833,
				"y": -1.842036058,
				"z": 3.1357540131,
				"element": "O" 
			},
			{
				"x": 2.5420225125,
				"y": -0.3483257642,
				"z": 1.5470122761,
				"element": "O" 
			},
			{
				"x": 2.1371678102,
				"y": 0.4387631804,
				"z": 0.4988988218,
				"element": "C" 
			},
			{
				"x": 2.4162896095,
				"y": 1.8073321628,
				"z": 0.5650583776,
				"element": "C" 
			},
			{
				"x": 3.1007841566,
				"y": 2.4844823248,
				"z": 2.0123277419,
				"element": "Cl" 
			},
			{
				"x": 1.1909106702,
				"y": 4.5924665531,
				"z": 0.9881061257,
				"element": "H" 
			},
			{
				"x": 0.5940402819,
				"y": 4.7859915313,
				"z": -0.6923644016,
				"element": "H" 
			},
			{
				"x": 1.9006581438,
				"y": 5.8358107731,
				"z": -0.0778123228,
				"element": "H" 
			},
			{
				"x": 1.4791240063,
				"y": 0.4060116574,
				"z": -3.9372956895,
				"element": "H" 
			},
			{
				"x": 0.9128977387,
				"y": -1.0218447463,
				"z": -3.0467314765,
				"element": "H" 
			},
			{
				"x": -0.1611834389,
				"y": 0.3640941529,
				"z": -3.2998206452,
				"element": "H" 
			},
			{
				"x": -0.2102857149,
				"y": -2.8630539945,
				"z": 4.4470196893,
				"element": "H" 
			},
			{
				"x": 0.2387610658,
				"y": -1.1806888454,
				"z": 4.2092190962,
				"element": "H" 
			},
			{
				"x": -1.4753658067,
				"y": -1.6416910691,
				"z": 4.3151598717,
				"element": "H" 
			},
			{
				"x": -2.7941334322,
				"y": -3.7720026624,
				"z": -0.9161287109,
				"element": "H" 
			}
		],
		 "valence_orbital": [ 
			{
				"type": "occ",
				"energy": -0.29389,
				"method": "rhf"
			},
			{
				"type": "occ",
				"energy": -0.2634,
				"method": "rhf"
			},
			{
				"type": "occ",
				"energy": -0.25614,
				"method": "rhf"
			},
			{
				"type": "occ",
				"energy": -0.25169,
				"method": "rhf"
			},
			{
				"type": "occ",
				"energy": -0.2493,
				"method": "rhf"
			},
			{
				"type": "unocc",
				"energy": -0.06164,
				"method": "rhf"
			},
			{
				"type": "unocc",
				"energy": -0.0403,
				"method": "rhf"
			},
			{
				"type": "unocc",
				"energy": -0.0372,
				"method": "rhf"
			},
			{
				"type": "unocc",
				"energy": -0.03043,
				"method": "rhf"
			},
			{
				"type": "unocc",
				"energy": -0.0131,
				"method": "rhf"
			}
		],
		"cosmo_sigma_profile": { 
			"-0.025": 0.0,
			"-0.024": 0.0,
			"-0.023": 0.0,
			"-0.022": 0.0,
			"-0.021": 0.0,
			"-0.02": 0.0,
			"-0.019": 0.0,
			"-0.018": 0.0,
			"-0.017": 0.244955533529,
			"-0.016": 0.681610943161,
			"-0.015": 0.792793081815,
			"-0.014": 0.336548448245,
			"-0.013": 1.05621902361,
			"-0.012": 0.94016265712,
			"-0.011": 0.940418004608,
			"-0.01": 0.901164835087,
			"-0.009": 0.876992946959,
			"-0.008": 1.71120340638,
			"-0.007": 2.81882787973,
			"-0.006": 6.58506770368,
			"-0.005": 15.7988606411,
			"-0.004": 25.5470566554,
			"-0.003": 36.4943015161,
			"-0.002": 47.936301176,
			"-0.001": 49.7664463862,
			"0.0": 34.0660424168,
			"0.001": 23.8203159871,
			"0.002": 26.1787994136,
			"0.003": 23.8078690901,
			"0.004": 19.9812759308,
			"0.005": 9.8960290853,
			"0.006": 8.96308375683,
			"0.007": 6.95325874785,
			"0.008": 6.76804304703,
			"0.009": 6.77025777365,
			"0.01": 6.46507148736,
			"0.011": 2.83271494827,
			"0.012": 0.430646539573,
			"0.013": 0.0,
			"0.014": 0.0,
			"0.015": 0.0,
			"0.016": 0.0,
			"0.017": 0.0,
			"0.018": 0.0,
			"0.019": 0.0,
			"0.02": 0.0,
			"0.021": 0.0,
			"0.022": 0.0,
			"0.023": 0.0,
			"0.024": 0.0,
			"0.025": 0.0
		}
	}
}
