{
	 "smiles": "CCCCCCCCCCCCCCCCCCN=C=O", 
	 "Tm": 293.15, 
	 "num_atms": 58, 
	 "gaussian": { 
		 "optdone": 1, 
		 "sigma_profile": "yes", 
		 "theory": "DFT", 
		 "functional": "B3LYP", 
		 "basiset": "6-31G**", 
		 "properties": { 
			 "R2extent": 12844.0607, 
			 "electric_dipole_moment_norm": 3.133786995, 
			 "electric_quadrupole_moment_norm": 25.1653694934, 
			 "total_energy": -876.34321606, 
			 "HOMO_LUMO_gap": 0.299, 
			 "cosmo_polarized_energy": -5.25, 
			 "cosmo_cavitation_energy": 57.53, 
			 "cosmo_dispersion_energy": -36.57, 
			 "cosmo_repulsion_energy": 2.99, 
			 "cosmo_total_nonelectrostatic_energy": 23.95, 
			 "SMD_solvation_energy": 8.84 
		},
		"coords": [
			{
				"x": -3.5018021107,
				"y": -3.0668298845,
				"z": 2.0034307985,
				"element": "C" 
			},
			{
				"x": -4.5871937053,
				"y": -3.1068892533,
				"z": 0.9208497085,
				"element": "C" 
			},
			{
				"x": -4.677994812,
				"y": -1.8349545358,
				"z": 0.0615287207,
				"element": "C" 
			},
			{
				"x": -3.4505877328,
				"y": -1.564901152,
				"z": -0.8205329118,
				"element": "C" 
			},
			{
				"x": -3.6152443854,
				"y": -0.3227778466,
				"z": -1.7087223519,
				"element": "C" 
			},
			{
				"x": -2.3854052919,
				"y": 0.0309919857,
				"z": -2.5616440679,
				"element": "C" 
			},
			{
				"x": -2.0652060425,
				"y": -0.9889304284,
				"z": -3.6676113485,
				"element": "C" 
			},
			{
				"x": -0.9004576974,
				"y": -0.5989150227,
				"z": -4.6050831069,
				"element": "C" 
			},
			{
				"x": 0.5013735556,
				"y": -1.0812425261,
				"z": -4.1899063509,
				"element": "C" 
			},
			{
				"x": 1.0638980287,
				"y": -0.5035173323,
				"z": -2.883035596,
				"element": "C" 
			},
			{
				"x": 2.5194216399,
				"y": -0.925735133,
				"z": -2.6354616617,
				"element": "C" 
			},
			{
				"x": 3.1323406877,
				"y": -0.4887024593,
				"z": -1.2925641212,
				"element": "C" 
			},
			{
				"x": 3.2713086979,
				"y": 1.038517597,
				"z": -1.0909353408,
				"element": "C" 
			},
			{
				"x": 2.1072596105,
				"y": 1.729577643,
				"z": -0.3528879444,
				"element": "C" 
			},
			{
				"x": 2.0644336385,
				"y": 1.4258211096,
				"z": 1.152694609,
				"element": "C" 
			},
			{
				"x": 0.8476888706,
				"y": 2.0091444366,
				"z": 1.8922468499,
				"element": "C" 
			},
			{
				"x": 0.7305516402,
				"y": 3.5425096228,
				"z": 1.8896269426,
				"element": "C" 
			},
			{
				"x": 1.8940446933,
				"y": 4.2836357668,
				"z": 2.5643123772,
				"element": "C" 
			},
			{
				"x": 2.080352007,
				"y": 3.9105862698,
				"z": 3.9526863502,
				"element": "N" 
			},
			{
				"x": 1.5219632166,
				"y": 4.0217830473,
				"z": 5.0160852778,
				"element": "C" 
			},
			{
				"x": 1.0867354509,
				"y": 4.0606076615,
				"z": 6.1148385194,
				"element": "O" 
			},
			{
				"x": -3.5204957073,
				"y": -3.9755428718,
				"z": 2.6141732259,
				"element": "H" 
			},
			{
				"x": -2.4982355743,
				"y": -2.9822717306,
				"z": 1.5740111533,
				"element": "H" 
			},
			{
				"x": -3.6470635626,
				"y": -2.2127691045,
				"z": 2.6754740683,
				"element": "H" 
			},
			{
				"x": -4.4184014112,
				"y": -3.9730563926,
				"z": 0.2660619548,
				"element": "H" 
			},
			{
				"x": -5.5600748887,
				"y": -3.2760326148,
				"z": 1.4000006218,
				"element": "H" 
			},
			{
				"x": -5.5645119271,
				"y": -1.9077613852,
				"z": -0.5834112474,
				"element": "H" 
			},
			{
				"x": -4.8514752165,
				"y": -0.9684020319,
				"z": 0.7162136329,
				"element": "H" 
			},
			{
				"x": -2.5585727158,
				"y": -1.4360534065,
				"z": -0.1925060744,
				"element": "H" 
			},
			{
				"x": -3.2600074632,
				"y": -2.4493126778,
				"z": -1.4433239269,
				"element": "H" 
			},
			{
				"x": -4.4849453851,
				"y": -0.4613699345,
				"z": -2.367495975,
				"element": "H" 
			},
			{
				"x": -3.8576751547,
				"y": 0.5360720686,
				"z": -1.0677765363,
				"element": "H" 
			},
			{
				"x": -2.5560790894,
				"y": 1.0076885776,
				"z": -3.0349404983,
				"element": "H" 
			},
			{
				"x": -1.5184501819,
				"y": 0.1645872751,
				"z": -1.9023893205,
				"element": "H" 
			},
			{
				"x": -1.8578014232,
				"y": -1.9740019156,
				"z": -3.2287679074,
				"element": "H" 
			},
			{
				"x": -2.9742787609,
				"y": -1.1182471351,
				"z": -4.2707716603,
				"element": "H" 
			},
			{
				"x": -1.1030363865,
				"y": -1.0129545409,
				"z": -5.6008709086,
				"element": "H" 
			},
			{
				"x": -0.8879586463,
				"y": 0.492816452,
				"z": -4.7352098185,
				"element": "H" 
			},
			{
				"x": 1.1993125352,
				"y": -0.8399580677,
				"z": -5.004045293,
				"element": "H" 
			},
			{
				"x": 0.4932025656,
				"y": -2.178646805,
				"z": -4.1199320797,
				"element": "H" 
			},
			{
				"x": 0.4480491225,
				"y": -0.8291596248,
				"z": -2.0346363653,
				"element": "H" 
			},
			{
				"x": 0.9919607273,
				"y": 0.591702162,
				"z": -2.915179578,
				"element": "H" 
			},
			{
				"x": 3.1460066824,
				"y": -0.5411589471,
				"z": -3.4533504447,
				"element": "H" 
			},
			{
				"x": 2.5808829833,
				"y": -2.0210627081,
				"z": -2.7016345676,
				"element": "H" 
			},
			{
				"x": 2.5492064512,
				"y": -0.9241549044,
				"z": -0.4697658354,
				"element": "H" 
			},
			{
				"x": 4.126721322,
				"y": -0.9461957135,
				"z": -1.2204297281,
				"element": "H" 
			},
			{
				"x": 4.1932897412,
				"y": 1.2457984185,
				"z": -0.5314240984,
				"element": "H" 
			},
			{
				"x": 3.4094925182,
				"y": 1.5130649053,
				"z": -2.0717194433,
				"element": "H" 
			},
			{
				"x": 1.1498143889,
				"y": 1.4421734968,
				"z": -0.8058669046,
				"element": "H" 
			},
			{
				"x": 2.1985473031,
				"y": 2.8133093203,
				"z": -0.503340949,
				"element": "H" 
			},
			{
				"x": 2.9934593164,
				"y": 1.780342665,
				"z": 1.6201076003,
				"element": "H" 
			},
			{
				"x": 2.0580104019,
				"y": 0.3393246781,
				"z": 1.3051235687,
				"element": "H" 
			},
			{
				"x": 0.8665326764,
				"y": 1.6618508254,
				"z": 2.9321102304,
				"element": "H" 
			},
			{
				"x": -0.068908063,
				"y": 1.5975353337,
				"z": 1.4495532924,
				"element": "H" 
			},
			{
				"x": -0.2023419407,
				"y": 3.8312171191,
				"z": 2.3900879952,
				"element": "H" 
			},
			{
				"x": 0.6576470632,
				"y": 3.9199393291,
				"z": 0.8619668599,
				"element": "H" 
			},
			{
				"x": 2.8326905007,
				"y": 4.0696953177,
				"z": 2.0451184032,
				"element": "H" 
			},
			{
				"x": 1.7328072398,
				"y": 5.3664150018,
				"z": 2.4970712017,
				"element": "H" 
			}
		],
		 "valence_orbital": [ 
			{
				"type": "occ",
				"energy": -0.3039,
				"method": "rhf"
			},
			{
				"type": "occ",
				"energy": -0.29724,
				"method": "rhf"
			},
			{
				"type": "occ",
				"energy": -0.29522,
				"method": "rhf"
			},
			{
				"type": "occ",
				"energy": -0.2847,
				"method": "rhf"
			},
			{
				"type": "occ",
				"energy": -0.27243,
				"method": "rhf"
			},
			{
				"type": "unocc",
				"energy": 0.02657,
				"method": "rhf"
			},
			{
				"type": "unocc",
				"energy": 0.06043,
				"method": "rhf"
			},
			{
				"type": "unocc",
				"energy": 0.07204,
				"method": "rhf"
			},
			{
				"type": "unocc",
				"energy": 0.08516,
				"method": "rhf"
			},
			{
				"type": "unocc",
				"energy": 0.08977,
				"method": "rhf"
			}
		],
		"cosmo_sigma_profile": { 
			"-0.025": 0.0,
			"-0.024": 0.0,
			"-0.023": 0.0,
			"-0.022": 0.0,
			"-0.021": 0.0,
			"-0.02": 0.0,
			"-0.019": 0.0,
			"-0.018": 0.0,
			"-0.017": 0.0,
			"-0.016": 0.0,
			"-0.015": 0.0,
			"-0.014": 0.0,
			"-0.013": 0.0,
			"-0.012": 0.0,
			"-0.011": 0.0,
			"-0.01": 0.0,
			"-0.009": 0.0,
			"-0.008": 0.0,
			"-0.007": 0.0,
			"-0.006": 1.69413133054,
			"-0.005": 7.01734288977,
			"-0.004": 11.3800683196,
			"-0.003": 17.5296130919,
			"-0.002": 49.6925579392,
			"-0.001": 99.1387831433,
			"0.0": 107.527950422,
			"0.001": 84.026191144,
			"0.002": 34.7658280257,
			"0.003": 3.7213360529,
			"0.004": 4.46510962035,
			"0.005": 2.49048546372,
			"0.006": 2.99943551448,
			"0.007": 3.7686449863,
			"0.008": 6.0469932762,
			"0.009": 5.93085704633,
			"0.01": 0.0,
			"0.011": 0.0,
			"0.012": 0.0,
			"0.013": 0.0,
			"0.014": 0.0,
			"0.015": 0.0,
			"0.016": 0.0,
			"0.017": 0.0,
			"0.018": 0.0,
			"0.019": 0.0,
			"0.02": 0.0,
			"0.021": 0.0,
			"0.022": 0.0,
			"0.023": 0.0,
			"0.024": 0.0,
			"0.025": 0.0
		}
	}
}
