{
	 "smiles": "FS(F)(=O)=O", 
	 "Tm": 137.15, 
	 "num_atms": 5, 
	 "gaussian": { 
		 "optdone": 1, 
		 "sigma_profile": "yes", 
		 "theory": "DFT", 
		 "functional": "B3LYP", 
		 "basiset": "6-31G**", 
		 "properties": { 
			 "R2extent": 772.741, 
			 "electric_dipole_moment_norm": 0.919910761976, 
			 "electric_quadrupole_moment_norm": 3.04624890152, 
			 "total_energy": -748.230978254, 
			 "HOMO_LUMO_gap": 0.33296, 
			 "cosmo_polarized_energy": -2.81, 
			 "cosmo_cavitation_energy": 11.73, 
			 "cosmo_dispersion_energy": -9.79, 
			 "cosmo_repulsion_energy": 0.78, 
			 "cosmo_total_nonelectrostatic_energy": 2.73, 
			 "SMD_solvation_energy": 1.81 
		},
		"coords": [
			{
				"x": 0.1291364393,
				"y": -1.4110818797,
				"z": 1.5022178501,
				"element": "F" 
			},
			{
				"x": -1.0309519702,
				"y": -0.4718046923,
				"z": 0.9626096707,
				"element": "S" 
			},
			{
				"x": -1.179094333,
				"y": 0.3416135033,
				"z": 2.3176777209,
				"element": "F" 
			},
			{
				"x": -2.2100824914,
				"y": -1.270585369,
				"z": 0.7892501143,
				"element": "O" 
			},
			{
				"x": -0.4731076447,
				"y": 0.4058584377,
				"z": -0.025755356,
				"element": "O" 
			}
		],
		 "valence_orbital": [ 
			{
				"type": "occ",
				"energy": -0.47772,
				"method": "rhf"
			},
			{
				"type": "occ",
				"energy": -0.43121,
				"method": "rhf"
			},
			{
				"type": "occ",
				"energy": -0.42161,
				"method": "rhf"
			},
			{
				"type": "occ",
				"energy": -0.38325,
				"method": "rhf"
			},
			{
				"type": "occ",
				"energy": -0.36967,
				"method": "rhf"
			},
			{
				"type": "unocc",
				"energy": -0.03671,
				"method": "rhf"
			},
			{
				"type": "unocc",
				"energy": 0.00202,
				"method": "rhf"
			},
			{
				"type": "unocc",
				"energy": 0.05124,
				"method": "rhf"
			},
			{
				"type": "unocc",
				"energy": 0.1367,
				"method": "rhf"
			},
			{
				"type": "unocc",
				"energy": 0.24006,
				"method": "rhf"
			}
		],
		"cosmo_sigma_profile": { 
			"-0.025": 0.0,
			"-0.024": 0.0,
			"-0.023": 0.0,
			"-0.022": 0.0,
			"-0.021": 0.0,
			"-0.02": 0.0,
			"-0.019": 0.0,
			"-0.018": 0.0,
			"-0.017": 0.0,
			"-0.016": 0.0,
			"-0.015": 0.0,
			"-0.014": 0.0,
			"-0.013": 0.0,
			"-0.012": 0.0,
			"-0.011": 0.0,
			"-0.01": 0.687700412415,
			"-0.009": 1.2010632772,
			"-0.008": 1.32632005561,
			"-0.007": 2.39036972265,
			"-0.006": 3.01751829724,
			"-0.005": 3.75061072085,
			"-0.004": 3.75604418646,
			"-0.003": 6.38498839114,
			"-0.002": 8.76400961405,
			"-0.001": 15.6525704589,
			"0.0": 16.6496887826,
			"0.001": 2.27766876842,
			"0.002": 1.55758532892,
			"0.003": 3.54517336119,
			"0.004": 3.65462653358,
			"0.005": 9.56369948455,
			"0.006": 11.2546271882,
			"0.007": 0.0,
			"0.008": 0.0,
			"0.009": 0.0,
			"0.01": 0.0,
			"0.011": 0.0,
			"0.012": 0.0,
			"0.013": 0.0,
			"0.014": 0.0,
			"0.015": 0.0,
			"0.016": 0.0,
			"0.017": 0.0,
			"0.018": 0.0,
			"0.019": 0.0,
			"0.02": 0.0,
			"0.021": 0.0,
			"0.022": 0.0,
			"0.023": 0.0,
			"0.024": 0.0,
			"0.025": 0.0
		}
	}
}
