{
	 "smiles": "CC1=C(SC=N1)C(Cl)=O", 
	 "Tm": 336.15, 
	 "num_atms": 13, 
	 "gaussian": { 
		 "optdone": 1, 
		 "sigma_profile": "yes", 
		 "theory": "DFT", 
		 "functional": "B3LYP", 
		 "basiset": "6-31G**", 
		 "properties": { 
			 "R2extent": 2372.4473, 
			 "electric_dipole_moment_norm": 2.74188877236, 
			 "electric_quadrupole_moment_norm": 7.32968924171, 
			 "total_energy": -1181.29236214, 
			 "HOMO_LUMO_gap": 0.183, 
			 "cosmo_polarized_energy": -7.04, 
			 "cosmo_cavitation_energy": 20.9, 
			 "cosmo_dispersion_energy": -16.21, 
			 "cosmo_repulsion_energy": 1.27, 
			 "cosmo_total_nonelectrostatic_energy": 5.96, 
			 "SMD_solvation_energy": 3.01 
		},
		"coords": [
			{
				"x": -0.4286872601,
				"y": 0.8076073306,
				"z": -3.3277349047,
				"element": "C" 
			},
			{
				"x": -1.0846140287,
				"y": 0.00833518,
				"z": -2.2391366773,
				"element": "C" 
			},
			{
				"x": -1.2818445893,
				"y": 0.343368135,
				"z": -0.9025314598,
				"element": "C" 
			},
			{
				"x": -2.105081465,
				"y": -0.9641672741,
				"z": -0.0713299062,
				"element": "S" 
			},
			{
				"x": -2.114758552,
				"y": -1.8340724614,
				"z": -1.560187137,
				"element": "C" 
			},
			{
				"x": -1.5672374896,
				"y": -1.2321868842,
				"z": -2.5828858644,
				"element": "N" 
			},
			{
				"x": -0.9650258327,
				"y": 1.5002582614,
				"z": -0.0755443899,
				"element": "C" 
			},
			{
				"x": -0.1097456155,
				"y": 2.8629308844,
				"z": -0.9251942927,
				"element": "Cl" 
			},
			{
				"x": -1.2216735395,
				"y": 1.6111809275,
				"z": 1.0900144292,
				"element": "O" 
			},
			{
				"x": 0.6113659615,
				"y": 1.0412425037,
				"z": -3.0849359545,
				"element": "H" 
			},
			{
				"x": -0.9399568013,
				"y": 1.759913485,
				"z": -3.4919244505,
				"element": "H" 
			},
			{
				"x": -0.4599168995,
				"y": 0.2199939277,
				"z": -4.2460651231,
				"element": "H" 
			},
			{
				"x": -2.5556238884,
				"y": -2.8230040156,
				"z": -1.6210442691,
				"element": "H" 
			}
		],
		 "valence_orbital": [ 
			{
				"type": "occ",
				"energy": -0.32701,
				"method": "rhf"
			},
			{
				"type": "occ",
				"energy": -0.31413,
				"method": "rhf"
			},
			{
				"type": "occ",
				"energy": -0.306,
				"method": "rhf"
			},
			{
				"type": "occ",
				"energy": -0.28691,
				"method": "rhf"
			},
			{
				"type": "occ",
				"energy": -0.27442,
				"method": "rhf"
			},
			{
				"type": "unocc",
				"energy": -0.09142,
				"method": "rhf"
			},
			{
				"type": "unocc",
				"energy": -0.01197,
				"method": "rhf"
			},
			{
				"type": "unocc",
				"energy": -0.01173,
				"method": "rhf"
			},
			{
				"type": "unocc",
				"energy": 0.01715,
				"method": "rhf"
			},
			{
				"type": "unocc",
				"energy": 0.05505,
				"method": "rhf"
			}
		],
		"cosmo_sigma_profile": { 
			"-0.025": 0.0,
			"-0.024": 0.0,
			"-0.023": 0.0,
			"-0.022": 0.0,
			"-0.021": 0.0,
			"-0.02": 0.0,
			"-0.019": 0.0,
			"-0.018": 0.0,
			"-0.017": 0.0,
			"-0.016": 0.0,
			"-0.015": 0.0,
			"-0.014": 0.0,
			"-0.013": 0.0,
			"-0.012": 0.112921284635,
			"-0.011": 2.56631727477,
			"-0.01": 2.34125736477,
			"-0.009": 1.54782848295,
			"-0.008": 2.30806288774,
			"-0.007": 1.32349806762,
			"-0.006": 2.69136391629,
			"-0.005": 7.78837586876,
			"-0.004": 12.3587207263,
			"-0.003": 13.8377184273,
			"-0.002": 21.2046292214,
			"-0.001": 20.3515099298,
			"0.0": 17.0256059783,
			"0.001": 13.7857263125,
			"0.002": 8.54077117976,
			"0.003": 8.29613101404,
			"0.004": 9.46797872927,
			"0.005": 5.22373854588,
			"0.006": 3.9976415147,
			"0.007": 3.71004538012,
			"0.008": 5.09589292649,
			"0.009": 4.19708332613,
			"0.01": 1.40513695595,
			"0.011": 1.16875110635,
			"0.012": 0.922997873131,
			"0.013": 0.675734668941,
			"0.014": 0.550838031002,
			"0.015": 0.0,
			"0.016": 0.0,
			"0.017": 0.0,
			"0.018": 0.0,
			"0.019": 0.0,
			"0.02": 0.0,
			"0.021": 0.0,
			"0.022": 0.0,
			"0.023": 0.0,
			"0.024": 0.0,
			"0.025": 0.0
		}
	}
}
