{
	 "smiles": "CNC1=NNC(=C1)C1=CC(OC)=CC=C1", 
	 "Tm": 383.15, 
	 "num_atms": 28, 
	 "gaussian": { 
		 "optdone": 1, 
		 "sigma_profile": "yes", 
		 "theory": "DFT", 
		 "functional": "B3LYP", 
		 "basiset": "6-31G**", 
		 "properties": { 
			 "R2extent": 4744.5456, 
			 "electric_dipole_moment_norm": 1.41948117282, 
			 "electric_quadrupole_moment_norm": 12.4911539559, 
			 "total_energy": -666.453286128, 
			 "HOMO_LUMO_gap": 0.16472, 
			 "cosmo_polarized_energy": -14.05, 
			 "cosmo_cavitation_energy": 31.99, 
			 "cosmo_dispersion_energy": -23.4, 
			 "cosmo_repulsion_energy": 1.83, 
			 "cosmo_total_nonelectrostatic_energy": 10.43, 
			 "SMD_solvation_energy": 4.14 
		},
		"coords": [
			{
				"x": -2.1128485199,
				"y": 2.6991421837,
				"z": -3.406251988,
				"element": "C" 
			},
			{
				"x": -1.9567173912,
				"y": 3.1804298553,
				"z": -2.044174762,
				"element": "N" 
			},
			{
				"x": -1.0994415644,
				"y": 2.5025842715,
				"z": -1.1870468729,
				"element": "C" 
			},
			{
				"x": -0.5367902475,
				"y": 3.143599689,
				"z": -0.1578465968,
				"element": "N" 
			},
			{
				"x": 0.2035373321,
				"y": 2.1853934613,
				"z": 0.4612634009,
				"element": "N" 
			},
			{
				"x": 0.1062539321,
				"y": 0.9592380618,
				"z": -0.1235197658,
				"element": "C" 
			},
			{
				"x": -0.7314496946,
				"y": 1.13179094,
				"z": -1.2190674675,
				"element": "C" 
			},
			{
				"x": 0.8093895209,
				"y": -0.2227043398,
				"z": 0.3845942742,
				"element": "C" 
			},
			{
				"x": 2.0289240873,
				"y": -0.0817983397,
				"z": 1.0760379561,
				"element": "C" 
			},
			{
				"x": 2.6899365052,
				"y": -1.2090420848,
				"z": 1.5714041605,
				"element": "C" 
			},
			{
				"x": 3.8738107527,
				"y": -1.172973337,
				"z": 2.2499181046,
				"element": "O" 
			},
			{
				"x": 4.4833073013,
				"y": 0.0869178936,
				"z": 2.4787919119,
				"element": "C" 
			},
			{
				"x": 2.1464242603,
				"y": -2.4869570351,
				"z": 1.3695051612,
				"element": "C" 
			},
			{
				"x": 0.9484515757,
				"y": -2.6219078057,
				"z": 0.6775015457,
				"element": "C" 
			},
			{
				"x": 0.2731939271,
				"y": -1.502214805,
				"z": 0.1878508911,
				"element": "C" 
			},
			{
				"x": -2.5710003102,
				"y": 1.7044746176,
				"z": -3.4018194188,
				"element": "H" 
			},
			{
				"x": -2.7925327591,
				"y": 3.3666283602,
				"z": -3.9418047476,
				"element": "H" 
			},
			{
				"x": -1.1686090001,
				"y": 2.6344363159,
				"z": -3.9712197128,
				"element": "H" 
			},
			{
				"x": -1.8402370124,
				"y": 4.1824362611,
				"z": -1.9640925677,
				"element": "H" 
			},
			{
				"x": 0.6093626891,
				"y": 2.3945536198,
				"z": 1.3589858405,
				"element": "H" 
			},
			{
				"x": -0.9949076644,
				"y": 0.3856204608,
				"z": -1.9521231379,
				"element": "H" 
			},
			{
				"x": 2.4657101492,
				"y": 0.9039904618,
				"z": 1.1834124565,
				"element": "H" 
			},
			{
				"x": 3.8399306001,
				"y": 0.7467373155,
				"z": 3.0756626382,
				"element": "H" 
			},
			{
				"x": 4.7388182801,
				"y": 0.5915991243,
				"z": 1.5380199573,
				"element": "H" 
			},
			{
				"x": 5.3992073755,
				"y": -0.1178213405,
				"z": 3.035201294,
				"element": "H" 
			},
			{
				"x": 2.6814927375,
				"y": -3.346665033,
				"z": 1.7585807883,
				"element": "H" 
			},
			{
				"x": 0.5287786655,
				"y": -3.6121851404,
				"z": 0.5253618489,
				"element": "H" 
			},
			{
				"x": -0.6761955281,
				"y": -1.6131036322,
				"z": -0.325025192,
				"element": "H" 
			}
		],
		 "valence_orbital": [ 
			{
				"type": "occ",
				"energy": -0.27958,
				"method": "rhf"
			},
			{
				"type": "occ",
				"energy": -0.26618,
				"method": "rhf"
			},
			{
				"type": "occ",
				"energy": -0.23286,
				"method": "rhf"
			},
			{
				"type": "occ",
				"energy": -0.21333,
				"method": "rhf"
			},
			{
				"type": "occ",
				"energy": -0.18895,
				"method": "rhf"
			},
			{
				"type": "unocc",
				"energy": -0.02423,
				"method": "rhf"
			},
			{
				"type": "unocc",
				"energy": 0.00657,
				"method": "rhf"
			},
			{
				"type": "unocc",
				"energy": 0.05586,
				"method": "rhf"
			},
			{
				"type": "unocc",
				"energy": 0.07671,
				"method": "rhf"
			},
			{
				"type": "unocc",
				"energy": 0.09653,
				"method": "rhf"
			}
		],
		"cosmo_sigma_profile": { 
			"-0.025": 0.0,
			"-0.024": 0.0,
			"-0.023": 0.0,
			"-0.022": 0.0,
			"-0.021": 0.0,
			"-0.02": 0.0,
			"-0.019": 0.0,
			"-0.018": 0.0,
			"-0.017": 0.0,
			"-0.016": 0.087239877189,
			"-0.015": 1.20700434893,
			"-0.014": 0.741327355362,
			"-0.013": 0.880811195256,
			"-0.012": 2.11070121078,
			"-0.011": 1.90988790791,
			"-0.01": 2.30846491096,
			"-0.009": 2.77422297717,
			"-0.008": 1.54546357362,
			"-0.007": 3.25049639928,
			"-0.006": 11.5534138733,
			"-0.005": 22.2106626709,
			"-0.004": 22.9376410717,
			"-0.003": 23.0051691046,
			"-0.002": 18.0533095232,
			"-0.001": 19.6398938273,
			"0.0": 11.4634765805,
			"0.001": 9.48092467895,
			"0.002": 12.1790475446,
			"0.003": 15.6853457089,
			"0.004": 18.2509837349,
			"0.005": 17.0304175857,
			"0.006": 9.15836716677,
			"0.007": 5.26221864293,
			"0.008": 4.06008512844,
			"0.009": 4.45699736051,
			"0.01": 2.33552008378,
			"0.011": 2.27010478017,
			"0.012": 2.29412198635,
			"0.013": 1.77575387805,
			"0.014": 1.62645634068,
			"0.015": 0.87638126504,
			"0.016": 1.0325328639,
			"0.017": 0.449986765404,
			"0.018": 0.0,
			"0.019": 0.0,
			"0.02": 0.0,
			"0.021": 0.0,
			"0.022": 0.0,
			"0.023": 0.0,
			"0.024": 0.0,
			"0.025": 0.0
		}
	}
}
