{
	 "smiles": "CCI", 
	 "Tm": 163.15, 
	 "num_atms": 8, 
	 "gaussian": { 
		 "optdone": 1, 
		 "sigma_profile": "no", 
		 "theory": "DFT", 
		 "functional": "B3LYP", 
		 "basiset": "6-31G**", 
		 "properties": { 
			 "R2extent": 684.3789, 
			 "electric_dipole_moment_norm": 2.21863474687, 
			 "electric_quadrupole_moment_norm": 4.88855611198, 
			 "total_energy": -90.6231655613, 
			 "HOMO_LUMO_gap": 0.21471, 
			 "cosmo_polarized_energy": -100842.09, 
			 "cosmo_cavitation_energy": 13.89, 
			 "cosmo_dispersion_energy": -12.06, 
			 "cosmo_repulsion_energy": 1.07, 
			 "cosmo_total_nonelectrostatic_energy": 2.9, 
			 "SMD_solvation_energy": 1.79 
		},
		"coords": [
			{
				"x": 0.2378624053,
				"y": 3.1105264297,
				"z": -0.0051189712,
				"element": "C" 
			},
			{
				"x": 0.4899860537,
				"y": 1.7148647716,
				"z": 0.5375375569,
				"element": "C" 
			},
			{
				"x": -0.9976465729,
				"y": 1.115441919,
				"z": 2.0320023856,
				"element": "I" 
			},
			{
				"x": 0.2790597155,
				"y": 3.8639658495,
				"z": 0.7854024492,
				"element": "H" 
			},
			{
				"x": 1.0129806381,
				"y": 3.3491800215,
				"z": -0.744801121,
				"element": "H" 
			},
			{
				"x": -0.7351686531,
				"y": 3.1819119066,
				"z": -0.4974617162,
				"element": "H" 
			},
			{
				"x": 0.4252143625,
				"y": 0.9451334664,
				"z": -0.2303268826,
				"element": "H" 
			},
			{
				"x": 1.4432120508,
				"y": 1.6297756357,
				"z": 1.0575662992,
				"element": "H" 
			}
		],
		 "valence_orbital": [ 
			{
				"type": "occ",
				"energy": -0.40452,
				"method": "rhf"
			},
			{
				"type": "occ",
				"energy": -0.37636,
				"method": "rhf"
			},
			{
				"type": "occ",
				"energy": -0.33212,
				"method": "rhf"
			},
			{
				"type": "occ",
				"energy": -0.25734,
				"method": "rhf"
			},
			{
				"type": "occ",
				"energy": -0.25637,
				"method": "rhf"
			},
			{
				"type": "unocc",
				"energy": -0.04166,
				"method": "rhf"
			},
			{
				"type": "unocc",
				"energy": 0.04247,
				"method": "rhf"
			},
			{
				"type": "unocc",
				"energy": 0.04307,
				"method": "rhf"
			},
			{
				"type": "unocc",
				"energy": 0.05407,
				"method": "rhf"
			},
			{
				"type": "unocc",
				"energy": 0.12165,
				"method": "rhf"
			}
		],
		"cosmo_sigma_profile": { 
			"0.0": 0.0,
			"0.0": 0.0,
			"0.0": 0.0,
			"0.0": 0.0,
			"0.0": 0.0,
			"0.0": 0.0,
			"0.0": 0.0,
			"0.0": 0.0,
			"0.0": 0.0,
			"0.0": 0.0,
			"0.0": 0.0,
			"0.0": 0.0,
			"0.0": 0.0,
			"0.0": 0.0,
			"0.0": 0.0,
			"0.0": 0.0,
			"0.0": 0.0,
			"0.0": 0.0,
			"0.0": 0.0,
			"0.0": 0.0,
			"0.0": 0.0,
			"0.0": 0.0,
			"0.0": 0.0,
			"0.0": 0.0,
			"0.0": 0.0,
			"0.0": 0.0,
			"0.0": 0.0,
			"0.0": 0.0,
			"0.0": 0.0,
			"0.0": 0.0,
			"0.0": 0.0,
			"0.0": 0.0,
			"0.0": 0.0,
			"0.0": 0.0,
			"0.0": 0.0,
			"0.0": 0.0,
			"0.0": 0.0,
			"0.0": 0.0,
			"0.0": 0.0,
			"0.0": 0.0,
			"0.0": 0.0,
			"0.0": 0.0,
			"0.0": 0.0,
			"0.0": 0.0,
			"0.0": 0.0,
			"0.0": 0.0,
			"0.0": 0.0,
			"0.0": 0.0,
			"0.0": 0.0,
			"0.0": 0.0,
			"0.0": 0.0
		}
	}
}
