{
	 "smiles": "CCNC(=O)C1=CC=C(CN)C=C1", 
	 "Tm": 366.15, 
	 "num_atms": 27, 
	 "gaussian": { 
		 "optdone": 1, 
		 "sigma_profile": "yes", 
		 "theory": "DFT", 
		 "functional": "B3LYP", 
		 "basiset": "6-31G**", 
		 "properties": { 
			 "R2extent": 3374.0657, 
			 "electric_dipole_moment_norm": 3.60322357619, 
			 "electric_quadrupole_moment_norm": 13.3540345529, 
			 "total_energy": -574.242886274, 
			 "HOMO_LUMO_gap": 0.19891, 
			 "cosmo_polarized_energy": -15.36, 
			 "cosmo_cavitation_energy": 30.38, 
			 "cosmo_dispersion_energy": -21.57, 
			 "cosmo_repulsion_energy": 1.76, 
			 "cosmo_total_nonelectrostatic_energy": 10.57, 
			 "SMD_solvation_energy": 3.99 
		},
		"coords": [
			{
				"x": -0.2881090215,
				"y": 0.221500335,
				"z": 3.5165156346,
				"element": "C" 
			},
			{
				"x": -1.0906198915,
				"y": 0.5074260147,
				"z": 2.246060295,
				"element": "C" 
			},
			{
				"x": -1.6923318995,
				"y": -0.7008517783,
				"z": 1.68233782,
				"element": "N" 
			},
			{
				"x": -1.7319255668,
				"y": -1.1034849193,
				"z": 0.3646155007,
				"element": "C" 
			},
			{
				"x": -2.6440510906,
				"y": -1.8179189712,
				"z": -0.0425042067,
				"element": "O" 
			},
			{
				"x": -0.612123373,
				"y": -0.6968986878,
				"z": -0.5514461105,
				"element": "C" 
			},
			{
				"x": 0.7294224365,
				"y": -0.6339660443,
				"z": -0.1502004893,
				"element": "C" 
			},
			{
				"x": 1.7290263533,
				"y": -0.3333570849,
				"z": -1.0752265056,
				"element": "C" 
			},
			{
				"x": 1.4186687555,
				"y": -0.0793617043,
				"z": -2.4176731699,
				"element": "C" 
			},
			{
				"x": 2.4997262051,
				"y": 0.3209734933,
				"z": -3.4065017465,
				"element": "C" 
			},
			{
				"x": 2.7233034327,
				"y": 1.770234773,
				"z": -3.5415539081,
				"element": "N" 
			},
			{
				"x": 0.0753890803,
				"y": -0.1631226256,
				"z": -2.8148345086,
				"element": "C" 
			},
			{
				"x": -0.9246188219,
				"y": -0.4795406129,
				"z": -1.9006740129,
				"element": "C" 
			},
			{
				"x": -0.917925698,
				"y": -0.2391392493,
				"z": 4.2851524516,
				"element": "H" 
			},
			{
				"x": 0.542500407,
				"y": -0.461494976,
				"z": 3.3135341725,
				"element": "H" 
			},
			{
				"x": 0.1190613062,
				"y": 1.1501295855,
				"z": 3.9298422907,
				"element": "H" 
			},
			{
				"x": -1.8818008093,
				"y": 1.2380092709,
				"z": 2.4669176211,
				"element": "H" 
			},
			{
				"x": -0.4534607451,
				"y": 0.9606048883,
				"z": 1.4852476855,
				"element": "H" 
			},
			{
				"x": -2.4939636122,
				"y": -1.0654009851,
				"z": 2.1847007233,
				"element": "H" 
			},
			{
				"x": 0.9985720618,
				"y": -0.8568460577,
				"z": 0.8777541689,
				"element": "H" 
			},
			{
				"x": 2.7676685029,
				"y": -0.3087470413,
				"z": -0.7525164382,
				"element": "H" 
			},
			{
				"x": 3.4524133453,
				"y": -0.1360244213,
				"z": -3.1158702002,
				"element": "H" 
			},
			{
				"x": 2.2534771932,
				"y": -0.0694560553,
				"z": -4.4003899632,
				"element": "H" 
			},
			{
				"x": 1.8539384887,
				"y": 2.2190160839,
				"z": -3.8241801084,
				"element": "H" 
			},
			{
				"x": 2.9481997371,
				"y": 2.1611264232,
				"z": -2.6284541714,
				"element": "H" 
			},
			{
				"x": -0.1848796334,
				"y": 0.0062475027,
				"z": -3.8575438863,
				"element": "H" 
			},
			{
				"x": -1.9582571428,
				"y": -0.578657156,
				"z": -2.2155089381,
				"element": "H" 
			}
		],
		 "valence_orbital": [ 
			{
				"type": "occ",
				"energy": -0.26377,
				"method": "rhf"
			},
			{
				"type": "occ",
				"energy": -0.25886,
				"method": "rhf"
			},
			{
				"type": "occ",
				"energy": -0.25383,
				"method": "rhf"
			},
			{
				"type": "occ",
				"energy": -0.24133,
				"method": "rhf"
			},
			{
				"type": "occ",
				"energy": -0.23104,
				"method": "rhf"
			},
			{
				"type": "unocc",
				"energy": -0.03213,
				"method": "rhf"
			},
			{
				"type": "unocc",
				"energy": -0.00992,
				"method": "rhf"
			},
			{
				"type": "unocc",
				"energy": 0.05083,
				"method": "rhf"
			},
			{
				"type": "unocc",
				"energy": 0.07491,
				"method": "rhf"
			},
			{
				"type": "unocc",
				"energy": 0.08811,
				"method": "rhf"
			}
		],
		"cosmo_sigma_profile": { 
			"-0.025": 0.0,
			"-0.024": 0.0,
			"-0.023": 0.0,
			"-0.022": 0.0,
			"-0.021": 0.0,
			"-0.02": 0.0,
			"-0.019": 0.0,
			"-0.018": 0.0,
			"-0.017": 0.0,
			"-0.016": 0.0,
			"-0.015": 0.0,
			"-0.014": 0.0,
			"-0.013": 0.390581874855,
			"-0.012": 1.2782037966,
			"-0.011": 0.653322407789,
			"-0.01": 1.57824868183,
			"-0.009": 3.73853023368,
			"-0.008": 3.83731109827,
			"-0.007": 3.51182052917,
			"-0.006": 9.53209290926,
			"-0.005": 19.0684196824,
			"-0.004": 23.3031526481,
			"-0.003": 23.3056522219,
			"-0.002": 25.1003149209,
			"-0.001": 20.4609417808,
			"0.0": 17.5059555554,
			"0.001": 13.7878242003,
			"0.002": 9.85544534325,
			"0.003": 10.076337837,
			"0.004": 11.2193998834,
			"0.005": 9.44460256071,
			"0.006": 2.33584390008,
			"0.007": 2.2041279908,
			"0.008": 2.67325991095,
			"0.009": 2.13743313031,
			"0.01": 2.00046216101,
			"0.011": 2.24300254907,
			"0.012": 2.73145397299,
			"0.013": 3.58882337316,
			"0.014": 6.17185641107,
			"0.015": 2.25285869254,
			"0.016": 0.528966336231,
			"0.017": 0.556004616658,
			"0.018": 0.68688980491,
			"0.019": 0.603501728108,
			"0.02": 0.231838402546,
			"0.021": 0.0,
			"0.022": 0.0,
			"0.023": 0.0,
			"0.024": 0.0,
			"0.025": 0.0
		}
	}
}
