{
	 "smiles": "CN1N=C(C)C(C(=O)C2=CC=C(Cl)C=C2Cl)=C1OCC(=O)C1=CC=CC=C1", 
	 "Tm": 385.15, 
	 "num_atms": 43, 
	 "gaussian": { 
		 "optdone": 1, 
		 "sigma_profile": "yes", 
		 "theory": "DFT", 
		 "functional": "B3LYP", 
		 "basiset": "6-31G**", 
		 "properties": { 
			 "R2extent": 13752.5349, 
			 "electric_dipole_moment_norm": 4.80111194933, 
			 "electric_quadrupole_moment_norm": 20.2248906684, 
			 "total_energy": -2027.29907312, 
			 "HOMO_LUMO_gap": 0.16611, 
			 "cosmo_polarized_energy": -18.26, 
			 "cosmo_cavitation_energy": 51.51, 
			 "cosmo_dispersion_energy": -34.02, 
			 "cosmo_repulsion_energy": 2.58, 
			 "cosmo_total_nonelectrostatic_energy": 20.07, 
			 "SMD_solvation_energy": 8.04 
		},
		"coords": [
			{
				"x": -2.9102544368,
				"y": -0.3064652424,
				"z": 0.0129759822,
				"element": "C" 
			},
			{
				"x": -1.9776893083,
				"y": 0.1323677519,
				"z": 1.0377655729,
				"element": "N" 
			},
			{
				"x": -2.4191302017,
				"y": 0.8851086559,
				"z": 2.0906888496,
				"element": "N" 
			},
			{
				"x": -1.3553720542,
				"y": 1.0994609867,
				"z": 2.8514782496,
				"element": "C" 
			},
			{
				"x": -1.4693158911,
				"y": 1.9155206786,
				"z": 4.0988842716,
				"element": "C" 
			},
			{
				"x": -0.1930796673,
				"y": 0.4461929222,
				"z": 2.3218782968,
				"element": "C" 
			},
			{
				"x": 1.1293572365,
				"y": 0.4347500422,
				"z": 2.9424091536,
				"element": "C" 
			},
			{
				"x": 1.4317171337,
				"y": 1.2061587754,
				"z": 3.8470637177,
				"element": "O" 
			},
			{
				"x": 2.1315581661,
				"y": -0.6208281456,
				"z": 2.5168279739,
				"element": "C" 
			},
			{
				"x": 1.7614049273,
				"y": -1.9727155584,
				"z": 2.5614879466,
				"element": "C" 
			},
			{
				"x": 2.6702082181,
				"y": -2.9961868224,
				"z": 2.303885211,
				"element": "C" 
			},
			{
				"x": 3.9822231257,
				"y": -2.6582556815,
				"z": 1.9763302197,
				"element": "C" 
			},
			{
				"x": 5.1480307426,
				"y": -3.9238727528,
				"z": 1.6387876506,
				"element": "Cl" 
			},
			{
				"x": 4.3886129708,
				"y": -1.3267102064,
				"z": 1.9019097346,
				"element": "C" 
			},
			{
				"x": 3.4609153867,
				"y": -0.3228314823,
				"z": 2.180928545,
				"element": "C" 
			},
			{
				"x": 4.0058012509,
				"y": 1.3391998543,
				"z": 2.0199462176,
				"element": "Cl" 
			},
			{
				"x": -0.6641971995,
				"y": -0.1533452855,
				"z": 1.1409158512,
				"element": "C" 
			},
			{
				"x": -0.0673644344,
				"y": -0.9313529765,
				"z": 0.2104154764,
				"element": "O" 
			},
			{
				"x": 1.0088083061,
				"y": -0.3677633473,
				"z": -0.5383701595,
				"element": "C" 
			},
			{
				"x": 0.5719617612,
				"y": 0.0076133545,
				"z": -1.960767979,
				"element": "C" 
			},
			{
				"x": -0.5874843737,
				"y": -0.1294330492,
				"z": -2.3147836082,
				"element": "O" 
			},
			{
				"x": 1.6187983862,
				"y": 0.5355295576,
				"z": -2.8853558143,
				"element": "C" 
			},
			{
				"x": 2.9472393593,
				"y": 0.7583031394,
				"z": -2.485861483,
				"element": "C" 
			},
			{
				"x": 3.8783398683,
				"y": 1.2574158146,
				"z": -3.3957776169,
				"element": "C" 
			},
			{
				"x": 3.4934456534,
				"y": 1.5359800339,
				"z": -4.7087484147,
				"element": "C" 
			},
			{
				"x": 2.1729167162,
				"y": 1.3175306047,
				"z": -5.1138254751,
				"element": "C" 
			},
			{
				"x": 1.2413423412,
				"y": 0.8219007139,
				"z": -4.207806014,
				"element": "C" 
			},
			{
				"x": -3.5941884456,
				"y": 0.5170959539,
				"z": -0.1965475481,
				"element": "H" 
			},
			{
				"x": -3.4861235769,
				"y": -1.1681205886,
				"z": 0.3652450329,
				"element": "H" 
			},
			{
				"x": -2.3459147262,
				"y": -0.5660287269,
				"z": -0.8820152709,
				"element": "H" 
			},
			{
				"x": -0.8422497419,
				"y": 2.80961164,
				"z": 4.0404705489,
				"element": "H" 
			},
			{
				"x": -2.511276868,
				"y": 2.2088761781,
				"z": 4.2452496731,
				"element": "H" 
			},
			{
				"x": -1.123364988,
				"y": 1.3540078441,
				"z": 4.9720399434,
				"element": "H" 
			},
			{
				"x": 0.7363065895,
				"y": -2.2227554802,
				"z": 2.815159461,
				"element": "H" 
			},
			{
				"x": 2.3684160731,
				"y": -4.0358751258,
				"z": 2.3556149074,
				"element": "H" 
			},
			{
				"x": 5.4069534362,
				"y": -1.0728602365,
				"z": 1.6344280783,
				"element": "H" 
			},
			{
				"x": 1.8001317891,
				"y": -1.1227864472,
				"z": -0.5837465702,
				"element": "H" 
			},
			{
				"x": 1.4169874428,
				"y": 0.5143451557,
				"z": -0.0339357031,
				"element": "H" 
			},
			{
				"x": 3.2670147686,
				"y": 0.5536307338,
				"z": -1.4690217617,
				"element": "H" 
			},
			{
				"x": 4.9023746966,
				"y": 1.4302504789,
				"z": -3.0793198525,
				"element": "H" 
			},
			{
				"x": 4.2211408018,
				"y": 1.9242029199,
				"z": -5.4155227133,
				"element": "H" 
			},
			{
				"x": 1.873862148,
				"y": 1.5352801728,
				"z": -6.1347686632,
				"element": "H" 
			},
			{
				"x": 0.2108366174,
				"y": 0.6462531925,
				"z": -4.4974119181,
				"element": "H" 
			}
		],
		 "valence_orbital": [ 
			{
				"type": "occ",
				"energy": -0.2718,
				"method": "rhf"
			},
			{
				"type": "occ",
				"energy": -0.26021,
				"method": "rhf"
			},
			{
				"type": "occ",
				"energy": -0.25075,
				"method": "rhf"
			},
			{
				"type": "occ",
				"energy": -0.24579,
				"method": "rhf"
			},
			{
				"type": "occ",
				"energy": -0.24115,
				"method": "rhf"
			},
			{
				"type": "unocc",
				"energy": -0.07504,
				"method": "rhf"
			},
			{
				"type": "unocc",
				"energy": -0.05776,
				"method": "rhf"
			},
			{
				"type": "unocc",
				"energy": -0.03334,
				"method": "rhf"
			},
			{
				"type": "unocc",
				"energy": -0.02334,
				"method": "rhf"
			},
			{
				"type": "unocc",
				"energy": -0.01549,
				"method": "rhf"
			}
		],
		"cosmo_sigma_profile": { 
			"-0.025": 0.0,
			"-0.024": 0.0,
			"-0.023": 0.0,
			"-0.022": 0.0,
			"-0.021": 0.0,
			"-0.02": 0.0,
			"-0.019": 0.0,
			"-0.018": 0.0,
			"-0.017": 0.0,
			"-0.016": 0.0,
			"-0.015": 0.0,
			"-0.014": 0.0,
			"-0.013": 0.0,
			"-0.012": 0.0,
			"-0.011": 0.0,
			"-0.01": 0.0100688149178,
			"-0.009": 1.98400629108,
			"-0.008": 7.90052394458,
			"-0.007": 14.4075959132,
			"-0.006": 22.5077274237,
			"-0.005": 26.2801659343,
			"-0.004": 29.2283229583,
			"-0.003": 30.8187704851,
			"-0.002": 30.4522650181,
			"-0.001": 34.121594585,
			"0.0": 37.5502358263,
			"0.001": 37.4305814618,
			"0.002": 30.4759753126,
			"0.003": 32.6972855162,
			"0.004": 28.6963508568,
			"0.005": 8.44341006057,
			"0.006": 7.61018000811,
			"0.007": 6.33353586843,
			"0.008": 7.36231414945,
			"0.009": 4.72428153213,
			"0.01": 5.61969517989,
			"0.011": 4.43761067433,
			"0.012": 4.00096244924,
			"0.013": 2.45750481164,
			"0.014": 0.932683914296,
			"0.015": 0.565785283618,
			"0.016": 0.0673459792695,
			"0.017": 0.0,
			"0.018": 0.0,
			"0.019": 0.0,
			"0.02": 0.0,
			"0.021": 0.0,
			"0.022": 0.0,
			"0.023": 0.0,
			"0.024": 0.0,
			"0.025": 0.0
		}
	}
}
