{
	 "smiles": "CC1=C(C=CC=C1)C1=NC(=CS1)C(O)=O", 
	 "Tm": 393.15, 
	 "num_atms": 24, 
	 "gaussian": { 
		 "optdone": 1, 
		 "sigma_profile": "yes", 
		 "theory": "DFT", 
		 "functional": "B3LYP", 
		 "basiset": "6-31G**", 
		 "properties": { 
			 "R2extent": 4343.5127, 
			 "electric_dipole_moment_norm": 5.8361325559, 
			 "electric_quadrupole_moment_norm": 18.6346434535, 
			 "total_energy": -1027.99794139, 
			 "HOMO_LUMO_gap": 0.17365, 
			 "cosmo_polarized_energy": -11.93, 
			 "cosmo_cavitation_energy": 30.12, 
			 "cosmo_dispersion_energy": -22.3, 
			 "cosmo_repulsion_energy": 1.67, 
			 "cosmo_total_nonelectrostatic_energy": 9.5, 
			 "SMD_solvation_energy": 5.76 
		},
		"coords": [
			{
				"x": 0.9634569386,
				"y": -1.4545121196,
				"z": 0.701016236,
				"element": "C" 
			},
			{
				"x": 1.2284494013,
				"y": 0.0257974431,
				"z": 0.5680174153,
				"element": "C" 
			},
			{
				"x": 0.3048115618,
				"y": 0.9350748608,
				"z": -0.008848095,
				"element": "C" 
			},
			{
				"x": 0.6318286865,
				"y": 2.3020756677,
				"z": -0.0815668418,
				"element": "C" 
			},
			{
				"x": 1.8425884242,
				"y": 2.7853218542,
				"z": 0.4016195513,
				"element": "C" 
			},
			{
				"x": 2.7541265957,
				"y": 1.8964355208,
				"z": 0.9702673083,
				"element": "C" 
			},
			{
				"x": 2.4397779496,
				"y": 0.5406636922,
				"z": 1.047403543,
				"element": "C" 
			},
			{
				"x": -1.0015826215,
				"y": 0.4993271212,
				"z": -0.5280341931,
				"element": "C" 
			},
			{
				"x": -1.2856868237,
				"y": -0.6629199658,
				"z": -1.0559469627,
				"element": "N" 
			},
			{
				"x": -2.6005544422,
				"y": -0.744300929,
				"z": -1.454998085,
				"element": "C" 
			},
			{
				"x": -3.3633199435,
				"y": 0.3680689504,
				"z": -1.2320038833,
				"element": "C" 
			},
			{
				"x": -2.4082558163,
				"y": 1.5852617205,
				"z": -0.4775069165,
				"element": "S" 
			},
			{
				"x": -3.0931446345,
				"y": -1.9984481576,
				"z": -2.095937818,
				"element": "C" 
			},
			{
				"x": -2.1448099041,
				"y": -2.9483498903,
				"z": -2.2294307979,
				"element": "O" 
			},
			{
				"x": -4.2335939848,
				"y": -2.1574925218,
				"z": -2.4651834361,
				"element": "O" 
			},
			{
				"x": -0.0398033502,
				"y": -1.6586923632,
				"z": 1.084614926,
				"element": "H" 
			},
			{
				"x": 1.0355925881,
				"y": -1.9604107667,
				"z": -0.2668608277,
				"element": "H" 
			},
			{
				"x": 1.6924881112,
				"y": -1.9094287026,
				"z": 1.376663585,
				"element": "H" 
			},
			{
				"x": -0.0667862669,
				"y": 2.9908205247,
				"z": -0.5476183788,
				"element": "H" 
			},
			{
				"x": 2.0730387958,
				"y": 3.8434640204,
				"z": 0.327083602,
				"element": "H" 
			},
			{
				"x": 3.7052789726,
				"y": 2.2545301534,
				"z": 1.3530216597,
				"element": "H" 
			},
			{
				"x": 3.1505496523,
				"y": -0.1463635752,
				"z": 1.498691418,
				"element": "H" 
			},
			{
				"x": -4.4073646328,
				"y": 0.5043895131,
				"z": -1.4730466899,
				"element": "H" 
			},
			{
				"x": -1.3147852571,
				"y": -2.585212051,
				"z": -1.8683163189,
				"element": "H" 
			}
		],
		 "valence_orbital": [ 
			{
				"type": "occ",
				"energy": -0.30346,
				"method": "rhf"
			},
			{
				"type": "occ",
				"energy": -0.29116,
				"method": "rhf"
			},
			{
				"type": "occ",
				"energy": -0.2707,
				"method": "rhf"
			},
			{
				"type": "occ",
				"energy": -0.26199,
				"method": "rhf"
			},
			{
				"type": "occ",
				"energy": -0.24306,
				"method": "rhf"
			},
			{
				"type": "unocc",
				"energy": -0.06941,
				"method": "rhf"
			},
			{
				"type": "unocc",
				"energy": -0.03716,
				"method": "rhf"
			},
			{
				"type": "unocc",
				"energy": -0.02078,
				"method": "rhf"
			},
			{
				"type": "unocc",
				"energy": 0.00345,
				"method": "rhf"
			},
			{
				"type": "unocc",
				"energy": 0.01799,
				"method": "rhf"
			}
		],
		"cosmo_sigma_profile": { 
			"-0.025": 0.0,
			"-0.024": 0.0,
			"-0.023": 0.0,
			"-0.022": 0.0,
			"-0.021": 0.0,
			"-0.02": 0.0,
			"-0.019": 0.0,
			"-0.018": 0.0,
			"-0.017": 0.0,
			"-0.016": 0.0,
			"-0.015": 0.0,
			"-0.014": 0.0,
			"-0.013": 0.212958406339,
			"-0.012": 0.677251246782,
			"-0.011": 0.884689831401,
			"-0.01": 2.42171216799,
			"-0.009": 2.1654710194,
			"-0.008": 1.96917232827,
			"-0.007": 4.02777286477,
			"-0.006": 10.9236664311,
			"-0.005": 15.3257106269,
			"-0.004": 19.513370198,
			"-0.003": 16.2490803845,
			"-0.002": 21.4213881115,
			"-0.001": 25.3815096707,
			"0.0": 29.751076182,
			"0.001": 19.2912010972,
			"0.002": 13.2775568469,
			"0.003": 12.0776775755,
			"0.004": 13.4103800731,
			"0.005": 6.60117262839,
			"0.006": 2.64080857384,
			"0.007": 2.92278376554,
			"0.008": 2.56758842319,
			"0.009": 3.71540673397,
			"0.01": 5.15067741728,
			"0.011": 4.73848075719,
			"0.012": 5.07264159769,
			"0.013": 1.46003976781,
			"0.014": 0.0213208908773,
			"0.015": 0.0,
			"0.016": 0.0,
			"0.017": 0.0,
			"0.018": 0.0,
			"0.019": 0.0,
			"0.02": 0.0,
			"0.021": 0.0,
			"0.022": 0.0,
			"0.023": 0.0,
			"0.024": 0.0,
			"0.025": 0.0
		}
	}
}
