{
	 "smiles": "CCCCCCC(=O)OC(=O)CCCCCC", 
	 "Tm": 261.15, 
	 "num_atms": 43, 
	 "gaussian": { 
		 "optdone": 1, 
		 "sigma_profile": "yes", 
		 "theory": "DFT", 
		 "functional": "B3LYP", 
		 "basiset": "6-31G**", 
		 "properties": { 
			 "R2extent": 8983.9876, 
			 "electric_dipole_moment_norm": 3.7230754102, 
			 "electric_quadrupole_moment_norm": 12.7950116077, 
			 "total_energy": -774.876696226, 
			 "HOMO_LUMO_gap": 0.24318, 
			 "cosmo_polarized_energy": -10.49, 
			 "cosmo_cavitation_energy": 44.48, 
			 "cosmo_dispersion_energy": -30.07, 
			 "cosmo_repulsion_energy": 2.45, 
			 "cosmo_total_nonelectrostatic_energy": 16.87, 
			 "SMD_solvation_energy": 8.17 
		},
		"coords": [
			{
				"x": 0.4380754399,
				"y": -4.7926991158,
				"z": -2.1156754925,
				"element": "C" 
			},
			{
				"x": -0.8975213473,
				"y": -5.4503490991,
				"z": -2.4818686275,
				"element": "C" 
			},
			{
				"x": -2.1609837289,
				"y": -4.6964445631,
				"z": -2.0284119766,
				"element": "C" 
			},
			{
				"x": -2.3409144481,
				"y": -4.5604837767,
				"z": -0.4989619196,
				"element": "C" 
			},
			{
				"x": -1.7754650669,
				"y": -3.2766087515,
				"z": 0.1373891692,
				"element": "C" 
			},
			{
				"x": -2.5953512102,
				"y": -2.0178878918,
				"z": -0.2184630051,
				"element": "C" 
			},
			{
				"x": -2.0429918896,
				"y": -0.7733172271,
				"z": 0.4326919358,
				"element": "C" 
			},
			{
				"x": -2.5585202257,
				"y": -0.1252328839,
				"z": 1.3004659788,
				"element": "O" 
			},
			{
				"x": -0.8238152432,
				"y": -0.4259109624,
				"z": -0.1580213011,
				"element": "O" 
			},
			{
				"x": 0.1315701563,
				"y": 0.3119533877,
				"z": 0.5410833944,
				"element": "C" 
			},
			{
				"x": 0.2496179278,
				"y": 0.2693939235,
				"z": 1.7347524122,
				"element": "O" 
			},
			{
				"x": 1.0069769838,
				"y": 1.0666738471,
				"z": -0.4352710126,
				"element": "C" 
			},
			{
				"x": 2.0810859063,
				"y": 1.9286161233,
				"z": 0.2380575189,
				"element": "C" 
			},
			{
				"x": 1.5109947543,
				"y": 3.1808669218,
				"z": 0.920703599,
				"element": "C" 
			},
			{
				"x": 2.5163454238,
				"y": 4.0244623709,
				"z": 1.7245896422,
				"element": "C" 
			},
			{
				"x": 3.6546807691,
				"y": 4.6915960725,
				"z": 0.9210669673,
				"element": "C" 
			},
			{
				"x": 4.9296538169,
				"y": 3.8507541612,
				"z": 0.7671611542,
				"element": "C" 
			},
			{
				"x": 0.4953790826,
				"y": -3.766625448,
				"z": -2.4977172727,
				"element": "H" 
			},
			{
				"x": 1.2772865823,
				"y": -5.3518000329,
				"z": -2.5428000692,
				"element": "H" 
			},
			{
				"x": 0.5924927428,
				"y": -4.7543533108,
				"z": -1.0325894329,
				"element": "H" 
			},
			{
				"x": -0.9248812784,
				"y": -6.46650641,
				"z": -2.0648914973,
				"element": "H" 
			},
			{
				"x": -0.9446759701,
				"y": -5.5716771445,
				"z": -3.5718532932,
				"element": "H" 
			},
			{
				"x": -3.0284280945,
				"y": -5.2286077786,
				"z": -2.437527129,
				"element": "H" 
			},
			{
				"x": -2.1771044487,
				"y": -3.7041734835,
				"z": -2.5003798538,
				"element": "H" 
			},
			{
				"x": -3.4091034877,
				"y": -4.617519163,
				"z": -0.2524344605,
				"element": "H" 
			},
			{
				"x": -1.8788082749,
				"y": -5.4269196582,
				"z": -0.0078645339,
				"element": "H" 
			},
			{
				"x": -0.7357050733,
				"y": -3.1213029225,
				"z": -0.1655627231,
				"element": "H" 
			},
			{
				"x": -1.7718797806,
				"y": -3.3901919118,
				"z": 1.2281519288,
				"element": "H" 
			},
			{
				"x": -3.6303487661,
				"y": -2.1248208296,
				"z": 0.1168097294,
				"element": "H" 
			},
			{
				"x": -2.5972336628,
				"y": -1.8656111448,
				"z": -1.3037747494,
				"element": "H" 
			},
			{
				"x": 1.4552780924,
				"y": 0.318530969,
				"z": -1.1020314615,
				"element": "H" 
			},
			{
				"x": 0.3495874317,
				"y": 1.6691156451,
				"z": -1.0754447669,
				"element": "H" 
			},
			{
				"x": 2.8091885992,
				"y": 2.2162826911,
				"z": -0.5278230689,
				"element": "H" 
			},
			{
				"x": 2.6163679179,
				"y": 1.3177733266,
				"z": 0.9743724612,
				"element": "H" 
			},
			{
				"x": 1.0423457284,
				"y": 3.8189006501,
				"z": 0.1568353697,
				"element": "H" 
			},
			{
				"x": 0.7091442666,
				"y": 2.8697498025,
				"z": 1.5997561687,
				"element": "H" 
			},
			{
				"x": 1.9415179666,
				"y": 4.8098224871,
				"z": 2.2309371321,
				"element": "H" 
			},
			{
				"x": 2.948097329,
				"y": 3.40935724,
				"z": 2.5265590753,
				"element": "H" 
			},
			{
				"x": 3.2789033688,
				"y": 4.9823985065,
				"z": -0.069977213,
				"element": "H" 
			},
			{
				"x": 3.9293738501,
				"y": 5.6300086,
				"z": 1.4189282556,
				"element": "H" 
			},
			{
				"x": 4.751415399,
				"y": 2.9136547458,
				"z": 0.2318266886,
				"element": "H" 
			},
			{
				"x": 5.3448240441,
				"y": 3.592357872,
				"z": 1.7480782563,
				"element": "H" 
			},
			{
				"x": 5.7001284174,
				"y": 4.4026741657,
				"z": 0.2177280224,
				"element": "H" 
			}
		],
		 "valence_orbital": [ 
			{
				"type": "occ",
				"energy": -0.31404,
				"method": "rhf"
			},
			{
				"type": "occ",
				"energy": -0.31042,
				"method": "rhf"
			},
			{
				"type": "occ",
				"energy": -0.30814,
				"method": "rhf"
			},
			{
				"type": "occ",
				"energy": -0.29023,
				"method": "rhf"
			},
			{
				"type": "occ",
				"energy": -0.26707,
				"method": "rhf"
			},
			{
				"type": "unocc",
				"energy": -0.02389,
				"method": "rhf"
			},
			{
				"type": "unocc",
				"energy": 0.01652,
				"method": "rhf"
			},
			{
				"type": "unocc",
				"energy": 0.07683,
				"method": "rhf"
			},
			{
				"type": "unocc",
				"energy": 0.08613,
				"method": "rhf"
			},
			{
				"type": "unocc",
				"energy": 0.10066,
				"method": "rhf"
			}
		],
		"cosmo_sigma_profile": { 
			"-0.025": 0.0,
			"-0.024": 0.0,
			"-0.023": 0.0,
			"-0.022": 0.0,
			"-0.021": 0.0,
			"-0.02": 0.0,
			"-0.019": 0.0,
			"-0.018": 0.0,
			"-0.017": 0.0,
			"-0.016": 0.0,
			"-0.015": 0.0,
			"-0.014": 0.0,
			"-0.013": 0.0,
			"-0.012": 0.0,
			"-0.011": 0.0,
			"-0.01": 0.0,
			"-0.009": 0.0,
			"-0.008": 0.0,
			"-0.007": 0.888322235911,
			"-0.006": 7.05573064757,
			"-0.005": 10.9068031305,
			"-0.004": 14.4844181293,
			"-0.003": 28.6002415963,
			"-0.002": 57.9146268445,
			"-0.001": 63.211434153,
			"0.0": 55.101485682,
			"0.001": 44.2214618503,
			"0.002": 17.9508835771,
			"0.003": 4.49101036509,
			"0.004": 4.27949422326,
			"0.005": 3.29968827546,
			"0.006": 1.98668303698,
			"0.007": 3.72295362078,
			"0.008": 3.76147587106,
			"0.009": 3.16632116716,
			"0.01": 7.72542042549,
			"0.011": 7.96806067223,
			"0.012": 2.88387923579,
			"0.013": 0.195025116241,
			"0.014": 0.0,
			"0.015": 0.0,
			"0.016": 0.0,
			"0.017": 0.0,
			"0.018": 0.0,
			"0.019": 0.0,
			"0.02": 0.0,
			"0.021": 0.0,
			"0.022": 0.0,
			"0.023": 0.0,
			"0.024": 0.0,
			"0.025": 0.0
		}
	}
}
