{
	 "smiles": "CCOC(=O)C1=NN(C(=O)C1C(Cl)C1C(=O)N(N=C1C(=O)OCC)C1=CC=CC=C1)C1=CC=CC=C1", 
	 "Tm": 494.15, 
	 "num_atms": 59, 
	 "gaussian": { 
		 "optdone": 1, 
		 "sigma_profile": "yes", 
		 "theory": "DFT", 
		 "functional": "B3LYP", 
		 "basiset": "6-31G**", 
		 "properties": { 
			 "R2extent": 19030.444, 
			 "electric_dipole_moment_norm": 5.21383397607, 
			 "electric_quadrupole_moment_norm": 20.8355928245, 
			 "total_energy": -2097.03025556, 
			 "HOMO_LUMO_gap": 0.13438, 
			 "cosmo_polarized_energy": -22.92, 
			 "cosmo_cavitation_energy": 64.05, 
			 "cosmo_dispersion_energy": -41.02, 
			 "cosmo_repulsion_energy": 3.06, 
			 "cosmo_total_nonelectrostatic_energy": 26.1, 
			 "SMD_solvation_energy": 12.28 
		},
		"coords": [
			{
				"x": -4.4569539486,
				"y": -2.7270909782,
				"z": -2.6466880272,
				"element": "C" 
			},
			{
				"x": -2.9507857471,
				"y": -2.8082349322,
				"z": -2.4981936302,
				"element": "C" 
			},
			{
				"x": -2.63292211,
				"y": -2.4650075962,
				"z": -1.123673407,
				"element": "O" 
			},
			{
				"x": -1.3331949582,
				"y": -2.4517591305,
				"z": -0.8136552726,
				"element": "C" 
			},
			{
				"x": -0.4269852931,
				"y": -2.7115100508,
				"z": -1.588192266,
				"element": "O" 
			},
			{
				"x": -1.0718970914,
				"y": -2.0675868432,
				"z": 0.5929981425,
				"element": "C" 
			},
			{
				"x": -2.0152578556,
				"y": -1.9159510669,
				"z": 1.4645661433,
				"element": "N" 
			},
			{
				"x": -1.4619243426,
				"y": -1.5711170474,
				"z": 2.6727793264,
				"element": "N" 
			},
			{
				"x": -0.0626193056,
				"y": -1.4200520711,
				"z": 2.5968303689,
				"element": "C" 
			},
			{
				"x": 0.6720410063,
				"y": -0.9823538033,
				"z": 3.4554641479,
				"element": "O" 
			},
			{
				"x": 0.2933439226,
				"y": -1.9778756243,
				"z": 1.2185229495,
				"element": "C" 
			},
			{
				"x": 1.5081002597,
				"y": -1.3942611965,
				"z": 0.4763277994,
				"element": "C" 
			},
			{
				"x": 2.9841634267,
				"y": -2.1610144422,
				"z": 1.2367496952,
				"element": "Cl" 
			},
			{
				"x": 1.6605834981,
				"y": 0.1574549143,
				"z": 0.4465977831,
				"element": "C" 
			},
			{
				"x": 2.9726947939,
				"y": 0.5206284942,
				"z": -0.2896485577,
				"element": "C" 
			},
			{
				"x": 4.1139474418,
				"y": 0.4030545579,
				"z": 0.0896214131,
				"element": "O" 
			},
			{
				"x": 2.5540414861,
				"y": 1.0229714457,
				"z": -1.5386664888,
				"element": "N" 
			},
			{
				"x": 1.2146176212,
				"y": 1.2868580879,
				"z": -1.5541259587,
				"element": "N" 
			},
			{
				"x": 0.6678378181,
				"y": 0.8518478495,
				"z": -0.4630845441,
				"element": "C" 
			},
			{
				"x": -0.7308631386,
				"y": 1.3015713219,
				"z": -0.2099367536,
				"element": "C" 
			},
			{
				"x": -1.4117765702,
				"y": 1.8876579643,
				"z": -1.0226872902,
				"element": "O" 
			},
			{
				"x": -1.0983632336,
				"y": 1.0510935017,
				"z": 1.0649594177,
				"element": "O" 
			},
			{
				"x": -2.3306634636,
				"y": 1.6921741259,
				"z": 1.5143749765,
				"element": "C" 
			},
			{
				"x": -3.5971954345,
				"y": 1.0615772392,
				"z": 0.9546951656,
				"element": "C" 
			},
			{
				"x": 3.3562682964,
				"y": 1.4675720197,
				"z": -2.6319216298,
				"element": "C" 
			},
			{
				"x": 2.7424781333,
				"y": 2.1516242026,
				"z": -3.690571183,
				"element": "C" 
			},
			{
				"x": 3.5113961412,
				"y": 2.5710717198,
				"z": -4.7734258269,
				"element": "C" 
			},
			{
				"x": 4.8836441515,
				"y": 2.3168645459,
				"z": -4.8146220167,
				"element": "C" 
			},
			{
				"x": 5.4829950924,
				"y": 1.6338964076,
				"z": -3.7565460508,
				"element": "C" 
			},
			{
				"x": 4.7326594804,
				"y": 1.2037108557,
				"z": -2.662020461,
				"element": "C" 
			},
			{
				"x": -2.3199971411,
				"y": -1.3443119603,
				"z": 3.7868729211,
				"element": "C" 
			},
			{
				"x": -3.6456353342,
				"y": -1.7981751733,
				"z": 3.7253179177,
				"element": "C" 
			},
			{
				"x": -4.4951826113,
				"y": -1.5885802529,
				"z": 4.8088626893,
				"element": "C" 
			},
			{
				"x": -4.0377196099,
				"y": -0.9383763427,
				"z": 5.9568443709,
				"element": "C" 
			},
			{
				"x": -2.7158019751,
				"y": -0.4968257605,
				"z": 6.010626923,
				"element": "C" 
			},
			{
				"x": -1.8484397,
				"y": -0.6905911012,
				"z": 4.9347014932,
				"element": "C" 
			},
			{
				"x": -4.8166360915,
				"y": -1.7176075338,
				"z": -2.4296252748,
				"element": "H" 
			},
			{
				"x": -4.7386928581,
				"y": -2.9802521469,
				"z": -3.673324408,
				"element": "H" 
			},
			{
				"x": -4.9559201138,
				"y": -3.4262002106,
				"z": -1.9698024883,
				"element": "H" 
			},
			{
				"x": -2.5663184526,
				"y": -3.8119181719,
				"z": -2.7041452525,
				"element": "H" 
			},
			{
				"x": -2.4299113399,
				"y": -2.1096579506,
				"z": -3.1596608396,
				"element": "H" 
			},
			{
				"x": 0.5680074217,
				"y": -3.0271944226,
				"z": 1.4146922445,
				"element": "H" 
			},
			{
				"x": 1.4774200622,
				"y": -1.7785682827,
				"z": -0.5433542927,
				"element": "H" 
			},
			{
				"x": 1.6668110775,
				"y": 0.5417458788,
				"z": 1.4696540282,
				"element": "H" 
			},
			{
				"x": -2.2816988844,
				"y": 1.5950534609,
				"z": 2.6003891357,
				"element": "H" 
			},
			{
				"x": -2.2688528229,
				"y": 2.7498160939,
				"z": 1.2426255692,
				"element": "H" 
			},
			{
				"x": -4.4621867662,
				"y": 1.5338322001,
				"z": 1.4331652504,
				"element": "H" 
			},
			{
				"x": -3.63249565,
				"y": -0.0095989954,
				"z": 1.1619259337,
				"element": "H" 
			},
			{
				"x": -3.6655457585,
				"y": 1.2201622032,
				"z": -0.122150217,
				"element": "H" 
			},
			{
				"x": 1.6779272695,
				"y": 2.3443974752,
				"z": -3.6560792636,
				"element": "H" 
			},
			{
				"x": 3.0291946798,
				"y": 3.1008866999,
				"z": -5.5897647097,
				"element": "H" 
			},
			{
				"x": 5.477628917,
				"y": 2.6473446749,
				"z": -5.6612879021,
				"element": "H" 
			},
			{
				"x": 6.5493486437,
				"y": 1.4287196216,
				"z": -3.7743127818,
				"element": "H" 
			},
			{
				"x": 5.2043630552,
				"y": 0.6839657175,
				"z": -1.8403558027,
				"element": "H" 
			},
			{
				"x": -3.9952678136,
				"y": -2.3082249057,
				"z": 2.8365444034,
				"element": "H" 
			},
			{
				"x": -5.5203351847,
				"y": -1.9428645077,
				"z": 4.7536301103,
				"element": "H" 
			},
			{
				"x": -4.7035939408,
				"y": -0.7807979551,
				"z": 6.7997104914,
				"element": "H" 
			},
			{
				"x": -2.3458475742,
				"y": 0.0085822117,
				"z": 6.8978284313,
				"element": "H" 
			},
			{
				"x": -0.8230315808,
				"y": -0.3521750348,
				"z": 4.9815433551,
				"element": "H" 
			}
		],
		 "valence_orbital": [ 
			{
				"type": "occ",
				"energy": -0.26827,
				"method": "rhf"
			},
			{
				"type": "occ",
				"energy": -0.26334,
				"method": "rhf"
			},
			{
				"type": "occ",
				"energy": -0.25233,
				"method": "rhf"
			},
			{
				"type": "occ",
				"energy": -0.23466,
				"method": "rhf"
			},
			{
				"type": "occ",
				"energy": -0.22454,
				"method": "rhf"
			},
			{
				"type": "unocc",
				"energy": -0.09016,
				"method": "rhf"
			},
			{
				"type": "unocc",
				"energy": -0.07417,
				"method": "rhf"
			},
			{
				"type": "unocc",
				"energy": -0.03473,
				"method": "rhf"
			},
			{
				"type": "unocc",
				"energy": -0.02612,
				"method": "rhf"
			},
			{
				"type": "unocc",
				"energy": -0.01394,
				"method": "rhf"
			}
		],
		"cosmo_sigma_profile": { 
			"-0.025": 0.0,
			"-0.024": 0.0,
			"-0.023": 0.0,
			"-0.022": 0.0,
			"-0.021": 0.0,
			"-0.02": 0.0,
			"-0.019": 0.0,
			"-0.018": 0.0,
			"-0.017": 0.0,
			"-0.016": 0.0,
			"-0.015": 0.0,
			"-0.014": 0.0,
			"-0.013": 0.137992971015,
			"-0.012": 1.50883517067,
			"-0.011": 2.21924687548,
			"-0.01": 2.92991380535,
			"-0.009": 5.13975499101,
			"-0.008": 3.92375692647,
			"-0.007": 6.5833248101,
			"-0.006": 23.3354679565,
			"-0.005": 39.9583163773,
			"-0.004": 50.6689264943,
			"-0.003": 40.4578967135,
			"-0.002": 40.7180012805,
			"-0.001": 40.9751889795,
			"0.0": 38.8763467808,
			"0.001": 35.1520467029,
			"0.002": 29.8659808929,
			"0.003": 32.0823756234,
			"0.004": 32.1185396983,
			"0.005": 24.6487952091,
			"0.006": 9.71917507339,
			"0.007": 8.94577083988,
			"0.008": 8.62550546664,
			"0.009": 9.30376026509,
			"0.01": 12.0389519583,
			"0.011": 9.31072254179,
			"0.012": 2.87710172417,
			"0.013": 1.34395390342,
			"0.014": 0.0815583423467,
			"0.015": 0.0,
			"0.016": 0.0,
			"0.017": 0.0,
			"0.018": 0.0,
			"0.019": 0.0,
			"0.02": 0.0,
			"0.021": 0.0,
			"0.022": 0.0,
			"0.023": 0.0,
			"0.024": 0.0,
			"0.025": 0.0
		}
	}
}
