{
	 "smiles": "CN1C(=O)C(C2=NNC(=O)C2=N/NC2=NC=CC=N2)=C(O)C2=CC=CC=C12", 
	 "Tm": 575.15, 
	 "num_atms": 40, 
	 "gaussian": { 
		 "optdone": 1, 
		 "sigma_profile": "yes", 
		 "theory": "DFT", 
		 "functional": "B3LYP", 
		 "basiset": "6-31G**", 
		 "properties": { 
			 "R2extent": 12007.9593, 
			 "electric_dipole_moment_norm": 5.00808520395, 
			 "electric_quadrupole_moment_norm": 24.7434056241, 
			 "total_energy": -1264.55110803, 
			 "HOMO_LUMO_gap": 0.0995, 
			 "cosmo_polarized_energy": -23.95, 
			 "cosmo_cavitation_energy": 45.05, 
			 "cosmo_dispersion_energy": -33.05, 
			 "cosmo_repulsion_energy": 2.42, 
			 "cosmo_total_nonelectrostatic_energy": 14.42, 
			 "SMD_solvation_energy": 5.28 
		},
		"coords": [
			{
				"x": -1.9885364577,
				"y": 0.0836216157,
				"z": 4.254814914,
				"element": "C" 
			},
			{
				"x": -1.5243565842,
				"y": 0.4901538402,
				"z": 2.9294475326,
				"element": "N" 
			},
			{
				"x": -1.9376828121,
				"y": -0.3105785998,
				"z": 1.8391637263,
				"element": "C" 
			},
			{
				"x": -2.6141146452,
				"y": -1.3109042783,
				"z": 2.0513816145,
				"element": "O" 
			},
			{
				"x": -1.5026215903,
				"y": 0.1163387219,
				"z": 0.4909788688,
				"element": "C" 
			},
			{
				"x": -2.0954095443,
				"y": -0.6105999224,
				"z": -0.6457856657,
				"element": "C" 
			},
			{
				"x": -3.2745659799,
				"y": -1.1820292925,
				"z": -0.5582634115,
				"element": "N" 
			},
			{
				"x": -3.5418502712,
				"y": -1.8130836567,
				"z": -1.7649405544,
				"element": "N" 
			},
			{
				"x": -2.5476775945,
				"y": -1.7120177707,
				"z": -2.6880957069,
				"element": "C" 
			},
			{
				"x": -2.4825796931,
				"y": -2.1690127681,
				"z": -3.8334340139,
				"element": "O" 
			},
			{
				"x": -1.5458790488,
				"y": -0.8671754133,
				"z": -1.9824303658,
				"element": "C" 
			},
			{
				"x": -0.4455267717,
				"y": -0.4073006998,
				"z": -2.4954534226,
				"element": "N" 
			},
			{
				"x": -0.1178220267,
				"y": -0.7540597505,
				"z": -3.7316823618,
				"element": "N" 
			},
			{
				"x": 1.0199269721,
				"y": -0.2434080699,
				"z": -4.348553166,
				"element": "C" 
			},
			{
				"x": 1.7689161132,
				"y": 0.6315030039,
				"z": -3.6722104229,
				"element": "N" 
			},
			{
				"x": 2.8471266221,
				"y": 1.0785605482,
				"z": -4.3220675059,
				"element": "C" 
			},
			{
				"x": 3.1720308587,
				"y": 0.6699576034,
				"z": -5.6152244269,
				"element": "C" 
			},
			{
				"x": 2.3011871954,
				"y": -0.2435506075,
				"z": -6.2100280102,
				"element": "C" 
			},
			{
				"x": 1.2173611097,
				"y": -0.7127304269,
				"z": -5.588041506,
				"element": "N" 
			},
			{
				"x": -0.5933971033,
				"y": 1.155206488,
				"z": 0.3631285949,
				"element": "C" 
			},
			{
				"x": -0.0404469109,
				"y": 1.5856254196,
				"z": -0.776798835,
				"element": "O" 
			},
			{
				"x": -0.1912110618,
				"y": 1.9322919147,
				"z": 1.5207474977,
				"element": "C" 
			},
			{
				"x": 0.6798183772,
				"y": 3.0300524609,
				"z": 1.3878042211,
				"element": "C" 
			},
			{
				"x": 1.0413349827,
				"y": 3.7914351052,
				"z": 2.487762308,
				"element": "C" 
			},
			{
				"x": 0.533260936,
				"y": 3.4561564251,
				"z": 3.7497508433,
				"element": "C" 
			},
			{
				"x": -0.3205712945,
				"y": 2.373091069,
				"z": 3.909866661,
				"element": "C" 
			},
			{
				"x": -0.6952309363,
				"y": 1.5907534778,
				"z": 2.7978396885,
				"element": "C" 
			},
			{
				"x": -2.5886790656,
				"y": -0.8131528187,
				"z": 4.1221258633,
				"element": "H" 
			},
			{
				"x": -1.1399218351,
				"y": -0.1353666552,
				"z": 4.9108156849,
				"element": "H" 
			},
			{
				"x": -2.5981593619,
				"y": 0.8714140725,
				"z": 4.7091584292,
				"element": "H" 
			},
			{
				"x": -4.3953697213,
				"y": -2.34296733,
				"z": -1.8529546477,
				"element": "H" 
			},
			{
				"x": -0.7365162763,
				"y": -1.3863744867,
				"z": -4.2514749732,
				"element": "H" 
			},
			{
				"x": 3.4682878746,
				"y": 1.7916552181,
				"z": -3.7835379544,
				"element": "H" 
			},
			{
				"x": 4.0495486103,
				"y": 1.0429015637,
				"z": -6.129744557,
				"element": "H" 
			},
			{
				"x": 2.4741689768,
				"y": -0.6146339202,
				"z": -7.2182923642,
				"element": "H" 
			},
			{
				"x": -0.0342740405,
				"y": 0.9032743032,
				"z": -1.4939207609,
				"element": "H" 
			},
			{
				"x": 1.0563563066,
				"y": 3.2640972224,
				"z": 0.3996744412,
				"element": "H" 
			},
			{
				"x": 1.7114794403,
				"y": 4.6372384483,
				"z": 2.3721577,
				"element": "H" 
			},
			{
				"x": 0.808263058,
				"y": 4.0445296716,
				"z": 4.6205962628,
				"element": "H" 
			},
			{
				"x": -0.6954668068,
				"y": 2.1332882738,
				"z": 4.8962197809,
				"element": "H" 
			}
		],
		 "valence_orbital": [ 
			{
				"type": "occ",
				"energy": -0.26423,
				"method": "rhf"
			},
			{
				"type": "occ",
				"energy": -0.2455,
				"method": "rhf"
			},
			{
				"type": "occ",
				"energy": -0.23717,
				"method": "rhf"
			},
			{
				"type": "occ",
				"energy": -0.21857,
				"method": "rhf"
			},
			{
				"type": "occ",
				"energy": -0.20331,
				"method": "rhf"
			},
			{
				"type": "unocc",
				"energy": -0.10381,
				"method": "rhf"
			},
			{
				"type": "unocc",
				"energy": -0.05741,
				"method": "rhf"
			},
			{
				"type": "unocc",
				"energy": -0.04523,
				"method": "rhf"
			},
			{
				"type": "unocc",
				"energy": -0.01798,
				"method": "rhf"
			},
			{
				"type": "unocc",
				"energy": -0.00127,
				"method": "rhf"
			}
		],
		"cosmo_sigma_profile": { 
			"-0.025": 0.0,
			"-0.024": 0.0,
			"-0.023": 0.0,
			"-0.022": 0.0,
			"-0.021": 0.0,
			"-0.02": 0.0,
			"-0.019": 0.0,
			"-0.018": 0.0,
			"-0.017": 0.836120402164,
			"-0.016": 1.4722610936,
			"-0.015": 1.31046254027,
			"-0.014": 0.672442315228,
			"-0.013": 0.522871858795,
			"-0.012": 1.44331920364,
			"-0.011": 0.619921581469,
			"-0.01": 0.973247299449,
			"-0.009": 1.21065224462,
			"-0.008": 8.55965279544,
			"-0.007": 11.7504621954,
			"-0.006": 20.4377980402,
			"-0.005": 24.5455634844,
			"-0.004": 27.0100458525,
			"-0.003": 29.8371224677,
			"-0.002": 29.676406188,
			"-0.001": 31.0640121393,
			"0.0": 28.18311797,
			"0.001": 21.7778965404,
			"0.002": 20.1186794049,
			"0.003": 17.8418022693,
			"0.004": 16.9682014622,
			"0.005": 12.0236729562,
			"0.006": 6.61524493395,
			"0.007": 8.2053651545,
			"0.008": 5.89836317912,
			"0.009": 6.34383760294,
			"0.01": 4.75647840684,
			"0.011": 5.45186205439,
			"0.012": 5.47158172458,
			"0.013": 4.07516691051,
			"0.014": 2.48313800493,
			"0.015": 1.89854113795,
			"0.016": 1.76609511171,
			"0.017": 1.36805552705,
			"0.018": 0.804028916088,
			"0.019": 0.0506521553706,
			"0.02": 0.0,
			"0.021": 0.0,
			"0.022": 0.0,
			"0.023": 0.0,
			"0.024": 0.0,
			"0.025": 0.0
		}
	}
}
