{
	 "smiles": "CN(C)C=C[N+]([O-])=O", 
	 "Tm": 377.15, 
	 "num_atms": 16, 
	 "gaussian": { 
		 "optdone": 1, 
		 "sigma_profile": "yes", 
		 "theory": "DFT", 
		 "functional": "B3LYP", 
		 "basiset": "6-31G**", 
		 "properties": { 
			 "R2extent": 1607.7518, 
			 "electric_dipole_moment_norm": 7.67375079671, 
			 "electric_quadrupole_moment_norm": 15.9764902213, 
			 "total_energy": -417.077964786, 
			 "HOMO_LUMO_gap": 0.17453, 
			 "cosmo_polarized_energy": -16.16, 
			 "cosmo_cavitation_energy": 20.34, 
			 "cosmo_dispersion_energy": -14.77, 
			 "cosmo_repulsion_energy": 1.24, 
			 "cosmo_total_nonelectrostatic_energy": 6.82, 
			 "SMD_solvation_energy": 6.59 
		},
		"coords": [
			{
				"x": 0.0374682655,
				"y": -1.9030699521,
				"z": -0.5563640483,
				"element": "C" 
			},
			{
				"x": 0.1172497012,
				"y": -0.4583742764,
				"z": -0.3924115727,
				"element": "N" 
			},
			{
				"x": -0.4352497879,
				"y": 0.3739298252,
				"z": -1.450031184,
				"element": "C" 
			},
			{
				"x": 0.4399941381,
				"y": 0.0820041394,
				"z": 0.8030189056,
				"element": "C" 
			},
			{
				"x": 0.3501254631,
				"y": 1.3916908396,
				"z": 1.1552465591,
				"element": "C" 
			},
			{
				"x": 0.7918547228,
				"y": 1.7919950124,
				"z": 2.4524590528,
				"element": "N" 
			},
			{
				"x": 1.2553228806,
				"y": 0.9433657429,
				"z": 3.2307938588,
				"element": "O" 
			},
			{
				"x": 0.6762899182,
				"y": 2.9939630895,
				"z": 2.7267886557,
				"element": "O" 
			},
			{
				"x": 0.5072795293,
				"y": -2.2033707553,
				"z": -1.4989549488,
				"element": "H" 
			},
			{
				"x": -1.0029379864,
				"y": -2.2558795723,
				"z": -0.5604813362,
				"element": "H" 
			},
			{
				"x": 0.5638712167,
				"y": -2.3937647103,
				"z": 0.2642610948,
				"element": "H" 
			},
			{
				"x": -1.4703469025,
				"y": 0.6746130878,
				"z": -1.2366371041,
				"element": "H" 
			},
			{
				"x": -0.4191225223,
				"y": -0.1795820915,
				"z": -2.3910007215,
				"element": "H" 
			},
			{
				"x": 0.1708393359,
				"y": 1.2769527413,
				"z": -1.5702221062,
				"element": "H" 
			},
			{
				"x": 0.8254244038,
				"y": -0.6020315861,
				"z": 1.5529789534,
				"element": "H" 
			},
			{
				"x": -0.0352623762,
				"y": 2.2063584658,
				"z": 0.5634559415,
				"element": "H" 
			}
		],
		 "valence_orbital": [ 
			{
				"type": "occ",
				"energy": -0.34307,
				"method": "rhf"
			},
			{
				"type": "occ",
				"energy": -0.27751,
				"method": "rhf"
			},
			{
				"type": "occ",
				"energy": -0.27533,
				"method": "rhf"
			},
			{
				"type": "occ",
				"energy": -0.25723,
				"method": "rhf"
			},
			{
				"type": "occ",
				"energy": -0.22811,
				"method": "rhf"
			},
			{
				"type": "unocc",
				"energy": -0.05358,
				"method": "rhf"
			},
			{
				"type": "unocc",
				"energy": 0.05053,
				"method": "rhf"
			},
			{
				"type": "unocc",
				"energy": 0.06247,
				"method": "rhf"
			},
			{
				"type": "unocc",
				"energy": 0.09158,
				"method": "rhf"
			},
			{
				"type": "unocc",
				"energy": 0.10665,
				"method": "rhf"
			}
		],
		"cosmo_sigma_profile": { 
			"-0.025": 0.0,
			"-0.024": 0.0,
			"-0.023": 0.0,
			"-0.022": 0.0,
			"-0.021": 0.0,
			"-0.02": 0.0,
			"-0.019": 0.0,
			"-0.018": 0.0,
			"-0.017": 0.0,
			"-0.016": 0.0,
			"-0.015": 0.0,
			"-0.014": 0.0,
			"-0.013": 0.0,
			"-0.012": 0.0,
			"-0.011": 0.0,
			"-0.01": 0.497549627262,
			"-0.009": 2.06235241988,
			"-0.008": 2.26779516019,
			"-0.007": 8.0496601819,
			"-0.006": 13.1314824774,
			"-0.005": 16.6752343986,
			"-0.004": 17.9034895156,
			"-0.003": 19.394792065,
			"-0.002": 9.33411409866,
			"-0.001": 5.80938616524,
			"0.0": 6.94789081353,
			"0.001": 8.68430846693,
			"0.002": 5.31321691979,
			"0.003": 3.54827500143,
			"0.004": 1.84114118909,
			"0.005": 2.34890672605,
			"0.006": 2.62992337869,
			"0.007": 2.32005454462,
			"0.008": 2.96108744457,
			"0.009": 4.18083224538,
			"0.01": 11.0287089305,
			"0.011": 6.92750772696,
			"0.012": 4.34622961205,
			"0.013": 2.34688484928,
			"0.014": 0.000187769388183,
			"0.015": 0.0,
			"0.016": 0.0,
			"0.017": 0.0,
			"0.018": 0.0,
			"0.019": 0.0,
			"0.02": 0.0,
			"0.021": 0.0,
			"0.022": 0.0,
			"0.023": 0.0,
			"0.024": 0.0,
			"0.025": 0.0
		}
	}
}
