{
	 "smiles": "CC(C)OC1=C(N)C=C(C=C1)C(O)=O", 
	 "Tm": 389.15, 
	 "num_atms": 27, 
	 "gaussian": { 
		 "optdone": 1, 
		 "sigma_profile": "yes", 
		 "theory": "DFT", 
		 "functional": "B3LYP", 
		 "basiset": "6-31G**", 
		 "properties": { 
			 "R2extent": 4076.0703, 
			 "electric_dipole_moment_norm": 3.33625969463, 
			 "electric_quadrupole_moment_norm": 15.7608052859, 
			 "total_energy": -669.344923579, 
			 "HOMO_LUMO_gap": 0.16736, 
			 "cosmo_polarized_energy": -14.29, 
			 "cosmo_cavitation_energy": 30.68, 
			 "cosmo_dispersion_energy": -21.88, 
			 "cosmo_repulsion_energy": 1.73, 
			 "cosmo_total_nonelectrostatic_energy": 10.53, 
			 "SMD_solvation_energy": 6.5 
		},
		"coords": [
			{
				"x": 2.4577237254,
				"y": -1.521072852,
				"z": 2.4403515332,
				"element": "C" 
			},
			{
				"x": 1.3602069061,
				"y": -0.7907094152,
				"z": 1.6761410295,
				"element": "C" 
			},
			{
				"x": 0.1194524498,
				"y": -0.5439845534,
				"z": 2.5308455773,
				"element": "C" 
			},
			{
				"x": 1.0585659224,
				"y": -1.6276172564,
				"z": 0.5258841102,
				"element": "O" 
			},
			{
				"x": 0.3837948526,
				"y": -1.0215620549,
				"z": -0.5163603314,
				"element": "C" 
			},
			{
				"x": 1.1440322164,
				"y": -0.4083544821,
				"z": -1.5415847046,
				"element": "C" 
			},
			{
				"x": 2.5283943557,
				"y": -0.4794365328,
				"z": -1.5131876703,
				"element": "N" 
			},
			{
				"x": 0.4574449499,
				"y": 0.2031285859,
				"z": -2.596335069,
				"element": "C" 
			},
			{
				"x": -0.9409092975,
				"y": 0.1869225987,
				"z": -2.6501503996,
				"element": "C" 
			},
			{
				"x": -1.682559857,
				"y": -0.4622382749,
				"z": -1.6543393719,
				"element": "C" 
			},
			{
				"x": -1.0077803226,
				"y": -1.0636828461,
				"z": -0.5933844381,
				"element": "C" 
			},
			{
				"x": -1.5873972179,
				"y": 0.8642829871,
				"z": -3.8021884962,
				"element": "C" 
			},
			{
				"x": -2.9431829319,
				"y": 0.7778319713,
				"z": -3.7824403246,
				"element": "O" 
			},
			{
				"x": -0.9986532885,
				"y": 1.4491631425,
				"z": -4.6920181153,
				"element": "O" 
			},
			{
				"x": 3.3415123613,
				"y": -1.6743941941,
				"z": 1.8137123521,
				"element": "H" 
			},
			{
				"x": 2.1002285515,
				"y": -2.5026361616,
				"z": 2.7666533204,
				"element": "H" 
			},
			{
				"x": 2.7557314681,
				"y": -0.9491398512,
				"z": 3.3242708143,
				"element": "H" 
			},
			{
				"x": 1.7415444589,
				"y": 0.1735548504,
				"z": 1.308373508,
				"element": "H" 
			},
			{
				"x": 0.3759972819,
				"y": 0.0764449573,
				"z": 3.3960315904,
				"element": "H" 
			},
			{
				"x": -0.6576673529,
				"y": -0.0252657153,
				"z": 1.9641290747,
				"element": "H" 
			},
			{
				"x": -0.2873699004,
				"y": -1.4932385937,
				"z": 2.8946533489,
				"element": "H" 
			},
			{
				"x": 3.0401203711,
				"y": 0.263410696,
				"z": -1.9633163222,
				"element": "H" 
			},
			{
				"x": 2.9319219104,
				"y": -0.8246414346,
				"z": -0.6565965732,
				"element": "H" 
			},
			{
				"x": 1.0022101614,
				"y": 0.6894242477,
				"z": -3.3995346002,
				"element": "H" 
			},
			{
				"x": -2.7637064993,
				"y": -0.490558554,
				"z": -1.7104700472,
				"element": "H" 
			},
			{
				"x": -1.5512388035,
				"y": -1.5803478166,
				"z": 0.1906882845,
				"element": "H" 
			},
			{
				"x": -3.2434164714,
				"y": 1.2505165518,
				"z": -4.5757280795,
				"element": "H" 
			}
		],
		 "valence_orbital": [ 
			{
				"type": "occ",
				"energy": -0.30643,
				"method": "rhf"
			},
			{
				"type": "occ",
				"energy": -0.27709,
				"method": "rhf"
			},
			{
				"type": "occ",
				"energy": -0.26772,
				"method": "rhf"
			},
			{
				"type": "occ",
				"energy": -0.24517,
				"method": "rhf"
			},
			{
				"type": "occ",
				"energy": -0.20394,
				"method": "rhf"
			},
			{
				"type": "unocc",
				"energy": -0.03658,
				"method": "rhf"
			},
			{
				"type": "unocc",
				"energy": 0.00772,
				"method": "rhf"
			},
			{
				"type": "unocc",
				"energy": 0.06393,
				"method": "rhf"
			},
			{
				"type": "unocc",
				"energy": 0.07084,
				"method": "rhf"
			},
			{
				"type": "unocc",
				"energy": 0.08509,
				"method": "rhf"
			}
		],
		"cosmo_sigma_profile": { 
			"-0.025": 0.0,
			"-0.024": 0.0,
			"-0.023": 0.0,
			"-0.022": 0.0,
			"-0.021": 0.0,
			"-0.02": 0.0,
			"-0.019": 0.0,
			"-0.018": 0.517944455891,
			"-0.017": 0.779709731497,
			"-0.016": 0.915528891287,
			"-0.015": 0.980678559187,
			"-0.014": 0.83825656291,
			"-0.013": 1.2195302412,
			"-0.012": 1.99545852913,
			"-0.011": 2.40109480873,
			"-0.01": 2.21864427923,
			"-0.009": 3.16122695202,
			"-0.008": 3.98416667302,
			"-0.007": 4.392463569,
			"-0.006": 6.01613253817,
			"-0.005": 7.39978375279,
			"-0.004": 16.9464974971,
			"-0.003": 20.4346899078,
			"-0.002": 22.5803499841,
			"-0.001": 20.825101601,
			"0.0": 21.8277254046,
			"0.001": 15.4987810863,
			"0.002": 12.8129427939,
			"0.003": 14.054392391,
			"0.004": 16.0185757009,
			"0.005": 9.45878811731,
			"0.006": 5.25548245879,
			"0.007": 5.15881441982,
			"0.008": 4.92516518199,
			"0.009": 2.74124507923,
			"0.01": 3.97582397395,
			"0.011": 4.54563855624,
			"0.012": 6.48629035432,
			"0.013": 0.986234007912,
			"0.014": 0.0313409986184,
			"0.015": 0.0,
			"0.016": 0.0,
			"0.017": 0.0,
			"0.018": 0.0,
			"0.019": 0.0,
			"0.02": 0.0,
			"0.021": 0.0,
			"0.022": 0.0,
			"0.023": 0.0,
			"0.024": 0.0,
			"0.025": 0.0
		}
	}
}
