{
	 "smiles": "CC(=O)NC1=CC=CC=C1CCN(CCC1=C(NC(C)=O)C=CC=C1)C(C)=O", 
	 "Tm": 462.15, 
	 "num_atms": 55, 
	 "gaussian": { 
		 "optdone": 1, 
		 "sigma_profile": "yes", 
		 "theory": "DFT", 
		 "functional": "B3LYP", 
		 "basiset": "6-31G**", 
		 "properties": { 
			 "R2extent": 10961.1435, 
			 "electric_dipole_moment_norm": 4.37615938581, 
			 "electric_quadrupole_moment_norm": 12.0623382356, 
			 "total_energy": -1244.6058104, 
			 "HOMO_LUMO_gap": 0.19128, 
			 "cosmo_polarized_energy": -22.26, 
			 "cosmo_cavitation_energy": 53.79, 
			 "cosmo_dispersion_energy": -34.67, 
			 "cosmo_repulsion_energy": 2.53, 
			 "cosmo_total_nonelectrostatic_energy": 21.65, 
			 "SMD_solvation_energy": 9.28 
		},
		"coords": [
			{
				"x": -0.6809000021,
				"y": 2.3794426451,
				"z": -3.5263839479,
				"element": "C" 
			},
			{
				"x": -0.3664905777,
				"y": 0.950419011,
				"z": -3.1354167101,
				"element": "C" 
			},
			{
				"x": -1.0024023188,
				"y": 0.3506270648,
				"z": -2.2675615531,
				"element": "O" 
			},
			{
				"x": 0.7127973773,
				"y": 0.4042245282,
				"z": -3.7733757377,
				"element": "N" 
			},
			{
				"x": 1.2355618872,
				"y": -0.9169729468,
				"z": -3.6227345568,
				"element": "C" 
			},
			{
				"x": 1.3470552224,
				"y": -1.6825609804,
				"z": -4.7919771727,
				"element": "C" 
			},
			{
				"x": 1.9261996272,
				"y": -2.9471414544,
				"z": -4.770316761,
				"element": "C" 
			},
			{
				"x": 2.3987365247,
				"y": -3.4594594314,
				"z": -3.5619597628,
				"element": "C" 
			},
			{
				"x": 2.2881340248,
				"y": -2.6967949389,
				"z": -2.4019167406,
				"element": "C" 
			},
			{
				"x": 1.7121855012,
				"y": -1.4153427002,
				"z": -2.3944542826,
				"element": "C" 
			},
			{
				"x": 1.6614258978,
				"y": -0.6430192055,
				"z": -1.0887768302,
				"element": "C" 
			},
			{
				"x": 0.7883075587,
				"y": -1.3997982588,
				"z": -0.0580926693,
				"element": "C" 
			},
			{
				"x": 0.278151394,
				"y": -0.665068971,
				"z": 1.1119620708,
				"element": "N" 
			},
			{
				"x": -1.0563693237,
				"y": -1.0956202145,
				"z": 1.558674768,
				"element": "C" 
			},
			{
				"x": -2.2585374925,
				"y": -0.4727335564,
				"z": 0.8046018769,
				"element": "C" 
			},
			{
				"x": -2.7907142923,
				"y": 0.8245628471,
				"z": 1.386552655,
				"element": "C" 
			},
			{
				"x": -2.2734333642,
				"y": 2.0952378891,
				"z": 1.054813382,
				"element": "C" 
			},
			{
				"x": -1.2117384279,
				"y": 2.2041386878,
				"z": 0.1188959208,
				"element": "N" 
			},
			{
				"x": -0.0109578203,
				"y": 2.8524961354,
				"z": 0.2556429392,
				"element": "C" 
			},
			{
				"x": 0.2683653076,
				"y": 3.6328705291,
				"z": 1.5262046876,
				"element": "C" 
			},
			{
				"x": 0.8336901893,
				"y": 2.78008514,
				"z": -0.644448977,
				"element": "O" 
			},
			{
				"x": -2.8449993931,
				"y": 3.2497032756,
				"z": 1.6061531036,
				"element": "C" 
			},
			{
				"x": -3.8856797505,
				"y": 3.1642593807,
				"z": 2.5280791136,
				"element": "C" 
			},
			{
				"x": -4.3938943475,
				"y": 1.9150746987,
				"z": 2.8797404363,
				"element": "C" 
			},
			{
				"x": -3.8540649426,
				"y": 0.7692345744,
				"z": 2.2972182312,
				"element": "C" 
			},
			{
				"x": 1.0178825856,
				"y": 0.0922128634,
				"z": 1.9940281481,
				"element": "C" 
			},
			{
				"x": 2.4951148706,
				"y": 0.3184092778,
				"z": 1.7145315,
				"element": "C" 
			},
			{
				"x": 0.5022648822,
				"y": 0.5975918623,
				"z": 2.9915762728,
				"element": "O" 
			},
			{
				"x": -1.7592346608,
				"y": 2.5352410292,
				"z": -3.4668957507,
				"element": "H" 
			},
			{
				"x": -0.1901155692,
				"y": 3.0256327677,
				"z": -2.7904459575,
				"element": "H" 
			},
			{
				"x": -0.3284211881,
				"y": 2.6437459575,
				"z": -4.5276197272,
				"element": "H" 
			},
			{
				"x": 1.1005006898,
				"y": 0.940235773,
				"z": -4.5364739977,
				"element": "H" 
			},
			{
				"x": 0.965669239,
				"y": -1.2718283874,
				"z": -5.7231120425,
				"element": "H" 
			},
			{
				"x": 2.0051156462,
				"y": -3.5245014469,
				"z": -5.6864519923,
				"element": "H" 
			},
			{
				"x": 2.8590612037,
				"y": -4.4422958855,
				"z": -3.5234891392,
				"element": "H" 
			},
			{
				"x": 2.6818320968,
				"y": -3.0942960319,
				"z": -1.4701456062,
				"element": "H" 
			},
			{
				"x": 2.6867612753,
				"y": -0.544837924,
				"z": -0.7229065609,
				"element": "H" 
			},
			{
				"x": 1.2773271439,
				"y": 0.3661485851,
				"z": -1.2302489407,
				"element": "H" 
			},
			{
				"x": 1.3125862106,
				"y": -2.3096819975,
				"z": 0.2732760014,
				"element": "H" 
			},
			{
				"x": -0.0989405929,
				"y": -1.7316093046,
				"z": -0.6000829323,
				"element": "H" 
			},
			{
				"x": -1.1286349712,
				"y": -0.8712757557,
				"z": 2.622973821,
				"element": "H" 
			},
			{
				"x": -1.1023839703,
				"y": -2.1854908711,
				"z": 1.4354270672,
				"element": "H" 
			},
			{
				"x": -3.0736639329,
				"y": -1.2043180836,
				"z": 0.8510904532,
				"element": "H" 
			},
			{
				"x": -2.0105793847,
				"y": -0.3688936237,
				"z": -0.2554345532,
				"element": "H" 
			},
			{
				"x": -1.2380911139,
				"y": 1.5794724584,
				"z": -0.6887075599,
				"element": "H" 
			},
			{
				"x": -0.0325681994,
				"y": 3.0742256742,
				"z": 2.415068806,
				"element": "H" 
			},
			{
				"x": -0.2523494408,
				"y": 4.5950146164,
				"z": 1.5225496856,
				"element": "H" 
			},
			{
				"x": 1.3407537706,
				"y": 3.8274800731,
				"z": 1.5553741467,
				"element": "H" 
			},
			{
				"x": -2.4788560086,
				"y": 4.2204811393,
				"z": 1.2908949684,
				"element": "H" 
			},
			{
				"x": -4.308409694,
				"y": 4.071506907,
				"z": 2.9497622067,
				"element": "H" 
			},
			{
				"x": -5.2125193105,
				"y": 1.8319112044,
				"z": 3.5884528159,
				"element": "H" 
			},
			{
				"x": -4.2635793754,
				"y": -0.2042991346,
				"z": 2.5565341894,
				"element": "H" 
			},
			{
				"x": 2.6250474156,
				"y": 1.0445684809,
				"z": 0.9068051398,
				"element": "H" 
			},
			{
				"x": 2.9300583275,
				"y": 0.7280350393,
				"z": 2.6262785318,
				"element": "H" 
			},
			{
				"x": 3.0222435965,
				"y": -0.6009490114,
				"z": 1.443667523,
				"element": "H" 
			}
		],
		 "valence_orbital": [ 
			{
				"type": "occ",
				"energy": -0.24178,
				"method": "rhf"
			},
			{
				"type": "occ",
				"energy": -0.2384,
				"method": "rhf"
			},
			{
				"type": "occ",
				"energy": -0.23277,
				"method": "rhf"
			},
			{
				"type": "occ",
				"energy": -0.22555,
				"method": "rhf"
			},
			{
				"type": "occ",
				"energy": -0.20989,
				"method": "rhf"
			},
			{
				"type": "unocc",
				"energy": -0.01861,
				"method": "rhf"
			},
			{
				"type": "unocc",
				"energy": -0.01076,
				"method": "rhf"
			},
			{
				"type": "unocc",
				"energy": -0.00198,
				"method": "rhf"
			},
			{
				"type": "unocc",
				"energy": 0.0045,
				"method": "rhf"
			},
			{
				"type": "unocc",
				"energy": 0.02498,
				"method": "rhf"
			}
		],
		"cosmo_sigma_profile": { 
			"-0.025": 0.0,
			"-0.024": 0.0,
			"-0.023": 0.0,
			"-0.022": 0.0,
			"-0.021": 0.0,
			"-0.02": 0.0,
			"-0.019": 0.0,
			"-0.018": 0.0,
			"-0.017": 0.0,
			"-0.016": 0.0,
			"-0.015": 0.801743492975,
			"-0.014": 1.13632586683,
			"-0.013": 1.50094668822,
			"-0.012": 1.19943822801,
			"-0.011": 1.03466866083,
			"-0.01": 2.12075510694,
			"-0.009": 1.12454192319,
			"-0.008": 2.08040598252,
			"-0.007": 4.83166346762,
			"-0.006": 17.719169093,
			"-0.005": 32.3759305262,
			"-0.004": 39.6288232892,
			"-0.003": 36.5006351134,
			"-0.002": 35.7864026798,
			"-0.001": 39.9358298967,
			"0.0": 34.3553134181,
			"0.001": 23.1914345568,
			"0.002": 22.915714493,
			"0.003": 26.2293724521,
			"0.004": 22.3659570068,
			"0.005": 30.5133510195,
			"0.006": 15.7461322601,
			"0.007": 5.592983894,
			"0.008": 4.61545998221,
			"0.009": 3.51175775756,
			"0.01": 4.17850947117,
			"0.011": 4.61756429033,
			"0.012": 3.48362046085,
			"0.013": 3.25564730802,
			"0.014": 2.28236925272,
			"0.015": 0.834890698441,
			"0.016": 0.00111545190135,
			"0.017": 0.0,
			"0.018": 0.0,
			"0.019": 0.0,
			"0.02": 0.0,
			"0.021": 0.0,
			"0.022": 0.0,
			"0.023": 0.0,
			"0.024": 0.0,
			"0.025": 0.0
		}
	}
}
