{
	 "smiles": "CCOC(=O)C1=C(NC(=O)NC2=CC(Cl)=CC=C2)NN=C1", 
	 "Tm": 531.15, 
	 "num_atms": 34, 
	 "gaussian": { 
		 "optdone": 1, 
		 "sigma_profile": "yes", 
		 "theory": "DFT", 
		 "functional": "B3LYP", 
		 "basiset": "6-31G**", 
		 "properties": { 
			 "R2extent": 7368.0001, 
			 "electric_dipole_moment_norm": 3.47755570193, 
			 "electric_quadrupole_moment_norm": 21.3599784581, 
			 "total_energy": -1408.10641916, 
			 "HOMO_LUMO_gap": 0.19121, 
			 "cosmo_polarized_energy": -20.3, 
			 "cosmo_cavitation_energy": 41.08, 
			 "cosmo_dispersion_energy": -27.95, 
			 "cosmo_repulsion_energy": 2.19, 
			 "cosmo_total_nonelectrostatic_energy": 15.32, 
			 "SMD_solvation_energy": 7.82 
		},
		"coords": [
			{
				"x": -1.1327150349,
				"y": 2.9993931973,
				"z": 4.5653771455,
				"element": "C" 
			},
			{
				"x": -1.8952862453,
				"y": 2.4128232711,
				"z": 3.3875132804,
				"element": "C" 
			},
			{
				"x": -0.9941394615,
				"y": 1.835012446,
				"z": 2.4096760652,
				"element": "O" 
			},
			{
				"x": -0.4809737664,
				"y": 2.6937034216,
				"z": 1.4706188733,
				"element": "C" 
			},
			{
				"x": -0.7539764509,
				"y": 3.8770906634,
				"z": 1.4326450055,
				"element": "O" 
			},
			{
				"x": 0.4201062201,
				"y": 2.0103963018,
				"z": 0.5518718646,
				"element": "C" 
			},
			{
				"x": 0.7773590432,
				"y": 0.6572178389,
				"z": 0.4917287955,
				"element": "C" 
			},
			{
				"x": 0.3371949642,
				"y": -0.3756547364,
				"z": 1.3045517459,
				"element": "N" 
			},
			{
				"x": 0.7488186105,
				"y": -1.7015612267,
				"z": 1.3701114171,
				"element": "C" 
			},
			{
				"x": 0.7429511044,
				"y": -2.3160694912,
				"z": 2.4223918071,
				"element": "O" 
			},
			{
				"x": 1.2039717757,
				"y": -2.2818860954,
				"z": 0.1780883271,
				"element": "N" 
			},
			{
				"x": 0.5429509228,
				"y": -2.2856203724,
				"z": -1.0862098549,
				"element": "C" 
			},
			{
				"x": -0.748442727,
				"y": -1.7759090961,
				"z": -1.267145691,
				"element": "C" 
			},
			{
				"x": -1.3189920249,
				"y": -1.8234957444,
				"z": -2.5379930549,
				"element": "C" 
			},
			{
				"x": -2.9370512199,
				"y": -1.1793390864,
				"z": -2.7577022416,
				"element": "Cl" 
			},
			{
				"x": -0.6525433939,
				"y": -2.3800625412,
				"z": -3.6282661447,
				"element": "C" 
			},
			{
				"x": 0.6274629151,
				"y": -2.8972564536,
				"z": -3.4271480341,
				"element": "C" 
			},
			{
				"x": 1.2301724645,
				"y": -2.8462022443,
				"z": -2.1725797629,
				"element": "C" 
			},
			{
				"x": 1.6754896565,
				"y": 0.550547348,
				"z": -0.5123730103,
				"element": "N" 
			},
			{
				"x": 1.9358876199,
				"y": 1.7441427227,
				"z": -1.1300612217,
				"element": "N" 
			},
			{
				"x": 1.1814756497,
				"y": 2.6146745887,
				"z": -0.4851635859,
				"element": "C" 
			},
			{
				"x": -0.4930489633,
				"y": 2.245176842,
				"z": 5.0335369997,
				"element": "H" 
			},
			{
				"x": -0.5131063856,
				"y": 3.8384933167,
				"z": 4.2402505087,
				"element": "H" 
			},
			{
				"x": -1.8387066924,
				"y": 3.3650941656,
				"z": 5.3184684322,
				"element": "H" 
			},
			{
				"x": -2.5339250196,
				"y": 1.5809901503,
				"z": 3.6946345344,
				"element": "H" 
			},
			{
				"x": -2.5019874988,
				"y": 3.1730550833,
				"z": 2.8913335124,
				"element": "H" 
			},
			{
				"x": -0.1215019493,
				"y": -0.0456006472,
				"z": 2.1479415328,
				"element": "H" 
			},
			{
				"x": 1.6521309851,
				"y": -3.1640573504,
				"z": 0.3996822426,
				"element": "H" 
			},
			{
				"x": -1.3044075934,
				"y": -1.3530200998,
				"z": -0.4405071711,
				"element": "H" 
			},
			{
				"x": -1.123528494,
				"y": -2.4053121176,
				"z": -4.6037423722,
				"element": "H" 
			},
			{
				"x": 1.1650454842,
				"y": -3.336075976,
				"z": -4.2620018391,
				"element": "H" 
			},
			{
				"x": 2.2329195719,
				"y": -3.2383574241,
				"z": -2.0283833462,
				"element": "H" 
			},
			{
				"x": 2.1388896784,
				"y": -0.287838739,
				"z": -0.8256156304,
				"element": "H" 
			},
			{
				"x": 1.1850062549,
				"y": 3.6602080849,
				"z": -0.7596291286,
				"element": "H" 
			}
		],
		 "valence_orbital": [ 
			{
				"type": "occ",
				"energy": -0.27664,
				"method": "rhf"
			},
			{
				"type": "occ",
				"energy": -0.2733,
				"method": "rhf"
			},
			{
				"type": "occ",
				"energy": -0.2662,
				"method": "rhf"
			},
			{
				"type": "occ",
				"energy": -0.2478,
				"method": "rhf"
			},
			{
				"type": "occ",
				"energy": -0.23331,
				"method": "rhf"
			},
			{
				"type": "unocc",
				"energy": -0.0421,
				"method": "rhf"
			},
			{
				"type": "unocc",
				"energy": -0.03224,
				"method": "rhf"
			},
			{
				"type": "unocc",
				"energy": -0.01765,
				"method": "rhf"
			},
			{
				"type": "unocc",
				"energy": 0.00727,
				"method": "rhf"
			},
			{
				"type": "unocc",
				"energy": 0.01934,
				"method": "rhf"
			}
		],
		"cosmo_sigma_profile": { 
			"-0.025": 0.0,
			"-0.024": 0.0,
			"-0.023": 0.0,
			"-0.022": 0.0,
			"-0.021": 0.0,
			"-0.02": 0.0,
			"-0.019": 0.0,
			"-0.018": 0.0,
			"-0.017": 0.0,
			"-0.016": 0.137059322447,
			"-0.015": 0.791133947494,
			"-0.014": 1.8704383461,
			"-0.013": 1.16964512335,
			"-0.012": 2.21336346493,
			"-0.011": 1.59704744219,
			"-0.01": 2.2099928427,
			"-0.009": 3.53416273631,
			"-0.008": 5.12457703686,
			"-0.007": 11.3087975767,
			"-0.006": 15.7729112299,
			"-0.005": 18.8719017736,
			"-0.004": 23.0320371163,
			"-0.003": 27.0013775262,
			"-0.002": 22.7464788367,
			"-0.001": 24.1441718467,
			"0.0": 27.2725476191,
			"0.001": 25.4610250731,
			"0.002": 25.6049921892,
			"0.003": 20.3100732356,
			"0.004": 16.4481216831,
			"0.005": 9.20655871585,
			"0.006": 4.79856988409,
			"0.007": 4.62850819908,
			"0.008": 3.5460540401,
			"0.009": 4.00134262985,
			"0.01": 3.93496831123,
			"0.011": 6.70970013442,
			"0.012": 11.4999161256,
			"0.013": 3.72752854575,
			"0.014": 0.868051095497,
			"0.015": 0.834068423718,
			"0.016": 0.0516458323064,
			"0.017": 0.0,
			"0.018": 0.0,
			"0.019": 0.0,
			"0.02": 0.0,
			"0.021": 0.0,
			"0.022": 0.0,
			"0.023": 0.0,
			"0.024": 0.0,
			"0.025": 0.0
		}
	}
}
