{
	 "smiles": "NC(=O)C=CC1=CC=C(Cl)C=C1", 
	 "Tm": 485.65, 
	 "num_atms": 20, 
	 "gaussian": { 
		 "optdone": 1, 
		 "sigma_profile": "yes", 
		 "theory": "DFT", 
		 "functional": "B3LYP", 
		 "basiset": "6-31G**", 
		 "properties": { 
			 "R2extent": 4549.4946, 
			 "electric_dipole_moment_norm": 3.22277965272, 
			 "electric_quadrupole_moment_norm": 15.4200983333, 
			 "total_energy": -937.953471088, 
			 "HOMO_LUMO_gap": 0.16824, 
			 "cosmo_polarized_energy": -15.15, 
			 "cosmo_cavitation_energy": 27.05, 
			 "cosmo_dispersion_energy": -19.91, 
			 "cosmo_repulsion_energy": 1.6, 
			 "cosmo_total_nonelectrostatic_energy": 8.73, 
			 "SMD_solvation_energy": 5.26 
		},
		"coords": [
			{
				"x": -1.697684244,
				"y": 3.1887123131,
				"z": -0.6269033172,
				"element": "N" 
			},
			{
				"x": -1.3172291215,
				"y": 2.2995946344,
				"z": 0.3457096791,
				"element": "C" 
			},
			{
				"x": -1.7196125007,
				"y": 2.3915872909,
				"z": 1.5009828361,
				"element": "O" 
			},
			{
				"x": -0.3730231147,
				"y": 1.2410403157,
				"z": -0.1111662307,
				"element": "C" 
			},
			{
				"x": 0.060765442,
				"y": 0.3166283499,
				"z": 0.7622059082,
				"element": "C" 
			},
			{
				"x": 0.979863187,
				"y": -0.7957090894,
				"z": 0.519327444,
				"element": "C" 
			},
			{
				"x": 1.2948395784,
				"y": -1.6565980594,
				"z": 1.5860488576,
				"element": "C" 
			},
			{
				"x": 2.161795084,
				"y": -2.7342956784,
				"z": 1.4228831513,
				"element": "C" 
			},
			{
				"x": 2.728951373,
				"y": -2.9610736485,
				"z": 0.1701683911,
				"element": "C" 
			},
			{
				"x": 3.8240005107,
				"y": -4.3144018312,
				"z": -0.054456294,
				"element": "Cl" 
			},
			{
				"x": 2.4391627074,
				"y": -2.1259204331,
				"z": -0.9121264492,
				"element": "C" 
			},
			{
				"x": 1.5718445928,
				"y": -1.0549800388,
				"z": -0.7319721028,
				"element": "C" 
			},
			{
				"x": -1.4693105985,
				"y": 3.0567718833,
				"z": -1.5985977625,
				"element": "H" 
			},
			{
				"x": -2.3913840589,
				"y": 3.8784725324,
				"z": -0.3823196365,
				"element": "H" 
			},
			{
				"x": -0.0556942705,
				"y": 1.2468866608,
				"z": -1.1516665928,
				"element": "H" 
			},
			{
				"x": -0.3237210358,
				"y": 0.4129424589,
				"z": 1.77669269,
				"element": "H" 
			},
			{
				"x": 0.8504674779,
				"y": -1.4759104404,
				"z": 2.5608494607,
				"element": "H" 
			},
			{
				"x": 2.3957431949,
				"y": -3.390119631,
				"z": 2.2540104664,
				"element": "H" 
			},
			{
				"x": 2.8902263953,
				"y": -2.3171383938,
				"z": -1.8795179786,
				"element": "H" 
			},
			{
				"x": 1.3545994011,
				"y": -0.4122891954,
				"z": -1.5792525201,
				"element": "H" 
			}
		],
		 "valence_orbital": [ 
			{
				"type": "occ",
				"energy": -0.29566,
				"method": "rhf"
			},
			{
				"type": "occ",
				"energy": -0.27203,
				"method": "rhf"
			},
			{
				"type": "occ",
				"energy": -0.26587,
				"method": "rhf"
			},
			{
				"type": "occ",
				"energy": -0.25008,
				"method": "rhf"
			},
			{
				"type": "occ",
				"energy": -0.23316,
				"method": "rhf"
			},
			{
				"type": "unocc",
				"energy": -0.06492,
				"method": "rhf"
			},
			{
				"type": "unocc",
				"energy": -0.02046,
				"method": "rhf"
			},
			{
				"type": "unocc",
				"energy": 0.01922,
				"method": "rhf"
			},
			{
				"type": "unocc",
				"energy": 0.02452,
				"method": "rhf"
			},
			{
				"type": "unocc",
				"energy": 0.07082,
				"method": "rhf"
			}
		],
		"cosmo_sigma_profile": { 
			"-0.025": 0.0,
			"-0.024": 0.0,
			"-0.023": 0.0,
			"-0.022": 0.0,
			"-0.021": 0.0,
			"-0.02": 0.0,
			"-0.019": 0.0,
			"-0.018": 0.0,
			"-0.017": 0.0,
			"-0.016": 0.0,
			"-0.015": 0.307649719684,
			"-0.014": 1.81997583588,
			"-0.013": 2.48789508425,
			"-0.012": 2.43823978764,
			"-0.011": 2.66814530012,
			"-0.01": 3.00961718123,
			"-0.009": 3.528541412,
			"-0.008": 4.63328856924,
			"-0.007": 10.92748723,
			"-0.006": 10.5489650893,
			"-0.005": 9.65119428745,
			"-0.004": 8.51371171117,
			"-0.003": 8.91692129593,
			"-0.002": 10.0291185781,
			"-0.001": 9.56140525787,
			"0.0": 14.1414127459,
			"0.001": 20.1201846121,
			"0.002": 22.7649735812,
			"0.003": 27.4151594989,
			"0.004": 15.7479112466,
			"0.005": 7.28488333494,
			"0.006": 2.69070153807,
			"0.007": 1.53431468152,
			"0.008": 1.49749716506,
			"0.009": 1.49934400612,
			"0.01": 1.68530388976,
			"0.011": 0.771761497475,
			"0.012": 2.15769823762,
			"0.013": 2.34474238726,
			"0.014": 6.1900242735,
			"0.015": 1.71740539916,
			"0.016": 0.0,
			"0.017": 0.0,
			"0.018": 0.0,
			"0.019": 0.0,
			"0.02": 0.0,
			"0.021": 0.0,
			"0.022": 0.0,
			"0.023": 0.0,
			"0.024": 0.0,
			"0.025": 0.0
		}
	}
}
