{
	 "smiles": "OC1=CC=CC(O)=C1C(=O)NC1=CC=C(Br)C=C1", 
	 "Tm": 502.15, 
	 "num_atms": 28, 
	 "gaussian": { 
		 "optdone": 1, 
		 "sigma_profile": "yes", 
		 "theory": "DFT", 
		 "functional": "B3LYP", 
		 "basiset": "6-31G**", 
		 "properties": { 
			 "R2extent": 11887.129, 
			 "electric_dipole_moment_norm": 5.73611524379, 
			 "electric_quadrupole_moment_norm": 12.4153201634, 
			 "total_energy": -3353.26813013, 
			 "HOMO_LUMO_gap": 0.16587, 
			 "cosmo_polarized_energy": -15.05, 
			 "cosmo_cavitation_energy": 34.53, 
			 "cosmo_dispersion_energy": -26.45, 
			 "cosmo_repulsion_energy": 1.99, 
			 "cosmo_total_nonelectrostatic_energy": 10.08, 
			 "SMD_solvation_energy": 5.39 
		},
		"coords": [
			{
				"x": -0.8338777662,
				"y": 1.9217327382,
				"z": 0.9019176858,
				"element": "O" 
			},
			{
				"x": -1.1045612416,
				"y": 1.8083966195,
				"z": -0.4430153011,
				"element": "C" 
			},
			{
				"x": -2.2046749546,
				"y": 2.469452864,
				"z": -0.9760267683,
				"element": "C" 
			},
			{
				"x": -2.4810847799,
				"y": 2.3553640285,
				"z": -2.3421907582,
				"element": "C" 
			},
			{
				"x": -1.6730207453,
				"y": 1.593442768,
				"z": -3.1660458774,
				"element": "C" 
			},
			{
				"x": -0.5577629972,
				"y": 0.92117353,
				"z": -2.6350470116,
				"element": "C" 
			},
			{
				"x": 0.178668439,
				"y": 0.2041927205,
				"z": -3.4854505852,
				"element": "O" 
			},
			{
				"x": -0.2423559593,
				"y": 1.0137743437,
				"z": -1.2418528483,
				"element": "C" 
			},
			{
				"x": 0.9560181772,
				"y": 0.2709316605,
				"z": -0.7612145309,
				"element": "C" 
			},
			{
				"x": 1.6449404922,
				"y": -0.4008729379,
				"z": -1.5601215744,
				"element": "O" 
			},
			{
				"x": 1.2815212738,
				"y": 0.3407883234,
				"z": 0.5624686137,
				"element": "N" 
			},
			{
				"x": 2.3545031296,
				"y": -0.2673719959,
				"z": 1.2431754488,
				"element": "C" 
			},
			{
				"x": 3.3187366841,
				"y": -1.0905950001,
				"z": 0.6389531407,
				"element": "C" 
			},
			{
				"x": 4.3413189304,
				"y": -1.6428997544,
				"z": 1.4100228555,
				"element": "C" 
			},
			{
				"x": 4.4116689328,
				"y": -1.3826116509,
				"z": 2.7759412702,
				"element": "C" 
			},
			{
				"x": 5.8187400943,
				"y": -2.1469839518,
				"z": 3.8198882301,
				"element": "Br" 
			},
			{
				"x": 3.4625699829,
				"y": -0.5675696965,
				"z": 3.3904543642,
				"element": "C" 
			},
			{
				"x": 2.4422508403,
				"y": -0.0159062567,
				"z": 2.6235931512,
				"element": "C" 
			},
			{
				"x": -1.497421331,
				"y": 2.4879539086,
				"z": 1.3156852927,
				"element": "H" 
			},
			{
				"x": -2.8403785012,
				"y": 3.0685572574,
				"z": -0.3287959873,
				"element": "H" 
			},
			{
				"x": -3.3412996294,
				"y": 2.8728035399,
				"z": -2.7564402977,
				"element": "H" 
			},
			{
				"x": -1.8672981087,
				"y": 1.4902529081,
				"z": -4.2272775321,
				"element": "H" 
			},
			{
				"x": 0.9165853525,
				"y": -0.1969577449,
				"z": -2.9412460851,
				"element": "H" 
			},
			{
				"x": 0.6659257792,
				"y": 0.9082428941,
				"z": 1.1320805224,
				"element": "H" 
			},
			{
				"x": 3.2633259004,
				"y": -1.2918434333,
				"z": -0.4202060761,
				"element": "H" 
			},
			{
				"x": 5.0834854344,
				"y": -2.2778357699,
				"z": 0.9394283143,
				"element": "H" 
			},
			{
				"x": 3.5182715362,
				"y": -0.3654978163,
				"z": 4.4539207417,
				"element": "H" 
			},
			{
				"x": 1.702205035,
				"y": 0.6196859044,
				"z": 3.1036016026,
				"element": "H" 
			}
		],
		 "valence_orbital": [ 
			{
				"type": "occ",
				"energy": -0.27347,
				"method": "rhf"
			},
			{
				"type": "occ",
				"energy": -0.26404,
				"method": "rhf"
			},
			{
				"type": "occ",
				"energy": -0.2576,
				"method": "rhf"
			},
			{
				"type": "occ",
				"energy": -0.22687,
				"method": "rhf"
			},
			{
				"type": "occ",
				"energy": -0.21796,
				"method": "rhf"
			},
			{
				"type": "unocc",
				"energy": -0.05209,
				"method": "rhf"
			},
			{
				"type": "unocc",
				"energy": -0.01378,
				"method": "rhf"
			},
			{
				"type": "unocc",
				"energy": -0.00201,
				"method": "rhf"
			},
			{
				"type": "unocc",
				"energy": 0.00693,
				"method": "rhf"
			},
			{
				"type": "unocc",
				"energy": 0.01012,
				"method": "rhf"
			}
		],
		"cosmo_sigma_profile": { 
			"-0.025": 0.0,
			"-0.024": 0.0,
			"-0.023": 0.0,
			"-0.022": 0.0,
			"-0.021": 0.0,
			"-0.02": 0.0,
			"-0.019": 0.627066268272,
			"-0.018": 1.25093918562,
			"-0.017": 0.866705173311,
			"-0.016": 1.60529716515,
			"-0.015": 0.862987807903,
			"-0.014": 0.786746869045,
			"-0.013": 0.826083981158,
			"-0.012": 0.449356469583,
			"-0.011": 1.60180251035,
			"-0.01": 2.05313995349,
			"-0.009": 1.91653289567,
			"-0.008": 3.29807810536,
			"-0.007": 8.48086359291,
			"-0.006": 11.8792899873,
			"-0.005": 12.8175417721,
			"-0.004": 12.7161849023,
			"-0.003": 12.8116182403,
			"-0.002": 16.9891495401,
			"-0.001": 18.6618622218,
			"0.0": 20.6471406288,
			"0.001": 24.5890218815,
			"0.002": 28.7507354879,
			"0.003": 35.4295564688,
			"0.004": 28.39295288,
			"0.005": 15.4049568679,
			"0.006": 2.73582352812,
			"0.007": 3.78279800877,
			"0.008": 3.40626828806,
			"0.009": 2.75073982239,
			"0.01": 1.76050728309,
			"0.011": 1.95813403526,
			"0.012": 1.19855848256,
			"0.013": 0.0,
			"0.014": 0.0,
			"0.015": 0.0,
			"0.016": 0.0,
			"0.017": 0.0,
			"0.018": 0.0,
			"0.019": 0.0,
			"0.02": 0.0,
			"0.021": 0.0,
			"0.022": 0.0,
			"0.023": 0.0,
			"0.024": 0.0,
			"0.025": 0.0
		}
	}
}
