{
	 "smiles": "OC(=O)CN1CCC(=O)NC1=O", 
	 "Tm": 471.15, 
	 "num_atms": 20, 
	 "gaussian": { 
		 "optdone": 1, 
		 "sigma_profile": "yes", 
		 "theory": "DFT", 
		 "functional": "B3LYP", 
		 "basiset": "6-31G**", 
		 "properties": { 
			 "R2extent": 2415.4026, 
			 "electric_dipole_moment_norm": 4.28997476333, 
			 "electric_quadrupole_moment_norm": 6.95232737722, 
			 "total_energy": -643.910659853, 
			 "HOMO_LUMO_gap": 0.24685, 
			 "cosmo_polarized_energy": -19.08, 
			 "cosmo_cavitation_energy": 24.52, 
			 "cosmo_dispersion_energy": -17.92, 
			 "cosmo_repulsion_energy": 1.45, 
			 "cosmo_total_nonelectrostatic_energy": 8.05, 
			 "SMD_solvation_energy": 6.69 
		},
		"coords": [
			{
				"x": -0.6040375217,
				"y": -2.5500077956,
				"z": 2.3764546656,
				"element": "O" 
			},
			{
				"x": -0.6333285999,
				"y": -1.7918845133,
				"z": 1.2596167386,
				"element": "C" 
			},
			{
				"x": -1.6068328727,
				"y": -1.6861528897,
				"z": 0.5484658997,
				"element": "O" 
			},
			{
				"x": 0.705445062,
				"y": -1.0964508942,
				"z": 1.0543429006,
				"element": "C" 
			},
			{
				"x": 0.7236463443,
				"y": -0.2877311002,
				"z": -0.1403672731,
				"element": "N" 
			},
			{
				"x": -0.071435965,
				"y": 0.9396245113,
				"z": -0.203934568,
				"element": "C" 
			},
			{
				"x": -0.5740651738,
				"y": 1.1688359881,
				"z": -1.6270959838,
				"element": "C" 
			},
			{
				"x": 0.5550782981,
				"y": 1.0891501164,
				"z": -2.6367446227,
				"element": "C" 
			},
			{
				"x": 0.5785204828,
				"y": 1.6754610497,
				"z": -3.7010405559,
				"element": "O" 
			},
			{
				"x": 1.5847885724,
				"y": 0.2374905591,
				"z": -2.2504556741,
				"element": "N" 
			},
			{
				"x": 1.63920039,
				"y": -0.5933274717,
				"z": -1.1180787417,
				"element": "C" 
			},
			{
				"x": 2.4573276759,
				"y": -1.4989629314,
				"z": -1.0476984397,
				"element": "O" 
			},
			{
				"x": -1.4794628119,
				"y": -2.9653428848,
				"z": 2.4546593397,
				"element": "H" 
			},
			{
				"x": 1.4921602925,
				"y": -1.8498259829,
				"z": 0.9640116347,
				"element": "H" 
			},
			{
				"x": 0.9265143494,
				"y": -0.5035990441,
				"z": 1.9527110728,
				"element": "H" 
			},
			{
				"x": -0.9210624178,
				"y": 0.8266539638,
				"z": 0.4706780991,
				"element": "H" 
			},
			{
				"x": 0.5249544079,
				"y": 1.7986927745,
				"z": 0.138777619,
				"element": "H" 
			},
			{
				"x": -1.3061135731,
				"y": 0.3919371558,
				"z": -1.880112208,
				"element": "H" 
			},
			{
				"x": -1.0604759527,
				"y": 2.1405061818,
				"z": -1.7333284484,
				"element": "H" 
			},
			{
				"x": 2.3036790133,
				"y": 0.0515332074,
				"z": -2.9393614545,
				"element": "H" 
			}
		],
		 "valence_orbital": [ 
			{
				"type": "occ",
				"energy": -0.29867,
				"method": "rhf"
			},
			{
				"type": "occ",
				"energy": -0.29214,
				"method": "rhf"
			},
			{
				"type": "occ",
				"energy": -0.28053,
				"method": "rhf"
			},
			{
				"type": "occ",
				"energy": -0.26318,
				"method": "rhf"
			},
			{
				"type": "occ",
				"energy": -0.26046,
				"method": "rhf"
			},
			{
				"type": "unocc",
				"energy": -0.01361,
				"method": "rhf"
			},
			{
				"type": "unocc",
				"energy": -0.00739,
				"method": "rhf"
			},
			{
				"type": "unocc",
				"energy": 0.05322,
				"method": "rhf"
			},
			{
				"type": "unocc",
				"energy": 0.06228,
				"method": "rhf"
			},
			{
				"type": "unocc",
				"energy": 0.08604,
				"method": "rhf"
			}
		],
		"cosmo_sigma_profile": { 
			"-0.025": 0.0,
			"-0.024": 0.0,
			"-0.023": 0.0,
			"-0.022": 0.0,
			"-0.021": 0.0,
			"-0.02": 0.0,
			"-0.019": 0.200784397201,
			"-0.018": 1.11142218815,
			"-0.017": 1.15678439935,
			"-0.016": 0.449118951035,
			"-0.015": 1.47455583009,
			"-0.014": 1.72925438473,
			"-0.013": 1.63899964484,
			"-0.012": 1.19105895525,
			"-0.011": 2.13563653531,
			"-0.01": 1.04470121823,
			"-0.009": 1.8554739027,
			"-0.008": 5.25678430225,
			"-0.007": 9.11583026129,
			"-0.006": 16.5091377535,
			"-0.005": 17.8405211845,
			"-0.004": 14.6143163125,
			"-0.003": 11.6732312868,
			"-0.002": 10.5499009538,
			"-0.001": 7.15844655288,
			"0.0": 8.21389088377,
			"0.001": 5.6224420446,
			"0.002": 5.39361585226,
			"0.003": 5.56089496396,
			"0.004": 5.49572050417,
			"0.005": 4.37102744381,
			"0.006": 4.47585727868,
			"0.007": 5.82263604591,
			"0.008": 5.90289705562,
			"0.009": 5.2854123382,
			"0.01": 5.51018760203,
			"0.011": 8.27468734361,
			"0.012": 9.75951109069,
			"0.013": 6.71582666564,
			"0.014": 0.514862310685,
			"0.015": 0.0,
			"0.016": 0.0,
			"0.017": 0.0,
			"0.018": 0.0,
			"0.019": 0.0,
			"0.02": 0.0,
			"0.021": 0.0,
			"0.022": 0.0,
			"0.023": 0.0,
			"0.024": 0.0,
			"0.025": 0.0
		}
	}
}
