{
	 "smiles": "FC1=CC=C(CNC(=O)C2CCNCC2)C=C1", 
	 "Tm": 413.15, 
	 "num_atms": 34, 
	 "gaussian": { 
		 "optdone": 1, 
		 "sigma_profile": "yes", 
		 "theory": "DFT", 
		 "functional": "B3LYP", 
		 "basiset": "6-31G**", 
		 "properties": { 
			 "R2extent": 5523.2511, 
			 "electric_dipole_moment_norm": 3.10389598247, 
			 "electric_quadrupole_moment_norm": 11.1706945943, 
			 "total_energy": -790.198066034, 
			 "HOMO_LUMO_gap": 0.20456, 
			 "cosmo_polarized_energy": -14.69, 
			 "cosmo_cavitation_energy": 36.14, 
			 "cosmo_dispersion_energy": -25.31, 
			 "cosmo_repulsion_energy": 1.96, 
			 "cosmo_total_nonelectrostatic_energy": 12.79, 
			 "SMD_solvation_energy": 3.51 
		},
		"coords": [
			{
				"x": 3.4969265012,
				"y": 2.8639742893,
				"z": -2.9699840918,
				"element": "F" 
			},
			{
				"x": 3.0027388903,
				"y": 2.0828717572,
				"z": -1.9854814755,
				"element": "C" 
			},
			{
				"x": 2.678367074,
				"y": 0.7599901766,
				"z": -2.2725633663,
				"element": "C" 
			},
			{
				"x": 2.1705146675,
				"y": -0.0426234025,
				"z": -1.2532755328,
				"element": "C" 
			},
			{
				"x": 1.98432515,
				"y": 0.4698621729,
				"z": 0.0409368292,
				"element": "C" 
			},
			{
				"x": 1.4138552555,
				"y": -0.4133208297,
				"z": 1.1351172692,
				"element": "C" 
			},
			{
				"x": -0.0041732498,
				"y": -0.7268559137,
				"z": 0.9619307906,
				"element": "N" 
			},
			{
				"x": -0.4182526726,
				"y": -1.8601823571,
				"z": 0.3136427696,
				"element": "C" 
			},
			{
				"x": 0.3720261484,
				"y": -2.7132154495,
				"z": -0.0830188355,
				"element": "O" 
			},
			{
				"x": -1.9209439423,
				"y": -2.0016084252,
				"z": 0.0578340996,
				"element": "C" 
			},
			{
				"x": -2.8764371935,
				"y": -1.3419018029,
				"z": 1.0932580771,
				"element": "C" 
			},
			{
				"x": -3.4650389412,
				"y": -0.0201214841,
				"z": 0.5895996645,
				"element": "C" 
			},
			{
				"x": -4.2859363026,
				"y": -0.2633941995,
				"z": -0.601059642,
				"element": "N" 
			},
			{
				"x": -3.7372828651,
				"y": -1.2625249693,
				"z": -1.5397472411,
				"element": "C" 
			},
			{
				"x": -2.2293019597,
				"y": -1.485063341,
				"z": -1.3762433808,
				"element": "C" 
			},
			{
				"x": 2.3232930056,
				"y": 1.8036921613,
				"z": 0.2925463274,
				"element": "C" 
			},
			{
				"x": 2.8359475361,
				"y": 2.6220838556,
				"z": -0.7166755342,
				"element": "C" 
			},
			{
				"x": 2.83203376,
				"y": 0.3775211203,
				"z": -3.2760511509,
				"element": "H" 
			},
			{
				"x": 1.9147989986,
				"y": -1.0793670639,
				"z": -1.4515160865,
				"element": "H" 
			},
			{
				"x": 1.5455569574,
				"y": 0.065677566,
				"z": 2.1110165299,
				"element": "H" 
			},
			{
				"x": 1.9315020989,
				"y": -1.3751290858,
				"z": 1.1559812217,
				"element": "H" 
			},
			{
				"x": -0.6737123151,
				"y": 0.0102433123,
				"z": 1.1271034684,
				"element": "H" 
			},
			{
				"x": -2.0882442691,
				"y": -3.0827923469,
				"z": 0.0646266103,
				"element": "H" 
			},
			{
				"x": -2.37215737,
				"y": -1.1930007776,
				"z": 2.0537517501,
				"element": "H" 
			},
			{
				"x": -3.7115124847,
				"y": -2.0233938692,
				"z": 1.2877696647,
				"element": "H" 
			},
			{
				"x": -4.0949917119,
				"y": 0.4296914108,
				"z": 1.3668723538,
				"element": "H" 
			},
			{
				"x": -2.6427799933,
				"y": 0.7008688699,
				"z": 0.4065177061,
				"element": "H" 
			},
			{
				"x": -4.454116217,
				"y": 0.6119645092,
				"z": -1.0840372088,
				"element": "H" 
			},
			{
				"x": -4.2521669338,
				"y": -2.2233443106,
				"z": -1.3909169059,
				"element": "H" 
			},
			{
				"x": -3.968973117,
				"y": -0.9482381371,
				"z": -2.5628950291,
				"element": "H" 
			},
			{
				"x": -1.6995699802,
				"y": -0.5408458518,
				"z": -1.5582911476,
				"element": "H" 
			},
			{
				"x": -1.8545549106,
				"y": -2.2030482379,
				"z": -2.1119395571,
				"element": "H" 
			},
			{
				"x": 2.191630892,
				"y": 2.2134161677,
				"z": 1.2912571381,
				"element": "H" 
			},
			{
				"x": 3.1048294941,
				"y": 3.6567144861,
				"z": -0.5328660842,
				"element": "H" 
			}
		],
		 "valence_orbital": [ 
			{
				"type": "occ",
				"energy": -0.26111,
				"method": "rhf"
			},
			{
				"type": "occ",
				"energy": -0.26034,
				"method": "rhf"
			},
			{
				"type": "occ",
				"energy": -0.24272,
				"method": "rhf"
			},
			{
				"type": "occ",
				"energy": -0.2371,
				"method": "rhf"
			},
			{
				"type": "occ",
				"energy": -0.21666,
				"method": "rhf"
			},
			{
				"type": "unocc",
				"energy": -0.0121,
				"method": "rhf"
			},
			{
				"type": "unocc",
				"energy": -0.00363,
				"method": "rhf"
			},
			{
				"type": "unocc",
				"energy": 0.02906,
				"method": "rhf"
			},
			{
				"type": "unocc",
				"energy": 0.05824,
				"method": "rhf"
			},
			{
				"type": "unocc",
				"energy": 0.08651,
				"method": "rhf"
			}
		],
		"cosmo_sigma_profile": { 
			"-0.025": 0.0,
			"-0.024": 0.0,
			"-0.023": 0.0,
			"-0.022": 0.0,
			"-0.021": 0.0,
			"-0.02": 0.0,
			"-0.019": 0.0,
			"-0.018": 0.0,
			"-0.017": 0.0,
			"-0.016": 0.0,
			"-0.015": 0.0,
			"-0.014": 0.0,
			"-0.013": 0.126731804134,
			"-0.012": 0.72722778512,
			"-0.011": 1.22609746156,
			"-0.01": 1.94603658112,
			"-0.009": 3.29950158099,
			"-0.008": 2.95968244887,
			"-0.007": 6.31368159079,
			"-0.006": 12.8175929963,
			"-0.005": 11.3578147759,
			"-0.004": 20.9649767112,
			"-0.003": 27.1929317979,
			"-0.002": 34.4021282512,
			"-0.001": 28.6025738115,
			"0.0": 22.0942978594,
			"0.001": 18.3601429836,
			"0.002": 15.2957003848,
			"0.003": 16.4433663803,
			"0.004": 21.8212296704,
			"0.005": 11.5408022602,
			"0.006": 2.45537776804,
			"0.007": 2.12986683333,
			"0.008": 2.23075794389,
			"0.009": 2.29239376507,
			"0.01": 2.29215261472,
			"0.011": 1.43703699781,
			"0.012": 1.98151113133,
			"0.013": 2.56739704945,
			"0.014": 4.50459843782,
			"0.015": 2.29815737039,
			"0.016": 0.561045163661,
			"0.017": 0.720961900406,
			"0.018": 0.457582768175,
			"0.019": 0.141067277694,
			"0.02": 0.0,
			"0.021": 0.0,
			"0.022": 0.0,
			"0.023": 0.0,
			"0.024": 0.0,
			"0.025": 0.0
		}
	}
}
