{
	 "smiles": "COC1=C(OC)C(=CC(=C1)C(O)=O)[N+]([O-])=O", 
	 "Tm": 467.15, 
	 "num_atms": 25, 
	 "gaussian": { 
		 "optdone": 1, 
		 "sigma_profile": "yes", 
		 "theory": "DFT", 
		 "functional": "B3LYP", 
		 "basiset": "6-31G**", 
		 "properties": { 
			 "R2extent": 4213.0929, 
			 "electric_dipole_moment_norm": 5.29264538487, 
			 "electric_quadrupole_moment_norm": 15.1825605956, 
			 "total_energy": -854.350664439, 
			 "HOMO_LUMO_gap": 0.17422, 
			 "cosmo_polarized_energy": -14.15, 
			 "cosmo_cavitation_energy": 30.67, 
			 "cosmo_dispersion_energy": -21.73, 
			 "cosmo_repulsion_energy": 1.71, 
			 "cosmo_total_nonelectrostatic_energy": 10.64, 
			 "SMD_solvation_energy": 10.29 
		},
		"coords": [
			{
				"x": -0.247248035,
				"y": -0.0066560643,
				"z": 2.6676954487,
				"element": "C" 
			},
			{
				"x": 0.1200815271,
				"y": -0.9443241057,
				"z": 1.6431040005,
				"element": "O" 
			},
			{
				"x": 0.0024583441,
				"y": -0.4820954985,
				"z": 0.3580673448,
				"element": "C" 
			},
			{
				"x": -1.2739195485,
				"y": -0.3426245373,
				"z": -0.231000166,
				"element": "C" 
			},
			{
				"x": -2.3935327255,
				"y": -0.5461176989,
				"z": 0.5096462245,
				"element": "O" 
			},
			{
				"x": -2.7579064225,
				"y": -1.9243667988,
				"z": 0.7250065517,
				"element": "C" 
			},
			{
				"x": -1.3347377711,
				"y": 0.1053229202,
				"z": -1.5630090947,
				"element": "C" 
			},
			{
				"x": -0.190709181,
				"y": 0.4221013367,
				"z": -2.2872676709,
				"element": "C" 
			},
			{
				"x": 1.0617165853,
				"y": 0.2477785254,
				"z": -1.6973838001,
				"element": "C" 
			},
			{
				"x": 1.1535764013,
				"y": -0.2016062927,
				"z": -0.3727887066,
				"element": "C" 
			},
			{
				"x": 2.2642213412,
				"y": 0.5651899153,
				"z": -2.5147707504,
				"element": "C" 
			},
			{
				"x": 3.4235399953,
				"y": 0.3700979959,
				"z": -1.8410577501,
				"element": "O" 
			},
			{
				"x": 2.2339072829,
				"y": 0.95778309,
				"z": -3.6628845778,
				"element": "O" 
			},
			{
				"x": -2.6280907053,
				"y": 0.2392030061,
				"z": -2.2510380848,
				"element": "N" 
			},
			{
				"x": -2.7309603293,
				"y": 1.1487664901,
				"z": -3.0719372612,
				"element": "O" 
			},
			{
				"x": -3.5077249304,
				"y": -0.5776452274,
				"z": -1.9871037996,
				"element": "O" 
			},
			{
				"x": 0.4066438436,
				"y": 0.8732457681,
				"z": 2.6370075933,
				"element": "H" 
			},
			{
				"x": -0.1085488707,
				"y": -0.5275183812,
				"z": 3.6164154478,
				"element": "H" 
			},
			{
				"x": -1.2905426707,
				"y": 0.3041885376,
				"z": 2.5638171862,
				"element": "H" 
			},
			{
				"x": -1.939186698,
				"y": -2.4689172644,
				"z": 1.2040453218,
				"element": "H" 
			},
			{
				"x": -3.0328340872,
				"y": -2.386304694,
				"z": -0.2264504635,
				"element": "H" 
			},
			{
				"x": -3.625463276,
				"y": -1.8999966432,
				"z": 1.3853219293,
				"element": "H" 
			},
			{
				"x": -0.270535151,
				"y": 0.7857547059,
				"z": -3.3041096315,
				"element": "H" 
			},
			{
				"x": 2.1179974272,
				"y": -0.3333255703,
				"z": 0.1031768684,
				"element": "H" 
			},
			{
				"x": 4.1348976542,
				"y": 0.6034664854,
				"z": -2.4600021596,
				"element": "H" 
			}
		],
		 "valence_orbital": [ 
			{
				"type": "occ",
				"energy": -0.30435,
				"method": "rhf"
			},
			{
				"type": "occ",
				"energy": -0.29337,
				"method": "rhf"
			},
			{
				"type": "occ",
				"energy": -0.28128,
				"method": "rhf"
			},
			{
				"type": "occ",
				"energy": -0.27514,
				"method": "rhf"
			},
			{
				"type": "occ",
				"energy": -0.26223,
				"method": "rhf"
			},
			{
				"type": "unocc",
				"energy": -0.08801,
				"method": "rhf"
			},
			{
				"type": "unocc",
				"energy": -0.06267,
				"method": "rhf"
			},
			{
				"type": "unocc",
				"energy": -0.01688,
				"method": "rhf"
			},
			{
				"type": "unocc",
				"energy": 0.0416,
				"method": "rhf"
			},
			{
				"type": "unocc",
				"energy": 0.0578,
				"method": "rhf"
			}
		],
		"cosmo_sigma_profile": { 
			"-0.025": 0.0,
			"-0.024": 0.0,
			"-0.023": 0.0,
			"-0.022": 0.0,
			"-0.021": 0.0,
			"-0.02": 0.0,
			"-0.019": 0.278713013439,
			"-0.018": 1.00819666556,
			"-0.017": 0.845894807164,
			"-0.016": 0.855522705435,
			"-0.015": 0.831558844437,
			"-0.014": 0.735002817893,
			"-0.013": 0.791861756429,
			"-0.012": 0.202019423512,
			"-0.011": 1.21613276926,
			"-0.01": 0.628863328497,
			"-0.009": 0.532195248834,
			"-0.008": 1.11416548344,
			"-0.007": 3.35020336823,
			"-0.006": 9.30391144233,
			"-0.005": 14.7248775801,
			"-0.004": 23.1177543731,
			"-0.003": 31.9907111054,
			"-0.002": 22.5465896861,
			"-0.001": 20.9190130406,
			"0.0": 17.1128210223,
			"0.001": 10.1612708382,
			"0.002": 8.36234052585,
			"0.003": 8.34766982932,
			"0.004": 7.71246211182,
			"0.005": 8.48869749065,
			"0.006": 9.08420810317,
			"0.007": 11.9736764414,
			"0.008": 10.3032074119,
			"0.009": 6.81156991473,
			"0.01": 4.67115819891,
			"0.011": 5.417687556,
			"0.012": 1.17147889286,
			"0.013": 0.0,
			"0.014": 0.0,
			"0.015": 0.0,
			"0.016": 0.0,
			"0.017": 0.0,
			"0.018": 0.0,
			"0.019": 0.0,
			"0.02": 0.0,
			"0.021": 0.0,
			"0.022": 0.0,
			"0.023": 0.0,
			"0.024": 0.0,
			"0.025": 0.0
		}
	}
}
