{
	 "smiles": "OC1=CC=C(CCC(=O)C2=C(O)C=C(O)C=C2O)C=C1", 
	 "Tm": 534.15, 
	 "num_atms": 34, 
	 "gaussian": { 
		 "optdone": 1, 
		 "sigma_profile": "yes", 
		 "theory": "DFT", 
		 "functional": "B3LYP", 
		 "basiset": "6-31G**", 
		 "properties": { 
			 "R2extent": 7495.6256, 
			 "electric_dipole_moment_norm": 5.02004162234, 
			 "electric_quadrupole_moment_norm": 14.2081930695, 
			 "total_energy": -956.135466471, 
			 "HOMO_LUMO_gap": 0.17341, 
			 "cosmo_polarized_energy": -29.96, 
			 "cosmo_cavitation_energy": 38.61, 
			 "cosmo_dispersion_energy": -27.24, 
			 "cosmo_repulsion_energy": 2.1, 
			 "cosmo_total_nonelectrostatic_energy": 13.47, 
			 "SMD_solvation_energy": 7.94 
		},
		"coords": [
			{
				"x": 3.9856002423,
				"y": -2.5036612296,
				"z": -3.8963290505,
				"element": "O" 
			},
			{
				"x": 2.7383017605,
				"y": -1.9468136046,
				"z": -3.7877159672,
				"element": "C" 
			},
			{
				"x": 2.6378127339,
				"y": -0.6945733892,
				"z": -3.1728335822,
				"element": "C" 
			},
			{
				"x": 1.3939656765,
				"y": -0.0835946371,
				"z": -3.0390623117,
				"element": "C" 
			},
			{
				"x": 0.2219603,
				"y": -0.6979524288,
				"z": -3.5106325362,
				"element": "C" 
			},
			{
				"x": -1.1366478768,
				"y": -0.0450543284,
				"z": -3.3479227829,
				"element": "C" 
			},
			{
				"x": -1.8149493699,
				"y": -0.3325107827,
				"z": -1.9933007477,
				"element": "C" 
			},
			{
				"x": -1.2049020575,
				"y": 0.4717276427,
				"z": -0.8416724616,
				"element": "C" 
			},
			{
				"x": -0.6437865129,
				"y": 1.5339490473,
				"z": -1.0638216494,
				"element": "O" 
			},
			{
				"x": -1.2821536793,
				"y": -0.0728856549,
				"z": 0.5544772638,
				"element": "C" 
			},
			{
				"x": -2.4076743173,
				"y": -0.7672597218,
				"z": 1.0510717771,
				"element": "C" 
			},
			{
				"x": -3.4703419426,
				"y": -0.9304141715,
				"z": 0.2101479459,
				"element": "O" 
			},
			{
				"x": -2.4731995382,
				"y": -1.2509662981,
				"z": 2.3573728608,
				"element": "C" 
			},
			{
				"x": -1.3862223735,
				"y": -1.0578429884,
				"z": 3.2094565932,
				"element": "C" 
			},
			{
				"x": -1.492445537,
				"y": -1.5530326049,
				"z": 4.4727488134,
				"element": "O" 
			},
			{
				"x": -0.2502942781,
				"y": -0.3814938254,
				"z": 2.7627121007,
				"element": "C" 
			},
			{
				"x": -0.2054634334,
				"y": 0.1143346443,
				"z": 1.4545326713,
				"element": "C" 
			},
			{
				"x": 0.9033337819,
				"y": 0.7530977561,
				"z": 1.0065338098,
				"element": "O" 
			},
			{
				"x": 0.3457243593,
				"y": -1.9499308209,
				"z": -4.124348843,
				"element": "C" 
			},
			{
				"x": 1.5855111426,
				"y": -2.5757807632,
				"z": -4.265382267,
				"element": "C" 
			},
			{
				"x": 3.9083050369,
				"y": -3.3547340218,
				"z": -4.3462191595,
				"element": "H" 
			},
			{
				"x": 3.5415800152,
				"y": -0.2146131362,
				"z": -2.8110229115,
				"element": "H" 
			},
			{
				"x": 1.3223485876,
				"y": 0.8840034083,
				"z": -2.5525636922,
				"element": "H" 
			},
			{
				"x": -1.8020450497,
				"y": -0.4001119379,
				"z": -4.1430782303,
				"element": "H" 
			},
			{
				"x": -1.0479284766,
				"y": 1.0394395102,
				"z": -3.4597352239,
				"element": "H" 
			},
			{
				"x": -2.8755805706,
				"y": -0.0563718346,
				"z": -2.0445320078,
				"element": "H" 
			},
			{
				"x": -1.7960704551,
				"y": -1.4016178603,
				"z": -1.7602778065,
				"element": "H" 
			},
			{
				"x": -4.1660748663,
				"y": -1.4131609385,
				"z": 0.6746429528,
				"element": "H" 
			},
			{
				"x": -3.354475012,
				"y": -1.766165711,
				"z": 2.7268961012,
				"element": "H" 
			},
			{
				"x": -0.687744636,
				"y": -1.3482887034,
				"z": 4.9663927766,
				"element": "H" 
			},
			{
				"x": 0.6003934414,
				"y": -0.2369210949,
				"z": 3.4261775698,
				"element": "H" 
			},
			{
				"x": 1.5773399177,
				"y": 0.7332502726,
				"z": 1.6981712585,
				"element": "H" 
			},
			{
				"x": -0.5419940414,
				"y": -2.4485675408,
				"z": -4.5074932655,
				"element": "H" 
			},
			{
				"x": 1.6555170284,
				"y": -3.5475822526,
				"z": -4.7511899982,
				"element": "H" 
			}
		],
		 "valence_orbital": [ 
			{
				"type": "occ",
				"energy": -0.2366,
				"method": "rhf"
			},
			{
				"type": "occ",
				"energy": -0.23213,
				"method": "rhf"
			},
			{
				"type": "occ",
				"energy": -0.22837,
				"method": "rhf"
			},
			{
				"type": "occ",
				"energy": -0.2235,
				"method": "rhf"
			},
			{
				"type": "occ",
				"energy": -0.20235,
				"method": "rhf"
			},
			{
				"type": "unocc",
				"energy": -0.02894,
				"method": "rhf"
			},
			{
				"type": "unocc",
				"energy": 0.00896,
				"method": "rhf"
			},
			{
				"type": "unocc",
				"energy": 0.01145,
				"method": "rhf"
			},
			{
				"type": "unocc",
				"energy": 0.02701,
				"method": "rhf"
			},
			{
				"type": "unocc",
				"energy": 0.04035,
				"method": "rhf"
			}
		],
		"cosmo_sigma_profile": { 
			"-0.025": 0.0,
			"-0.024": 0.0,
			"-0.023": 0.0,
			"-0.022": 0.0,
			"-0.021": 0.0,
			"-0.02": 0.0,
			"-0.019": 0.0886704757428,
			"-0.018": 3.13670474827,
			"-0.017": 4.11815150482,
			"-0.016": 4.48384292646,
			"-0.015": 4.93334673745,
			"-0.014": 3.57602779966,
			"-0.013": 3.08406992502,
			"-0.012": 2.44071579436,
			"-0.011": 4.22524121356,
			"-0.01": 5.7677002213,
			"-0.009": 4.63096959524,
			"-0.008": 4.33700290374,
			"-0.007": 4.08444514103,
			"-0.006": 5.90300572761,
			"-0.005": 9.88213572072,
			"-0.004": 12.9512730785,
			"-0.003": 15.9032969021,
			"-0.002": 15.7527764409,
			"-0.001": 17.757865268,
			"0.0": 15.7864052527,
			"0.001": 16.7947873912,
			"0.002": 20.1598517996,
			"0.003": 25.7992524721,
			"0.004": 23.7741730971,
			"0.005": 18.776875507,
			"0.006": 16.1017702336,
			"0.007": 8.14065990567,
			"0.008": 6.26249963143,
			"0.009": 5.0890038096,
			"0.01": 6.80691621303,
			"0.011": 4.64312027847,
			"0.012": 4.91529298693,
			"0.013": 1.80570527135,
			"0.014": 1.57433722087,
			"0.015": 1.24879474519,
			"0.016": 0.878981857256,
			"0.017": 0.135735626485,
			"0.018": 0.0,
			"0.019": 0.0,
			"0.02": 0.0,
			"0.021": 0.0,
			"0.022": 0.0,
			"0.023": 0.0,
			"0.024": 0.0,
			"0.025": 0.0
		}
	}
}
