{
	 "smiles": "CO[C@H]1[C@@H](C[C@@H]2CN3CCC4=C(NC5=C4C=CC(OC)=C5)[C@H]3C[C@@H]2[C@@H]1C(=O)OC)OC(=O)C=CC1=CC(OC)=C(OC)C(OC)=C1", 
	 "Tm": 511.15, 
	 "num_atms": 88, 
	 "gaussian": { 
		 "optdone": 1, 
		 "sigma_profile": "yes", 
		 "theory": "DFT", 
		 "functional": "B3LYP", 
		 "basiset": "6-31G**", 
		 "properties": { 
			 "R2extent": 30051.1183, 
			 "electric_dipole_moment_norm": 0.966439242788, 
			 "electric_quadrupole_moment_norm": 32.2953721556, 
			 "total_energy": -2145.48146871, 
			 "HOMO_LUMO_gap": 0.1115, 
			 "cosmo_polarized_energy": -30.8, 
			 "cosmo_cavitation_energy": 85.33, 
			 "cosmo_dispersion_energy": -51.15, 
			 "cosmo_repulsion_energy": 3.76, 
			 "cosmo_total_nonelectrostatic_energy": 37.95, 
			 "SMD_solvation_energy": 15.89 
		},
		"coords": [
			{
				"x": -4.014128417,
				"y": -2.5817099964,
				"z": 6.1706132321,
				"element": "C" 
			},
			{
				"x": -2.7704950567,
				"y": -2.7632930143,
				"z": 5.5138166906,
				"element": "O" 
			},
			{
				"x": -2.7310838019,
				"y": -2.2625361484,
				"z": 4.1700987809,
				"element": "C" 
			},
			{
				"x": -2.3359098297,
				"y": -0.7762045642,
				"z": 4.2483165999,
				"element": "C" 
			},
			{
				"x": -0.9009562436,
				"y": -0.5659942851,
				"z": 4.7569774618,
				"element": "C" 
			},
			{
				"x": 0.0611320236,
				"y": -1.7620043015,
				"z": 4.5364831649,
				"element": "C" 
			},
			{
				"x": 1.5556599027,
				"y": -1.3196011109,
				"z": 4.5025603464,
				"element": "C" 
			},
			{
				"x": 2.1517811826,
				"y": -1.1739822912,
				"z": 3.1694325997,
				"element": "N" 
			},
			{
				"x": 3.1104121289,
				"y": -2.1973094276,
				"z": 2.7421940581,
				"element": "C" 
			},
			{
				"x": 4.0401798176,
				"y": -1.6311396203,
				"z": 1.6532465009,
				"element": "C" 
			},
			{
				"x": 3.2103712219,
				"y": -0.9505053138,
				"z": 0.60485551,
				"element": "C" 
			},
			{
				"x": 1.9187474825,
				"y": -0.5764991547,
				"z": 0.8543610859,
				"element": "C" 
			},
			{
				"x": 1.3717644787,
				"y": 0.0199944352,
				"z": -0.2769638062,
				"element": "N" 
			},
			{
				"x": 2.3210345306,
				"y": 0.0247673001,
				"z": -1.2828180978,
				"element": "C" 
			},
			{
				"x": 3.5042958282,
				"y": -0.5715745422,
				"z": -0.7557736136,
				"element": "C" 
			},
			{
				"x": 4.6230036139,
				"y": -0.670821949,
				"z": -1.5920011503,
				"element": "C" 
			},
			{
				"x": 4.5592549854,
				"y": -0.1966085456,
				"z": -2.9010921881,
				"element": "C" 
			},
			{
				"x": 3.372870894,
				"y": 0.3857930197,
				"z": -3.3964222074,
				"element": "C" 
			},
			{
				"x": 3.2341552346,
				"y": 0.874225369,
				"z": -4.671921386,
				"element": "O" 
			},
			{
				"x": 4.3375283606,
				"y": 0.7747679877,
				"z": -5.5534657999,
				"element": "C" 
			},
			{
				"x": 2.2374127639,
				"y": 0.5021137214,
				"z": -2.5900986915,
				"element": "C" 
			},
			{
				"x": 1.1794644913,
				"y": -0.794321663,
				"z": 2.1395527923,
				"element": "C" 
			},
			{
				"x": 0.0123148688,
				"y": -1.8183157171,
				"z": 1.9685392783,
				"element": "C" 
			},
			{
				"x": -0.2763788271,
				"y": -2.5869534026,
				"z": 3.2817906204,
				"element": "C" 
			},
			{
				"x": -1.7262996258,
				"y": -3.1627807588,
				"z": 3.4046040267,
				"element": "C" 
			},
			{
				"x": -2.1912890233,
				"y": -3.6787661856,
				"z": 2.0509342338,
				"element": "C" 
			},
			{
				"x": -1.7075969998,
				"y": -4.6474654594,
				"z": 1.5037317102,
				"element": "O" 
			},
			{
				"x": -3.1766476576,
				"y": -2.9362993511,
				"z": 1.4960024142,
				"element": "O" 
			},
			{
				"x": -3.6272937565,
				"y": -3.3793482452,
				"z": 0.2045807992,
				"element": "C" 
			},
			{
				"x": -2.4226147924,
				"y": -0.1480018826,
				"z": 2.9425191109,
				"element": "O" 
			},
			{
				"x": -3.6541723983,
				"y": 0.2019022627,
				"z": 2.486813989,
				"element": "C" 
			},
			{
				"x": -4.6882157077,
				"y": -0.0446627308,
				"z": 3.0810891613,
				"element": "O" 
			},
			{
				"x": -3.5974859004,
				"y": 0.919345179,
				"z": 1.1990448953,
				"element": "C" 
			},
			{
				"x": -2.4631326856,
				"y": 1.4266673039,
				"z": 0.6760168587,
				"element": "C" 
			},
			{
				"x": -2.2953852048,
				"y": 2.1480508748,
				"z": -0.5848389989,
				"element": "C" 
			},
			{
				"x": -1.0501232219,
				"y": 2.7525452717,
				"z": -0.835919592,
				"element": "C" 
			},
			{
				"x": -0.8289681722,
				"y": 3.4538214642,
				"z": -2.0267870147,
				"element": "C" 
			},
			{
				"x": 0.3309025486,
				"y": 4.0869062199,
				"z": -2.348795895,
				"element": "O" 
			},
			{
				"x": 1.3920246471,
				"y": 4.0850535613,
				"z": -1.399261112,
				"element": "C" 
			},
			{
				"x": -1.8520185445,
				"y": 3.5431602367,
				"z": -2.9897628494,
				"element": "C" 
			},
			{
				"x": -1.6860698362,
				"y": 4.262666998,
				"z": -4.1368039085,
				"element": "O" 
			},
			{
				"x": -0.8493965982,
				"y": 3.6596327692,
				"z": -5.1308914252,
				"element": "C" 
			},
			{
				"x": -3.0971569356,
				"y": 2.9261115325,
				"z": -2.7398977259,
				"element": "C" 
			},
			{
				"x": -4.0126556605,
				"y": 3.0546401966,
				"z": -3.7368490223,
				"element": "O" 
			},
			{
				"x": -5.3012644718,
				"y": 2.4942095402,
				"z": -3.5403077606,
				"element": "C" 
			},
			{
				"x": -3.3182192752,
				"y": 2.2397629288,
				"z": -1.5441866594,
				"element": "C" 
			},
			{
				"x": -3.9122045581,
				"y": -3.023044613,
				"z": 7.1651317328,
				"element": "H" 
			},
			{
				"x": -4.829163166,
				"y": -3.0898521852,
				"z": 5.6350583654,
				"element": "H" 
			},
			{
				"x": -4.2869872536,
				"y": -1.5232578818,
				"z": 6.2819770207,
				"element": "H" 
			},
			{
				"x": -3.7244305228,
				"y": -2.3375480657,
				"z": 3.7186071472,
				"element": "H" 
			},
			{
				"x": -3.0564250385,
				"y": -0.2664001519,
				"z": 4.892590386,
				"element": "H" 
			},
			{
				"x": -0.9371408897,
				"y": -0.3483644788,
				"z": 5.8290663159,
				"element": "H" 
			},
			{
				"x": -0.5174965521,
				"y": 0.3406531351,
				"z": 4.2772037271,
				"element": "H" 
			},
			{
				"x": -0.0703862499,
				"y": -2.428158626,
				"z": 5.396534981,
				"element": "H" 
			},
			{
				"x": 2.1585758233,
				"y": -2.0456709716,
				"z": 5.0567175931,
				"element": "H" 
			},
			{
				"x": 1.6470354497,
				"y": -0.3653632091,
				"z": 5.0455222755,
				"element": "H" 
			},
			{
				"x": 2.6244092248,
				"y": -3.1129259041,
				"z": 2.3559029797,
				"element": "H" 
			},
			{
				"x": 3.7005818377,
				"y": -2.4920798082,
				"z": 3.6152742973,
				"element": "H" 
			},
			{
				"x": 4.6330098934,
				"y": -2.4476522856,
				"z": 1.220664252,
				"element": "H" 
			},
			{
				"x": 4.7508051286,
				"y": -0.9281592773,
				"z": 2.1098024977,
				"element": "H" 
			},
			{
				"x": 0.4129232577,
				"y": 0.3094711446,
				"z": -0.3894534116,
				"element": "H" 
			},
			{
				"x": 5.5447986421,
				"y": -1.1173684852,
				"z": -1.2292549212,
				"element": "H" 
			},
			{
				"x": 5.4328930585,
				"y": -0.2810809718,
				"z": -3.5358507554,
				"element": "H" 
			},
			{
				"x": 4.0089029421,
				"y": 1.2092901498,
				"z": -6.4995492065,
				"element": "H" 
			},
			{
				"x": 4.6336367288,
				"y": -0.2691184852,
				"z": -5.7224836984,
				"element": "H" 
			},
			{
				"x": 5.2077664167,
				"y": 1.3349420607,
				"z": -5.1858212236,
				"element": "H" 
			},
			{
				"x": 1.3357756397,
				"y": 0.9486128956,
				"z": -2.9963420869,
				"element": "H" 
			},
			{
				"x": 0.741765363,
				"y": 0.1631314466,
				"z": 2.4622002982,
				"element": "H" 
			},
			{
				"x": 0.2720899317,
				"y": -2.5441548167,
				"z": 1.1921660023,
				"element": "H" 
			},
			{
				"x": -0.8768212586,
				"y": -1.2850356842,
				"z": 1.6242506048,
				"element": "H" 
			},
			{
				"x": 0.3897862021,
				"y": -3.4564146384,
				"z": 3.2850443832,
				"element": "H" 
			},
			{
				"x": -1.6496146053,
				"y": -4.0618558331,
				"z": 4.0240935897,
				"element": "H" 
			},
			{
				"x": -4.0139620638,
				"y": -4.399576221,
				"z": 0.26245567,
				"element": "H" 
			},
			{
				"x": -2.8066647983,
				"y": -3.3548502099,
				"z": -0.5165012577,
				"element": "H" 
			},
			{
				"x": -4.4158330383,
				"y": -2.6850268187,
				"z": -0.0845009901,
				"element": "H" 
			},
			{
				"x": -4.5676102751,
				"y": 1.0512926937,
				"z": 0.7310142526,
				"element": "H" 
			},
			{
				"x": -1.5547709393,
				"y": 1.3004701615,
				"z": 1.2612030999,
				"element": "H" 
			},
			{
				"x": -0.2714718061,
				"y": 2.6924666455,
				"z": -0.0844751094,
				"element": "H" 
			},
			{
				"x": 1.7590809311,
				"y": 3.0709895369,
				"z": -1.2048804397,
				"element": "H" 
			},
			{
				"x": 2.191751189,
				"y": 4.6740872664,
				"z": -1.8495448893,
				"element": "H" 
			},
			{
				"x": 1.08374789,
				"y": 4.554326716,
				"z": -0.456810825,
				"element": "H" 
			},
			{
				"x": -0.8322995266,
				"y": 4.3547512909,
				"z": -5.9724712633,
				"element": "H" 
			},
			{
				"x": -1.2674368453,
				"y": 2.7013726633,
				"z": -5.4624739064,
				"element": "H" 
			},
			{
				"x": 0.1688383904,
				"y": 3.5109663864,
				"z": -4.7586806155,
				"element": "H" 
			},
			{
				"x": -5.8035169944,
				"y": 2.9305181993,
				"z": -2.6675491328,
				"element": "H" 
			},
			{
				"x": -5.8709556321,
				"y": 2.7333674384,
				"z": -4.439338766,
				"element": "H" 
			},
			{
				"x": -5.2569036284,
				"y": 1.4036809638,
				"z": -3.4214574013,
				"element": "H" 
			},
			{
				"x": -4.2676306591,
				"y": 1.7537303172,
				"z": -1.3622585891,
				"element": "H" 
			}
		],
		 "valence_orbital": [ 
			{
				"type": "occ",
				"energy": -0.22957,
				"method": "rhf"
			},
			{
				"type": "occ",
				"energy": -0.21487,
				"method": "rhf"
			},
			{
				"type": "occ",
				"energy": -0.21118,
				"method": "rhf"
			},
			{
				"type": "occ",
				"energy": -0.19627,
				"method": "rhf"
			},
			{
				"type": "occ",
				"energy": -0.17873,
				"method": "rhf"
			},
			{
				"type": "unocc",
				"energy": -0.06723,
				"method": "rhf"
			},
			{
				"type": "unocc",
				"energy": -7e-05,
				"method": "rhf"
			},
			{
				"type": "unocc",
				"energy": 0.00634,
				"method": "rhf"
			},
			{
				"type": "unocc",
				"energy": 0.01234,
				"method": "rhf"
			},
			{
				"type": "unocc",
				"energy": 0.02086,
				"method": "rhf"
			}
		],
		"cosmo_sigma_profile": { 
			"-0.025": 0.0,
			"-0.024": 0.0,
			"-0.023": 0.0,
			"-0.022": 0.0,
			"-0.021": 0.0,
			"-0.02": 0.0,
			"-0.019": 0.0,
			"-0.018": 0.0,
			"-0.017": 0.0,
			"-0.016": 0.0,
			"-0.015": 0.0,
			"-0.014": 0.0,
			"-0.013": 0.0,
			"-0.012": 0.0,
			"-0.011": 0.0973611995715,
			"-0.01": 0.81919871964,
			"-0.009": 2.11527971393,
			"-0.008": 5.82557432597,
			"-0.007": 7.93473777163,
			"-0.006": 22.2227964531,
			"-0.005": 50.6304436854,
			"-0.004": 71.9151672236,
			"-0.003": 86.0823880267,
			"-0.002": 75.394148766,
			"-0.001": 57.0547553008,
			"0.0": 45.2806007016,
			"0.001": 32.7087767301,
			"0.002": 34.921128547,
			"0.003": 32.1496825081,
			"0.004": 26.4136565267,
			"0.005": 23.1894752784,
			"0.006": 22.5997851471,
			"0.007": 16.649902702,
			"0.008": 10.204739246,
			"0.009": 8.43367755248,
			"0.01": 10.9105271413,
			"0.011": 8.93009376707,
			"0.012": 11.6720441808,
			"0.013": 5.0858939016,
			"0.014": 1.32575283742,
			"0.015": 0.262804694745,
			"0.016": 0.0,
			"0.017": 0.0,
			"0.018": 0.0,
			"0.019": 0.0,
			"0.02": 0.0,
			"0.021": 0.0,
			"0.022": 0.0,
			"0.023": 0.0,
			"0.024": 0.0,
			"0.025": 0.0
		}
	}
}
