{
	 "smiles": "CC(C)SC1=NN=C(Cl)C=C1", 
	 "Tm": 330.15, 
	 "num_atms": 20, 
	 "gaussian": { 
		 "optdone": 1, 
		 "sigma_profile": "yes", 
		 "theory": "DFT", 
		 "functional": "B3LYP", 
		 "basiset": "6-31G**", 
		 "properties": { 
			 "R2extent": 3240.5266, 
			 "electric_dipole_moment_norm": 2.92818554398, 
			 "electric_quadrupole_moment_norm": 13.0364701733, 
			 "total_energy": -1240.01767082, 
			 "HOMO_LUMO_gap": 0.1696, 
			 "cosmo_polarized_energy": -9.21, 
			 "cosmo_cavitation_energy": 27.02, 
			 "cosmo_dispersion_energy": -20.37, 
			 "cosmo_repulsion_energy": 1.61, 
			 "cosmo_total_nonelectrostatic_energy": 8.26, 
			 "SMD_solvation_energy": 2.81 
		},
		"coords": [
			{
				"x": -3.2024375125,
				"y": -0.8170093534,
				"z": 2.0713310776,
				"element": "C" 
			},
			{
				"x": -2.051957959,
				"y": -0.7629793652,
				"z": 1.0620424179,
				"element": "C" 
			},
			{
				"x": -1.8255726034,
				"y": -2.0961485547,
				"z": 0.3491655986,
				"element": "C" 
			},
			{
				"x": -0.540864637,
				"y": -0.2170951697,
				"z": 1.9976186013,
				"element": "S" 
			},
			{
				"x": 0.5206968985,
				"y": 0.3990968967,
				"z": 0.7200392415,
				"element": "C" 
			},
			{
				"x": 0.0887657457,
				"y": 0.4104716358,
				"z": -0.5426050736,
				"element": "N" 
			},
			{
				"x": 0.8741212755,
				"y": 0.8914460825,
				"z": -1.5171766393,
				"element": "N" 
			},
			{
				"x": 2.0715092689,
				"y": 1.349089744,
				"z": -1.2124972946,
				"element": "C" 
			},
			{
				"x": 3.0347230333,
				"y": 1.9613629563,
				"z": -2.5417286858,
				"element": "Cl" 
			},
			{
				"x": 2.605076998,
				"y": 1.3697424916,
				"z": 0.0887005128,
				"element": "C" 
			},
			{
				"x": 1.8001898891,
				"y": 0.8764184932,
				"z": 1.087870328,
				"element": "C" 
			},
			{
				"x": -3.3821229934,
				"y": 0.1566472356,
				"z": 2.535115203,
				"element": "H" 
			},
			{
				"x": -3.0069521063,
				"y": -1.5464741003,
				"z": 2.8650875362,
				"element": "H" 
			},
			{
				"x": -4.1186760927,
				"y": -1.126293403,
				"z": 1.5574061123,
				"element": "H" 
			},
			{
				"x": -2.2299486702,
				"y": 0.0219502395,
				"z": 0.3232568525,
				"element": "H" 
			},
			{
				"x": -2.7338373211,
				"y": -2.3763543334,
				"z": -0.1977902267,
				"element": "H" 
			},
			{
				"x": -1.0093488664,
				"y": -2.0205188854,
				"z": -0.3716647152,
				"element": "H" 
			},
			{
				"x": -1.5976296977,
				"y": -2.8932237929,
				"z": 1.0640173557,
				"element": "H" 
			},
			{
				"x": 3.5996665337,
				"y": 1.7560505175,
				"z": 0.2792880622,
				"element": "H" 
			},
			{
				"x": 2.1275988168,
				"y": 0.8519206653,
				"z": 2.1224237356,
				"element": "H" 
			}
		],
		 "valence_orbital": [ 
			{
				"type": "occ",
				"energy": -0.32471,
				"method": "rhf"
			},
			{
				"type": "occ",
				"energy": -0.31417,
				"method": "rhf"
			},
			{
				"type": "occ",
				"energy": -0.29875,
				"method": "rhf"
			},
			{
				"type": "occ",
				"energy": -0.25091,
				"method": "rhf"
			},
			{
				"type": "occ",
				"energy": -0.23396,
				"method": "rhf"
			},
			{
				"type": "unocc",
				"energy": -0.06436,
				"method": "rhf"
			},
			{
				"type": "unocc",
				"energy": -0.03631,
				"method": "rhf"
			},
			{
				"type": "unocc",
				"energy": 0.01883,
				"method": "rhf"
			},
			{
				"type": "unocc",
				"energy": 0.024,
				"method": "rhf"
			},
			{
				"type": "unocc",
				"energy": 0.0632,
				"method": "rhf"
			}
		],
		"cosmo_sigma_profile": { 
			"-0.025": 0.0,
			"-0.024": 0.0,
			"-0.023": 0.0,
			"-0.022": 0.0,
			"-0.021": 0.0,
			"-0.02": 0.0,
			"-0.019": 0.0,
			"-0.018": 0.0,
			"-0.017": 0.0,
			"-0.016": 0.0,
			"-0.015": 0.0,
			"-0.014": 0.0,
			"-0.013": 0.0,
			"-0.012": 0.0,
			"-0.011": 0.0,
			"-0.01": 1.76358931445,
			"-0.009": 4.66380740036,
			"-0.008": 4.73615319226,
			"-0.007": 3.42305202095,
			"-0.006": 3.42240353426,
			"-0.005": 3.27553962559,
			"-0.004": 15.6234220948,
			"-0.003": 22.1341054762,
			"-0.002": 27.4507679494,
			"-0.001": 24.8642229487,
			"0.0": 25.5389750006,
			"0.001": 15.7231286914,
			"0.002": 10.4392491048,
			"0.003": 13.9122053444,
			"0.004": 12.654109846,
			"0.005": 5.94730684328,
			"0.006": 5.52217785819,
			"0.007": 4.59627140497,
			"0.008": 2.81869192852,
			"0.009": 1.40612729392,
			"0.01": 2.48782694645,
			"0.011": 1.48722949249,
			"0.012": 2.64623507131,
			"0.013": 1.26771537341,
			"0.014": 0.984606232952,
			"0.015": 0.182416739559,
			"0.016": 0.0,
			"0.017": 0.0,
			"0.018": 0.0,
			"0.019": 0.0,
			"0.02": 0.0,
			"0.021": 0.0,
			"0.022": 0.0,
			"0.023": 0.0,
			"0.024": 0.0,
			"0.025": 0.0
		}
	}
}
