{
	 "smiles": "CC1=C(NC2=C(Cl)C=C(C=N2)C(O)=O)C=C(F)C=C1", 
	 "Tm": 483.15, 
	 "num_atms": 29, 
	 "gaussian": { 
		 "optdone": 1, 
		 "sigma_profile": "yes", 
		 "theory": "DFT", 
		 "functional": "B3LYP", 
		 "basiset": "6-31G**", 
		 "properties": { 
			 "R2extent": 8074.5246, 
			 "electric_dipole_moment_norm": 4.12995976373, 
			 "electric_quadrupole_moment_norm": 24.6540217458, 
			 "total_energy": -1321.40333992, 
			 "HOMO_LUMO_gap": 0.17239, 
			 "cosmo_polarized_energy": -18.68, 
			 "cosmo_cavitation_energy": 36.33, 
			 "cosmo_dispersion_energy": -25.77, 
			 "cosmo_repulsion_energy": 1.96, 
			 "cosmo_total_nonelectrostatic_energy": 12.52, 
			 "SMD_solvation_energy": 7.01 
		},
		"coords": [
			{
				"x": 2.4408080303,
				"y": 0.1999734717,
				"z": -1.6525902528,
				"element": "C" 
			},
			{
				"x": 2.8416990473,
				"y": 0.7721868747,
				"z": -0.3179536151,
				"element": "C" 
			},
			{
				"x": 2.6872487866,
				"y": 0.053059894,
				"z": 0.8834418018,
				"element": "C" 
			},
			{
				"x": 2.1672087143,
				"y": -1.2765100881,
				"z": 0.8954590959,
				"element": "N" 
			},
			{
				"x": 0.878152542,
				"y": -1.6361351626,
				"z": 0.6110500932,
				"element": "C" 
			},
			{
				"x": 0.4480479879,
				"y": -2.9817692076,
				"z": 0.7701616922,
				"element": "C" 
			},
			{
				"x": 1.5776759196,
				"y": -4.2114350508,
				"z": 1.3242323408,
				"element": "Cl" 
			},
			{
				"x": -0.8584048846,
				"y": -3.3228877984,
				"z": 0.4851382648,
				"element": "C" 
			},
			{
				"x": -1.7462673198,
				"y": -2.3309031084,
				"z": 0.0348831134,
				"element": "C" 
			},
			{
				"x": -1.2275682556,
				"y": -1.0390402364,
				"z": -0.1153521931,
				"element": "C" 
			},
			{
				"x": 0.0259086884,
				"y": -0.6956158655,
				"z": 0.1704308056,
				"element": "N" 
			},
			{
				"x": -3.1719075084,
				"y": -2.5721347822,
				"z": -0.3257068544,
				"element": "C" 
			},
			{
				"x": -3.7461636591,
				"y": -3.7121089597,
				"z": 0.1510106254,
				"element": "O" 
			},
			{
				"x": -3.8186403692,
				"y": -1.8133617764,
				"z": -1.0095786919,
				"element": "O" 
			},
			{
				"x": 3.1180243347,
				"y": 0.5857635675,
				"z": 2.1040770702,
				"element": "C" 
			},
			{
				"x": 3.6918323077,
				"y": 1.8487030404,
				"z": 2.1272825549,
				"element": "C" 
			},
			{
				"x": 4.1049442761,
				"y": 2.354447759,
				"z": 3.3081377034,
				"element": "F" 
			},
			{
				"x": 3.8405592094,
				"y": 2.6022096244,
				"z": 0.9709147449,
				"element": "C" 
			},
			{
				"x": 3.4113079162,
				"y": 2.0499524244,
				"z": -0.2349446529,
				"element": "C" 
			},
			{
				"x": 1.3559928722,
				"y": 0.2502967435,
				"z": -1.7890922666,
				"element": "H" 
			},
			{
				"x": 2.9183614768,
				"y": 0.7492828354,
				"z": -2.4681005242,
				"element": "H" 
			},
			{
				"x": 2.7275458947,
				"y": -0.8533912777,
				"z": -1.7347130746,
				"element": "H" 
			},
			{
				"x": 2.7079439281,
				"y": -1.9635485797,
				"z": 1.4023123901,
				"element": "H" 
			},
			{
				"x": -1.1573727306,
				"y": -4.3623695467,
				"z": 0.5841642265,
				"element": "H" 
			},
			{
				"x": -1.8804966157,
				"y": -0.250590671,
				"z": -0.4798440334,
				"element": "H" 
			},
			{
				"x": -3.1888661693,
				"y": -4.1185736156,
				"z": 0.8282983498,
				"element": "H" 
			},
			{
				"x": 2.9940272212,
				"y": 0.0334970508,
				"z": 3.0294718168,
				"element": "H" 
			},
			{
				"x": 4.2900226349,
				"y": 3.5877264451,
				"z": 1.0207561682,
				"element": "H" 
			},
			{
				"x": 3.5385757239,
				"y": 2.6220759959,
				"z": -1.149646699,
				"element": "H" 
			}
		],
		 "valence_orbital": [ 
			{
				"type": "occ",
				"energy": -0.29022,
				"method": "rhf"
			},
			{
				"type": "occ",
				"energy": -0.27301,
				"method": "rhf"
			},
			{
				"type": "occ",
				"energy": -0.2694,
				"method": "rhf"
			},
			{
				"type": "occ",
				"energy": -0.24737,
				"method": "rhf"
			},
			{
				"type": "occ",
				"energy": -0.23037,
				"method": "rhf"
			},
			{
				"type": "unocc",
				"energy": -0.05798,
				"method": "rhf"
			},
			{
				"type": "unocc",
				"energy": -0.0467,
				"method": "rhf"
			},
			{
				"type": "unocc",
				"energy": -0.01872,
				"method": "rhf"
			},
			{
				"type": "unocc",
				"energy": -0.00428,
				"method": "rhf"
			},
			{
				"type": "unocc",
				"energy": 0.00532,
				"method": "rhf"
			}
		],
		"cosmo_sigma_profile": { 
			"-0.025": 0.0,
			"-0.024": 0.0,
			"-0.023": 0.0,
			"-0.022": 0.0,
			"-0.021": 0.0,
			"-0.02": 0.0939518046812,
			"-0.019": 0.637724746562,
			"-0.018": 1.19248431446,
			"-0.017": 1.44376894124,
			"-0.016": 1.16495389815,
			"-0.015": 0.655790140913,
			"-0.014": 1.08681794393,
			"-0.013": 1.62468481414,
			"-0.012": 2.47547379694,
			"-0.011": 2.42898721825,
			"-0.01": 2.66386874967,
			"-0.009": 2.58377599007,
			"-0.008": 4.22518221027,
			"-0.007": 7.95979184015,
			"-0.006": 9.04993245144,
			"-0.005": 11.0245615201,
			"-0.004": 13.6553253972,
			"-0.003": 14.749290446,
			"-0.002": 21.3339324466,
			"-0.001": 27.6617830821,
			"0.0": 33.7025452592,
			"0.001": 25.5287640143,
			"0.002": 20.3122011208,
			"0.003": 19.9990853114,
			"0.004": 22.9273536751,
			"0.005": 8.82766247696,
			"0.006": 3.57820887311,
			"0.007": 3.5028075278,
			"0.008": 4.14347066927,
			"0.009": 4.01973207963,
			"0.01": 5.58400240368,
			"0.011": 6.22939998243,
			"0.012": 5.67363065712,
			"0.013": 1.95382968091,
			"0.014": 0.0380085014556,
			"0.015": 0.0,
			"0.016": 0.0,
			"0.017": 0.0,
			"0.018": 0.0,
			"0.019": 0.0,
			"0.02": 0.0,
			"0.021": 0.0,
			"0.022": 0.0,
			"0.023": 0.0,
			"0.024": 0.0,
			"0.025": 0.0
		}
	}
}
