{
	 "smiles": "COC1=CC=C(C=C1)C(=O)C1=NOC2C1C(=O)N(C2=O)C1=CC=C(F)C=C1", 
	 "Tm": 414.15, 
	 "num_atms": 40, 
	 "gaussian": { 
		 "optdone": 1, 
		 "sigma_profile": "yes", 
		 "theory": "DFT", 
		 "functional": "B3LYP", 
		 "basiset": "6-31G**", 
		 "properties": { 
			 "R2extent": 14164.8348, 
			 "electric_dipole_moment_norm": 2.75064820179, 
			 "electric_quadrupole_moment_norm": 24.2105080624, 
			 "total_energy": -1317.25306473, 
			 "HOMO_LUMO_gap": 0.15457, 
			 "cosmo_polarized_energy": -20.6, 
			 "cosmo_cavitation_energy": 46.68, 
			 "cosmo_dispersion_energy": -32.93, 
			 "cosmo_repulsion_energy": 2.43, 
			 "cosmo_total_nonelectrostatic_energy": 16.18, 
			 "SMD_solvation_energy": 10.6 
		},
		"coords": [
			{
				"x": 2.9856274403,
				"y": 5.4508863802,
				"z": -2.9752898146,
				"element": "C" 
			},
			{
				"x": 1.6775165858,
				"y": 5.6758781319,
				"z": -2.4632300873,
				"element": "O" 
			},
			{
				"x": 1.0913326435,
				"y": 4.7029904619,
				"z": -1.7233587209,
				"element": "C" 
			},
			{
				"x": -0.2009856198,
				"y": 4.996623947,
				"z": -1.24753552,
				"element": "C" 
			},
			{
				"x": -0.882637761,
				"y": 4.0686640317,
				"z": -0.4851272312,
				"element": "C" 
			},
			{
				"x": -0.3011850394,
				"y": 2.8227011337,
				"z": -0.165492291,
				"element": "C" 
			},
			{
				"x": 0.9847594315,
				"y": 2.5392812328,
				"z": -0.6497970529,
				"element": "C" 
			},
			{
				"x": 1.6810758824,
				"y": 3.4672652213,
				"z": -1.421160606,
				"element": "C" 
			},
			{
				"x": -1.1145241974,
				"y": 1.8867129828,
				"z": 0.6400262675,
				"element": "C" 
			},
			{
				"x": -2.2758656146,
				"y": 2.1299656815,
				"z": 0.9581532405,
				"element": "O" 
			},
			{
				"x": -0.5709400877,
				"y": 0.579368332,
				"z": 1.1412730487,
				"element": "C" 
			},
			{
				"x": 0.6665158126,
				"y": 0.3394654169,
				"z": 1.3913175398,
				"element": "N" 
			},
			{
				"x": 0.8126654641,
				"y": -0.8842258734,
				"z": 2.0223565742,
				"element": "O" 
			},
			{
				"x": -0.502065779,
				"y": -1.4892708224,
				"z": 2.2334508972,
				"element": "C" 
			},
			{
				"x": -1.4928841379,
				"y": -0.5433177489,
				"z": 1.5700370653,
				"element": "C" 
			},
			{
				"x": -2.0535594705,
				"y": -1.3236516122,
				"z": 0.3686552664,
				"element": "C" 
			},
			{
				"x": -2.8536232573,
				"y": -0.9218350215,
				"z": -0.4408596039,
				"element": "O" 
			},
			{
				"x": -1.4664120289,
				"y": -2.6055206909,
				"z": 0.3743752238,
				"element": "N" 
			},
			{
				"x": -0.5798068055,
				"y": -2.8007642215,
				"z": 1.4463283446,
				"element": "C" 
			},
			{
				"x": 0.0256330793,
				"y": -3.816603679,
				"z": 1.6956412489,
				"element": "O" 
			},
			{
				"x": -1.7490157177,
				"y": -3.6090894564,
				"z": -0.6084842627,
				"element": "C" 
			},
			{
				"x": -0.7052483087,
				"y": -4.383940194,
				"z": -1.1268675926,
				"element": "C" 
			},
			{
				"x": -0.9757632848,
				"y": -5.3646916247,
				"z": -2.0781337408,
				"element": "C" 
			},
			{
				"x": -2.2868283889,
				"y": -5.5474184513,
				"z": -2.5030101235,
				"element": "C" 
			},
			{
				"x": -2.549039258,
				"y": -6.4923142454,
				"z": -3.4268103362,
				"element": "F" 
			},
			{
				"x": -3.3351262987,
				"y": -4.7837804354,
				"z": -2.0025106857,
				"element": "C" 
			},
			{
				"x": -3.0637114234,
				"y": -3.8105413528,
				"z": -1.0435780412,
				"element": "C" 
			},
			{
				"x": 3.0078639317,
				"y": 4.5915630573,
				"z": -3.6563787458,
				"element": "H" 
			},
			{
				"x": 3.7109401831,
				"y": 5.2925377329,
				"z": -2.1680759516,
				"element": "H" 
			},
			{
				"x": 3.2500374454,
				"y": 6.3543040051,
				"z": -3.5259369068,
				"element": "H" 
			},
			{
				"x": -0.6370678016,
				"y": 5.9582838912,
				"z": -1.4964766862,
				"element": "H" 
			},
			{
				"x": -1.8802609127,
				"y": 4.2795914607,
				"z": -0.1158458451,
				"element": "H" 
			},
			{
				"x": 1.4553492112,
				"y": 1.5921345017,
				"z": -0.4178538203,
				"element": "H" 
			},
			{
				"x": 2.6723697089,
				"y": 3.2196485046,
				"z": -1.7805735915,
				"element": "H" 
			},
			{
				"x": -0.6200326117,
				"y": -1.6722723663,
				"z": 3.3034258651,
				"element": "H" 
			},
			{
				"x": -2.319988867,
				"y": -0.1708615898,
				"z": 2.1777641154,
				"element": "H" 
			},
			{
				"x": 0.3085937207,
				"y": -4.2328523397,
				"z": -0.7789627497,
				"element": "H" 
			},
			{
				"x": -0.1856100022,
				"y": -5.981338549,
				"z": -2.4914947273,
				"element": "H" 
			},
			{
				"x": -4.3441114559,
				"y": -4.9557425258,
				"z": -2.3600546405,
				"element": "H" 
			},
			{
				"x": -3.8667864101,
				"y": -3.2014333066,
				"z": -0.6494053219,
				"element": "H" 
			}
		],
		 "valence_orbital": [ 
			{
				"type": "occ",
				"energy": -0.26813,
				"method": "rhf"
			},
			{
				"type": "occ",
				"energy": -0.26619,
				"method": "rhf"
			},
			{
				"type": "occ",
				"energy": -0.26243,
				"method": "rhf"
			},
			{
				"type": "occ",
				"energy": -0.24609,
				"method": "rhf"
			},
			{
				"type": "occ",
				"energy": -0.23629,
				"method": "rhf"
			},
			{
				"type": "unocc",
				"energy": -0.08172,
				"method": "rhf"
			},
			{
				"type": "unocc",
				"energy": -0.04864,
				"method": "rhf"
			},
			{
				"type": "unocc",
				"energy": -0.03352,
				"method": "rhf"
			},
			{
				"type": "unocc",
				"energy": -0.02065,
				"method": "rhf"
			},
			{
				"type": "unocc",
				"energy": -0.01754,
				"method": "rhf"
			}
		],
		"cosmo_sigma_profile": { 
			"-0.025": 0.0,
			"-0.024": 0.0,
			"-0.023": 0.0,
			"-0.022": 0.0,
			"-0.021": 0.0,
			"-0.02": 0.0,
			"-0.019": 0.0,
			"-0.018": 0.0,
			"-0.017": 0.0,
			"-0.016": 0.0,
			"-0.015": 0.0,
			"-0.014": 0.0,
			"-0.013": 0.021531942122,
			"-0.012": 0.610222906542,
			"-0.011": 2.14929605097,
			"-0.01": 7.82280763746,
			"-0.009": 5.92396600493,
			"-0.008": 6.98235240387,
			"-0.007": 16.2229734895,
			"-0.006": 26.5319990404,
			"-0.005": 25.2058967235,
			"-0.004": 23.8767017242,
			"-0.003": 21.0447101288,
			"-0.002": 18.4434984259,
			"-0.001": 16.2723074443,
			"0.0": 23.3744727069,
			"0.001": 26.7993489873,
			"0.002": 30.972741276,
			"0.003": 31.2335552381,
			"0.004": 21.6596170787,
			"0.005": 10.9361672309,
			"0.006": 8.6762152902,
			"0.007": 10.0892589798,
			"0.008": 10.8982577747,
			"0.009": 11.2404711925,
			"0.01": 11.503676317,
			"0.011": 6.88597164872,
			"0.012": 0.399454951833,
			"0.013": 0.0,
			"0.014": 0.0,
			"0.015": 0.0,
			"0.016": 0.0,
			"0.017": 0.0,
			"0.018": 0.0,
			"0.019": 0.0,
			"0.02": 0.0,
			"0.021": 0.0,
			"0.022": 0.0,
			"0.023": 0.0,
			"0.024": 0.0,
			"0.025": 0.0
		}
	}
}
