{
	 "smiles": "FC(F)(F)C1=CC=C(C=O)C=N1", 
	 "Tm": 327.15, 
	 "num_atms": 16, 
	 "gaussian": { 
		 "optdone": 1, 
		 "sigma_profile": "yes", 
		 "theory": "DFT", 
		 "functional": "B3LYP", 
		 "basiset": "6-31G**", 
		 "properties": { 
			 "R2extent": 2690.5026, 
			 "electric_dipole_moment_norm": 0.895940790454, 
			 "electric_quadrupole_moment_norm": 14.4499537923, 
			 "total_energy": -698.6370423, 
			 "HOMO_LUMO_gap": 0.17899, 
			 "cosmo_polarized_energy": -9.12, 
			 "cosmo_cavitation_energy": 22.95, 
			 "cosmo_dispersion_energy": -16.25, 
			 "cosmo_repulsion_energy": 1.23, 
			 "cosmo_total_nonelectrostatic_energy": 7.93, 
			 "SMD_solvation_energy": 5.07 
		},
		"coords": [
			{
				"x": 1.0448057256,
				"y": 2.0751420718,
				"z": 1.7604003092,
				"element": "F" 
			},
			{
				"x": 1.6437594193,
				"y": 0.9645451008,
				"z": 1.2746298528,
				"element": "C" 
			},
			{
				"x": 2.5408914963,
				"y": 0.5516347952,
				"z": 2.1870714368,
				"element": "F" 
			},
			{
				"x": 2.3169803128,
				"y": 1.3154715816,
				"z": 0.1648749767,
				"element": "F" 
			},
			{
				"x": 0.6264802319,
				"y": -0.1229604071,
				"z": 0.9764366091,
				"element": "C" 
			},
			{
				"x": -0.7373681173,
				"y": 0.0838189845,
				"z": 1.2034333945,
				"element": "C" 
			},
			{
				"x": -1.6107894537,
				"y": -0.9562333584,
				"z": 0.9071549909,
				"element": "C" 
			},
			{
				"x": -1.0874343959,
				"y": -2.1509150355,
				"z": 0.4000154463,
				"element": "C" 
			},
			{
				"x": -1.9739291759,
				"y": -3.2925426611,
				"z": 0.0670426817,
				"element": "C" 
			},
			{
				"x": -3.1807738463,
				"y": -3.2742042742,
				"z": 0.2058441324,
				"element": "O" 
			},
			{
				"x": 0.2982414991,
				"y": -2.243939009,
				"z": 0.2135051739,
				"element": "C" 
			},
			{
				"x": 1.14794294,
				"y": -1.2550563186,
				"z": 0.4930092296,
				"element": "N" 
			},
			{
				"x": -1.0901513849,
				"y": 1.0286879784,
				"z": 1.5979491049,
				"element": "H" 
			},
			{
				"x": -2.6824370765,
				"y": -0.8697301584,
				"z": 1.0568930249,
				"element": "H" 
			},
			{
				"x": -1.4531523367,
				"y": -4.1909568391,
				"z": -0.3281644387,
				"element": "H" 
			},
			{
				"x": 0.7374341624,
				"y": -3.1603624509,
				"z": -0.179695925,
				"element": "H" 
			}
		],
		 "valence_orbital": [ 
			{
				"type": "occ",
				"energy": -0.38445,
				"method": "rhf"
			},
			{
				"type": "occ",
				"energy": -0.31794,
				"method": "rhf"
			},
			{
				"type": "occ",
				"energy": -0.29761,
				"method": "rhf"
			},
			{
				"type": "occ",
				"energy": -0.29678,
				"method": "rhf"
			},
			{
				"type": "occ",
				"energy": -0.27382,
				"method": "rhf"
			},
			{
				"type": "unocc",
				"energy": -0.09483,
				"method": "rhf"
			},
			{
				"type": "unocc",
				"energy": -0.05259,
				"method": "rhf"
			},
			{
				"type": "unocc",
				"energy": 0.00152,
				"method": "rhf"
			},
			{
				"type": "unocc",
				"energy": 0.09384,
				"method": "rhf"
			},
			{
				"type": "unocc",
				"energy": 0.1027,
				"method": "rhf"
			}
		],
		"cosmo_sigma_profile": { 
			"-0.025": 0.0,
			"-0.024": 0.0,
			"-0.023": 0.0,
			"-0.022": 0.0,
			"-0.021": 0.0,
			"-0.02": 0.0,
			"-0.019": 0.0,
			"-0.018": 0.0,
			"-0.017": 0.0,
			"-0.016": 0.0,
			"-0.015": 0.0,
			"-0.014": 0.0,
			"-0.013": 0.0,
			"-0.012": 0.0,
			"-0.011": 0.0,
			"-0.01": 0.775364792598,
			"-0.009": 3.72853020807,
			"-0.008": 8.19263891112,
			"-0.007": 8.16695889496,
			"-0.006": 7.18427287682,
			"-0.005": 8.79983300854,
			"-0.004": 8.8625646956,
			"-0.003": 11.9847963493,
			"-0.002": 16.8373727229,
			"-0.001": 14.5930604719,
			"0.0": 9.30515656659,
			"0.001": 10.4740003797,
			"0.002": 25.9628067592,
			"0.003": 18.6679468636,
			"0.004": 4.70898661567,
			"0.005": 3.59124000568,
			"0.006": 3.14099589338,
			"0.007": 3.53399807616,
			"0.008": 2.25383386486,
			"0.009": 3.84066278798,
			"0.01": 4.5784225027,
			"0.011": 3.95016644095,
			"0.012": 1.87111869267,
			"0.013": 0.449330940593,
			"0.014": 0.0403304744005,
			"0.015": 0.0,
			"0.016": 0.0,
			"0.017": 0.0,
			"0.018": 0.0,
			"0.019": 0.0,
			"0.02": 0.0,
			"0.021": 0.0,
			"0.022": 0.0,
			"0.023": 0.0,
			"0.024": 0.0,
			"0.025": 0.0
		}
	}
}
