{
	 "smiles": "CC(C)C1=C(C=C(C=O)C=C1)[N+]([O-])=O", 
	 "Tm": 324.15, 
	 "num_atms": 25, 
	 "gaussian": { 
		 "optdone": 1, 
		 "sigma_profile": "yes", 
		 "theory": "DFT", 
		 "functional": "B3LYP", 
		 "basiset": "6-31G**", 
		 "properties": { 
			 "R2extent": 4681.5429, 
			 "electric_dipole_moment_norm": 2.57115244394, 
			 "electric_quadrupole_moment_norm": 14.3205447599, 
			 "total_energy": -668.010750027, 
			 "HOMO_LUMO_gap": 0.17342, 
			 "cosmo_polarized_energy": -10.46, 
			 "cosmo_cavitation_energy": 28.9, 
			 "cosmo_dispersion_energy": -20.46, 
			 "cosmo_repulsion_energy": 1.6, 
			 "cosmo_total_nonelectrostatic_energy": 10.04, 
			 "SMD_solvation_energy": 8.2 
		},
		"coords": [
			{
				"x": -1.3412696949,
				"y": 1.2097410971,
				"z": -1.1578937685,
				"element": "C" 
			},
			{
				"x": -0.0103890749,
				"y": 1.1452553106,
				"z": -1.9378180297,
				"element": "C" 
			},
			{
				"x": -0.2123035027,
				"y": 1.27507404,
				"z": -3.4594002139,
				"element": "C" 
			},
			{
				"x": 0.8696565859,
				"y": -0.0240798492,
				"z": -1.4891698267,
				"element": "C" 
			},
			{
				"x": 0.8245584334,
				"y": -1.3680993596,
				"z": -1.9154440905,
				"element": "C" 
			},
			{
				"x": 1.7413822494,
				"y": -2.3257278625,
				"z": -1.4780027405,
				"element": "C" 
			},
			{
				"x": 2.7213995055,
				"y": -1.9864857986,
				"z": -0.5489050034,
				"element": "C" 
			},
			{
				"x": 3.6809731214,
				"y": -3.0089130147,
				"z": -0.0675499839,
				"element": "C" 
			},
			{
				"x": 4.5617931651,
				"y": -2.7877727269,
				"z": 0.7398080903,
				"element": "O" 
			},
			{
				"x": 2.7856550661,
				"y": -0.6655512356,
				"z": -0.0845200659,
				"element": "C" 
			},
			{
				"x": 1.8884839087,
				"y": 0.2783699356,
				"z": -0.560961671,
				"element": "C" 
			},
			{
				"x": -0.1955451086,
				"y": -1.8885624924,
				"z": -2.8466499282,
				"element": "N" 
			},
			{
				"x": 0.1576006603,
				"y": -2.7677131914,
				"z": -3.6307497466,
				"element": "O" 
			},
			{
				"x": -1.3422127407,
				"y": -1.4504514109,
				"z": -2.7626850607,
				"element": "O" 
			},
			{
				"x": -1.8738504481,
				"y": 2.1301429846,
				"z": -1.4196029027,
				"element": "H" 
			},
			{
				"x": -1.1625684764,
				"y": 1.2205329399,
				"z": -0.0778001042,
				"element": "H" 
			},
			{
				"x": -1.9784909015,
				"y": 0.3579779617,
				"z": -1.3959202961,
				"element": "H" 
			},
			{
				"x": 0.5621020624,
				"y": 2.0318277003,
				"z": -1.6377417563,
				"element": "H" 
			},
			{
				"x": -0.8984893341,
				"y": 0.5263629409,
				"z": -3.856518678,
				"element": "H" 
			},
			{
				"x": 0.7397631863,
				"y": 1.1979350617,
				"z": -3.9947851745,
				"element": "H" 
			},
			{
				"x": -0.636067455,
				"y": 2.260579527,
				"z": -3.6779364337,
				"element": "H" 
			},
			{
				"x": 1.6690950567,
				"y": -3.3345645073,
				"z": -1.8700849011,
				"element": "H" 
			},
			{
				"x": 3.5407156026,
				"y": -4.0215762671,
				"z": -0.5045002954,
				"element": "H" 
			},
			{
				"x": 3.5535003082,
				"y": -0.4020292392,
				"z": 0.6358882541,
				"element": "H" 
			},
			{
				"x": 1.9695078248,
				"y": 1.3048274559,
				"z": -0.214955673,
				"element": "H" 
			}
		],
		 "valence_orbital": [ 
			{
				"type": "occ",
				"energy": -0.3158,
				"method": "rhf"
			},
			{
				"type": "occ",
				"energy": -0.30901,
				"method": "rhf"
			},
			{
				"type": "occ",
				"energy": -0.28482,
				"method": "rhf"
			},
			{
				"type": "occ",
				"energy": -0.27839,
				"method": "rhf"
			},
			{
				"type": "occ",
				"energy": -0.27042,
				"method": "rhf"
			},
			{
				"type": "unocc",
				"energy": -0.097,
				"method": "rhf"
			},
			{
				"type": "unocc",
				"energy": -0.077,
				"method": "rhf"
			},
			{
				"type": "unocc",
				"energy": -0.02634,
				"method": "rhf"
			},
			{
				"type": "unocc",
				"energy": 0.02153,
				"method": "rhf"
			},
			{
				"type": "unocc",
				"energy": 0.07635,
				"method": "rhf"
			}
		],
		"cosmo_sigma_profile": { 
			"-0.025": 0.0,
			"-0.024": 0.0,
			"-0.023": 0.0,
			"-0.022": 0.0,
			"-0.021": 0.0,
			"-0.02": 0.0,
			"-0.019": 0.0,
			"-0.018": 0.0,
			"-0.017": 0.0,
			"-0.016": 0.0,
			"-0.015": 0.0,
			"-0.014": 0.0,
			"-0.013": 0.0,
			"-0.012": 0.0,
			"-0.011": 0.0,
			"-0.01": 0.344343658402,
			"-0.009": 2.17869159745,
			"-0.008": 3.87856189078,
			"-0.007": 9.66475599178,
			"-0.006": 9.98900477774,
			"-0.005": 10.1044443159,
			"-0.004": 12.4435625698,
			"-0.003": 23.5796320052,
			"-0.002": 21.0089360965,
			"-0.001": 23.2281785707,
			"0.0": 28.7488020247,
			"0.001": 22.2353797906,
			"0.002": 9.58436722428,
			"0.003": 5.85007545931,
			"0.004": 4.22840178493,
			"0.005": 5.14657168847,
			"0.006": 5.27270529627,
			"0.007": 8.11841214799,
			"0.008": 7.49097516498,
			"0.009": 6.43323677646,
			"0.01": 3.95048157851,
			"0.011": 4.35479314067,
			"0.012": 1.55595025217,
			"0.013": 0.174493588325,
			"0.014": 0.0,
			"0.015": 0.0,
			"0.016": 0.0,
			"0.017": 0.0,
			"0.018": 0.0,
			"0.019": 0.0,
			"0.02": 0.0,
			"0.021": 0.0,
			"0.022": 0.0,
			"0.023": 0.0,
			"0.024": 0.0,
			"0.025": 0.0
		}
	}
}
