{
	 "smiles": "CC(O)C1NC(=O)NC1=O", 
	 "Tm": 453.15, 
	 "num_atms": 18, 
	 "gaussian": { 
		 "optdone": 1, 
		 "sigma_profile": "yes", 
		 "theory": "DFT", 
		 "functional": "B3LYP", 
		 "basiset": "6-31G**", 
		 "properties": { 
			 "R2extent": 1656.7997, 
			 "electric_dipole_moment_norm": 1.12575593714, 
			 "electric_quadrupole_moment_norm": 17.5300666145, 
			 "total_energy": -530.565594407, 
			 "HOMO_LUMO_gap": 0.23918, 
			 "cosmo_polarized_energy": -16.75, 
			 "cosmo_cavitation_energy": 21.51, 
			 "cosmo_dispersion_energy": -16.05, 
			 "cosmo_repulsion_energy": 1.33, 
			 "cosmo_total_nonelectrostatic_energy": 6.79, 
			 "SMD_solvation_energy": 4.71 
		},
		"coords": [
			{
				"x": -0.9103656677,
				"y": 1.8694836586,
				"z": -1.7591956607,
				"element": "C" 
			},
			{
				"x": -1.104659534,
				"y": 2.4137289919,
				"z": -0.3431320629,
				"element": "C" 
			},
			{
				"x": -2.4691194142,
				"y": 2.5697160947,
				"z": -0.0011914942,
				"element": "O" 
			},
			{
				"x": -0.4272281648,
				"y": 1.5497577552,
				"z": 0.7554957739,
				"element": "C" 
			},
			{
				"x": 1.0061369689,
				"y": 1.3443645619,
				"z": 0.6227374366,
				"element": "N" 
			},
			{
				"x": 1.3723756574,
				"y": 0.020498328,
				"z": 0.6989504333,
				"element": "C" 
			},
			{
				"x": 2.483081522,
				"y": -0.4611677636,
				"z": 0.7246764,
				"element": "O" 
			},
			{
				"x": 0.1533204578,
				"y": -0.7011490214,
				"z": 0.7324332925,
				"element": "N" 
			},
			{
				"x": -0.9532855045,
				"y": 0.1100320387,
				"z": 0.729423636,
				"element": "C" 
			},
			{
				"x": -2.1233766974,
				"y": -0.2312717872,
				"z": 0.6812787315,
				"element": "O" 
			},
			{
				"x": 0.1511537083,
				"y": 1.7787415649,
				"z": -2.0095838979,
				"element": "H" 
			},
			{
				"x": -1.3816610721,
				"y": 2.548050183,
				"z": -2.4745786775,
				"element": "H" 
			},
			{
				"x": -1.3801626309,
				"y": 0.8862795286,
				"z": -1.8703285629,
				"element": "H" 
			},
			{
				"x": -0.6640990844,
				"y": 3.4171746366,
				"z": -0.2842837938,
				"element": "H" 
			},
			{
				"x": -2.8355725424,
				"y": 1.6754113407,
				"z": 0.1077956019,
				"element": "H" 
			},
			{
				"x": -0.6950960337,
				"y": 1.9955115662,
				"z": 1.7234134664,
				"element": "H" 
			},
			{
				"x": 1.6964410481,
				"y": 2.0541631292,
				"z": 0.814684419,
				"element": "H" 
			},
			{
				"x": 0.1245169834,
				"y": -1.710424806,
				"z": 0.6975049588,
				"element": "H" 
			}
		],
		 "valence_orbital": [ 
			{
				"type": "occ",
				"energy": -0.30323,
				"method": "rhf"
			},
			{
				"type": "occ",
				"energy": -0.30305,
				"method": "rhf"
			},
			{
				"type": "occ",
				"energy": -0.28963,
				"method": "rhf"
			},
			{
				"type": "occ",
				"energy": -0.27883,
				"method": "rhf"
			},
			{
				"type": "occ",
				"energy": -0.26395,
				"method": "rhf"
			},
			{
				"type": "unocc",
				"energy": -0.02477,
				"method": "rhf"
			},
			{
				"type": "unocc",
				"energy": 0.0457,
				"method": "rhf"
			},
			{
				"type": "unocc",
				"energy": 0.0649,
				"method": "rhf"
			},
			{
				"type": "unocc",
				"energy": 0.09139,
				"method": "rhf"
			},
			{
				"type": "unocc",
				"energy": 0.09669,
				"method": "rhf"
			}
		],
		"cosmo_sigma_profile": { 
			"-0.025": 0.0,
			"-0.024": 0.0,
			"-0.023": 0.0,
			"-0.022": 0.0,
			"-0.021": 0.0,
			"-0.02": 0.0,
			"-0.019": 0.0,
			"-0.018": 0.0,
			"-0.017": 0.944735855124,
			"-0.016": 1.57070027679,
			"-0.015": 2.43498902025,
			"-0.014": 2.38665035974,
			"-0.013": 1.96448193929,
			"-0.012": 1.74282689305,
			"-0.011": 1.88924831709,
			"-0.01": 2.2715613578,
			"-0.009": 2.02827888249,
			"-0.008": 5.23155503625,
			"-0.007": 6.06016470626,
			"-0.006": 6.58830219602,
			"-0.005": 6.86355110262,
			"-0.004": 9.46841592247,
			"-0.003": 14.4672938654,
			"-0.002": 15.5105221086,
			"-0.001": 11.7606480345,
			"0.0": 10.7295563225,
			"0.001": 7.18499293929,
			"0.002": 5.16318303083,
			"0.003": 3.62546736713,
			"0.004": 2.8078348216,
			"0.005": 3.64672539733,
			"0.006": 3.10109337233,
			"0.007": 3.95839782565,
			"0.008": 3.50754015133,
			"0.009": 3.66047736457,
			"0.01": 4.28118447832,
			"0.011": 6.94268734198,
			"0.012": 8.68860786201,
			"0.013": 6.04382037763,
			"0.014": 2.25862486937,
			"0.015": 0.0950875103612,
			"0.016": 0.0,
			"0.017": 0.0,
			"0.018": 0.0,
			"0.019": 0.0,
			"0.02": 0.0,
			"0.021": 0.0,
			"0.022": 0.0,
			"0.023": 0.0,
			"0.024": 0.0,
			"0.025": 0.0
		}
	}
}
