{
	 "smiles": "OC1=CC=C2C=CC3=CC=CC4=C3C2=C1C=C4", 
	 "Tm": 453.15, 
	 "num_atms": 27, 
	 "gaussian": { 
		 "optdone": 1, 
		 "sigma_profile": "yes", 
		 "theory": "DFT", 
		 "functional": "B3LYP", 
		 "basiset": "6-31G**", 
		 "properties": { 
			 "R2extent": 3733.9524, 
			 "electric_dipole_moment_norm": 1.01446516944, 
			 "electric_quadrupole_moment_norm": 14.4502606184, 
			 "total_energy": -690.992843521, 
			 "HOMO_LUMO_gap": 0.13557, 
			 "cosmo_polarized_energy": -9.96, 
			 "cosmo_cavitation_energy": 29.63, 
			 "cosmo_dispersion_energy": -22.67, 
			 "cosmo_repulsion_energy": 1.66, 
			 "cosmo_total_nonelectrostatic_energy": 8.61, 
			 "SMD_solvation_energy": 4.3 
		},
		"coords": [
			{
				"x": -2.3542189427,
				"y": -3.596643239,
				"z": 1.2865724756,
				"element": "O" 
			},
			{
				"x": -1.702915185,
				"y": -2.6367709144,
				"z": 0.5679540191,
				"element": "C" 
			},
			{
				"x": -1.7514474244,
				"y": -2.7705911042,
				"z": -0.8232624142,
				"element": "C" 
			},
			{
				"x": -1.1203575542,
				"y": -1.8460171989,
				"z": -1.6431546789,
				"element": "C" 
			},
			{
				"x": -0.4180837868,
				"y": -0.7546181888,
				"z": -1.1049902252,
				"element": "C" 
			},
			{
				"x": 0.2434409704,
				"y": 0.2159946887,
				"z": -1.9295632703,
				"element": "C" 
			},
			{
				"x": 0.918831942,
				"y": 1.2666861026,
				"z": -1.3869840959,
				"element": "C" 
			},
			{
				"x": 0.9947354303,
				"y": 1.4436042418,
				"z": 0.0368457277,
				"element": "C" 
			},
			{
				"x": 1.6846089787,
				"y": 2.5182887142,
				"z": 0.6230027786,
				"element": "C" 
			},
			{
				"x": 1.7404745429,
				"y": 2.6631225119,
				"z": 2.0077420065,
				"element": "C" 
			},
			{
				"x": 1.1109452775,
				"y": 1.7416386109,
				"z": 2.842584683,
				"element": "C" 
			},
			{
				"x": 0.4093594082,
				"y": 0.6511615097,
				"z": 2.3035931687,
				"element": "C" 
			},
			{
				"x": 0.3451622699,
				"y": 0.4922087857,
				"z": 0.8848325099,
				"element": "C" 
			},
			{
				"x": -0.3631342144,
				"y": -0.6097698888,
				"z": 0.3142910661,
				"element": "C" 
			},
			{
				"x": -1.0115449476,
				"y": -1.5592058617,
				"z": 1.1665629154,
				"element": "C" 
			},
			{
				"x": -0.9273291464,
				"y": -1.3696708189,
				"z": 2.5885705808,
				"element": "C" 
			},
			{
				"x": -0.251778921,
				"y": -0.3187427687,
				"z": 3.1305793692,
				"element": "C" 
			},
			{
				"x": -2.264497245,
				"y": -3.4211917409,
				"z": 2.2308747052,
				"element": "H" 
			},
			{
				"x": -2.2939654064,
				"y": -3.6138020881,
				"z": -1.2375530129,
				"element": "H" 
			},
			{
				"x": -1.1679811859,
				"y": -1.9650294213,
				"z": -2.7223035716,
				"element": "H" 
			},
			{
				"x": 0.1932009548,
				"y": 0.0930571001,
				"z": -3.0085330706,
				"element": "H" 
			},
			{
				"x": 1.4145277756,
				"y": 1.9931648482,
				"z": -2.0253064867,
				"element": "H" 
			},
			{
				"x": 2.1782774768,
				"y": 3.2414668469,
				"z": -0.020816239,
				"element": "H" 
			},
			{
				"x": 2.2792861393,
				"y": 3.5014355206,
				"z": 2.4401025511,
				"element": "H" 
			},
			{
				"x": 1.1580401647,
				"y": 1.8598798431,
				"z": 3.9218825427,
				"element": "H" 
			},
			{
				"x": -1.4087048889,
				"y": -2.072521499,
				"z": 3.2659367688,
				"element": "H" 
			},
			{
				"x": -0.2030324823,
				"y": -0.1980345918,
				"z": 4.2094391972,
				"element": "H" 
			}
		],
		 "valence_orbital": [ 
			{
				"type": "occ",
				"energy": -0.28905,
				"method": "rhf"
			},
			{
				"type": "occ",
				"energy": -0.26197,
				"method": "rhf"
			},
			{
				"type": "occ",
				"energy": -0.25426,
				"method": "rhf"
			},
			{
				"type": "occ",
				"energy": -0.22774,
				"method": "rhf"
			},
			{
				"type": "occ",
				"energy": -0.18775,
				"method": "rhf"
			},
			{
				"type": "unocc",
				"energy": -0.05218,
				"method": "rhf"
			},
			{
				"type": "unocc",
				"energy": -0.0241,
				"method": "rhf"
			},
			{
				"type": "unocc",
				"energy": -0.00382,
				"method": "rhf"
			},
			{
				"type": "unocc",
				"energy": 0.02449,
				"method": "rhf"
			},
			{
				"type": "unocc",
				"energy": 0.05731,
				"method": "rhf"
			}
		],
		"cosmo_sigma_profile": { 
			"-0.025": 0.0,
			"-0.024": 0.0,
			"-0.023": 0.0,
			"-0.022": 0.0,
			"-0.021": 0.0,
			"-0.02": 0.0,
			"-0.019": 0.00171680083659,
			"-0.018": 0.434781493441,
			"-0.017": 1.06823678675,
			"-0.016": 0.567838948458,
			"-0.015": 1.02295098688,
			"-0.014": 1.04469285331,
			"-0.013": 0.906384494277,
			"-0.012": 0.840819727027,
			"-0.011": 0.966409926414,
			"-0.01": 1.3197383338,
			"-0.009": 1.16862149118,
			"-0.008": 0.808090946628,
			"-0.007": 1.66900111804,
			"-0.006": 15.7408314502,
			"-0.005": 18.6350522221,
			"-0.004": 16.8916639258,
			"-0.003": 15.4529958923,
			"-0.002": 10.3260743648,
			"-0.001": 11.087879903,
			"0.0": 11.1804083342,
			"0.001": 11.8262885616,
			"0.002": 14.862847455,
			"0.003": 37.1097481052,
			"0.004": 36.4801650879,
			"0.005": 16.7552605247,
			"0.006": 3.26229263054,
			"0.007": 1.34253085291,
			"0.008": 1.07176886101,
			"0.009": 1.41455155679,
			"0.01": 1.94741458074,
			"0.011": 1.5305601194,
			"0.012": 0.0436720038568,
			"0.013": 0.0,
			"0.014": 0.0,
			"0.015": 0.0,
			"0.016": 0.0,
			"0.017": 0.0,
			"0.018": 0.0,
			"0.019": 0.0,
			"0.02": 0.0,
			"0.021": 0.0,
			"0.022": 0.0,
			"0.023": 0.0,
			"0.024": 0.0,
			"0.025": 0.0
		}
	}
}
