{
	 "smiles": "C1COCCOC2=C(OCCOCCOC3=C(OCCO1)C=CC=C3)C=CC=C2", 
	 "Tm": 379.15, 
	 "num_atms": 57, 
	 "gaussian": { 
		 "optdone": 1, 
		 "sigma_profile": "yes", 
		 "theory": "DFT", 
		 "functional": "B3LYP", 
		 "basiset": "6-31G**", 
		 "properties": { 
			 "R2extent": 13179.73, 
			 "electric_dipole_moment_norm": 2.8786474845, 
			 "electric_quadrupole_moment_norm": 7.76399945453, 
			 "total_energy": -1381.68446055, 
			 "HOMO_LUMO_gap": 0.21453, 
			 "cosmo_polarized_energy": -19.76, 
			 "cosmo_cavitation_energy": 56.95, 
			 "cosmo_dispersion_energy": -36.86, 
			 "cosmo_repulsion_energy": 2.77, 
			 "cosmo_total_nonelectrostatic_energy": 22.86, 
			 "SMD_solvation_energy": 9.45 
		},
		"coords": [
			{
				"x": 0.1521161096,
				"y": 3.2950217844,
				"z": -2.3736449777,
				"element": "C" 
			},
			{
				"x": -0.4904059944,
				"y": 3.4962126006,
				"z": -1.0004918733,
				"element": "C" 
			},
			{
				"x": -0.6797356404,
				"y": 2.3166480161,
				"z": -0.2341349002,
				"element": "O" 
			},
			{
				"x": -1.6825878723,
				"y": 1.4196395895,
				"z": -0.6905819879,
				"element": "C" 
			},
			{
				"x": -2.5484826218,
				"y": 0.9897215351,
				"z": 0.4812376061,
				"element": "C" 
			},
			{
				"x": -1.7314169603,
				"y": 0.2420828355,
				"z": 1.3725533001,
				"element": "O" 
			},
			{
				"x": -2.1657548888,
				"y": 0.0299059483,
				"z": 2.6493365045,
				"element": "C" 
			},
			{
				"x": -1.1818396478,
				"y": -0.3938820404,
				"z": 3.5711085851,
				"element": "C" 
			},
			{
				"x": 0.1196892779,
				"y": -0.5987613375,
				"z": 3.1798446456,
				"element": "O" 
			},
			{
				"x": 0.8618037724,
				"y": 0.5692268038,
				"z": 2.7785249366,
				"element": "C" 
			},
			{
				"x": 2.2023057695,
				"y": 0.1199838572,
				"z": 2.2195110497,
				"element": "C" 
			},
			{
				"x": 2.1563029596,
				"y": -0.3891300162,
				"z": 0.8991881004,
				"element": "O" 
			},
			{
				"x": 1.63553038,
				"y": -1.7065662686,
				"z": 0.7723326849,
				"element": "C" 
			},
			{
				"x": 1.9626391167,
				"y": -2.2344309388,
				"z": -0.6085150999,
				"element": "C" 
			},
			{
				"x": 1.0420496179,
				"y": -1.6748406365,
				"z": -1.5631431677,
				"element": "O" 
			},
			{
				"x": 1.3663543025,
				"y": -1.8859448976,
				"z": -2.8826639788,
				"element": "C" 
			},
			{
				"x": 2.4283839476,
				"y": -1.1863233919,
				"z": -3.4875113525,
				"element": "C" 
			},
			{
				"x": 3.2236252042,
				"y": -0.3643357706,
				"z": -2.7189146347,
				"element": "O" 
			},
			{
				"x": 2.9559046253,
				"y": 1.0416453319,
				"z": -2.8193328817,
				"element": "C" 
			},
			{
				"x": 1.640990189,
				"y": 1.429187747,
				"z": -2.1449370196,
				"element": "C" 
			},
			{
				"x": 1.4857366609,
				"y": 2.8347653108,
				"z": -2.3341315419,
				"element": "O" 
			},
			{
				"x": 2.6960921025,
				"y": -1.3737297192,
				"z": -4.8452042109,
				"element": "C" 
			},
			{
				"x": 1.9103910275,
				"y": -2.2407059864,
				"z": -5.6072058558,
				"element": "C" 
			},
			{
				"x": 0.8527486312,
				"y": -2.9285024015,
				"z": -5.0098297649,
				"element": "C" 
			},
			{
				"x": 0.5881057387,
				"y": -2.7555208851,
				"z": -3.6499445168,
				"element": "C" 
			},
			{
				"x": -1.5457683466,
				"y": -0.6752663603,
				"z": 4.8849257438,
				"element": "C" 
			},
			{
				"x": -2.8716595694,
				"y": -0.5333365933,
				"z": 5.3057041118,
				"element": "C" 
			},
			{
				"x": -3.8361671438,
				"y": -0.0980453386,
				"z": 4.4011386588,
				"element": "C" 
			},
			{
				"x": -3.4877188937,
				"y": 0.1829110096,
				"z": 3.0754003377,
				"element": "C" 
			},
			{
				"x": 0.1751000969,
				"y": 4.2732381499,
				"z": -2.8716022037,
				"element": "H" 
			},
			{
				"x": -0.4699149784,
				"y": 2.6269594938,
				"z": -2.992864363,
				"element": "H" 
			},
			{
				"x": 0.1623318915,
				"y": 4.1332560703,
				"z": -0.3955306672,
				"element": "H" 
			},
			{
				"x": -1.4496239014,
				"y": 4.0258700379,
				"z": -1.1407271957,
				"element": "H" 
			},
			{
				"x": -2.3338914006,
				"y": 1.8939587978,
				"z": -1.4394630831,
				"element": "H" 
			},
			{
				"x": -1.2165359146,
				"y": 0.5366563137,
				"z": -1.1467639846,
				"element": "H" 
			},
			{
				"x": -2.9544126214,
				"y": 1.8747271278,
				"z": 0.9885702959,
				"element": "H" 
			},
			{
				"x": -3.3871076108,
				"y": 0.3763794101,
				"z": 0.1184462145,
				"element": "H" 
			},
			{
				"x": 0.3175518964,
				"y": 1.1369956807,
				"z": 2.0191464549,
				"element": "H" 
			},
			{
				"x": 1.0286628406,
				"y": 1.2069359422,
				"z": 3.6600338803,
				"element": "H" 
			},
			{
				"x": 2.862374006,
				"y": 0.9934908364,
				"z": 2.1760110696,
				"element": "H" 
			},
			{
				"x": 2.6529668836,
				"y": -0.6162302518,
				"z": 2.9052925955,
				"element": "H" 
			},
			{
				"x": 0.5528224234,
				"y": -1.7272073156,
				"z": 0.9408807222,
				"element": "H" 
			},
			{
				"x": 2.104894558,
				"y": -2.3686460648,
				"z": 1.5181882223,
				"element": "H" 
			},
			{
				"x": 1.8606431282,
				"y": -3.3293052238,
				"z": -0.6162452033,
				"element": "H" 
			},
			{
				"x": 2.9902851334,
				"y": -1.9654950714,
				"z": -0.8711751789,
				"element": "H" 
			},
			{
				"x": 2.9368098634,
				"y": 1.3563928995,
				"z": -3.8713085213,
				"element": "H" 
			},
			{
				"x": 3.7963288611,
				"y": 1.5373651819,
				"z": -2.3270033015,
				"element": "H" 
			},
			{
				"x": 0.8133913455,
				"y": 0.8889065492,
				"z": -2.6257158753,
				"element": "H" 
			},
			{
				"x": 1.6507936111,
				"y": 1.1536249874,
				"z": -1.0859928839,
				"element": "H" 
			},
			{
				"x": 3.5293152974,
				"y": -0.8363140814,
				"z": -5.2883838924,
				"element": "H" 
			},
			{
				"x": 2.127113247,
				"y": -2.3787318164,
				"z": -6.662332695,
				"element": "H" 
			},
			{
				"x": 0.2384359718,
				"y": -3.6045679595,
				"z": -5.59718002,
				"element": "H" 
			},
			{
				"x": -0.2296697028,
				"y": -3.2772733303,
				"z": -3.1622573433,
				"element": "H" 
			},
			{
				"x": -0.7685214298,
				"y": -1.0079053107,
				"z": 5.5658652413,
				"element": "H" 
			},
			{
				"x": -3.1410379697,
				"y": -0.7560784094,
				"z": 6.3334838016,
				"element": "H" 
			},
			{
				"x": -4.8690385614,
				"y": 0.0203290187,
				"z": 4.715065443,
				"element": "H" 
			},
			{
				"x": -4.251698818,
				"y": 0.5017385507,
				"z": 2.3751439707,
				"element": "H" 
			}
		],
		 "valence_orbital": [ 
			{
				"type": "occ",
				"energy": -0.24138,
				"method": "rhf"
			},
			{
				"type": "occ",
				"energy": -0.237,
				"method": "rhf"
			},
			{
				"type": "occ",
				"energy": -0.23326,
				"method": "rhf"
			},
			{
				"type": "occ",
				"energy": -0.22401,
				"method": "rhf"
			},
			{
				"type": "occ",
				"energy": -0.21177,
				"method": "rhf"
			},
			{
				"type": "unocc",
				"energy": 0.00276,
				"method": "rhf"
			},
			{
				"type": "unocc",
				"energy": 0.00586,
				"method": "rhf"
			},
			{
				"type": "unocc",
				"energy": 0.0075,
				"method": "rhf"
			},
			{
				"type": "unocc",
				"energy": 0.01375,
				"method": "rhf"
			},
			{
				"type": "unocc",
				"energy": 0.0764,
				"method": "rhf"
			}
		],
		"cosmo_sigma_profile": { 
			"-0.025": 0.0,
			"-0.024": 0.0,
			"-0.023": 0.0,
			"-0.022": 0.0,
			"-0.021": 0.0,
			"-0.02": 0.0,
			"-0.019": 0.0,
			"-0.018": 0.0,
			"-0.017": 0.0,
			"-0.016": 0.0,
			"-0.015": 0.0,
			"-0.014": 0.0,
			"-0.013": 0.0,
			"-0.012": 0.0,
			"-0.011": 0.0,
			"-0.01": 0.0,
			"-0.009": 0.0,
			"-0.008": 0.0,
			"-0.007": 0.799746043497,
			"-0.006": 21.1451167003,
			"-0.005": 53.6295605092,
			"-0.004": 55.9091308935,
			"-0.003": 47.841791089,
			"-0.002": 32.7280822253,
			"-0.001": 27.1990107157,
			"0.0": 22.1139424837,
			"0.001": 21.5715334014,
			"0.002": 21.1386758905,
			"0.003": 25.4731951231,
			"0.004": 28.8490996753,
			"0.005": 29.0109250597,
			"0.006": 21.6868560375,
			"0.007": 12.0430132285,
			"0.008": 10.4273174379,
			"0.009": 6.64810172504,
			"0.01": 4.54091188141,
			"0.011": 2.67416746975,
			"0.012": 1.69277734128,
			"0.013": 0.607567537936,
			"0.014": 0.0207452234567,
			"0.015": 0.0,
			"0.016": 0.0,
			"0.017": 0.0,
			"0.018": 0.0,
			"0.019": 0.0,
			"0.02": 0.0,
			"0.021": 0.0,
			"0.022": 0.0,
			"0.023": 0.0,
			"0.024": 0.0,
			"0.025": 0.0
		}
	}
}
