{
	 "smiles": "COC1=C(C=C(C=C1)S(Cl)(=O)=O)C1(C)NC(=O)NC1=O", 
	 "Tm": 488.15, 
	 "num_atms": 31, 
	 "gaussian": { 
		 "optdone": 1, 
		 "sigma_profile": "yes", 
		 "theory": "DFT", 
		 "functional": "B3LYP", 
		 "basiset": "6-31G**", 
		 "properties": { 
			 "R2extent": 6935.8428, 
			 "electric_dipole_moment_norm": 7.9117780391, 
			 "electric_quadrupole_moment_norm": 27.7812694604, 
			 "total_energy": -1769.76534282, 
			 "HOMO_LUMO_gap": 0.17893, 
			 "cosmo_polarized_energy": -23.56, 
			 "cosmo_cavitation_energy": 38.77, 
			 "cosmo_dispersion_energy": -27.25, 
			 "cosmo_repulsion_energy": 2.08, 
			 "cosmo_total_nonelectrostatic_energy": 13.6, 
			 "SMD_solvation_energy": 7.2 
		},
		"coords": [
			{
				"x": -2.9663033509,
				"y": -2.2086998284,
				"z": -2.0282957026,
				"element": "C" 
			},
			{
				"x": -1.6384546712,
				"y": -1.9057714447,
				"z": -1.5987331645,
				"element": "O" 
			},
			{
				"x": -1.4224608666,
				"y": -0.805027157,
				"z": -0.8236503661,
				"element": "C" 
			},
			{
				"x": -0.085967947,
				"y": -0.5901778152,
				"z": -0.3978624366,
				"element": "C" 
			},
			{
				"x": 0.1697322405,
				"y": 0.5023165492,
				"z": 0.4274899877,
				"element": "C" 
			},
			{
				"x": -0.8681752168,
				"y": 1.3660765694,
				"z": 0.7882645241,
				"element": "C" 
			},
			{
				"x": -2.1751289002,
				"y": 1.1709514666,
				"z": 0.3555505112,
				"element": "C" 
			},
			{
				"x": -2.4488509012,
				"y": 0.0749267903,
				"z": -0.4569565722,
				"element": "C" 
			},
			{
				"x": -0.5086649866,
				"y": 2.7682049924,
				"z": 1.824778188,
				"element": "S" 
			},
			{
				"x": -0.7163979917,
				"y": 1.9227121779,
				"z": 3.7782998515,
				"element": "Cl" 
			},
			{
				"x": 0.8959541686,
				"y": 3.1301864687,
				"z": 1.6902693669,
				"element": "O" 
			},
			{
				"x": -1.5833773094,
				"y": 3.7456279809,
				"z": 1.6966500482,
				"element": "O" 
			},
			{
				"x": 1.0220521815,
				"y": -1.5781816719,
				"z": -0.8088903383,
				"element": "C" 
			},
			{
				"x": 0.933807652,
				"y": -2.8706027834,
				"z": 0.028656275,
				"element": "C" 
			},
			{
				"x": 1.025910995,
				"y": -1.8404384387,
				"z": -2.2477514179,
				"element": "N" 
			},
			{
				"x": 2.1374155639,
				"y": -1.3838628071,
				"z": -2.9017326762,
				"element": "C" 
			},
			{
				"x": 2.3832410066,
				"y": -1.396898465,
				"z": -4.0889572224,
				"element": "O" 
			},
			{
				"x": 2.9871946664,
				"y": -0.8887260695,
				"z": -1.8848030115,
				"element": "N" 
			},
			{
				"x": 2.4412685258,
				"y": -0.9703575172,
				"z": -0.6295144827,
				"element": "C" 
			},
			{
				"x": 2.964757129,
				"y": -0.658871857,
				"z": 0.4215198899,
				"element": "O" 
			},
			{
				"x": -3.6328026364,
				"y": -2.3623286944,
				"z": -1.172740245,
				"element": "H" 
			},
			{
				"x": -2.8879653389,
				"y": -3.1346481433,
				"z": -2.5981792196,
				"element": "H" 
			},
			{
				"x": -3.3665766082,
				"y": -1.4173675106,
				"z": -2.6716684397,
				"element": "H" 
			},
			{
				"x": 1.1732631373,
				"y": 0.6809893856,
				"z": 0.7956625554,
				"element": "H" 
			},
			{
				"x": -2.959472712,
				"y": 1.8625536788,
				"z": 0.6407302871,
				"element": "H" 
			},
			{
				"x": -3.4623376703,
				"y": -0.085955642,
				"z": -0.8011537969,
				"element": "H" 
			},
			{
				"x": -0.0503484319,
				"y": -3.3296254507,
				"z": -0.085254553,
				"element": "H" 
			},
			{
				"x": 1.694851452,
				"y": -3.5835464129,
				"z": -0.3008796622,
				"element": "H" 
			},
			{
				"x": 1.1033051311,
				"y": -2.6338694027,
				"z": 1.0817459665,
				"element": "H" 
			},
			{
				"x": 0.1961368359,
				"y": -2.1116872956,
				"z": -2.7499061912,
				"element": "H" 
			},
			{
				"x": 3.914394854,
				"y": -0.5369016525,
				"z": -2.0767879526,
				"element": "H" 
			}
		],
		 "valence_orbital": [ 
			{
				"type": "occ",
				"energy": -0.29801,
				"method": "rhf"
			},
			{
				"type": "occ",
				"energy": -0.29461,
				"method": "rhf"
			},
			{
				"type": "occ",
				"energy": -0.2765,
				"method": "rhf"
			},
			{
				"type": "occ",
				"energy": -0.27093,
				"method": "rhf"
			},
			{
				"type": "occ",
				"energy": -0.26641,
				"method": "rhf"
			},
			{
				"type": "unocc",
				"energy": -0.08748,
				"method": "rhf"
			},
			{
				"type": "unocc",
				"energy": -0.04694,
				"method": "rhf"
			},
			{
				"type": "unocc",
				"energy": -0.04018,
				"method": "rhf"
			},
			{
				"type": "unocc",
				"energy": -0.02029,
				"method": "rhf"
			},
			{
				"type": "unocc",
				"energy": 0.05123,
				"method": "rhf"
			}
		],
		"cosmo_sigma_profile": { 
			"-0.025": 0.0,
			"-0.024": 0.0,
			"-0.023": 0.0,
			"-0.022": 0.0,
			"-0.021": 0.0,
			"-0.02": 0.0,
			"-0.019": 0.0,
			"-0.018": 0.0,
			"-0.017": 0.713283426988,
			"-0.016": 1.36650760935,
			"-0.015": 1.06629979416,
			"-0.014": 0.981849114371,
			"-0.013": 0.781296673516,
			"-0.012": 1.52628017196,
			"-0.011": 2.00802602809,
			"-0.01": 0.84857801347,
			"-0.009": 2.9156817884,
			"-0.008": 7.59020797789,
			"-0.007": 11.6513723975,
			"-0.006": 15.6903779578,
			"-0.005": 18.9854733831,
			"-0.004": 22.1296501008,
			"-0.003": 20.4006956098,
			"-0.002": 24.9599908311,
			"-0.001": 27.2646160596,
			"0.0": 27.0348662871,
			"0.001": 17.4397773463,
			"0.002": 13.1966268081,
			"0.003": 16.4951957416,
			"0.004": 15.1745926914,
			"0.005": 5.5912139507,
			"0.006": 5.22379884986,
			"0.007": 8.82197180397,
			"0.008": 11.7694913575,
			"0.009": 8.08603167693,
			"0.01": 3.24306584067,
			"0.011": 5.95699112752,
			"0.012": 7.67463791776,
			"0.013": 5.21692588318,
			"0.014": 0.324573243646,
			"0.015": 0.0,
			"0.016": 0.0,
			"0.017": 0.0,
			"0.018": 0.0,
			"0.019": 0.0,
			"0.02": 0.0,
			"0.021": 0.0,
			"0.022": 0.0,
			"0.023": 0.0,
			"0.024": 0.0,
			"0.025": 0.0
		}
	}
}
