{
	 "smiles": "OC(=O)C1=COC(=N1)C1=CC=CC=C1", 
	 "Tm": 483.15, 
	 "num_atms": 21, 
	 "gaussian": { 
		 "optdone": 1, 
		 "sigma_profile": "yes", 
		 "theory": "DFT", 
		 "functional": "B3LYP", 
		 "basiset": "6-31G**", 
		 "properties": { 
			 "R2extent": 4637.1709, 
			 "electric_dipole_moment_norm": 3.04096742173, 
			 "electric_quadrupole_moment_norm": 19.2702869587, 
			 "total_energy": -665.708381307, 
			 "HOMO_LUMO_gap": 0.18337, 
			 "cosmo_polarized_energy": -13.85, 
			 "cosmo_cavitation_energy": 27.02, 
			 "cosmo_dispersion_energy": -19.99, 
			 "cosmo_repulsion_energy": 1.56, 
			 "cosmo_total_nonelectrostatic_energy": 8.6, 
			 "SMD_solvation_energy": 5.26 
		},
		"coords": [
			{
				"x": -2.7871225623,
				"y": -0.6852581107,
				"z": 5.0634504891,
				"element": "O" 
			},
			{
				"x": -2.8037284504,
				"y": -0.723782332,
				"z": 3.7029071498,
				"element": "C" 
			},
			{
				"x": -3.8246257324,
				"y": -0.7303770651,
				"z": 3.0542335848,
				"element": "O" 
			},
			{
				"x": -1.4333323028,
				"y": -0.7551159281,
				"z": 3.1603342255,
				"element": "C" 
			},
			{
				"x": -0.2544783724,
				"y": -0.749338588,
				"z": 3.846819372,
				"element": "C" 
			},
			{
				"x": 0.7547063656,
				"y": -0.7869486349,
				"z": 2.93873359,
				"element": "O" 
			},
			{
				"x": 0.1275867191,
				"y": -0.8144534251,
				"z": 1.7132372794,
				"element": "C" 
			},
			{
				"x": -1.1696154642,
				"y": -0.7968621745,
				"z": 1.8009463907,
				"element": "N" 
			},
			{
				"x": 0.9564592249,
				"y": -0.8582145035,
				"z": 0.5126255762,
				"element": "C" 
			},
			{
				"x": 2.3576323918,
				"y": -0.8723594495,
				"z": 0.5932223024,
				"element": "C" 
			},
			{
				"x": 3.1204131649,
				"y": -0.9143894469,
				"z": -0.572085493,
				"element": "C" 
			},
			{
				"x": 2.4959206508,
				"y": -0.9425002013,
				"z": -1.8209386281,
				"element": "C" 
			},
			{
				"x": 1.1003668355,
				"y": -0.9284338591,
				"z": -1.9028523023,
				"element": "C" 
			},
			{
				"x": 0.330263785,
				"y": -0.8865244175,
				"z": -0.7445290931,
				"element": "C" 
			},
			{
				"x": -3.7183162552,
				"y": -0.6666357912,
				"z": 5.3389639867,
				"element": "H" 
			},
			{
				"x": 0.0128886637,
				"y": -0.7227958491,
				"z": 4.8901300493,
				"element": "H" 
			},
			{
				"x": 2.8408999089,
				"y": -0.8504607053,
				"z": 1.564099578,
				"element": "H" 
			},
			{
				"x": 4.2042214144,
				"y": -0.9251883603,
				"z": -0.5046257156,
				"element": "H" 
			},
			{
				"x": 3.0937636779,
				"y": -0.9752327538,
				"z": -2.7270853146,
				"element": "H" 
			},
			{
				"x": 0.6118204522,
				"y": -0.9502036213,
				"z": -2.8724422759,
				"element": "H" 
			},
			{
				"x": -0.7534241149,
				"y": -0.875124783,
				"z": -0.7912447513,
				"element": "H" 
			}
		],
		 "valence_orbital": [ 
			{
				"type": "occ",
				"energy": -0.2995,
				"method": "rhf"
			},
			{
				"type": "occ",
				"energy": -0.29245,
				"method": "rhf"
			},
			{
				"type": "occ",
				"energy": -0.27954,
				"method": "rhf"
			},
			{
				"type": "occ",
				"energy": -0.26123,
				"method": "rhf"
			},
			{
				"type": "occ",
				"energy": -0.2343,
				"method": "rhf"
			},
			{
				"type": "unocc",
				"energy": -0.05093,
				"method": "rhf"
			},
			{
				"type": "unocc",
				"energy": -0.03628,
				"method": "rhf"
			},
			{
				"type": "unocc",
				"energy": -0.00984,
				"method": "rhf"
			},
			{
				"type": "unocc",
				"energy": 0.05002,
				"method": "rhf"
			},
			{
				"type": "unocc",
				"energy": 0.0765,
				"method": "rhf"
			}
		],
		"cosmo_sigma_profile": { 
			"-0.025": 0.0,
			"-0.024": 0.0,
			"-0.023": 0.0,
			"-0.022": 0.0,
			"-0.021": 0.0,
			"-0.02": 0.0,
			"-0.019": 0.230032937205,
			"-0.018": 0.745211483615,
			"-0.017": 1.15064821211,
			"-0.016": 0.993388421157,
			"-0.015": 0.363427274645,
			"-0.014": 0.717654062682,
			"-0.013": 0.643369822477,
			"-0.012": 1.3569558877,
			"-0.011": 1.9720364029,
			"-0.01": 2.39188848247,
			"-0.009": 1.03465900018,
			"-0.008": 2.09303464016,
			"-0.007": 5.33900591093,
			"-0.006": 9.74674686782,
			"-0.005": 11.4107637494,
			"-0.004": 14.4915788801,
			"-0.003": 14.1907469745,
			"-0.002": 17.6449443867,
			"-0.001": 20.4800102202,
			"0.0": 13.5584279643,
			"0.001": 16.2095632747,
			"0.002": 14.7610131683,
			"0.003": 14.3318303795,
			"0.004": 16.9082010424,
			"0.005": 5.39823503948,
			"0.006": 3.59263565489,
			"0.007": 4.09002241436,
			"0.008": 2.27124588588,
			"0.009": 2.64478391089,
			"0.01": 3.62411834209,
			"0.011": 5.86207769325,
			"0.012": 3.69096076092,
			"0.013": 2.43650842445,
			"0.014": 1.4021714382,
			"0.015": 0.179467542493,
			"0.016": 0.0,
			"0.017": 0.0,
			"0.018": 0.0,
			"0.019": 0.0,
			"0.02": 0.0,
			"0.021": 0.0,
			"0.022": 0.0,
			"0.023": 0.0,
			"0.024": 0.0,
			"0.025": 0.0
		}
	}
}
