{
	 "smiles": "NC(=O)NC1=CC=C(C=C1)[N+]([O-])=O", 
	 "Tm": 498.15, 
	 "num_atms": 20, 
	 "gaussian": { 
		 "optdone": 1, 
		 "sigma_profile": "yes", 
		 "theory": "DFT", 
		 "functional": "B3LYP", 
		 "basiset": "6-31G**", 
		 "properties": { 
			 "R2extent": 3320.814, 
			 "electric_dipole_moment_norm": 8.03028160092, 
			 "electric_quadrupole_moment_norm": 12.3636148088, 
			 "total_energy": -660.819545772, 
			 "HOMO_LUMO_gap": 0.16334, 
			 "cosmo_polarized_energy": -21.74, 
			 "cosmo_cavitation_energy": 25.63, 
			 "cosmo_dispersion_energy": -19.12, 
			 "cosmo_repulsion_energy": 1.51, 
			 "cosmo_total_nonelectrostatic_energy": 8.01, 
			 "SMD_solvation_energy": 7.53 
		},
		"coords": [
			{
				"x": -3.5079993933,
				"y": 1.0183907645,
				"z": -2.1921720522,
				"element": "N" 
			},
			{
				"x": -2.7964529849,
				"y": 0.3738936463,
				"z": -1.192129047,
				"element": "C" 
			},
			{
				"x": -3.2816398823,
				"y": -0.5041534232,
				"z": -0.4977567736,
				"element": "O" 
			},
			{
				"x": -1.5029262024,
				"y": 0.8742224526,
				"z": -1.0471704872,
				"element": "N" 
			},
			{
				"x": -0.5129357988,
				"y": 0.4576879027,
				"z": -0.1508535,
				"element": "C" 
			},
			{
				"x": 0.7001102018,
				"y": 1.1752364532,
				"z": -0.1539969521,
				"element": "C" 
			},
			{
				"x": 1.7379452402,
				"y": 0.8199850943,
				"z": 0.6927449835,
				"element": "C" 
			},
			{
				"x": 1.5653803743,
				"y": -0.2651147178,
				"z": 1.5522174924,
				"element": "C" 
			},
			{
				"x": 0.3734248811,
				"y": -0.9884173946,
				"z": 1.5722834967,
				"element": "C" 
			},
			{
				"x": -0.6693223991,
				"y": -0.6333425403,
				"z": 0.7255382796,
				"element": "C" 
			},
			{
				"x": 2.6563816164,
				"y": -0.647151391,
				"z": 2.4474837483,
				"element": "N" 
			},
			{
				"x": 2.4761019266,
				"y": -1.6098815087,
				"z": 3.1950531643,
				"element": "O" 
			},
			{
				"x": 3.6946399519,
				"y": 0.0166033849,
				"z": 2.401787896,
				"element": "O" 
			},
			{
				"x": -3.0161412027,
				"y": 1.3656407695,
				"z": -3.0035683962,
				"element": "H" 
			},
			{
				"x": -4.3884836887,
				"y": 0.5672231433,
				"z": -2.3955398806,
				"element": "H" 
			},
			{
				"x": -1.2821320878,
				"y": 1.7097883997,
				"z": -1.5699812583,
				"element": "H" 
			},
			{
				"x": 0.8259108239,
				"y": 2.0179244598,
				"z": -0.8293911689,
				"element": "H" 
			},
			{
				"x": 2.6744129433,
				"y": 1.363197914,
				"z": 0.7006479397,
				"element": "H" 
			},
			{
				"x": 0.2741569765,
				"y": -1.8233861215,
				"z": 2.2547450094,
				"element": "H" 
			},
			{
				"x": -1.6032312961,
				"y": -1.1759472876,
				"z": 0.7355575061,
				"element": "H" 
			}
		],
		 "valence_orbital": [ 
			{
				"type": "occ",
				"energy": -0.29739,
				"method": "rhf"
			},
			{
				"type": "occ",
				"energy": -0.28084,
				"method": "rhf"
			},
			{
				"type": "occ",
				"energy": -0.2801,
				"method": "rhf"
			},
			{
				"type": "occ",
				"energy": -0.2751,
				"method": "rhf"
			},
			{
				"type": "occ",
				"energy": -0.24298,
				"method": "rhf"
			},
			{
				"type": "unocc",
				"energy": -0.07964,
				"method": "rhf"
			},
			{
				"type": "unocc",
				"energy": -0.02366,
				"method": "rhf"
			},
			{
				"type": "unocc",
				"energy": 0.00042,
				"method": "rhf"
			},
			{
				"type": "unocc",
				"energy": 0.03633,
				"method": "rhf"
			},
			{
				"type": "unocc",
				"energy": 0.04752,
				"method": "rhf"
			}
		],
		"cosmo_sigma_profile": { 
			"-0.025": 0.0,
			"-0.024": 0.0,
			"-0.023": 0.0,
			"-0.022": 0.0,
			"-0.021": 0.0,
			"-0.02": 0.0,
			"-0.019": 0.0,
			"-0.018": 0.0885356907136,
			"-0.017": 1.42888314553,
			"-0.016": 1.86095263679,
			"-0.015": 2.86402190317,
			"-0.014": 2.8060756817,
			"-0.013": 2.95977195501,
			"-0.012": 4.1844643552,
			"-0.011": 2.83130890455,
			"-0.01": 3.39633084,
			"-0.009": 2.70551426111,
			"-0.008": 3.4541268234,
			"-0.007": 6.52388669811,
			"-0.006": 6.66006611096,
			"-0.005": 7.8822418588,
			"-0.004": 7.13316420111,
			"-0.003": 8.54075304778,
			"-0.002": 9.96666715243,
			"-0.001": 12.5914534006,
			"0.0": 15.1260569656,
			"0.001": 18.0947231405,
			"0.002": 16.8791344415,
			"0.003": 9.27904516297,
			"0.004": 4.91376624264,
			"0.005": 5.11141601532,
			"0.006": 4.98770415667,
			"0.007": 6.79847752835,
			"0.008": 12.1202496552,
			"0.009": 6.74510980861,
			"0.01": 6.92863517004,
			"0.011": 3.52503952697,
			"0.012": 2.46213048877,
			"0.013": 3.41525378145,
			"0.014": 0.684667147251,
			"0.015": 0.0,
			"0.016": 0.0,
			"0.017": 0.0,
			"0.018": 0.0,
			"0.019": 0.0,
			"0.02": 0.0,
			"0.021": 0.0,
			"0.022": 0.0,
			"0.023": 0.0,
			"0.024": 0.0,
			"0.025": 0.0
		}
	}
}
