{
	 "smiles": "COC1=CC=C(C=C1)C1(C)NC(=O)N(NC(=O)CCl)C1=O", 
	 "Tm": 398.15, 
	 "num_atms": 35, 
	 "gaussian": { 
		 "optdone": 1, 
		 "sigma_profile": "yes", 
		 "theory": "DFT", 
		 "functional": "B3LYP", 
		 "basiset": "6-31G**", 
		 "properties": { 
			 "R2extent": 8537.9859, 
			 "electric_dipole_moment_norm": 6.38790427997, 
			 "electric_quadrupole_moment_norm": 15.9503600897, 
			 "total_energy": -1429.16426968, 
			 "HOMO_LUMO_gap": 0.19857, 
			 "cosmo_polarized_energy": -22.6, 
			 "cosmo_cavitation_energy": 41.13, 
			 "cosmo_dispersion_energy": -28.13, 
			 "cosmo_repulsion_energy": 2.15, 
			 "cosmo_total_nonelectrostatic_energy": 15.15, 
			 "SMD_solvation_energy": 10.18 
		},
		"coords": [
			{
				"x": 3.8017340924,
				"y": -2.2134559612,
				"z": -4.1041415344,
				"element": "C" 
			},
			{
				"x": 3.4894658778,
				"y": -2.6945887351,
				"z": -2.8052328909,
				"element": "O" 
			},
			{
				"x": 2.6872281157,
				"y": -1.9339140252,
				"z": -2.0093315251,
				"element": "C" 
			},
			{
				"x": 2.1445886493,
				"y": -0.694736118,
				"z": -2.3725919166,
				"element": "C" 
			},
			{
				"x": 1.3397125269,
				"y": 0.0010604367,
				"z": -1.4696434572,
				"element": "C" 
			},
			{
				"x": 1.0556850044,
				"y": -0.5141143616,
				"z": -0.1997917996,
				"element": "C" 
			},
			{
				"x": 1.5919139406,
				"y": -1.7634629066,
				"z": 0.1428791018,
				"element": "C" 
			},
			{
				"x": 2.401005968,
				"y": -2.4638036731,
				"z": -0.7437332513,
				"element": "C" 
			},
			{
				"x": 0.1823636727,
				"y": 0.2850697866,
				"z": 0.7755250168,
				"element": "C" 
			},
			{
				"x": 0.7736969892,
				"y": 1.6789603196,
				"z": 1.0727625689,
				"element": "C" 
			},
			{
				"x": -0.096456075,
				"y": -0.4431068349,
				"z": 2.0147320037,
				"element": "N" 
			},
			{
				"x": -1.4225019711,
				"y": -0.6397665533,
				"z": 2.2741530108,
				"element": "C" 
			},
			{
				"x": -1.9611430017,
				"y": -1.1549196614,
				"z": 3.2252944113,
				"element": "O" 
			},
			{
				"x": -2.101364053,
				"y": -0.1262455075,
				"z": 1.1221422408,
				"element": "N" 
			},
			{
				"x": -3.4609150631,
				"y": -0.2223927532,
				"z": 0.9794743194,
				"element": "N" 
			},
			{
				"x": -4.3662419084,
				"y": 0.8081473518,
				"z": 1.1464718155,
				"element": "C" 
			},
			{
				"x": -5.5604028245,
				"y": 0.5880708851,
				"z": 1.0830506685,
				"element": "O" 
			},
			{
				"x": -3.8177613254,
				"y": 2.2233399372,
				"z": 1.2946155861,
				"element": "C" 
			},
			{
				"x": -2.9472595368,
				"y": 2.4965336147,
				"z": 2.8629726501,
				"element": "Cl" 
			},
			{
				"x": -1.243900111,
				"y": 0.451845283,
				"z": 0.1990942659,
				"element": "C" 
			},
			{
				"x": -1.5612917363,
				"y": 1.0247823452,
				"z": -0.8214276049,
				"element": "O" 
			},
			{
				"x": 2.9002277876,
				"y": -2.0906667343,
				"z": -4.7177377596,
				"element": "H" 
			},
			{
				"x": 4.4443962493,
				"y": -2.9690368383,
				"z": -4.5581356823,
				"element": "H" 
			},
			{
				"x": 4.3411783335,
				"y": -1.2585576368,
				"z": -4.0631206604,
				"element": "H" 
			},
			{
				"x": 2.3353103149,
				"y": -0.2653164509,
				"z": -3.3487752972,
				"element": "H" 
			},
			{
				"x": 0.9050425,
				"y": 0.9455359784,
				"z": -1.7784483791,
				"element": "H" 
			},
			{
				"x": 1.3681189536,
				"y": -2.201906286,
				"z": 1.1093337439,
				"element": "H" 
			},
			{
				"x": 2.8191478457,
				"y": -3.4291911914,
				"z": -0.4784320857,
				"element": "H" 
			},
			{
				"x": 0.1320388537,
				"y": 2.2270433376,
				"z": 1.768780553,
				"element": "H" 
			},
			{
				"x": 1.7695336942,
				"y": 1.5706106001,
				"z": 1.512902411,
				"element": "H" 
			},
			{
				"x": 0.8662490023,
				"y": 2.2571309229,
				"z": 0.1515079646,
				"element": "H" 
			},
			{
				"x": 0.577825608,
				"y": -0.5588804111,
				"z": 2.7560122535,
				"element": "H" 
			},
			{
				"x": -3.8482809813,
				"y": -1.1559470863,
				"z": 0.9166512754,
				"element": "H" 
			},
			{
				"x": -4.6728459629,
				"y": 2.89506794,
				"z": 1.2821547957,
				"element": "H" 
			},
			{
				"x": -3.1251994295,
				"y": 2.4621109874,
				"z": 0.4862331878,
				"element": "H" 
			}
		],
		 "valence_orbital": [ 
			{
				"type": "occ",
				"energy": -0.28295,
				"method": "rhf"
			},
			{
				"type": "occ",
				"energy": -0.27454,
				"method": "rhf"
			},
			{
				"type": "occ",
				"energy": -0.26504,
				"method": "rhf"
			},
			{
				"type": "occ",
				"energy": -0.26285,
				"method": "rhf"
			},
			{
				"type": "occ",
				"energy": -0.22883,
				"method": "rhf"
			},
			{
				"type": "unocc",
				"energy": -0.03026,
				"method": "rhf"
			},
			{
				"type": "unocc",
				"energy": -0.02769,
				"method": "rhf"
			},
			{
				"type": "unocc",
				"energy": -0.01434,
				"method": "rhf"
			},
			{
				"type": "unocc",
				"energy": 0.00195,
				"method": "rhf"
			},
			{
				"type": "unocc",
				"energy": 0.03944,
				"method": "rhf"
			}
		],
		"cosmo_sigma_profile": { 
			"-0.025": 0.0,
			"-0.024": 0.0,
			"-0.023": 0.0,
			"-0.022": 0.0,
			"-0.021": 0.0,
			"-0.02": 0.0,
			"-0.019": 0.0,
			"-0.018": 0.0,
			"-0.017": 0.464105939811,
			"-0.016": 1.71011278404,
			"-0.015": 2.23597911973,
			"-0.014": 2.21882371648,
			"-0.013": 2.24650490312,
			"-0.012": 2.04869479043,
			"-0.011": 2.08046069695,
			"-0.01": 1.8636456717,
			"-0.009": 3.59939769756,
			"-0.008": 4.11229952424,
			"-0.007": 7.10286303658,
			"-0.006": 19.7965255044,
			"-0.005": 25.4202547437,
			"-0.004": 21.9813617109,
			"-0.003": 25.4825399188,
			"-0.002": 23.7545142274,
			"-0.001": 21.7798391836,
			"0.0": 17.5676076442,
			"0.001": 16.3076458822,
			"0.002": 15.0770555741,
			"0.003": 16.9775842364,
			"0.004": 19.5612494062,
			"0.005": 20.9741118873,
			"0.006": 7.3021234726,
			"0.007": 4.94388218461,
			"0.008": 6.61866375674,
			"0.009": 5.51138329884,
			"0.01": 8.74260100571,
			"0.011": 10.5807786062,
			"0.012": 9.52818631044,
			"0.013": 0.975134965884,
			"0.014": 0.0,
			"0.015": 0.0,
			"0.016": 0.0,
			"0.017": 0.0,
			"0.018": 0.0,
			"0.019": 0.0,
			"0.02": 0.0,
			"0.021": 0.0,
			"0.022": 0.0,
			"0.023": 0.0,
			"0.024": 0.0,
			"0.025": 0.0
		}
	}
}
