{
	 "smiles": "CC(C)=CCCC(C)=CC=CC(C)=CC=CC(C)=C/C=C/C=C(C)/C=C/C=C(C)/C=C/C1C(C)=CCCC1(C)C", 
	 "Tm": 413.15, 
	 "num_atms": 96, 
	 "gaussian": { 
		 "optdone": 1, 
		 "sigma_profile": "yes", 
		 "theory": "DFT", 
		 "functional": "B3LYP", 
		 "basiset": "6-31G**", 
		 "properties": { 
			 "R2extent": 58474.2349, 
			 "electric_dipole_moment_norm": 1.41263408213, 
			 "electric_quadrupole_moment_norm": 5.36827023724, 
			 "total_energy": -1557.87787877, 
			 "HOMO_LUMO_gap": 0.09087, 
			 "cosmo_polarized_energy": -10.33, 
			 "cosmo_cavitation_energy": 95.22, 
			 "cosmo_dispersion_energy": -60.71, 
			 "cosmo_repulsion_energy": 4.67, 
			 "cosmo_total_nonelectrostatic_energy": 39.18, 
			 "SMD_solvation_energy": 15.88 
		},
		"coords": [
			{
				"x": 7.9157871238,
				"y": 3.5261185494,
				"z": 1.2352747745,
				"element": "C" 
			},
			{
				"x": 7.5495440668,
				"y": 3.8188039844,
				"z": -0.2010085201,
				"element": "C" 
			},
			{
				"x": 7.0878893751,
				"y": 2.6136226069,
				"z": -0.9836946453,
				"element": "C" 
			},
			{
				"x": 7.6534231313,
				"y": 5.0633857068,
				"z": -0.6948276373,
				"element": "C" 
			},
			{
				"x": 7.3743344449,
				"y": 5.5499073098,
				"z": -2.0909943109,
				"element": "C" 
			},
			{
				"x": 6.3858125689,
				"y": 6.747278677,
				"z": -2.1818136098,
				"element": "C" 
			},
			{
				"x": 4.9505044229,
				"y": 6.41291322,
				"z": -1.8318471559,
				"element": "C" 
			},
			{
				"x": 4.606004442,
				"y": 6.3469280756,
				"z": -0.3655087082,
				"element": "C" 
			},
			{
				"x": 4.0570409213,
				"y": 6.2181776951,
				"z": -2.8318537063,
				"element": "C" 
			},
			{
				"x": 2.6484170752,
				"y": 5.8505439285,
				"z": -2.7775915387,
				"element": "C" 
			},
			{
				"x": 2.0132492903,
				"y": 5.0986363881,
				"z": -1.844286039,
				"element": "C" 
			},
			{
				"x": 0.5977258393,
				"y": 4.7263191014,
				"z": -1.8289201271,
				"element": "C" 
			},
			{
				"x": 0.0755180333,
				"y": 4.2981725175,
				"z": -0.4752906894,
				"element": "C" 
			},
			{
				"x": -0.1736793921,
				"y": 4.7478184994,
				"z": -2.9558432393,
				"element": "C" 
			},
			{
				"x": -1.5765832209,
				"y": 4.4550470306,
				"z": -3.0563023744,
				"element": "C" 
			},
			{
				"x": -2.257209533,
				"y": 4.4837961923,
				"z": -4.2327144569,
				"element": "C" 
			},
			{
				"x": -3.6901621034,
				"y": 4.3099749715,
				"z": -4.4586165472,
				"element": "C" 
			},
			{
				"x": -4.1980382505,
				"y": 5.0701347345,
				"z": -5.6703649485,
				"element": "C" 
			},
			{
				"x": -4.5945214303,
				"y": 3.5997154688,
				"z": -3.7187400885,
				"element": "C" 
			},
			{
				"x": -4.4619179962,
				"y": 2.6529056204,
				"z": -2.6252755205,
				"element": "C" 
			},
			{
				"x": -3.4074811309,
				"y": 1.8369857012,
				"z": -2.3401816179,
				"element": "C" 
			},
			{
				"x": -3.2958305999,
				"y": 0.8474552079,
				"z": -1.2948583163,
				"element": "C" 
			},
			{
				"x": -3.9519908111,
				"y": 0.7461030574,
				"z": -0.0963915863,
				"element": "C" 
			},
			{
				"x": -4.903289808,
				"y": 1.8000788012,
				"z": 0.4219946799,
				"element": "C" 
			},
			{
				"x": -3.7206321151,
				"y": -0.3888839579,
				"z": 0.7902497086,
				"element": "C" 
			},
			{
				"x": -3.3391929962,
				"y": -1.6394437204,
				"z": 0.4097043482,
				"element": "C" 
			},
			{
				"x": -3.0601129526,
				"y": -2.7874750797,
				"z": 1.2473974633,
				"element": "C" 
			},
			{
				"x": -2.6451918601,
				"y": -2.8432209841,
				"z": 2.5456124248,
				"element": "C" 
			},
			{
				"x": -2.2654111045,
				"y": -1.6283779388,
				"z": 3.3587011516,
				"element": "C" 
			},
			{
				"x": -2.4908744995,
				"y": -4.1347956191,
				"z": 3.2298420189,
				"element": "C" 
			},
			{
				"x": -3.2112491592,
				"y": -5.2506144162,
				"z": 3.0149338077,
				"element": "C" 
			},
			{
				"x": -2.9908594954,
				"y": -6.566736461,
				"z": 3.7248230902,
				"element": "C" 
			},
			{
				"x": -4.2654930612,
				"y": -7.0397909519,
				"z": 4.4360914955,
				"element": "C" 
			},
			{
				"x": -5.0798137048,
				"y": -5.9792252803,
				"z": 5.1371968962,
				"element": "C" 
			},
			{
				"x": -4.6179239869,
				"y": -8.3316361324,
				"z": 4.4933453866,
				"element": "C" 
			},
			{
				"x": -3.8242089243,
				"y": -9.4600162005,
				"z": 3.8938659585,
				"element": "C" 
			},
			{
				"x": -2.405902477,
				"y": -9.0124406615,
				"z": 3.5258610756,
				"element": "C" 
			},
			{
				"x": -2.3763259338,
				"y": -7.661661843,
				"z": 2.7773734478,
				"element": "C" 
			},
			{
				"x": -3.1648844582,
				"y": -7.7741892969,
				"z": 1.4557514859,
				"element": "C" 
			},
			{
				"x": -0.9145202875,
				"y": -7.3042323418,
				"z": 2.456995914,
				"element": "C" 
			},
			{
				"x": 7.0636708708,
				"y": 3.1012194423,
				"z": 1.7826851829,
				"element": "H" 
			},
			{
				"x": 8.7214967229,
				"y": 2.7819560983,
				"z": 1.2934878409,
				"element": "H" 
			},
			{
				"x": 8.2459313326,
				"y": 4.4241855571,
				"z": 1.7647818572,
				"element": "H" 
			},
			{
				"x": 6.7857983825,
				"y": 2.8496485196,
				"z": -2.0052771011,
				"element": "H" 
			},
			{
				"x": 6.236820071,
				"y": 2.1323071431,
				"z": -0.4844200374,
				"element": "H" 
			},
			{
				"x": 7.883145654,
				"y": 1.8579413158,
				"z": -1.0338827467,
				"element": "H" 
			},
			{
				"x": 8.0077069617,
				"y": 5.839113572,
				"z": -0.0127290968,
				"element": "H" 
			},
			{
				"x": 8.3230646134,
				"y": 5.8870345725,
				"z": -2.5355528533,
				"element": "H" 
			},
			{
				"x": 7.004488335,
				"y": 4.7435093645,
				"z": -2.7311306924,
				"element": "H" 
			},
			{
				"x": 6.7504228482,
				"y": 7.5505229778,
				"z": -1.5258563625,
				"element": "H" 
			},
			{
				"x": 6.4288734588,
				"y": 7.1329711249,
				"z": -3.2068104866,
				"element": "H" 
			},
			{
				"x": 5.1868436549,
				"y": 7.0866776373,
				"z": 0.1970149142,
				"element": "H" 
			},
			{
				"x": 3.5431218557,
				"y": 6.5351543043,
				"z": -0.1916121748,
				"element": "H" 
			},
			{
				"x": 4.8524089191,
				"y": 5.3695841147,
				"z": 0.0674641765,
				"element": "H" 
			},
			{
				"x": 4.422778771,
				"y": 6.3982825884,
				"z": -3.843988215,
				"element": "H" 
			},
			{
				"x": 2.0601687217,
				"y": 6.2121118223,
				"z": -3.6212261602,
				"element": "H" 
			},
			{
				"x": 2.594262365,
				"y": 4.7186065571,
				"z": -1.0071098886,
				"element": "H" 
			},
			{
				"x": -0.9293835298,
				"y": 3.8766764912,
				"z": -0.5123315428,
				"element": "H" 
			},
			{
				"x": 0.0651074472,
				"y": 5.1426588793,
				"z": 0.2257911649,
				"element": "H" 
			},
			{
				"x": 0.7356691445,
				"y": 3.5383701996,
				"z": -0.0391187761,
				"element": "H" 
			},
			{
				"x": 0.315055901,
				"y": 5.0027970514,
				"z": -3.8953304925,
				"element": "H" 
			},
			{
				"x": -2.1212066219,
				"y": 4.2145049178,
				"z": -2.1491438182,
				"element": "H" 
			},
			{
				"x": -1.6923179179,
				"y": 4.7780697215,
				"z": -5.1196169763,
				"element": "H" 
			},
			{
				"x": -5.2732270805,
				"y": 4.9394013222,
				"z": -5.8149676663,
				"element": "H" 
			},
			{
				"x": -3.9901252741,
				"y": 6.1442222189,
				"z": -5.5859184549,
				"element": "H" 
			},
			{
				"x": -3.6921879889,
				"y": 4.7249830598,
				"z": -6.5818403561,
				"element": "H" 
			},
			{
				"x": -5.6336135529,
				"y": 3.7473974006,
				"z": -4.0145599511,
				"element": "H" 
			},
			{
				"x": -5.3778798645,
				"y": 2.5151935921,
				"z": -2.0559569207,
				"element": "H" 
			},
			{
				"x": -2.5459866416,
				"y": 1.8925939247,
				"z": -3.0024986553,
				"element": "H" 
			},
			{
				"x": -2.5266597976,
				"y": 0.0991155586,
				"z": -1.4772977221,
				"element": "H" 
			},
			{
				"x": -4.88071285,
				"y": 1.8329737901,
				"z": 1.5167951828,
				"element": "H" 
			},
			{
				"x": -4.6579402604,
				"y": 2.794703988,
				"z": 0.0386588185,
				"element": "H" 
			},
			{
				"x": -5.9420984031,
				"y": 1.5870169767,
				"z": 0.1367696983,
				"element": "H" 
			},
			{
				"x": -3.9426758914,
				"y": -0.2124455047,
				"z": 1.8403591328,
				"element": "H" 
			},
			{
				"x": -3.2815015185,
				"y": -1.836156574,
				"z": -0.6605249254,
				"element": "H" 
			},
			{
				"x": -3.1585802496,
				"y": -3.7450431052,
				"z": 0.7382373013,
				"element": "H" 
			},
			{
				"x": -3.1019578116,
				"y": -1.2738583596,
				"z": 3.9757178899,
				"element": "H" 
			},
			{
				"x": -1.4506876153,
				"y": -1.8714798262,
				"z": 4.0502964172,
				"element": "H" 
			},
			{
				"x": -1.9486207168,
				"y": -0.796314332,
				"z": 2.7243513322,
				"element": "H" 
			},
			{
				"x": -1.732175233,
				"y": -4.1623022897,
				"z": 4.0147740419,
				"element": "H" 
			},
			{
				"x": -4.0256315761,
				"y": -5.2188639795,
				"z": 2.2923921493,
				"element": "H" 
			},
			{
				"x": -2.2413982662,
				"y": -6.3791189967,
				"z": 4.51122785,
				"element": "H" 
			},
			{
				"x": -4.4617905842,
				"y": -5.417153448,
				"z": 5.8499400858,
				"element": "H" 
			},
			{
				"x": -5.4845528484,
				"y": -5.2395228393,
				"z": 4.436961592,
				"element": "H" 
			},
			{
				"x": -5.9146172645,
				"y": -6.4218892707,
				"z": 5.6880090036,
				"element": "H" 
			},
			{
				"x": -5.5311892496,
				"y": -8.6002562221,
				"z": 5.0240906439,
				"element": "H" 
			},
			{
				"x": -4.3452437642,
				"y": -9.8605765846,
				"z": 3.0111439099,
				"element": "H" 
			},
			{
				"x": -3.7788661466,
				"y": -10.2960014479,
				"z": 4.6046249644,
				"element": "H" 
			},
			{
				"x": -1.813533872,
				"y": -8.9139362159,
				"z": 4.4455469485,
				"element": "H" 
			},
			{
				"x": -1.9110148969,
				"y": -9.7783831075,
				"z": 2.9151557095,
				"element": "H" 
			},
			{
				"x": -2.8111690946,
				"y": -8.6344249008,
				"z": 0.8759626558,
				"element": "H" 
			},
			{
				"x": -4.2381402276,
				"y": -7.9005612399,
				"z": 1.6268206919,
				"element": "H" 
			},
			{
				"x": -3.0283092588,
				"y": -6.8836289179,
				"z": 0.8346756521,
				"element": "H" 
			},
			{
				"x": -0.3030904311,
				"y": -7.282656604,
				"z": 3.3668861552,
				"element": "H" 
			},
			{
				"x": -0.4761721392,
				"y": -8.0460972935,
				"z": 1.7796768176,
				"element": "H" 
			},
			{
				"x": -0.8384270337,
				"y": -6.3234169051,
				"z": 1.9781125484,
				"element": "H" 
			}
		],
		 "valence_orbital": [ 
			{
				"type": "occ",
				"energy": -0.22894,
				"method": "rhf"
			},
			{
				"type": "occ",
				"energy": -0.22645,
				"method": "rhf"
			},
			{
				"type": "occ",
				"energy": -0.21408,
				"method": "rhf"
			},
			{
				"type": "occ",
				"energy": -0.19081,
				"method": "rhf"
			},
			{
				"type": "occ",
				"energy": -0.16567,
				"method": "rhf"
			},
			{
				"type": "unocc",
				"energy": -0.0748,
				"method": "rhf"
			},
			{
				"type": "unocc",
				"energy": -0.04803,
				"method": "rhf"
			},
			{
				"type": "unocc",
				"energy": -0.01761,
				"method": "rhf"
			},
			{
				"type": "unocc",
				"energy": 0.01156,
				"method": "rhf"
			},
			{
				"type": "unocc",
				"energy": 0.02903,
				"method": "rhf"
			}
		],
		"cosmo_sigma_profile": { 
			"-0.025": 0.0,
			"-0.024": 0.0,
			"-0.023": 0.0,
			"-0.022": 0.0,
			"-0.021": 0.0,
			"-0.02": 0.0,
			"-0.019": 0.0,
			"-0.018": 0.0,
			"-0.017": 0.0,
			"-0.016": 0.0,
			"-0.015": 0.0,
			"-0.014": 0.0,
			"-0.013": 0.0,
			"-0.012": 0.0,
			"-0.011": 0.0,
			"-0.01": 0.0,
			"-0.009": 0.0,
			"-0.008": 0.0,
			"-0.007": 0.0,
			"-0.006": 0.377990934082,
			"-0.005": 7.86662690087,
			"-0.004": 49.608211814,
			"-0.003": 84.1289653727,
			"-0.002": 106.931142099,
			"-0.001": 104.444467789,
			"0.0": 103.676767359,
			"0.001": 94.6368054572,
			"0.002": 59.4072635178,
			"0.003": 36.3917262397,
			"0.004": 31.9298659395,
			"0.005": 34.8243093591,
			"0.006": 25.8588688658,
			"0.007": 3.57836656635,
			"0.008": 0.013343940572,
			"0.009": 0.0,
			"0.01": 0.0,
			"0.011": 0.0,
			"0.012": 0.0,
			"0.013": 0.0,
			"0.014": 0.0,
			"0.015": 0.0,
			"0.016": 0.0,
			"0.017": 0.0,
			"0.018": 0.0,
			"0.019": 0.0,
			"0.02": 0.0,
			"0.021": 0.0,
			"0.022": 0.0,
			"0.023": 0.0,
			"0.024": 0.0,
			"0.025": 0.0
		}
	}
}
