{
	 "smiles": "[O-][N+](=O)C1=CC(N2C=NN=N2)=C(F)C=C1", 
	 "Tm": 375.15, 
	 "num_atms": 19, 
	 "gaussian": { 
		 "optdone": 1, 
		 "sigma_profile": "yes", 
		 "theory": "DFT", 
		 "functional": "B3LYP", 
		 "basiset": "6-31G**", 
		 "properties": { 
			 "R2extent": 3510.1297, 
			 "electric_dipole_moment_norm": 6.07543004733, 
			 "electric_quadrupole_moment_norm": 17.9278639135, 
			 "total_energy": -793.022550241, 
			 "HOMO_LUMO_gap": 0.17863, 
			 "cosmo_polarized_energy": -16.6, 
			 "cosmo_cavitation_energy": 25.87, 
			 "cosmo_dispersion_energy": -19.07, 
			 "cosmo_repulsion_energy": 1.42, 
			 "cosmo_total_nonelectrostatic_energy": 8.22, 
			 "SMD_solvation_energy": 5.92 
		},
		"coords": [
			{
				"x": -1.2831412949,
				"y": -2.5866501472,
				"z": 1.1035343672,
				"element": "O" 
			},
			{
				"x": -1.949129683,
				"y": -1.5887257839,
				"z": 1.3651010556,
				"element": "N" 
			},
			{
				"x": -2.9192116183,
				"y": -1.5602961142,
				"z": 2.1198596904,
				"element": "O" 
			},
			{
				"x": -1.5564806863,
				"y": -0.3194650191,
				"z": 0.7245991953,
				"element": "C" 
			},
			{
				"x": -0.4633174697,
				"y": -0.3228692209,
				"z": -0.1330387257,
				"element": "C" 
			},
			{
				"x": -0.0822107539,
				"y": 0.8737517918,
				"z": -0.7454464145,
				"element": "C" 
			},
			{
				"x": 1.0298264248,
				"y": 0.8896476136,
				"z": -1.622871537,
				"element": "N" 
			},
			{
				"x": 1.6229754057,
				"y": 1.8771332473,
				"z": -2.3469915697,
				"element": "C" 
			},
			{
				"x": 2.6359218371,
				"y": 1.3707246059,
				"z": -3.0101840307,
				"element": "N" 
			},
			{
				"x": 2.6682828698,
				"y": 0.0449124412,
				"z": -2.6875077197,
				"element": "N" 
			},
			{
				"x": 1.726198584,
				"y": -0.2619412828,
				"z": -1.8689697222,
				"element": "N" 
			},
			{
				"x": -0.8225007433,
				"y": 2.0309089992,
				"z": -0.4668978753,
				"element": "C" 
			},
			{
				"x": -0.4761173071,
				"y": 3.197193063,
				"z": -1.0441430142,
				"element": "F" 
			},
			{
				"x": -1.9138970444,
				"y": 2.019600927,
				"z": 0.3931551252,
				"element": "C" 
			},
			{
				"x": -2.2938560706,
				"y": 0.8297796885,
				"z": 1.0029443481,
				"element": "C" 
			},
			{
				"x": 0.0838566655,
				"y": -1.2358953666,
				"z": -0.3238223468,
				"element": "H" 
			},
			{
				"x": 1.2987270811,
				"y": 2.9026584944,
				"z": -2.3608502926,
				"element": "H" 
			},
			{
				"x": -2.4465081449,
				"y": 2.9472124103,
				"z": 0.5686452442,
				"element": "H" 
			},
			{
				"x": -3.1372180517,
				"y": 0.7774196525,
				"z": 1.6789842225,
				"element": "H" 
			}
		],
		 "valence_orbital": [ 
			{
				"type": "occ",
				"energy": -0.31588,
				"method": "rhf"
			},
			{
				"type": "occ",
				"energy": -0.31041,
				"method": "rhf"
			},
			{
				"type": "occ",
				"energy": -0.3078,
				"method": "rhf"
			},
			{
				"type": "occ",
				"energy": -0.30244,
				"method": "rhf"
			},
			{
				"type": "occ",
				"energy": -0.28814,
				"method": "rhf"
			},
			{
				"type": "unocc",
				"energy": -0.10951,
				"method": "rhf"
			},
			{
				"type": "unocc",
				"energy": -0.08051,
				"method": "rhf"
			},
			{
				"type": "unocc",
				"energy": -0.03348,
				"method": "rhf"
			},
			{
				"type": "unocc",
				"energy": -0.00761,
				"method": "rhf"
			},
			{
				"type": "unocc",
				"energy": 0.01036,
				"method": "rhf"
			}
		],
		"cosmo_sigma_profile": { 
			"-0.025": 0.0,
			"-0.024": 0.0,
			"-0.023": 0.0,
			"-0.022": 0.0,
			"-0.021": 0.0,
			"-0.02": 0.0,
			"-0.019": 0.0,
			"-0.018": 0.0,
			"-0.017": 0.0,
			"-0.016": 0.0,
			"-0.015": 0.0,
			"-0.014": 0.0,
			"-0.013": 0.113434164339,
			"-0.012": 0.930586032475,
			"-0.011": 0.899722387773,
			"-0.01": 2.28107218729,
			"-0.009": 5.32120709969,
			"-0.008": 7.93422061762,
			"-0.007": 8.59199580623,
			"-0.006": 11.4803151256,
			"-0.005": 12.8547408137,
			"-0.004": 16.5897230122,
			"-0.003": 21.7875954048,
			"-0.002": 16.0926517868,
			"-0.001": 12.8796941977,
			"0.0": 8.77470910342,
			"0.001": 6.51008365806,
			"0.002": 8.70062486232,
			"0.003": 5.27750297914,
			"0.004": 5.31354667329,
			"0.005": 6.44038129034,
			"0.006": 9.39796636683,
			"0.007": 14.0591189518,
			"0.008": 9.13208428318,
			"0.009": 7.28799329595,
			"0.01": 4.0901008337,
			"0.011": 2.95989689115,
			"0.012": 2.2360091501,
			"0.013": 1.72551955782,
			"0.014": 1.03283140391,
			"0.015": 0.0121229787814,
			"0.016": 0.0,
			"0.017": 0.0,
			"0.018": 0.0,
			"0.019": 0.0,
			"0.02": 0.0,
			"0.021": 0.0,
			"0.022": 0.0,
			"0.023": 0.0,
			"0.024": 0.0,
			"0.025": 0.0
		}
	}
}
