{
	 "smiles": "CC(C)(C)OC(=O)N1CCC2=NNC(=O)C=C2C1", 
	 "Tm": 461.15, 
	 "num_atms": 35, 
	 "gaussian": { 
		 "optdone": 1, 
		 "sigma_profile": "yes", 
		 "theory": "DFT", 
		 "functional": "B3LYP", 
		 "basiset": "6-31G**", 
		 "properties": { 
			 "R2extent": 7039.2034, 
			 "electric_dipole_moment_norm": 2.54145138651, 
			 "electric_quadrupole_moment_norm": 30.1225508717, 
			 "total_energy": -857.468129787, 
			 "HOMO_LUMO_gap": 0.16723, 
			 "cosmo_polarized_energy": -16.74, 
			 "cosmo_cavitation_energy": 37.05, 
			 "cosmo_dispersion_energy": -26.37, 
			 "cosmo_repulsion_energy": 2.05, 
			 "cosmo_total_nonelectrostatic_energy": 12.74, 
			 "SMD_solvation_energy": 6.53 
		},
		"coords": [
			{
				"x": -0.1661099034,
				"y": -0.5570438725,
				"z": 4.0683201891,
				"element": "C" 
			},
			{
				"x": 0.7059690556,
				"y": -0.9679475337,
				"z": 2.879158241,
				"element": "C" 
			},
			{
				"x": 2.1616288915,
				"y": -0.5446372993,
				"z": 3.1000264582,
				"element": "C" 
			},
			{
				"x": 0.5705313415,
				"y": -2.4678710053,
				"z": 2.597961717,
				"element": "C" 
			},
			{
				"x": 0.1165139667,
				"y": -0.1937621032,
				"z": 1.7709579564,
				"element": "O" 
			},
			{
				"x": 0.6273417628,
				"y": -0.2717983455,
				"z": 0.5197952974,
				"element": "C" 
			},
			{
				"x": 1.5651481109,
				"y": -0.9759480033,
				"z": 0.1749425597,
				"element": "O" 
			},
			{
				"x": -0.0516006629,
				"y": 0.5592114468,
				"z": -0.3409450691,
				"element": "N" 
			},
			{
				"x": 0.3042412137,
				"y": 0.5746508502,
				"z": -1.7557715611,
				"element": "C" 
			},
			{
				"x": 0.7450288707,
				"y": 1.9855732438,
				"z": -2.1559682993,
				"element": "C" 
			},
			{
				"x": -0.2699201729,
				"y": 3.0170681705,
				"z": -1.7159819042,
				"element": "C" 
			},
			{
				"x": -0.2754164125,
				"y": 4.1620957833,
				"z": -2.3492716834,
				"element": "N" 
			},
			{
				"x": -1.1516386539,
				"y": 5.0891608877,
				"z": -1.9380671106,
				"element": "N" 
			},
			{
				"x": -2.0860148985,
				"y": 5.0075340222,
				"z": -0.8953505102,
				"element": "C" 
			},
			{
				"x": -2.8189150287,
				"y": 5.9545962178,
				"z": -0.6324977883,
				"element": "O" 
			},
			{
				"x": -2.0502304734,
				"y": 3.7131946068,
				"z": -0.2361941488,
				"element": "C" 
			},
			{
				"x": -1.1778518055,
				"y": 2.7419544126,
				"z": -0.6262842368,
				"element": "C" 
			},
			{
				"x": -1.1956213744,
				"y": 1.3737667156,
				"z": 0.0379899571,
				"element": "C" 
			},
			{
				"x": -0.1007023951,
				"y": 0.5209449079,
				"z": 4.2431918305,
				"element": "H" 
			},
			{
				"x": -1.2135829567,
				"y": -0.81591592,
				"z": 3.8879881449,
				"element": "H" 
			},
			{
				"x": 0.1665978242,
				"y": -1.0739958715,
				"z": 4.9731363549,
				"element": "H" 
			},
			{
				"x": 2.5534723261,
				"y": -1.0366437963,
				"z": 3.9961075027,
				"element": "H" 
			},
			{
				"x": 2.782621927,
				"y": -0.8187301737,
				"z": 2.2471458459,
				"element": "H" 
			},
			{
				"x": 2.2240030476,
				"y": 0.5374678699,
				"z": 3.2534055806,
				"element": "H" 
			},
			{
				"x": -0.4758785578,
				"y": -2.7254030351,
				"z": 2.4055368467,
				"element": "H" 
			},
			{
				"x": 1.171843187,
				"y": -2.759888831,
				"z": 1.737029468,
				"element": "H" 
			},
			{
				"x": 0.9039335764,
				"y": -3.035627184,
				"z": 3.4726626151,
				"element": "H" 
			},
			{
				"x": 1.102644766,
				"y": -0.1504875716,
				"z": -1.9063634199,
				"element": "H" 
			},
			{
				"x": -0.5656095782,
				"y": 0.2614490423,
				"z": -2.3518062954,
				"element": "H" 
			},
			{
				"x": 0.8967282014,
				"y": 2.0630829431,
				"z": -3.2367212614,
				"element": "H" 
			},
			{
				"x": 1.7099346732,
				"y": 2.197804627,
				"z": -1.6778322133,
				"element": "H" 
			},
			{
				"x": -1.1298932973,
				"y": 5.9620404999,
				"z": -2.4527571749,
				"element": "H" 
			},
			{
				"x": -2.7578161762,
				"y": 3.5635524656,
				"z": 0.573823458,
				"element": "H" 
			},
			{
				"x": -1.2080992082,
				"y": 1.4854783073,
				"z": 1.1214411895,
				"element": "H" 
			},
			{
				"x": -2.1338811865,
				"y": 0.8682735258,
				"z": -0.2447085362,
				"element": "H" 
			}
		],
		 "valence_orbital": [ 
			{
				"type": "occ",
				"energy": -0.29537,
				"method": "rhf"
			},
			{
				"type": "occ",
				"energy": -0.26969,
				"method": "rhf"
			},
			{
				"type": "occ",
				"energy": -0.25427,
				"method": "rhf"
			},
			{
				"type": "occ",
				"energy": -0.24646,
				"method": "rhf"
			},
			{
				"type": "occ",
				"energy": -0.23333,
				"method": "rhf"
			},
			{
				"type": "unocc",
				"energy": -0.0661,
				"method": "rhf"
			},
			{
				"type": "unocc",
				"energy": 0.0007,
				"method": "rhf"
			},
			{
				"type": "unocc",
				"energy": 0.04503,
				"method": "rhf"
			},
			{
				"type": "unocc",
				"energy": 0.07721,
				"method": "rhf"
			},
			{
				"type": "unocc",
				"energy": 0.08981,
				"method": "rhf"
			}
		],
		"cosmo_sigma_profile": { 
			"-0.025": 0.0,
			"-0.024": 0.0,
			"-0.023": 0.0,
			"-0.022": 0.0,
			"-0.021": 0.0,
			"-0.02": 0.0,
			"-0.019": 0.0,
			"-0.018": 0.0,
			"-0.017": 0.0,
			"-0.016": 0.486668988388,
			"-0.015": 1.20426332312,
			"-0.014": 1.12602140612,
			"-0.013": 0.553988189475,
			"-0.012": 0.879305303831,
			"-0.011": 0.872734956106,
			"-0.01": 0.897889828464,
			"-0.009": 0.707246565705,
			"-0.008": 2.50424079093,
			"-0.007": 4.79678469185,
			"-0.006": 10.6870845549,
			"-0.005": 15.2832659399,
			"-0.004": 25.5458364329,
			"-0.003": 31.2252994064,
			"-0.002": 29.792008112,
			"-0.001": 32.4308475351,
			"0.0": 36.9623539675,
			"0.001": 24.1394756468,
			"0.002": 9.60948994521,
			"0.003": 7.49551822416,
			"0.004": 5.65135975503,
			"0.005": 6.16114160731,
			"0.006": 4.31537467004,
			"0.007": 4.1819418217,
			"0.008": 3.16528743572,
			"0.009": 3.34452857983,
			"0.01": 3.86186161615,
			"0.011": 3.41424658826,
			"0.012": 4.19360536712,
			"0.013": 6.75714193333,
			"0.014": 6.81029432317,
			"0.015": 1.84360771384,
			"0.016": 0.00603416558643,
			"0.017": 0.0,
			"0.018": 0.0,
			"0.019": 0.0,
			"0.02": 0.0,
			"0.021": 0.0,
			"0.022": 0.0,
			"0.023": 0.0,
			"0.024": 0.0,
			"0.025": 0.0
		}
	}
}
