{
	 "smiles": "CSC1=CNN=C1N", 
	 "Tm": 350.15, 
	 "num_atms": 15, 
	 "gaussian": { 
		 "optdone": 1, 
		 "sigma_profile": "yes", 
		 "theory": "DFT", 
		 "functional": "B3LYP", 
		 "basiset": "6-31G**", 
		 "properties": { 
			 "R2extent": 1361.621, 
			 "electric_dipole_moment_norm": 1.11795439084, 
			 "electric_quadrupole_moment_norm": 14.253911179, 
			 "total_energy": -719.063485308, 
			 "HOMO_LUMO_gap": 0.22294, 
			 "cosmo_polarized_energy": -12.41, 
			 "cosmo_cavitation_energy": 20.51, 
			 "cosmo_dispersion_energy": -15.68, 
			 "cosmo_repulsion_energy": 1.28, 
			 "cosmo_total_nonelectrostatic_energy": 6.11, 
			 "SMD_solvation_energy": 3.09 
		},
		"coords": [
			{
				"x": -0.7189107716,
				"y": 0.0437958234,
				"z": -2.5639726369,
				"element": "C" 
			},
			{
				"x": -1.5804298689,
				"y": 0.7378603903,
				"z": -1.0957030259,
				"element": "S" 
			},
			{
				"x": -0.2179839614,
				"y": 1.3145386971,
				"z": -0.138079612,
				"element": "C" 
			},
			{
				"x": 0.1996365688,
				"y": 2.6214671394,
				"z": 0.06597631,
				"element": "C" 
			},
			{
				"x": 1.246946889,
				"y": 2.5623627941,
				"z": 0.9152068498,
				"element": "N" 
			},
			{
				"x": 1.5612865949,
				"y": 1.2897649592,
				"z": 1.2994352105,
				"element": "N" 
			},
			{
				"x": 0.6739354536,
				"y": 0.5326560488,
				"z": 0.6602916888,
				"element": "C" 
			},
			{
				"x": 0.6964610128,
				"y": -0.854228608,
				"z": 0.7357030808,
				"element": "N" 
			},
			{
				"x": -1.4843439189,
				"y": -0.4281644176,
				"z": -3.1849461663,
				"element": "H" 
			},
			{
				"x": -0.2261258882,
				"y": 0.8347264978,
				"z": -3.1326758735,
				"element": "H" 
			},
			{
				"x": 0.0120549954,
				"y": -0.7057250577,
				"z": -2.2549509747,
				"element": "H" 
			},
			{
				"x": -0.1821275352,
				"y": 3.5523163344,
				"z": -0.3273700586,
				"element": "H" 
			},
			{
				"x": 1.7873735007,
				"y": 3.3256906938,
				"z": 1.2878588934,
				"element": "H" 
			},
			{
				"x": -0.2283280881,
				"y": -1.263170852,
				"z": 0.669910839,
				"element": "H" 
			},
			{
				"x": 1.2075550171,
				"y": -1.193490443,
				"z": 1.5409154757,
				"element": "H" 
			}
		],
		 "valence_orbital": [ 
			{
				"type": "occ",
				"energy": -0.32521,
				"method": "rhf"
			},
			{
				"type": "occ",
				"energy": -0.28792,
				"method": "rhf"
			},
			{
				"type": "occ",
				"energy": -0.24398,
				"method": "rhf"
			},
			{
				"type": "occ",
				"energy": -0.2226,
				"method": "rhf"
			},
			{
				"type": "occ",
				"energy": -0.20543,
				"method": "rhf"
			},
			{
				"type": "unocc",
				"energy": 0.01751,
				"method": "rhf"
			},
			{
				"type": "unocc",
				"energy": 0.04571,
				"method": "rhf"
			},
			{
				"type": "unocc",
				"energy": 0.07032,
				"method": "rhf"
			},
			{
				"type": "unocc",
				"energy": 0.08807,
				"method": "rhf"
			},
			{
				"type": "unocc",
				"energy": 0.10115,
				"method": "rhf"
			}
		],
		"cosmo_sigma_profile": { 
			"-0.025": 0.0,
			"-0.024": 0.0,
			"-0.023": 0.0,
			"-0.022": 0.0,
			"-0.021": 0.0,
			"-0.02": 0.0,
			"-0.019": 0.0,
			"-0.018": 0.0,
			"-0.017": 0.211350518525,
			"-0.016": 1.52953364742,
			"-0.015": 1.28387024598,
			"-0.014": 1.47560448201,
			"-0.013": 0.918250476791,
			"-0.012": 2.24006387699,
			"-0.011": 2.73518657892,
			"-0.01": 3.40930095477,
			"-0.009": 4.92339737144,
			"-0.008": 4.4249158066,
			"-0.007": 4.02532297028,
			"-0.006": 5.06774537308,
			"-0.005": 7.34193465315,
			"-0.004": 7.54798328066,
			"-0.003": 8.21420025663,
			"-0.002": 10.5664354833,
			"-0.001": 12.8954139236,
			"0.0": 8.00618767203,
			"0.001": 7.27683345019,
			"0.002": 10.016556214,
			"0.003": 9.31964760721,
			"0.004": 10.7635478603,
			"0.005": 8.80141783048,
			"0.006": 6.09754008159,
			"0.007": 4.49461312542,
			"0.008": 5.57377165732,
			"0.009": 2.72762785332,
			"0.01": 3.03795311215,
			"0.011": 1.89036203592,
			"0.012": 1.92466597346,
			"0.013": 2.07268644001,
			"0.014": 1.75614596243,
			"0.015": 0.637694222424,
			"0.016": 0.910320687072,
			"0.017": 0.192068411493,
			"0.018": 0.0,
			"0.019": 0.0,
			"0.02": 0.0,
			"0.021": 0.0,
			"0.022": 0.0,
			"0.023": 0.0,
			"0.024": 0.0,
			"0.025": 0.0
		}
	}
}
