{
	 "smiles": "NS(=O)(=O)C1=CC=CC=C1F", 
	 "Tm": 437.15, 
	 "num_atms": 17, 
	 "gaussian": { 
		 "optdone": 1, 
		 "sigma_profile": "yes", 
		 "theory": "DFT", 
		 "functional": "B3LYP", 
		 "basiset": "6-31G**", 
		 "properties": { 
			 "R2extent": 2334.3778, 
			 "electric_dipole_moment_norm": 4.72400237299, 
			 "electric_quadrupole_moment_norm": 19.8659628969, 
			 "total_energy": -935.398282892, 
			 "HOMO_LUMO_gap": 0.22244, 
			 "cosmo_polarized_energy": -16.04, 
			 "cosmo_cavitation_energy": 23.09, 
			 "cosmo_dispersion_energy": -17.62, 
			 "cosmo_repulsion_energy": 1.35, 
			 "cosmo_total_nonelectrostatic_energy": 6.82, 
			 "SMD_solvation_energy": 4.15 
		},
		"coords": [
			{
				"x": -0.7308099631,
				"y": 0.7882035087,
				"z": -3.0717293715,
				"element": "N" 
			},
			{
				"x": -1.4049659967,
				"y": -0.5010877263,
				"z": -2.205702404,
				"element": "S" 
			},
			{
				"x": -0.8145740427,
				"y": -1.7340194339,
				"z": -2.7288226271,
				"element": "O" 
			},
			{
				"x": -2.8533961152,
				"y": -0.2932442571,
				"z": -2.1711398607,
				"element": "O" 
			},
			{
				"x": -0.7598016077,
				"y": -0.2280139992,
				"z": -0.5524333703,
				"element": "C" 
			},
			{
				"x": 0.0816867563,
				"y": 0.8391103736,
				"z": -0.2302478505,
				"element": "C" 
			},
			{
				"x": 0.5460299247,
				"y": 0.9902966647,
				"z": 1.0772654867,
				"element": "C" 
			},
			{
				"x": 0.1709472272,
				"y": 0.0768505927,
				"z": 2.0637586251,
				"element": "C" 
			},
			{
				"x": -0.6695074704,
				"y": -0.9930783773,
				"z": 1.7526878594,
				"element": "C" 
			},
			{
				"x": -1.1249457336,
				"y": -1.1330761977,
				"z": 0.4488752922,
				"element": "C" 
			},
			{
				"x": -1.9331909091,
				"y": -2.1609427471,
				"z": 0.1471946057,
				"element": "F" 
			},
			{
				"x": -0.1401096583,
				"y": 0.416958487,
				"z": -3.8109645039,
				"element": "H" 
			},
			{
				"x": -1.4808751592,
				"y": 1.3640427254,
				"z": -3.4445935709,
				"element": "H" 
			},
			{
				"x": 0.3609292051,
				"y": 1.5369204644,
				"z": -1.0103541787,
				"element": "H" 
			},
			{
				"x": 1.1995639792,
				"y": 1.821327325,
				"z": 1.3216717886,
				"element": "H" 
			},
			{
				"x": 0.5315745889,
				"y": 0.1935499531,
				"z": 3.0810842235,
				"element": "H" 
			},
			{
				"x": -0.9785550253,
				"y": -1.7189973562,
				"z": 2.4966498566,
				"element": "H" 
			}
		],
		 "valence_orbital": [ 
			{
				"type": "occ",
				"energy": -0.32266,
				"method": "rhf"
			},
			{
				"type": "occ",
				"energy": -0.30915,
				"method": "rhf"
			},
			{
				"type": "occ",
				"energy": -0.29538,
				"method": "rhf"
			},
			{
				"type": "occ",
				"energy": -0.27551,
				"method": "rhf"
			},
			{
				"type": "occ",
				"energy": -0.26177,
				"method": "rhf"
			},
			{
				"type": "unocc",
				"energy": -0.03933,
				"method": "rhf"
			},
			{
				"type": "unocc",
				"energy": -0.01959,
				"method": "rhf"
			},
			{
				"type": "unocc",
				"energy": 0.04062,
				"method": "rhf"
			},
			{
				"type": "unocc",
				"energy": 0.06822,
				"method": "rhf"
			},
			{
				"type": "unocc",
				"energy": 0.0802,
				"method": "rhf"
			}
		],
		"cosmo_sigma_profile": { 
			"-0.025": 0.0,
			"-0.024": 0.0,
			"-0.023": 0.0,
			"-0.022": 0.0,
			"-0.021": 0.0,
			"-0.02": 0.0,
			"-0.019": 0.0,
			"-0.018": 0.0,
			"-0.017": 0.0,
			"-0.016": 0.110031236978,
			"-0.015": 1.59003392884,
			"-0.014": 2.60258990292,
			"-0.013": 2.92849808986,
			"-0.012": 2.64736944245,
			"-0.011": 1.60568159516,
			"-0.01": 1.46204721162,
			"-0.009": 2.21618283473,
			"-0.008": 4.32326751505,
			"-0.007": 8.03451994255,
			"-0.006": 10.7203563867,
			"-0.005": 9.6318308649,
			"-0.004": 7.94039155482,
			"-0.003": 7.49708506035,
			"-0.002": 8.02637829117,
			"-0.001": 11.7633800065,
			"0.0": 11.8999565613,
			"0.001": 14.4315810306,
			"0.002": 15.0314563154,
			"0.003": 14.3083021238,
			"0.004": 5.48246030328,
			"0.005": 4.55676465952,
			"0.006": 3.2860159732,
			"0.007": 4.40351008647,
			"0.008": 3.67138100183,
			"0.009": 3.24704950236,
			"0.01": 10.1893801773,
			"0.011": 10.2732701519,
			"0.012": 1.08471296533,
			"0.013": 0.0,
			"0.014": 0.0,
			"0.015": 0.0,
			"0.016": 0.0,
			"0.017": 0.0,
			"0.018": 0.0,
			"0.019": 0.0,
			"0.02": 0.0,
			"0.021": 0.0,
			"0.022": 0.0,
			"0.023": 0.0,
			"0.024": 0.0,
			"0.025": 0.0
		}
	}
}
