{
	 "smiles": "CN(C(=O)C(Cl)Cl)C1=CC=C(O)C=C1", 
	 "Tm": 448.15, 
	 "num_atms": 23, 
	 "gaussian": { 
		 "optdone": 1, 
		 "sigma_profile": "yes", 
		 "theory": "DFT", 
		 "functional": "B3LYP", 
		 "basiset": "6-31G**", 
		 "properties": { 
			 "R2extent": 5387.0299, 
			 "electric_dipole_moment_norm": 3.89531296432, 
			 "electric_quadrupole_moment_norm": 18.7794786152, 
			 "total_energy": -1473.95163177, 
			 "HOMO_LUMO_gap": 0.1795, 
			 "cosmo_polarized_energy": -17.78, 
			 "cosmo_cavitation_energy": 30.53, 
			 "cosmo_dispersion_energy": -22.18, 
			 "cosmo_repulsion_energy": 1.76, 
			 "cosmo_total_nonelectrostatic_energy": 10.1, 
			 "SMD_solvation_energy": 5.39 
		},
		"coords": [
			{
				"x": 1.9307008262,
				"y": 0.6630280035,
				"z": 1.5413548539,
				"element": "C" 
			},
			{
				"x": 1.441154516,
				"y": 0.3521681817,
				"z": 0.1914716774,
				"element": "N" 
			},
			{
				"x": 2.2055503056,
				"y": -0.281976137,
				"z": -0.7626872845,
				"element": "C" 
			},
			{
				"x": 1.8193812451,
				"y": -0.5542074038,
				"z": -1.8833775001,
				"element": "O" 
			},
			{
				"x": 3.6526536616,
				"y": -0.6378782469,
				"z": -0.3218201684,
				"element": "C" 
			},
			{
				"x": 4.7188332787,
				"y": 0.8058380112,
				"z": -0.5939421924,
				"element": "Cl" 
			},
			{
				"x": 4.2486442051,
				"y": -2.058490179,
				"z": -1.2112788464,
				"element": "Cl" 
			},
			{
				"x": 0.0718345054,
				"y": 0.6734865708,
				"z": -0.1066039615,
				"element": "C" 
			},
			{
				"x": -0.9321612066,
				"y": 0.3451097395,
				"z": 0.8129256288,
				"element": "C" 
			},
			{
				"x": -2.2601697919,
				"y": 0.6824921006,
				"z": 0.5695222996,
				"element": "C" 
			},
			{
				"x": -2.6040341741,
				"y": 1.3423398295,
				"z": -0.614289826,
				"element": "C" 
			},
			{
				"x": -3.9209457292,
				"y": 1.6446646103,
				"z": -0.8086158214,
				"element": "O" 
			},
			{
				"x": -1.6060421509,
				"y": 1.6641704969,
				"z": -1.5409553678,
				"element": "C" 
			},
			{
				"x": -0.2766110593,
				"y": 1.3370570647,
				"z": -1.2874256366,
				"element": "C" 
			},
			{
				"x": 1.2849720092,
				"y": 1.4313843573,
				"z": 1.9663399873,
				"element": "H" 
			},
			{
				"x": 1.9122550066,
				"y": -0.2080583027,
				"z": 2.2084279374,
				"element": "H" 
			},
			{
				"x": 2.9434263461,
				"y": 1.0690513289,
				"z": 1.5061335008,
				"element": "H" 
			},
			{
				"x": 3.7398547263,
				"y": -0.8774338762,
				"z": 0.7342488821,
				"element": "H" 
			},
			{
				"x": -0.6795772011,
				"y": -0.1860683149,
				"z": 1.7255150227,
				"element": "H" 
			},
			{
				"x": -3.0410606868,
				"y": 0.4310318615,
				"z": 1.2790824132,
				"element": "H" 
			},
			{
				"x": -4.0240626563,
				"y": 2.0812029804,
				"z": -1.6641278678,
				"element": "H" 
			},
			{
				"x": -1.8656900273,
				"y": 2.1774577991,
				"z": -2.4643050421,
				"element": "H" 
			},
			{
				"x": 0.4879940517,
				"y": 1.5855295249,
				"z": -2.0121926884,
				"element": "H" 
			}
		],
		 "valence_orbital": [ 
			{
				"type": "occ",
				"energy": -0.30931,
				"method": "rhf"
			},
			{
				"type": "occ",
				"energy": -0.27587,
				"method": "rhf"
			},
			{
				"type": "occ",
				"energy": -0.27127,
				"method": "rhf"
			},
			{
				"type": "occ",
				"energy": -0.25847,
				"method": "rhf"
			},
			{
				"type": "occ",
				"energy": -0.21803,
				"method": "rhf"
			},
			{
				"type": "unocc",
				"energy": -0.03853,
				"method": "rhf"
			},
			{
				"type": "unocc",
				"energy": -0.01178,
				"method": "rhf"
			},
			{
				"type": "unocc",
				"energy": -0.00377,
				"method": "rhf"
			},
			{
				"type": "unocc",
				"energy": 0.00801,
				"method": "rhf"
			},
			{
				"type": "unocc",
				"energy": 0.05927,
				"method": "rhf"
			}
		],
		"cosmo_sigma_profile": { 
			"-0.025": 0.0,
			"-0.024": 0.0,
			"-0.023": 0.0,
			"-0.022": 0.0,
			"-0.021": 0.0,
			"-0.02": 0.0,
			"-0.019": 0.0,
			"-0.018": 0.551405789358,
			"-0.017": 1.23634096086,
			"-0.016": 1.07163848008,
			"-0.015": 0.855407259056,
			"-0.014": 1.16897487051,
			"-0.013": 1.28183405849,
			"-0.012": 0.916352706318,
			"-0.011": 3.19854772832,
			"-0.01": 4.14387892614,
			"-0.009": 2.92488603966,
			"-0.008": 3.64491370037,
			"-0.007": 6.02936698649,
			"-0.006": 14.990303963,
			"-0.005": 14.4469358941,
			"-0.004": 15.0222994665,
			"-0.003": 14.9586090676,
			"-0.002": 11.6273023025,
			"-0.001": 13.2646287833,
			"0.0": 13.6733527231,
			"0.001": 11.9676720601,
			"0.002": 17.5632332707,
			"0.003": 23.0127264085,
			"0.004": 27.1039052932,
			"0.005": 11.4479318516,
			"0.006": 4.59035035509,
			"0.007": 3.87895427831,
			"0.008": 3.20158119965,
			"0.009": 3.386346177,
			"0.01": 3.87219690352,
			"0.011": 4.9317262146,
			"0.012": 5.12360417222,
			"0.013": 2.45876524865,
			"0.014": 0.0501879710396,
			"0.015": 0.0,
			"0.016": 0.0,
			"0.017": 0.0,
			"0.018": 0.0,
			"0.019": 0.0,
			"0.02": 0.0,
			"0.021": 0.0,
			"0.022": 0.0,
			"0.023": 0.0,
			"0.024": 0.0,
			"0.025": 0.0
		}
	}
}
