{
	 "smiles": "OC(=O)C1=CC(Br)=CC(Br)=C1", 
	 "Tm": 498.15, 
	 "num_atms": 15, 
	 "gaussian": { 
		 "optdone": 1, 
		 "sigma_profile": "yes", 
		 "theory": "DFT", 
		 "functional": "B3LYP", 
		 "basiset": "6-31G**", 
		 "properties": { 
			 "R2extent": 5796.9164, 
			 "electric_dipole_moment_norm": 3.32040190037, 
			 "electric_quadrupole_moment_norm": 8.35755144286, 
			 "total_energy": -5562.41493394, 
			 "HOMO_LUMO_gap": 0.19301, 
			 "cosmo_polarized_energy": -13.12, 
			 "cosmo_cavitation_energy": 25.0, 
			 "cosmo_dispersion_energy": -19.17, 
			 "cosmo_repulsion_energy": 1.55, 
			 "cosmo_total_nonelectrostatic_energy": 7.37, 
			 "SMD_solvation_energy": 3.19 
		},
		"coords": [
			{
				"x": 1.4643956883,
				"y": -1.7016955266,
				"z": -0.5374071255,
				"element": "O" 
			},
			{
				"x": 1.2614240428,
				"y": -0.395334734,
				"z": -0.8449999488,
				"element": "C" 
			},
			{
				"x": 2.1497255727,
				"y": 0.263560043,
				"z": -1.3277483413,
				"element": "O" 
			},
			{
				"x": -0.1038710204,
				"y": 0.1656890457,
				"z": -0.5525018312,
				"element": "C" 
			},
			{
				"x": -0.9681647647,
				"y": -0.4047339757,
				"z": 0.3904776707,
				"element": "C" 
			},
			{
				"x": -2.2111812564,
				"y": 0.1831670021,
				"z": 0.6162947977,
				"element": "C" 
			},
			{
				"x": -3.3873997167,
				"y": -0.5812262825,
				"z": 1.907360464,
				"element": "Br" 
			},
			{
				"x": -2.6123367801,
				"y": 1.3236202926,
				"z": -0.076593519,
				"element": "C" 
			},
			{
				"x": -1.729482726,
				"y": 1.8823329364,
				"z": -1.0027776623,
				"element": "C" 
			},
			{
				"x": -2.2599962713,
				"y": 3.4467986486,
				"z": -1.952332249,
				"element": "Br" 
			},
			{
				"x": -0.4785007973,
				"y": 1.3248450317,
				"z": -1.2424308685,
				"element": "C" 
			},
			{
				"x": 0.6267275202,
				"y": -2.1382304008,
				"z": -0.3293724589,
				"element": "H" 
			},
			{
				"x": -0.6786354888,
				"y": -1.2687993211,
				"z": 0.9788833065,
				"element": "H" 
			},
			{
				"x": -3.5820551591,
				"y": 1.7693042189,
				"z": 0.1040152795,
				"element": "H" 
			},
			{
				"x": 0.2136511567,
				"y": 1.7654030217,
				"z": -1.949167514,
				"element": "H" 
			}
		],
		 "valence_orbital": [ 
			{
				"type": "occ",
				"energy": -0.31304,
				"method": "rhf"
			},
			{
				"type": "occ",
				"energy": -0.30484,
				"method": "rhf"
			},
			{
				"type": "occ",
				"energy": -0.28992,
				"method": "rhf"
			},
			{
				"type": "occ",
				"energy": -0.27744,
				"method": "rhf"
			},
			{
				"type": "occ",
				"energy": -0.26603,
				"method": "rhf"
			},
			{
				"type": "unocc",
				"energy": -0.07302,
				"method": "rhf"
			},
			{
				"type": "unocc",
				"energy": -0.04759,
				"method": "rhf"
			},
			{
				"type": "unocc",
				"energy": -0.03197,
				"method": "rhf"
			},
			{
				"type": "unocc",
				"energy": 0.00694,
				"method": "rhf"
			},
			{
				"type": "unocc",
				"energy": 0.02723,
				"method": "rhf"
			}
		],
		"cosmo_sigma_profile": { 
			"-0.025": 0.0,
			"-0.024": 0.0,
			"-0.023": 0.0,
			"-0.022": 0.0,
			"-0.021": 0.0,
			"-0.02": 0.206338943722,
			"-0.019": 0.808729206292,
			"-0.018": 1.18129619793,
			"-0.017": 1.2198397812,
			"-0.016": 1.07667285254,
			"-0.015": 0.848067351632,
			"-0.014": 0.78171517423,
			"-0.013": 1.09748915942,
			"-0.012": 1.47569422066,
			"-0.011": 1.37282519597,
			"-0.01": 1.0043358662,
			"-0.009": 2.22892701924,
			"-0.008": 3.65244425051,
			"-0.007": 3.7613030388,
			"-0.006": 5.35268451905,
			"-0.005": 8.82834941643,
			"-0.004": 9.59870631371,
			"-0.003": 10.1888502574,
			"-0.002": 12.39377943,
			"-0.001": 18.1677634629,
			"0.0": 29.0408296645,
			"0.001": 16.5089966003,
			"0.002": 12.0853274845,
			"0.003": 21.0105442863,
			"0.004": 16.8722713542,
			"0.005": 1.72258639114,
			"0.006": 2.78647928292,
			"0.007": 2.22987266594,
			"0.008": 3.43502331281,
			"0.009": 3.91317464871,
			"0.01": 4.9419606333,
			"0.011": 5.47251317419,
			"0.012": 2.53705700594,
			"0.013": 0.277313948489,
			"0.014": 0.0,
			"0.015": 0.0,
			"0.016": 0.0,
			"0.017": 0.0,
			"0.018": 0.0,
			"0.019": 0.0,
			"0.02": 0.0,
			"0.021": 0.0,
			"0.022": 0.0,
			"0.023": 0.0,
			"0.024": 0.0,
			"0.025": 0.0
		}
	}
}
