{
	 "smiles": "OC(=O)C1(CCOCC1)C1=C(F)C=C(F)C=C1", 
	 "Tm": 408.15, 
	 "num_atms": 29, 
	 "gaussian": { 
		 "optdone": 1, 
		 "sigma_profile": "yes", 
		 "theory": "DFT", 
		 "functional": "B3LYP", 
		 "basiset": "6-31G**", 
		 "properties": { 
			 "R2extent": 4418.344, 
			 "electric_dipole_moment_norm": 2.82637119466, 
			 "electric_quadrupole_moment_norm": 9.9075804347, 
			 "total_energy": -889.842871182, 
			 "HOMO_LUMO_gap": 0.22175, 
			 "cosmo_polarized_energy": -13.37, 
			 "cosmo_cavitation_energy": 31.6, 
			 "cosmo_dispersion_energy": -22.66, 
			 "cosmo_repulsion_energy": 1.7, 
			 "cosmo_total_nonelectrostatic_energy": 10.64, 
			 "SMD_solvation_energy": 6.92 
		},
		"coords": [
			{
				"x": 0.3540169342,
				"y": 2.672397203,
				"z": -0.7830970155,
				"element": "O" 
			},
			{
				"x": -0.4777058277,
				"y": 2.2060683442,
				"z": 0.1850106266,
				"element": "C" 
			},
			{
				"x": -1.0665569892,
				"y": 2.947585047,
				"z": 0.9350777986,
				"element": "O" 
			},
			{
				"x": -0.5077128861,
				"y": 0.6613596813,
				"z": 0.2112330647,
				"element": "C" 
			},
			{
				"x": -1.808497056,
				"y": 0.1936553802,
				"z": 0.9275937248,
				"element": "C" 
			},
			{
				"x": -2.9988268768,
				"y": 0.152273275,
				"z": -0.0570956187,
				"element": "C" 
			},
			{
				"x": -2.81403843,
				"y": 1.0707720421,
				"z": -1.1255257561,
				"element": "O" 
			},
			{
				"x": -1.7747137011,
				"y": 0.6482070521,
				"z": -1.9980771013,
				"element": "C" 
			},
			{
				"x": -0.5428426118,
				"y": 0.1126871193,
				"z": -1.2354368151,
				"element": "C" 
			},
			{
				"x": 0.748819595,
				"y": 0.2005555123,
				"z": 0.9748921722,
				"element": "C" 
			},
			{
				"x": 0.9251012614,
				"y": 0.495050692,
				"z": 2.3363683589,
				"element": "C" 
			},
			{
				"x": -0.0182253512,
				"y": 1.1994130014,
				"z": 2.9940572497,
				"element": "F" 
			},
			{
				"x": 2.0336809064,
				"y": 0.0964555679,
				"z": 3.0727029563,
				"element": "C" 
			},
			{
				"x": 3.0199364131,
				"y": -0.6309318184,
				"z": 2.4198395008,
				"element": "C" 
			},
			{
				"x": 4.1025460668,
				"y": -1.0276200173,
				"z": 3.1150325632,
				"element": "F" 
			},
			{
				"x": 2.9122600144,
				"y": -0.9563191712,
				"z": 1.0749240613,
				"element": "C" 
			},
			{
				"x": 1.7818472188,
				"y": -0.5344448896,
				"z": 0.3738311604,
				"element": "C" 
			},
			{
				"x": 0.3326533497,
				"y": 3.6408144291,
				"z": -0.7032068365,
				"element": "H" 
			},
			{
				"x": -1.6441594864,
				"y": -0.8031139648,
				"z": 1.3507174002,
				"element": "H" 
			},
			{
				"x": -2.0160240873,
				"y": 0.8767342354,
				"z": 1.7500514147,
				"element": "H" 
			},
			{
				"x": -3.1436371374,
				"y": -0.8645400171,
				"z": -0.4580836178,
				"element": "H" 
			},
			{
				"x": -3.9259611501,
				"y": 0.4439269213,
				"z": 0.4425586603,
				"element": "H" 
			},
			{
				"x": -1.5081937553,
				"y": 1.5307987537,
				"z": -2.5855374601,
				"element": "H" 
			},
			{
				"x": -2.1473526516,
				"y": -0.1236376731,
				"z": -2.691273233,
				"element": "H" 
			},
			{
				"x": 0.3596502851,
				"y": 0.3838791957,
				"z": -1.7867155866,
				"element": "H" 
			},
			{
				"x": -0.5750644929,
				"y": -0.9810646137,
				"z": -1.1739149458,
				"element": "H" 
			},
			{
				"x": 2.1170969513,
				"y": 0.3514753863,
				"z": 4.1220330074,
				"element": "H" 
			},
			{
				"x": 3.697717877,
				"y": -1.5260197113,
				"z": 0.5917896918,
				"element": "H" 
			},
			{
				"x": 1.7109856177,
				"y": -0.7949169628,
				"z": -0.6745494256,
				"element": "H" 
			}
		],
		 "valence_orbital": [ 
			{
				"type": "occ",
				"energy": -0.30476,
				"method": "rhf"
			},
			{
				"type": "occ",
				"energy": -0.27635,
				"method": "rhf"
			},
			{
				"type": "occ",
				"energy": -0.26419,
				"method": "rhf"
			},
			{
				"type": "occ",
				"energy": -0.25432,
				"method": "rhf"
			},
			{
				"type": "occ",
				"energy": -0.2435,
				"method": "rhf"
			},
			{
				"type": "unocc",
				"energy": -0.02175,
				"method": "rhf"
			},
			{
				"type": "unocc",
				"energy": -0.01126,
				"method": "rhf"
			},
			{
				"type": "unocc",
				"energy": 0.01988,
				"method": "rhf"
			},
			{
				"type": "unocc",
				"energy": 0.0677,
				"method": "rhf"
			},
			{
				"type": "unocc",
				"energy": 0.07693,
				"method": "rhf"
			}
		],
		"cosmo_sigma_profile": { 
			"-0.025": 0.0,
			"-0.024": 0.0,
			"-0.023": 0.0,
			"-0.022": 0.0,
			"-0.021": 0.0,
			"-0.02": 0.0,
			"-0.019": 0.0534522766439,
			"-0.018": 0.956503779683,
			"-0.017": 0.396216518364,
			"-0.016": 0.984646544808,
			"-0.015": 0.96222307521,
			"-0.014": 1.12351529407,
			"-0.013": 0.150190806904,
			"-0.012": 0.502136465711,
			"-0.011": 0.667785757684,
			"-0.01": 0.62823581294,
			"-0.009": 1.07306583228,
			"-0.008": 2.95249105204,
			"-0.007": 6.06369903639,
			"-0.006": 7.002252604,
			"-0.005": 12.4312839346,
			"-0.004": 26.1417217609,
			"-0.003": 24.0691427408,
			"-0.002": 19.2892962606,
			"-0.001": 15.7176305549,
			"0.0": 19.1092048046,
			"0.001": 20.6559316088,
			"0.002": 15.3892476303,
			"0.003": 16.2929877229,
			"0.004": 18.9538037598,
			"0.005": 5.73079472572,
			"0.006": 4.64664690749,
			"0.007": 4.26882495278,
			"0.008": 3.85883727006,
			"0.009": 3.38505493243,
			"0.01": 4.0884840744,
			"0.011": 6.06086180034,
			"0.012": 4.5718000223,
			"0.013": 1.21889109999,
			"0.014": 0.186241530628,
			"0.015": 0.0,
			"0.016": 0.0,
			"0.017": 0.0,
			"0.018": 0.0,
			"0.019": 0.0,
			"0.02": 0.0,
			"0.021": 0.0,
			"0.022": 0.0,
			"0.023": 0.0,
			"0.024": 0.0,
			"0.025": 0.0
		}
	}
}
