{
	 "smiles": "CC1CCN(CC1)C(N)=S", 
	 "Tm": 377.15, 
	 "num_atms": 24, 
	 "gaussian": { 
		 "optdone": 1, 
		 "sigma_profile": "yes", 
		 "theory": "DFT", 
		 "functional": "B3LYP", 
		 "basiset": "6-31G**", 
		 "properties": { 
			 "R2extent": 3243.3212, 
			 "electric_dipole_moment_norm": 5.84394532914, 
			 "electric_quadrupole_moment_norm": 26.6577983982, 
			 "total_energy": -782.895767294, 
			 "HOMO_LUMO_gap": 0.19974, 
			 "cosmo_polarized_energy": -16.29, 
			 "cosmo_cavitation_energy": 26.19, 
			 "cosmo_dispersion_energy": -19.92, 
			 "cosmo_repulsion_energy": 1.57, 
			 "cosmo_total_nonelectrostatic_energy": 7.84, 
			 "SMD_solvation_energy": 2.56 
		},
		"coords": [
			{
				"x": 2.1679458039,
				"y": -1.1194662717,
				"z": 1.1466661767,
				"element": "C" 
			},
			{
				"x": 0.9575749668,
				"y": -0.4511621047,
				"z": 0.4827032759,
				"element": "C" 
			},
			{
				"x": 0.565499275,
				"y": -1.1925331442,
				"z": -0.8132766741,
				"element": "C" 
			},
			{
				"x": -0.8660799748,
				"y": -0.8883375028,
				"z": -1.2595762989,
				"element": "C" 
			},
			{
				"x": -1.8321839437,
				"y": -1.2913164758,
				"z": -0.2241342997,
				"element": "N" 
			},
			{
				"x": -1.3205239525,
				"y": -1.4407460958,
				"z": 1.1465329798,
				"element": "C" 
			},
			{
				"x": -0.2681916621,
				"y": -0.3674557994,
				"z": 1.4350945549,
				"element": "C" 
			},
			{
				"x": -3.1260588283,
				"y": -1.5732975347,
				"z": -0.5273189251,
				"element": "C" 
			},
			{
				"x": -3.5030321443,
				"y": -1.3066392368,
				"z": -1.8255853585,
				"element": "N" 
			},
			{
				"x": -4.2376644394,
				"y": -2.2607505305,
				"z": 0.5434339576,
				"element": "S" 
			},
			{
				"x": 1.9182204993,
				"y": -2.1308050324,
				"z": 1.4897687598,
				"element": "H" 
			},
			{
				"x": 3.0098995641,
				"y": -1.2045761033,
				"z": 0.450515156,
				"element": "H" 
			},
			{
				"x": 2.5083696301,
				"y": -0.5472029608,
				"z": 2.0159862857,
				"element": "H" 
			},
			{
				"x": 1.2443228072,
				"y": 0.5733378073,
				"z": 0.2108987561,
				"element": "H" 
			},
			{
				"x": 1.2522791301,
				"y": -0.9329172266,
				"z": -1.6264149455,
				"element": "H" 
			},
			{
				"x": 0.6573484102,
				"y": -2.2756476786,
				"z": -0.6637871758,
				"element": "H" 
			},
			{
				"x": -0.9643092647,
				"y": 0.1869167328,
				"z": -1.4849000954,
				"element": "H" 
			},
			{
				"x": -1.0925265857,
				"y": -1.4385415973,
				"z": -2.1783561099,
				"element": "H" 
			},
			{
				"x": -2.1718403862,
				"y": -1.3569108902,
				"z": 1.8225536724,
				"element": "H" 
			},
			{
				"x": -0.9068653741,
				"y": -2.4491763932,
				"z": 1.2855947267,
				"element": "H" 
			},
			{
				"x": -0.7489510915,
				"y": 0.6137093737,
				"z": 1.3464127313,
				"element": "H" 
			},
			{
				"x": 0.0513091722,
				"y": -0.4620132405,
				"z": 2.4788824022,
				"element": "H" 
			},
			{
				"x": -4.4943405268,
				"y": -1.420033235,
				"z": -1.979081914,
				"element": "H" 
			},
			{
				"x": -3.0784010848,
				"y": -0.5302348593,
				"z": -2.3150116383,
				"element": "H" 
			}
		],
		 "valence_orbital": [ 
			{
				"type": "occ",
				"energy": -0.32625,
				"method": "rhf"
			},
			{
				"type": "occ",
				"energy": -0.32354,
				"method": "rhf"
			},
			{
				"type": "occ",
				"energy": -0.25589,
				"method": "rhf"
			},
			{
				"type": "occ",
				"energy": -0.20339,
				"method": "rhf"
			},
			{
				"type": "occ",
				"energy": -0.19183,
				"method": "rhf"
			},
			{
				"type": "unocc",
				"energy": 0.00791,
				"method": "rhf"
			},
			{
				"type": "unocc",
				"energy": 0.06234,
				"method": "rhf"
			},
			{
				"type": "unocc",
				"energy": 0.07789,
				"method": "rhf"
			},
			{
				"type": "unocc",
				"energy": 0.09618,
				"method": "rhf"
			},
			{
				"type": "unocc",
				"energy": 0.10207,
				"method": "rhf"
			}
		],
		"cosmo_sigma_profile": { 
			"-0.025": 0.0,
			"-0.024": 0.0,
			"-0.023": 0.0,
			"-0.022": 0.0,
			"-0.021": 0.0,
			"-0.02": 0.0,
			"-0.019": 0.0,
			"-0.018": 0.0,
			"-0.017": 0.0,
			"-0.016": 0.0,
			"-0.015": 0.0,
			"-0.014": 0.927856274031,
			"-0.013": 1.84114551057,
			"-0.012": 2.72507526234,
			"-0.011": 2.34341005511,
			"-0.01": 2.64592500062,
			"-0.009": 2.13298100065,
			"-0.008": 1.84413172642,
			"-0.007": 2.41137264716,
			"-0.006": 2.97584332636,
			"-0.005": 5.21296060668,
			"-0.004": 14.9647409218,
			"-0.003": 29.7377099768,
			"-0.002": 30.3962894755,
			"-0.001": 21.433836699,
			"0.0": 17.3497413117,
			"0.001": 11.4151988338,
			"0.002": 5.75966263604,
			"0.003": 2.47204610998,
			"0.004": 3.52888947015,
			"0.005": 4.39619790539,
			"0.006": 4.00430434267,
			"0.007": 4.27295902955,
			"0.008": 4.93300765522,
			"0.009": 3.71772709285,
			"0.01": 5.22966965223,
			"0.011": 5.83651248808,
			"0.012": 7.21224687949,
			"0.013": 3.71266110715,
			"0.014": 0.201468213663,
			"0.015": 0.0,
			"0.016": 0.0,
			"0.017": 0.0,
			"0.018": 0.0,
			"0.019": 0.0,
			"0.02": 0.0,
			"0.021": 0.0,
			"0.022": 0.0,
			"0.023": 0.0,
			"0.024": 0.0,
			"0.025": 0.0
		}
	}
}
