{
	 "smiles": "COC(C)=CC(=O)C(=O)OC", 
	 "Tm": 311.15, 
	 "num_atms": 21, 
	 "gaussian": { 
		 "optdone": 1, 
		 "sigma_profile": "yes", 
		 "theory": "DFT", 
		 "functional": "B3LYP", 
		 "basiset": "6-31G**", 
		 "properties": { 
			 "R2extent": 2728.4599, 
			 "electric_dipole_moment_norm": 3.09327930359, 
			 "electric_quadrupole_moment_norm": 23.7067778766, 
			 "total_energy": -573.636932914, 
			 "HOMO_LUMO_gap": 0.16665, 
			 "cosmo_polarized_energy": -13.92, 
			 "cosmo_cavitation_energy": 25.77, 
			 "cosmo_dispersion_energy": -18.79, 
			 "cosmo_repulsion_energy": 1.53, 
			 "cosmo_total_nonelectrostatic_energy": 8.51, 
			 "SMD_solvation_energy": 8.0 
		},
		"coords": [
			{
				"x": -4.0175269668,
				"y": 1.4180149986,
				"z": 0.2612503607,
				"element": "C" 
			},
			{
				"x": -2.7971514546,
				"y": 0.7644523752,
				"z": -0.082146493,
				"element": "O" 
			},
			{
				"x": -1.6867951329,
				"y": 0.9287672143,
				"z": 0.6740407679,
				"element": "C" 
			},
			{
				"x": -1.7522522542,
				"y": 1.8086456604,
				"z": 1.884428462,
				"element": "C" 
			},
			{
				"x": -0.5854480471,
				"y": 0.2526896236,
				"z": 0.2408414092,
				"element": "C" 
			},
			{
				"x": 0.720431158,
				"y": 0.2633401288,
				"z": 0.872722258,
				"element": "C" 
			},
			{
				"x": 1.0717233189,
				"y": 0.8627787383,
				"z": 1.8849605873,
				"element": "O" 
			},
			{
				"x": 1.7582841964,
				"y": -0.6142912115,
				"z": 0.1238106055,
				"element": "C" 
			},
			{
				"x": 1.5180762151,
				"y": -1.2479843576,
				"z": -0.8843146234,
				"element": "O" 
			},
			{
				"x": 2.9509714665,
				"y": -0.58361675,
				"z": 0.7303472439,
				"element": "O" 
			},
			{
				"x": 3.9746096721,
				"y": -1.3712806254,
				"z": 0.1017822222,
				"element": "C" 
			},
			{
				"x": -4.7332880298,
				"y": 1.1159084777,
				"z": -0.5039281163,
				"element": "H" 
			},
			{
				"x": -4.386833646,
				"y": 1.1022119064,
				"z": 1.2426865801,
				"element": "H" 
			},
			{
				"x": -3.9143952347,
				"y": 2.5081666407,
				"z": 0.2456726767,
				"element": "H" 
			},
			{
				"x": -0.7778739065,
				"y": 1.8261547818,
				"z": 2.3692420122,
				"element": "H" 
			},
			{
				"x": -2.0382387014,
				"y": 2.8304153702,
				"z": 1.608492397,
				"element": "H" 
			},
			{
				"x": -2.5031344983,
				"y": 1.4406221053,
				"z": 2.5934454956,
				"element": "H" 
			},
			{
				"x": -0.6830862511,
				"y": -0.3492095032,
				"z": -0.6544398842,
				"element": "H" 
			},
			{
				"x": 4.8659815584,
				"y": -1.2368230991,
				"z": 0.7137965553,
				"element": "H" 
			},
			{
				"x": 4.1524105449,
				"y": -1.0254296166,
				"z": -0.9198540837,
				"element": "H" 
			},
			{
				"x": 3.6837359931,
				"y": -2.4245328578,
				"z": 0.0700635671,
				"element": "H" 
			}
		],
		 "valence_orbital": [ 
			{
				"type": "occ",
				"energy": -0.34327,
				"method": "rhf"
			},
			{
				"type": "occ",
				"energy": -0.30109,
				"method": "rhf"
			},
			{
				"type": "occ",
				"energy": -0.30101,
				"method": "rhf"
			},
			{
				"type": "occ",
				"energy": -0.23423,
				"method": "rhf"
			},
			{
				"type": "occ",
				"energy": -0.23413,
				"method": "rhf"
			},
			{
				"type": "unocc",
				"energy": -0.06748,
				"method": "rhf"
			},
			{
				"type": "unocc",
				"energy": 0.02077,
				"method": "rhf"
			},
			{
				"type": "unocc",
				"energy": 0.07503,
				"method": "rhf"
			},
			{
				"type": "unocc",
				"energy": 0.10156,
				"method": "rhf"
			},
			{
				"type": "unocc",
				"energy": 0.1121,
				"method": "rhf"
			}
		],
		"cosmo_sigma_profile": { 
			"-0.025": 0.0,
			"-0.024": 0.0,
			"-0.023": 0.0,
			"-0.022": 0.0,
			"-0.021": 0.0,
			"-0.02": 0.0,
			"-0.019": 0.0,
			"-0.018": 0.0,
			"-0.017": 0.0,
			"-0.016": 0.0,
			"-0.015": 0.0,
			"-0.014": 0.0,
			"-0.013": 0.0,
			"-0.012": 0.0,
			"-0.011": 0.0,
			"-0.01": 0.0,
			"-0.009": 0.0831342936585,
			"-0.008": 2.82014550691,
			"-0.007": 9.93005079952,
			"-0.006": 16.9078017035,
			"-0.005": 19.3129953117,
			"-0.004": 23.3249270485,
			"-0.003": 18.073809924,
			"-0.002": 12.6707537067,
			"-0.001": 12.2192419134,
			"0.0": 9.15464712407,
			"0.001": 10.4784572748,
			"0.002": 9.90404741686,
			"0.003": 9.60149075251,
			"0.004": 5.81302995325,
			"0.005": 4.91263173859,
			"0.006": 5.23773854433,
			"0.007": 5.27570841018,
			"0.008": 4.52997391573,
			"0.009": 4.72350893237,
			"0.01": 4.79018959268,
			"0.011": 6.80795230405,
			"0.012": 3.73130633399,
			"0.013": 1.91147325247,
			"0.014": 1.48858886966,
			"0.015": 0.608613660667,
			"0.016": 0.0,
			"0.017": 0.0,
			"0.018": 0.0,
			"0.019": 0.0,
			"0.02": 0.0,
			"0.021": 0.0,
			"0.022": 0.0,
			"0.023": 0.0,
			"0.024": 0.0,
			"0.025": 0.0
		}
	}
}
