{
	 "smiles": "CC1=C(C=CO1)C1=NN(CCO)C(N)=C1", 
	 "Tm": 402.15, 
	 "num_atms": 28, 
	 "gaussian": { 
		 "optdone": 1, 
		 "sigma_profile": "yes", 
		 "theory": "DFT", 
		 "functional": "B3LYP", 
		 "basiset": "6-31G**", 
		 "properties": { 
			 "R2extent": 4205.8309, 
			 "electric_dipole_moment_norm": 4.85951586169, 
			 "electric_quadrupole_moment_norm": 9.54912678626, 
			 "total_energy": -703.560631565, 
			 "HOMO_LUMO_gap": 0.20304, 
			 "cosmo_polarized_energy": -15.85, 
			 "cosmo_cavitation_energy": 31.48, 
			 "cosmo_dispersion_energy": -22.86, 
			 "cosmo_repulsion_energy": 1.81, 
			 "cosmo_total_nonelectrostatic_energy": 10.43, 
			 "SMD_solvation_energy": 5.52 
		},
		"coords": [
			{
				"x": 0.5900670141,
				"y": 3.3513790142,
				"z": 2.4413727284,
				"element": "C" 
			},
			{
				"x": 0.4878585866,
				"y": 1.9720925034,
				"z": 2.9950393606,
				"element": "C" 
			},
			{
				"x": 0.0811622379,
				"y": 0.7620828143,
				"z": 2.487120286,
				"element": "C" 
			},
			{
				"x": 0.2550501479,
				"y": -0.1957488789,
				"z": 3.5514150511,
				"element": "C" 
			},
			{
				"x": 0.7391109446,
				"y": 0.494985379,
				"z": 4.6125517942,
				"element": "C" 
			},
			{
				"x": 0.8876804239,
				"y": 1.8160334968,
				"z": 4.2938889591,
				"element": "O" 
			},
			{
				"x": -0.4209063989,
				"y": 0.4664569726,
				"z": 1.1488099361,
				"element": "C" 
			},
			{
				"x": -0.4190800837,
				"y": -0.7945762355,
				"z": 0.699221356,
				"element": "N" 
			},
			{
				"x": -0.9445657886,
				"y": -0.734702569,
				"z": -0.558476284,
				"element": "N" 
			},
			{
				"x": -1.0355839046,
				"y": -1.9401022414,
				"z": -1.3740390126,
				"element": "C" 
			},
			{
				"x": 0.2147539265,
				"y": -2.8180196229,
				"z": -1.234491023,
				"element": "C" 
			},
			{
				"x": 0.3271224384,
				"y": -3.4065154249,
				"z": 0.0394141806,
				"element": "O" 
			},
			{
				"x": -1.3080753599,
				"y": 0.5340631304,
				"z": -0.8920588292,
				"element": "C" 
			},
			{
				"x": -1.8388395087,
				"y": 0.827048507,
				"z": -2.153981187,
				"element": "N" 
			},
			{
				"x": -0.9813911271,
				"y": 1.343742468,
				"z": 0.1850996897,
				"element": "C" 
			},
			{
				"x": -0.308990803,
				"y": 3.9491797891,
				"z": 2.6414310549,
				"element": "H" 
			},
			{
				"x": 0.7388386717,
				"y": 3.318447705,
				"z": 1.3592491186,
				"element": "H" 
			},
			{
				"x": 1.4391114986,
				"y": 3.8742445522,
				"z": 2.891182693,
				"element": "H" 
			},
			{
				"x": 0.0314763877,
				"y": -1.2508237099,
				"z": 3.5027190793,
				"element": "H" 
			},
			{
				"x": 1.0200703545,
				"y": 0.2195389841,
				"z": 5.617046744,
				"element": "H" 
			},
			{
				"x": -1.9168032127,
				"y": -2.5245877252,
				"z": -1.0801812997,
				"element": "H" 
			},
			{
				"x": -1.1575026101,
				"y": -1.6126944266,
				"z": -2.4111030976,
				"element": "H" 
			},
			{
				"x": 0.1413147574,
				"y": -3.6321603332,
				"z": -1.9647450822,
				"element": "H" 
			},
			{
				"x": 1.0991616118,
				"y": -2.2144043002,
				"z": -1.4978791473,
				"element": "H" 
			},
			{
				"x": 0.2837437401,
				"y": -2.660763587,
				"z": 0.6668492169,
				"element": "H" 
			},
			{
				"x": -1.9708320155,
				"y": 1.8229846398,
				"z": -2.2785561415,
				"element": "H" 
			},
			{
				"x": -2.7113821617,
				"y": 0.3460777551,
				"z": -2.3487564183,
				"element": "H" 
			},
			{
				"x": -1.1750697671,
				"y": 2.4011413438,
				"z": 0.2770562739,
				"element": "H" 
			}
		],
		 "valence_orbital": [ 
			{
				"type": "occ",
				"energy": -0.2818,
				"method": "rhf"
			},
			{
				"type": "occ",
				"energy": -0.25087,
				"method": "rhf"
			},
			{
				"type": "occ",
				"energy": -0.23764,
				"method": "rhf"
			},
			{
				"type": "occ",
				"energy": -0.22086,
				"method": "rhf"
			},
			{
				"type": "occ",
				"energy": -0.20038,
				"method": "rhf"
			},
			{
				"type": "unocc",
				"energy": 0.00266,
				"method": "rhf"
			},
			{
				"type": "unocc",
				"energy": 0.02993,
				"method": "rhf"
			},
			{
				"type": "unocc",
				"energy": 0.05664,
				"method": "rhf"
			},
			{
				"type": "unocc",
				"energy": 0.06512,
				"method": "rhf"
			},
			{
				"type": "unocc",
				"energy": 0.10308,
				"method": "rhf"
			}
		],
		"cosmo_sigma_profile": { 
			"-0.025": 0.0,
			"-0.024": 0.0,
			"-0.023": 0.0,
			"-0.022": 0.0,
			"-0.021": 0.0,
			"-0.02": 0.0,
			"-0.019": 0.0,
			"-0.018": 0.0,
			"-0.017": 0.0,
			"-0.016": 0.0,
			"-0.015": 0.0,
			"-0.014": 0.0650440256461,
			"-0.013": 1.94537798095,
			"-0.012": 3.13324715452,
			"-0.011": 2.68955552031,
			"-0.01": 3.81456638336,
			"-0.009": 2.74879013313,
			"-0.008": 4.18622546884,
			"-0.007": 5.27931008994,
			"-0.006": 8.38929792694,
			"-0.005": 18.6106634151,
			"-0.004": 20.7365909902,
			"-0.003": 21.8983153531,
			"-0.002": 16.004105855,
			"-0.001": 17.7313577993,
			"0.0": 13.7184248929,
			"0.001": 10.3187882004,
			"0.002": 11.4706633986,
			"0.003": 14.8552975218,
			"0.004": 15.4493833317,
			"0.005": 17.369115746,
			"0.006": 12.8351482477,
			"0.007": 5.59154571052,
			"0.008": 4.62133206648,
			"0.009": 3.12521544988,
			"0.01": 2.299080753,
			"0.011": 1.57491445945,
			"0.012": 1.91144635368,
			"0.013": 2.09876323568,
			"0.014": 2.04434224693,
			"0.015": 2.49961393078,
			"0.016": 0.0553714891244,
			"0.017": 0.0,
			"0.018": 0.0,
			"0.019": 0.0,
			"0.02": 0.0,
			"0.021": 0.0,
			"0.022": 0.0,
			"0.023": 0.0,
			"0.024": 0.0,
			"0.025": 0.0
		}
	}
}
