{
	 "smiles": "O=C(NNC(=S)NCC1=CC=CC=C1)C(=O)C1=CNC2=C1C=CC=C2", 
	 "Tm": 516.15, 
	 "num_atms": 41, 
	 "gaussian": { 
		 "optdone": 1, 
		 "sigma_profile": "yes", 
		 "theory": "DFT", 
		 "functional": "B3LYP", 
		 "basiset": "6-31G**", 
		 "properties": { 
			 "R2extent": 12426.7469, 
			 "electric_dipole_moment_norm": 7.52360484143, 
			 "electric_quadrupole_moment_norm": 20.3182389345, 
			 "total_energy": -1463.20559443, 
			 "HOMO_LUMO_gap": 0.12276, 
			 "cosmo_polarized_energy": -24.93, 
			 "cosmo_cavitation_energy": 48.13, 
			 "cosmo_dispersion_energy": -33.69, 
			 "cosmo_repulsion_energy": 2.54, 
			 "cosmo_total_nonelectrostatic_energy": 16.98, 
			 "SMD_solvation_energy": 7.76 
		},
		"coords": [
			{
				"x": 0.5895916911,
				"y": -0.5803469195,
				"z": 1.7124917153,
				"element": "O" 
			},
			{
				"x": 0.8234112968,
				"y": 0.5056585647,
				"z": 1.1829857431,
				"element": "C" 
			},
			{
				"x": 2.0499710399,
				"y": 1.0769761622,
				"z": 1.1118448195,
				"element": "N" 
			},
			{
				"x": 3.1700466435,
				"y": 0.5682053347,
				"z": 1.7591831375,
				"element": "N" 
			},
			{
				"x": 3.9296203668,
				"y": -0.4822413998,
				"z": 1.2410412494,
				"element": "C" 
			},
			{
				"x": 5.584575125,
				"y": -0.5019148817,
				"z": 1.5046299819,
				"element": "S" 
			},
			{
				"x": 3.2084976432,
				"y": -1.4252906029,
				"z": 0.602358846,
				"element": "N" 
			},
			{
				"x": 3.8006778575,
				"y": -2.6362231284,
				"z": 0.0410059281,
				"element": "C" 
			},
			{
				"x": 2.8908159508,
				"y": -3.262724191,
				"z": -0.9947903528,
				"element": "C" 
			},
			{
				"x": 2.5425371034,
				"y": -4.6148917523,
				"z": -0.9081449435,
				"element": "C" 
			},
			{
				"x": 1.7315064216,
				"y": -5.2063493826,
				"z": -1.8794472443,
				"element": "C" 
			},
			{
				"x": 1.2524001172,
				"y": -4.4467306627,
				"z": -2.9467624314,
				"element": "C" 
			},
			{
				"x": 1.5904122179,
				"y": -3.0938228262,
				"z": -3.0395436338,
				"element": "C" 
			},
			{
				"x": 2.4051422197,
				"y": -2.5075493823,
				"z": -2.0721145839,
				"element": "C" 
			},
			{
				"x": -0.2237878614,
				"y": 1.3816946309,
				"z": 0.4496224846,
				"element": "C" 
			},
			{
				"x": 0.1887650939,
				"y": 2.3847542623,
				"z": -0.1408486829,
				"element": "O" 
			},
			{
				"x": -1.6131513964,
				"y": 0.9977084674,
				"z": 0.4942588819,
				"element": "C" 
			},
			{
				"x": -2.1740004611,
				"y": -0.1104541427,
				"z": 1.1242785251,
				"element": "C" 
			},
			{
				"x": -3.5187617213,
				"y": -0.1040836421,
				"z": 0.932498063,
				"element": "N" 
			},
			{
				"x": -3.8919106343,
				"y": 1.0023762724,
				"z": 0.1717263162,
				"element": "C" 
			},
			{
				"x": -2.7101771842,
				"y": 1.7228159039,
				"z": -0.1240610871,
				"element": "C" 
			},
			{
				"x": -2.8007621905,
				"y": 2.8963044355,
				"z": -0.8874592658,
				"element": "C" 
			},
			{
				"x": -4.0557955352,
				"y": 3.3075655787,
				"z": -1.3261107371,
				"element": "C" 
			},
			{
				"x": -5.2181030226,
				"y": 2.5743915621,
				"z": -1.0196025276,
				"element": "C" 
			},
			{
				"x": -5.1544398457,
				"y": 1.4072660243,
				"z": -0.2638763189,
				"element": "C" 
			},
			{
				"x": 2.1318804915,
				"y": 1.9076829746,
				"z": 0.5310212272,
				"element": "H" 
			},
			{
				"x": 3.7310456815,
				"y": 1.2756418584,
				"z": 2.2153275397,
				"element": "H" 
			},
			{
				"x": 2.2155505764,
				"y": -1.4600827149,
				"z": 0.8273735372,
				"element": "H" 
			},
			{
				"x": 4.0251050585,
				"y": -3.3572520981,
				"z": 0.8380589959,
				"element": "H" 
			},
			{
				"x": 4.7635119985,
				"y": -2.3519336294,
				"z": -0.3954883893,
				"element": "H" 
			},
			{
				"x": 2.9093631979,
				"y": -5.2090183531,
				"z": -0.0747761442,
				"element": "H" 
			},
			{
				"x": 1.4714377257,
				"y": -6.2579458283,
				"z": -1.7978563478,
				"element": "H" 
			},
			{
				"x": 0.6193493595,
				"y": -4.9038214538,
				"z": -3.7019207591,
				"element": "H" 
			},
			{
				"x": 1.2218627774,
				"y": -2.4964681286,
				"z": -3.8687633124,
				"element": "H" 
			},
			{
				"x": 2.6676943321,
				"y": -1.455701621,
				"z": -2.1466423568,
				"element": "H" 
			},
			{
				"x": -1.6764773746,
				"y": -0.8852906907,
				"z": 1.6854790845,
				"element": "H" 
			},
			{
				"x": -4.1511895779,
				"y": -0.8042386192,
				"z": 1.2886359736,
				"element": "H" 
			},
			{
				"x": -1.9043584595,
				"y": 3.4575389992,
				"z": -1.1217304419,
				"element": "H" 
			},
			{
				"x": -4.1433853887,
				"y": 4.2136843814,
				"z": -1.9181819268,
				"element": "H" 
			},
			{
				"x": -6.1813496791,
				"y": 2.9243361334,
				"z": -1.3782840569,
				"element": "H" 
			},
			{
				"x": -6.048621655,
				"y": 0.8388745054,
				"z": -0.0252165056,
				"element": "H" 
			}
		],
		 "valence_orbital": [ 
			{
				"type": "occ",
				"energy": -0.24459,
				"method": "rhf"
			},
			{
				"type": "occ",
				"energy": -0.24287,
				"method": "rhf"
			},
			{
				"type": "occ",
				"energy": -0.229,
				"method": "rhf"
			},
			{
				"type": "occ",
				"energy": -0.22097,
				"method": "rhf"
			},
			{
				"type": "occ",
				"energy": -0.20413,
				"method": "rhf"
			},
			{
				"type": "unocc",
				"energy": -0.08137,
				"method": "rhf"
			},
			{
				"type": "unocc",
				"energy": -0.02462,
				"method": "rhf"
			},
			{
				"type": "unocc",
				"energy": -0.01212,
				"method": "rhf"
			},
			{
				"type": "unocc",
				"energy": -0.00754,
				"method": "rhf"
			},
			{
				"type": "unocc",
				"energy": -0.00261,
				"method": "rhf"
			}
		],
		"cosmo_sigma_profile": { 
			"-0.025": 0.0,
			"-0.024": 0.0,
			"-0.023": 0.0,
			"-0.022": 0.0,
			"-0.021": 0.0,
			"-0.02": 0.0,
			"-0.019": 0.0,
			"-0.018": 0.0137240449114,
			"-0.017": 1.37659181846,
			"-0.016": 2.87940801634,
			"-0.015": 3.19836050007,
			"-0.014": 3.73832926866,
			"-0.013": 2.90320467965,
			"-0.012": 2.32788122747,
			"-0.011": 2.28385480617,
			"-0.01": 3.0897371983,
			"-0.009": 3.51741231663,
			"-0.008": 3.94803719455,
			"-0.007": 5.14597972982,
			"-0.006": 14.2065518314,
			"-0.005": 26.3244651581,
			"-0.004": 29.932087182,
			"-0.003": 29.312237114,
			"-0.002": 24.2701925527,
			"-0.001": 22.633170011,
			"0.0": 21.2614951776,
			"0.001": 25.5323928233,
			"0.002": 23.2073230107,
			"0.003": 24.9138693098,
			"0.004": 24.7790421216,
			"0.005": 26.0784001085,
			"0.006": 17.4633718971,
			"0.007": 7.51072884472,
			"0.008": 7.08996853569,
			"0.009": 10.8487854719,
			"0.01": 10.542129824,
			"0.011": 7.38203393818,
			"0.012": 0.883383780724,
			"0.013": 0.0,
			"0.014": 0.0,
			"0.015": 0.0,
			"0.016": 0.0,
			"0.017": 0.0,
			"0.018": 0.0,
			"0.019": 0.0,
			"0.02": 0.0,
			"0.021": 0.0,
			"0.022": 0.0,
			"0.023": 0.0,
			"0.024": 0.0,
			"0.025": 0.0
		}
	}
}
