{
	 "smiles": "CSC1=NC2=C(O1)C=CN=C2", 
	 "Tm": 359.15, 
	 "num_atms": 17, 
	 "gaussian": { 
		 "optdone": 1, 
		 "sigma_profile": "yes", 
		 "theory": "DFT", 
		 "functional": "B3LYP", 
		 "basiset": "6-31G**", 
		 "properties": { 
			 "R2extent": 2944.7255, 
			 "electric_dipole_moment_norm": 4.36353460053, 
			 "electric_quadrupole_moment_norm": 7.9295867118, 
			 "total_energy": -853.257391483, 
			 "HOMO_LUMO_gap": 0.19634, 
			 "cosmo_polarized_energy": -9.86, 
			 "cosmo_cavitation_energy": 23.32, 
			 "cosmo_dispersion_energy": -18.14, 
			 "cosmo_repulsion_energy": 1.4, 
			 "cosmo_total_nonelectrostatic_energy": 6.58, 
			 "SMD_solvation_energy": 1.04 
		},
		"coords": [
			{
				"x": 1.9109019314,
				"y": 2.4601949723,
				"z": 0.3318426639,
				"element": "C" 
			},
			{
				"x": 0.6540660773,
				"y": 2.2495681207,
				"z": 1.6449454649,
				"element": "S" 
			},
			{
				"x": -0.635760399,
				"y": 1.4626774678,
				"z": 0.7607770047,
				"element": "C" 
			},
			{
				"x": -1.7718831795,
				"y": 1.0963218358,
				"z": 1.2589270354,
				"element": "N" 
			},
			{
				"x": -2.4419977178,
				"y": 0.5274726135,
				"z": 0.1742988269,
				"element": "C" 
			},
			{
				"x": -1.62369725,
				"y": 0.5933985083,
				"z": -0.9581835305,
				"element": "C" 
			},
			{
				"x": -0.4477982275,
				"y": 1.1999349175,
				"z": -0.5854732661,
				"element": "O" 
			},
			{
				"x": -2.0171733628,
				"y": 0.1066584646,
				"z": -2.1916970199,
				"element": "C" 
			},
			{
				"x": -3.300352183,
				"y": -0.4538367055,
				"z": -2.2019162137,
				"element": "C" 
			},
			{
				"x": -4.1172638321,
				"y": -0.5363035944,
				"z": -1.1364046709,
				"element": "N" 
			},
			{
				"x": -3.7046631158,
				"y": -0.0555676861,
				"z": 0.0410902911,
				"element": "C" 
			},
			{
				"x": 2.7534594834,
				"y": 2.9516949556,
				"z": 0.8217215623,
				"element": "H" 
			},
			{
				"x": 2.2298389292,
				"y": 1.4956324422,
				"z": -0.0635355507,
				"element": "H" 
			},
			{
				"x": 1.5352659399,
				"y": 3.0935056345,
				"z": -0.4720526799,
				"element": "H" 
			},
			{
				"x": -1.3960667612,
				"y": 0.1496602509,
				"z": -3.0787513119,
				"element": "H" 
			},
			{
				"x": -3.6939042988,
				"y": -0.8624801573,
				"z": -3.1300449762,
				"element": "H" 
			},
			{
				"x": -4.3829720336,
				"y": -0.1339320403,
				"z": 0.8872563705,
				"element": "H" 
			}
		],
		 "valence_orbital": [ 
			{
				"type": "occ",
				"energy": -0.30409,
				"method": "rhf"
			},
			{
				"type": "occ",
				"energy": -0.29622,
				"method": "rhf"
			},
			{
				"type": "occ",
				"energy": -0.27241,
				"method": "rhf"
			},
			{
				"type": "occ",
				"energy": -0.25759,
				"method": "rhf"
			},
			{
				"type": "occ",
				"energy": -0.23123,
				"method": "rhf"
			},
			{
				"type": "unocc",
				"energy": -0.03489,
				"method": "rhf"
			},
			{
				"type": "unocc",
				"energy": -0.01405,
				"method": "rhf"
			},
			{
				"type": "unocc",
				"energy": 0.00706,
				"method": "rhf"
			},
			{
				"type": "unocc",
				"energy": 0.0267,
				"method": "rhf"
			},
			{
				"type": "unocc",
				"energy": 0.0634,
				"method": "rhf"
			}
		],
		"cosmo_sigma_profile": { 
			"-0.025": 0.0,
			"-0.024": 0.0,
			"-0.023": 0.0,
			"-0.022": 0.0,
			"-0.021": 0.0,
			"-0.02": 0.0,
			"-0.019": 0.0,
			"-0.018": 0.0,
			"-0.017": 0.0,
			"-0.016": 0.0,
			"-0.015": 0.0,
			"-0.014": 0.0,
			"-0.013": 0.0,
			"-0.012": 0.0,
			"-0.011": 0.0,
			"-0.01": 0.0,
			"-0.009": 0.79609600146,
			"-0.008": 4.46813815866,
			"-0.007": 9.80152002169,
			"-0.006": 11.1538827075,
			"-0.005": 13.2334165413,
			"-0.004": 11.437402114,
			"-0.003": 16.596398418,
			"-0.002": 12.2582209234,
			"-0.001": 13.9415724115,
			"0.0": 14.8157730138,
			"0.001": 16.7723996662,
			"0.002": 15.4951280614,
			"0.003": 11.4569091664,
			"0.004": 8.26402621324,
			"0.005": 6.81368845398,
			"0.006": 4.05013682118,
			"0.007": 2.81291551157,
			"0.008": 2.11594739442,
			"0.009": 1.86938101054,
			"0.01": 3.23949139534,
			"0.011": 1.36468246146,
			"0.012": 1.52606849216,
			"0.013": 1.91129117889,
			"0.014": 2.03548024339,
			"0.015": 0.83183087451,
			"0.016": 0.95507240626,
			"0.017": 0.162334332543,
			"0.018": 0.0,
			"0.019": 0.0,
			"0.02": 0.0,
			"0.021": 0.0,
			"0.022": 0.0,
			"0.023": 0.0,
			"0.024": 0.0,
			"0.025": 0.0
		}
	}
}
