{
	 "smiles": "CCOC(=O)C=CC1=CC=C(C=C1)N=[N+]([O-])C1=CC=C(C=CC(=O)OCC)C=C1", 
	 "Tm": 414.15, 
	 "num_atms": 51, 
	 "gaussian": { 
		 "optdone": 1, 
		 "sigma_profile": "yes", 
		 "theory": "DFT", 
		 "functional": "B3LYP", 
		 "basiset": "6-31G**", 
		 "properties": { 
			 "R2extent": 21611.5316, 
			 "electric_dipole_moment_norm": 4.4313239173, 
			 "electric_quadrupole_moment_norm": 29.691129948, 
			 "total_energy": -1337.12879118, 
			 "HOMO_LUMO_gap": 0.12508, 
			 "cosmo_polarized_energy": -23.31, 
			 "cosmo_cavitation_energy": 58.39, 
			 "cosmo_dispersion_energy": -40.07, 
			 "cosmo_repulsion_energy": 3.08, 
			 "cosmo_total_nonelectrostatic_energy": 21.39, 
			 "SMD_solvation_energy": 12.33 
		},
		"coords": [
			{
				"x": -3.9596977304,
				"y": -5.068716432,
				"z": -2.8566878335,
				"element": "C" 
			},
			{
				"x": -3.581333902,
				"y": -5.5700934722,
				"z": -1.4757367074,
				"element": "C" 
			},
			{
				"x": -3.281463108,
				"y": -4.41649747,
				"z": -0.6615699967,
				"element": "O" 
			},
			{
				"x": -2.9234865666,
				"y": -4.6803441251,
				"z": 0.6197087308,
				"element": "C" 
			},
			{
				"x": -2.8511441958,
				"y": -5.8081270622,
				"z": 1.0733734202,
				"element": "O" 
			},
			{
				"x": -2.6305438035,
				"y": -3.4674553903,
				"z": 1.4071280777,
				"element": "C" 
			},
			{
				"x": -2.6998292766,
				"y": -2.2125026795,
				"z": 0.922290454,
				"element": "C" 
			},
			{
				"x": -2.4228916906,
				"y": -0.9700522281,
				"z": 1.6404475149,
				"element": "C" 
			},
			{
				"x": -2.5072959874,
				"y": 0.2501984686,
				"z": 0.9439024373,
				"element": "C" 
			},
			{
				"x": -2.2457203594,
				"y": 1.465772362,
				"z": 1.5635974623,
				"element": "C" 
			},
			{
				"x": -1.8846744238,
				"y": 1.4991997462,
				"z": 2.9225742428,
				"element": "C" 
			},
			{
				"x": -1.8400477218,
				"y": 0.2883743193,
				"z": 3.6411366523,
				"element": "C" 
			},
			{
				"x": -2.0878251466,
				"y": -0.9198041922,
				"z": 3.009402729,
				"element": "C" 
			},
			{
				"x": -1.7129463637,
				"y": 2.677135766,
				"z": 3.6684967016,
				"element": "N" 
			},
			{
				"x": -1.0371701756,
				"y": 3.659191917,
				"z": 3.1949239369,
				"element": "N" 
			},
			{
				"x": -1.0839678068,
				"y": 4.7876063796,
				"z": 3.7269856899,
				"element": "O" 
			},
			{
				"x": -0.0845793143,
				"y": 3.5663561505,
				"z": 2.0717774438,
				"element": "C" 
			},
			{
				"x": 0.8353009997,
				"y": 2.5185410399,
				"z": 1.9989605788,
				"element": "C" 
			},
			{
				"x": 1.7769437544,
				"y": 2.5182052874,
				"z": 0.9782253256,
				"element": "C" 
			},
			{
				"x": 1.8074200609,
				"y": 3.5459608224,
				"z": 0.0147073101,
				"element": "C" 
			},
			{
				"x": 2.7680164847,
				"y": 3.5813009058,
				"z": -1.0890518849,
				"element": "C" 
			},
			{
				"x": 3.7166895076,
				"y": 2.673725958,
				"z": -1.3788542978,
				"element": "C" 
			},
			{
				"x": 4.6044255301,
				"y": 2.8800375232,
				"z": -2.5455681074,
				"element": "C" 
			},
			{
				"x": 4.5594122556,
				"y": 3.8289516577,
				"z": -3.3069887873,
				"element": "O" 
			},
			{
				"x": 5.4889207689,
				"y": 1.8610022786,
				"z": -2.6522409411,
				"element": "O" 
			},
			{
				"x": 6.4237906106,
				"y": 1.93165446,
				"z": -3.7549961714,
				"element": "C" 
			},
			{
				"x": 5.8226737108,
				"y": 1.3546405102,
				"z": -5.0281705228,
				"element": "C" 
			},
			{
				"x": 0.8719995154,
				"y": 4.5917848767,
				"z": 0.1283482734,
				"element": "C" 
			},
			{
				"x": -0.0609090165,
				"y": 4.6176937306,
				"z": 1.1593029559,
				"element": "C" 
			},
			{
				"x": -4.1958419841,
				"y": -5.9160463255,
				"z": -3.5079533323,
				"element": "H" 
			},
			{
				"x": -3.1367731538,
				"y": -4.5071739812,
				"z": -3.3086401621,
				"element": "H" 
			},
			{
				"x": -4.836901425,
				"y": -4.4167875857,
				"z": -2.8097537045,
				"element": "H" 
			},
			{
				"x": -4.3938871598,
				"y": -6.1342256135,
				"z": -1.0066461696,
				"element": "H" 
			},
			{
				"x": -2.7036687959,
				"y": -6.2240653266,
				"z": -1.5022260821,
				"element": "H" 
			},
			{
				"x": -2.3467283467,
				"y": -3.6846621434,
				"z": 2.4316771874,
				"element": "H" 
			},
			{
				"x": -2.9886122113,
				"y": -2.0961939136,
				"z": -0.1199041471,
				"element": "H" 
			},
			{
				"x": -2.7910145868,
				"y": 0.2403871783,
				"z": -0.1052367732,
				"element": "H" 
			},
			{
				"x": -2.3421663704,
				"y": 2.3899569019,
				"z": 1.0042807547,
				"element": "H" 
			},
			{
				"x": -1.6050408245,
				"y": 0.3246609325,
				"z": 4.6999278469,
				"element": "H" 
			},
			{
				"x": -2.0340378862,
				"y": -1.8361206238,
				"z": 3.5884010488,
				"element": "H" 
			},
			{
				"x": 0.8208551505,
				"y": 1.7222278848,
				"z": 2.7334425606,
				"element": "H" 
			},
			{
				"x": 2.4990589769,
				"y": 1.7100382096,
				"z": 0.9333773541,
				"element": "H" 
			},
			{
				"x": 2.704797095,
				"y": 4.4419640765,
				"z": -1.7528956704,
				"element": "H" 
			},
			{
				"x": 3.8799748703,
				"y": 1.7723582181,
				"z": -0.7974818633,
				"element": "H" 
			},
			{
				"x": 6.7219646247,
				"y": 2.97310759,
				"z": -3.8974643759,
				"element": "H" 
			},
			{
				"x": 7.2846688092,
				"y": 1.3490432849,
				"z": -3.418439516,
				"element": "H" 
			},
			{
				"x": 5.4851349202,
				"y": 0.3262984756,
				"z": -4.8688145484,
				"element": "H" 
			},
			{
				"x": 6.5745335606,
				"y": 1.3502005276,
				"z": -5.8243438943,
				"element": "H" 
			},
			{
				"x": 4.9753976173,
				"y": 1.9592301,
				"z": -5.3605757471,
				"element": "H" 
			},
			{
				"x": 0.8884314807,
				"y": 5.3993364025,
				"z": -0.5977141615,
				"element": "H" 
			},
			{
				"x": -0.7585109704,
				"y": 5.4389246233,
				"z": 1.2736587082,
				"element": "H" 
			}
		],
		 "valence_orbital": [ 
			{
				"type": "occ",
				"energy": -0.27432,
				"method": "rhf"
			},
			{
				"type": "occ",
				"energy": -0.27105,
				"method": "rhf"
			},
			{
				"type": "occ",
				"energy": -0.26694,
				"method": "rhf"
			},
			{
				"type": "occ",
				"energy": -0.2533,
				"method": "rhf"
			},
			{
				"type": "occ",
				"energy": -0.22361,
				"method": "rhf"
			},
			{
				"type": "unocc",
				"energy": -0.09853,
				"method": "rhf"
			},
			{
				"type": "unocc",
				"energy": -0.0738,
				"method": "rhf"
			},
			{
				"type": "unocc",
				"energy": -0.04981,
				"method": "rhf"
			},
			{
				"type": "unocc",
				"energy": -0.03462,
				"method": "rhf"
			},
			{
				"type": "unocc",
				"energy": -0.01871,
				"method": "rhf"
			}
		],
		"cosmo_sigma_profile": { 
			"-0.025": 0.0,
			"-0.024": 0.0,
			"-0.023": 0.0,
			"-0.022": 0.0,
			"-0.021": 0.0,
			"-0.02": 0.0,
			"-0.019": 0.0,
			"-0.018": 0.0,
			"-0.017": 0.0,
			"-0.016": 0.0,
			"-0.015": 0.0,
			"-0.014": 0.0,
			"-0.013": 0.0,
			"-0.012": 0.0,
			"-0.011": 0.0,
			"-0.01": 0.392126654064,
			"-0.009": 2.91976200938,
			"-0.008": 10.6654619979,
			"-0.007": 20.3306690164,
			"-0.006": 21.901318847,
			"-0.005": 26.0804763632,
			"-0.004": 35.5098988591,
			"-0.003": 39.1943297374,
			"-0.002": 38.3581940758,
			"-0.001": 38.4325924035,
			"0.0": 43.2125404808,
			"0.001": 41.7548111343,
			"0.002": 38.1176921208,
			"0.003": 25.747307119,
			"0.004": 10.3564139977,
			"0.005": 8.73460159173,
			"0.006": 8.6533084556,
			"0.007": 5.37578981573,
			"0.008": 6.52373466537,
			"0.009": 8.82955783847,
			"0.01": 9.13673892819,
			"0.011": 7.25345218087,
			"0.012": 12.0453383155,
			"0.013": 5.49559322251,
			"0.014": 0.244714730705,
			"0.015": 0.0,
			"0.016": 0.0,
			"0.017": 0.0,
			"0.018": 0.0,
			"0.019": 0.0,
			"0.02": 0.0,
			"0.021": 0.0,
			"0.022": 0.0,
			"0.023": 0.0,
			"0.024": 0.0,
			"0.025": 0.0
		}
	}
}
