{
	 "smiles": "SCCCCCS", 
	 "Tm": 201.15, 
	 "num_atms": 19, 
	 "gaussian": { 
		 "optdone": 1, 
		 "sigma_profile": "yes", 
		 "theory": "DFT", 
		 "functional": "B3LYP", 
		 "basiset": "6-31G**", 
		 "properties": { 
			 "R2extent": 2754.1689, 
			 "electric_dipole_moment_norm": 1.58594309167, 
			 "electric_quadrupole_moment_norm": 11.6196118601, 
			 "total_energy": -994.144278739, 
			 "HOMO_LUMO_gap": 0.25962, 
			 "cosmo_polarized_energy": -6.97, 
			 "cosmo_cavitation_energy": 24.13, 
			 "cosmo_dispersion_energy": -18.5, 
			 "cosmo_repulsion_energy": 1.49, 
			 "cosmo_total_nonelectrostatic_energy": 7.12, 
			 "SMD_solvation_energy": 2.81 
		},
		"coords": [
			{
				"x": -1.0314765464,
				"y": 2.3212026047,
				"z": 1.9261154635,
				"element": "S" 
			},
			{
				"x": 0.7737929899,
				"y": 2.3711045012,
				"z": 1.5319043146,
				"element": "C" 
			},
			{
				"x": 1.3276539842,
				"y": 1.1513928092,
				"z": 0.787190817,
				"element": "C" 
			},
			{
				"x": 0.7494599781,
				"y": 0.966559324,
				"z": -0.622460455,
				"element": "C" 
			},
			{
				"x": 1.2071904116,
				"y": -0.2962719026,
				"z": -1.3763199876,
				"element": "C" 
			},
			{
				"x": 2.5589699373,
				"y": -0.2308152221,
				"z": -2.1005259973,
				"element": "C" 
			},
			{
				"x": 4.0858644919,
				"y": -0.1896267698,
				"z": -1.0609578873,
				"element": "S" 
			},
			{
				"x": -0.9773220137,
				"y": 1.2739668881,
				"z": 2.7748830635,
				"element": "H" 
			},
			{
				"x": 0.8866647252,
				"y": 3.2769664364,
				"z": 0.9269746748,
				"element": "H" 
			},
			{
				"x": 1.3213497038,
				"y": 2.5385285721,
				"z": 2.4629237668,
				"element": "H" 
			},
			{
				"x": 2.4166830393,
				"y": 1.2581160129,
				"z": 0.7348691454,
				"element": "H" 
			},
			{
				"x": 1.1375465479,
				"y": 0.2475333087,
				"z": 1.3826032433,
				"element": "H" 
			},
			{
				"x": -0.3430140283,
				"y": 0.9376219982,
				"z": -0.5396702463,
				"element": "H" 
			},
			{
				"x": 0.9823733144,
				"y": 1.8530642851,
				"z": -1.2302221688,
				"element": "H" 
			},
			{
				"x": 1.191264111,
				"y": -1.1630470618,
				"z": -0.7017800649,
				"element": "H" 
			},
			{
				"x": 0.4638024503,
				"y": -0.5143273048,
				"z": -2.155642824,
				"element": "H" 
			},
			{
				"x": 2.6251560921,
				"y": 0.6842940057,
				"z": -2.698342054,
				"element": "H" 
			},
			{
				"x": 2.6534354116,
				"y": -1.0707482019,
				"z": -2.7942656239,
				"element": "H" 
			},
			{
				"x": 3.9036053998,
				"y": -1.3847142832,
				"z": -0.4622771797,
				"element": "H" 
			}
		],
		 "valence_orbital": [ 
			{
				"type": "occ",
				"energy": -0.33414,
				"method": "rhf"
			},
			{
				"type": "occ",
				"energy": -0.3175,
				"method": "rhf"
			},
			{
				"type": "occ",
				"energy": -0.31081,
				"method": "rhf"
			},
			{
				"type": "occ",
				"energy": -0.23702,
				"method": "rhf"
			},
			{
				"type": "occ",
				"energy": -0.2332,
				"method": "rhf"
			},
			{
				"type": "unocc",
				"energy": 0.02642,
				"method": "rhf"
			},
			{
				"type": "unocc",
				"energy": 0.03089,
				"method": "rhf"
			},
			{
				"type": "unocc",
				"energy": 0.07015,
				"method": "rhf"
			},
			{
				"type": "unocc",
				"energy": 0.07417,
				"method": "rhf"
			},
			{
				"type": "unocc",
				"energy": 0.09225,
				"method": "rhf"
			}
		],
		"cosmo_sigma_profile": { 
			"-0.025": 0.0,
			"-0.024": 0.0,
			"-0.023": 0.0,
			"-0.022": 0.0,
			"-0.021": 0.0,
			"-0.02": 0.0,
			"-0.019": 0.0,
			"-0.018": 0.0,
			"-0.017": 0.0,
			"-0.016": 0.0,
			"-0.015": 0.0,
			"-0.014": 0.0,
			"-0.013": 0.0,
			"-0.012": 0.0,
			"-0.011": 0.0,
			"-0.01": 0.0,
			"-0.009": 0.755607676833,
			"-0.008": 4.19048396206,
			"-0.007": 4.13716918354,
			"-0.006": 3.91677449571,
			"-0.005": 10.7703093025,
			"-0.004": 15.6022595803,
			"-0.003": 21.3107664008,
			"-0.002": 25.2094561194,
			"-0.001": 20.7187654033,
			"0.0": 14.7963816696,
			"0.001": 10.9410775812,
			"0.002": 7.23581817937,
			"0.003": 8.73239812621,
			"0.004": 6.52240655634,
			"0.005": 8.38852233751,
			"0.006": 8.50145584635,
			"0.007": 5.1943618611,
			"0.008": 5.84358439229,
			"0.009": 3.44115968837,
			"0.01": 3.4263592156,
			"0.011": 1.91023673817,
			"0.012": 0.373183784563,
			"0.013": 0.0,
			"0.014": 0.0,
			"0.015": 0.0,
			"0.016": 0.0,
			"0.017": 0.0,
			"0.018": 0.0,
			"0.019": 0.0,
			"0.02": 0.0,
			"0.021": 0.0,
			"0.022": 0.0,
			"0.023": 0.0,
			"0.024": 0.0,
			"0.025": 0.0
		}
	}
}
