{
	 "smiles": "CCCCCCCCCC=C", 
	 "Tm": 223.95, 
	 "num_atms": 33, 
	 "gaussian": { 
		 "optdone": 1, 
		 "sigma_profile": "yes", 
		 "theory": "DFT", 
		 "functional": "B3LYP", 
		 "basiset": "6-31G**", 
		 "properties": { 
			 "R2extent": 3713.5217, 
			 "electric_dipole_moment_norm": 0.272786839859, 
			 "electric_quadrupole_moment_norm": 2.3856494315, 
			 "total_energy": -432.43460886, 
			 "HOMO_LUMO_gap": 0.27374, 
			 "cosmo_polarized_energy": -1.76, 
			 "cosmo_cavitation_energy": 33.55, 
			 "cosmo_dispersion_energy": -22.89, 
			 "cosmo_repulsion_energy": 1.9, 
			 "cosmo_total_nonelectrostatic_energy": 12.56, 
			 "SMD_solvation_energy": 5.39 
		},
		"coords": [
			{
				"x": 1.8476251963,
				"y": -2.8112723952,
				"z": -0.5686757073,
				"element": "C" 
			},
			{
				"x": 2.0643367064,
				"y": -1.8651999997,
				"z": -1.7556417175,
				"element": "C" 
			},
			{
				"x": 0.7709159308,
				"y": -1.4479072635,
				"z": -2.4783867163,
				"element": "C" 
			},
			{
				"x": -0.2428737007,
				"y": -0.6524964098,
				"z": -1.6366324475,
				"element": "C" 
			},
			{
				"x": 0.2669905131,
				"y": 0.7165574852,
				"z": -1.1607677218,
				"element": "C" 
			},
			{
				"x": -0.7908073285,
				"y": 1.5835308204,
				"z": -0.4555269288,
				"element": "C" 
			},
			{
				"x": -1.2634584003,
				"y": 1.033461318,
				"z": 0.8985420724,
				"element": "C" 
			},
			{
				"x": -2.329357181,
				"y": 1.895576447,
				"z": 1.595630428,
				"element": "C" 
			},
			{
				"x": -1.8479673091,
				"y": 3.2860629679,
				"z": 2.0662576818,
				"element": "C" 
			},
			{
				"x": -0.7699019646,
				"y": 3.2214927813,
				"z": 3.1140769377,
				"element": "C" 
			},
			{
				"x": 0.440957448,
				"y": 3.7721551182,
				"z": 3.0163983402,
				"element": "C" 
			},
			{
				"x": 1.3095537455,
				"y": -3.7154331673,
				"z": -0.8772964379,
				"element": "H" 
			},
			{
				"x": 1.2667449685,
				"y": -2.3387805649,
				"z": 0.2303545695,
				"element": "H" 
			},
			{
				"x": 2.8030320631,
				"y": -3.1256179165,
				"z": -0.1355708256,
				"element": "H" 
			},
			{
				"x": 2.6067058805,
				"y": -0.9732330806,
				"z": -1.4171219016,
				"element": "H" 
			},
			{
				"x": 2.7224301127,
				"y": -2.3543185686,
				"z": -2.4853670845,
				"element": "H" 
			},
			{
				"x": 1.038468321,
				"y": -0.8524421325,
				"z": -3.3623248761,
				"element": "H" 
			},
			{
				"x": 0.277007062,
				"y": -2.3521069502,
				"z": -2.8605179302,
				"element": "H" 
			},
			{
				"x": -0.5590704809,
				"y": -1.2557500129,
				"z": -0.7769246695,
				"element": "H" 
			},
			{
				"x": -1.1474495717,
				"y": -0.4981609347,
				"z": -2.2413710196,
				"element": "H" 
			},
			{
				"x": 0.6500680399,
				"y": 1.2675033177,
				"z": -2.03111006,
				"element": "H" 
			},
			{
				"x": 1.1238148655,
				"y": 0.584795377,
				"z": -0.4863469012,
				"element": "H" 
			},
			{
				"x": -1.6591460666,
				"y": 1.7071557903,
				"z": -1.1195823648,
				"element": "H" 
			},
			{
				"x": -0.3729826445,
				"y": 2.5877536432,
				"z": -0.312139584,
				"element": "H" 
			},
			{
				"x": -1.6765851026,
				"y": 0.026899448,
				"z": 0.7596137715,
				"element": "H" 
			},
			{
				"x": -0.3960202029,
				"y": 0.9218539601,
				"z": 1.5630003461,
				"element": "H" 
			},
			{
				"x": -2.7136763976,
				"y": 1.3482182722,
				"z": 2.4669787126,
				"element": "H" 
			},
			{
				"x": -3.1854432059,
				"y": 2.0308672151,
				"z": 0.9210711769,
				"element": "H" 
			},
			{
				"x": -1.4986275642,
				"y": 3.8811111272,
				"z": 1.2144074541,
				"element": "H" 
			},
			{
				"x": -2.7154725361,
				"y": 3.8205232562,
				"z": 2.479980107,
				"element": "H" 
			},
			{
				"x": -1.0251198836,
				"y": 2.6682663565,
				"z": 4.0202407125,
				"element": "H" 
			},
			{
				"x": 0.7427515876,
				"y": 4.3318782374,
				"z": 2.1337612795,
				"element": "H" 
			},
			{
				"x": 1.1733570997,
				"y": 3.6913564573,
				"z": 3.8144913041,
				"element": "H" 
			}
		],
		 "valence_orbital": [ 
			{
				"type": "occ",
				"energy": -0.31531,
				"method": "rhf"
			},
			{
				"type": "occ",
				"energy": -0.30612,
				"method": "rhf"
			},
			{
				"type": "occ",
				"energy": -0.30094,
				"method": "rhf"
			},
			{
				"type": "occ",
				"energy": -0.29853,
				"method": "rhf"
			},
			{
				"type": "occ",
				"energy": -0.24994,
				"method": "rhf"
			},
			{
				"type": "unocc",
				"energy": 0.0238,
				"method": "rhf"
			},
			{
				"type": "unocc",
				"energy": 0.08382,
				"method": "rhf"
			},
			{
				"type": "unocc",
				"energy": 0.09727,
				"method": "rhf"
			},
			{
				"type": "unocc",
				"energy": 0.10501,
				"method": "rhf"
			},
			{
				"type": "unocc",
				"energy": 0.11722,
				"method": "rhf"
			}
		],
		"cosmo_sigma_profile": { 
			"-0.025": 0.0,
			"-0.024": 0.0,
			"-0.023": 0.0,
			"-0.022": 0.0,
			"-0.021": 0.0,
			"-0.02": 0.0,
			"-0.019": 0.0,
			"-0.018": 0.0,
			"-0.017": 0.0,
			"-0.016": 0.0,
			"-0.015": 0.0,
			"-0.014": 0.0,
			"-0.013": 0.0,
			"-0.012": 0.0,
			"-0.011": 0.0,
			"-0.01": 0.0,
			"-0.009": 0.0,
			"-0.008": 0.0,
			"-0.007": 0.0,
			"-0.006": 0.0,
			"-0.005": 0.949545100764,
			"-0.004": 4.99989936554,
			"-0.003": 11.8615077213,
			"-0.002": 34.980093025,
			"-0.001": 52.8351177939,
			"0.0": 58.2741679731,
			"0.001": 52.3714307695,
			"0.002": 22.9004949281,
			"0.003": 5.43867811412,
			"0.004": 4.35379700613,
			"0.005": 3.82639248705,
			"0.006": 3.50003392876,
			"0.007": 1.33672253211,
			"0.008": 0.333048395621,
			"0.009": 0.0,
			"0.01": 0.0,
			"0.011": 0.0,
			"0.012": 0.0,
			"0.013": 0.0,
			"0.014": 0.0,
			"0.015": 0.0,
			"0.016": 0.0,
			"0.017": 0.0,
			"0.018": 0.0,
			"0.019": 0.0,
			"0.02": 0.0,
			"0.021": 0.0,
			"0.022": 0.0,
			"0.023": 0.0,
			"0.024": 0.0,
			"0.025": 0.0
		}
	}
}
