{
	 "smiles": "CN1C=CC=C1C(=O)NC1CCNCC1", 
	 "Tm": 469.15, 
	 "num_atms": 32, 
	 "gaussian": { 
		 "optdone": 1, 
		 "sigma_profile": "yes", 
		 "theory": "DFT", 
		 "functional": "B3LYP", 
		 "basiset": "6-31G**", 
		 "properties": { 
			 "R2extent": 4392.1536, 
			 "electric_dipole_moment_norm": 3.73642589783, 
			 "electric_quadrupole_moment_norm": 18.1041615299, 
			 "total_energy": -668.885829631, 
			 "HOMO_LUMO_gap": 0.20143, 
			 "cosmo_polarized_energy": -17.34, 
			 "cosmo_cavitation_energy": 33.27, 
			 "cosmo_dispersion_energy": -23.79, 
			 "cosmo_repulsion_energy": 1.85, 
			 "cosmo_total_nonelectrostatic_energy": 11.33, 
			 "SMD_solvation_energy": 3.31 
		},
		"coords": [
			{
				"x": -0.361173123,
				"y": 0.5571580035,
				"z": 2.0493139367,
				"element": "C" 
			},
			{
				"x": 0.7014149786,
				"y": -0.3886924534,
				"z": 2.358132486,
				"element": "N" 
			},
			{
				"x": 1.1784656376,
				"y": -0.588685588,
				"z": 3.629307616,
				"element": "C" 
			},
			{
				"x": 2.1098205187,
				"y": -1.6088337517,
				"z": 3.6086566231,
				"element": "C" 
			},
			{
				"x": 2.193991327,
				"y": -2.0606326702,
				"z": 2.2734847952,
				"element": "C" 
			},
			{
				"x": 1.3261785643,
				"y": -1.2975501414,
				"z": 1.5052534467,
				"element": "C" 
			},
			{
				"x": 1.1473851176,
				"y": -1.4584756547,
				"z": 0.045677419,
				"element": "C" 
			},
			{
				"x": 1.4562599416,
				"y": -2.5088404521,
				"z": -0.5145495969,
				"element": "O" 
			},
			{
				"x": 0.630345225,
				"y": -0.3917766701,
				"z": -0.6643431461,
				"element": "N" 
			},
			{
				"x": 0.5733733721,
				"y": -0.4497668356,
				"z": -2.1307095106,
				"element": "C" 
			},
			{
				"x": 0.498181842,
				"y": 0.9909599329,
				"z": -2.6866865357,
				"element": "C" 
			},
			{
				"x": -0.2259866106,
				"y": 1.023689957,
				"z": -4.033323383,
				"element": "C" 
			},
			{
				"x": -1.6381318978,
				"y": 0.6587212028,
				"z": -3.8436503152,
				"element": "N" 
			},
			{
				"x": -1.8604251106,
				"y": -0.3986657302,
				"z": -2.8356779265,
				"element": "C" 
			},
			{
				"x": -0.6340350396,
				"y": -1.2904244477,
				"z": -2.6182100087,
				"element": "C" 
			},
			{
				"x": 0.0320368996,
				"y": 1.5071753356,
				"z": 1.6648785596,
				"element": "H" 
			},
			{
				"x": -1.044531222,
				"y": 0.1345259225,
				"z": 1.3116408281,
				"element": "H" 
			},
			{
				"x": -0.9181115817,
				"y": 0.769438101,
				"z": 2.9638489417,
				"element": "H" 
			},
			{
				"x": 0.8024574325,
				"y": 0.0045464462,
				"z": 4.4510507126,
				"element": "H" 
			},
			{
				"x": 2.6549450187,
				"y": -1.9850004287,
				"z": 4.4626901149,
				"element": "H" 
			},
			{
				"x": 2.8125683684,
				"y": -2.8506939649,
				"z": 1.8741802206,
				"element": "H" 
			},
			{
				"x": 0.7298778098,
				"y": 0.5256899518,
				"z": -0.2552896916,
				"element": "H" 
			},
			{
				"x": 1.489446724,
				"y": -0.9382799364,
				"z": -2.4817800053,
				"element": "H" 
			},
			{
				"x": -0.0662240973,
				"y": 1.6281093639,
				"z": -1.991717333,
				"element": "H" 
			},
			{
				"x": 1.5009958122,
				"y": 1.4209303245,
				"z": -2.77868634,
				"element": "H" 
			},
			{
				"x": 0.3093473997,
				"y": 0.357005903,
				"z": -4.7337336748,
				"element": "H" 
			},
			{
				"x": -0.1743771563,
				"y": 2.0318881403,
				"z": -4.462266267,
				"element": "H" 
			},
			{
				"x": -2.031128495,
				"y": 0.3705166751,
				"z": -4.7332358492,
				"element": "H" 
			},
			{
				"x": -2.1329132779,
				"y": 0.0664039437,
				"z": -1.8765824512,
				"element": "H" 
			},
			{
				"x": -2.7277181341,
				"y": -0.9937420729,
				"z": -3.1396280648,
				"element": "H" 
			},
			{
				"x": -0.3670994046,
				"y": -1.7827225474,
				"z": -3.5613122254,
				"element": "H" 
			},
			{
				"x": -0.8356368393,
				"y": -2.0860758583,
				"z": -1.8968333753,
				"element": "H" 
			}
		],
		 "valence_orbital": [ 
			{
				"type": "occ",
				"energy": -0.25014,
				"method": "rhf"
			},
			{
				"type": "occ",
				"energy": -0.2435,
				"method": "rhf"
			},
			{
				"type": "occ",
				"energy": -0.238,
				"method": "rhf"
			},
			{
				"type": "occ",
				"energy": -0.21197,
				"method": "rhf"
			},
			{
				"type": "occ",
				"energy": -0.21064,
				"method": "rhf"
			},
			{
				"type": "unocc",
				"energy": -0.00921,
				"method": "rhf"
			},
			{
				"type": "unocc",
				"energy": 0.0607,
				"method": "rhf"
			},
			{
				"type": "unocc",
				"energy": 0.06357,
				"method": "rhf"
			},
			{
				"type": "unocc",
				"energy": 0.07467,
				"method": "rhf"
			},
			{
				"type": "unocc",
				"energy": 0.09511,
				"method": "rhf"
			}
		],
		"cosmo_sigma_profile": { 
			"-0.025": 0.0,
			"-0.024": 0.0,
			"-0.023": 0.0,
			"-0.022": 0.0,
			"-0.021": 0.0,
			"-0.02": 0.0,
			"-0.019": 0.0,
			"-0.018": 0.0,
			"-0.017": 0.0,
			"-0.016": 0.0,
			"-0.015": 0.0,
			"-0.014": 0.0,
			"-0.013": 0.414559621731,
			"-0.012": 1.47859707182,
			"-0.011": 0.63195421333,
			"-0.01": 2.11042015178,
			"-0.009": 3.3129481688,
			"-0.008": 5.04842165665,
			"-0.007": 7.73393266636,
			"-0.006": 8.3102279823,
			"-0.005": 12.7555304428,
			"-0.004": 17.5057543878,
			"-0.003": 31.0028981084,
			"-0.002": 34.7899154312,
			"-0.001": 24.6253155565,
			"0.0": 22.3652384279,
			"0.001": 11.1786205711,
			"0.002": 9.54499004439,
			"0.003": 8.69129180271,
			"0.004": 8.42278327604,
			"0.005": 8.21998828038,
			"0.006": 7.37371007679,
			"0.007": 8.63512609174,
			"0.008": 3.81505505542,
			"0.009": 2.65416297023,
			"0.01": 2.17856713956,
			"0.011": 2.65401327298,
			"0.012": 2.46040806917,
			"0.013": 2.63719684666,
			"0.014": 5.69661595567,
			"0.015": 2.08610030916,
			"0.016": 0.649719027973,
			"0.017": 0.32653174418,
			"0.018": 0.444606281508,
			"0.019": 0.326873211757,
			"0.02": 0.0414569022219,
			"0.021": 0.0,
			"0.022": 0.0,
			"0.023": 0.0,
			"0.024": 0.0,
			"0.025": 0.0
		}
	}
}
