{
	 "smiles": "OC(=O)CC(Br)C(=O)C1=CC=CS1", 
	 "Tm": 399.15, 
	 "num_atms": 20, 
	 "gaussian": { 
		 "optdone": 1, 
		 "sigma_profile": "yes", 
		 "theory": "DFT", 
		 "functional": "B3LYP", 
		 "basiset": "6-31G**", 
		 "properties": { 
			 "R2extent": 4069.5741, 
			 "electric_dipole_moment_norm": 5.36063557706, 
			 "electric_quadrupole_moment_norm": 9.08253239301, 
			 "total_energy": -3504.32206945, 
			 "HOMO_LUMO_gap": 0.18077, 
			 "cosmo_polarized_energy": -17.87, 
			 "cosmo_cavitation_energy": 28.7, 
			 "cosmo_dispersion_energy": -21.0, 
			 "cosmo_repulsion_energy": 1.64, 
			 "cosmo_total_nonelectrostatic_energy": 9.34, 
			 "SMD_solvation_energy": 5.51 
		},
		"coords": [
			{
				"x": -0.826131359,
				"y": 1.6526649796,
				"z": -1.0687380997,
				"element": "O" 
			},
			{
				"x": -0.3650310107,
				"y": 2.4327498031,
				"z": -0.0651136441,
				"element": "C" 
			},
			{
				"x": -0.278054421,
				"y": 3.6350843186,
				"z": -0.143866588,
				"element": "O" 
			},
			{
				"x": -0.0199686007,
				"y": 1.6098753631,
				"z": 1.1638625249,
				"element": "C" 
			},
			{
				"x": 1.1631224052,
				"y": 0.6346283691,
				"z": 0.9942688136,
				"element": "C" 
			},
			{
				"x": 2.8046019906,
				"y": 1.6233509917,
				"z": 0.5406537363,
				"element": "Br" 
			},
			{
				"x": 0.9170891901,
				"y": -0.4991212458,
				"z": -0.0222064448,
				"element": "C" 
			},
			{
				"x": 1.3926037368,
				"y": -0.4964872233,
				"z": -1.140659416,
				"element": "O" 
			},
			{
				"x": 0.0572135004,
				"y": -1.6183285689,
				"z": 0.4238574751,
				"element": "C" 
			},
			{
				"x": -0.3742947998,
				"y": -2.6385262576,
				"z": -0.39742756,
				"element": "C" 
			},
			{
				"x": -1.173699604,
				"y": -3.6007258781,
				"z": 0.270892997,
				"element": "C" 
			},
			{
				"x": -1.3462262378,
				"y": -3.3115021923,
				"z": 1.6013951027,
				"element": "C" 
			},
			{
				"x": -0.5340711292,
				"y": -1.8573389654,
				"z": 2.0570101802,
				"element": "S" 
			},
			{
				"x": -0.9836531448,
				"y": 2.2380710678,
				"z": -1.8283951367,
				"element": "H" 
			},
			{
				"x": -0.9054775321,
				"y": 1.0284981679,
				"z": 1.4480366745,
				"element": "H" 
			},
			{
				"x": 0.2091110323,
				"y": 2.3105085091,
				"z": 1.9673233646,
				"element": "H" 
			},
			{
				"x": 1.3754096503,
				"y": 0.1944018244,
				"z": 1.9711634709,
				"element": "H" 
			},
			{
				"x": -0.1061971278,
				"y": -2.6682576799,
				"z": -1.4463677135,
				"element": "H" 
			},
			{
				"x": -1.6025902633,
				"y": -4.4730473262,
				"z": -0.2081850572,
				"element": "H" 
			},
			{
				"x": -1.9002562754,
				"y": -3.8722980569,
				"z": 2.34199532,
				"element": "H" 
			}
		],
		 "valence_orbital": [ 
			{
				"type": "occ",
				"energy": -0.27747,
				"method": "rhf"
			},
			{
				"type": "occ",
				"energy": -0.27625,
				"method": "rhf"
			},
			{
				"type": "occ",
				"energy": -0.27357,
				"method": "rhf"
			},
			{
				"type": "occ",
				"energy": -0.26792,
				"method": "rhf"
			},
			{
				"type": "occ",
				"energy": -0.2581,
				"method": "rhf"
			},
			{
				"type": "unocc",
				"energy": -0.07733,
				"method": "rhf"
			},
			{
				"type": "unocc",
				"energy": -0.01553,
				"method": "rhf"
			},
			{
				"type": "unocc",
				"energy": -0.0006,
				"method": "rhf"
			},
			{
				"type": "unocc",
				"energy": 0.01075,
				"method": "rhf"
			},
			{
				"type": "unocc",
				"energy": 0.01476,
				"method": "rhf"
			}
		],
		"cosmo_sigma_profile": { 
			"-0.025": 0.0,
			"-0.024": 0.0,
			"-0.023": 0.0,
			"-0.022": 0.0,
			"-0.021": 0.0,
			"-0.02": 0.0,
			"-0.019": 0.217485803222,
			"-0.018": 1.16638242965,
			"-0.017": 0.788590777933,
			"-0.016": 0.675778200388,
			"-0.015": 0.945843632636,
			"-0.014": 0.95960944345,
			"-0.013": 0.58899171999,
			"-0.012": 0.437066093513,
			"-0.011": 0.944154909624,
			"-0.01": 2.91761942032,
			"-0.009": 6.35525939683,
			"-0.008": 7.8317497333,
			"-0.007": 12.0813564154,
			"-0.006": 11.7420481238,
			"-0.005": 13.7880555407,
			"-0.004": 10.247193253,
			"-0.003": 11.4103135831,
			"-0.002": 10.9656834077,
			"-0.001": 11.5373973769,
			"0.0": 12.7470605696,
			"0.001": 17.1729128264,
			"0.002": 18.8837938205,
			"0.003": 15.5024885198,
			"0.004": 10.4727881246,
			"0.005": 12.3955981692,
			"0.006": 6.24993261671,
			"0.007": 5.50543839085,
			"0.008": 4.49333440104,
			"0.009": 4.95656804239,
			"0.01": 5.87011813134,
			"0.011": 9.59849055151,
			"0.012": 4.41200152705,
			"0.013": 0.36186793155,
			"0.014": 0.0,
			"0.015": 0.0,
			"0.016": 0.0,
			"0.017": 0.0,
			"0.018": 0.0,
			"0.019": 0.0,
			"0.02": 0.0,
			"0.021": 0.0,
			"0.022": 0.0,
			"0.023": 0.0,
			"0.024": 0.0,
			"0.025": 0.0
		}
	}
}
