{
	 "smiles": "CC1=CC=C(C=C1)C1=NOC2=C1C(=CC(C)=N2)C(O)=O", 
	 "Tm": 535.15, 
	 "num_atms": 32, 
	 "gaussian": { 
		 "optdone": 1, 
		 "sigma_profile": "yes", 
		 "theory": "DFT", 
		 "functional": "B3LYP", 
		 "basiset": "6-31G**", 
		 "properties": { 
			 "R2extent": 6281.0374, 
			 "electric_dipole_moment_norm": 2.02217412208, 
			 "electric_quadrupole_moment_norm": 31.5280767772, 
			 "total_energy": -913.980253384, 
			 "HOMO_LUMO_gap": 0.16715, 
			 "cosmo_polarized_energy": -15.94, 
			 "cosmo_cavitation_energy": 36.73, 
			 "cosmo_dispersion_energy": -26.29, 
			 "cosmo_repulsion_energy": 1.99, 
			 "cosmo_total_nonelectrostatic_energy": 12.43, 
			 "SMD_solvation_energy": 5.61 
		},
		"coords": [
			{
				"x": -4.5990578674,
				"y": 3.2271738023,
				"z": 2.2299277969,
				"element": "C" 
			},
			{
				"x": -3.5604416484,
				"y": 2.3982211827,
				"z": 1.5144597774,
				"element": "C" 
			},
			{
				"x": -3.8732250333,
				"y": 1.1275076134,
				"z": 1.0107713522,
				"element": "C" 
			},
			{
				"x": -2.9107529588,
				"y": 0.3455697795,
				"z": 0.3783181518,
				"element": "C" 
			},
			{
				"x": -1.5954626229,
				"y": 0.8169048771,
				"z": 0.2339046592,
				"element": "C" 
			},
			{
				"x": -1.2777233523,
				"y": 2.0941294298,
				"z": 0.7258001263,
				"element": "C" 
			},
			{
				"x": -2.2490266114,
				"y": 2.8674395972,
				"z": 1.3559654409,
				"element": "C" 
			},
			{
				"x": -0.5965264664,
				"y": 0.0068207389,
				"z": -0.4983745974,
				"element": "C" 
			},
			{
				"x": -0.9406670762,
				"y": -0.4831474412,
				"z": -1.6698236852,
				"element": "N" 
			},
			{
				"x": 0.1517036284,
				"y": -1.1861547092,
				"z": -2.1848653804,
				"element": "O" 
			},
			{
				"x": 1.1671999626,
				"y": -1.1018388478,
				"z": -1.297204295,
				"element": "C" 
			},
			{
				"x": 0.7627089714,
				"y": -0.3663519552,
				"z": -0.1685337499,
				"element": "C" 
			},
			{
				"x": 1.7186601258,
				"y": -0.2545685723,
				"z": 0.8703638163,
				"element": "C" 
			},
			{
				"x": 2.9657866957,
				"y": -0.8217727112,
				"z": 0.6256867486,
				"element": "C" 
			},
			{
				"x": 3.2489563693,
				"y": -1.5134309376,
				"z": -0.5746606381,
				"element": "C" 
			},
			{
				"x": 4.6071444751,
				"y": -2.1225277064,
				"z": -0.8027050914,
				"element": "C" 
			},
			{
				"x": 2.3367204059,
				"y": -1.6704497697,
				"z": -1.5421740705,
				"element": "N" 
			},
			{
				"x": 1.5428213527,
				"y": 0.3719146309,
				"z": 2.2345985308,
				"element": "C" 
			},
			{
				"x": 0.2946899275,
				"y": 0.4722146682,
				"z": 2.7323621361,
				"element": "O" 
			},
			{
				"x": 2.4901787698,
				"y": 0.72672394,
				"z": 2.8966155283,
				"element": "O" 
			},
			{
				"x": -4.4124830242,
				"y": 4.2976211248,
				"z": 2.1043208628,
				"element": "H" 
			},
			{
				"x": -4.5914778622,
				"y": 3.0195624063,
				"z": 3.3072086264,
				"element": "H" 
			},
			{
				"x": -5.6064673365,
				"y": 3.0101122999,
				"z": 1.8633134539,
				"element": "H" 
			},
			{
				"x": -4.8855317785,
				"y": 0.7457938814,
				"z": 1.1143279379,
				"element": "H" 
			},
			{
				"x": -3.1688873646,
				"y": -0.6316065012,
				"z": -0.0166443634,
				"element": "H" 
			},
			{
				"x": -0.2742172332,
				"y": 2.4890742966,
				"z": 0.5992964104,
				"element": "H" 
			},
			{
				"x": -1.9848061524,
				"y": 3.8543509822,
				"z": 1.7258546742,
				"element": "H" 
			},
			{
				"x": 3.724941065,
				"y": -0.7342696303,
				"z": 1.3944758217,
				"element": "H" 
			},
			{
				"x": 5.3906356876,
				"y": -1.3579127177,
				"z": -0.7588100023,
				"element": "H" 
			},
			{
				"x": 4.6371986523,
				"y": -2.6061912696,
				"z": -1.7797112727,
				"element": "H" 
			},
			{
				"x": 4.8380302755,
				"y": -2.8653942873,
				"z": -0.0310164677,
				"element": "H" 
			},
			{
				"x": -0.3848219757,
				"y": 0.2035818054,
				"z": 2.0943517618,
				"element": "H" 
			}
		],
		 "valence_orbital": [ 
			{
				"type": "occ",
				"energy": -0.29212,
				"method": "rhf"
			},
			{
				"type": "occ",
				"energy": -0.28018,
				"method": "rhf"
			},
			{
				"type": "occ",
				"energy": -0.27023,
				"method": "rhf"
			},
			{
				"type": "occ",
				"energy": -0.26846,
				"method": "rhf"
			},
			{
				"type": "occ",
				"energy": -0.25407,
				"method": "rhf"
			},
			{
				"type": "unocc",
				"energy": -0.08692,
				"method": "rhf"
			},
			{
				"type": "unocc",
				"energy": -0.04162,
				"method": "rhf"
			},
			{
				"type": "unocc",
				"energy": -0.02605,
				"method": "rhf"
			},
			{
				"type": "unocc",
				"energy": -0.02229,
				"method": "rhf"
			},
			{
				"type": "unocc",
				"energy": 0.02152,
				"method": "rhf"
			}
		],
		"cosmo_sigma_profile": { 
			"-0.025": 0.0,
			"-0.024": 0.0,
			"-0.023": 0.0,
			"-0.022": 0.0,
			"-0.021": 0.0,
			"-0.02": 0.0,
			"-0.019": 0.0,
			"-0.018": 0.0,
			"-0.017": 0.0,
			"-0.016": 0.0,
			"-0.015": 0.489454892226,
			"-0.014": 0.688012653962,
			"-0.013": 0.731151749984,
			"-0.012": 0.584997767664,
			"-0.011": 0.841455512365,
			"-0.01": 0.978435289736,
			"-0.009": 1.59257502601,
			"-0.008": 2.67739905868,
			"-0.007": 6.07382585186,
			"-0.006": 13.425667049,
			"-0.005": 24.0457207577,
			"-0.004": 26.7791659152,
			"-0.003": 29.5632597724,
			"-0.002": 27.4736999841,
			"-0.001": 29.4528771342,
			"0.0": 19.7129271065,
			"0.001": 12.0371177676,
			"0.002": 12.7994930057,
			"0.003": 14.3276120592,
			"0.004": 13.1886555346,
			"0.005": 7.00437953861,
			"0.006": 8.30915331435,
			"0.007": 8.53895866461,
			"0.008": 7.84137640018,
			"0.009": 5.52934652343,
			"0.01": 7.09033340389,
			"0.011": 7.45216951145,
			"0.012": 3.60359462578,
			"0.013": 1.51635302728,
			"0.014": 0.0923184428653,
			"0.015": 0.0,
			"0.016": 0.0,
			"0.017": 0.0,
			"0.018": 0.0,
			"0.019": 0.0,
			"0.02": 0.0,
			"0.021": 0.0,
			"0.022": 0.0,
			"0.023": 0.0,
			"0.024": 0.0,
			"0.025": 0.0
		}
	}
}
