{
	 "smiles": "CC(=O)C1CCC2C3C=CC4=CC(=O)CCC4(C)C3CCC12C", 
	 "Tm": 443.15, 
	 "num_atms": 51, 
	 "gaussian": { 
		 "optdone": 1, 
		 "sigma_profile": "yes", 
		 "theory": "DFT", 
		 "functional": "B3LYP", 
		 "basiset": "6-31G**", 
		 "properties": { 
			 "R2extent": 8288.3492, 
			 "electric_dipole_moment_norm": 4.67965039934, 
			 "electric_quadrupole_moment_norm": 38.7217303966, 
			 "total_energy": -967.541302053, 
			 "HOMO_LUMO_gap": 0.1662, 
			 "cosmo_polarized_energy": -16.73, 
			 "cosmo_cavitation_energy": 45.55, 
			 "cosmo_dispersion_energy": -31.3, 
			 "cosmo_repulsion_energy": 2.3, 
			 "cosmo_total_nonelectrostatic_energy": 16.54, 
			 "SMD_solvation_energy": 7.92 
		},
		"coords": [
			{
				"x": 3.1798541929,
				"y": -1.8052735299,
				"z": 2.379074143,
				"element": "C" 
			},
			{
				"x": 3.9501509412,
				"y": -1.6141991171,
				"z": 1.0784137971,
				"element": "C" 
			},
			{
				"x": 4.6980973436,
				"y": -2.4933569381,
				"z": 0.6862493528,
				"element": "O" 
			},
			{
				"x": 3.7773028914,
				"y": -0.3432824444,
				"z": 0.239432953,
				"element": "C" 
			},
			{
				"x": 3.8877872312,
				"y": 0.9891818253,
				"z": 1.055430822,
				"element": "C" 
			},
			{
				"x": 2.4865109322,
				"y": 1.6671828508,
				"z": 1.0325143962,
				"element": "C" 
			},
			{
				"x": 1.5470064517,
				"y": 0.5723690521,
				"z": 0.5051671831,
				"element": "C" 
			},
			{
				"x": 0.1453529408,
				"y": 0.9929998377,
				"z": -0.0122422735,
				"element": "C" 
			},
			{
				"x": -0.7317827111,
				"y": 1.2455028574,
				"z": 1.1881141526,
				"element": "C" 
			},
			{
				"x": -1.9653255304,
				"y": 0.7388371825,
				"z": 1.3559147866,
				"element": "C" 
			},
			{
				"x": -2.6604402489,
				"y": 0.0008247592,
				"z": 0.3112340107,
				"element": "C" 
			},
			{
				"x": -3.8660175648,
				"y": -0.5739411912,
				"z": 0.5532308094,
				"element": "C" 
			},
			{
				"x": -4.6825168854,
				"y": -1.2354513607,
				"z": -0.4747905926,
				"element": "C" 
			},
			{
				"x": -5.7624628402,
				"y": -1.7489021154,
				"z": -0.2082259276,
				"element": "O" 
			},
			{
				"x": -4.1361383998,
				"y": -1.203509874,
				"z": -1.8975035246,
				"element": "C" 
			},
			{
				"x": -2.6034097767,
				"y": -1.1473134226,
				"z": -1.9237843276,
				"element": "C" 
			},
			{
				"x": -2.0187601041,
				"y": 0.0058881075,
				"z": -1.0725813006,
				"element": "C" 
			},
			{
				"x": -2.3638426326,
				"y": 1.3623722392,
				"z": -1.7500326501,
				"element": "C" 
			},
			{
				"x": -0.4556618596,
				"y": -0.093250658,
				"z": -0.9697332208,
				"element": "C" 
			},
			{
				"x": 0.1343969496,
				"y": -1.4718763932,
				"z": -0.5993120368,
				"element": "C" 
			},
			{
				"x": 1.6577954938,
				"y": -1.535212002,
				"z": -0.8840044625,
				"element": "C" 
			},
			{
				"x": 2.3995237241,
				"y": -0.2172576899,
				"z": -0.5165081494,
				"element": "C" 
			},
			{
				"x": 2.6894502354,
				"y": 0.6008985315,
				"z": -1.7983652143,
				"element": "C" 
			},
			{
				"x": 2.1515833261,
				"y": -2.1104019925,
				"z": 2.1501245618,
				"element": "H" 
			},
			{
				"x": 3.6512191407,
				"y": -2.6060823997,
				"z": 2.9512847166,
				"element": "H" 
			},
			{
				"x": 3.1200722271,
				"y": -0.8978271111,
				"z": 2.9849973543,
				"element": "H" 
			},
			{
				"x": 4.5832817641,
				"y": -0.4176524573,
				"z": -0.4952924469,
				"element": "H" 
			},
			{
				"x": 4.2197045308,
				"y": 0.7986232312,
				"z": 2.0802308312,
				"element": "H" 
			},
			{
				"x": 4.6470705332,
				"y": 1.6387999913,
				"z": 0.611792896,
				"element": "H" 
			},
			{
				"x": 2.4846614548,
				"y": 2.532247528,
				"z": 0.359750385,
				"element": "H" 
			},
			{
				"x": 2.1935840711,
				"y": 2.0374945903,
				"z": 2.0199376504,
				"element": "H" 
			},
			{
				"x": 1.3674485806,
				"y": -0.1160741581,
				"z": 1.340432968,
				"element": "H" 
			},
			{
				"x": 0.2577335446,
				"y": 1.9369996821,
				"z": -0.5669032292,
				"element": "H" 
			},
			{
				"x": -0.2918477869,
				"y": 1.8356661658,
				"z": 1.9903204072,
				"element": "H" 
			},
			{
				"x": -2.4992936146,
				"y": 0.9047318448,
				"z": 2.28918873,
				"element": "H" 
			},
			{
				"x": -4.3050600951,
				"y": -0.5384688184,
				"z": 1.5479252508,
				"element": "H" 
			},
			{
				"x": -4.5760541954,
				"y": -0.3300915241,
				"z": -2.3972216074,
				"element": "H" 
			},
			{
				"x": -4.5145866742,
				"y": -2.0827211878,
				"z": -2.4269966908,
				"element": "H" 
			},
			{
				"x": -2.2392785708,
				"y": -1.0626371715,
				"z": -2.9552974127,
				"element": "H" 
			},
			{
				"x": -2.2384212522,
				"y": -2.1038721135,
				"z": -1.5396429049,
				"element": "H" 
			},
			{
				"x": -1.908315329,
				"y": 1.4147782066,
				"z": -2.7454525096,
				"element": "H" 
			},
			{
				"x": -3.4435752073,
				"y": 1.4868085869,
				"z": -1.8640261656,
				"element": "H" 
			},
			{
				"x": -2.0034390824,
				"y": 2.2104131105,
				"z": -1.1633817684,
				"element": "H" 
			},
			{
				"x": -0.1027452918,
				"y": 0.1259939466,
				"z": -1.985205435,
				"element": "H" 
			},
			{
				"x": -0.3420503184,
				"y": -2.2734739369,
				"z": -1.1673143668,
				"element": "H" 
			},
			{
				"x": -0.0706933847,
				"y": -1.6877817543,
				"z": 0.4568957155,
				"element": "H" 
			},
			{
				"x": 1.8086197576,
				"y": -1.7474157534,
				"z": -1.9489471145,
				"element": "H" 
			},
			{
				"x": 2.0811311057,
				"y": -2.3953570832,
				"z": -0.3555254229,
				"element": "H" 
			},
			{
				"x": 3.3094445488,
				"y": 0.0073549917,
				"z": -2.478389124,
				"element": "H" 
			},
			{
				"x": 1.7779762885,
				"y": 0.8702740884,
				"z": -2.3382482321,
				"element": "H" 
			},
			{
				"x": 3.2330591544,
				"y": 1.5264409909,
				"z": -1.5859297616,
				"element": "H" 
			}
		],
		 "valence_orbital": [ 
			{
				"type": "occ",
				"energy": -0.30055,
				"method": "rhf"
			},
			{
				"type": "occ",
				"energy": -0.29009,
				"method": "rhf"
			},
			{
				"type": "occ",
				"energy": -0.24153,
				"method": "rhf"
			},
			{
				"type": "occ",
				"energy": -0.23543,
				"method": "rhf"
			},
			{
				"type": "occ",
				"energy": -0.2312,
				"method": "rhf"
			},
			{
				"type": "unocc",
				"energy": -0.065,
				"method": "rhf"
			},
			{
				"type": "unocc",
				"energy": -0.01861,
				"method": "rhf"
			},
			{
				"type": "unocc",
				"energy": 0.02965,
				"method": "rhf"
			},
			{
				"type": "unocc",
				"energy": 0.05628,
				"method": "rhf"
			},
			{
				"type": "unocc",
				"energy": 0.06445,
				"method": "rhf"
			}
		],
		"cosmo_sigma_profile": { 
			"-0.025": 0.0,
			"-0.024": 0.0,
			"-0.023": 0.0,
			"-0.022": 0.0,
			"-0.021": 0.0,
			"-0.02": 0.0,
			"-0.019": 0.0,
			"-0.018": 0.0,
			"-0.017": 0.0,
			"-0.016": 0.0,
			"-0.015": 0.0,
			"-0.014": 0.0,
			"-0.013": 0.0,
			"-0.012": 0.0,
			"-0.011": 0.0,
			"-0.01": 0.0,
			"-0.009": 0.0,
			"-0.008": 0.0,
			"-0.007": 0.10480031099,
			"-0.006": 3.4293772174,
			"-0.005": 19.2579938685,
			"-0.004": 30.0233266786,
			"-0.003": 56.3583797966,
			"-0.002": 56.6329818012,
			"-0.001": 48.9662083438,
			"0.0": 38.6060732984,
			"0.001": 25.1224469477,
			"0.002": 14.2559739906,
			"0.003": 10.3027987519,
			"0.004": 6.72400615747,
			"0.005": 2.88687639513,
			"0.006": 2.85898276439,
			"0.007": 2.39025112308,
			"0.008": 3.5328374435,
			"0.009": 3.24683877388,
			"0.01": 2.98004428529,
			"0.011": 4.51043964054,
			"0.012": 7.049110603,
			"0.013": 8.52913002629,
			"0.014": 4.25489812121,
			"0.015": 0.985158782729,
			"0.016": 0.0,
			"0.017": 0.0,
			"0.018": 0.0,
			"0.019": 0.0,
			"0.02": 0.0,
			"0.021": 0.0,
			"0.022": 0.0,
			"0.023": 0.0,
			"0.024": 0.0,
			"0.025": 0.0
		}
	}
}
