{
	 "smiles": "OC(=O)CN1C=CC(=O)C2=C1C=CC=C2", 
	 "Tm": 548.15, 
	 "num_atms": 24, 
	 "gaussian": { 
		 "optdone": 1, 
		 "sigma_profile": "yes", 
		 "theory": "DFT", 
		 "functional": "B3LYP", 
		 "basiset": "6-31G**", 
		 "properties": { 
			 "R2extent": 3128.41, 
			 "electric_dipole_moment_norm": 6.80245121849, 
			 "electric_quadrupole_moment_norm": 10.9424399706, 
			 "total_energy": -705.030510001, 
			 "HOMO_LUMO_gap": 0.17145, 
			 "cosmo_polarized_energy": -22.98, 
			 "cosmo_cavitation_energy": 28.51, 
			 "cosmo_dispersion_energy": -20.59, 
			 "cosmo_repulsion_energy": 1.59, 
			 "cosmo_total_nonelectrostatic_energy": 9.51, 
			 "SMD_solvation_energy": 6.64 
		},
		"coords": [
			{
				"x": 4.4205000896,
				"y": 0.392427953,
				"z": 0.1443915864,
				"element": "O" 
			},
			{
				"x": 3.1881443479,
				"y": 0.4516669275,
				"z": -0.409104464,
				"element": "C" 
			},
			{
				"x": 2.7447163221,
				"y": 1.4198475077,
				"z": -0.9739029726,
				"element": "O" 
			},
			{
				"x": 2.475261916,
				"y": -0.8914130446,
				"z": -0.2460019045,
				"element": "C" 
			},
			{
				"x": 1.0469262399,
				"y": -0.8082811157,
				"z": -0.4656840004,
				"element": "N" 
			},
			{
				"x": 0.530612549,
				"y": -1.1861800015,
				"z": -1.683614161,
				"element": "C" 
			},
			{
				"x": -0.7875538958,
				"y": -1.1354422378,
				"z": -1.9939235228,
				"element": "C" 
			},
			{
				"x": -1.7711361152,
				"y": -0.656574666,
				"z": -1.0358226431,
				"element": "C" 
			},
			{
				"x": -2.9820780846,
				"y": -0.6085773249,
				"z": -1.2654937151,
				"element": "O" 
			},
			{
				"x": -1.1920061281,
				"y": -0.2203379279,
				"z": 0.2624088906,
				"element": "C" 
			},
			{
				"x": 0.1978444789,
				"y": -0.2893952021,
				"z": 0.5196382939,
				"element": "C" 
			},
			{
				"x": 0.6934203896,
				"y": 0.1606911361,
				"z": 1.7603452435,
				"element": "C" 
			},
			{
				"x": -0.1807460351,
				"y": 0.6505028515,
				"z": 2.7210496122,
				"element": "C" 
			},
			{
				"x": -1.5600676283,
				"y": 0.7104655027,
				"z": 2.476471298,
				"element": "C" 
			},
			{
				"x": -2.0498341339,
				"y": 0.2795004884,
				"z": 1.2539985426,
				"element": "C" 
			},
			{
				"x": 4.8450789129,
				"y": 1.2505753839,
				"z": -0.0256819244,
				"element": "H" 
			},
			{
				"x": 2.906775298,
				"y": -1.5804004801,
				"z": -0.978476277,
				"element": "H" 
			},
			{
				"x": 2.7009290653,
				"y": -1.3107996614,
				"z": 0.7378359877,
				"element": "H" 
			},
			{
				"x": 1.2675301177,
				"y": -1.5453352601,
				"z": -2.3944683163,
				"element": "H" 
			},
			{
				"x": -1.1299259693,
				"y": -1.4595587415,
				"z": -2.9692947826,
				"element": "H" 
			},
			{
				"x": 1.7548739432,
				"y": 0.1426534743,
				"z": 1.9781629983,
				"element": "H" 
			},
			{
				"x": 0.2188302007,
				"y": 0.9944339903,
				"z": 3.6707213593,
				"element": "H" 
			},
			{
				"x": -2.2329708257,
				"y": 1.0961874613,
				"z": 3.2359246704,
				"element": "H" 
			},
			{
				"x": -3.1073250547,
				"y": 0.3118429869,
				"z": 1.0123202007,
				"element": "H" 
			}
		],
		 "valence_orbital": [ 
			{
				"type": "occ",
				"energy": -0.30216,
				"method": "rhf"
			},
			{
				"type": "occ",
				"energy": -0.26742,
				"method": "rhf"
			},
			{
				"type": "occ",
				"energy": -0.25515,
				"method": "rhf"
			},
			{
				"type": "occ",
				"energy": -0.22515,
				"method": "rhf"
			},
			{
				"type": "occ",
				"energy": -0.21394,
				"method": "rhf"
			},
			{
				"type": "unocc",
				"energy": -0.04249,
				"method": "rhf"
			},
			{
				"type": "unocc",
				"energy": -0.02161,
				"method": "rhf"
			},
			{
				"type": "unocc",
				"energy": -0.01135,
				"method": "rhf"
			},
			{
				"type": "unocc",
				"energy": 0.01629,
				"method": "rhf"
			},
			{
				"type": "unocc",
				"energy": 0.05436,
				"method": "rhf"
			}
		],
		"cosmo_sigma_profile": { 
			"-0.025": 0.0,
			"-0.024": 0.0,
			"-0.023": 0.0,
			"-0.022": 0.0,
			"-0.021": 0.0,
			"-0.02": 0.0,
			"-0.019": 0.607410463441,
			"-0.018": 0.959180826765,
			"-0.017": 0.959656717966,
			"-0.016": 0.980916371117,
			"-0.015": 0.433561708904,
			"-0.014": 0.611357892186,
			"-0.013": 0.841358154785,
			"-0.012": 2.57554003926,
			"-0.011": 3.25159744564,
			"-0.01": 4.37998346156,
			"-0.009": 6.32321902616,
			"-0.008": 6.54508120301,
			"-0.007": 8.88026838146,
			"-0.006": 13.6577313957,
			"-0.005": 12.3446783733,
			"-0.004": 12.6695100578,
			"-0.003": 9.77182489971,
			"-0.002": 9.89991343614,
			"-0.001": 9.8170144232,
			"0.0": 12.1396050198,
			"0.001": 12.4898322975,
			"0.002": 15.8086202814,
			"0.003": 20.9570915229,
			"0.004": 14.873504888,
			"0.005": 4.57685641152,
			"0.006": 4.97710676031,
			"0.007": 3.74683612368,
			"0.008": 5.39715422858,
			"0.009": 4.19475463762,
			"0.01": 4.0828401215,
			"0.011": 5.92480427547,
			"0.012": 2.27977434621,
			"0.013": 2.80364864781,
			"0.014": 4.93688662007,
			"0.015": 2.92695824846,
			"0.016": 0.650549355064,
			"0.017": 0.0,
			"0.018": 0.0,
			"0.019": 0.0,
			"0.02": 0.0,
			"0.021": 0.0,
			"0.022": 0.0,
			"0.023": 0.0,
			"0.024": 0.0,
			"0.025": 0.0
		}
	}
}
