{
	 "smiles": "CN1C=C(C=N1)S(N)(=O)=O", 
	 "Tm": 395.15, 
	 "num_atms": 17, 
	 "gaussian": { 
		 "optdone": 1, 
		 "sigma_profile": "yes", 
		 "theory": "DFT", 
		 "functional": "B3LYP", 
		 "basiset": "6-31G**", 
		 "properties": { 
			 "R2extent": 2388.7099, 
			 "electric_dipole_moment_norm": 6.2761012699, 
			 "electric_quadrupole_moment_norm": 19.3355874814, 
			 "total_energy": -869.4350179, 
			 "HOMO_LUMO_gap": 0.25306, 
			 "cosmo_polarized_energy": -21.84, 
			 "cosmo_cavitation_energy": 23.03, 
			 "cosmo_dispersion_energy": -17.45, 
			 "cosmo_repulsion_energy": 1.38, 
			 "cosmo_total_nonelectrostatic_energy": 6.96, 
			 "SMD_solvation_energy": 3.38 
		},
		"coords": [
			{
				"x": -2.4410831609,
				"y": -3.4266004892,
				"z": -0.2980759134,
				"element": "C" 
			},
			{
				"x": -2.1493502776,
				"y": -2.0169626966,
				"z": -0.0966240775,
				"element": "N" 
			},
			{
				"x": -1.2886849173,
				"y": -1.4620139853,
				"z": 0.7863193616,
				"element": "C" 
			},
			{
				"x": -1.4035045201,
				"y": -0.0897368188,
				"z": 0.626258186,
				"element": "C" 
			},
			{
				"x": -2.3779427796,
				"y": 0.0819047457,
				"z": -0.38504819,
				"element": "C" 
			},
			{
				"x": -2.8252215896,
				"y": -1.091117481,
				"z": -0.820687107,
				"element": "N" 
			},
			{
				"x": -0.5121097398,
				"y": 1.1358450082,
				"z": 1.5286395438,
				"element": "S" 
			},
			{
				"x": 0.7685436292,
				"y": 1.6418133234,
				"z": 0.5630123117,
				"element": "N" 
			},
			{
				"x": 0.0997104402,
				"y": 0.4553945167,
				"z": 2.6688917326,
				"element": "O" 
			},
			{
				"x": -1.3808171493,
				"y": 2.302483285,
				"z": 1.6590995998,
				"element": "O" 
			},
			{
				"x": -3.4696369259,
				"y": -3.6439786958,
				"z": 0.0005701239,
				"element": "H" 
			},
			{
				"x": -1.7533263414,
				"y": -4.0200819253,
				"z": 0.3057331648,
				"element": "H" 
			},
			{
				"x": -2.3141007339,
				"y": -3.6796719,
				"z": -1.3527341173,
				"element": "H" 
			},
			{
				"x": -0.6831091244,
				"y": -2.0428554239,
				"z": 1.4655170666,
				"element": "H" 
			},
			{
				"x": -2.7705470228,
				"y": 1.0047776324,
				"z": -0.7887362979,
				"element": "H" 
			},
			{
				"x": 0.4592994238,
				"y": 2.1321868813,
				"z": -0.2702991391,
				"element": "H" 
			},
			{
				"x": 1.4287807895,
				"y": 0.8971140233,
				"z": 0.363363751,
				"element": "H" 
			}
		],
		 "valence_orbital": [ 
			{
				"type": "occ",
				"energy": -0.31224,
				"method": "rhf"
			},
			{
				"type": "occ",
				"energy": -0.30363,
				"method": "rhf"
			},
			{
				"type": "occ",
				"energy": -0.29447,
				"method": "rhf"
			},
			{
				"type": "occ",
				"energy": -0.27802,
				"method": "rhf"
			},
			{
				"type": "occ",
				"energy": -0.26398,
				"method": "rhf"
			},
			{
				"type": "unocc",
				"energy": -0.01092,
				"method": "rhf"
			},
			{
				"type": "unocc",
				"energy": 0.01317,
				"method": "rhf"
			},
			{
				"type": "unocc",
				"energy": 0.05762,
				"method": "rhf"
			},
			{
				"type": "unocc",
				"energy": 0.07304,
				"method": "rhf"
			},
			{
				"type": "unocc",
				"energy": 0.09191,
				"method": "rhf"
			}
		],
		"cosmo_sigma_profile": { 
			"-0.025": 0.0,
			"-0.024": 0.0,
			"-0.023": 0.0,
			"-0.022": 0.0,
			"-0.021": 0.0,
			"-0.02": 0.0,
			"-0.019": 0.0,
			"-0.018": 0.0,
			"-0.017": 0.0,
			"-0.016": 0.2439414752,
			"-0.015": 2.4742570188,
			"-0.014": 2.52869561041,
			"-0.013": 1.88042524789,
			"-0.012": 3.45097689764,
			"-0.011": 3.40515883203,
			"-0.01": 4.52279811003,
			"-0.009": 5.10826831082,
			"-0.008": 5.77152608196,
			"-0.007": 8.29983186056,
			"-0.006": 10.9593433232,
			"-0.005": 10.6296752006,
			"-0.004": 12.283542683,
			"-0.003": 10.1695255684,
			"-0.002": 6.57654740032,
			"-0.001": 6.4377617176,
			"0.0": 5.44334466926,
			"0.001": 8.23365739114,
			"0.002": 7.43779366693,
			"0.003": 5.40479168847,
			"0.004": 4.58548610559,
			"0.005": 5.13859868125,
			"0.006": 5.16110963466,
			"0.007": 5.56634206007,
			"0.008": 5.04237335021,
			"0.009": 5.18894329514,
			"0.01": 8.87902187898,
			"0.011": 12.5209801027,
			"0.012": 7.40724980084,
			"0.013": 1.46250925937,
			"0.014": 0.6430772448,
			"0.015": 0.481216361028,
			"0.016": 0.0,
			"0.017": 0.0,
			"0.018": 0.0,
			"0.019": 0.0,
			"0.02": 0.0,
			"0.021": 0.0,
			"0.022": 0.0,
			"0.023": 0.0,
			"0.024": 0.0,
			"0.025": 0.0
		}
	}
}
