{
	 "smiles": "CN(CC1=C(Cl)C=CC=C1F)C(=O)CCl", 
	 "Tm": 328.15, 
	 "num_atms": 25, 
	 "gaussian": { 
		 "optdone": 1, 
		 "sigma_profile": "yes", 
		 "theory": "DFT", 
		 "functional": "B3LYP", 
		 "basiset": "6-31G**", 
		 "properties": { 
			 "R2extent": 5633.3588, 
			 "electric_dipole_moment_norm": 6.16404273266, 
			 "electric_quadrupole_moment_norm": 22.3653993439, 
			 "total_energy": -1537.28987163, 
			 "HOMO_LUMO_gap": 0.2065, 
			 "cosmo_polarized_energy": -14.56, 
			 "cosmo_cavitation_energy": 31.98, 
			 "cosmo_dispersion_energy": -22.89, 
			 "cosmo_repulsion_energy": 1.77, 
			 "cosmo_total_nonelectrostatic_energy": 10.86, 
			 "SMD_solvation_energy": 5.84 
		},
		"coords": [
			{
				"x": -0.6922967645,
				"y": 1.624927487,
				"z": -2.9429692852,
				"element": "C" 
			},
			{
				"x": -0.9226057648,
				"y": 0.5466752484,
				"z": -1.9844667663,
				"element": "N" 
			},
			{
				"x": -0.2004577427,
				"y": 0.6477285834,
				"z": -0.7168405093,
				"element": "C" 
			},
			{
				"x": 1.3101996674,
				"y": 0.5676788128,
				"z": -0.8757437144,
				"element": "C" 
			},
			{
				"x": 2.1900488377,
				"y": 1.6494283147,
				"z": -0.716751282,
				"element": "C" 
			},
			{
				"x": 1.5753167322,
				"y": 3.2437515737,
				"z": -0.2876792842,
				"element": "Cl" 
			},
			{
				"x": 3.5709801896,
				"y": 1.5184145402,
				"z": -0.8796827752,
				"element": "C" 
			},
			{
				"x": 4.106607776,
				"y": 0.2762182196,
				"z": -1.2130819327,
				"element": "C" 
			},
			{
				"x": 3.273616108,
				"y": -0.8300306666,
				"z": -1.3775439566,
				"element": "C" 
			},
			{
				"x": 1.909496198,
				"y": -0.6534729097,
				"z": -1.2050533545,
				"element": "C" 
			},
			{
				"x": 1.1041290242,
				"y": -1.731535564,
				"z": -1.3527124611,
				"element": "F" 
			},
			{
				"x": -1.8329506606,
				"y": -0.4373176417,
				"z": -2.3148257578,
				"element": "C" 
			},
			{
				"x": -2.4081009785,
				"y": -0.4593436134,
				"z": -3.3896959245,
				"element": "O" 
			},
			{
				"x": -2.0969519377,
				"y": -1.4988511976,
				"z": -1.230084805,
				"element": "C" 
			},
			{
				"x": -3.2712163138,
				"y": -2.7378709143,
				"z": -1.7718764574,
				"element": "Cl" 
			},
			{
				"x": -1.3365864082,
				"y": 1.4545920251,
				"z": -3.8030828782,
				"element": "H" 
			},
			{
				"x": 0.3529093104,
				"y": 1.6408310617,
				"z": -3.2699734075,
				"element": "H" 
			},
			{
				"x": -0.9286861018,
				"y": 2.5939669416,
				"z": -2.4882603828,
				"element": "H" 
			},
			{
				"x": -0.4562998794,
				"y": 1.5950160023,
				"z": -0.2324578395,
				"element": "H" 
			},
			{
				"x": -0.5223478445,
				"y": -0.1499546537,
				"z": -0.0485715865,
				"element": "H" 
			},
			{
				"x": 4.2099426307,
				"y": 2.3833618786,
				"z": -0.7466087109,
				"element": "H" 
			},
			{
				"x": 5.1788385125,
				"y": 0.1699396013,
				"z": -1.3424216678,
				"element": "H" 
			},
			{
				"x": 3.6568732733,
				"y": -1.8117016183,
				"z": -1.6312453589,
				"element": "H" 
			},
			{
				"x": -1.1766226161,
				"y": -2.0188684184,
				"z": -0.9660186183,
				"element": "H" 
			},
			{
				"x": -2.5140352471,
				"y": -1.0371830929,
				"z": -0.3321512835,
				"element": "H" 
			}
		],
		 "valence_orbital": [ 
			{
				"type": "occ",
				"energy": -0.29096,
				"method": "rhf"
			},
			{
				"type": "occ",
				"energy": -0.27827,
				"method": "rhf"
			},
			{
				"type": "occ",
				"energy": -0.26655,
				"method": "rhf"
			},
			{
				"type": "occ",
				"energy": -0.25657,
				"method": "rhf"
			},
			{
				"type": "occ",
				"energy": -0.24752,
				"method": "rhf"
			},
			{
				"type": "unocc",
				"energy": -0.04102,
				"method": "rhf"
			},
			{
				"type": "unocc",
				"energy": -0.02887,
				"method": "rhf"
			},
			{
				"type": "unocc",
				"energy": 0.00533,
				"method": "rhf"
			},
			{
				"type": "unocc",
				"energy": 0.02232,
				"method": "rhf"
			},
			{
				"type": "unocc",
				"energy": 0.02854,
				"method": "rhf"
			}
		],
		"cosmo_sigma_profile": { 
			"-0.025": 0.0,
			"-0.024": 0.0,
			"-0.023": 0.0,
			"-0.022": 0.0,
			"-0.021": 0.0,
			"-0.02": 0.0,
			"-0.019": 0.0,
			"-0.018": 0.0,
			"-0.017": 0.0,
			"-0.016": 0.0,
			"-0.015": 0.0,
			"-0.014": 0.0,
			"-0.013": 0.0,
			"-0.012": 0.0,
			"-0.011": 0.00763201023438,
			"-0.01": 1.93814472939,
			"-0.009": 4.5640817963,
			"-0.008": 5.90037264185,
			"-0.007": 9.78303989648,
			"-0.006": 11.3356392603,
			"-0.005": 14.7992838685,
			"-0.004": 16.3615757655,
			"-0.003": 16.967779807,
			"-0.002": 20.1906863539,
			"-0.001": 21.4077773594,
			"0.0": 23.2426291078,
			"0.001": 23.116622609,
			"0.002": 20.0624240057,
			"0.003": 18.790503058,
			"0.004": 13.4866165603,
			"0.005": 7.96128561196,
			"0.006": 8.43112703774,
			"0.007": 3.11760711749,
			"0.008": 1.73771463787,
			"0.009": 2.06676733325,
			"0.01": 1.82906740635,
			"0.011": 2.33500476827,
			"0.012": 2.69436774934,
			"0.013": 4.63209346768,
			"0.014": 2.38054671044,
			"0.015": 0.536248620934,
			"0.016": 0.0,
			"0.017": 0.0,
			"0.018": 0.0,
			"0.019": 0.0,
			"0.02": 0.0,
			"0.021": 0.0,
			"0.022": 0.0,
			"0.023": 0.0,
			"0.024": 0.0,
			"0.025": 0.0
		}
	}
}
