{
	 "smiles": "NC(=S)C1=CC=CS1", 
	 "Tm": 380.65, 
	 "num_atms": 13, 
	 "gaussian": { 
		 "optdone": 1, 
		 "sigma_profile": "yes", 
		 "theory": "DFT", 
		 "functional": "B3LYP", 
		 "basiset": "6-31G**", 
		 "properties": { 
			 "R2extent": 1421.1135, 
			 "electric_dipole_moment_norm": 4.98803261717, 
			 "electric_quadrupole_moment_norm": 12.1731619265, 
			 "total_energy": -1044.66310922, 
			 "HOMO_LUMO_gap": 0.14034, 
			 "cosmo_polarized_energy": -15.99, 
			 "cosmo_cavitation_energy": 20.33, 
			 "cosmo_dispersion_energy": -16.29, 
			 "cosmo_repulsion_energy": 1.25, 
			 "cosmo_total_nonelectrostatic_energy": 5.3, 
			 "SMD_solvation_energy": 2.69 
		},
		"coords": [
			{
				"x": 2.4008603255,
				"y": -0.7199320173,
				"z": 1.3357088528,
				"element": "N" 
			},
			{
				"x": 1.7684859304,
				"y": -0.4825450301,
				"z": 0.1596754357,
				"element": "C" 
			},
			{
				"x": 2.5223906877,
				"y": -0.7465896704,
				"z": -1.3087234867,
				"element": "S" 
			},
			{
				"x": 0.3874763574,
				"y": -0.0071780901,
				"z": 0.2780873244,
				"element": "C" 
			},
			{
				"x": -0.4470765969,
				"y": -0.039450322,
				"z": 1.3803091251,
				"element": "C" 
			},
			{
				"x": -1.7306705571,
				"y": 0.5111980026,
				"z": 1.1289974361,
				"element": "C" 
			},
			{
				"x": -1.8585871939,
				"y": 0.957110449,
				"z": -0.162987671,
				"element": "C" 
			},
			{
				"x": -0.427345819,
				"y": 0.7009456258,
				"z": -1.0930958263,
				"element": "S" 
			},
			{
				"x": 2.0512558233,
				"y": -0.3445720897,
				"z": 2.2044515485,
				"element": "H" 
			},
			{
				"x": 3.3664190506,
				"y": -1.0108248176,
				"z": 1.2954650022,
				"element": "H" 
			},
			{
				"x": -0.1660825147,
				"y": -0.4804440483,
				"z": 2.3306171768,
				"element": "H" 
			},
			{
				"x": -2.5224674669,
				"y": 0.5667008257,
				"z": 1.867060327,
				"element": "H" 
			},
			{
				"x": -2.7228580263,
				"y": 1.4192811826,
				"z": -0.6209652445,
				"element": "H" 
			}
		],
		 "valence_orbital": [ 
			{
				"type": "occ",
				"energy": -0.35159,
				"method": "rhf"
			},
			{
				"type": "occ",
				"energy": -0.26501,
				"method": "rhf"
			},
			{
				"type": "occ",
				"energy": -0.25638,
				"method": "rhf"
			},
			{
				"type": "occ",
				"energy": -0.22613,
				"method": "rhf"
			},
			{
				"type": "occ",
				"energy": -0.21051,
				"method": "rhf"
			},
			{
				"type": "unocc",
				"energy": -0.07017,
				"method": "rhf"
			},
			{
				"type": "unocc",
				"energy": 0.01109,
				"method": "rhf"
			},
			{
				"type": "unocc",
				"energy": 0.02643,
				"method": "rhf"
			},
			{
				"type": "unocc",
				"energy": 0.06313,
				"method": "rhf"
			},
			{
				"type": "unocc",
				"energy": 0.06917,
				"method": "rhf"
			}
		],
		"cosmo_sigma_profile": { 
			"-0.025": 0.0,
			"-0.024": 0.0,
			"-0.023": 0.0,
			"-0.022": 0.0,
			"-0.021": 0.0,
			"-0.02": 0.0,
			"-0.019": 0.0,
			"-0.018": 0.0,
			"-0.017": 0.0,
			"-0.016": 0.478183896086,
			"-0.015": 1.82758015874,
			"-0.014": 2.67132158084,
			"-0.013": 2.65334865989,
			"-0.012": 2.44652838776,
			"-0.011": 2.71697783405,
			"-0.01": 2.50490133734,
			"-0.009": 4.1511356767,
			"-0.008": 4.80925642264,
			"-0.007": 6.52532091851,
			"-0.006": 6.60627736438,
			"-0.005": 6.77930207252,
			"-0.004": 6.21024860845,
			"-0.003": 6.2282665389,
			"-0.002": 5.71142367948,
			"-0.001": 6.21166634596,
			"0.0": 7.29548040221,
			"0.001": 9.28232657965,
			"0.002": 16.368224677,
			"0.003": 16.9418638899,
			"0.004": 10.7913080025,
			"0.005": 5.44856161101,
			"0.006": 4.42992323066,
			"0.007": 5.48301709848,
			"0.008": 6.14427485344,
			"0.009": 7.71562476398,
			"0.01": 5.50796931736,
			"0.011": 3.22115288739,
			"0.012": 0.620819092106,
			"0.013": 0.0,
			"0.014": 0.0,
			"0.015": 0.0,
			"0.016": 0.0,
			"0.017": 0.0,
			"0.018": 0.0,
			"0.019": 0.0,
			"0.02": 0.0,
			"0.021": 0.0,
			"0.022": 0.0,
			"0.023": 0.0,
			"0.024": 0.0,
			"0.025": 0.0
		}
	}
}
