{
	 "smiles": "FC1=CC=CC=C1C(F)(F)F", 
	 "Tm": 224.15, 
	 "num_atms": 15, 
	 "gaussian": { 
		 "optdone": 1, 
		 "sigma_profile": "yes", 
		 "theory": "DFT", 
		 "functional": "B3LYP", 
		 "basiset": "6-31G**", 
		 "properties": { 
			 "R2extent": 1585.3179, 
			 "electric_dipole_moment_norm": 3.29608983039, 
			 "electric_quadrupole_moment_norm": 3.47517798537, 
			 "total_energy": -668.514623261, 
			 "HOMO_LUMO_gap": 0.22713, 
			 "cosmo_polarized_energy": -4.01, 
			 "cosmo_cavitation_energy": 21.03, 
			 "cosmo_dispersion_energy": -15.08, 
			 "cosmo_repulsion_energy": 1.13, 
			 "cosmo_total_nonelectrostatic_energy": 7.08, 
			 "SMD_solvation_energy": 5.27 
		},
		"coords": [
			{
				"x": 2.3448957883,
				"y": -0.6654404431,
				"z": -0.4816604274,
				"element": "F" 
			},
			{
				"x": 1.0233702895,
				"y": -0.811944001,
				"z": -0.6851630943,
				"element": "C" 
			},
			{
				"x": 0.5748335188,
				"y": -1.8757258901,
				"z": -1.4561774996,
				"element": "C" 
			},
			{
				"x": -0.7971907959,
				"y": -2.0242737632,
				"z": -1.665093447,
				"element": "C" 
			},
			{
				"x": -1.6985389972,
				"y": -1.1164036763,
				"z": -1.1063549401,
				"element": "C" 
			},
			{
				"x": -1.2277271974,
				"y": -0.0541527589,
				"z": -0.3346246009,
				"element": "C" 
			},
			{
				"x": 0.1423011559,
				"y": 0.1101406084,
				"z": -0.1149561569,
				"element": "C" 
			},
			{
				"x": 0.677904251,
				"y": 1.2472815014,
				"z": 0.7133704548,
				"element": "C" 
			},
			{
				"x": 1.5076990819,
				"y": 2.0379802308,
				"z": 0.0004642042,
				"element": "F" 
			},
			{
				"x": -0.3202468695,
				"y": 2.0303985613,
				"z": 1.1795115895,
				"element": "F" 
			},
			{
				"x": 1.3717650925,
				"y": 0.803764004,
				"z": 1.7828748981,
				"element": "F" 
			},
			{
				"x": 1.2991753546,
				"y": -2.5643461776,
				"z": -1.8768493609,
				"element": "H" 
			},
			{
				"x": -1.1589522506,
				"y": -2.8526685667,
				"z": -2.2665085538,
				"element": "H" 
			},
			{
				"x": -2.7646573553,
				"y": -1.2338722475,
				"z": -1.2701389714,
				"element": "H" 
			},
			{
				"x": -1.9170310667,
				"y": 0.6575626185,
				"z": 0.1047059057,
				"element": "H" 
			}
		],
		 "valence_orbital": [ 
			{
				"type": "occ",
				"energy": -0.3818,
				"method": "rhf"
			},
			{
				"type": "occ",
				"energy": -0.37524,
				"method": "rhf"
			},
			{
				"type": "occ",
				"energy": -0.35765,
				"method": "rhf"
			},
			{
				"type": "occ",
				"energy": -0.27911,
				"method": "rhf"
			},
			{
				"type": "occ",
				"energy": -0.26194,
				"method": "rhf"
			},
			{
				"type": "unocc",
				"energy": -0.03481,
				"method": "rhf"
			},
			{
				"type": "unocc",
				"energy": -0.01708,
				"method": "rhf"
			},
			{
				"type": "unocc",
				"energy": 0.07535,
				"method": "rhf"
			},
			{
				"type": "unocc",
				"energy": 0.12054,
				"method": "rhf"
			},
			{
				"type": "unocc",
				"energy": 0.12146,
				"method": "rhf"
			}
		],
		"cosmo_sigma_profile": { 
			"-0.025": 0.0,
			"-0.024": 0.0,
			"-0.023": 0.0,
			"-0.022": 0.0,
			"-0.021": 0.0,
			"-0.02": 0.0,
			"-0.019": 0.0,
			"-0.018": 0.0,
			"-0.017": 0.0,
			"-0.016": 0.0,
			"-0.015": 0.0,
			"-0.014": 0.0,
			"-0.013": 0.0,
			"-0.012": 0.0,
			"-0.011": 0.0,
			"-0.01": 0.0,
			"-0.009": 0.0,
			"-0.008": 1.5354344323,
			"-0.007": 7.20428450868,
			"-0.006": 7.79936656177,
			"-0.005": 9.38465864164,
			"-0.004": 6.39484267006,
			"-0.003": 7.07492518672,
			"-0.002": 7.65803163426,
			"-0.001": 12.3297851472,
			"0.0": 16.4328360696,
			"0.001": 15.1276716873,
			"0.002": 29.5176439764,
			"0.003": 40.6186755745,
			"0.004": 8.57899410759,
			"0.005": 0.0,
			"0.006": 0.0,
			"0.007": 0.0,
			"0.008": 0.0,
			"0.009": 0.0,
			"0.01": 0.0,
			"0.011": 0.0,
			"0.012": 0.0,
			"0.013": 0.0,
			"0.014": 0.0,
			"0.015": 0.0,
			"0.016": 0.0,
			"0.017": 0.0,
			"0.018": 0.0,
			"0.019": 0.0,
			"0.02": 0.0,
			"0.021": 0.0,
			"0.022": 0.0,
			"0.023": 0.0,
			"0.024": 0.0,
			"0.025": 0.0
		}
	}
}
