{
	 "smiles": "[O-][N+](=O)C1=CC(F)=C(C=C1)S(Cl)(=O)=O", 
	 "Tm": 346.15, 
	 "num_atms": 17, 
	 "gaussian": { 
		 "optdone": 1, 
		 "sigma_profile": "yes", 
		 "theory": "DFT", 
		 "functional": "B3LYP", 
		 "basiset": "6-31G**", 
		 "properties": { 
			 "R2extent": 3928.0187, 
			 "electric_dipole_moment_norm": 1.41674596523, 
			 "electric_quadrupole_moment_norm": 19.5078856945, 
			 "total_energy": -1544.12113368, 
			 "HOMO_LUMO_gap": 0.17692, 
			 "cosmo_polarized_energy": -11.45, 
			 "cosmo_cavitation_energy": 26.82, 
			 "cosmo_dispersion_energy": -20.06, 
			 "cosmo_repulsion_energy": 1.5, 
			 "cosmo_total_nonelectrostatic_energy": 8.26, 
			 "SMD_solvation_energy": 6.11 
		},
		"coords": [
			{
				"x": -3.3599791964,
				"y": 0.9328508377,
				"z": 2.2823801917,
				"element": "O" 
			},
			{
				"x": -3.1408900483,
				"y": 0.0381261855,
				"z": 1.4712787299,
				"element": "N" 
			},
			{
				"x": -3.9506180672,
				"y": -0.8094360482,
				"z": 1.1071433395,
				"element": "O" 
			},
			{
				"x": -1.7829928755,
				"y": -0.0239304421,
				"z": 0.8830122798,
				"element": "C" 
			},
			{
				"x": -1.5130431241,
				"y": -1.0323091373,
				"z": -0.0368298597,
				"element": "C" 
			},
			{
				"x": -0.2382677242,
				"y": -1.0814618918,
				"z": -0.582949424,
				"element": "C" 
			},
			{
				"x": 0.0580335939,
				"y": -2.0430565522,
				"z": -1.4568941364,
				"element": "F" 
			},
			{
				"x": 0.7330088355,
				"y": -0.1448109122,
				"z": -0.2117164896,
				"element": "C" 
			},
			{
				"x": 0.435965785,
				"y": 0.8545570684,
				"z": 0.7175129351,
				"element": "C" 
			},
			{
				"x": -0.8387909403,
				"y": 0.9213172979,
				"z": 1.2744938531,
				"element": "C" 
			},
			{
				"x": 2.3640817507,
				"y": -0.1548006273,
				"z": -0.9599367989,
				"element": "S" 
			},
			{
				"x": 3.1691840682,
				"y": -1.9259462298,
				"z": -0.1341991587,
				"element": "Cl" 
			},
			{
				"x": 3.1191694474,
				"y": 0.9545076223,
				"z": -0.3933690442,
				"element": "O" 
			},
			{
				"x": 2.2456029,
				"y": -0.3631926804,
				"z": -2.3938378808,
				"element": "O" 
			},
			{
				"x": -2.2696029566,
				"y": -1.7538356961,
				"z": -0.3167486787,
				"element": "H" 
			},
			{
				"x": 1.2049574207,
				"y": 1.5677875374,
				"z": 0.9902794305,
				"element": "H" 
			},
			{
				"x": -1.1070188688,
				"y": 1.6825336684,
				"z": 1.9952807114,
				"element": "H" 
			}
		],
		 "valence_orbital": [ 
			{
				"type": "occ",
				"energy": -0.33712,
				"method": "rhf"
			},
			{
				"type": "occ",
				"energy": -0.33124,
				"method": "rhf"
			},
			{
				"type": "occ",
				"energy": -0.32478,
				"method": "rhf"
			},
			{
				"type": "occ",
				"energy": -0.32219,
				"method": "rhf"
			},
			{
				"type": "occ",
				"energy": -0.30724,
				"method": "rhf"
			},
			{
				"type": "unocc",
				"energy": -0.13032,
				"method": "rhf"
			},
			{
				"type": "unocc",
				"energy": -0.09589,
				"method": "rhf"
			},
			{
				"type": "unocc",
				"energy": -0.06341,
				"method": "rhf"
			},
			{
				"type": "unocc",
				"energy": -0.04652,
				"method": "rhf"
			},
			{
				"type": "unocc",
				"energy": 0.02123,
				"method": "rhf"
			}
		],
		"cosmo_sigma_profile": { 
			"-0.025": 0.0,
			"-0.024": 0.0,
			"-0.023": 0.0,
			"-0.022": 0.0,
			"-0.021": 0.0,
			"-0.02": 0.0,
			"-0.019": 0.0,
			"-0.018": 0.0,
			"-0.017": 0.0,
			"-0.016": 0.0,
			"-0.015": 0.0,
			"-0.014": 0.0,
			"-0.013": 0.0,
			"-0.012": 0.0,
			"-0.011": 0.212142981257,
			"-0.01": 2.59836862979,
			"-0.009": 5.77796821433,
			"-0.008": 6.30330807535,
			"-0.007": 6.82275715113,
			"-0.006": 7.2241338541,
			"-0.005": 12.893905146,
			"-0.004": 20.220360666,
			"-0.003": 18.4062052051,
			"-0.002": 13.5128609532,
			"-0.001": 10.6660821563,
			"0.0": 10.0464895861,
			"0.001": 14.4208326953,
			"0.002": 22.4326586105,
			"0.003": 11.2025184235,
			"0.004": 6.37531066291,
			"0.005": 8.10314326333,
			"0.006": 12.8015712441,
			"0.007": 15.845308614,
			"0.008": 11.3076208392,
			"0.009": 2.44353120941,
			"0.01": 0.0344288091722,
			"0.011": 0.0,
			"0.012": 0.0,
			"0.013": 0.0,
			"0.014": 0.0,
			"0.015": 0.0,
			"0.016": 0.0,
			"0.017": 0.0,
			"0.018": 0.0,
			"0.019": 0.0,
			"0.02": 0.0,
			"0.021": 0.0,
			"0.022": 0.0,
			"0.023": 0.0,
			"0.024": 0.0,
			"0.025": 0.0
		}
	}
}
