{
	 "smiles": "CC(OC(C)(C)C)C(NC(=O)OCC1C2=C(C=CC=C2)C2=C1C=CC=C2)C(O)=O", 
	 "Tm": 405.15, 
	 "num_atms": 56, 
	 "gaussian": { 
		 "optdone": 1, 
		 "sigma_profile": "yes", 
		 "theory": "DFT", 
		 "functional": "B3LYP", 
		 "basiset": "6-31G**", 
		 "properties": { 
			 "R2extent": 14601.8579, 
			 "electric_dipole_moment_norm": 4.07522955427, 
			 "electric_quadrupole_moment_norm": 16.7366333099, 
			 "total_energy": -1323.63771374, 
			 "HOMO_LUMO_gap": 0.18405, 
			 "cosmo_polarized_energy": -20.63, 
			 "cosmo_cavitation_energy": 56.34, 
			 "cosmo_dispersion_energy": -36.95, 
			 "cosmo_repulsion_energy": 2.74, 
			 "cosmo_total_nonelectrostatic_energy": 22.13, 
			 "SMD_solvation_energy": 10.4 
		},
		"coords": [
			{
				"x": 2.5005038497,
				"y": -2.0826743172,
				"z": 1.1156004076,
				"element": "C" 
			},
			{
				"x": 1.9750139644,
				"y": -0.6683147188,
				"z": 1.3588526444,
				"element": "C" 
			},
			{
				"x": 1.8433871794,
				"y": -0.2295245889,
				"z": 2.7106567953,
				"element": "O" 
			},
			{
				"x": 2.7713451571,
				"y": -0.4666010608,
				"z": 3.8016349305,
				"element": "C" 
			},
			{
				"x": 2.6090757696,
				"y": -1.8953976799,
				"z": 4.3505824009,
				"element": "C" 
			},
			{
				"x": 4.2418905265,
				"y": -0.1752762358,
				"z": 3.4599057678,
				"element": "C" 
			},
			{
				"x": 2.2875215063,
				"y": 0.5411245577,
				"z": 4.8556317701,
				"element": "C" 
			},
			{
				"x": 2.7700322959,
				"y": 0.4088933507,
				"z": 0.5574227273,
				"element": "C" 
			},
			{
				"x": 2.873046206,
				"y": 0.1735814477,
				"z": -0.8813366218,
				"element": "N" 
			},
			{
				"x": 1.9092807981,
				"y": -0.083567963,
				"z": -1.8311083016,
				"element": "C" 
			},
			{
				"x": 2.1293763851,
				"y": 0.0275133556,
				"z": -3.0244910803,
				"element": "O" 
			},
			{
				"x": 0.7484141324,
				"y": -0.5429407508,
				"z": -1.305911639,
				"element": "O" 
			},
			{
				"x": -0.2233984855,
				"y": -1.0049380022,
				"z": -2.273644849,
				"element": "C" 
			},
			{
				"x": -1.1164125321,
				"y": 0.1226810311,
				"z": -2.8192273195,
				"element": "C" 
			},
			{
				"x": -1.9861345919,
				"y": -0.3937381056,
				"z": -3.956433676,
				"element": "C" 
			},
			{
				"x": -3.351082312,
				"y": -0.2379045147,
				"z": -3.6395319253,
				"element": "C" 
			},
			{
				"x": -4.3356031308,
				"y": -0.6537945864,
				"z": -4.53855978,
				"element": "C" 
			},
			{
				"x": -3.9438228421,
				"y": -1.2249410914,
				"z": -5.7519120569,
				"element": "C" 
			},
			{
				"x": -2.5889309318,
				"y": -1.3756868706,
				"z": -6.0664914714,
				"element": "C" 
			},
			{
				"x": -1.5999797659,
				"y": -0.9593242009,
				"z": -5.1669974855,
				"element": "C" 
			},
			{
				"x": -3.4537886003,
				"y": 0.3997624312,
				"z": -2.3201672991,
				"element": "C" 
			},
			{
				"x": -2.151588772,
				"y": 0.6363012236,
				"z": -1.8294280727,
				"element": "C" 
			},
			{
				"x": -1.9609611757,
				"y": 1.2546027802,
				"z": -0.5974857546,
				"element": "C" 
			},
			{
				"x": -3.0870125755,
				"y": 1.627291016,
				"z": 0.1475710808,
				"element": "C" 
			},
			{
				"x": -4.3785477298,
				"y": 1.3880371059,
				"z": -0.33390504,
				"element": "C" 
			},
			{
				"x": -4.5726313215,
				"y": 0.774606084,
				"z": -1.573646979,
				"element": "C" 
			},
			{
				"x": 2.1727529158,
				"y": 1.7920760296,
				"z": 0.8443017781,
				"element": "C" 
			},
			{
				"x": 2.9647035775,
				"y": 2.5309338783,
				"z": 1.6551667776,
				"element": "O" 
			},
			{
				"x": 1.1356253955,
				"y": 2.2149816692,
				"z": 0.3867111623,
				"element": "O" 
			},
			{
				"x": 3.5515760749,
				"y": -2.2062147986,
				"z": 1.3900515572,
				"element": "H" 
			},
			{
				"x": 1.9039989194,
				"y": -2.8044128091,
				"z": 1.6782805921,
				"element": "H" 
			},
			{
				"x": 2.4022705047,
				"y": -2.3197287499,
				"z": 0.0540517904,
				"element": "H" 
			},
			{
				"x": 0.9477922653,
				"y": -0.632709771,
				"z": 0.9918217199,
				"element": "H" 
			},
			{
				"x": 3.0368205173,
				"y": -2.649137892,
				"z": 3.6863542311,
				"element": "H" 
			},
			{
				"x": 3.1128527717,
				"y": -1.9852209357,
				"z": 5.3189254628,
				"element": "H" 
			},
			{
				"x": 1.5484165489,
				"y": -2.1207095403,
				"z": 4.4943497685,
				"element": "H" 
			},
			{
				"x": 4.8514798462,
				"y": -0.2936481467,
				"z": 4.3619205722,
				"element": "H" 
			},
			{
				"x": 4.3648728901,
				"y": 0.8504650525,
				"z": 3.1034721305,
				"element": "H" 
			},
			{
				"x": 4.6421457606,
				"y": -0.8650788492,
				"z": 2.7115664518,
				"element": "H" 
			},
			{
				"x": 1.2378820334,
				"y": 0.3557281906,
				"z": 5.1001810189,
				"element": "H" 
			},
			{
				"x": 2.37414229,
				"y": 1.559573726,
				"z": 4.4677344543,
				"element": "H" 
			},
			{
				"x": 2.8800331567,
				"y": 0.4609920158,
				"z": 5.7722371656,
				"element": "H" 
			},
			{
				"x": 3.7977672165,
				"y": 0.4110668191,
				"z": 0.9231771439,
				"element": "H" 
			},
			{
				"x": 3.6937064774,
				"y": 0.5640584462,
				"z": -1.3227429025,
				"element": "H" 
			},
			{
				"x": 0.3115246125,
				"y": -1.4875068119,
				"z": -3.0929762999,
				"element": "H" 
			},
			{
				"x": -0.8230031893,
				"y": -1.7419533235,
				"z": -1.7358351348,
				"element": "H" 
			},
			{
				"x": -0.4543942348,
				"y": 0.9246802172,
				"z": -3.1692634981,
				"element": "H" 
			},
			{
				"x": -5.3899075398,
				"y": -0.5351567109,
				"z": -4.3038541267,
				"element": "H" 
			},
			{
				"x": -4.6993830694,
				"y": -1.5521704332,
				"z": -6.460754503,
				"element": "H" 
			},
			{
				"x": -2.3019984953,
				"y": -1.8158341865,
				"z": -7.0171875782,
				"element": "H" 
			},
			{
				"x": -0.5482952355,
				"y": -1.0685564073,
				"z": -5.4195029735,
				"element": "H" 
			},
			{
				"x": -0.9622904612,
				"y": 1.45688663,
				"z": -0.2249429444,
				"element": "H" 
			},
			{
				"x": -2.9536894497,
				"y": 2.1122801887,
				"z": 1.1105757763,
				"element": "H" 
			},
			{
				"x": -5.2387528976,
				"y": 1.6867140682,
				"z": 0.2589999824,
				"element": "H" 
			},
			{
				"x": -5.577407463,
				"y": 0.5973181554,
				"z": -1.9478394134,
				"element": "H" 
			},
			{
				"x": 2.5015652576,
				"y": 3.3753145826,
				"z": 1.7943406657,
				"element": "H" 
			}
		],
		 "valence_orbital": [ 
			{
				"type": "occ",
				"energy": -0.26652,
				"method": "rhf"
			},
			{
				"type": "occ",
				"energy": -0.25221,
				"method": "rhf"
			},
			{
				"type": "occ",
				"energy": -0.24211,
				"method": "rhf"
			},
			{
				"type": "occ",
				"energy": -0.23356,
				"method": "rhf"
			},
			{
				"type": "occ",
				"energy": -0.20647,
				"method": "rhf"
			},
			{
				"type": "unocc",
				"energy": -0.02242,
				"method": "rhf"
			},
			{
				"type": "unocc",
				"energy": -0.00785,
				"method": "rhf"
			},
			{
				"type": "unocc",
				"energy": -0.00358,
				"method": "rhf"
			},
			{
				"type": "unocc",
				"energy": 0.01673,
				"method": "rhf"
			},
			{
				"type": "unocc",
				"energy": 0.04743,
				"method": "rhf"
			}
		],
		"cosmo_sigma_profile": { 
			"-0.025": 0.0,
			"-0.024": 0.0,
			"-0.023": 0.0,
			"-0.022": 0.0,
			"-0.021": 0.0,
			"-0.02": 0.0,
			"-0.019": 0.105784791614,
			"-0.018": 1.14944127236,
			"-0.017": 0.887490049257,
			"-0.016": 0.633191469906,
			"-0.015": 1.4390907909,
			"-0.014": 2.17749731664,
			"-0.013": 1.92257411048,
			"-0.012": 1.6376796818,
			"-0.011": 1.9091291721,
			"-0.01": 2.25116959497,
			"-0.009": 1.71683401529,
			"-0.008": 1.79975897395,
			"-0.007": 3.70796136374,
			"-0.006": 12.539327983,
			"-0.005": 24.8126541271,
			"-0.004": 28.5923056849,
			"-0.003": 44.8092395229,
			"-0.002": 39.1294206976,
			"-0.001": 38.7154181491,
			"0.0": 41.0331778053,
			"0.001": 39.2299835487,
			"0.002": 26.7671498901,
			"0.003": 26.4092254615,
			"0.004": 26.6062264998,
			"0.005": 25.3395290194,
			"0.006": 18.1587598525,
			"0.007": 6.73435223391,
			"0.008": 4.5456151386,
			"0.009": 3.58812927577,
			"0.01": 3.01068527499,
			"0.011": 4.34613612517,
			"0.012": 3.85457996674,
			"0.013": 4.00207175272,
			"0.014": 0.229539629129,
			"0.015": 0.0,
			"0.016": 0.0,
			"0.017": 0.0,
			"0.018": 0.0,
			"0.019": 0.0,
			"0.02": 0.0,
			"0.021": 0.0,
			"0.022": 0.0,
			"0.023": 0.0,
			"0.024": 0.0,
			"0.025": 0.0
		}
	}
}
