{
	 "smiles": "CC1=C(C(O)=CC=C1)[N+]([O-])=O", 
	 "Tm": 310.15, 
	 "num_atms": 18, 
	 "gaussian": { 
		 "optdone": 1, 
		 "sigma_profile": "yes", 
		 "theory": "DFT", 
		 "functional": "B3LYP", 
		 "basiset": "6-31G**", 
		 "properties": { 
			 "R2extent": 2542.4694, 
			 "electric_dipole_moment_norm": 3.54396816859, 
			 "electric_quadrupole_moment_norm": 10.0834031001, 
			 "total_energy": -551.293855558, 
			 "HOMO_LUMO_gap": 0.14575, 
			 "cosmo_polarized_energy": -7.15, 
			 "cosmo_cavitation_energy": 21.8, 
			 "cosmo_dispersion_energy": -16.74, 
			 "cosmo_repulsion_energy": 1.32, 
			 "cosmo_total_nonelectrostatic_energy": 6.38, 
			 "SMD_solvation_energy": 6.03 
		},
		"coords": [
			{
				"x": -3.0947220492,
				"y": 1.108492396,
				"z": 0.3452091408,
				"element": "C" 
			},
			{
				"x": -1.6349087214,
				"y": 0.7736743829,
				"z": 0.5422852923,
				"element": "C" 
			},
			{
				"x": -0.6193895961,
				"y": 1.7166003757,
				"z": 0.881027733,
				"element": "C" 
			},
			{
				"x": 0.7396548528,
				"y": 1.3082799624,
				"z": 1.0481831404,
				"element": "C" 
			},
			{
				"x": 1.7367099494,
				"y": 2.1357090776,
				"z": 1.364125571,
				"element": "O" 
			},
			{
				"x": 1.0678661578,
				"y": -0.0458917985,
				"z": 0.8730487516,
				"element": "C" 
			},
			{
				"x": 0.0850369876,
				"y": -0.9590857344,
				"z": 0.5450526802,
				"element": "C" 
			},
			{
				"x": -1.2462352566,
				"y": -0.5533405851,
				"z": 0.3825861817,
				"element": "C" 
			},
			{
				"x": -0.942850942,
				"y": 3.114511677,
				"z": 1.0639834523,
				"element": "N" 
			},
			{
				"x": -2.0970445109,
				"y": 3.5058951134,
				"z": 0.9287948661,
				"element": "O" 
			},
			{
				"x": -0.0183292252,
				"y": 3.913732186,
				"z": 1.3629887173,
				"element": "O" 
			},
			{
				"x": -3.2410376921,
				"y": 1.8386939953,
				"z": -0.454474435,
				"element": "H" 
			},
			{
				"x": -3.6411489605,
				"y": 0.1960752291,
				"z": 0.094154646,
				"element": "H" 
			},
			{
				"x": -3.5365646644,
				"y": 1.5487381226,
				"z": 1.2424703776,
				"element": "H" 
			},
			{
				"x": 1.3293325123,
				"y": 3.0360164969,
				"z": 1.4476463307,
				"element": "H" 
			},
			{
				"x": 2.1053550145,
				"y": -0.3312191064,
				"z": 1.0050261723,
				"element": "H" 
			},
			{
				"x": 0.3463358233,
				"y": -2.0048281815,
				"z": 0.4112442022,
				"element": "H" 
			},
			{
				"x": -2.0018596794,
				"y": -1.2879536089,
				"z": 0.1249471796,
				"element": "H" 
			}
		],
		 "valence_orbital": [ 
			{
				"type": "occ",
				"energy": -0.32037,
				"method": "rhf"
			},
			{
				"type": "occ",
				"energy": -0.3138,
				"method": "rhf"
			},
			{
				"type": "occ",
				"energy": -0.29889,
				"method": "rhf"
			},
			{
				"type": "occ",
				"energy": -0.28036,
				"method": "rhf"
			},
			{
				"type": "occ",
				"energy": -0.24209,
				"method": "rhf"
			},
			{
				"type": "unocc",
				"energy": -0.09634,
				"method": "rhf"
			},
			{
				"type": "unocc",
				"energy": -0.01463,
				"method": "rhf"
			},
			{
				"type": "unocc",
				"energy": -0.00111,
				"method": "rhf"
			},
			{
				"type": "unocc",
				"energy": 0.08089,
				"method": "rhf"
			},
			{
				"type": "unocc",
				"energy": 0.10895,
				"method": "rhf"
			}
		],
		"cosmo_sigma_profile": { 
			"-0.025": 0.0,
			"-0.024": 0.0,
			"-0.023": 0.0,
			"-0.022": 0.0,
			"-0.021": 0.0,
			"-0.02": 0.0,
			"-0.019": 0.0,
			"-0.018": 0.0,
			"-0.017": 0.0,
			"-0.016": 0.0,
			"-0.015": 0.0,
			"-0.014": 0.0,
			"-0.013": 0.0,
			"-0.012": 0.0,
			"-0.011": 0.0,
			"-0.01": 0.0,
			"-0.009": 0.324537942193,
			"-0.008": 1.47259325698,
			"-0.007": 6.2175185955,
			"-0.006": 11.1002512446,
			"-0.005": 11.8246381862,
			"-0.004": 14.8879242321,
			"-0.003": 13.1056861247,
			"-0.002": 13.4733974339,
			"-0.001": 14.2194868264,
			"0.0": 16.3690857101,
			"0.001": 12.8921155828,
			"0.002": 12.0309642555,
			"0.003": 11.3495768601,
			"0.004": 4.2955020895,
			"0.005": 4.27610537788,
			"0.006": 5.22783102121,
			"0.007": 5.09880996022,
			"0.008": 5.14967506815,
			"0.009": 5.94727466767,
			"0.01": 4.44949505728,
			"0.011": 0.570517659005,
			"0.012": 0.0,
			"0.013": 0.0,
			"0.014": 0.0,
			"0.015": 0.0,
			"0.016": 0.0,
			"0.017": 0.0,
			"0.018": 0.0,
			"0.019": 0.0,
			"0.02": 0.0,
			"0.021": 0.0,
			"0.022": 0.0,
			"0.023": 0.0,
			"0.024": 0.0,
			"0.025": 0.0
		}
	}
}
