{
	 "smiles": "CC1=CC(NC2CCCCC2)=NC=C1", 
	 "Tm": 349.15, 
	 "num_atms": 32, 
	 "gaussian": { 
		 "optdone": 1, 
		 "sigma_profile": "yes", 
		 "theory": "DFT", 
		 "functional": "B3LYP", 
		 "basiset": "6-31G**", 
		 "properties": { 
			 "R2extent": 4132.7672, 
			 "electric_dipole_moment_norm": 2.26999315858, 
			 "electric_quadrupole_moment_norm": 10.5440923782, 
			 "total_energy": -577.650091308, 
			 "HOMO_LUMO_gap": 0.192, 
			 "cosmo_polarized_energy": -7.5, 
			 "cosmo_cavitation_energy": 32.66, 
			 "cosmo_dispersion_energy": -23.76, 
			 "cosmo_repulsion_energy": 1.89, 
			 "cosmo_total_nonelectrostatic_energy": 10.78, 
			 "SMD_solvation_energy": 2.77 
		},
		"coords": [
			{
				"x": -0.9829558152,
				"y": -4.5078425236,
				"z": -0.4425510174,
				"element": "C" 
			},
			{
				"x": -1.4032322545,
				"y": -3.4338258439,
				"z": 0.5308142654,
				"element": "C" 
			},
			{
				"x": -0.7228794807,
				"y": -2.2221791573,
				"z": 0.6013481615,
				"element": "C" 
			},
			{
				"x": -1.1432343028,
				"y": -1.2430984601,
				"z": 1.5295292676,
				"element": "C" 
			},
			{
				"x": -0.4907829485,
				"y": -0.0404365896,
				"z": 1.6996981671,
				"element": "N" 
			},
			{
				"x": 0.4296003871,
				"y": 0.5649725931,
				"z": 0.749108005,
				"element": "C" 
			},
			{
				"x": -0.2702231244,
				"y": 1.1001878881,
				"z": -0.5325748444,
				"element": "C" 
			},
			{
				"x": 0.5463966072,
				"y": 2.2059620745,
				"z": -1.2454709021,
				"element": "C" 
			},
			{
				"x": 2.0498786274,
				"y": 2.0479368135,
				"z": -0.9825193059,
				"element": "C" 
			},
			{
				"x": 2.3695961077,
				"y": 2.1970935613,
				"z": 0.5238961997,
				"element": "C" 
			},
			{
				"x": 1.2189783391,
				"y": 1.6929342738,
				"z": 1.4280862433,
				"element": "C" 
			},
			{
				"x": -2.1966868025,
				"y": -1.4337777013,
				"z": 2.3465921615,
				"element": "N" 
			},
			{
				"x": -2.8376426252,
				"y": -2.6041928507,
				"z": 2.265179993,
				"element": "C" 
			},
			{
				"x": -2.4950613023,
				"y": -3.6308285948,
				"z": 1.3923729459,
				"element": "C" 
			},
			{
				"x": -0.6912584543,
				"y": -5.4227896605,
				"z": 0.0856986406,
				"element": "H" 
			},
			{
				"x": -0.136504762,
				"y": -4.1884660591,
				"z": -1.0565329873,
				"element": "H" 
			},
			{
				"x": -1.8073362138,
				"y": -4.7749631499,
				"z": -1.1133378688,
				"element": "H" 
			},
			{
				"x": 0.1230602099,
				"y": -2.0389510144,
				"z": -0.0524933822,
				"element": "H" 
			},
			{
				"x": -1.0149486472,
				"y": 0.5940192042,
				"z": 2.2897183731,
				"element": "H" 
			},
			{
				"x": 1.1524573092,
				"y": -0.2099909979,
				"z": 0.4641478182,
				"element": "H" 
			},
			{
				"x": -0.4590669741,
				"y": 0.2628357099,
				"z": -1.213759931,
				"element": "H" 
			},
			{
				"x": -1.2543592096,
				"y": 1.4896804228,
				"z": -0.2462955911,
				"element": "H" 
			},
			{
				"x": 0.3382357598,
				"y": 2.1947704866,
				"z": -2.3210493003,
				"element": "H" 
			},
			{
				"x": 0.2284076549,
				"y": 3.1929281761,
				"z": -0.8851245702,
				"element": "H" 
			},
			{
				"x": 2.3724397829,
				"y": 1.0599615528,
				"z": -1.3369677783,
				"element": "H" 
			},
			{
				"x": 2.6234068085,
				"y": 2.7794499771,
				"z": -1.5624007817,
				"element": "H" 
			},
			{
				"x": 3.2900677024,
				"y": 1.6489821424,
				"z": 0.7562494487,
				"element": "H" 
			},
			{
				"x": 2.5724191809,
				"y": 3.2484264864,
				"z": 0.7582546892,
				"element": "H" 
			},
			{
				"x": 0.5251875624,
				"y": 2.5159966141,
				"z": 1.650671161,
				"element": "H" 
			},
			{
				"x": 1.6067704773,
				"y": 1.3436202505,
				"z": 2.390308025,
				"element": "H" 
			},
			{
				"x": -3.6834015025,
				"y": -2.7233937679,
				"z": 2.941810776,
				"element": "H" 
			},
			{
				"x": -3.0635280972,
				"y": -4.5556218563,
				"z": 1.3764939187,
				"element": "H" 
			}
		],
		 "valence_orbital": [ 
			{
				"type": "occ",
				"energy": -0.30366,
				"method": "rhf"
			},
			{
				"type": "occ",
				"energy": -0.28199,
				"method": "rhf"
			},
			{
				"type": "occ",
				"energy": -0.25755,
				"method": "rhf"
			},
			{
				"type": "occ",
				"energy": -0.24436,
				"method": "rhf"
			},
			{
				"type": "occ",
				"energy": -0.19392,
				"method": "rhf"
			},
			{
				"type": "unocc",
				"energy": -0.00192,
				"method": "rhf"
			},
			{
				"type": "unocc",
				"energy": 0.0199,
				"method": "rhf"
			},
			{
				"type": "unocc",
				"energy": 0.07255,
				"method": "rhf"
			},
			{
				"type": "unocc",
				"energy": 0.08979,
				"method": "rhf"
			},
			{
				"type": "unocc",
				"energy": 0.10809,
				"method": "rhf"
			}
		],
		"cosmo_sigma_profile": { 
			"-0.025": 0.0,
			"-0.024": 0.0,
			"-0.023": 0.0,
			"-0.022": 0.0,
			"-0.021": 0.0,
			"-0.02": 0.0,
			"-0.019": 0.0,
			"-0.018": 0.0,
			"-0.017": 0.0,
			"-0.016": 0.0,
			"-0.015": 0.0,
			"-0.014": 0.0,
			"-0.013": 0.0,
			"-0.012": 0.0,
			"-0.011": 0.376561247083,
			"-0.01": 0.85675927047,
			"-0.009": 0.968014690419,
			"-0.008": 0.936372063533,
			"-0.007": 0.920033984795,
			"-0.006": 2.88595445589,
			"-0.005": 9.27482033226,
			"-0.004": 15.6146435177,
			"-0.003": 21.6513379608,
			"-0.002": 39.8689732673,
			"-0.001": 39.6832802388,
			"0.0": 33.753259712,
			"0.001": 27.5848008625,
			"0.002": 11.5733590592,
			"0.003": 7.24125408878,
			"0.004": 10.744548794,
			"0.005": 12.4746428106,
			"0.006": 3.96067720791,
			"0.007": 1.74573288969,
			"0.008": 2.73987608434,
			"0.009": 2.14147439489,
			"0.01": 1.73842862283,
			"0.011": 1.47718459755,
			"0.012": 0.49057263275,
			"0.013": 0.784841804072,
			"0.014": 1.21443549499,
			"0.015": 0.495418338192,
			"0.016": 0.924071501917,
			"0.017": 0.129873365763,
			"0.018": 0.0,
			"0.019": 0.0,
			"0.02": 0.0,
			"0.021": 0.0,
			"0.022": 0.0,
			"0.023": 0.0,
			"0.024": 0.0,
			"0.025": 0.0
		}
	}
}
