{
	 "smiles": "NC(=N)NCC(O)=O", 
	 "Tm": 573.15, 
	 "num_atms": 15, 
	 "gaussian": { 
		 "optdone": 1, 
		 "sigma_profile": "yes", 
		 "theory": "DFT", 
		 "functional": "B3LYP", 
		 "basiset": "6-31G**", 
		 "properties": { 
			 "R2extent": 1309.1851, 
			 "electric_dipole_moment_norm": 3.55901251051, 
			 "electric_quadrupole_moment_norm": 7.95404687565, 
			 "total_energy": -433.248475137, 
			 "HOMO_LUMO_gap": 0.22861, 
			 "cosmo_polarized_energy": -18.55, 
			 "cosmo_cavitation_energy": 19.51, 
			 "cosmo_dispersion_energy": -14.18, 
			 "cosmo_repulsion_energy": 1.22, 
			 "cosmo_total_nonelectrostatic_energy": 6.55, 
			 "SMD_solvation_energy": 2.79 
		},
		"coords": [
			{
				"x": 2.5646646551,
				"y": -2.0438028405,
				"z": 1.6035775599,
				"element": "N" 
			},
			{
				"x": 1.5825320739,
				"y": -1.9248654496,
				"z": 0.6184420833,
				"element": "C" 
			},
			{
				"x": 1.8762859321,
				"y": -2.1323641899,
				"z": -0.6107030746,
				"element": "N" 
			},
			{
				"x": 0.3418195761,
				"y": -1.5760812501,
				"z": 1.175806671,
				"element": "N" 
			},
			{
				"x": -0.7618676768,
				"y": -1.2602669621,
				"z": 0.2972943437,
				"element": "C" 
			},
			{
				"x": -0.6298528298,
				"y": 0.0280958556,
				"z": -0.5168270178,
				"element": "C" 
			},
			{
				"x": -0.0325962065,
				"y": 1.0106745359,
				"z": 0.1947240404,
				"element": "O" 
			},
			{
				"x": -1.0417867275,
				"y": 0.1772020622,
				"z": -1.6443466496,
				"element": "O" 
			},
			{
				"x": 3.4201028494,
				"y": -2.4169085864,
				"z": 1.2118168332,
				"element": "H" 
			},
			{
				"x": 2.2659637515,
				"y": -2.5508695129,
				"z": 2.4281052501,
				"element": "H" 
			},
			{
				"x": 1.1198226901,
				"y": -1.883321056,
				"z": -1.2452629366,
				"element": "H" 
			},
			{
				"x": 0.4342826842,
				"y": -0.9466617146,
				"z": 1.9640718312,
				"element": "H" 
			},
			{
				"x": -0.9294515103,
				"y": -2.0757583482,
				"z": -0.4096185878,
				"element": "H" 
			},
			{
				"x": -1.672096821,
				"y": -1.169346936,
				"z": 0.9015294692,
				"element": "H" 
			},
			{
				"x": 0.0101775594,
				"y": 1.7871743926,
				"z": -0.3885098155,
				"element": "H" 
			}
		],
		 "valence_orbital": [ 
			{
				"type": "occ",
				"energy": -0.32936,
				"method": "rhf"
			},
			{
				"type": "occ",
				"energy": -0.29942,
				"method": "rhf"
			},
			{
				"type": "occ",
				"energy": -0.26155,
				"method": "rhf"
			},
			{
				"type": "occ",
				"energy": -0.25515,
				"method": "rhf"
			},
			{
				"type": "occ",
				"energy": -0.2319,
				"method": "rhf"
			},
			{
				"type": "unocc",
				"energy": -0.00329,
				"method": "rhf"
			},
			{
				"type": "unocc",
				"energy": 0.05181,
				"method": "rhf"
			},
			{
				"type": "unocc",
				"energy": 0.06272,
				"method": "rhf"
			},
			{
				"type": "unocc",
				"energy": 0.08446,
				"method": "rhf"
			},
			{
				"type": "unocc",
				"energy": 0.10798,
				"method": "rhf"
			}
		],
		"cosmo_sigma_profile": { 
			"-0.025": 0.0,
			"-0.024": 0.0,
			"-0.023": 0.0,
			"-0.022": 0.0,
			"-0.021": 0.0,
			"-0.02": 0.0,
			"-0.019": 0.262336265985,
			"-0.018": 0.864407060811,
			"-0.017": 1.0827864031,
			"-0.016": 0.658837305438,
			"-0.015": 0.542402582139,
			"-0.014": 1.23157600054,
			"-0.013": 1.42820837482,
			"-0.012": 3.72781848071,
			"-0.011": 3.41275351229,
			"-0.01": 4.83917071351,
			"-0.009": 5.34655948418,
			"-0.008": 8.25983356496,
			"-0.007": 8.32379342087,
			"-0.006": 6.64715271013,
			"-0.005": 8.18857519617,
			"-0.004": 6.69875514074,
			"-0.003": 5.57567238631,
			"-0.002": 5.00766084303,
			"-0.001": 5.14140867177,
			"0.0": 5.98851508089,
			"0.001": 5.4201280043,
			"0.002": 4.47568143491,
			"0.003": 4.38953579393,
			"0.004": 6.6300923096,
			"0.005": 5.85234252376,
			"0.006": 4.11238162897,
			"0.007": 5.77321690765,
			"0.008": 4.5205901909,
			"0.009": 4.40578650118,
			"0.01": 3.98652399717,
			"0.011": 5.83222083634,
			"0.012": 4.7774938107,
			"0.013": 2.71364804092,
			"0.014": 1.36975931396,
			"0.015": 0.953103627823,
			"0.016": 1.52326315946,
			"0.017": 1.05825550212,
			"0.018": 1.18920681951,
			"0.019": 0.571016775707,
			"0.02": 0.016851612719,
			"0.021": 0.0,
			"0.022": 0.0,
			"0.023": 0.0,
			"0.024": 0.0,
			"0.025": 0.0
		}
	}
}
