{
	 "smiles": "FC(F)(F)C1=C(Cl)C=CC(CBr)=C1", 
	 "Tm": 311.15, 
	 "num_atms": 18, 
	 "gaussian": { 
		 "optdone": 1, 
		 "sigma_profile": "yes", 
		 "theory": "DFT", 
		 "functional": "B3LYP", 
		 "basiset": "6-31G**", 
		 "properties": { 
			 "R2extent": 5693.8081, 
			 "electric_dipole_moment_norm": 2.97110114436, 
			 "electric_quadrupole_moment_norm": 9.06841957289, 
			 "total_energy": -3638.99023203, 
			 "HOMO_LUMO_gap": 0.20102, 
			 "cosmo_polarized_energy": -7.39, 
			 "cosmo_cavitation_energy": 27.78, 
			 "cosmo_dispersion_energy": -20.1, 
			 "cosmo_repulsion_energy": 1.55, 
			 "cosmo_total_nonelectrostatic_energy": 9.23, 
			 "SMD_solvation_energy": 4.32 
		},
		"coords": [
			{
				"x": 3.7144225318,
				"y": -0.061272303,
				"z": 1.8437522244,
				"element": "F" 
			},
			{
				"x": 3.4763884901,
				"y": 0.3508576125,
				"z": 0.5820861839,
				"element": "C" 
			},
			{
				"x": 4.2086088543,
				"y": -0.4226419272,
				"z": -0.2431432596,
				"element": "F" 
			},
			{
				"x": 3.9579760228,
				"y": 1.6097243859,
				"z": 0.4789989387,
				"element": "F" 
			},
			{
				"x": 2.0027314443,
				"y": 0.2980758587,
				"z": 0.24328951,
				"element": "C" 
			},
			{
				"x": 1.2704181905,
				"y": -0.8991807554,
				"z": 0.2769639707,
				"element": "C" 
			},
			{
				"x": 2.0138194414,
				"y": -2.422265264,
				"z": 0.7132082134,
				"element": "Cl" 
			},
			{
				"x": -0.0888392651,
				"y": -0.9037579585,
				"z": -0.0380965888,
				"element": "C" 
			},
			{
				"x": -0.7261289926,
				"y": 0.282682953,
				"z": -0.3873388469,
				"element": "C" 
			},
			{
				"x": -0.0188811465,
				"y": 1.4898724014,
				"z": -0.4260716625,
				"element": "C" 
			},
			{
				"x": -0.7016876259,
				"y": 2.7689891997,
				"z": -0.7872998203,
				"element": "C" 
			},
			{
				"x": -0.7163879858,
				"y": 3.0809344076,
				"z": -2.765511174,
				"element": "Br" 
			},
			{
				"x": 1.3434599413,
				"y": 1.4770870785,
				"z": -0.1108752567,
				"element": "C" 
			},
			{
				"x": -0.6378073682,
				"y": -1.8379387261,
				"z": -0.0053274543,
				"element": "H" 
			},
			{
				"x": -1.7836698984,
				"y": 0.2668610716,
				"z": -0.6353792493,
				"element": "H" 
			},
			{
				"x": -1.752848186,
				"y": 2.7770111828,
				"z": -0.5050014286,
				"element": "H" 
			},
			{
				"x": -0.1993553848,
				"y": 3.6427566304,
				"z": -0.3768348501,
				"element": "H" 
			},
			{
				"x": 1.9119809367,
				"y": 2.3995041522,
				"z": -0.1405194499,
				"element": "H" 
			}
		],
		 "valence_orbital": [ 
			{
				"type": "occ",
				"energy": -0.32533,
				"method": "rhf"
			},
			{
				"type": "occ",
				"energy": -0.29076,
				"method": "rhf"
			},
			{
				"type": "occ",
				"energy": -0.28488,
				"method": "rhf"
			},
			{
				"type": "occ",
				"energy": -0.27983,
				"method": "rhf"
			},
			{
				"type": "occ",
				"energy": -0.26167,
				"method": "rhf"
			},
			{
				"type": "unocc",
				"energy": -0.06065,
				"method": "rhf"
			},
			{
				"type": "unocc",
				"energy": -0.0423,
				"method": "rhf"
			},
			{
				"type": "unocc",
				"energy": 0.00639,
				"method": "rhf"
			},
			{
				"type": "unocc",
				"energy": 0.01469,
				"method": "rhf"
			},
			{
				"type": "unocc",
				"energy": 0.08416,
				"method": "rhf"
			}
		],
		"cosmo_sigma_profile": { 
			"-0.025": 0.0,
			"-0.024": 0.0,
			"-0.023": 0.0,
			"-0.022": 0.0,
			"-0.021": 0.0,
			"-0.02": 0.0,
			"-0.019": 0.0,
			"-0.018": 0.0,
			"-0.017": 0.0,
			"-0.016": 0.0,
			"-0.015": 0.0,
			"-0.014": 0.0,
			"-0.013": 0.0,
			"-0.012": 0.0,
			"-0.011": 0.0,
			"-0.01": 0.00331540522004,
			"-0.009": 2.6717362543,
			"-0.008": 9.73733535359,
			"-0.007": 10.1285722079,
			"-0.006": 7.6510846489,
			"-0.005": 8.34553374788,
			"-0.004": 8.07454065017,
			"-0.003": 10.7044205721,
			"-0.002": 11.1581147069,
			"-0.001": 14.7132422118,
			"0.0": 21.6998773359,
			"0.001": 23.3240946751,
			"0.002": 33.0780748339,
			"0.003": 31.1031224798,
			"0.004": 16.5093861821,
			"0.005": 7.06249430933,
			"0.006": 11.6042330578,
			"0.007": 0.862295139233,
			"0.008": 0.0,
			"0.009": 0.0,
			"0.01": 0.0,
			"0.011": 0.0,
			"0.012": 0.0,
			"0.013": 0.0,
			"0.014": 0.0,
			"0.015": 0.0,
			"0.016": 0.0,
			"0.017": 0.0,
			"0.018": 0.0,
			"0.019": 0.0,
			"0.02": 0.0,
			"0.021": 0.0,
			"0.022": 0.0,
			"0.023": 0.0,
			"0.024": 0.0,
			"0.025": 0.0
		}
	}
}
