{
	 "smiles": "CNC(C(O)=O)C1=C(C=CC=C1)C(F)(F)F", 
	 "Tm": 564.15, 
	 "num_atms": 26, 
	 "gaussian": { 
		 "optdone": 1, 
		 "sigma_profile": "yes", 
		 "theory": "DFT", 
		 "functional": "B3LYP", 
		 "basiset": "6-31G**", 
		 "properties": { 
			 "R2extent": 4223.7017, 
			 "electric_dipole_moment_norm": 4.66465208992, 
			 "electric_quadrupole_moment_norm": 21.7331993399, 
			 "total_energy": -891.823151659, 
			 "HOMO_LUMO_gap": 0.21175, 
			 "cosmo_polarized_energy": -12.57, 
			 "cosmo_cavitation_energy": 29.88, 
			 "cosmo_dispersion_energy": -21.04, 
			 "cosmo_repulsion_energy": 1.58, 
			 "cosmo_total_nonelectrostatic_energy": 10.41, 
			 "SMD_solvation_energy": 6.47 
		},
		"coords": [
			{
				"x": -2.5725484925,
				"y": -0.6609196346,
				"z": -0.0301500892,
				"element": "C" 
			},
			{
				"x": -2.2735137248,
				"y": 0.7653091741,
				"z": 0.1463451272,
				"element": "N" 
			},
			{
				"x": -1.5132698732,
				"y": 1.134647026,
				"z": 1.3615727774,
				"element": "C" 
			},
			{
				"x": -2.513248266,
				"y": 1.2473311059,
				"z": 2.5422473447,
				"element": "C" 
			},
			{
				"x": -3.7627171011,
				"y": 1.4952416655,
				"z": 2.1234942852,
				"element": "O" 
			},
			{
				"x": -2.2042595973,
				"y": 1.185796715,
				"z": 3.7079940875,
				"element": "O" 
			},
			{
				"x": -0.2802160253,
				"y": 0.289086146,
				"z": 1.6654527859,
				"element": "C" 
			},
			{
				"x": 0.9758258537,
				"y": 0.5775872962,
				"z": 1.0864702517,
				"element": "C" 
			},
			{
				"x": 2.0773989354,
				"y": -0.2499733016,
				"z": 1.323671551,
				"element": "C" 
			},
			{
				"x": 1.9531418227,
				"y": -1.3774508063,
				"z": 2.1326885321,
				"element": "C" 
			},
			{
				"x": 0.7212898715,
				"y": -1.6733183979,
				"z": 2.711230854,
				"element": "C" 
			},
			{
				"x": -0.3778098608,
				"y": -0.8467182575,
				"z": 2.4781217679,
				"element": "C" 
			},
			{
				"x": 1.1792123782,
				"y": 1.7914100024,
				"z": 0.2130821534,
				"element": "C" 
			},
			{
				"x": 2.4355935031,
				"y": 1.8852686511,
				"z": -0.2596292745,
				"element": "F" 
			},
			{
				"x": 0.9169110983,
				"y": 2.9477135975,
				"z": 0.8697256885,
				"element": "F" 
			},
			{
				"x": 0.3579845141,
				"y": 1.7830511639,
				"z": -0.8786410136,
				"element": "F" 
			},
			{
				"x": -3.1499674754,
				"y": -0.7818986534,
				"z": -0.9505076789,
				"element": "H" 
			},
			{
				"x": -3.1935796703,
				"y": -1.0094785854,
				"z": 0.8012412729,
				"element": "H" 
			},
			{
				"x": -1.6832552855,
				"y": -1.3024299539,
				"z": -0.085068832,
				"element": "H" 
			},
			{
				"x": -1.7820637162,
				"y": 1.12020612,
				"z": -0.6670722352,
				"element": "H" 
			},
			{
				"x": -1.1942995413,
				"y": 2.1688272024,
				"z": 1.2004992665,
				"element": "H" 
			},
			{
				"x": -3.7043940644,
				"y": 1.4490734259,
				"z": 1.1372430656,
				"element": "H" 
			},
			{
				"x": 3.0322124676,
				"y": -0.004503711,
				"z": 0.8746654381,
				"element": "H" 
			},
			{
				"x": 2.8150063226,
				"y": -2.0124536103,
				"z": 2.3123753759,
				"element": "H" 
			},
			{
				"x": 0.6114961038,
				"y": -2.5435768713,
				"z": 3.3513702486,
				"element": "H" 
			},
			{
				"x": -1.3216301768,
				"y": -1.0692275088,
				"z": 2.961477249,
				"element": "H" 
			}
		],
		 "valence_orbital": [ 
			{
				"type": "occ",
				"energy": -0.30608,
				"method": "rhf"
			},
			{
				"type": "occ",
				"energy": -0.28424,
				"method": "rhf"
			},
			{
				"type": "occ",
				"energy": -0.27325,
				"method": "rhf"
			},
			{
				"type": "occ",
				"energy": -0.27065,
				"method": "rhf"
			},
			{
				"type": "occ",
				"energy": -0.25124,
				"method": "rhf"
			},
			{
				"type": "unocc",
				"energy": -0.03949,
				"method": "rhf"
			},
			{
				"type": "unocc",
				"energy": -0.02412,
				"method": "rhf"
			},
			{
				"type": "unocc",
				"energy": 0.01235,
				"method": "rhf"
			},
			{
				"type": "unocc",
				"energy": 0.08207,
				"method": "rhf"
			},
			{
				"type": "unocc",
				"energy": 0.0881,
				"method": "rhf"
			}
		],
		"cosmo_sigma_profile": { 
			"-0.025": 0.0,
			"-0.024": 0.0,
			"-0.023": 0.0,
			"-0.022": 0.0,
			"-0.021": 0.0,
			"-0.02": 0.0,
			"-0.019": 0.0,
			"-0.018": 0.0,
			"-0.017": 0.0,
			"-0.016": 0.0,
			"-0.015": 0.0,
			"-0.014": 0.0,
			"-0.013": 0.0,
			"-0.012": 0.0,
			"-0.011": 0.0824802434329,
			"-0.01": 1.1560041603,
			"-0.009": 1.68794453756,
			"-0.008": 4.45021981909,
			"-0.007": 8.64343172827,
			"-0.006": 13.6917424179,
			"-0.005": 16.6054561205,
			"-0.004": 16.0236681308,
			"-0.003": 17.395497277,
			"-0.002": 18.730390676,
			"-0.001": 19.1772539565,
			"0.0": 15.7590504199,
			"0.001": 17.2371973295,
			"0.002": 29.1824804019,
			"0.003": 20.5241046199,
			"0.004": 5.76328478647,
			"0.005": 2.43988860921,
			"0.006": 3.1915413434,
			"0.007": 2.1704866747,
			"0.008": 3.10554744699,
			"0.009": 3.42552697867,
			"0.01": 5.52049854181,
			"0.011": 4.97096594079,
			"0.012": 5.05074468132,
			"0.013": 1.9091658672,
			"0.014": 0.104805950798,
			"0.015": 0.0,
			"0.016": 0.0,
			"0.017": 0.0,
			"0.018": 0.0,
			"0.019": 0.0,
			"0.02": 0.0,
			"0.021": 0.0,
			"0.022": 0.0,
			"0.023": 0.0,
			"0.024": 0.0,
			"0.025": 0.0
		}
	}
}
