{
	 "smiles": "NNC1=C(C=C(Cl)C=C1Cl)C(F)(F)F", 
	 "Tm": 314.65, 
	 "num_atms": 19, 
	 "gaussian": { 
		 "optdone": 1, 
		 "sigma_profile": "yes", 
		 "theory": "DFT", 
		 "functional": "B3LYP", 
		 "basiset": "6-31G**", 
		 "properties": { 
			 "R2extent": 3861.2031, 
			 "electric_dipole_moment_norm": 0.673418955777, 
			 "electric_quadrupole_moment_norm": 3.07385558054, 
			 "total_energy": -1599.13262142, 
			 "HOMO_LUMO_gap": 0.17825, 
			 "cosmo_polarized_energy": -6.41, 
			 "cosmo_cavitation_energy": 27.31, 
			 "cosmo_dispersion_energy": -20.38, 
			 "cosmo_repulsion_energy": 1.54, 
			 "cosmo_total_nonelectrostatic_energy": 8.47, 
			 "SMD_solvation_energy": 5.21 
		},
		"coords": [
			{
				"x": -2.4295329296,
				"y": -1.433086455,
				"z": 0.169915935,
				"element": "N" 
			},
			{
				"x": -1.4027722414,
				"y": -1.3429681778,
				"z": 1.1325505548,
				"element": "N" 
			},
			{
				"x": -0.1839913572,
				"y": -0.7145849825,
				"z": 0.9605732534,
				"element": "C" 
			},
			{
				"x": 0.0531913225,
				"y": 0.4585569038,
				"z": 0.1888344288,
				"element": "C" 
			},
			{
				"x": 1.3357726237,
				"y": 1.013640701,
				"z": 0.0991772268,
				"element": "C" 
			},
			{
				"x": 2.4049125782,
				"y": 0.4535801045,
				"z": 0.7805226223,
				"element": "C" 
			},
			{
				"x": 4.001806729,
				"y": 1.1648639338,
				"z": 0.653179022,
				"element": "Cl" 
			},
			{
				"x": 2.2102082245,
				"y": -0.6718995859,
				"z": 1.5776588491,
				"element": "C" 
			},
			{
				"x": 0.9447868925,
				"y": -1.2306801469,
				"z": 1.6544501891,
				"element": "C" 
			},
			{
				"x": 0.7552574829,
				"y": -2.6615553345,
				"z": 2.6659301082,
				"element": "Cl" 
			},
			{
				"x": -1.0399611396,
				"y": 1.1954064136,
				"z": -0.5454703371,
				"element": "C" 
			},
			{
				"x": -0.6363488864,
				"y": 2.412907266,
				"z": -0.9574113682,
				"element": "F" 
			},
			{
				"x": -1.46394038,
				"y": 0.5417336458,
				"z": -1.6614287434,
				"element": "F" 
			},
			{
				"x": -2.1362537494,
				"y": 1.395984514,
				"z": 0.2296065841,
				"element": "F" 
			},
			{
				"x": -2.9871895853,
				"y": -0.5862214577,
				"z": 0.2023469422,
				"element": "H" 
			},
			{
				"x": -2.0374823523,
				"y": -1.5102578178,
				"z": -0.7660003565,
				"element": "H" 
			},
			{
				"x": -1.3521795481,
				"y": -2.1850263956,
				"z": 1.6875719973,
				"element": "H" 
			},
			{
				"x": 1.4855041465,
				"y": 1.903723729,
				"z": -0.4966823272,
				"element": "H" 
			},
			{
				"x": 3.0326121694,
				"y": -1.1174168579,
				"z": 2.1239754193,
				"element": "H" 
			}
		],
		 "valence_orbital": [ 
			{
				"type": "occ",
				"energy": -0.32434,
				"method": "rhf"
			},
			{
				"type": "occ",
				"energy": -0.30872,
				"method": "rhf"
			},
			{
				"type": "occ",
				"energy": -0.27993,
				"method": "rhf"
			},
			{
				"type": "occ",
				"energy": -0.27705,
				"method": "rhf"
			},
			{
				"type": "occ",
				"energy": -0.22472,
				"method": "rhf"
			},
			{
				"type": "unocc",
				"energy": -0.04647,
				"method": "rhf"
			},
			{
				"type": "unocc",
				"energy": -0.02558,
				"method": "rhf"
			},
			{
				"type": "unocc",
				"energy": -0.00422,
				"method": "rhf"
			},
			{
				"type": "unocc",
				"energy": 0.03665,
				"method": "rhf"
			},
			{
				"type": "unocc",
				"energy": 0.08988,
				"method": "rhf"
			}
		],
		"cosmo_sigma_profile": { 
			"-0.025": 0.0,
			"-0.024": 0.0,
			"-0.023": 0.0,
			"-0.022": 0.0,
			"-0.021": 0.0,
			"-0.02": 0.0,
			"-0.019": 0.0,
			"-0.018": 0.0,
			"-0.017": 0.0,
			"-0.016": 0.0,
			"-0.015": 0.0,
			"-0.014": 0.0,
			"-0.013": 0.0,
			"-0.012": 0.0,
			"-0.011": 0.538618897227,
			"-0.01": 2.10238946002,
			"-0.009": 3.70165797803,
			"-0.008": 5.19380097913,
			"-0.007": 6.57085483807,
			"-0.006": 6.67793937004,
			"-0.005": 7.21251667756,
			"-0.004": 8.537181018,
			"-0.003": 9.98514988432,
			"-0.002": 14.3727835129,
			"-0.001": 16.9571467054,
			"0.0": 26.4533058916,
			"0.001": 33.9204154241,
			"0.002": 31.4041966301,
			"0.003": 22.2185012157,
			"0.004": 15.2938012657,
			"0.005": 4.20175325371,
			"0.006": 1.49504572661,
			"0.007": 1.86155032819,
			"0.008": 0.77812943667,
			"0.009": 0.190557881887,
			"0.01": 0.599034107783,
			"0.011": 0.492483333482,
			"0.012": 0.961383624746,
			"0.013": 0.555381522697,
			"0.014": 0.404619627517,
			"0.015": 0.680254964583,
			"0.016": 0.384810090574,
			"0.017": 0.000976008732409,
			"0.018": 0.0,
			"0.019": 0.0,
			"0.02": 0.0,
			"0.021": 0.0,
			"0.022": 0.0,
			"0.023": 0.0,
			"0.024": 0.0,
			"0.025": 0.0
		}
	}
}
