{
	 "smiles": "CCOC(=O)C1=CC=C(OC)C(OC)=C1", 
	 "Tm": 316.95, 
	 "num_atms": 29, 
	 "gaussian": { 
		 "optdone": 1, 
		 "sigma_profile": "yes", 
		 "theory": "DFT", 
		 "functional": "B3LYP", 
		 "basiset": "6-31G**", 
		 "properties": { 
			 "R2extent": 4538.469, 
			 "electric_dipole_moment_norm": 2.45340541493, 
			 "electric_quadrupole_moment_norm": 11.5695949895, 
			 "total_energy": -728.49079729, 
			 "HOMO_LUMO_gap": 0.19567, 
			 "cosmo_polarized_energy": -9.22, 
			 "cosmo_cavitation_energy": 32.99, 
			 "cosmo_dispersion_energy": -23.49, 
			 "cosmo_repulsion_energy": 1.88, 
			 "cosmo_total_nonelectrostatic_energy": 11.37, 
			 "SMD_solvation_energy": 8.28 
		},
		"coords": [
			{
				"x": 0.5887033646,
				"y": 4.039648459,
				"z": 3.3262599292,
				"element": "C" 
			},
			{
				"x": 0.1635956321,
				"y": 2.6581199698,
				"z": 3.7864868042,
				"element": "C" 
			},
			{
				"x": 0.1883734528,
				"y": 1.7893543311,
				"z": 2.6330397768,
				"element": "O" 
			},
			{
				"x": -0.1661173854,
				"y": 0.5032665441,
				"z": 2.8586176103,
				"element": "C" 
			},
			{
				"x": -0.4877321103,
				"y": 0.0854384411,
				"z": 3.9553737205,
				"element": "O" 
			},
			{
				"x": -0.1176979377,
				"y": -0.3273770388,
				"z": 1.6241142004,
				"element": "C" 
			},
			{
				"x": -0.465163716,
				"y": -1.6804940694,
				"z": 1.7272517047,
				"element": "C" 
			},
			{
				"x": -0.4479690566,
				"y": -2.4921293483,
				"z": 0.5976980251,
				"element": "C" 
			},
			{
				"x": -0.0777639742,
				"y": -1.9708770063,
				"z": -0.6453940372,
				"element": "C" 
			},
			{
				"x": -0.0498717864,
				"y": -2.8126035051,
				"z": -1.7293901963,
				"element": "O" 
			},
			{
				"x": -0.9891039908,
				"y": -2.50847168,
				"z": -2.7705386553,
				"element": "C" 
			},
			{
				"x": 0.303508873,
				"y": -0.6164812522,
				"z": -0.7464585719,
				"element": "C" 
			},
			{
				"x": 0.6755702528,
				"y": -0.0656528624,
				"z": -1.9537451762,
				"element": "O" 
			},
			{
				"x": 1.9462898336,
				"y": -0.5103609811,
				"z": -2.4451099141,
				"element": "C" 
			},
			{
				"x": 0.272270733,
				"y": 0.1959508748,
				"z": 0.3835203562,
				"element": "C" 
			},
			{
				"x": -0.0936188357,
				"y": 4.4251723226,
				"z": 2.5631662698,
				"element": "H" 
			},
			{
				"x": 1.5987143275,
				"y": 4.0189809685,
				"z": 2.9066975862,
				"element": "H" 
			},
			{
				"x": 0.5827809019,
				"y": 4.7316267281,
				"z": 4.174231019,
				"element": "H" 
			},
			{
				"x": 0.8360949735,
				"y": 2.2528119194,
				"z": 4.5493139295,
				"element": "H" 
			},
			{
				"x": -0.8465870066,
				"y": 2.6572193296,
				"z": 4.2082886899,
				"element": "H" 
			},
			{
				"x": -0.7567763054,
				"y": -2.0714877302,
				"z": 2.6956780926,
				"element": "H" 
			},
			{
				"x": -0.7243007666,
				"y": -3.54030815,
				"z": 0.6502929831,
				"element": "H" 
			},
			{
				"x": -2.0169083648,
				"y": -2.5930293217,
				"z": -2.3967544729,
				"element": "H" 
			},
			{
				"x": -0.8283789424,
				"y": -1.5047630666,
				"z": -3.1736495865,
				"element": "H" 
			},
			{
				"x": -0.8269674559,
				"y": -3.2541603956,
				"z": -3.5510062041,
				"element": "H" 
			},
			{
				"x": 2.1031823778,
				"y": 0.0030299733,
				"z": -3.3958406816,
				"element": "H" 
			},
			{
				"x": 1.9564227773,
				"y": -1.5935014292,
				"z": -2.6034093865,
				"element": "H" 
			},
			{
				"x": 2.748457168,
				"y": -0.2364189676,
				"z": -1.7485927141,
				"element": "H" 
			},
			{
				"x": 0.5579929669,
				"y": 1.2363969429,
				"z": 0.2851588993,
				"element": "H" 
			}
		],
		 "valence_orbital": [ 
			{
				"type": "occ",
				"energy": -0.29506,
				"method": "rhf"
			},
			{
				"type": "occ",
				"energy": -0.2743,
				"method": "rhf"
			},
			{
				"type": "occ",
				"energy": -0.26416,
				"method": "rhf"
			},
			{
				"type": "occ",
				"energy": -0.24969,
				"method": "rhf"
			},
			{
				"type": "occ",
				"energy": -0.23503,
				"method": "rhf"
			},
			{
				"type": "unocc",
				"energy": -0.03936,
				"method": "rhf"
			},
			{
				"type": "unocc",
				"energy": -0.004,
				"method": "rhf"
			},
			{
				"type": "unocc",
				"energy": 0.06162,
				"method": "rhf"
			},
			{
				"type": "unocc",
				"energy": 0.0845,
				"method": "rhf"
			},
			{
				"type": "unocc",
				"energy": 0.10123,
				"method": "rhf"
			}
		],
		"cosmo_sigma_profile": { 
			"-0.025": 0.0,
			"-0.024": 0.0,
			"-0.023": 0.0,
			"-0.022": 0.0,
			"-0.021": 0.0,
			"-0.02": 0.0,
			"-0.019": 0.0,
			"-0.018": 0.0,
			"-0.017": 0.0,
			"-0.016": 0.0,
			"-0.015": 0.0,
			"-0.014": 0.0,
			"-0.013": 0.0,
			"-0.012": 0.0,
			"-0.011": 0.0,
			"-0.01": 0.0,
			"-0.009": 0.0,
			"-0.008": 0.0,
			"-0.007": 0.874694171783,
			"-0.006": 5.95804485761,
			"-0.005": 17.0671733111,
			"-0.004": 28.3660587507,
			"-0.003": 35.2667749691,
			"-0.002": 29.9452662801,
			"-0.001": 25.8309666203,
			"0.0": 20.1224876015,
			"0.001": 18.5041475915,
			"0.002": 19.1040549912,
			"0.003": 16.7531097565,
			"0.004": 8.03028084688,
			"0.005": 7.6153889566,
			"0.006": 3.91933554024,
			"0.007": 2.62745065372,
			"0.008": 3.32723571923,
			"0.009": 3.83013530167,
			"0.01": 3.88797951299,
			"0.011": 4.39800886693,
			"0.012": 4.94564068948,
			"0.013": 0.621050850937,
			"0.014": 0.0,
			"0.015": 0.0,
			"0.016": 0.0,
			"0.017": 0.0,
			"0.018": 0.0,
			"0.019": 0.0,
			"0.02": 0.0,
			"0.021": 0.0,
			"0.022": 0.0,
			"0.023": 0.0,
			"0.024": 0.0,
			"0.025": 0.0
		}
	}
}
