{
	 "smiles": "COC1=C(F)C=C(C=C1F)C(O)=O", 
	 "Tm": 438.15, 
	 "num_atms": 19, 
	 "gaussian": { 
		 "optdone": 1, 
		 "sigma_profile": "yes", 
		 "theory": "DFT", 
		 "functional": "B3LYP", 
		 "basiset": "6-31G**", 
		 "properties": { 
			 "R2extent": 3300.8641, 
			 "electric_dipole_moment_norm": 1.21677100968, 
			 "electric_quadrupole_moment_norm": 14.6483404234, 
			 "total_energy": -733.800379784, 
			 "HOMO_LUMO_gap": 0.18534, 
			 "cosmo_polarized_energy": -9.68, 
			 "cosmo_cavitation_energy": 25.04, 
			 "cosmo_dispersion_energy": -18.29, 
			 "cosmo_repulsion_energy": 1.4, 
			 "cosmo_total_nonelectrostatic_energy": 8.15, 
			 "SMD_solvation_energy": 7.37 
		},
		"coords": [
			{
				"x": -0.2682573194,
				"y": -1.0666660084,
				"z": 2.4559657667,
				"element": "C" 
			},
			{
				"x": -1.1473643594,
				"y": -0.502694764,
				"z": 1.4763410222,
				"element": "O" 
			},
			{
				"x": -0.79807086,
				"y": -0.429588779,
				"z": 0.1758299431,
				"element": "C" 
			},
			{
				"x": 0.3957162803,
				"y": -0.8548882286,
				"z": -0.4329035282,
				"element": "C" 
			},
			{
				"x": 1.3680279172,
				"y": -1.4214914631,
				"z": 0.3220284179,
				"element": "F" 
			},
			{
				"x": 0.6227812125,
				"y": -0.7168001244,
				"z": -1.7924044482,
				"element": "C" 
			},
			{
				"x": -0.3541518293,
				"y": -0.1376714175,
				"z": -2.6067749731,
				"element": "C" 
			},
			{
				"x": -1.5603581879,
				"y": 0.3005583658,
				"z": -2.0401802952,
				"element": "C" 
			},
			{
				"x": -1.7572342637,
				"y": 0.1491560063,
				"z": -0.6816603299,
				"element": "C" 
			},
			{
				"x": -2.9076370435,
				"y": 0.5641712913,
				"z": -0.1245619325,
				"element": "F" 
			},
			{
				"x": -0.0652431048,
				"y": -0.0115497684,
				"z": -4.055426155,
				"element": "C" 
			},
			{
				"x": -1.0801248652,
				"y": 0.5632518228,
				"z": -4.7486141247,
				"element": "O" 
			},
			{
				"x": 0.9623681995,
				"y": -0.3753680248,
				"z": -4.593225906,
				"element": "O" 
			},
			{
				"x": -0.0498307517,
				"y": -2.1158268177,
				"z": 2.241019289,
				"element": "H" 
			},
			{
				"x": -0.8138659482,
				"y": -0.9888213943,
				"z": 3.3969911152,
				"element": "H" 
			},
			{
				"x": 0.667624563,
				"y": -0.506152214,
				"z": 2.5238494428,
				"element": "H" 
			},
			{
				"x": 1.5580483643,
				"y": -1.0587430208,
				"z": -2.2197098466,
				"element": "H" 
			},
			{
				"x": -2.3371552241,
				"y": 0.7532258008,
				"z": -2.6432355959,
				"element": "H" 
			},
			{
				"x": -0.7841727796,
				"y": 0.5938987381,
				"z": -5.6730278617,
				"element": "H" 
			}
		],
		 "valence_orbital": [ 
			{
				"type": "occ",
				"energy": -0.34081,
				"method": "rhf"
			},
			{
				"type": "occ",
				"energy": -0.31973,
				"method": "rhf"
			},
			{
				"type": "occ",
				"energy": -0.28137,
				"method": "rhf"
			},
			{
				"type": "occ",
				"energy": -0.25887,
				"method": "rhf"
			},
			{
				"type": "occ",
				"energy": -0.23693,
				"method": "rhf"
			},
			{
				"type": "unocc",
				"energy": -0.05159,
				"method": "rhf"
			},
			{
				"type": "unocc",
				"energy": -0.00967,
				"method": "rhf"
			},
			{
				"type": "unocc",
				"energy": 0.05298,
				"method": "rhf"
			},
			{
				"type": "unocc",
				"energy": 0.05826,
				"method": "rhf"
			},
			{
				"type": "unocc",
				"energy": 0.08018,
				"method": "rhf"
			}
		],
		"cosmo_sigma_profile": { 
			"-0.025": 0.0,
			"-0.024": 0.0,
			"-0.023": 0.0,
			"-0.022": 0.0,
			"-0.021": 0.0,
			"-0.02": 0.0,
			"-0.019": 0.171332320327,
			"-0.018": 0.784709346414,
			"-0.017": 1.26450819778,
			"-0.016": 0.445193544503,
			"-0.015": 0.501361846906,
			"-0.014": 0.533635885604,
			"-0.013": 0.876015539461,
			"-0.012": 0.978607549342,
			"-0.011": 0.558788530165,
			"-0.01": 0.86981282072,
			"-0.009": 0.683737684609,
			"-0.008": 1.44595734491,
			"-0.007": 3.32170516184,
			"-0.006": 9.79922087639,
			"-0.005": 10.2320982673,
			"-0.004": 13.2307781336,
			"-0.003": 12.8579503053,
			"-0.002": 13.1764224204,
			"-0.001": 20.5016537037,
			"0.0": 19.7624519975,
			"0.001": 18.3812067827,
			"0.002": 11.9679819483,
			"0.003": 13.5912117401,
			"0.004": 14.2851676263,
			"0.005": 5.82810914956,
			"0.006": 3.92920514763,
			"0.007": 5.06008070649,
			"0.008": 3.00391256668,
			"0.009": 3.33977869503,
			"0.01": 1.80023622755,
			"0.011": 4.21883050299,
			"0.012": 3.35492441196,
			"0.013": 0.0361412899382,
			"0.014": 0.0,
			"0.015": 0.0,
			"0.016": 0.0,
			"0.017": 0.0,
			"0.018": 0.0,
			"0.019": 0.0,
			"0.02": 0.0,
			"0.021": 0.0,
			"0.022": 0.0,
			"0.023": 0.0,
			"0.024": 0.0,
			"0.025": 0.0
		}
	}
}
