{
	 "smiles": "N#CCCCOC1=CC=CC=C1", 
	 "Tm": 318.65, 
	 "num_atms": 23, 
	 "gaussian": { 
		 "optdone": 1, 
		 "sigma_profile": "yes", 
		 "theory": "DFT", 
		 "functional": "B3LYP", 
		 "basiset": "6-31G**", 
		 "properties": { 
			 "R2extent": 2861.9463, 
			 "electric_dipole_moment_norm": 3.12937081536, 
			 "electric_quadrupole_moment_norm": 16.0045419691, 
			 "total_energy": -517.644387628, 
			 "HOMO_LUMO_gap": 0.21808, 
			 "cosmo_polarized_energy": -12.21, 
			 "cosmo_cavitation_energy": 27.48, 
			 "cosmo_dispersion_energy": -19.2, 
			 "cosmo_repulsion_energy": 1.55, 
			 "cosmo_total_nonelectrostatic_energy": 9.83, 
			 "SMD_solvation_energy": 6.05 
		},
		"coords": [
			{
				"x": 2.6922061858,
				"y": 1.7836464225,
				"z": -0.7739776759,
				"element": "N" 
			},
			{
				"x": 1.6988394021,
				"y": 2.0540405994,
				"z": -1.3107338482,
				"element": "C" 
			},
			{
				"x": 0.4245047512,
				"y": 2.3684889207,
				"z": -1.966282807,
				"element": "C" 
			},
			{
				"x": -0.7479829739,
				"y": 1.5253706396,
				"z": -1.4222596826,
				"element": "C" 
			},
			{
				"x": -0.584461917,
				"y": 0.0297578876,
				"z": -1.7112977887,
				"element": "C" 
			},
			{
				"x": -1.6768031336,
				"y": -0.7279784933,
				"z": -1.206408967,
				"element": "O" 
			},
			{
				"x": -1.7043352345,
				"y": -1.0818662152,
				"z": 0.1195043765,
				"element": "C" 
			},
			{
				"x": -2.8474664151,
				"y": -1.7882937797,
				"z": 0.521010808,
				"element": "C" 
			},
			{
				"x": -2.9777388772,
				"y": -2.2123744732,
				"z": 1.8390056706,
				"element": "C" 
			},
			{
				"x": -1.9751533877,
				"y": -1.9392814875,
				"z": 2.7756605598,
				"element": "C" 
			},
			{
				"x": -0.8427649787,
				"y": -1.2359572795,
				"z": 2.3716306963,
				"element": "C" 
			},
			{
				"x": -0.6962616647,
				"y": -0.8012480965,
				"z": 1.049953407,
				"element": "C" 
			},
			{
				"x": 0.5450089984,
				"y": 2.2133317453,
				"z": -3.0457118031,
				"element": "H" 
			},
			{
				"x": 0.2190193064,
				"y": 3.4348076179,
				"z": -1.8224178235,
				"element": "H" 
			},
			{
				"x": -1.6745501059,
				"y": 1.876488585,
				"z": -1.8876694582,
				"element": "H" 
			},
			{
				"x": -0.8461084976,
				"y": 1.6882532014,
				"z": -0.3448072597,
				"element": "H" 
			},
			{
				"x": -0.5928181264,
				"y": -0.145095612,
				"z": -2.7922878246,
				"element": "H" 
			},
			{
				"x": 0.3699331939,
				"y": -0.3489515459,
				"z": -1.325469657,
				"element": "H" 
			},
			{
				"x": -3.6136252633,
				"y": -1.9939329959,
				"z": -0.2195153943,
				"element": "H" 
			},
			{
				"x": -3.8672459916,
				"y": -2.7606035603,
				"z": 2.1365735328,
				"element": "H" 
			},
			{
				"x": -2.0785191933,
				"y": -2.27041354,
				"z": 3.8042234744,
				"element": "H" 
			},
			{
				"x": -0.0550162012,
				"y": -1.0146238164,
				"z": 3.086249262,
				"element": "H" 
			},
			{
				"x": 0.1975401238,
				"y": -0.255764724,
				"z": 0.7701282024,
				"element": "H" 
			}
		],
		 "valence_orbital": [ 
			{
				"type": "occ",
				"energy": -0.33093,
				"method": "rhf"
			},
			{
				"type": "occ",
				"energy": -0.32349,
				"method": "rhf"
			},
			{
				"type": "occ",
				"energy": -0.3158,
				"method": "rhf"
			},
			{
				"type": "occ",
				"energy": -0.24975,
				"method": "rhf"
			},
			{
				"type": "occ",
				"energy": -0.21948,
				"method": "rhf"
			},
			{
				"type": "unocc",
				"energy": -0.0014,
				"method": "rhf"
			},
			{
				"type": "unocc",
				"energy": 0.0126,
				"method": "rhf"
			},
			{
				"type": "unocc",
				"energy": 0.0253,
				"method": "rhf"
			},
			{
				"type": "unocc",
				"energy": 0.03055,
				"method": "rhf"
			},
			{
				"type": "unocc",
				"energy": 0.07073,
				"method": "rhf"
			}
		],
		"cosmo_sigma_profile": { 
			"-0.025": 0.0,
			"-0.024": 0.0,
			"-0.023": 0.0,
			"-0.022": 0.0,
			"-0.021": 0.0,
			"-0.02": 0.0,
			"-0.019": 0.0,
			"-0.018": 0.0,
			"-0.017": 0.0,
			"-0.016": 0.0,
			"-0.015": 0.0,
			"-0.014": 0.0,
			"-0.013": 0.0,
			"-0.012": 0.0,
			"-0.011": 0.0,
			"-0.01": 0.0,
			"-0.009": 0.94327671378,
			"-0.008": 7.07069095275,
			"-0.007": 6.45239871789,
			"-0.006": 12.7483508102,
			"-0.005": 26.9059353186,
			"-0.004": 21.8687290726,
			"-0.003": 17.7333052196,
			"-0.002": 13.018333713,
			"-0.001": 10.8851130166,
			"0.0": 8.09483530442,
			"0.001": 10.4323964756,
			"0.002": 8.55809904362,
			"0.003": 10.7287396001,
			"0.004": 13.1844708256,
			"0.005": 11.968415887,
			"0.006": 12.6282729003,
			"0.007": 4.7276336514,
			"0.008": 4.0583173048,
			"0.009": 4.24851032154,
			"0.01": 4.58668295446,
			"0.011": 3.19669503598,
			"0.012": 2.50946980655,
			"0.013": 2.14009333363,
			"0.014": 0.397277528024,
			"0.015": 0.0,
			"0.016": 0.0,
			"0.017": 0.0,
			"0.018": 0.0,
			"0.019": 0.0,
			"0.02": 0.0,
			"0.021": 0.0,
			"0.022": 0.0,
			"0.023": 0.0,
			"0.024": 0.0,
			"0.025": 0.0
		}
	}
}
