{
	 "smiles": "NC1=NN(C(=O)C2=C(Br)C=CC=C2)C2=C1C=CC=C2", 
	 "Tm": 498.15, 
	 "num_atms": 29, 
	 "gaussian": { 
		 "optdone": 1, 
		 "sigma_profile": "yes", 
		 "theory": "DFT", 
		 "functional": "B3LYP", 
		 "basiset": "6-31G**", 
		 "properties": { 
			 "R2extent": 5591.6812, 
			 "electric_dipole_moment_norm": 4.6027448452, 
			 "electric_quadrupole_moment_norm": 22.0639684663, 
			 "total_energy": -3350.38486962, 
			 "HOMO_LUMO_gap": 0.17042, 
			 "cosmo_polarized_energy": -20.46, 
			 "cosmo_cavitation_energy": 35.98, 
			 "cosmo_dispersion_energy": -25.3, 
			 "cosmo_repulsion_energy": 1.95, 
			 "cosmo_total_nonelectrostatic_energy": 12.63, 
			 "SMD_solvation_energy": 4.56 
		},
		"coords": [
			{
				"x": -2.6280119028,
				"y": -3.4862586166,
				"z": -0.0502731993,
				"element": "N" 
			},
			{
				"x": -1.7096691968,
				"y": -2.4780215269,
				"z": -0.2754723814,
				"element": "C" 
			},
			{
				"x": -2.0089356652,
				"y": -1.2166426928,
				"z": -0.0927340007,
				"element": "N" 
			},
			{
				"x": -0.8866934878,
				"y": -0.4881701757,
				"z": -0.476604798,
				"element": "N" 
			},
			{
				"x": -0.9746676161,
				"y": 0.9078078823,
				"z": -0.4103585048,
				"element": "C" 
			},
			{
				"x": -2.0242717911,
				"y": 1.4790658288,
				"z": -0.1992346348,
				"element": "O" 
			},
			{
				"x": 0.2908421889,
				"y": 1.6941997342,
				"z": -0.6438119566,
				"element": "C" 
			},
			{
				"x": 1.3036902342,
				"y": 1.828436148,
				"z": 0.3134181707,
				"element": "C" 
			},
			{
				"x": 1.1963734328,
				"y": 0.9010342066,
				"z": 1.9812303397,
				"element": "Br" 
			},
			{
				"x": 2.4076688982,
				"y": 2.6500424941,
				"z": 0.0849783921,
				"element": "C" 
			},
			{
				"x": 2.5066844622,
				"y": 3.352541306,
				"z": -1.1158450604,
				"element": "C" 
			},
			{
				"x": 1.4982598203,
				"y": 3.2465043688,
				"z": -2.0756301761,
				"element": "C" 
			},
			{
				"x": 0.394978619,
				"y": 2.4317909172,
				"z": -1.8317600807,
				"element": "C" 
			},
			{
				"x": 0.139621589,
				"y": -1.3398155535,
				"z": -0.9091401138,
				"element": "C" 
			},
			{
				"x": -0.370436155,
				"y": -2.6502180519,
				"z": -0.7917446789,
				"element": "C" 
			},
			{
				"x": 0.391316986,
				"y": -3.7616679636,
				"z": -1.1687904358,
				"element": "C" 
			},
			{
				"x": 1.6727531529,
				"y": -3.5454796537,
				"z": -1.6591351198,
				"element": "C" 
			},
			{
				"x": 2.1752694183,
				"y": -2.2365939754,
				"z": -1.7789071035,
				"element": "C" 
			},
			{
				"x": 1.4282600814,
				"y": -1.1195930548,
				"z": -1.4161704702,
				"element": "C" 
			},
			{
				"x": -3.4465798124,
				"y": -3.1660858192,
				"z": 0.4525476599,
				"element": "H" 
			},
			{
				"x": -2.2406212539,
				"y": -4.333551694,
				"z": 0.3430597807,
				"element": "H" 
			},
			{
				"x": 3.1757681512,
				"y": 2.7389807496,
				"z": 0.8447220979,
				"element": "H" 
			},
			{
				"x": 3.3684642068,
				"y": 3.9890831371,
				"z": -1.2925913334,
				"element": "H" 
			},
			{
				"x": 1.5663426834,
				"y": 3.8015925183,
				"z": -3.0059274027,
				"element": "H" 
			},
			{
				"x": -0.4045649847,
				"y": 2.3573326781,
				"z": -2.5623932392,
				"element": "H" 
			},
			{
				"x": -0.0145497682,
				"y": -4.7663481731,
				"z": -1.0932894974,
				"element": "H" 
			},
			{
				"x": 2.2890326078,
				"y": -4.386395495,
				"z": -1.9613053258,
				"element": "H" 
			},
			{
				"x": 3.1769227414,
				"y": -2.0876347289,
				"z": -2.1714625912,
				"element": "H" 
			},
			{
				"x": 1.8405523602,
				"y": -0.127434794,
				"z": -1.5318743367,
				"element": "H" 
			}
		],
		 "valence_orbital": [ 
			{
				"type": "occ",
				"energy": -0.26726,
				"method": "rhf"
			},
			{
				"type": "occ",
				"energy": -0.25627,
				"method": "rhf"
			},
			{
				"type": "occ",
				"energy": -0.24994,
				"method": "rhf"
			},
			{
				"type": "occ",
				"energy": -0.24675,
				"method": "rhf"
			},
			{
				"type": "occ",
				"energy": -0.21202,
				"method": "rhf"
			},
			{
				"type": "unocc",
				"energy": -0.0416,
				"method": "rhf"
			},
			{
				"type": "unocc",
				"energy": -0.03135,
				"method": "rhf"
			},
			{
				"type": "unocc",
				"energy": -0.02329,
				"method": "rhf"
			},
			{
				"type": "unocc",
				"energy": -0.01425,
				"method": "rhf"
			},
			{
				"type": "unocc",
				"energy": 0.0023,
				"method": "rhf"
			}
		],
		"cosmo_sigma_profile": { 
			"-0.025": 0.0,
			"-0.024": 0.0,
			"-0.023": 0.0,
			"-0.022": 0.0,
			"-0.021": 0.0,
			"-0.02": 0.0,
			"-0.019": 0.0,
			"-0.018": 0.0,
			"-0.017": 0.0,
			"-0.016": 0.0,
			"-0.015": 0.0,
			"-0.014": 0.64967009324,
			"-0.013": 2.53321983818,
			"-0.012": 2.31347195792,
			"-0.011": 3.00055958294,
			"-0.01": 3.18601773361,
			"-0.009": 2.74579271593,
			"-0.008": 3.84234730914,
			"-0.007": 13.2120482322,
			"-0.006": 18.1364787876,
			"-0.005": 18.5270138515,
			"-0.004": 17.3457370721,
			"-0.003": 14.9131997851,
			"-0.002": 15.6314843621,
			"-0.001": 16.6141499943,
			"0.0": 18.6997351772,
			"0.001": 23.7282027259,
			"0.002": 27.4224694877,
			"0.003": 29.8800049902,
			"0.004": 20.4715452539,
			"0.005": 5.05045143329,
			"0.006": 3.12244555048,
			"0.007": 3.03080759934,
			"0.008": 3.55379696073,
			"0.009": 2.67800737403,
			"0.01": 2.74527496241,
			"0.011": 4.98697291857,
			"0.012": 6.70608755892,
			"0.013": 1.98930093759,
			"0.014": 1.69619363464,
			"0.015": 0.766173696223,
			"0.016": 1.27683825846,
			"0.017": 1.27129719795,
			"0.018": 0.529375271623,
			"0.019": 0.0191834011132,
			"0.02": 0.0,
			"0.021": 0.0,
			"0.022": 0.0,
			"0.023": 0.0,
			"0.024": 0.0,
			"0.025": 0.0
		}
	}
}
