{
	 "smiles": "OC(=O)C1=C2C=CC=CC2=NC=C1O", 
	 "Tm": 473.15, 
	 "num_atms": 21, 
	 "gaussian": { 
		 "optdone": 1, 
		 "sigma_profile": "yes", 
		 "theory": "DFT", 
		 "functional": "B3LYP", 
		 "basiset": "6-31G**", 
		 "properties": { 
			 "R2extent": 2536.1423, 
			 "electric_dipole_moment_norm": 3.48448497486, 
			 "electric_quadrupole_moment_norm": 9.67028481483, 
			 "total_energy": -665.721957794, 
			 "HOMO_LUMO_gap": 0.15386, 
			 "cosmo_polarized_energy": -11.93, 
			 "cosmo_cavitation_energy": 24.97, 
			 "cosmo_dispersion_energy": -19.28, 
			 "cosmo_repulsion_energy": 1.46, 
			 "cosmo_total_nonelectrostatic_energy": 7.16, 
			 "SMD_solvation_energy": 4.06 
		},
		"coords": [
			{
				"x": -0.1418014005,
				"y": -2.890024568,
				"z": 0.6743037144,
				"element": "O" 
			},
			{
				"x": 0.9390809942,
				"y": -2.1218763846,
				"z": 0.4388633434,
				"element": "C" 
			},
			{
				"x": 2.0500034297,
				"y": -2.6234739697,
				"z": 0.5821282659,
				"element": "O" 
			},
			{
				"x": 0.7503668101,
				"y": -0.7372640096,
				"z": -0.05398666,
				"element": "C" 
			},
			{
				"x": -0.4588907261,
				"y": 0.0392888797,
				"z": 0.0561788433,
				"element": "C" 
			},
			{
				"x": -1.5707698433,
				"y": -0.2883961506,
				"z": 0.8806259624,
				"element": "C" 
			},
			{
				"x": -2.7009091504,
				"y": 0.5087028767,
				"z": 0.9050289385,
				"element": "C" 
			},
			{
				"x": -2.7819652564,
				"y": 1.6775027463,
				"z": 0.1219625053,
				"element": "C" 
			},
			{
				"x": -1.7014396772,
				"y": 2.0519577511,
				"z": -0.6484642198,
				"element": "C" 
			},
			{
				"x": -0.5267401414,
				"y": 1.2635579144,
				"z": -0.6848534646,
				"element": "C" 
			},
			{
				"x": 0.5212752682,
				"y": 1.736181347,
				"z": -1.4337368746,
				"element": "N" 
			},
			{
				"x": 1.6390978822,
				"y": 1.0631857531,
				"z": -1.4392234215,
				"element": "C" 
			},
			{
				"x": 1.8284549673,
				"y": -0.1769966994,
				"z": -0.7490565,
				"element": "C" 
			},
			{
				"x": 3.0315333886,
				"y": -0.7397211892,
				"z": -0.8560221673,
				"element": "O" 
			},
			{
				"x": -0.9452118403,
				"y": -2.4357276196,
				"z": 0.3781643973,
				"element": "H" 
			},
			{
				"x": -1.5187128688,
				"y": -1.1284019104,
				"z": 1.5658931182,
				"element": "H" 
			},
			{
				"x": -3.5276855821,
				"y": 0.2363638958,
				"z": 1.5545615591,
				"element": "H" 
			},
			{
				"x": -3.6781359947,
				"y": 2.289174302,
				"z": 0.1486662636,
				"element": "H" 
			},
			{
				"x": -1.7032690192,
				"y": 2.962983676,
				"z": -1.2377648699,
				"element": "H" 
			},
			{
				"x": 2.4782198078,
				"y": 1.4523747583,
				"z": -2.0134185079,
				"element": "H" 
			},
			{
				"x": 3.0088989522,
				"y": -1.5607913991,
				"z": -0.2986502257,
				"element": "H" 
			}
		],
		 "valence_orbital": [ 
			{
				"type": "occ",
				"energy": -0.3124,
				"method": "rhf"
			},
			{
				"type": "occ",
				"energy": -0.3024,
				"method": "rhf"
			},
			{
				"type": "occ",
				"energy": -0.27164,
				"method": "rhf"
			},
			{
				"type": "occ",
				"energy": -0.25881,
				"method": "rhf"
			},
			{
				"type": "occ",
				"energy": -0.2394,
				"method": "rhf"
			},
			{
				"type": "unocc",
				"energy": -0.08554,
				"method": "rhf"
			},
			{
				"type": "unocc",
				"energy": -0.0289,
				"method": "rhf"
			},
			{
				"type": "unocc",
				"energy": -0.02514,
				"method": "rhf"
			},
			{
				"type": "unocc",
				"energy": 0.02766,
				"method": "rhf"
			},
			{
				"type": "unocc",
				"energy": 0.07776,
				"method": "rhf"
			}
		],
		"cosmo_sigma_profile": { 
			"-0.025": 0.0,
			"-0.024": 0.0,
			"-0.023": 0.0,
			"-0.022": 0.0,
			"-0.021": 0.0,
			"-0.02": 0.0,
			"-0.019": 0.0,
			"-0.018": 0.0,
			"-0.017": 0.195660044733,
			"-0.016": 1.00785333996,
			"-0.015": 0.752185260041,
			"-0.014": 0.829657134994,
			"-0.013": 1.34166428285,
			"-0.012": 1.20379236369,
			"-0.011": 0.766765003931,
			"-0.01": 1.00848201562,
			"-0.009": 1.48801561948,
			"-0.008": 3.10131902218,
			"-0.007": 6.59811082635,
			"-0.006": 12.3511769385,
			"-0.005": 13.5838940488,
			"-0.004": 12.8297759928,
			"-0.003": 11.1256519818,
			"-0.002": 16.9258949641,
			"-0.001": 14.2086887325,
			"0.0": 12.1992701104,
			"0.001": 12.1497003881,
			"0.002": 15.6225804496,
			"0.003": 14.7439113788,
			"0.004": 8.78043716946,
			"0.005": 5.11512108085,
			"0.006": 4.26000704708,
			"0.007": 5.28105918642,
			"0.008": 6.06053722012,
			"0.009": 6.69292377043,
			"0.01": 4.82346176369,
			"0.011": 3.1127861067,
			"0.012": 1.47747835349,
			"0.013": 1.00395688014,
			"0.014": 0.781364003433,
			"0.015": 0.227973750933,
			"0.016": 0.0,
			"0.017": 0.0,
			"0.018": 0.0,
			"0.019": 0.0,
			"0.02": 0.0,
			"0.021": 0.0,
			"0.022": 0.0,
			"0.023": 0.0,
			"0.024": 0.0,
			"0.025": 0.0
		}
	}
}
