{
	 "smiles": "COC1=CC=C(C=C1)N1N=C(CCC(=O)N(C)O)C=C1C1=CC=C(Cl)C=C1", 
	 "Tm": 401.15, 
	 "num_atms": 47, 
	 "gaussian": { 
		 "optdone": 1, 
		 "sigma_profile": "yes", 
		 "theory": "DFT", 
		 "functional": "B3LYP", 
		 "basiset": "6-31G**", 
		 "properties": { 
			 "R2extent": 13946.9861, 
			 "electric_dipole_moment_norm": 5.05213379969, 
			 "electric_quadrupole_moment_norm": 35.3039588663, 
			 "total_energy": -1624.24480706, 
			 "HOMO_LUMO_gap": 0.16807, 
			 "cosmo_polarized_energy": -17.52, 
			 "cosmo_cavitation_energy": 52.59, 
			 "cosmo_dispersion_energy": -35.17, 
			 "cosmo_repulsion_energy": 2.7, 
			 "cosmo_total_nonelectrostatic_energy": 20.12, 
			 "SMD_solvation_energy": 9.75 
		},
		"coords": [
			{
				"x": -1.6226065222,
				"y": 2.0780929771,
				"z": 5.6055532251,
				"element": "C" 
			},
			{
				"x": -1.6677004134,
				"y": 2.7266393268,
				"z": 4.3422572933,
				"element": "O" 
			},
			{
				"x": -1.3051148044,
				"y": 2.0190444218,
				"z": 3.2381198494,
				"element": "C" 
			},
			{
				"x": -1.3955285511,
				"y": 2.7078692875,
				"z": 2.0173958464,
				"element": "C" 
			},
			{
				"x": -1.0595538942,
				"y": 2.0770248745,
				"z": 0.8285249918,
				"element": "C" 
			},
			{
				"x": -0.6046981512,
				"y": 0.7516249963,
				"z": 0.8443575234,
				"element": "C" 
			},
			{
				"x": -0.5110195055,
				"y": 0.0646981692,
				"z": 2.0543618697,
				"element": "C" 
			},
			{
				"x": -0.8659702358,
				"y": 0.6889316872,
				"z": 3.2514084672,
				"element": "C" 
			},
			{
				"x": -0.272452387,
				"y": 0.0810455973,
				"z": -0.3711702219,
				"element": "N" 
			},
			{
				"x": -0.8647197856,
				"y": -1.1164200829,
				"z": -0.6430511497,
				"element": "N" 
			},
			{
				"x": -0.4575483718,
				"y": -1.4694524171,
				"z": -1.8640601255,
				"element": "C" 
			},
			{
				"x": -0.8863444102,
				"y": -2.7534457387,
				"z": -2.5249452811,
				"element": "C" 
			},
			{
				"x": -1.886524629,
				"y": -3.6115449427,
				"z": -1.7300635094,
				"element": "C" 
			},
			{
				"x": -3.2658443038,
				"y": -2.9583986445,
				"z": -1.693901452,
				"element": "C" 
			},
			{
				"x": -3.9347130897,
				"y": -2.8264875668,
				"z": -2.7188415033,
				"element": "O" 
			},
			{
				"x": -3.7208173051,
				"y": -2.5353899207,
				"z": -0.4769477004,
				"element": "N" 
			},
			{
				"x": -4.9429586877,
				"y": -1.7805093331,
				"z": -0.3047595956,
				"element": "C" 
			},
			{
				"x": -2.8777957622,
				"y": -2.5315048926,
				"z": 0.6393240903,
				"element": "O" 
			},
			{
				"x": 0.4049071614,
				"y": -0.4845588905,
				"z": -2.392163912,
				"element": "C" 
			},
			{
				"x": 0.5156305418,
				"y": 0.495576543,
				"z": -1.4173101613,
				"element": "C" 
			},
			{
				"x": 1.3476442548,
				"y": 1.7102801961,
				"z": -1.429546589,
				"element": "C" 
			},
			{
				"x": 1.4465671088,
				"y": 2.4620422615,
				"z": -2.6120030293,
				"element": "C" 
			},
			{
				"x": 2.2655342898,
				"y": 3.5867169241,
				"z": -2.6840595236,
				"element": "C" 
			},
			{
				"x": 2.9945685833,
				"y": 3.9694809367,
				"z": -1.5587884526,
				"element": "C" 
			},
			{
				"x": 4.0252567749,
				"y": 5.3888725125,
				"z": -1.6365259734,
				"element": "Cl" 
			},
			{
				"x": 2.9176051862,
				"y": 3.2404232237,
				"z": -0.3718626145,
				"element": "C" 
			},
			{
				"x": 2.0988298719,
				"y": 2.11551203,
				"z": -0.3132723918,
				"element": "C" 
			},
			{
				"x": -1.9599453079,
				"y": 2.8165369428,
				"z": 6.3339327304,
				"element": "H" 
			},
			{
				"x": -2.2905120846,
				"y": 1.2081622388,
				"z": 5.6364329867,
				"element": "H" 
			},
			{
				"x": -0.6036842553,
				"y": 1.7597254896,
				"z": 5.8599702431,
				"element": "H" 
			},
			{
				"x": -1.7491621293,
				"y": 3.7332235261,
				"z": 2.0262776102,
				"element": "H" 
			},
			{
				"x": -1.1535239883,
				"y": 2.605347424,
				"z": -0.1137940515,
				"element": "H" 
			},
			{
				"x": -0.1648703491,
				"y": -0.9633733321,
				"z": 2.0589513389,
				"element": "H" 
			},
			{
				"x": -0.7922209271,
				"y": 0.132805012,
				"z": 4.1777883569,
				"element": "H" 
			},
			{
				"x": 0.0103137825,
				"y": -3.349829518,
				"z": -2.7366233872,
				"element": "H" 
			},
			{
				"x": -1.335477603,
				"y": -2.5171489599,
				"z": -3.4968865436,
				"element": "H" 
			},
			{
				"x": -1.513051096,
				"y": -3.8339685609,
				"z": -0.7304260232,
				"element": "H" 
			},
			{
				"x": -2.0186122624,
				"y": -4.5547467265,
				"z": -2.2688254374,
				"element": "H" 
			},
			{
				"x": -5.5401194097,
				"y": -1.9091185159,
				"z": -1.2070581622,
				"element": "H" 
			},
			{
				"x": -4.7291047733,
				"y": -0.7142336808,
				"z": -0.1553448871,
				"element": "H" 
			},
			{
				"x": -5.4865761328,
				"y": -2.156781264,
				"z": 0.5666227252,
				"element": "H" 
			},
			{
				"x": -2.1521279226,
				"y": -1.9079616803,
				"z": 0.3809125443,
				"element": "H" 
			},
			{
				"x": 0.9213424881,
				"y": -0.5037089754,
				"z": -3.3405473115,
				"element": "H" 
			},
			{
				"x": 0.8648761977,
				"y": 2.1687478553,
				"z": -3.4803062179,
				"element": "H" 
			},
			{
				"x": 2.3326803964,
				"y": 4.1643302189,
				"z": -3.5992149463,
				"element": "H" 
			},
			{
				"x": 3.4979168146,
				"y": 3.5454660412,
				"z": 0.4917580483,
				"element": "H" 
			},
			{
				"x": 2.0539255993,
				"y": 1.5416629294,
				"z": 0.6058504137,
				"element": "H" 
			}
		],
		 "valence_orbital": [ 
			{
				"type": "occ",
				"energy": -0.26777,
				"method": "rhf"
			},
			{
				"type": "occ",
				"energy": -0.23854,
				"method": "rhf"
			},
			{
				"type": "occ",
				"energy": -0.22892,
				"method": "rhf"
			},
			{
				"type": "occ",
				"energy": -0.2254,
				"method": "rhf"
			},
			{
				"type": "occ",
				"energy": -0.21386,
				"method": "rhf"
			},
			{
				"type": "unocc",
				"energy": -0.04579,
				"method": "rhf"
			},
			{
				"type": "unocc",
				"energy": -0.02972,
				"method": "rhf"
			},
			{
				"type": "unocc",
				"energy": -0.01742,
				"method": "rhf"
			},
			{
				"type": "unocc",
				"energy": -0.013,
				"method": "rhf"
			},
			{
				"type": "unocc",
				"energy": 0.02176,
				"method": "rhf"
			}
		],
		"cosmo_sigma_profile": { 
			"-0.025": 0.0,
			"-0.024": 0.0,
			"-0.023": 0.0,
			"-0.022": 0.0,
			"-0.021": 0.0,
			"-0.02": 0.0,
			"-0.019": 0.0,
			"-0.018": 0.0,
			"-0.017": 0.0,
			"-0.016": 0.0,
			"-0.015": 0.0,
			"-0.014": 0.0,
			"-0.013": 0.0,
			"-0.012": 0.0,
			"-0.011": 0.0,
			"-0.01": 0.0,
			"-0.009": 0.0,
			"-0.008": 0.843174106446,
			"-0.007": 9.69983097296,
			"-0.006": 24.0328122182,
			"-0.005": 33.951639651,
			"-0.004": 37.0553777855,
			"-0.003": 39.1875644408,
			"-0.002": 37.4249582786,
			"-0.001": 30.6543652401,
			"0.0": 26.9203529499,
			"0.001": 30.5894421024,
			"0.002": 35.6371678258,
			"0.003": 41.8603051459,
			"0.004": 25.5121936285,
			"0.005": 10.764554137,
			"0.006": 4.47934643045,
			"0.007": 4.16254547399,
			"0.008": 4.83906993406,
			"0.009": 3.59424497415,
			"0.01": 3.39601499085,
			"0.011": 3.52875774467,
			"0.012": 2.99013166054,
			"0.013": 3.1559625692,
			"0.014": 5.18465674561,
			"0.015": 1.65253340355,
			"0.016": 0.00598626681107,
			"0.017": 0.0,
			"0.018": 0.0,
			"0.019": 0.0,
			"0.02": 0.0,
			"0.021": 0.0,
			"0.022": 0.0,
			"0.023": 0.0,
			"0.024": 0.0,
			"0.025": 0.0
		}
	}
}
