{
	 "smiles": "COC(=O)C1=C(C)OC(=C1)S(Cl)(=O)=O", 
	 "Tm": 309.65, 
	 "num_atms": 21, 
	 "gaussian": { 
		 "optdone": 1, 
		 "sigma_profile": "yes", 
		 "theory": "DFT", 
		 "functional": "B3LYP", 
		 "basiset": "6-31G**", 
		 "properties": { 
			 "R2extent": 5720.839, 
			 "electric_dipole_moment_norm": 4.89728979845, 
			 "electric_quadrupole_moment_norm": 18.6935423877, 
			 "total_energy": -1505.37525397, 
			 "HOMO_LUMO_gap": 0.17812, 
			 "cosmo_polarized_energy": -11.1, 
			 "cosmo_cavitation_energy": 30.35, 
			 "cosmo_dispersion_energy": -22.25, 
			 "cosmo_repulsion_energy": 1.74, 
			 "cosmo_total_nonelectrostatic_energy": 9.85, 
			 "SMD_solvation_energy": 6.12 
		},
		"coords": [
			{
				"x": -1.1144454113,
				"y": -1.9960632356,
				"z": 3.1245359007,
				"element": "C" 
			},
			{
				"x": -1.3021114518,
				"y": -1.371372527,
				"z": 1.8422068356,
				"element": "O" 
			},
			{
				"x": -0.1771915961,
				"y": -1.1822496479,
				"z": 1.1225818524,
				"element": "C" 
			},
			{
				"x": 0.9352576118,
				"y": -1.5033618043,
				"z": 1.496608612,
				"element": "O" 
			},
			{
				"x": -0.46456906,
				"y": -0.540165994,
				"z": -0.1703183963,
				"element": "C" 
			},
			{
				"x": 0.4970770357,
				"y": -0.2204916705,
				"z": -1.1100095947,
				"element": "C" 
			},
			{
				"x": 1.9729855293,
				"y": -0.3840414055,
				"z": -1.1543959642,
				"element": "C" 
			},
			{
				"x": -0.0943991184,
				"y": 0.3643936706,
				"z": -2.1802139186,
				"element": "O" 
			},
			{
				"x": -1.43348424,
				"y": 0.4178707453,
				"z": -1.9160909228,
				"element": "C" 
			},
			{
				"x": -1.725755743,
				"y": -0.1300071773,
				"z": -0.704099462,
				"element": "C" 
			},
			{
				"x": -2.4817851068,
				"y": 1.1273740614,
				"z": -3.1263667467,
				"element": "S" 
			},
			{
				"x": -2.5166451666,
				"y": -0.387630921,
				"z": -4.6165190708,
				"element": "Cl" 
			},
			{
				"x": -3.8172900781,
				"y": 1.177205686,
				"z": -2.5489725949,
				"element": "O" 
			},
			{
				"x": -1.8327510371,
				"y": 2.2761788852,
				"z": -3.7376647337,
				"element": "O" 
			},
			{
				"x": -0.4612830648,
				"y": -1.387777191,
				"z": 3.7547214443,
				"element": "H" 
			},
			{
				"x": -0.6701652897,
				"y": -2.9872017762,
				"z": 3.0061917782,
				"element": "H" 
			},
			{
				"x": -2.1095935393,
				"y": -2.0705461351,
				"z": 3.5615146842,
				"element": "H" 
			},
			{
				"x": 2.3636899392,
				"y": 0.0078655424,
				"z": -2.0949961183,
				"element": "H" 
			},
			{
				"x": 2.4413774333,
				"y": 0.1388349883,
				"z": -0.315581881,
				"element": "H" 
			},
			{
				"x": 2.2434835425,
				"y": -1.4391089817,
				"z": -1.0546719806,
				"element": "H" 
			},
			{
				"x": -2.6995011887,
				"y": -0.2242051121,
				"z": -0.2495597228,
				"element": "H" 
			}
		],
		 "valence_orbital": [ 
			{
				"type": "occ",
				"energy": -0.32286,
				"method": "rhf"
			},
			{
				"type": "occ",
				"energy": -0.32019,
				"method": "rhf"
			},
			{
				"type": "occ",
				"energy": -0.31783,
				"method": "rhf"
			},
			{
				"type": "occ",
				"energy": -0.29536,
				"method": "rhf"
			},
			{
				"type": "occ",
				"energy": -0.27043,
				"method": "rhf"
			},
			{
				"type": "unocc",
				"energy": -0.09231,
				"method": "rhf"
			},
			{
				"type": "unocc",
				"energy": -0.05264,
				"method": "rhf"
			},
			{
				"type": "unocc",
				"energy": -0.03117,
				"method": "rhf"
			},
			{
				"type": "unocc",
				"energy": 0.04674,
				"method": "rhf"
			},
			{
				"type": "unocc",
				"energy": 0.07274,
				"method": "rhf"
			}
		],
		"cosmo_sigma_profile": { 
			"-0.025": 0.0,
			"-0.024": 0.0,
			"-0.023": 0.0,
			"-0.022": 0.0,
			"-0.021": 0.0,
			"-0.02": 0.0,
			"-0.019": 0.0,
			"-0.018": 0.0,
			"-0.017": 0.0,
			"-0.016": 0.0,
			"-0.015": 0.0,
			"-0.014": 0.0,
			"-0.013": 0.0,
			"-0.012": 0.0,
			"-0.011": 0.102404374278,
			"-0.01": 0.854930791306,
			"-0.009": 0.90880507811,
			"-0.008": 1.01926257798,
			"-0.007": 5.10106948155,
			"-0.006": 13.4777154946,
			"-0.005": 16.2424217791,
			"-0.004": 24.3753323939,
			"-0.003": 29.430906539,
			"-0.002": 24.3318919338,
			"-0.001": 16.7884212827,
			"0.0": 12.0707868907,
			"0.001": 13.4020223517,
			"0.002": 15.627562409,
			"0.003": 17.7144120237,
			"0.004": 8.7647300165,
			"0.005": 7.38960386985,
			"0.006": 5.67175217884,
			"0.007": 11.2747484019,
			"0.008": 11.2223511127,
			"0.009": 2.76605841695,
			"0.01": 2.04462609654,
			"0.011": 3.21728486689,
			"0.012": 1.75916758189,
			"0.013": 0.0027891615607,
			"0.014": 0.0,
			"0.015": 0.0,
			"0.016": 0.0,
			"0.017": 0.0,
			"0.018": 0.0,
			"0.019": 0.0,
			"0.02": 0.0,
			"0.021": 0.0,
			"0.022": 0.0,
			"0.023": 0.0,
			"0.024": 0.0,
			"0.025": 0.0
		}
	}
}
