{
	 "smiles": "COC1=CC=CC=C1C=NN=C1/SC(=NN1C1=C(C=CC=C1)[N+]([O-])=O)C(C)=O", 
	 "Tm": 451.15, 
	 "num_atms": 43, 
	 "gaussian": { 
		 "optdone": 1, 
		 "sigma_profile": "yes", 
		 "theory": "DFT", 
		 "functional": "B3LYP", 
		 "basiset": "6-31G**", 
		 "properties": { 
			 "R2extent": 14701.7233, 
			 "electric_dipole_moment_norm": 5.34837032562, 
			 "electric_quadrupole_moment_norm": 39.2422769079, 
			 "total_energy": -1667.6092503, 
			 "HOMO_LUMO_gap": 0.11167, 
			 "cosmo_polarized_energy": -20.12, 
			 "cosmo_cavitation_energy": 51.89, 
			 "cosmo_dispersion_energy": -35.51, 
			 "cosmo_repulsion_energy": 2.65, 
			 "cosmo_total_nonelectrostatic_energy": 19.03, 
			 "SMD_solvation_energy": 11.27 
		},
		"coords": [
			{
				"x": 0.1095043301,
				"y": -0.949120545,
				"z": -5.2704927695,
				"element": "C" 
			},
			{
				"x": -0.0961234236,
				"y": -0.5715153658,
				"z": -3.9180094371,
				"element": "O" 
			},
			{
				"x": -1.0914392845,
				"y": 0.3133405685,
				"z": -3.6259012646,
				"element": "C" 
			},
			{
				"x": -1.9182072602,
				"y": 0.8992672688,
				"z": -4.5915055983,
				"element": "C" 
			},
			{
				"x": -2.9126696629,
				"y": 1.7981097959,
				"z": -4.2027514145,
				"element": "C" 
			},
			{
				"x": -3.093844987,
				"y": 2.1215454507,
				"z": -2.8564079408,
				"element": "C" 
			},
			{
				"x": -2.2726843046,
				"y": 1.5385804206,
				"z": -1.8975758912,
				"element": "C" 
			},
			{
				"x": -1.2628074915,
				"y": 0.6300155167,
				"z": -2.2545002034,
				"element": "C" 
			},
			{
				"x": -0.3990577052,
				"y": 0.0117778971,
				"z": -1.2529984405,
				"element": "C" 
			},
			{
				"x": -0.5323434128,
				"y": 0.2718982798,
				"z": 0.0043620985,
				"element": "N" 
			},
			{
				"x": 0.3828129855,
				"y": -0.3988007706,
				"z": 0.8010101686,
				"element": "N" 
			},
			{
				"x": 0.1644593375,
				"y": -0.2077241058,
				"z": 2.0498640415,
				"element": "C" 
			},
			{
				"x": -1.1174015677,
				"y": 0.762639322,
				"z": 2.8136731706,
				"element": "S" 
			},
			{
				"x": -0.3733864282,
				"y": 0.3645036407,
				"z": 4.3675296812,
				"element": "C" 
			},
			{
				"x": 0.6736561565,
				"y": -0.3977944735,
				"z": 4.3291989082,
				"element": "N" 
			},
			{
				"x": 0.9720008473,
				"y": -0.7567226003,
				"z": 3.0557450925,
				"element": "N" 
			},
			{
				"x": 2.1630760674,
				"y": -1.4947493203,
				"z": 2.8273191741,
				"element": "C" 
			},
			{
				"x": 2.2436833932,
				"y": -2.5815448028,
				"z": 1.9407738738,
				"element": "C" 
			},
			{
				"x": 3.4626045338,
				"y": -3.2088772927,
				"z": 1.688129145,
				"element": "C" 
			},
			{
				"x": 4.6112503068,
				"y": -2.7968973629,
				"z": 2.3570655595,
				"element": "C" 
			},
			{
				"x": 4.5364237125,
				"y": -1.7445757372,
				"z": 3.2713084426,
				"element": "C" 
			},
			{
				"x": 3.3271740595,
				"y": -1.0892318653,
				"z": 3.4889970722,
				"element": "C" 
			},
			{
				"x": 1.056125333,
				"y": -3.1803730266,
				"z": 1.3092622523,
				"element": "N" 
			},
			{
				"x": 1.2114808869,
				"y": -3.710855253,
				"z": 0.2121884198,
				"element": "O" 
			},
			{
				"x": 0.0072700429,
				"y": -3.1628091266,
				"z": 1.9467660661,
				"element": "O" 
			},
			{
				"x": -0.9482670267,
				"y": 0.8869956093,
				"z": 5.6332299541,
				"element": "C" 
			},
			{
				"x": -0.281922931,
				"y": 0.4791367275,
				"z": 6.9280613624,
				"element": "C" 
			},
			{
				"x": -1.9281522784,
				"y": 1.6123022757,
				"z": 5.5811539851,
				"element": "O" 
			},
			{
				"x": 0.934465874,
				"y": -1.6627296691,
				"z": -5.2593108355,
				"element": "H" 
			},
			{
				"x": 0.3841899196,
				"y": -0.0882949418,
				"z": -5.8931344191,
				"element": "H" 
			},
			{
				"x": -0.7800699176,
				"y": -1.4316074726,
				"z": -5.6942838459,
				"element": "H" 
			},
			{
				"x": -1.7938251897,
				"y": 0.6615353182,
				"z": -5.6409065283,
				"element": "H" 
			},
			{
				"x": -3.5474375563,
				"y": 2.2454637376,
				"z": -4.9624154899,
				"element": "H" 
			},
			{
				"x": -3.8689812944,
				"y": 2.8207776248,
				"z": -2.5592370616,
				"element": "H" 
			},
			{
				"x": -2.3933946314,
				"y": 1.771515049,
				"z": -0.8451653687,
				"element": "H" 
			},
			{
				"x": 0.3664105487,
				"y": -0.6865526232,
				"z": -1.5909021698,
				"element": "H" 
			},
			{
				"x": 3.4789995626,
				"y": -4.0275467151,
				"z": 0.9792053261,
				"element": "H" 
			},
			{
				"x": 5.5548184896,
				"y": -3.298216193,
				"z": 2.1686576859,
				"element": "H" 
			},
			{
				"x": 5.4248753131,
				"y": -1.414682629,
				"z": 3.8005318742,
				"element": "H" 
			},
			{
				"x": 3.2647400237,
				"y": -0.2468189635,
				"z": 4.1678999126,
				"element": "H" 
			},
			{
				"x": -0.7912270111,
				"y": 0.9724123304,
				"z": 7.7563532751,
				"element": "H" 
			},
			{
				"x": 0.7779138254,
				"y": 0.7510680934,
				"z": 6.9200036882,
				"element": "H" 
			},
			{
				"x": -0.330392185,
				"y": -0.607344071,
				"z": 7.0530084486,
				"element": "H" 
			}
		],
		 "valence_orbital": [ 
			{
				"type": "occ",
				"energy": -0.2681,
				"method": "rhf"
			},
			{
				"type": "occ",
				"energy": -0.25527,
				"method": "rhf"
			},
			{
				"type": "occ",
				"energy": -0.23716,
				"method": "rhf"
			},
			{
				"type": "occ",
				"energy": -0.22915,
				"method": "rhf"
			},
			{
				"type": "occ",
				"energy": -0.19932,
				"method": "rhf"
			},
			{
				"type": "unocc",
				"energy": -0.08765,
				"method": "rhf"
			},
			{
				"type": "unocc",
				"energy": -0.07744,
				"method": "rhf"
			},
			{
				"type": "unocc",
				"energy": -0.05014,
				"method": "rhf"
			},
			{
				"type": "unocc",
				"energy": -0.03331,
				"method": "rhf"
			},
			{
				"type": "unocc",
				"energy": -0.01224,
				"method": "rhf"
			}
		],
		"cosmo_sigma_profile": { 
			"-0.025": 0.0,
			"-0.024": 0.0,
			"-0.023": 0.0,
			"-0.022": 0.0,
			"-0.021": 0.0,
			"-0.02": 0.0,
			"-0.019": 0.0,
			"-0.018": 0.0,
			"-0.017": 0.0,
			"-0.016": 0.0,
			"-0.015": 0.0,
			"-0.014": 0.0,
			"-0.013": 0.0,
			"-0.012": 0.0,
			"-0.011": 0.0,
			"-0.01": 0.0,
			"-0.009": 0.146338105262,
			"-0.008": 6.42796637128,
			"-0.007": 14.6712139362,
			"-0.006": 29.8350991303,
			"-0.005": 30.486217177,
			"-0.004": 32.1358919629,
			"-0.003": 30.5693714622,
			"-0.002": 26.7659276777,
			"-0.001": 24.8545762821,
			"0.0": 29.0771662691,
			"0.001": 36.1434204068,
			"0.002": 31.3609430471,
			"0.003": 29.150146943,
			"0.004": 26.4984443538,
			"0.005": 20.038228161,
			"0.006": 12.3164798493,
			"0.007": 14.5809922614,
			"0.008": 8.78215408197,
			"0.009": 6.48502922695,
			"0.01": 4.92819301961,
			"0.011": 2.95705526177,
			"0.012": 0.788689848713,
			"0.013": 0.00480932367942,
			"0.014": 0.0,
			"0.015": 0.0,
			"0.016": 0.0,
			"0.017": 0.0,
			"0.018": 0.0,
			"0.019": 0.0,
			"0.02": 0.0,
			"0.021": 0.0,
			"0.022": 0.0,
			"0.023": 0.0,
			"0.024": 0.0,
			"0.025": 0.0
		}
	}
}
