{
	 "smiles": "NC1=NN=C(CCC2=CC=CC=C2)O1", 
	 "Tm": 469.15, 
	 "num_atms": 25, 
	 "gaussian": { 
		 "optdone": 1, 
		 "sigma_profile": "yes", 
		 "theory": "DFT", 
		 "functional": "B3LYP", 
		 "basiset": "6-31G**", 
		 "properties": { 
			 "R2extent": 3276.2545, 
			 "electric_dipole_moment_norm": 3.87752767753, 
			 "electric_quadrupole_moment_norm": 20.3872811983, 
			 "total_energy": -627.150835934, 
			 "HOMO_LUMO_gap": 0.22591, 
			 "cosmo_polarized_energy": -18.4, 
			 "cosmo_cavitation_energy": 29.72, 
			 "cosmo_dispersion_energy": -20.74, 
			 "cosmo_repulsion_energy": 1.66, 
			 "cosmo_total_nonelectrostatic_energy": 10.65, 
			 "SMD_solvation_energy": 2.99 
		},
		"coords": [
			{
				"x": 2.1711533523,
				"y": -1.0314848264,
				"z": -2.3268498976,
				"element": "N" 
			},
			{
				"x": 1.9571868072,
				"y": -0.1364776931,
				"z": -1.3111060166,
				"element": "C" 
			},
			{
				"x": 2.708184967,
				"y": 0.1170986321,
				"z": -0.2834619549,
				"element": "N" 
			},
			{
				"x": 2.0724413443,
				"y": 1.1762297326,
				"z": 0.3878205765,
				"element": "N" 
			},
			{
				"x": 1.0035088678,
				"y": 1.4611349377,
				"z": -0.2736036286,
				"element": "C" 
			},
			{
				"x": -0.0218742883,
				"y": 2.5072891021,
				"z": -0.0104531927,
				"element": "C" 
			},
			{
				"x": -1.4739734529,
				"y": 1.9731265918,
				"z": 0.0795564534,
				"element": "C" 
			},
			{
				"x": -1.7070589542,
				"y": 1.0165192528,
				"z": 1.229498599,
				"element": "C" 
			},
			{
				"x": -1.6607161164,
				"y": -0.3699369207,
				"z": 1.0354339863,
				"element": "C" 
			},
			{
				"x": -1.8516360657,
				"y": -1.2499673834,
				"z": 2.1020801106,
				"element": "C" 
			},
			{
				"x": -2.0936777508,
				"y": -0.7542746648,
				"z": 3.3837334693,
				"element": "C" 
			},
			{
				"x": -2.1449381806,
				"y": 0.6258602134,
				"z": 3.5905713561,
				"element": "C" 
			},
			{
				"x": -1.9538883519,
				"y": 1.5010197056,
				"z": 2.5215284988,
				"element": "C" 
			},
			{
				"x": 0.856162817,
				"y": 0.6571372714,
				"z": -1.3920566268,
				"element": "O" 
			},
			{
				"x": 1.3365848286,
				"y": -1.4329053058,
				"z": -2.7319816973,
				"element": "H" 
			},
			{
				"x": 2.885006811,
				"y": -1.7115512207,
				"z": -2.1036045476,
				"element": "H" 
			},
			{
				"x": 0.0251233954,
				"y": 3.2636317623,
				"z": -0.805132027,
				"element": "H" 
			},
			{
				"x": 0.2668001513,
				"y": 2.9964335461,
				"z": 0.92365565,
				"element": "H" 
			},
			{
				"x": -1.7306093469,
				"y": 1.4880028421,
				"z": -0.8683075645,
				"element": "H" 
			},
			{
				"x": -2.1370468402,
				"y": 2.8401334003,
				"z": 0.1781506282,
				"element": "H" 
			},
			{
				"x": -1.4756008944,
				"y": -0.7618810721,
				"z": 0.0382800112,
				"element": "H" 
			},
			{
				"x": -1.8134257601,
				"y": -2.3222142133,
				"z": 1.9310851289,
				"element": "H" 
			},
			{
				"x": -2.2440498071,
				"y": -1.437223626,
				"z": 4.214804506,
				"element": "H" 
			},
			{
				"x": -2.3373455857,
				"y": 1.0209117554,
				"z": 4.5841416174,
				"element": "H" 
			},
			{
				"x": -2.0006119468,
				"y": 2.5746881806,
				"z": 2.6902165617,
				"element": "H" 
			}
		],
		 "valence_orbital": [ 
			{
				"type": "occ",
				"energy": -0.30472,
				"method": "rhf"
			},
			{
				"type": "occ",
				"energy": -0.26438,
				"method": "rhf"
			},
			{
				"type": "occ",
				"energy": -0.24895,
				"method": "rhf"
			},
			{
				"type": "occ",
				"energy": -0.24284,
				"method": "rhf"
			},
			{
				"type": "occ",
				"energy": -0.22829,
				"method": "rhf"
			},
			{
				"type": "unocc",
				"energy": -0.00238,
				"method": "rhf"
			},
			{
				"type": "unocc",
				"energy": -0.00155,
				"method": "rhf"
			},
			{
				"type": "unocc",
				"energy": 0.01408,
				"method": "rhf"
			},
			{
				"type": "unocc",
				"energy": 0.05396,
				"method": "rhf"
			},
			{
				"type": "unocc",
				"energy": 0.06979,
				"method": "rhf"
			}
		],
		"cosmo_sigma_profile": { 
			"-0.025": 0.0,
			"-0.024": 0.0,
			"-0.023": 0.0,
			"-0.022": 0.0,
			"-0.021": 0.0,
			"-0.02": 0.0,
			"-0.019": 0.0,
			"-0.018": 0.0,
			"-0.017": 0.0,
			"-0.016": 0.0,
			"-0.015": 1.4584256206,
			"-0.014": 2.87801869787,
			"-0.013": 2.51242173785,
			"-0.012": 2.51786490085,
			"-0.011": 2.33027655935,
			"-0.01": 2.2460662332,
			"-0.009": 1.62503632573,
			"-0.008": 2.037703241,
			"-0.007": 1.58157568238,
			"-0.006": 6.53783149514,
			"-0.005": 18.9576031099,
			"-0.004": 24.7066111344,
			"-0.003": 24.8254290873,
			"-0.002": 18.6089533402,
			"-0.001": 14.7423604646,
			"0.0": 12.1359739024,
			"0.001": 10.0268446487,
			"0.002": 10.875635255,
			"0.003": 11.7489439199,
			"0.004": 10.9505738758,
			"0.005": 12.3761723525,
			"0.006": 11.0522514552,
			"0.007": 4.2655365347,
			"0.008": 1.99105736817,
			"0.009": 3.26774427953,
			"0.01": 2.5169236448,
			"0.011": 2.3900184297,
			"0.012": 3.263330272,
			"0.013": 4.07362281478,
			"0.014": 2.84951147565,
			"0.015": 2.50567344068,
			"0.016": 2.0749003767,
			"0.017": 0.18201916547,
			"0.018": 0.0,
			"0.019": 0.0,
			"0.02": 0.0,
			"0.021": 0.0,
			"0.022": 0.0,
			"0.023": 0.0,
			"0.024": 0.0,
			"0.025": 0.0
		}
	}
}
