{
	 "smiles": "CCC(O)C1CCCCN1", 
	 "Tm": 394.15, 
	 "num_atms": 27, 
	 "gaussian": { 
		 "optdone": 1, 
		 "sigma_profile": "yes", 
		 "theory": "DFT", 
		 "functional": "B3LYP", 
		 "basiset": "6-31G**", 
		 "properties": { 
			 "R2extent": 2148.8647, 
			 "electric_dipole_moment_norm": 1.45364098387, 
			 "electric_quadrupole_moment_norm": 7.30622333562, 
			 "total_energy": -445.066065894, 
			 "HOMO_LUMO_gap": 0.28468, 
			 "cosmo_polarized_energy": -7.72, 
			 "cosmo_cavitation_energy": 26.63, 
			 "cosmo_dispersion_energy": -19.44, 
			 "cosmo_repulsion_energy": 1.59, 
			 "cosmo_total_nonelectrostatic_energy": 8.78, 
			 "SMD_solvation_energy": 3.13 
		},
		"coords": [
			{
				"x": -3.014310395,
				"y": 1.0318060802,
				"z": 0.1338504532,
				"element": "C" 
			},
			{
				"x": -1.9754018417,
				"y": 2.1552365147,
				"z": 0.2290671458,
				"element": "C" 
			},
			{
				"x": -0.8234471498,
				"y": 1.927971012,
				"z": 1.2249600686,
				"element": "C" 
			},
			{
				"x": -0.2783459174,
				"y": 3.1847904069,
				"z": 1.6463407794,
				"element": "O" 
			},
			{
				"x": 0.3217719631,
				"y": 1.0257484903,
				"z": 0.7203610115,
				"element": "C" 
			},
			{
				"x": 1.5133255301,
				"y": 0.9939777895,
				"z": 1.723376662,
				"element": "C" 
			},
			{
				"x": 2.2746650551,
				"y": -0.3470425975,
				"z": 1.652549231,
				"element": "C" 
			},
			{
				"x": 2.3161387693,
				"y": -0.8698057563,
				"z": 0.2115184452,
				"element": "C" 
			},
			{
				"x": 0.8715963556,
				"y": -1.1239074312,
				"z": -0.299333055,
				"element": "C" 
			},
			{
				"x": -0.1596315667,
				"y": -0.3193703497,
				"z": 0.3798167026,
				"element": "N" 
			},
			{
				"x": -3.4704994144,
				"y": 0.8392800994,
				"z": 1.1124867575,
				"element": "H" 
			},
			{
				"x": -3.8204408436,
				"y": 1.3104558153,
				"z": -0.5533114173,
				"element": "H" 
			},
			{
				"x": -2.5557534451,
				"y": 0.1057879428,
				"z": -0.2166063351,
				"element": "H" 
			},
			{
				"x": -2.4710716344,
				"y": 3.080131179,
				"z": 0.5483608276,
				"element": "H" 
			},
			{
				"x": -1.5519483113,
				"y": 2.3533284934,
				"z": -0.7668131495,
				"element": "H" 
			},
			{
				"x": -1.231119999,
				"y": 1.4892761273,
				"z": 2.1475023188,
				"element": "H" 
			},
			{
				"x": 0.0300941286,
				"y": 3.6432895853,
				"z": 0.8523768355,
				"element": "H" 
			},
			{
				"x": 0.6734267668,
				"y": 1.4634297433,
				"z": -0.2281123551,
				"element": "H" 
			},
			{
				"x": 2.1939410326,
				"y": 1.8251444983,
				"z": 1.5087824231,
				"element": "H" 
			},
			{
				"x": 1.1451865939,
				"y": 1.1651220438,
				"z": 2.7418252977,
				"element": "H" 
			},
			{
				"x": 1.7798362181,
				"y": -1.0934716498,
				"z": 2.2888134949,
				"element": "H" 
			},
			{
				"x": 3.2859561125,
				"y": -0.2302078367,
				"z": 2.0567110433,
				"element": "H" 
			},
			{
				"x": 2.9106020123,
				"y": -1.7875609904,
				"z": 0.1379717085,
				"element": "H" 
			},
			{
				"x": 2.8155949079,
				"y": -0.1268056224,
				"z": -0.4237772115,
				"element": "H" 
			},
			{
				"x": 0.8164151663,
				"y": -0.9223092526,
				"z": -1.3771638323,
				"element": "H" 
			},
			{
				"x": 0.6010968743,
				"y": -2.1769801548,
				"z": -0.1654451206,
				"element": "H" 
			},
			{
				"x": -0.4379769679,
				"y": -0.7900141802,
				"z": 1.2383912701,
				"element": "H" 
			}
		],
		 "valence_orbital": [ 
			{
				"type": "occ",
				"energy": -0.31721,
				"method": "rhf"
			},
			{
				"type": "occ",
				"energy": -0.30838,
				"method": "rhf"
			},
			{
				"type": "occ",
				"energy": -0.3001,
				"method": "rhf"
			},
			{
				"type": "occ",
				"energy": -0.26079,
				"method": "rhf"
			},
			{
				"type": "occ",
				"energy": -0.21443,
				"method": "rhf"
			},
			{
				"type": "unocc",
				"energy": 0.07025,
				"method": "rhf"
			},
			{
				"type": "unocc",
				"energy": 0.07675,
				"method": "rhf"
			},
			{
				"type": "unocc",
				"energy": 0.10268,
				"method": "rhf"
			},
			{
				"type": "unocc",
				"energy": 0.11392,
				"method": "rhf"
			},
			{
				"type": "unocc",
				"energy": 0.12669,
				"method": "rhf"
			}
		],
		"cosmo_sigma_profile": { 
			"-0.025": 0.0,
			"-0.024": 0.0,
			"-0.023": 0.0,
			"-0.022": 0.0,
			"-0.021": 0.0,
			"-0.02": 0.0,
			"-0.019": 0.0,
			"-0.018": 0.0,
			"-0.017": 0.0,
			"-0.016": 0.0,
			"-0.015": 0.164409000992,
			"-0.014": 0.854881408442,
			"-0.013": 0.90161245869,
			"-0.012": 1.18573972468,
			"-0.011": 0.397031079515,
			"-0.01": 0.993524584393,
			"-0.009": 1.98893089677,
			"-0.008": 2.408020029,
			"-0.007": 2.27823604629,
			"-0.006": 3.4304415109,
			"-0.005": 3.77681174046,
			"-0.004": 5.64243598115,
			"-0.003": 12.5422263285,
			"-0.002": 30.4552544049,
			"-0.001": 31.4167288212,
			"0.0": 30.9521720248,
			"0.001": 26.8894951698,
			"0.002": 14.8523125518,
			"0.003": 5.71802109465,
			"0.004": 4.04636798431,
			"0.005": 2.60804902377,
			"0.006": 2.10199791381,
			"0.007": 2.55578179004,
			"0.008": 1.75967057797,
			"0.009": 3.11001815036,
			"0.01": 2.07477686522,
			"0.011": 1.72149377385,
			"0.012": 1.72212206692,
			"0.013": 1.70083999545,
			"0.014": 1.54916015923,
			"0.015": 1.60716652284,
			"0.016": 0.00165663334748,
			"0.017": 0.0,
			"0.018": 0.0,
			"0.019": 0.0,
			"0.02": 0.0,
			"0.021": 0.0,
			"0.022": 0.0,
			"0.023": 0.0,
			"0.024": 0.0,
			"0.025": 0.0
		}
	}
}
