{
	 "smiles": "CCC1=C(OCC(O)=O)C=CC=C1", 
	 "Tm": 398.15, 
	 "num_atms": 25, 
	 "gaussian": { 
		 "optdone": 1, 
		 "sigma_profile": "yes", 
		 "theory": "DFT", 
		 "functional": "B3LYP", 
		 "basiset": "6-31G**", 
		 "properties": { 
			 "R2extent": 3089.2137, 
			 "electric_dipole_moment_norm": 4.34708180047, 
			 "electric_quadrupole_moment_norm": 20.7165791059, 
			 "total_energy": -613.974757508, 
			 "HOMO_LUMO_gap": 0.22128, 
			 "cosmo_polarized_energy": -12.32, 
			 "cosmo_cavitation_energy": 28.81, 
			 "cosmo_dispersion_energy": -20.31, 
			 "cosmo_repulsion_energy": 1.62, 
			 "cosmo_total_nonelectrostatic_energy": 10.11, 
			 "SMD_solvation_energy": 6.36 
		},
		"coords": [
			{
				"x": 0.2801317342,
				"y": 2.551792262,
				"z": 0.6676829476,
				"element": "C" 
			},
			{
				"x": 1.0373018589,
				"y": 1.3020093137,
				"z": 1.15423213,
				"element": "C" 
			},
			{
				"x": 0.239274345,
				"y": 0.0228094149,
				"z": 1.0229628281,
				"element": "C" 
			},
			{
				"x": 0.0831319593,
				"y": -0.6163985916,
				"z": -0.2232483286,
				"element": "C" 
			},
			{
				"x": 0.7180716706,
				"y": -0.0107338937,
				"z": -1.2900165155,
				"element": "O" 
			},
			{
				"x": 0.6189095959,
				"y": -0.5844851017,
				"z": -2.5850922053,
				"element": "C" 
			},
			{
				"x": 1.3917299266,
				"y": 0.2893537634,
				"z": -3.5751363366,
				"element": "C" 
			},
			{
				"x": 1.9868095246,
				"y": 1.3730417184,
				"z": -3.0501679239,
				"element": "O" 
			},
			{
				"x": 1.4500190339,
				"y": 0.0075620077,
				"z": -4.7454045238,
				"element": "O" 
			},
			{
				"x": -0.6644245676,
				"y": -1.7884417644,
				"z": -0.3508400575,
				"element": "C" 
			},
			{
				"x": -1.277885979,
				"y": -2.3410461906,
				"z": 0.7774156362,
				"element": "C" 
			},
			{
				"x": -1.1410468026,
				"y": -1.7294973445,
				"z": 2.0196723419,
				"element": "C" 
			},
			{
				"x": -0.3850955944,
				"y": -0.5591262858,
				"z": 2.1284635678,
				"element": "C" 
			},
			{
				"x": -0.6436685469,
				"y": 2.6939003618,
				"z": 1.2371022237,
				"element": "H" 
			},
			{
				"x": 0.8942776785,
				"y": 3.4502399278,
				"z": 0.7880971062,
				"element": "H" 
			},
			{
				"x": 0.0082070404,
				"y": 2.4650227598,
				"z": -0.3885835817,
				"element": "H" 
			},
			{
				"x": 1.9785203274,
				"y": 1.2075837537,
				"z": 0.5993321825,
				"element": "H" 
			},
			{
				"x": 1.312925586,
				"y": 1.4347680513,
				"z": 2.2061478174,
				"element": "H" 
			},
			{
				"x": 1.0455877455,
				"y": -1.5947962558,
				"z": -2.6127254015,
				"element": "H" 
			},
			{
				"x": -0.4234087496,
				"y": -0.6419783769,
				"z": -2.9221296399,
				"element": "H" 
			},
			{
				"x": 1.8017594651,
				"y": 1.3820801994,
				"z": -2.0941522749,
				"element": "H" 
			},
			{
				"x": -0.7756760783,
				"y": -2.2761283953,
				"z": -1.3120415753,
				"element": "H" 
			},
			{
				"x": -1.8589462855,
				"y": -3.2524258845,
				"z": 0.672886538,
				"element": "H" 
			},
			{
				"x": -1.6130484216,
				"y": -2.1570652562,
				"z": 2.8986995238,
				"element": "H" 
			},
			{
				"x": -0.2705564664,
				"y": -0.0808401928,
				"z": 3.0981435211,
				"element": "H" 
			}
		],
		 "valence_orbital": [ 
			{
				"type": "occ",
				"energy": -0.33734,
				"method": "rhf"
			},
			{
				"type": "occ",
				"energy": -0.31435,
				"method": "rhf"
			},
			{
				"type": "occ",
				"energy": -0.27662,
				"method": "rhf"
			},
			{
				"type": "occ",
				"energy": -0.25726,
				"method": "rhf"
			},
			{
				"type": "occ",
				"energy": -0.23488,
				"method": "rhf"
			},
			{
				"type": "unocc",
				"energy": -0.0136,
				"method": "rhf"
			},
			{
				"type": "unocc",
				"energy": -0.00269,
				"method": "rhf"
			},
			{
				"type": "unocc",
				"energy": 0.00914,
				"method": "rhf"
			},
			{
				"type": "unocc",
				"energy": 0.05717,
				"method": "rhf"
			},
			{
				"type": "unocc",
				"energy": 0.08277,
				"method": "rhf"
			}
		],
		"cosmo_sigma_profile": { 
			"-0.025": 0.0,
			"-0.024": 0.0,
			"-0.023": 0.0,
			"-0.022": 0.0,
			"-0.021": 0.0,
			"-0.02": 0.0,
			"-0.019": 0.0,
			"-0.018": 0.0,
			"-0.017": 0.0,
			"-0.016": 0.0,
			"-0.015": 0.0,
			"-0.014": 0.0,
			"-0.013": 0.0,
			"-0.012": 0.0,
			"-0.011": 0.481819237615,
			"-0.01": 0.536002468311,
			"-0.009": 1.74612879242,
			"-0.008": 9.72936140054,
			"-0.007": 10.6418108408,
			"-0.006": 10.9895564411,
			"-0.005": 13.3854911894,
			"-0.004": 15.3708131307,
			"-0.003": 17.8841801908,
			"-0.002": 16.0534318031,
			"-0.001": 18.6585850955,
			"0.0": 18.8571902829,
			"0.001": 17.3027129977,
			"0.002": 12.488666854,
			"0.003": 10.0195072237,
			"0.004": 9.16944513861,
			"0.005": 9.28010036236,
			"0.006": 9.39160688391,
			"0.007": 2.90265460243,
			"0.008": 3.71029523637,
			"0.009": 3.15230115981,
			"0.01": 5.0702543949,
			"0.011": 4.97292541119,
			"0.012": 5.01771780038,
			"0.013": 1.11835706639,
			"0.014": 0.0,
			"0.015": 0.0,
			"0.016": 0.0,
			"0.017": 0.0,
			"0.018": 0.0,
			"0.019": 0.0,
			"0.02": 0.0,
			"0.021": 0.0,
			"0.022": 0.0,
			"0.023": 0.0,
			"0.024": 0.0,
			"0.0": 0.0
		}
	}
}
