{
	 "smiles": "COC1=CC=CC(OC)=C1O[C@@H](CO)[C@H](O)C1=CC(OC)=C(OC)C(OC)=C1", 
	 "Tm": 378.15, 
	 "num_atms": 54, 
	 "gaussian": { 
		 "optdone": 1, 
		 "sigma_profile": "yes", 
		 "theory": "DFT", 
		 "functional": "B3LYP", 
		 "basiset": "6-31G**", 
		 "properties": { 
			 "R2extent": 13688.4326, 
			 "electric_dipole_moment_norm": 2.27065713176, 
			 "electric_quadrupole_moment_norm": 12.0784647282, 
			 "total_energy": -1379.47470916, 
			 "HOMO_LUMO_gap": 0.22077, 
			 "cosmo_polarized_energy": -18.8, 
			 "cosmo_cavitation_energy": 55.29, 
			 "cosmo_dispersion_energy": -36.31, 
			 "cosmo_repulsion_energy": 2.8, 
			 "cosmo_total_nonelectrostatic_energy": 21.79, 
			 "SMD_solvation_energy": 12.98 
		},
		"coords": [
			{
				"x": 2.4199356345,
				"y": -3.3070176127,
				"z": -2.7637524469,
				"element": "C" 
			},
			{
				"x": 3.0203849963,
				"y": -2.1452559077,
				"z": -2.1730843599,
				"element": "O" 
			},
			{
				"x": 3.1958840587,
				"y": -2.2058513816,
				"z": -0.808407005,
				"element": "C" 
			},
			{
				"x": 4.4965873219,
				"y": -2.2178349984,
				"z": -0.2998148278,
				"element": "C" 
			},
			{
				"x": 4.7038701463,
				"y": -2.2265702003,
				"z": 1.0795747261,
				"element": "C" 
			},
			{
				"x": 3.6193129355,
				"y": -2.2555179182,
				"z": 1.9554940314,
				"element": "C" 
			},
			{
				"x": 2.3136281754,
				"y": -2.2450384965,
				"z": 1.456183979,
				"element": "C" 
			},
			{
				"x": 1.2711166559,
				"y": -2.2208113611,
				"z": 2.3500823986,
				"element": "O" 
			},
			{
				"x": 0.3955572587,
				"y": -3.3618861784,
				"z": 2.3243601703,
				"element": "C" 
			},
			{
				"x": 2.0948752481,
				"y": -2.196477383,
				"z": 0.0670361802,
				"element": "C" 
			},
			{
				"x": 0.813490242,
				"y": -2.1769603231,
				"z": -0.4353410411,
				"element": "O" 
			},
			{
				"x": 0.2131232076,
				"y": -0.8799403051,
				"z": -0.637320412,
				"element": "C" 
			},
			{
				"x": -0.0685305814,
				"y": -0.6943723927,
				"z": -2.1256381459,
				"element": "C" 
			},
			{
				"x": -1.0030863118,
				"y": -1.6986343478,
				"z": -2.550018841,
				"element": "O" 
			},
			{
				"x": -1.0448373739,
				"y": -0.7768491043,
				"z": 0.2651726096,
				"element": "C" 
			},
			{
				"x": -1.9308300107,
				"y": -1.8595443814,
				"z": 0.0453800787,
				"element": "O" 
			},
			{
				"x": -1.717359839,
				"y": 0.586843276,
				"z": 0.1140555568,
				"element": "C" 
			},
			{
				"x": -2.9652646522,
				"y": 0.7031779777,
				"z": -0.5023163464,
				"element": "C" 
			},
			{
				"x": -3.5646005113,
				"y": 1.9542872836,
				"z": -0.6589445106,
				"element": "C" 
			},
			{
				"x": -4.7618560785,
				"y": 2.0384829933,
				"z": -1.3345918107,
				"element": "O" 
			},
			{
				"x": -5.8869980372,
				"y": 2.4188626291,
				"z": -0.5348588991,
				"element": "C" 
			},
			{
				"x": -2.9223964865,
				"y": 3.1134458703,
				"z": -0.1937769648,
				"element": "C" 
			},
			{
				"x": -3.5083497266,
				"y": 4.3535022134,
				"z": -0.3460696654,
				"element": "O" 
			},
			{
				"x": -3.2964434719,
				"y": 4.9352224469,
				"z": -1.6380277688,
				"element": "C" 
			},
			{
				"x": -1.675511405,
				"y": 2.9953323674,
				"z": 0.4452024164,
				"element": "C" 
			},
			{
				"x": -0.9819354948,
				"y": 4.1040498474,
				"z": 0.8668079609,
				"element": "O" 
			},
			{
				"x": -1.5758712266,
				"y": 4.8380211574,
				"z": 1.9426134329,
				"element": "C" 
			},
			{
				"x": -1.0873436959,
				"y": 1.73885205,
				"z": 0.6007590987,
				"element": "C" 
			},
			{
				"x": 2.467842392,
				"y": -3.1546362994,
				"z": -3.8444348568,
				"element": "H" 
			},
			{
				"x": 2.9869300929,
				"y": -4.2092027228,
				"z": -2.5030019605,
				"element": "H" 
			},
			{
				"x": 1.3779912021,
				"y": -3.4199491834,
				"z": -2.4517883704,
				"element": "H" 
			},
			{
				"x": 5.3244352709,
				"y": -2.2102511351,
				"z": -1.0010424352,
				"element": "H" 
			},
			{
				"x": 5.7158024935,
				"y": -2.2293157762,
				"z": 1.4733515864,
				"element": "H" 
			},
			{
				"x": 3.7565340788,
				"y": -2.2783846024,
				"z": 3.0314774908,
				"element": "H" 
			},
			{
				"x": -0.2080346712,
				"y": -3.3834192679,
				"z": 1.4138629713,
				"element": "H" 
			},
			{
				"x": -0.2562844043,
				"y": -3.2553447913,
				"z": 3.1939089331,
				"element": "H" 
			},
			{
				"x": 0.9740485123,
				"y": -4.2890828571,
				"z": 2.4184606245,
				"element": "H" 
			},
			{
				"x": 0.9222350272,
				"y": -0.0989402134,
				"z": -0.3405555465,
				"element": "H" 
			},
			{
				"x": 0.8751203798,
				"y": -0.7861062992,
				"z": -2.6755330951,
				"element": "H" 
			},
			{
				"x": -0.4791876048,
				"y": 0.311024601,
				"z": -2.2808378888,
				"element": "H" 
			},
			{
				"x": -1.3706563115,
				"y": -1.4372292909,
				"z": -3.402435773,
				"element": "H" 
			},
			{
				"x": -0.6876149693,
				"y": -0.8710651858,
				"z": 1.2968251998,
				"element": "H" 
			},
			{
				"x": -1.8937187897,
				"y": -2.0623481682,
				"z": -0.9049241724,
				"element": "H" 
			},
			{
				"x": -3.4875258303,
				"y": -0.1795747702,
				"z": -0.8513556279,
				"element": "H" 
			},
			{
				"x": -6.7482585027,
				"y": 2.4313470433,
				"z": -1.2063412367,
				"element": "H" 
			},
			{
				"x": -6.0622378475,
				"y": 1.685513199,
				"z": 0.2624616838,
				"element": "H" 
			},
			{
				"x": -5.7466690422,
				"y": 3.4112582618,
				"z": -0.0962134968,
				"element": "H" 
			},
			{
				"x": -2.2270062269,
				"y": 5.0868635257,
				"z": -1.8254750687,
				"element": "H" 
			},
			{
				"x": -3.8036683341,
				"y": 5.9024886373,
				"z": -1.6285575275,
				"element": "H" 
			},
			{
				"x": -3.7252103208,
				"y": 4.3042971569,
				"z": -2.424225777,
				"element": "H" 
			},
			{
				"x": -1.6733646719,
				"y": 4.207840539,
				"z": 2.8360550062,
				"element": "H" 
			},
			{
				"x": -2.5563937433,
				"y": 5.2331011213,
				"z": 1.6630014576,
				"element": "H" 
			},
			{
				"x": -0.893780435,
				"y": 5.6629141176,
				"z": 2.1593896089,
				"element": "H" 
			},
			{
				"x": -0.1278787212,
				"y": 1.68768454,
				"z": 1.1080686766,
				"element": "H" 
			}
		],
		 "valence_orbital": [ 
			{
				"type": "occ",
				"energy": -0.25322,
				"method": "rhf"
			},
			{
				"type": "occ",
				"energy": -0.22848,
				"method": "rhf"
			},
			{
				"type": "occ",
				"energy": -0.22695,
				"method": "rhf"
			},
			{
				"type": "occ",
				"energy": -0.22524,
				"method": "rhf"
			},
			{
				"type": "occ",
				"energy": -0.22309,
				"method": "rhf"
			},
			{
				"type": "unocc",
				"energy": -0.00232,
				"method": "rhf"
			},
			{
				"type": "unocc",
				"energy": 0.0047,
				"method": "rhf"
			},
			{
				"type": "unocc",
				"energy": 0.00737,
				"method": "rhf"
			},
			{
				"type": "unocc",
				"energy": 0.00835,
				"method": "rhf"
			},
			{
				"type": "unocc",
				"energy": 0.05131,
				"method": "rhf"
			}
		],
		"cosmo_sigma_profile": { 
			"-0.025": 0.0,
			"-0.024": 0.0,
			"-0.023": 0.0,
			"-0.022": 0.0,
			"-0.021": 0.0,
			"-0.02": 0.0,
			"-0.019": 0.0,
			"-0.018": 0.0,
			"-0.017": 0.742528176967,
			"-0.016": 1.13726212503,
			"-0.015": 0.594335971068,
			"-0.014": 1.09624374929,
			"-0.013": 1.18054276877,
			"-0.012": 0.751094255808,
			"-0.011": 1.11132768196,
			"-0.01": 0.351799221004,
			"-0.009": 0.745051345875,
			"-0.008": 1.50354152534,
			"-0.007": 3.34715118044,
			"-0.006": 13.1013613939,
			"-0.005": 28.5809405041,
			"-0.004": 40.2130575955,
			"-0.003": 52.4274122864,
			"-0.002": 51.3994956261,
			"-0.001": 32.972428713,
			"0.0": 28.849495339,
			"0.001": 26.9879544698,
			"0.002": 25.157424441,
			"0.003": 26.4631878322,
			"0.004": 24.2324061023,
			"0.005": 18.670821947,
			"0.006": 10.4586358079,
			"0.007": 8.57663913162,
			"0.008": 7.9722180386,
			"0.009": 8.72440054756,
			"0.01": 6.4513395816,
			"0.011": 5.37507625188,
			"0.012": 3.91038258913,
			"0.013": 1.26170601455,
			"0.014": 1.01874462942,
			"0.015": 0.379514337881,
			"0.016": 0.0,
			"0.017": 0.0,
			"0.018": 0.0,
			"0.019": 0.0,
			"0.02": 0.0,
			"0.021": 0.0,
			"0.022": 0.0,
			"0.023": 0.0,
			"0.024": 0.0,
			"0.025": 0.0
		}
	}
}
