{
	 "smiles": "CCCCCCCCC=CCCCCCCCC(=O)NC1=CC=CC=C1", 
	 "Tm": 314.15, 
	 "num_atms": 65, 
	 "gaussian": { 
		 "optdone": 1, 
		 "sigma_profile": "yes", 
		 "theory": "DFT", 
		 "functional": "B3LYP", 
		 "basiset": "6-31G**", 
		 "properties": { 
			 "R2extent": 12747.3136, 
			 "electric_dipole_moment_norm": 3.45308902434, 
			 "electric_quadrupole_moment_norm": 14.5828082916, 
			 "total_energy": -1068.0769496, 
			 "HOMO_LUMO_gap": 0.21452, 
			 "cosmo_polarized_energy": -11.96, 
			 "cosmo_cavitation_energy": 65.27, 
			 "cosmo_dispersion_energy": -37.77, 
			 "cosmo_repulsion_energy": 2.92, 
			 "cosmo_total_nonelectrostatic_energy": 30.42, 
			 "SMD_solvation_energy": 9.2 
		},
		"coords": [
			{
				"x": -2.5292183163,
				"y": 3.1841028277,
				"z": -1.4254456686,
				"element": "C" 
			},
			{
				"x": -2.9967274444,
				"y": 1.7653835836,
				"z": -1.0853126528,
				"element": "C" 
			},
			{
				"x": -3.0296513248,
				"y": 1.4875428026,
				"z": 0.4240826526,
				"element": "C" 
			},
			{
				"x": -3.5036742203,
				"y": 0.0692308379,
				"z": 0.7698964162,
				"element": "C" 
			},
			{
				"x": -3.691608483,
				"y": -0.2019048944,
				"z": 2.2733086572,
				"element": "C" 
			},
			{
				"x": -2.4249052375,
				"y": -0.1246641544,
				"z": 3.1451121167,
				"element": "C" 
			},
			{
				"x": -1.351663826,
				"y": -1.1642185139,
				"z": 2.7899762884,
				"element": "C" 
			},
			{
				"x": -0.2001959173,
				"y": -1.2731538641,
				"z": 3.8138065372,
				"element": "C" 
			},
			{
				"x": 0.6276616868,
				"y": -0.0263498205,
				"z": 3.9854329487,
				"element": "C" 
			},
			{
				"x": 1.9330918219,
				"y": 0.0680921846,
				"z": 3.7114636023,
				"element": "C" 
			},
			{
				"x": 2.8062655043,
				"y": 1.272559515,
				"z": 3.9524054506,
				"element": "C" 
			},
			{
				"x": 3.6682926354,
				"y": 1.7318033604,
				"z": 2.7523359883,
				"element": "C" 
			},
			{
				"x": 2.9700417627,
				"y": 2.6541354254,
				"z": 1.7357897063,
				"element": "C" 
			},
			{
				"x": 1.8040554916,
				"y": 2.0554655006,
				"z": 0.9316383092,
				"element": "C" 
			},
			{
				"x": 2.1959303505,
				"y": 0.9223578527,
				"z": -0.0264402336,
				"element": "C" 
			},
			{
				"x": 0.9937323885,
				"y": 0.382563417,
				"z": -0.8082980556,
				"element": "C" 
			},
			{
				"x": 1.3579106253,
				"y": -0.722852831,
				"z": -1.8112381138,
				"element": "C" 
			},
			{
				"x": 0.1468483071,
				"y": -1.1538286907,
				"z": -2.626594936,
				"element": "C" 
			},
			{
				"x": -0.555781895,
				"y": -0.3339454002,
				"z": -3.2069318201,
				"element": "O" 
			},
			{
				"x": -0.130852859,
				"y": -2.5014202665,
				"z": -2.7659247568,
				"element": "N" 
			},
			{
				"x": 0.4264575569,
				"y": -3.6436685772,
				"z": -2.1368796481,
				"element": "C" 
			},
			{
				"x": 0.7687779039,
				"y": -4.751958966,
				"z": -2.9244469245,
				"element": "C" 
			},
			{
				"x": 1.2739442958,
				"y": -5.907565009,
				"z": -2.3307848266,
				"element": "C" 
			},
			{
				"x": 1.4609965545,
				"y": -5.9658367577,
				"z": -0.9481253789,
				"element": "C" 
			},
			{
				"x": 1.1170379516,
				"y": -4.865321896,
				"z": -0.1613327373,
				"element": "C" 
			},
			{
				"x": 0.5850497619,
				"y": -3.7156601256,
				"z": -0.7455507906,
				"element": "C" 
			},
			{
				"x": -3.1843579314,
				"y": 3.9399942984,
				"z": -0.9759760769,
				"element": "H" 
			},
			{
				"x": -2.5183253386,
				"y": 3.35103421,
				"z": -2.5072962702,
				"element": "H" 
			},
			{
				"x": -1.5139847214,
				"y": 3.3659622245,
				"z": -1.0532504583,
				"element": "H" 
			},
			{
				"x": -2.3417227447,
				"y": 1.0395950828,
				"z": -1.583852065,
				"element": "H" 
			},
			{
				"x": -4.0013217006,
				"y": 1.6038322127,
				"z": -1.5005443184,
				"element": "H" 
			},
			{
				"x": -2.0281337278,
				"y": 1.6616844781,
				"z": 0.8412611504,
				"element": "H" 
			},
			{
				"x": -3.6913788812,
				"y": 2.2182056152,
				"z": 0.9129882421,
				"element": "H" 
			},
			{
				"x": -2.8064102155,
				"y": -0.6619572996,
				"z": 0.3391446823,
				"element": "H" 
			},
			{
				"x": -4.4649258385,
				"y": -0.1106531513,
				"z": 0.2693090511,
				"element": "H" 
			},
			{
				"x": -4.1377924564,
				"y": -1.1985794134,
				"z": 2.3971316152,
				"element": "H" 
			},
			{
				"x": -4.4298394587,
				"y": 0.5100167083,
				"z": 2.6674340246,
				"element": "H" 
			},
			{
				"x": -2.7220634308,
				"y": -0.2705609268,
				"z": 4.1933082669,
				"element": "H" 
			},
			{
				"x": -1.997435506,
				"y": 0.88420215,
				"z": 3.0918119337,
				"element": "H" 
			},
			{
				"x": -1.8284320714,
				"y": -2.1510337575,
				"z": 2.7066958916,
				"element": "H" 
			},
			{
				"x": -0.927358752,
				"y": -0.9415394611,
				"z": 1.8026019152,
				"element": "H" 
			},
			{
				"x": 0.4578860459,
				"y": -2.1019071829,
				"z": 3.5235790218,
				"element": "H" 
			},
			{
				"x": -0.6343449246,
				"y": -1.5506088882,
				"z": 4.7866390951,
				"element": "H" 
			},
			{
				"x": 0.1136564826,
				"y": 0.8504478553,
				"z": 4.3826173404,
				"element": "H" 
			},
			{
				"x": 2.4485805448,
				"y": -0.8139412716,
				"z": 3.3225358003,
				"element": "H" 
			},
			{
				"x": 3.4940158323,
				"y": 1.0216624765,
				"z": 4.7740518069,
				"element": "H" 
			},
			{
				"x": 2.1959353846,
				"y": 2.1102204156,
				"z": 4.3149432729,
				"element": "H" 
			},
			{
				"x": 4.0832753607,
				"y": 0.8497203998,
				"z": 2.2467430666,
				"element": "H" 
			},
			{
				"x": 4.5337294132,
				"y": 2.2783833004,
				"z": 3.1474936977,
				"element": "H" 
			},
			{
				"x": 2.603656354,
				"y": 3.5393006145,
				"z": 2.2738873367,
				"element": "H" 
			},
			{
				"x": 3.7285896531,
				"y": 3.0254151056,
				"z": 1.0322273442,
				"element": "H" 
			},
			{
				"x": 1.0301327899,
				"y": 1.692761436,
				"z": 1.617482966,
				"element": "H" 
			},
			{
				"x": 1.3416975736,
				"y": 2.8616507107,
				"z": 0.3456685441,
				"element": "H" 
			},
			{
				"x": 2.9599203151,
				"y": 1.2849625269,
				"z": -0.7296926193,
				"element": "H" 
			},
			{
				"x": 2.6616911833,
				"y": 0.1007657987,
				"z": 0.5339004777,
				"element": "H" 
			},
			{
				"x": 0.5024023621,
				"y": 1.1920279482,
				"z": -1.3586871663,
				"element": "H" 
			},
			{
				"x": 0.2477214951,
				"y": -0.0018440133,
				"z": -0.0989476622,
				"element": "H" 
			},
			{
				"x": 2.0763145824,
				"y": -0.3238583978,
				"z": -2.5396526919,
				"element": "H" 
			},
			{
				"x": 1.8449303806,
				"y": -1.5644366643,
				"z": -1.3144384643,
				"element": "H" 
			},
			{
				"x": -0.8610997926,
				"y": -2.6635583884,
				"z": -3.4496510434,
				"element": "H" 
			},
			{
				"x": 0.6445353909,
				"y": -4.6957573567,
				"z": -4.0022906956,
				"element": "H" 
			},
			{
				"x": 1.5331422362,
				"y": -6.7594413458,
				"z": -2.9527506222,
				"element": "H" 
			},
			{
				"x": 1.8632419539,
				"y": -6.8630498367,
				"z": -0.4877476674,
				"element": "H" 
			},
			{
				"x": 1.2405226645,
				"y": -4.9067055592,
				"z": 0.9170043944,
				"element": "H" 
			},
			{
				"x": 0.270234418,
				"y": -2.8826001942,
				"z": -0.125425247,
				"element": "H" 
			}
		],
		 "valence_orbital": [ 
			{
				"type": "occ",
				"energy": -0.28968,
				"method": "rhf"
			},
			{
				"type": "occ",
				"energy": -0.26157,
				"method": "rhf"
			},
			{
				"type": "occ",
				"energy": -0.24805,
				"method": "rhf"
			},
			{
				"type": "occ",
				"energy": -0.23545,
				"method": "rhf"
			},
			{
				"type": "occ",
				"energy": -0.23149,
				"method": "rhf"
			},
			{
				"type": "unocc",
				"energy": -0.01697,
				"method": "rhf"
			},
			{
				"type": "unocc",
				"energy": -0.01312,
				"method": "rhf"
			},
			{
				"type": "unocc",
				"energy": 0.02147,
				"method": "rhf"
			},
			{
				"type": "unocc",
				"energy": 0.02819,
				"method": "rhf"
			},
			{
				"type": "unocc",
				"energy": 0.05342,
				"method": "rhf"
			}
		],
		"cosmo_sigma_profile": { 
			"-0.025": 0.0,
			"-0.024": 0.0,
			"-0.023": 0.0,
			"-0.022": 0.0,
			"-0.021": 0.0,
			"-0.02": 0.0,
			"-0.019": 0.0,
			"-0.018": 0.0,
			"-0.017": 0.0,
			"-0.016": 0.0,
			"-0.015": 0.0,
			"-0.014": 0.408366272052,
			"-0.013": 1.07263175452,
			"-0.012": 0.891537950143,
			"-0.011": 1.21268144698,
			"-0.01": 1.03253036227,
			"-0.009": 0.644474261872,
			"-0.008": 1.27159523759,
			"-0.007": 1.89606965534,
			"-0.006": 7.67228058873,
			"-0.005": 11.4286526574,
			"-0.004": 18.3517915751,
			"-0.003": 28.4558304344,
			"-0.002": 63.9763953015,
			"-0.001": 90.8580034432,
			"0.0": 93.1892785228,
			"0.001": 74.1336203039,
			"0.002": 40.113485792,
			"0.003": 17.2930586841,
			"0.004": 14.4692882786,
			"0.005": 13.9720745849,
			"0.006": 5.07057397285,
			"0.007": 3.03111470984,
			"0.008": 2.56338282809,
			"0.009": 1.01590166758,
			"0.01": 1.21060036674,
			"0.011": 1.62692310773,
			"0.012": 2.36777628299,
			"0.013": 2.19091621499,
			"0.014": 3.5807232932,
			"0.015": 0.405045204571,
			"0.016": 0.0,
			"0.017": 0.0,
			"0.018": 0.0,
			"0.019": 0.0,
			"0.02": 0.0,
			"0.021": 0.0,
			"0.022": 0.0,
			"0.023": 0.0,
			"0.024": 0.0,
			"0.025": 0.0
		}
	}
}
