{
	 "smiles": "C1CC2=C(C=CN=N2)C2=NON=C12", 
	 "Tm": 382.15, 
	 "num_atms": 19, 
	 "gaussian": { 
		 "optdone": 1, 
		 "sigma_profile": "yes", 
		 "theory": "DFT", 
		 "functional": "B3LYP", 
		 "basiset": "6-31G**", 
		 "properties": { 
			 "R2extent": 3476.3591, 
			 "electric_dipole_moment_norm": 0.510098480688, 
			 "electric_quadrupole_moment_norm": 22.697378904, 
			 "total_energy": -602.576807462, 
			 "HOMO_LUMO_gap": 0.15601, 
			 "cosmo_polarized_energy": -13.6, 
			 "cosmo_cavitation_energy": 23.48, 
			 "cosmo_dispersion_energy": -17.9, 
			 "cosmo_repulsion_energy": 1.39, 
			 "cosmo_total_nonelectrostatic_energy": 6.97, 
			 "SMD_solvation_energy": 1.25 
		},
		"coords": [
			{
				"x": -1.9759434881,
				"y": -1.4216736715,
				"z": 2.6596337131,
				"element": "C" 
			},
			{
				"x": -1.2456036748,
				"y": -2.3865598468,
				"z": 1.697829441,
				"element": "C" 
			},
			{
				"x": -0.7773613527,
				"y": -1.7347439939,
				"z": 0.4088996138,
				"element": "C" 
			},
			{
				"x": -1.5387463375,
				"y": -0.7156253047,
				"z": -0.2116386069,
				"element": "C" 
			},
			{
				"x": -1.0849439336,
				"y": -0.2319048104,
				"z": -1.4299579933,
				"element": "C" 
			},
			{
				"x": 0.0913688534,
				"y": -0.7933246244,
				"z": -1.9301239321,
				"element": "C" 
			},
			{
				"x": 0.7909391339,
				"y": -1.7393215998,
				"z": -1.2956690977,
				"element": "N" 
			},
			{
				"x": 0.3512856232,
				"y": -2.2094389448,
				"z": -0.12609391,
				"element": "N" 
			},
			{
				"x": -2.7173834951,
				"y": -0.2496858446,
				"z": 0.5089354332,
				"element": "C" 
			},
			{
				"x": -3.6976922233,
				"y": 0.5069313478,
				"z": 0.0829862887,
				"element": "N" 
			},
			{
				"x": -4.5343690866,
				"y": 0.6437570993,
				"z": 1.1606843127,
				"element": "O" 
			},
			{
				"x": -4.0604441717,
				"y": -0.039219515,
				"z": 2.2694700325,
				"element": "N" 
			},
			{
				"x": -2.94607514,
				"y": -0.5908548646,
				"z": 1.8780262113,
				"element": "C" 
			},
			{
				"x": -1.2503091749,
				"y": -0.7523725595,
				"z": 3.1400734354,
				"element": "H" 
			},
			{
				"x": -2.481282753,
				"y": -1.9712096768,
				"z": 3.4575519548,
				"element": "H" 
			},
			{
				"x": -1.9295211695,
				"y": -3.203641322,
				"z": 1.4289879362,
				"element": "H" 
			},
			{
				"x": -0.3827926139,
				"y": -2.8477665615,
				"z": 2.1828887648,
				"element": "H" 
			},
			{
				"x": -1.6148033315,
				"y": 0.5514089569,
				"z": -1.9620249534,
				"element": "H" 
			},
			{
				"x": 0.5097783359,
				"y": -0.4689542637,
				"z": -2.8790586443,
				"element": "H" 
			}
		],
		 "valence_orbital": [ 
			{
				"type": "occ",
				"energy": -0.32007,
				"method": "rhf"
			},
			{
				"type": "occ",
				"energy": -0.31739,
				"method": "rhf"
			},
			{
				"type": "occ",
				"energy": -0.30623,
				"method": "rhf"
			},
			{
				"type": "occ",
				"energy": -0.28222,
				"method": "rhf"
			},
			{
				"type": "occ",
				"energy": -0.24568,
				"method": "rhf"
			},
			{
				"type": "unocc",
				"energy": -0.08967,
				"method": "rhf"
			},
			{
				"type": "unocc",
				"energy": -0.04604,
				"method": "rhf"
			},
			{
				"type": "unocc",
				"energy": -0.04004,
				"method": "rhf"
			},
			{
				"type": "unocc",
				"energy": 0.03891,
				"method": "rhf"
			},
			{
				"type": "unocc",
				"energy": 0.07554,
				"method": "rhf"
			}
		],
		"cosmo_sigma_profile": { 
			"-0.025": 0.0,
			"-0.024": 0.0,
			"-0.023": 0.0,
			"-0.022": 0.0,
			"-0.021": 0.0,
			"-0.02": 0.0,
			"-0.019": 0.0,
			"-0.018": 0.0,
			"-0.017": 0.0,
			"-0.016": 0.0,
			"-0.015": 0.0,
			"-0.014": 0.0,
			"-0.013": 0.0,
			"-0.012": 0.0,
			"-0.011": 0.0,
			"-0.01": 0.0554650333377,
			"-0.009": 2.18436340335,
			"-0.008": 6.03616425857,
			"-0.007": 12.8717358247,
			"-0.006": 15.132254258,
			"-0.005": 16.0752331168,
			"-0.004": 15.5657783997,
			"-0.003": 17.984328164,
			"-0.002": 13.4135230111,
			"-0.001": 11.4493595086,
			"0.0": 7.10632420842,
			"0.001": 4.28342360983,
			"0.002": 5.70261841822,
			"0.003": 5.18886733142,
			"0.004": 6.38102388691,
			"0.005": 9.70568450236,
			"0.006": 9.73214986082,
			"0.007": 4.53220818038,
			"0.008": 3.53005036733,
			"0.009": 4.47770958546,
			"0.01": 4.04093167414,
			"0.011": 4.08583027578,
			"0.012": 2.3402487837,
			"0.013": 2.59058608009,
			"0.014": 2.59473103813,
			"0.015": 1.84728737527,
			"0.016": 0.404242000495,
			"0.017": 0.0,
			"0.018": 0.0,
			"0.019": 0.0,
			"0.02": 0.0,
			"0.021": 0.0,
			"0.022": 0.0,
			"0.023": 0.0,
			"0.024": 0.0,
			"0.025": 0.0
		}
	}
}
