{
	 "smiles": "CCC(=O)N1CCC2=C1C=CC(=C2)C(O)=O", 
	 "Tm": 502.15, 
	 "num_atms": 29, 
	 "gaussian": { 
		 "optdone": 1, 
		 "sigma_profile": "yes", 
		 "theory": "DFT", 
		 "functional": "B3LYP", 
		 "basiset": "6-31G**", 
		 "properties": { 
			 "R2extent": 5464.8287, 
			 "electric_dipole_moment_norm": 5.96211085019, 
			 "electric_quadrupole_moment_norm": 26.6167544885, 
			 "total_energy": -745.569358863, 
			 "HOMO_LUMO_gap": 0.17864, 
			 "cosmo_polarized_energy": -19.69, 
			 "cosmo_cavitation_energy": 32.19, 
			 "cosmo_dispersion_energy": -23.57, 
			 "cosmo_repulsion_energy": 1.82, 
			 "cosmo_total_nonelectrostatic_energy": 10.44, 
			 "SMD_solvation_energy": 6.43 
		},
		"coords": [
			{
				"x": 0.8487064806,
				"y": -1.4177349206,
				"z": 3.3874354226,
				"element": "C" 
			},
			{
				"x": 1.6505089704,
				"y": -0.325135594,
				"z": 2.6564698441,
				"element": "C" 
			},
			{
				"x": 0.7272632996,
				"y": 0.6333770205,
				"z": 1.9129425222,
				"element": "C" 
			},
			{
				"x": 0.2172861697,
				"y": 1.5856382386,
				"z": 2.4918058045,
				"element": "O" 
			},
			{
				"x": 0.4588913627,
				"y": 0.3517718325,
				"z": 0.5842045269,
				"element": "N" 
			},
			{
				"x": 1.0799359891,
				"y": -0.7516944534,
				"z": -0.1914131541,
				"element": "C" 
			},
			{
				"x": 0.3138587023,
				"y": -0.7768641164,
				"z": -1.5359020662,
				"element": "C" 
			},
			{
				"x": -0.4492431527,
				"y": 0.5273143226,
				"z": -1.5293256557,
				"element": "C" 
			},
			{
				"x": -0.3626395425,
				"y": 1.1258518561,
				"z": -0.2601307748,
				"element": "C" 
			},
			{
				"x": -1.0376714443,
				"y": 2.317597774,
				"z": 0.0212459004,
				"element": "C" 
			},
			{
				"x": -1.7759213266,
				"y": 2.9053707842,
				"z": -1.0076221591,
				"element": "C" 
			},
			{
				"x": -1.8523451963,
				"y": 2.3340665217,
				"z": -2.2864923533,
				"element": "C" 
			},
			{
				"x": -1.191579735,
				"y": 1.1173521491,
				"z": -2.534939711,
				"element": "C" 
			},
			{
				"x": -2.6396001157,
				"y": 2.9287859809,
				"z": -3.4094396543,
				"element": "C" 
			},
			{
				"x": -2.9761558428,
				"y": 4.2438101981,
				"z": -3.2995165806,
				"element": "O" 
			},
			{
				"x": -2.9777058635,
				"y": 2.3044869545,
				"z": -4.3895274706,
				"element": "O" 
			},
			{
				"x": 1.5136064178,
				"y": -2.0463333031,
				"z": 3.9867605339,
				"element": "H" 
			},
			{
				"x": 0.3120699548,
				"y": -2.0670952776,
				"z": 2.6874851941,
				"element": "H" 
			},
			{
				"x": 0.1126136976,
				"y": -0.9614991688,
				"z": 4.0549293446,
				"element": "H" 
			},
			{
				"x": 2.1802179956,
				"y": 0.2882188445,
				"z": 3.3898641098,
				"element": "H" 
			},
			{
				"x": 2.3995367571,
				"y": -0.7755507509,
				"z": 1.9984895925,
				"element": "H" 
			},
			{
				"x": 0.9960019249,
				"y": -1.69639299,
				"z": 0.3492111021,
				"element": "H" 
			},
			{
				"x": 2.1443797054,
				"y": -0.5407688446,
				"z": -0.3468332836,
				"element": "H" 
			},
			{
				"x": 0.9956750757,
				"y": -0.8680026596,
				"z": -2.3863038271,
				"element": "H" 
			},
			{
				"x": -0.3750453265,
				"y": -1.6286065223,
				"z": -1.5826060947,
				"element": "H" 
			},
			{
				"x": -0.9873233945,
				"y": 2.7534463844,
				"z": 1.0078917633,
				"element": "H" 
			},
			{
				"x": -2.3288685968,
				"y": 3.8125957068,
				"z": -0.7746929496,
				"element": "H" 
			},
			{
				"x": -1.2830230123,
				"y": 0.6689958545,
				"z": -3.518920194,
				"element": "H" 
			},
			{
				"x": -2.5049299539,
				"y": 4.6462981781,
				"z": -2.5572697322,
				"element": "H" 
			}
		],
		 "valence_orbital": [ 
			{
				"type": "occ",
				"energy": -0.30185,
				"method": "rhf"
			},
			{
				"type": "occ",
				"energy": -0.26818,
				"method": "rhf"
			},
			{
				"type": "occ",
				"energy": -0.26212,
				"method": "rhf"
			},
			{
				"type": "occ",
				"energy": -0.25841,
				"method": "rhf"
			},
			{
				"type": "occ",
				"energy": -0.22596,
				"method": "rhf"
			},
			{
				"type": "unocc",
				"energy": -0.04732,
				"method": "rhf"
			},
			{
				"type": "unocc",
				"energy": -0.02043,
				"method": "rhf"
			},
			{
				"type": "unocc",
				"energy": 0.01219,
				"method": "rhf"
			},
			{
				"type": "unocc",
				"energy": 0.05903,
				"method": "rhf"
			},
			{
				"type": "unocc",
				"energy": 0.06465,
				"method": "rhf"
			}
		],
		"cosmo_sigma_profile": { 
			"-0.025": 0.0,
			"-0.024": 0.0,
			"-0.023": 0.0,
			"-0.022": 0.0,
			"-0.021": 0.0,
			"-0.02": 0.0,
			"-0.019": 0.114515354827,
			"-0.018": 0.792263143162,
			"-0.017": 0.913096701012,
			"-0.016": 1.13791387962,
			"-0.015": 0.62383654616,
			"-0.014": 0.910259014455,
			"-0.013": 1.1525596427,
			"-0.012": 1.12808702849,
			"-0.011": 0.942441549965,
			"-0.01": 0.981340635709,
			"-0.009": 1.50962290416,
			"-0.008": 1.32744057341,
			"-0.007": 2.40242526905,
			"-0.006": 14.1444461208,
			"-0.005": 23.4313128983,
			"-0.004": 22.952592399,
			"-0.003": 23.8519306537,
			"-0.002": 22.2909728153,
			"-0.001": 19.0050597321,
			"0.0": 17.3937963824,
			"0.001": 13.5568733521,
			"0.002": 12.7534530903,
			"0.003": 15.7647179594,
			"0.004": 7.26059345354,
			"0.005": 3.66856428055,
			"0.006": 5.33451011377,
			"0.007": 4.02418571239,
			"0.008": 3.42489507191,
			"0.009": 4.60574584744,
			"0.01": 5.41881301597,
			"0.011": 7.25894029374,
			"0.012": 7.88163049524,
			"0.013": 5.13071741916,
			"0.014": 1.95458715396,
			"0.015": 0.160694431177,
			"0.016": 0.0,
			"0.017": 0.0,
			"0.018": 0.0,
			"0.019": 0.0,
			"0.02": 0.0,
			"0.021": 0.0,
			"0.022": 0.0,
			"0.023": 0.0,
			"0.024": 0.0,
			"0.025": 0.0
		}
	}
}
