{
	 "smiles": "CC(=O)NC1=CC(C)=NO1", 
	 "Tm": 435.15, 
	 "num_atms": 18, 
	 "gaussian": { 
		 "optdone": 1, 
		 "sigma_profile": "yes", 
		 "theory": "DFT", 
		 "functional": "B3LYP", 
		 "basiset": "6-31G**", 
		 "properties": { 
			 "R2extent": 2058.129, 
			 "electric_dipole_moment_norm": 2.39830721135, 
			 "electric_quadrupole_moment_norm": 16.2205153531, 
			 "total_energy": -493.380523097, 
			 "HOMO_LUMO_gap": 0.20815, 
			 "cosmo_polarized_energy": -14.17, 
			 "cosmo_cavitation_energy": 22.75, 
			 "cosmo_dispersion_energy": -16.9, 
			 "cosmo_repulsion_energy": 1.39, 
			 "cosmo_total_nonelectrostatic_energy": 7.24, 
			 "SMD_solvation_energy": 5.04 
		},
		"coords": [
			{
				"x": 1.8200967265,
				"y": 1.3094557915,
				"z": -1.5597215572,
				"element": "C" 
			},
			{
				"x": 0.8427012946,
				"y": 0.3336832092,
				"z": -0.9306230381,
				"element": "C" 
			},
			{
				"x": 0.5495402594,
				"y": -0.7342136217,
				"z": -1.4390241908,
				"element": "O" 
			},
			{
				"x": 0.2887490402,
				"y": 0.7596118098,
				"z": 0.2675879481,
				"element": "N" 
			},
			{
				"x": -0.6428537064,
				"y": 0.0428553883,
				"z": 0.996610459,
				"element": "C" 
			},
			{
				"x": -1.2654928883,
				"y": -1.1618527645,
				"z": 0.8401059961,
				"element": "C" 
			},
			{
				"x": -2.1003048713,
				"y": -1.2428810977,
				"z": 1.9937654063,
				"element": "C" 
			},
			{
				"x": -3.0318554426,
				"y": -2.359516218,
				"z": 2.370061859,
				"element": "C" 
			},
			{
				"x": -1.9914605501,
				"y": -0.1860641258,
				"z": 2.7711796155,
				"element": "N" 
			},
			{
				"x": -1.0469024402,
				"y": 0.6486338119,
				"z": 2.1268511759,
				"element": "O" 
			},
			{
				"x": 1.3636352405,
				"y": 1.7365916914,
				"z": -2.4581101051,
				"element": "H" 
			},
			{
				"x": 2.1191116468,
				"y": 2.1252518868,
				"z": -0.8963109643,
				"element": "H" 
			},
			{
				"x": 2.7080863437,
				"y": 0.7571701497,
				"z": -1.8747279405,
				"element": "H" 
			},
			{
				"x": 0.5584064742,
				"y": 1.6517185254,
				"z": 0.6579945073,
				"element": "H" 
			},
			{
				"x": -1.140280379,
				"y": -1.8635240334,
				"z": 0.0343719455,
				"element": "H" 
			},
			{
				"x": -2.7558866731,
				"y": -2.786901157,
				"z": 3.3384585029,
				"element": "H" 
			},
			{
				"x": -3.0010068464,
				"y": -3.1531740344,
				"z": 1.620733249,
				"element": "H" 
			},
			{
				"x": -4.0611832283,
				"y": -1.9977452114,
				"z": 2.4488971314,
				"element": "H" 
			}
		],
		 "valence_orbital": [ 
			{
				"type": "occ",
				"energy": -0.32282,
				"method": "rhf"
			},
			{
				"type": "occ",
				"energy": -0.29755,
				"method": "rhf"
			},
			{
				"type": "occ",
				"energy": -0.28175,
				"method": "rhf"
			},
			{
				"type": "occ",
				"energy": -0.27174,
				"method": "rhf"
			},
			{
				"type": "occ",
				"energy": -0.22973,
				"method": "rhf"
			},
			{
				"type": "unocc",
				"energy": -0.02158,
				"method": "rhf"
			},
			{
				"type": "unocc",
				"energy": 0.0267,
				"method": "rhf"
			},
			{
				"type": "unocc",
				"energy": 0.05794,
				"method": "rhf"
			},
			{
				"type": "unocc",
				"energy": 0.08776,
				"method": "rhf"
			},
			{
				"type": "unocc",
				"energy": 0.09328,
				"method": "rhf"
			}
		],
		"cosmo_sigma_profile": { 
			"-0.025": 0.0,
			"-0.024": 0.0,
			"-0.023": 0.0,
			"-0.022": 0.0,
			"-0.021": 0.0,
			"-0.02": 0.0,
			"-0.019": 0.0,
			"-0.018": 0.0,
			"-0.017": 0.262461327327,
			"-0.016": 1.48048118662,
			"-0.015": 0.845626145843,
			"-0.014": 1.379181572,
			"-0.013": 1.09048738443,
			"-0.012": 1.42750733918,
			"-0.011": 1.41341853347,
			"-0.01": 1.2430210635,
			"-0.009": 0.718143457638,
			"-0.008": 1.96637125674,
			"-0.007": 3.49996174993,
			"-0.006": 8.96685908745,
			"-0.005": 13.2680365277,
			"-0.004": 15.8597201463,
			"-0.003": 14.3848201644,
			"-0.002": 18.1722297969,
			"-0.001": 16.9824558006,
			"0.0": 8.97931907369,
			"0.001": 6.99585974049,
			"0.002": 8.73109463997,
			"0.003": 7.66397168975,
			"0.004": 4.40962080083,
			"0.005": 4.65561299807,
			"0.006": 4.30585617612,
			"0.007": 3.85641958062,
			"0.008": 6.08815721131,
			"0.009": 4.14180921004,
			"0.01": 3.4330809943,
			"0.011": 3.95451152731,
			"0.012": 4.33908874778,
			"0.013": 3.94580406724,
			"0.014": 1.50315795239,
			"0.015": 0.868069000953,
			"0.016": 0.0,
			"0.017": 0.0,
			"0.018": 0.0,
			"0.019": 0.0,
			"0.02": 0.0,
			"0.021": 0.0,
			"0.022": 0.0,
			"0.023": 0.0,
			"0.024": 0.0,
			"0.025": 0.0
		}
	}
}
