{
	 "smiles": "ClC1=C(C=CC=C1)C(=O)CSC#N", 
	 "Tm": 330.15, 
	 "num_atms": 19, 
	 "gaussian": { 
		 "optdone": 1, 
		 "sigma_profile": "yes", 
		 "theory": "DFT", 
		 "functional": "B3LYP", 
		 "basiset": "6-31G**", 
		 "properties": { 
			 "R2extent": 3775.5306, 
			 "electric_dipole_moment_norm": 5.53700690807, 
			 "electric_quadrupole_moment_norm": 13.0098772043, 
			 "total_energy": -1334.88579381, 
			 "HOMO_LUMO_gap": 0.18284, 
			 "cosmo_polarized_energy": -13.43, 
			 "cosmo_cavitation_energy": 28.26, 
			 "cosmo_dispersion_energy": -20.28, 
			 "cosmo_repulsion_energy": 1.56, 
			 "cosmo_total_nonelectrostatic_energy": 9.54, 
			 "SMD_solvation_energy": 6.57 
		},
		"coords": [
			{
				"x": 1.6880608419,
				"y": -2.4075590673,
				"z": -0.8417811837,
				"element": "Cl" 
			},
			{
				"x": 1.9572158959,
				"y": -0.7540289616,
				"z": -0.2896339343,
				"element": "C" 
			},
			{
				"x": 1.1861747808,
				"y": 0.3350360073,
				"z": -0.7359767211,
				"element": "C" 
			},
			{
				"x": 1.5499946216,
				"y": 1.6145000803,
				"z": -0.2701764518,
				"element": "C" 
			},
			{
				"x": 2.6037579892,
				"y": 1.8031116165,
				"z": 0.6140421962,
				"element": "C" 
			},
			{
				"x": 3.3436562138,
				"y": 0.7019004512,
				"z": 1.048555446,
				"element": "C" 
			},
			{
				"x": 3.0264005067,
				"y": -0.5742223606,
				"z": 0.5898436162,
				"element": "C" 
			},
			{
				"x": -0.0010124354,
				"y": 0.3244866505,
				"z": -1.6689452716,
				"element": "C" 
			},
			{
				"x": -0.2937742147,
				"y": 1.3372055831,
				"z": -2.2740045433,
				"element": "O" 
			},
			{
				"x": -0.875222712,
				"y": -0.9322678862,
				"z": -1.7818744946,
				"element": "C" 
			},
			{
				"x": -2.5054342601,
				"y": -0.6375092666,
				"z": -2.5770007683,
				"element": "S" 
			},
			{
				"x": -3.244202042,
				"y": 0.3285398434,
				"z": -1.3878478824,
				"element": "C" 
			},
			{
				"x": -3.7937147094,
				"y": 0.979791619,
				"z": -0.591664537,
				"element": "N" 
			},
			{
				"x": 0.9658982612,
				"y": 2.4548078332,
				"z": -0.6281842351,
				"element": "H" 
			},
			{
				"x": 2.8472545885,
				"y": 2.8017568063,
				"z": 0.9619709488,
				"element": "H" 
			},
			{
				"x": 4.1716564274,
				"y": 0.8305209124,
				"z": 1.7390294005,
				"element": "H" 
			},
			{
				"x": 3.6049313568,
				"y": -1.4359903368,
				"z": 0.9026779878,
				"element": "H" 
			},
			{
				"x": -0.3928312722,
				"y": -1.6673132827,
				"z": -2.4319122424,
				"element": "H" 
			},
			{
				"x": -1.020009838,
				"y": -1.4090662413,
				"z": -0.8107173296,
				"element": "H" 
			}
		],
		 "valence_orbital": [ 
			{
				"type": "occ",
				"energy": -0.32485,
				"method": "rhf"
			},
			{
				"type": "occ",
				"energy": -0.2883,
				"method": "rhf"
			},
			{
				"type": "occ",
				"energy": -0.27847,
				"method": "rhf"
			},
			{
				"type": "occ",
				"energy": -0.27197,
				"method": "rhf"
			},
			{
				"type": "occ",
				"energy": -0.26322,
				"method": "rhf"
			},
			{
				"type": "unocc",
				"energy": -0.08038,
				"method": "rhf"
			},
			{
				"type": "unocc",
				"energy": -0.03451,
				"method": "rhf"
			},
			{
				"type": "unocc",
				"energy": -0.02729,
				"method": "rhf"
			},
			{
				"type": "unocc",
				"energy": -0.00052,
				"method": "rhf"
			},
			{
				"type": "unocc",
				"energy": 0.0084,
				"method": "rhf"
			}
		],
		"cosmo_sigma_profile": { 
			"-0.025": 0.0,
			"-0.024": 0.0,
			"-0.023": 0.0,
			"-0.022": 0.0,
			"-0.021": 0.0,
			"-0.02": 0.0,
			"-0.019": 0.0,
			"-0.018": 0.0,
			"-0.017": 0.0,
			"-0.016": 0.0,
			"-0.015": 0.0,
			"-0.014": 0.0,
			"-0.013": 0.0,
			"-0.012": 0.364436900435,
			"-0.011": 1.60142212354,
			"-0.01": 2.08736908248,
			"-0.009": 4.17233780158,
			"-0.008": 6.6241480587,
			"-0.007": 10.565709283,
			"-0.006": 12.8510554421,
			"-0.005": 14.588049657,
			"-0.004": 11.126909095,
			"-0.003": 12.890345277,
			"-0.002": 13.8834629772,
			"-0.001": 16.3986039817,
			"0.0": 19.1551930412,
			"0.001": 19.3685370752,
			"0.002": 21.6467526835,
			"0.003": 15.5745801564,
			"0.004": 9.47738535275,
			"0.005": 4.63938497548,
			"0.006": 5.38971679981,
			"0.007": 4.99461601662,
			"0.008": 5.77438038542,
			"0.009": 5.70229347487,
			"0.01": 6.46385552919,
			"0.011": 4.57872388661,
			"0.012": 2.26853203924,
			"0.013": 0.444307992863,
			"0.014": 0.0,
			"0.015": 0.0,
			"0.016": 0.0,
			"0.017": 0.0,
			"0.018": 0.0,
			"0.019": 0.0,
			"0.02": 0.0,
			"0.021": 0.0,
			"0.022": 0.0,
			"0.023": 0.0,
			"0.024": 0.0,
			"0.025": 0.0
		}
	}
}
