{
	 "smiles": "N#CC1=CC=C(C=C1)N1C=NC2=C1C=CC=C2", 
	 "Tm": 409.15, 
	 "num_atms": 26, 
	 "gaussian": { 
		 "optdone": 1, 
		 "sigma_profile": "yes", 
		 "theory": "DFT", 
		 "functional": "B3LYP", 
		 "basiset": "6-31G**", 
		 "properties": { 
			 "R2extent": 5154.2698, 
			 "electric_dipole_moment_norm": 2.01669545048, 
			 "electric_quadrupole_moment_norm": 28.7983915744, 
			 "total_energy": -703.158478186, 
			 "HOMO_LUMO_gap": 0.16512, 
			 "cosmo_polarized_energy": -15.39, 
			 "cosmo_cavitation_energy": 31.77, 
			 "cosmo_dispersion_energy": -22.63, 
			 "cosmo_repulsion_energy": 1.71, 
			 "cosmo_total_nonelectrostatic_energy": 10.84, 
			 "SMD_solvation_energy": 5.04 
		},
		"coords": [
			{
				"x": 0.0885764912,
				"y": 5.6313623433,
				"z": 2.4940581786,
				"element": "N" 
			},
			{
				"x": 0.3320720161,
				"y": 4.5817666825,
				"z": 2.0553530169,
				"element": "C" 
			},
			{
				"x": 0.632042845,
				"y": 3.2890030981,
				"z": 1.5146514147,
				"element": "C" 
			},
			{
				"x": 1.8525224502,
				"y": 2.6615619435,
				"z": 1.8164928466,
				"element": "C" 
			},
			{
				"x": 2.1366692669,
				"y": 1.4026712097,
				"z": 1.3016204951,
				"element": "C" 
			},
			{
				"x": 1.2148853969,
				"y": 0.7604370016,
				"z": 0.4616433578,
				"element": "C" 
			},
			{
				"x": -0.0001368229,
				"y": 1.38833518,
				"z": 0.1502023749,
				"element": "C" 
			},
			{
				"x": -0.2927963848,
				"y": 2.6393003248,
				"z": 0.6794119949,
				"element": "C" 
			},
			{
				"x": 1.5270925841,
				"y": -0.5053435275,
				"z": -0.0817879859,
				"element": "N" 
			},
			{
				"x": 2.7630630722,
				"y": -0.8850507583,
				"z": -0.5968365138,
				"element": "C" 
			},
			{
				"x": 2.7930713984,
				"y": -2.0958822173,
				"z": -1.0741643685,
				"element": "N" 
			},
			{
				"x": 1.5082312178,
				"y": -2.5893361478,
				"z": -0.8727681493,
				"element": "C" 
			},
			{
				"x": 0.6901564635,
				"y": -1.6122983542,
				"z": -0.257427907,
				"element": "C" 
			},
			{
				"x": -0.6381963357,
				"y": -1.8675692671,
				"z": 0.0928754253,
				"element": "C" 
			},
			{
				"x": -1.1379487164,
				"y": -3.1303684956,
				"z": -0.2178710503,
				"element": "C" 
			},
			{
				"x": -0.3412950758,
				"y": -4.1066798246,
				"z": -0.8474034846,
				"element": "C" 
			},
			{
				"x": 0.9859289905,
				"y": -3.8519150055,
				"z": -1.1762000354,
				"element": "C" 
			},
			{
				"x": 2.5644403191,
				"y": 3.1572288336,
				"z": 2.4675316449,
				"element": "H" 
			},
			{
				"x": 3.062726999,
				"y": 0.9037709219,
				"z": 1.5662959504,
				"element": "H" 
			},
			{
				"x": -0.6985026425,
				"y": 0.9050008475,
				"z": -0.5230868418,
				"element": "H" 
			},
			{
				"x": -1.2308423945,
				"y": 3.126800499,
				"z": 0.4367302711,
				"element": "H" 
			},
			{
				"x": 3.5885577664,
				"y": -0.1851770566,
				"z": -0.6095075093,
				"element": "H" 
			},
			{
				"x": -1.2553545759,
				"y": -1.1301241888,
				"z": 0.594062636,
				"element": "H" 
			},
			{
				"x": -2.1668631009,
				"y": -3.3669698606,
				"z": 0.0359613936,
				"element": "H" 
			},
			{
				"x": -0.7733206146,
				"y": -5.0771502838,
				"z": -1.0719620782,
				"element": "H" 
			},
			{
				"x": 1.6135193865,
				"y": -4.6004738977,
				"z": -1.6483750767,
				"element": "H" 
			}
		],
		 "valence_orbital": [ 
			{
				"type": "occ",
				"energy": -0.29282,
				"method": "rhf"
			},
			{
				"type": "occ",
				"energy": -0.28626,
				"method": "rhf"
			},
			{
				"type": "occ",
				"energy": -0.27435,
				"method": "rhf"
			},
			{
				"type": "occ",
				"energy": -0.23941,
				"method": "rhf"
			},
			{
				"type": "occ",
				"energy": -0.23294,
				"method": "rhf"
			},
			{
				"type": "unocc",
				"energy": -0.06782,
				"method": "rhf"
			},
			{
				"type": "unocc",
				"energy": -0.04223,
				"method": "rhf"
			},
			{
				"type": "unocc",
				"energy": -0.02697,
				"method": "rhf"
			},
			{
				"type": "unocc",
				"energy": 0.00955,
				"method": "rhf"
			},
			{
				"type": "unocc",
				"energy": 0.02793,
				"method": "rhf"
			}
		],
		"cosmo_sigma_profile": { 
			"-0.025": 0.0,
			"-0.024": 0.0,
			"-0.023": 0.0,
			"-0.022": 0.0,
			"-0.021": 0.0,
			"-0.02": 0.0,
			"-0.019": 0.0,
			"-0.018": 0.0,
			"-0.017": 0.0,
			"-0.016": 0.0,
			"-0.015": 0.0,
			"-0.014": 0.0,
			"-0.013": 0.0,
			"-0.012": 0.0,
			"-0.011": 0.0,
			"-0.01": 1.3826688564,
			"-0.009": 4.63717140392,
			"-0.008": 10.0030880499,
			"-0.007": 12.5308588718,
			"-0.006": 15.5016765536,
			"-0.005": 15.8568042401,
			"-0.004": 16.7710944644,
			"-0.003": 16.534316469,
			"-0.002": 16.4252865987,
			"-0.001": 20.9506201139,
			"0.0": 17.8632969642,
			"0.001": 21.3334439555,
			"0.002": 13.2928358764,
			"0.003": 10.6778757741,
			"0.004": 13.5884230847,
			"0.005": 12.9624815271,
			"0.006": 5.69064175273,
			"0.007": 5.14833845374,
			"0.008": 4.59134407846,
			"0.009": 4.40582430075,
			"0.01": 4.16347084132,
			"0.011": 4.28381160365,
			"0.012": 3.76182650521,
			"0.013": 2.1115539264,
			"0.014": 0.92202556331,
			"0.015": 1.20102032955,
			"0.016": 0.98174487455,
			"0.017": 0.480292897658,
			"0.018": 0.0,
			"0.019": 0.0,
			"0.02": 0.0,
			"0.021": 0.0,
			"0.022": 0.0,
			"0.023": 0.0,
			"0.024": 0.0,
			"0.025": 0.0
		}
	}
}
