{
	 "smiles": "ClC1=CC2=NC(=NN2C=N1)C1=CC=CC=C1", 
	 "Tm": 499.15, 
	 "num_atms": 23, 
	 "gaussian": { 
		 "optdone": 1, 
		 "sigma_profile": "yes", 
		 "theory": "DFT", 
		 "functional": "B3LYP", 
		 "basiset": "6-31G**", 
		 "properties": { 
			 "R2extent": 6927.2344, 
			 "electric_dipole_moment_norm": 1.74980072008, 
			 "electric_quadrupole_moment_norm": 7.58522918507, 
			 "total_energy": -1102.57750954, 
			 "HOMO_LUMO_gap": 0.17148, 
			 "cosmo_polarized_energy": -9.58, 
			 "cosmo_cavitation_energy": 30.2, 
			 "cosmo_dispersion_energy": -22.89, 
			 "cosmo_repulsion_energy": 1.74, 
			 "cosmo_total_nonelectrostatic_energy": 9.05, 
			 "SMD_solvation_energy": 1.28 
		},
		"coords": [
			{
				"x": -4.4072831951,
				"y": 3.780641632,
				"z": -1.3556087924,
				"element": "Cl" 
			},
			{
				"x": -2.9955916146,
				"y": 2.8386457354,
				"z": -1.7802218193,
				"element": "C" 
			},
			{
				"x": -2.2296763094,
				"y": 2.2807859645,
				"z": -0.7807899078,
				"element": "C" 
			},
			{
				"x": -1.1061269787,
				"y": 1.5339859546,
				"z": -1.1955293636,
				"element": "C" 
			},
			{
				"x": -0.1551285045,
				"y": 0.8644101206,
				"z": -0.5611640917,
				"element": "N" 
			},
			{
				"x": 0.6208089193,
				"y": 0.3765696371,
				"z": -1.5759123079,
				"element": "C" 
			},
			{
				"x": 0.2206809396,
				"y": 0.6952012508,
				"z": -2.8162614613,
				"element": "N" 
			},
			{
				"x": -0.8868401071,
				"y": 1.4376173291,
				"z": -2.5734789921,
				"element": "N" 
			},
			{
				"x": -1.7082964797,
				"y": 2.0295660895,
				"z": -3.4789926897,
				"element": "C" 
			},
			{
				"x": -2.7505433676,
				"y": 2.7227434457,
				"z": -3.1060353376,
				"element": "N" 
			},
			{
				"x": 1.8143230611,
				"y": -0.4424173252,
				"z": -1.3335576975,
				"element": "C" 
			},
			{
				"x": 2.5825383636,
				"y": -0.9224346212,
				"z": -2.4063172445,
				"element": "C" 
			},
			{
				"x": 3.7126588484,
				"y": -1.698224388,
				"z": -2.1624179446,
				"element": "C" 
			},
			{
				"x": 4.0867481202,
				"y": -2.0021096005,
				"z": -0.8503260245,
				"element": "C" 
			},
			{
				"x": 3.3247750927,
				"y": -1.526266515,
				"z": 0.2192853327,
				"element": "C" 
			},
			{
				"x": 2.1927292664,
				"y": -0.7494163127,
				"z": -0.0179235017,
				"element": "C" 
			},
			{
				"x": -2.4591568413,
				"y": 2.3965882282,
				"z": 0.2697854208,
				"element": "H" 
			},
			{
				"x": -1.4579662431,
				"y": 1.8994895369,
				"z": -4.5265556219,
				"element": "H" 
			},
			{
				"x": 2.2848376597,
				"y": -0.6816802383,
				"z": -3.4213015919,
				"element": "H" 
			},
			{
				"x": 4.3033485843,
				"y": -2.0669598664,
				"z": -2.9958927681,
				"element": "H" 
			},
			{
				"x": 4.9689771,
				"y": -2.6075844058,
				"z": -0.6631153759,
				"element": "H" 
			},
			{
				"x": 3.6130645903,
				"y": -1.7608174013,
				"z": 1.2397853908,
				"element": "H" 
			},
			{
				"x": 1.5914190956,
				"y": -0.3729342501,
				"z": 0.80234639,
				"element": "H" 
			}
		],
		 "valence_orbital": [ 
			{
				"type": "occ",
				"energy": -0.3095,
				"method": "rhf"
			},
			{
				"type": "occ",
				"energy": -0.29587,
				"method": "rhf"
			},
			{
				"type": "occ",
				"energy": -0.25911,
				"method": "rhf"
			},
			{
				"type": "occ",
				"energy": -0.25407,
				"method": "rhf"
			},
			{
				"type": "occ",
				"energy": -0.24278,
				"method": "rhf"
			},
			{
				"type": "unocc",
				"energy": -0.0713,
				"method": "rhf"
			},
			{
				"type": "unocc",
				"energy": -0.04712,
				"method": "rhf"
			},
			{
				"type": "unocc",
				"energy": -0.01758,
				"method": "rhf"
			},
			{
				"type": "unocc",
				"energy": -0.00537,
				"method": "rhf"
			},
			{
				"type": "unocc",
				"energy": 0.0206,
				"method": "rhf"
			}
		],
		"cosmo_sigma_profile": { 
			"-0.025": 0.0,
			"-0.024": 0.0,
			"-0.023": 0.0,
			"-0.022": 0.0,
			"-0.021": 0.0,
			"-0.02": 0.0,
			"-0.019": 0.0,
			"-0.018": 0.0,
			"-0.017": 0.0,
			"-0.016": 0.0,
			"-0.015": 0.0,
			"-0.014": 0.0,
			"-0.013": 0.0,
			"-0.012": 0.691980639898,
			"-0.011": 1.87533928688,
			"-0.01": 2.65463907798,
			"-0.009": 3.0131286867,
			"-0.008": 2.96300627554,
			"-0.007": 4.64804315756,
			"-0.006": 12.6784328318,
			"-0.005": 16.3964710178,
			"-0.004": 17.9879355534,
			"-0.003": 15.880492532,
			"-0.002": 18.5983206546,
			"-0.001": 16.6821793818,
			"0.0": 16.4261785646,
			"0.001": 17.9758180249,
			"0.002": 20.3110656612,
			"0.003": 22.959065224,
			"0.004": 22.7450033583,
			"0.005": 10.2916974904,
			"0.006": 4.52706692648,
			"0.007": 2.93585388989,
			"0.008": 3.12957953233,
			"0.009": 3.98978106859,
			"0.01": 2.4772209352,
			"0.011": 2.60342085466,
			"0.012": 1.88466706431,
			"0.013": 1.08458327729,
			"0.014": 0.030753661941,
			"0.015": 0.0,
			"0.016": 0.0,
			"0.017": 0.0,
			"0.018": 0.0,
			"0.019": 0.0,
			"0.02": 0.0,
			"0.021": 0.0,
			"0.022": 0.0,
			"0.023": 0.0,
			"0.024": 0.0,
			"0.025": 0.0
		}
	}
}
