{
	 "smiles": "OC(=O)CCNC(=O)C1=CC=C(F)C=C1", 
	 "Tm": 407.15, 
	 "num_atms": 25, 
	 "gaussian": { 
		 "optdone": 1, 
		 "sigma_profile": "yes", 
		 "theory": "DFT", 
		 "functional": "B3LYP", 
		 "basiset": "6-31G**", 
		 "properties": { 
			 "R2extent": 4622.9162, 
			 "electric_dipole_moment_norm": 5.71349735101, 
			 "electric_quadrupole_moment_norm": 22.0177478633, 
			 "total_energy": -767.36965855, 
			 "HOMO_LUMO_gap": 0.20687, 
			 "cosmo_polarized_energy": -22.36, 
			 "cosmo_cavitation_energy": 30.64, 
			 "cosmo_dispersion_energy": -21.43, 
			 "cosmo_repulsion_energy": 1.68, 
			 "cosmo_total_nonelectrostatic_energy": 10.9, 
			 "SMD_solvation_energy": 6.69 
		},
		"coords": [
			{
				"x": -0.4921875576,
				"y": 4.1709109608,
				"z": -3.0434596666,
				"element": "O" 
			},
			{
				"x": -0.7623670271,
				"y": 3.4238272587,
				"z": -1.945253424,
				"element": "C" 
			},
			{
				"x": -1.8215145278,
				"y": 3.5456144757,
				"z": -1.3771998851,
				"element": "O" 
			},
			{
				"x": 0.3358632248,
				"y": 2.4609962009,
				"z": -1.509531208,
				"element": "C" 
			},
			{
				"x": -0.021442427,
				"y": 1.7012873655,
				"z": -0.2212380859,
				"element": "C" 
			},
			{
				"x": -1.1934910134,
				"y": 0.8484118696,
				"z": -0.3636797966,
				"element": "N" 
			},
			{
				"x": -1.2183797852,
				"y": -0.4706833904,
				"z": -0.7676496395,
				"element": "C" 
			},
			{
				"x": -2.176797946,
				"y": -0.9263028047,
				"z": -1.3828551191,
				"element": "O" 
			},
			{
				"x": -0.0680968712,
				"y": -1.3593778067,
				"z": -0.3825022532,
				"element": "C" 
			},
			{
				"x": 0.5635800307,
				"y": -1.2945729582,
				"z": 0.8682240863,
				"element": "C" 
			},
			{
				"x": 1.5690855777,
				"y": -2.1999188887,
				"z": 1.2066732112,
				"element": "C" 
			},
			{
				"x": 1.9361114489,
				"y": -3.1656634345,
				"z": 0.2759717658,
				"element": "C" 
			},
			{
				"x": 2.9144890774,
				"y": -4.0367353846,
				"z": 0.591984304,
				"element": "F" 
			},
			{
				"x": 1.3178272072,
				"y": -3.2683264489,
				"z": -0.9669404374,
				"element": "C" 
			},
			{
				"x": 0.3038525099,
				"y": -2.368622037,
				"z": -1.2825456822,
				"element": "C" 
			},
			{
				"x": 0.3882154848,
				"y": 3.9625235368,
				"z": -3.3876937319,
				"element": "H" 
			},
			{
				"x": 1.2633135805,
				"y": 3.0311437305,
				"z": -1.3590777623,
				"element": "H" 
			},
			{
				"x": 0.5294767867,
				"y": 1.7525209758,
				"z": -2.3260596584,
				"element": "H" 
			},
			{
				"x": 0.8341074448,
				"y": 1.0946458617,
				"z": 0.0746898447,
				"element": "H" 
			},
			{
				"x": -0.2088573504,
				"y": 2.4254734116,
				"z": 0.5782107707,
				"element": "H" 
			},
			{
				"x": -2.0293654962,
				"y": 1.3515454564,
				"z": -0.6444771268,
				"element": "H" 
			},
			{
				"x": 0.2467955903,
				"y": -0.554359506,
				"z": 1.5963299597,
				"element": "H" 
			},
			{
				"x": 2.0583026717,
				"y": -2.1745344654,
				"z": 2.1742814883,
				"element": "H" 
			},
			{
				"x": 1.6257657783,
				"y": -4.0477672256,
				"z": -1.6554161575,
				"element": "H" 
			},
			{
				"x": -0.2232864117,
				"y": -2.4418367533,
				"z": -2.2278857962,
				"element": "H" 
			}
		],
		 "valence_orbital": [ 
			{
				"type": "occ",
				"energy": -0.29023,
				"method": "rhf"
			},
			{
				"type": "occ",
				"energy": -0.27183,
				"method": "rhf"
			},
			{
				"type": "occ",
				"energy": -0.26498,
				"method": "rhf"
			},
			{
				"type": "occ",
				"energy": -0.2555,
				"method": "rhf"
			},
			{
				"type": "occ",
				"energy": -0.24105,
				"method": "rhf"
			},
			{
				"type": "unocc",
				"energy": -0.03418,
				"method": "rhf"
			},
			{
				"type": "unocc",
				"energy": -0.02167,
				"method": "rhf"
			},
			{
				"type": "unocc",
				"energy": -0.0074,
				"method": "rhf"
			},
			{
				"type": "unocc",
				"energy": 0.03879,
				"method": "rhf"
			},
			{
				"type": "unocc",
				"energy": 0.05065,
				"method": "rhf"
			}
		],
		"cosmo_sigma_profile": { 
			"-0.025": 0.0,
			"-0.024": 0.0,
			"-0.023": 0.0,
			"-0.022": 0.0,
			"-0.021": 0.0,
			"-0.02": 0.116568018444,
			"-0.019": 0.857388189855,
			"-0.018": 1.384518892,
			"-0.017": 1.06597015037,
			"-0.016": 0.99715522559,
			"-0.015": 1.02228671449,
			"-0.014": 1.22722065879,
			"-0.013": 1.10674094227,
			"-0.012": 1.00051065917,
			"-0.011": 1.28145013763,
			"-0.01": 1.1585168142,
			"-0.009": 2.25683913649,
			"-0.008": 4.74942554488,
			"-0.007": 11.38350113,
			"-0.006": 15.4385433373,
			"-0.005": 19.1958544396,
			"-0.004": 16.6827792967,
			"-0.003": 13.7539941515,
			"-0.002": 12.1325516867,
			"-0.001": 11.0723739767,
			"0.0": 14.3906294396,
			"0.001": 15.796750316,
			"0.002": 16.5516963796,
			"0.003": 15.0464395018,
			"0.004": 15.0398942425,
			"0.005": 5.68097463248,
			"0.006": 3.8903824765,
			"0.007": 4.11016087481,
			"0.008": 4.09210958829,
			"0.009": 5.05126844538,
			"0.01": 6.04042937046,
			"0.011": 5.80777719684,
			"0.012": 4.52204498133,
			"0.013": 5.77214756172,
			"0.014": 3.95673962246,
			"0.015": 0.315985241658,
			"0.016": 0.0,
			"0.017": 0.0,
			"0.018": 0.0,
			"0.019": 0.0,
			"0.02": 0.0,
			"0.021": 0.0,
			"0.022": 0.0,
			"0.023": 0.0,
			"0.024": 0.0,
			"0.025": 0.0
		}
	}
}
