{
	 "smiles": "CC(C)CC1CC(CC(=O)N1)C(O)=O", 
	 "Tm": 462.15, 
	 "num_atms": 31, 
	 "gaussian": { 
		 "optdone": 1, 
		 "sigma_profile": "yes", 
		 "theory": "DFT", 
		 "functional": "B3LYP", 
		 "basiset": "6-31G**", 
		 "properties": { 
			 "R2extent": 4609.5372, 
			 "electric_dipole_moment_norm": 4.9910399768, 
			 "electric_quadrupole_moment_norm": 21.749194194, 
			 "total_energy": -671.780859448, 
			 "HOMO_LUMO_gap": 0.23227, 
			 "cosmo_polarized_energy": -18.14, 
			 "cosmo_cavitation_energy": 32.22, 
			 "cosmo_dispersion_energy": -22.46, 
			 "cosmo_repulsion_energy": 1.79, 
			 "cosmo_total_nonelectrostatic_energy": 11.55, 
			 "SMD_solvation_energy": 6.55 
		},
		"coords": [
			{
				"x": -2.8295674153,
				"y": -1.1328046188,
				"z": 0.4008107371,
				"element": "C" 
			},
			{
				"x": -1.4762029929,
				"y": -0.5521772747,
				"z": -0.040139714,
				"element": "C" 
			},
			{
				"x": -1.6939051351,
				"y": 0.7665003136,
				"z": -0.8013246929,
				"element": "C" 
			},
			{
				"x": -0.6777057382,
				"y": -1.5869382207,
				"z": -0.8740026164,
				"element": "C" 
			},
			{
				"x": 0.8406003287,
				"y": -1.6681711778,
				"z": -0.6148528275,
				"element": "C" 
			},
			{
				"x": 1.6031463891,
				"y": -0.3625892581,
				"z": -0.8629439001,
				"element": "C" 
			},
			{
				"x": 3.0927942025,
				"y": -0.4992385664,
				"z": -0.470603372,
				"element": "C" 
			},
			{
				"x": 3.209353127,
				"y": -0.8772333354,
				"z": 1.0119853589,
				"element": "C" 
			},
			{
				"x": 2.2321402842,
				"y": -1.9454139675,
				"z": 1.4963541132,
				"element": "C" 
			},
			{
				"x": 2.4212080422,
				"y": -2.5575157521,
				"z": 2.5376722903,
				"element": "O" 
			},
			{
				"x": 1.0858736933,
				"y": -2.1178895163,
				"z": 0.758648592,
				"element": "N" 
			},
			{
				"x": 3.7759974541,
				"y": -1.5248818694,
				"z": -1.3596020156,
				"element": "C" 
			},
			{
				"x": 4.0097300074,
				"y": -1.0318997883,
				"z": -2.6013938338,
				"element": "O" 
			},
			{
				"x": 4.0667085309,
				"y": -2.6578753064,
				"z": -1.0438528109,
				"element": "O" 
			},
			{
				"x": -2.6984901076,
				"y": -2.030273286,
				"z": 1.0150278613,
				"element": "H" 
			},
			{
				"x": -3.440384915,
				"y": -1.409390445,
				"z": -0.4675101493,
				"element": "H" 
			},
			{
				"x": -3.400298944,
				"y": -0.4058959707,
				"z": 0.9886149876,
				"element": "H" 
			},
			{
				"x": -0.8987476529,
				"y": -0.3387118532,
				"z": 0.8695630501,
				"element": "H" 
			},
			{
				"x": -2.3127154961,
				"y": 0.5997741322,
				"z": -1.6916754741,
				"element": "H" 
			},
			{
				"x": -0.7545415736,
				"y": 1.2171356987,
				"z": -1.1351436405,
				"element": "H" 
			},
			{
				"x": -2.2097608621,
				"y": 1.5013744638,
				"z": -0.1738393845,
				"element": "H" 
			},
			{
				"x": -0.8310722146,
				"y": -1.4062427537,
				"z": -1.9459457774,
				"element": "H" 
			},
			{
				"x": -1.0796448532,
				"y": -2.5924254059,
				"z": -0.687803164,
				"element": "H" 
			},
			{
				"x": 1.2347974178,
				"y": -2.4233130302,
				"z": -1.3145907751,
				"element": "H" 
			},
			{
				"x": 1.5092426551,
				"y": -0.0788237426,
				"z": -1.9154929013,
				"element": "H" 
			},
			{
				"x": 1.1715584966,
				"y": 0.4424328732,
				"z": -0.2594378416,
				"element": "H" 
			},
			{
				"x": 3.5869772165,
				"y": 0.4609672462,
				"z": -0.6558104963,
				"element": "H" 
			},
			{
				"x": 3.0217005995,
				"y": 0.0140704164,
				"z": 1.6231650633,
				"element": "H" 
			},
			{
				"x": 4.2105056911,
				"y": -1.2316311238,
				"z": 1.2639351709,
				"element": "H" 
			},
			{
				"x": 0.5203816118,
				"y": -2.8868018509,
				"z": 1.0996160033,
				"element": "H" 
			},
			{
				"x": 4.4196221527,
				"y": -1.7541170301,
				"z": -3.1071278408,
				"element": "H" 
			}
		],
		 "valence_orbital": [ 
			{
				"type": "occ",
				"energy": -0.32392,
				"method": "rhf"
			},
			{
				"type": "occ",
				"energy": -0.32365,
				"method": "rhf"
			},
			{
				"type": "occ",
				"energy": -0.28146,
				"method": "rhf"
			},
			{
				"type": "occ",
				"energy": -0.24518,
				"method": "rhf"
			},
			{
				"type": "occ",
				"energy": -0.23582,
				"method": "rhf"
			},
			{
				"type": "unocc",
				"energy": -0.00355,
				"method": "rhf"
			},
			{
				"type": "unocc",
				"energy": 0.03416,
				"method": "rhf"
			},
			{
				"type": "unocc",
				"energy": 0.06484,
				"method": "rhf"
			},
			{
				"type": "unocc",
				"energy": 0.0745,
				"method": "rhf"
			},
			{
				"type": "unocc",
				"energy": 0.09126,
				"method": "rhf"
			}
		],
		"cosmo_sigma_profile": { 
			"-0.025": 0.0,
			"-0.024": 0.0,
			"-0.023": 0.0,
			"-0.022": 0.0,
			"-0.021": 0.0,
			"-0.02": 0.0,
			"-0.019": 0.00978002948864,
			"-0.018": 0.788718266745,
			"-0.017": 0.755673506332,
			"-0.016": 1.3224311753,
			"-0.015": 0.602009642663,
			"-0.014": 0.361298796181,
			"-0.013": 1.02642931699,
			"-0.012": 1.58359244779,
			"-0.011": 1.67875463185,
			"-0.01": 1.95965182557,
			"-0.009": 2.0422520352,
			"-0.008": 1.47730301624,
			"-0.007": 2.47720566277,
			"-0.006": 9.18790119958,
			"-0.005": 14.1560106604,
			"-0.004": 18.5726415577,
			"-0.003": 24.3115543816,
			"-0.002": 29.976107178,
			"-0.001": 25.2416540107,
			"0.0": 22.745654318,
			"0.001": 20.2933969113,
			"0.002": 12.8121322861,
			"0.003": 5.53523385129,
			"0.004": 4.41124962211,
			"0.005": 4.11377252272,
			"0.006": 4.29568833922,
			"0.007": 4.00287177325,
			"0.008": 3.9295205414,
			"0.009": 4.32313841157,
			"0.01": 3.54008975501,
			"0.011": 5.67627611086,
			"0.012": 4.18031580025,
			"0.013": 2.35973008393,
			"0.014": 6.16300800197,
			"0.015": 3.05844755412,
			"0.016": 0.178033738835,
			"0.017": 0.0,
			"0.018": 0.0,
			"0.019": 0.0,
			"0.02": 0.0,
			"0.021": 0.0,
			"0.022": 0.0,
			"0.023": 0.0,
			"0.024": 0.0,
			"0.025": 0.0
		}
	}
}
