{
	 "smiles": "CC(C)C1=CC=C(C=C1)C1=CC=CC=C1", 
	 "Tm": 284.15, 
	 "num_atms": 31, 
	 "gaussian": { 
		 "optdone": 1, 
		 "sigma_profile": "yes", 
		 "theory": "DFT", 
		 "functional": "B3LYP", 
		 "basiset": "6-31G**", 
		 "properties": { 
			 "R2extent": 5246.4747, 
			 "electric_dipole_moment_norm": 0.407099864898, 
			 "electric_quadrupole_moment_norm": 6.56931280957, 
			 "total_energy": -581.262578704, 
			 "HOMO_LUMO_gap": 0.19343, 
			 "cosmo_polarized_energy": -5.17, 
			 "cosmo_cavitation_energy": 33.47, 
			 "cosmo_dispersion_energy": -23.98, 
			 "cosmo_repulsion_energy": 1.87, 
			 "cosmo_total_nonelectrostatic_energy": 11.36, 
			 "SMD_solvation_energy": 5.52 
		},
		"coords": [
			{
				"x": 1.1843229442,
				"y": -2.232629784,
				"z": -2.2874671435,
				"element": "C" 
			},
			{
				"x": 0.0612665914,
				"y": -2.34366397,
				"z": -1.2387360126,
				"element": "C" 
			},
			{
				"x": 0.2044640216,
				"y": -3.6344999143,
				"z": -0.4102022421,
				"element": "C" 
			},
			{
				"x": -0.0120093168,
				"y": -1.1068536881,
				"z": -0.3538492939,
				"element": "C" 
			},
			{
				"x": -1.151808722,
				"y": -0.2936017662,
				"z": -0.3482334662,
				"element": "C" 
			},
			{
				"x": -1.2318030941,
				"y": 0.8414027262,
				"z": 0.4573474402,
				"element": "C" 
			},
			{
				"x": -0.1673545025,
				"y": 1.2114732457,
				"z": 1.2939808567,
				"element": "C" 
			},
			{
				"x": 0.9775898817,
				"y": 0.3960597193,
				"z": 1.2884856946,
				"element": "C" 
			},
			{
				"x": 1.0517022431,
				"y": -0.7370236077,
				"z": 0.4829547397,
				"element": "C" 
			},
			{
				"x": -0.246945047,
				"y": 2.4197655617,
				"z": 2.1535770674,
				"element": "C" 
			},
			{
				"x": 0.3045980412,
				"y": 2.4253687667,
				"z": 3.4464903338,
				"element": "C" 
			},
			{
				"x": 0.2307606261,
				"y": 3.5599542358,
				"z": 4.2534072325,
				"element": "C" 
			},
			{
				"x": -0.3989617211,
				"y": 4.7154908013,
				"z": 3.7870172632,
				"element": "C" 
			},
			{
				"x": -0.9527713928,
				"y": 4.7252946432,
				"z": 2.5053837881,
				"element": "C" 
			},
			{
				"x": -0.8762892465,
				"y": 3.5911981712,
				"z": 1.6980551473,
				"element": "C" 
			},
			{
				"x": 1.0647178833,
				"y": -1.3354745687,
				"z": -2.902707595,
				"element": "H" 
			},
			{
				"x": 1.1821859528,
				"y": -3.1047271145,
				"z": -2.9506365742,
				"element": "H" 
			},
			{
				"x": 2.169384354,
				"y": -2.1807278894,
				"z": -1.8107343355,
				"element": "H" 
			},
			{
				"x": -0.8908946707,
				"y": -2.4057216605,
				"z": -1.7821779132,
				"element": "H" 
			},
			{
				"x": -0.6127450002,
				"y": -3.7354003024,
				"z": 0.3107044866,
				"element": "H" 
			},
			{
				"x": 1.146036437,
				"y": -3.6446666893,
				"z": 0.1498781638,
				"element": "H" 
			},
			{
				"x": 0.1964411242,
				"y": -4.5154051463,
				"z": -1.0615794911,
				"element": "H" 
			},
			{
				"x": -1.9971727466,
				"y": -0.5582732895,
				"z": -0.9793599084,
				"element": "H" 
			},
			{
				"x": -2.1423327534,
				"y": 1.4337003249,
				"z": 0.4563089722,
				"element": "H" 
			},
			{
				"x": 1.8296380997,
				"y": 0.6691181708,
				"z": 1.9044489181,
				"element": "H" 
			},
			{
				"x": 1.9583450319,
				"y": -1.3364163688,
				"z": 0.5013183826,
				"element": "H" 
			},
			{
				"x": 0.7724344781,
				"y": 1.5232969488,
				"z": 3.829878371,
				"element": "H" 
			},
			{
				"x": 0.657886017,
				"y": 3.5379712097,
				"z": 5.2522088404,
				"element": "H" 
			},
			{
				"x": -0.4574288954,
				"y": 5.5992474824,
				"z": 4.4157784853,
				"element": "H" 
			},
			{
				"x": -1.4377095528,
				"y": 5.621636462,
				"z": 2.1286456893,
				"element": "H" 
			},
			{
				"x": -1.2860470652,
				"y": 3.6190072899,
				"z": 0.6926141027,
				"element": "H" 
			}
		],
		 "valence_orbital": [ 
			{
				"type": "occ",
				"energy": -0.31849,
				"method": "rhf"
			},
			{
				"type": "occ",
				"energy": -0.26528,
				"method": "rhf"
			},
			{
				"type": "occ",
				"energy": -0.24742,
				"method": "rhf"
			},
			{
				"type": "occ",
				"energy": -0.24634,
				"method": "rhf"
			},
			{
				"type": "occ",
				"energy": -0.21662,
				"method": "rhf"
			},
			{
				"type": "unocc",
				"energy": -0.02319,
				"method": "rhf"
			},
			{
				"type": "unocc",
				"energy": -0.0009,
				"method": "rhf"
			},
			{
				"type": "unocc",
				"energy": 0.00322,
				"method": "rhf"
			},
			{
				"type": "unocc",
				"energy": 0.03324,
				"method": "rhf"
			},
			{
				"type": "unocc",
				"energy": 0.0897,
				"method": "rhf"
			}
		],
		"cosmo_sigma_profile": { 
			"-0.025": 0.0,
			"-0.024": 0.0,
			"-0.023": 0.0,
			"-0.022": 0.0,
			"-0.021": 0.0,
			"-0.02": 0.0,
			"-0.019": 0.0,
			"-0.018": 0.0,
			"-0.017": 0.0,
			"-0.016": 0.0,
			"-0.015": 0.0,
			"-0.014": 0.0,
			"-0.013": 0.0,
			"-0.012": 0.0,
			"-0.011": 0.0,
			"-0.01": 0.0,
			"-0.009": 0.0,
			"-0.008": 0.0,
			"-0.007": 0.0,
			"-0.006": 3.38420705145,
			"-0.005": 17.6957862902,
			"-0.004": 23.4807788478,
			"-0.003": 28.2809564056,
			"-0.002": 27.4116820897,
			"-0.001": 27.0770153051,
			"0.0": 24.717742884,
			"0.001": 26.1085216818,
			"0.002": 20.434209208,
			"0.003": 16.4789137827,
			"0.004": 16.2748726203,
			"0.005": 16.6790894732,
			"0.006": 15.7604051701,
			"0.007": 1.11468736214,
			"0.008": 0.0,
			"0.009": 0.0,
			"0.01": 0.0,
			"0.011": 0.0,
			"0.012": 0.0,
			"0.013": 0.0,
			"0.014": 0.0,
			"0.015": 0.0,
			"0.016": 0.0,
			"0.017": 0.0,
			"0.018": 0.0,
			"0.019": 0.0,
			"0.02": 0.0,
			"0.021": 0.0,
			"0.022": 0.0,
			"0.023": 0.0,
			"0.024": 0.0,
			"0.025": 0.0
		}
	}
}
