{
	 "smiles": "COC1=CC=C(CN2CCN(CC2)C(=O)CCNC(=O)C2=CC=C(C=C2)C(C)(C)C)C=C1", 
	 "Tm": 376.15, 
	 "num_atms": 67, 
	 "gaussian": { 
		 "optdone": 1, 
		 "sigma_profile": "yes", 
		 "theory": "DFT", 
		 "functional": "B3LYP", 
		 "basiset": "6-31G**", 
		 "properties": { 
			 "R2extent": 29565.9941, 
			 "electric_dipole_moment_norm": 5.10590725043, 
			 "electric_quadrupole_moment_norm": 33.1218617745, 
			 "total_energy": -1401.81251038, 
			 "HOMO_LUMO_gap": 0.16121, 
			 "cosmo_polarized_energy": -23.22, 
			 "cosmo_cavitation_energy": 66.31, 
			 "cosmo_dispersion_energy": -45.55, 
			 "cosmo_repulsion_energy": 3.4, 
			 "cosmo_total_nonelectrostatic_energy": 24.16, 
			 "SMD_solvation_energy": 8.89 
		},
		"coords": [
			{
				"x": 0.7443192266,
				"y": -4.7540585932,
				"z": -6.8608794325,
				"element": "C" 
			},
			{
				"x": -0.4610907033,
				"y": -4.0611984905,
				"z": -7.139644532,
				"element": "O" 
			},
			{
				"x": -0.5947725845,
				"y": -2.785394985,
				"z": -6.6709795482,
				"element": "C" 
			},
			{
				"x": 0.3763427689,
				"y": -2.1000210278,
				"z": -5.9337139433,
				"element": "C" 
			},
			{
				"x": 0.1219675822,
				"y": -0.7914791814,
				"z": -5.5096043759,
				"element": "C" 
			},
			{
				"x": -1.0816172387,
				"y": -0.1408214823,
				"z": -5.7970083875,
				"element": "C" 
			},
			{
				"x": -1.3600006163,
				"y": 1.2691955543,
				"z": -5.2941134263,
				"element": "C" 
			},
			{
				"x": -2.1191416732,
				"y": 1.3910840673,
				"z": -4.0464234232,
				"element": "N" 
			},
			{
				"x": -1.4148670107,
				"y": 0.9040514282,
				"z": -2.8566080795,
				"element": "C" 
			},
			{
				"x": -2.393189214,
				"y": 0.5827950574,
				"z": -1.7122746368,
				"element": "C" 
			},
			{
				"x": -3.5135938298,
				"y": 1.5200129256,
				"z": -1.6868072186,
				"element": "N" 
			},
			{
				"x": -4.2692827652,
				"y": 1.6582344791,
				"z": -2.9402220687,
				"element": "C" 
			},
			{
				"x": -3.5171010152,
				"y": 0.9870744325,
				"z": -4.0944378505,
				"element": "C" 
			},
			{
				"x": -3.9724017034,
				"y": 2.2281423466,
				"z": -0.6088304246,
				"element": "C" 
			},
			{
				"x": -4.9594857347,
				"y": 2.9576304521,
				"z": -0.7014365571,
				"element": "O" 
			},
			{
				"x": -3.2010823605,
				"y": 2.1276995727,
				"z": 0.7056117832,
				"element": "C" 
			},
			{
				"x": -1.9608011378,
				"y": 3.0465170269,
				"z": 0.7062445547,
				"element": "C" 
			},
			{
				"x": -1.1139314963,
				"y": 2.8692932217,
				"z": 1.8778995355,
				"element": "N" 
			},
			{
				"x": -0.2873430715,
				"y": 1.7830379703,
				"z": 1.9777310836,
				"element": "C" 
			},
			{
				"x": -0.1954077823,
				"y": 0.9531718764,
				"z": 1.069950277,
				"element": "O" 
			},
			{
				"x": 0.5056930147,
				"y": 1.6551039356,
				"z": 3.2437097242,
				"element": "C" 
			},
			{
				"x": 1.0222382753,
				"y": 0.3931369102,
				"z": 3.5670268159,
				"element": "C" 
			},
			{
				"x": 1.7629370493,
				"y": 0.2085139602,
				"z": 4.7277259177,
				"element": "C" 
			},
			{
				"x": 2.0334324242,
				"y": 1.2717288688,
				"z": 5.6094057882,
				"element": "C" 
			},
			{
				"x": 1.5285846624,
				"y": 2.5331929592,
				"z": 5.2645686906,
				"element": "C" 
			},
			{
				"x": 0.7783107384,
				"y": 2.7247968735,
				"z": 4.1030949111,
				"element": "C" 
			},
			{
				"x": 2.8594090946,
				"y": 1.0220846927,
				"z": 6.8836396123,
				"element": "C" 
			},
			{
				"x": 2.1374391076,
				"y": -0.0263564842,
				"z": 7.7638738696,
				"element": "C" 
			},
			{
				"x": 4.2579458236,
				"y": 0.487574785,
				"z": 6.4918316911,
				"element": "C" 
			},
			{
				"x": 3.0501727873,
				"y": 2.302017205,
				"z": 7.7193265488,
				"element": "C" 
			},
			{
				"x": -2.0367237701,
				"y": -0.8467945997,
				"z": -6.5494148453,
				"element": "C" 
			},
			{
				"x": -1.8051701852,
				"y": -2.146232253,
				"z": -6.9807371216,
				"element": "C" 
			},
			{
				"x": 0.638534921,
				"y": -5.7399161767,
				"z": -7.3165167755,
				"element": "H" 
			},
			{
				"x": 1.6146495288,
				"y": -4.2471472176,
				"z": -7.2978138425,
				"element": "H" 
			},
			{
				"x": 0.9048426999,
				"y": -4.8716429985,
				"z": -5.7812157003,
				"element": "H" 
			},
			{
				"x": 1.3251679287,
				"y": -2.5636796107,
				"z": -5.6906090965,
				"element": "H" 
			},
			{
				"x": 0.892794477,
				"y": -0.2653021319,
				"z": -4.9511240692,
				"element": "H" 
			},
			{
				"x": -0.4059216503,
				"y": 1.7905033541,
				"z": -5.1431926837,
				"element": "H" 
			},
			{
				"x": -1.9080643636,
				"y": 1.8290344217,
				"z": -6.0621913743,
				"element": "H" 
			},
			{
				"x": -0.6965068831,
				"y": 1.6716677966,
				"z": -2.5354692834,
				"element": "H" 
			},
			{
				"x": -0.838336525,
				"y": -0.0151204681,
				"z": -3.0530133233,
				"element": "H" 
			},
			{
				"x": -2.7805298495,
				"y": -0.4379122676,
				"z": -1.8383771884,
				"element": "H" 
			},
			{
				"x": -1.8438401657,
				"y": 0.6045253135,
				"z": -0.7715384528,
				"element": "H" 
			},
			{
				"x": -4.3970162297,
				"y": 2.724847911,
				"z": -3.143522197,
				"element": "H" 
			},
			{
				"x": -5.2734970503,
				"y": 1.2278422301,
				"z": -2.8280813566,
				"element": "H" 
			},
			{
				"x": -3.9524797179,
				"y": 1.3414737442,
				"z": -5.0352383615,
				"element": "H" 
			},
			{
				"x": -3.6653692382,
				"y": -0.1081978478,
				"z": -4.0777172235,
				"element": "H" 
			},
			{
				"x": -3.8957557985,
				"y": 2.4430359377,
				"z": 1.487659315,
				"element": "H" 
			},
			{
				"x": -2.8832957669,
				"y": 1.1050158004,
				"z": 0.9215060258,
				"element": "H" 
			},
			{
				"x": -2.2737070253,
				"y": 4.093396492,
				"z": 0.6601136212,
				"element": "H" 
			},
			{
				"x": -1.3434551223,
				"y": 2.8458089816,
				"z": -0.1722452811,
				"element": "H" 
			},
			{
				"x": -1.3390337504,
				"y": 3.3830076877,
				"z": 2.7162166387,
				"element": "H" 
			},
			{
				"x": 0.8299517467,
				"y": -0.4311888015,
				"z": 2.8885169009,
				"element": "H" 
			},
			{
				"x": 2.1401268531,
				"y": -0.7851825536,
				"z": 4.9502384374,
				"element": "H" 
			},
			{
				"x": 1.7233728879,
				"y": 3.3907545086,
				"z": 5.8978330497,
				"element": "H" 
			},
			{
				"x": 0.4405291574,
				"y": 3.728560042,
				"z": 3.8595326459,
				"element": "H" 
			},
			{
				"x": 2.0082050902,
				"y": -0.9786065696,
				"z": 7.2412908406,
				"element": "H" 
			},
			{
				"x": 1.1455204003,
				"y": 0.3283357819,
				"z": 8.062541183,
				"element": "H" 
			},
			{
				"x": 2.7164730286,
				"y": -0.2214680302,
				"z": 8.6734060898,
				"element": "H" 
			},
			{
				"x": 4.1943907199,
				"y": -0.4492408029,
				"z": 5.9306827664,
				"element": "H" 
			},
			{
				"x": 4.7952247165,
				"y": 1.2126075453,
				"z": 5.8717992106,
				"element": "H" 
			},
			{
				"x": 4.8568785842,
				"y": 0.2981132646,
				"z": 7.3896203597,
				"element": "H" 
			},
			{
				"x": 3.5871239422,
				"y": 3.0771598615,
				"z": 7.1626929012,
				"element": "H" 
			},
			{
				"x": 2.0937866665,
				"y": 2.7185627641,
				"z": 8.0523517202,
				"element": "H" 
			},
			{
				"x": 3.6382640335,
				"y": 2.0729152624,
				"z": 8.61372489,
				"element": "H" 
			},
			{
				"x": -2.9748199946,
				"y": -0.3642439551,
				"z": -6.8127823693,
				"element": "H" 
			},
			{
				"x": -2.5409969137,
				"y": -2.6878527735,
				"z": -7.5664829492,
				"element": "H" 
			}
		],
		 "valence_orbital": [ 
			{
				"type": "occ",
				"energy": -0.2476,
				"method": "rhf"
			},
			{
				"type": "occ",
				"energy": -0.22838,
				"method": "rhf"
			},
			{
				"type": "occ",
				"energy": -0.22287,
				"method": "rhf"
			},
			{
				"type": "occ",
				"energy": -0.21621,
				"method": "rhf"
			},
			{
				"type": "occ",
				"energy": -0.19867,
				"method": "rhf"
			},
			{
				"type": "unocc",
				"energy": -0.03746,
				"method": "rhf"
			},
			{
				"type": "unocc",
				"energy": -0.00953,
				"method": "rhf"
			},
			{
				"type": "unocc",
				"energy": -0.00136,
				"method": "rhf"
			},
			{
				"type": "unocc",
				"energy": 0.01106,
				"method": "rhf"
			},
			{
				"type": "unocc",
				"energy": 0.0365,
				"method": "rhf"
			}
		],
		"cosmo_sigma_profile": { 
			"-0.025": 0.0,
			"-0.024": 0.0,
			"-0.023": 0.0,
			"-0.022": 0.0,
			"-0.021": 0.0,
			"-0.02": 0.0,
			"-0.019": 0.0,
			"-0.018": 0.0,
			"-0.017": 0.0,
			"-0.016": 0.0,
			"-0.015": 0.0749247994318,
			"-0.014": 1.04131174315,
			"-0.013": 1.00653579522,
			"-0.012": 1.3579428309,
			"-0.011": 1.6145699558,
			"-0.01": 1.07897427734,
			"-0.009": 1.8345439414,
			"-0.008": 1.85184488324,
			"-0.007": 2.24628182765,
			"-0.006": 10.9249539191,
			"-0.005": 34.5903339518,
			"-0.004": 48.7369229589,
			"-0.003": 67.1366255393,
			"-0.002": 60.3004959144,
			"-0.001": 50.6434235417,
			"0.0": 39.1726100583,
			"0.001": 42.9555617274,
			"0.002": 27.7956696179,
			"0.003": 21.6835666938,
			"0.004": 25.4545911629,
			"0.005": 21.7615523794,
			"0.006": 12.5105014256,
			"0.007": 6.33608515428,
			"0.008": 4.60306252058,
			"0.009": 3.99364500441,
			"0.01": 5.84757165193,
			"0.011": 3.91093200522,
			"0.012": 3.67388901307,
			"0.013": 4.08103449353,
			"0.014": 6.52533489977,
			"0.015": 4.05415474221,
			"0.016": 0.42008997649,
			"0.017": 0.0,
			"0.018": 0.0,
			"0.019": 0.0,
			"0.02": 0.0,
			"0.021": 0.0,
			"0.022": 0.0,
			"0.023": 0.0,
			"0.024": 0.0,
			"0.025": 0.0
		}
	}
}
