{
	 "smiles": "BrC1=CC(CN2C(=O)CCCC2=O)=CC=C1", 
	 "Tm": 350.15, 
	 "num_atms": 28, 
	 "gaussian": { 
		 "optdone": 1, 
		 "sigma_profile": "yes", 
		 "theory": "DFT", 
		 "functional": "B3LYP", 
		 "basiset": "6-31G**", 
		 "properties": { 
			 "R2extent": 6211.8384, 
			 "electric_dipole_moment_norm": 3.83772746427, 
			 "electric_quadrupole_moment_norm": 15.8000071962, 
			 "total_energy": -3241.15334611, 
			 "HOMO_LUMO_gap": 0.20534, 
			 "cosmo_polarized_energy": -12.09, 
			 "cosmo_cavitation_energy": 33.32, 
			 "cosmo_dispersion_energy": -24.28, 
			 "cosmo_repulsion_energy": 1.91, 
			 "cosmo_total_nonelectrostatic_energy": 10.95, 
			 "SMD_solvation_energy": 4.92 
		},
		"coords": [
			{
				"x": 2.7152721039,
				"y": -1.9592783533,
				"z": -2.7939070276,
				"element": "Br" 
			},
			{
				"x": 2.0408735224,
				"y": -0.2812296274,
				"z": -2.1643185008,
				"element": "C" 
			},
			{
				"x": 2.0884405395,
				"y": 0.0026482342,
				"z": -0.8017340791,
				"element": "C" 
			},
			{
				"x": 1.5987763056,
				"y": 1.2310671248,
				"z": -0.3372336282,
				"element": "C" 
			},
			{
				"x": 1.6483681636,
				"y": 1.5553975623,
				"z": 1.1436853802,
				"element": "C" 
			},
			{
				"x": 0.4418072895,
				"y": 1.1065452144,
				"z": 1.8797022363,
				"element": "N" 
			},
			{
				"x": 0.4664801296,
				"y": -0.1849918846,
				"z": 2.4347949451,
				"element": "C" 
			},
			{
				"x": 1.4494900405,
				"y": -0.8955902587,
				"z": 2.3144670086,
				"element": "O" 
			},
			{
				"x": -0.763334666,
				"y": -0.635542339,
				"z": 3.2037843343,
				"element": "C" 
			},
			{
				"x": -2.0488880282,
				"y": 0.0352968044,
				"z": 2.7225501161,
				"element": "C" 
			},
			{
				"x": -1.8604124182,
				"y": 1.5513821914,
				"z": 2.7394188248,
				"element": "C" 
			},
			{
				"x": -0.6332146042,
				"y": 2.007186003,
				"z": 1.9690895802,
				"element": "C" 
			},
			{
				"x": -0.5623749854,
				"y": 3.1141319078,
				"z": 1.4631007462,
				"element": "O" 
			},
			{
				"x": 1.0668376876,
				"y": 2.1507031993,
				"z": -1.250229497,
				"element": "C" 
			},
			{
				"x": 1.0284281739,
				"y": 1.8477491584,
				"z": -2.6114559878,
				"element": "C" 
			},
			{
				"x": 1.5168041414,
				"y": 0.627727542,
				"z": -3.0817868845,
				"element": "C" 
			},
			{
				"x": 2.4906117401,
				"y": -0.7197850833,
				"z": -0.1008133037,
				"element": "H" 
			},
			{
				"x": 2.4979513931,
				"y": 1.0617214594,
				"z": 1.614250145,
				"element": "H" 
			},
			{
				"x": 1.718545662,
				"y": 2.6324171697,
				"z": 1.2925668615,
				"element": "H" 
			},
			{
				"x": -0.7967197717,
				"y": -1.7244731515,
				"z": 3.1261576686,
				"element": "H" 
			},
			{
				"x": -0.5869952164,
				"y": -0.3984754779,
				"z": 4.2625163234,
				"element": "H" 
			},
			{
				"x": -2.2856555142,
				"y": -0.2995917517,
				"z": 1.7056202418,
				"element": "H" 
			},
			{
				"x": -2.8924453924,
				"y": -0.2532347118,
				"z": 3.3567536946,
				"element": "H" 
			},
			{
				"x": -1.7424686821,
				"y": 1.9056870266,
				"z": 3.7732431444,
				"element": "H" 
			},
			{
				"x": -2.7109868647,
				"y": 2.0908000087,
				"z": 2.3168902349,
				"element": "H" 
			},
			{
				"x": 0.6768905682,
				"y": 3.0951907667,
				"z": -0.884831955,
				"element": "H" 
			},
			{
				"x": 0.6181540911,
				"y": 2.5654512565,
				"z": -3.3159838285,
				"element": "H" 
			},
			{
				"x": 1.4931645916,
				"y": 0.3865900099,
				"z": -4.138396794,
				"element": "H" 
			}
		],
		 "valence_orbital": [ 
			{
				"type": "occ",
				"energy": -0.28199,
				"method": "rhf"
			},
			{
				"type": "occ",
				"energy": -0.27723,
				"method": "rhf"
			},
			{
				"type": "occ",
				"energy": -0.2656,
				"method": "rhf"
			},
			{
				"type": "occ",
				"energy": -0.25497,
				"method": "rhf"
			},
			{
				"type": "occ",
				"energy": -0.23771,
				"method": "rhf"
			},
			{
				"type": "unocc",
				"energy": -0.03237,
				"method": "rhf"
			},
			{
				"type": "unocc",
				"energy": -0.01522,
				"method": "rhf"
			},
			{
				"type": "unocc",
				"energy": -0.00986,
				"method": "rhf"
			},
			{
				"type": "unocc",
				"energy": 0.01076,
				"method": "rhf"
			},
			{
				"type": "unocc",
				"energy": 0.02279,
				"method": "rhf"
			}
		],
		"cosmo_sigma_profile": { 
			"-0.025": 0.0,
			"-0.024": 0.0,
			"-0.023": 0.0,
			"-0.022": 0.0,
			"-0.021": 0.0,
			"-0.02": 0.0,
			"-0.019": 0.0,
			"-0.018": 0.0,
			"-0.017": 0.0,
			"-0.016": 0.0,
			"-0.015": 0.0,
			"-0.014": 0.0,
			"-0.013": 0.0,
			"-0.012": 0.0,
			"-0.011": 0.0,
			"-0.01": 0.0,
			"-0.009": 0.0279460484048,
			"-0.008": 1.64234358356,
			"-0.007": 8.21748993062,
			"-0.006": 14.2355374365,
			"-0.005": 22.3733446659,
			"-0.004": 28.507367476,
			"-0.003": 27.8552674655,
			"-0.002": 21.2061945115,
			"-0.001": 15.0852471653,
			"0.0": 12.8533109164,
			"0.001": 14.7386760252,
			"0.002": 20.0752302149,
			"0.003": 22.2147781331,
			"0.004": 20.7983834483,
			"0.005": 11.8138182704,
			"0.006": 2.83364987318,
			"0.007": 2.81727077262,
			"0.008": 2.80866452125,
			"0.009": 2.57342333035,
			"0.01": 2.98681727736,
			"0.011": 4.5086905304,
			"0.012": 5.19872463039,
			"0.013": 2.49587615202,
			"0.014": 0.133241568961,
			"0.015": 0.0,
			"0.016": 0.0,
			"0.017": 0.0,
			"0.018": 0.0,
			"0.019": 0.0,
			"0.02": 0.0,
			"0.021": 0.0,
			"0.022": 0.0,
			"0.023": 0.0,
			"0.024": 0.0,
			"0.025": 0.0
		}
	}
}
