{
	 "smiles": "CN1C(=O)C(C2=NNC(=O)C2=N/NC2=CC=C(Cl)C=C2)=C(O)C2=CC=CC=C12", 
	 "Tm": 513.15, 
	 "num_atms": 42, 
	 "gaussian": { 
		 "optdone": 1, 
		 "sigma_profile": "yes", 
		 "theory": "DFT", 
		 "functional": "B3LYP", 
		 "basiset": "6-31G**", 
		 "properties": { 
			 "R2extent": 15481.6759, 
			 "electric_dipole_moment_norm": 5.794776975, 
			 "electric_quadrupole_moment_norm": 29.2084827059, 
			 "total_energy": -1692.05362008, 
			 "HOMO_LUMO_gap": 0.12437, 
			 "cosmo_polarized_energy": -27.4, 
			 "cosmo_cavitation_energy": 49.36, 
			 "cosmo_dispersion_energy": -35.12, 
			 "cosmo_repulsion_energy": 2.62, 
			 "cosmo_total_nonelectrostatic_energy": 16.86, 
			 "SMD_solvation_energy": 7.59 
		},
		"coords": [
			{
				"x": -1.5524175102,
				"y": 3.1191611411,
				"z": -0.6448104833,
				"element": "C" 
			},
			{
				"x": -0.1417230617,
				"y": 2.7363134291,
				"z": -0.596190244,
				"element": "N" 
			},
			{
				"x": 0.1547864637,
				"y": 1.3749759404,
				"z": -0.8386962544,
				"element": "C" 
			},
			{
				"x": -0.7447344373,
				"y": 0.5758429317,
				"z": -1.0867865705,
				"element": "O" 
			},
			{
				"x": 1.5626544933,
				"y": 0.9901220706,
				"z": -0.7603567665,
				"element": "C" 
			},
			{
				"x": 1.8714488524,
				"y": -0.4381598317,
				"z": -0.9509213872,
				"element": "C" 
			},
			{
				"x": 2.6765709986,
				"y": -0.8520614045,
				"z": -1.8958850163,
				"element": "N" 
			},
			{
				"x": 2.7595155065,
				"y": -2.23218882,
				"z": -1.7806989863,
				"element": "N" 
			},
			{
				"x": 2.0029590243,
				"y": -2.757662444,
				"z": -0.7676100927,
				"element": "C" 
			},
			{
				"x": 1.8787920943,
				"y": -3.9443791778,
				"z": -0.4297821795,
				"element": "O" 
			},
			{
				"x": 1.3863536209,
				"y": -1.5595952631,
				"z": -0.1657762088,
				"element": "C" 
			},
			{
				"x": 0.5998317507,
				"y": -1.5279824309,
				"z": 0.8811610538,
				"element": "N" 
			},
			{
				"x": 0.3067166698,
				"y": -2.6817792481,
				"z": 1.4414467466,
				"element": "N" 
			},
			{
				"x": -0.5346065626,
				"y": -2.7577899877,
				"z": 2.5564872515,
				"element": "C" 
			},
			{
				"x": -0.7555910821,
				"y": -4.0143772987,
				"z": 3.1373693701,
				"element": "C" 
			},
			{
				"x": -1.5855440311,
				"y": -4.1358269604,
				"z": 4.248416118,
				"element": "C" 
			},
			{
				"x": -2.1927369029,
				"y": -2.9973826121,
				"z": 4.7771696004,
				"element": "C" 
			},
			{
				"x": -3.2397149904,
				"y": -3.1441537601,
				"z": 6.1809755843,
				"element": "Cl" 
			},
			{
				"x": -1.9806140921,
				"y": -1.741958254,
				"z": 4.2033420026,
				"element": "C" 
			},
			{
				"x": -1.1533884668,
				"y": -1.6190882603,
				"z": 3.0922064426,
				"element": "C" 
			},
			{
				"x": 2.5355984017,
				"y": 1.9176623191,
				"z": -0.5071993748,
				"element": "C" 
			},
			{
				"x": 3.8226436578,
				"y": 1.508644028,
				"z": -0.4113415923,
				"element": "O" 
			},
			{
				"x": 2.2026734153,
				"y": 3.3188251817,
				"z": -0.3375249812,
				"element": "C" 
			},
			{
				"x": 3.1805862931,
				"y": 4.3142467281,
				"z": -0.1534724379,
				"element": "C" 
			},
			{
				"x": 2.8369298393,
				"y": 5.6435371,
				"z": 0.035589097,
				"element": "C" 
			},
			{
				"x": 1.4835811036,
				"y": 6.002447423,
				"z": 0.034728313,
				"element": "C" 
			},
			{
				"x": 0.495557468,
				"y": 5.0490401104,
				"z": -0.1676669073,
				"element": "C" 
			},
			{
				"x": 0.8322057105,
				"y": 3.6938720331,
				"z": -0.3672321713,
				"element": "C" 
			},
			{
				"x": -2.1188431964,
				"y": 2.2130120919,
				"z": -0.8477371241,
				"element": "H" 
			},
			{
				"x": -1.8699643853,
				"y": 3.546990475,
				"z": 0.3112910089,
				"element": "H" 
			},
			{
				"x": -1.7303154906,
				"y": 3.8478370272,
				"z": -1.4420362198,
				"element": "H" 
			},
			{
				"x": 3.318581426,
				"y": -2.7469898191,
				"z": -2.4427644848,
				"element": "H" 
			},
			{
				"x": 0.7099229832,
				"y": -3.5326232307,
				"z": 1.0267086732,
				"element": "H" 
			},
			{
				"x": -0.2770431164,
				"y": -4.8964805528,
				"z": 2.7211349083,
				"element": "H" 
			},
			{
				"x": -1.7582940225,
				"y": -5.1059934341,
				"z": 4.7003851169,
				"element": "H" 
			},
			{
				"x": -2.4643745033,
				"y": -0.8668482414,
				"z": 4.6229463028,
				"element": "H" 
			},
			{
				"x": -0.9838451079,
				"y": -0.6557346683,
				"z": 2.6272351292,
				"element": "H" 
			},
			{
				"x": 4.3563511669,
				"y": 2.2011850166,
				"z": -0.0019554523,
				"element": "H" 
			},
			{
				"x": 4.2361164285,
				"y": 4.0549484872,
				"z": -0.1877851161,
				"element": "H" 
			},
			{
				"x": 3.6077471968,
				"y": 6.3943832731,
				"z": 0.1729203507,
				"element": "H" 
			},
			{
				"x": 1.1964486935,
				"y": 7.0390379641,
				"z": 0.183769861,
				"element": "H" 
			},
			{
				"x": -0.5419222988,
				"y": 5.3561709285,
				"z": -0.1762528794,
				"element": "H" 
			}
		],
		 "valence_orbital": [ 
			{
				"type": "occ",
				"energy": -0.25527,
				"method": "rhf"
			},
			{
				"type": "occ",
				"energy": -0.24594,
				"method": "rhf"
			},
			{
				"type": "occ",
				"energy": -0.23509,
				"method": "rhf"
			},
			{
				"type": "occ",
				"energy": -0.21971,
				"method": "rhf"
			},
			{
				"type": "occ",
				"energy": -0.20684,
				"method": "rhf"
			},
			{
				"type": "unocc",
				"energy": -0.08247,
				"method": "rhf"
			},
			{
				"type": "unocc",
				"energy": -0.05785,
				"method": "rhf"
			},
			{
				"type": "unocc",
				"energy": -0.01787,
				"method": "rhf"
			},
			{
				"type": "unocc",
				"energy": -0.01736,
				"method": "rhf"
			},
			{
				"type": "unocc",
				"energy": 0.00506,
				"method": "rhf"
			}
		],
		"cosmo_sigma_profile": { 
			"-0.025": 0.0,
			"-0.024": 0.0,
			"-0.023": 0.0,
			"-0.022": 0.0,
			"-0.021": 0.0,
			"-0.02": 0.0,
			"-0.019": 0.242037155537,
			"-0.018": 1.16862423117,
			"-0.017": 0.937592182952,
			"-0.016": 2.20125523638,
			"-0.015": 2.36198257806,
			"-0.014": 1.9169467655,
			"-0.013": 1.75814866821,
			"-0.012": 2.81854171928,
			"-0.011": 2.98639434124,
			"-0.01": 3.8838193337,
			"-0.009": 2.48789929025,
			"-0.008": 5.25823966457,
			"-0.007": 13.2212057505,
			"-0.006": 22.749717005,
			"-0.005": 21.8811691975,
			"-0.004": 21.2662462749,
			"-0.003": 20.3233710794,
			"-0.002": 24.8435108144,
			"-0.001": 29.3376451663,
			"0.0": 29.8750137362,
			"0.001": 32.187778121,
			"0.002": 35.3967107245,
			"0.003": 30.2853391838,
			"0.004": 23.8735345411,
			"0.005": 12.7927963932,
			"0.006": 6.90332237622,
			"0.007": 5.39260188021,
			"0.008": 5.40494534848,
			"0.009": 4.81755361648,
			"0.01": 5.59339143148,
			"0.011": 6.47102647421,
			"0.012": 7.08659457484,
			"0.013": 7.77098423231,
			"0.014": 3.83614323644,
			"0.015": 0.354450115693,
			"0.016": 0.0,
			"0.017": 0.0,
			"0.018": 0.0,
			"0.019": 0.0,
			"0.02": 0.0,
			"0.021": 0.0,
			"0.022": 0.0,
			"0.023": 0.0,
			"0.024": 0.0,
			"0.025": 0.0
		}
	}
}
