{
	 "smiles": "NC1=NNC2=C1C=C(C=C2)C(F)(F)F", 
	 "Tm": 408.15, 
	 "num_atms": 20, 
	 "gaussian": { 
		 "optdone": 1, 
		 "sigma_profile": "yes", 
		 "theory": "DFT", 
		 "functional": "B3LYP", 
		 "basiset": "6-31G**", 
		 "properties": { 
			 "R2extent": 3367.6604, 
			 "electric_dipole_moment_norm": 2.78575179081, 
			 "electric_quadrupole_moment_norm": 16.7046750187, 
			 "total_energy": -772.239566439, 
			 "HOMO_LUMO_gap": 0.1721, 
			 "cosmo_polarized_energy": -12.91, 
			 "cosmo_cavitation_energy": 26.07, 
			 "cosmo_dispersion_energy": -18.96, 
			 "cosmo_repulsion_energy": 1.43, 
			 "cosmo_total_nonelectrostatic_energy": 8.54, 
			 "SMD_solvation_energy": 4.35 
		},
		"coords": [
			{
				"x": -1.9251680765,
				"y": 1.1476570592,
				"z": -2.2681708457,
				"element": "N" 
			},
			{
				"x": -0.7052864941,
				"y": 0.8425865061,
				"z": -1.6754126532,
				"element": "C" 
			},
			{
				"x": 0.4437693692,
				"y": 1.1882440189,
				"z": -2.2272117619,
				"element": "N" 
			},
			{
				"x": 1.4204251397,
				"y": 0.6513717809,
				"z": -1.4213047038,
				"element": "N" 
			},
			{
				"x": 0.9090791551,
				"y": -0.0113259404,
				"z": -0.3506159829,
				"element": "C" 
			},
			{
				"x": -0.5014087282,
				"y": 0.0770666338,
				"z": -0.4743489329,
				"element": "C" 
			},
			{
				"x": -1.3308766791,
				"y": -0.5321155534,
				"z": 0.4766538811,
				"element": "C" 
			},
			{
				"x": -0.7347762419,
				"y": -1.2024930864,
				"z": 1.5350456956,
				"element": "C" 
			},
			{
				"x": 0.6765648761,
				"y": -1.2773124637,
				"z": 1.653265506,
				"element": "C" 
			},
			{
				"x": 1.5139449995,
				"y": -0.6920296448,
				"z": 0.7217638884,
				"element": "C" 
			},
			{
				"x": -1.5665147639,
				"y": -1.8780511635,
				"z": 2.5854384938,
				"element": "C" 
			},
			{
				"x": -1.2961515755,
				"y": -1.3973549095,
				"z": 3.823959023,
				"element": "F" 
			},
			{
				"x": -1.3260496046,
				"y": -3.2107163235,
				"z": 2.637509514,
				"element": "F" 
			},
			{
				"x": -2.8919363556,
				"y": -1.7190208061,
				"z": 2.3756940654,
				"element": "F" 
			},
			{
				"x": -1.8237005849,
				"y": 1.8124045894,
				"z": -3.0258304734,
				"element": "H" 
			},
			{
				"x": -2.6377871348,
				"y": 1.4441083682,
				"z": -1.6130129254,
				"element": "H" 
			},
			{
				"x": 2.3843800596,
				"y": 0.7986793386,
				"z": -1.6686088468,
				"element": "H" 
			},
			{
				"x": -2.4112936921,
				"y": -0.4938596659,
				"z": 0.3932604088,
				"element": "H" 
			},
			{
				"x": 1.1039065237,
				"y": -1.8102554758,
				"z": 2.4966840194,
				"element": "H" 
			},
			{
				"x": 2.5928798082,
				"y": -0.7578832623,
				"z": 0.8186426305,
				"element": "H" 
			}
		],
		 "valence_orbital": [ 
			{
				"type": "occ",
				"energy": -0.33974,
				"method": "rhf"
			},
			{
				"type": "occ",
				"energy": -0.29804,
				"method": "rhf"
			},
			{
				"type": "occ",
				"energy": -0.27257,
				"method": "rhf"
			},
			{
				"type": "occ",
				"energy": -0.25054,
				"method": "rhf"
			},
			{
				"type": "occ",
				"energy": -0.20713,
				"method": "rhf"
			},
			{
				"type": "unocc",
				"energy": -0.03503,
				"method": "rhf"
			},
			{
				"type": "unocc",
				"energy": -0.00512,
				"method": "rhf"
			},
			{
				"type": "unocc",
				"energy": 0.0616,
				"method": "rhf"
			},
			{
				"type": "unocc",
				"energy": 0.07272,
				"method": "rhf"
			},
			{
				"type": "unocc",
				"energy": 0.08628,
				"method": "rhf"
			}
		],
		"cosmo_sigma_profile": { 
			"-0.025": 0.0,
			"-0.024": 0.0,
			"-0.023": 0.0,
			"-0.022": 0.0,
			"-0.021": 0.0,
			"-0.02": 0.0,
			"-0.019": 0.0,
			"-0.018": 0.0,
			"-0.017": 0.0666950464544,
			"-0.016": 1.32269526226,
			"-0.015": 1.39416766198,
			"-0.014": 0.666450578271,
			"-0.013": 2.33229630535,
			"-0.012": 3.83915878719,
			"-0.011": 3.63863420019,
			"-0.01": 3.69129407024,
			"-0.009": 3.9758434889,
			"-0.008": 5.39550179859,
			"-0.007": 7.63840319911,
			"-0.006": 6.10652071792,
			"-0.005": 7.38120976138,
			"-0.004": 6.42949910382,
			"-0.003": 5.64749768666,
			"-0.002": 7.05652912783,
			"-0.001": 10.1208432786,
			"0.0": 10.0701731466,
			"0.001": 11.3465224164,
			"0.002": 26.8056031147,
			"0.003": 46.5413447443,
			"0.004": 14.5516320311,
			"0.005": 2.90594260622,
			"0.006": 3.48024082382,
			"0.007": 2.38688991469,
			"0.008": 1.63323093771,
			"0.009": 1.84675810875,
			"0.01": 2.0054996576,
			"0.011": 2.01804730673,
			"0.012": 1.60202353877,
			"0.013": 1.93686814884,
			"0.014": 1.37043674955,
			"0.015": 1.10922528368,
			"0.016": 0.42931206369,
			"0.017": 0.0,
			"0.018": 0.0,
			"0.019": 0.0,
			"0.02": 0.0,
			"0.021": 0.0,
			"0.022": 0.0,
			"0.023": 0.0,
			"0.024": 0.0,
			"0.025": 0.0
		}
	}
}
