{
	 "smiles": "O=C(C1=CC=CC=C1)C1=CC=C(C=C1)C#N", 
	 "Tm": 385.15, 
	 "num_atms": 25, 
	 "gaussian": { 
		 "optdone": 1, 
		 "sigma_profile": "yes", 
		 "theory": "DFT", 
		 "functional": "B3LYP", 
		 "basiset": "6-31G**", 
		 "properties": { 
			 "R2extent": 4979.9816, 
			 "electric_dipole_moment_norm": 4.70238952236, 
			 "electric_quadrupole_moment_norm": 18.4217357426, 
			 "total_energy": -668.873483122, 
			 "HOMO_LUMO_gap": 0.17089, 
			 "cosmo_polarized_energy": -12.72, 
			 "cosmo_cavitation_energy": 31.13, 
			 "cosmo_dispersion_energy": -21.9, 
			 "cosmo_repulsion_energy": 1.69, 
			 "cosmo_total_nonelectrostatic_energy": 10.91, 
			 "SMD_solvation_energy": 7.12 
		},
		"coords": [
			{
				"x": -1.5020769355,
				"y": -2.8562281498,
				"z": -1.4802460181,
				"element": "O" 
			},
			{
				"x": -0.9366382435,
				"y": -1.8328099726,
				"z": -1.1133277878,
				"element": "C" 
			},
			{
				"x": -0.3506934017,
				"y": -0.890642704,
				"z": -2.1185867154,
				"element": "C" 
			},
			{
				"x": 0.0081861295,
				"y": -1.415365281,
				"z": -3.3714214773,
				"element": "C" 
			},
			{
				"x": 0.5171206471,
				"y": -0.5839546784,
				"z": -4.3639280108,
				"element": "C" 
			},
			{
				"x": 0.6500054884,
				"y": 0.7880520546,
				"z": -4.1269502527,
				"element": "C" 
			},
			{
				"x": 0.2713716957,
				"y": 1.3235709516,
				"z": -2.8948711206,
				"element": "C" 
			},
			{
				"x": -0.2214780633,
				"y": 0.4888897284,
				"z": -1.8912418606,
				"element": "C" 
			},
			{
				"x": -0.8374803911,
				"y": -1.5426977572,
				"z": 0.3609834865,
				"element": "C" 
			},
			{
				"x": 0.2414995639,
				"y": -0.8529381974,
				"z": 0.9344912367,
				"element": "C" 
			},
			{
				"x": 0.317073523,
				"y": -0.6796283791,
				"z": 2.3137432945,
				"element": "C" 
			},
			{
				"x": -0.6994864517,
				"y": -1.1879573991,
				"z": 3.1381306297,
				"element": "C" 
			},
			{
				"x": -1.7796109758,
				"y": -1.8888567093,
				"z": 2.5708955474,
				"element": "C" 
			},
			{
				"x": -1.834347311,
				"y": -2.072475015,
				"z": 1.1960748823,
				"element": "C" 
			},
			{
				"x": -0.6325458296,
				"y": -0.9974347208,
				"z": 4.5582342086,
				"element": "C" 
			},
			{
				"x": -0.5785512901,
				"y": -0.8408147422,
				"z": 5.7095860149,
				"element": "N" 
			},
			{
				"x": -0.1226168327,
				"y": -2.4786729288,
				"z": -3.5422757025,
				"element": "H" 
			},
			{
				"x": 0.8052567258,
				"y": -1.0003575937,
				"z": -5.3246376069,
				"element": "H" 
			},
			{
				"x": 1.0416133553,
				"y": 1.4382171663,
				"z": -4.9040096008,
				"element": "H" 
			},
			{
				"x": 0.3557863235,
				"y": 2.3912477782,
				"z": -2.7153720258,
				"element": "H" 
			},
			{
				"x": -0.5317826636,
				"y": 0.9156878556,
				"z": -0.943290465,
				"element": "H" 
			},
			{
				"x": 1.0373364114,
				"y": -0.4698852299,
				"z": 0.3054116002,
				"element": "H" 
			},
			{
				"x": 1.1571551469,
				"y": -0.156594712,
				"z": 2.7579498561,
				"element": "H" 
			},
			{
				"x": -2.5579086166,
				"y": -2.285791962,
				"z": 3.2138554764,
				"element": "H" 
			},
			{
				"x": -2.6453880043,
				"y": -2.6316594024,
				"z": 0.7425024109,
				"element": "H" 
			}
		],
		 "valence_orbital": [ 
			{
				"type": "occ",
				"energy": -0.28438,
				"method": "rhf"
			},
			{
				"type": "occ",
				"energy": -0.27675,
				"method": "rhf"
			},
			{
				"type": "occ",
				"energy": -0.27168,
				"method": "rhf"
			},
			{
				"type": "occ",
				"energy": -0.26986,
				"method": "rhf"
			},
			{
				"type": "occ",
				"energy": -0.25895,
				"method": "rhf"
			},
			{
				"type": "unocc",
				"energy": -0.08806,
				"method": "rhf"
			},
			{
				"type": "unocc",
				"energy": -0.04399,
				"method": "rhf"
			},
			{
				"type": "unocc",
				"energy": -0.03283,
				"method": "rhf"
			},
			{
				"type": "unocc",
				"energy": -0.01834,
				"method": "rhf"
			},
			{
				"type": "unocc",
				"energy": 0.02486,
				"method": "rhf"
			}
		],
		"cosmo_sigma_profile": { 
			"-0.025": 0.0,
			"-0.024": 0.0,
			"-0.023": 0.0,
			"-0.022": 0.0,
			"-0.021": 0.0,
			"-0.02": 0.0,
			"-0.019": 0.0,
			"-0.018": 0.0,
			"-0.017": 0.0,
			"-0.016": 0.0,
			"-0.015": 0.0,
			"-0.014": 0.0,
			"-0.013": 0.0,
			"-0.012": 0.0,
			"-0.011": 0.0,
			"-0.01": 0.0,
			"-0.009": 0.822906732044,
			"-0.008": 5.11916162273,
			"-0.007": 9.71304648484,
			"-0.006": 18.3489338087,
			"-0.005": 18.8273542766,
			"-0.004": 20.9847420373,
			"-0.003": 16.6157789555,
			"-0.002": 19.6373517792,
			"-0.001": 17.6128515954,
			"0.0": 19.434771399,
			"0.001": 21.7854203553,
			"0.002": 13.580553517,
			"0.003": 14.7182572654,
			"0.004": 13.324057272,
			"0.005": 5.40480828842,
			"0.006": 4.33244484824,
			"0.007": 4.11737705231,
			"0.008": 5.47769831974,
			"0.009": 5.34699630823,
			"0.01": 5.17372555054,
			"0.011": 6.31770749126,
			"0.012": 4.80126398576,
			"0.013": 0.825751818601,
			"0.014": 0.0,
			"0.015": 0.0,
			"0.016": 0.0,
			"0.017": 0.0,
			"0.018": 0.0,
			"0.019": 0.0,
			"0.02": 0.0,
			"0.021": 0.0,
			"0.022": 0.0,
			"0.023": 0.0,
			"0.024": 0.0,
			"0.025": 0.0
		}
	}
}
