{
	 "smiles": "OC(=O)C1CCCCN1CC#C", 
	 "Tm": 451.15, 
	 "num_atms": 25, 
	 "gaussian": { 
		 "optdone": 1, 
		 "sigma_profile": "yes", 
		 "theory": "DFT", 
		 "functional": "B3LYP", 
		 "basiset": "6-31G**", 
		 "properties": { 
			 "R2extent": 2057.8602, 
			 "electric_dipole_moment_norm": 3.17637388542, 
			 "electric_quadrupole_moment_norm": 12.5290246017, 
			 "total_energy": -555.918037725, 
			 "HOMO_LUMO_gap": 0.221, 
			 "cosmo_polarized_energy": -14.7, 
			 "cosmo_cavitation_energy": 27.24, 
			 "cosmo_dispersion_energy": -19.13, 
			 "cosmo_repulsion_energy": 1.53, 
			 "cosmo_total_nonelectrostatic_energy": 9.64, 
			 "SMD_solvation_energy": 4.26 
		},
		"coords": [
			{
				"x": -2.3107138491,
				"y": 1.066543203,
				"z": -0.8475536047,
				"element": "O" 
			},
			{
				"x": -1.342146166,
				"y": 0.2126926848,
				"z": -0.4122445031,
				"element": "C" 
			},
			{
				"x": -1.6126224041,
				"y": -0.9491983753,
				"z": -0.2256207504,
				"element": "O" 
			},
			{
				"x": 0.0490533264,
				"y": 0.8526500202,
				"z": -0.2020256353,
				"element": "C" 
			},
			{
				"x": 0.6811064527,
				"y": 1.2347362301,
				"z": -1.5620716212,
				"element": "C" 
			},
			{
				"x": 1.1664563342,
				"y": -0.0038787217,
				"z": -2.3247901827,
				"element": "C" 
			},
			{
				"x": 2.12452917,
				"y": -0.8140856928,
				"z": -1.4434714971,
				"element": "C" 
			},
			{
				"x": 1.4701955265,
				"y": -1.1674390897,
				"z": -0.1050332144,
				"element": "C" 
			},
			{
				"x": 0.9813659356,
				"y": 0.0443197467,
				"z": 0.5720224039,
				"element": "N" 
			},
			{
				"x": 0.5450497865,
				"y": -0.227390621,
				"z": 1.9481401567,
				"element": "C" 
			},
			{
				"x": 0.311860511,
				"y": 0.9963101762,
				"z": 2.7229867303,
				"element": "C" 
			},
			{
				"x": 0.0983347652,
				"y": 1.9921061389,
				"z": 3.3723476492,
				"element": "C" 
			},
			{
				"x": -1.9602592168,
				"y": 1.9667398052,
				"z": -0.9090733681,
				"element": "H" 
			},
			{
				"x": -0.1201195767,
				"y": 1.775593143,
				"z": 0.3701088525,
				"element": "H" 
			},
			{
				"x": -0.0353731581,
				"y": 1.8061620853,
				"z": -2.1641964661,
				"element": "H" 
			},
			{
				"x": 1.5302167646,
				"y": 1.8950844873,
				"z": -1.3534090951,
				"element": "H" 
			},
			{
				"x": 1.6581440025,
				"y": 0.2998409896,
				"z": -3.2557705931,
				"element": "H" 
			},
			{
				"x": 0.3079341399,
				"y": -0.6269730377,
				"z": -2.6080986261,
				"element": "H" 
			},
			{
				"x": 2.4311211134,
				"y": -1.7360727727,
				"z": -1.9502539026,
				"element": "H" 
			},
			{
				"x": 3.0316721779,
				"y": -0.2259199064,
				"z": -1.2554935707,
				"element": "H" 
			},
			{
				"x": 0.6656197676,
				"y": -1.9016726742,
				"z": -0.2611419216,
				"element": "H" 
			},
			{
				"x": 2.2132702595,
				"y": -1.6299421892,
				"z": 0.5554698339,
				"element": "H" 
			},
			{
				"x": 1.3439003534,
				"y": -0.8015427541,
				"z": 2.4343055625,
				"element": "H" 
			},
			{
				"x": -0.3612980203,
				"y": -0.8552369101,
				"z": 1.985434343,
				"element": "H" 
			},
			{
				"x": -0.0772979957,
				"y": 2.8670740346,
				"z": 3.9543330202,
				"element": "H" 
			}
		],
		 "valence_orbital": [ 
			{
				"type": "occ",
				"energy": -0.31434,
				"method": "rhf"
			},
			{
				"type": "occ",
				"energy": -0.28076,
				"method": "rhf"
			},
			{
				"type": "occ",
				"energy": -0.27366,
				"method": "rhf"
			},
			{
				"type": "occ",
				"energy": -0.2681,
				"method": "rhf"
			},
			{
				"type": "occ",
				"energy": -0.21591,
				"method": "rhf"
			},
			{
				"type": "unocc",
				"energy": 0.00509,
				"method": "rhf"
			},
			{
				"type": "unocc",
				"energy": 0.03766,
				"method": "rhf"
			},
			{
				"type": "unocc",
				"energy": 0.04921,
				"method": "rhf"
			},
			{
				"type": "unocc",
				"energy": 0.05704,
				"method": "rhf"
			},
			{
				"type": "unocc",
				"energy": 0.09882,
				"method": "rhf"
			}
		],
		"cosmo_sigma_profile": { 
			"-0.025": 0.0,
			"-0.024": 0.0,
			"-0.023": 0.0,
			"-0.022": 0.0,
			"-0.021": 0.0,
			"-0.02": 0.00948577883762,
			"-0.019": 0.39444013267,
			"-0.018": 0.821197313027,
			"-0.017": 1.00486314322,
			"-0.016": 0.747209664036,
			"-0.015": 0.838673694506,
			"-0.014": 1.17657864714,
			"-0.013": 1.50391421543,
			"-0.012": 2.00872214984,
			"-0.011": 2.16866017818,
			"-0.01": 2.30418126464,
			"-0.009": 1.4763986529,
			"-0.008": 2.8198681794,
			"-0.007": 3.42383283117,
			"-0.006": 5.33664956647,
			"-0.005": 5.99293452501,
			"-0.004": 10.9217543679,
			"-0.003": 20.9846495074,
			"-0.002": 23.9497079667,
			"-0.001": 27.0314248307,
			"0.0": 18.5095750026,
			"0.001": 10.7362312295,
			"0.002": 6.81317252975,
			"0.003": 7.70608718127,
			"0.004": 7.35451336568,
			"0.005": 6.5807605669,
			"0.006": 8.65572952593,
			"0.007": 8.12112833883,
			"0.008": 3.6920888733,
			"0.009": 4.35390460982,
			"0.01": 4.76222086496,
			"0.011": 5.41484911838,
			"0.012": 3.95117805797,
			"0.013": 1.8327917046,
			"0.014": 0.331905488355,
			"0.015": 0.0,
			"0.016": 0.0,
			"0.017": 0.0,
			"0.018": 0.0,
			"0.019": 0.0,
			"0.02": 0.0,
			"0.021": 0.0,
			"0.022": 0.0,
			"0.023": 0.0,
			"0.024": 0.0,
			"0.025": 0.0
		}
	}
}
