{
	 "smiles": "CC(C)(C)C1=C(SC=N1)C(O)=O", 
	 "Tm": 459.15, 
	 "num_atms": 23, 
	 "gaussian": { 
		 "optdone": 1, 
		 "sigma_profile": "yes", 
		 "theory": "DFT", 
		 "functional": "B3LYP", 
		 "basiset": "6-31G**", 
		 "properties": { 
			 "R2extent": 2729.5372, 
			 "electric_dipole_moment_norm": 3.78386664934, 
			 "electric_quadrupole_moment_norm": 17.8086013979, 
			 "total_energy": -914.867258639, 
			 "HOMO_LUMO_gap": 0.19731, 
			 "cosmo_polarized_energy": -12.4, 
			 "cosmo_cavitation_energy": 26.65, 
			 "cosmo_dispersion_energy": -19.83, 
			 "cosmo_repulsion_energy": 1.52, 
			 "cosmo_total_nonelectrostatic_energy": 8.33, 
			 "SMD_solvation_energy": 4.96 
		},
		"coords": [
			{
				"x": -0.3750589039,
				"y": -2.3572338991,
				"z": 1.0007033417,
				"element": "C" 
			},
			{
				"x": -0.3649340119,
				"y": -1.0386021479,
				"z": 0.1940153934,
				"element": "C" 
			},
			{
				"x": -1.1337805489,
				"y": 0.0171434976,
				"z": 1.0274213568,
				"element": "C" 
			},
			{
				"x": -1.0821206607,
				"y": -1.309287539,
				"z": -1.1479262996,
				"element": "C" 
			},
			{
				"x": 1.0911254173,
				"y": -0.5833912924,
				"z": -0.0147560179,
				"element": "C" 
			},
			{
				"x": 1.6260905343,
				"y": 0.2874492352,
				"z": -0.9581150537,
				"element": "C" 
			},
			{
				"x": 3.3659517194,
				"y": 0.3466617068,
				"z": -0.8028851536,
				"element": "S" 
			},
			{
				"x": 3.2418640396,
				"y": -0.734410653,
				"z": 0.5356517926,
				"element": "C" 
			},
			{
				"x": 2.0366118734,
				"y": -1.1353171163,
				"z": 0.8254099464,
				"element": "N" 
			},
			{
				"x": 1.0852360339,
				"y": 1.132632451,
				"z": -2.059426404,
				"element": "C" 
			},
			{
				"x": -0.1472486903,
				"y": 1.6736474574,
				"z": -1.8860064563,
				"element": "O" 
			},
			{
				"x": 1.7198601572,
				"y": 1.3825607894,
				"z": -3.0578092832,
				"element": "O" 
			},
			{
				"x": 0.0775665512,
				"y": -2.2335239997,
				"z": 1.985485867,
				"element": "H" 
			},
			{
				"x": 0.178363653,
				"y": -3.1430811304,
				"z": 0.4792276721,
				"element": "H" 
			},
			{
				"x": -1.4100569775,
				"y": -2.6921791159,
				"z": 1.1259610229,
				"element": "H" 
			},
			{
				"x": -0.6254249271,
				"y": 0.2108618005,
				"z": 1.9765227653,
				"element": "H" 
			},
			{
				"x": -1.2533584733,
				"y": 0.9836582297,
				"z": 0.5206360301,
				"element": "H" 
			},
			{
				"x": -2.1442105713,
				"y": -0.3427135521,
				"z": 1.2471420317,
				"element": "H" 
			},
			{
				"x": -0.5461476189,
				"y": -2.071115594,
				"z": -1.7223585769,
				"element": "H" 
			},
			{
				"x": -2.0909632488,
				"y": -1.6868223206,
				"z": -0.9518209314,
				"element": "H" 
			},
			{
				"x": -1.1799390332,
				"y": -0.4232034791,
				"z": -1.7764300145,
				"element": "H" 
			},
			{
				"x": 4.1233397321,
				"y": -1.0498639149,
				"z": 1.0828117322,
				"element": "H" 
			},
			{
				"x": -0.4620660458,
				"y": 1.5042305868,
				"z": -0.9865547612,
				"element": "H" 
			}
		],
		 "valence_orbital": [ 
			{
				"type": "occ",
				"energy": -0.32316,
				"method": "rhf"
			},
			{
				"type": "occ",
				"energy": -0.30494,
				"method": "rhf"
			},
			{
				"type": "occ",
				"energy": -0.29276,
				"method": "rhf"
			},
			{
				"type": "occ",
				"energy": -0.2707,
				"method": "rhf"
			},
			{
				"type": "occ",
				"energy": -0.26145,
				"method": "rhf"
			},
			{
				"type": "unocc",
				"energy": -0.06414,
				"method": "rhf"
			},
			{
				"type": "unocc",
				"energy": -0.00619,
				"method": "rhf"
			},
			{
				"type": "unocc",
				"energy": 0.0124,
				"method": "rhf"
			},
			{
				"type": "unocc",
				"energy": 0.04817,
				"method": "rhf"
			},
			{
				"type": "unocc",
				"energy": 0.0597,
				"method": "rhf"
			}
		],
		"cosmo_sigma_profile": { 
			"-0.025": 0.0,
			"-0.024": 0.0,
			"-0.023": 0.0,
			"-0.022": 0.0,
			"-0.021": 0.0,
			"-0.02": 0.0,
			"-0.019": 0.0,
			"-0.018": 0.0,
			"-0.017": 0.0,
			"-0.016": 0.0855570396809,
			"-0.015": 0.676394195211,
			"-0.014": 1.12246878374,
			"-0.013": 1.27958410624,
			"-0.012": 0.770923674433,
			"-0.011": 2.11123132111,
			"-0.01": 3.65544119224,
			"-0.009": 2.93908768311,
			"-0.008": 3.10147728167,
			"-0.007": 2.7393467683,
			"-0.006": 3.54180203342,
			"-0.005": 3.64905233053,
			"-0.004": 11.1004818046,
			"-0.003": 20.7663657356,
			"-0.002": 24.1422927386,
			"-0.001": 27.2323824864,
			"0.0": 26.2087749197,
			"0.001": 20.3184983626,
			"0.002": 11.1276104549,
			"0.003": 4.22929998978,
			"0.004": 3.79701794264,
			"0.005": 4.6614706004,
			"0.006": 3.55219243578,
			"0.007": 4.28262205549,
			"0.008": 4.02974830702,
			"0.009": 4.55666848386,
			"0.01": 6.33241965386,
			"0.011": 6.70136708309,
			"0.012": 3.49036970942,
			"0.013": 0.490033880637,
			"0.014": 0.0,
			"0.015": 0.0,
			"0.016": 0.0,
			"0.017": 0.0,
			"0.018": 0.0,
			"0.019": 0.0,
			"0.02": 0.0,
			"0.021": 0.0,
			"0.022": 0.0,
			"0.023": 0.0,
			"0.024": 0.0,
			"0.025": 0.0
		}
	}
}
