{
	 "smiles": "CCOC1=CC2=C(OCC(C2)C(O)=O)C=C1", 
	 "Tm": 406.15, 
	 "num_atms": 30, 
	 "gaussian": { 
		 "optdone": 1, 
		 "sigma_profile": "yes", 
		 "theory": "DFT", 
		 "functional": "B3LYP", 
		 "basiset": "6-31G**", 
		 "properties": { 
			 "R2extent": 5063.8259, 
			 "electric_dipole_moment_norm": 4.70143525532, 
			 "electric_quadrupole_moment_norm": 25.0415424713, 
			 "total_energy": -766.613692063, 
			 "HOMO_LUMO_gap": 0.19782, 
			 "cosmo_polarized_energy": -15.13, 
			 "cosmo_cavitation_energy": 32.55, 
			 "cosmo_dispersion_energy": -23.95, 
			 "cosmo_repulsion_energy": 1.88, 
			 "cosmo_total_nonelectrostatic_energy": 10.49, 
			 "SMD_solvation_energy": 6.66 
		},
		"coords": [
			{
				"x": -0.1434370612,
				"y": 3.6709452325,
				"z": 3.4895503265,
				"element": "C" 
			},
			{
				"x": 0.1661334281,
				"y": 2.2870622786,
				"z": 2.9459760965,
				"element": "C" 
			},
			{
				"x": 0.3470241679,
				"y": 2.408691501,
				"z": 1.5361108295,
				"element": "O" 
			},
			{
				"x": 0.6293397467,
				"y": 1.2875549123,
				"z": 0.8110560462,
				"element": "C" 
			},
			{
				"x": 0.775729079,
				"y": 0.0065477166,
				"z": 1.3476894017,
				"element": "C" 
			},
			{
				"x": 1.0643396703,
				"y": -1.0931787328,
				"z": 0.5228805069,
				"element": "C" 
			},
			{
				"x": 1.2096533112,
				"y": -0.8758030964,
				"z": -0.8487263289,
				"element": "C" 
			},
			{
				"x": 1.4562441008,
				"y": -1.9162993602,
				"z": -1.7437346088,
				"element": "O" 
			},
			{
				"x": 2.0730794626,
				"y": -3.0767294258,
				"z": -1.1586935908,
				"element": "C" 
			},
			{
				"x": 1.2526877952,
				"y": -3.5818279386,
				"z": 0.0299736797,
				"element": "C" 
			},
			{
				"x": 1.2304919695,
				"y": -2.4794108748,
				"z": 1.1149421575,
				"element": "C" 
			},
			{
				"x": -0.1760739672,
				"y": -4.0327573582,
				"z": -0.3286507332,
				"element": "C" 
			},
			{
				"x": -0.7321755184,
				"y": -3.5135020818,
				"z": -1.4415505446,
				"element": "O" 
			},
			{
				"x": -0.781346593,
				"y": -4.8125406408,
				"z": 0.3681414267,
				"element": "O" 
			},
			{
				"x": 1.0635470885,
				"y": 0.4022293871,
				"z": -1.396688937,
				"element": "C" 
			},
			{
				"x": 0.7737493948,
				"y": 1.4787819107,
				"z": -0.5737014886,
				"element": "C" 
			},
			{
				"x": -1.0533618574,
				"y": 4.0694516245,
				"z": 3.0324721225,
				"element": "H" 
			},
			{
				"x": -0.2899214334,
				"y": 3.6252469907,
				"z": 4.5730038124,
				"element": "H" 
			},
			{
				"x": 0.6786430413,
				"y": 4.3605714629,
				"z": 3.2787595959,
				"element": "H" 
			},
			{
				"x": 1.0781417988,
				"y": 1.880580348,
				"z": 3.4067528298,
				"element": "H" 
			},
			{
				"x": -0.6565776546,
				"y": 1.5894892928,
				"z": 3.1587549711,
				"element": "H" 
			},
			{
				"x": 0.6607367927,
				"y": -0.1653726147,
				"z": 2.4121225551,
				"element": "H" 
			},
			{
				"x": 3.0918048975,
				"y": -2.8231326574,
				"z": -0.8383508402,
				"element": "H" 
			},
			{
				"x": 2.1325293197,
				"y": -3.8102387288,
				"z": -1.9663690417,
				"element": "H" 
			},
			{
				"x": 1.7306002776,
				"y": -4.4733699101,
				"z": 0.446029673,
				"element": "H" 
			},
			{
				"x": 0.4349754077,
				"y": -2.6905301681,
				"z": 1.8370648818,
				"element": "H" 
			},
			{
				"x": 2.1745007182,
				"y": -2.523369785,
				"z": 1.6739270691,
				"element": "H" 
			},
			{
				"x": -0.1331852234,
				"y": -2.8484405887,
				"z": -1.8366452508,
				"element": "H" 
			},
			{
				"x": 1.1799444863,
				"y": 0.5301402462,
				"z": -2.4679460586,
				"element": "H" 
			},
			{
				"x": 0.6557833543,
				"y": 2.4790110586,
				"z": -0.9763505588,
				"element": "H" 
			}
		],
		 "valence_orbital": [ 
			{
				"type": "occ",
				"energy": -0.30203,
				"method": "rhf"
			},
			{
				"type": "occ",
				"energy": -0.29827,
				"method": "rhf"
			},
			{
				"type": "occ",
				"energy": -0.26123,
				"method": "rhf"
			},
			{
				"type": "occ",
				"energy": -0.25439,
				"method": "rhf"
			},
			{
				"type": "occ",
				"energy": -0.214,
				"method": "rhf"
			},
			{
				"type": "unocc",
				"energy": -0.01618,
				"method": "rhf"
			},
			{
				"type": "unocc",
				"energy": 0.01055,
				"method": "rhf"
			},
			{
				"type": "unocc",
				"energy": 0.01561,
				"method": "rhf"
			},
			{
				"type": "unocc",
				"energy": 0.07512,
				"method": "rhf"
			},
			{
				"type": "unocc",
				"energy": 0.08914,
				"method": "rhf"
			}
		],
		"cosmo_sigma_profile": { 
			"-0.025": 0.0,
			"-0.024": 0.0,
			"-0.023": 0.0,
			"-0.022": 0.0,
			"-0.021": 0.0,
			"-0.02": 0.0,
			"-0.019": 0.0,
			"-0.018": 0.0,
			"-0.017": 0.0,
			"-0.016": 0.0,
			"-0.015": 0.0,
			"-0.014": 0.0,
			"-0.013": 0.0,
			"-0.012": 0.0,
			"-0.011": 0.0,
			"-0.01": 0.0190332769255,
			"-0.009": 0.931770692966,
			"-0.008": 3.49495719801,
			"-0.007": 10.2212989117,
			"-0.006": 18.9193935627,
			"-0.005": 21.5899682933,
			"-0.004": 26.5038903851,
			"-0.003": 24.1428598133,
			"-0.002": 20.4107862831,
			"-0.001": 14.2789120878,
			"0.0": 17.1019410079,
			"0.001": 11.4460430335,
			"0.002": 11.1824066609,
			"0.003": 11.3324589497,
			"0.004": 14.0828604902,
			"0.005": 11.6239227421,
			"0.006": 4.54154884213,
			"0.007": 4.62505021661,
			"0.008": 5.11731234866,
			"0.009": 4.65829092067,
			"0.01": 5.44989381404,
			"0.011": 5.33157419911,
			"0.012": 5.8280422985,
			"0.013": 3.51166330158,
			"0.014": 0.44316002453,
			"0.015": 0.0,
			"0.016": 0.0,
			"0.017": 0.0,
			"0.018": 0.0,
			"0.019": 0.0,
			"0.02": 0.0,
			"0.021": 0.0,
			"0.022": 0.0,
			"0.023": 0.0,
			"0.024": 0.0,
			"0.025": 0.0
		}
	}
}
