{
	 "smiles": "CC(C)(C)C1CCC(=O)CC1", 
	 "Tm": 321.95, 
	 "num_atms": 29, 
	 "gaussian": { 
		 "optdone": 1, 
		 "sigma_profile": "yes", 
		 "theory": "DFT", 
		 "functional": "B3LYP", 
		 "basiset": "6-31G**", 
		 "properties": { 
			 "R2extent": 2286.1017, 
			 "electric_dipole_moment_norm": 3.30372989665, 
			 "electric_quadrupole_moment_norm": 15.1937609419, 
			 "total_energy": -467.149012094, 
			 "HOMO_LUMO_gap": 0.22258, 
			 "cosmo_polarized_energy": -7.23, 
			 "cosmo_cavitation_energy": 27.45, 
			 "cosmo_dispersion_energy": -19.96, 
			 "cosmo_repulsion_energy": 1.57, 
			 "cosmo_total_nonelectrostatic_energy": 9.06, 
			 "SMD_solvation_energy": 4.87 
		},
		"coords": [
			{
				"x": 1.9161259219,
				"y": -0.5063127288,
				"z": 0.3774593246,
				"element": "C" 
			},
			{
				"x": 0.5688178554,
				"y": 0.2469415358,
				"z": 0.3705216573,
				"element": "C" 
			},
			{
				"x": -0.2245093894,
				"y": -0.1650320455,
				"z": 1.6286592776,
				"element": "C" 
			},
			{
				"x": 0.8822261184,
				"y": 1.7571179616,
				"z": 0.4852490052,
				"element": "C" 
			},
			{
				"x": -0.1771663843,
				"y": 0.0052067446,
				"z": -0.9970005818,
				"element": "C" 
			},
			{
				"x": -0.1750877845,
				"y": -1.4347075968,
				"z": -1.5718604619,
				"element": "C" 
			},
			{
				"x": -1.2378922402,
				"y": -2.3861620043,
				"z": -0.9842504414,
				"element": "C" 
			},
			{
				"x": -2.6301812255,
				"y": -1.7811796706,
				"z": -1.0696977262,
				"element": "C" 
			},
			{
				"x": -3.5859092607,
				"y": -2.3955595931,
				"z": -1.5059978701,
				"element": "O" 
			},
			{
				"x": -2.7400462943,
				"y": -0.3516895209,
				"z": -0.5622653255,
				"element": "C" 
			},
			{
				"x": -1.6182247593,
				"y": 0.5728438005,
				"z": -1.0918200564,
				"element": "C" 
			},
			{
				"x": 2.4998524635,
				"y": -0.2953142265,
				"z": -0.5261193657,
				"element": "H" 
			},
			{
				"x": 2.5176881051,
				"y": -0.1962181789,
				"z": 1.2388690566,
				"element": "H" 
			},
			{
				"x": 1.7841961942,
				"y": -1.5905419343,
				"z": 0.448299732,
				"element": "H" 
			},
			{
				"x": -0.4983170954,
				"y": -1.2241036996,
				"z": 1.6259751088,
				"element": "H" 
			},
			{
				"x": -1.138059335,
				"y": 0.4251713879,
				"z": 1.7480607541,
				"element": "H" 
			},
			{
				"x": 0.385513365,
				"y": 0.0065782029,
				"z": 2.5229427815,
				"element": "H" 
			},
			{
				"x": 1.41333946,
				"y": 1.9688938827,
				"z": 1.4197401753,
				"element": "H" 
			},
			{
				"x": -0.0248945771,
				"y": 2.3697357646,
				"z": 0.481239481,
				"element": "H" 
			},
			{
				"x": 1.5171699933,
				"y": 2.0943280208,
				"z": -0.3418479488,
				"element": "H" 
			},
			{
				"x": 0.4180391658,
				"y": 0.5891560837,
				"z": -1.7131585278,
				"element": "H" 
			},
			{
				"x": -0.371357401,
				"y": -1.3495751661,
				"z": -2.6491469482,
				"element": "H" 
			},
			{
				"x": 0.8143388063,
				"y": -1.8919177221,
				"z": -1.4888461071,
				"element": "H" 
			},
			{
				"x": -1.0225478766,
				"y": -2.593461071,
				"z": 0.0723604421,
				"element": "H" 
			},
			{
				"x": -1.2469766065,
				"y": -3.3456438935,
				"z": -1.5090321039,
				"element": "H" 
			},
			{
				"x": -3.7264860996,
				"y": 0.0332490954,
				"z": -0.8358553773,
				"element": "H" 
			},
			{
				"x": -2.7052250173,
				"y": -0.402084589,
				"z": 0.533168428,
				"element": "H" 
			},
			{
				"x": -1.8254961651,
				"y": 0.7666547773,
				"z": -2.1520465059,
				"element": "H" 
			},
			{
				"x": -1.691229937,
				"y": 1.545226383,
				"z": -0.5939998761,
				"element": "H" 
			}
		],
		 "valence_orbital": [ 
			{
				"type": "occ",
				"energy": -0.33176,
				"method": "rhf"
			},
			{
				"type": "occ",
				"energy": -0.31268,
				"method": "rhf"
			},
			{
				"type": "occ",
				"energy": -0.30552,
				"method": "rhf"
			},
			{
				"type": "occ",
				"energy": -0.30117,
				"method": "rhf"
			},
			{
				"type": "occ",
				"energy": -0.23183,
				"method": "rhf"
			},
			{
				"type": "unocc",
				"energy": -0.00925,
				"method": "rhf"
			},
			{
				"type": "unocc",
				"energy": 0.06344,
				"method": "rhf"
			},
			{
				"type": "unocc",
				"energy": 0.09455,
				"method": "rhf"
			},
			{
				"type": "unocc",
				"energy": 0.10476,
				"method": "rhf"
			},
			{
				"type": "unocc",
				"energy": 0.11267,
				"method": "rhf"
			}
		],
		"cosmo_sigma_profile": { 
			"-0.025": 0.0,
			"-0.024": 0.0,
			"-0.023": 0.0,
			"-0.022": 0.0,
			"-0.021": 0.0,
			"-0.02": 0.0,
			"-0.019": 0.0,
			"-0.018": 0.0,
			"-0.017": 0.0,
			"-0.016": 0.0,
			"-0.015": 0.0,
			"-0.014": 0.0,
			"-0.013": 0.0,
			"-0.012": 0.0,
			"-0.011": 0.0,
			"-0.01": 0.0,
			"-0.009": 0.0,
			"-0.008": 0.0,
			"-0.007": 0.152352633004,
			"-0.006": 2.38474527245,
			"-0.005": 4.64176793444,
			"-0.004": 11.7087967988,
			"-0.003": 26.4717000172,
			"-0.002": 42.7378248412,
			"-0.001": 33.7975789403,
			"0.0": 27.4076034775,
			"0.001": 22.7336632228,
			"0.002": 13.6833882427,
			"0.003": 2.30620716649,
			"0.004": 1.40445198227,
			"0.005": 1.44837016059,
			"0.006": 1.17509378131,
			"0.007": 1.99620619889,
			"0.008": 1.41017470905,
			"0.009": 1.44369779979,
			"0.01": 2.41173014073,
			"0.011": 2.39598631617,
			"0.012": 4.0911049874,
			"0.013": 4.06096728315,
			"0.014": 1.19775756885,
			"0.015": 0.0,
			"0.016": 0.0,
			"0.017": 0.0,
			"0.018": 0.0,
			"0.019": 0.0,
			"0.02": 0.0,
			"0.021": 0.0,
			"0.022": 0.0,
			"0.023": 0.0,
			"0.024": 0.0,
			"0.025": 0.0
		}
	}
}
