{
	 "smiles": "OC(=O)C12CC3CC(C1)CC(C3)(C2)C(F)(F)F", 
	 "Tm": 412.15, 
	 "num_atms": 32, 
	 "gaussian": { 
		 "optdone": 1, 
		 "sigma_profile": "yes", 
		 "theory": "DFT", 
		 "functional": "B3LYP", 
		 "basiset": "6-31G**", 
		 "properties": { 
			 "R2extent": 3775.8838, 
			 "electric_dipole_moment_norm": 4.99101490781, 
			 "electric_quadrupole_moment_norm": 13.5709195414, 
			 "total_energy": -916.336699198, 
			 "HOMO_LUMO_gap": 0.27272, 
			 "cosmo_polarized_energy": -13.82, 
			 "cosmo_cavitation_energy": 31.41, 
			 "cosmo_dispersion_energy": -22.73, 
			 "cosmo_repulsion_energy": 1.64, 
			 "cosmo_total_nonelectrostatic_energy": 10.32, 
			 "SMD_solvation_energy": 6.16 
		},
		"coords": [
			{
				"x": -3.1484479691,
				"y": -0.1037318966,
				"z": -0.8792904355,
				"element": "O" 
			},
			{
				"x": -2.2988141332,
				"y": -0.1921322402,
				"z": 0.1756250423,
				"element": "C" 
			},
			{
				"x": -2.7426614619,
				"y": -0.2731614812,
				"z": 1.2957471516,
				"element": "O" 
			},
			{
				"x": -0.7864180709,
				"y": -0.1983673989,
				"z": -0.1079590541,
				"element": "C" 
			},
			{
				"x": -0.4000096275,
				"y": -0.0228190124,
				"z": -1.5954326144,
				"element": "C" 
			},
			{
				"x": 1.13717248,
				"y": -0.0437092235,
				"z": -1.7473608911,
				"element": "C" 
			},
			{
				"x": 1.6870065567,
				"y": -1.3914362502,
				"z": -1.2400475459,
				"element": "C" 
			},
			{
				"x": 1.3176880497,
				"y": -1.5659758563,
				"z": 0.2464161941,
				"element": "C" 
			},
			{
				"x": -0.2143385359,
				"y": -1.5494915474,
				"z": 0.4032491239,
				"element": "C" 
			},
			{
				"x": 1.9343540223,
				"y": -0.4197413625,
				"z": 1.0714075517,
				"element": "C" 
			},
			{
				"x": 1.3859678556,
				"y": 0.9357767993,
				"z": 0.5637913838,
				"element": "C" 
			},
			{
				"x": 1.7520139529,
				"y": 1.1082120486,
				"z": -0.9300249886,
				"element": "C" 
			},
			{
				"x": -0.1526122145,
				"y": 0.9529805968,
				"z": 0.7160833236,
				"element": "C" 
			},
			{
				"x": 1.9898511077,
				"y": 2.0754339844,
				"z": 1.3765908477,
				"element": "C" 
			},
			{
				"x": 3.3401441673,
				"y": 2.1050909693,
				"z": 1.2722788144,
				"element": "F" 
			},
			{
				"x": 1.5362237924,
				"y": 3.2838156602,
				"z": 0.965392955,
				"element": "F" 
			},
			{
				"x": 1.6965807513,
				"y": 1.969025618,
				"z": 2.6927484902,
				"element": "F" 
			},
			{
				"x": -2.6535271926,
				"y": -0.0400072994,
				"z": -1.7075958169,
				"element": "H" 
			},
			{
				"x": -0.827599111,
				"y": -0.8350383763,
				"z": -2.2013801522,
				"element": "H" 
			},
			{
				"x": -0.7892886987,
				"y": 0.9295130156,
				"z": -1.9834590796,
				"element": "H" 
			},
			{
				"x": 1.3935030322,
				"y": 0.0889403547,
				"z": -2.8050547567,
				"element": "H" 
			},
			{
				"x": 2.7762505723,
				"y": -1.4223019791,
				"z": -1.3672174824,
				"element": "H" 
			},
			{
				"x": 1.2724549388,
				"y": -2.2168536805,
				"z": -1.8327943398,
				"element": "H" 
			},
			{
				"x": 1.7064028954,
				"y": -2.5226516423,
				"z": 0.6152091471,
				"element": "H" 
			},
			{
				"x": -0.6612329584,
				"y": -2.3778892679,
				"z": -0.1617180114,
				"element": "H" 
			},
			{
				"x": -0.5048226842,
				"y": -1.6806075529,
				"z": 1.4502616677,
				"element": "H" 
			},
			{
				"x": 1.6920540627,
				"y": -0.5405054323,
				"z": 2.1328821664,
				"element": "H" 
			},
			{
				"x": 3.0265416597,
				"y": -0.4314981282,
				"z": 0.9842025609,
				"element": "H" 
			},
			{
				"x": 1.3834446583,
				"y": 2.0748639485,
				"z": -1.2918500326,
				"element": "H" 
			},
			{
				"x": 2.8412726795,
				"y": 1.1140623435,
				"z": -1.0464732805,
				"element": "H" 
			},
			{
				"x": -0.5462387414,
				"y": 1.9180844399,
				"z": 0.376295635,
				"element": "H" 
			},
			{
				"x": -0.4381158356,
				"y": 0.8384198492,
				"z": 1.7648764264,
				"element": "H" 
			}
		],
		 "valence_orbital": [ 
			{
				"type": "occ",
				"energy": -0.32196,
				"method": "rhf"
			},
			{
				"type": "occ",
				"energy": -0.3167,
				"method": "rhf"
			},
			{
				"type": "occ",
				"energy": -0.3064,
				"method": "rhf"
			},
			{
				"type": "occ",
				"energy": -0.30203,
				"method": "rhf"
			},
			{
				"type": "occ",
				"energy": -0.26601,
				"method": "rhf"
			},
			{
				"type": "unocc",
				"energy": 0.00671,
				"method": "rhf"
			},
			{
				"type": "unocc",
				"energy": 0.04763,
				"method": "rhf"
			},
			{
				"type": "unocc",
				"energy": 0.07343,
				"method": "rhf"
			},
			{
				"type": "unocc",
				"energy": 0.10161,
				"method": "rhf"
			},
			{
				"type": "unocc",
				"energy": 0.10597,
				"method": "rhf"
			}
		],
		"cosmo_sigma_profile": { 
			"-0.025": 0.0,
			"-0.024": 0.0,
			"-0.023": 0.0,
			"-0.022": 0.0,
			"-0.021": 0.0,
			"-0.02": 0.0,
			"-0.019": 0.0,
			"-0.018": 0.0,
			"-0.017": 0.173557038936,
			"-0.016": 0.794122554128,
			"-0.015": 0.797592029349,
			"-0.014": 0.869907694577,
			"-0.013": 0.676694108595,
			"-0.012": 1.38825847632,
			"-0.011": 2.00008589943,
			"-0.01": 1.10181078114,
			"-0.009": 1.04207799511,
			"-0.008": 1.73746412795,
			"-0.007": 2.665099516,
			"-0.006": 4.12912196272,
			"-0.005": 6.56020405904,
			"-0.004": 14.0237192193,
			"-0.003": 32.8462494773,
			"-0.002": 31.3934121125,
			"-0.001": 29.8066682442,
			"0.0": 20.5759285168,
			"0.001": 9.92158846578,
			"0.002": 11.4378824074,
			"0.003": 30.5438139624,
			"0.004": 9.22471107166,
			"0.005": 2.45103239261,
			"0.006": 2.15707332159,
			"0.007": 2.5625589937,
			"0.008": 2.8463101837,
			"0.009": 2.89932042433,
			"0.01": 4.09400548076,
			"0.011": 4.61560475793,
			"0.012": 5.2552800963,
			"0.013": 2.50453153418,
			"0.014": 0.299638578214,
			"0.015": 0.0,
			"0.016": 0.0,
			"0.017": 0.0,
			"0.018": 0.0,
			"0.019": 0.0,
			"0.02": 0.0,
			"0.021": 0.0,
			"0.022": 0.0,
			"0.023": 0.0,
			"0.024": 0.0,
			"0.025": 0.0
		}
	}
}
