{
	 "smiles": "CC1=CC=C(C#N)C(=O)N1", 
	 "Tm": 567.15, 
	 "num_atms": 16, 
	 "gaussian": { 
		 "optdone": 1, 
		 "sigma_profile": "yes", 
		 "theory": "DFT", 
		 "functional": "B3LYP", 
		 "basiset": "6-31G**", 
		 "properties": { 
			 "R2extent": 1771.9994, 
			 "electric_dipole_moment_norm": 8.6548327933, 
			 "electric_quadrupole_moment_norm": 18.857609966, 
			 "total_energy": -455.083034952, 
			 "HOMO_LUMO_gap": 0.15956, 
			 "cosmo_polarized_energy": -21.18, 
			 "cosmo_cavitation_energy": 21.68, 
			 "cosmo_dispersion_energy": -15.43, 
			 "cosmo_repulsion_energy": 1.26, 
			 "cosmo_total_nonelectrostatic_energy": 7.51, 
			 "SMD_solvation_energy": 6.02 
		},
		"coords": [
			{
				"x": -0.9076762028,
				"y": 2.4418497318,
				"z": -0.4593290117,
				"element": "C" 
			},
			{
				"x": -0.2146838872,
				"y": 1.1224553536,
				"z": -0.6348653023,
				"element": "C" 
			},
			{
				"x": 1.1443913003,
				"y": 0.9700277849,
				"z": -0.7661217766,
				"element": "C" 
			},
			{
				"x": 1.6806589584,
				"y": -0.3296454517,
				"z": -0.926196889,
				"element": "C" 
			},
			{
				"x": 0.8757214525,
				"y": -1.4491226536,
				"z": -0.9542445448,
				"element": "C" 
			},
			{
				"x": 1.4291248684,
				"y": -2.7545236741,
				"z": -1.1161885192,
				"element": "C" 
			},
			{
				"x": 1.9111593315,
				"y": -3.8051021288,
				"z": -1.2497187741,
				"element": "N" 
			},
			{
				"x": -0.5776617569,
				"y": -1.3315177439,
				"z": -0.8181798139,
				"element": "C" 
			},
			{
				"x": -1.3975407938,
				"y": -2.2366882693,
				"z": -0.8255553956,
				"element": "O" 
			},
			{
				"x": -1.0023397427,
				"y": 0.0080292953,
				"z": -0.6639804723,
				"element": "N" 
			},
			{
				"x": -1.6199180596,
				"y": 2.6217930429,
				"z": -1.2729653733,
				"element": "H" 
			},
			{
				"x": -0.1845099633,
				"y": 3.2586141753,
				"z": -0.4507102962,
				"element": "H" 
			},
			{
				"x": -1.4674616707,
				"y": 2.4682823064,
				"z": 0.482803279,
				"element": "H" 
			},
			{
				"x": 1.7901546445,
				"y": 1.838454908,
				"z": -0.7461780388,
				"element": "H" 
			},
			{
				"x": 2.7544586911,
				"y": -0.4539243387,
				"z": -1.0301082441,
				"element": "H" 
			},
			{
				"x": -2.0079771699,
				"y": 0.096617662,
				"z": -0.5688608269,
				"element": "H" 
			}
		],
		 "valence_orbital": [ 
			{
				"type": "occ",
				"energy": -0.35142,
				"method": "rhf"
			},
			{
				"type": "occ",
				"energy": -0.32412,
				"method": "rhf"
			},
			{
				"type": "occ",
				"energy": -0.30652,
				"method": "rhf"
			},
			{
				"type": "occ",
				"energy": -0.26963,
				"method": "rhf"
			},
			{
				"type": "occ",
				"energy": -0.23441,
				"method": "rhf"
			},
			{
				"type": "unocc",
				"energy": -0.07485,
				"method": "rhf"
			},
			{
				"type": "unocc",
				"energy": -0.00632,
				"method": "rhf"
			},
			{
				"type": "unocc",
				"energy": 0.03914,
				"method": "rhf"
			},
			{
				"type": "unocc",
				"energy": 0.05475,
				"method": "rhf"
			},
			{
				"type": "unocc",
				"energy": 0.05759,
				"method": "rhf"
			}
		],
		"cosmo_sigma_profile": { 
			"-0.025": 0.0,
			"-0.024": 0.0,
			"-0.023": 0.0,
			"-0.022": 0.0,
			"-0.021": 0.0,
			"-0.02": 0.0,
			"-0.019": 0.0,
			"-0.018": 0.0,
			"-0.017": 0.0682826740634,
			"-0.016": 1.11595598635,
			"-0.015": 0.713126668005,
			"-0.014": 1.37722591437,
			"-0.013": 0.819387365262,
			"-0.012": 1.59634576322,
			"-0.011": 1.10462483888,
			"-0.01": 1.1336582355,
			"-0.009": 3.61748369468,
			"-0.008": 5.45617883369,
			"-0.007": 11.2284844184,
			"-0.006": 11.6854289533,
			"-0.005": 8.94221627841,
			"-0.004": 8.60557782566,
			"-0.003": 13.5744985178,
			"-0.002": 17.7789081422,
			"-0.001": 12.3190067202,
			"0.0": 9.32904860838,
			"0.001": 7.24742306342,
			"0.002": 3.98701359868,
			"0.003": 2.25658763283,
			"0.004": 3.67790690068,
			"0.005": 2.94530776664,
			"0.006": 4.25227006823,
			"0.007": 4.82502568129,
			"0.008": 4.62554153965,
			"0.009": 4.97067091382,
			"0.01": 4.97433768346,
			"0.011": 4.83582716189,
			"0.012": 5.22957704275,
			"0.013": 8.38709132843,
			"0.014": 1.75196148596,
			"0.015": 0.0,
			"0.016": 0.0,
			"0.017": 0.0,
			"0.018": 0.0,
			"0.019": 0.0,
			"0.02": 0.0,
			"0.021": 0.0,
			"0.022": 0.0,
			"0.023": 0.0,
			"0.024": 0.0,
			"0.025": 0.0
		}
	}
}
