{
	 "smiles": "CC(=O)NC1=CC=C(C=C1)S(=O)(=O)N1CCC(N)CC1", 
	 "Tm": 486.15, 
	 "num_atms": 39, 
	 "gaussian": { 
		 "optdone": 1, 
		 "sigma_profile": "yes", 
		 "theory": "DFT", 
		 "functional": "B3LYP", 
		 "basiset": "6-31G**", 
		 "properties": { 
			 "R2extent": 7472.9389, 
			 "electric_dipole_moment_norm": 5.75446393333, 
			 "electric_quadrupole_moment_norm": 28.8206459704, 
			 "total_energy": -1294.88918085, 
			 "HOMO_LUMO_gap": 0.19094, 
			 "cosmo_polarized_energy": -25.12, 
			 "cosmo_cavitation_energy": 41.83, 
			 "cosmo_dispersion_energy": -29.39, 
			 "cosmo_repulsion_energy": 2.24, 
			 "cosmo_total_nonelectrostatic_energy": 14.69, 
			 "SMD_solvation_energy": 4.78 
		},
		"coords": [
			{
				"x": 4.0380485892,
				"y": -0.1605866853,
				"z": 2.3872990811,
				"element": "C" 
			},
			{
				"x": 3.1114091928,
				"y": -0.3139018422,
				"z": 3.5766870896,
				"element": "C" 
			},
			{
				"x": 3.5232773247,
				"y": -0.6330615161,
				"z": 4.6809651405,
				"element": "O" 
			},
			{
				"x": 1.7462486597,
				"y": -0.1089091054,
				"z": 3.4055213278,
				"element": "N" 
			},
			{
				"x": 0.961463397,
				"y": 0.23013699,
				"z": 2.2902170602,
				"element": "C" 
			},
			{
				"x": 1.3956741953,
				"y": 1.1081160547,
				"z": 1.2825735216,
				"element": "C" 
			},
			{
				"x": 0.5612979182,
				"y": 1.4149981699,
				"z": 0.2108756909,
				"element": "C" 
			},
			{
				"x": -0.7241364813,
				"y": 0.872375877,
				"z": 0.1454421573,
				"element": "C" 
			},
			{
				"x": -1.1858115103,
				"y": 0.0342942537,
				"z": 1.1655544252,
				"element": "C" 
			},
			{
				"x": -0.3445534587,
				"y": -0.2881745606,
				"z": 2.2235104515,
				"element": "C" 
			},
			{
				"x": -1.7835895624,
				"y": 1.244909244,
				"z": -1.2571664236,
				"element": "S" 
			},
			{
				"x": -1.282879524,
				"y": 2.4882427692,
				"z": -1.8503549441,
				"element": "O" 
			},
			{
				"x": -3.1647042288,
				"y": 1.0952423552,
				"z": -0.7924142364,
				"element": "O" 
			},
			{
				"x": -1.5456784641,
				"y": 0.0442866284,
				"z": -2.39845698,
				"element": "N" 
			},
			{
				"x": -0.3459670601,
				"y": 0.1021745328,
				"z": -3.2617477452,
				"element": "C" 
			},
			{
				"x": 0.4944704885,
				"y": -1.1690521367,
				"z": -3.1214991481,
				"element": "C" 
			},
			{
				"x": -0.3024765363,
				"y": -2.4387840525,
				"z": -3.5068514367,
				"element": "C" 
			},
			{
				"x": 0.1536945346,
				"y": -3.5509366015,
				"z": -2.6614530498,
				"element": "N" 
			},
			{
				"x": -1.8157084411,
				"y": -2.2164495233,
				"z": -3.2819308994,
				"element": "C" 
			},
			{
				"x": -2.0851079885,
				"y": -1.2988304582,
				"z": -2.090240358,
				"element": "C" 
			},
			{
				"x": 4.3379226761,
				"y": 0.8862798503,
				"z": 2.2702140049,
				"element": "H" 
			},
			{
				"x": 3.5878300055,
				"y": -0.4943542969,
				"z": 1.4497263695,
				"element": "H" 
			},
			{
				"x": 4.9342374804,
				"y": -0.7433362265,
				"z": 2.6019434581,
				"element": "H" 
			},
			{
				"x": 1.2399682876,
				"y": -0.3674332307,
				"z": 4.2443913814,
				"element": "H" 
			},
			{
				"x": 2.3655054807,
				"y": 1.5836240518,
				"z": 1.3514622053,
				"element": "H" 
			},
			{
				"x": 0.8858573181,
				"y": 2.1157442515,
				"z": -0.5505430389,
				"element": "H" 
			},
			{
				"x": -2.2012435615,
				"y": -0.3444095173,
				"z": 1.133730113,
				"element": "H" 
			},
			{
				"x": -0.6954500495,
				"y": -0.9502405039,
				"z": 3.0103420478,
				"element": "H" 
			},
			{
				"x": -0.6694317578,
				"y": 0.2346502288,
				"z": -4.3024292132,
				"element": "H" 
			},
			{
				"x": 0.2303610587,
				"y": 0.9923037464,
				"z": -3.0053337533,
				"element": "H" 
			},
			{
				"x": 0.8138777479,
				"y": -1.2716656864,
				"z": -2.0776635199,
				"element": "H" 
			},
			{
				"x": 1.4001452704,
				"y": -1.0799014264,
				"z": -3.7325142289,
				"element": "H" 
			},
			{
				"x": -0.149355366,
				"y": -2.6316465034,
				"z": -4.5829733152,
				"element": "H" 
			},
			{
				"x": 1.16338844,
				"y": -3.6556359796,
				"z": -2.7388362873,
				"element": "H" 
			},
			{
				"x": -0.2479619708,
				"y": -4.4260653475,
				"z": -2.9918393347,
				"element": "H" 
			},
			{
				"x": -2.3095823796,
				"y": -3.1794014505,
				"z": -3.1115702967,
				"element": "H" 
			},
			{
				"x": -2.2684636299,
				"y": -1.780300366,
				"z": -4.1793489777,
				"element": "H" 
			},
			{
				"x": -1.6113193796,
				"y": -1.7292398475,
				"z": -1.1954613944,
				"element": "H" 
			},
			{
				"x": -3.1548567152,
				"y": -1.1989621395,
				"z": -1.8997269443,
				"element": "H" 
			}
		],
		 "valence_orbital": [ 
			{
				"type": "occ",
				"energy": -0.27708,
				"method": "rhf"
			},
			{
				"type": "occ",
				"energy": -0.26455,
				"method": "rhf"
			},
			{
				"type": "occ",
				"energy": -0.25442,
				"method": "rhf"
			},
			{
				"type": "occ",
				"energy": -0.24872,
				"method": "rhf"
			},
			{
				"type": "occ",
				"energy": -0.23315,
				"method": "rhf"
			},
			{
				"type": "unocc",
				"energy": -0.04221,
				"method": "rhf"
			},
			{
				"type": "unocc",
				"energy": -0.02846,
				"method": "rhf"
			},
			{
				"type": "unocc",
				"energy": 0.01822,
				"method": "rhf"
			},
			{
				"type": "unocc",
				"energy": 0.05646,
				"method": "rhf"
			},
			{
				"type": "unocc",
				"energy": 0.06675,
				"method": "rhf"
			}
		],
		"cosmo_sigma_profile": { 
			"-0.025": 0.0,
			"-0.024": 0.0,
			"-0.023": 0.0,
			"-0.022": 0.0,
			"-0.021": 0.0,
			"-0.02": 0.0,
			"-0.019": 0.0,
			"-0.018": 0.0,
			"-0.017": 0.0,
			"-0.016": 0.0,
			"-0.015": 0.20575255088,
			"-0.014": 1.35727751154,
			"-0.013": 1.06380205476,
			"-0.012": 0.943580521053,
			"-0.011": 1.40133439862,
			"-0.01": 2.18316033677,
			"-0.009": 4.70269014108,
			"-0.008": 7.64608726348,
			"-0.007": 11.1649498333,
			"-0.006": 13.2861308321,
			"-0.005": 20.931873606,
			"-0.004": 28.425667241,
			"-0.003": 34.8979533707,
			"-0.002": 36.6125062761,
			"-0.001": 28.5487870974,
			"0.0": 17.4042319027,
			"0.001": 15.2359076517,
			"0.002": 17.0360433668,
			"0.003": 10.9750224882,
			"0.004": 6.24618504664,
			"0.005": 5.32280421509,
			"0.006": 5.96544089724,
			"0.007": 6.6623218378,
			"0.008": 6.74639096864,
			"0.009": 5.9518161095,
			"0.01": 6.45857899632,
			"0.011": 10.0218370251,
			"0.012": 10.0563200552,
			"0.013": 6.40773528227,
			"0.014": 2.3028458541,
			"0.015": 0.982987488998,
			"0.016": 0.195792896139,
			"0.017": 0.449598724165,
			"0.018": 0.485445373664,
			"0.019": 0.0539505479383,
			"0.02": 0.0,
			"0.021": 0.0,
			"0.022": 0.0,
			"0.023": 0.0,
			"0.024": 0.0,
			"0.025": 0.0
		}
	}
}
