{
	 "smiles": "O=C(OC1=C2CCC(=O)C2=CC=C1)C1=CC=CC=C1", 
	 "Tm": 352.15, 
	 "num_atms": 31, 
	 "gaussian": { 
		 "optdone": 1, 
		 "sigma_profile": "yes", 
		 "theory": "DFT", 
		 "functional": "B3LYP", 
		 "basiset": "6-31G**", 
		 "properties": { 
			 "R2extent": 6363.6592, 
			 "electric_dipole_moment_norm": 5.05698417735, 
			 "electric_quadrupole_moment_norm": 13.1194291686, 
			 "total_energy": -842.627190529, 
			 "HOMO_LUMO_gap": 0.18125, 
			 "cosmo_polarized_energy": -12.47, 
			 "cosmo_cavitation_energy": 35.8, 
			 "cosmo_dispersion_energy": -25.61, 
			 "cosmo_repulsion_energy": 1.96, 
			 "cosmo_total_nonelectrostatic_energy": 12.15, 
			 "SMD_solvation_energy": 7.04 
		},
		"coords": [
			{
				"x": 1.3286167634,
				"y": -1.4314090475,
				"z": -0.808287145,
				"element": "O" 
			},
			{
				"x": 0.4684033232,
				"y": -1.3183175569,
				"z": 0.0370739555,
				"element": "C" 
			},
			{
				"x": -0.0418882836,
				"y": -0.1081185259,
				"z": 0.4335723496,
				"element": "O" 
			},
			{
				"x": 0.4532621848,
				"y": 1.0611807112,
				"z": -0.1501298418,
				"element": "C" 
			},
			{
				"x": 0.2309068117,
				"y": 1.3741865136,
				"z": -1.4906167942,
				"element": "C" 
			},
			{
				"x": -0.4537788095,
				"y": 0.5672458505,
				"z": -2.5735191093,
				"element": "C" 
			},
			{
				"x": -0.4311721973,
				"y": 1.4899202933,
				"z": -3.8153412346,
				"element": "C" 
			},
			{
				"x": 0.3272684714,
				"y": 2.7602957574,
				"z": -3.3978593691,
				"element": "C" 
			},
			{
				"x": 0.5799036793,
				"y": 3.7119440848,
				"z": -4.1119190539,
				"element": "O" 
			},
			{
				"x": 0.6805368162,
				"y": 2.6116922899,
				"z": -1.9629149259,
				"element": "C" 
			},
			{
				"x": 1.3404094711,
				"y": 3.5346590561,
				"z": -1.1484276593,
				"element": "C" 
			},
			{
				"x": 1.5489345613,
				"y": 3.2017818143,
				"z": 0.187007417,
				"element": "C" 
			},
			{
				"x": 1.104736177,
				"y": 1.9683080652,
				"z": 0.6835286127,
				"element": "C" 
			},
			{
				"x": -0.1632936838,
				"y": -2.4480869955,
				"z": 0.7691878339,
				"element": "C" 
			},
			{
				"x": -1.1661790803,
				"y": -2.2584684758,
				"z": 1.7311277584,
				"element": "C" 
			},
			{
				"x": -1.7189437412,
				"y": -3.3600385403,
				"z": 2.3818913615,
				"element": "C" 
			},
			{
				"x": -1.2752472152,
				"y": -4.6496120934,
				"z": 2.078249475,
				"element": "C" 
			},
			{
				"x": -0.27532811,
				"y": -4.8406304286,
				"z": 1.1204607119,
				"element": "C" 
			},
			{
				"x": 0.2796879677,
				"y": -3.7439374514,
				"z": 0.4667584168,
				"element": "C" 
			},
			{
				"x": -1.4717301555,
				"y": 0.2902422697,
				"z": -2.2760937648,
				"element": "H" 
			},
			{
				"x": 0.0908494149,
				"y": -0.3666712136,
				"z": -2.742210868,
				"element": "H" 
			},
			{
				"x": 0.0703468422,
				"y": 1.0366867574,
				"z": -4.675886076,
				"element": "H" 
			},
			{
				"x": -1.4338308814,
				"y": 1.775013228,
				"z": -4.1508924358,
				"element": "H" 
			},
			{
				"x": 1.667982485,
				"y": 4.4825522281,
				"z": -1.5636908259,
				"element": "H" 
			},
			{
				"x": 2.0552328858,
				"y": 3.8921904393,
				"z": 0.8546098245,
				"element": "H" 
			},
			{
				"x": 1.2574260719,
				"y": 1.7004926934,
				"z": 1.7242518871,
				"element": "H" 
			},
			{
				"x": -1.5046555105,
				"y": -1.2551270066,
				"z": 1.9618751288,
				"element": "H" 
			},
			{
				"x": -2.495788321,
				"y": -3.2131610264,
				"z": 3.1262825445,
				"element": "H" 
			},
			{
				"x": -1.7083974253,
				"y": -5.5054982002,
				"z": 2.5880419569,
				"element": "H" 
			},
			{
				"x": 0.0694643093,
				"y": -5.8430417691,
				"z": 0.8851723801,
				"element": "H" 
			},
			{
				"x": 1.0566651785,
				"y": -3.8661737208,
				"z": -0.2802025106,
				"element": "H" 
			}
		],
		 "valence_orbital": [ 
			{
				"type": "occ",
				"energy": -0.26947,
				"method": "rhf"
			},
			{
				"type": "occ",
				"energy": -0.26681,
				"method": "rhf"
			},
			{
				"type": "occ",
				"energy": -0.25934,
				"method": "rhf"
			},
			{
				"type": "occ",
				"energy": -0.25233,
				"method": "rhf"
			},
			{
				"type": "occ",
				"energy": -0.24052,
				"method": "rhf"
			},
			{
				"type": "unocc",
				"energy": -0.05927,
				"method": "rhf"
			},
			{
				"type": "unocc",
				"energy": -0.05218,
				"method": "rhf"
			},
			{
				"type": "unocc",
				"energy": -0.01607,
				"method": "rhf"
			},
			{
				"type": "unocc",
				"energy": -0.01225,
				"method": "rhf"
			},
			{
				"type": "unocc",
				"energy": 0.04169,
				"method": "rhf"
			}
		],
		"cosmo_sigma_profile": { 
			"-0.025": 0.0,
			"-0.024": 0.0,
			"-0.023": 0.0,
			"-0.022": 0.0,
			"-0.021": 0.0,
			"-0.02": 0.0,
			"-0.019": 0.0,
			"-0.018": 0.0,
			"-0.017": 0.0,
			"-0.016": 0.0,
			"-0.015": 0.0,
			"-0.014": 0.0,
			"-0.013": 0.0,
			"-0.012": 0.0,
			"-0.011": 0.0,
			"-0.01": 0.0,
			"-0.009": 0.0,
			"-0.008": 0.618442794441,
			"-0.007": 6.7880858796,
			"-0.006": 18.5590175704,
			"-0.005": 26.9605828759,
			"-0.004": 28.4486464483,
			"-0.003": 21.5954348455,
			"-0.002": 20.0814833353,
			"-0.001": 20.5874590204,
			"0.0": 18.5261308641,
			"0.001": 25.1693073135,
			"0.002": 24.4625359522,
			"0.003": 24.9440386177,
			"0.004": 14.7051985936,
			"0.005": 3.56963202413,
			"0.006": 3.92179462006,
			"0.007": 2.77341245417,
			"0.008": 3.19712078916,
			"0.009": 3.30901428987,
			"0.01": 4.2628109224,
			"0.011": 6.89542259014,
			"0.012": 5.42549700838,
			"0.013": 2.27076711173,
			"0.014": 0.224720567929,
			"0.015": 0.0,
			"0.016": 0.0,
			"0.017": 0.0,
			"0.018": 0.0,
			"0.019": 0.0,
			"0.02": 0.0,
			"0.021": 0.0,
			"0.022": 0.0,
			"0.023": 0.0,
			"0.024": 0.0,
			"0.025": 0.0
		}
	}
}
