{
	 "smiles": "O=S(=O)(C[C@@H](COCC1=CC=CC=C1)OCC1=CC=CC=C1)C1=CC=CC=C1", 
	 "Tm": 328.65, 
	 "num_atms": 52, 
	 "gaussian": { 
		 "optdone": 1, 
		 "sigma_profile": "yes", 
		 "theory": "DFT", 
		 "functional": "B3LYP", 
		 "basiset": "6-31G**", 
		 "properties": { 
			 "R2extent": 15435.391, 
			 "electric_dipole_moment_norm": 5.11979092054, 
			 "electric_quadrupole_moment_norm": 25.7327437361, 
			 "total_energy": -1589.90438699, 
			 "HOMO_LUMO_gap": 0.20407, 
			 "cosmo_polarized_energy": -22.23, 
			 "cosmo_cavitation_energy": 56.4, 
			 "cosmo_dispersion_energy": -37.51, 
			 "cosmo_repulsion_energy": 2.83, 
			 "cosmo_total_nonelectrostatic_energy": 21.73, 
			 "SMD_solvation_energy": 8.48 
		},
		"coords": [
			{
				"x": 1.4662127686,
				"y": 3.0085795656,
				"z": 0.5829134952,
				"element": "O" 
			},
			{
				"x": 2.0903317166,
				"y": 1.6916025012,
				"z": 0.3647493234,
				"element": "S" 
			},
			{
				"x": 3.4109767595,
				"y": 1.3712050017,
				"z": 0.9350567854,
				"element": "O" 
			},
			{
				"x": 0.9012196134,
				"y": 0.3834564252,
				"z": 0.8503721397,
				"element": "C" 
			},
			{
				"x": 0.9059005892,
				"y": 0.0276717991,
				"z": 2.3448048183,
				"element": "C" 
			},
			{
				"x": 2.0898814708,
				"y": -0.8752875084,
				"z": 2.7403835644,
				"element": "C" 
			},
			{
				"x": 2.1559018871,
				"y": -2.062219293,
				"z": 1.9619389158,
				"element": "O" 
			},
			{
				"x": 1.2919824859,
				"y": -3.1066928676,
				"z": 2.3856628596,
				"element": "C" 
			},
			{
				"x": 1.6234630146,
				"y": -4.3800104955,
				"z": 1.6402783229,
				"element": "C" 
			},
			{
				"x": 2.9344225763,
				"y": -4.6512239252,
				"z": 1.2311339759,
				"element": "C" 
			},
			{
				"x": 3.2368400373,
				"y": -5.8501576045,
				"z": 0.5846983899,
				"element": "C" 
			},
			{
				"x": 2.2360170268,
				"y": -6.7944395895,
				"z": 0.3457415581,
				"element": "C" 
			},
			{
				"x": 0.9267919327,
				"y": -6.5296459128,
				"z": 0.7511653555,
				"element": "C" 
			},
			{
				"x": 0.6232787971,
				"y": -5.3262499532,
				"z": 1.3895826785,
				"element": "C" 
			},
			{
				"x": 0.9644657434,
				"y": 1.194621219,
				"z": 3.15370795,
				"element": "O" 
			},
			{
				"x": -0.1078424495,
				"y": 1.3699846426,
				"z": 4.0741098939,
				"element": "C" 
			},
			{
				"x": -1.4293715206,
				"y": 1.7339868549,
				"z": 3.4240341107,
				"element": "C" 
			},
			{
				"x": -2.6247725083,
				"y": 1.1628901786,
				"z": 3.8742390703,
				"element": "C" 
			},
			{
				"x": -3.8479297753,
				"y": 1.5319024495,
				"z": 3.3090931773,
				"element": "C" 
			},
			{
				"x": -3.8831782802,
				"y": 2.4710327531,
				"z": 2.2780028514,
				"element": "C" 
			},
			{
				"x": -2.6918124276,
				"y": 3.0391595328,
				"z": 1.8173603527,
				"element": "C" 
			},
			{
				"x": -1.4704514109,
				"y": 2.6774328281,
				"z": 2.3862580391,
				"element": "C" 
			},
			{
				"x": 2.1991872795,
				"y": 1.4478804307,
				"z": -1.4208810134,
				"element": "C" 
			},
			{
				"x": 3.0990544451,
				"y": 0.5064178256,
				"z": -1.925679836,
				"element": "C" 
			},
			{
				"x": 3.1779247906,
				"y": 0.3212306735,
				"z": -3.3058626979,
				"element": "C" 
			},
			{
				"x": 2.3694024107,
				"y": 1.0750242022,
				"z": -4.161189217,
				"element": "C" 
			},
			{
				"x": 1.4823898312,
				"y": 2.0213086949,
				"z": -3.6429446314,
				"element": "C" 
			},
			{
				"x": 1.3928365174,
				"y": 2.2141959289,
				"z": -2.2634038539,
				"element": "C" 
			},
			{
				"x": -0.0743031576,
				"y": 0.7596312131,
				"z": 0.5344041949,
				"element": "H" 
			},
			{
				"x": 1.1627443075,
				"y": -0.5063708679,
				"z": 0.2714829067,
				"element": "H" 
			},
			{
				"x": -0.0368491882,
				"y": -0.5093471823,
				"z": 2.5238855994,
				"element": "H" 
			},
			{
				"x": 2.0080409707,
				"y": -1.1095799469,
				"z": 3.8122305305,
				"element": "H" 
			},
			{
				"x": 3.0200789091,
				"y": -0.3313622765,
				"z": 2.5699116089,
				"element": "H" 
			},
			{
				"x": 1.414621566,
				"y": -3.2632044097,
				"z": 3.4718365234,
				"element": "H" 
			},
			{
				"x": 0.2333346413,
				"y": -2.8496029568,
				"z": 2.2217436486,
				"element": "H" 
			},
			{
				"x": 3.7059877193,
				"y": -3.9106694197,
				"z": 1.4122089484,
				"element": "H" 
			},
			{
				"x": 4.2570434238,
				"y": -6.0476492379,
				"z": 0.2672235481,
				"element": "H" 
			},
			{
				"x": 2.4736770641,
				"y": -7.7276336685,
				"z": -0.1569485075,
				"element": "H" 
			},
			{
				"x": 0.1398451361,
				"y": -7.2545600256,
				"z": 0.5627256902,
				"element": "H" 
			},
			{
				"x": -0.4009447698,
				"y": -5.1203401943,
				"z": 1.6929897938,
				"element": "H" 
			},
			{
				"x": -0.23339546,
				"y": 0.4730554456,
				"z": 4.7004549437,
				"element": "H" 
			},
			{
				"x": 0.2276221748,
				"y": 2.1800044691,
				"z": 4.7311881489,
				"element": "H" 
			},
			{
				"x": -2.6004816448,
				"y": 0.4262017933,
				"z": 4.6745396279,
				"element": "H" 
			},
			{
				"x": -4.7685333349,
				"y": 1.0809960731,
				"z": 3.6690943714,
				"element": "H" 
			},
			{
				"x": -4.8322466465,
				"y": 2.7574511348,
				"z": 1.8335924707,
				"element": "H" 
			},
			{
				"x": -2.7140738674,
				"y": 3.7702985892,
				"z": 1.0138751038,
				"element": "H" 
			},
			{
				"x": -0.5433810453,
				"y": 3.1110633503,
				"z": 2.0212670132,
				"element": "H" 
			},
			{
				"x": 3.7333618713,
				"y": -0.0530762695,
				"z": -1.2459917835,
				"element": "H" 
			},
			{
				"x": 3.8748081467,
				"y": -0.4047653616,
				"z": -3.7136659681,
				"element": "H" 
			},
			{
				"x": 2.4364063947,
				"y": 0.9287778801,
				"z": -5.2353652241,
				"element": "H" 
			},
			{
				"x": 0.8648595405,
				"y": 2.613370751,
				"z": -4.3117414826,
				"element": "H" 
			},
			{
				"x": 0.7268539273,
				"y": 2.9569547603,
				"z": -1.8375680851,
				"element": "H" 
			}
		],
		 "valence_orbital": [ 
			{
				"type": "occ",
				"energy": -0.25563,
				"method": "rhf"
			},
			{
				"type": "occ",
				"energy": -0.25045,
				"method": "rhf"
			},
			{
				"type": "occ",
				"energy": -0.24934,
				"method": "rhf"
			},
			{
				"type": "occ",
				"energy": -0.24441,
				"method": "rhf"
			},
			{
				"type": "occ",
				"energy": -0.24021,
				"method": "rhf"
			},
			{
				"type": "unocc",
				"energy": -0.03614,
				"method": "rhf"
			},
			{
				"type": "unocc",
				"energy": -0.01872,
				"method": "rhf"
			},
			{
				"type": "unocc",
				"energy": -0.00753,
				"method": "rhf"
			},
			{
				"type": "unocc",
				"energy": -0.00334,
				"method": "rhf"
			},
			{
				"type": "unocc",
				"energy": -0.00194,
				"method": "rhf"
			}
		],
		"cosmo_sigma_profile": { 
			"-0.025": 0.0,
			"-0.024": 0.0,
			"-0.023": 0.0,
			"-0.022": 0.0,
			"-0.021": 0.0,
			"-0.02": 0.0,
			"-0.019": 0.0,
			"-0.018": 0.0,
			"-0.017": 0.0,
			"-0.016": 0.0,
			"-0.015": 0.0,
			"-0.014": 0.0,
			"-0.013": 0.0,
			"-0.012": 0.0,
			"-0.011": 0.0,
			"-0.01": 0.0,
			"-0.009": 0.0,
			"-0.008": 0.0550595374947,
			"-0.007": 10.0965723005,
			"-0.006": 30.7439634501,
			"-0.005": 49.926781483,
			"-0.004": 43.3085320624,
			"-0.003": 40.2496196031,
			"-0.002": 30.1917818388,
			"-0.001": 26.2880843934,
			"0.0": 25.6521432669,
			"0.001": 25.3904742501,
			"0.002": 31.1528407382,
			"0.003": 30.0544531782,
			"0.004": 23.6663239418,
			"0.005": 21.5598545498,
			"0.006": 20.3092579538,
			"0.007": 7.29428476213,
			"0.008": 5.45530907644,
			"0.009": 5.79166517459,
			"0.01": 7.03830777816,
			"0.011": 7.35063066239,
			"0.012": 6.47645890758,
			"0.013": 0.626252681094,
			"0.014": 0.0,
			"0.015": 0.0,
			"0.016": 0.0,
			"0.017": 0.0,
			"0.018": 0.0,
			"0.019": 0.0,
			"0.02": 0.0,
			"0.021": 0.0,
			"0.022": 0.0,
			"0.023": 0.0,
			"0.024": 0.0,
			"0.025": 0.0
		}
	}
}
