{
	 "smiles": "OC(=O)C1=CC(Br)=CC2=C1OCC2", 
	 "Tm": 503.15, 
	 "num_atms": 20, 
	 "gaussian": { 
		 "optdone": 1, 
		 "sigma_profile": "yes", 
		 "theory": "DFT", 
		 "functional": "B3LYP", 
		 "basiset": "6-31G**", 
		 "properties": { 
			 "R2extent": 7341.9508, 
			 "electric_dipole_moment_norm": 7.3426096764, 
			 "electric_quadrupole_moment_norm": 11.8730589382, 
			 "total_energy": -3144.25950171, 
			 "HOMO_LUMO_gap": 0.17922, 
			 "cosmo_polarized_energy": -14.22, 
			 "cosmo_cavitation_energy": 26.31, 
			 "cosmo_dispersion_energy": -20.36, 
			 "cosmo_repulsion_energy": 1.62, 
			 "cosmo_total_nonelectrostatic_energy": 7.56, 
			 "SMD_solvation_energy": 4.46 
		},
		"coords": [
			{
				"x": -0.477980951,
				"y": -0.9741577363,
				"z": 1.3078008368,
				"element": "O" 
			},
			{
				"x": -1.5266788526,
				"y": -0.9359200488,
				"z": 0.459580135,
				"element": "C" 
			},
			{
				"x": -2.6507437171,
				"y": -0.7535233362,
				"z": 0.8699141296,
				"element": "O" 
			},
			{
				"x": -1.2311300276,
				"y": -1.1336618586,
				"z": -0.9995105929,
				"element": "C" 
			},
			{
				"x": -2.3077360616,
				"y": -1.1315038641,
				"z": -1.9040775543,
				"element": "C" 
			},
			{
				"x": -2.0929607587,
				"y": -1.3225714133,
				"z": -3.2629946721,
				"element": "C" 
			},
			{
				"x": -3.5822999275,
				"y": -1.321764596,
				"z": -4.4606920464,
				"element": "Br" 
			},
			{
				"x": -0.8054984495,
				"y": -1.5187107786,
				"z": -3.7850592831,
				"element": "C" 
			},
			{
				"x": 0.2640334068,
				"y": -1.5236613259,
				"z": -2.9026482544,
				"element": "C" 
			},
			{
				"x": 0.0409532544,
				"y": -1.3313780124,
				"z": -1.5388373063,
				"element": "C" 
			},
			{
				"x": 1.1969131305,
				"y": -1.3521339816,
				"z": -0.8023873248,
				"element": "O" 
			},
			{
				"x": 2.2755444512,
				"y": -1.8071679052,
				"z": -1.6736129983,
				"element": "C" 
			},
			{
				"x": 1.7553632734,
				"y": -1.6569867561,
				"z": -3.1226786083,
				"element": "C" 
			},
			{
				"x": 0.3555205568,
				"y": -1.1317576001,
				"z": 0.8291544165,
				"element": "H" 
			},
			{
				"x": -3.303000871,
				"y": -0.9820966769,
				"z": -1.5029748186,
				"element": "H" 
			},
			{
				"x": -0.6628167091,
				"y": -1.661591694,
				"z": -4.8505244917,
				"element": "H" 
			},
			{
				"x": 2.4852785136,
				"y": -2.8515875448,
				"z": -1.4203635699,
				"element": "H" 
			},
			{
				"x": 3.1520447521,
				"y": -1.1980491874,
				"z": -1.448469263,
				"element": "H" 
			},
			{
				"x": 2.1633505518,
				"y": -0.7618766114,
				"z": -3.6069962632,
				"element": "H" 
			},
			{
				"x": 2.027244435,
				"y": -2.5186990723,
				"z": -3.7389224709,
				"element": "H" 
			}
		],
		 "valence_orbital": [ 
			{
				"type": "occ",
				"energy": -0.2977,
				"method": "rhf"
			},
			{
				"type": "occ",
				"energy": -0.29275,
				"method": "rhf"
			},
			{
				"type": "occ",
				"energy": -0.27513,
				"method": "rhf"
			},
			{
				"type": "occ",
				"energy": -0.26972,
				"method": "rhf"
			},
			{
				"type": "occ",
				"energy": -0.23657,
				"method": "rhf"
			},
			{
				"type": "unocc",
				"energy": -0.05735,
				"method": "rhf"
			},
			{
				"type": "unocc",
				"energy": -0.01896,
				"method": "rhf"
			},
			{
				"type": "unocc",
				"energy": 0.00031,
				"method": "rhf"
			},
			{
				"type": "unocc",
				"energy": 0.04363,
				"method": "rhf"
			},
			{
				"type": "unocc",
				"energy": 0.06206,
				"method": "rhf"
			}
		],
		"cosmo_sigma_profile": { 
			"-0.025": 0.0,
			"-0.024": 0.0,
			"-0.023": 0.0,
			"-0.022": 0.0,
			"-0.021": 0.0,
			"-0.02": 0.0,
			"-0.019": 0.0,
			"-0.018": 0.0,
			"-0.017": 0.0,
			"-0.016": 0.0,
			"-0.015": 0.0,
			"-0.014": 0.0,
			"-0.013": 0.0,
			"-0.012": 0.0,
			"-0.011": 0.0,
			"-0.01": 0.50349314144,
			"-0.009": 0.645327376377,
			"-0.008": 2.14256228187,
			"-0.007": 8.18120442811,
			"-0.006": 19.4689040162,
			"-0.005": 17.6252918003,
			"-0.004": 17.8226462287,
			"-0.003": 14.2035718669,
			"-0.002": 12.3487419902,
			"-0.001": 12.4556594959,
			"0.0": 16.3753088394,
			"0.001": 19.4587441874,
			"0.002": 15.6287032461,
			"0.003": 9.73732638588,
			"0.004": 13.0386455906,
			"0.005": 7.43932673239,
			"0.006": 1.9620767273,
			"0.007": 2.32056985642,
			"0.008": 2.95968392435,
			"0.009": 2.64983354754,
			"0.01": 4.19027487467,
			"0.011": 5.62859029568,
			"0.012": 5.23719854156,
			"0.013": 1.93005682827,
			"0.014": 0.18501648724,
			"0.015": 0.0,
			"0.016": 0.0,
			"0.017": 0.0,
			"0.018": 0.0,
			"0.019": 0.0,
			"0.02": 0.0,
			"0.021": 0.0,
			"0.022": 0.0,
			"0.023": 0.0,
			"0.024": 0.0,
			"0.025": 0.0
		}
	}
}
