{
	 "smiles": "NC(=O)C1=C(Cl)C=C(C=C1Cl)C(F)(F)F", 
	 "Tm": 441.15, 
	 "num_atms": 19, 
	 "gaussian": { 
		 "optdone": 1, 
		 "sigma_profile": "yes", 
		 "theory": "DFT", 
		 "functional": "B3LYP", 
		 "basiset": "6-31G**", 
		 "properties": { 
			 "R2extent": 5033.1668, 
			 "electric_dipole_moment_norm": 3.46726665401, 
			 "electric_quadrupole_moment_norm": 15.3530989758, 
			 "total_energy": -1657.15535865, 
			 "HOMO_LUMO_gap": 0.2077, 
			 "cosmo_polarized_energy": -13.86, 
			 "cosmo_cavitation_energy": 29.61, 
			 "cosmo_dispersion_energy": -20.59, 
			 "cosmo_repulsion_energy": 1.59, 
			 "cosmo_total_nonelectrostatic_energy": 10.61, 
			 "SMD_solvation_energy": 6.41 
		},
		"coords": [
			{
				"x": -0.8158514285,
				"y": -2.0848898216,
				"z": 2.8477556907,
				"element": "N" 
			},
			{
				"x": -1.0788839054,
				"y": -1.1867151202,
				"z": 1.8620554296,
				"element": "C" 
			},
			{
				"x": -2.0417677111,
				"y": -0.4414846839,
				"z": 1.8505509664,
				"element": "O" 
			},
			{
				"x": -0.0584142938,
				"y": -1.1702137735,
				"z": 0.7327547183,
				"element": "C" 
			},
			{
				"x": 1.0370439703,
				"y": -0.2959163972,
				"z": 0.7549425673,
				"element": "C" 
			},
			{
				"x": 1.3184061172,
				"y": 0.7102319999,
				"z": 2.1621046869,
				"element": "Cl" 
			},
			{
				"x": 1.9256543283,
				"y": -0.199820479,
				"z": -0.3130574603,
				"element": "C" 
			},
			{
				"x": 1.7171770387,
				"y": -0.9947255165,
				"z": -1.4392886868,
				"element": "C" 
			},
			{
				"x": 0.6389735606,
				"y": -1.8764368807,
				"z": -1.5003263508,
				"element": "C" 
			},
			{
				"x": -0.2337578738,
				"y": -1.9518029733,
				"z": -0.4176288666,
				"element": "C" 
			},
			{
				"x": -1.5811330112,
				"y": -3.0682671413,
				"z": -0.5134564992,
				"element": "Cl" 
			},
			{
				"x": 2.7053177395,
				"y": -0.9458340264,
				"z": -2.5782998011,
				"element": "C" 
			},
			{
				"x": 2.1210163979,
				"y": -1.2429301508,
				"z": -3.7569971198,
				"element": "F" 
			},
			{
				"x": 3.7062588952,
				"y": -1.8352513449,
				"z": -2.3944595614,
				"element": "F" 
			},
			{
				"x": 3.2724306186,
				"y": 0.2725506008,
				"z": -2.6925917695,
				"element": "F" 
			},
			{
				"x": -1.4554479082,
				"y": -2.1432816832,
				"z": 3.6266014467,
				"element": "H" 
			},
			{
				"x": -0.0075343788,
				"y": -2.6851871727,
				"z": 2.8267319312,
				"element": "H" 
			},
			{
				"x": 2.7585003652,
				"y": 0.4908442918,
				"z": -0.2684735418,
				"element": "H" 
			},
			{
				"x": 0.4724114796,
				"y": -2.4882697272,
				"z": -2.3781177795,
				"element": "H" 
			}
		],
		 "valence_orbital": [ 
			{
				"type": "occ",
				"energy": -0.32884,
				"method": "rhf"
			},
			{
				"type": "occ",
				"energy": -0.29221,
				"method": "rhf"
			},
			{
				"type": "occ",
				"energy": -0.28477,
				"method": "rhf"
			},
			{
				"type": "occ",
				"energy": -0.2707,
				"method": "rhf"
			},
			{
				"type": "occ",
				"energy": -0.26427,
				"method": "rhf"
			},
			{
				"type": "unocc",
				"energy": -0.05657,
				"method": "rhf"
			},
			{
				"type": "unocc",
				"energy": -0.04495,
				"method": "rhf"
			},
			{
				"type": "unocc",
				"energy": -0.00678,
				"method": "rhf"
			},
			{
				"type": "unocc",
				"energy": 0.00765,
				"method": "rhf"
			},
			{
				"type": "unocc",
				"energy": 0.03475,
				"method": "rhf"
			}
		],
		"cosmo_sigma_profile": { 
			"-0.025": 0.0,
			"-0.024": 0.0,
			"-0.023": 0.0,
			"-0.022": 0.0,
			"-0.021": 0.0,
			"-0.02": 0.0,
			"-0.019": 0.0,
			"-0.018": 0.0,
			"-0.017": 0.0,
			"-0.016": 0.224233704691,
			"-0.015": 1.8147544327,
			"-0.014": 2.86725453654,
			"-0.013": 1.84657243553,
			"-0.012": 2.85892922174,
			"-0.011": 2.74517218046,
			"-0.01": 1.47083122334,
			"-0.009": 3.62321508551,
			"-0.008": 4.75492136045,
			"-0.007": 4.86936030248,
			"-0.006": 5.41183176284,
			"-0.005": 6.30061582367,
			"-0.004": 7.37137440566,
			"-0.003": 10.4754515023,
			"-0.002": 15.3449557429,
			"-0.001": 25.803964265,
			"0.0": 21.0744967042,
			"0.001": 19.0989298182,
			"0.002": 37.0348286116,
			"0.003": 33.5252626333,
			"0.004": 10.6968401843,
			"0.005": 3.3009376418,
			"0.006": 1.85045206429,
			"0.007": 1.38438450993,
			"0.008": 1.73283010018,
			"0.009": 1.23522073076,
			"0.01": 1.31758464131,
			"0.011": 2.40475614473,
			"0.012": 4.61335482717,
			"0.013": 4.58537748744,
			"0.014": 0.427076736895,
			"0.015": 0.0,
			"0.016": 0.0,
			"0.017": 0.0,
			"0.018": 0.0,
			"0.019": 0.0,
			"0.02": 0.0,
			"0.021": 0.0,
			"0.022": 0.0,
			"0.023": 0.0,
			"0.024": 0.0,
			"0.025": 0.0
		}
	}
}
