{
	 "smiles": "CC1=NC(=CC=C1)C1=NN=C(N)N1", 
	 "Tm": 480.15, 
	 "num_atms": 22, 
	 "gaussian": { 
		 "optdone": 1, 
		 "sigma_profile": "yes", 
		 "theory": "DFT", 
		 "functional": "B3LYP", 
		 "basiset": "6-31G**", 
		 "properties": { 
			 "R2extent": 2939.5161, 
			 "electric_dipole_moment_norm": 4.52741156733, 
			 "electric_quadrupole_moment_norm": 16.0257940692, 
			 "total_energy": -584.031104637, 
			 "HOMO_LUMO_gap": 0.16803, 
			 "cosmo_polarized_energy": -20.12, 
			 "cosmo_cavitation_energy": 26.82, 
			 "cosmo_dispersion_energy": -20.0, 
			 "cosmo_repulsion_energy": 1.6, 
			 "cosmo_total_nonelectrostatic_energy": 8.42, 
			 "SMD_solvation_energy": 1.47 
		},
		"coords": [
			{
				"x": -0.2377146507,
				"y": 0.9414180212,
				"z": -4.0846065607,
				"element": "C" 
			},
			{
				"x": -0.2585176953,
				"y": -0.0680494077,
				"z": -2.9625465607,
				"element": "C" 
			},
			{
				"x": 0.1446282334,
				"y": 0.3541509752,
				"z": -1.7558698412,
				"element": "N" 
			},
			{
				"x": 0.1377296671,
				"y": -0.5222318199,
				"z": -0.7310253916,
				"element": "C" 
			},
			{
				"x": -0.2701290525,
				"y": -1.8544792618,
				"z": -0.8601162549,
				"element": "C" 
			},
			{
				"x": -0.6870571747,
				"y": -2.2852514228,
				"z": -2.1154848927,
				"element": "C" 
			},
			{
				"x": -0.683099528,
				"y": -1.3870389654,
				"z": -3.1813469177,
				"element": "C" 
			},
			{
				"x": 0.586802907,
				"y": 0.0097828132,
				"z": 0.5523685163,
				"element": "C" 
			},
			{
				"x": 0.670719541,
				"y": -0.6167122746,
				"z": 1.704660467,
				"element": "N" 
			},
			{
				"x": 1.1564341726,
				"y": 0.278528112,
				"z": 2.636101992,
				"element": "N" 
			},
			{
				"x": 1.3359358543,
				"y": 1.4285961844,
				"z": 2.0132792413,
				"element": "C" 
			},
			{
				"x": 1.7379653028,
				"y": 2.6157263773,
				"z": 2.6050164474,
				"element": "N" 
			},
			{
				"x": 0.9965028097,
				"y": 1.316198953,
				"z": 0.6973586273,
				"element": "N" 
			},
			{
				"x": 0.4163083778,
				"y": 0.6139608302,
				"z": -4.9006676776,
				"element": "H" 
			},
			{
				"x": 0.1224513889,
				"y": 1.90193294,
				"z": -3.7125262474,
				"element": "H" 
			},
			{
				"x": -1.2380938968,
				"y": 1.0830680895,
				"z": -4.5089498901,
				"element": "H" 
			},
			{
				"x": -0.2521877311,
				"y": -2.5065725564,
				"z": 0.0054261088,
				"element": "H" 
			},
			{
				"x": -1.0122675631,
				"y": -3.311198633,
				"z": -2.2627829058,
				"element": "H" 
			},
			{
				"x": -1.003755296,
				"y": -1.6966031205,
				"z": -4.1715299977,
				"element": "H" 
			},
			{
				"x": 2.4852375058,
				"y": 3.0953677851,
				"z": 2.1157239981,
				"element": "H" 
			},
			{
				"x": 1.9885414231,
				"y": 2.4527215783,
				"z": 3.5734502283,
				"element": "H" 
			},
			{
				"x": 0.9630654049,
				"y": 2.0084848029,
				"z": -0.0366324884,
				"element": "H" 
			}
		],
		 "valence_orbital": [ 
			{
				"type": "occ",
				"energy": -0.28631,
				"method": "rhf"
			},
			{
				"type": "occ",
				"energy": -0.26676,
				"method": "rhf"
			},
			{
				"type": "occ",
				"energy": -0.26549,
				"method": "rhf"
			},
			{
				"type": "occ",
				"energy": -0.24542,
				"method": "rhf"
			},
			{
				"type": "occ",
				"energy": -0.20881,
				"method": "rhf"
			},
			{
				"type": "unocc",
				"energy": -0.04078,
				"method": "rhf"
			},
			{
				"type": "unocc",
				"energy": -0.0186,
				"method": "rhf"
			},
			{
				"type": "unocc",
				"energy": 0.05186,
				"method": "rhf"
			},
			{
				"type": "unocc",
				"energy": 0.07005,
				"method": "rhf"
			},
			{
				"type": "unocc",
				"energy": 0.07441,
				"method": "rhf"
			}
		],
		"cosmo_sigma_profile": { 
			"-0.025": 0.0,
			"-0.024": 0.0,
			"-0.023": 0.0,
			"-0.022": 0.0,
			"-0.021": 0.0,
			"-0.02": 0.0,
			"-0.019": 0.0,
			"-0.018": 0.0,
			"-0.017": 0.00400591853008,
			"-0.016": 0.833824102473,
			"-0.015": 1.22839441076,
			"-0.014": 3.24534852977,
			"-0.013": 3.85162967069,
			"-0.012": 3.1962829418,
			"-0.011": 3.261471567,
			"-0.01": 3.00494748057,
			"-0.009": 2.64409722386,
			"-0.008": 1.81349179848,
			"-0.007": 5.37243507942,
			"-0.006": 7.20523869079,
			"-0.005": 11.016058079,
			"-0.004": 13.71484945,
			"-0.003": 13.4877101235,
			"-0.002": 12.0291049346,
			"-0.001": 13.8519750565,
			"0.0": 20.1771848989,
			"0.001": 16.7824926486,
			"0.002": 17.8799332447,
			"0.003": 11.3647368452,
			"0.004": 5.88542988702,
			"0.005": 5.08240065281,
			"0.006": 4.90460324162,
			"0.007": 4.65783351384,
			"0.008": 3.06845470516,
			"0.009": 2.60288820529,
			"0.01": 1.85539828093,
			"0.011": 2.90296970019,
			"0.012": 3.24385009804,
			"0.013": 3.00317526663,
			"0.014": 3.8473525296,
			"0.015": 3.04879219369,
			"0.016": 2.28520981907,
			"0.017": 1.51958592997,
			"0.018": 0.144747911987,
			"0.019": 0.0,
			"0.02": 0.0,
			"0.021": 0.0,
			"0.022": 0.0,
			"0.023": 0.0,
			"0.024": 0.0,
			"0.025": 0.0
		}
	}
}
