{
	 "smiles": "OC1=C(O)C=C(C=C1)C1=NN2C(SC1)=NN=C2C1=CC=C(Br)C=C1", 
	 "Tm": 543.15, 
	 "num_atms": 35, 
	 "gaussian": { 
		 "optdone": 1, 
		 "sigma_profile": "yes", 
		 "theory": "DFT", 
		 "functional": "B3LYP", 
		 "basiset": "6-31G**", 
		 "properties": { 
			 "R2extent": 14861.0577, 
			 "electric_dipole_moment_norm": 6.52405653792, 
			 "electric_quadrupole_moment_norm": 18.6530552905, 
			 "total_energy": -3955.31189179, 
			 "HOMO_LUMO_gap": 0.1434, 
			 "cosmo_polarized_energy": -24.2, 
			 "cosmo_cavitation_energy": 44.15, 
			 "cosmo_dispersion_energy": -32.55, 
			 "cosmo_repulsion_energy": 2.38, 
			 "cosmo_total_nonelectrostatic_energy": 13.97, 
			 "SMD_solvation_energy": 3.72 
		},
		"coords": [
			{
				"x": 2.9015834003,
				"y": 4.4431009993,
				"z": 2.1082653435,
				"element": "O" 
			},
			{
				"x": 1.8403434669,
				"y": 3.8381690121,
				"z": 1.5247283642,
				"element": "C" 
			},
			{
				"x": 2.0091775363,
				"y": 2.6320688115,
				"z": 0.8105758325,
				"element": "C" 
			},
			{
				"x": 3.3015582562,
				"y": 2.1718714854,
				"z": 0.7711677199,
				"element": "O" 
			},
			{
				"x": 0.9298485437,
				"y": 2.0125686715,
				"z": 0.2088068547,
				"element": "C" 
			},
			{
				"x": -0.360645635,
				"y": 2.5798064316,
				"z": 0.2926925867,
				"element": "C" 
			},
			{
				"x": -0.5175162049,
				"y": 3.7805545341,
				"z": 1.0021321933,
				"element": "C" 
			},
			{
				"x": 0.5704306416,
				"y": 4.400276716,
				"z": 1.6162013164,
				"element": "C" 
			},
			{
				"x": -1.4952000401,
				"y": 1.8911557396,
				"z": -0.3540699979,
				"element": "C" 
			},
			{
				"x": -1.3591152031,
				"y": 0.6231738491,
				"z": -0.58408258,
				"element": "N" 
			},
			{
				"x": -2.3975707373,
				"y": -0.0288382308,
				"z": -1.2093856939,
				"element": "N" 
			},
			{
				"x": -3.732324918,
				"y": 0.3263794408,
				"z": -1.2648797312,
				"element": "C" 
			},
			{
				"x": -4.2838283249,
				"y": 1.8049671061,
				"z": -0.5080290841,
				"element": "S" 
			},
			{
				"x": -2.6997647511,
				"y": 2.6873095532,
				"z": -0.8123837485,
				"element": "C" 
			},
			{
				"x": -4.4371593314,
				"y": -0.6044589905,
				"z": -1.8553394,
				"element": "N" 
			},
			{
				"x": -3.5603003482,
				"y": -1.6125897247,
				"z": -2.2034133864,
				"element": "N" 
			},
			{
				"x": -2.346661025,
				"y": -1.2808383555,
				"z": -1.8106331349,
				"element": "C" 
			},
			{
				"x": -1.159622843,
				"y": -2.1120627052,
				"z": -2.0414362708,
				"element": "C" 
			},
			{
				"x": 0.01265027,
				"y": -2.0195014422,
				"z": -1.2737335697,
				"element": "C" 
			},
			{
				"x": 1.0897716563,
				"y": -2.8695047431,
				"z": -1.5204551008,
				"element": "C" 
			},
			{
				"x": 0.9975389719,
				"y": -3.8178225597,
				"z": -2.5368208079,
				"element": "C" 
			},
			{
				"x": 2.4786472569,
				"y": -4.974945106,
				"z": -2.8803960072,
				"element": "Br" 
			},
			{
				"x": -0.1607982537,
				"y": -3.9357187366,
				"z": -3.3053055266,
				"element": "C" 
			},
			{
				"x": -1.2323802931,
				"y": -3.0853052232,
				"z": -3.0542336434,
				"element": "C" 
			},
			{
				"x": 3.6864192438,
				"y": 3.9005577061,
				"z": 1.9343222924,
				"element": "H" 
			},
			{
				"x": 3.3488245435,
				"y": 1.3483790568,
				"z": 0.2697159776,
				"element": "H" 
			},
			{
				"x": 1.0671924313,
				"y": 1.0910859125,
				"z": -0.3484813566,
				"element": "H" 
			},
			{
				"x": -1.4954325638,
				"y": 4.2338524479,
				"z": 1.1174231398,
				"element": "H" 
			},
			{
				"x": 0.4495439469,
				"y": 5.3222429333,
				"z": 2.1743265775,
				"element": "H" 
			},
			{
				"x": -2.77591738,
				"y": 3.64639785,
				"z": -0.3045160582,
				"element": "H" 
			},
			{
				"x": -2.6036536402,
				"y": 2.8881435098,
				"z": -1.8861601758,
				"element": "H" 
			},
			{
				"x": 0.0747808801,
				"y": -1.2902631978,
				"z": -0.4762585391,
				"element": "H" 
			},
			{
				"x": 1.9906545404,
				"y": -2.8019690915,
				"z": -0.921004688,
				"element": "H" 
			},
			{
				"x": -0.2220915609,
				"y": -4.6803002266,
				"z": -4.090649778,
				"element": "H" 
			},
			{
				"x": -2.1433825321,
				"y": -3.1658434336,
				"z": -3.6366899196,
				"element": "H" 
			}
		],
		 "valence_orbital": [ 
			{
				"type": "occ",
				"energy": -0.26336,
				"method": "rhf"
			},
			{
				"type": "occ",
				"energy": -0.25915,
				"method": "rhf"
			},
			{
				"type": "occ",
				"energy": -0.25535,
				"method": "rhf"
			},
			{
				"type": "occ",
				"energy": -0.22996,
				"method": "rhf"
			},
			{
				"type": "occ",
				"energy": -0.22229,
				"method": "rhf"
			},
			{
				"type": "unocc",
				"energy": -0.07889,
				"method": "rhf"
			},
			{
				"type": "unocc",
				"energy": -0.03746,
				"method": "rhf"
			},
			{
				"type": "unocc",
				"energy": -0.0183,
				"method": "rhf"
			},
			{
				"type": "unocc",
				"energy": -0.01744,
				"method": "rhf"
			},
			{
				"type": "unocc",
				"energy": -0.00349,
				"method": "rhf"
			}
		],
		"cosmo_sigma_profile": { 
			"-0.025": 0.0,
			"-0.024": 0.0,
			"-0.023": 0.0,
			"-0.022": 0.0,
			"-0.021": 0.0,
			"-0.02": 0.0,
			"-0.019": 0.385728134666,
			"-0.018": 1.16475117757,
			"-0.017": 1.22305223904,
			"-0.016": 0.95860955652,
			"-0.015": 1.47060666331,
			"-0.014": 1.3110561876,
			"-0.013": 1.63992162092,
			"-0.012": 1.2751891169,
			"-0.011": 3.22046704268,
			"-0.01": 4.70510959648,
			"-0.009": 6.34537901761,
			"-0.008": 6.07151129941,
			"-0.007": 12.6979895767,
			"-0.006": 14.5693279745,
			"-0.005": 16.6084138625,
			"-0.004": 15.7728026136,
			"-0.003": 16.9305285023,
			"-0.002": 22.2612203805,
			"-0.001": 22.4052684619,
			"0.0": 26.3441404106,
			"0.001": 30.6643203888,
			"0.002": 40.013079054,
			"0.003": 35.6739443462,
			"0.004": 26.7197638032,
			"0.005": 13.308647491,
			"0.006": 6.77422786872,
			"0.007": 4.67775852,
			"0.008": 3.04048390103,
			"0.009": 3.16997991116,
			"0.01": 4.60363501911,
			"0.011": 3.7692066855,
			"0.012": 3.15658574222,
			"0.013": 3.00385996885,
			"0.014": 2.50432429976,
			"0.015": 2.25139053056,
			"0.016": 0.683645902724,
			"0.017": 0.0,
			"0.018": 0.0,
			"0.019": 0.0,
			"0.02": 0.0,
			"0.021": 0.0,
			"0.022": 0.0,
			"0.023": 0.0,
			"0.024": 0.0,
			"0.025": 0.0
		}
	}
}
