{
	 "smiles": "COC(=N)C1=CC(O)C(O)C(CO)O1", 
	 "Tm": 469.15, 
	 "num_atms": 27, 
	 "gaussian": { 
		 "optdone": 1, 
		 "sigma_profile": "yes", 
		 "theory": "DFT", 
		 "functional": "B3LYP", 
		 "basiset": "6-31G**", 
		 "properties": { 
			 "R2extent": 3124.5576, 
			 "electric_dipole_moment_norm": 1.81344364677, 
			 "electric_quadrupole_moment_norm": 12.982475482, 
			 "total_energy": -743.487196033, 
			 "HOMO_LUMO_gap": 0.20633, 
			 "cosmo_polarized_energy": -19.31, 
			 "cosmo_cavitation_energy": 29.23, 
			 "cosmo_dispersion_energy": -21.49, 
			 "cosmo_repulsion_energy": 1.72, 
			 "cosmo_total_nonelectrostatic_energy": 9.47, 
			 "SMD_solvation_energy": 5.08 
		},
		"coords": [
			{
				"x": -3.73203217,
				"y": 1.4326989484,
				"z": -0.6289524545,
				"element": "C" 
			},
			{
				"x": -2.307209692,
				"y": 1.3031250408,
				"z": -0.5518139105,
				"element": "O" 
			},
			{
				"x": -1.8476248397,
				"y": 0.1224521033,
				"z": -0.097169205,
				"element": "C" 
			},
			{
				"x": -2.6340941555,
				"y": -0.8075442433,
				"z": 0.2782515883,
				"element": "N" 
			},
			{
				"x": -0.3496491495,
				"y": 0.094939788,
				"z": -0.0870191522,
				"element": "C" 
			},
			{
				"x": 0.3532189281,
				"y": -0.5444865661,
				"z": 0.8671498305,
				"element": "C" 
			},
			{
				"x": 1.8485957684,
				"y": -0.4905740249,
				"z": 0.9273507345,
				"element": "C" 
			},
			{
				"x": 2.3918407177,
				"y": -1.8056081576,
				"z": 0.6448194553,
				"element": "O" 
			},
			{
				"x": 2.3831354132,
				"y": 0.5731871554,
				"z": -0.0537264768,
				"element": "C" 
			},
			{
				"x": 2.3064595952,
				"y": 1.8668652741,
				"z": 0.5270635335,
				"element": "O" 
			},
			{
				"x": 1.6052759459,
				"y": 0.5314317113,
				"z": -1.3729470575,
				"element": "C" 
			},
			{
				"x": 1.7168377446,
				"y": -0.7924845458,
				"z": -2.1671504136,
				"element": "C" 
			},
			{
				"x": 3.0069450833,
				"y": -1.3650568259,
				"z": -2.0989439741,
				"element": "O" 
			},
			{
				"x": 0.2049568796,
				"y": 0.8062018866,
				"z": -1.1107915465,
				"element": "O" 
			},
			{
				"x": -4.1842056378,
				"y": 1.334773623,
				"z": 0.3618734335,
				"element": "H" 
			},
			{
				"x": -4.1548434003,
				"y": 0.6623991487,
				"z": -1.279530148,
				"element": "H" 
			},
			{
				"x": -3.911954116,
				"y": 2.4271237192,
				"z": -1.0386051756,
				"element": "H" 
			},
			{
				"x": -2.1073597281,
				"y": -1.6358488877,
				"z": 0.5507589188,
				"element": "H" 
			},
			{
				"x": -0.1800170282,
				"y": -1.0702018496,
				"z": 1.6509341451,
				"element": "H" 
			},
			{
				"x": 2.1601429256,
				"y": -0.1855698431,
				"z": 1.9346093932,
				"element": "H" 
			},
			{
				"x": 3.2244698418,
				"y": -1.8852011366,
				"z": 1.1301592597,
				"element": "H" 
			},
			{
				"x": 3.4389851344,
				"y": 0.3814110072,
				"z": -0.2623247857,
				"element": "H" 
			},
			{
				"x": 1.3895509693,
				"y": 2.1672564441,
				"z": 0.4505030895,
				"element": "H" 
			},
			{
				"x": 1.9325925335,
				"y": 1.3766011357,
				"z": -1.983831186,
				"element": "H" 
			},
			{
				"x": 1.5007016759,
				"y": -0.5887724742,
				"z": -3.2199981344,
				"element": "H" 
			},
			{
				"x": 0.9482126228,
				"y": -1.48574742,
				"z": -1.8011838261,
				"element": "H" 
			},
			{
				"x": 3.0397681378,
				"y": -1.790971011,
				"z": -1.2249859352,
				"element": "H" 
			}
		],
		 "valence_orbital": [ 
			{
				"type": "occ",
				"energy": -0.28784,
				"method": "rhf"
			},
			{
				"type": "occ",
				"energy": -0.27414,
				"method": "rhf"
			},
			{
				"type": "occ",
				"energy": -0.27016,
				"method": "rhf"
			},
			{
				"type": "occ",
				"energy": -0.26649,
				"method": "rhf"
			},
			{
				"type": "occ",
				"energy": -0.23866,
				"method": "rhf"
			},
			{
				"type": "unocc",
				"energy": -0.03233,
				"method": "rhf"
			},
			{
				"type": "unocc",
				"energy": 0.04384,
				"method": "rhf"
			},
			{
				"type": "unocc",
				"energy": 0.06274,
				"method": "rhf"
			},
			{
				"type": "unocc",
				"energy": 0.08247,
				"method": "rhf"
			},
			{
				"type": "unocc",
				"energy": 0.0973,
				"method": "rhf"
			}
		],
		"cosmo_sigma_profile": { 
			"-0.025": 0.0,
			"-0.024": 0.0,
			"-0.023": 0.0,
			"-0.022": 0.0,
			"-0.021": 0.0,
			"-0.02": 0.0,
			"-0.019": 0.267311564351,
			"-0.018": 0.185575211798,
			"-0.017": 0.591577181841,
			"-0.016": 1.75051880751,
			"-0.015": 1.91221489154,
			"-0.014": 1.01617489326,
			"-0.013": 2.21548578975,
			"-0.012": 1.95115902978,
			"-0.011": 2.42121423421,
			"-0.01": 2.86417582951,
			"-0.009": 4.15702200074,
			"-0.008": 4.2934876575,
			"-0.007": 5.95798463555,
			"-0.006": 11.1011604353,
			"-0.005": 17.0246396497,
			"-0.004": 17.6229612642,
			"-0.003": 20.4899286731,
			"-0.002": 16.1555780264,
			"-0.001": 13.1528462863,
			"0.0": 11.7423892437,
			"0.001": 10.2173952902,
			"0.002": 8.4402624304,
			"0.003": 7.26518459826,
			"0.004": 7.23419395801,
			"0.005": 5.83783766391,
			"0.006": 6.07316136094,
			"0.007": 5.53285048255,
			"0.008": 6.345005707,
			"0.009": 5.07952895546,
			"0.01": 5.2268214338,
			"0.011": 5.63386371002,
			"0.012": 6.35243459351,
			"0.013": 5.27842046556,
			"0.014": 4.8079816402,
			"0.015": 1.71847871405,
			"0.016": 0.431317615023,
			"0.017": 0.0,
			"0.018": 0.0,
			"0.019": 0.0,
			"0.02": 0.0,
			"0.021": 0.0,
			"0.022": 0.0,
			"0.023": 0.0,
			"0.024": 0.0,
			"0.025": 0.0
		}
	}
}
