{
	 "smiles": "COC(=O)C1=CC(Cl)=C(C=C1)S(Cl)(=O)=O", 
	 "Tm": 338.15, 
	 "num_atms": 21, 
	 "gaussian": { 
		 "optdone": 1, 
		 "sigma_profile": "yes", 
		 "theory": "DFT", 
		 "functional": "B3LYP", 
		 "basiset": "6-31G**", 
		 "properties": { 
			 "R2extent": 6796.8272, 
			 "electric_dipole_moment_norm": 5.38280298265, 
			 "electric_quadrupole_moment_norm": 14.2858380402, 
			 "total_energy": -1927.8583343, 
			 "HOMO_LUMO_gap": 0.18843, 
			 "cosmo_polarized_energy": -11.58, 
			 "cosmo_cavitation_energy": 31.38, 
			 "cosmo_dispersion_energy": -23.48, 
			 "cosmo_repulsion_energy": 1.78, 
			 "cosmo_total_nonelectrostatic_energy": 9.68, 
			 "SMD_solvation_energy": 5.55 
		},
		"coords": [
			{
				"x": 3.0670785813,
				"y": 2.4165874548,
				"z": -0.5396153077,
				"element": "C" 
			},
			{
				"x": 1.9926521001,
				"y": 1.4628941506,
				"z": -0.4432862405,
				"element": "O" 
			},
			{
				"x": 1.8299820734,
				"y": 0.8979532779,
				"z": 0.7675967617,
				"element": "C" 
			},
			{
				"x": 2.5208108401,
				"y": 1.1499887392,
				"z": 1.7333008848,
				"element": "O" 
			},
			{
				"x": 0.6965810428,
				"y": -0.0802621827,
				"z": 0.7903238335,
				"element": "C" 
			},
			{
				"x": -0.0769040979,
				"y": -0.3439298367,
				"z": -0.3434995035,
				"element": "C" 
			},
			{
				"x": -1.1233734201,
				"y": -1.2620763806,
				"z": -0.2797166818,
				"element": "C" 
			},
			{
				"x": -2.0498564444,
				"y": -1.5454137152,
				"z": -1.7294428542,
				"element": "Cl" 
			},
			{
				"x": -1.395651814,
				"y": -1.9213924383,
				"z": 0.9330672384,
				"element": "C" 
			},
			{
				"x": -0.6204694655,
				"y": -1.6550670394,
				"z": 2.0635018362,
				"element": "C" 
			},
			{
				"x": 0.4225566303,
				"y": -0.7372372985,
				"z": 1.9923674088,
				"element": "C" 
			},
			{
				"x": -2.7697426595,
				"y": -3.1092833893,
				"z": 0.9667141062,
				"element": "S" 
			},
			{
				"x": -2.7520888268,
				"y": -3.8048546099,
				"z": 2.9873160474,
				"element": "Cl" 
			},
			{
				"x": -2.4220962473,
				"y": -4.2615902558,
				"z": 0.1495610831,
				"element": "O" 
			},
			{
				"x": -4.0240985487,
				"y": -2.3897213551,
				"z": 0.8079019525,
				"element": "O" 
			},
			{
				"x": 2.9036970243,
				"y": 3.2449089483,
				"z": 0.1535508451,
				"element": "H" 
			},
			{
				"x": 4.0214215821,
				"y": 1.9392852983,
				"z": -0.3057290988,
				"element": "H" 
			},
			{
				"x": 3.0540815247,
				"y": 2.7681051104,
				"z": -1.5705676322,
				"element": "H" 
			},
			{
				"x": 0.1312802323,
				"y": 0.1624839241,
				"z": -1.2774087016,
				"element": "H" 
			},
			{
				"x": -0.830978802,
				"y": -2.1626595906,
				"z": 2.9951846006,
				"element": "H" 
			},
			{
				"x": 1.0325186945,
				"y": -0.5206188114,
				"z": 2.8617794221,
				"element": "H" 
			}
		],
		 "valence_orbital": [ 
			{
				"type": "occ",
				"energy": -0.32669,
				"method": "rhf"
			},
			{
				"type": "occ",
				"energy": -0.32184,
				"method": "rhf"
			},
			{
				"type": "occ",
				"energy": -0.30204,
				"method": "rhf"
			},
			{
				"type": "occ",
				"energy": -0.30098,
				"method": "rhf"
			},
			{
				"type": "occ",
				"energy": -0.28279,
				"method": "rhf"
			},
			{
				"type": "unocc",
				"energy": -0.09436,
				"method": "rhf"
			},
			{
				"type": "unocc",
				"energy": -0.09075,
				"method": "rhf"
			},
			{
				"type": "unocc",
				"energy": -0.05117,
				"method": "rhf"
			},
			{
				"type": "unocc",
				"energy": -0.00618,
				"method": "rhf"
			},
			{
				"type": "unocc",
				"energy": 0.01066,
				"method": "rhf"
			}
		],
		"cosmo_sigma_profile": { 
			"-0.025": 0.0,
			"-0.024": 0.0,
			"-0.023": 0.0,
			"-0.022": 0.0,
			"-0.021": 0.0,
			"-0.02": 0.0,
			"-0.019": 0.0,
			"-0.018": 0.0,
			"-0.017": 0.0,
			"-0.016": 0.0,
			"-0.015": 0.0,
			"-0.014": 0.0,
			"-0.013": 0.0,
			"-0.012": 0.0,
			"-0.011": 0.0,
			"-0.01": 0.0529640474825,
			"-0.009": 1.28612947468,
			"-0.008": 4.49458248852,
			"-0.007": 7.48043627445,
			"-0.006": 11.7363653872,
			"-0.005": 15.084552828,
			"-0.004": 20.0212673955,
			"-0.003": 20.8973916925,
			"-0.002": 30.0597286708,
			"-0.001": 24.2042451988,
			"0.0": 17.4120440682,
			"0.001": 15.0858029165,
			"0.002": 18.7738343107,
			"0.003": 19.3144103832,
			"0.004": 8.10713676284,
			"0.005": 4.61974603428,
			"0.006": 5.33843084831,
			"0.007": 11.8328709156,
			"0.008": 11.5461640148,
			"0.009": 2.64968131936,
			"0.01": 2.43175307437,
			"0.011": 4.2397671977,
			"0.012": 0.42787126707,
			"0.013": 0.0,
			"0.014": 0.0,
			"0.015": 0.0,
			"0.016": 0.0,
			"0.017": 0.0,
			"0.018": 0.0,
			"0.019": 0.0,
			"0.02": 0.0,
			"0.021": 0.0,
			"0.022": 0.0,
			"0.023": 0.0,
			"0.024": 0.0,
			"0.025": 0.0
		}
	}
}
