{
	 "smiles": "CC(=O)NC1=CC=CC2=CC=CC=C12", 
	 "Tm": 431.15, 
	 "num_atms": 25, 
	 "gaussian": { 
		 "optdone": 1, 
		 "sigma_profile": "yes", 
		 "theory": "DFT", 
		 "functional": "B3LYP", 
		 "basiset": "6-31G**", 
		 "properties": { 
			 "R2extent": 3112.6727, 
			 "electric_dipole_moment_norm": 3.27055912192, 
			 "electric_quadrupole_moment_norm": 12.3270776099, 
			 "total_energy": -593.912158627, 
			 "HOMO_LUMO_gap": 0.16204, 
			 "cosmo_polarized_energy": -12.76, 
			 "cosmo_cavitation_energy": 28.35, 
			 "cosmo_dispersion_energy": -21.13, 
			 "cosmo_repulsion_energy": 1.63, 
			 "cosmo_total_nonelectrostatic_energy": 8.85, 
			 "SMD_solvation_energy": 5.3 
		},
		"coords": [
			{
				"x": 1.1203833462,
				"y": 3.5956257529,
				"z": 1.4877980519,
				"element": "C" 
			},
			{
				"x": -0.0209393829,
				"y": 2.9090047662,
				"z": 0.7486409624,
				"element": "C" 
			},
			{
				"x": -1.0246295416,
				"y": 3.5225554279,
				"z": 0.4170113862,
				"element": "O" 
			},
			{
				"x": 0.1860556245,
				"y": 1.5651019895,
				"z": 0.5121795264,
				"element": "N" 
			},
			{
				"x": -0.6753667826,
				"y": 0.6304423271,
				"z": -0.1019476355,
				"element": "C" 
			},
			{
				"x": -2.0031838483,
				"y": 0.9194051577,
				"z": -0.3702154243,
				"element": "C" 
			},
			{
				"x": -2.8436871543,
				"y": -0.0587621464,
				"z": -0.9455200905,
				"element": "C" 
			},
			{
				"x": -2.3745826206,
				"y": -1.3160462567,
				"z": -1.2412917857,
				"element": "C" 
			},
			{
				"x": -1.0158561557,
				"y": -1.645373136,
				"z": -0.9949177182,
				"element": "C" 
			},
			{
				"x": -0.5046380943,
				"y": -2.9352394816,
				"z": -1.3025025536,
				"element": "C" 
			},
			{
				"x": 0.8167632297,
				"y": -3.2521628673,
				"z": -1.088592679,
				"element": "C" 
			},
			{
				"x": 1.6949335652,
				"y": -2.2765948761,
				"z": -0.5642392644,
				"element": "C" 
			},
			{
				"x": 1.2307239235,
				"y": -1.0177768022,
				"z": -0.2497063821,
				"element": "C" 
			},
			{
				"x": -0.1338861698,
				"y": -0.6607885378,
				"z": -0.435238038,
				"element": "C" 
			},
			{
				"x": 0.7793047656,
				"y": 3.8654963665,
				"z": 2.4920862206,
				"element": "H" 
			},
			{
				"x": 2.0273920721,
				"y": 2.9907378346,
				"z": 1.5762073944,
				"element": "H" 
			},
			{
				"x": 1.3601062043,
				"y": 4.524084755,
				"z": 0.9646658797,
				"element": "H" 
			},
			{
				"x": 1.0453160381,
				"y": 1.1885620536,
				"z": 0.8783017705,
				"element": "H" 
			},
			{
				"x": -2.3838687919,
				"y": 1.9024304463,
				"z": -0.1338061154,
				"element": "H" 
			},
			{
				"x": -3.8808372664,
				"y": 0.1972919035,
				"z": -1.1415436694,
				"element": "H" 
			},
			{
				"x": -3.0283202224,
				"y": -2.0697998319,
				"z": -1.671082542,
				"element": "H" 
			},
			{
				"x": -1.1862198023,
				"y": -3.672396957,
				"z": -1.7190783592,
				"element": "H" 
			},
			{
				"x": 1.1900459485,
				"y": -4.2428595615,
				"z": -1.3304196904,
				"element": "H" 
			},
			{
				"x": 2.7437331715,
				"y": -2.516890062,
				"z": -0.4167212665,
				"element": "H" 
			},
			{
				"x": 1.9491579439,
				"y": -0.2886482644,
				"z": 0.114032022,
				"element": "H" 
			}
		],
		 "valence_orbital": [ 
			{
				"type": "occ",
				"energy": -0.30808,
				"method": "rhf"
			},
			{
				"type": "occ",
				"energy": -0.26251,
				"method": "rhf"
			},
			{
				"type": "occ",
				"energy": -0.25259,
				"method": "rhf"
			},
			{
				"type": "occ",
				"energy": -0.24437,
				"method": "rhf"
			},
			{
				"type": "occ",
				"energy": -0.20382,
				"method": "rhf"
			},
			{
				"type": "unocc",
				"energy": -0.04178,
				"method": "rhf"
			},
			{
				"type": "unocc",
				"energy": -0.01005,
				"method": "rhf"
			},
			{
				"type": "unocc",
				"energy": 0.00959,
				"method": "rhf"
			},
			{
				"type": "unocc",
				"energy": 0.05433,
				"method": "rhf"
			},
			{
				"type": "unocc",
				"energy": 0.05856,
				"method": "rhf"
			}
		],
		"cosmo_sigma_profile": { 
			"-0.025": 0.0,
			"-0.024": 0.0,
			"-0.023": 0.0,
			"-0.022": 0.0,
			"-0.021": 0.0,
			"-0.02": 0.0,
			"-0.019": 0.0,
			"-0.018": 0.0,
			"-0.017": 0.0,
			"-0.016": 0.063098789241,
			"-0.015": 0.939412087777,
			"-0.014": 0.769625782575,
			"-0.013": 1.38600259258,
			"-0.012": 1.41159491748,
			"-0.011": 0.942797495171,
			"-0.01": 1.67382186952,
			"-0.009": 1.4889381497,
			"-0.008": 1.68049257428,
			"-0.007": 2.79394979791,
			"-0.006": 12.5701343648,
			"-0.005": 18.4735779421,
			"-0.004": 17.4311688954,
			"-0.003": 18.9763020603,
			"-0.002": 16.2248669131,
			"-0.001": 15.6790025049,
			"0.0": 10.941742065,
			"0.001": 10.7463262197,
			"0.002": 14.9009166004,
			"0.003": 16.4765557,
			"0.004": 23.8413104412,
			"0.005": 17.8240053015,
			"0.006": 3.40437736222,
			"0.007": 2.12147539377,
			"0.008": 1.43859168648,
			"0.009": 1.47095793219,
			"0.01": 1.82326735182,
			"0.011": 1.59222699655,
			"0.012": 2.79238333852,
			"0.013": 3.23343501149,
			"0.014": 1.82280208046,
			"0.015": 0.178189910788,
			"0.016": 0.0,
			"0.017": 0.0,
			"0.018": 0.0,
			"0.019": 0.0,
			"0.02": 0.0,
			"0.021": 0.0,
			"0.022": 0.0,
			"0.023": 0.0,
			"0.024": 0.0,
			"0.025": 0.0
		}
	}
}
