{
	 "smiles": "CC1(C)N(CC(N)=O)C(=O)NC1=O", 
	 "Tm": 428.15, 
	 "num_atms": 24, 
	 "gaussian": { 
		 "optdone": 1, 
		 "sigma_profile": "yes", 
		 "theory": "DFT", 
		 "functional": "B3LYP", 
		 "basiset": "6-31G**", 
		 "properties": { 
			 "R2extent": 2910.661, 
			 "electric_dipole_moment_norm": 1.25116937702, 
			 "electric_quadrupole_moment_norm": 13.8816164142, 
			 "total_energy": -663.369110514, 
			 "HOMO_LUMO_gap": 0.22413, 
			 "cosmo_polarized_energy": -18.37, 
			 "cosmo_cavitation_energy": 27.27, 
			 "cosmo_dispersion_energy": -19.16, 
			 "cosmo_repulsion_energy": 1.52, 
			 "cosmo_total_nonelectrostatic_energy": 9.63, 
			 "SMD_solvation_energy": 6.63 
		},
		"coords": [
			{
				"x": 0.7884475222,
				"y": 0.6344547792,
				"z": -0.1363073778,
				"element": "C" 
			},
			{
				"x": -0.4055147573,
				"y": 1.3617248999,
				"z": 0.5068031697,
				"element": "C" 
			},
			{
				"x": -0.0446532942,
				"y": 1.9284870695,
				"z": 1.8877265331,
				"element": "C" 
			},
			{
				"x": -1.6126466665,
				"y": 0.5150261567,
				"z": 0.5436758601,
				"element": "N" 
			},
			{
				"x": -1.7419958777,
				"y": -0.7405807186,
				"z": 1.2708502316,
				"element": "C" 
			},
			{
				"x": -1.4358546857,
				"y": -1.9801830216,
				"z": 0.4061493804,
				"element": "C" 
			},
			{
				"x": -2.3908491572,
				"y": -2.2492778427,
				"z": -0.5235665041,
				"element": "N" 
			},
			{
				"x": -0.4205488827,
				"y": -2.6437535057,
				"z": 0.5674454876,
				"element": "O" 
			},
			{
				"x": -2.6050871426,
				"y": 0.9703521889,
				"z": -0.2735232753,
				"element": "C" 
			},
			{
				"x": -3.6855088394,
				"y": 0.441239721,
				"z": -0.5047001851,
				"element": "O" 
			},
			{
				"x": -2.1508396486,
				"y": 2.180191551,
				"z": -0.8221680027,
				"element": "N" 
			},
			{
				"x": -0.8711604981,
				"y": 2.5062387375,
				"z": -0.4187991794,
				"element": "C" 
			},
			{
				"x": -0.232240389,
				"y": 3.4868771528,
				"z": -0.7337961145,
				"element": "O" 
			},
			{
				"x": 0.5366588781,
				"y": 0.2825778782,
				"z": -1.1409170015,
				"element": "H" 
			},
			{
				"x": 1.0757576931,
				"y": -0.233706895,
				"z": 0.4630884375,
				"element": "H" 
			},
			{
				"x": 1.6363865304,
				"y": 1.3197993045,
				"z": -0.2110826645,
				"element": "H" 
			},
			{
				"x": -0.9149787158,
				"y": 2.3893932935,
				"z": 2.3634508236,
				"element": "H" 
			},
			{
				"x": 0.3397705029,
				"y": 1.1424548565,
				"z": 2.5444500991,
				"element": "H" 
			},
			{
				"x": 0.731323215,
				"y": 2.6889148906,
				"z": 1.7704805429,
				"element": "H" 
			},
			{
				"x": -2.7618033689,
				"y": -0.8019545139,
				"z": 1.6644084314,
				"element": "H" 
			},
			{
				"x": -1.0399925089,
				"y": -0.7437389288,
				"z": 2.1044980389,
				"element": "H" 
			},
			{
				"x": -3.1494541964,
				"y": -1.5956781461,
				"z": -0.6855533871,
				"element": "H" 
			},
			{
				"x": -2.2149118923,
				"y": -2.9946892246,
				"z": -1.1807377737,
				"element": "H" 
			},
			{
				"x": -2.7098038202,
				"y": 2.7287303172,
				"z": -1.4599755704,
				"element": "H" 
			}
		],
		 "valence_orbital": [ 
			{
				"type": "occ",
				"energy": -0.30028,
				"method": "rhf"
			},
			{
				"type": "occ",
				"energy": -0.28218,
				"method": "rhf"
			},
			{
				"type": "occ",
				"energy": -0.27174,
				"method": "rhf"
			},
			{
				"type": "occ",
				"energy": -0.26969,
				"method": "rhf"
			},
			{
				"type": "occ",
				"energy": -0.24242,
				"method": "rhf"
			},
			{
				"type": "unocc",
				"energy": -0.01829,
				"method": "rhf"
			},
			{
				"type": "unocc",
				"energy": 0.01455,
				"method": "rhf"
			},
			{
				"type": "unocc",
				"energy": 0.04745,
				"method": "rhf"
			},
			{
				"type": "unocc",
				"energy": 0.07275,
				"method": "rhf"
			},
			{
				"type": "unocc",
				"energy": 0.08061,
				"method": "rhf"
			}
		],
		"cosmo_sigma_profile": { 
			"-0.025": 0.0,
			"-0.024": 0.0,
			"-0.023": 0.0,
			"-0.022": 0.0,
			"-0.021": 0.0,
			"-0.02": 0.0,
			"-0.019": 0.0,
			"-0.018": 0.0,
			"-0.017": 0.587057956131,
			"-0.016": 1.3427674758,
			"-0.015": 1.2746348744,
			"-0.014": 1.7658075015,
			"-0.013": 1.82980204831,
			"-0.012": 1.51801674751,
			"-0.011": 2.37484612191,
			"-0.01": 2.04337762445,
			"-0.009": 2.09415791172,
			"-0.008": 3.81048226897,
			"-0.007": 7.40402373697,
			"-0.006": 10.5632767103,
			"-0.005": 13.9698878642,
			"-0.004": 17.4674826082,
			"-0.003": 19.5707227265,
			"-0.002": 19.5188919882,
			"-0.001": 19.4526228008,
			"0.0": 11.7947342599,
			"0.001": 6.61407097038,
			"0.002": 4.98776469926,
			"0.003": 6.18160650226,
			"0.004": 6.25263144994,
			"0.005": 3.65881045601,
			"0.006": 3.88833045648,
			"0.007": 4.1850624262,
			"0.008": 3.63211258433,
			"0.009": 3.20360138323,
			"0.01": 5.55904080423,
			"0.011": 7.07591849753,
			"0.012": 9.20888250969,
			"0.013": 6.5720960001,
			"0.014": 4.11027225924,
			"0.015": 0.501294519298,
			"0.016": 0.0,
			"0.017": 0.0,
			"0.018": 0.0,
			"0.019": 0.0,
			"0.02": 0.0,
			"0.021": 0.0,
			"0.022": 0.0,
			"0.023": 0.0,
			"0.024": 0.0,
			"0.025": 0.0
		}
	}
}
