{
	 "smiles": "CCOC(=O)NNC(=O)OCC", 
	 "Tm": 408.15, 
	 "num_atms": 24, 
	 "gaussian": { 
		 "optdone": 1, 
		 "sigma_profile": "yes", 
		 "theory": "DFT", 
		 "functional": "B3LYP", 
		 "basiset": "6-31G**", 
		 "properties": { 
			 "R2extent": 2667.372, 
			 "electric_dipole_moment_norm": 3.4892155938, 
			 "electric_quadrupole_moment_norm": 8.54025738898, 
			 "total_energy": -646.284132963, 
			 "HOMO_LUMO_gap": 0.30361, 
			 "cosmo_polarized_energy": -13.81, 
			 "cosmo_cavitation_energy": 28.63, 
			 "cosmo_dispersion_energy": -19.6, 
			 "cosmo_repulsion_energy": 1.62, 
			 "cosmo_total_nonelectrostatic_energy": 10.64, 
			 "SMD_solvation_energy": 7.63 
		},
		"coords": [
			{
				"x": 2.1104968216,
				"y": -1.1870207104,
				"z": 2.2864511917,
				"element": "C" 
			},
			{
				"x": 2.7512642031,
				"y": -1.2606256632,
				"z": 0.9096693264,
				"element": "C" 
			},
			{
				"x": 2.1260735042,
				"y": -0.3335514369,
				"z": -0.0110502853,
				"element": "O" 
			},
			{
				"x": 2.5854279143,
				"y": 0.932212515,
				"z": 0.0407065161,
				"element": "C" 
			},
			{
				"x": 3.506536258,
				"y": 1.3346550437,
				"z": 0.7204460686,
				"element": "O" 
			},
			{
				"x": 1.9139814044,
				"y": 1.7484323376,
				"z": -0.863172286,
				"element": "N" 
			},
			{
				"x": 0.6730055703,
				"y": 1.417636559,
				"z": -1.3720540841,
				"element": "N" 
			},
			{
				"x": -0.3948035698,
				"y": 1.2507206437,
				"z": -0.5055949877,
				"element": "C" 
			},
			{
				"x": -0.4108884932,
				"y": 1.6136313108,
				"z": 0.6515757198,
				"element": "O" 
			},
			{
				"x": -1.4145846368,
				"y": 0.6704527862,
				"z": -1.177170552,
				"element": "O" 
			},
			{
				"x": -2.633731454,
				"y": 0.4735475593,
				"z": -0.4223014739,
				"element": "C" 
			},
			{
				"x": -2.59729965,
				"y": -0.8309058718,
				"z": 0.3582781858,
				"element": "C" 
			},
			{
				"x": 1.0328532296,
				"y": -1.3635910595,
				"z": 2.2250068773,
				"element": "H" 
			},
			{
				"x": 2.5501511052,
				"y": -1.9471276599,
				"z": 2.9410212145,
				"element": "H" 
			},
			{
				"x": 2.2800009051,
				"y": -0.205368927,
				"z": 2.7347363996,
				"element": "H" 
			},
			{
				"x": 3.8200611885,
				"y": -1.0397333374,
				"z": 0.9571552497,
				"element": "H" 
			},
			{
				"x": 2.6025493256,
				"y": -2.2389461168,
				"z": 0.4463676459,
				"element": "H" 
			},
			{
				"x": 2.0583071571,
				"y": 2.7342872266,
				"z": -0.688735788,
				"element": "H" 
			},
			{
				"x": 0.6748392392,
				"y": 0.8676966326,
				"z": -2.2201148132,
				"element": "H" 
			},
			{
				"x": -3.4220438633,
				"y": 0.4676601494,
				"z": -1.1788669118,
				"element": "H" 
			},
			{
				"x": -2.7761518962,
				"y": 1.3279540342,
				"z": 0.2434117015,
				"element": "H" 
			},
			{
				"x": -3.557277978,
				"y": -0.9901317947,
				"z": 0.8607347652,
				"element": "H" 
			},
			{
				"x": -1.8134324838,
				"y": -0.798247473,
				"z": 1.1189973627,
				"element": "H" 
			},
			{
				"x": -2.4124338008,
				"y": -1.6793367476,
				"z": -0.307197043,
				"element": "H" 
			}
		],
		 "valence_orbital": [ 
			{
				"type": "occ",
				"energy": -0.29762,
				"method": "rhf"
			},
			{
				"type": "occ",
				"energy": -0.29669,
				"method": "rhf"
			},
			{
				"type": "occ",
				"energy": -0.28419,
				"method": "rhf"
			},
			{
				"type": "occ",
				"energy": -0.27926,
				"method": "rhf"
			},
			{
				"type": "occ",
				"energy": -0.26426,
				"method": "rhf"
			},
			{
				"type": "unocc",
				"energy": 0.03935,
				"method": "rhf"
			},
			{
				"type": "unocc",
				"energy": 0.04528,
				"method": "rhf"
			},
			{
				"type": "unocc",
				"energy": 0.08996,
				"method": "rhf"
			},
			{
				"type": "unocc",
				"energy": 0.09238,
				"method": "rhf"
			},
			{
				"type": "unocc",
				"energy": 0.0981,
				"method": "rhf"
			}
		],
		"cosmo_sigma_profile": { 
			"-0.025": 0.0,
			"-0.024": 0.0,
			"-0.023": 0.0,
			"-0.022": 0.0,
			"-0.021": 0.0,
			"-0.02": 0.0,
			"-0.019": 0.0,
			"-0.018": 0.0,
			"-0.017": 0.0,
			"-0.016": 0.103501186707,
			"-0.015": 1.5060384904,
			"-0.014": 2.42391044331,
			"-0.013": 0.973292099233,
			"-0.012": 1.42076579679,
			"-0.011": 1.4054913995,
			"-0.01": 2.01601690245,
			"-0.009": 2.37758539609,
			"-0.008": 0.83054960091,
			"-0.007": 1.45517891514,
			"-0.006": 5.12395395842,
			"-0.005": 11.5216921488,
			"-0.004": 21.8040040485,
			"-0.003": 24.424574227,
			"-0.002": 20.5518953267,
			"-0.001": 20.6041115394,
			"0.0": 22.596213251,
			"0.001": 12.6260710717,
			"0.002": 8.9744021551,
			"0.003": 9.54129309754,
			"0.004": 9.48709434375,
			"0.005": 6.43121297969,
			"0.006": 6.6123116033,
			"0.007": 4.62519819616,
			"0.008": 2.94134628073,
			"0.009": 3.47564428908,
			"0.01": 3.18183820626,
			"0.011": 3.69376852297,
			"0.012": 8.89186197158,
			"0.013": 2.70988661965,
			"0.014": 0.0,
			"0.015": 0.0,
			"0.016": 0.0,
			"0.017": 0.0,
			"0.018": 0.0,
			"0.019": 0.0,
			"0.02": 0.0,
			"0.021": 0.0,
			"0.022": 0.0,
			"0.023": 0.0,
			"0.024": 0.0,
			"0.025": 0.0
		}
	}
}
