{
	 "smiles": "NC(=O)OCC(F)(F)F", 
	 "Tm": 316.15, 
	 "num_atms": 13, 
	 "gaussian": { 
		 "optdone": 1, 
		 "sigma_profile": "yes", 
		 "theory": "DFT", 
		 "functional": "B3LYP", 
		 "basiset": "6-31G**", 
		 "properties": { 
			 "R2extent": 1785.6853, 
			 "electric_dipole_moment_norm": 2.7569351407, 
			 "electric_quadrupole_moment_norm": 9.45046107076, 
			 "total_energy": -621.474786052, 
			 "HOMO_LUMO_gap": 0.3266, 
			 "cosmo_polarized_energy": -10.69, 
			 "cosmo_cavitation_energy": 19.25, 
			 "cosmo_dispersion_energy": -13.69, 
			 "cosmo_repulsion_energy": 1.12, 
			 "cosmo_total_nonelectrostatic_energy": 6.68, 
			 "SMD_solvation_energy": 5.95 
		},
		"coords": [
			{
				"x": 1.747017441,
				"y": -0.1737449663,
				"z": 1.0230459968,
				"element": "N" 
			},
			{
				"x": 0.4198002962,
				"y": 0.0645283728,
				"z": 0.8517703035,
				"element": "C" 
			},
			{
				"x": -0.0778126166,
				"y": 1.1130494869,
				"z": 0.5003078318,
				"element": "O" 
			},
			{
				"x": -0.2893954527,
				"y": -1.0664330738,
				"z": 1.1865654542,
				"element": "O" 
			},
			{
				"x": -1.6935432959,
				"y": -0.9935383355,
				"z": 0.9859299626,
				"element": "C" 
			},
			{
				"x": -2.0759202738,
				"y": -1.8072745385,
				"z": -0.2383668626,
				"element": "C" 
			},
			{
				"x": -1.4578509569,
				"y": -1.3559513204,
				"z": -1.3451913504,
				"element": "F" 
			},
			{
				"x": -1.7587722865,
				"y": -3.1091086428,
				"z": -0.0950150034,
				"element": "F" 
			},
			{
				"x": -3.4093596823,
				"y": -1.7253093396,
				"z": -0.434199334,
				"element": "F" 
			},
			{
				"x": 2.3859340432,
				"y": 0.5297922108,
				"z": 0.6919216027,
				"element": "H" 
			},
			{
				"x": 2.074669442,
				"y": -1.1170689783,
				"z": 1.1540080508,
				"element": "H" 
			},
			{
				"x": -2.0066949423,
				"y": 0.04176577,
				"z": 0.838140253,
				"element": "H" 
			},
			{
				"x": -2.1865717153,
				"y": -1.4230066453,
				"z": 1.8607830949,
				"element": "H" 
			}
		],
		 "valence_orbital": [ 
			{
				"type": "occ",
				"energy": -0.39263,
				"method": "rhf"
			},
			{
				"type": "occ",
				"energy": -0.3708,
				"method": "rhf"
			},
			{
				"type": "occ",
				"energy": -0.31225,
				"method": "rhf"
			},
			{
				"type": "occ",
				"energy": -0.29078,
				"method": "rhf"
			},
			{
				"type": "occ",
				"energy": -0.28501,
				"method": "rhf"
			},
			{
				"type": "unocc",
				"energy": 0.04159,
				"method": "rhf"
			},
			{
				"type": "unocc",
				"energy": 0.06905,
				"method": "rhf"
			},
			{
				"type": "unocc",
				"energy": 0.10192,
				"method": "rhf"
			},
			{
				"type": "unocc",
				"energy": 0.11406,
				"method": "rhf"
			},
			{
				"type": "unocc",
				"energy": 0.13028,
				"method": "rhf"
			}
		],
		"cosmo_sigma_profile": { 
			"-0.025": 0.0,
			"-0.024": 0.0,
			"-0.023": 0.0,
			"-0.022": 0.0,
			"-0.021": 0.0,
			"-0.02": 0.0,
			"-0.019": 0.0,
			"-0.018": 0.0,
			"-0.017": 0.0,
			"-0.016": 0.01930495464,
			"-0.015": 1.49149158538,
			"-0.014": 2.7197421486,
			"-0.013": 2.04120773118,
			"-0.012": 1.73927565554,
			"-0.011": 1.93711452908,
			"-0.01": 2.33173909138,
			"-0.009": 4.32603223897,
			"-0.008": 4.89807257601,
			"-0.007": 4.5078296459,
			"-0.006": 4.2239919059,
			"-0.005": 5.75014610367,
			"-0.004": 4.71603452695,
			"-0.003": 3.41713609895,
			"-0.002": 5.21149533501,
			"-0.001": 6.4710201373,
			"0.0": 8.75435937534,
			"0.001": 9.43381191301,
			"0.002": 24.5041829504,
			"0.003": 26.5431502591,
			"0.004": 5.48140293345,
			"0.005": 3.80246664989,
			"0.006": 2.83851292549,
			"0.007": 2.12756833289,
			"0.008": 1.33572400065,
			"0.009": 1.27495210914,
			"0.01": 1.89316234102,
			"0.011": 1.8584333649,
			"0.012": 4.71016913459,
			"0.013": 2.38934695016,
			"0.014": 0.0367446755685,
			"0.015": 0.0,
			"0.016": 0.0,
			"0.017": 0.0,
			"0.018": 0.0,
			"0.019": 0.0,
			"0.02": 0.0,
			"0.021": 0.0,
			"0.022": 0.0,
			"0.023": 0.0,
			"0.024": 0.0,
			"0.025": 0.0
		}
	}
}
