{
	 "smiles": "CC(=O)N1CCC(CCl)CC1", 
	 "Tm": 322.15, 
	 "num_atms": 25, 
	 "gaussian": { 
		 "optdone": 1, 
		 "sigma_profile": "yes", 
		 "theory": "DFT", 
		 "functional": "B3LYP", 
		 "basiset": "6-31G**", 
		 "properties": { 
			 "R2extent": 3283.0161, 
			 "electric_dipole_moment_norm": 3.24690740552, 
			 "electric_quadrupole_moment_norm": 19.2083962246, 
			 "total_energy": -903.480927683, 
			 "HOMO_LUMO_gap": 0.24998, 
			 "cosmo_polarized_energy": -12.65, 
			 "cosmo_cavitation_energy": 27.53, 
			 "cosmo_dispersion_energy": -20.18, 
			 "cosmo_repulsion_energy": 1.62, 
			 "cosmo_total_nonelectrostatic_energy": 8.97, 
			 "SMD_solvation_energy": 4.01 
		},
		"coords": [
			{
				"x": -0.1865112412,
				"y": -1.3659619218,
				"z": -2.8734446883,
				"element": "C" 
			},
			{
				"x": 1.194142167,
				"y": -0.8465706079,
				"z": -2.490980272,
				"element": "C" 
			},
			{
				"x": 2.1579678632,
				"y": -0.994837223,
				"z": -3.2385219536,
				"element": "O" 
			},
			{
				"x": 1.333634115,
				"y": -0.2053294364,
				"z": -1.2857353404,
				"element": "N" 
			},
			{
				"x": 0.2661885684,
				"y": 0.0204487255,
				"z": -0.3118009489,
				"element": "C" 
			},
			{
				"x": 0.7497885814,
				"y": -0.2928796567,
				"z": 1.1110909866,
				"element": "C" 
			},
			{
				"x": 2.0431099329,
				"y": 0.4902631784,
				"z": 1.4865980738,
				"element": "C" 
			},
			{
				"x": 1.8671072361,
				"y": 1.4070774886,
				"z": 2.6959804414,
				"element": "C" 
			},
			{
				"x": 0.6144192039,
				"y": 2.7126445757,
				"z": 2.4419811553,
				"element": "Cl" 
			},
			{
				"x": 2.6249911144,
				"y": 1.2225548298,
				"z": 0.2631475018,
				"element": "C" 
			},
			{
				"x": 2.6720888902,
				"y": 0.3175293839,
				"z": -0.9679128088,
				"element": "C" 
			},
			{
				"x": -0.9425302225,
				"y": -0.5741174843,
				"z": -2.8711341726,
				"element": "H" 
			},
			{
				"x": -0.1071474824,
				"y": -1.7812985927,
				"z": -3.8777101672,
				"element": "H" 
			},
			{
				"x": -0.526339036,
				"y": -2.154942179,
				"z": -2.1933917977,
				"element": "H" 
			},
			{
				"x": -0.5818628731,
				"y": -0.6199715623,
				"z": -0.5548540173,
				"element": "H" 
			},
			{
				"x": -0.0931710144,
				"y": 1.057971874,
				"z": -0.3603562102,
				"element": "H" 
			},
			{
				"x": -0.0600181184,
				"y": -0.0601218036,
				"z": 1.8106037129,
				"element": "H" 
			},
			{
				"x": 0.9381715851,
				"y": -1.3693246315,
				"z": 1.1838639025,
				"element": "H" 
			},
			{
				"x": 2.7969638155,
				"y": -0.2401733472,
				"z": 1.8162475239,
				"element": "H" 
			},
			{
				"x": 2.7937155791,
				"y": 1.9307172351,
				"z": 2.9390944673,
				"element": "H" 
			},
			{
				"x": 1.5313690805,
				"y": 0.8497271437,
				"z": 3.5722799355,
				"element": "H" 
			},
			{
				"x": 3.6401821466,
				"y": 1.5714326085,
				"z": 0.4834473276,
				"element": "H" 
			},
			{
				"x": 2.028253304,
				"y": 2.1153271981,
				"z": 0.0466605151,
				"element": "H" 
			},
			{
				"x": 3.3625450489,
				"y": -0.5212081837,
				"z": -0.80195375,
				"element": "H" 
			},
			{
				"x": 3.0541417556,
				"y": 0.8571423887,
				"z": -1.8394994168,
				"element": "H" 
			}
		],
		 "valence_orbital": [ 
			{
				"type": "occ",
				"energy": -0.32844,
				"method": "rhf"
			},
			{
				"type": "occ",
				"energy": -0.30114,
				"method": "rhf"
			},
			{
				"type": "occ",
				"energy": -0.2985,
				"method": "rhf"
			},
			{
				"type": "occ",
				"energy": -0.23699,
				"method": "rhf"
			},
			{
				"type": "occ",
				"energy": -0.23013,
				"method": "rhf"
			},
			{
				"type": "unocc",
				"energy": 0.01985,
				"method": "rhf"
			},
			{
				"type": "unocc",
				"energy": 0.03554,
				"method": "rhf"
			},
			{
				"type": "unocc",
				"energy": 0.06493,
				"method": "rhf"
			},
			{
				"type": "unocc",
				"energy": 0.09313,
				"method": "rhf"
			},
			{
				"type": "unocc",
				"energy": 0.10752,
				"method": "rhf"
			}
		],
		"cosmo_sigma_profile": { 
			"-0.025": 0.0,
			"-0.024": 0.0,
			"-0.023": 0.0,
			"-0.022": 0.0,
			"-0.021": 0.0,
			"-0.02": 0.0,
			"-0.019": 0.0,
			"-0.018": 0.0,
			"-0.017": 0.0,
			"-0.016": 0.0,
			"-0.015": 0.0,
			"-0.014": 0.0,
			"-0.013": 0.0,
			"-0.012": 0.0,
			"-0.011": 0.0,
			"-0.01": 0.0,
			"-0.009": 0.0,
			"-0.008": 0.0,
			"-0.007": 2.443525753,
			"-0.006": 9.11396657821,
			"-0.005": 16.5315792107,
			"-0.004": 28.0769491465,
			"-0.003": 30.519623799,
			"-0.002": 25.8285401573,
			"-0.001": 18.9487184758,
			"0.0": 14.5579401834,
			"0.001": 9.62307836072,
			"0.002": 8.29551651541,
			"0.003": 6.55027355303,
			"0.004": 5.61153161306,
			"0.005": 7.32436774176,
			"0.006": 7.43052140913,
			"0.007": 6.65507808454,
			"0.008": 1.42115393226,
			"0.009": 1.61453803723,
			"0.01": 1.25923416282,
			"0.011": 1.13381926472,
			"0.012": 1.94355253871,
			"0.013": 1.91058147326,
			"0.014": 4.21152124518,
			"0.015": 4.44417893589,
			"0.016": 0.596538795391,
			"0.017": 0.0,
			"0.018": 0.0,
			"0.019": 0.0,
			"0.02": 0.0,
			"0.021": 0.0,
			"0.022": 0.0,
			"0.023": 0.0,
			"0.024": 0.0,
			"0.025": 0.0
		}
	}
}
