{
	 "smiles": "NS(=O)(=O)CC1=CC=C(Br)C=C1", 
	 "Tm": 465.15, 
	 "num_atms": 20, 
	 "gaussian": { 
		 "optdone": 1, 
		 "sigma_profile": "yes", 
		 "theory": "DFT", 
		 "functional": "B3LYP", 
		 "basiset": "6-31G**", 
		 "properties": { 
			 "R2extent": 4935.044, 
			 "electric_dipole_moment_norm": 4.11139816243, 
			 "electric_quadrupole_moment_norm": 13.8123927587, 
			 "total_energy": -3446.29582978, 
			 "HOMO_LUMO_gap": 0.2142, 
			 "cosmo_polarized_energy": -17.13, 
			 "cosmo_cavitation_energy": 28.15, 
			 "cosmo_dispersion_energy": -21.25, 
			 "cosmo_repulsion_energy": 1.66, 
			 "cosmo_total_nonelectrostatic_energy": 8.56, 
			 "SMD_solvation_energy": 3.08 
		},
		"coords": [
			{
				"x": -0.2906805162,
				"y": -0.9026167927,
				"z": 4.5426316951,
				"element": "N" 
			},
			{
				"x": 0.1617145705,
				"y": -0.5498384341,
				"z": 2.9447736801,
				"element": "S" 
			},
			{
				"x": 0.5087407812,
				"y": 0.8734730717,
				"z": 2.8855816133,
				"element": "O" 
			},
			{
				"x": 1.0896722962,
				"y": -1.5962980665,
				"z": 2.5048045577,
				"element": "O" 
			},
			{
				"x": -1.4236407917,
				"y": -0.7875983641,
				"z": 2.0679513855,
				"element": "C" 
			},
			{
				"x": -1.28592347,
				"y": -0.5277929946,
				"z": 0.5935918738,
				"element": "C" 
			},
			{
				"x": -0.9304395214,
				"y": -1.5624483568,
				"z": -0.2810181408,
				"element": "C" 
			},
			{
				"x": -0.788272693,
				"y": -1.3263979414,
				"z": -1.647299599,
				"element": "C" 
			},
			{
				"x": -0.9977937827,
				"y": -0.0386224892,
				"z": -2.1380254734,
				"element": "C" 
			},
			{
				"x": -0.815396003,
				"y": 0.2931750225,
				"z": -4.0104943863,
				"element": "Br" 
			},
			{
				"x": -1.3397113841,
				"y": 1.0110121159,
				"z": -1.2868933082,
				"element": "C" 
			},
			{
				"x": -1.4783297036,
				"y": 0.7598314679,
				"z": 0.0770520242,
				"element": "C" 
			},
			{
				"x": 0.2502593114,
				"y": -1.6972967692,
				"z": 4.8741598374,
				"element": "H" 
			},
			{
				"x": -0.1294242091,
				"y": -0.0833352929,
				"z": 5.1229908377,
				"element": "H" 
			},
			{
				"x": -1.7234996742,
				"y": -1.8150698763,
				"z": 2.2866387643,
				"element": "H" 
			},
			{
				"x": -2.126064024,
				"y": -0.1041013726,
				"z": 2.550509405,
				"element": "H" 
			},
			{
				"x": -0.757598624,
				"y": -2.5616244968,
				"z": 0.1076675099,
				"element": "H" 
			},
			{
				"x": -0.5174666011,
				"y": -2.1307216075,
				"z": -2.3213752063,
				"element": "H" 
			},
			{
				"x": -1.4938000318,
				"y": 2.0079122596,
				"z": -1.6832422036,
				"element": "H" 
			},
			{
				"x": -1.7339459295,
				"y": 1.576458917,
				"z": 0.7456951336,
				"element": "H" 
			}
		],
		 "valence_orbital": [ 
			{
				"type": "occ",
				"energy": -0.3062,
				"method": "rhf"
			},
			{
				"type": "occ",
				"energy": -0.29728,
				"method": "rhf"
			},
			{
				"type": "occ",
				"energy": -0.28927,
				"method": "rhf"
			},
			{
				"type": "occ",
				"energy": -0.2684,
				"method": "rhf"
			},
			{
				"type": "occ",
				"energy": -0.24479,
				"method": "rhf"
			},
			{
				"type": "unocc",
				"energy": -0.03059,
				"method": "rhf"
			},
			{
				"type": "unocc",
				"energy": -0.01981,
				"method": "rhf"
			},
			{
				"type": "unocc",
				"energy": 0.00441,
				"method": "rhf"
			},
			{
				"type": "unocc",
				"energy": 0.05404,
				"method": "rhf"
			},
			{
				"type": "unocc",
				"energy": 0.06893,
				"method": "rhf"
			}
		],
		"cosmo_sigma_profile": { 
			"-0.025": 0.0,
			"-0.024": 0.0,
			"-0.023": 0.0,
			"-0.022": 0.0,
			"-0.021": 0.0,
			"-0.02": 0.0,
			"-0.019": 0.0,
			"-0.018": 0.0,
			"-0.017": 0.0,
			"-0.016": 0.0,
			"-0.015": 0.841472612782,
			"-0.014": 3.00628646896,
			"-0.013": 1.92542940464,
			"-0.012": 2.84225087785,
			"-0.011": 2.02701721061,
			"-0.01": 1.91879474303,
			"-0.009": 4.43633410664,
			"-0.008": 7.55317868121,
			"-0.007": 12.5189477702,
			"-0.006": 11.6266468924,
			"-0.005": 12.4457533277,
			"-0.004": 11.0415342422,
			"-0.003": 11.3739310755,
			"-0.002": 7.84866629326,
			"-0.001": 9.38580578122,
			"0.0": 10.7348770449,
			"0.001": 14.4091399936,
			"0.002": 17.9441609281,
			"0.003": 21.844236445,
			"0.004": 15.6576559151,
			"0.005": 8.94119360902,
			"0.006": 4.17864238315,
			"0.007": 2.43916160959,
			"0.008": 3.49216516897,
			"0.009": 5.22955986751,
			"0.01": 6.65665722043,
			"0.011": 10.8038983609,
			"0.012": 4.27273622956,
			"0.013": 0.0321266819936,
			"0.014": 0.0,
			"0.015": 0.0,
			"0.016": 0.0,
			"0.017": 0.0,
			"0.018": 0.0,
			"0.019": 0.0,
			"0.02": 0.0,
			"0.021": 0.0,
			"0.022": 0.0,
			"0.023": 0.0,
			"0.024": 0.0,
			"0.025": 0.0
		}
	}
}
