{
	 "smiles": "COC1=CC2=C(NC=C2CCN)C=C1", 
	 "Tm": 395.15, 
	 "num_atms": 28, 
	 "gaussian": { 
		 "optdone": 1, 
		 "sigma_profile": "yes", 
		 "theory": "DFT", 
		 "functional": "B3LYP", 
		 "basiset": "6-31G**", 
		 "properties": { 
			 "R2extent": 3584.3637, 
			 "electric_dipole_moment_norm": 3.42259339098, 
			 "electric_quadrupole_moment_norm": 19.4688169366, 
			 "total_energy": -612.3235648, 
			 "HOMO_LUMO_gap": 0.1805, 
			 "cosmo_polarized_energy": -14.27, 
			 "cosmo_cavitation_energy": 30.97, 
			 "cosmo_dispersion_energy": -22.32, 
			 "cosmo_repulsion_energy": 1.77, 
			 "cosmo_total_nonelectrostatic_energy": 10.42, 
			 "SMD_solvation_energy": 4.11 
		},
		"coords": [
			{
				"x": 1.7925201567,
				"y": 4.0551428904,
				"z": 2.3854561477,
				"element": "C" 
			},
			{
				"x": 1.0650112473,
				"y": 3.323419723,
				"z": 1.4176977068,
				"element": "O" 
			},
			{
				"x": 1.0785112142,
				"y": 1.9514381731,
				"z": 1.4882959257,
				"element": "C" 
			},
			{
				"x": 0.3376672641,
				"y": 1.2925395332,
				"z": 0.5080667936,
				"element": "C" 
			},
			{
				"x": 0.2992796932,
				"y": -0.108900003,
				"z": 0.5070911981,
				"element": "C" 
			},
			{
				"x": 1.0173098455,
				"y": -0.8235939328,
				"z": 1.5062520251,
				"element": "C" 
			},
			{
				"x": 0.8137626628,
				"y": -2.1716764234,
				"z": 1.2722402498,
				"element": "N" 
			},
			{
				"x": 0.0002389776,
				"y": -2.3164419414,
				"z": 0.1634709138,
				"element": "C" 
			},
			{
				"x": -0.3416420092,
				"y": -1.0855840075,
				"z": -0.3446000208,
				"element": "C" 
			},
			{
				"x": -1.2397285356,
				"y": -0.8059177404,
				"z": -1.5147150118,
				"element": "C" 
			},
			{
				"x": -2.6870166057,
				"y": -0.4244193148,
				"z": -1.1095287085,
				"element": "C" 
			},
			{
				"x": -3.443784063,
				"y": -1.4495990381,
				"z": -0.392382366,
				"element": "N" 
			},
			{
				"x": 1.7581157362,
				"y": -0.1669828041,
				"z": 2.4879331743,
				"element": "C" 
			},
			{
				"x": 1.7843048608,
				"y": 1.2262411345,
				"z": 2.4739700312,
				"element": "C" 
			},
			{
				"x": 1.6423795257,
				"y": 5.1091062131,
				"z": 2.1437473841,
				"element": "H" 
			},
			{
				"x": 1.4260874239,
				"y": 3.8668771349,
				"z": 3.4039167413,
				"element": "H" 
			},
			{
				"x": 2.867280334,
				"y": 3.8302105376,
				"z": 2.3484734551,
				"element": "H" 
			},
			{
				"x": -0.1912222838,
				"y": 1.8833846642,
				"z": -0.232745171,
				"element": "H" 
			},
			{
				"x": 1.2142702925,
				"y": -2.9259427462,
				"z": 1.8041127076,
				"element": "H" 
			},
			{
				"x": -0.2638135908,
				"y": -3.3017263292,
				"z": -0.1962499851,
				"element": "H" 
			},
			{
				"x": -0.8168377738,
				"y": 0.0074408298,
				"z": -2.1205604559,
				"element": "H" 
			},
			{
				"x": -1.2798341879,
				"y": -1.6871366596,
				"z": -2.1691974837,
				"element": "H" 
			},
			{
				"x": -2.6577960073,
				"y": 0.4732020305,
				"z": -0.4804438707,
				"element": "H" 
			},
			{
				"x": -3.2487018461,
				"y": -0.1558296372,
				"z": -2.01262938,
				"element": "H" 
			},
			{
				"x": -3.5274035474,
				"y": -2.2814055783,
				"z": -0.9744182799,
				"element": "H" 
			},
			{
				"x": -2.9160236371,
				"y": -1.7360335389,
				"z": 0.4302979479,
				"element": "H" 
			},
			{
				"x": 2.3051505271,
				"y": -0.7167217182,
				"z": 3.2488440491,
				"element": "H" 
			},
			{
				"x": 2.3569143261,
				"y": 1.7460085487,
				"z": 3.2323042818,
				"element": "H" 
			}
		],
		 "valence_orbital": [ 
			{
				"type": "occ",
				"energy": -0.29113,
				"method": "rhf"
			},
			{
				"type": "occ",
				"energy": -0.26628,
				"method": "rhf"
			},
			{
				"type": "occ",
				"energy": -0.22431,
				"method": "rhf"
			},
			{
				"type": "occ",
				"energy": -0.20433,
				"method": "rhf"
			},
			{
				"type": "occ",
				"energy": -0.18779,
				"method": "rhf"
			},
			{
				"type": "unocc",
				"energy": -0.00729,
				"method": "rhf"
			},
			{
				"type": "unocc",
				"energy": 0.0417,
				"method": "rhf"
			},
			{
				"type": "unocc",
				"energy": 0.0675,
				"method": "rhf"
			},
			{
				"type": "unocc",
				"energy": 0.08154,
				"method": "rhf"
			},
			{
				"type": "unocc",
				"energy": 0.09592,
				"method": "rhf"
			}
		],
		"cosmo_sigma_profile": { 
			"-0.025": 0.0,
			"-0.024": 0.0,
			"-0.023": 0.0,
			"-0.022": 0.0,
			"-0.021": 0.0,
			"-0.02": 0.0,
			"-0.019": 0.0,
			"-0.018": 0.0,
			"-0.017": 0.0,
			"-0.016": 0.0387432019414,
			"-0.015": 1.38284271041,
			"-0.014": 1.38973483176,
			"-0.013": 0.887227602651,
			"-0.012": 1.62640128646,
			"-0.011": 0.894435734097,
			"-0.01": 1.31848918079,
			"-0.009": 2.48596890222,
			"-0.008": 2.7093623984,
			"-0.007": 5.56759711833,
			"-0.006": 8.8766594969,
			"-0.005": 15.752173561,
			"-0.004": 19.0925552931,
			"-0.003": 26.6196633012,
			"-0.002": 23.0439574321,
			"-0.001": 18.6865276637,
			"0.0": 15.9801757966,
			"0.001": 12.624830349,
			"0.002": 8.77948071546,
			"0.003": 8.79458721467,
			"0.004": 10.805543988,
			"0.005": 13.7612785591,
			"0.006": 17.7358780377,
			"0.007": 9.72963710534,
			"0.008": 2.0765044068,
			"0.009": 1.74020188612,
			"0.01": 2.70307049339,
			"0.011": 2.34922333331,
			"0.012": 0.900469655513,
			"0.013": 0.549154395467,
			"0.014": 1.20591807728,
			"0.015": 0.300314771518,
			"0.016": 0.788123070035,
			"0.017": 0.756304090755,
			"0.018": 0.378257097717,
			"0.019": 0.80080049983,
			"0.02": 0.597051529896,
			"0.021": 0.0704259942746,
			"0.022": 0.0,
			"0.023": 0.0,
			"0.024": 0.0,
			"0.025": 0.0
		}
	}
}
