{
	 "smiles": "COC1=C(NC(=O)CCl)C=C(C=C1)S(N)(=O)=O", 
	 "Tm": 443.15, 
	 "num_atms": 28, 
	 "gaussian": { 
		 "optdone": 1, 
		 "sigma_profile": "yes", 
		 "theory": "DFT", 
		 "functional": "B3LYP", 
		 "basiset": "6-31G**", 
		 "properties": { 
			 "R2extent": 6509.6895, 
			 "electric_dipole_moment_norm": 3.28724327363, 
			 "electric_quadrupole_moment_norm": 39.8749862687, 
			 "total_energy": -1618.28190482, 
			 "HOMO_LUMO_gap": 0.20406, 
			 "cosmo_polarized_energy": -29.44, 
			 "cosmo_cavitation_energy": 35.98, 
			 "cosmo_dispersion_energy": -25.43, 
			 "cosmo_repulsion_energy": 1.96, 
			 "cosmo_total_nonelectrostatic_energy": 12.52, 
			 "SMD_solvation_energy": 7.09 
		},
		"coords": [
			{
				"x": -0.9005357592,
				"y": 3.7966691553,
				"z": 0.0048802599,
				"element": "C" 
			},
			{
				"x": 0.095040602,
				"y": 2.9521832921,
				"z": 0.6041332054,
				"element": "O" 
			},
			{
				"x": 0.513415571,
				"y": 1.8983308063,
				"z": -0.1641259337,
				"element": "C" 
			},
			{
				"x": -0.2028795725,
				"y": 0.6813286941,
				"z": -0.1587677606,
				"element": "C" 
			},
			{
				"x": -1.4236267109,
				"y": 0.5426242398,
				"z": 0.5473713782,
				"element": "N" 
			},
			{
				"x": -1.7551365929,
				"y": 0.8419063517,
				"z": 1.8595821531,
				"element": "C" 
			},
			{
				"x": -2.917180504,
				"y": 0.8304573249,
				"z": 2.217983889,
				"element": "O" 
			},
			{
				"x": -0.5985094827,
				"y": 1.0381030573,
				"z": 2.8394731825,
				"element": "C" 
			},
			{
				"x": -0.9004050036,
				"y": 2.4141343097,
				"z": 3.9559972535,
				"element": "Cl" 
			},
			{
				"x": 0.2650394707,
				"y": -0.3846247362,
				"z": -0.9339739526,
				"element": "C" 
			},
			{
				"x": 1.4268697069,
				"y": -0.2392018049,
				"z": -1.691361494,
				"element": "C" 
			},
			{
				"x": 2.1492954583,
				"y": 0.9558161382,
				"z": -1.6865494274,
				"element": "C" 
			},
			{
				"x": 1.6873933339,
				"y": 2.017828745,
				"z": -0.9128880892,
				"element": "C" 
			},
			{
				"x": 2.0113812019,
				"y": -1.6301330766,
				"z": -2.6744320265,
				"element": "S" 
			},
			{
				"x": 3.0696233571,
				"y": -2.506104019,
				"z": -1.7106556174,
				"element": "N" 
			},
			{
				"x": 0.8648733004,
				"y": -2.5079700112,
				"z": -2.8998110714,
				"element": "O" 
			},
			{
				"x": 2.8264910099,
				"y": -1.0793172828,
				"z": -3.754509298,
				"element": "O" 
			},
			{
				"x": -0.5128502423,
				"y": 4.2646461896,
				"z": -0.9075992903,
				"element": "H" 
			},
			{
				"x": -1.1295875392,
				"y": 4.5632655908,
				"z": 0.7454385798,
				"element": "H" 
			},
			{
				"x": -1.810225289,
				"y": 3.2336701481,
				"z": -0.2301187492,
				"element": "H" 
			},
			{
				"x": -2.2281749682,
				"y": 0.2237605196,
				"z": 0.0193096296,
				"element": "H" 
			},
			{
				"x": -0.5404981865,
				"y": 0.1374014453,
				"z": 3.4554262137,
				"element": "H" 
			},
			{
				"x": 0.3580084788,
				"y": 1.2126579939,
				"z": 2.3559034767,
				"element": "H" 
			},
			{
				"x": -0.2885092735,
				"y": -1.317661956,
				"z": -0.9626047595,
				"element": "H" 
			},
			{
				"x": 3.0373453814,
				"y": 1.0564890771,
				"z": -2.3009265991,
				"element": "H" 
			},
			{
				"x": 2.216014719,
				"y": 2.9652394308,
				"z": -0.8892485603,
				"element": "H" 
			},
			{
				"x": 2.6214650593,
				"y": -2.9437818044,
				"z": -0.9125129777,
				"element": "H" 
			},
			{
				"x": 3.9163624739,
				"y": -1.9987178183,
				"z": -1.476013615,
				"element": "H" 
			}
		],
		 "valence_orbital": [ 
			{
				"type": "occ",
				"energy": -0.30121,
				"method": "rhf"
			},
			{
				"type": "occ",
				"energy": -0.2985,
				"method": "rhf"
			},
			{
				"type": "occ",
				"energy": -0.28063,
				"method": "rhf"
			},
			{
				"type": "occ",
				"energy": -0.27256,
				"method": "rhf"
			},
			{
				"type": "occ",
				"energy": -0.25867,
				"method": "rhf"
			},
			{
				"type": "unocc",
				"energy": -0.05461,
				"method": "rhf"
			},
			{
				"type": "unocc",
				"energy": -0.04813,
				"method": "rhf"
			},
			{
				"type": "unocc",
				"energy": -0.01403,
				"method": "rhf"
			},
			{
				"type": "unocc",
				"energy": 0.03728,
				"method": "rhf"
			},
			{
				"type": "unocc",
				"energy": 0.03919,
				"method": "rhf"
			}
		],
		"cosmo_sigma_profile": { 
			"-0.025": 0.0,
			"-0.024": 0.0,
			"-0.023": 0.0,
			"-0.022": 0.0,
			"-0.021": 0.0,
			"-0.02": 0.0,
			"-0.019": 0.0,
			"-0.018": 0.0,
			"-0.017": 0.0,
			"-0.016": 0.163817557646,
			"-0.015": 3.59683539662,
			"-0.014": 3.63229441564,
			"-0.013": 3.53420111621,
			"-0.012": 3.85217035011,
			"-0.011": 4.50436953866,
			"-0.01": 4.28989127457,
			"-0.009": 5.8320940421,
			"-0.008": 7.77805992769,
			"-0.007": 10.3997320248,
			"-0.006": 15.7293625756,
			"-0.005": 16.9458345607,
			"-0.004": 17.9154475829,
			"-0.003": 17.9708375853,
			"-0.002": 15.0857173697,
			"-0.001": 14.4541642793,
			"0.0": 13.3768456194,
			"0.001": 16.7734659071,
			"0.002": 11.0352640549,
			"0.003": 8.46600289228,
			"0.004": 10.1052787855,
			"0.005": 11.9843720662,
			"0.006": 10.9572571523,
			"0.007": 7.97437597965,
			"0.008": 8.13566954222,
			"0.009": 5.95270982518,
			"0.01": 10.9941281182,
			"0.011": 13.2136895181,
			"0.012": 9.07007510647,
			"0.013": 3.98342809752,
			"0.014": 0.409954738425,
			"0.015": 0.0,
			"0.016": 0.0,
			"0.017": 0.0,
			"0.018": 0.0,
			"0.019": 0.0,
			"0.02": 0.0,
			"0.021": 0.0,
			"0.022": 0.0,
			"0.023": 0.0,
			"0.024": 0.0,
			"0.025": 0.0
		}
	}
}
