{
	 "smiles": "CC(C)CCOC(C)=O", 
	 "Tm": 194.65, 
	 "num_atms": 23, 
	 "gaussian": { 
		 "optdone": 1, 
		 "sigma_profile": "yes", 
		 "theory": "DFT", 
		 "functional": "B3LYP", 
		 "basiset": "6-31G**", 
		 "properties": { 
			 "R2extent": 1660.692, 
			 "electric_dipole_moment_norm": 1.77044991175, 
			 "electric_quadrupole_moment_norm": 8.54857375707, 
			 "total_energy": -425.657454951, 
			 "HOMO_LUMO_gap": 0.28305, 
			 "cosmo_polarized_energy": -6.1, 
			 "cosmo_cavitation_energy": 25.11, 
			 "cosmo_dispersion_energy": -17.56, 
			 "cosmo_repulsion_energy": 1.46, 
			 "cosmo_total_nonelectrostatic_energy": 9.01, 
			 "SMD_solvation_energy": 5.56 
		},
		"coords": [
			{
				"x": -1.1283642946,
				"y": -2.0382248531,
				"z": -0.4006545475,
				"element": "C" 
			},
			{
				"x": -1.3666175701,
				"y": -1.502564242,
				"z": 1.0204915206,
				"element": "C" 
			},
			{
				"x": -0.9377055816,
				"y": -2.5325954131,
				"z": 2.0773618772,
				"element": "C" 
			},
			{
				"x": -0.744373187,
				"y": -0.108413878,
				"z": 1.2650667255,
				"element": "C" 
			},
			{
				"x": 0.779814271,
				"y": -0.0038927879,
				"z": 1.3096521058,
				"element": "C" 
			},
			{
				"x": 1.4074550406,
				"y": -0.276818984,
				"z": 0.0321623081,
				"element": "O" 
			},
			{
				"x": 1.5252256089,
				"y": 0.7689048656,
				"z": -0.8209338549,
				"element": "C" 
			},
			{
				"x": 2.1784824119,
				"y": 0.3327756513,
				"z": -2.1114472556,
				"element": "C" 
			},
			{
				"x": 1.1497146153,
				"y": 1.8938990697,
				"z": -0.5709560188,
				"element": "O" 
			},
			{
				"x": -0.0690939622,
				"y": -2.2456601973,
				"z": -0.5771719985,
				"element": "H" 
			},
			{
				"x": -1.4581164387,
				"y": -1.3169541554,
				"z": -1.1569491224,
				"element": "H" 
			},
			{
				"x": -1.687153528,
				"y": -2.9670502961,
				"z": -0.5609351838,
				"element": "H" 
			},
			{
				"x": -2.4511018158,
				"y": -1.3584065686,
				"z": 1.132301722,
				"element": "H" 
			},
			{
				"x": -1.1101440202,
				"y": -2.162781392,
				"z": 3.0946839991,
				"element": "H" 
			},
			{
				"x": 0.1246222397,
				"y": -2.7869381557,
				"z": 1.9880453709,
				"element": "H" 
			},
			{
				"x": -1.5022433905,
				"y": -3.4639423943,
				"z": 1.9621124461,
				"element": "H" 
			},
			{
				"x": -1.102162921,
				"y": 0.2625871302,
				"z": 2.235861406,
				"element": "H" 
			},
			{
				"x": -1.1135244142,
				"y": 0.6007595161,
				"z": 0.5152361846,
				"element": "H" 
			},
			{
				"x": 1.0705486287,
				"y": 1.0001569894,
				"z": 1.6275431267,
				"element": "H" 
			},
			{
				"x": 1.2185874983,
				"y": -0.7366038226,
				"z": 1.9908528459,
				"element": "H" 
			},
			{
				"x": 3.116929276,
				"y": -0.1895223484,
				"z": -1.9065492213,
				"element": "H" 
			},
			{
				"x": 2.3603293952,
				"y": 1.2049973896,
				"z": -2.7385861901,
				"element": "H" 
			},
			{
				"x": 1.5230921383,
				"y": -0.3682111233,
				"z": -2.6380882458,
				"element": "H" 
			}
		],
		 "valence_orbital": [ 
			{
				"type": "occ",
				"energy": -0.32929,
				"method": "rhf"
			},
			{
				"type": "occ",
				"energy": -0.32587,
				"method": "rhf"
			},
			{
				"type": "occ",
				"energy": -0.3146,
				"method": "rhf"
			},
			{
				"type": "occ",
				"energy": -0.28704,
				"method": "rhf"
			},
			{
				"type": "occ",
				"energy": -0.26737,
				"method": "rhf"
			},
			{
				"type": "unocc",
				"energy": 0.01568,
				"method": "rhf"
			},
			{
				"type": "unocc",
				"energy": 0.07818,
				"method": "rhf"
			},
			{
				"type": "unocc",
				"energy": 0.10893,
				"method": "rhf"
			},
			{
				"type": "unocc",
				"energy": 0.11374,
				"method": "rhf"
			},
			{
				"type": "unocc",
				"energy": 0.12714,
				"method": "rhf"
			}
		],
		"cosmo_sigma_profile": { 
			"-0.025": 0.0,
			"-0.024": 0.0,
			"-0.023": 0.0,
			"-0.022": 0.0,
			"-0.021": 0.0,
			"-0.02": 0.0,
			"-0.019": 0.0,
			"-0.018": 0.0,
			"-0.017": 0.0,
			"-0.016": 0.0,
			"-0.015": 0.0,
			"-0.014": 0.0,
			"-0.013": 0.0,
			"-0.012": 0.0,
			"-0.011": 0.0,
			"-0.01": 0.0,
			"-0.009": 0.0,
			"-0.008": 0.0,
			"-0.007": 0.176636804122,
			"-0.006": 3.40263660456,
			"-0.005": 7.52138096646,
			"-0.004": 13.1004614005,
			"-0.003": 21.4046854756,
			"-0.002": 33.4850450819,
			"-0.001": 30.0106214719,
			"0.0": 24.8753407336,
			"0.001": 18.4763012999,
			"0.002": 12.9934616957,
			"0.003": 4.04196463353,
			"0.004": 2.8011383483,
			"0.005": 2.78502997985,
			"0.006": 2.49454192539,
			"0.007": 2.26600411742,
			"0.008": 2.06081314014,
			"0.009": 1.92817038292,
			"0.01": 1.90349259782,
			"0.011": 2.28257631298,
			"0.012": 4.65724667412,
			"0.013": 1.92926731908,
			"0.014": 0.100447279225,
			"0.015": 0.0,
			"0.016": 0.0,
			"0.017": 0.0,
			"0.018": 0.0,
			"0.019": 0.0,
			"0.02": 0.0,
			"0.021": 0.0,
			"0.022": 0.0,
			"0.023": 0.0,
			"0.024": 0.0,
			"0.025": 0.0
		}
	}
}
