{
	 "smiles": "CN1N=C(C)C(=C1Cl)[N+]([O-])=O", 
	 "Tm": 349.15, 
	 "num_atms": 17, 
	 "gaussian": { 
		 "optdone": 1, 
		 "sigma_profile": "yes", 
		 "theory": "DFT", 
		 "functional": "B3LYP", 
		 "basiset": "6-31G**", 
		 "properties": { 
			 "R2extent": 2384.0147, 
			 "electric_dipole_moment_norm": 4.90173956265, 
			 "electric_quadrupole_moment_norm": 12.0258525897, 
			 "total_energy": -968.916589399, 
			 "HOMO_LUMO_gap": 0.19147, 
			 "cosmo_polarized_energy": -10.27, 
			 "cosmo_cavitation_energy": 23.62, 
			 "cosmo_dispersion_energy": -17.46, 
			 "cosmo_repulsion_energy": 1.41, 
			 "cosmo_total_nonelectrostatic_energy": 7.57, 
			 "SMD_solvation_energy": 5.32 
		},
		"coords": [
			{
				"x": -3.1516399484,
				"y": 0.3237560731,
				"z": -1.129240247,
				"element": "C" 
			},
			{
				"x": -1.7073379142,
				"y": 0.2622301048,
				"z": -0.9669551926,
				"element": "N" 
			},
			{
				"x": -1.097540489,
				"y": -0.9452653698,
				"z": -0.7904669602,
				"element": "N" 
			},
			{
				"x": 0.2021254775,
				"y": -0.6955855639,
				"z": -0.6740401951,
				"element": "C" 
			},
			{
				"x": 1.1741082367,
				"y": -1.8111150879,
				"z": -0.4667884823,
				"element": "C" 
			},
			{
				"x": 0.4344158793,
				"y": 0.7043158077,
				"z": -0.7780746122,
				"element": "C" 
			},
			{
				"x": -0.8233020223,
				"y": 1.279683067,
				"z": -0.9659862387,
				"element": "C" 
			},
			{
				"x": -1.3249423529,
				"y": 2.9033068371,
				"z": -1.1697923386,
				"element": "Cl" 
			},
			{
				"x": 1.6914339057,
				"y": 1.3789280491,
				"z": -0.7053495498,
				"element": "N" 
			},
			{
				"x": 2.6948691648,
				"y": 0.6783178986,
				"z": -0.5333486431,
				"element": "O" 
			},
			{
				"x": 1.7010045652,
				"y": 2.6066186298,
				"z": -0.8172271339,
				"element": "O" 
			},
			{
				"x": -3.4121403888,
				"y": 0.7469090292,
				"z": -2.1027807093,
				"element": "H" 
			},
			{
				"x": -3.6016246633,
				"y": 0.9315467205,
				"z": -0.3402390553,
				"element": "H" 
			},
			{
				"x": -3.5138587902,
				"y": -0.7005977705,
				"z": -1.061086472,
				"element": "H" 
			},
			{
				"x": 0.6291344221,
				"y": -2.7568318233,
				"z": -0.4381909369,
				"element": "H" 
			},
			{
				"x": 1.9152859474,
				"y": -1.8394495106,
				"z": -1.2699657069,
				"element": "H" 
			},
			{
				"x": 1.7287089704,
				"y": -1.6794670908,
				"z": 0.4661324738,
				"element": "H" 
			}
		],
		 "valence_orbital": [ 
			{
				"type": "occ",
				"energy": -0.30312,
				"method": "rhf"
			},
			{
				"type": "occ",
				"energy": -0.30041,
				"method": "rhf"
			},
			{
				"type": "occ",
				"energy": -0.28417,
				"method": "rhf"
			},
			{
				"type": "occ",
				"energy": -0.28001,
				"method": "rhf"
			},
			{
				"type": "occ",
				"energy": -0.26934,
				"method": "rhf"
			},
			{
				"type": "unocc",
				"energy": -0.07787,
				"method": "rhf"
			},
			{
				"type": "unocc",
				"energy": -0.00818,
				"method": "rhf"
			},
			{
				"type": "unocc",
				"energy": 0.00964,
				"method": "rhf"
			},
			{
				"type": "unocc",
				"energy": 0.05875,
				"method": "rhf"
			},
			{
				"type": "unocc",
				"energy": 0.09151,
				"method": "rhf"
			}
		],
		"cosmo_sigma_profile": { 
			"-0.025": 0.0,
			"-0.024": 0.0,
			"-0.023": 0.0,
			"-0.022": 0.0,
			"-0.021": 0.0,
			"-0.02": 0.0,
			"-0.019": 0.0,
			"-0.018": 0.0,
			"-0.017": 0.0,
			"-0.016": 0.0,
			"-0.015": 0.0,
			"-0.014": 0.0,
			"-0.013": 0.0,
			"-0.012": 0.0,
			"-0.011": 0.0,
			"-0.01": 0.0,
			"-0.009": 0.0,
			"-0.008": 1.84587660997,
			"-0.007": 7.64417718538,
			"-0.006": 9.24354159592,
			"-0.005": 15.0471405079,
			"-0.004": 20.9253987039,
			"-0.003": 18.743194755,
			"-0.002": 17.4441302875,
			"-0.001": 16.4948653558,
			"0.0": 12.6982971982,
			"0.001": 10.2736614575,
			"0.002": 8.92276148154,
			"0.003": 4.96679670267,
			"0.004": 5.3610003068,
			"0.005": 5.06591755136,
			"0.006": 4.63769617291,
			"0.007": 6.05478794807,
			"0.008": 10.4013946076,
			"0.009": 6.77200754581,
			"0.01": 4.72066317662,
			"0.011": 1.96267672079,
			"0.012": 0.808105522046,
			"0.013": 0.5340633629,
			"0.014": 0.0800658628206,
			"0.015": 0.0,
			"0.016": 0.0,
			"0.017": 0.0,
			"0.018": 0.0,
			"0.019": 0.0,
			"0.02": 0.0,
			"0.021": 0.0,
			"0.022": 0.0,
			"0.023": 0.0,
			"0.024": 0.0,
			"0.025": 0.0
		}
	}
}
