{
	 "smiles": "NC1=C(N=O)C(=O)NC(=O)N1", 
	 "Tm": 553.15, 
	 "num_atms": 15, 
	 "gaussian": { 
		 "optdone": 1, 
		 "sigma_profile": "yes", 
		 "theory": "DFT", 
		 "functional": "B3LYP", 
		 "basiset": "6-31G**", 
		 "properties": { 
			 "R2extent": 2315.631, 
			 "electric_dipole_moment_norm": 6.47929567932, 
			 "electric_quadrupole_moment_norm": 17.5152534489, 
			 "total_energy": -599.480441573, 
			 "HOMO_LUMO_gap": 0.13282, 
			 "cosmo_polarized_energy": -30.19, 
			 "cosmo_cavitation_energy": 20.52, 
			 "cosmo_dispersion_energy": -15.79, 
			 "cosmo_repulsion_energy": 1.28, 
			 "cosmo_total_nonelectrostatic_energy": 6.01, 
			 "SMD_solvation_energy": 5.31 
		},
		"coords": [
			{
				"x": 1.9820753577,
				"y": -0.0986168811,
				"z": 0.1067651057,
				"element": "N" 
			},
			{
				"x": 0.9908191565,
				"y": -0.9783789304,
				"z": -0.0014127665,
				"element": "C" 
			},
			{
				"x": 0.1851936303,
				"y": -1.0227794394,
				"z": -1.1693980575,
				"element": "C" 
			},
			{
				"x": 0.3462019644,
				"y": -0.196380814,
				"z": -2.2532269967,
				"element": "N" 
			},
			{
				"x": 1.2676652316,
				"y": 0.6582991296,
				"z": -2.2116779899,
				"element": "O" 
			},
			{
				"x": -0.9028524798,
				"y": -2.0046157363,
				"z": -1.2637155111,
				"element": "C" 
			},
			{
				"x": -1.6683826436,
				"y": -2.1584973232,
				"z": -2.192907252,
				"element": "O" 
			},
			{
				"x": -1.026381543,
				"y": -2.8358249728,
				"z": -0.118286955,
				"element": "N" 
			},
			{
				"x": -0.2724871259,
				"y": -2.8259862807,
				"z": 1.0279231399,
				"element": "C" 
			},
			{
				"x": -0.4241266951,
				"y": -3.5629910324,
				"z": 1.9807853647,
				"element": "O" 
			},
			{
				"x": 0.743458887,
				"y": -1.8496299652,
				"z": 1.0219361772,
				"element": "N" 
			},
			{
				"x": 2.5717045311,
				"y": -0.043257785,
				"z": 0.9234622772,
				"element": "H" 
			},
			{
				"x": 2.0690634874,
				"y": 0.505463116,
				"z": -0.7323548399,
				"element": "H" 
			},
			{
				"x": -1.7694463658,
				"y": -3.5232310078,
				"z": -0.1557925185,
				"element": "H" 
			},
			{
				"x": 1.3029946071,
				"y": -1.8371720773,
				"z": 1.8655008223,
				"element": "H" 
			}
		],
		 "valence_orbital": [ 
			{
				"type": "occ",
				"energy": -0.31697,
				"method": "rhf"
			},
			{
				"type": "occ",
				"energy": -0.29966,
				"method": "rhf"
			},
			{
				"type": "occ",
				"energy": -0.27446,
				"method": "rhf"
			},
			{
				"type": "occ",
				"energy": -0.25914,
				"method": "rhf"
			},
			{
				"type": "occ",
				"energy": -0.21955,
				"method": "rhf"
			},
			{
				"type": "unocc",
				"energy": -0.08673,
				"method": "rhf"
			},
			{
				"type": "unocc",
				"energy": -0.02407,
				"method": "rhf"
			},
			{
				"type": "unocc",
				"energy": 0.00756,
				"method": "rhf"
			},
			{
				"type": "unocc",
				"energy": 0.02849,
				"method": "rhf"
			},
			{
				"type": "unocc",
				"energy": 0.0659,
				"method": "rhf"
			}
		],
		"cosmo_sigma_profile": { 
			"-0.025": 0.0,
			"-0.024": 0.0,
			"-0.023": 0.0,
			"-0.022": 0.0407210983972,
			"-0.021": 0.841995704818,
			"-0.02": 0.891707656695,
			"-0.019": 1.75395414506,
			"-0.018": 1.95965811069,
			"-0.017": 2.33593898932,
			"-0.016": 3.03337023369,
			"-0.015": 2.61720127659,
			"-0.014": 2.20037424239,
			"-0.013": 2.32790542566,
			"-0.012": 2.67259841545,
			"-0.011": 2.41683101055,
			"-0.01": 3.57756646015,
			"-0.009": 2.96132411797,
			"-0.008": 3.59171189651,
			"-0.007": 3.89240781712,
			"-0.006": 5.68407331677,
			"-0.005": 6.78438860138,
			"-0.004": 9.2397000584,
			"-0.003": 9.88591539245,
			"-0.002": 9.44213266703,
			"-0.001": 7.05977095297,
			"0.0": 5.51814364643,
			"0.001": 4.07755221052,
			"0.002": 3.91357523524,
			"0.003": 3.42432406122,
			"0.004": 3.8810667984,
			"0.005": 3.83406797702,
			"0.006": 3.43706857181,
			"0.007": 3.66951686416,
			"0.008": 4.43266252373,
			"0.009": 6.29734652643,
			"0.01": 6.17746545411,
			"0.011": 11.0634958837,
			"0.012": 11.7453689696,
			"0.013": 4.01163977729,
			"0.014": 2.20866433515,
			"0.015": 1.23961031185,
			"0.016": 0.355098243236,
			"0.017": 0.0,
			"0.018": 0.0,
			"0.019": 0.0,
			"0.02": 0.0,
			"0.021": 0.0,
			"0.022": 0.0,
			"0.023": 0.0,
			"0.024": 0.0,
			"0.025": 0.0
		}
	}
}
