{
	 "smiles": "FC1=C(C=CC(Br)=C1)C(=O)C1=CC=CC=C1", 
	 "Tm": 350.15, 
	 "num_atms": 24, 
	 "gaussian": { 
		 "optdone": 1, 
		 "sigma_profile": "yes", 
		 "theory": "DFT", 
		 "functional": "B3LYP", 
		 "basiset": "6-31G**", 
		 "properties": { 
			 "R2extent": 8158.7275, 
			 "electric_dipole_moment_norm": 2.15906269941, 
			 "electric_quadrupole_moment_norm": 6.8847154146, 
			 "total_energy": -3246.66497875, 
			 "HOMO_LUMO_gap": 0.17794, 
			 "cosmo_polarized_energy": -8.24, 
			 "cosmo_cavitation_energy": 31.6, 
			 "cosmo_dispersion_energy": -23.13, 
			 "cosmo_repulsion_energy": 1.77, 
			 "cosmo_total_nonelectrostatic_energy": 10.25, 
			 "SMD_solvation_energy": 5.03 
		},
		"coords": [
			{
				"x": -0.5819800148,
				"y": 0.5067200277,
				"z": -1.9322706176,
				"element": "F" 
			},
			{
				"x": -1.5754915099,
				"y": 0.9598550891,
				"z": -1.1426799277,
				"element": "C" 
			},
			{
				"x": -1.4495899187,
				"y": 0.8936840392,
				"z": 0.2486747171,
				"element": "C" 
			},
			{
				"x": -2.4918316405,
				"y": 1.4486736808,
				"z": 1.0094492699,
				"element": "C" 
			},
			{
				"x": -3.6252117094,
				"y": 1.9943841835,
				"z": 0.4172445767,
				"element": "C" 
			},
			{
				"x": -3.7110454111,
				"y": 2.0169601659,
				"z": -0.9765358716,
				"element": "C" 
			},
			{
				"x": -5.2516209768,
				"y": 2.7649254599,
				"z": -1.8126788649,
				"element": "Br" 
			},
			{
				"x": -2.6869060484,
				"y": 1.5115008093,
				"z": -1.771986969,
				"element": "C" 
			},
			{
				"x": -0.2432161794,
				"y": 0.3733691395,
				"z": 0.9865483451,
				"element": "C" 
			},
			{
				"x": 0.1139354977,
				"y": 0.9605132243,
				"z": 2.0011355048,
				"element": "O" 
			},
			{
				"x": 0.4700029737,
				"y": -0.8575280167,
				"z": 0.5305294983,
				"element": "C" 
			},
			{
				"x": 1.7732540883,
				"y": -1.0726360057,
				"z": 1.0073715338,
				"element": "C" 
			},
			{
				"x": 2.4678915662,
				"y": -2.2269072309,
				"z": 0.6597949767,
				"element": "C" 
			},
			{
				"x": 1.8587620118,
				"y": -3.1917760194,
				"z": -0.1485339584,
				"element": "C" 
			},
			{
				"x": 0.5550268076,
				"y": -2.9962931821,
				"z": -0.6088349195,
				"element": "C" 
			},
			{
				"x": -0.1352770281,
				"y": -1.8315404671,
				"z": -0.2772675262,
				"element": "C" 
			},
			{
				"x": -2.3875707069,
				"y": 1.4419540484,
				"z": 2.0892672698,
				"element": "H" 
			},
			{
				"x": -4.4266313363,
				"y": 2.4021104321,
				"z": 1.0215119674,
				"element": "H" 
			},
			{
				"x": -2.7289174696,
				"y": 1.5466527555,
				"z": -2.8534322324,
				"element": "H" 
			},
			{
				"x": 2.2187354801,
				"y": -0.3198037819,
				"z": 1.6488743922,
				"element": "H" 
			},
			{
				"x": 3.4806044613,
				"y": -2.3799640645,
				"z": 1.0209600119,
				"element": "H" 
			},
			{
				"x": 2.3982781385,
				"y": -4.0960939805,
				"z": -0.4154672061,
				"element": "H" 
			},
			{
				"x": 0.076046519,
				"y": -3.7508670391,
				"z": -1.2256327942,
				"element": "H" 
			},
			{
				"x": -1.1519475942,
				"y": -1.6921932672,
				"z": -0.6289411761,
				"element": "H" 
			}
		],
		 "valence_orbital": [ 
			{
				"type": "occ",
				"energy": -0.27269,
				"method": "rhf"
			},
			{
				"type": "occ",
				"energy": -0.26539,
				"method": "rhf"
			},
			{
				"type": "occ",
				"energy": -0.26184,
				"method": "rhf"
			},
			{
				"type": "occ",
				"energy": -0.25882,
				"method": "rhf"
			},
			{
				"type": "occ",
				"energy": -0.25125,
				"method": "rhf"
			},
			{
				"type": "unocc",
				"energy": -0.07331,
				"method": "rhf"
			},
			{
				"type": "unocc",
				"energy": -0.0278,
				"method": "rhf"
			},
			{
				"type": "unocc",
				"energy": -0.02018,
				"method": "rhf"
			},
			{
				"type": "unocc",
				"energy": -0.00993,
				"method": "rhf"
			},
			{
				"type": "unocc",
				"energy": -0.00561,
				"method": "rhf"
			}
		],
		"cosmo_sigma_profile": { 
			"-0.025": 0.0,
			"-0.024": 0.0,
			"-0.023": 0.0,
			"-0.022": 0.0,
			"-0.021": 0.0,
			"-0.02": 0.0,
			"-0.019": 0.0,
			"-0.018": 0.0,
			"-0.017": 0.0,
			"-0.016": 0.0,
			"-0.015": 0.0,
			"-0.014": 0.0,
			"-0.013": 0.0,
			"-0.012": 0.0,
			"-0.011": 0.0,
			"-0.01": 0.0192357800613,
			"-0.009": 0.972974244241,
			"-0.008": 2.29704422793,
			"-0.007": 6.23983566668,
			"-0.006": 15.0780351215,
			"-0.005": 17.288181103,
			"-0.004": 18.8848033827,
			"-0.003": 16.7709194659,
			"-0.002": 16.0313493751,
			"-0.001": 20.9271907166,
			"0.0": 22.4087168869,
			"0.001": 26.5087443966,
			"0.002": 20.5326007896,
			"0.003": 27.6122462978,
			"0.004": 27.6295092989,
			"0.005": 3.62327524785,
			"0.006": 1.65026153269,
			"0.007": 1.46128900314,
			"0.008": 2.05560375992,
			"0.009": 1.91064534157,
			"0.01": 2.22409710138,
			"0.011": 3.7310843921,
			"0.012": 2.45527716965,
			"0.013": 0.0265060602448,
			"0.014": 0.0,
			"0.015": 0.0,
			"0.016": 0.0,
			"0.017": 0.0,
			"0.018": 0.0,
			"0.019": 0.0,
			"0.02": 0.0,
			"0.021": 0.0,
			"0.022": 0.0,
			"0.023": 0.0,
			"0.024": 0.0,
			"0.025": 0.0
		}
	}
}
