{
	 "smiles": "NC1=C(I)C=CN=C1", 
	 "Tm": 334.15, 
	 "num_atms": 13, 
	 "gaussian": { 
		 "optdone": 1, 
		 "sigma_profile": "no", 
		 "theory": "DFT", 
		 "functional": "B3LYP", 
		 "basiset": "6-31G**", 
		 "properties": { 
			 "R2extent": 1456.2777, 
			 "electric_dipole_moment_norm": 2.12055141414, 
			 "electric_quadrupole_moment_norm": 11.6915756214, 
			 "total_energy": -314.428286571, 
			 "HOMO_LUMO_gap": 0.176, 
			 "cosmo_polarized_energy": -88474.9, 
			 "cosmo_cavitation_energy": 19.94, 
			 "cosmo_dispersion_energy": -16.57, 
			 "cosmo_repulsion_energy": 1.33, 
			 "cosmo_total_nonelectrostatic_energy": 4.7, 
			 "SMD_solvation_energy": 1.23 
		},
		"coords": [
			{
				"x": 1.5301992776,
				"y": -0.2448557213,
				"z": 0.9060485329,
				"element": "N" 
			},
			{
				"x": 0.5622218192,
				"y": 0.726152969,
				"z": 1.0750277338,
				"element": "C" 
			},
			{
				"x": -0.8194771852,
				"y": 0.4695457955,
				"z": 1.0701772644,
				"element": "C" 
			},
			{
				"x": -1.5539722101,
				"y": -1.4863774495,
				"z": 0.6907480334,
				"element": "I" 
			},
			{
				"x": -1.7210954494,
				"y": 1.5043943703,
				"z": 1.3078224789,
				"element": "C" 
			},
			{
				"x": -1.2235353023,
				"y": 2.7844220101,
				"z": 1.546660772,
				"element": "C" 
			},
			{
				"x": 0.0865942009,
				"y": 3.064348532,
				"z": 1.5535199114,
				"element": "N" 
			},
			{
				"x": 0.93391181,
				"y": 2.0689126101,
				"z": 1.325065075,
				"element": "C" 
			},
			{
				"x": 1.2474802911,
				"y": -1.0900854067,
				"z": 0.4295538949,
				"element": "H" 
			},
			{
				"x": 2.4453500261,
				"y": 0.0870383384,
				"z": 0.6378362752,
				"element": "H" 
			},
			{
				"x": -2.7895512775,
				"y": 1.3219466107,
				"z": 1.3059500933,
				"element": "H" 
			},
			{
				"x": -1.904210345,
				"y": 3.6107897125,
				"z": 1.7362233256,
				"element": "H" 
			},
			{
				"x": 1.9961843447,
				"y": 2.3167676288,
				"z": 1.3367666093,
				"element": "H" 
			}
		],
		 "valence_orbital": [ 
			{
				"type": "occ",
				"energy": -0.31234,
				"method": "rhf"
			},
			{
				"type": "occ",
				"energy": -0.28108,
				"method": "rhf"
			},
			{
				"type": "occ",
				"energy": -0.26001,
				"method": "rhf"
			},
			{
				"type": "occ",
				"energy": -0.25744,
				"method": "rhf"
			},
			{
				"type": "occ",
				"energy": -0.22171,
				"method": "rhf"
			},
			{
				"type": "unocc",
				"energy": -0.04571,
				"method": "rhf"
			},
			{
				"type": "unocc",
				"energy": -0.02983,
				"method": "rhf"
			},
			{
				"type": "unocc",
				"energy": -0.00403,
				"method": "rhf"
			},
			{
				"type": "unocc",
				"energy": 0.03239,
				"method": "rhf"
			},
			{
				"type": "unocc",
				"energy": 0.0473,
				"method": "rhf"
			}
		],
		"cosmo_sigma_profile": { 
			"0.0": 0.0,
			"0.0": 0.0,
			"0.0": 0.0,
			"0.0": 0.0,
			"0.0": 0.0,
			"0.0": 0.0,
			"0.0": 0.0,
			"0.0": 0.0,
			"0.0": 0.0,
			"0.0": 0.0,
			"0.0": 0.0,
			"0.0": 0.0,
			"0.0": 0.0,
			"0.0": 0.0,
			"0.0": 0.0,
			"0.0": 0.0,
			"0.0": 0.0,
			"0.0": 0.0,
			"0.0": 0.0,
			"0.0": 0.0,
			"0.0": 0.0,
			"0.0": 0.0,
			"0.0": 0.0,
			"0.0": 0.0,
			"0.0": 0.0,
			"0.0": 0.0,
			"0.0": 0.0,
			"0.0": 0.0,
			"0.0": 0.0,
			"0.0": 0.0,
			"0.0": 0.0,
			"0.0": 0.0,
			"0.0": 0.0,
			"0.0": 0.0,
			"0.0": 0.0,
			"0.0": 0.0,
			"0.0": 0.0,
			"0.0": 0.0,
			"0.0": 0.0,
			"0.0": 0.0,
			"0.0": 0.0,
			"0.0": 0.0,
			"0.0": 0.0,
			"0.0": 0.0,
			"0.0": 0.0,
			"0.0": 0.0,
			"0.0": 0.0,
			"0.0": 0.0,
			"0.0": 0.0,
			"0.0": 0.0,
			"0.0": 0.0
		}
	}
}
