{
	 "smiles": "ClC1=CC2=C(C=C1)C1(OC(=O)C3=C1C=CC=C3)C1=CC=C(Cl)C=C1O2", 
	 "Tm": 527.15, 
	 "num_atms": 35, 
	 "gaussian": { 
		 "optdone": 1, 
		 "sigma_profile": "yes", 
		 "theory": "DFT", 
		 "functional": "B3LYP", 
		 "basiset": "6-31G**", 
		 "properties": { 
			 "R2extent": 10736.1052, 
			 "electric_dipole_moment_norm": 4.69884302781, 
			 "electric_quadrupole_moment_norm": 16.7500211818, 
			 "total_energy": -1914.22692997, 
			 "HOMO_LUMO_gap": 0.17981, 
			 "cosmo_polarized_energy": -13.58, 
			 "cosmo_cavitation_energy": 43.45, 
			 "cosmo_dispersion_energy": -30.62, 
			 "cosmo_repulsion_energy": 2.31, 
			 "cosmo_total_nonelectrostatic_energy": 15.14, 
			 "SMD_solvation_energy": 7.67 
		},
		"coords": [
			{
				"x": 5.2908929928,
				"y": 3.2509144428,
				"z": -1.405928718,
				"element": "Cl" 
			},
			{
				"x": 3.7934457728,
				"y": 2.6207386287,
				"z": -0.7457054221,
				"element": "C" 
			},
			{
				"x": 3.7641058028,
				"y": 1.3264405519,
				"z": -0.2492306657,
				"element": "C" 
			},
			{
				"x": 2.5630620702,
				"y": 0.8348234008,
				"z": 0.2754844025,
				"element": "C" 
			},
			{
				"x": 1.4005443912,
				"y": 1.6098714432,
				"z": 0.3009219913,
				"element": "C" 
			},
			{
				"x": 1.4755523881,
				"y": 2.9149004827,
				"z": -0.2082582992,
				"element": "C" 
			},
			{
				"x": 2.6533776167,
				"y": 3.432183016,
				"z": -0.729904626,
				"element": "C" 
			},
			{
				"x": 0.1045082683,
				"y": 1.0760144726,
				"z": 0.8803429388,
				"element": "C" 
			},
			{
				"x": -0.2898297156,
				"y": 1.9402883584,
				"z": 2.0046575542,
				"element": "O" 
			},
			{
				"x": -1.5156295132,
				"y": 2.5300161911,
				"z": 1.7972428387,
				"element": "C" 
			},
			{
				"x": -2.0228652929,
				"y": 3.2756676122,
				"z": 2.596856596,
				"element": "O" 
			},
			{
				"x": -2.0136890545,
				"y": 2.0712138827,
				"z": 0.4803820321,
				"element": "C" 
			},
			{
				"x": -1.0743660041,
				"y": 1.2133955442,
				"z": -0.0771414752,
				"element": "C" 
			},
			{
				"x": -1.2929441037,
				"y": 0.6331542535,
				"z": -1.3235929442,
				"element": "C" 
			},
			{
				"x": -2.4832152966,
				"y": 0.9437718374,
				"z": -1.9871040624,
				"element": "C" 
			},
			{
				"x": -3.430675203,
				"y": 1.811617552,
				"z": -1.420237151,
				"element": "C" 
			},
			{
				"x": -3.2047639552,
				"y": 2.388949372,
				"z": -0.1714887658,
				"element": "C" 
			},
			{
				"x": 0.2780499765,
				"y": -0.3369131577,
				"z": 1.4037539593,
				"element": "C" 
			},
			{
				"x": -0.7884696648,
				"y": -1.0118001037,
				"z": 2.0161837819,
				"element": "C" 
			},
			{
				"x": -0.6511175049,
				"y": -2.2991712975,
				"z": 2.5169506051,
				"element": "C" 
			},
			{
				"x": 0.5902199471,
				"y": -2.9349870979,
				"z": 2.4017645205,
				"element": "C" 
			},
			{
				"x": 0.7851341611,
				"y": -4.5639123972,
				"z": 3.0213965107,
				"element": "Cl" 
			},
			{
				"x": 1.6715307413,
				"y": -2.3029186771,
				"z": 1.8069457554,
				"element": "C" 
			},
			{
				"x": 1.5036033894,
				"y": -1.0026378885,
				"z": 1.3164540645,
				"element": "C" 
			},
			{
				"x": 2.6187846694,
				"y": -0.4501834978,
				"z": 0.7453025368,
				"element": "O" 
			},
			{
				"x": 4.6426515524,
				"y": 0.6929688469,
				"z": -0.2516983592,
				"element": "H" 
			},
			{
				"x": 0.5873089966,
				"y": 3.5383004957,
				"z": -0.1902434281,
				"element": "H" 
			},
			{
				"x": 2.6959241054,
				"y": 4.4430899768,
				"z": -1.1173956177,
				"element": "H" 
			},
			{
				"x": -0.5665792705,
				"y": -0.0390355464,
				"z": -1.7703920343,
				"element": "H" 
			},
			{
				"x": -2.68000114,
				"y": 0.5053054722,
				"z": -2.9611139558,
				"element": "H" 
			},
			{
				"x": -4.3451423997,
				"y": 2.0319002913,
				"z": -1.9624173299,
				"element": "H" 
			},
			{
				"x": -3.920105543,
				"y": 3.0627503932,
				"z": 0.2893542321,
				"element": "H" 
			},
			{
				"x": -1.7472293075,
				"y": -0.5107029896,
				"z": 2.1034218453,
				"element": "H" 
			},
			{
				"x": -1.4838340756,
				"y": -2.8063302791,
				"z": 2.9894601871,
				"element": "H" 
			},
			{
				"x": 2.6376602026,
				"y": -2.7844835857,
				"z": 1.7184765023,
				"element": "H" 
			}
		],
		 "valence_orbital": [ 
			{
				"type": "occ",
				"energy": -0.2796,
				"method": "rhf"
			},
			{
				"type": "occ",
				"energy": -0.27773,
				"method": "rhf"
			},
			{
				"type": "occ",
				"energy": -0.26368,
				"method": "rhf"
			},
			{
				"type": "occ",
				"energy": -0.25444,
				"method": "rhf"
			},
			{
				"type": "occ",
				"energy": -0.23913,
				"method": "rhf"
			},
			{
				"type": "unocc",
				"energy": -0.05932,
				"method": "rhf"
			},
			{
				"type": "unocc",
				"energy": -0.04643,
				"method": "rhf"
			},
			{
				"type": "unocc",
				"energy": -0.03988,
				"method": "rhf"
			},
			{
				"type": "unocc",
				"energy": -0.0242,
				"method": "rhf"
			},
			{
				"type": "unocc",
				"energy": -0.02393,
				"method": "rhf"
			}
		],
		"cosmo_sigma_profile": { 
			"-0.025": 0.0,
			"-0.024": 0.0,
			"-0.023": 0.0,
			"-0.022": 0.0,
			"-0.021": 0.0,
			"-0.02": 0.0,
			"-0.019": 0.0,
			"-0.018": 0.0,
			"-0.017": 0.0,
			"-0.016": 0.0,
			"-0.015": 0.0,
			"-0.014": 0.0,
			"-0.013": 0.0,
			"-0.012": 0.0,
			"-0.011": 0.0,
			"-0.01": 0.0,
			"-0.009": 0.393153297923,
			"-0.008": 6.88882344159,
			"-0.007": 20.1030009077,
			"-0.006": 21.1236081263,
			"-0.005": 19.4334195088,
			"-0.004": 17.1674492976,
			"-0.003": 17.1615463918,
			"-0.002": 19.1371477474,
			"-0.001": 23.9070714352,
			"0.0": 34.7744820959,
			"0.001": 48.5761621324,
			"0.002": 39.1657169155,
			"0.003": 29.0284117953,
			"0.004": 24.9424321143,
			"0.005": 7.73394764228,
			"0.006": 3.65322843308,
			"0.007": 1.86190716051,
			"0.008": 3.20250017418,
			"0.009": 3.79947321728,
			"0.01": 3.98170862864,
			"0.011": 5.38704845037,
			"0.012": 3.97782332152,
			"0.013": 0.502991713368,
			"0.014": 0.0,
			"0.015": 0.0,
			"0.016": 0.0,
			"0.017": 0.0,
			"0.018": 0.0,
			"0.019": 0.0,
			"0.02": 0.0,
			"0.021": 0.0,
			"0.022": 0.0,
			"0.023": 0.0,
			"0.024": 0.0,
			"0.025": 0.0
		}
	}
}
