{
	 "smiles": "CC(=O)NC1=C(C)NN=C1C", 
	 "Tm": 476.15, 
	 "num_atms": 22, 
	 "gaussian": { 
		 "optdone": 1, 
		 "sigma_profile": "yes", 
		 "theory": "DFT", 
		 "functional": "B3LYP", 
		 "basiset": "6-31G**", 
		 "properties": { 
			 "R2extent": 2438.6606, 
			 "electric_dipole_moment_norm": 3.99725589999, 
			 "electric_quadrupole_moment_norm": 12.7336748023, 
			 "total_energy": -512.860703678, 
			 "HOMO_LUMO_gap": 0.24823, 
			 "cosmo_polarized_energy": -16.03, 
			 "cosmo_cavitation_energy": 26.27, 
			 "cosmo_dispersion_energy": -18.07, 
			 "cosmo_repulsion_energy": 1.5, 
			 "cosmo_total_nonelectrostatic_energy": 9.7, 
			 "SMD_solvation_energy": 4.95 
		},
		"coords": [
			{
				"x": 1.6794078905,
				"y": -2.2432724524,
				"z": 1.0681396532,
				"element": "C" 
			},
			{
				"x": 1.5694921708,
				"y": -0.8429403849,
				"z": 1.6466158612,
				"element": "C" 
			},
			{
				"x": 1.6855214734,
				"y": -0.6060159675,
				"z": 2.8397767475,
				"element": "O" 
			},
			{
				"x": 1.3105732211,
				"y": 0.1761260201,
				"z": 0.7478621645,
				"element": "N" 
			},
			{
				"x": 1.2382757373,
				"y": 0.0813528828,
				"z": -0.6608689927,
				"element": "C" 
			},
			{
				"x": 0.0952188911,
				"y": -0.1502180616,
				"z": -1.4174483397,
				"element": "C" 
			},
			{
				"x": -1.3222876157,
				"y": -0.3746359346,
				"z": -1.0055583607,
				"element": "C" 
			},
			{
				"x": 0.5198128413,
				"y": -0.1353426347,
				"z": -2.7062692833,
				"element": "N" 
			},
			{
				"x": 1.8510782039,
				"y": 0.0948711499,
				"z": -2.8443754883,
				"element": "N" 
			},
			{
				"x": 2.300671582,
				"y": 0.2298985576,
				"z": -1.5999943869,
				"element": "C" 
			},
			{
				"x": 3.7457593329,
				"y": 0.507362983,
				"z": -1.3249388334,
				"element": "C" 
			},
			{
				"x": 1.9364955356,
				"y": -2.9233602314,
				"z": 1.8797104439,
				"element": "H" 
			},
			{
				"x": 2.4412047946,
				"y": -2.2950577585,
				"z": 0.284635396,
				"element": "H" 
			},
			{
				"x": 0.7323376048,
				"y": -2.5567398277,
				"z": 0.6175858303,
				"element": "H" 
			},
			{
				"x": 1.2898218828,
				"y": 1.0901967701,
				"z": 1.1850826363,
				"element": "H" 
			},
			{
				"x": -1.4032759427,
				"y": -0.2737065664,
				"z": 0.0791076449,
				"element": "H" 
			},
			{
				"x": -1.9995192245,
				"y": 0.3542266691,
				"z": -1.465135498,
				"element": "H" 
			},
			{
				"x": -1.6757313793,
				"y": -1.3755754938,
				"z": -1.2797356776,
				"element": "H" 
			},
			{
				"x": -0.0361580959,
				"y": -0.2706258248,
				"z": -3.5362965161,
				"element": "H" 
			},
			{
				"x": 4.1925210133,
				"y": -0.269701697,
				"z": -0.694844123,
				"element": "H" 
			},
			{
				"x": 3.8778028025,
				"y": 1.4602720488,
				"z": -0.8003657531,
				"element": "H" 
			},
			{
				"x": 4.2981772803,
				"y": 0.5509857539,
				"z": -2.2657851249,
				"element": "H" 
			}
		],
		 "valence_orbital": [ 
			{
				"type": "occ",
				"energy": -0.2971,
				"method": "rhf"
			},
			{
				"type": "occ",
				"energy": -0.25845,
				"method": "rhf"
			},
			{
				"type": "occ",
				"energy": -0.24939,
				"method": "rhf"
			},
			{
				"type": "occ",
				"energy": -0.24723,
				"method": "rhf"
			},
			{
				"type": "occ",
				"energy": -0.23531,
				"method": "rhf"
			},
			{
				"type": "unocc",
				"energy": 0.01292,
				"method": "rhf"
			},
			{
				"type": "unocc",
				"energy": 0.0315,
				"method": "rhf"
			},
			{
				"type": "unocc",
				"energy": 0.05557,
				"method": "rhf"
			},
			{
				"type": "unocc",
				"energy": 0.07424,
				"method": "rhf"
			},
			{
				"type": "unocc",
				"energy": 0.08345,
				"method": "rhf"
			}
		],
		"cosmo_sigma_profile": { 
			"-0.025": 0.0,
			"-0.024": 0.0,
			"-0.023": 0.0,
			"-0.022": 0.0,
			"-0.021": 0.0,
			"-0.02": 0.0,
			"-0.019": 0.0,
			"-0.018": 0.0,
			"-0.017": 0.024917193116,
			"-0.016": 1.14129988492,
			"-0.015": 1.23564754518,
			"-0.014": 1.54182841255,
			"-0.013": 1.41249846371,
			"-0.012": 2.00839597605,
			"-0.011": 1.95868243209,
			"-0.01": 1.8852399732,
			"-0.009": 1.5082402408,
			"-0.008": 2.11115135911,
			"-0.007": 2.39087415375,
			"-0.006": 2.53102746567,
			"-0.005": 11.6809506397,
			"-0.004": 21.7248693577,
			"-0.003": 21.9918445946,
			"-0.002": 22.4746080483,
			"-0.001": 22.8819020798,
			"0.0": 18.8115555084,
			"0.001": 9.9642074861,
			"0.002": 5.85627883729,
			"0.003": 5.70691429555,
			"0.004": 5.5661222615,
			"0.005": 4.60538709877,
			"0.006": 3.3598025721,
			"0.007": 3.18566426274,
			"0.008": 2.19868360152,
			"0.009": 2.86838991761,
			"0.01": 2.99830413215,
			"0.011": 2.58398288448,
			"0.012": 2.92767120834,
			"0.013": 5.05679571892,
			"0.014": 6.60954958602,
			"0.015": 2.70673399141,
			"0.016": 0.889696001567,
			"0.017": 0.275724948448,
			"0.018": 0.0,
			"0.019": 0.0,
			"0.02": 0.0,
			"0.021": 0.0,
			"0.022": 0.0,
			"0.023": 0.0,
			"0.024": 0.0,
			"0.025": 0.0
		}
	}
}
