{
	 "smiles": "OC(=O)C1=NC(=CC=C1)N1C=CC=N1", 
	 "Tm": 458.15, 
	 "num_atms": 21, 
	 "gaussian": { 
		 "optdone": 1, 
		 "sigma_profile": "yes", 
		 "theory": "DFT", 
		 "functional": "B3LYP", 
		 "basiset": "6-31G**", 
		 "properties": { 
			 "R2extent": 3418.9961, 
			 "electric_dipole_moment_norm": 7.15216386627, 
			 "electric_quadrupole_moment_norm": 19.725177548, 
			 "total_energy": -661.864055178, 
			 "HOMO_LUMO_gap": 0.18264, 
			 "cosmo_polarized_energy": -17.09, 
			 "cosmo_cavitation_energy": 26.48, 
			 "cosmo_dispersion_energy": -19.63, 
			 "cosmo_repulsion_energy": 1.51, 
			 "cosmo_total_nonelectrostatic_energy": 8.36, 
			 "SMD_solvation_energy": 5.11 
		},
		"coords": [
			{
				"x": 0.6271834047,
				"y": -0.6202986634,
				"z": 2.9666283926,
				"element": "O" 
			},
			{
				"x": 0.4017923376,
				"y": 0.6887440055,
				"z": 3.1348166666,
				"element": "C" 
			},
			{
				"x": 0.7036095001,
				"y": 1.2970692903,
				"z": 4.1369467624,
				"element": "O" 
			},
			{
				"x": -0.2675277464,
				"y": 1.347276519,
				"z": 1.9500449229,
				"element": "C" 
			},
			{
				"x": -0.5313087471,
				"y": 0.5290366068,
				"z": 0.9238152318,
				"element": "N" 
			},
			{
				"x": -1.1194543768,
				"y": 1.0289574293,
				"z": -0.1580862477,
				"element": "C" 
			},
			{
				"x": -1.4722949371,
				"y": 2.3860026758,
				"z": -0.2587134102,
				"element": "C" 
			},
			{
				"x": -1.1909169082,
				"y": 3.2219780784,
				"z": 0.8170142607,
				"element": "C" 
			},
			{
				"x": -0.5735642781,
				"y": 2.7044349401,
				"z": 1.9565348151,
				"element": "C" 
			},
			{
				"x": -1.3760047789,
				"y": 0.1242891562,
				"z": -1.2126407431,
				"element": "N" 
			},
			{
				"x": -1.9690326352,
				"y": 0.384250299,
				"z": -2.4260790471,
				"element": "C" 
			},
			{
				"x": -2.0008912859,
				"y": -0.8014558358,
				"z": -3.1161167679,
				"element": "C" 
			},
			{
				"x": -1.3994746552,
				"y": -1.7395350581,
				"z": -2.2368152156,
				"element": "C" 
			},
			{
				"x": -1.0235309943,
				"y": -1.1871971016,
				"z": -1.0942917549,
				"element": "N" 
			},
			{
				"x": 0.2889444571,
				"y": -0.8528857561,
				"z": 2.0748261258,
				"element": "H" 
			},
			{
				"x": -1.9509874925,
				"y": 2.7821265477,
				"z": -1.145430938,
				"element": "H" 
			},
			{
				"x": -1.4544476809,
				"y": 4.2737989562,
				"z": 0.7617204485,
				"element": "H" 
			},
			{
				"x": -0.330519281,
				"y": 3.306509372,
				"z": 2.8234055305,
				"element": "H" 
			},
			{
				"x": -2.3156271133,
				"y": 1.3671294193,
				"z": -2.7019623136,
				"element": "H" 
			},
			{
				"x": -2.397592502,
				"y": -0.9698840128,
				"z": -4.1059563755,
				"element": "H" 
			},
			{
				"x": -1.2283542865,
				"y": -2.7957468676,
				"z": -2.3977603433,
				"element": "H" 
			}
		],
		 "valence_orbital": [ 
			{
				"type": "occ",
				"energy": -0.30409,
				"method": "rhf"
			},
			{
				"type": "occ",
				"energy": -0.29425,
				"method": "rhf"
			},
			{
				"type": "occ",
				"energy": -0.26727,
				"method": "rhf"
			},
			{
				"type": "occ",
				"energy": -0.26565,
				"method": "rhf"
			},
			{
				"type": "occ",
				"energy": -0.25184,
				"method": "rhf"
			},
			{
				"type": "unocc",
				"energy": -0.0692,
				"method": "rhf"
			},
			{
				"type": "unocc",
				"energy": -0.05652,
				"method": "rhf"
			},
			{
				"type": "unocc",
				"energy": 0.009,
				"method": "rhf"
			},
			{
				"type": "unocc",
				"energy": 0.05363,
				"method": "rhf"
			},
			{
				"type": "unocc",
				"energy": 0.06272,
				"method": "rhf"
			}
		],
		"cosmo_sigma_profile": { 
			"-0.025": 0.0,
			"-0.024": 0.0,
			"-0.023": 0.0,
			"-0.022": 0.0,
			"-0.021": 0.0,
			"-0.02": 0.0,
			"-0.019": 0.0,
			"-0.018": 0.0,
			"-0.017": 0.0,
			"-0.016": 0.0,
			"-0.015": 0.0,
			"-0.014": 0.0,
			"-0.013": 0.21801071884,
			"-0.012": 1.42476222516,
			"-0.011": 2.30537243773,
			"-0.01": 3.4962270463,
			"-0.009": 2.66293394196,
			"-0.008": 9.05027800259,
			"-0.007": 11.0551679978,
			"-0.006": 9.97134260571,
			"-0.005": 12.4988540302,
			"-0.004": 11.2705064353,
			"-0.003": 13.1133257107,
			"-0.002": 17.4805523213,
			"-0.001": 16.4888527379,
			"0.0": 17.1564150818,
			"0.001": 12.3635041035,
			"0.002": 9.0702609532,
			"0.003": 9.90296692842,
			"0.004": 9.21360196399,
			"0.005": 4.86703001285,
			"0.006": 3.9569418369,
			"0.007": 4.37012320466,
			"0.008": 4.74267138262,
			"0.009": 5.4251709664,
			"0.01": 6.8230813296,
			"0.011": 6.68225938737,
			"0.012": 5.2522760832,
			"0.013": 2.97791702998,
			"0.014": 0.400093118153,
			"0.015": 0.0,
			"0.016": 0.0,
			"0.017": 0.0,
			"0.018": 0.0,
			"0.019": 0.0,
			"0.02": 0.0,
			"0.021": 0.0,
			"0.022": 0.0,
			"0.023": 0.0,
			"0.024": 0.0,
			"0.025": 0.0
		}
	}
}
