{
	 "smiles": "CNC1=CC(=O)C2=CC=CC=C2C1=O", 
	 "Tm": 503.15, 
	 "num_atms": 23, 
	 "gaussian": { 
		 "optdone": 1, 
		 "sigma_profile": "yes", 
		 "theory": "DFT", 
		 "functional": "B3LYP", 
		 "basiset": "6-31G**", 
		 "properties": { 
			 "R2extent": 3140.1312, 
			 "electric_dipole_moment_norm": 2.77190348497, 
			 "electric_quadrupole_moment_norm": 22.1245446281, 
			 "total_energy": -629.787739406, 
			 "HOMO_LUMO_gap": 0.1188, 
			 "cosmo_polarized_energy": -13.9, 
			 "cosmo_cavitation_energy": 27.12, 
			 "cosmo_dispersion_energy": -20.21, 
			 "cosmo_repulsion_energy": 1.55, 
			 "cosmo_total_nonelectrostatic_energy": 8.46, 
			 "SMD_solvation_energy": 5.05 
		},
		"coords": [
			{
				"x": 2.2174013401,
				"y": 2.4109405657,
				"z": -3.1639557836,
				"element": "C" 
			},
			{
				"x": 2.1900872087,
				"y": 2.0509923261,
				"z": -1.7500565629,
				"element": "N" 
			},
			{
				"x": 1.1913467344,
				"y": 1.5030517072,
				"z": -1.0049566405,
				"element": "C" 
			},
			{
				"x": 1.3562462054,
				"y": 1.2378289168,
				"z": 0.3315674533,
				"element": "C" 
			},
			{
				"x": 0.3325560588,
				"y": 0.6562729766,
				"z": 1.1761109742,
				"element": "C" 
			},
			{
				"x": 0.5186468373,
				"y": 0.4327884558,
				"z": 2.3748403765,
				"element": "O" 
			},
			{
				"x": -0.9829869272,
				"y": 0.329400775,
				"z": 0.536061997,
				"element": "C" 
			},
			{
				"x": -2.0063096558,
				"y": -0.2322256197,
				"z": 1.3010828309,
				"element": "C" 
			},
			{
				"x": -3.2322531601,
				"y": -0.5383262686,
				"z": 0.710469274,
				"element": "C" 
			},
			{
				"x": -3.4423365755,
				"y": -0.2845334515,
				"z": -0.6495468517,
				"element": "C" 
			},
			{
				"x": -2.4255311815,
				"y": 0.2757870011,
				"z": -1.4191726858,
				"element": "C" 
			},
			{
				"x": -1.192734142,
				"y": 0.5848850447,
				"z": -0.8301460229,
				"element": "C" 
			},
			{
				"x": -0.1232942399,
				"y": 1.181825396,
				"z": -1.6720152642,
				"element": "C" 
			},
			{
				"x": -0.2975846855,
				"y": 1.4066957673,
				"z": -2.8649043159,
				"element": "O" 
			},
			{
				"x": 3.2056955585,
				"y": 2.8296389969,
				"z": -3.3682675678,
				"element": "H" 
			},
			{
				"x": 1.4588224574,
				"y": 3.1567015534,
				"z": -3.4129405819,
				"element": "H" 
			},
			{
				"x": 2.0588842136,
				"y": 1.5454937711,
				"z": -3.8117445239,
				"element": "H" 
			},
			{
				"x": 3.0378245481,
				"y": 2.2361275312,
				"z": -1.2353607707,
				"element": "H" 
			},
			{
				"x": 2.2978846049,
				"y": 1.4633021383,
				"z": 0.8262059769,
				"element": "H" 
			},
			{
				"x": -1.8144806687,
				"y": -0.417736933,
				"z": 2.352644829,
				"element": "H" 
			},
			{
				"x": -4.0267744565,
				"y": -0.9753864538,
				"z": 1.3086152652,
				"element": "H" 
			},
			{
				"x": -4.3980175921,
				"y": -0.5240748152,
				"z": -1.1063718154,
				"element": "H" 
			},
			{
				"x": -2.5627924823,
				"y": 0.4822506187,
				"z": -2.4752595897,
				"element": "H" 
			}
		],
		 "valence_orbital": [ 
			{
				"type": "occ",
				"energy": -0.26858,
				"method": "rhf"
			},
			{
				"type": "occ",
				"energy": -0.26665,
				"method": "rhf"
			},
			{
				"type": "occ",
				"energy": -0.26036,
				"method": "rhf"
			},
			{
				"type": "occ",
				"energy": -0.24125,
				"method": "rhf"
			},
			{
				"type": "occ",
				"energy": -0.21785,
				"method": "rhf"
			},
			{
				"type": "unocc",
				"energy": -0.09905,
				"method": "rhf"
			},
			{
				"type": "unocc",
				"energy": -0.03053,
				"method": "rhf"
			},
			{
				"type": "unocc",
				"energy": -0.00533,
				"method": "rhf"
			},
			{
				"type": "unocc",
				"energy": 0.05291,
				"method": "rhf"
			},
			{
				"type": "unocc",
				"energy": 0.06527,
				"method": "rhf"
			}
		],
		"cosmo_sigma_profile": { 
			"-0.025": 0.0,
			"-0.024": 0.0,
			"-0.023": 0.0,
			"-0.022": 0.0,
			"-0.021": 0.0,
			"-0.02": 0.0,
			"-0.019": 0.0,
			"-0.018": 0.0,
			"-0.017": 0.0,
			"-0.016": 0.0,
			"-0.015": 0.750587668617,
			"-0.014": 1.45369777942,
			"-0.013": 1.18031900331,
			"-0.012": 1.65730252856,
			"-0.011": 1.55297052762,
			"-0.01": 1.11713973932,
			"-0.009": 2.03949701017,
			"-0.008": 1.66120004035,
			"-0.007": 5.07952805698,
			"-0.006": 9.85384858416,
			"-0.005": 13.9694375921,
			"-0.004": 15.7625102328,
			"-0.003": 16.16359873,
			"-0.002": 19.8225887852,
			"-0.001": 15.4417603669,
			"0.0": 14.0888507214,
			"0.001": 17.4048384361,
			"0.002": 21.3632900848,
			"0.003": 17.714967052,
			"0.004": 4.77765966006,
			"0.005": 3.761342198,
			"0.006": 3.53025990146,
			"0.007": 2.9077185511,
			"0.008": 3.51357927088,
			"0.009": 3.27691339089,
			"0.01": 3.90706933986,
			"0.011": 3.2847819944,
			"0.012": 2.36850325274,
			"0.013": 4.84761888043,
			"0.014": 2.40928323354,
			"0.015": 0.541321839778,
			"0.016": 0.0,
			"0.017": 0.0,
			"0.018": 0.0,
			"0.019": 0.0,
			"0.02": 0.0,
			"0.021": 0.0,
			"0.022": 0.0,
			"0.023": 0.0,
			"0.024": 0.0,
			"0.025": 0.0
		}
	}
}
