{
	 "smiles": "COC(=O)C1=CC2=C(S1)C=CC=C2", 
	 "Tm": 343.15, 
	 "num_atms": 21, 
	 "gaussian": { 
		 "optdone": 1, 
		 "sigma_profile": "yes", 
		 "theory": "DFT", 
		 "functional": "B3LYP", 
		 "basiset": "6-31G**", 
		 "properties": { 
			 "R2extent": 3568.9433, 
			 "electric_dipole_moment_norm": 2.72584938139, 
			 "electric_quadrupole_moment_norm": 13.4491317597, 
			 "total_energy": -934.531649487, 
			 "HOMO_LUMO_gap": 0.16472, 
			 "cosmo_polarized_energy": -8.72, 
			 "cosmo_cavitation_energy": 27.25, 
			 "cosmo_dispersion_energy": -20.66, 
			 "cosmo_repulsion_energy": 1.57, 
			 "cosmo_total_nonelectrostatic_energy": 8.16, 
			 "SMD_solvation_energy": 5.73 
		},
		"coords": [
			{
				"x": -0.5875042855,
				"y": 2.725931855,
				"z": -2.8911536157,
				"element": "C" 
			},
			{
				"x": -0.4227017332,
				"y": 1.6861508929,
				"z": -1.9136560073,
				"element": "O" 
			},
			{
				"x": 0.8587049265,
				"y": 1.3254063802,
				"z": -1.6747437114,
				"element": "C" 
			},
			{
				"x": 1.8184103847,
				"y": 1.8253893943,
				"z": -2.2303080203,
				"element": "O" 
			},
			{
				"x": 0.9477140284,
				"y": 0.2581052239,
				"z": -0.6651269035,
				"element": "C" 
			},
			{
				"x": -0.060962938,
				"y": -0.3661968612,
				"z": 0.012697852,
				"element": "C" 
			},
			{
				"x": 0.4130011546,
				"y": -1.3646378475,
				"z": 0.9252469787,
				"element": "C" 
			},
			{
				"x": 1.8298320688,
				"y": -1.4658111849,
				"z": 0.9052124183,
				"element": "C" 
			},
			{
				"x": 2.5437050378,
				"y": -0.3369914253,
				"z": -0.2292245592,
				"element": "S" 
			},
			{
				"x": 2.5048438905,
				"y": -2.3810672669,
				"z": 1.7220377017,
				"element": "C" 
			},
			{
				"x": 1.7549408595,
				"y": -3.1964904027,
				"z": 2.560888306,
				"element": "C" 
			},
			{
				"x": 0.3488686929,
				"y": -3.1092159665,
				"z": 2.5933060228,
				"element": "C" 
			},
			{
				"x": -0.32225606,
				"y": -2.2044157318,
				"z": 1.7860769553,
				"element": "C" 
			},
			{
				"x": -1.6620854578,
				"y": 2.8930270969,
				"z": -2.9622751228,
				"element": "H" 
			},
			{
				"x": -0.1820765122,
				"y": 2.4142390722,
				"z": -3.8570481738,
				"element": "H" 
			},
			{
				"x": -0.0767434135,
				"y": 3.6382150819,
				"z": -2.572813941,
				"element": "H" 
			},
			{
				"x": -1.1053632837,
				"y": -0.119879558,
				"z": -0.1361555382,
				"element": "H" 
			},
			{
				"x": 3.5878861251,
				"y": -2.452786572,
				"z": 1.7013592408,
				"element": "H" 
			},
			{
				"x": 2.2614819388,
				"y": -3.912314971,
				"z": 3.2015022527,
				"element": "H" 
			},
			{
				"x": -0.2111798168,
				"y": -3.7591224989,
				"z": 3.2587872671,
				"element": "H" 
			},
			{
				"x": -1.4062156068,
				"y": -2.1364347106,
				"z": 1.8103905977,
				"element": "H" 
			}
		],
		 "valence_orbital": [ 
			{
				"type": "occ",
				"energy": -0.30463,
				"method": "rhf"
			},
			{
				"type": "occ",
				"energy": -0.29046,
				"method": "rhf"
			},
			{
				"type": "occ",
				"energy": -0.27883,
				"method": "rhf"
			},
			{
				"type": "occ",
				"energy": -0.24245,
				"method": "rhf"
			},
			{
				"type": "occ",
				"energy": -0.22573,
				"method": "rhf"
			},
			{
				"type": "unocc",
				"energy": -0.06101,
				"method": "rhf"
			},
			{
				"type": "unocc",
				"energy": -0.00877,
				"method": "rhf"
			},
			{
				"type": "unocc",
				"energy": 0.01824,
				"method": "rhf"
			},
			{
				"type": "unocc",
				"energy": 0.02082,
				"method": "rhf"
			},
			{
				"type": "unocc",
				"energy": 0.08689,
				"method": "rhf"
			}
		],
		"cosmo_sigma_profile": { 
			"-0.025": 0.0,
			"-0.024": 0.0,
			"-0.023": 0.0,
			"-0.022": 0.0,
			"-0.021": 0.0,
			"-0.02": 0.0,
			"-0.019": 0.0,
			"-0.018": 0.0,
			"-0.017": 0.0,
			"-0.016": 0.0,
			"-0.015": 0.0,
			"-0.014": 0.0,
			"-0.013": 0.0,
			"-0.012": 0.0,
			"-0.011": 0.0,
			"-0.01": 0.0,
			"-0.009": 0.0306346227053,
			"-0.008": 1.33992745552,
			"-0.007": 7.19431830031,
			"-0.006": 15.4853659468,
			"-0.005": 17.3103903399,
			"-0.004": 19.0656208101,
			"-0.003": 15.9631932171,
			"-0.002": 13.3235546461,
			"-0.001": 12.1909364936,
			"0.0": 12.718627093,
			"0.001": 18.666312242,
			"0.002": 23.3622225672,
			"0.003": 19.6632572411,
			"0.004": 18.7929696399,
			"0.005": 8.11429987564,
			"0.006": 3.50985926552,
			"0.007": 1.70229571529,
			"0.008": 1.66946520822,
			"0.009": 1.60917760077,
			"0.01": 2.22149773019,
			"0.011": 3.77719858739,
			"0.012": 3.18626889375,
			"0.013": 0.0185125337958,
			"0.014": 0.0,
			"0.015": 0.0,
			"0.016": 0.0,
			"0.017": 0.0,
			"0.018": 0.0,
			"0.019": 0.0,
			"0.02": 0.0,
			"0.021": 0.0,
			"0.022": 0.0,
			"0.023": 0.0,
			"0.024": 0.0,
			"0.025": 0.0
		}
	}
}
