{
	 "smiles": "CCC(=O)C1=CC=CN1", 
	 "Tm": 323.15, 
	 "num_atms": 18, 
	 "gaussian": { 
		 "optdone": 1, 
		 "sigma_profile": "yes", 
		 "theory": "DFT", 
		 "functional": "B3LYP", 
		 "basiset": "6-31G**", 
		 "properties": { 
			 "R2extent": 1582.8108, 
			 "electric_dipole_moment_norm": 1.86168547558, 
			 "electric_quadrupole_moment_norm": 9.18671903674, 
			 "total_energy": -402.147959073, 
			 "HOMO_LUMO_gap": 0.18627, 
			 "cosmo_polarized_energy": -8.6, 
			 "cosmo_cavitation_energy": 21.77, 
			 "cosmo_dispersion_energy": -16.04, 
			 "cosmo_repulsion_energy": 1.32, 
			 "cosmo_total_nonelectrostatic_energy": 7.06, 
			 "SMD_solvation_energy": 4.52 
		},
		"coords": [
			{
				"x": -1.1518536354,
				"y": 0.7537302279,
				"z": -2.6326342989,
				"element": "C" 
			},
			{
				"x": -0.3740999809,
				"y": 0.5641044668,
				"z": -1.3318696931,
				"element": "C" 
			},
			{
				"x": -1.1422950834,
				"y": -0.2331783496,
				"z": -0.2862130375,
				"element": "C" 
			},
			{
				"x": -2.2744699948,
				"y": -0.6660623389,
				"z": -0.4977654189,
				"element": "O" 
			},
			{
				"x": -0.4962565139,
				"y": -0.4803353464,
				"z": 1.0018743476,
				"element": "C" 
			},
			{
				"x": 0.7381229555,
				"y": -0.1447903484,
				"z": 1.5546044113,
				"element": "C" 
			},
			{
				"x": 0.7784909895,
				"y": -0.6798661432,
				"z": 2.862181234,
				"element": "C" 
			},
			{
				"x": -0.4303518811,
				"y": -1.3292732381,
				"z": 3.0786443449,
				"element": "C" 
			},
			{
				"x": -1.1837738504,
				"y": -1.2009303547,
				"z": 1.9545574123,
				"element": "N" 
			},
			{
				"x": -2.0927216521,
				"y": 1.2799814309,
				"z": -2.4520755348,
				"element": "H" 
			},
			{
				"x": -1.4019470787,
				"y": -0.210468066,
				"z": -3.0826804385,
				"element": "H" 
			},
			{
				"x": -0.5636054204,
				"y": 1.3307785765,
				"z": -3.3522225874,
				"element": "H" 
			},
			{
				"x": -0.1050408905,
				"y": 1.5330281575,
				"z": -0.8898163167,
				"element": "H" 
			},
			{
				"x": 0.5805565497,
				"y": 0.0526057703,
				"z": -1.5151615737,
				"element": "H" 
			},
			{
				"x": 1.5172671026,
				"y": 0.4222789146,
				"z": 1.0647491858,
				"element": "H" 
			},
			{
				"x": 1.5907933686,
				"y": -0.605282968,
				"z": 3.5712307888,
				"element": "H" 
			},
			{
				"x": -0.7940914643,
				"y": -1.8635413125,
				"z": 3.9443185348,
				"element": "H" 
			},
			{
				"x": -2.11302352,
				"y": -1.5545790786,
				"z": 1.77627864,
				"element": "H" 
			}
		],
		 "valence_orbital": [ 
			{
				"type": "occ",
				"energy": -0.35675,
				"method": "rhf"
			},
			{
				"type": "occ",
				"energy": -0.33748,
				"method": "rhf"
			},
			{
				"type": "occ",
				"energy": -0.25404,
				"method": "rhf"
			},
			{
				"type": "occ",
				"energy": -0.24648,
				"method": "rhf"
			},
			{
				"type": "occ",
				"energy": -0.22264,
				"method": "rhf"
			},
			{
				"type": "unocc",
				"energy": -0.03637,
				"method": "rhf"
			},
			{
				"type": "unocc",
				"energy": 0.05543,
				"method": "rhf"
			},
			{
				"type": "unocc",
				"energy": 0.08842,
				"method": "rhf"
			},
			{
				"type": "unocc",
				"energy": 0.10641,
				"method": "rhf"
			},
			{
				"type": "unocc",
				"energy": 0.1086,
				"method": "rhf"
			}
		],
		"cosmo_sigma_profile": { 
			"-0.025": 0.0,
			"-0.024": 0.0,
			"-0.023": 0.0,
			"-0.022": 0.0,
			"-0.021": 0.0,
			"-0.02": 0.0,
			"-0.019": 0.0,
			"-0.018": 0.0,
			"-0.017": 0.0,
			"-0.016": 0.0,
			"-0.015": 0.351231055592,
			"-0.014": 1.27646749826,
			"-0.013": 0.661045445447,
			"-0.012": 0.812936766751,
			"-0.011": 0.792544021795,
			"-0.01": 0.88406724534,
			"-0.009": 1.0027000241,
			"-0.008": 3.59898606941,
			"-0.007": 2.54160439134,
			"-0.006": 5.43702841921,
			"-0.005": 9.67803050393,
			"-0.004": 12.4624579357,
			"-0.003": 16.2167533649,
			"-0.002": 16.7666806221,
			"-0.001": 16.2748607105,
			"0.0": 13.1273748505,
			"0.001": 13.9466394575,
			"0.002": 8.92773741115,
			"0.003": 7.171778305,
			"0.004": 8.56175432328,
			"0.005": 7.17012914803,
			"0.006": 6.84866243762,
			"0.007": 4.39346322625,
			"0.008": 1.40575794961,
			"0.009": 1.1322689287,
			"0.01": 2.03955820808,
			"0.011": 2.20238141619,
			"0.012": 3.0061445297,
			"0.013": 2.82487429936,
			"0.014": 0.755503437616,
			"0.015": 0.0,
			"0.016": 0.0,
			"0.017": 0.0,
			"0.018": 0.0,
			"0.019": 0.0,
			"0.02": 0.0,
			"0.021": 0.0,
			"0.022": 0.0,
			"0.023": 0.0,
			"0.024": 0.0,
			"0.025": 0.0
		}
	}
}
