{
	 "smiles": "CC(C)[C@H](N(C)C)C(O)=O", 
	 "Tm": 423.15, 
	 "num_atms": 25, 
	 "gaussian": { 
		 "optdone": 1, 
		 "sigma_profile": "yes", 
		 "theory": "DFT", 
		 "functional": "B3LYP", 
		 "basiset": "6-31G**", 
		 "properties": { 
			 "R2extent": 1952.4881, 
			 "electric_dipole_moment_norm": 1.77814946785, 
			 "electric_quadrupole_moment_norm": 8.56819050967, 
			 "total_energy": -480.985982023, 
			 "HOMO_LUMO_gap": 0.22351, 
			 "cosmo_polarized_energy": -10.17, 
			 "cosmo_cavitation_energy": 25.76, 
			 "cosmo_dispersion_energy": -18.34, 
			 "cosmo_repulsion_energy": 1.48, 
			 "cosmo_total_nonelectrostatic_energy": 8.9, 
			 "SMD_solvation_energy": 4.32 
		},
		"coords": [
			{
				"x": -1.5271345449,
				"y": 1.4700538198,
				"z": 2.6376652574,
				"element": "C" 
			},
			{
				"x": -0.7940319249,
				"y": 0.202657898,
				"z": 2.1759019587,
				"element": "C" 
			},
			{
				"x": 0.3186583654,
				"y": -0.2327362876,
				"z": 3.146515966,
				"element": "C" 
			},
			{
				"x": -0.3462612962,
				"y": 0.2794398307,
				"z": 0.6693541769,
				"element": "C" 
			},
			{
				"x": 0.2158581393,
				"y": 1.558625114,
				"z": 0.2328470492,
				"element": "N" 
			},
			{
				"x": 0.4774904703,
				"y": 1.5762749523,
				"z": -1.2074545118,
				"element": "C" 
			},
			{
				"x": 1.4295611125,
				"y": 1.931656572,
				"z": 0.952417512,
				"element": "C" 
			},
			{
				"x": -1.6073050334,
				"y": -0.0447274398,
				"z": -0.132550775,
				"element": "C" 
			},
			{
				"x": -1.7230717918,
				"y": -1.3841648937,
				"z": -0.3253371856,
				"element": "O" 
			},
			{
				"x": -2.4529886123,
				"y": 0.7353570113,
				"z": -0.5097993881,
				"element": "O" 
			},
			{
				"x": -0.8529591826,
				"y": 2.3276122599,
				"z": 2.7110008617,
				"element": "H" 
			},
			{
				"x": -1.9706062014,
				"y": 1.3063525151,
				"z": 3.6258281392,
				"element": "H" 
			},
			{
				"x": -2.3237750563,
				"y": 1.7388912811,
				"z": 1.9397444863,
				"element": "H" 
			},
			{
				"x": -1.5222130227,
				"y": -0.6194600302,
				"z": 2.1985307629,
				"element": "H" 
			},
			{
				"x": 0.826277631,
				"y": -1.1345725822,
				"z": 2.7880429635,
				"element": "H" 
			},
			{
				"x": 1.0768320994,
				"y": 0.5372702262,
				"z": 3.3075380807,
				"element": "H" 
			},
			{
				"x": -0.1188793771,
				"y": -0.4660394848,
				"z": 4.1232969983,
				"element": "H" 
			},
			{
				"x": 0.360322367,
				"y": -0.5544667427,
				"z": 0.4930216231,
				"element": "H" 
			},
			{
				"x": 1.2114261467,
				"y": 0.8102184635,
				"z": -1.5247466246,
				"element": "H" 
			},
			{
				"x": -0.4484265991,
				"y": 1.4289533153,
				"z": -1.7649467673,
				"element": "H" 
			},
			{
				"x": 0.8765971618,
				"y": 2.556460451,
				"z": -1.4839949795,
				"element": "H" 
			},
			{
				"x": 1.2207995269,
				"y": 2.1187458538,
				"z": 2.005706475,
				"element": "H" 
			},
			{
				"x": 2.2323176058,
				"y": 1.1718317892,
				"z": 0.8865047993,
				"element": "H" 
			},
			{
				"x": 1.8169385045,
				"y": 2.8622168329,
				"z": 0.5272351753,
				"element": "H" 
			},
			{
				"x": -2.5800264879,
				"y": -1.5160507252,
				"z": -0.7654220535,
				"element": "H" 
			}
		],
		 "valence_orbital": [ 
			{
				"type": "occ",
				"energy": -0.33257,
				"method": "rhf"
			},
			{
				"type": "occ",
				"energy": -0.32373,
				"method": "rhf"
			},
			{
				"type": "occ",
				"energy": -0.31235,
				"method": "rhf"
			},
			{
				"type": "occ",
				"energy": -0.26925,
				"method": "rhf"
			},
			{
				"type": "occ",
				"energy": -0.21587,
				"method": "rhf"
			},
			{
				"type": "unocc",
				"energy": 0.00764,
				"method": "rhf"
			},
			{
				"type": "unocc",
				"energy": 0.07097,
				"method": "rhf"
			},
			{
				"type": "unocc",
				"energy": 0.08419,
				"method": "rhf"
			},
			{
				"type": "unocc",
				"energy": 0.11369,
				"method": "rhf"
			},
			{
				"type": "unocc",
				"energy": 0.11917,
				"method": "rhf"
			}
		],
		"cosmo_sigma_profile": { 
			"-0.025": 0.0,
			"-0.024": 0.0,
			"-0.023": 0.0,
			"-0.022": 0.0,
			"-0.021": 0.0,
			"-0.02": 0.0,
			"-0.019": 0.0,
			"-0.018": 0.646502254959,
			"-0.017": 1.00314956302,
			"-0.016": 0.697666846805,
			"-0.015": 0.998604158669,
			"-0.014": 0.812710782922,
			"-0.013": 0.313427498017,
			"-0.012": 0.299514977528,
			"-0.011": 1.01322006156,
			"-0.01": 0.579042147511,
			"-0.009": 0.665349589856,
			"-0.008": 0.695131305707,
			"-0.007": 1.21668145208,
			"-0.006": 1.05166688181,
			"-0.005": 2.99916467264,
			"-0.004": 10.9332677287,
			"-0.003": 24.9688689949,
			"-0.002": 31.813397781,
			"-0.001": 31.0710014571,
			"0.0": 24.9960706892,
			"0.001": 18.0636076503,
			"0.002": 7.89342261966,
			"0.003": 2.54438531636,
			"0.004": 2.79714434094,
			"0.005": 3.20199179945,
			"0.006": 3.10232009717,
			"0.007": 3.33570125488,
			"0.008": 3.49979357883,
			"0.009": 3.2217391696,
			"0.01": 2.67210583935,
			"0.011": 3.96164047086,
			"0.012": 3.9753191859,
			"0.013": 1.53631500725,
			"0.014": 1.24501470513,
			"0.015": 1.05373297646,
			"0.016": 0.241151417878,
			"0.017": 0.0,
			"0.018": 0.0,
			"0.019": 0.0,
			"0.02": 0.0,
			"0.021": 0.0,
			"0.022": 0.0,
			"0.023": 0.0,
			"0.024": 0.0,
			"0.025": 0.0
		}
	}
}
