{
	 "smiles": "C1=C/C=CC=C/C=C1", 
	 "Tm": 268.45, 
	 "num_atms": 16, 
	 "gaussian": { 
		 "optdone": 1, 
		 "sigma_profile": "yes", 
		 "theory": "DFT", 
		 "functional": "B3LYP", 
		 "basiset": "6-31G**", 
		 "properties": { 
			 "R2extent": 1254.2567, 
			 "electric_dipole_moment_norm": 0.0001, 
			 "electric_quadrupole_moment_norm": 3.4889488675, 
			 "total_energy": -309.589438136, 
			 "HOMO_LUMO_gap": 0.1579, 
			 "cosmo_polarized_energy": -3.71, 
			 "cosmo_cavitation_energy": 19.16, 
			 "cosmo_dispersion_energy": -14.34, 
			 "cosmo_repulsion_energy": 1.21, 
			 "cosmo_total_nonelectrostatic_energy": 6.03, 
			 "SMD_solvation_energy": 3.36 
		},
		"coords": [
			{
				"x": -1.17795887,
				"y": 0.983046731,
				"z": 0.1349272913,
				"element": "C" 
			},
			{
				"x": -0.8152727765,
				"y": 2.0476309654,
				"z": 0.8676988398,
				"element": "C" 
			},
			{
				"x": 0.3334850359,
				"y": 2.9435605151,
				"z": 0.6455958028,
				"element": "C" 
			},
			{
				"x": 1.623779072,
				"y": 2.6019353404,
				"z": 0.5032424934,
				"element": "C" 
			},
			{
				"x": 2.204829733,
				"y": 1.2480143886,
				"z": 0.5344656602,
				"element": "C" 
			},
			{
				"x": 1.8421330944,
				"y": 0.1834341802,
				"z": -0.1983086913,
				"element": "C" 
			},
			{
				"x": 0.7748677134,
				"y": 0.1102367421,
				"z": -1.2118456977,
				"element": "C" 
			},
			{
				"x": -0.5154232671,
				"y": 0.4518701911,
				"z": -1.0694742555,
				"element": "C" 
			},
			{
				"x": -2.1098018914,
				"y": 0.4832888897,
				"z": 0.4039749738,
				"element": "H" 
			},
			{
				"x": -1.4762380197,
				"y": 2.3429548712,
				"z": 1.6840186281,
				"element": "H" 
			},
			{
				"x": 0.0972851583,
				"y": 4.0083505641,
				"z": 0.6756966454,
				"element": "H" 
			},
			{
				"x": 2.3511746533,
				"y": 3.4116055447,
				"z": 0.4270473148,
				"element": "H" 
			},
			{
				"x": 3.0762262493,
				"y": 1.1376400939,
				"z": 1.1817355644,
				"element": "H" 
			},
			{
				"x": 2.4426726432,
				"y": -0.7220099396,
				"z": -0.0983238685,
				"element": "H" 
			},
			{
				"x": 1.0715196582,
				"y": -0.3443602671,
				"z": -2.1583212168,
				"element": "H" 
			},
			{
				"x": -1.1823781862,
				"y": 0.252401189,
				"z": -1.9096294843,
				"element": "H" 
			}
		],
		 "valence_orbital": [ 
			{
				"type": "occ",
				"energy": -0.32862,
				"method": "rhf"
			},
			{
				"type": "occ",
				"energy": -0.30723,
				"method": "rhf"
			},
			{
				"type": "occ",
				"energy": -0.2661,
				"method": "rhf"
			},
			{
				"type": "occ",
				"energy": -0.2661,
				"method": "rhf"
			},
			{
				"type": "occ",
				"energy": -0.20404,
				"method": "rhf"
			},
			{
				"type": "unocc",
				"energy": -0.04614,
				"method": "rhf"
			},
			{
				"type": "unocc",
				"energy": 0.03342,
				"method": "rhf"
			},
			{
				"type": "unocc",
				"energy": 0.03342,
				"method": "rhf"
			},
			{
				"type": "unocc",
				"energy": 0.09705,
				"method": "rhf"
			},
			{
				"type": "unocc",
				"energy": 0.09799,
				"method": "rhf"
			}
		],
		"cosmo_sigma_profile": { 
			"-0.025": 0.0,
			"-0.024": 0.0,
			"-0.023": 0.0,
			"-0.022": 0.0,
			"-0.021": 0.0,
			"-0.02": 0.0,
			"-0.019": 0.0,
			"-0.018": 0.0,
			"-0.017": 0.0,
			"-0.016": 0.0,
			"-0.015": 0.0,
			"-0.014": 0.0,
			"-0.013": 0.0,
			"-0.012": 0.0,
			"-0.011": 0.0,
			"-0.01": 0.0,
			"-0.009": 0.0,
			"-0.008": 0.0,
			"-0.007": 0.0,
			"-0.006": 1.07733749826,
			"-0.005": 15.4296551145,
			"-0.004": 18.9713893216,
			"-0.003": 19.3683315539,
			"-0.002": 13.1889836356,
			"-0.001": 10.1984130218,
			"0.0": 9.3687098869,
			"0.001": 9.45985058306,
			"0.002": 8.30430222238,
			"0.003": 10.1899991688,
			"0.004": 11.013069168,
			"0.005": 13.0722023412,
			"0.006": 6.91240177126,
			"0.007": 3.14506554613,
			"0.008": 2.55676501972,
			"0.009": 0.490540596884,
			"0.01": 0.0,
			"0.011": 0.0,
			"0.012": 0.0,
			"0.013": 0.0,
			"0.014": 0.0,
			"0.015": 0.0,
			"0.016": 0.0,
			"0.017": 0.0,
			"0.018": 0.0,
			"0.019": 0.0,
			"0.02": 0.0,
			"0.021": 0.0,
			"0.022": 0.0,
			"0.023": 0.0,
			"0.024": 0.0,
			"0.025": 0.0
		}
	}
}
