{
	 "smiles": "NC1=C2C=CC=CC2=C(C=C1)C#N", 
	 "Tm": 449.15, 
	 "num_atms": 21, 
	 "gaussian": { 
		 "optdone": 1, 
		 "sigma_profile": "yes", 
		 "theory": "DFT", 
		 "functional": "B3LYP", 
		 "basiset": "6-31G**", 
		 "properties": { 
			 "R2extent": 2864.2376, 
			 "electric_dipole_moment_norm": 6.53536656814, 
			 "electric_quadrupole_moment_norm": 25.0049784731, 
			 "total_energy": -533.495738864, 
			 "HOMO_LUMO_gap": 0.15217, 
			 "cosmo_polarized_energy": -15.22, 
			 "cosmo_cavitation_energy": 25.59, 
			 "cosmo_dispersion_energy": -18.68, 
			 "cosmo_repulsion_energy": 1.45, 
			 "cosmo_total_nonelectrostatic_energy": 8.36, 
			 "SMD_solvation_energy": 5.28 
		},
		"coords": [
			{
				"x": -1.9060715453,
				"y": 0.5336994209,
				"z": 1.0103016843,
				"element": "N" 
			},
			{
				"x": -0.5435162626,
				"y": 0.4026787744,
				"z": 1.2266305801,
				"element": "C" 
			},
			{
				"x": 0.376871684,
				"y": 0.5153928966,
				"z": 0.1247863792,
				"element": "C" 
			},
			{
				"x": -0.0629842992,
				"y": 0.7503158634,
				"z": -1.204842121,
				"element": "C" 
			},
			{
				"x": 0.8350569555,
				"y": 0.8792064196,
				"z": -2.2418967208,
				"element": "C" 
			},
			{
				"x": 2.2214327063,
				"y": 0.7732873968,
				"z": -1.9938092682,
				"element": "C" 
			},
			{
				"x": 2.6811210596,
				"y": 0.5228122014,
				"z": -0.7199254104,
				"element": "C" 
			},
			{
				"x": 1.7806126621,
				"y": 0.3791420784,
				"z": 0.3675357135,
				"element": "C" 
			},
			{
				"x": 2.2375691283,
				"y": 0.0931100699,
				"z": 1.698229399,
				"element": "C" 
			},
			{
				"x": 1.3164588733,
				"y": -0.0479986791,
				"z": 2.7266153843,
				"element": "C" 
			},
			{
				"x": -0.0560077146,
				"y": 0.1115663395,
				"z": 2.4963907556,
				"element": "C" 
			},
			{
				"x": 3.6330466153,
				"y": -0.0508829078,
				"z": 1.9671920865,
				"element": "C" 
			},
			{
				"x": 4.7725728552,
				"y": -0.1665640592,
				"z": 2.18064012,
				"element": "N" 
			},
			{
				"x": -2.4678222483,
				"y": 0.6306240807,
				"z": 1.844338771,
				"element": "H" 
			},
			{
				"x": -2.1905564458,
				"y": 1.1689222586,
				"z": 0.2792404486,
				"element": "H" 
			},
			{
				"x": -1.1254156986,
				"y": 0.7965739062,
				"z": -1.4219045757,
				"element": "H" 
			},
			{
				"x": 0.4769959495,
				"y": 1.0529593949,
				"z": -3.2521250589,
				"element": "H" 
			},
			{
				"x": 2.9263332436,
				"y": 0.8787496248,
				"z": -2.8130719226,
				"element": "H" 
			},
			{
				"x": 3.7453443408,
				"y": 0.4258518574,
				"z": -0.5290274012,
				"element": "H" 
			},
			{
				"x": 1.6674218516,
				"y": -0.2686068342,
				"z": 3.7294154667,
				"element": "H" 
			},
			{
				"x": -0.7503637109,
				"y": 0.0181598968,
				"z": 3.3268856899,
				"element": "H" 
			}
		],
		 "valence_orbital": [ 
			{
				"type": "occ",
				"energy": -0.31685,
				"method": "rhf"
			},
			{
				"type": "occ",
				"energy": -0.30343,
				"method": "rhf"
			},
			{
				"type": "occ",
				"energy": -0.2677,
				"method": "rhf"
			},
			{
				"type": "occ",
				"energy": -0.2584,
				"method": "rhf"
			},
			{
				"type": "occ",
				"energy": -0.20808,
				"method": "rhf"
			},
			{
				"type": "unocc",
				"energy": -0.05591,
				"method": "rhf"
			},
			{
				"type": "unocc",
				"energy": -0.02174,
				"method": "rhf"
			},
			{
				"type": "unocc",
				"energy": 0.00374,
				"method": "rhf"
			},
			{
				"type": "unocc",
				"energy": 0.04482,
				"method": "rhf"
			},
			{
				"type": "unocc",
				"energy": 0.05976,
				"method": "rhf"
			}
		],
		"cosmo_sigma_profile": { 
			"-0.025": 0.0,
			"-0.024": 0.0,
			"-0.023": 0.0,
			"-0.022": 0.0,
			"-0.021": 0.0,
			"-0.02": 0.0,
			"-0.019": 0.0,
			"-0.018": 0.0,
			"-0.017": 0.0,
			"-0.016": 0.0,
			"-0.015": 0.0,
			"-0.014": 0.982127993369,
			"-0.013": 3.04188546041,
			"-0.012": 2.92961255879,
			"-0.011": 3.33128593764,
			"-0.01": 2.57657716098,
			"-0.009": 2.72552518229,
			"-0.008": 4.29422868742,
			"-0.007": 5.69352585488,
			"-0.006": 10.9813505078,
			"-0.005": 12.6417780725,
			"-0.004": 11.9517233337,
			"-0.003": 8.71499880145,
			"-0.002": 9.18215229454,
			"-0.001": 11.0147773458,
			"0.0": 12.6285073613,
			"0.001": 14.6752501459,
			"0.002": 18.8002109127,
			"0.003": 20.5402079852,
			"0.004": 15.7796545984,
			"0.005": 6.45143600874,
			"0.006": 2.60410168271,
			"0.007": 3.72849511119,
			"0.008": 2.82299486655,
			"0.009": 3.97348761893,
			"0.01": 3.21684865506,
			"0.011": 4.51821025222,
			"0.012": 2.91015038576,
			"0.013": 2.68002238085,
			"0.014": 1.13291030898,
			"0.015": 0.0,
			"0.016": 0.0,
			"0.017": 0.0,
			"0.018": 0.0,
			"0.019": 0.0,
			"0.02": 0.0,
			"0.021": 0.0,
			"0.022": 0.0,
			"0.023": 0.0,
			"0.024": 0.0,
			"0.025": 0.0
		}
	}
}
