{
	 "smiles": "FC1=CC=C(C=C1)C1=C(C(=O)CCl)C2=C(N1)C=CC=C2", 
	 "Tm": 432.15, 
	 "num_atms": 31, 
	 "gaussian": { 
		 "optdone": 1, 
		 "sigma_profile": "yes", 
		 "theory": "DFT", 
		 "functional": "B3LYP", 
		 "basiset": "6-31G**", 
		 "properties": { 
			 "R2extent": 7517.9682, 
			 "electric_dipole_moment_norm": 5.86446337613, 
			 "electric_quadrupole_moment_norm": 6.11253727514, 
			 "total_energy": -1306.34545883, 
			 "HOMO_LUMO_gap": 0.15889, 
			 "cosmo_polarized_energy": -17.55, 
			 "cosmo_cavitation_energy": 37.36, 
			 "cosmo_dispersion_energy": -27.1, 
			 "cosmo_repulsion_energy": 2.03, 
			 "cosmo_total_nonelectrostatic_energy": 12.29, 
			 "SMD_solvation_energy": 6.3 
		},
		"coords": [
			{
				"x": 2.6764911982,
				"y": -5.7635012169,
				"z": -1.6836672514,
				"element": "F" 
			},
			{
				"x": 2.1100373605,
				"y": -4.6577728721,
				"z": -1.1634162139,
				"element": "C" 
			},
			{
				"x": 2.8282909196,
				"y": -3.901388989,
				"z": -0.2447953702,
				"element": "C" 
			},
			{
				"x": 2.2312553776,
				"y": -2.7614268827,
				"z": 0.2880974957,
				"element": "C" 
			},
			{
				"x": 0.9332251553,
				"y": -2.3702557176,
				"z": -0.0931580168,
				"element": "C" 
			},
			{
				"x": 0.2417200579,
				"y": -3.1591000641,
				"z": -1.0292385763,
				"element": "C" 
			},
			{
				"x": 0.8253994574,
				"y": -4.3037881898,
				"z": -1.5629147479,
				"element": "C" 
			},
			{
				"x": 0.3243854268,
				"y": -1.1970795048,
				"z": 0.5591019542,
				"element": "C" 
			},
			{
				"x": -0.4228262732,
				"y": -0.096341525,
				"z": 0.1058942413,
				"element": "C" 
			},
			{
				"x": -0.7480705516,
				"y": 0.1533958398,
				"z": -1.3069095476,
				"element": "C" 
			},
			{
				"x": -0.5894039679,
				"y": -0.672975795,
				"z": -2.1921155117,
				"element": "O" 
			},
			{
				"x": -1.3095634312,
				"y": 1.5462933803,
				"z": -1.6354209024,
				"element": "C" 
			},
			{
				"x": -1.4811583401,
				"y": 1.838427806,
				"z": -3.3952592838,
				"element": "Cl" 
			},
			{
				"x": -0.6827482987,
				"y": 0.7419941172,
				"z": 1.2701357641,
				"element": "C" 
			},
			{
				"x": -0.0751284179,
				"y": 0.1000369876,
				"z": 2.3806960667,
				"element": "C" 
			},
			{
				"x": 0.5304732525,
				"y": -1.047498415,
				"z": 1.9090675086,
				"element": "N" 
			},
			{
				"x": -0.1259902973,
				"y": 0.5960016621,
				"z": 3.6849824523,
				"element": "C" 
			},
			{
				"x": -0.8092742622,
				"y": 1.7882253501,
				"z": 3.8896262985,
				"element": "C" 
			},
			{
				"x": -1.4219944227,
				"y": 2.4541562467,
				"z": 2.8126449492,
				"element": "C" 
			},
			{
				"x": -1.3677609632,
				"y": 1.9488156253,
				"z": 1.518224106,
				"element": "C" 
			},
			{
				"x": 3.8337785372,
				"y": -4.199815647,
				"z": 0.030581358,
				"element": "H" 
			},
			{
				"x": 2.7965706738,
				"y": -2.1480581267,
				"z": 0.9839524684,
				"element": "H" 
			},
			{
				"x": -0.7497166638,
				"y": -2.8658385615,
				"z": -1.3443821155,
				"element": "H" 
			},
			{
				"x": 0.3000041492,
				"y": -4.9207941893,
				"z": -2.2834433485,
				"element": "H" 
			},
			{
				"x": -0.6649741172,
				"y": 2.3279131814,
				"z": -1.2284490666,
				"element": "H" 
			},
			{
				"x": -2.3030676315,
				"y": 1.6526323065,
				"z": -1.1925328359,
				"element": "H" 
			},
			{
				"x": 0.9695658178,
				"y": -1.7518102055,
				"z": 2.4820962096,
				"element": "H" 
			},
			{
				"x": 0.3516072417,
				"y": 0.0688177654,
				"z": 4.5058349316,
				"element": "H" 
			},
			{
				"x": -0.8717268294,
				"y": 2.2082008636,
				"z": 4.8887059479,
				"element": "H" 
			},
			{
				"x": -1.9524679086,
				"y": 3.383828063,
				"z": 2.9952785794,
				"element": "H" 
			},
			{
				"x": -1.8608322489,
				"y": 2.4955067072,
				"z": 0.7241824569,
				"element": "H" 
			}
		],
		 "valence_orbital": [ 
			{
				"type": "occ",
				"energy": -0.27177,
				"method": "rhf"
			},
			{
				"type": "occ",
				"energy": -0.26762,
				"method": "rhf"
			},
			{
				"type": "occ",
				"energy": -0.24902,
				"method": "rhf"
			},
			{
				"type": "occ",
				"energy": -0.23497,
				"method": "rhf"
			},
			{
				"type": "occ",
				"energy": -0.21837,
				"method": "rhf"
			},
			{
				"type": "unocc",
				"energy": -0.05948,
				"method": "rhf"
			},
			{
				"type": "unocc",
				"energy": -0.01943,
				"method": "rhf"
			},
			{
				"type": "unocc",
				"energy": -0.01606,
				"method": "rhf"
			},
			{
				"type": "unocc",
				"energy": -0.00173,
				"method": "rhf"
			},
			{
				"type": "unocc",
				"energy": 0.01482,
				"method": "rhf"
			}
		],
		"cosmo_sigma_profile": { 
			"-0.025": 0.0,
			"-0.024": 0.0,
			"-0.023": 0.0,
			"-0.022": 0.0,
			"-0.021": 0.0,
			"-0.02": 0.0,
			"-0.019": 0.0,
			"-0.018": 0.0,
			"-0.017": 0.0355105825499,
			"-0.016": 0.974919795033,
			"-0.015": 1.39233324457,
			"-0.014": 0.916375969694,
			"-0.013": 1.25795682166,
			"-0.012": 1.22772304078,
			"-0.011": 1.73934911964,
			"-0.01": 1.3680244527,
			"-0.009": 4.39721557366,
			"-0.008": 6.90618761118,
			"-0.007": 12.9980440341,
			"-0.006": 15.2585054894,
			"-0.005": 17.6421532751,
			"-0.004": 15.9550411866,
			"-0.003": 16.3389639664,
			"-0.002": 13.3318898824,
			"-0.001": 14.1357690416,
			"0.0": 23.6866519869,
			"0.001": 23.8399704338,
			"0.002": 25.2167999063,
			"0.003": 25.8144223187,
			"0.004": 25.9465395747,
			"0.005": 17.4505487587,
			"0.006": 15.4106342895,
			"0.007": 3.88219151448,
			"0.008": 1.95887061047,
			"0.009": 2.96424109735,
			"0.01": 2.26660475173,
			"0.011": 2.42554494083,
			"0.012": 2.27826508182,
			"0.013": 2.13627760153,
			"0.014": 1.51051650915,
			"0.015": 0.0489226939242,
			"0.016": 0.0,
			"0.017": 0.0,
			"0.018": 0.0,
			"0.019": 0.0,
			"0.02": 0.0,
			"0.021": 0.0,
			"0.022": 0.0,
			"0.023": 0.0,
			"0.024": 0.0,
			"0.025": 0.0
		}
	}
}
