{
	 "smiles": "CC1CCCN(C1)C(N)=S", 
	 "Tm": 377.15, 
	 "num_atms": 24, 
	 "gaussian": { 
		 "optdone": 1, 
		 "sigma_profile": "yes", 
		 "theory": "DFT", 
		 "functional": "B3LYP", 
		 "basiset": "6-31G**", 
		 "properties": { 
			 "R2extent": 2873.6972, 
			 "electric_dipole_moment_norm": 5.85864657835, 
			 "electric_quadrupole_moment_norm": 20.2726194901, 
			 "total_energy": -782.894832233, 
			 "HOMO_LUMO_gap": 0.20225, 
			 "cosmo_polarized_energy": -16.79, 
			 "cosmo_cavitation_energy": 26.1, 
			 "cosmo_dispersion_energy": -19.6, 
			 "cosmo_repulsion_energy": 1.55, 
			 "cosmo_total_nonelectrostatic_energy": 8.05, 
			 "SMD_solvation_energy": 2.85 
		},
		"coords": [
			{
				"x": -1.5224302562,
				"y": 0.3845326658,
				"z": -0.6486647429,
				"element": "C" 
			},
			{
				"x": -0.9513752559,
				"y": 1.1283468558,
				"z": 0.5653430504,
				"element": "C" 
			},
			{
				"x": 0.5570255898,
				"y": 1.4550145893,
				"z": 0.3721651705,
				"element": "C" 
			},
			{
				"x": 1.3483547717,
				"y": 1.2588813838,
				"z": 1.6694674071,
				"element": "C" 
			},
			{
				"x": 1.2451075458,
				"y": -0.1991629484,
				"z": 2.1311072448,
				"element": "C" 
			},
			{
				"x": -0.1490045047,
				"y": -0.6727527533,
				"z": 2.0960377765,
				"element": "N" 
			},
			{
				"x": -1.1797751931,
				"y": 0.3490867862,
				"z": 1.8774881087,
				"element": "C" 
			},
			{
				"x": -0.4673299931,
				"y": -1.9487569114,
				"z": 2.452466946,
				"element": "C" 
			},
			{
				"x": 0.5926466247,
				"y": -2.7643864599,
				"z": 2.7491222735,
				"element": "N" 
			},
			{
				"x": -2.0390869935,
				"y": -2.5621448224,
				"z": 2.5896792436,
				"element": "S" 
			},
			{
				"x": -1.0689561385,
				"y": -0.6084463584,
				"z": -0.7434076275,
				"element": "H" 
			},
			{
				"x": -2.6047328144,
				"y": 0.2476413041,
				"z": -0.5603938152,
				"element": "H" 
			},
			{
				"x": -1.3242699539,
				"y": 0.9346602622,
				"z": -1.5753565034,
				"element": "H" 
			},
			{
				"x": -1.5004106282,
				"y": 2.0724631202,
				"z": 0.6786343268,
				"element": "H" 
			},
			{
				"x": 0.6847239708,
				"y": 2.4743854664,
				"z": -0.0068549681,
				"element": "H" 
			},
			{
				"x": 0.9783399362,
				"y": 0.7879020845,
				"z": -0.3921112524,
				"element": "H" 
			},
			{
				"x": 2.4073986235,
				"y": 1.4991252493,
				"z": 1.5264767268,
				"element": "H" 
			},
			{
				"x": 0.9792614702,
				"y": 1.9324286476,
				"z": 2.4514092774,
				"element": "H" 
			},
			{
				"x": 1.851005623,
				"y": -0.8114003548,
				"z": 1.4456259014,
				"element": "H" 
			},
			{
				"x": 1.6619294122,
				"y": -0.3235800752,
				"z": 3.1406369226,
				"element": "H" 
			},
			{
				"x": -2.1419423149,
				"y": -0.1626970659,
				"z": 1.8736102094,
				"element": "H" 
			},
			{
				"x": -1.1811420489,
				"y": 1.0363434701,
				"z": 2.734151523,
				"element": "H" 
			},
			{
				"x": 0.3506053632,
				"y": -3.7353011327,
				"z": 2.8716917391,
				"element": "H" 
			},
			{
				"x": 1.5247571643,
				"y": -2.5634830031,
				"z": 2.4197750619,
				"element": "H" 
			}
		],
		 "valence_orbital": [ 
			{
				"type": "occ",
				"energy": -0.32527,
				"method": "rhf"
			},
			{
				"type": "occ",
				"energy": -0.32181,
				"method": "rhf"
			},
			{
				"type": "occ",
				"energy": -0.25555,
				"method": "rhf"
			},
			{
				"type": "occ",
				"energy": -0.20003,
				"method": "rhf"
			},
			{
				"type": "occ",
				"energy": -0.1925,
				"method": "rhf"
			},
			{
				"type": "unocc",
				"energy": 0.00975,
				"method": "rhf"
			},
			{
				"type": "unocc",
				"energy": 0.06138,
				"method": "rhf"
			},
			{
				"type": "unocc",
				"energy": 0.07902,
				"method": "rhf"
			},
			{
				"type": "unocc",
				"energy": 0.09295,
				"method": "rhf"
			},
			{
				"type": "unocc",
				"energy": 0.11189,
				"method": "rhf"
			}
		],
		"cosmo_sigma_profile": { 
			"-0.025": 0.0,
			"-0.024": 0.0,
			"-0.023": 0.0,
			"-0.022": 0.0,
			"-0.021": 0.0,
			"-0.02": 0.0,
			"-0.019": 0.0,
			"-0.018": 0.0,
			"-0.017": 0.0,
			"-0.016": 0.0,
			"-0.015": 0.181482661866,
			"-0.014": 1.22613483217,
			"-0.013": 2.04104934917,
			"-0.012": 2.64244498739,
			"-0.011": 2.25933703539,
			"-0.01": 2.69002583096,
			"-0.009": 1.63459149044,
			"-0.008": 2.04006416821,
			"-0.007": 2.48807135001,
			"-0.006": 2.99875410909,
			"-0.005": 7.83258239944,
			"-0.004": 15.9302758264,
			"-0.003": 24.3977681399,
			"-0.002": 27.0556505627,
			"-0.001": 23.6645461505,
			"0.0": 16.8797869046,
			"0.001": 12.0252745369,
			"0.002": 6.86285442539,
			"0.003": 2.90789276165,
			"0.004": 4.10761884735,
			"0.005": 4.29974035346,
			"0.006": 4.36238604871,
			"0.007": 5.13985780692,
			"0.008": 3.74305477615,
			"0.009": 4.29967652151,
			"0.01": 4.57770297184,
			"0.011": 4.93095334311,
			"0.012": 8.07604351864,
			"0.013": 3.81530756001,
			"0.014": 0.0,
			"0.015": 0.0,
			"0.016": 0.0,
			"0.017": 0.0,
			"0.018": 0.0,
			"0.019": 0.0,
			"0.02": 0.0,
			"0.021": 0.0,
			"0.022": 0.0,
			"0.023": 0.0,
			"0.024": 0.0,
			"0.025": 0.0
		}
	}
}
