{
	 "smiles": "OC1=CC=C(NC=C(C#N)C2=CC=CC=C2)C=C1", 
	 "Tm": 423.15, 
	 "num_atms": 30, 
	 "gaussian": { 
		 "optdone": 1, 
		 "sigma_profile": "yes", 
		 "theory": "DFT", 
		 "functional": "B3LYP", 
		 "basiset": "6-31G**", 
		 "properties": { 
			 "R2extent": 7240.0851, 
			 "electric_dipole_moment_norm": 5.28643197157, 
			 "electric_quadrupole_moment_norm": 9.19865207299, 
			 "total_energy": -763.530728005, 
			 "HOMO_LUMO_gap": 0.14838, 
			 "cosmo_polarized_energy": -18.65, 
			 "cosmo_cavitation_energy": 35.96, 
			 "cosmo_dispersion_energy": -25.53, 
			 "cosmo_repulsion_energy": 1.95, 
			 "cosmo_total_nonelectrostatic_energy": 12.39, 
			 "SMD_solvation_energy": 7.44 
		},
		"coords": [
			{
				"x": -4.0969173997,
				"y": -3.2851873203,
				"z": -3.8383152105,
				"element": "O" 
			},
			{
				"x": -3.0170291693,
				"y": -2.7660795186,
				"z": -3.1812997675,
				"element": "C" 
			},
			{
				"x": -1.8079763127,
				"y": -3.4663674576,
				"z": -3.270427488,
				"element": "C" 
			},
			{
				"x": -0.6789288464,
				"y": -2.9931394647,
				"z": -2.6150331852,
				"element": "C" 
			},
			{
				"x": -0.7243164307,
				"y": -1.8046918282,
				"z": -1.8682100676,
				"element": "C" 
			},
			{
				"x": 0.4486378786,
				"y": -1.3682742441,
				"z": -1.2211456264,
				"element": "N" 
			},
			{
				"x": 0.5266510412,
				"y": -0.4900834913,
				"z": -0.1877275016,
				"element": "C" 
			},
			{
				"x": 1.6883551292,
				"y": 0.0280518162,
				"z": 0.3248232787,
				"element": "C" 
			},
			{
				"x": 2.9007931905,
				"y": -0.3196334334,
				"z": -0.3420513642,
				"element": "C" 
			},
			{
				"x": 3.8536173041,
				"y": -0.6456600167,
				"z": -0.931881867,
				"element": "N" 
			},
			{
				"x": 1.7364003099,
				"y": 0.9237926363,
				"z": 1.5008937444,
				"element": "C" 
			},
			{
				"x": 0.7073828194,
				"y": 0.9416486702,
				"z": 2.4602520159,
				"element": "C" 
			},
			{
				"x": 0.7534037251,
				"y": 1.8196116355,
				"z": 3.5411024661,
				"element": "C" 
			},
			{
				"x": 1.8377167933,
				"y": 2.6841681912,
				"z": 3.7051482198,
				"element": "C" 
			},
			{
				"x": 2.8777782757,
				"y": 2.6578313097,
				"z": 2.7743079141,
				"element": "C" 
			},
			{
				"x": 2.8286112398,
				"y": 1.7906833181,
				"z": 1.6848388343,
				"element": "C" 
			},
			{
				"x": -1.9292201659,
				"y": -1.0943706842,
				"z": -1.8023527356,
				"element": "C" 
			},
			{
				"x": -3.0685968377,
				"y": -1.5802814484,
				"z": -2.4438291428,
				"element": "C" 
			},
			{
				"x": -4.8607104828,
				"y": -2.7101024909,
				"z": -3.7017170838,
				"element": "H" 
			},
			{
				"x": -1.7730846345,
				"y": -4.3835587104,
				"z": -3.8484229113,
				"element": "H" 
			},
			{
				"x": 0.2499775556,
				"y": -3.5544555995,
				"z": -2.6731187643,
				"element": "H" 
			},
			{
				"x": 1.3257380307,
				"y": -1.7256565628,
				"z": -1.5816891786,
				"element": "H" 
			},
			{
				"x": -0.4230169491,
				"y": -0.2058179973,
				"z": 0.2504480235,
				"element": "H" 
			},
			{
				"x": -0.1221094876,
				"y": 0.2449898439,
				"z": 2.3805991206,
				"element": "H" 
			},
			{
				"x": -0.0532045516,
				"y": 1.813255105,
				"z": 4.2689621535,
				"element": "H" 
			},
			{
				"x": 1.8766990543,
				"y": 3.3602542641,
				"z": 4.5539783215,
				"element": "H" 
			},
			{
				"x": 3.7319039262,
				"y": 3.318600516,
				"z": 2.8924581569,
				"element": "H" 
			},
			{
				"x": 3.6400528984,
				"y": 1.7853411653,
				"z": 0.9629160034,
				"element": "H" 
			},
			{
				"x": -1.9847037631,
				"y": -0.1471090719,
				"z": -1.2767640345,
				"element": "H" 
			},
			{
				"x": -3.9966041409,
				"y": -1.0159591312,
				"z": -2.3835423238,
				"element": "H" 
			}
		],
		 "valence_orbital": [ 
			{
				"type": "occ",
				"energy": -0.27752,
				"method": "rhf"
			},
			{
				"type": "occ",
				"energy": -0.26909,
				"method": "rhf"
			},
			{
				"type": "occ",
				"energy": -0.25122,
				"method": "rhf"
			},
			{
				"type": "occ",
				"energy": -0.23852,
				"method": "rhf"
			},
			{
				"type": "occ",
				"energy": -0.19321,
				"method": "rhf"
			},
			{
				"type": "unocc",
				"energy": -0.04483,
				"method": "rhf"
			},
			{
				"type": "unocc",
				"energy": -0.01968,
				"method": "rhf"
			},
			{
				"type": "unocc",
				"energy": -0.00247,
				"method": "rhf"
			},
			{
				"type": "unocc",
				"energy": 0.00691,
				"method": "rhf"
			},
			{
				"type": "unocc",
				"energy": 0.02049,
				"method": "rhf"
			}
		],
		"cosmo_sigma_profile": { 
			"-0.025": 0.0,
			"-0.024": 0.0,
			"-0.023": 0.0,
			"-0.022": 0.0,
			"-0.021": 0.0,
			"-0.02": 0.0,
			"-0.019": 0.0,
			"-0.018": 0.276860150448,
			"-0.017": 1.14656754267,
			"-0.016": 1.18700095362,
			"-0.015": 1.20289910912,
			"-0.014": 1.6356788863,
			"-0.013": 2.61430541777,
			"-0.012": 2.1649012897,
			"-0.011": 1.38307144383,
			"-0.01": 2.89562081356,
			"-0.009": 5.5252873778,
			"-0.008": 5.38964919637,
			"-0.007": 8.6371441922,
			"-0.006": 12.2419095044,
			"-0.005": 17.9559144946,
			"-0.004": 19.7641904362,
			"-0.003": 16.4674541288,
			"-0.002": 13.1108568992,
			"-0.001": 16.2762196091,
			"0.0": 15.388569834,
			"0.001": 21.238612693,
			"0.002": 18.9877850634,
			"0.003": 21.6731815606,
			"0.004": 22.8134100479,
			"0.005": 20.4653861368,
			"0.006": 11.0254987783,
			"0.007": 3.03888773016,
			"0.008": 3.83739577131,
			"0.009": 4.11605008946,
			"0.01": 4.37059646018,
			"0.011": 5.54035282992,
			"0.012": 3.26808000653,
			"0.013": 2.53225849698,
			"0.014": 1.23165378755,
			"0.015": 0.00752604225705,
			"0.016": 0.0,
			"0.017": 0.0,
			"0.018": 0.0,
			"0.019": 0.0,
			"0.02": 0.0,
			"0.021": 0.0,
			"0.022": 0.0,
			"0.023": 0.0,
			"0.024": 0.0,
			"0.025": 0.0
		}
	}
}
