{
	 "smiles": "CC(C)NC(=O)CC1=CC=C(N)C=C1", 
	 "Tm": 427.15, 
	 "num_atms": 30, 
	 "gaussian": { 
		 "optdone": 1, 
		 "sigma_profile": "yes", 
		 "theory": "DFT", 
		 "functional": "B3LYP", 
		 "basiset": "6-31G**", 
		 "properties": { 
			 "R2extent": 4133.9613, 
			 "electric_dipole_moment_norm": 5.27540733404, 
			 "electric_quadrupole_moment_norm": 7.01194585975, 
			 "total_energy": -613.575530563, 
			 "HOMO_LUMO_gap": 0.19681, 
			 "cosmo_polarized_energy": -15.03, 
			 "cosmo_cavitation_energy": 32.7, 
			 "cosmo_dispersion_energy": -22.92, 
			 "cosmo_repulsion_energy": 1.86, 
			 "cosmo_total_nonelectrostatic_energy": 11.64, 
			 "SMD_solvation_energy": 5.58 
		},
		"coords": [
			{
				"x": -3.5989461579,
				"y": 1.137406587,
				"z": 1.3945260897,
				"element": "C" 
			},
			{
				"x": -2.492731814,
				"y": 2.1012899676,
				"z": 0.9414915789,
				"element": "C" 
			},
			{
				"x": -2.2648950831,
				"y": 3.2369088734,
				"z": 1.9496597969,
				"element": "C" 
			},
			{
				"x": -1.2417272367,
				"y": 1.3859944635,
				"z": 0.6407317847,
				"element": "N" 
			},
			{
				"x": -0.5154819941,
				"y": 0.6842770369,
				"z": 1.5503395769,
				"element": "C" 
			},
			{
				"x": -0.8228891907,
				"y": 0.5673836722,
				"z": 2.7337887103,
				"element": "O" 
			},
			{
				"x": 0.7694206407,
				"y": 0.0103043006,
				"z": 1.020597979,
				"element": "C" 
			},
			{
				"x": 1.1011810179,
				"y": 0.1653295137,
				"z": -0.4447653813,
				"element": "C" 
			},
			{
				"x": 1.8782889208,
				"y": 1.2378734416,
				"z": -0.908677127,
				"element": "C" 
			},
			{
				"x": 2.1726260909,
				"y": 1.3972027223,
				"z": -2.2598829395,
				"element": "C" 
			},
			{
				"x": 1.6940232409,
				"y": 0.4780196665,
				"z": -3.2096211244,
				"element": "C" 
			},
			{
				"x": 1.9387169693,
				"y": 0.6616585812,
				"z": -4.5713736236,
				"element": "N" 
			},
			{
				"x": 0.9144324744,
				"y": -0.5999873531,
				"z": -2.755423776,
				"element": "C" 
			},
			{
				"x": 0.6281605587,
				"y": -0.7463300078,
				"z": -1.4011378017,
				"element": "C" 
			},
			{
				"x": -4.5361936534,
				"y": 1.6828303729,
				"z": 1.5474223459,
				"element": "H" 
			},
			{
				"x": -3.7720919981,
				"y": 0.3636274385,
				"z": 0.6398676313,
				"element": "H" 
			},
			{
				"x": -3.3155149075,
				"y": 0.6536228883,
				"z": 2.3313639927,
				"element": "H" 
			},
			{
				"x": -2.7960427453,
				"y": 2.5466331631,
				"z": -0.0139290767,
				"element": "H" 
			},
			{
				"x": -3.193689161,
				"y": 3.795714714,
				"z": 2.1057735474,
				"element": "H" 
			},
			{
				"x": -1.5035586413,
				"y": 3.9332149622,
				"z": 1.5839356603,
				"element": "H" 
			},
			{
				"x": -1.9334956044,
				"y": 2.8290277848,
				"z": 2.9066543867,
				"element": "H" 
			},
			{
				"x": -0.8917495966,
				"y": 1.4112883247,
				"z": -0.3056697236,
				"element": "H" 
			},
			{
				"x": 1.5801354674,
				"y": 0.4006902622,
				"z": 1.6457371667,
				"element": "H" 
			},
			{
				"x": 0.6722297739,
				"y": -1.0477020971,
				"z": 1.2876135137,
				"element": "H" 
			},
			{
				"x": 2.2684279044,
				"y": 1.9604679654,
				"z": -0.1955170299,
				"element": "H" 
			},
			{
				"x": 2.7795100983,
				"y": 2.2382494695,
				"z": -2.5867430525,
				"element": "H" 
			},
			{
				"x": 1.8852885669,
				"y": -0.1756729324,
				"z": -5.1349531991,
				"element": "H" 
			},
			{
				"x": 2.7581949223,
				"y": 1.2109981854,
				"z": -4.7911034643,
				"element": "H" 
			},
			{
				"x": 0.5343775454,
				"y": -1.3252071252,
				"z": -3.4710492466,
				"element": "H" 
			},
			{
				"x": 0.0284935921,
				"y": -1.5941148416,
				"z": -1.0777571951,
				"element": "H" 
			}
		],
		 "valence_orbital": [ 
			{
				"type": "occ",
				"energy": -0.31192,
				"method": "rhf"
			},
			{
				"type": "occ",
				"energy": -0.25453,
				"method": "rhf"
			},
			{
				"type": "occ",
				"energy": -0.23865,
				"method": "rhf"
			},
			{
				"type": "occ",
				"energy": -0.23531,
				"method": "rhf"
			},
			{
				"type": "occ",
				"energy": -0.20236,
				"method": "rhf"
			},
			{
				"type": "unocc",
				"energy": -0.00555,
				"method": "rhf"
			},
			{
				"type": "unocc",
				"energy": 0.00778,
				"method": "rhf"
			},
			{
				"type": "unocc",
				"energy": 0.04351,
				"method": "rhf"
			},
			{
				"type": "unocc",
				"energy": 0.07525,
				"method": "rhf"
			},
			{
				"type": "unocc",
				"energy": 0.08889,
				"method": "rhf"
			}
		],
		"cosmo_sigma_profile": { 
			"-0.025": 0.0,
			"-0.024": 0.0,
			"-0.023": 0.0,
			"-0.022": 0.0,
			"-0.021": 0.0,
			"-0.02": 0.0,
			"-0.019": 0.0,
			"-0.018": 0.0,
			"-0.017": 0.0,
			"-0.016": 0.0,
			"-0.015": 0.0,
			"-0.014": 0.0,
			"-0.013": 0.183474004187,
			"-0.012": 2.38232311425,
			"-0.011": 3.7191296227,
			"-0.01": 3.62824601737,
			"-0.009": 3.77795791173,
			"-0.008": 3.65643107476,
			"-0.007": 3.94871865286,
			"-0.006": 5.55060084663,
			"-0.005": 17.6702382687,
			"-0.004": 16.3492411826,
			"-0.003": 24.4632010186,
			"-0.002": 21.38952013,
			"-0.001": 22.9623946928,
			"0.0": 21.6847893015,
			"0.001": 23.0707682523,
			"0.002": 16.5186854214,
			"0.003": 9.65698247048,
			"0.004": 9.10729558536,
			"0.005": 10.1864217009,
			"0.006": 9.5044503552,
			"0.007": 5.1241305692,
			"0.008": 2.33159717441,
			"0.009": 3.45057476143,
			"0.01": 1.46510754005,
			"0.011": 2.14275991473,
			"0.012": 1.84189401955,
			"0.013": 2.90159740091,
			"0.014": 3.36386815792,
			"0.015": 3.40489199196,
			"0.016": 0.786611726328,
			"0.017": 0.0,
			"0.018": 0.0,
			"0.019": 0.0,
			"0.02": 0.0,
			"0.021": 0.0,
			"0.022": 0.0,
			"0.023": 0.0,
			"0.024": 0.0,
			"0.025": 0.0
		}
	}
}
