{
	 "smiles": "C(C1=CC=CC=C1)C1=CC=CC=N1", 
	 "Tm": 284.35, 
	 "num_atms": 24, 
	 "gaussian": { 
		 "optdone": 1, 
		 "sigma_profile": "yes", 
		 "theory": "DFT", 
		 "functional": "B3LYP", 
		 "basiset": "6-31G**", 
		 "properties": { 
			 "R2extent": 2782.0689, 
			 "electric_dipole_moment_norm": 1.89421828204, 
			 "electric_quadrupole_moment_norm": 5.44091551855, 
			 "total_energy": -518.660699577, 
			 "HOMO_LUMO_gap": 0.20985, 
			 "cosmo_polarized_energy": -7.37, 
			 "cosmo_cavitation_energy": 27.84, 
			 "cosmo_dispersion_energy": -20.04, 
			 "cosmo_repulsion_energy": 1.58, 
			 "cosmo_total_nonelectrostatic_energy": 9.39, 
			 "SMD_solvation_energy": 3.56 
		},
		"coords": [
			{
				"x": 0.2286789633,
				"y": -1.3534641244,
				"z": -0.220969378,
				"element": "C" 
			},
			{
				"x": 1.119528241,
				"y": -0.34198472,
				"z": -0.9291460648,
				"element": "C" 
			},
			{
				"x": 0.5565757127,
				"y": 0.7568611178,
				"z": -1.5947479198,
				"element": "C" 
			},
			{
				"x": 1.3689635458,
				"y": 1.6848901905,
				"z": -2.2447793299,
				"element": "C" 
			},
			{
				"x": 2.7581039188,
				"y": 1.5312509401,
				"z": -2.2404009948,
				"element": "C" 
			},
			{
				"x": 3.3274404043,
				"y": 0.4424985067,
				"z": -1.580367418,
				"element": "C" 
			},
			{
				"x": 2.5114772522,
				"y": -0.4859356827,
				"z": -0.9290416806,
				"element": "C" 
			},
			{
				"x": -0.5403501066,
				"y": -0.7553067422,
				"z": 0.9432395256,
				"element": "C" 
			},
			{
				"x": -0.0192009824,
				"y": -0.7677803024,
				"z": 2.2442222586,
				"element": "C" 
			},
			{
				"x": -0.7523512782,
				"y": -0.1851438859,
				"z": 3.2747845895,
				"element": "C" 
			},
			{
				"x": -1.9844545257,
				"y": 0.3967283346,
				"z": 2.9768073164,
				"element": "C" 
			},
			{
				"x": -2.4205615216,
				"y": 0.3641573927,
				"z": 1.6527161868,
				"element": "C" 
			},
			{
				"x": -1.7272095227,
				"y": -0.1964711664,
				"z": 0.6541699451,
				"element": "N" 
			},
			{
				"x": 0.8414396297,
				"y": -2.1891861926,
				"z": 0.1326527552,
				"element": "H" 
			},
			{
				"x": -0.5040576294,
				"y": -1.7560746488,
				"z": -0.928006725,
				"element": "H" 
			},
			{
				"x": -0.5227129847,
				"y": 0.8797833,
				"z": -1.5896108199,
				"element": "H" 
			},
			{
				"x": 0.9174146067,
				"y": 2.5298720737,
				"z": -2.7575395615,
				"element": "H" 
			},
			{
				"x": 3.3898865053,
				"y": 2.2540755106,
				"z": -2.7488398894,
				"element": "H" 
			},
			{
				"x": 4.406225146,
				"y": 0.3126097469,
				"z": -1.5714604578,
				"element": "H" 
			},
			{
				"x": 2.9620719976,
				"y": -1.3347019472,
				"z": -0.4196081983,
				"element": "H" 
			},
			{
				"x": 0.9452102454,
				"y": -1.2277380482,
				"z": 2.4383181665,
				"element": "H" 
			},
			{
				"x": -0.3701200885,
				"y": -0.1862804815,
				"z": 4.2918131641,
				"element": "H" 
			},
			{
				"x": -2.5932182958,
				"y": 0.8610338773,
				"z": 3.7460953117,
				"element": "H" 
			},
			{
				"x": -3.3773792335,
				"y": 0.8059069514,
				"z": 1.3783992186,
				"element": "H" 
			}
		],
		 "valence_orbital": [ 
			{
				"type": "occ",
				"energy": -0.284,
				"method": "rhf"
			},
			{
				"type": "occ",
				"energy": -0.25523,
				"method": "rhf"
			},
			{
				"type": "occ",
				"energy": -0.25325,
				"method": "rhf"
			},
			{
				"type": "occ",
				"energy": -0.24279,
				"method": "rhf"
			},
			{
				"type": "occ",
				"energy": -0.23373,
				"method": "rhf"
			},
			{
				"type": "unocc",
				"energy": -0.02388,
				"method": "rhf"
			},
			{
				"type": "unocc",
				"energy": -0.0112,
				"method": "rhf"
			},
			{
				"type": "unocc",
				"energy": 0.00511,
				"method": "rhf"
			},
			{
				"type": "unocc",
				"energy": 0.01109,
				"method": "rhf"
			},
			{
				"type": "unocc",
				"energy": 0.0901,
				"method": "rhf"
			}
		],
		"cosmo_sigma_profile": { 
			"-0.025": 0.0,
			"-0.024": 0.0,
			"-0.023": 0.0,
			"-0.022": 0.0,
			"-0.021": 0.0,
			"-0.02": 0.0,
			"-0.019": 0.0,
			"-0.018": 0.0,
			"-0.017": 0.0,
			"-0.016": 0.0,
			"-0.015": 0.0,
			"-0.014": 0.0,
			"-0.013": 0.0,
			"-0.012": 0.0,
			"-0.011": 0.0,
			"-0.01": 0.0,
			"-0.009": 0.0,
			"-0.008": 0.0,
			"-0.007": 2.43475954531,
			"-0.006": 11.7199108283,
			"-0.005": 21.3541355733,
			"-0.004": 21.2547711789,
			"-0.003": 19.6325327103,
			"-0.002": 16.2679806814,
			"-0.001": 16.682177469,
			"0.0": 13.916445477,
			"0.001": 13.7842995149,
			"0.002": 16.0709609102,
			"0.003": 23.1346877451,
			"0.004": 14.85426306,
			"0.005": 11.5777113711,
			"0.006": 10.5397663572,
			"0.007": 3.19027045089,
			"0.008": 0.941042789469,
			"0.009": 1.36705760591,
			"0.01": 0.999177809963,
			"0.011": 0.35527972945,
			"0.012": 0.66122238377,
			"0.013": 0.678933029663,
			"0.014": 0.553385003813,
			"0.015": 0.515405748934,
			"0.016": 0.249326079206,
			"0.017": 0.0,
			"0.018": 0.0,
			"0.019": 0.0,
			"0.02": 0.0,
			"0.021": 0.0,
			"0.022": 0.0,
			"0.023": 0.0,
			"0.024": 0.0,
			"0.025": 0.0
		}
	}
}
