{
	 "smiles": "CC1=CC2=C(NC(=C2CCC(O)=O)C2=CC=C(Br)C=C2)C=C1", 
	 "Tm": 375.15, 
	 "num_atms": 38, 
	 "gaussian": { 
		 "optdone": 1, 
		 "sigma_profile": "yes", 
		 "theory": "DFT", 
		 "functional": "B3LYP", 
		 "basiset": "6-31G**", 
		 "properties": { 
			 "R2extent": 14162.5109, 
			 "electric_dipole_moment_norm": 1.92581182362, 
			 "electric_quadrupole_moment_norm": 16.4771503844, 
			 "total_energy": -3472.20404738, 
			 "HOMO_LUMO_gap": 0.1576, 
			 "cosmo_polarized_energy": -16.46, 
			 "cosmo_cavitation_energy": 44.32, 
			 "cosmo_dispersion_energy": -30.47, 
			 "cosmo_repulsion_energy": 2.35, 
			 "cosmo_total_nonelectrostatic_energy": 16.19, 
			 "SMD_solvation_energy": 6.68 
		},
		"coords": [
			{
				"x": 3.5715364512,
				"y": -0.9597436857,
				"z": 3.1597298672,
				"element": "C" 
			},
			{
				"x": 2.6266677493,
				"y": 0.0200031844,
				"z": 2.5006634899,
				"element": "C" 
			},
			{
				"x": 1.518376594,
				"y": -0.4235876745,
				"z": 1.7863609893,
				"element": "C" 
			},
			{
				"x": 0.64901884,
				"y": 0.5073508855,
				"z": 1.1845013947,
				"element": "C" 
			},
			{
				"x": 0.9391048452,
				"y": 1.8906904109,
				"z": 1.3054074714,
				"element": "C" 
			},
			{
				"x": -0.0377651715,
				"y": 2.574686488,
				"z": 0.6153013603,
				"element": "N" 
			},
			{
				"x": -0.9703896433,
				"y": 1.6755486005,
				"z": 0.1070022281,
				"element": "C" 
			},
			{
				"x": -0.5698541294,
				"y": 0.3862010592,
				"z": 0.423292056,
				"element": "C" 
			},
			{
				"x": -1.1882959194,
				"y": -0.9087234179,
				"z": -0.0351896968,
				"element": "C" 
			},
			{
				"x": -0.8224623165,
				"y": -1.3034350571,
				"z": -1.4880137293,
				"element": "C" 
			},
			{
				"x": 0.6541693553,
				"y": -1.542020586,
				"z": -1.7128057902,
				"element": "C" 
			},
			{
				"x": 1.144373059,
				"y": -2.4984156851,
				"z": -0.8788043047,
				"element": "O" 
			},
			{
				"x": 1.3471024856,
				"y": -0.9888916709,
				"z": -2.5363545311,
				"element": "O" 
			},
			{
				"x": -2.1124299165,
				"y": 2.1828313752,
				"z": -0.6677189164,
				"element": "C" 
			},
			{
				"x": -3.4114068019,
				"y": 1.677571746,
				"z": -0.4826336338,
				"element": "C" 
			},
			{
				"x": -4.4895616517,
				"y": 2.1729779402,
				"z": -1.2125231897,
				"element": "C" 
			},
			{
				"x": -4.2782871446,
				"y": 3.1983049151,
				"z": -2.1335665124,
				"element": "C" 
			},
			{
				"x": -5.7542409377,
				"y": 3.8872970275,
				"z": -3.1319486696,
				"element": "Br" 
			},
			{
				"x": -3.0051239873,
				"y": 3.7297742382,
				"z": -2.3319231319,
				"element": "C" 
			},
			{
				"x": -1.9331461431,
				"y": 3.2192498066,
				"z": -1.6027797621,
				"element": "C" 
			},
			{
				"x": 2.0464863801,
				"y": 2.357118278,
				"z": 2.0217800859,
				"element": "C" 
			},
			{
				"x": 2.8737589452,
				"y": 1.4115643389,
				"z": 2.6110477044,
				"element": "C" 
			},
			{
				"x": 3.2485343304,
				"y": -1.9925258021,
				"z": 3.0007311467,
				"element": "H" 
			},
			{
				"x": 4.5904439156,
				"y": -0.8647723146,
				"z": 2.7650903689,
				"element": "H" 
			},
			{
				"x": 3.6322813736,
				"y": -0.7941598204,
				"z": 4.2420532456,
				"element": "H" 
			},
			{
				"x": 1.3297699042,
				"y": -1.4886661183,
				"z": 1.6861388342,
				"element": "H" 
			},
			{
				"x": -0.1902930202,
				"y": 3.569967732,
				"z": 0.6589136719,
				"element": "H" 
			},
			{
				"x": -2.2795988893,
				"y": -0.864707313,
				"z": 0.0213428275,
				"element": "H" 
			},
			{
				"x": -0.8811148323,
				"y": -1.7143859504,
				"z": 0.6383470631,
				"element": "H" 
			},
			{
				"x": -1.3500215857,
				"y": -2.2302686639,
				"z": -1.7473292358,
				"element": "H" 
			},
			{
				"x": -1.1329250175,
				"y": -0.5267841412,
				"z": -2.1893132895,
				"element": "H" 
			},
			{
				"x": 2.0921688636,
				"y": -2.5665005673,
				"z": -1.0827300851,
				"element": "H" 
			},
			{
				"x": -3.5866021074,
				"y": 0.9097017159,
				"z": 0.2632853604,
				"element": "H" 
			},
			{
				"x": -5.4869752155,
				"y": 1.7779271468,
				"z": -1.0562728716,
				"element": "H" 
			},
			{
				"x": -2.8512538142,
				"y": 4.5230367885,
				"z": -3.0546789491,
				"element": "H" 
			},
			{
				"x": -0.9362087297,
				"y": 3.6115543688,
				"z": -1.7812151123,
				"element": "H" 
			},
			{
				"x": 2.2558151813,
				"y": 3.4193448009,
				"z": 2.1128520234,
				"element": "H" 
			},
			{
				"x": 3.742048701,
				"y": 1.7465856212,
				"z": 3.1730602226,
				"element": "H" 
			}
		],
		 "valence_orbital": [ 
			{
				"type": "occ",
				"energy": -0.27055,
				"method": "rhf"
			},
			{
				"type": "occ",
				"energy": -0.26604,
				"method": "rhf"
			},
			{
				"type": "occ",
				"energy": -0.25295,
				"method": "rhf"
			},
			{
				"type": "occ",
				"energy": -0.21134,
				"method": "rhf"
			},
			{
				"type": "occ",
				"energy": -0.19711,
				"method": "rhf"
			},
			{
				"type": "unocc",
				"energy": -0.03951,
				"method": "rhf"
			},
			{
				"type": "unocc",
				"energy": -0.02181,
				"method": "rhf"
			},
			{
				"type": "unocc",
				"energy": 0.00332,
				"method": "rhf"
			},
			{
				"type": "unocc",
				"energy": 0.00586,
				"method": "rhf"
			},
			{
				"type": "unocc",
				"energy": 0.01269,
				"method": "rhf"
			}
		],
		"cosmo_sigma_profile": { 
			"-0.025": 0.0,
			"-0.024": 0.0,
			"-0.023": 0.0,
			"-0.022": 0.0,
			"-0.021": 0.0,
			"-0.02": 0.0,
			"-0.019": 0.0,
			"-0.018": 0.437034350398,
			"-0.017": 0.678786177954,
			"-0.016": 1.0475202043,
			"-0.015": 1.46082873402,
			"-0.014": 1.7006933011,
			"-0.013": 1.94564149642,
			"-0.012": 1.08644136312,
			"-0.011": 1.35131622657,
			"-0.01": 2.15954758767,
			"-0.009": 2.35250333775,
			"-0.008": 3.01714393962,
			"-0.007": 9.57910398979,
			"-0.006": 14.1289309018,
			"-0.005": 13.7525313014,
			"-0.004": 22.3197222167,
			"-0.003": 28.6377821701,
			"-0.002": 31.0747512142,
			"-0.001": 24.9220452303,
			"0.0": 27.2161933451,
			"0.001": 29.0172912662,
			"0.002": 26.3565059009,
			"0.003": 28.6783229377,
			"0.004": 27.2132082375,
			"0.005": 18.8609139818,
			"0.006": 10.8552747064,
			"0.007": 8.78223896438,
			"0.008": 2.35408019939,
			"0.009": 2.74453391716,
			"0.01": 1.9313746268,
			"0.011": 3.53576920922,
			"0.012": 5.12291000118,
			"0.013": 1.41071848612,
			"0.014": 0.0372201019298,
			"0.015": 0.0,
			"0.016": 0.0,
			"0.017": 0.0,
			"0.018": 0.0,
			"0.019": 0.0,
			"0.02": 0.0,
			"0.021": 0.0,
			"0.022": 0.0,
			"0.023": 0.0,
			"0.024": 0.0,
			"0.025": 0.0
		}
	}
}
