{
	 "smiles": "CC(C)C1=CC2=C(C)C=CC=C(C)C2=C1", 
	 "Tm": 305.45, 
	 "num_atms": 33, 
	 "gaussian": { 
		 "optdone": 1, 
		 "sigma_profile": "yes", 
		 "theory": "DFT", 
		 "functional": "B3LYP", 
		 "basiset": "6-31G**", 
		 "properties": { 
			 "R2extent": 5363.4715, 
			 "electric_dipole_moment_norm": 0.638715273029, 
			 "electric_quadrupole_moment_norm": 8.53673108924, 
			 "total_energy": -582.431466853, 
			 "HOMO_LUMO_gap": 0.12486, 
			 "cosmo_polarized_energy": -5.22, 
			 "cosmo_cavitation_energy": 34.28, 
			 "cosmo_dispersion_energy": -24.26, 
			 "cosmo_repulsion_energy": 1.89, 
			 "cosmo_total_nonelectrostatic_energy": 11.92, 
			 "SMD_solvation_energy": 5.59 
		},
		"coords": [
			{
				"x": -1.5097408519,
				"y": -2.8227363385,
				"z": -0.1204047187,
				"element": "C" 
			},
			{
				"x": -2.371717342,
				"y": -1.9553713767,
				"z": -1.0588342856,
				"element": "C" 
			},
			{
				"x": -2.6405184877,
				"y": -2.6864182085,
				"z": -2.3890799938,
				"element": "C" 
			},
			{
				"x": -1.7489115657,
				"y": -0.5985395135,
				"z": -1.2878808663,
				"element": "C" 
			},
			{
				"x": -0.4989452325,
				"y": -0.3479052957,
				"z": -1.8911117111,
				"element": "C" 
			},
			{
				"x": -0.2639155204,
				"y": 1.0369716512,
				"z": -1.9270415806,
				"element": "C" 
			},
			{
				"x": 0.887345857,
				"y": 1.6437616705,
				"z": -2.4606741036,
				"element": "C" 
			},
			{
				"x": 1.9535508175,
				"y": 0.734201225,
				"z": -3.040242571,
				"element": "C" 
			},
			{
				"x": 1.1432244794,
				"y": 3.020339375,
				"z": -2.5072360556,
				"element": "C" 
			},
			{
				"x": 0.3652389423,
				"y": 4.0904953904,
				"z": -2.0608288561,
				"element": "C" 
			},
			{
				"x": -0.8837659895,
				"y": 4.1104419301,
				"z": -1.4426506623,
				"element": "C" 
			},
			{
				"x": -1.7274718855,
				"y": 3.0463714971,
				"z": -1.0874767294,
				"element": "C" 
			},
			{
				"x": -3.038362454,
				"y": 3.4141026878,
				"z": -0.4184269844,
				"element": "C" 
			},
			{
				"x": -1.4643774271,
				"y": 1.6838105762,
				"z": -1.2964518426,
				"element": "C" 
			},
			{
				"x": -2.3259582529,
				"y": 0.6315589513,
				"z": -0.9315715023,
				"element": "C" 
			},
			{
				"x": -1.3427664474,
				"y": -2.3226875274,
				"z": 0.8385321972,
				"element": "H" 
			},
			{
				"x": -1.9966547872,
				"y": -3.7847956468,
				"z": 0.0750012986,
				"element": "H" 
			},
			{
				"x": -0.5295671997,
				"y": -3.0274286206,
				"z": -0.5648384734,
				"element": "H" 
			},
			{
				"x": -3.3399040894,
				"y": -1.7924285129,
				"z": -0.566616891,
				"element": "H" 
			},
			{
				"x": -3.279150172,
				"y": -2.0890250852,
				"z": -3.0469201446,
				"element": "H" 
			},
			{
				"x": -3.1361667493,
				"y": -3.647288349,
				"z": -2.2104562641,
				"element": "H" 
			},
			{
				"x": -1.7052884478,
				"y": -2.8859788177,
				"z": -2.9235727657,
				"element": "H" 
			},
			{
				"x": 0.1743465567,
				"y": -1.1063081951,
				"z": -2.2675713993,
				"element": "H" 
			},
			{
				"x": 2.3289081466,
				"y": 0.0368959375,
				"z": -2.2832949485,
				"element": "H" 
			},
			{
				"x": 1.5507390113,
				"y": 0.129689979,
				"z": -3.8602738825,
				"element": "H" 
			},
			{
				"x": 2.8009936454,
				"y": 1.3057767436,
				"z": -3.4248461003,
				"element": "H" 
			},
			{
				"x": 2.0914824658,
				"y": 3.302420887,
				"z": -2.9593031777,
				"element": "H" 
			},
			{
				"x": 0.8080932288,
				"y": 5.0720036922,
				"z": -2.2226837305,
				"element": "H" 
			},
			{
				"x": -1.2587896757,
				"y": 5.1021710573,
				"z": -1.1998838425,
				"element": "H" 
			},
			{
				"x": -3.8923173683,
				"y": 3.0520325739,
				"z": -1.0012072109,
				"element": "H" 
			},
			{
				"x": -3.11343936,
				"y": 2.9597385971,
				"z": 0.5754842305,
				"element": "H" 
			},
			{
				"x": -3.139753597,
				"y": 4.4956249833,
				"z": -0.3050530028,
				"element": "H" 
			},
			{
				"x": -3.2886402479,
				"y": 0.7414020821,
				"z": -0.4493834291,
				"element": "H" 
			}
		],
		 "valence_orbital": [ 
			{
				"type": "occ",
				"energy": -0.31294,
				"method": "rhf"
			},
			{
				"type": "occ",
				"energy": -0.31177,
				"method": "rhf"
			},
			{
				"type": "occ",
				"energy": -0.27198,
				"method": "rhf"
			},
			{
				"type": "occ",
				"energy": -0.21155,
				"method": "rhf"
			},
			{
				"type": "occ",
				"energy": -0.18502,
				"method": "rhf"
			},
			{
				"type": "unocc",
				"energy": -0.06016,
				"method": "rhf"
			},
			{
				"type": "unocc",
				"energy": -0.02828,
				"method": "rhf"
			},
			{
				"type": "unocc",
				"energy": 0.08813,
				"method": "rhf"
			},
			{
				"type": "unocc",
				"energy": 0.08872,
				"method": "rhf"
			},
			{
				"type": "unocc",
				"energy": 0.09585,
				"method": "rhf"
			}
		],
		"cosmo_sigma_profile": { 
			"-0.025": 0.0,
			"-0.024": 0.0,
			"-0.023": 0.0,
			"-0.022": 0.0,
			"-0.021": 0.0,
			"-0.02": 0.0,
			"-0.019": 0.0,
			"-0.018": 0.0,
			"-0.017": 0.0,
			"-0.016": 0.0,
			"-0.015": 0.0,
			"-0.014": 0.0,
			"-0.013": 0.0,
			"-0.012": 0.0,
			"-0.011": 0.0,
			"-0.01": 0.0,
			"-0.009": 0.0,
			"-0.008": 0.0,
			"-0.007": 0.0,
			"-0.006": 2.3517459243,
			"-0.005": 11.4753121981,
			"-0.004": 19.0825073292,
			"-0.003": 29.6318482677,
			"-0.002": 35.1464676642,
			"-0.001": 32.0002422893,
			"0.0": 35.7824600121,
			"0.001": 29.4781113896,
			"0.002": 17.2295020868,
			"0.003": 10.8563521471,
			"0.004": 17.6521601009,
			"0.005": 13.0072721295,
			"0.006": 6.25472297122,
			"0.007": 6.40649366817,
			"0.008": 2.81786541385,
			"0.009": 0.0,
			"0.01": 0.0,
			"0.011": 0.0,
			"0.012": 0.0,
			"0.013": 0.0,
			"0.014": 0.0,
			"0.015": 0.0,
			"0.016": 0.0,
			"0.017": 0.0,
			"0.018": 0.0,
			"0.019": 0.0,
			"0.02": 0.0,
			"0.021": 0.0,
			"0.022": 0.0,
			"0.023": 0.0,
			"0.024": 0.0,
			"0.025": 0.0
		}
	}
}
