{
	 "smiles": "CC(C)(C)CC(=O)NC1=CC(C(O)=O)=C(Cl)C=C1", 
	 "Tm": 488.15, 
	 "num_atms": 34, 
	 "gaussian": { 
		 "optdone": 1, 
		 "sigma_profile": "yes", 
		 "theory": "DFT", 
		 "functional": "B3LYP", 
		 "basiset": "6-31G**", 
		 "properties": { 
			 "R2extent": 8147.6839, 
			 "electric_dipole_moment_norm": 5.54042665325, 
			 "electric_quadrupole_moment_norm": 19.893557194, 
			 "total_energy": -1245.68853288, 
			 "HOMO_LUMO_gap": 0.17512, 
			 "cosmo_polarized_energy": -19.73, 
			 "cosmo_cavitation_energy": 38.87, 
			 "cosmo_dispersion_energy": -27.26, 
			 "cosmo_repulsion_energy": 2.1, 
			 "cosmo_total_nonelectrostatic_energy": 13.71, 
			 "SMD_solvation_energy": 7.94 
		},
		"coords": [
			{
				"x": 1.9099568885,
				"y": 1.2436490231,
				"z": -4.081650488,
				"element": "C" 
			},
			{
				"x": 0.8236666113,
				"y": 1.1197156542,
				"z": -2.9954158613,
				"element": "C" 
			},
			{
				"x": -0.5592385702,
				"y": 1.0329672728,
				"z": -3.6681874585,
				"element": "C" 
			},
			{
				"x": 0.8805630854,
				"y": 2.3544700554,
				"z": -2.07548015,
				"element": "C" 
			},
			{
				"x": 1.1225247587,
				"y": -0.1760102201,
				"z": -2.1799690029,
				"element": "C" 
			},
			{
				"x": 0.2047361617,
				"y": -0.4030701931,
				"z": -0.9838309936,
				"element": "C" 
			},
			{
				"x": -0.9736782949,
				"y": -0.7102642856,
				"z": -1.1081426081,
				"element": "O" 
			},
			{
				"x": 0.8157366683,
				"y": -0.2256082416,
				"z": 0.2443627652,
				"element": "N" 
			},
			{
				"x": 0.2599637922,
				"y": -0.3376235695,
				"z": 1.5333646541,
				"element": "C" 
			},
			{
				"x": -1.0730510726,
				"y": -0.6885767314,
				"z": 1.7717150137,
				"element": "C" 
			},
			{
				"x": -1.5763562988,
				"y": -0.7778523105,
				"z": 3.0808694577,
				"element": "C" 
			},
			{
				"x": -3.0222251343,
				"y": -1.1191583256,
				"z": 3.2573382752,
				"element": "C" 
			},
			{
				"x": -3.5614164308,
				"y": -1.6418279187,
				"z": 2.1258931669,
				"element": "O" 
			},
			{
				"x": -3.6816147064,
				"y": -0.9566697488,
				"z": 4.2610041076,
				"element": "O" 
			},
			{
				"x": -0.7172252118,
				"y": -0.5193654647,
				"z": 4.1653824656,
				"element": "C" 
			},
			{
				"x": -1.2092150611,
				"y": -0.6332646759,
				"z": 5.8405530119,
				"element": "Cl" 
			},
			{
				"x": 0.6159619532,
				"y": -0.1795293993,
				"z": 3.92610242,
				"element": "C" 
			},
			{
				"x": 1.0994285414,
				"y": -0.0845130226,
				"z": 2.6288567681,
				"element": "C" 
			},
			{
				"x": 1.7327292461,
				"y": 2.127319365,
				"z": -4.7042415023,
				"element": "H" 
			},
			{
				"x": 1.9146843034,
				"y": 0.3679576784,
				"z": -4.7402974395,
				"element": "H" 
			},
			{
				"x": 2.9096369751,
				"y": 1.3402716281,
				"z": -3.6420208161,
				"element": "H" 
			},
			{
				"x": -1.3562245866,
				"y": 0.9015810081,
				"z": -2.9335521322,
				"element": "H" 
			},
			{
				"x": -0.757227235,
				"y": 1.9451367565,
				"z": -4.2421784644,
				"element": "H" 
			},
			{
				"x": -0.6050547582,
				"y": 0.1848305299,
				"z": -4.3603489581,
				"element": "H" 
			},
			{
				"x": 0.1005456703,
				"y": 2.3237275699,
				"z": -1.3077239148,
				"element": "H" 
			},
			{
				"x": 1.8514805952,
				"y": 2.4357383755,
				"z": -1.5713032995,
				"element": "H" 
			},
			{
				"x": 0.7352079837,
				"y": 3.271508093,
				"z": -2.6561780969,
				"element": "H" 
			},
			{
				"x": 2.1732966251,
				"y": -0.159068328,
				"z": -1.8633722872,
				"element": "H" 
			},
			{
				"x": 0.9987549088,
				"y": -1.0434818024,
				"z": -2.8373691299,
				"element": "H" 
			},
			{
				"x": 1.7910173519,
				"y": 0.0332978856,
				"z": 0.2212450381,
				"element": "H" 
			},
			{
				"x": -1.7246192635,
				"y": -0.8886713949,
				"z": 0.9352262129,
				"element": "H" 
			},
			{
				"x": -4.4978730712,
				"y": -1.7943699202,
				"z": 2.3329354883,
				"element": "H" 
			},
			{
				"x": 1.2724588795,
				"y": 0.0100385068,
				"z": 4.7675759339,
				"element": "H" 
			},
			{
				"x": 2.1400686958,
				"y": 0.1873161506,
				"z": 2.4677378241,
				"element": "H" 
			}
		],
		 "valence_orbital": [ 
			{
				"type": "occ",
				"energy": -0.30026,
				"method": "rhf"
			},
			{
				"type": "occ",
				"energy": -0.27424,
				"method": "rhf"
			},
			{
				"type": "occ",
				"energy": -0.2661,
				"method": "rhf"
			},
			{
				"type": "occ",
				"energy": -0.25902,
				"method": "rhf"
			},
			{
				"type": "occ",
				"energy": -0.22944,
				"method": "rhf"
			},
			{
				"type": "unocc",
				"energy": -0.05432,
				"method": "rhf"
			},
			{
				"type": "unocc",
				"energy": -0.02722,
				"method": "rhf"
			},
			{
				"type": "unocc",
				"energy": 0.01871,
				"method": "rhf"
			},
			{
				"type": "unocc",
				"energy": 0.03121,
				"method": "rhf"
			},
			{
				"type": "unocc",
				"energy": 0.04904,
				"method": "rhf"
			}
		],
		"cosmo_sigma_profile": { 
			"-0.025": 0.0,
			"-0.024": 0.0,
			"-0.023": 0.0,
			"-0.022": 0.0,
			"-0.021": 0.0,
			"-0.02": 0.0,
			"-0.019": 0.164594926263,
			"-0.018": 0.73925625985,
			"-0.017": 0.981652104863,
			"-0.016": 1.00103773695,
			"-0.015": 2.25360650225,
			"-0.014": 2.14143157227,
			"-0.013": 1.47400691056,
			"-0.012": 1.94254806901,
			"-0.011": 3.11173743208,
			"-0.01": 2.40070926071,
			"-0.009": 2.52824956362,
			"-0.008": 4.42794979997,
			"-0.007": 6.22255009999,
			"-0.006": 5.27662385481,
			"-0.005": 6.84655519674,
			"-0.004": 8.98038881285,
			"-0.003": 24.9492282631,
			"-0.002": 31.4481138702,
			"-0.001": 27.1554291926,
			"0.0": 30.8720795674,
			"0.001": 43.1067174942,
			"0.002": 30.0023090972,
			"0.003": 11.716202977,
			"0.004": 13.204576092,
			"0.005": 8.02223715541,
			"0.006": 5.20487350545,
			"0.007": 5.37420334784,
			"0.008": 4.37670770548,
			"0.009": 3.47733614453,
			"0.01": 4.57050243017,
			"0.011": 5.81911461367,
			"0.012": 6.27763978131,
			"0.013": 1.84505562322,
			"0.014": 0.372858519423,
			"0.015": 0.0,
			"0.016": 0.0,
			"0.017": 0.0,
			"0.018": 0.0,
			"0.019": 0.0,
			"0.02": 0.0,
			"0.021": 0.0,
			"0.022": 0.0,
			"0.023": 0.0,
			"0.024": 0.0,
			"0.025": 0.0
		}
	}
}
