{
	 "smiles": "OCC1C2CC(C=C2)C1CO", 
	 "Tm": 358.35, 
	 "num_atms": 25, 
	 "gaussian": { 
		 "optdone": 1, 
		 "sigma_profile": "yes", 
		 "theory": "DFT", 
		 "functional": "B3LYP", 
		 "basiset": "6-31G**", 
		 "properties": { 
			 "R2extent": 1977.1537, 
			 "electric_dipole_moment_norm": 1.86856167412, 
			 "electric_quadrupole_moment_norm": 10.7445927745, 
			 "total_energy": -501.779878343, 
			 "HOMO_LUMO_gap": 0.25205, 
			 "cosmo_polarized_energy": -11.64, 
			 "cosmo_cavitation_energy": 25.37, 
			 "cosmo_dispersion_energy": -18.81, 
			 "cosmo_repulsion_energy": 1.54, 
			 "cosmo_total_nonelectrostatic_energy": 8.1, 
			 "SMD_solvation_energy": 3.83 
		},
		"coords": [
			{
				"x": -1.1630957612,
				"y": 1.0579975316,
				"z": -2.1587971877,
				"element": "O" 
			},
			{
				"x": -1.2594306244,
				"y": 1.4555362431,
				"z": -0.797363605,
				"element": "C" 
			},
			{
				"x": -0.6272640036,
				"y": 0.4557547597,
				"z": 0.1752778541,
				"element": "C" 
			},
			{
				"x": 0.9506659431,
				"y": 0.4056537778,
				"z": 0.1182844514,
				"element": "C" 
			},
			{
				"x": 1.3344808439,
				"y": 1.4803138973,
				"z": 1.1634250326,
				"element": "C" 
			},
			{
				"x": 0.5513329224,
				"y": 0.7822360506,
				"z": 2.3014038879,
				"element": "C" 
			},
			{
				"x": 1.1001386325,
				"y": -0.6332838312,
				"z": 2.1718300848,
				"element": "C" 
			},
			{
				"x": 1.3535769946,
				"y": -0.8512603782,
				"z": 0.8751372772,
				"element": "C" 
			},
			{
				"x": -0.8887253419,
				"y": 0.8254387703,
				"z": 1.6714120445,
				"element": "C" 
			},
			{
				"x": -1.9839735169,
				"y": 0.0270370787,
				"z": 2.3715402506,
				"element": "C" 
			},
			{
				"x": -1.6927059536,
				"y": -1.3637240165,
				"z": 2.3461421283,
				"element": "O" 
			},
			{
				"x": -0.2256604977,
				"y": 1.0076374961,
				"z": -2.3842141896,
				"element": "H" 
			},
			{
				"x": -0.8286117382,
				"y": 2.4600716121,
				"z": -0.6445038059,
				"element": "H" 
			},
			{
				"x": -2.3337737122,
				"y": 1.5374531165,
				"z": -0.5944197321,
				"element": "H" 
			},
			{
				"x": -1.0357427208,
				"y": -0.5333162051,
				"z": -0.0521647388,
				"element": "H" 
			},
			{
				"x": 1.3757043883,
				"y": 0.5119743323,
				"z": -0.8848685852,
				"element": "H" 
			},
			{
				"x": 2.4113011752,
				"y": 1.5214703446,
				"z": 1.3485086393,
				"element": "H" 
			},
			{
				"x": 0.9653019248,
				"y": 2.4860511933,
				"z": 0.9304994711,
				"element": "H" 
			},
			{
				"x": 0.6066969364,
				"y": 1.2333743971,
				"z": 3.2957370873,
				"element": "H" 
			},
			{
				"x": 1.1517565391,
				"y": -1.3517445189,
				"z": 2.9806830637,
				"element": "H" 
			},
			{
				"x": 1.6483971544,
				"y": -1.7857741922,
				"z": 0.4102807924,
				"element": "H" 
			},
			{
				"x": -1.2227379173,
				"y": 1.8728825982,
				"z": 1.722287069,
				"element": "H" 
			},
			{
				"x": -2.9433834665,
				"y": 0.2353814839,
				"z": 1.8683194728,
				"element": "H" 
			},
			{
				"x": -2.080601766,
				"y": 0.3910526216,
				"z": 3.4085895352,
				"element": "H" 
			},
			{
				"x": -2.4362464341,
				"y": -1.8295141628,
				"z": 2.7478737023,
				"element": "H" 
			}
		],
		 "valence_orbital": [ 
			{
				"type": "occ",
				"energy": -0.30918,
				"method": "rhf"
			},
			{
				"type": "occ",
				"energy": -0.29807,
				"method": "rhf"
			},
			{
				"type": "occ",
				"energy": -0.26663,
				"method": "rhf"
			},
			{
				"type": "occ",
				"energy": -0.25664,
				"method": "rhf"
			},
			{
				"type": "occ",
				"energy": -0.22368,
				"method": "rhf"
			},
			{
				"type": "unocc",
				"energy": 0.02837,
				"method": "rhf"
			},
			{
				"type": "unocc",
				"energy": 0.07179,
				"method": "rhf"
			},
			{
				"type": "unocc",
				"energy": 0.07446,
				"method": "rhf"
			},
			{
				"type": "unocc",
				"energy": 0.10294,
				"method": "rhf"
			},
			{
				"type": "unocc",
				"energy": 0.12434,
				"method": "rhf"
			}
		],
		"cosmo_sigma_profile": { 
			"-0.025": 0.0,
			"-0.024": 0.0,
			"-0.023": 0.0,
			"-0.022": 0.0,
			"-0.021": 0.0,
			"-0.02": 0.0,
			"-0.019": 0.0,
			"-0.018": 0.0,
			"-0.017": 0.0,
			"-0.016": 0.0193072801744,
			"-0.015": 1.4883728938,
			"-0.014": 1.22790915536,
			"-0.013": 1.88979684722,
			"-0.012": 2.62830234497,
			"-0.011": 1.99407639393,
			"-0.01": 1.48809648052,
			"-0.009": 1.07582103109,
			"-0.008": 1.7898203734,
			"-0.007": 2.51871748856,
			"-0.006": 2.73369833713,
			"-0.005": 3.69902411358,
			"-0.004": 9.55412298424,
			"-0.003": 28.2033709118,
			"-0.002": 25.5986501918,
			"-0.001": 20.6572642002,
			"0.0": 17.3893658456,
			"0.001": 16.081774523,
			"0.002": 8.80025214121,
			"0.003": 6.29190626392,
			"0.004": 5.96394761567,
			"0.005": 4.70738756122,
			"0.006": 3.00757043342,
			"0.007": 4.40668550678,
			"0.008": 3.40270718445,
			"0.009": 3.07091996999,
			"0.01": 2.55155661285,
			"0.011": 3.53302129379,
			"0.012": 2.27030469513,
			"0.013": 2.85911956906,
			"0.014": 3.34155089396,
			"0.015": 1.73905556419,
			"0.016": 0.0,
			"0.017": 0.0,
			"0.018": 0.0,
			"0.019": 0.0,
			"0.02": 0.0,
			"0.021": 0.0,
			"0.022": 0.0,
			"0.023": 0.0,
			"0.024": 0.0,
			"0.025": 0.0
		}
	}
}
