{
	 "smiles": "C(CP(C1=CC=CC=C1)C1=CC=CC=C1)P(C1=CC=CC=C1)C1=CC=CC=C1", 
	 "Tm": 414.15, 
	 "num_atms": 52, 
	 "gaussian": { 
		 "optdone": 1, 
		 "sigma_profile": "yes", 
		 "theory": "DFT", 
		 "functional": "B3LYP", 
		 "basiset": "6-31G**", 
		 "properties": { 
			 "R2extent": 13165.0991, 
			 "electric_dipole_moment_norm": 1.92088178449, 
			 "electric_quadrupole_moment_norm": 13.2722757672, 
			 "total_energy": -1687.93354355, 
			 "HOMO_LUMO_gap": 0.1887, 
			 "cosmo_polarized_energy": -12.1, 
			 "cosmo_cavitation_energy": 57.08, 
			 "cosmo_dispersion_energy": -37.58, 
			 "cosmo_repulsion_energy": 3.1, 
			 "cosmo_total_nonelectrostatic_energy": 22.6, 
			 "SMD_solvation_energy": 9.13 
		},
		"coords": [
			{
				"x": 1.5850923302,
				"y": -0.0448881233,
				"z": -0.2708512967,
				"element": "C" 
			},
			{
				"x": 1.73463601,
				"y": -1.2182342446,
				"z": 0.7049511851,
				"element": "C" 
			},
			{
				"x": 1.5605715174,
				"y": -0.8928978752,
				"z": 2.5521178946,
				"element": "P" 
			},
			{
				"x": 2.6969060428,
				"y": 0.5535237954,
				"z": 2.7898289109,
				"element": "C" 
			},
			{
				"x": 2.3763845782,
				"y": 1.8895687832,
				"z": 2.4934625627,
				"element": "C" 
			},
			{
				"x": 3.3141360671,
				"y": 2.9062136582,
				"z": 2.6802148732,
				"element": "C" 
			},
			{
				"x": 4.591163676,
				"y": 2.6060644594,
				"z": 3.1602229436,
				"element": "C" 
			},
			{
				"x": 4.9234424803,
				"y": 1.2846607431,
				"z": 3.4611165711,
				"element": "C" 
			},
			{
				"x": 3.9806518,
				"y": 0.2701271074,
				"z": 3.284402172,
				"element": "C" 
			},
			{
				"x": -0.1224332548,
				"y": -0.1409338079,
				"z": 2.7040201411,
				"element": "C" 
			},
			{
				"x": -1.1726869368,
				"y": -0.47133447,
				"z": 1.8309012643,
				"element": "C" 
			},
			{
				"x": -2.4686278093,
				"y": -0.0018925483,
				"z": 2.0572609757,
				"element": "C" 
			},
			{
				"x": -2.7447906827,
				"y": 0.8038068434,
				"z": 3.1616824565,
				"element": "C" 
			},
			{
				"x": -1.713569577,
				"y": 1.1315902054,
				"z": 4.0449147451,
				"element": "C" 
			},
			{
				"x": -0.4206505739,
				"y": 0.6598023567,
				"z": 3.8221566162,
				"element": "C" 
			},
			{
				"x": 1.7750401467,
				"y": -0.6077097458,
				"z": -2.0550883876,
				"element": "P" 
			},
			{
				"x": 1.3982416524,
				"y": 0.9432610654,
				"z": -2.995442534,
				"element": "C" 
			},
			{
				"x": 1.2623688527,
				"y": 0.8389524073,
				"z": -4.3922756137,
				"element": "C" 
			},
			{
				"x": 1.0420152178,
				"y": 1.9668619627,
				"z": -5.1794329161,
				"element": "C" 
			},
			{
				"x": 0.9690554286,
				"y": 3.2315580573,
				"z": -4.5888341468,
				"element": "C" 
			},
			{
				"x": 1.1148477937,
				"y": 3.3531487227,
				"z": -3.207861848,
				"element": "C" 
			},
			{
				"x": 1.3254152057,
				"y": 2.2196973386,
				"z": -2.4168937772,
				"element": "C" 
			},
			{
				"x": 0.1926770601,
				"y": -1.5574793916,
				"z": -2.2702214644,
				"element": "C" 
			},
			{
				"x": -1.0779718411,
				"y": -0.9569600521,
				"z": -2.2845496028,
				"element": "C" 
			},
			{
				"x": -2.2301604986,
				"y": -1.7321368656,
				"z": -2.4162989908,
				"element": "C" 
			},
			{
				"x": -2.1323800615,
				"y": -3.1217983515,
				"z": -2.5346367489,
				"element": "C" 
			},
			{
				"x": -0.8777851841,
				"y": -3.7310313553,
				"z": -2.5252409871,
				"element": "C" 
			},
			{
				"x": 0.275875722,
				"y": -2.9524279197,
				"z": -2.3983785563,
				"element": "C" 
			},
			{
				"x": 0.6234297142,
				"y": 0.4598756471,
				"z": -0.1304008323,
				"element": "H" 
			},
			{
				"x": 2.3749509121,
				"y": 0.6888253847,
				"z": -0.0802672008,
				"element": "H" 
			},
			{
				"x": 2.7256303556,
				"y": -1.6747209066,
				"z": 0.5977974199,
				"element": "H" 
			},
			{
				"x": 1.0189145585,
				"y": -2.0159566732,
				"z": 0.4739941063,
				"element": "H" 
			},
			{
				"x": 1.3843971795,
				"y": 2.1370525389,
				"z": 2.1287345721,
				"element": "H" 
			},
			{
				"x": 3.0478707799,
				"y": 3.9340992112,
				"z": 2.4489114211,
				"element": "H" 
			},
			{
				"x": 5.3197447866,
				"y": 3.3988525155,
				"z": 3.3045092178,
				"element": "H" 
			},
			{
				"x": 5.9115501169,
				"y": 1.043772993,
				"z": 3.8431454708,
				"element": "H" 
			},
			{
				"x": 4.2391568014,
				"y": -0.7546259775,
				"z": 3.5395047365,
				"element": "H" 
			},
			{
				"x": -0.9922601994,
				"y": -1.0984338264,
				"z": 0.963471175,
				"element": "H" 
			},
			{
				"x": -3.2612784754,
				"y": -0.2677690418,
				"z": 1.363211264,
				"element": "H" 
			},
			{
				"x": -3.7526637221,
				"y": 1.1694153924,
				"z": 3.335869303,
				"element": "H" 
			},
			{
				"x": -1.9158676646,
				"y": 1.7539520051,
				"z": 4.9123907596,
				"element": "H" 
			},
			{
				"x": 0.3674635598,
				"y": 0.9210864302,
				"z": 4.5229594665,
				"element": "H" 
			},
			{
				"x": 1.3262830397,
				"y": -0.1376621398,
				"z": -4.8659965107,
				"element": "H" 
			},
			{
				"x": 0.9330538542,
				"y": 1.8604677848,
				"z": -6.2552597014,
				"element": "H" 
			},
			{
				"x": 0.8038483441,
				"y": 4.1129951505,
				"z": -5.2017735482,
				"element": "H" 
			},
			{
				"x": 1.061492083,
				"y": 4.3317868804,
				"z": -2.7384914902,
				"element": "H" 
			},
			{
				"x": 1.4311301029,
				"y": 2.3440909297,
				"z": -1.3443517199,
				"element": "H" 
			},
			{
				"x": -1.1635193381,
				"y": 0.1231566328,
				"z": -2.2049786411,
				"element": "H" 
			},
			{
				"x": -3.2052967179,
				"y": -1.252630459,
				"z": -2.4306802079,
				"element": "H" 
			},
			{
				"x": -3.0306093691,
				"y": -3.7239407022,
				"z": -2.6387949064,
				"element": "H" 
			},
			{
				"x": -0.7942313381,
				"y": -4.809877166,
				"z": -2.6226113456,
				"element": "H" 
			},
			{
				"x": 1.2524454746,
				"y": -3.4297253591,
				"z": -2.4038392499,
				"element": "H" 
			}
		],
		 "valence_orbital": [ 
			{
				"type": "occ",
				"energy": -0.25256,
				"method": "rhf"
			},
			{
				"type": "occ",
				"energy": -0.24892,
				"method": "rhf"
			},
			{
				"type": "occ",
				"energy": -0.24768,
				"method": "rhf"
			},
			{
				"type": "occ",
				"energy": -0.215,
				"method": "rhf"
			},
			{
				"type": "occ",
				"energy": -0.20841,
				"method": "rhf"
			},
			{
				"type": "unocc",
				"energy": -0.01971,
				"method": "rhf"
			},
			{
				"type": "unocc",
				"energy": -0.01876,
				"method": "rhf"
			},
			{
				"type": "unocc",
				"energy": -0.012,
				"method": "rhf"
			},
			{
				"type": "unocc",
				"energy": -0.00864,
				"method": "rhf"
			},
			{
				"type": "unocc",
				"energy": -0.00726,
				"method": "rhf"
			}
		],
		"cosmo_sigma_profile": { 
			"-0.025": 0.0,
			"-0.024": 0.0,
			"-0.023": 0.0,
			"-0.022": 0.0,
			"-0.021": 0.0,
			"-0.02": 0.0,
			"-0.019": 0.0,
			"-0.018": 0.0,
			"-0.017": 0.0,
			"-0.016": 0.0,
			"-0.015": 0.0,
			"-0.014": 0.0,
			"-0.013": 0.0,
			"-0.012": 0.0,
			"-0.011": 0.0,
			"-0.01": 0.0,
			"-0.009": 0.0,
			"-0.008": 0.0,
			"-0.007": 0.00793991062126,
			"-0.006": 14.3986646002,
			"-0.005": 37.8240676924,
			"-0.004": 49.0883886917,
			"-0.003": 50.296084084,
			"-0.002": 39.3496451891,
			"-0.001": 39.2666840337,
			"0.0": 33.7773822327,
			"0.001": 30.4153487917,
			"0.002": 32.1391378214,
			"0.003": 31.0404779848,
			"0.004": 33.9400246275,
			"0.005": 35.086989069,
			"0.006": 19.3377426447,
			"0.007": 1.75337357306,
			"0.008": 1.53387440444,
			"0.009": 2.37099678639,
			"0.01": 0.879194029875,
			"0.011": 1.35599619673,
			"0.012": 1.73227105107,
			"0.013": 1.25575530426,
			"0.014": 1.00836143377,
			"0.015": 0.13561673504,
			"0.016": 0.0,
			"0.017": 0.0,
			"0.018": 0.0,
			"0.019": 0.0,
			"0.02": 0.0,
			"0.021": 0.0,
			"0.022": 0.0,
			"0.023": 0.0,
			"0.024": 0.0,
			"0.025": 0.0
		}
	}
}
