{
	 "smiles": "OCCOC(=O)C1=C(O)C=CC=C1", 
	 "Tm": 310.15, 
	 "num_atms": 23, 
	 "gaussian": { 
		 "optdone": 1, 
		 "sigma_profile": "yes", 
		 "theory": "DFT", 
		 "functional": "B3LYP", 
		 "basiset": "6-31G**", 
		 "properties": { 
			 "R2extent": 3344.9813, 
			 "electric_dipole_moment_norm": 2.03369945174, 
			 "electric_quadrupole_moment_norm": 14.9002988849, 
			 "total_energy": -649.891671649, 
			 "HOMO_LUMO_gap": 0.17554, 
			 "cosmo_polarized_energy": -10.8, 
			 "cosmo_cavitation_energy": 27.17, 
			 "cosmo_dispersion_energy": -20.13, 
			 "cosmo_repulsion_energy": 1.61, 
			 "cosmo_total_nonelectrostatic_energy": 8.65, 
			 "SMD_solvation_energy": 5.83 
		},
		"coords": [
			{
				"x": -3.0967204474,
				"y": -1.5349239071,
				"z": -0.2468309569,
				"element": "O" 
			},
			{
				"x": -2.5977051836,
				"y": -0.6550484098,
				"z": -1.2363580211,
				"element": "C" 
			},
			{
				"x": -1.0895725959,
				"y": -0.7450651246,
				"z": -1.3799472476,
				"element": "C" 
			},
			{
				"x": -0.535594901,
				"y": -0.2998953872,
				"z": -0.1168240978,
				"element": "O" 
			},
			{
				"x": 0.8030045383,
				"y": -0.3694027663,
				"z": 0.0101182766,
				"element": "C" 
			},
			{
				"x": 1.5166724117,
				"y": -0.788413679,
				"z": -0.9037909783,
				"element": "O" 
			},
			{
				"x": 1.315215953,
				"y": 0.0915832506,
				"z": 1.3070180361,
				"element": "C" 
			},
			{
				"x": 2.7149713261,
				"y": 0.0316972623,
				"z": 1.5421765722,
				"element": "C" 
			},
			{
				"x": 3.5871870265,
				"y": -0.4236475489,
				"z": 0.6304565898,
				"element": "O" 
			},
			{
				"x": 3.2208996028,
				"y": 0.4644895706,
				"z": 2.7799352996,
				"element": "C" 
			},
			{
				"x": 2.3618452249,
				"y": 0.9470249212,
				"z": 3.7556290769,
				"element": "C" 
			},
			{
				"x": 0.9769537335,
				"y": 1.0146076556,
				"z": 3.5310013135,
				"element": "C" 
			},
			{
				"x": 0.4664335951,
				"y": 0.5889296945,
				"z": 2.3155955427,
				"element": "C" 
			},
			{
				"x": -2.6503918801,
				"y": -1.309891051,
				"z": 0.5805033196,
				"element": "H" 
			},
			{
				"x": -3.0586887943,
				"y": -0.9505160137,
				"z": -2.1845178745,
				"element": "H" 
			},
			{
				"x": -2.8837795238,
				"y": 0.3900498588,
				"z": -1.0378463468,
				"element": "H" 
			},
			{
				"x": -0.7144513462,
				"y": -0.1059133284,
				"z": -2.1857103858,
				"element": "H" 
			},
			{
				"x": -0.7680859185,
				"y": -1.7728847911,
				"z": -1.5674541944,
				"element": "H" 
			},
			{
				"x": 3.065409126,
				"y": -0.6744990179,
				"z": -0.1689533944,
				"element": "H" 
			},
			{
				"x": 4.2922336442,
				"y": 0.4089380448,
				"z": 2.9402882203,
				"element": "H" 
			},
			{
				"x": 2.7704432497,
				"y": 1.278198902,
				"z": 4.7063549019,
				"element": "H" 
			},
			{
				"x": 0.3141783992,
				"y": 1.3968057689,
				"z": 4.300262756,
				"element": "H" 
			},
			{
				"x": -0.5987572401,
				"y": 0.6370760958,
				"z": 2.1196935924,
				"element": "H" 
			}
		],
		 "valence_orbital": [ 
			{
				"type": "occ",
				"energy": -0.32027,
				"method": "rhf"
			},
			{
				"type": "occ",
				"energy": -0.29163,
				"method": "rhf"
			},
			{
				"type": "occ",
				"energy": -0.27929,
				"method": "rhf"
			},
			{
				"type": "occ",
				"energy": -0.26644,
				"method": "rhf"
			},
			{
				"type": "occ",
				"energy": -0.22979,
				"method": "rhf"
			},
			{
				"type": "unocc",
				"energy": -0.05425,
				"method": "rhf"
			},
			{
				"type": "unocc",
				"energy": 0.00155,
				"method": "rhf"
			},
			{
				"type": "unocc",
				"energy": 0.04623,
				"method": "rhf"
			},
			{
				"type": "unocc",
				"energy": 0.06659,
				"method": "rhf"
			},
			{
				"type": "unocc",
				"energy": 0.09763,
				"method": "rhf"
			}
		],
		"cosmo_sigma_profile": { 
			"-0.025": 0.0,
			"-0.024": 0.0,
			"-0.023": 0.0,
			"-0.022": 0.0,
			"-0.021": 0.0,
			"-0.02": 0.0,
			"-0.019": 0.0,
			"-0.018": 0.0,
			"-0.017": 0.0,
			"-0.016": 0.0,
			"-0.015": 0.0,
			"-0.014": 0.195871825233,
			"-0.013": 0.919569878012,
			"-0.012": 0.590556587209,
			"-0.011": 0.799306491884,
			"-0.01": 0.90730641294,
			"-0.009": 0.462593526417,
			"-0.008": 0.408175400724,
			"-0.007": 4.4851978044,
			"-0.006": 16.6672190064,
			"-0.005": 19.1038344577,
			"-0.004": 19.8213612737,
			"-0.003": 18.9360477186,
			"-0.002": 16.5283629648,
			"-0.001": 13.0884645936,
			"0.0": 11.8976889572,
			"0.001": 12.9240477029,
			"0.002": 13.4035081295,
			"0.003": 14.8783991795,
			"0.004": 13.7500403624,
			"0.005": 5.95426656405,
			"0.006": 3.67443033437,
			"0.007": 3.42882811716,
			"0.008": 3.82016652361,
			"0.009": 4.48393637796,
			"0.01": 4.54488417623,
			"0.011": 4.1283600841,
			"0.012": 1.6322870789,
			"0.013": 2.13007375974,
			"0.014": 2.13858770667,
			"0.015": 0.104058664042,
			"0.016": 0.0,
			"0.017": 0.0,
			"0.018": 0.0,
			"0.019": 0.0,
			"0.02": 0.0,
			"0.021": 0.0,
			"0.022": 0.0,
			"0.023": 0.0,
			"0.024": 0.0,
			"0.025": 0.0
		}
	}
}
