{
	 "smiles": "NC1=NC(=CC(O)=N1)C(F)(F)F", 
	 "Tm": 563.15, 
	 "num_atms": 16, 
	 "gaussian": { 
		 "optdone": 1, 
		 "sigma_profile": "yes", 
		 "theory": "DFT", 
		 "functional": "B3LYP", 
		 "basiset": "6-31G**", 
		 "properties": { 
			 "R2extent": 2155.7053, 
			 "electric_dipole_moment_norm": 3.80787726299, 
			 "electric_quadrupole_moment_norm": 10.1731488419, 
			 "total_energy": -731.96714907, 
			 "HOMO_LUMO_gap": 0.19772, 
			 "cosmo_polarized_energy": -11.01, 
			 "cosmo_cavitation_energy": 22.65, 
			 "cosmo_dispersion_energy": -16.62, 
			 "cosmo_repulsion_energy": 1.3, 
			 "cosmo_total_nonelectrostatic_energy": 7.32, 
			 "SMD_solvation_energy": 3.04 
		},
		"coords": [
			{
				"x": -0.5383760261,
				"y": -2.9702839168,
				"z": -2.1253389531,
				"element": "N" 
			},
			{
				"x": 0.0172764541,
				"y": -1.9052867807,
				"z": -1.4904986555,
				"element": "C" 
			},
			{
				"x": -0.5859107634,
				"y": -1.4796150623,
				"z": -0.3685981802,
				"element": "N" 
			},
			{
				"x": -0.0291622066,
				"y": -0.4110634359,
				"z": 0.2084983213,
				"element": "C" 
			},
			{
				"x": 1.0900764596,
				"y": 0.2471283702,
				"z": -0.2716964006,
				"element": "C" 
			},
			{
				"x": 1.6277993307,
				"y": -0.3036790923,
				"z": -1.4476135501,
				"element": "C" 
			},
			{
				"x": 2.7196264495,
				"y": 0.261708407,
				"z": -1.9873124489,
				"element": "O" 
			},
			{
				"x": 1.1154312954,
				"y": -1.3621852809,
				"z": -2.0603410625,
				"element": "N" 
			},
			{
				"x": -0.7223281619,
				"y": 0.0562040297,
				"z": 1.4760393804,
				"element": "C" 
			},
			{
				"x": -0.1091020874,
				"y": 1.1370393617,
				"z": 2.0059233192,
				"element": "F" 
			},
			{
				"x": -0.7231151299,
				"y": -0.9114686545,
				"z": 2.4114185624,
				"element": "F" 
			},
			{
				"x": -2.0022385384,
				"y": 0.3919584533,
				"z": 1.2325677856,
				"element": "F" 
			},
			{
				"x": -0.0239251883,
				"y": -3.4107585495,
				"z": -2.8695533801,
				"element": "H" 
			},
			{
				"x": -1.2609846787,
				"y": -3.4812716759,
				"z": -1.6455391147,
				"element": "H" 
			},
			{
				"x": 1.5269327119,
				"y": 1.1094900394,
				"z": 0.2095912141,
				"element": "H" 
			},
			{
				"x": 2.9314000798,
				"y": -0.2538162125,
				"z": -2.7826468373,
				"element": "H" 
			}
		],
		 "valence_orbital": [ 
			{
				"type": "occ",
				"energy": -0.33419,
				"method": "rhf"
			},
			{
				"type": "occ",
				"energy": -0.32808,
				"method": "rhf"
			},
			{
				"type": "occ",
				"energy": -0.29022,
				"method": "rhf"
			},
			{
				"type": "occ",
				"energy": -0.27094,
				"method": "rhf"
			},
			{
				"type": "occ",
				"energy": -0.23849,
				"method": "rhf"
			},
			{
				"type": "unocc",
				"energy": -0.04077,
				"method": "rhf"
			},
			{
				"type": "unocc",
				"energy": -0.00326,
				"method": "rhf"
			},
			{
				"type": "unocc",
				"energy": 0.07457,
				"method": "rhf"
			},
			{
				"type": "unocc",
				"energy": 0.08372,
				"method": "rhf"
			},
			{
				"type": "unocc",
				"energy": 0.12725,
				"method": "rhf"
			}
		],
		"cosmo_sigma_profile": { 
			"-0.025": 0.0,
			"-0.024": 0.0,
			"-0.023": 0.0,
			"-0.022": 0.0,
			"-0.021": 0.0,
			"-0.02": 0.0,
			"-0.019": 0.0,
			"-0.018": 0.462440865796,
			"-0.017": 0.807575758527,
			"-0.016": 0.837407125147,
			"-0.015": 0.86846136108,
			"-0.014": 2.61956880852,
			"-0.013": 3.6946226612,
			"-0.012": 2.05234016984,
			"-0.011": 1.66144619104,
			"-0.01": 3.17997752041,
			"-0.009": 2.30031397849,
			"-0.008": 3.13883125242,
			"-0.007": 3.58665820699,
			"-0.006": 3.87164365995,
			"-0.005": 2.79398943487,
			"-0.004": 3.64235518517,
			"-0.003": 6.81321388046,
			"-0.002": 9.84759842689,
			"-0.001": 14.4100043798,
			"0.0": 14.5298208617,
			"0.001": 13.8340097773,
			"0.002": 26.7317492522,
			"0.003": 23.8037969267,
			"0.004": 7.56600815745,
			"0.005": 5.01307789503,
			"0.006": 5.10183890708,
			"0.007": 4.97548100314,
			"0.008": 4.73259774944,
			"0.009": 3.29969851849,
			"0.01": 2.74777228905,
			"0.011": 1.55341769422,
			"0.012": 0.619178418374,
			"0.013": 0.211851755077,
			"0.014": 0.0,
			"0.015": 0.0,
			"0.016": 0.0,
			"0.017": 0.0,
			"0.018": 0.0,
			"0.019": 0.0,
			"0.02": 0.0,
			"0.021": 0.0,
			"0.022": 0.0,
			"0.023": 0.0,
			"0.024": 0.0,
			"0.025": 0.0
		}
	}
}
