{
	 "smiles": "CCOCCN(C(=O)CCl)C(=C(C)C)C1=CC=CC=C1", 
	 "Tm": 310.65, 
	 "num_atms": 42, 
	 "gaussian": { 
		 "optdone": 1, 
		 "sigma_profile": "yes", 
		 "theory": "DFT", 
		 "functional": "B3LYP", 
		 "basiset": "6-31G**", 
		 "properties": { 
			 "R2extent": 7060.6729, 
			 "electric_dipole_moment_norm": 5.32603691876, 
			 "electric_quadrupole_moment_norm": 10.9692403164, 
			 "total_energy": -1288.33755765, 
			 "HOMO_LUMO_gap": 0.20369, 
			 "cosmo_polarized_energy": -17.05, 
			 "cosmo_cavitation_energy": 45.44, 
			 "cosmo_dispersion_energy": -29.12, 
			 "cosmo_repulsion_energy": 2.33, 
			 "cosmo_total_nonelectrostatic_energy": 18.65, 
			 "SMD_solvation_energy": 8.29 
		},
		"coords": [
			{
				"x": -2.6240850744,
				"y": 2.1084573684,
				"z": -3.8392358874,
				"element": "C" 
			},
			{
				"x": -3.1328693035,
				"y": 1.3800033244,
				"z": -2.5983630729,
				"element": "C" 
			},
			{
				"x": -2.7915361896,
				"y": 2.0574299058,
				"z": -1.3899171882,
				"element": "O" 
			},
			{
				"x": -1.4904285862,
				"y": 1.7839256256,
				"z": -0.896045219,
				"element": "C" 
			},
			{
				"x": -1.5693905717,
				"y": 0.6862180342,
				"z": 0.1820746457,
				"element": "C" 
			},
			{
				"x": -0.2937345834,
				"y": 0.3838493425,
				"z": 0.8476230594,
				"element": "N" 
			},
			{
				"x": 0.1893167273,
				"y": 1.0716853306,
				"z": 1.9442983606,
				"element": "C" 
			},
			{
				"x": 1.3002841639,
				"y": 0.8804291887,
				"z": 2.4079258183,
				"element": "O" 
			},
			{
				"x": -0.7969675624,
				"y": 2.0790635677,
				"z": 2.5688052669,
				"element": "C" 
			},
			{
				"x": -0.0563532796,
				"y": 3.0095046557,
				"z": 3.9079061772,
				"element": "Cl" 
			},
			{
				"x": 0.5420038274,
				"y": -0.6422049236,
				"z": 0.2537666926,
				"element": "C" 
			},
			{
				"x": 0.6451591638,
				"y": -1.8502119816,
				"z": 0.843414326,
				"element": "C" 
			},
			{
				"x": 1.5728850766,
				"y": -2.9298593248,
				"z": 0.3451968094,
				"element": "C" 
			},
			{
				"x": -0.0923421047,
				"y": -2.2035246706,
				"z": 2.1095581746,
				"element": "C" 
			},
			{
				"x": 1.2530923587,
				"y": -0.2313441664,
				"z": -0.9926644392,
				"element": "C" 
			},
			{
				"x": 1.0556312301,
				"y": -0.906863381,
				"z": -2.2074359756,
				"element": "C" 
			},
			{
				"x": 1.7035204538,
				"y": -0.48843846,
				"z": -3.371848181,
				"element": "C" 
			},
			{
				"x": 2.5573067141,
				"y": 0.614900904,
				"z": -3.3396158412,
				"element": "C" 
			},
			{
				"x": 2.7621852675,
				"y": 1.2953139909,
				"z": -2.1358156062,
				"element": "C" 
			},
			{
				"x": 2.1149613973,
				"y": 0.8799514424,
				"z": -0.9733255476,
				"element": "C" 
			},
			{
				"x": -1.5303686778,
				"y": 2.1519973871,
				"z": -3.8588607481,
				"element": "H" 
			},
			{
				"x": -2.9550085384,
				"y": 1.5929554532,
				"z": -4.7476078864,
				"element": "H" 
			},
			{
				"x": -3.0082180198,
				"y": 3.13241583,
				"z": -3.8619854491,
				"element": "H" 
			},
			{
				"x": -4.2269381683,
				"y": 1.3313134271,
				"z": -2.6102456977,
				"element": "H" 
			},
			{
				"x": -2.7604093144,
				"y": 0.3441795343,
				"z": -2.581226682,
				"element": "H" 
			},
			{
				"x": -1.0986700177,
				"y": 2.7113039169,
				"z": -0.4610190108,
				"element": "H" 
			},
			{
				"x": -0.8014948072,
				"y": 1.4860399674,
				"z": -1.6940323536,
				"element": "H" 
			},
			{
				"x": -2.3225366641,
				"y": 0.981470931,
				"z": 0.9178876229,
				"element": "H" 
			},
			{
				"x": -1.9300506848,
				"y": -0.2424891525,
				"z": -0.2693832725,
				"element": "H" 
			},
			{
				"x": -1.6617358775,
				"y": 1.5530655126,
				"z": 2.9809161016,
				"element": "H" 
			},
			{
				"x": -1.1555992766,
				"y": 2.8021475679,
				"z": 1.8353995494,
				"element": "H" 
			},
			{
				"x": 2.221935959,
				"y": -3.2624559304,
				"z": 1.1652310834,
				"element": "H" 
			},
			{
				"x": 1.0067903098,
				"y": -3.8126849224,
				"z": 0.0205655335,
				"element": "H" 
			},
			{
				"x": 2.2057177954,
				"y": -2.6038212731,
				"z": -0.4800752956,
				"element": "H" 
			},
			{
				"x": -0.4630935196,
				"y": -3.2341025572,
				"z": 2.06453866,
				"element": "H" 
			},
			{
				"x": 0.587513128,
				"y": -2.1419260579,
				"z": 2.9686236042,
				"element": "H" 
			},
			{
				"x": -0.9356071988,
				"y": -1.5393778207,
				"z": 2.3052359738,
				"element": "H" 
			},
			{
				"x": 0.3818816199,
				"y": -1.7587009301,
				"z": -2.2377180957,
				"element": "H" 
			},
			{
				"x": 1.535961368,
				"y": -1.0217061014,
				"z": -4.3035396862,
				"element": "H" 
			},
			{
				"x": 3.0608589099,
				"y": 0.9423334985,
				"z": -4.2446681692,
				"element": "H" 
			},
			{
				"x": 3.4330640133,
				"y": 2.1491687039,
				"z": -2.1016361484,
				"element": "H" 
			},
			{
				"x": 2.2878685365,
				"y": 1.3954872429,
				"z": -0.0336020061,
				"element": "H" 
			}
		],
		 "valence_orbital": [ 
			{
				"type": "occ",
				"energy": -0.26936,
				"method": "rhf"
			},
			{
				"type": "occ",
				"energy": -0.25718,
				"method": "rhf"
			},
			{
				"type": "occ",
				"energy": -0.25546,
				"method": "rhf"
			},
			{
				"type": "occ",
				"energy": -0.24518,
				"method": "rhf"
			},
			{
				"type": "occ",
				"energy": -0.2256,
				"method": "rhf"
			},
			{
				"type": "unocc",
				"energy": -0.02191,
				"method": "rhf"
			},
			{
				"type": "unocc",
				"energy": -0.00695,
				"method": "rhf"
			},
			{
				"type": "unocc",
				"energy": 0.01201,
				"method": "rhf"
			},
			{
				"type": "unocc",
				"energy": 0.02313,
				"method": "rhf"
			},
			{
				"type": "unocc",
				"energy": 0.03602,
				"method": "rhf"
			}
		],
		"cosmo_sigma_profile": { 
			"-0.025": 0.0,
			"-0.024": 0.0,
			"-0.023": 0.0,
			"-0.022": 0.0,
			"-0.021": 0.0,
			"-0.02": 0.0,
			"-0.019": 0.0,
			"-0.018": 0.0,
			"-0.017": 0.0,
			"-0.016": 0.0,
			"-0.015": 0.0,
			"-0.014": 0.0,
			"-0.013": 0.0,
			"-0.012": 0.0,
			"-0.011": 0.0,
			"-0.01": 0.354134320576,
			"-0.009": 5.46640868882,
			"-0.008": 6.74707760526,
			"-0.007": 4.59241692391,
			"-0.006": 7.70638648546,
			"-0.005": 17.1399933468,
			"-0.004": 30.4041829807,
			"-0.003": 40.8133641933,
			"-0.002": 42.5715369682,
			"-0.001": 38.6650729758,
			"0.0": 34.2902175382,
			"0.001": 26.314053956,
			"0.002": 15.6520325566,
			"0.003": 15.5948249552,
			"0.004": 16.1091110881,
			"0.005": 14.0793078254,
			"0.006": 12.6223172083,
			"0.007": 4.31161435672,
			"0.008": 3.07100677947,
			"0.009": 3.39085883328,
			"0.01": 3.10487662175,
			"0.011": 3.20886358971,
			"0.012": 3.51047292387,
			"0.013": 5.26654825878,
			"0.014": 3.63551300786,
			"0.015": 0.685296698104,
			"0.016": 0.0,
			"0.017": 0.0,
			"0.018": 0.0,
			"0.019": 0.0,
			"0.02": 0.0,
			"0.021": 0.0,
			"0.022": 0.0,
			"0.023": 0.0,
			"0.024": 0.0,
			"0.025": 0.0
		}
	}
}
