{
	 "smiles": "CCCCC1=CC=C(C=C1)N=NC1=CC=C(OC)C=C1", 
	 "Tm": 312.65, 
	 "num_atms": 40, 
	 "gaussian": { 
		 "optdone": 1, 
		 "sigma_profile": "yes", 
		 "theory": "DFT", 
		 "functional": "B3LYP", 
		 "basiset": "6-31G**", 
		 "properties": { 
			 "R2extent": 8797.88, 
			 "electric_dipole_moment_norm": 4.83194376726, 
			 "electric_quadrupole_moment_norm": 15.8347182883, 
			 "total_energy": -844.53098525, 
			 "HOMO_LUMO_gap": 0.13274, 
			 "cosmo_polarized_energy": -11.65, 
			 "cosmo_cavitation_energy": 43.42, 
			 "cosmo_dispersion_energy": -29.83, 
			 "cosmo_repulsion_energy": 2.35, 
			 "cosmo_total_nonelectrostatic_energy": 15.94, 
			 "SMD_solvation_energy": 5.73 
		},
		"coords": [
			{
				"x": -3.1798625688,
				"y": -0.7229218187,
				"z": 4.5649537531,
				"element": "C" 
			},
			{
				"x": -3.2529945312,
				"y": -1.4983410773,
				"z": 3.2440396114,
				"element": "C" 
			},
			{
				"x": -2.3324753691,
				"y": -0.9613513285,
				"z": 2.136188965,
				"element": "C" 
			},
			{
				"x": -2.7053045448,
				"y": 0.4477489139,
				"z": 1.6274121618,
				"element": "C" 
			},
			{
				"x": -1.8117180119,
				"y": 0.9199220785,
				"z": 0.5017911836,
				"element": "C" 
			},
			{
				"x": -2.1239112266,
				"y": 0.6386938087,
				"z": -0.8363033777,
				"element": "C" 
			},
			{
				"x": -1.2973121262,
				"y": 1.0616676161,
				"z": -1.8739851093,
				"element": "C" 
			},
			{
				"x": -0.0989304184,
				"y": 1.7303128041,
				"z": -1.5913777252,
				"element": "C" 
			},
			{
				"x": 0.2209117073,
				"y": 2.0326447541,
				"z": -0.259195452,
				"element": "C" 
			},
			{
				"x": -0.6346000211,
				"y": 1.6365537565,
				"z": 0.7651922131,
				"element": "C" 
			},
			{
				"x": 0.6335252561,
				"y": 2.2572017684,
				"z": -2.7056743501,
				"element": "N" 
			},
			{
				"x": 1.8770369229,
				"y": 2.184666315,
				"z": -2.8288909552,
				"element": "N" 
			},
			{
				"x": 2.7284897133,
				"y": 1.3887458782,
				"z": -1.9984546428,
				"element": "C" 
			},
			{
				"x": 4.0053612311,
				"y": 1.9194845533,
				"z": -1.7448383941,
				"element": "C" 
			},
			{
				"x": 4.9491391866,
				"y": 1.1897319353,
				"z": -1.0402305355,
				"element": "C" 
			},
			{
				"x": 4.6582553173,
				"y": -0.1207273159,
				"z": -0.6262442031,
				"element": "C" 
			},
			{
				"x": 5.6560172638,
				"y": -0.7650558691,
				"z": 0.040242819,
				"element": "O" 
			},
			{
				"x": 5.4294645335,
				"y": -2.0985240704,
				"z": 0.4714936322,
				"element": "C" 
			},
			{
				"x": 3.4087815404,
				"y": -0.6815839758,
				"z": -0.9266907237,
				"element": "C" 
			},
			{
				"x": 2.4493201822,
				"y": 0.0754825796,
				"z": -1.5979891072,
				"element": "C" 
			},
			{
				"x": -2.1547281511,
				"y": -0.7013306823,
				"z": 4.9531025069,
				"element": "H" 
			},
			{
				"x": -3.8132484808,
				"y": -1.1864801993,
				"z": 5.3283285299,
				"element": "H" 
			},
			{
				"x": -3.5126745248,
				"y": 0.3139977925,
				"z": 4.4517069431,
				"element": "H" 
			},
			{
				"x": -2.99229276,
				"y": -2.5475861619,
				"z": 3.4327050021,
				"element": "H" 
			},
			{
				"x": -4.2897553149,
				"y": -1.5053303491,
				"z": 2.8802150215,
				"element": "H" 
			},
			{
				"x": -1.2939599422,
				"y": -0.9486614829,
				"z": 2.4944668494,
				"element": "H" 
			},
			{
				"x": -2.3513437329,
				"y": -1.6537907884,
				"z": 1.2849348581,
				"element": "H" 
			},
			{
				"x": -3.7494353978,
				"y": 0.4363823169,
				"z": 1.2886763378,
				"element": "H" 
			},
			{
				"x": -2.6539231799,
				"y": 1.1638388907,
				"z": 2.4554028534,
				"element": "H" 
			},
			{
				"x": -3.041686216,
				"y": 0.103921048,
				"z": -1.0694588947,
				"element": "H" 
			},
			{
				"x": -1.564607225,
				"y": 0.8815421573,
				"z": -2.9108540151,
				"element": "H" 
			},
			{
				"x": 1.1241148167,
				"y": 2.5896229369,
				"z": -0.0335936905,
				"element": "H" 
			},
			{
				"x": -0.385058347,
				"y": 1.8913508294,
				"z": 1.7926413586,
				"element": "H" 
			},
			{
				"x": 4.2326362275,
				"y": 2.9175481236,
				"z": -2.106297999,
				"element": "H" 
			},
			{
				"x": 5.9292329687,
				"y": 1.598251975,
				"z": -0.8176136674,
				"element": "H" 
			},
			{
				"x": 6.3439552106,
				"y": -2.4101121587,
				"z": 0.9781694441,
				"element": "H" 
			},
			{
				"x": 5.2391337335,
				"y": -2.77060486,
				"z": -0.3749678723,
				"element": "H" 
			},
			{
				"x": 4.5886797893,
				"y": -2.1589786834,
				"z": 1.1742248391,
				"element": "H" 
			},
			{
				"x": 3.1730933223,
				"y": -1.7007029637,
				"z": -0.6442308038,
				"element": "H" 
			},
			{
				"x": 1.4873731677,
				"y": -0.3689290465,
				"z": -1.8260973642,
				"element": "H" 
			}
		],
		 "valence_orbital": [ 
			{
				"type": "occ",
				"energy": -0.26129,
				"method": "rhf"
			},
			{
				"type": "occ",
				"energy": -0.2535,
				"method": "rhf"
			},
			{
				"type": "occ",
				"energy": -0.24463,
				"method": "rhf"
			},
			{
				"type": "occ",
				"energy": -0.23272,
				"method": "rhf"
			},
			{
				"type": "occ",
				"energy": -0.19661,
				"method": "rhf"
			},
			{
				"type": "unocc",
				"energy": -0.06387,
				"method": "rhf"
			},
			{
				"type": "unocc",
				"energy": -0.01193,
				"method": "rhf"
			},
			{
				"type": "unocc",
				"energy": -0.00162,
				"method": "rhf"
			},
			{
				"type": "unocc",
				"energy": 0.00889,
				"method": "rhf"
			},
			{
				"type": "unocc",
				"energy": 0.03301,
				"method": "rhf"
			}
		],
		"cosmo_sigma_profile": { 
			"-0.025": 0.0,
			"-0.024": 0.0,
			"-0.023": 0.0,
			"-0.022": 0.0,
			"-0.021": 0.0,
			"-0.02": 0.0,
			"-0.019": 0.0,
			"-0.018": 0.0,
			"-0.017": 0.0,
			"-0.016": 0.0,
			"-0.015": 0.0,
			"-0.014": 0.0,
			"-0.013": 0.0,
			"-0.012": 0.0,
			"-0.011": 0.0,
			"-0.01": 0.0,
			"-0.009": 0.0,
			"-0.008": 0.0,
			"-0.007": 2.5033157559,
			"-0.006": 16.3769164311,
			"-0.005": 23.330069014,
			"-0.004": 27.2799195102,
			"-0.003": 30.3555805811,
			"-0.002": 36.2364950042,
			"-0.001": 35.5317962775,
			"0.0": 35.5535741508,
			"0.001": 31.7358142648,
			"0.002": 22.1093375713,
			"0.003": 20.8386509976,
			"0.004": 23.6441271481,
			"0.005": 12.4551435607,
			"0.006": 3.29068202276,
			"0.007": 3.19612491571,
			"0.008": 3.22980837687,
			"0.009": 3.0428337893,
			"0.01": 3.26059953846,
			"0.011": 1.90794779332,
			"0.012": 2.510774318,
			"0.013": 2.33454798039,
			"0.014": 1.90278240142,
			"0.015": 0.446578521585,
			"0.016": 0.0,
			"0.017": 0.0,
			"0.018": 0.0,
			"0.019": 0.0,
			"0.02": 0.0,
			"0.021": 0.0,
			"0.022": 0.0,
			"0.023": 0.0,
			"0.024": 0.0,
			"0.025": 0.0
		}
	}
}
