{
	 "smiles": "NC1=NN(CC2=CC=C(Cl)C=C2)C=N1", 
	 "Tm": 430.15, 
	 "num_atms": 23, 
	 "gaussian": { 
		 "optdone": 1, 
		 "sigma_profile": "yes", 
		 "theory": "DFT", 
		 "functional": "B3LYP", 
		 "basiset": "6-31G**", 
		 "properties": { 
			 "R2extent": 4771.1601, 
			 "electric_dipole_moment_norm": 1.06290218741, 
			 "electric_quadrupole_moment_norm": 20.9450576065, 
			 "total_energy": -1027.57195788, 
			 "HOMO_LUMO_gap": 0.19066, 
			 "cosmo_polarized_energy": -14.91, 
			 "cosmo_cavitation_energy": 29.67, 
			 "cosmo_dispersion_energy": -21.63, 
			 "cosmo_repulsion_energy": 1.72, 
			 "cosmo_total_nonelectrostatic_energy": 9.76, 
			 "SMD_solvation_energy": 2.34 
		},
		"coords": [
			{
				"x": -0.3510491973,
				"y": -1.6718785333,
				"z": 4.2564538642,
				"element": "N" 
			},
			{
				"x": 0.1047972134,
				"y": -0.7639645937,
				"z": 3.3214664423,
				"element": "C" 
			},
			{
				"x": -0.5100286079,
				"y": -0.5522006888,
				"z": 2.1594463721,
				"element": "N" 
			},
			{
				"x": 0.2427724862,
				"y": 0.462677665,
				"z": 1.6234107968,
				"element": "N" 
			},
			{
				"x": -0.0457596728,
				"y": 0.9730039324,
				"z": 0.2909052316,
				"element": "C" 
			},
			{
				"x": 0.5389058842,
				"y": 0.1381350738,
				"z": -0.8352276438,
				"element": "C" 
			},
			{
				"x": 1.3305234002,
				"y": 0.7367881929,
				"z": -1.819733837,
				"element": "C" 
			},
			{
				"x": 1.8525958313,
				"y": -0.0097921965,
				"z": -2.8776835615,
				"element": "C" 
			},
			{
				"x": 1.5786201585,
				"y": -1.3739200382,
				"z": -2.9393544645,
				"element": "C" 
			},
			{
				"x": 2.232316126,
				"y": -2.328522467,
				"z": -4.2631427585,
				"element": "Cl" 
			},
			{
				"x": 0.7944526194,
				"y": -1.9961566461,
				"z": -1.9665314033,
				"element": "C" 
			},
			{
				"x": 0.2753706742,
				"y": -1.2358115965,
				"z": -0.9209236222,
				"element": "C" 
			},
			{
				"x": 1.2432277225,
				"y": 0.7747192805,
				"z": 2.4688699443,
				"element": "C" 
			},
			{
				"x": 1.1922647642,
				"y": 0.0284176634,
				"z": 3.5604349995,
				"element": "N" 
			},
			{
				"x": 0.3711093486,
				"y": -1.9909457912,
				"z": 4.8867024694,
				"element": "H" 
			},
			{
				"x": -0.9138991526,
				"y": -2.4176529124,
				"z": 3.8724103899,
				"element": "H" 
			},
			{
				"x": 0.3388371947,
				"y": 1.9954875213,
				"z": 0.2392852316,
				"element": "H" 
			},
			{
				"x": -1.1359463092,
				"y": 1.0254446022,
				"z": 0.2093441213,
				"element": "H" 
			},
			{
				"x": 1.5465360004,
				"y": 1.8011575876,
				"z": -1.7681656774,
				"element": "H" 
			},
			{
				"x": 2.4663924675,
				"y": 0.45866486,
				"z": -3.6389391655,
				"element": "H" 
			},
			{
				"x": 0.5927700115,
				"y": -3.0597101273,
				"z": -2.0312585902,
				"element": "H" 
			},
			{
				"x": -0.329949587,
				"y": -1.7085196724,
				"z": -0.1537136194,
				"element": "H" 
			},
			{
				"x": 1.9728406241,
				"y": 1.5453788843,
				"z": 2.2590444803,
				"element": "H" 
			}
		],
		 "valence_orbital": [ 
			{
				"type": "occ",
				"energy": -0.27973,
				"method": "rhf"
			},
			{
				"type": "occ",
				"energy": -0.27172,
				"method": "rhf"
			},
			{
				"type": "occ",
				"energy": -0.2683,
				"method": "rhf"
			},
			{
				"type": "occ",
				"energy": -0.24935,
				"method": "rhf"
			},
			{
				"type": "occ",
				"energy": -0.2136,
				"method": "rhf"
			},
			{
				"type": "unocc",
				"energy": -0.02294,
				"method": "rhf"
			},
			{
				"type": "unocc",
				"energy": -0.019,
				"method": "rhf"
			},
			{
				"type": "unocc",
				"energy": 0.01336,
				"method": "rhf"
			},
			{
				"type": "unocc",
				"energy": 0.02679,
				"method": "rhf"
			},
			{
				"type": "unocc",
				"energy": 0.07159,
				"method": "rhf"
			}
		],
		"cosmo_sigma_profile": { 
			"-0.025": 0.0,
			"-0.024": 0.0,
			"-0.023": 0.0,
			"-0.022": 0.0,
			"-0.021": 0.0,
			"-0.02": 0.0,
			"-0.019": 0.0,
			"-0.018": 0.0,
			"-0.017": 0.0,
			"-0.016": 0.0,
			"-0.015": 0.0,
			"-0.014": 0.0293868844875,
			"-0.013": 1.57376967625,
			"-0.012": 2.45911164428,
			"-0.011": 1.608492521,
			"-0.01": 5.07773201614,
			"-0.009": 5.49914225246,
			"-0.008": 7.4433560121,
			"-0.007": 10.7033810982,
			"-0.006": 12.2862324064,
			"-0.005": 12.9760494194,
			"-0.004": 11.7535693997,
			"-0.003": 10.4199982327,
			"-0.002": 11.1913668622,
			"-0.001": 12.8590585495,
			"0.0": 12.932011133,
			"0.001": 18.0346032612,
			"0.002": 21.1769242216,
			"0.003": 22.0580990761,
			"0.004": 19.4631006049,
			"0.005": 11.5497973792,
			"0.006": 3.75833027964,
			"0.007": 3.51039462078,
			"0.008": 2.5875867908,
			"0.009": 2.89410301088,
			"0.01": 3.95532691671,
			"0.011": 2.27775864648,
			"0.012": 2.2629709409,
			"0.013": 2.4563373146,
			"0.014": 1.94575088656,
			"0.015": 1.63697401304,
			"0.016": 0.711243859499,
			"0.017": 0.488189040201,
			"0.018": 0.0,
			"0.019": 0.0,
			"0.02": 0.0,
			"0.021": 0.0,
			"0.022": 0.0,
			"0.023": 0.0,
			"0.024": 0.0,
			"0.025": 0.0
		}
	}
}
