{
	 "smiles": "O=CC1=CC2=C(C=C1)C1=CC=CC=C1C2", 
	 "Tm": 357.15, 
	 "num_atms": 25, 
	 "gaussian": { 
		 "optdone": 1, 
		 "sigma_profile": "yes", 
		 "theory": "DFT", 
		 "functional": "B3LYP", 
		 "basiset": "6-31G**", 
		 "properties": { 
			 "R2extent": 3680.3853, 
			 "electric_dipole_moment_norm": 3.6989306306, 
			 "electric_quadrupole_moment_norm": 14.8342897959, 
			 "total_energy": -614.751818707, 
			 "HOMO_LUMO_gap": 0.15922, 
			 "cosmo_polarized_energy": -9.3, 
			 "cosmo_cavitation_energy": 29.15, 
			 "cosmo_dispersion_energy": -21.37, 
			 "cosmo_repulsion_energy": 1.63, 
			 "cosmo_total_nonelectrostatic_energy": 9.41, 
			 "SMD_solvation_energy": 5.25 
		},
		"coords": [
			{
				"x": 2.5122077055,
				"y": 1.9664707613,
				"z": 3.9891801271,
				"element": "O" 
			},
			{
				"x": 2.0916492324,
				"y": 0.8343756205,
				"z": 3.8314607713,
				"element": "C" 
			},
			{
				"x": 1.4210075144,
				"y": 0.3470632845,
				"z": 2.6093342285,
				"element": "C" 
			},
			{
				"x": 1.2291429166,
				"y": 1.2151190327,
				"z": 1.5177519092,
				"element": "C" 
			},
			{
				"x": 0.5984492716,
				"y": 0.736874328,
				"z": 0.3830941899,
				"element": "C" 
			},
			{
				"x": 0.1525059502,
				"y": -0.6058529714,
				"z": 0.320513719,
				"element": "C" 
			},
			{
				"x": 0.3416557778,
				"y": -1.4702790428,
				"z": 1.4030577459,
				"element": "C" 
			},
			{
				"x": 0.9772803227,
				"y": -0.9838152397,
				"z": 2.5433653544,
				"element": "C" 
			},
			{
				"x": -0.4721947046,
				"y": -0.8302687291,
				"z": -0.9871153473,
				"element": "C" 
			},
			{
				"x": -1.061370934,
				"y": -1.9736586518,
				"z": -1.5343662421,
				"element": "C" 
			},
			{
				"x": -1.5876762932,
				"y": -1.9062842996,
				"z": -2.8248622564,
				"element": "C" 
			},
			{
				"x": -1.5268906114,
				"y": -0.7150640629,
				"z": -3.558532983,
				"element": "C" 
			},
			{
				"x": -0.9376639043,
				"y": 0.4305622275,
				"z": -3.0128230273,
				"element": "C" 
			},
			{
				"x": -0.4111248803,
				"y": 0.3700860558,
				"z": -1.7269656963,
				"element": "C" 
			},
			{
				"x": 0.2713975924,
				"y": 1.4501371107,
				"z": -0.9131630684,
				"element": "C" 
			},
			{
				"x": 2.1949880111,
				"y": 0.0721468256,
				"z": 4.6365746842,
				"element": "H" 
			},
			{
				"x": 1.5840041454,
				"y": 2.2383739971,
				"z": 1.6007695918,
				"element": "H" 
			},
			{
				"x": 0.0015117884,
				"y": -2.500844135,
				"z": 1.3600569445,
				"element": "H" 
			},
			{
				"x": 1.1358141252,
				"y": -1.6372368285,
				"z": 3.3983548146,
				"element": "H" 
			},
			{
				"x": -1.1109638451,
				"y": -2.9001875616,
				"z": -0.969157184,
				"element": "H" 
			},
			{
				"x": -2.0489795911,
				"y": -2.785521842,
				"z": -3.2651340165,
				"element": "H" 
			},
			{
				"x": -1.9416620323,
				"y": -0.6805245759,
				"z": -4.5618022652,
				"element": "H" 
			},
			{
				"x": -0.8946536329,
				"y": 1.3511121042,
				"z": -3.5890947821,
				"element": "H" 
			},
			{
				"x": -0.381904603,
				"y": 2.317238784,
				"z": -0.749086192,
				"element": "H" 
			},
			{
				"x": 1.1738706783,
				"y": 1.8312778084,
				"z": -1.4090110198,
				"element": "H" 
			}
		],
		 "valence_orbital": [ 
			{
				"type": "occ",
				"energy": -0.28859,
				"method": "rhf"
			},
			{
				"type": "occ",
				"energy": -0.26135,
				"method": "rhf"
			},
			{
				"type": "occ",
				"energy": -0.25211,
				"method": "rhf"
			},
			{
				"type": "occ",
				"energy": -0.24972,
				"method": "rhf"
			},
			{
				"type": "occ",
				"energy": -0.22636,
				"method": "rhf"
			},
			{
				"type": "unocc",
				"energy": -0.06714,
				"method": "rhf"
			},
			{
				"type": "unocc",
				"energy": -0.02075,
				"method": "rhf"
			},
			{
				"type": "unocc",
				"energy": -0.00466,
				"method": "rhf"
			},
			{
				"type": "unocc",
				"energy": 0.0007,
				"method": "rhf"
			},
			{
				"type": "unocc",
				"energy": 0.05913,
				"method": "rhf"
			}
		],
		"cosmo_sigma_profile": { 
			"-0.025": 0.0,
			"-0.024": 0.0,
			"-0.023": 0.0,
			"-0.022": 0.0,
			"-0.021": 0.0,
			"-0.02": 0.0,
			"-0.019": 0.0,
			"-0.018": 0.0,
			"-0.017": 0.0,
			"-0.016": 0.0,
			"-0.015": 0.0,
			"-0.014": 0.0,
			"-0.013": 0.0,
			"-0.012": 0.0,
			"-0.011": 0.0,
			"-0.01": 0.0,
			"-0.009": 0.0,
			"-0.008": 0.120316706651,
			"-0.007": 4.29265686547,
			"-0.006": 16.5913937937,
			"-0.005": 22.5691459828,
			"-0.004": 20.8186879277,
			"-0.003": 21.6246771496,
			"-0.002": 17.1933946514,
			"-0.001": 12.5874861134,
			"0.0": 14.3504507212,
			"0.001": 15.1640545392,
			"0.002": 17.9930495804,
			"0.003": 22.42900409,
			"0.004": 16.4049592167,
			"0.005": 11.2252489834,
			"0.006": 4.02626209796,
			"0.007": 1.84190175486,
			"0.008": 1.41804831541,
			"0.009": 1.94721450095,
			"0.01": 2.50753029225,
			"0.011": 3.6499777435,
			"0.012": 4.04968905825,
			"0.013": 1.29522477505,
			"0.014": 0.0807995562226,
			"0.015": 0.0,
			"0.016": 0.0,
			"0.017": 0.0,
			"0.018": 0.0,
			"0.019": 0.0,
			"0.02": 0.0,
			"0.021": 0.0,
			"0.022": 0.0,
			"0.023": 0.0,
			"0.024": 0.0,
			"0.025": 0.0
		}
	}
}
