{
	 "smiles": "CC(C)(C)OC(=O)N1CCN(CC2=CC=C(C=C2)C(O)=O)CC1", 
	 "Tm": 473.15, 
	 "num_atms": 47, 
	 "gaussian": { 
		 "optdone": 1, 
		 "sigma_profile": "yes", 
		 "theory": "DFT", 
		 "functional": "B3LYP", 
		 "basiset": "6-31G**", 
		 "properties": { 
			 "R2extent": 14823.5241, 
			 "electric_dipole_moment_norm": 5.71929643663, 
			 "electric_quadrupole_moment_norm": 40.2274449033, 
			 "total_energy": -1072.70524041, 
			 "HOMO_LUMO_gap": 0.17089, 
			 "cosmo_polarized_energy": -21.03, 
			 "cosmo_cavitation_energy": 48.28, 
			 "cosmo_dispersion_energy": -33.54, 
			 "cosmo_repulsion_energy": 2.56, 
			 "cosmo_total_nonelectrostatic_energy": 17.3, 
			 "SMD_solvation_energy": 7.92 
		},
		"coords": [
			{
				"x": 0.6308539551,
				"y": -3.1035533662,
				"z": -4.4461493511,
				"element": "C" 
			},
			{
				"x": 1.6690774635,
				"y": -3.474649163,
				"z": -3.3816235676,
				"element": "C" 
			},
			{
				"x": 1.4776196255,
				"y": -4.9217442045,
				"z": -2.9192275629,
				"element": "C" 
			},
			{
				"x": 3.1048940225,
				"y": -3.2447697274,
				"z": -3.8656701038,
				"element": "C" 
			},
			{
				"x": 1.4219349399,
				"y": -2.7108376394,
				"z": -2.1492376464,
				"element": "O" 
			},
			{
				"x": 1.5108437323,
				"y": -1.3566180683,
				"z": -2.1411017524,
				"element": "C" 
			},
			{
				"x": 1.7665767678,
				"y": -0.6498711897,
				"z": -3.1071976441,
				"element": "O" 
			},
			{
				"x": 1.2733260193,
				"y": -0.8700865372,
				"z": -0.8838185624,
				"element": "N" 
			},
			{
				"x": 0.931265698,
				"y": -1.7213084333,
				"z": 0.2597564131,
				"element": "C" 
			},
			{
				"x": 1.1372970644,
				"y": -0.9378980712,
				"z": 1.5526121529,
				"element": "C" 
			},
			{
				"x": 0.2577792759,
				"y": 0.2330704037,
				"z": 1.6113407749,
				"element": "N" 
			},
			{
				"x": 0.5987540043,
				"y": 1.1145932314,
				"z": 2.7204393393,
				"element": "C" 
			},
			{
				"x": -0.5197655968,
				"y": 2.0696031551,
				"z": 3.0970248132,
				"element": "C" 
			},
			{
				"x": -1.8588945776,
				"y": 1.652551301,
				"z": 3.0664212871,
				"element": "C" 
			},
			{
				"x": -2.8791126472,
				"y": 2.5126677512,
				"z": 3.4554185461,
				"element": "C" 
			},
			{
				"x": -2.5854975499,
				"y": 3.8087561438,
				"z": 3.9041129399,
				"element": "C" 
			},
			{
				"x": -1.250552399,
				"y": 4.2344777463,
				"z": 3.9208609977,
				"element": "C" 
			},
			{
				"x": -0.2313735469,
				"y": 3.3730835519,
				"z": 3.5163554917,
				"element": "C" 
			},
			{
				"x": -3.7320286813,
				"y": 4.6861643711,
				"z": 4.3047868469,
				"element": "C" 
			},
			{
				"x": -3.4389513714,
				"y": 5.7528470756,
				"z": 5.0984932596,
				"element": "O" 
			},
			{
				"x": -4.8739055976,
				"y": 4.4871318951,
				"z": 3.9620564286,
				"element": "O" 
			},
			{
				"x": 0.1147436891,
				"y": 0.9233451154,
				"z": 0.3081809308,
				"element": "C" 
			},
			{
				"x": 1.2285120814,
				"y": 0.5783757764,
				"z": -0.6830156832,
				"element": "C" 
			},
			{
				"x": 0.7489987545,
				"y": -2.0663282819,
				"z": -4.7597102063,
				"element": "H" 
			},
			{
				"x": 0.7495427993,
				"y": -3.7547489639,
				"z": -5.3183549721,
				"element": "H" 
			},
			{
				"x": -0.3814544292,
				"y": -3.2435371139,
				"z": -4.0535980617,
				"element": "H" 
			},
			{
				"x": 1.6308956807,
				"y": -5.6077068389,
				"z": -3.7576122277,
				"element": "H" 
			},
			{
				"x": 0.4667223568,
				"y": -5.0720209333,
				"z": -2.5291066729,
				"element": "H" 
			},
			{
				"x": 2.1929842762,
				"y": -5.1740280301,
				"z": -2.1308036546,
				"element": "H" 
			},
			{
				"x": 3.8167884784,
				"y": -3.4814675282,
				"z": -3.0682805551,
				"element": "H" 
			},
			{
				"x": 3.2507266509,
				"y": -2.209816468,
				"z": -4.1752128553,
				"element": "H" 
			},
			{
				"x": 3.3161065985,
				"y": -3.9028144626,
				"z": -4.7149037825,
				"element": "H" 
			},
			{
				"x": -0.1103361564,
				"y": -2.0665842463,
				"z": 0.1975854141,
				"element": "H" 
			},
			{
				"x": 1.5704358437,
				"y": -2.6066286716,
				"z": 0.2588225667,
				"element": "H" 
			},
			{
				"x": 0.9137739155,
				"y": -1.5912974677,
				"z": 2.4045281337,
				"element": "H" 
			},
			{
				"x": 2.2072437457,
				"y": -0.6657926561,
				"z": 1.6307469394,
				"element": "H" 
			},
			{
				"x": 1.5258341013,
				"y": 1.693294451,
				"z": 2.5393030366,
				"element": "H" 
			},
			{
				"x": 0.811112867,
				"y": 0.4752312335,
				"z": 3.5887909324,
				"element": "H" 
			},
			{
				"x": -2.0832869829,
				"y": 0.649138661,
				"z": 2.7190567931,
				"element": "H" 
			},
			{
				"x": -3.9181436224,
				"y": 2.2024727597,
				"z": 3.4225991555,
				"element": "H" 
			},
			{
				"x": -0.9932255621,
				"y": 5.2534519921,
				"z": 4.2013401041,
				"element": "H" 
			},
			{
				"x": 0.7982520738,
				"y": 3.7218021418,
				"z": 3.5182709998,
				"element": "H" 
			},
			{
				"x": -2.5294834697,
				"y": 5.6871572902,
				"z": 5.420500578,
				"element": "H" 
			},
			{
				"x": -0.8507655262,
				"y": 0.6587999255,
				"z": -0.142024049,
				"element": "H" 
			},
			{
				"x": 0.0997933815,
				"y": 2.0056965156,
				"z": 0.4701255338,
				"element": "H" 
			},
			{
				"x": 2.1970993707,
				"y": 0.9503991552,
				"z": -0.318603224,
				"element": "H" 
			},
			{
				"x": 1.0461884833,
				"y": 1.0479964191,
				"z": -1.651078274,
				"element": "H" 
			}
		],
		 "valence_orbital": [ 
			{
				"type": "occ",
				"energy": -0.26948,
				"method": "rhf"
			},
			{
				"type": "occ",
				"energy": -0.2605,
				"method": "rhf"
			},
			{
				"type": "occ",
				"energy": -0.25986,
				"method": "rhf"
			},
			{
				"type": "occ",
				"energy": -0.2378,
				"method": "rhf"
			},
			{
				"type": "occ",
				"energy": -0.22141,
				"method": "rhf"
			},
			{
				"type": "unocc",
				"energy": -0.05052,
				"method": "rhf"
			},
			{
				"type": "unocc",
				"energy": -0.02181,
				"method": "rhf"
			},
			{
				"type": "unocc",
				"energy": 0.04514,
				"method": "rhf"
			},
			{
				"type": "unocc",
				"energy": 0.05431,
				"method": "rhf"
			},
			{
				"type": "unocc",
				"energy": 0.06252,
				"method": "rhf"
			}
		],
		"cosmo_sigma_profile": { 
			"-0.025": 0.0,
			"-0.024": 0.0,
			"-0.023": 0.0,
			"-0.022": 0.0,
			"-0.021": 0.0,
			"-0.02": 0.0,
			"-0.019": 0.0248769715325,
			"-0.018": 0.527045557259,
			"-0.017": 1.66706474822,
			"-0.016": 0.561391324609,
			"-0.015": 0.733049815247,
			"-0.014": 1.20642606087,
			"-0.013": 0.801328309188,
			"-0.012": 1.71075238821,
			"-0.011": 0.713869668234,
			"-0.01": 0.768965437221,
			"-0.009": 1.63738765304,
			"-0.008": 1.75489985343,
			"-0.007": 2.11763460944,
			"-0.006": 5.18599670129,
			"-0.005": 14.946201524,
			"-0.004": 39.6638956418,
			"-0.003": 49.9042774384,
			"-0.002": 41.5060827754,
			"-0.001": 33.0840771576,
			"0.0": 38.0767487595,
			"0.001": 32.2032049578,
			"0.002": 20.3422831776,
			"0.003": 18.9650422726,
			"0.004": 13.6452111861,
			"0.005": 6.55901721757,
			"0.006": 6.46548949545,
			"0.007": 6.20302133384,
			"0.008": 5.47914423694,
			"0.009": 5.03741376035,
			"0.01": 5.62048476778,
			"0.011": 6.27051352097,
			"0.012": 7.5726879288,
			"0.013": 4.03863516634,
			"0.014": 2.83864431171,
			"0.015": 0.0416344546621,
			"0.016": 0.0,
			"0.017": 0.0,
			"0.018": 0.0,
			"0.019": 0.0,
			"0.02": 0.0,
			"0.021": 0.0,
			"0.022": 0.0,
			"0.023": 0.0,
			"0.024": 0.0,
			"0.025": 0.0
		}
	}
}
