{
	 "smiles": "NC1=C2C(=O)C3=CC=CC=C3C(=O)C2=C(N)C(Cl)=C1Cl", 
	 "Tm": 568.15, 
	 "num_atms": 28, 
	 "gaussian": { 
		 "optdone": 1, 
		 "sigma_profile": "yes", 
		 "theory": "DFT", 
		 "functional": "B3LYP", 
		 "basiset": "6-31G**", 
		 "properties": { 
			 "R2extent": 8110.7009, 
			 "electric_dipole_moment_norm": 0.125263442392, 
			 "electric_quadrupole_moment_norm": 9.98295762788, 
			 "total_energy": -1718.6824152, 
			 "HOMO_LUMO_gap": 0.09402, 
			 "cosmo_polarized_energy": -9.92, 
			 "cosmo_cavitation_energy": 34.39, 
			 "cosmo_dispersion_energy": -26.85, 
			 "cosmo_repulsion_energy": 1.97, 
			 "cosmo_total_nonelectrostatic_energy": 9.5, 
			 "SMD_solvation_energy": 5.18 
		},
		"coords": [
			{
				"x": 0.7505937155,
				"y": 3.3064291137,
				"z": -3.0362008187,
				"element": "N" 
			},
			{
				"x": 1.1839495043,
				"y": 2.2972299358,
				"z": -2.2459541839,
				"element": "C" 
			},
			{
				"x": 0.335051529,
				"y": 1.6280253171,
				"z": -1.3248859172,
				"element": "C" 
			},
			{
				"x": -1.0703593156,
				"y": 2.0478924173,
				"z": -1.2265669668,
				"element": "C" 
			},
			{
				"x": -1.5516540325,
				"y": 2.9667797335,
				"z": -1.9164571136,
				"element": "O" 
			},
			{
				"x": -1.9509721024,
				"y": 1.3436297115,
				"z": -0.2621525349,
				"element": "C" 
			},
			{
				"x": -3.2944863647,
				"y": 1.7299526481,
				"z": -0.1541712339,
				"element": "C" 
			},
			{
				"x": -4.1363168784,
				"y": 1.0826979265,
				"z": 0.7435815624,
				"element": "C" 
			},
			{
				"x": -3.6446872254,
				"y": 0.0420397325,
				"z": 1.5434597744,
				"element": "C" 
			},
			{
				"x": -2.313445979,
				"y": -0.346666287,
				"z": 1.4419876495,
				"element": "C" 
			},
			{
				"x": -1.458516803,
				"y": 0.3012273805,
				"z": 0.5390657866,
				"element": "C" 
			},
			{
				"x": -0.0416477187,
				"y": -0.1295860835,
				"z": 0.4470912775,
				"element": "C" 
			},
			{
				"x": 0.3503722441,
				"y": -1.0591243635,
				"z": 1.1779929531,
				"element": "O" 
			},
			{
				"x": 0.8385732601,
				"y": 0.562262888,
				"z": -0.505657092,
				"element": "C" 
			},
			{
				"x": 2.1959395987,
				"y": 0.1553715335,
				"z": -0.5994722222,
				"element": "C" 
			},
			{
				"x": 2.711383704,
				"y": -0.8434050143,
				"z": 0.153879505,
				"element": "N" 
			},
			{
				"x": 3.0308747503,
				"y": 0.8450754393,
				"z": -1.5353343688,
				"element": "C" 
			},
			{
				"x": 4.7024982046,
				"y": 0.3503275133,
				"z": -1.6574064945,
				"element": "Cl" 
			},
			{
				"x": 2.5473871656,
				"y": 1.8683828688,
				"z": -2.3219732051,
				"element": "C" 
			},
			{
				"x": 3.5987928416,
				"y": 2.6862301163,
				"z": -3.4531841564,
				"element": "Cl" 
			},
			{
				"x": -0.2266766399,
				"y": 3.5680401889,
				"z": -2.9402946192,
				"element": "H" 
			},
			{
				"x": 1.3828553005,
				"y": 3.754129116,
				"z": -3.6771259338,
				"element": "H" 
			},
			{
				"x": -3.6485435011,
				"y": 2.5377965255,
				"z": -0.784734832,
				"element": "H" 
			},
			{
				"x": -5.1765296165,
				"y": 1.3845616183,
				"z": 0.8246307761,
				"element": "H" 
			},
			{
				"x": -4.3041472422,
				"y": -0.4620562431,
				"z": 2.2439849575,
				"element": "H" 
			},
			{
				"x": -1.9071533716,
				"y": -1.1483009891,
				"z": 2.0485234035,
				"element": "H" 
			},
			{
				"x": 2.0725483409,
				"y": -1.2979865575,
				"z": 0.8003577579,
				"element": "H" 
			},
			{
				"x": 3.6779166317,
				"y": -1.1029561863,
				"z": 0.0568162893,
				"element": "H" 
			}
		],
		 "valence_orbital": [ 
			{
				"type": "occ",
				"energy": -0.26638,
				"method": "rhf"
			},
			{
				"type": "occ",
				"energy": -0.2614,
				"method": "rhf"
			},
			{
				"type": "occ",
				"energy": -0.25985,
				"method": "rhf"
			},
			{
				"type": "occ",
				"energy": -0.25622,
				"method": "rhf"
			},
			{
				"type": "occ",
				"energy": -0.19516,
				"method": "rhf"
			},
			{
				"type": "unocc",
				"energy": -0.10114,
				"method": "rhf"
			},
			{
				"type": "unocc",
				"energy": -0.04588,
				"method": "rhf"
			},
			{
				"type": "unocc",
				"energy": -0.026,
				"method": "rhf"
			},
			{
				"type": "unocc",
				"energy": -0.01277,
				"method": "rhf"
			},
			{
				"type": "unocc",
				"energy": 0.0059,
				"method": "rhf"
			}
		],
		"cosmo_sigma_profile": { 
			"-0.025": 0.0,
			"-0.024": 0.0,
			"-0.023": 0.0,
			"-0.022": 0.0,
			"-0.021": 0.0,
			"-0.02": 0.0,
			"-0.019": 0.0,
			"-0.018": 0.0,
			"-0.017": 0.0,
			"-0.016": 0.0,
			"-0.015": 0.0,
			"-0.014": 0.0332579268762,
			"-0.013": 0.945040096093,
			"-0.012": 2.07129635177,
			"-0.011": 1.50889775248,
			"-0.01": 1.41559023666,
			"-0.009": 3.69335037801,
			"-0.008": 3.43444895021,
			"-0.007": 5.15631325249,
			"-0.006": 9.93985317052,
			"-0.005": 11.5465046418,
			"-0.004": 12.6157314636,
			"-0.003": 14.1568164013,
			"-0.002": 21.6638299569,
			"-0.001": 32.140956605,
			"0.0": 29.0872775359,
			"0.001": 31.1893524487,
			"0.002": 33.1247342019,
			"0.003": 30.0988903423,
			"0.004": 12.2967442988,
			"0.005": 4.73630549028,
			"0.006": 3.66856565137,
			"0.007": 2.5223907907,
			"0.008": 2.69840718801,
			"0.009": 3.99226146588,
			"0.01": 3.18574059131,
			"0.011": 4.00460400658,
			"0.012": 1.26309602361,
			"0.013": 0.0,
			"0.014": 0.0,
			"0.015": 0.0,
			"0.016": 0.0,
			"0.017": 0.0,
			"0.018": 0.0,
			"0.019": 0.0,
			"0.02": 0.0,
			"0.021": 0.0,
			"0.022": 0.0,
			"0.023": 0.0,
			"0.024": 0.0,
			"0.025": 0.0
		}
	}
}
