{
	 "smiles": "S1C=CC=C1C1=CC=C(S1)C1=CC=CS1", 
	 "Tm": 365.95, 
	 "num_atms": 23, 
	 "gaussian": { 
		 "optdone": 1, 
		 "sigma_profile": "yes", 
		 "theory": "DFT", 
		 "functional": "B3LYP", 
		 "basiset": "6-31G**", 
		 "properties": { 
			 "R2extent": 6207.3642, 
			 "electric_dipole_moment_norm": 0.50858621688, 
			 "electric_quadrupole_moment_norm": 17.8584590237, 
			 "total_energy": -1656.62581616, 
			 "HOMO_LUMO_gap": 0.13336, 
			 "cosmo_polarized_energy": -7.07, 
			 "cosmo_cavitation_energy": 32.24, 
			 "cosmo_dispersion_energy": -25.16, 
			 "cosmo_repulsion_energy": 1.8, 
			 "cosmo_total_nonelectrostatic_energy": 8.88, 
			 "SMD_solvation_energy": 4.94 
		},
		"coords": [
			{
				"x": -2.6274707006,
				"y": 1.7592537216,
				"z": -1.7835777462,
				"element": "S" 
			},
			{
				"x": -4.3489141742,
				"y": 1.9423342563,
				"z": -1.8763795972,
				"element": "C" 
			},
			{
				"x": -4.9971494988,
				"y": 0.992348735,
				"z": -1.1346314658,
				"element": "C" 
			},
			{
				"x": -4.1061825774,
				"y": 0.0884519085,
				"z": -0.4904318828,
				"element": "C" 
			},
			{
				"x": -2.7759825542,
				"y": 0.3585855058,
				"z": -0.7368099935,
				"element": "C" 
			},
			{
				"x": -1.6186574221,
				"y": -0.3476046375,
				"z": -0.2216231178,
				"element": "C" 
			},
			{
				"x": -1.522812523,
				"y": -1.0707545735,
				"z": 0.9491976433,
				"element": "C" 
			},
			{
				"x": -0.2468567126,
				"y": -1.6508855708,
				"z": 1.1575622548,
				"element": "C" 
			},
			{
				"x": 0.6593692976,
				"y": -1.3767383281,
				"z": 0.1538413392,
				"element": "C" 
			},
			{
				"x": -0.098470213,
				"y": -0.4052795543,
				"z": -1.0950758212,
				"element": "S" 
			},
			{
				"x": 2.0455298209,
				"y": -1.7800295465,
				"z": 0.0382211897,
				"element": "C" 
			},
			{
				"x": 3.039798738,
				"y": -1.2537650739,
				"z": -0.7598808396,
				"element": "C" 
			},
			{
				"x": 4.2956055067,
				"y": -1.9069777299,
				"z": -0.608724766,
				"element": "C" 
			},
			{
				"x": 4.2591159746,
				"y": -2.9268380445,
				"z": 0.3022236349,
				"element": "C" 
			},
			{
				"x": 2.6760217675,
				"y": -3.1176437463,
				"z": 0.9852459539,
				"element": "S" 
			},
			{
				"x": -4.7746529708,
				"y": 2.7370740036,
				"z": -2.4728095853,
				"element": "H" 
			},
			{
				"x": -6.0768252007,
				"y": 0.9292194509,
				"z": -1.0599153145,
				"element": "H" 
			},
			{
				"x": -4.4289042962,
				"y": -0.7521018964,
				"z": 0.1128753852,
				"element": "H" 
			},
			{
				"x": -2.3412809477,
				"y": -1.1484714309,
				"z": 1.655388308,
				"element": "H" 
			},
			{
				"x": 0.011672914,
				"y": -2.2270088549,
				"z": 2.0391305122,
				"element": "H" 
			},
			{
				"x": 2.8766704876,
				"y": -0.4091304723,
				"z": -1.4199810689,
				"element": "H" 
			},
			{
				"x": 5.1905566834,
				"y": -1.6228151971,
				"z": -1.1503419366,
				"element": "H" 
			},
			{
				"x": 5.062118601,
				"y": -3.5794229247,
				"z": 0.6151969142,
				"element": "H" 
			}
		],
		 "valence_orbital": [ 
			{
				"type": "occ",
				"energy": -0.25859,
				"method": "rhf"
			},
			{
				"type": "occ",
				"energy": -0.25439,
				"method": "rhf"
			},
			{
				"type": "occ",
				"energy": -0.25172,
				"method": "rhf"
			},
			{
				"type": "occ",
				"energy": -0.24067,
				"method": "rhf"
			},
			{
				"type": "occ",
				"energy": -0.19194,
				"method": "rhf"
			},
			{
				"type": "unocc",
				"energy": -0.05858,
				"method": "rhf"
			},
			{
				"type": "unocc",
				"energy": -0.01672,
				"method": "rhf"
			},
			{
				"type": "unocc",
				"energy": 0.00477,
				"method": "rhf"
			},
			{
				"type": "unocc",
				"energy": 0.02054,
				"method": "rhf"
			},
			{
				"type": "unocc",
				"energy": 0.02952,
				"method": "rhf"
			}
		],
		"cosmo_sigma_profile": { 
			"-0.025": 0.0,
			"-0.024": 0.0,
			"-0.023": 0.0,
			"-0.022": 0.0,
			"-0.021": 0.0,
			"-0.02": 0.0,
			"-0.019": 0.0,
			"-0.018": 0.0,
			"-0.017": 0.0,
			"-0.016": 0.0,
			"-0.015": 0.0,
			"-0.014": 0.0,
			"-0.013": 0.0,
			"-0.012": 0.0,
			"-0.011": 0.0,
			"-0.01": 0.0,
			"-0.009": 1.25338589589,
			"-0.008": 4.59590955083,
			"-0.007": 10.9589769316,
			"-0.006": 15.2610977292,
			"-0.005": 15.3072167262,
			"-0.004": 17.3614147697,
			"-0.003": 13.2478282405,
			"-0.002": 12.3035989575,
			"-0.001": 13.3001791137,
			"0.0": 20.5801494479,
			"0.001": 19.9278906995,
			"0.002": 29.0915758264,
			"0.003": 35.6176990716,
			"0.004": 40.5272324011,
			"0.005": 15.9821126711,
			"0.006": 1.28376066832,
			"0.007": 0.0,
			"0.008": 0.0,
			"0.009": 0.0,
			"0.01": 0.0,
			"0.011": 0.0,
			"0.012": 0.0,
			"0.013": 0.0,
			"0.014": 0.0,
			"0.015": 0.0,
			"0.016": 0.0,
			"0.017": 0.0,
			"0.018": 0.0,
			"0.019": 0.0,
			"0.02": 0.0,
			"0.021": 0.0,
			"0.022": 0.0,
			"0.023": 0.0,
			"0.024": 0.0,
			"0.025": 0.0
		}
	}
}
