{
	 "smiles": "CC(C)(C)NS(=O)(=O)CC1=CC(=CC=C1)C(O)=O", 
	 "Tm": 473.15, 
	 "num_atms": 35, 
	 "gaussian": { 
		 "optdone": 1, 
		 "sigma_profile": "yes", 
		 "theory": "DFT", 
		 "functional": "B3LYP", 
		 "basiset": "6-31G**", 
		 "properties": { 
			 "R2extent": 6585.4116, 
			 "electric_dipole_moment_norm": 6.55612482035, 
			 "electric_quadrupole_moment_norm": 23.6345121909, 
			 "total_energy": -1221.31900087, 
			 "HOMO_LUMO_gap": 0.20955, 
			 "cosmo_polarized_energy": -21.85, 
			 "cosmo_cavitation_energy": 38.98, 
			 "cosmo_dispersion_energy": -26.65, 
			 "cosmo_repulsion_energy": 2.0, 
			 "cosmo_total_nonelectrostatic_energy": 14.34, 
			 "SMD_solvation_energy": 6.96 
		},
		"coords": [
			{
				"x": 3.4033507869,
				"y": -2.9620887568,
				"z": -0.2699124324,
				"element": "C" 
			},
			{
				"x": 2.0030219988,
				"y": -2.544027088,
				"z": 0.2163028014,
				"element": "C" 
			},
			{
				"x": 2.04726802,
				"y": -2.0778283872,
				"z": 1.6792982973,
				"element": "C" 
			},
			{
				"x": 1.0238843496,
				"y": -3.7229515925,
				"z": 0.079905679,
				"element": "C" 
			},
			{
				"x": 1.4140627387,
				"y": -1.4661172262,
				"z": -0.6415768302,
				"element": "N" 
			},
			{
				"x": 2.0442351863,
				"y": 0.087039716,
				"z": -0.7908268153,
				"element": "S" 
			},
			{
				"x": 1.8793908188,
				"y": 0.4484478158,
				"z": -2.2068227871,
				"element": "O" 
			},
			{
				"x": 3.3486902204,
				"y": 0.2098844706,
				"z": -0.1276518746,
				"element": "O" 
			},
			{
				"x": 0.8875980428,
				"y": 1.1176815364,
				"z": 0.18744267,
				"element": "C" 
			},
			{
				"x": -0.5199278401,
				"y": 1.1199737741,
				"z": -0.3376534411,
				"element": "C" 
			},
			{
				"x": -0.8216691069,
				"y": 1.7814641944,
				"z": -1.5344704101,
				"element": "C" 
			},
			{
				"x": -2.1217830582,
				"y": 1.7747256007,
				"z": -2.0486773622,
				"element": "C" 
			},
			{
				"x": -3.1452066547,
				"y": 1.1340333762,
				"z": -1.3366642665,
				"element": "C" 
			},
			{
				"x": -2.8535063221,
				"y": 0.4722202927,
				"z": -0.1477914943,
				"element": "C" 
			},
			{
				"x": -1.54585057,
				"y": 0.4555552801,
				"z": 0.3436942425,
				"element": "C" 
			},
			{
				"x": -2.4794623015,
				"y": 2.455140188,
				"z": -3.3375527989,
				"element": "C" 
			},
			{
				"x": -1.4667322939,
				"y": 2.6577208807,
				"z": -4.2197389008,
				"element": "O" 
			},
			{
				"x": -3.6023634324,
				"y": 2.8116281317,
				"z": -3.6076340433,
				"element": "O" 
			},
			{
				"x": 4.1052347424,
				"y": -2.1294879427,
				"z": -0.198060466,
				"element": "H" 
			},
			{
				"x": 3.7820202303,
				"y": -3.793440534,
				"z": 0.3341949949,
				"element": "H" 
			},
			{
				"x": 3.366173725,
				"y": -3.2958816898,
				"z": -1.3128455622,
				"element": "H" 
			},
			{
				"x": 2.7344781395,
				"y": -1.2391634005,
				"z": 1.8106889001,
				"element": "H" 
			},
			{
				"x": 1.0497934733,
				"y": -1.7850823692,
				"z": 2.023424128,
				"element": "H" 
			},
			{
				"x": 2.3941040362,
				"y": -2.8990321799,
				"z": 2.3134777451,
				"element": "H" 
			},
			{
				"x": 0.9606350176,
				"y": -4.0679764305,
				"z": -0.9586834524,
				"element": "H" 
			},
			{
				"x": 1.3673581375,
				"y": -4.5657498474,
				"z": 0.68708651,
				"element": "H" 
			},
			{
				"x": 0.0203626219,
				"y": -3.4397095022,
				"z": 0.4097867398,
				"element": "H" 
			},
			{
				"x": 1.1971761943,
				"y": -1.7831239558,
				"z": -1.5831880525,
				"element": "H" 
			},
			{
				"x": 1.3508714449,
				"y": 2.1085245579,
				"z": 0.1483370362,
				"element": "H" 
			},
			{
				"x": 0.9539546748,
				"y": 0.7484415702,
				"z": 1.2126961223,
				"element": "H" 
			},
			{
				"x": -0.0233887237,
				"y": 2.3087172305,
				"z": -2.0479185321,
				"element": "H" 
			},
			{
				"x": -4.1532008992,
				"y": 1.1662453201,
				"z": -1.7357711334,
				"element": "H" 
			},
			{
				"x": -3.6426600418,
				"y": -0.0341613335,
				"z": 0.3996257582,
				"element": "H" 
			},
			{
				"x": -1.3226428029,
				"y": -0.0677807206,
				"z": 1.2693512754,
				"element": "H" 
			},
			{
				"x": -0.6746705526,
				"y": 2.172459021,
				"z": -3.9463722448,
				"element": "H" 
			}
		],
		 "valence_orbital": [ 
			{
				"type": "occ",
				"energy": -0.31096,
				"method": "rhf"
			},
			{
				"type": "occ",
				"energy": -0.28247,
				"method": "rhf"
			},
			{
				"type": "occ",
				"energy": -0.27614,
				"method": "rhf"
			},
			{
				"type": "occ",
				"energy": -0.27182,
				"method": "rhf"
			},
			{
				"type": "occ",
				"energy": -0.26381,
				"method": "rhf"
			},
			{
				"type": "unocc",
				"energy": -0.05426,
				"method": "rhf"
			},
			{
				"type": "unocc",
				"energy": -0.03598,
				"method": "rhf"
			},
			{
				"type": "unocc",
				"energy": 0.03712,
				"method": "rhf"
			},
			{
				"type": "unocc",
				"energy": 0.04663,
				"method": "rhf"
			},
			{
				"type": "unocc",
				"energy": 0.05625,
				"method": "rhf"
			}
		],
		"cosmo_sigma_profile": { 
			"-0.025": 0.0,
			"-0.024": 0.0,
			"-0.023": 0.0,
			"-0.022": 0.0,
			"-0.021": 0.0,
			"-0.02": 0.0,
			"-0.019": 0.0,
			"-0.018": 0.0,
			"-0.017": 0.0,
			"-0.016": 0.375077196305,
			"-0.015": 1.53509333246,
			"-0.014": 1.06405176919,
			"-0.013": 1.8809029539,
			"-0.012": 1.66647943455,
			"-0.011": 2.43821494232,
			"-0.01": 2.31125791676,
			"-0.009": 5.38738465917,
			"-0.008": 8.09488373638,
			"-0.007": 10.6938490666,
			"-0.006": 13.9333202423,
			"-0.005": 15.505917695,
			"-0.004": 22.4763561464,
			"-0.003": 22.6895196088,
			"-0.002": 22.5314551667,
			"-0.001": 24.0591821652,
			"0.0": 28.5537636087,
			"0.001": 23.772509971,
			"0.002": 17.1816017855,
			"0.003": 12.2211204402,
			"0.004": 5.49580870036,
			"0.005": 6.65213935169,
			"0.006": 5.46514556448,
			"0.007": 5.61852098893,
			"0.008": 6.04335064651,
			"0.009": 7.7784758999,
			"0.01": 8.60636330229,
			"0.011": 12.7023435107,
			"0.012": 8.68844212899,
			"0.013": 1.40893357508,
			"0.014": 0.0208056505339,
			"0.015": 0.0,
			"0.016": 0.0,
			"0.017": 0.0,
			"0.018": 0.0,
			"0.019": 0.0,
			"0.02": 0.0,
			"0.021": 0.0,
			"0.022": 0.0,
			"0.023": 0.0,
			"0.024": 0.0,
			"0.025": 0.0
		}
	}
}
