{
	 "smiles": "NC(=N)N1CCC2=CC=CC=C2C1", 
	 "Tm": 552.15, 
	 "num_atms": 26, 
	 "gaussian": { 
		 "optdone": 1, 
		 "sigma_profile": "yes", 
		 "theory": "DFT", 
		 "functional": "B3LYP", 
		 "basiset": "6-31G**", 
		 "properties": { 
			 "R2extent": 2917.3865, 
			 "electric_dipole_moment_norm": 2.78377616377, 
			 "electric_quadrupole_moment_norm": 9.79132109983, 
			 "total_energy": -553.156520647, 
			 "HOMO_LUMO_gap": 0.21623, 
			 "cosmo_polarized_energy": -13.66, 
			 "cosmo_cavitation_energy": 27.94, 
			 "cosmo_dispersion_energy": -20.83, 
			 "cosmo_repulsion_energy": 1.64, 
			 "cosmo_total_nonelectrostatic_energy": 8.76, 
			 "SMD_solvation_energy": 2.63 
		},
		"coords": [
			{
				"x": -1.0908372116,
				"y": 1.7483367588,
				"z": -2.0903596152,
				"element": "N" 
			},
			{
				"x": -1.5072540221,
				"y": 1.178920478,
				"z": -0.87378964,
				"element": "C" 
			},
			{
				"x": -2.6506589908,
				"y": 1.3427597862,
				"z": -0.3091196184,
				"element": "N" 
			},
			{
				"x": -0.5445772185,
				"y": 0.3658787739,
				"z": -0.2807275597,
				"element": "N" 
			},
			{
				"x": 0.3023589326,
				"y": -0.5140261209,
				"z": -1.0914201271,
				"element": "C" 
			},
			{
				"x": 1.6621714054,
				"y": -0.6715652675,
				"z": -0.4112831571,
				"element": "C" 
			},
			{
				"x": 1.5092142275,
				"y": -1.0633252543,
				"z": 1.0443701459,
				"element": "C" 
			},
			{
				"x": 2.571516147,
				"y": -1.6539983856,
				"z": 1.7426000216,
				"element": "C" 
			},
			{
				"x": 2.442908577,
				"y": -2.0123973523,
				"z": 3.0819255916,
				"element": "C" 
			},
			{
				"x": 1.233742394,
				"y": -1.783146854,
				"z": 3.7440367316,
				"element": "C" 
			},
			{
				"x": 0.1729841011,
				"y": -1.1972776507,
				"z": 3.0584528759,
				"element": "C" 
			},
			{
				"x": 0.2959932948,
				"y": -0.8300285523,
				"z": 1.711316267,
				"element": "C" 
			},
			{
				"x": -0.9012591004,
				"y": -0.2159811347,
				"z": 1.0102223814,
				"element": "C" 
			},
			{
				"x": -1.7321205559,
				"y": 2.4496692074,
				"z": -2.435570964,
				"element": "H" 
			},
			{
				"x": -0.1372899637,
				"y": 2.0911253793,
				"z": -2.0821195371,
				"element": "H" 
			},
			{
				"x": -3.1892064355,
				"y": 2.0682557272,
				"z": -0.7831039677,
				"element": "H" 
			},
			{
				"x": 0.4071354883,
				"y": -0.0997466993,
				"z": -2.0939337728,
				"element": "H" 
			},
			{
				"x": -0.1767032886,
				"y": -1.5021280067,
				"z": -1.2000200128,
				"element": "H" 
			},
			{
				"x": 2.2597516918,
				"y": -1.4213272192,
				"z": -0.9439370272,
				"element": "H" 
			},
			{
				"x": 2.2094780878,
				"y": 0.2786236081,
				"z": -0.483755421,
				"element": "H" 
			},
			{
				"x": 3.5092319152,
				"y": -1.8360644792,
				"z": 1.2218747229,
				"element": "H" 
			},
			{
				"x": 3.2769185441,
				"y": -2.4707829722,
				"z": 3.6057448067,
				"element": "H" 
			},
			{
				"x": 1.1200529199,
				"y": -2.0580918375,
				"z": 4.7887992817,
				"element": "H" 
			},
			{
				"x": -0.7687731843,
				"y": -1.0167989555,
				"z": 3.5722614541,
				"element": "H" 
			},
			{
				"x": -1.6913941597,
				"y": -0.976627638,
				"z": 0.8872907808,
				"element": "H" 
			},
			{
				"x": -1.3449835956,
				"y": 0.571244661,
				"z": 1.6238453592,
				"element": "H" 
			}
		],
		 "valence_orbital": [ 
			{
				"type": "occ",
				"energy": -0.26002,
				"method": "rhf"
			},
			{
				"type": "occ",
				"energy": -0.24617,
				"method": "rhf"
			},
			{
				"type": "occ",
				"energy": -0.2387,
				"method": "rhf"
			},
			{
				"type": "occ",
				"energy": -0.23124,
				"method": "rhf"
			},
			{
				"type": "occ",
				"energy": -0.21501,
				"method": "rhf"
			},
			{
				"type": "unocc",
				"energy": 0.00122,
				"method": "rhf"
			},
			{
				"type": "unocc",
				"energy": 0.00765,
				"method": "rhf"
			},
			{
				"type": "unocc",
				"energy": 0.05037,
				"method": "rhf"
			},
			{
				"type": "unocc",
				"energy": 0.07622,
				"method": "rhf"
			},
			{
				"type": "unocc",
				"energy": 0.10431,
				"method": "rhf"
			}
		],
		"cosmo_sigma_profile": { 
			"-0.025": 0.0,
			"-0.024": 0.0,
			"-0.023": 0.0,
			"-0.022": 0.0,
			"-0.021": 0.0,
			"-0.02": 0.0,
			"-0.019": 0.0,
			"-0.018": 0.0,
			"-0.017": 0.0,
			"-0.016": 0.0,
			"-0.015": 0.0,
			"-0.014": 0.0414783965237,
			"-0.013": 1.6597454314,
			"-0.012": 3.19470397785,
			"-0.011": 2.96604212945,
			"-0.01": 3.06577398938,
			"-0.009": 3.81608085179,
			"-0.008": 2.72454866675,
			"-0.007": 2.62958907316,
			"-0.006": 3.92709315039,
			"-0.005": 11.4096346519,
			"-0.004": 18.9712796285,
			"-0.003": 26.4583043789,
			"-0.002": 22.7126343693,
			"-0.001": 16.9933401632,
			"0.0": 10.8583489223,
			"0.001": 9.74315950887,
			"0.002": 9.70972795115,
			"0.003": 9.53380474865,
			"0.004": 10.9727670034,
			"0.005": 12.0071239494,
			"0.006": 11.9100454672,
			"0.007": 6.41064111049,
			"0.008": 2.63935863302,
			"0.009": 1.80570465516,
			"0.01": 1.91669971663,
			"0.011": 2.09233322784,
			"0.012": 1.9149172481,
			"0.013": 1.74926004311,
			"0.014": 1.01174946374,
			"0.015": 1.62392609234,
			"0.016": 0.522271300936,
			"0.017": 1.22375498282,
			"0.018": 0.794012937088,
			"0.019": 0.538651469306,
			"0.02": 0.0,
			"0.021": 0.0,
			"0.022": 0.0,
			"0.023": 0.0,
			"0.024": 0.0,
			"0.025": 0.0
		}
	}
}
