{
	 "smiles": "OCC1=CC=CC=C1S", 
	 "Tm": 305.15, 
	 "num_atms": 17, 
	 "gaussian": { 
		 "optdone": 1, 
		 "sigma_profile": "yes", 
		 "theory": "DFT", 
		 "functional": "B3LYP", 
		 "basiset": "6-31G**", 
		 "properties": { 
			 "R2extent": 2094.0867, 
			 "electric_dipole_moment_norm": 2.31678771362, 
			 "electric_quadrupole_moment_norm": 10.8676137523, 
			 "total_energy": -744.961834346, 
			 "HOMO_LUMO_gap": 0.21253, 
			 "cosmo_polarized_energy": -8.72, 
			 "cosmo_cavitation_energy": 21.76, 
			 "cosmo_dispersion_energy": -16.79, 
			 "cosmo_repulsion_energy": 1.32, 
			 "cosmo_total_nonelectrostatic_energy": 6.3, 
			 "SMD_solvation_energy": 3.28 
		},
		"coords": [
			{
				"x": 3.6584321528,
				"y": 0.7778857045,
				"z": -1.2960589812,
				"element": "O" 
			},
			{
				"x": 3.2496373367,
				"y": 1.1730268132,
				"z": 0.0071295779,
				"element": "C" 
			},
			{
				"x": 1.7777629194,
				"y": 1.5383826199,
				"z": 0.0947036894,
				"element": "C" 
			},
			{
				"x": 1.3897095517,
				"y": 2.8797397334,
				"z": 0.1880136642,
				"element": "C" 
			},
			{
				"x": 0.0466641879,
				"y": 3.2522894934,
				"z": 0.2325918318,
				"element": "C" 
			},
			{
				"x": -0.9399636612,
				"y": 2.2678751757,
				"z": 0.1856667551,
				"element": "C" 
			},
			{
				"x": -0.5805187038,
				"y": 0.9229474254,
				"z": 0.1031782132,
				"element": "C" 
			},
			{
				"x": 0.7688241697,
				"y": 0.5573323095,
				"z": 0.0530402766,
				"element": "C" 
			},
			{
				"x": 1.2567375659,
				"y": -1.1742998771,
				"z": -0.0377880242,
				"element": "S" 
			},
			{
				"x": 3.1949658055,
				"y": -0.0461627584,
				"z": -1.5040166893,
				"element": "H" 
			},
			{
				"x": 3.4903570398,
				"y": 0.3970967148,
				"z": 0.7519566884,
				"element": "H" 
			},
			{
				"x": 3.8533433688,
				"y": 2.0499359332,
				"z": 0.2572754407,
				"element": "H" 
			},
			{
				"x": 2.1629634566,
				"y": 3.6432518684,
				"z": 0.2157146515,
				"element": "H" 
			},
			{
				"x": -0.2264758563,
				"y": 4.300854482,
				"z": 0.3011654083,
				"element": "H" 
			},
			{
				"x": -1.9908892545,
				"y": 2.5400565938,
				"z": 0.2193443224,
				"element": "H" 
			},
			{
				"x": -1.3519110795,
				"y": 0.1584768193,
				"z": 0.0835950348,
				"element": "H" 
			},
			{
				"x": 0.1156610005,
				"y": -1.6276890509,
				"z": -0.5885118596,
				"element": "H" 
			}
		],
		 "valence_orbital": [ 
			{
				"type": "occ",
				"energy": -0.33027,
				"method": "rhf"
			},
			{
				"type": "occ",
				"energy": -0.29718,
				"method": "rhf"
			},
			{
				"type": "occ",
				"energy": -0.26577,
				"method": "rhf"
			},
			{
				"type": "occ",
				"energy": -0.25499,
				"method": "rhf"
			},
			{
				"type": "occ",
				"energy": -0.22917,
				"method": "rhf"
			},
			{
				"type": "unocc",
				"energy": -0.01664,
				"method": "rhf"
			},
			{
				"type": "unocc",
				"energy": -0.01265,
				"method": "rhf"
			},
			{
				"type": "unocc",
				"energy": 0.01502,
				"method": "rhf"
			},
			{
				"type": "unocc",
				"energy": 0.05862,
				"method": "rhf"
			},
			{
				"type": "unocc",
				"energy": 0.10238,
				"method": "rhf"
			}
		],
		"cosmo_sigma_profile": { 
			"-0.025": 0.0,
			"-0.024": 0.0,
			"-0.023": 0.0,
			"-0.022": 0.0,
			"-0.021": 0.0,
			"-0.02": 0.0,
			"-0.019": 0.0,
			"-0.018": 0.0,
			"-0.017": 0.0,
			"-0.016": 0.0,
			"-0.015": 0.0,
			"-0.014": 0.0,
			"-0.013": 0.0,
			"-0.012": 0.0,
			"-0.011": 1.06508963428,
			"-0.01": 3.49651710183,
			"-0.009": 2.53535481251,
			"-0.008": 2.64655276531,
			"-0.007": 3.20259113802,
			"-0.006": 10.2265122577,
			"-0.005": 13.9313737987,
			"-0.004": 15.1668564652,
			"-0.003": 13.5470850153,
			"-0.002": 13.3386533326,
			"-0.001": 8.65358926872,
			"0.0": 7.96580919986,
			"0.001": 11.4066021036,
			"0.002": 9.47243631076,
			"0.003": 12.3851175711,
			"0.004": 12.2389300561,
			"0.005": 12.818801002,
			"0.006": 4.88679928992,
			"0.007": 3.0182402929,
			"0.008": 2.5261224283,
			"0.009": 1.51860600876,
			"0.01": 1.40162070042,
			"0.011": 1.51402290524,
			"0.012": 1.34459774475,
			"0.013": 1.45758203442,
			"0.014": 2.6730690296,
			"0.015": 0.525837527117,
			"0.016": 0.0,
			"0.017": 0.0,
			"0.018": 0.0,
			"0.019": 0.0,
			"0.02": 0.0,
			"0.021": 0.0,
			"0.022": 0.0,
			"0.023": 0.0,
			"0.024": 0.0,
			"0.025": 0.0
		}
	}
}
