{
	 "smiles": "OC1COC2=C1C=C(Br)C=C2", 
	 "Tm": 353.15, 
	 "num_atms": 18, 
	 "gaussian": { 
		 "optdone": 1, 
		 "sigma_profile": "yes", 
		 "theory": "DFT", 
		 "functional": "B3LYP", 
		 "basiset": "6-31G**", 
		 "properties": { 
			 "R2extent": 4364.334, 
			 "electric_dipole_moment_norm": 1.60368022062, 
			 "electric_quadrupole_moment_norm": 5.80075345796, 
			 "total_energy": -3030.90126321, 
			 "HOMO_LUMO_gap": 0.19453, 
			 "cosmo_polarized_energy": -8.91, 
			 "cosmo_cavitation_energy": 24.08, 
			 "cosmo_dispersion_energy": -18.47, 
			 "cosmo_repulsion_energy": 1.49, 
			 "cosmo_total_nonelectrostatic_energy": 7.1, 
			 "SMD_solvation_energy": 3.04 
		},
		"coords": [
			{
				"x": 1.5000547582,
				"y": 0.2933452566,
				"z": -1.4316169044,
				"element": "O" 
			},
			{
				"x": 0.1694267091,
				"y": 0.4805456048,
				"z": -0.9617462405,
				"element": "C" 
			},
			{
				"x": 0.0041521392,
				"y": 1.6726580526,
				"z": 0.0182403841,
				"element": "C" 
			},
			{
				"x": -0.1318935886,
				"y": 1.1254636936,
				"z": 1.3552910244,
				"element": "O" 
			},
			{
				"x": -0.4227163141,
				"y": -0.1981312872,
				"z": 1.2177583638,
				"element": "C" 
			},
			{
				"x": -0.3300073625,
				"y": -0.6568277885,
				"z": -0.0990483184,
				"element": "C" 
			},
			{
				"x": -0.5739948086,
				"y": -1.9926174239,
				"z": -0.4017536486,
				"element": "C" 
			},
			{
				"x": -0.9339451916,
				"y": -2.8435541529,
				"z": 0.6451441094,
				"element": "C" 
			},
			{
				"x": -1.2995542416,
				"y": -4.685165711,
				"z": 0.2727251238,
				"element": "Br" 
			},
			{
				"x": -1.0307303624,
				"y": -2.3829684348,
				"z": 1.9623492523,
				"element": "C" 
			},
			{
				"x": -0.7724050973,
				"y": -1.0445806632,
				"z": 2.2677355428,
				"element": "C" 
			},
			{
				"x": 2.0225550006,
				"y": -0.0669930641,
				"z": -0.7014990438,
				"element": "H" 
			},
			{
				"x": -0.4259213077,
				"y": 0.638836095,
				"z": -1.8654331261,
				"element": "H" 
			},
			{
				"x": -0.9025423932,
				"y": 2.2477103359,
				"z": -0.2015435451,
				"element": "H" 
			},
			{
				"x": 0.8716217803,
				"y": 2.3359280593,
				"z": -0.0007735353,
				"element": "H" 
			},
			{
				"x": -0.4878688389,
				"y": -2.3658473164,
				"z": -1.4163170342,
				"element": "H" 
			},
			{
				"x": -1.3115027911,
				"y": -3.0723970679,
				"z": 2.7505225702,
				"element": "H" 
			},
			{
				"x": -0.8422280897,
				"y": -0.6748041878,
				"z": 3.2846650255,
				"element": "H" 
			}
		],
		 "valence_orbital": [ 
			{
				"type": "occ",
				"energy": -0.29159,
				"method": "rhf"
			},
			{
				"type": "occ",
				"energy": -0.28786,
				"method": "rhf"
			},
			{
				"type": "occ",
				"energy": -0.28287,
				"method": "rhf"
			},
			{
				"type": "occ",
				"energy": -0.26546,
				"method": "rhf"
			},
			{
				"type": "occ",
				"energy": -0.22236,
				"method": "rhf"
			},
			{
				"type": "unocc",
				"energy": -0.02783,
				"method": "rhf"
			},
			{
				"type": "unocc",
				"energy": -0.00404,
				"method": "rhf"
			},
			{
				"type": "unocc",
				"energy": 0.00705,
				"method": "rhf"
			},
			{
				"type": "unocc",
				"energy": 0.08139,
				"method": "rhf"
			},
			{
				"type": "unocc",
				"energy": 0.10036,
				"method": "rhf"
			}
		],
		"cosmo_sigma_profile": { 
			"-0.025": 0.0,
			"-0.024": 0.0,
			"-0.023": 0.0,
			"-0.022": 0.0,
			"-0.021": 0.0,
			"-0.02": 0.0,
			"-0.019": 0.0,
			"-0.018": 0.0,
			"-0.017": 0.0,
			"-0.016": 0.218922168564,
			"-0.015": 0.803838471341,
			"-0.014": 1.25725733348,
			"-0.013": 0.372663753492,
			"-0.012": 0.906178164174,
			"-0.011": 1.30264489153,
			"-0.01": 0.878720897919,
			"-0.009": 0.783053167386,
			"-0.008": 1.33342679278,
			"-0.007": 7.05004528608,
			"-0.006": 15.7211793511,
			"-0.005": 12.7294736168,
			"-0.004": 13.5105468661,
			"-0.003": 11.1279251244,
			"-0.002": 10.0345197236,
			"-0.001": 9.971960302,
			"0.0": 10.105447446,
			"0.001": 12.719698003,
			"0.002": 17.7537071632,
			"0.003": 20.9383015289,
			"0.004": 14.6936600605,
			"0.005": 11.578121349,
			"0.006": 3.04324367771,
			"0.007": 2.13872266308,
			"0.008": 2.20364600771,
			"0.009": 2.28665820261,
			"0.01": 2.77418333439,
			"0.011": 2.40648053843,
			"0.012": 1.2993635255,
			"0.013": 2.15105572285,
			"0.014": 1.04860648047,
			"0.015": 0.0,
			"0.016": 0.0,
			"0.017": 0.0,
			"0.018": 0.0,
			"0.019": 0.0,
			"0.02": 0.0,
			"0.021": 0.0,
			"0.022": 0.0,
			"0.023": 0.0,
			"0.024": 0.0,
			"0.025": 0.0
		}
	}
}
