{
	 "smiles": "COC1=CC2=C(C=C1OC)C(=NCC2)C1=CC=CC=C1", 
	 "Tm": 396.15, 
	 "num_atms": 37, 
	 "gaussian": { 
		 "optdone": 1, 
		 "sigma_profile": "yes", 
		 "theory": "DFT", 
		 "functional": "B3LYP", 
		 "basiset": "6-31G**", 
		 "properties": { 
			 "R2extent": 6787.478, 
			 "electric_dipole_moment_norm": 2.26901829213, 
			 "electric_quadrupole_moment_norm": 6.25356587716, 
			 "total_energy": -863.2216671, 
			 "HOMO_LUMO_gap": 0.17468, 
			 "cosmo_polarized_energy": -9.88, 
			 "cosmo_cavitation_energy": 39.33, 
			 "cosmo_dispersion_energy": -28.08, 
			 "cosmo_repulsion_energy": 2.18, 
			 "cosmo_total_nonelectrostatic_energy": 13.43, 
			 "SMD_solvation_energy": 4.98 
		},
		"coords": [
			{
				"x": 0.9419112723,
				"y": -4.9817253907,
				"z": -2.5209718627,
				"element": "C" 
			},
			{
				"x": 1.8843954974,
				"y": -3.9010282144,
				"z": -2.5163231974,
				"element": "O" 
			},
			{
				"x": 1.584487422,
				"y": -2.8639809745,
				"z": -1.6658885165,
				"element": "C" 
			},
			{
				"x": 2.4543484779,
				"y": -2.594924856,
				"z": -0.6062687814,
				"element": "C" 
			},
			{
				"x": 2.2196851495,
				"y": -1.5353727752,
				"z": 0.2673829957,
				"element": "C" 
			},
			{
				"x": 1.0684545107,
				"y": -0.7370826338,
				"z": 0.1021437807,
				"element": "C" 
			},
			{
				"x": 0.216539523,
				"y": -0.9869301491,
				"z": -0.9839884969,
				"element": "C" 
			},
			{
				"x": 0.4665156932,
				"y": -2.0329183134,
				"z": -1.8696618861,
				"element": "C" 
			},
			{
				"x": -0.4106441504,
				"y": -2.2495319595,
				"z": -2.9113792642,
				"element": "O" 
			},
			{
				"x": 0.1160893672,
				"y": -1.9391112277,
				"z": -4.2071469862,
				"element": "C" 
			},
			{
				"x": 0.8690952871,
				"y": 0.3974538479,
				"z": 1.0501620462,
				"element": "C" 
			},
			{
				"x": 1.8339114626,
				"y": 0.9147760417,
				"z": 1.729218529,
				"element": "N" 
			},
			{
				"x": 3.1674319136,
				"y": 0.3363371643,
				"z": 1.5760835782,
				"element": "C" 
			},
			{
				"x": 3.1445552259,
				"y": -1.1856143475,
				"z": 1.4069127021,
				"element": "C" 
			},
			{
				"x": -0.484777216,
				"y": 1.0053961486,
				"z": 1.2330272436,
				"element": "C" 
			},
			{
				"x": -0.5891171735,
				"y": 2.3844998063,
				"z": 1.4762526808,
				"element": "C" 
			},
			{
				"x": -1.8308624106,
				"y": 2.9752620056,
				"z": 1.6952292915,
				"element": "C" 
			},
			{
				"x": -2.9912971065,
				"y": 2.1959873833,
				"z": 1.6891992769,
				"element": "C" 
			},
			{
				"x": -2.8986821497,
				"y": 0.8220869742,
				"z": 1.4646763733,
				"element": "C" 
			},
			{
				"x": -1.6554695436,
				"y": 0.23070793,
				"z": 1.2339961685,
				"element": "C" 
			},
			{
				"x": 1.3161925603,
				"y": -5.7073021044,
				"z": -3.2457597418,
				"element": "H" 
			},
			{
				"x": 0.8909349771,
				"y": -5.4525189302,
				"z": -1.5313123034,
				"element": "H" 
			},
			{
				"x": -0.0551141059,
				"y": -4.6416452822,
				"z": -2.8150151345,
				"element": "H" 
			},
			{
				"x": 3.3263158992,
				"y": -3.2319474927,
				"z": -0.4879105549,
				"element": "H" 
			},
			{
				"x": -0.6507285798,
				"y": -0.3635764589,
				"z": -1.1696147556,
				"element": "H" 
			},
			{
				"x": 0.9968023182,
				"y": -2.5477115416,
				"z": -4.4362919443,
				"element": "H" 
			},
			{
				"x": -0.6797387136,
				"y": -2.1583079643,
				"z": -4.921942914,
				"element": "H" 
			},
			{
				"x": 0.3801805913,
				"y": -0.8763088428,
				"z": -4.2741040242,
				"element": "H" 
			},
			{
				"x": 3.651521792,
				"y": 0.801930081,
				"z": 0.7024104059,
				"element": "H" 
			},
			{
				"x": 3.7611761637,
				"y": 0.618592154,
				"z": 2.4515383519,
				"element": "H" 
			},
			{
				"x": 2.7825904617,
				"y": -1.6419396509,
				"z": 2.3401882145,
				"element": "H" 
			},
			{
				"x": 4.1524325644,
				"y": -1.575538686,
				"z": 1.2298905372,
				"element": "H" 
			},
			{
				"x": 0.3207005045,
				"y": 2.9745560941,
				"z": 1.4956020059,
				"element": "H" 
			},
			{
				"x": -1.8953474437,
				"y": 4.045307041,
				"z": 1.8720978728,
				"element": "H" 
			},
			{
				"x": -3.9598998452,
				"y": 2.6569613104,
				"z": 1.8611221224,
				"element": "H" 
			},
			{
				"x": -3.7937609779,
				"y": 0.2064972073,
				"z": 1.471843204,
				"element": "H" 
			},
			{
				"x": -1.5931292186,
				"y": -0.8409333943,
				"z": 1.0743029832,
				"element": "H" 
			}
		],
		 "valence_orbital": [ 
			{
				"type": "occ",
				"energy": -0.24995,
				"method": "rhf"
			},
			{
				"type": "occ",
				"energy": -0.24456,
				"method": "rhf"
			},
			{
				"type": "occ",
				"energy": -0.24166,
				"method": "rhf"
			},
			{
				"type": "occ",
				"energy": -0.232,
				"method": "rhf"
			},
			{
				"type": "occ",
				"energy": -0.21914,
				"method": "rhf"
			},
			{
				"type": "unocc",
				"energy": -0.04446,
				"method": "rhf"
			},
			{
				"type": "unocc",
				"energy": -0.00812,
				"method": "rhf"
			},
			{
				"type": "unocc",
				"energy": 0.00015,
				"method": "rhf"
			},
			{
				"type": "unocc",
				"energy": 0.00552,
				"method": "rhf"
			},
			{
				"type": "unocc",
				"energy": 0.06335,
				"method": "rhf"
			}
		],
		"cosmo_sigma_profile": { 
			"-0.025": 0.0,
			"-0.024": 0.0,
			"-0.023": 0.0,
			"-0.022": 0.0,
			"-0.021": 0.0,
			"-0.02": 0.0,
			"-0.019": 0.0,
			"-0.018": 0.0,
			"-0.017": 0.0,
			"-0.016": 0.0,
			"-0.015": 0.0,
			"-0.014": 0.0,
			"-0.013": 0.0,
			"-0.012": 0.0,
			"-0.011": 0.0,
			"-0.01": 0.0,
			"-0.009": 0.0,
			"-0.008": 0.0,
			"-0.007": 0.0792569819773,
			"-0.006": 7.74796677829,
			"-0.005": 20.3419691678,
			"-0.004": 32.8455612963,
			"-0.003": 41.2991918074,
			"-0.002": 37.9535256591,
			"-0.001": 29.5849347324,
			"0.0": 23.1358266934,
			"0.001": 20.4721915828,
			"0.002": 19.1085304719,
			"0.003": 21.453084651,
			"0.004": 16.2520116297,
			"0.005": 14.0520452049,
			"0.006": 6.72441419168,
			"0.007": 4.76820895379,
			"0.008": 2.70626258084,
			"0.009": 3.08967984006,
			"0.01": 2.87461033044,
			"0.011": 3.61730747402,
			"0.012": 1.89264027608,
			"0.013": 0.630288358003,
			"0.014": 0.746438430436,
			"0.015": 0.688848429972,
			"0.016": 0.489610932704,
			"0.017": 0.0,
			"0.018": 0.0,
			"0.019": 0.0,
			"0.02": 0.0,
			"0.021": 0.0,
			"0.022": 0.0,
			"0.023": 0.0,
			"0.024": 0.0,
			"0.025": 0.0
		}
	}
}
