{
	 "smiles": "COC(=O)C1=CC(=CC(O)=C1)C(=O)OC", 
	 "Tm": 436.15, 
	 "num_atms": 25, 
	 "gaussian": { 
		 "optdone": 1, 
		 "sigma_profile": "yes", 
		 "theory": "DFT", 
		 "functional": "B3LYP", 
		 "basiset": "6-31G**", 
		 "properties": { 
			 "R2extent": 4223.9948, 
			 "electric_dipole_moment_norm": 2.4925064694, 
			 "electric_quadrupole_moment_norm": 12.5995132969, 
			 "total_energy": -763.228506627, 
			 "HOMO_LUMO_gap": 0.17924, 
			 "cosmo_polarized_energy": -14.51, 
			 "cosmo_cavitation_energy": 30.7, 
			 "cosmo_dispersion_energy": -22.25, 
			 "cosmo_repulsion_energy": 1.75, 
			 "cosmo_total_nonelectrostatic_energy": 10.21, 
			 "SMD_solvation_energy": 8.87 
		},
		"coords": [
			{
				"x": -0.429675954,
				"y": -4.0625117948,
				"z": 1.2092259663,
				"element": "C" 
			},
			{
				"x": -0.2253899866,
				"y": -2.760318618,
				"z": 0.639606546,
				"element": "O" 
			},
			{
				"x": -0.640798624,
				"y": -2.6207091427,
				"z": -0.6390046244,
				"element": "C" 
			},
			{
				"x": -1.1518900366,
				"y": -3.5217385187,
				"z": -1.2743352224,
				"element": "O" 
			},
			{
				"x": -0.3993973209,
				"y": -1.2452485438,
				"z": -1.1690146107,
				"element": "C" 
			},
			{
				"x": 0.1941448962,
				"y": -0.2412006464,
				"z": -0.393282089,
				"element": "C" 
			},
			{
				"x": 0.3894194143,
				"y": 1.0234801503,
				"z": -0.9545433546,
				"element": "C" 
			},
			{
				"x": -0.0024113413,
				"y": 1.2840147681,
				"z": -2.2737805428,
				"element": "C" 
			},
			{
				"x": -0.5930090324,
				"y": 0.2776363756,
				"z": -3.0393698334,
				"element": "C" 
			},
			{
				"x": -0.9951587933,
				"y": 0.4698521228,
				"z": -4.3277929949,
				"element": "O" 
			},
			{
				"x": -0.7922139489,
				"y": -0.9904953378,
				"z": -2.4857232614,
				"element": "C" 
			},
			{
				"x": 1.0137579098,
				"y": 2.1479578514,
				"z": -0.1978810409,
				"element": "C" 
			},
			{
				"x": 1.1993037655,
				"y": 3.260136561,
				"z": -0.6539735,
				"element": "O" 
			},
			{
				"x": 1.3553638573,
				"y": 1.7984139991,
				"z": 1.0609643011,
				"element": "O" 
			},
			{
				"x": 1.9622019423,
				"y": 2.8395650581,
				"z": 1.8420841086,
				"element": "C" 
			},
			{
				"x": 0.1111998361,
				"y": -4.8213149189,
				"z": 0.6381992389,
				"element": "H" 
			},
			{
				"x": -1.4923028554,
				"y": -4.3178616402,
				"z": 1.2140863872,
				"element": "H" 
			},
			{
				"x": -0.0449919217,
				"y": -4.0016297343,
				"z": 2.2271306602,
				"element": "H" 
			},
			{
				"x": 0.4967815413,
				"y": -0.4417734125,
				"z": 0.6249727063,
				"element": "H" 
			},
			{
				"x": 0.1652799123,
				"y": 2.2792606631,
				"z": -2.6766002488,
				"element": "H" 
			},
			{
				"x": -0.8034859429,
				"y": 1.379852181,
				"z": -4.5899436893,
				"element": "H" 
			},
			{
				"x": -1.2503229304,
				"y": -1.7774219529,
				"z": -3.0737347048,
				"element": "H" 
			},
			{
				"x": 1.2819390733,
				"y": 3.6885728696,
				"z": 1.9459486619,
				"element": "H" 
			},
			{
				"x": 2.1704983908,
				"y": 2.3935974457,
				"z": 2.8144031203,
				"element": "H" 
			},
			{
				"x": 2.8860581492,
				"y": 3.1847842151,
				"z": 1.3712580207,
				"element": "H" 
			}
		],
		 "valence_orbital": [ 
			{
				"type": "occ",
				"energy": -0.30436,
				"method": "rhf"
			},
			{
				"type": "occ",
				"energy": -0.28311,
				"method": "rhf"
			},
			{
				"type": "occ",
				"energy": -0.27362,
				"method": "rhf"
			},
			{
				"type": "occ",
				"energy": -0.26729,
				"method": "rhf"
			},
			{
				"type": "occ",
				"energy": -0.23769,
				"method": "rhf"
			},
			{
				"type": "unocc",
				"energy": -0.05845,
				"method": "rhf"
			},
			{
				"type": "unocc",
				"energy": -0.03506,
				"method": "rhf"
			},
			{
				"type": "unocc",
				"energy": 0.04112,
				"method": "rhf"
			},
			{
				"type": "unocc",
				"energy": 0.06479,
				"method": "rhf"
			},
			{
				"type": "unocc",
				"energy": 0.07919,
				"method": "rhf"
			}
		],
		"cosmo_sigma_profile": { 
			"-0.025": 0.0,
			"-0.024": 0.0,
			"-0.023": 0.0,
			"-0.022": 0.0,
			"-0.021": 0.0,
			"-0.02": 0.0,
			"-0.019": 0.287681583157,
			"-0.018": 1.1357363657,
			"-0.017": 1.00212427837,
			"-0.016": 1.20730034299,
			"-0.015": 1.28942927613,
			"-0.014": 0.818099463962,
			"-0.013": 0.652561932967,
			"-0.012": 0.793056601731,
			"-0.011": 1.18627359261,
			"-0.01": 1.93338461522,
			"-0.009": 0.551782935104,
			"-0.008": 0.742591903664,
			"-0.007": 3.16403802485,
			"-0.006": 13.2580390976,
			"-0.005": 15.8425979448,
			"-0.004": 17.7887201808,
			"-0.003": 23.1423200855,
			"-0.002": 18.0247363835,
			"-0.001": 15.0488938767,
			"0.0": 16.3405379537,
			"0.001": 25.2076250343,
			"0.002": 21.4254497037,
			"0.003": 9.27337888793,
			"0.004": 7.8009067962,
			"0.005": 7.76457691425,
			"0.006": 6.35821623611,
			"0.007": 3.99032058291,
			"0.008": 3.78187305959,
			"0.009": 4.56616728002,
			"0.01": 6.20711529042,
			"0.011": 7.92503349143,
			"0.012": 6.07649188633,
			"0.013": 0.0496430758055,
			"0.014": 0.0,
			"0.015": 0.0,
			"0.016": 0.0,
			"0.017": 0.0,
			"0.018": 0.0,
			"0.019": 0.0,
			"0.02": 0.0,
			"0.021": 0.0,
			"0.022": 0.0,
			"0.023": 0.0,
			"0.024": 0.0,
			"0.025": 0.0
		}
	}
}
