{
	 "smiles": "OC(=O)CCN1C(=O)CSC2=C1C=CC=C2", 
	 "Tm": 418.15, 
	 "num_atms": 27, 
	 "gaussian": { 
		 "optdone": 1, 
		 "sigma_profile": "yes", 
		 "theory": "DFT", 
		 "functional": "B3LYP", 
		 "basiset": "6-31G**", 
		 "properties": { 
			 "R2extent": 3721.5503, 
			 "electric_dipole_moment_norm": 3.20839958858, 
			 "electric_quadrupole_moment_norm": 10.0160982483, 
			 "total_energy": -1104.43750623, 
			 "HOMO_LUMO_gap": 0.1868, 
			 "cosmo_polarized_energy": -17.73, 
			 "cosmo_cavitation_energy": 32.01, 
			 "cosmo_dispersion_energy": -22.84, 
			 "cosmo_repulsion_energy": 1.73, 
			 "cosmo_total_nonelectrostatic_energy": 10.89, 
			 "SMD_solvation_energy": 6.26 
		},
		"coords": [
			{
				"x": 3.8710307311,
				"y": 0.2454456309,
				"z": -0.6773662855,
				"element": "O" 
			},
			{
				"x": 2.6756881146,
				"y": 0.0732080614,
				"z": -1.2909808516,
				"element": "C" 
			},
			{
				"x": 2.1638528391,
				"y": 0.9196019922,
				"z": -1.9882343771,
				"element": "O" 
			},
			{
				"x": 2.0742591824,
				"y": -1.2764852523,
				"z": -0.9603760937,
				"element": "C" 
			},
			{
				"x": 1.357797838,
				"y": -1.253467189,
				"z": 0.4056960624,
				"element": "C" 
			},
			{
				"x": 0.1667252741,
				"y": -0.3924124031,
				"z": 0.4181151002,
				"element": "N" 
			},
			{
				"x": 0.2923638666,
				"y": 0.8164300089,
				"z": 1.0933457978,
				"element": "C" 
			},
			{
				"x": 1.3340839883,
				"y": 1.156167752,
				"z": 1.636794812,
				"element": "O" 
			},
			{
				"x": -0.9467723124,
				"y": 1.6895810661,
				"z": 1.1548966702,
				"element": "C" 
			},
			{
				"x": -1.6716147368,
				"y": 1.9008824126,
				"z": -0.5052282716,
				"element": "S" 
			},
			{
				"x": -1.9107014294,
				"y": 0.1686963388,
				"z": -0.8071951498,
				"element": "C" 
			},
			{
				"x": -0.9982872468,
				"y": -0.7847958588,
				"z": -0.2999971475,
				"element": "C" 
			},
			{
				"x": -1.2513900993,
				"y": -2.1425702075,
				"z": -0.5578420422,
				"element": "C" 
			},
			{
				"x": -2.3438448967,
				"y": -2.5418507981,
				"z": -1.3247573424,
				"element": "C" 
			},
			{
				"x": -3.2244057968,
				"y": -1.5932045929,
				"z": -1.8427061408,
				"element": "C" 
			},
			{
				"x": -3.0103257548,
				"y": -0.2456683672,
				"z": -1.5658711249,
				"element": "C" 
			},
			{
				"x": 4.1477759409,
				"y": 1.1567603755,
				"z": -0.8712994529,
				"element": "H" 
			},
			{
				"x": 1.3755069199,
				"y": -1.5418113211,
				"z": -1.7565231881,
				"element": "H" 
			},
			{
				"x": 2.8697204625,
				"y": -2.0268351266,
				"z": -0.9170068053,
				"element": "H" 
			},
			{
				"x": 2.0270845082,
				"y": -0.8586314147,
				"z": 1.1688198407,
				"element": "H" 
			},
			{
				"x": 1.0842007258,
				"y": -2.2704585577,
				"z": 0.6945041435,
				"element": "H" 
			},
			{
				"x": -0.6411362824,
				"y": 2.6674639783,
				"z": 1.5249814705,
				"element": "H" 
			},
			{
				"x": -1.6932886784,
				"y": 1.261586829,
				"z": 1.8329365072,
				"element": "H" 
			},
			{
				"x": -0.5883018383,
				"y": -2.9026377169,
				"z": -0.1633968415,
				"element": "H" 
			},
			{
				"x": -2.5038883389,
				"y": -3.5996445538,
				"z": -1.5095760257,
				"element": "H" 
			},
			{
				"x": -4.0775404038,
				"y": -1.8971703715,
				"z": -2.4408488297,
				"element": "H" 
			},
			{
				"x": -3.7014925765,
				"y": 0.5061192855,
				"z": -1.9348844342,
				"element": "H" 
			}
		],
		 "valence_orbital": [ 
			{
				"type": "occ",
				"energy": -0.29199,
				"method": "rhf"
			},
			{
				"type": "occ",
				"energy": -0.26935,
				"method": "rhf"
			},
			{
				"type": "occ",
				"energy": -0.26227,
				"method": "rhf"
			},
			{
				"type": "occ",
				"energy": -0.23644,
				"method": "rhf"
			},
			{
				"type": "occ",
				"energy": -0.21589,
				"method": "rhf"
			},
			{
				"type": "unocc",
				"energy": -0.02909,
				"method": "rhf"
			},
			{
				"type": "unocc",
				"energy": -0.01675,
				"method": "rhf"
			},
			{
				"type": "unocc",
				"energy": 0.00848,
				"method": "rhf"
			},
			{
				"type": "unocc",
				"energy": 0.01755,
				"method": "rhf"
			},
			{
				"type": "unocc",
				"energy": 0.03554,
				"method": "rhf"
			}
		],
		"cosmo_sigma_profile": { 
			"-0.025": 0.0,
			"-0.024": 0.0,
			"-0.023": 0.0,
			"-0.022": 0.0,
			"-0.021": 0.0,
			"-0.02": 0.0,
			"-0.019": 0.0690592310125,
			"-0.018": 0.672129678749,
			"-0.017": 0.862104799268,
			"-0.016": 0.899275160018,
			"-0.015": 1.13653975014,
			"-0.014": 0.467951630391,
			"-0.013": 0.370658817038,
			"-0.012": 0.434248156537,
			"-0.011": 1.15668717078,
			"-0.01": 0.879260567794,
			"-0.009": 2.17171176974,
			"-0.008": 6.80275187715,
			"-0.007": 10.4629172355,
			"-0.006": 17.7000530764,
			"-0.005": 19.7194766943,
			"-0.004": 20.9960060457,
			"-0.003": 17.4170845336,
			"-0.002": 13.9940514582,
			"-0.001": 13.3749522296,
			"0.0": 10.4338080716,
			"0.001": 11.5321931485,
			"0.002": 13.1606131583,
			"0.003": 17.4016917232,
			"0.004": 18.4904985649,
			"0.005": 11.6885888654,
			"0.006": 7.90895806831,
			"0.007": 6.10479987265,
			"0.008": 5.81352055866,
			"0.009": 4.10057349086,
			"0.01": 4.34987404496,
			"0.011": 5.45586291243,
			"0.012": 7.44037452486,
			"0.013": 2.83203232534,
			"0.014": 0.194389074367,
			"0.015": 0.0,
			"0.016": 0.0,
			"0.017": 0.0,
			"0.018": 0.0,
			"0.019": 0.0,
			"0.02": 0.0,
			"0.021": 0.0,
			"0.022": 0.0,
			"0.023": 0.0,
			"0.024": 0.0,
			"0.025": 0.0
		}
	}
}
