{
	 "smiles": "CC(C)(C)OC(=O)NC1CCCC1CN", 
	 "Tm": 373.15, 
	 "num_atms": 37, 
	 "gaussian": { 
		 "optdone": 1, 
		 "sigma_profile": "yes", 
		 "theory": "DFT", 
		 "functional": "B3LYP", 
		 "basiset": "6-31G**", 
		 "properties": { 
			 "R2extent": 4156.6979, 
			 "electric_dipole_moment_norm": 3.05226368618, 
			 "electric_quadrupole_moment_norm": 10.4152886028, 
			 "total_energy": -692.420099018, 
			 "HOMO_LUMO_gap": 0.29191, 
			 "cosmo_polarized_energy": -12.3, 
			 "cosmo_cavitation_energy": 36.94, 
			 "cosmo_dispersion_energy": -24.9, 
			 "cosmo_repulsion_energy": 1.99, 
			 "cosmo_total_nonelectrostatic_energy": 14.03, 
			 "SMD_solvation_energy": 5.59 
		},
		"coords": [
			{
				"x": 1.3238177373,
				"y": 0.687481673,
				"z": -3.0078489195,
				"element": "C" 
			},
			{
				"x": 0.5979099437,
				"y": 1.7358294591,
				"z": -2.160062738,
				"element": "C" 
			},
			{
				"x": 1.3777878651,
				"y": 3.0553033566,
				"z": -2.1459216571,
				"element": "C" 
			},
			{
				"x": -0.8446689927,
				"y": 1.921156408,
				"z": -2.6438163263,
				"element": "C" 
			},
			{
				"x": 0.6072911819,
				"y": 1.1283574501,
				"z": -0.8220724357,
				"element": "O" 
			},
			{
				"x": 0.0610429045,
				"y": 1.7783209939,
				"z": 0.2381517785,
				"element": "C" 
			},
			{
				"x": -0.5072146985,
				"y": 2.8598725758,
				"z": 0.2042120348,
				"element": "O" 
			},
			{
				"x": 0.2413280845,
				"y": 1.0614692904,
				"z": 1.3874893406,
				"element": "N" 
			},
			{
				"x": 0.8342908324,
				"y": -0.2716380065,
				"z": 1.5077363494,
				"element": "C" 
			},
			{
				"x": 1.1808191093,
				"y": -0.5595606904,
				"z": 2.9916204387,
				"element": "C" 
			},
			{
				"x": 0.0061480267,
				"y": -1.4056330341,
				"z": 3.566748226,
				"element": "C" 
			},
			{
				"x": -0.9990349414,
				"y": -1.5788855709,
				"z": 2.401456268,
				"element": "C" 
			},
			{
				"x": -0.158606731,
				"y": -1.3994614951,
				"z": 1.1233357427,
				"element": "C" 
			},
			{
				"x": 0.5820751619,
				"y": -2.6812810628,
				"z": 0.7067990454,
				"element": "C" 
			},
			{
				"x": -0.3669291556,
				"y": -3.7502631407,
				"z": 0.3798387021,
				"element": "N" 
			},
			{
				"x": 1.3847799706,
				"y": 1.0208810571,
				"z": -4.0481388019,
				"element": "H" 
			},
			{
				"x": 2.3398185481,
				"y": 0.5255714289,
				"z": -2.6358449079,
				"element": "H" 
			},
			{
				"x": 0.7905207456,
				"y": -0.2674922735,
				"z": -2.9813565007,
				"element": "H" 
			},
			{
				"x": 1.4634454546,
				"y": 3.4432237426,
				"z": -3.1662957032,
				"element": "H" 
			},
			{
				"x": 0.8746447831,
				"y": 3.7973050908,
				"z": -1.525856472,
				"element": "H" 
			},
			{
				"x": 2.3887754397,
				"y": 2.8942984354,
				"z": -1.7579381038,
				"element": "H" 
			},
			{
				"x": -0.8434794318,
				"y": 2.271778085,
				"z": -3.6811833722,
				"element": "H" 
			},
			{
				"x": -1.3823034709,
				"y": 0.9679857607,
				"z": -2.6086230674,
				"element": "H" 
			},
			{
				"x": -1.3709603674,
				"y": 2.6471181638,
				"z": -2.0241207869,
				"element": "H" 
			},
			{
				"x": -0.2064799809,
				"y": 1.4776524512,
				"z": 2.1901681899,
				"element": "H" 
			},
			{
				"x": 1.7226628711,
				"y": -0.2886042156,
				"z": 0.8705709143,
				"element": "H" 
			},
			{
				"x": 2.1228162869,
				"y": -1.1129075018,
				"z": 3.0468527127,
				"element": "H" 
			},
			{
				"x": 1.3437718455,
				"y": 0.3740212401,
				"z": 3.5397108988,
				"element": "H" 
			},
			{
				"x": 0.3722396599,
				"y": -2.3788434334,
				"z": 3.9085356469,
				"element": "H" 
			},
			{
				"x": -0.4579228941,
				"y": -0.9293027001,
				"z": 4.435810729,
				"element": "H" 
			},
			{
				"x": -1.5102672221,
				"y": -2.5442396763,
				"z": 2.4147955071,
				"element": "H" 
			},
			{
				"x": -1.7652122077,
				"y": -0.7960156151,
				"z": 2.4441297332,
				"element": "H" 
			},
			{
				"x": -0.7722173522,
				"y": -1.0747126779,
				"z": 0.2743248286,
				"element": "H" 
			},
			{
				"x": 1.2724686982,
				"y": -2.4281297681,
				"z": -0.1179934361,
				"element": "H" 
			},
			{
				"x": 1.2074003738,
				"y": -3.0395861273,
				"z": 1.5347213939,
				"element": "H" 
			},
			{
				"x": -0.8876081208,
				"y": -3.5014379809,
				"z": -0.4587023774,
				"element": "H" 
			},
			{
				"x": 0.1334500428,
				"y": -4.6079316925,
				"z": 0.1612671256,
				"element": "H" 
			}
		],
		 "valence_orbital": [ 
			{
				"type": "occ",
				"energy": -0.31342,
				"method": "rhf"
			},
			{
				"type": "occ",
				"energy": -0.28226,
				"method": "rhf"
			},
			{
				"type": "occ",
				"energy": -0.25336,
				"method": "rhf"
			},
			{
				"type": "occ",
				"energy": -0.24049,
				"method": "rhf"
			},
			{
				"type": "occ",
				"energy": -0.23381,
				"method": "rhf"
			},
			{
				"type": "unocc",
				"energy": 0.0581,
				"method": "rhf"
			},
			{
				"type": "unocc",
				"energy": 0.06776,
				"method": "rhf"
			},
			{
				"type": "unocc",
				"energy": 0.08444,
				"method": "rhf"
			},
			{
				"type": "unocc",
				"energy": 0.08868,
				"method": "rhf"
			},
			{
				"type": "unocc",
				"energy": 0.09172,
				"method": "rhf"
			}
		],
		"cosmo_sigma_profile": { 
			"-0.025": 0.0,
			"-0.024": 0.0,
			"-0.023": 0.0,
			"-0.022": 0.0,
			"-0.021": 0.0,
			"-0.02": 0.0,
			"-0.019": 0.0,
			"-0.018": 0.0,
			"-0.017": 0.0,
			"-0.016": 0.0,
			"-0.015": 0.0,
			"-0.014": 0.0,
			"-0.013": 0.514172230777,
			"-0.012": 0.801046342726,
			"-0.011": 0.743826315232,
			"-0.01": 1.26076257267,
			"-0.009": 4.04793674443,
			"-0.008": 3.46111025561,
			"-0.007": 3.73444445125,
			"-0.006": 4.39990310798,
			"-0.005": 4.81626070126,
			"-0.004": 15.2150145185,
			"-0.003": 32.6795615109,
			"-0.002": 35.4071434642,
			"-0.001": 36.5144284147,
			"0.0": 40.3041116149,
			"0.001": 35.2238552564,
			"0.002": 16.5943623945,
			"0.003": 7.80846467436,
			"0.004": 6.30378963973,
			"0.005": 5.80478724718,
			"0.006": 4.8578970963,
			"0.007": 2.61767119679,
			"0.008": 1.76066148453,
			"0.009": 2.27593620349,
			"0.01": 2.47539854008,
			"0.011": 2.43740052632,
			"0.012": 2.29667586343,
			"0.013": 3.01731778585,
			"0.014": 4.35511621378,
			"0.015": 1.19242286472,
			"0.016": 0.455425175878,
			"0.017": 0.657047707817,
			"0.018": 0.188417299883,
			"0.019": 0.0,
			"0.02": 0.0,
			"0.021": 0.0,
			"0.022": 0.0,
			"0.023": 0.0,
			"0.024": 0.0,
			"0.025": 0.0
		}
	}
}
