{
	 "smiles": "CC1CC(C)CC(O)C1", 
	 "Tm": 284.75, 
	 "num_atms": 25, 
	 "gaussian": { 
		 "optdone": 1, 
		 "sigma_profile": "yes", 
		 "theory": "DFT", 
		 "functional": "B3LYP", 
		 "basiset": "6-31G**", 
		 "properties": { 
			 "R2extent": 1476.0664, 
			 "electric_dipole_moment_norm": 1.68040248453, 
			 "electric_quadrupole_moment_norm": 6.29924588185, 
			 "total_energy": -389.728927512, 
			 "HOMO_LUMO_gap": 0.32285, 
			 "cosmo_polarized_energy": -5.97, 
			 "cosmo_cavitation_energy": 24.89, 
			 "cosmo_dispersion_energy": -18.15, 
			 "cosmo_repulsion_energy": 1.49, 
			 "cosmo_total_nonelectrostatic_energy": 8.23, 
			 "SMD_solvation_energy": 3.63 
		},
		"coords": [
			{
				"x": -3.0035058163,
				"y": -1.0229461211,
				"z": 0.3744649646,
				"element": "C" 
			},
			{
				"x": -1.4874823683,
				"y": -0.814296228,
				"z": 0.4566174125,
				"element": "C" 
			},
			{
				"x": -1.1153128502,
				"y": 0.2526240852,
				"z": 1.5195623716,
				"element": "C" 
			},
			{
				"x": 0.2422815084,
				"y": 0.952464018,
				"z": 1.2531335802,
				"element": "C" 
			},
			{
				"x": 0.8449696911,
				"y": 1.5279515717,
				"z": 2.5389417071,
				"element": "C" 
			},
			{
				"x": 1.1968714646,
				"y": -0.0157835048,
				"z": 0.5383398208,
				"element": "C" 
			},
			{
				"x": 0.6697627572,
				"y": -0.440813025,
				"z": -0.8537413662,
				"element": "C" 
			},
			{
				"x": 1.2194705927,
				"y": 0.3530362226,
				"z": -1.9068806343,
				"element": "O" 
			},
			{
				"x": -0.8731656927,
				"y": -0.4387198616,
				"z": -0.9008843477,
				"element": "C" 
			},
			{
				"x": -3.4234554276,
				"y": -1.2738797157,
				"z": 1.3550311511,
				"element": "H" 
			},
			{
				"x": -3.259385421,
				"y": -1.8333673724,
				"z": -0.3168419555,
				"element": "H" 
			},
			{
				"x": -3.5049340795,
				"y": -0.1129965932,
				"z": 0.022781371,
				"element": "H" 
			},
			{
				"x": -1.0394684937,
				"y": -1.7711590582,
				"z": 0.762994265,
				"element": "H" 
			},
			{
				"x": -1.0932156494,
				"y": -0.2214314831,
				"z": 2.5099406457,
				"element": "H" 
			},
			{
				"x": -1.9060046716,
				"y": 1.0136528615,
				"z": 1.5658894177,
				"element": "H" 
			},
			{
				"x": 0.0587910534,
				"y": 1.7984448464,
				"z": 0.5724527695,
				"element": "H" 
			},
			{
				"x": 0.1425012748,
				"y": 2.2027291383,
				"z": 3.041119683,
				"element": "H" 
			},
			{
				"x": 1.7624801811,
				"y": 2.0904409952,
				"z": 2.3340894525,
				"element": "H" 
			},
			{
				"x": 1.0957778297,
				"y": 0.7262840483,
				"z": 3.2441898717,
				"element": "H" 
			},
			{
				"x": 1.3369641101,
				"y": -0.9042514532,
				"z": 1.1694810389,
				"element": "H" 
			},
			{
				"x": 2.1892414624,
				"y": 0.4285987593,
				"z": 0.4015384805,
				"element": "H" 
			},
			{
				"x": 1.0348043808,
				"y": -1.4511632892,
				"z": -1.0699688497,
				"element": "H" 
			},
			{
				"x": 0.8825307726,
				"y": 1.2528820873,
				"z": -1.7990406106,
				"element": "H" 
			},
			{
				"x": -1.2176064537,
				"y": 0.5691611631,
				"z": -1.1796869511,
				"element": "H" 
			},
			{
				"x": -1.2214101549,
				"y": -1.1077620912,
				"z": -1.6955232885,
				"element": "H" 
			}
		],
		 "valence_orbital": [ 
			{
				"type": "occ",
				"energy": -0.33427,
				"method": "rhf"
			},
			{
				"type": "occ",
				"energy": -0.30423,
				"method": "rhf"
			},
			{
				"type": "occ",
				"energy": -0.30187,
				"method": "rhf"
			},
			{
				"type": "occ",
				"energy": -0.28837,
				"method": "rhf"
			},
			{
				"type": "occ",
				"energy": -0.25427,
				"method": "rhf"
			},
			{
				"type": "unocc",
				"energy": 0.06858,
				"method": "rhf"
			},
			{
				"type": "unocc",
				"energy": 0.08529,
				"method": "rhf"
			},
			{
				"type": "unocc",
				"energy": 0.10399,
				"method": "rhf"
			},
			{
				"type": "unocc",
				"energy": 0.10996,
				"method": "rhf"
			},
			{
				"type": "unocc",
				"energy": 0.13652,
				"method": "rhf"
			}
		],
		"cosmo_sigma_profile": { 
			"-0.025": 0.0,
			"-0.024": 0.0,
			"-0.023": 0.0,
			"-0.022": 0.0,
			"-0.021": 0.0,
			"-0.02": 0.0,
			"-0.019": 0.0,
			"-0.018": 0.0,
			"-0.017": 0.0,
			"-0.016": 0.0,
			"-0.015": 0.0131920025082,
			"-0.014": 0.417034078362,
			"-0.013": 0.647974008557,
			"-0.012": 0.755782468458,
			"-0.011": 1.31388068118,
			"-0.01": 1.0139307364,
			"-0.009": 1.18663243093,
			"-0.008": 0.949522176329,
			"-0.007": 1.27309330113,
			"-0.006": 2.0552007432,
			"-0.005": 1.71068839387,
			"-0.004": 1.60272994444,
			"-0.003": 9.19128642091,
			"-0.002": 32.424945937,
			"-0.001": 39.3668966445,
			"0.0": 33.2369684767,
			"0.001": 28.4038398759,
			"0.002": 15.3012653987,
			"0.003": 1.54372974913,
			"0.004": 1.53220523258,
			"0.005": 1.15096647123,
			"0.006": 1.76530462332,
			"0.007": 1.43573456275,
			"0.008": 0.918654994048,
			"0.009": 0.824180443537,
			"0.01": 1.22497915044,
			"0.011": 1.7164946172,
			"0.012": 1.28477573374,
			"0.013": 1.33388057167,
			"0.014": 1.83153761948,
			"0.015": 2.29054369761,
			"0.016": 0.0634940662812,
			"0.017": 0.0,
			"0.018": 0.0,
			"0.019": 0.0,
			"0.02": 0.0,
			"0.021": 0.0,
			"0.022": 0.0,
			"0.023": 0.0,
			"0.024": 0.0,
			"0.025": 0.0
		}
	}
}
