{
	 "smiles": "CCOC(=O)C1=C(C)OC(N)=C(C#N)C1C1=CC=C2OCCC2=C1", 
	 "Tm": 436.15, 
	 "num_atms": 42, 
	 "gaussian": { 
		 "optdone": 1, 
		 "sigma_profile": "yes", 
		 "theory": "DFT", 
		 "functional": "B3LYP", 
		 "basiset": "6-31G**", 
		 "properties": { 
			 "R2extent": 8961.9351, 
			 "electric_dipole_moment_norm": 7.49534375596, 
			 "electric_quadrupole_moment_norm": 19.744223219, 
			 "total_energy": -1107.13495944, 
			 "HOMO_LUMO_gap": 0.15488, 
			 "cosmo_polarized_energy": -22.2, 
			 "cosmo_cavitation_energy": 46.3, 
			 "cosmo_dispersion_energy": -31.26, 
			 "cosmo_repulsion_energy": 2.47, 
			 "cosmo_total_nonelectrostatic_energy": 17.51, 
			 "SMD_solvation_energy": 10.36 
		},
		"coords": [
			{
				"x": 2.7815599644,
				"y": 3.7544651107,
				"z": 4.0830394344,
				"element": "C" 
			},
			{
				"x": 3.1644176056,
				"y": 2.7903604358,
				"z": 2.9763370533,
				"element": "C" 
			},
			{
				"x": 1.9647825675,
				"y": 2.4914486684,
				"z": 2.2235685026,
				"element": "O" 
			},
			{
				"x": 2.1285438215,
				"y": 1.6359921737,
				"z": 1.1868643287,
				"element": "C" 
			},
			{
				"x": 3.2137687638,
				"y": 1.1576094811,
				"z": 0.9085803828,
				"element": "O" 
			},
			{
				"x": 0.9044145293,
				"y": 1.3459130867,
				"z": 0.3956147008,
				"element": "C" 
			},
			{
				"x": -0.287710887,
				"y": 1.9603808458,
				"z": 0.5589220054,
				"element": "C" 
			},
			{
				"x": -0.7564140532,
				"y": 2.9479283643,
				"z": 1.5848310448,
				"element": "C" 
			},
			{
				"x": -1.3342494974,
				"y": 1.734907601,
				"z": -0.3243950155,
				"element": "O" 
			},
			{
				"x": -1.1049753736,
				"y": 1.0924495079,
				"z": -1.5054268075,
				"element": "C" 
			},
			{
				"x": -2.1459867399,
				"y": 1.2874444995,
				"z": -2.3713426562,
				"element": "N" 
			},
			{
				"x": 0.0450289063,
				"y": 0.4092247052,
				"z": -1.7444340525,
				"element": "C" 
			},
			{
				"x": 0.1969064469,
				"y": -0.2266363236,
				"z": -3.0020557429,
				"element": "C" 
			},
			{
				"x": 0.2836255845,
				"y": -0.7377709412,
				"z": -4.0480631732,
				"element": "N" 
			},
			{
				"x": 1.1163026722,
				"y": 0.2772375782,
				"z": -0.6758722692,
				"element": "C" 
			},
			{
				"x": 1.171423356,
				"y": -1.128669672,
				"z": -0.0639146911,
				"element": "C" 
			},
			{
				"x": 2.3827925352,
				"y": -1.8300609334,
				"z": -0.0167304764,
				"element": "C" 
			},
			{
				"x": 2.4719006697,
				"y": -3.1165112761,
				"z": 0.5259388178,
				"element": "C" 
			},
			{
				"x": 1.3066752154,
				"y": -3.6828676135,
				"z": 1.0275060911,
				"element": "C" 
			},
			{
				"x": 1.2252192201,
				"y": -4.9244717775,
				"z": 1.5925669374,
				"element": "O" 
			},
			{
				"x": -0.1816000066,
				"y": -5.2265456483,
				"z": 1.7700856992,
				"element": "C" 
			},
			{
				"x": -0.9483054901,
				"y": -3.8848394967,
				"z": 1.6708505068,
				"element": "C" 
			},
			{
				"x": 0.0843316325,
				"y": -3.0042786376,
				"z": 1.0016354171,
				"element": "C" 
			},
			{
				"x": 0.0132138483,
				"y": -1.7292250764,
				"z": 0.461192369,
				"element": "C" 
			},
			{
				"x": 2.3663905947,
				"y": 4.6796471872,
				"z": 3.6726966685,
				"element": "H" 
			},
			{
				"x": 2.0406224674,
				"y": 3.3097463534,
				"z": 4.7540629829,
				"element": "H" 
			},
			{
				"x": 3.6672930463,
				"y": 4.008948014,
				"z": 4.6733105304,
				"element": "H" 
			},
			{
				"x": 3.5769525371,
				"y": 1.8556968433,
				"z": 3.3680338417,
				"element": "H" 
			},
			{
				"x": 3.9084441032,
				"y": 3.2177009187,
				"z": 2.297296673,
				"element": "H" 
			},
			{
				"x": -1.8245999994,
				"y": 2.7902996782,
				"z": 1.7574497214,
				"element": "H" 
			},
			{
				"x": -0.6301457298,
				"y": 3.9729168673,
				"z": 1.21595316,
				"element": "H" 
			},
			{
				"x": -0.2086557823,
				"y": 2.8503530636,
				"z": 2.5167410454,
				"element": "H" 
			},
			{
				"x": -2.1964743336,
				"y": 0.6615224497,
				"z": -3.1625671572,
				"element": "H" 
			},
			{
				"x": -3.0263343264,
				"y": 1.551697411,
				"z": -1.954902799,
				"element": "H" 
			},
			{
				"x": 2.0935633114,
				"y": 0.4650840654,
				"z": -1.1296566523,
				"element": "H" 
			},
			{
				"x": 3.2782997772,
				"y": -1.356001882,
				"z": -0.4058796934,
				"element": "H" 
			},
			{
				"x": 3.4108952694,
				"y": -3.658554881,
				"z": 0.5520369682,
				"element": "H" 
			},
			{
				"x": -0.4823166092,
				"y": -5.9171218763,
				"z": 0.97254611,
				"element": "H" 
			},
			{
				"x": -0.2936513658,
				"y": -5.730476191,
				"z": 2.7326713001,
				"element": "H" 
			},
			{
				"x": -1.2174375462,
				"y": -3.4987818077,
				"z": 2.6625354302,
				"element": "H" 
			},
			{
				"x": -1.8749142258,
				"y": -3.9892973759,
				"z": 1.0978237014,
				"element": "H" 
			},
			{
				"x": -0.9348964794,
				"y": -1.1974635002,
				"z": 0.4339497619,
				"element": "H" 
			}
		],
		 "valence_orbital": [ 
			{
				"type": "occ",
				"energy": -0.27576,
				"method": "rhf"
			},
			{
				"type": "occ",
				"energy": -0.25616,
				"method": "rhf"
			},
			{
				"type": "occ",
				"energy": -0.23914,
				"method": "rhf"
			},
			{
				"type": "occ",
				"energy": -0.21567,
				"method": "rhf"
			},
			{
				"type": "occ",
				"energy": -0.20183,
				"method": "rhf"
			},
			{
				"type": "unocc",
				"energy": -0.04695,
				"method": "rhf"
			},
			{
				"type": "unocc",
				"energy": 0.00098,
				"method": "rhf"
			},
			{
				"type": "unocc",
				"energy": 0.00373,
				"method": "rhf"
			},
			{
				"type": "unocc",
				"energy": 0.02345,
				"method": "rhf"
			},
			{
				"type": "unocc",
				"energy": 0.03964,
				"method": "rhf"
			}
		],
		"cosmo_sigma_profile": { 
			"-0.025": 0.0,
			"-0.024": 0.0,
			"-0.023": 0.0,
			"-0.022": 0.0,
			"-0.021": 0.0,
			"-0.02": 0.0,
			"-0.019": 0.0,
			"-0.018": 0.0,
			"-0.017": 0.0,
			"-0.016": 0.0,
			"-0.015": 0.798702779475,
			"-0.014": 1.9884332342,
			"-0.013": 2.20204392681,
			"-0.012": 2.14056915631,
			"-0.011": 2.59393778615,
			"-0.01": 1.97550090912,
			"-0.009": 1.45015130455,
			"-0.008": 1.72313733488,
			"-0.007": 2.41171295769,
			"-0.006": 7.30997377157,
			"-0.005": 26.6857828801,
			"-0.004": 38.081594012,
			"-0.003": 40.6487842623,
			"-0.002": 37.0254251982,
			"-0.001": 34.4678775848,
			"0.0": 25.2336127846,
			"0.001": 20.8446338411,
			"0.002": 16.8987274713,
			"0.003": 18.7300690935,
			"0.004": 15.781608525,
			"0.005": 13.3665549392,
			"0.006": 11.7255175924,
			"0.007": 6.67561536064,
			"0.008": 6.40167362696,
			"0.009": 5.12626779131,
			"0.01": 7.36109570796,
			"0.011": 6.89643354025,
			"0.012": 5.95446593624,
			"0.013": 3.13691615275,
			"0.014": 1.91149312884,
			"0.015": 0.122596176733,
			"0.016": 0.0,
			"0.017": 0.0,
			"0.018": 0.0,
			"0.019": 0.0,
			"0.02": 0.0,
			"0.021": 0.0,
			"0.022": 0.0,
			"0.023": 0.0,
			"0.024": 0.0,
			"0.025": 0.0
		}
	}
}
