{
	 "smiles": "ClC1=C(Cl)C(Cl)=C(C(Cl)=C1Cl)C1=C(Cl)C(Cl)=C(Cl)C(Cl)=C1Cl", 
	 "Tm": 579.15, 
	 "num_atms": 22, 
	 "gaussian": { 
		 "optdone": 1, 
		 "sigma_profile": "yes", 
		 "theory": "DFT", 
		 "functional": "B3LYP", 
		 "basiset": "6-31G**", 
		 "properties": { 
			 "R2extent": 13369.0881, 
			 "electric_dipole_moment_norm": 0.000435889894354, 
			 "electric_quadrupole_moment_norm": 0.361880422239, 
			 "total_energy": -5059.15034423, 
			 "HOMO_LUMO_gap": 0.2028, 
			 "cosmo_polarized_energy": -3.81, 
			 "cosmo_cavitation_energy": 44.14, 
			 "cosmo_dispersion_energy": -30.91, 
			 "cosmo_repulsion_energy": 2.38, 
			 "cosmo_total_nonelectrostatic_energy": 15.62, 
			 "SMD_solvation_energy": 5.05 
		},
		"coords": [
			{
				"x": 5.0127614187,
				"y": -1.0502046481,
				"z": -1.1285807613,
				"element": "Cl" 
			},
			{
				"x": 3.3117853587,
				"y": -1.0104161974,
				"z": -0.798130183,
				"element": "C" 
			},
			{
				"x": 2.8524640322,
				"y": -0.6010278018,
				"z": 0.4653823657,
				"element": "C" 
			},
			{
				"x": 3.9821897454,
				"y": -0.1353340562,
				"z": 1.6948373141,
				"element": "Cl" 
			},
			{
				"x": 1.4735872069,
				"y": -0.5728150019,
				"z": 0.7225165151,
				"element": "C" 
			},
			{
				"x": 0.8916215853,
				"y": -0.0681543324,
				"z": 2.2826303785,
				"element": "Cl" 
			},
			{
				"x": 0.5450627675,
				"y": -0.9463343335,
				"z": -0.2602682112,
				"element": "C" 
			},
			{
				"x": 1.0203208313,
				"y": -1.3521104794,
				"z": -1.5160576724,
				"element": "C" 
			},
			{
				"x": -0.1253948957,
				"y": -1.816746461,
				"z": -2.7402808093,
				"element": "Cl" 
			},
			{
				"x": 2.3949902451,
				"y": -1.3876840407,
				"z": -1.7942587972,
				"element": "C" 
			},
			{
				"x": 2.9602401172,
				"y": -1.8928525557,
				"z": -3.3530472593,
				"element": "Cl" 
			},
			{
				"x": -0.9216798317,
				"y": -0.9125385071,
				"z": 0.0248834118,
				"element": "C" 
			},
			{
				"x": -1.6727961236,
				"y": 0.2449778017,
				"z": -0.2271359754,
				"element": "C" 
			},
			{
				"x": -0.8701909546,
				"y": 1.644644774,
				"z": -0.8782769026,
				"element": "Cl" 
			},
			{
				"x": -3.0500933725,
				"y": 0.2873858603,
				"z": 0.0367123803,
				"element": "C" 
			},
			{
				"x": -3.9588941077,
				"y": 1.7284940324,
				"z": -0.2823261571,
				"element": "Cl" 
			},
			{
				"x": -3.688464944,
				"y": -0.84893415,
				"z": 0.5624337733,
				"element": "C" 
			},
			{
				"x": -5.3894315855,
				"y": -0.8098757697,
				"z": 0.8930227873,
				"element": "Cl" 
			},
			{
				"x": -2.9507579861,
				"y": -2.0169249999,
				"z": 0.8205528554,
				"element": "C" 
			},
			{
				"x": -3.7370204202,
				"y": -3.4192581556,
				"z": 1.4685860752,
				"element": "Cl" 
			},
			{
				"x": -1.5744384667,
				"y": -2.0378538689,
				"z": 0.5494024829,
				"element": "C" 
			},
			{
				"x": -0.6494606199,
				"y": -3.4775371093,
				"z": 0.8641023893,
				"element": "Cl" 
			}
		],
		 "valence_orbital": [ 
			{
				"type": "occ",
				"energy": -0.31437,
				"method": "rhf"
			},
			{
				"type": "occ",
				"energy": -0.2746,
				"method": "rhf"
			},
			{
				"type": "occ",
				"energy": -0.27457,
				"method": "rhf"
			},
			{
				"type": "occ",
				"energy": -0.26831,
				"method": "rhf"
			},
			{
				"type": "occ",
				"energy": -0.26643,
				"method": "rhf"
			},
			{
				"type": "unocc",
				"energy": -0.06363,
				"method": "rhf"
			},
			{
				"type": "unocc",
				"energy": -0.06358,
				"method": "rhf"
			},
			{
				"type": "unocc",
				"energy": -0.06088,
				"method": "rhf"
			},
			{
				"type": "unocc",
				"energy": -0.05988,
				"method": "rhf"
			},
			{
				"type": "unocc",
				"energy": -0.05626,
				"method": "rhf"
			}
		],
		"cosmo_sigma_profile": { 
			"-0.025": 0.0,
			"-0.024": 0.0,
			"-0.023": 0.0,
			"-0.022": 0.0,
			"-0.021": 0.0,
			"-0.02": 0.0,
			"-0.019": 0.0,
			"-0.018": 0.0,
			"-0.017": 0.0,
			"-0.016": 0.0,
			"-0.015": 0.0,
			"-0.014": 0.0,
			"-0.013": 0.0,
			"-0.012": 0.0,
			"-0.011": 0.0,
			"-0.01": 0.0,
			"-0.009": 0.0,
			"-0.008": 0.0,
			"-0.007": 0.0,
			"-0.006": 0.0118646614216,
			"-0.005": 4.87785258651,
			"-0.004": 19.1795060182,
			"-0.003": 48.1258162703,
			"-0.002": 39.3236717895,
			"-0.001": 40.3285385884,
			"0.0": 49.7613182461,
			"0.001": 47.4544560073,
			"0.002": 65.0699043853,
			"0.003": 58.6124184654,
			"0.004": 5.77856309065,
			"0.005": 0.0,
			"0.006": 0.0,
			"0.007": 0.0,
			"0.008": 0.0,
			"0.009": 0.0,
			"0.01": 0.0,
			"0.011": 0.0,
			"0.012": 0.0,
			"0.013": 0.0,
			"0.014": 0.0,
			"0.015": 0.0,
			"0.016": 0.0,
			"0.017": 0.0,
			"0.018": 0.0,
			"0.019": 0.0,
			"0.02": 0.0,
			"0.021": 0.0,
			"0.022": 0.0,
			"0.023": 0.0,
			"0.024": 0.0,
			"0.025": 0.0
		}
	}
}
