{
	 "smiles": "NC1=C(C#N)C(=CC2=C(C#N)C(=N)N(N12)C(=O)C1=CC=CC=C1)C1=CC=C(Br)C=C1", 
	 "Tm": 463.15, 
	 "num_atms": 43, 
	 "gaussian": { 
		 "optdone": 1, 
		 "sigma_profile": "yes", 
		 "theory": "DFT", 
		 "functional": "B3LYP", 
		 "basiset": "6-31G**", 
		 "properties": { 
			 "R2extent": 21957.0941, 
			 "electric_dipole_moment_norm": 7.03018056383, 
			 "electric_quadrupole_moment_norm": 50.915230636, 
			 "total_energy": -3821.24149584, 
			 "HOMO_LUMO_gap": 0.11688, 
			 "cosmo_polarized_energy": -27.0, 
			 "cosmo_cavitation_energy": 52.33, 
			 "cosmo_dispersion_energy": -35.84, 
			 "cosmo_repulsion_energy": 2.64, 
			 "cosmo_total_nonelectrostatic_energy": 19.13, 
			 "SMD_solvation_energy": 8.73 
		},
		"coords": [
			{
				"x": 1.3470836806,
				"y": 0.5885778666,
				"z": -2.4454291899,
				"element": "N" 
			},
			{
				"x": 0.38251675,
				"y": 0.263798153,
				"z": -1.5430367216,
				"element": "C" 
			},
			{
				"x": -0.1188208353,
				"y": -1.0488285706,
				"z": -1.4035374378,
				"element": "C" 
			},
			{
				"x": 0.5648339451,
				"y": -2.0504839637,
				"z": -2.1453316885,
				"element": "C" 
			},
			{
				"x": 1.1776574092,
				"y": -2.799733139,
				"z": -2.7969109275,
				"element": "N" 
			},
			{
				"x": -1.208527984,
				"y": -1.3339037343,
				"z": -0.5129490543,
				"element": "C" 
			},
			{
				"x": -1.7630964709,
				"y": -0.2958686004,
				"z": 0.2057426382,
				"element": "C" 
			},
			{
				"x": -1.2770469988,
				"y": 1.018812864,
				"z": 0.0595423918,
				"element": "C" 
			},
			{
				"x": -1.756542806,
				"y": 2.2352501123,
				"z": 0.5109893354,
				"element": "C" 
			},
			{
				"x": -2.8751713956,
				"y": 2.3944208925,
				"z": 1.3556558511,
				"element": "C" 
			},
			{
				"x": -3.8036152991,
				"y": 2.4790617586,
				"z": 2.0552368196,
				"element": "N" 
			},
			{
				"x": -0.9833275495,
				"y": 3.3203041382,
				"z": -0.0502096468,
				"element": "C" 
			},
			{
				"x": -1.1577959442,
				"y": 4.5611519098,
				"z": 0.1368157179,
				"element": "N" 
			},
			{
				"x": 0.0722390294,
				"y": 2.6306535988,
				"z": -0.8708625542,
				"element": "N" 
			},
			{
				"x": -0.15616782,
				"y": 1.237282545,
				"z": -0.7466483656,
				"element": "N" 
			},
			{
				"x": 1.4200437855,
				"y": 3.0665711182,
				"z": -0.8258055106,
				"element": "C" 
			},
			{
				"x": 2.3311693064,
				"y": 2.2951754364,
				"z": -0.5493688551,
				"element": "O" 
			},
			{
				"x": 1.6687387963,
				"y": 4.4715328737,
				"z": -1.2357655606,
				"element": "C" 
			},
			{
				"x": 0.9074104805,
				"y": 5.0988413278,
				"z": -2.2366659302,
				"element": "C" 
			},
			{
				"x": 1.2442480263,
				"y": 6.3837780513,
				"z": -2.6602288402,
				"element": "C" 
			},
			{
				"x": 2.3311970269,
				"y": 7.0468050746,
				"z": -2.0855064183,
				"element": "C" 
			},
			{
				"x": 3.0963821442,
				"y": 6.4200517288,
				"z": -1.0971117867,
				"element": "C" 
			},
			{
				"x": 2.7775571129,
				"y": 5.1304977112,
				"z": -0.6820700095,
				"element": "C" 
			},
			{
				"x": -1.748527233,
				"y": -2.7060574486,
				"z": -0.3561844343,
				"element": "C" 
			},
			{
				"x": -1.9846116786,
				"y": -3.5402314535,
				"z": -1.4612890705,
				"element": "C" 
			},
			{
				"x": -2.5285564651,
				"y": -4.8116527533,
				"z": -1.2944418552,
				"element": "C" 
			},
			{
				"x": -2.834686999,
				"y": -5.2613046103,
				"z": -0.0108943214,
				"element": "C" 
			},
			{
				"x": -3.5720979387,
				"y": -7.0041875734,
				"z": 0.2233559777,
				"element": "Br" 
			},
			{
				"x": -2.6085696355,
				"y": -4.45559842,
				"z": 1.1045283158,
				"element": "C" 
			},
			{
				"x": -2.0713437764,
				"y": -3.1836920303,
				"z": 0.9254732934,
				"element": "C" 
			},
			{
				"x": 1.6989404574,
				"y": -0.2068300472,
				"z": -2.9654274437,
				"element": "H" 
			},
			{
				"x": 2.0725356319,
				"y": 1.2142183606,
				"z": -2.107113559,
				"element": "H" 
			},
			{
				"x": -2.6333000561,
				"y": -0.4440896533,
				"z": 0.8321444113,
				"element": "H" 
			},
			{
				"x": -0.51652505,
				"y": 5.1662709008,
				"z": -0.3653483419,
				"element": "H" 
			},
			{
				"x": 0.0726089902,
				"y": 4.5730650084,
				"z": -2.6887705145,
				"element": "H" 
			},
			{
				"x": 0.6613874467,
				"y": 6.8642917256,
				"z": -3.4396626601,
				"element": "H" 
			},
			{
				"x": 2.5862006513,
				"y": 8.050582212,
				"z": -2.4120129934,
				"element": "H" 
			},
			{
				"x": 3.9427581098,
				"y": 6.9361771038,
				"z": -0.6549187362,
				"element": "H" 
			},
			{
				"x": 3.3709705172,
				"y": 4.6216493159,
				"z": 0.0699369239,
				"element": "H" 
			},
			{
				"x": -1.7633725096,
				"y": -3.1942018247,
				"z": -2.4646903115,
				"element": "H" 
			},
			{
				"x": -2.715415582,
				"y": -5.4445690699,
				"z": -2.1540753393,
				"element": "H" 
			},
			{
				"x": -2.8436021564,
				"y": -4.818783309,
				"z": 2.0982617166,
				"element": "H" 
			},
			{
				"x": -1.8784571136,
				"y": -2.5624055866,
				"z": 1.7943846858,
				"element": "H" 
			}
		],
		 "valence_orbital": [ 
			{
				"type": "occ",
				"energy": -0.27773,
				"method": "rhf"
			},
			{
				"type": "occ",
				"energy": -0.27683,
				"method": "rhf"
			},
			{
				"type": "occ",
				"energy": -0.27201,
				"method": "rhf"
			},
			{
				"type": "occ",
				"energy": -0.25171,
				"method": "rhf"
			},
			{
				"type": "occ",
				"energy": -0.20921,
				"method": "rhf"
			},
			{
				"type": "unocc",
				"energy": -0.09233,
				"method": "rhf"
			},
			{
				"type": "unocc",
				"energy": -0.07583,
				"method": "rhf"
			},
			{
				"type": "unocc",
				"energy": -0.05237,
				"method": "rhf"
			},
			{
				"type": "unocc",
				"energy": -0.03923,
				"method": "rhf"
			},
			{
				"type": "unocc",
				"energy": -0.03016,
				"method": "rhf"
			}
		],
		"cosmo_sigma_profile": { 
			"-0.025": 0.0,
			"-0.024": 0.0,
			"-0.023": 0.0,
			"-0.022": 0.0,
			"-0.021": 0.0,
			"-0.02": 0.0,
			"-0.019": 0.0,
			"-0.018": 0.0,
			"-0.017": 0.0,
			"-0.016": 0.0,
			"-0.015": 0.0961618026103,
			"-0.014": 0.935496457489,
			"-0.013": 1.59770515643,
			"-0.012": 1.79765025317,
			"-0.011": 1.55808942887,
			"-0.01": 1.73467492306,
			"-0.009": 2.23874051853,
			"-0.008": 5.61360660689,
			"-0.007": 24.0567326556,
			"-0.006": 28.8994540239,
			"-0.005": 30.2993043433,
			"-0.004": 28.386561856,
			"-0.003": 27.4493240465,
			"-0.002": 28.1308810472,
			"-0.001": 29.0592213585,
			"0.0": 30.3249911862,
			"0.001": 30.5312916601,
			"0.002": 35.6001109316,
			"0.003": 25.8758903632,
			"0.004": 19.0256256805,
			"0.005": 8.92555131381,
			"0.006": 7.06644977086,
			"0.007": 9.2552464743,
			"0.008": 9.73804244017,
			"0.009": 10.0224893656,
			"0.01": 8.71438713371,
			"0.011": 6.9000836161,
			"0.012": 6.62099546227,
			"0.013": 4.6476592697,
			"0.014": 1.87611801528,
			"0.015": 0.743066375652,
			"0.016": 0.456908531879,
			"0.017": 0.0,
			"0.018": 0.0,
			"0.019": 0.0,
			"0.02": 0.0,
			"0.021": 0.0,
			"0.022": 0.0,
			"0.023": 0.0,
			"0.024": 0.0,
			"0.025": 0.0
		}
	}
}
