{
	 "smiles": "C[C@H]([C@@H](O)C1=CC=CC=C1)N1CCCC1", 
	 "Tm": 318.15, 
	 "num_atms": 34, 
	 "gaussian": { 
		 "optdone": 1, 
		 "sigma_profile": "yes", 
		 "theory": "DFT", 
		 "functional": "B3LYP", 
		 "basiset": "6-31G**", 
		 "properties": { 
			 "R2extent": 3582.2177, 
			 "electric_dipole_moment_norm": 1.95585199338, 
			 "electric_quadrupole_moment_norm": 6.90910474157, 
			 "total_energy": -636.793957628, 
			 "HOMO_LUMO_gap": 0.21211, 
			 "cosmo_polarized_energy": -9.54, 
			 "cosmo_cavitation_energy": 33.65, 
			 "cosmo_dispersion_energy": -23.7, 
			 "cosmo_repulsion_energy": 1.85, 
			 "cosmo_total_nonelectrostatic_energy": 11.81, 
			 "SMD_solvation_energy": 4.02 
		},
		"coords": [
			{
				"x": -0.3704958933,
				"y": 1.4780917259,
				"z": -1.14693939,
				"element": "C" 
			},
			{
				"x": -0.3145350698,
				"y": -0.0507196464,
				"z": -1.0167628191,
				"element": "C" 
			},
			{
				"x": -1.4373130272,
				"y": -0.5198600407,
				"z": -0.037184778,
				"element": "C" 
			},
			{
				"x": -1.5781101257,
				"y": -1.9413924678,
				"z": -0.0040665147,
				"element": "O" 
			},
			{
				"x": -1.2689732516,
				"y": -0.0349210843,
				"z": 1.3890136047,
				"element": "C" 
			},
			{
				"x": -0.3589044043,
				"y": -0.6437394997,
				"z": 2.2641446296,
				"element": "C" 
			},
			{
				"x": -0.2120947421,
				"y": -0.1773066154,
				"z": 3.5698040768,
				"element": "C" 
			},
			{
				"x": -0.9683544927,
				"y": 0.9068242489,
				"z": 4.0225782734,
				"element": "C" 
			},
			{
				"x": -1.88005369,
				"y": 1.5170369171,
				"z": 3.1615132481,
				"element": "C" 
			},
			{
				"x": -2.0306054219,
				"y": 1.0426399413,
				"z": 1.8566117022,
				"element": "C" 
			},
			{
				"x": 1.0182888094,
				"y": -0.5220680177,
				"z": -0.6390329047,
				"element": "N" 
			},
			{
				"x": 2.148905409,
				"y": 0.1389310653,
				"z": -1.3052233282,
				"element": "C" 
			},
			{
				"x": 3.3606976873,
				"y": -0.70120461,
				"z": -0.8772195113,
				"element": "C" 
			},
			{
				"x": 2.7841519568,
				"y": -2.1288805608,
				"z": -0.6859070427,
				"element": "C" 
			},
			{
				"x": 1.2618035268,
				"y": -1.9563994036,
				"z": -0.8621620708,
				"element": "C" 
			},
			{
				"x": -0.0299557998,
				"y": 1.960137274,
				"z": -0.226391614,
				"element": "H" 
			},
			{
				"x": -1.3986056692,
				"y": 1.8010266728,
				"z": -1.3375800924,
				"element": "H" 
			},
			{
				"x": 0.2421541603,
				"y": 1.8359493118,
				"z": -1.9771768895,
				"element": "H" 
			},
			{
				"x": -0.5950689861,
				"y": -0.4752519895,
				"z": -2.0094211058,
				"element": "H" 
			},
			{
				"x": -2.3662543148,
				"y": -0.076243059,
				"z": -0.4322528992,
				"element": "H" 
			},
			{
				"x": -1.6360933383,
				"y": -2.2485803827,
				"z": -0.9192952209,
				"element": "H" 
			},
			{
				"x": 0.227488912,
				"y": -1.4864076754,
				"z": 1.9195012533,
				"element": "H" 
			},
			{
				"x": 0.4952794635,
				"y": -0.6617469422,
				"z": 4.237441352,
				"element": "H" 
			},
			{
				"x": -0.8517747166,
				"y": 1.2675645869,
				"z": 5.040769739,
				"element": "H" 
			},
			{
				"x": -2.4816129813,
				"y": 2.3540375961,
				"z": 3.5050457317,
				"element": "H" 
			},
			{
				"x": -2.7549493197,
				"y": 1.5124554865,
				"z": 1.1954943336,
				"element": "H" 
			},
			{
				"x": 2.0439814226,
				"y": 0.1200483387,
				"z": -2.4094205995,
				"element": "H" 
			},
			{
				"x": 2.2370627958,
				"y": 1.1835646233,
				"z": -0.9984204877,
				"element": "H" 
			},
			{
				"x": 3.7619853422,
				"y": -0.322035325,
				"z": 0.066930672,
				"element": "H" 
			},
			{
				"x": 4.1642488266,
				"y": -0.660015748,
				"z": -1.6179938291,
				"element": "H" 
			},
			{
				"x": 3.1845675838,
				"y": -2.8409576336,
				"z": -1.4132547116,
				"element": "H" 
			},
			{
				"x": 3.0229566758,
				"y": -2.5153521195,
				"z": 0.3088699762,
				"element": "H" 
			},
			{
				"x": 0.9643209192,
				"y": -2.2456590779,
				"z": -1.8922584696,
				"element": "H" 
			},
			{
				"x": 0.6752617533,
				"y": -2.5635658896,
				"z": -0.1734543138,
				"element": "H" 
			}
		],
		 "valence_orbital": [ 
			{
				"type": "occ",
				"energy": -0.3116,
				"method": "rhf"
			},
			{
				"type": "occ",
				"energy": -0.26653,
				"method": "rhf"
			},
			{
				"type": "occ",
				"energy": -0.24055,
				"method": "rhf"
			},
			{
				"type": "occ",
				"energy": -0.23433,
				"method": "rhf"
			},
			{
				"type": "occ",
				"energy": -0.20732,
				"method": "rhf"
			},
			{
				"type": "unocc",
				"energy": 0.00479,
				"method": "rhf"
			},
			{
				"type": "unocc",
				"energy": 0.00966,
				"method": "rhf"
			},
			{
				"type": "unocc",
				"energy": 0.06904,
				"method": "rhf"
			},
			{
				"type": "unocc",
				"energy": 0.08937,
				"method": "rhf"
			},
			{
				"type": "unocc",
				"energy": 0.1003,
				"method": "rhf"
			}
		],
		"cosmo_sigma_profile": { 
			"-0.025": 0.0,
			"-0.024": 0.0,
			"-0.023": 0.0,
			"-0.022": 0.0,
			"-0.021": 0.0,
			"-0.02": 0.0,
			"-0.019": 0.0,
			"-0.018": 0.0,
			"-0.017": 0.0,
			"-0.016": 0.0,
			"-0.015": 0.0249987525897,
			"-0.014": 0.545103100766,
			"-0.013": 0.854387269024,
			"-0.012": 1.14337602421,
			"-0.011": 0.407659903406,
			"-0.01": 0.856257714112,
			"-0.009": 1.87726015229,
			"-0.008": 1.39184703764,
			"-0.007": 1.1348297535,
			"-0.006": 3.07734046892,
			"-0.005": 10.8541516484,
			"-0.004": 16.678189,
			"-0.003": 24.7728074227,
			"-0.002": 31.2378888677,
			"-0.001": 43.158171285,
			"0.0": 33.6544075439,
			"0.001": 23.4522942841,
			"0.002": 10.7548322701,
			"0.003": 8.02582380949,
			"0.004": 9.44694348637,
			"0.005": 7.89218940963,
			"0.006": 11.0544396483,
			"0.007": 5.57905804963,
			"0.008": 1.99085382681,
			"0.009": 2.12392784803,
			"0.01": 2.64350120978,
			"0.011": 2.11830497209,
			"0.012": 1.71742614109,
			"0.013": 1.71470261002,
			"0.014": 1.46257762869,
			"0.015": 0.105928907638,
			"0.016": 0.0,
			"0.017": 0.0,
			"0.018": 0.0,
			"0.019": 0.0,
			"0.02": 0.0,
			"0.021": 0.0,
			"0.022": 0.0,
			"0.023": 0.0,
			"0.024": 0.0,
			"0.025": 0.0
		}
	}
}
