{
	 "smiles": "FC(F)(F)COC1=C(C=CC=N1)C#N", 
	 "Tm": 314.15, 
	 "num_atms": 19, 
	 "gaussian": { 
		 "optdone": 1, 
		 "sigma_profile": "yes", 
		 "theory": "DFT", 
		 "functional": "B3LYP", 
		 "basiset": "6-31G**", 
		 "properties": { 
			 "R2extent": 3637.7674, 
			 "electric_dipole_moment_norm": 4.8478917129, 
			 "electric_quadrupole_moment_norm": 15.1007027078, 
			 "total_energy": -792.089448294, 
			 "HOMO_LUMO_gap": 0.19136, 
			 "cosmo_polarized_energy": -11.52, 
			 "cosmo_cavitation_energy": 26.72, 
			 "cosmo_dispersion_energy": -18.12, 
			 "cosmo_repulsion_energy": 1.39, 
			 "cosmo_total_nonelectrostatic_energy": 9.99, 
			 "SMD_solvation_energy": 6.83 
		},
		"coords": [
			{
				"x": -0.8656960396,
				"y": -2.5238218557,
				"z": 4.147096343,
				"element": "F" 
			},
			{
				"x": -0.1025792311,
				"y": -1.9829205437,
				"z": 3.1729878148,
				"element": "C" 
			},
			{
				"x": 0.8535100831,
				"y": -2.8712569293,
				"z": 2.8514153346,
				"element": "F" 
			},
			{
				"x": 0.5030738101,
				"y": -0.8887338658,
				"z": 3.6703037973,
				"element": "F" 
			},
			{
				"x": -0.9857321768,
				"y": -1.6454209373,
				"z": 1.9813746599,
				"element": "C" 
			},
			{
				"x": -0.2079857444,
				"y": -1.053632742,
				"z": 0.9455153415,
				"element": "O" 
			},
			{
				"x": -0.1791846133,
				"y": 0.2950694468,
				"z": 0.8403748658,
				"element": "C" 
			},
			{
				"x": 0.6715251787,
				"y": 0.827118482,
				"z": -0.1607103362,
				"element": "C" 
			},
			{
				"x": 0.7070806711,
				"y": 2.2180578296,
				"z": -0.3011719299,
				"element": "C" 
			},
			{
				"x": -0.082429586,
				"y": 3.0116886455,
				"z": 0.5300728308,
				"element": "C" 
			},
			{
				"x": -0.8839704779,
				"y": 2.3757730555,
				"z": 1.4734221506,
				"element": "C" 
			},
			{
				"x": -0.9321504494,
				"y": 1.0445338943,
				"z": 1.6274386033,
				"element": "N" 
			},
			{
				"x": 1.458865534,
				"y": -0.0254655291,
				"z": -0.9945628369,
				"element": "C" 
			},
			{
				"x": 2.1075374938,
				"y": -0.6961843051,
				"z": -1.6889280333,
				"element": "N" 
			},
			{
				"x": -1.3944705039,
				"y": -2.5735246643,
				"z": 1.5781781368,
				"element": "H" 
			},
			{
				"x": -1.7846825599,
				"y": -0.9802113658,
				"z": 2.3095179707,
				"element": "H" 
			},
			{
				"x": 1.3494075583,
				"y": 2.6588630329,
				"z": -1.0562235853,
				"element": "H" 
			},
			{
				"x": -0.0754970463,
				"y": 4.0923591407,
				"z": 0.4474672929,
				"element": "H" 
			},
			{
				"x": -1.5190219003,
				"y": 2.9521092108,
				"z": 2.1423315793,
				"element": "H" 
			}
		],
		 "valence_orbital": [ 
			{
				"type": "occ",
				"energy": -0.35751,
				"method": "rhf"
			},
			{
				"type": "occ",
				"energy": -0.33906,
				"method": "rhf"
			},
			{
				"type": "occ",
				"energy": -0.30613,
				"method": "rhf"
			},
			{
				"type": "occ",
				"energy": -0.2968,
				"method": "rhf"
			},
			{
				"type": "occ",
				"energy": -0.26169,
				"method": "rhf"
			},
			{
				"type": "unocc",
				"energy": -0.07033,
				"method": "rhf"
			},
			{
				"type": "unocc",
				"energy": -0.03421,
				"method": "rhf"
			},
			{
				"type": "unocc",
				"energy": 0.02766,
				"method": "rhf"
			},
			{
				"type": "unocc",
				"energy": 0.06058,
				"method": "rhf"
			},
			{
				"type": "unocc",
				"energy": 0.07717,
				"method": "rhf"
			}
		],
		"cosmo_sigma_profile": { 
			"-0.025": 0.0,
			"-0.024": 0.0,
			"-0.023": 0.0,
			"-0.022": 0.0,
			"-0.021": 0.0,
			"-0.02": 0.0,
			"-0.019": 0.0,
			"-0.018": 0.0,
			"-0.017": 0.0,
			"-0.016": 0.0,
			"-0.015": 0.0,
			"-0.014": 0.0,
			"-0.013": 0.0,
			"-0.012": 0.0,
			"-0.011": 0.0,
			"-0.01": 1.32089926839,
			"-0.009": 5.17650961899,
			"-0.008": 9.4281696789,
			"-0.007": 11.0548901636,
			"-0.006": 10.4972804709,
			"-0.005": 8.3675884664,
			"-0.004": 6.68921524703,
			"-0.003": 12.2430275416,
			"-0.002": 16.2688118503,
			"-0.001": 13.8225175893,
			"0.0": 16.4474313102,
			"0.001": 15.5557363599,
			"0.002": 26.0587151623,
			"0.003": 24.2001851989,
			"0.004": 5.36278117272,
			"0.005": 5.65943196623,
			"0.006": 6.84282016953,
			"0.007": 4.50486772813,
			"0.008": 4.79238672634,
			"0.009": 3.15892574491,
			"0.01": 3.35931883342,
			"0.011": 2.25188342521,
			"0.012": 2.43870492609,
			"0.013": 0.801491653685,
			"0.014": 0.0,
			"0.015": 0.0,
			"0.016": 0.0,
			"0.017": 0.0,
			"0.018": 0.0,
			"0.019": 0.0,
			"0.02": 0.0,
			"0.021": 0.0,
			"0.022": 0.0,
			"0.023": 0.0,
			"0.024": 0.0,
			"0.025": 0.0
		}
	}
}
