{
	 "smiles": "NC1=NN=C(N1)C1CC1", 
	 "Tm": 402.15, 
	 "num_atms": 17, 
	 "gaussian": { 
		 "optdone": 1, 
		 "sigma_profile": "yes", 
		 "theory": "DFT", 
		 "functional": "B3LYP", 
		 "basiset": "6-31G**", 
		 "properties": { 
			 "R2extent": 1546.3627, 
			 "electric_dipole_moment_norm": 5.0511019956, 
			 "electric_quadrupole_moment_norm": 11.4586157903, 
			 "total_energy": -414.310805245, 
			 "HOMO_LUMO_gap": 0.24303, 
			 "cosmo_polarized_energy": -21.72, 
			 "cosmo_cavitation_energy": 20.98, 
			 "cosmo_dispersion_energy": -15.78, 
			 "cosmo_repulsion_energy": 1.32, 
			 "cosmo_total_nonelectrostatic_energy": 6.53, 
			 "SMD_solvation_energy": 1.18 
		},
		"coords": [
			{
				"x": 1.7882284033,
				"y": 3.1420596418,
				"z": 1.4504813088,
				"element": "N" 
			},
			{
				"x": 0.7913465916,
				"y": 2.2801183157,
				"z": 0.9975179522,
				"element": "C" 
			},
			{
				"x": -0.366612278,
				"y": 2.6186534511,
				"z": 0.4876292714,
				"element": "N" 
			},
			{
				"x": -1.0822299096,
				"y": 1.4434497661,
				"z": 0.2821701469,
				"element": "N" 
			},
			{
				"x": -0.3280230093,
				"y": 0.4385940886,
				"z": 0.6521276509,
				"element": "C" 
			},
			{
				"x": 0.8815488288,
				"y": 0.9155703141,
				"z": 1.1173403985,
				"element": "N" 
			},
			{
				"x": -0.6592668953,
				"y": -0.9960868045,
				"z": 0.5517441513,
				"element": "C" 
			},
			{
				"x": -1.1200381894,
				"y": -1.566036381,
				"z": -0.7839147507,
				"element": "C" 
			},
			{
				"x": -2.1023165537,
				"y": -1.3943410124,
				"z": 0.3366734066,
				"element": "C" 
			},
			{
				"x": 2.6793528126,
				"y": 3.0083000444,
				"z": 0.9815966708,
				"element": "H" 
			},
			{
				"x": 1.4802405067,
				"y": 4.1001333446,
				"z": 1.3218224631,
				"element": "H" 
			},
			{
				"x": 1.6225624872,
				"y": 0.3930263512,
				"z": 1.5586446709,
				"element": "H" 
			},
			{
				"x": -0.0525183771,
				"y": -1.6491133877,
				"z": 1.1744249825,
				"element": "H" 
			},
			{
				"x": -0.7916416825,
				"y": -2.5681371255,
				"z": -1.0440395348,
				"element": "H" 
			},
			{
				"x": -1.1743721291,
				"y": -0.8681419458,
				"z": -1.6129820068,
				"element": "H" 
			},
			{
				"x": -2.4611101564,
				"y": -2.2778675607,
				"z": 0.8553671889,
				"element": "H" 
			},
			{
				"x": -2.8114504499,
				"y": -0.5767810999,
				"z": 0.2635960297,
				"element": "H" 
			}
		],
		 "valence_orbital": [ 
			{
				"type": "occ",
				"energy": -0.30124,
				"method": "rhf"
			},
			{
				"type": "occ",
				"energy": -0.29118,
				"method": "rhf"
			},
			{
				"type": "occ",
				"energy": -0.28813,
				"method": "rhf"
			},
			{
				"type": "occ",
				"energy": -0.24147,
				"method": "rhf"
			},
			{
				"type": "occ",
				"energy": -0.2115,
				"method": "rhf"
			},
			{
				"type": "unocc",
				"energy": 0.03153,
				"method": "rhf"
			},
			{
				"type": "unocc",
				"energy": 0.05986,
				"method": "rhf"
			},
			{
				"type": "unocc",
				"energy": 0.06552,
				"method": "rhf"
			},
			{
				"type": "unocc",
				"energy": 0.08278,
				"method": "rhf"
			},
			{
				"type": "unocc",
				"energy": 0.10259,
				"method": "rhf"
			}
		],
		"cosmo_sigma_profile": { 
			"-0.025": 0.0,
			"-0.024": 0.0,
			"-0.023": 0.0,
			"-0.022": 0.0,
			"-0.021": 0.0,
			"-0.02": 0.0,
			"-0.019": 0.0,
			"-0.018": 0.0,
			"-0.017": 0.808137487303,
			"-0.016": 1.85817367877,
			"-0.015": 1.07668877431,
			"-0.014": 2.01666359849,
			"-0.013": 3.66487486714,
			"-0.012": 4.77194624502,
			"-0.011": 4.05761481953,
			"-0.01": 3.22198193446,
			"-0.009": 3.56176238299,
			"-0.008": 2.56942189077,
			"-0.007": 3.07759890652,
			"-0.006": 4.38289728132,
			"-0.005": 9.54894091898,
			"-0.004": 9.13256280287,
			"-0.003": 9.44237763986,
			"-0.002": 9.86233302466,
			"-0.001": 8.83468454835,
			"0.0": 9.17987500509,
			"0.001": 12.0943497538,
			"0.002": 9.75232929595,
			"0.003": 8.73663742665,
			"0.004": 6.24168790318,
			"0.005": 3.67115159488,
			"0.006": 2.34845846006,
			"0.007": 2.84885663566,
			"0.008": 2.52497029772,
			"0.009": 2.62326120744,
			"0.01": 2.41759816301,
			"0.011": 2.41490914077,
			"0.012": 2.84551121371,
			"0.013": 2.88327925739,
			"0.014": 3.68835388035,
			"0.015": 3.51890694921,
			"0.016": 2.63346807477,
			"0.017": 2.56616729159,
			"0.018": 0.9296572844,
			"0.019": 0.0,
			"0.02": 0.0,
			"0.021": 0.0,
			"0.022": 0.0,
			"0.023": 0.0,
			"0.024": 0.0,
			"0.025": 0.0
		}
	}
}
