{
	 "smiles": "CC1=CC(=CC(C)=C1)C(=O)C=C1NC(=O)CS1", 
	 "Tm": 437.15, 
	 "num_atms": 30, 
	 "gaussian": { 
		 "optdone": 1, 
		 "sigma_profile": "yes", 
		 "theory": "DFT", 
		 "functional": "B3LYP", 
		 "basiset": "6-31G**", 
		 "properties": { 
			 "R2extent": 5708.8163, 
			 "electric_dipole_moment_norm": 3.23224585234, 
			 "electric_quadrupole_moment_norm": 10.7456769335, 
			 "total_energy": -1106.61606784, 
			 "HOMO_LUMO_gap": 0.16856, 
			 "cosmo_polarized_energy": -18.14, 
			 "cosmo_cavitation_energy": 35.8, 
			 "cosmo_dispersion_energy": -25.52, 
			 "cosmo_repulsion_energy": 1.97, 
			 "cosmo_total_nonelectrostatic_energy": 12.25, 
			 "SMD_solvation_energy": 7.16 
		},
		"coords": [
			{
				"x": 2.12915325,
				"y": 2.6842911988,
				"z": 2.7506751965,
				"element": "C" 
			},
			{
				"x": 1.6934307794,
				"y": 1.7128277162,
				"z": 1.6785488412,
				"element": "C" 
			},
			{
				"x": 1.0885593817,
				"y": 2.1570501761,
				"z": 0.5042457051,
				"element": "C" 
			},
			{
				"x": 0.6487113671,
				"y": 1.2443990554,
				"z": -0.4670659824,
				"element": "C" 
			},
			{
				"x": 0.8560147452,
				"y": -0.1251880365,
				"z": -0.2743208262,
				"element": "C" 
			},
			{
				"x": 1.4866783786,
				"y": -0.598195018,
				"z": 0.8851592553,
				"element": "C" 
			},
			{
				"x": 1.7443515561,
				"y": -2.0757668429,
				"z": 1.0688320284,
				"element": "C" 
			},
			{
				"x": 1.8843790342,
				"y": 0.3312099794,
				"z": 1.8493286384,
				"element": "C" 
			},
			{
				"x": 0.0709551174,
				"y": 1.7836404304,
				"z": -1.7407397027,
				"element": "C" 
			},
			{
				"x": 0.491078908,
				"y": 2.8418867358,
				"z": -2.2039735823,
				"element": "O" 
			},
			{
				"x": -0.9854137983,
				"y": 1.0627734083,
				"z": -2.4780714672,
				"element": "C" 
			},
			{
				"x": -2.0071675634,
				"y": 0.306556577,
				"z": -2.009517649,
				"element": "C" 
			},
			{
				"x": -3.0252671598,
				"y": -0.1500632381,
				"z": -2.8416813943,
				"element": "N" 
			},
			{
				"x": -4.1090355197,
				"y": -0.8225510642,
				"z": -2.3159916916,
				"element": "C" 
			},
			{
				"x": -5.0404282875,
				"y": -1.2497744138,
				"z": -2.9657068525,
				"element": "O" 
			},
			{
				"x": -3.9649777217,
				"y": -0.9340112351,
				"z": -0.8010456157,
				"element": "C" 
			},
			{
				"x": -2.3429759827,
				"y": -0.2125350129,
				"z": -0.3350573738,
				"element": "S" 
			},
			{
				"x": 2.1299608902,
				"y": 3.7124570362,
				"z": 2.37918154,
				"element": "H" 
			},
			{
				"x": 3.1365978702,
				"y": 2.4542284477,
				"z": 3.1134192231,
				"element": "H" 
			},
			{
				"x": 1.4579171298,
				"y": 2.6459560739,
				"z": 3.6174633151,
				"element": "H" 
			},
			{
				"x": 0.9495022218,
				"y": 3.2175331496,
				"z": 0.3181412572,
				"element": "H" 
			},
			{
				"x": 0.5507193945,
				"y": -0.8279361827,
				"z": -1.0444100819,
				"element": "H" 
			},
			{
				"x": 2.022243287,
				"y": -2.3080419869,
				"z": 2.1006892331,
				"element": "H" 
			},
			{
				"x": 2.5604433275,
				"y": -2.4201108901,
				"z": 0.4218734503,
				"element": "H" 
			},
			{
				"x": 0.8596298596,
				"y": -2.6690511269,
				"z": 0.8146984162,
				"element": "H" 
			},
			{
				"x": 2.3654671149,
				"y": -0.0258566782,
				"z": 2.7581671731,
				"element": "H" 
			},
			{
				"x": -1.0326458175,
				"y": 1.3479449017,
				"z": -3.5269188326,
				"element": "H" 
			},
			{
				"x": -3.0038169779,
				"y": 0.0364851662,
				"z": -3.8361949565,
				"element": "H" 
			},
			{
				"x": -4.0201257794,
				"y": -1.9835861031,
				"z": -0.5047867345,
				"element": "H" 
			},
			{
				"x": -4.7852390051,
				"y": -0.3931722235,
				"z": -0.3218405296,
				"element": "H" 
			}
		],
		 "valence_orbital": [ 
			{
				"type": "occ",
				"energy": -0.27731,
				"method": "rhf"
			},
			{
				"type": "occ",
				"energy": -0.25169,
				"method": "rhf"
			},
			{
				"type": "occ",
				"energy": -0.24231,
				"method": "rhf"
			},
			{
				"type": "occ",
				"energy": -0.23995,
				"method": "rhf"
			},
			{
				"type": "occ",
				"energy": -0.22864,
				"method": "rhf"
			},
			{
				"type": "unocc",
				"energy": -0.06008,
				"method": "rhf"
			},
			{
				"type": "unocc",
				"energy": -0.01666,
				"method": "rhf"
			},
			{
				"type": "unocc",
				"energy": -0.00931,
				"method": "rhf"
			},
			{
				"type": "unocc",
				"energy": 0.01082,
				"method": "rhf"
			},
			{
				"type": "unocc",
				"energy": 0.01674,
				"method": "rhf"
			}
		],
		"cosmo_sigma_profile": { 
			"-0.025": 0.0,
			"-0.024": 0.0,
			"-0.023": 0.0,
			"-0.022": 0.0,
			"-0.021": 0.0,
			"-0.02": 0.0,
			"-0.019": 0.0,
			"-0.018": 0.00191960547317,
			"-0.017": 0.834127161833,
			"-0.016": 1.04783613489,
			"-0.015": 1.35227869837,
			"-0.014": 1.34666367378,
			"-0.013": 0.934006754769,
			"-0.012": 1.0510978992,
			"-0.011": 1.06942398803,
			"-0.01": 1.15252556966,
			"-0.009": 5.00092263471,
			"-0.008": 6.5913092073,
			"-0.007": 6.79119403135,
			"-0.006": 8.84707540037,
			"-0.005": 12.8450013102,
			"-0.004": 21.788996375,
			"-0.003": 24.1341679967,
			"-0.002": 24.2206900414,
			"-0.001": 26.3792565939,
			"0.0": 28.166342766,
			"0.001": 17.4221536453,
			"0.002": 14.6158848141,
			"0.003": 13.2583011352,
			"0.004": 15.9559341275,
			"0.005": 12.3568290458,
			"0.006": 3.56897596831,
			"0.007": 2.89264013835,
			"0.008": 3.43114172099,
			"0.009": 3.27113124736,
			"0.01": 4.38879756,
			"0.011": 6.15074128218,
			"0.012": 8.12193839446,
			"0.013": 5.50096607287,
			"0.014": 1.50873515962,
			"0.015": 0.0200353670884,
			"0.016": 0.0,
			"0.017": 0.0,
			"0.018": 0.0,
			"0.019": 0.0,
			"0.02": 0.0,
			"0.021": 0.0,
			"0.022": 0.0,
			"0.023": 0.0,
			"0.024": 0.0,
			"0.025": 0.0
		}
	}
}
