{
	 "smiles": "CC(=O)C1=CN(C=C1)S(=O)(=O)C1=CC=C(C)C=C1", 
	 "Tm": 357.15, 
	 "num_atms": 31, 
	 "gaussian": { 
		 "optdone": 1, 
		 "sigma_profile": "yes", 
		 "theory": "DFT", 
		 "functional": "B3LYP", 
		 "basiset": "6-31G**", 
		 "properties": { 
			 "R2extent": 5968.9384, 
			 "electric_dipole_moment_norm": 6.15057876464, 
			 "electric_quadrupole_moment_norm": 20.9840550657, 
			 "total_energy": -1181.75095223, 
			 "HOMO_LUMO_gap": 0.17966, 
			 "cosmo_polarized_energy": -16.33, 
			 "cosmo_cavitation_energy": 37.4, 
			 "cosmo_dispersion_energy": -26.25, 
			 "cosmo_repulsion_energy": 1.99, 
			 "cosmo_total_nonelectrostatic_energy": 13.15, 
			 "SMD_solvation_energy": 6.98 
		},
		"coords": [
			{
				"x": -1.3243978211,
				"y": -2.7837006819,
				"z": 3.4849245141,
				"element": "C" 
			},
			{
				"x": -0.5975313004,
				"y": -1.4642488616,
				"z": 3.6913566679,
				"element": "C" 
			},
			{
				"x": 0.0919347057,
				"y": -1.2667772073,
				"z": 4.682070364,
				"element": "O" 
			},
			{
				"x": -0.7470264193,
				"y": -0.419679793,
				"z": 2.6581679,
				"element": "C" 
			},
			{
				"x": -1.4667309732,
				"y": -0.4884221135,
				"z": 1.4811745741,
				"element": "C" 
			},
			{
				"x": -1.3404793143,
				"y": 0.7299735342,
				"z": 0.8462615205,
				"element": "N" 
			},
			{
				"x": -0.5257179308,
				"y": 1.5748326218,
				"z": 1.6044324452,
				"element": "C" 
			},
			{
				"x": -0.1553007711,
				"y": 0.8888111487,
				"z": 2.7245877971,
				"element": "C" 
			},
			{
				"x": -1.9415969467,
				"y": 1.0853497499,
				"z": -0.7328555244,
				"element": "S" 
			},
			{
				"x": -2.0880129523,
				"y": 2.5367402215,
				"z": -0.7669708845,
				"element": "O" 
			},
			{
				"x": -3.0544616847,
				"y": 0.1608560191,
				"z": -0.9287309085,
				"element": "O" 
			},
			{
				"x": -0.6047301776,
				"y": 0.6165928987,
				"z": -1.8197536263,
				"element": "C" 
			},
			{
				"x": 0.3636823768,
				"y": 1.5630436775,
				"z": -2.1607614709,
				"element": "C" 
			},
			{
				"x": 1.4031703658,
				"y": 1.1862155038,
				"z": -3.0073428761,
				"element": "C" 
			},
			{
				"x": 1.489381116,
				"y": -0.118068518,
				"z": -3.5168874358,
				"element": "C" 
			},
			{
				"x": 2.6376312309,
				"y": -0.523500786,
				"z": -4.4079844768,
				"element": "C" 
			},
			{
				"x": 0.4926164752,
				"y": -1.0411986964,
				"z": -3.1666915971,
				"element": "C" 
			},
			{
				"x": -0.5553362406,
				"y": -0.6856059195,
				"z": -2.3213732577,
				"element": "C" 
			},
			{
				"x": -1.0159177301,
				"y": -3.256525873,
				"z": 2.5457445836,
				"element": "H" 
			},
			{
				"x": -1.0975114289,
				"y": -3.4496102265,
				"z": 4.3181448073,
				"element": "H" 
			},
			{
				"x": -2.4071628061,
				"y": -2.6240770825,
				"z": 3.4309234957,
				"element": "H" 
			},
			{
				"x": -2.0751253196,
				"y": -1.2678734263,
				"z": 1.0503667124,
				"element": "H" 
			},
			{
				"x": -0.3328245945,
				"y": 2.5831459615,
				"z": 1.274241284,
				"element": "H" 
			},
			{
				"x": 0.4562541928,
				"y": 1.2521171874,
				"z": 3.5372007644,
				"element": "H" 
			},
			{
				"x": 0.288423707,
				"y": 2.5779779562,
				"z": -1.7865325711,
				"element": "H" 
			},
			{
				"x": 2.1561548429,
				"y": 1.9192607016,
				"z": -3.2831899863,
				"element": "H" 
			},
			{
				"x": 3.4767425987,
				"y": -0.9026029345,
				"z": -3.8115976737,
				"element": "H" 
			},
			{
				"x": 2.3458318869,
				"y": -1.3171126677,
				"z": -5.1014581685,
				"element": "H" 
			},
			{
				"x": 3.0094982954,
				"y": 0.3228794214,
				"z": -4.9921811417,
				"element": "H" 
			},
			{
				"x": 0.5332497572,
				"y": -2.0501735403,
				"z": -3.5676839678,
				"element": "H" 
			},
			{
				"x": -1.3358071401,
				"y": -1.3953182754,
				"z": -2.0703018628,
				"element": "H" 
			}
		],
		 "valence_orbital": [ 
			{
				"type": "occ",
				"energy": -0.2842,
				"method": "rhf"
			},
			{
				"type": "occ",
				"energy": -0.28329,
				"method": "rhf"
			},
			{
				"type": "occ",
				"energy": -0.26028,
				"method": "rhf"
			},
			{
				"type": "occ",
				"energy": -0.24231,
				"method": "rhf"
			},
			{
				"type": "occ",
				"energy": -0.23805,
				"method": "rhf"
			},
			{
				"type": "unocc",
				"energy": -0.05839,
				"method": "rhf"
			},
			{
				"type": "unocc",
				"energy": -0.03577,
				"method": "rhf"
			},
			{
				"type": "unocc",
				"energy": -0.03141,
				"method": "rhf"
			},
			{
				"type": "unocc",
				"energy": 0.01605,
				"method": "rhf"
			},
			{
				"type": "unocc",
				"energy": 0.03716,
				"method": "rhf"
			}
		],
		"cosmo_sigma_profile": { 
			"-0.025": 0.0,
			"-0.024": 0.0,
			"-0.023": 0.0,
			"-0.022": 0.0,
			"-0.021": 0.0,
			"-0.02": 0.0,
			"-0.019": 0.0,
			"-0.018": 0.0,
			"-0.017": 0.0,
			"-0.016": 0.0,
			"-0.015": 0.0,
			"-0.014": 0.0,
			"-0.013": 0.0,
			"-0.012": 0.0,
			"-0.011": 0.0,
			"-0.01": 0.0,
			"-0.009": 1.17578988088,
			"-0.008": 3.47478532683,
			"-0.007": 11.3910616931,
			"-0.006": 20.9783973163,
			"-0.005": 24.0575283503,
			"-0.004": 20.7347056143,
			"-0.003": 23.1084145205,
			"-0.002": 23.8066500367,
			"-0.001": 26.5119513339,
			"0.0": 24.9426448527,
			"0.001": 18.9602803991,
			"0.002": 22.2821569902,
			"0.003": 17.7557108066,
			"0.004": 9.98464382655,
			"0.005": 6.24310206302,
			"0.006": 4.67062679556,
			"0.007": 4.68628859339,
			"0.008": 5.85441418592,
			"0.009": 9.40034912435,
			"0.01": 8.27213141108,
			"0.011": 2.72356500071,
			"0.012": 4.66491607602,
			"0.013": 2.71663651394,
			"0.014": 0.563879653109,
			"0.015": 0.0,
			"0.016": 0.0,
			"0.017": 0.0,
			"0.018": 0.0,
			"0.019": 0.0,
			"0.02": 0.0,
			"0.021": 0.0,
			"0.022": 0.0,
			"0.023": 0.0,
			"0.024": 0.0,
			"0.025": 0.0
		}
	}
}
