{
	 "smiles": "COC(=O)C=C(C)C", 
	 "Tm": 387.15, 
	 "num_atms": 18, 
	 "gaussian": { 
		 "optdone": 1, 
		 "sigma_profile": "yes", 
		 "theory": "DFT", 
		 "functional": "B3LYP", 
		 "basiset": "6-31G**", 
		 "properties": { 
			 "R2extent": 1491.0399, 
			 "electric_dipole_moment_norm": 1.51699561305, 
			 "electric_quadrupole_moment_norm": 7.39968339525, 
			 "total_energy": -385.114791067, 
			 "HOMO_LUMO_gap": 0.22223, 
			 "cosmo_polarized_energy": -6.51, 
			 "cosmo_cavitation_energy": 21.54, 
			 "cosmo_dispersion_energy": -15.79, 
			 "cosmo_repulsion_energy": 1.33, 
			 "cosmo_total_nonelectrostatic_energy": 7.08, 
			 "SMD_solvation_energy": 5.77 
		},
		"coords": [
			{
				"x": 2.9141882611,
				"y": 0.6230856968,
				"z": 2.2860014419,
				"element": "C" 
			},
			{
				"x": 2.3094371989,
				"y": 0.6234520947,
				"z": 0.9868695674,
				"element": "O" 
			},
			{
				"x": 1.2767443432,
				"y": -0.2482083447,
				"z": 0.8293729204,
				"element": "C" 
			},
			{
				"x": 0.8986298799,
				"y": -0.9742349696,
				"z": 1.7327286843,
				"element": "O" 
			},
			{
				"x": 0.7505921579,
				"y": -0.1437981338,
				"z": -0.5461085019,
				"element": "C" 
			},
			{
				"x": -0.2708945293,
				"y": -0.8496908205,
				"z": -1.0730179219,
				"element": "C" 
			},
			{
				"x": -1.0741906028,
				"y": -1.8906011549,
				"z": -0.3409640382,
				"element": "C" 
			},
			{
				"x": -0.6794883603,
				"y": -0.6148087723,
				"z": -2.5048519791,
				"element": "C" 
			},
			{
				"x": 3.3242973645,
				"y": -0.3622959598,
				"z": 2.523435134,
				"element": "H" 
			},
			{
				"x": 2.1837294795,
				"y": 0.8894280505,
				"z": 3.0547682279,
				"element": "H" 
			},
			{
				"x": 3.7101008652,
				"y": 1.3669643807,
				"z": 2.2418978043,
				"element": "H" 
			},
			{
				"x": 1.2645288967,
				"y": 0.5858811789,
				"z": -1.1648086219,
				"element": "H" 
			},
			{
				"x": -2.1357574991,
				"y": -1.6107045902,
				"z": -0.3454395436,
				"element": "H" 
			},
			{
				"x": -1.0080895908,
				"y": -2.8501406413,
				"z": -0.8702876228,
				"element": "H" 
			},
			{
				"x": -0.740012462,
				"y": -2.0213062261,
				"z": 0.6857774094,
				"element": "H" 
			},
			{
				"x": -1.7308080309,
				"y": -0.3044289726,
				"z": -2.558946994,
				"element": "H" 
			},
			{
				"x": -0.6015721953,
				"y": -1.5436093338,
				"z": -3.0843600269,
				"element": "H" 
			},
			{
				"x": -0.0682351765,
				"y": 0.1487165179,
				"z": -2.9920659393,
				"element": "H" 
			}
		],
		 "valence_orbital": [ 
			{
				"type": "occ",
				"energy": -0.35817,
				"method": "rhf"
			},
			{
				"type": "occ",
				"energy": -0.34786,
				"method": "rhf"
			},
			{
				"type": "occ",
				"energy": -0.29223,
				"method": "rhf"
			},
			{
				"type": "occ",
				"energy": -0.26095,
				"method": "rhf"
			},
			{
				"type": "occ",
				"energy": -0.25613,
				"method": "rhf"
			},
			{
				"type": "unocc",
				"energy": -0.0339,
				"method": "rhf"
			},
			{
				"type": "unocc",
				"energy": 0.09506,
				"method": "rhf"
			},
			{
				"type": "unocc",
				"energy": 0.09593,
				"method": "rhf"
			},
			{
				"type": "unocc",
				"energy": 0.12098,
				"method": "rhf"
			},
			{
				"type": "unocc",
				"energy": 0.12573,
				"method": "rhf"
			}
		],
		"cosmo_sigma_profile": { 
			"-0.025": 0.0,
			"-0.024": 0.0,
			"-0.023": 0.0,
			"-0.022": 0.0,
			"-0.021": 0.0,
			"-0.02": 0.0,
			"-0.019": 0.0,
			"-0.018": 0.0,
			"-0.017": 0.0,
			"-0.016": 0.0,
			"-0.015": 0.0,
			"-0.014": 0.0,
			"-0.013": 0.0,
			"-0.012": 0.0,
			"-0.011": 0.0,
			"-0.01": 0.0,
			"-0.009": 0.0,
			"-0.008": 0.0,
			"-0.007": 0.157728942066,
			"-0.006": 3.26289909541,
			"-0.005": 13.9580651163,
			"-0.004": 21.7675043403,
			"-0.003": 18.6898476979,
			"-0.002": 16.4116428903,
			"-0.001": 18.4088436712,
			"0.0": 17.5447362459,
			"0.001": 12.03990638,
			"0.002": 9.19524249397,
			"0.003": 8.30785106879,
			"0.004": 5.29527787923,
			"0.005": 3.33994919275,
			"0.006": 3.76091845749,
			"0.007": 2.80123436389,
			"0.008": 2.58859366114,
			"0.009": 2.82102199339,
			"0.01": 2.26799606697,
			"0.011": 2.39927893734,
			"0.012": 3.28384232241,
			"0.013": 1.13273821022,
			"0.014": 0.0,
			"0.015": 0.0,
			"0.016": 0.0,
			"0.017": 0.0,
			"0.018": 0.0,
			"0.019": 0.0,
			"0.02": 0.0,
			"0.021": 0.0,
			"0.022": 0.0,
			"0.023": 0.0,
			"0.024": 0.0,
			"0.025": 0.0
		}
	}
}
