{
	 "smiles": "CN(C)C1=CC=C(N)C=C1", 
	 "Tm": 326.15, 
	 "num_atms": 22, 
	 "gaussian": { 
		 "optdone": 1, 
		 "sigma_profile": "yes", 
		 "theory": "DFT", 
		 "functional": "B3LYP", 
		 "basiset": "6-31G**", 
		 "properties": { 
			 "R2extent": 1952.456, 
			 "electric_dipole_moment_norm": 1.64259144647, 
			 "electric_quadrupole_moment_norm": 9.6266870428, 
			 "total_energy": -421.577098566, 
			 "HOMO_LUMO_gap": 0.17595, 
			 "cosmo_polarized_energy": -9.32, 
			 "cosmo_cavitation_energy": 24.17, 
			 "cosmo_dispersion_energy": -18.15, 
			 "cosmo_repulsion_energy": 1.46, 
			 "cosmo_total_nonelectrostatic_energy": 7.48, 
			 "SMD_solvation_energy": 3.39 
		},
		"coords": [
			{
				"x": 2.9941606818,
				"y": 1.6046471324,
				"z": -1.3514354915,
				"element": "C" 
			},
			{
				"x": 1.5469990216,
				"y": 1.4824857571,
				"z": -1.3363741841,
				"element": "N" 
			},
			{
				"x": 0.8414250544,
				"y": 2.0121335153,
				"z": -2.4900682164,
				"element": "C" 
			},
			{
				"x": 0.982166794,
				"y": 0.3876182321,
				"z": -0.6605005378,
				"element": "C" 
			},
			{
				"x": 1.7275287954,
				"y": -0.3814353422,
				"z": 0.2569265825,
				"element": "C" 
			},
			{
				"x": 1.1526347709,
				"y": -1.4388162178,
				"z": 0.9574381511,
				"element": "C" 
			},
			{
				"x": -0.190276707,
				"y": -1.7937069548,
				"z": 0.7745920245,
				"element": "C" 
			},
			{
				"x": -0.7847674202,
				"y": -2.8237722242,
				"z": 1.529342958,
				"element": "N" 
			},
			{
				"x": -0.9330257522,
				"y": -1.0446140842,
				"z": -0.1473369538,
				"element": "C" 
			},
			{
				"x": -0.3641811352,
				"y": 0.0139074045,
				"z": -0.8510684886,
				"element": "C" 
			},
			{
				"x": 3.3861451938,
				"y": 1.7188736767,
				"z": -0.3351984887,
				"element": "H" 
			},
			{
				"x": 3.270374611,
				"y": 2.5037484706,
				"z": -1.9063205498,
				"element": "H" 
			},
			{
				"x": 3.503621042,
				"y": 0.7425025786,
				"z": -1.8152421352,
				"element": "H" 
			},
			{
				"x": -0.1469524712,
				"y": 2.3871541566,
				"z": -2.2038356309,
				"element": "H" 
			},
			{
				"x": 1.4024018839,
				"y": 2.8575803438,
				"z": -2.893934417,
				"element": "H" 
			},
			{
				"x": 0.701580086,
				"y": 1.2731247604,
				"z": -3.2977075596,
				"element": "H" 
			},
			{
				"x": 2.7733025172,
				"y": -0.1624317063,
				"z": 0.4349845209,
				"element": "H" 
			},
			{
				"x": 1.7646103569,
				"y": -2.0000880426,
				"z": 1.6602730216,
				"element": "H" 
			},
			{
				"x": -1.5753702991,
				"y": -3.257740807,
				"z": 1.069585285,
				"element": "H" 
			},
			{
				"x": -0.12871598,
				"y": -3.5311130774,
				"z": 1.8359730719,
				"element": "H" 
			},
			{
				"x": -1.9777309053,
				"y": -1.2927700435,
				"z": -0.3220537373,
				"element": "H" 
			},
			{
				"x": -0.9877301387,
				"y": 0.5484124721,
				"z": -1.5573392247,
				"element": "H" 
			}
		],
		 "valence_orbital": [ 
			{
				"type": "occ",
				"energy": -0.32193,
				"method": "rhf"
			},
			{
				"type": "occ",
				"energy": -0.30771,
				"method": "rhf"
			},
			{
				"type": "occ",
				"energy": -0.23773,
				"method": "rhf"
			},
			{
				"type": "occ",
				"energy": -0.23444,
				"method": "rhf"
			},
			{
				"type": "occ",
				"energy": -0.16279,
				"method": "rhf"
			},
			{
				"type": "unocc",
				"energy": 0.01316,
				"method": "rhf"
			},
			{
				"type": "unocc",
				"energy": 0.04056,
				"method": "rhf"
			},
			{
				"type": "unocc",
				"energy": 0.09037,
				"method": "rhf"
			},
			{
				"type": "unocc",
				"energy": 0.09411,
				"method": "rhf"
			},
			{
				"type": "unocc",
				"energy": 0.11696,
				"method": "rhf"
			}
		],
		"cosmo_sigma_profile": { 
			"-0.025": 0.0,
			"-0.024": 0.0,
			"-0.023": 0.0,
			"-0.022": 0.0,
			"-0.021": 0.0,
			"-0.02": 0.0,
			"-0.019": 0.0,
			"-0.018": 0.0,
			"-0.017": 0.0,
			"-0.016": 0.0,
			"-0.015": 0.0,
			"-0.014": 0.0,
			"-0.013": 0.0,
			"-0.012": 0.505498830361,
			"-0.011": 2.44401942185,
			"-0.01": 3.12487391218,
			"-0.009": 2.21407671028,
			"-0.008": 2.65354672615,
			"-0.007": 3.28034946319,
			"-0.006": 4.92178859923,
			"-0.005": 12.9502780498,
			"-0.004": 14.9223704673,
			"-0.003": 16.6029848302,
			"-0.002": 20.9726073705,
			"-0.001": 21.9913675354,
			"0.0": 14.1211228767,
			"0.001": 7.09711540633,
			"0.002": 6.87524215289,
			"0.003": 5.79535411112,
			"0.004": 6.24611652093,
			"0.005": 7.7510051798,
			"0.006": 7.57440399419,
			"0.007": 9.9086310018,
			"0.008": 9.13576988676,
			"0.009": 2.28773649279,
			"0.01": 1.73858498252,
			"0.011": 1.24704864279,
			"0.012": 0.851227715406,
			"0.013": 0.874696186507,
			"0.014": 0.408634283527,
			"0.015": 0.41826729244,
			"0.016": 0.914631660799,
			"0.017": 0.107782437097,
			"0.018": 0.0,
			"0.019": 0.0,
			"0.02": 0.0,
			"0.021": 0.0,
			"0.022": 0.0,
			"0.023": 0.0,
			"0.024": 0.0,
			"0.025": 0.0
		}
	}
}
