{
	 "smiles": "OC(=O)C1=CC(=CS1)C#N", 
	 "Tm": 498.15, 
	 "num_atms": 13, 
	 "gaussian": { 
		 "optdone": 1, 
		 "sigma_profile": "yes", 
		 "theory": "DFT", 
		 "functional": "B3LYP", 
		 "basiset": "6-31G**", 
		 "properties": { 
			 "R2extent": 2035.3182, 
			 "electric_dipole_moment_norm": 4.9572457605, 
			 "electric_quadrupole_moment_norm": 14.9935730758, 
			 "total_energy": -833.800241352, 
			 "HOMO_LUMO_gap": 0.19224, 
			 "cosmo_polarized_energy": -18.1, 
			 "cosmo_cavitation_energy": 21.21, 
			 "cosmo_dispersion_energy": -15.66, 
			 "cosmo_repulsion_energy": 1.22, 
			 "cosmo_total_nonelectrostatic_energy": 6.77, 
			 "SMD_solvation_energy": 6.49 
		},
		"coords": [
			{
				"x": -1.9579211762,
				"y": -0.3337957075,
				"z": -2.2885896062,
				"element": "O" 
			},
			{
				"x": -0.6253009727,
				"y": -0.4512611414,
				"z": -2.0656043396,
				"element": "C" 
			},
			{
				"x": 0.0453372099,
				"y": -1.18397203,
				"z": -2.7515716197,
				"element": "O" 
			},
			{
				"x": -0.0278041768,
				"y": 0.3421785715,
				"z": -0.9582686463,
				"element": "C" 
			},
			{
				"x": 1.3031728783,
				"y": 0.3099337404,
				"z": -0.6321048859,
				"element": "C" 
			},
			{
				"x": 1.6251201152,
				"y": 1.1617817612,
				"z": 0.4691831071,
				"element": "C" 
			},
			{
				"x": 0.5239501603,
				"y": 1.8317485802,
				"z": 0.9646133619,
				"element": "C" 
			},
			{
				"x": -0.9035448677,
				"y": 1.4313955543,
				"z": 0.0976098976,
				"element": "S" 
			},
			{
				"x": 2.9382373948,
				"y": 1.3144555128,
				"z": 1.0101051482,
				"element": "C" 
			},
			{
				"x": 4.0078109103,
				"y": 1.4378362559,
				"z": 1.4494930089,
				"element": "N" 
			},
			{
				"x": -2.3870022766,
				"y": 0.2800611175,
				"z": -1.6760087681,
				"element": "H" 
			},
			{
				"x": 2.016440895,
				"y": -0.3039270328,
				"z": -1.1669162512,
				"element": "H" 
			},
			{
				"x": 0.4926039062,
				"y": 2.5313648178,
				"z": 1.7880595933,
				"element": "H" 
			}
		],
		 "valence_orbital": [ 
			{
				"type": "occ",
				"energy": -0.34774,
				"method": "rhf"
			},
			{
				"type": "occ",
				"energy": -0.33805,
				"method": "rhf"
			},
			{
				"type": "occ",
				"energy": -0.29741,
				"method": "rhf"
			},
			{
				"type": "occ",
				"energy": -0.29566,
				"method": "rhf"
			},
			{
				"type": "occ",
				"energy": -0.28124,
				"method": "rhf"
			},
			{
				"type": "unocc",
				"energy": -0.089,
				"method": "rhf"
			},
			{
				"type": "unocc",
				"energy": -0.04179,
				"method": "rhf"
			},
			{
				"type": "unocc",
				"energy": -0.03538,
				"method": "rhf"
			},
			{
				"type": "unocc",
				"energy": 0.02285,
				"method": "rhf"
			},
			{
				"type": "unocc",
				"energy": 0.03604,
				"method": "rhf"
			}
		],
		"cosmo_sigma_profile": { 
			"-0.025": 0.0,
			"-0.024": 0.0,
			"-0.023": 0.0,
			"-0.022": 0.0,
			"-0.021": 0.0,
			"-0.02": 0.0,
			"-0.019": 0.428416490437,
			"-0.018": 1.10212650718,
			"-0.017": 1.21655652431,
			"-0.016": 0.815536089222,
			"-0.015": 0.667944453765,
			"-0.014": 1.26220157841,
			"-0.013": 1.40653867193,
			"-0.012": 2.4952954974,
			"-0.011": 3.90509715751,
			"-0.01": 3.05247239745,
			"-0.009": 4.33021066979,
			"-0.008": 4.1598834577,
			"-0.007": 4.98179588083,
			"-0.006": 5.09465197835,
			"-0.005": 5.95290670004,
			"-0.004": 8.5995851575,
			"-0.003": 10.1409769504,
			"-0.002": 14.315725042,
			"-0.001": 19.1403600394,
			"0.0": 12.7697399887,
			"0.001": 5.76299826588,
			"0.002": 4.61243102249,
			"0.003": 3.82710969011,
			"0.004": 4.65964667025,
			"0.005": 4.72855522655,
			"0.006": 4.27741174104,
			"0.007": 6.18144393716,
			"0.008": 6.31097193862,
			"0.009": 6.94538272651,
			"0.01": 7.88945525404,
			"0.011": 8.08599249552,
			"0.012": 4.77458610133,
			"0.013": 0.825896951164,
			"0.014": 0.0,
			"0.015": 0.0,
			"0.016": 0.0,
			"0.017": 0.0,
			"0.018": 0.0,
			"0.019": 0.0,
			"0.02": 0.0,
			"0.021": 0.0,
			"0.022": 0.0,
			"0.023": 0.0,
			"0.024": 0.0,
			"0.025": 0.0
		}
	}
}
