{
	 "smiles": "O=C(CN1CCNCC1)N1CCOCC1", 
	 "Tm": 337.15, 
	 "num_atms": 34, 
	 "gaussian": { 
		 "optdone": 1, 
		 "sigma_profile": "yes", 
		 "theory": "DFT", 
		 "functional": "B3LYP", 
		 "basiset": "6-31G**", 
		 "properties": { 
			 "R2extent": 4740.0248, 
			 "electric_dipole_moment_norm": 3.67036029158, 
			 "electric_quadrupole_moment_norm": 13.9398126128, 
			 "total_energy": -707.188693962, 
			 "HOMO_LUMO_gap": 0.22127, 
			 "cosmo_polarized_energy": -17.16, 
			 "cosmo_cavitation_energy": 33.33, 
			 "cosmo_dispersion_energy": -24.81, 
			 "cosmo_repulsion_energy": 1.96, 
			 "cosmo_total_nonelectrostatic_energy": 10.47, 
			 "SMD_solvation_energy": 0.65 
		},
		"coords": [
			{
				"x": 0.4539268535,
				"y": 2.1089233609,
				"z": -1.525386989,
				"element": "O" 
			},
			{
				"x": 0.2372370027,
				"y": 1.0238055405,
				"z": -1.0002309267,
				"element": "C" 
			},
			{
				"x": -0.4539037944,
				"y": 0.897855,
				"z": 0.3715273086,
				"element": "C" 
			},
			{
				"x": -0.9322421164,
				"y": 2.1738698363,
				"z": 0.8677857243,
				"element": "N" 
			},
			{
				"x": 0.1129677849,
				"y": 3.1031726947,
				"z": 1.3229212036,
				"element": "C" 
			},
			{
				"x": 0.6425417446,
				"y": 2.7722156122,
				"z": 2.7259683113,
				"element": "C" 
			},
			{
				"x": -0.4812106392,
				"y": 2.7388746996,
				"z": 3.6670791265,
				"element": "N" 
			},
			{
				"x": -1.4724849801,
				"y": 1.7323647321,
				"z": 3.2832858916,
				"element": "C" 
			},
			{
				"x": -1.9907437217,
				"y": 2.0714059385,
				"z": 1.8766926643,
				"element": "C" 
			},
			{
				"x": 0.6117149661,
				"y": -0.1568422157,
				"z": -1.6068391383,
				"element": "N" 
			},
			{
				"x": 1.350114828,
				"y": -0.1071532007,
				"z": -2.870126813,
				"element": "C" 
			},
			{
				"x": 0.7552983556,
				"y": -1.1104104772,
				"z": -3.8551642339,
				"element": "C" 
			},
			{
				"x": 0.7186976392,
				"y": -2.4216163539,
				"z": -3.2979091047,
				"element": "O" 
			},
			{
				"x": -0.0650176468,
				"y": -2.4526030867,
				"z": -2.1169510396,
				"element": "C" 
			},
			{
				"x": 0.4908378946,
				"y": -1.5019233021,
				"z": -1.050381357,
				"element": "C" 
			},
			{
				"x": -1.3228088198,
				"y": 0.2380627122,
				"z": 0.2609166921,
				"element": "H" 
			},
			{
				"x": 0.2409878738,
				"y": 0.3673787314,
				"z": 1.0514531223,
				"element": "H" 
			},
			{
				"x": 0.9156538067,
				"y": 3.1170559159,
				"z": 0.584491507,
				"element": "H" 
			},
			{
				"x": -0.3293776245,
				"y": 4.1066296682,
				"z": 1.3499936773,
				"element": "H" 
			},
			{
				"x": 1.3489596134,
				"y": 3.5481182778,
				"z": 3.0428652475,
				"element": "H" 
			},
			{
				"x": 1.2029551964,
				"y": 1.8162938197,
				"z": 2.6981611817,
				"element": "H" 
			},
			{
				"x": -0.1444455576,
				"y": 2.5565443187,
				"z": 4.6080673282,
				"element": "H" 
			},
			{
				"x": -1.065437455,
				"y": 0.701100858,
				"z": 3.2882546346,
				"element": "H" 
			},
			{
				"x": -2.3023884721,
				"y": 1.7563154314,
				"z": 3.9994917037,
				"element": "H" 
			},
			{
				"x": -2.7298312838,
				"y": 1.3303179943,
				"z": 1.5512431218,
				"element": "H" 
			},
			{
				"x": -2.4944485573,
				"y": 3.0452402916,
				"z": 1.9276011472,
				"element": "H" 
			},
			{
				"x": 2.4060448023,
				"y": -0.3572000389,
				"z": -2.6895490629,
				"element": "H" 
			},
			{
				"x": 1.2931709285,
				"y": 0.9135751061,
				"z": -3.2497291877,
				"element": "H" 
			},
			{
				"x": 1.3687678755,
				"y": -1.1745981677,
				"z": -4.7583121947,
				"element": "H" 
			},
			{
				"x": -0.2606278143,
				"y": -0.7928700703,
				"z": -4.1409660736,
				"element": "H" 
			},
			{
				"x": -1.1090100834,
				"y": -2.1764036651,
				"z": -2.3415866085,
				"element": "H" 
			},
			{
				"x": -0.0464679698,
				"y": -3.4844976101,
				"z": -1.7533922702,
				"element": "H" 
			},
			{
				"x": -0.165118958,
				"y": -1.505969356,
				"z": -0.1796506105,
				"element": "H" 
			},
			{
				"x": 1.4801883284,
				"y": -1.8630329958,
				"z": -0.7301239832,
				"element": "H" 
			}
		],
		 "valence_orbital": [ 
			{
				"type": "occ",
				"energy": -0.274,
				"method": "rhf"
			},
			{
				"type": "occ",
				"energy": -0.24662,
				"method": "rhf"
			},
			{
				"type": "occ",
				"energy": -0.23288,
				"method": "rhf"
			},
			{
				"type": "occ",
				"energy": -0.22584,
				"method": "rhf"
			},
			{
				"type": "occ",
				"energy": -0.19483,
				"method": "rhf"
			},
			{
				"type": "unocc",
				"energy": 0.02644,
				"method": "rhf"
			},
			{
				"type": "unocc",
				"energy": 0.07014,
				"method": "rhf"
			},
			{
				"type": "unocc",
				"energy": 0.09229,
				"method": "rhf"
			},
			{
				"type": "unocc",
				"energy": 0.10472,
				"method": "rhf"
			},
			{
				"type": "unocc",
				"energy": 0.10884,
				"method": "rhf"
			}
		],
		"cosmo_sigma_profile": { 
			"-0.025": 0.0,
			"-0.024": 0.0,
			"-0.023": 0.0,
			"-0.022": 0.0,
			"-0.021": 0.0,
			"-0.02": 0.0,
			"-0.019": 0.0,
			"-0.018": 0.0,
			"-0.017": 0.0,
			"-0.016": 0.0,
			"-0.015": 0.0,
			"-0.014": 0.0,
			"-0.013": 0.0,
			"-0.012": 0.0,
			"-0.011": 0.0,
			"-0.01": 0.689819639512,
			"-0.009": 1.29777295705,
			"-0.008": 2.03590133834,
			"-0.007": 4.42053796061,
			"-0.006": 8.68520889602,
			"-0.005": 17.5243664233,
			"-0.004": 34.3337042156,
			"-0.003": 34.8879904246,
			"-0.002": 35.729754131,
			"-0.001": 29.0693886353,
			"0.0": 17.4138088339,
			"0.001": 9.49681215494,
			"0.002": 5.82328441387,
			"0.003": 5.02195652307,
			"0.004": 5.30094025687,
			"0.005": 3.79212790207,
			"0.006": 3.95035723653,
			"0.007": 3.66348338378,
			"0.008": 3.80830246888,
			"0.009": 3.54727501744,
			"0.01": 3.53183851726,
			"0.011": 3.41218180616,
			"0.012": 4.15512777209,
			"0.013": 5.35073182849,
			"0.014": 4.642751033,
			"0.015": 2.2813662256,
			"0.016": 1.42538955145,
			"0.017": 1.26008210732,
			"0.018": 1.12980059521,
			"0.019": 0.198617929731,
			"0.02": 0.0,
			"0.021": 0.0,
			"0.022": 0.0,
			"0.023": 0.0,
			"0.024": 0.0,
			"0.025": 0.0
		}
	}
}
