{
	 "smiles": "[O-][N+](=O)C1=CC=C(C=C1)S(=O)(=O)OCC1=CC(OS(=O)(=O)C2=CC=C(C=C2)[N+]([O-])=O)=CC=C1", 
	 "Tm": 473.15, 
	 "num_atms": 47, 
	 "gaussian": { 
		 "optdone": 1, 
		 "sigma_profile": "yes", 
		 "theory": "DFT", 
		 "functional": "B3LYP", 
		 "basiset": "6-31G**", 
		 "properties": { 
			 "R2extent": 18246.268, 
			 "electric_dipole_moment_norm": 3.88721320486, 
			 "electric_quadrupole_moment_norm": 32.2539811116, 
			 "total_energy": -2390.21926176, 
			 "HOMO_LUMO_gap": 0.14836, 
			 "cosmo_polarized_energy": -26.16, 
			 "cosmo_cavitation_energy": 57.55, 
			 "cosmo_dispersion_energy": -36.96, 
			 "cosmo_repulsion_energy": 2.6, 
			 "cosmo_total_nonelectrostatic_energy": 23.19, 
			 "SMD_solvation_energy": 11.63 
		},
		"coords": [
			{
				"x": 3.4950509458,
				"y": -2.9395724973,
				"z": -2.7249134809,
				"element": "O" 
			},
			{
				"x": 2.3507570584,
				"y": -3.1486118283,
				"z": -3.1165302655,
				"element": "N" 
			},
			{
				"x": 1.9213288916,
				"y": -4.2332028397,
				"z": -3.5058423921,
				"element": "O" 
			},
			{
				"x": 1.412728009,
				"y": -2.0054882212,
				"z": -3.1231936006,
				"element": "C" 
			},
			{
				"x": 0.1306722041,
				"y": -2.2025002541,
				"z": -3.632950179,
				"element": "C" 
			},
			{
				"x": -0.7549793955,
				"y": -1.1284797892,
				"z": -3.6450351521,
				"element": "C" 
			},
			{
				"x": -0.3278117198,
				"y": 0.1033932005,
				"z": -3.1443208464,
				"element": "C" 
			},
			{
				"x": 0.9614783261,
				"y": 0.2962678374,
				"z": -2.6448986191,
				"element": "C" 
			},
			{
				"x": 1.849066861,
				"y": -0.7784749205,
				"z": -2.6285869107,
				"element": "C" 
			},
			{
				"x": -1.4648929291,
				"y": 1.4848013106,
				"z": -3.1850415498,
				"element": "S" 
			},
			{
				"x": -2.5100103037,
				"y": 1.2293156727,
				"z": -4.1752930583,
				"element": "O" 
			},
			{
				"x": -0.7104439784,
				"y": 2.7363315134,
				"z": -3.209203647,
				"element": "O" 
			},
			{
				"x": -2.1083416818,
				"y": 1.2915861686,
				"z": -1.683257972,
				"element": "O" 
			},
			{
				"x": -3.3080830056,
				"y": 2.1011628594,
				"z": -1.4385981616,
				"element": "C" 
			},
			{
				"x": -3.5518055956,
				"y": 2.1270793774,
				"z": 0.0446617084,
				"element": "C" 
			},
			{
				"x": -2.772315298,
				"y": 2.9538562497,
				"z": 0.8623265348,
				"element": "C" 
			},
			{
				"x": -3.0138490108,
				"y": 2.9907715381,
				"z": 2.2320345722,
				"element": "C" 
			},
			{
				"x": -2.260140672,
				"y": 3.8998428762,
				"z": 2.9895075317,
				"element": "O" 
			},
			{
				"x": -1.1735122124,
				"y": 3.3434465796,
				"z": 4.1186751801,
				"element": "S" 
			},
			{
				"x": -0.6026922286,
				"y": 4.5636368601,
				"z": 4.6610377956,
				"element": "O" 
			},
			{
				"x": -1.8133111335,
				"y": 2.3364774031,
				"z": 4.957630485,
				"element": "O" 
			},
			{
				"x": 0.0335106288,
				"y": 2.5238005672,
				"z": 3.0752033903,
				"element": "C" 
			},
			{
				"x": 0.8699761454,
				"y": 3.3028394874,
				"z": 2.2698820624,
				"element": "C" 
			},
			{
				"x": 1.7595965088,
				"y": 2.6667575994,
				"z": 1.4098637533,
				"element": "C" 
			},
			{
				"x": 1.7946176686,
				"y": 1.2722291773,
				"z": 1.4012798319,
				"element": "C" 
			},
			{
				"x": 0.989509146,
				"y": 0.4905633846,
				"z": 2.2255256573,
				"element": "C" 
			},
			{
				"x": 0.085412537,
				"y": 1.1295038412,
				"z": 3.0712759415,
				"element": "C" 
			},
			{
				"x": 2.6987790389,
				"y": 0.5927950976,
				"z": 0.456384488,
				"element": "N" 
			},
			{
				"x": 3.2643671257,
				"y": 1.2886637051,
				"z": -0.3889501511,
				"element": "O" 
			},
			{
				"x": 2.8128234794,
				"y": -0.6260447169,
				"z": 0.550683639,
				"element": "O" 
			},
			{
				"x": -4.020545718,
				"y": 2.2228607829,
				"z": 2.8193324388,
				"element": "C" 
			},
			{
				"x": -4.7842929816,
				"y": 1.390767051,
				"z": 2.0013239947,
				"element": "C" 
			},
			{
				"x": -4.5529973752,
				"y": 1.3407498027,
				"z": 0.624798687,
				"element": "C" 
			},
			{
				"x": -0.1495725577,
				"y": -3.177415141,
				"z": -4.0109276822,
				"element": "H" 
			},
			{
				"x": -1.7558801633,
				"y": -1.2337949925,
				"z": -4.0474635169,
				"element": "H" 
			},
			{
				"x": 1.2717831586,
				"y": 1.2703361489,
				"z": -2.2849305626,
				"element": "H" 
			},
			{
				"x": 2.8501567316,
				"y": -0.6750011085,
				"z": -2.229628308,
				"element": "H" 
			},
			{
				"x": -3.1339865787,
				"y": 3.111122875,
				"z": -1.822545669,
				"element": "H" 
			},
			{
				"x": -4.1432082999,
				"y": 1.6516550866,
				"z": -1.9808269343,
				"element": "H" 
			},
			{
				"x": -1.9902767442,
				"y": 3.5770919028,
				"z": 0.4408040435,
				"element": "H" 
			},
			{
				"x": 0.8208317983,
				"y": 4.3851570801,
				"z": 2.3156458623,
				"element": "H" 
			},
			{
				"x": 2.4134535914,
				"y": 3.225031437,
				"z": 0.7519128668,
				"element": "H" 
			},
			{
				"x": 1.0663689808,
				"y": -0.5885038167,
				"z": 2.1843923464,
				"element": "H" 
			},
			{
				"x": -0.5725177636,
				"y": 0.5622219098,
				"z": 3.7190184246,
				"element": "H" 
			},
			{
				"x": -4.1909692051,
				"y": 2.2825168771,
				"z": 3.8873122251,
				"element": "H" 
			},
			{
				"x": -5.5711278959,
				"y": 0.7855465986,
				"z": 2.4404955118,
				"element": "H" 
			},
			{
				"x": -5.1596043874,
				"y": 0.6950102667,
				"z": -0.0036703132,
				"element": "H" 
			}
		],
		 "valence_orbital": [ 
			{
				"type": "occ",
				"energy": -0.30593,
				"method": "rhf"
			},
			{
				"type": "occ",
				"energy": -0.30257,
				"method": "rhf"
			},
			{
				"type": "occ",
				"energy": -0.29808,
				"method": "rhf"
			},
			{
				"type": "occ",
				"energy": -0.2819,
				"method": "rhf"
			},
			{
				"type": "occ",
				"energy": -0.2755,
				"method": "rhf"
			},
			{
				"type": "unocc",
				"energy": -0.12714,
				"method": "rhf"
			},
			{
				"type": "unocc",
				"energy": -0.10876,
				"method": "rhf"
			},
			{
				"type": "unocc",
				"energy": -0.06226,
				"method": "rhf"
			},
			{
				"type": "unocc",
				"energy": -0.05328,
				"method": "rhf"
			},
			{
				"type": "unocc",
				"energy": -0.04931,
				"method": "rhf"
			}
		],
		"cosmo_sigma_profile": { 
			"-0.025": 0.0,
			"-0.024": 0.0,
			"-0.023": 0.0,
			"-0.022": 0.0,
			"-0.021": 0.0,
			"-0.02": 0.0,
			"-0.019": 0.0,
			"-0.018": 0.0,
			"-0.017": 0.0,
			"-0.016": 0.0,
			"-0.015": 0.0,
			"-0.014": 0.0,
			"-0.013": 0.0,
			"-0.012": 0.0,
			"-0.011": 0.0,
			"-0.01": 0.861391668016,
			"-0.009": 7.81396361221,
			"-0.008": 16.2677110055,
			"-0.007": 23.5219759899,
			"-0.006": 26.1470573937,
			"-0.005": 27.4154928049,
			"-0.004": 29.5118038156,
			"-0.003": 32.7450607551,
			"-0.002": 40.964291233,
			"-0.001": 40.5090346077,
			"0.0": 25.3673940051,
			"0.001": 22.5162358886,
			"0.002": 23.1152537566,
			"0.003": 21.3903515296,
			"0.004": 15.4445524874,
			"0.005": 15.7511575603,
			"0.006": 20.910533912,
			"0.007": 23.5471672834,
			"0.008": 17.5546629999,
			"0.009": 21.1495966412,
			"0.01": 10.3713281819,
			"0.011": 0.899671528514,
			"0.012": 0.0,
			"0.013": 0.0,
			"0.014": 0.0,
			"0.015": 0.0,
			"0.016": 0.0,
			"0.017": 0.0,
			"0.018": 0.0,
			"0.019": 0.0,
			"0.02": 0.0,
			"0.021": 0.0,
			"0.022": 0.0,
			"0.023": 0.0,
			"0.024": 0.0,
			"0.025": 0.0
		}
	}
}
