{
	 "smiles": "CNC1=NC=C(I)C=C1C", 
	 "Tm": 344.65, 
	 "num_atms": 19, 
	 "gaussian": { 
		 "optdone": 1, 
		 "sigma_profile": "no", 
		 "theory": "DFT", 
		 "functional": "B3LYP", 
		 "basiset": "6-31G**", 
		 "properties": { 
			 "R2extent": 1917.9291, 
			 "electric_dipole_moment_norm": 3.83333894797, 
			 "electric_quadrupole_moment_norm": 4.1883312954, 
			 "total_energy": -393.066647617, 
			 "HOMO_LUMO_gap": 0.17267, 
			 "cosmo_polarized_energy": -103312.73, 
			 "cosmo_cavitation_energy": 25.51, 
			 "cosmo_dispersion_energy": -20.33, 
			 "cosmo_repulsion_energy": 1.62, 
			 "cosmo_total_nonelectrostatic_energy": 6.8, 
			 "SMD_solvation_energy": 2.03 
		},
		"coords": [
			{
				"x": -1.2405727404,
				"y": 1.8835763931,
				"z": -0.8178196844,
				"element": "C" 
			},
			{
				"x": -0.3945237937,
				"y": 0.7075149491,
				"z": -0.9337764533,
				"element": "N" 
			},
			{
				"x": 0.1194391848,
				"y": 0.0780292497,
				"z": 0.1758165575,
				"element": "C" 
			},
			{
				"x": -0.340150557,
				"y": 0.4819008909,
				"z": 1.3683134602,
				"element": "N" 
			},
			{
				"x": 0.1014699901,
				"y": -0.1288064097,
				"z": 2.4734078829,
				"element": "C" 
			},
			{
				"x": 1.0308822484,
				"y": -1.1610806633,
				"z": 2.4366544391,
				"element": "C" 
			},
			{
				"x": 1.6969374512,
				"y": -2.0737250356,
				"z": 4.2274237131,
				"element": "I" 
			},
			{
				"x": 1.518000526,
				"y": -1.5827934435,
				"z": 1.1921368906,
				"element": "C" 
			},
			{
				"x": 1.0704098441,
				"y": -0.9734423561,
				"z": 0.0290922042,
				"element": "C" 
			},
			{
				"x": 1.5518718686,
				"y": -1.4039525651,
				"z": -1.3317982611,
				"element": "C" 
			},
			{
				"x": -2.1061045623,
				"y": 1.6587783482,
				"z": -0.1913864334,
				"element": "H" 
			},
			{
				"x": -1.5870014007,
				"y": 2.1609027013,
				"z": -1.8162409923,
				"element": "H" 
			},
			{
				"x": -0.7195324281,
				"y": 2.7391829952,
				"z": -0.3675227065,
				"element": "H" 
			},
			{
				"x": 0.1259517268,
				"y": 0.6059564587,
				"z": -1.7900937963,
				"element": "H" 
			},
			{
				"x": -0.3023520973,
				"y": 0.228612929,
				"z": 3.417464628,
				"element": "H" 
			},
			{
				"x": 2.2425776115,
				"y": -2.3887528475,
				"z": 1.1287899966,
				"element": "H" 
			},
			{
				"x": 2.2420744634,
				"y": -2.2477077787,
				"z": -1.2555281671,
				"element": "H" 
			},
			{
				"x": 0.7162814602,
				"y": -1.7107691394,
				"z": -1.9737169721,
				"element": "H" 
			},
			{
				"x": 2.0828412045,
				"y": -0.5953246763,
				"z": -1.8535163057,
				"element": "H" 
			}
		],
		 "valence_orbital": [ 
			{
				"type": "occ",
				"energy": -0.27928,
				"method": "rhf"
			},
			{
				"type": "occ",
				"energy": -0.26686,
				"method": "rhf"
			},
			{
				"type": "occ",
				"energy": -0.26144,
				"method": "rhf"
			},
			{
				"type": "occ",
				"energy": -0.25547,
				"method": "rhf"
			},
			{
				"type": "occ",
				"energy": -0.20412,
				"method": "rhf"
			},
			{
				"type": "unocc",
				"energy": -0.03145,
				"method": "rhf"
			},
			{
				"type": "unocc",
				"energy": -0.01855,
				"method": "rhf"
			},
			{
				"type": "unocc",
				"energy": -0.00021,
				"method": "rhf"
			},
			{
				"type": "unocc",
				"energy": 0.04666,
				"method": "rhf"
			},
			{
				"type": "unocc",
				"energy": 0.05383,
				"method": "rhf"
			}
		],
		"cosmo_sigma_profile": { 
			"0.0": 0.0,
			"0.0": 0.0,
			"0.0": 0.0,
			"0.0": 0.0,
			"0.0": 0.0,
			"0.0": 0.0,
			"0.0": 0.0,
			"0.0": 0.0,
			"0.0": 0.0,
			"0.0": 0.0,
			"0.0": 0.0,
			"0.0": 0.0,
			"0.0": 0.0,
			"0.0": 0.0,
			"0.0": 0.0,
			"0.0": 0.0,
			"0.0": 0.0,
			"0.0": 0.0,
			"0.0": 0.0,
			"0.0": 0.0,
			"0.0": 0.0,
			"0.0": 0.0,
			"0.0": 0.0,
			"0.0": 0.0,
			"0.0": 0.0,
			"0.0": 0.0,
			"0.0": 0.0,
			"0.0": 0.0,
			"0.0": 0.0,
			"0.0": 0.0,
			"0.0": 0.0,
			"0.0": 0.0,
			"0.0": 0.0,
			"0.0": 0.0,
			"0.0": 0.0,
			"0.0": 0.0,
			"0.0": 0.0,
			"0.0": 0.0,
			"0.0": 0.0,
			"0.0": 0.0,
			"0.0": 0.0,
			"0.0": 0.0,
			"0.0": 0.0,
			"0.0": 0.0,
			"0.0": 0.0,
			"0.0": 0.0,
			"0.0": 0.0,
			"0.0": 0.0,
			"0.0": 0.0,
			"0.0": 0.0,
			"0.0": 0.0
		}
	}
}
