{
	 "smiles": "CCC(NC(=O)OC(C)(C)C)C1=C(O)C=CC=C1", 
	 "Tm": 385.15, 
	 "num_atms": 39, 
	 "gaussian": { 
		 "optdone": 1, 
		 "sigma_profile": "yes", 
		 "theory": "DFT", 
		 "functional": "B3LYP", 
		 "basiset": "6-31G**", 
		 "properties": { 
			 "R2extent": 5034.0251, 
			 "electric_dipole_moment_norm": 2.80587107687, 
			 "electric_quadrupole_moment_norm": 16.182883033, 
			 "total_energy": -826.611864446, 
			 "HOMO_LUMO_gap": 0.21759, 
			 "cosmo_polarized_energy": -13.56, 
			 "cosmo_cavitation_energy": 40.25, 
			 "cosmo_dispersion_energy": -26.12, 
			 "cosmo_repulsion_energy": 2.04, 
			 "cosmo_total_nonelectrostatic_energy": 16.17, 
			 "SMD_solvation_energy": 7.91 
		},
		"coords": [
			{
				"x": 2.0941980061,
				"y": -0.4323709978,
				"z": -2.7402928209,
				"element": "C" 
			},
			{
				"x": 1.3107836381,
				"y": 0.5106254081,
				"z": -1.8226545008,
				"element": "C" 
			},
			{
				"x": 1.9676337487,
				"y": 0.6790434354,
				"z": -0.4419805479,
				"element": "C" 
			},
			{
				"x": 2.1204205625,
				"y": -0.6025523122,
				"z": 0.279052518,
				"element": "N" 
			},
			{
				"x": 1.1329559486,
				"y": -1.3488655465,
				"z": 0.8758967251,
				"element": "C" 
			},
			{
				"x": 1.3729416882,
				"y": -2.2059425521,
				"z": 1.7127863691,
				"element": "O" 
			},
			{
				"x": -0.0922350489,
				"y": -1.0359919383,
				"z": 0.3908136653,
				"element": "O" 
			},
			{
				"x": -1.2956950316,
				"y": -1.7082294847,
				"z": 0.90477328,
				"element": "C" 
			},
			{
				"x": -2.420666292,
				"y": -1.0355243566,
				"z": 0.1129900026,
				"element": "C" 
			},
			{
				"x": -1.4525881975,
				"y": -1.4313265689,
				"z": 2.4041703701,
				"element": "C" 
			},
			{
				"x": -1.2347254176,
				"y": -3.2073777789,
				"z": 0.5922485112,
				"element": "C" 
			},
			{
				"x": 1.3503680075,
				"y": 1.7596159773,
				"z": 0.4429528771,
				"element": "C" 
			},
			{
				"x": 2.102143743,
				"y": 2.2385152615,
				"z": 1.5334940115,
				"element": "C" 
			},
			{
				"x": 3.3508661396,
				"y": 1.6967759676,
				"z": 1.7144858932,
				"element": "O" 
			},
			{
				"x": 1.5956394466,
				"y": 3.2224415329,
				"z": 2.3846236587,
				"element": "C" 
			},
			{
				"x": 0.3218118076,
				"y": 3.7465517887,
				"z": 2.1611336277,
				"element": "C" 
			},
			{
				"x": -0.4397360087,
				"y": 3.2884553975,
				"z": 1.0878984779,
				"element": "C" 
			},
			{
				"x": 0.0795318463,
				"y": 2.303612621,
				"z": 0.2425384383,
				"element": "C" 
			},
			{
				"x": 2.1723106876,
				"y": -1.4310150366,
				"z": -2.3018079608,
				"element": "H" 
			},
			{
				"x": 1.6022580808,
				"y": -0.525295635,
				"z": -3.7137022915,
				"element": "H" 
			},
			{
				"x": 3.1120605071,
				"y": -0.0646372044,
				"z": -2.9160646922,
				"element": "H" 
			},
			{
				"x": 1.2466426369,
				"y": 1.5041690121,
				"z": -2.2829171164,
				"element": "H" 
			},
			{
				"x": 0.2884914937,
				"y": 0.1432943022,
				"z": -1.704812861,
				"element": "H" 
			},
			{
				"x": 3.0039544053,
				"y": 0.9856866349,
				"z": -0.6251528387,
				"element": "H" 
			},
			{
				"x": 2.9950103721,
				"y": -0.7135819848,
				"z": 0.7718062419,
				"element": "H" 
			},
			{
				"x": -3.3884747707,
				"y": -1.451449564,
				"z": 0.4089336293,
				"element": "H" 
			},
			{
				"x": -2.4338266299,
				"y": 0.0416664478,
				"z": 0.3024368026,
				"element": "H" 
			},
			{
				"x": -2.289910803,
				"y": -1.1983601295,
				"z": -0.9611302063,
				"element": "H" 
			},
			{
				"x": -1.4438746292,
				"y": -0.3530278319,
				"z": 2.5917139592,
				"element": "H" 
			},
			{
				"x": -0.6469918021,
				"y": -1.8964126441,
				"z": 2.9723438114,
				"element": "H" 
			},
			{
				"x": -2.4104050921,
				"y": -1.831367497,
				"z": 2.7530594898,
				"element": "H" 
			},
			{
				"x": -0.4212348929,
				"y": -3.6849111849,
				"z": 1.1382441079,
				"element": "H" 
			},
			{
				"x": -2.1808226215,
				"y": -3.6807371062,
				"z": 0.8752309885,
				"element": "H" 
			},
			{
				"x": -1.0835262844,
				"y": -3.3653920167,
				"z": -0.4804712229,
				"element": "H" 
			},
			{
				"x": 3.7636784069,
				"y": 2.1044610143,
				"z": 2.4864763689,
				"element": "H" 
			},
			{
				"x": 2.1982147956,
				"y": 3.576973935,
				"z": 3.218830596,
				"element": "H" 
			},
			{
				"x": -0.0674158817,
				"y": 4.5115635324,
				"z": 2.8265843182,
				"element": "H" 
			},
			{
				"x": -1.4309032399,
				"y": 3.6924031364,
				"z": 0.9063537762,
				"element": "H" 
			},
			{
				"x": -0.5179833249,
				"y": 1.9521139658,
				"z": -0.5912854563,
				"element": "H" 
			}
		],
		 "valence_orbital": [ 
			{
				"type": "occ",
				"energy": -0.27998,
				"method": "rhf"
			},
			{
				"type": "occ",
				"energy": -0.25776,
				"method": "rhf"
			},
			{
				"type": "occ",
				"energy": -0.24916,
				"method": "rhf"
			},
			{
				"type": "occ",
				"energy": -0.23927,
				"method": "rhf"
			},
			{
				"type": "occ",
				"energy": -0.22248,
				"method": "rhf"
			},
			{
				"type": "unocc",
				"energy": -0.00489,
				"method": "rhf"
			},
			{
				"type": "unocc",
				"energy": 0.00972,
				"method": "rhf"
			},
			{
				"type": "unocc",
				"energy": 0.05907,
				"method": "rhf"
			},
			{
				"type": "unocc",
				"energy": 0.06326,
				"method": "rhf"
			},
			{
				"type": "unocc",
				"energy": 0.08339,
				"method": "rhf"
			}
		],
		"cosmo_sigma_profile": { 
			"-0.025": 0.0,
			"-0.024": 0.0,
			"-0.023": 0.0,
			"-0.022": 0.0,
			"-0.021": 0.0,
			"-0.02": 0.0,
			"-0.019": 0.0,
			"-0.018": 0.40000838413,
			"-0.017": 1.16375679606,
			"-0.016": 0.856159908837,
			"-0.015": 1.07564694864,
			"-0.014": 1.30888409592,
			"-0.013": 0.726292994218,
			"-0.012": 0.731025657576,
			"-0.011": 1.60331172901,
			"-0.01": 1.83230241829,
			"-0.009": 2.29615873999,
			"-0.008": 0.847462230883,
			"-0.007": 2.3827176058,
			"-0.006": 3.9377455822,
			"-0.005": 8.26420777727,
			"-0.004": 20.0968089989,
			"-0.003": 28.5607589219,
			"-0.002": 31.9837680521,
			"-0.001": 33.0899046461,
			"0.0": 41.4923185407,
			"0.001": 39.016900706,
			"0.002": 20.8806054876,
			"0.003": 16.450131387,
			"0.004": 14.7588600782,
			"0.005": 14.1427473998,
			"0.006": 8.96648840164,
			"0.007": 2.70061365016,
			"0.008": 2.26060674036,
			"0.009": 2.00168211564,
			"0.01": 1.55224448449,
			"0.011": 1.31436481986,
			"0.012": 1.79697595152,
			"0.013": 2.75220469235,
			"0.014": 2.88532232099,
			"0.015": 0.139351925851,
			"0.016": 0.0,
			"0.017": 0.0,
			"0.018": 0.0,
			"0.019": 0.0,
			"0.02": 0.0,
			"0.021": 0.0,
			"0.022": 0.0,
			"0.023": 0.0,
			"0.024": 0.0,
			"0.025": 0.0
		}
	}
}
