{
	 "smiles": "CN(C)S(=O)(=O)C1=CC(C(O)=O)=C(NCCO)C=C1", 
	 "Tm": 450.15, 
	 "num_atms": 35, 
	 "gaussian": { 
		 "optdone": 1, 
		 "sigma_profile": "yes", 
		 "theory": "DFT", 
		 "functional": "B3LYP", 
		 "basiset": "6-31G**", 
		 "properties": { 
			 "R2extent": 7542.9921, 
			 "electric_dipole_moment_norm": 6.8219286166, 
			 "electric_quadrupole_moment_norm": 29.6488415099, 
			 "total_energy": -1312.55871714, 
			 "HOMO_LUMO_gap": 0.16166, 
			 "cosmo_polarized_energy": -26.98, 
			 "cosmo_cavitation_energy": 39.44, 
			 "cosmo_dispersion_energy": -28.09, 
			 "cosmo_repulsion_energy": 2.15, 
			 "cosmo_total_nonelectrostatic_energy": 13.5, 
			 "SMD_solvation_energy": 5.55 
		},
		"coords": [
			{
				"x": 1.2897995618,
				"y": -3.1620927729,
				"z": 1.1312999567,
				"element": "C" 
			},
			{
				"x": 0.4866176063,
				"y": -3.4280176023,
				"z": -0.0628997271,
				"element": "N" 
			},
			{
				"x": -0.9612433005,
				"y": -3.3407967536,
				"z": 0.1374164705,
				"element": "C" 
			},
			{
				"x": 1.075394196,
				"y": -2.7776516232,
				"z": -1.5125845953,
				"element": "S" 
			},
			{
				"x": 0.1703666019,
				"y": -3.2488959503,
				"z": -2.5620764392,
				"element": "O" 
			},
			{
				"x": 2.5119387017,
				"y": -3.0677229499,
				"z": -1.5290711926,
				"element": "O" 
			},
			{
				"x": 0.9039806137,
				"y": -0.999929493,
				"z": -1.4069593282,
				"element": "C" 
			},
			{
				"x": -0.2841407193,
				"y": -0.3845486236,
				"z": -1.7736239949,
				"element": "C" 
			},
			{
				"x": -0.4514858444,
				"y": 1.0052259713,
				"z": -1.6759955524,
				"element": "C" 
			},
			{
				"x": -1.7831359027,
				"y": 1.4894204222,
				"z": -2.1088840276,
				"element": "C" 
			},
			{
				"x": -1.951241732,
				"y": 2.848281215,
				"z": -2.0481053127,
				"element": "O" 
			},
			{
				"x": -2.693061369,
				"y": 0.7822826065,
				"z": -2.4927470368,
				"element": "O" 
			},
			{
				"x": 0.6286966863,
				"y": 1.8178827148,
				"z": -1.1935569266,
				"element": "C" 
			},
			{
				"x": 0.5334737711,
				"y": 3.1750677989,
				"z": -1.0966704834,
				"element": "N" 
			},
			{
				"x": 1.5710947551,
				"y": 4.0756267906,
				"z": -0.6283434466,
				"element": "C" 
			},
			{
				"x": 1.6448650524,
				"y": 4.1936253113,
				"z": 0.9048477455,
				"element": "C" 
			},
			{
				"x": 2.6035051549,
				"y": 5.15759066,
				"z": 1.306510031,
				"element": "O" 
			},
			{
				"x": 1.830874455,
				"y": 1.1533896732,
				"z": -0.8291085099,
				"element": "C" 
			},
			{
				"x": 1.9687588352,
				"y": -0.217066925,
				"z": -0.9344336602,
				"element": "C" 
			},
			{
				"x": 1.1466419142,
				"y": -2.1431835707,
				"z": 1.5252470419,
				"element": "H" 
			},
			{
				"x": 0.9921316714,
				"y": -3.8754395886,
				"z": 1.9054939425,
				"element": "H" 
			},
			{
				"x": 2.3430164187,
				"y": -3.3206420434,
				"z": 0.9010037125,
				"element": "H" 
			},
			{
				"x": -1.2387332624,
				"y": -4.0566598371,
				"z": 0.916769839,
				"element": "H" 
			},
			{
				"x": -1.2891871949,
				"y": -2.3378807662,
				"z": 0.4533252525,
				"element": "H" 
			},
			{
				"x": -1.4712605886,
				"y": -3.6171949146,
				"z": -0.7848896337,
				"element": "H" 
			},
			{
				"x": -1.1085036428,
				"y": -0.9652792286,
				"z": -2.1712434828,
				"element": "H" 
			},
			{
				"x": -2.8573489154,
				"y": 3.0115059388,
				"z": -2.3588722318,
				"element": "H" 
			},
			{
				"x": -0.3496035998,
				"y": 3.5805449648,
				"z": -1.3682731115,
				"element": "H" 
			},
			{
				"x": 2.5470963321,
				"y": 3.7725642759,
				"z": -1.0292337635,
				"element": "H" 
			},
			{
				"x": 1.3653501947,
				"y": 5.0686996522,
				"z": -1.0383241745,
				"element": "H" 
			},
			{
				"x": 0.6793360694,
				"y": 4.5407754699,
				"z": 1.2856919328,
				"element": "H" 
			},
			{
				"x": 1.8342553103,
				"y": 3.2073256246,
				"z": 1.3542591547,
				"element": "H" 
			},
			{
				"x": 3.4841090716,
				"y": 4.802456828,
				"z": 1.1300470392,
				"element": "H" 
			},
			{
				"x": 2.6695509537,
				"y": 1.7335055145,
				"z": -0.464778858,
				"element": "H" 
			},
			{
				"x": 2.9080921444,
				"y": -0.6937687895,
				"z": -0.6752366294,
				"element": "H" 
			}
		],
		 "valence_orbital": [ 
			{
				"type": "occ",
				"energy": -0.29084,
				"method": "rhf"
			},
			{
				"type": "occ",
				"energy": -0.28872,
				"method": "rhf"
			},
			{
				"type": "occ",
				"energy": -0.27658,
				"method": "rhf"
			},
			{
				"type": "occ",
				"energy": -0.25631,
				"method": "rhf"
			},
			{
				"type": "occ",
				"energy": -0.22115,
				"method": "rhf"
			},
			{
				"type": "unocc",
				"energy": -0.05949,
				"method": "rhf"
			},
			{
				"type": "unocc",
				"energy": -0.02426,
				"method": "rhf"
			},
			{
				"type": "unocc",
				"energy": 0.0326,
				"method": "rhf"
			},
			{
				"type": "unocc",
				"energy": 0.04652,
				"method": "rhf"
			},
			{
				"type": "unocc",
				"energy": 0.0586,
				"method": "rhf"
			}
		],
		"cosmo_sigma_profile": { 
			"-0.025": 0.0,
			"-0.024": 0.0,
			"-0.023": 0.0,
			"-0.022": 0.0,
			"-0.021": 0.0,
			"-0.02": 0.0,
			"-0.019": 0.145814185039,
			"-0.018": 1.2212552795,
			"-0.017": 0.538995902221,
			"-0.016": 1.30831991693,
			"-0.015": 2.07475884711,
			"-0.014": 1.81616763948,
			"-0.013": 1.68811606056,
			"-0.012": 1.70075992109,
			"-0.011": 1.79543567603,
			"-0.01": 2.85948007944,
			"-0.009": 3.47080454905,
			"-0.008": 4.96704653577,
			"-0.007": 5.7581454934,
			"-0.006": 14.2015214134,
			"-0.005": 16.5517709608,
			"-0.004": 25.752059143,
			"-0.003": 31.7334545605,
			"-0.002": 32.8394865021,
			"-0.001": 19.1805132194,
			"0.0": 17.7575871522,
			"0.001": 18.6533333045,
			"0.002": 17.3805497779,
			"0.003": 11.2885636184,
			"0.004": 6.28076222698,
			"0.005": 6.07009725202,
			"0.006": 6.57692710662,
			"0.007": 7.34820228189,
			"0.008": 6.2620508869,
			"0.009": 7.76782573542,
			"0.01": 9.03889769353,
			"0.011": 13.0173247701,
			"0.012": 10.0459965924,
			"0.013": 1.83492541117,
			"0.014": 2.10585247429,
			"0.015": 0.173615269778,
			"0.016": 0.0,
			"0.017": 0.0,
			"0.018": 0.0,
			"0.019": 0.0,
			"0.02": 0.0,
			"0.021": 0.0,
			"0.022": 0.0,
			"0.023": 0.0,
			"0.024": 0.0,
			"0.025": 0.0
		}
	}
}
