{
	 "smiles": "OCC1OC(OC2=CC=C(C=C2)[N+]([O-])=O)C(O)C(O)C1O", 
	 "Tm": 484.15, 
	 "num_atms": 36, 
	 "gaussian": { 
		 "optdone": 1, 
		 "sigma_profile": "yes", 
		 "theory": "DFT", 
		 "functional": "B3LYP", 
		 "basiset": "6-31G**", 
		 "properties": { 
			 "R2extent": 8730.2789, 
			 "electric_dipole_moment_norm": 5.53563956739, 
			 "electric_quadrupole_moment_norm": 33.3581204196, 
			 "total_energy": -1122.72237843, 
			 "HOMO_LUMO_gap": 0.17255, 
			 "cosmo_polarized_energy": -21.69, 
			 "cosmo_cavitation_energy": 39.4, 
			 "cosmo_dispersion_energy": -28.04, 
			 "cosmo_repulsion_energy": 2.15, 
			 "cosmo_total_nonelectrostatic_energy": 13.52, 
			 "SMD_solvation_energy": 8.64 
		},
		"coords": [
			{
				"x": -3.4632320068,
				"y": 1.733762556,
				"z": -0.9582590967,
				"element": "O" 
			},
			{
				"x": -2.2309156993,
				"y": 1.7587033344,
				"z": -0.2320188397,
				"element": "C" 
			},
			{
				"x": -1.6286411746,
				"y": 0.3587814678,
				"z": -0.0855257201,
				"element": "C" 
			},
			{
				"x": -0.4320123423,
				"y": 0.5394174447,
				"z": 0.6909622626,
				"element": "O" 
			},
			{
				"x": 0.2919635382,
				"y": -0.6429456898,
				"z": 0.9554881109,
				"element": "C" 
			},
			{
				"x": 0.7540629788,
				"y": -1.2686925578,
				"z": -0.2341930057,
				"element": "O" 
			},
			{
				"x": 1.8224086953,
				"y": -0.7416267794,
				"z": -0.8987181556,
				"element": "C" 
			},
			{
				"x": 2.4291136364,
				"y": -1.5938343723,
				"z": -1.8360441317,
				"element": "C" 
			},
			{
				"x": 3.5206716346,
				"y": -1.1566353553,
				"z": -2.5697987707,
				"element": "C" 
			},
			{
				"x": 4.0050163584,
				"y": 0.1368249861,
				"z": -2.3583459031,
				"element": "C" 
			},
			{
				"x": 3.4110580565,
				"y": 0.9949319838,
				"z": -1.4355885528,
				"element": "C" 
			},
			{
				"x": 2.3095611396,
				"y": 0.5605061212,
				"z": -0.7040349175,
				"element": "C" 
			},
			{
				"x": 5.1579379072,
				"y": 0.6038416499,
				"z": -3.1296848008,
				"element": "N" 
			},
			{
				"x": 5.6561419781,
				"y": -0.1753073564,
				"z": -3.9439290174,
				"element": "O" 
			},
			{
				"x": 5.5628376441,
				"y": 1.7489363406,
				"z": -2.9209934089,
				"element": "O" 
			},
			{
				"x": -0.5848931435,
				"y": -1.6504975095,
				"z": 1.7065422109,
				"element": "C" 
			},
			{
				"x": 0.1561541064,
				"y": -2.8207204943,
				"z": 1.9646865042,
				"element": "O" 
			},
			{
				"x": -1.8524040262,
				"y": -1.9333322363,
				"z": 0.9059973562,
				"element": "C" 
			},
			{
				"x": -2.6423909723,
				"y": -2.8182961053,
				"z": 1.6878260268,
				"element": "O" 
			},
			{
				"x": -2.5838115069,
				"y": -0.6294775305,
				"z": 0.6068989661,
				"element": "C" 
			},
			{
				"x": -3.6981326715,
				"y": -0.9563255683,
				"z": -0.2078483585,
				"element": "O" 
			},
			{
				"x": -3.258796938,
				"y": 1.6063239591,
				"z": -1.8944425233,
				"element": "H" 
			},
			{
				"x": -2.4676932585,
				"y": 2.1557524958,
				"z": 0.7594890717,
				"element": "H" 
			},
			{
				"x": -1.5005092357,
				"y": 2.432401817,
				"z": -0.6973511452,
				"element": "H" 
			},
			{
				"x": -1.3747196276,
				"y": -0.0430802402,
				"z": -1.0776293839,
				"element": "H" 
			},
			{
				"x": 1.148369205,
				"y": -0.338820876,
				"z": 1.5654861046,
				"element": "H" 
			},
			{
				"x": 2.0316647154,
				"y": -2.5950888812,
				"z": -1.9596213551,
				"element": "H" 
			},
			{
				"x": 4.0095818729,
				"y": -1.7954610322,
				"z": -3.2944634787,
				"element": "H" 
			},
			{
				"x": 3.8098431942,
				"y": 1.9937243163,
				"z": -1.3090194647,
				"element": "H" 
			},
			{
				"x": 1.8155101288,
				"y": 1.2354381847,
				"z": -0.0168949562,
				"element": "H" 
			},
			{
				"x": -0.8814765155,
				"y": -1.1542026217,
				"z": 2.6453449428,
				"element": "H" 
			},
			{
				"x": -0.4871846197,
				"y": -3.4815740683,
				"z": 2.2596385278,
				"element": "H" 
			},
			{
				"x": -1.5741916136,
				"y": -2.4047505354,
				"z": -0.0481226535,
				"element": "H" 
			},
			{
				"x": -3.4739800785,
				"y": -2.9436620061,
				"z": 1.2093793374,
				"element": "H" 
			},
			{
				"x": -2.9093717203,
				"y": -0.1884599991,
				"z": 1.5644738253,
				"element": "H" 
			},
			{
				"x": -4.1075396391,
				"y": -0.112154842,
				"z": -0.4611856074,
				"element": "H" 
			}
		],
		 "valence_orbital": [ 
			{
				"type": "occ",
				"energy": -0.28387,
				"method": "rhf"
			},
			{
				"type": "occ",
				"energy": -0.27893,
				"method": "rhf"
			},
			{
				"type": "occ",
				"energy": -0.27804,
				"method": "rhf"
			},
			{
				"type": "occ",
				"energy": -0.27417,
				"method": "rhf"
			},
			{
				"type": "occ",
				"energy": -0.25392,
				"method": "rhf"
			},
			{
				"type": "unocc",
				"energy": -0.08137,
				"method": "rhf"
			},
			{
				"type": "unocc",
				"energy": -0.02734,
				"method": "rhf"
			},
			{
				"type": "unocc",
				"energy": 0.00998,
				"method": "rhf"
			},
			{
				"type": "unocc",
				"energy": 0.03253,
				"method": "rhf"
			},
			{
				"type": "unocc",
				"energy": 0.06237,
				"method": "rhf"
			}
		],
		"cosmo_sigma_profile": { 
			"-0.025": 0.0,
			"-0.024": 0.0,
			"-0.023": 0.0,
			"-0.022": 0.0,
			"-0.021": 0.0,
			"-0.02": 0.0,
			"-0.019": 0.0,
			"-0.018": 0.0,
			"-0.017": 0.600717879816,
			"-0.016": 1.01723438354,
			"-0.015": 1.64860498101,
			"-0.014": 1.77243874853,
			"-0.013": 1.85941097594,
			"-0.012": 2.06006149325,
			"-0.011": 2.38206530388,
			"-0.01": 2.24142570894,
			"-0.009": 3.29427554643,
			"-0.008": 7.00425281405,
			"-0.007": 11.5523770523,
			"-0.006": 15.8732570142,
			"-0.005": 22.5198022646,
			"-0.004": 21.1957159564,
			"-0.003": 19.4149296751,
			"-0.002": 17.9426930185,
			"-0.001": 21.3845880407,
			"0.0": 21.6320576027,
			"0.001": 23.6795150314,
			"0.002": 16.3879115292,
			"0.003": 11.4945714215,
			"0.004": 8.65203025556,
			"0.005": 6.82490282258,
			"0.006": 9.39277505715,
			"0.007": 11.0563211083,
			"0.008": 14.558705766,
			"0.009": 9.90433906999,
			"0.01": 8.95403748021,
			"0.011": 4.71242870788,
			"0.012": 4.59529269548,
			"0.013": 3.65240134504,
			"0.014": 0.36993186286,
			"0.015": 0.0,
			"0.016": 0.0,
			"0.017": 0.0,
			"0.018": 0.0,
			"0.019": 0.0,
			"0.02": 0.0,
			"0.021": 0.0,
			"0.022": 0.0,
			"0.023": 0.0,
			"0.024": 0.0,
			"0.025": 0.0
		}
	}
}
