{
	 "smiles": "NC(=O)N1CCC2=C1C=CC=C2", 
	 "Tm": 434.15, 
	 "num_atms": 22, 
	 "gaussian": { 
		 "optdone": 1, 
		 "sigma_profile": "yes", 
		 "theory": "DFT", 
		 "functional": "B3LYP", 
		 "basiset": "6-31G**", 
		 "properties": { 
			 "R2extent": 2316.4215, 
			 "electric_dipole_moment_norm": 2.93523141507, 
			 "electric_quadrupole_moment_norm": 15.5992632323, 
			 "total_energy": -533.739878275, 
			 "HOMO_LUMO_gap": 0.19756, 
			 "cosmo_polarized_energy": -12.25, 
			 "cosmo_cavitation_energy": 24.77, 
			 "cosmo_dispersion_energy": -18.77, 
			 "cosmo_repulsion_energy": 1.49, 
			 "cosmo_total_nonelectrostatic_energy": 7.49, 
			 "SMD_solvation_energy": 4.45 
		},
		"coords": [
			{
				"x": -3.1514259959,
				"y": -1.1241433568,
				"z": 0.908356926,
				"element": "N" 
			},
			{
				"x": -2.0061054367,
				"y": -1.8825554683,
				"z": 0.7013750761,
				"element": "C" 
			},
			{
				"x": -1.915453448,
				"y": -3.0496245858,
				"z": 1.0631399896,
				"element": "O" 
			},
			{
				"x": -0.9630496933,
				"y": -1.2474151899,
				"z": 0.0486090718,
				"element": "N" 
			},
			{
				"x": 0.339552789,
				"y": -1.9372418441,
				"z": -0.049918487,
				"element": "C" 
			},
			{
				"x": 1.334545221,
				"y": -0.8039594709,
				"z": -0.3851382421,
				"element": "C" 
			},
			{
				"x": 0.4381075798,
				"y": 0.2816268134,
				"z": -0.9417394799,
				"element": "C" 
			},
			{
				"x": -0.9041402208,
				"y": -0.019237784,
				"z": -0.6423921672,
				"element": "C" 
			},
			{
				"x": -1.9344779006,
				"y": 0.8250340604,
				"z": -1.0653980974,
				"element": "C" 
			},
			{
				"x": -1.5914940787,
				"y": 1.9918384987,
				"z": -1.7609619693,
				"element": "C" 
			},
			{
				"x": -0.2626985301,
				"y": 2.3067695887,
				"z": -2.0414078409,
				"element": "C" 
			},
			{
				"x": 0.7606226741,
				"y": 1.4398131751,
				"z": -1.632612393,
				"element": "C" 
			},
			{
				"x": -3.0317505953,
				"y": -0.1343388249,
				"z": 1.0778083323,
				"element": "H" 
			},
			{
				"x": -3.784123067,
				"y": -1.5844545079,
				"z": 1.5483624004,
				"element": "H" 
			},
			{
				"x": 0.2994647915,
				"y": -2.687299705,
				"z": -0.8490273957,
				"element": "H" 
			},
			{
				"x": 0.5511202742,
				"y": -2.4579901142,
				"z": 0.8841306639,
				"element": "H" 
			},
			{
				"x": 2.1025697014,
				"y": -1.1309585597,
				"z": -1.0918033205,
				"element": "H" 
			},
			{
				"x": 1.8518831488,
				"y": -0.4533928707,
				"z": 0.5177366619,
				"element": "H" 
			},
			{
				"x": -2.9749806766,
				"y": 0.5716274732,
				"z": -0.9048384225,
				"element": "H" 
			},
			{
				"x": -2.3850678446,
				"y": 2.6525678484,
				"z": -2.0982739205,
				"element": "H" 
			},
			{
				"x": -0.0208782666,
				"y": 3.2143872021,
				"z": -2.5856831942,
				"element": "H" 
			},
			{
				"x": 1.7982795744,
				"y": 1.6699476223,
				"z": -1.8603241919,
				"element": "H" 
			}
		],
		 "valence_orbital": [ 
			{
				"type": "occ",
				"energy": -0.29702,
				"method": "rhf"
			},
			{
				"type": "occ",
				"energy": -0.27447,
				"method": "rhf"
			},
			{
				"type": "occ",
				"energy": -0.25437,
				"method": "rhf"
			},
			{
				"type": "occ",
				"energy": -0.25058,
				"method": "rhf"
			},
			{
				"type": "occ",
				"energy": -0.20677,
				"method": "rhf"
			},
			{
				"type": "unocc",
				"energy": -0.00921,
				"method": "rhf"
			},
			{
				"type": "unocc",
				"energy": -0.00207,
				"method": "rhf"
			},
			{
				"type": "unocc",
				"energy": 0.06253,
				"method": "rhf"
			},
			{
				"type": "unocc",
				"energy": 0.09124,
				"method": "rhf"
			},
			{
				"type": "unocc",
				"energy": 0.10307,
				"method": "rhf"
			}
		],
		"cosmo_sigma_profile": { 
			"-0.025": 0.0,
			"-0.024": 0.0,
			"-0.023": 0.0,
			"-0.022": 0.0,
			"-0.021": 0.0,
			"-0.02": 0.0,
			"-0.019": 0.0,
			"-0.018": 0.0,
			"-0.017": 0.0,
			"-0.016": 0.0,
			"-0.015": 0.0,
			"-0.014": 0.0962055967086,
			"-0.013": 1.36191064277,
			"-0.012": 2.29951251936,
			"-0.011": 2.33588409067,
			"-0.01": 2.10074361469,
			"-0.009": 2.60325405203,
			"-0.008": 2.39128581587,
			"-0.007": 1.90398159427,
			"-0.006": 5.16511209985,
			"-0.005": 13.5611245843,
			"-0.004": 21.1815577219,
			"-0.003": 20.8968338222,
			"-0.002": 16.0765734996,
			"-0.001": 14.018197979,
			"0.0": 10.9831457615,
			"0.001": 12.2287482985,
			"0.002": 8.86967028587,
			"0.003": 8.90009892838,
			"0.004": 9.55072431945,
			"0.005": 9.88731754189,
			"0.006": 8.42967775718,
			"0.007": 2.98913350655,
			"0.008": 1.89714220796,
			"0.009": 1.49522911781,
			"0.01": 2.02041355604,
			"0.011": 1.59545279681,
			"0.012": 1.18660442758,
			"0.013": 2.95400825939,
			"0.014": 6.10377328259,
			"0.015": 1.37400296833,
			"0.016": 0.0,
			"0.017": 0.0,
			"0.018": 0.0,
			"0.019": 0.0,
			"0.02": 0.0,
			"0.021": 0.0,
			"0.022": 0.0,
			"0.023": 0.0,
			"0.024": 0.0,
			"0.025": 0.0
		}
	}
}
