{
	 "smiles": "[O-][N+](=O)C1=CC=C(C=C1)C1=NOC(=N1)C(F)F", 
	 "Tm": 350.15, 
	 "num_atms": 22, 
	 "gaussian": { 
		 "optdone": 1, 
		 "sigma_profile": "yes", 
		 "theory": "DFT", 
		 "functional": "B3LYP", 
		 "basiset": "6-31G**", 
		 "properties": { 
			 "R2extent": 6851.4794, 
			 "electric_dipole_moment_norm": 3.09844582493, 
			 "electric_quadrupole_moment_norm": 23.4756648025, 
			 "total_energy": -935.420630674, 
			 "HOMO_LUMO_gap": 0.17423, 
			 "cosmo_polarized_energy": -10.91, 
			 "cosmo_cavitation_energy": 30.12, 
			 "cosmo_dispersion_energy": -21.81, 
			 "cosmo_repulsion_energy": 1.63, 
			 "cosmo_total_nonelectrostatic_energy": 9.94, 
			 "SMD_solvation_energy": 6.84 
		},
		"coords": [
			{
				"x": 1.723368367,
				"y": -1.4145472232,
				"z": -3.9087285363,
				"element": "O" 
			},
			{
				"x": 0.7910811235,
				"y": -1.7546154981,
				"z": -3.1821774913,
				"element": "N" 
			},
			{
				"x": -0.0311440865,
				"y": -2.6281265258,
				"z": -3.4532290791,
				"element": "O" 
			},
			{
				"x": 0.6483447012,
				"y": -1.0629925775,
				"z": -1.8884508437,
				"element": "C" 
			},
			{
				"x": -0.3989243539,
				"y": -1.4268981852,
				"z": -1.0421708649,
				"element": "C" 
			},
			{
				"x": -0.5305140638,
				"y": -0.7730685405,
				"z": 0.1764608992,
				"element": "C" 
			},
			{
				"x": 0.3801169134,
				"y": 0.2339564025,
				"z": 0.5386107663,
				"element": "C" 
			},
			{
				"x": 1.425098445,
				"y": 0.5816715898,
				"z": -0.3305168798,
				"element": "C" 
			},
			{
				"x": 1.5637494588,
				"y": -0.0683703726,
				"z": -1.5526630912,
				"element": "C" 
			},
			{
				"x": 0.2483438562,
				"y": 0.9298433185,
				"z": 1.8251564029,
				"element": "C" 
			},
			{
				"x": -0.7043838183,
				"y": 0.6579730889,
				"z": 2.6913411863,
				"element": "N" 
			},
			{
				"x": -0.4532921188,
				"y": 1.5369223194,
				"z": 3.7476161808,
				"element": "O" 
			},
			{
				"x": 0.628550147,
				"y": 2.2432328359,
				"z": 3.3966297172,
				"element": "C" 
			},
			{
				"x": 1.1130102852,
				"y": 1.9292445247,
				"z": 2.2367843772,
				"element": "N" 
			},
			{
				"x": 1.1589983556,
				"y": 3.2868805839,
				"z": 4.3391807352,
				"element": "C" 
			},
			{
				"x": 0.1902163305,
				"y": 4.2072358153,
				"z": 4.5886152362,
				"element": "F" 
			},
			{
				"x": 1.5033098809,
				"y": 2.7010170859,
				"z": 5.5167122537,
				"element": "F" 
			},
			{
				"x": -1.0850180339,
				"y": -2.2064048836,
				"z": -1.3480759383,
				"element": "H" 
			},
			{
				"x": -1.3356185417,
				"y": -1.0363273917,
				"z": 0.8535012719,
				"element": "H" 
			},
			{
				"x": 2.1209948712,
				"y": 1.3601717288,
				"z": -0.03961414,
				"element": "H" 
			},
			{
				"x": 2.3600588718,
				"y": 0.178779071,
				"z": -2.2431635196,
				"element": "H" 
			},
			{
				"x": 2.0331534099,
				"y": 3.7799228337,
				"z": 3.9032813573,
				"element": "H" 
			}
		],
		 "valence_orbital": [ 
			{
				"type": "occ",
				"energy": -0.31831,
				"method": "rhf"
			},
			{
				"type": "occ",
				"energy": -0.31551,
				"method": "rhf"
			},
			{
				"type": "occ",
				"energy": -0.29968,
				"method": "rhf"
			},
			{
				"type": "occ",
				"energy": -0.29143,
				"method": "rhf"
			},
			{
				"type": "occ",
				"energy": -0.28178,
				"method": "rhf"
			},
			{
				"type": "unocc",
				"energy": -0.10755,
				"method": "rhf"
			},
			{
				"type": "unocc",
				"energy": -0.06667,
				"method": "rhf"
			},
			{
				"type": "unocc",
				"energy": -0.03928,
				"method": "rhf"
			},
			{
				"type": "unocc",
				"energy": -0.03234,
				"method": "rhf"
			},
			{
				"type": "unocc",
				"energy": 0.0456,
				"method": "rhf"
			}
		],
		"cosmo_sigma_profile": { 
			"-0.025": 0.0,
			"-0.024": 0.0,
			"-0.023": 0.0,
			"-0.022": 0.0,
			"-0.021": 0.0,
			"-0.02": 0.0,
			"-0.019": 0.0,
			"-0.018": 0.0,
			"-0.017": 0.0,
			"-0.016": 0.0,
			"-0.015": 0.0,
			"-0.014": 0.0,
			"-0.013": 0.0,
			"-0.012": 0.03570161574,
			"-0.011": 2.83582851205,
			"-0.01": 2.45751162029,
			"-0.009": 1.84787429461,
			"-0.008": 5.51680083785,
			"-0.007": 10.8435154517,
			"-0.006": 11.1531240815,
			"-0.005": 10.8685367182,
			"-0.004": 11.7163091412,
			"-0.003": 13.9039248125,
			"-0.002": 19.483291154,
			"-0.001": 23.4689962559,
			"0.0": 23.8601389554,
			"0.001": 15.1101255437,
			"0.002": 13.5316771092,
			"0.003": 24.5082617495,
			"0.004": 10.1600952282,
			"0.005": 7.56067930488,
			"0.006": 6.90383114982,
			"0.007": 11.161657084,
			"0.008": 8.08476386194,
			"0.009": 6.27791318224,
			"0.01": 2.49602511941,
			"0.011": 0.200172411099,
			"0.012": 0.0,
			"0.013": 0.0,
			"0.014": 0.0,
			"0.015": 0.0,
			"0.016": 0.0,
			"0.017": 0.0,
			"0.018": 0.0,
			"0.019": 0.0,
			"0.02": 0.0,
			"0.021": 0.0,
			"0.022": 0.0,
			"0.023": 0.0,
			"0.024": 0.0,
			"0.025": 0.0
		}
	}
}
