{
	 "smiles": "OC1=CC=C(C=C1)C(F)(F)F", 
	 "Tm": 319.15, 
	 "num_atms": 16, 
	 "gaussian": { 
		 "optdone": 1, 
		 "sigma_profile": "yes", 
		 "theory": "DFT", 
		 "functional": "B3LYP", 
		 "basiset": "6-31G**", 
		 "properties": { 
			 "R2extent": 2405.0852, 
			 "electric_dipole_moment_norm": 3.19167632757, 
			 "electric_quadrupole_moment_norm": 8.0498053492, 
			 "total_energy": -644.506826297, 
			 "HOMO_LUMO_gap": 0.2216, 
			 "cosmo_polarized_energy": -8.42, 
			 "cosmo_cavitation_energy": 21.79, 
			 "cosmo_dispersion_energy": -15.77, 
			 "cosmo_repulsion_energy": 1.21, 
			 "cosmo_total_nonelectrostatic_energy": 7.23, 
			 "SMD_solvation_energy": 5.34 
		},
		"coords": [
			{
				"x": 2.0149337731,
				"y": -1.371898121,
				"z": 0.2219489284,
				"element": "O" 
			},
			{
				"x": 0.8665022652,
				"y": -0.6641236328,
				"z": 0.0362404766,
				"element": "C" 
			},
			{
				"x": 0.802809633,
				"y": 0.4772524754,
				"z": -0.7719041462,
				"element": "C" 
			},
			{
				"x": -0.4043061389,
				"y": 1.155408602,
				"z": -0.9211852646,
				"element": "C" 
			},
			{
				"x": -1.5528506441,
				"y": 0.7005127934,
				"z": -0.2704339254,
				"element": "C" 
			},
			{
				"x": -1.4839857317,
				"y": -0.442226833,
				"z": 0.5358605709,
				"element": "C" 
			},
			{
				"x": -0.2839591328,
				"y": -1.1242750945,
				"z": 0.6905209374,
				"element": "C" 
			},
			{
				"x": -2.840255695,
				"y": 1.4626423985,
				"z": -0.384050101,
				"element": "C" 
			},
			{
				"x": -3.9166388661,
				"y": 0.6449613838,
				"z": -0.3252919343,
				"element": "F" 
			},
			{
				"x": -2.9871998986,
				"y": 2.3652610454,
				"z": 0.6167907008,
				"element": "F" 
			},
			{
				"x": -2.9181570158,
				"y": 2.1548349418,
				"z": -1.5438645984,
				"element": "F" 
			},
			{
				"x": 2.7318728952,
				"y": -0.9585045827,
				"z": -0.2767138494,
				"element": "H" 
			},
			{
				"x": 1.6935640805,
				"y": 0.8321750643,
				"z": -1.2853453582,
				"element": "H" 
			},
			{
				"x": -0.4548990783,
				"y": 2.0357320024,
				"z": -1.5526493982,
				"element": "H" 
			},
			{
				"x": -2.3771720981,
				"y": -0.8018660291,
				"z": 1.035631169,
				"element": "H" 
			},
			{
				"x": -0.2156583477,
				"y": -2.0136864138,
				"z": 1.3074457926,
				"element": "H" 
			}
		],
		 "valence_orbital": [ 
			{
				"type": "occ",
				"energy": -0.36457,
				"method": "rhf"
			},
			{
				"type": "occ",
				"energy": -0.35432,
				"method": "rhf"
			},
			{
				"type": "occ",
				"energy": -0.34892,
				"method": "rhf"
			},
			{
				"type": "occ",
				"energy": -0.2688,
				"method": "rhf"
			},
			{
				"type": "occ",
				"energy": -0.2395,
				"method": "rhf"
			},
			{
				"type": "unocc",
				"energy": -0.0179,
				"method": "rhf"
			},
			{
				"type": "unocc",
				"energy": -0.01403,
				"method": "rhf"
			},
			{
				"type": "unocc",
				"energy": 0.05874,
				"method": "rhf"
			},
			{
				"type": "unocc",
				"energy": 0.09042,
				"method": "rhf"
			},
			{
				"type": "unocc",
				"energy": 0.13192,
				"method": "rhf"
			}
		],
		"cosmo_sigma_profile": { 
			"-0.025": 0.0,
			"-0.024": 0.0,
			"-0.023": 0.0,
			"-0.022": 0.0,
			"-0.021": 0.0,
			"-0.02": 0.0,
			"-0.019": 0.0159182542444,
			"-0.018": 0.933435103604,
			"-0.017": 1.18362578627,
			"-0.016": 1.43013992169,
			"-0.015": 0.677293863856,
			"-0.014": 0.9067800365,
			"-0.013": 0.988531772427,
			"-0.012": 0.646919602921,
			"-0.011": 1.31885178312,
			"-0.01": 1.44477988078,
			"-0.009": 1.04296587496,
			"-0.008": 1.12073622026,
			"-0.007": 4.24253532375,
			"-0.006": 8.19831768311,
			"-0.005": 8.65852966538,
			"-0.004": 7.0678063918,
			"-0.003": 6.43082773712,
			"-0.002": 5.39183895799,
			"-0.001": 7.65808293054,
			"0.0": 9.61030470292,
			"0.001": 13.2165312022,
			"0.002": 22.6049186937,
			"0.003": 43.2365786796,
			"0.004": 16.6694423532,
			"0.005": 0.927985184882,
			"0.006": 1.57469445702,
			"0.007": 1.33850433634,
			"0.008": 1.47046256294,
			"0.009": 1.57576084411,
			"0.01": 1.61087265469,
			"0.011": 1.40625696975,
			"0.012": 0.00911167345227,
			"0.013": 0.0,
			"0.014": 0.0,
			"0.015": 0.0,
			"0.016": 0.0,
			"0.017": 0.0,
			"0.018": 0.0,
			"0.019": 0.0,
			"0.02": 0.0,
			"0.021": 0.0,
			"0.022": 0.0,
			"0.023": 0.0,
			"0.024": 0.0,
			"0.025": 0.0
		}
	}
}
