{
	 "smiles": "OC(=O)C1SCCS1", 
	 "Tm": 358.15, 
	 "num_atms": 14, 
	 "gaussian": { 
		 "optdone": 1, 
		 "sigma_profile": "yes", 
		 "theory": "DFT", 
		 "functional": "B3LYP", 
		 "basiset": "6-31G**", 
		 "properties": { 
			 "R2extent": 1406.6322, 
			 "electric_dipole_moment_norm": 5.36165113188, 
			 "electric_quadrupole_moment_norm": 11.2820436881, 
			 "total_energy": -1102.86524254, 
			 "HOMO_LUMO_gap": 0.21535, 
			 "cosmo_polarized_energy": -14.04, 
			 "cosmo_cavitation_energy": 20.2, 
			 "cosmo_dispersion_energy": -16.19, 
			 "cosmo_repulsion_energy": 1.24, 
			 "cosmo_total_nonelectrostatic_energy": 5.26, 
			 "SMD_solvation_energy": 3.56 
		},
		"coords": [
			{
				"x": 1.808519035,
				"y": -1.3967454442,
				"z": -1.8794060632,
				"element": "O" 
			},
			{
				"x": 0.488784435,
				"y": -1.4667230646,
				"z": -1.6314089903,
				"element": "C" 
			},
			{
				"x": -0.3110969248,
				"y": -1.8069485624,
				"z": -2.4660100825,
				"element": "O" 
			},
			{
				"x": 0.0228356851,
				"y": -1.0386810809,
				"z": -0.2221233619,
				"element": "C" 
			},
			{
				"x": 1.3437955693,
				"y": -1.1755339664,
				"z": 1.0766335006,
				"element": "S" 
			},
			{
				"x": 1.4292884992,
				"y": 0.611653769,
				"z": 1.5244754304,
				"element": "C" 
			},
			{
				"x": 0.9476886372,
				"y": 1.4330632122,
				"z": 0.334763321,
				"element": "C" 
			},
			{
				"x": -0.6184961254,
				"y": 0.6895962194,
				"z": -0.2522935234,
				"element": "S" 
			},
			{
				"x": 2.2711604676,
				"y": -1.2330601049,
				"z": -1.03337438,
				"element": "H" 
			},
			{
				"x": -0.8201401133,
				"y": -1.6783443717,
				"z": 0.0421284073,
				"element": "H" 
			},
			{
				"x": 0.8018288155,
				"y": 0.783622116,
				"z": 2.4012650807,
				"element": "H" 
			},
			{
				"x": 2.4704128713,
				"y": 0.8327995313,
				"z": 1.7773291008,
				"element": "H" 
			},
			{
				"x": 0.725147794,
				"y": 2.4639799606,
				"z": 0.6254222169,
				"element": "H" 
			},
			{
				"x": 1.6876713542,
				"y": 1.4479217867,
				"z": -0.4706006563,
				"element": "H" 
			}
		],
		 "valence_orbital": [ 
			{
				"type": "occ",
				"energy": -0.33192,
				"method": "rhf"
			},
			{
				"type": "occ",
				"energy": -0.31577,
				"method": "rhf"
			},
			{
				"type": "occ",
				"energy": -0.28988,
				"method": "rhf"
			},
			{
				"type": "occ",
				"energy": -0.26038,
				"method": "rhf"
			},
			{
				"type": "occ",
				"energy": -0.24844,
				"method": "rhf"
			},
			{
				"type": "unocc",
				"energy": -0.03309,
				"method": "rhf"
			},
			{
				"type": "unocc",
				"energy": -0.00696,
				"method": "rhf"
			},
			{
				"type": "unocc",
				"energy": 0.03947,
				"method": "rhf"
			},
			{
				"type": "unocc",
				"energy": 0.04055,
				"method": "rhf"
			},
			{
				"type": "unocc",
				"energy": 0.06277,
				"method": "rhf"
			}
		],
		"cosmo_sigma_profile": { 
			"-0.025": 0.0,
			"-0.024": 0.0,
			"-0.023": 0.0,
			"-0.022": 0.0,
			"-0.021": 0.0,
			"-0.02": 0.0,
			"-0.019": 0.0,
			"-0.018": 0.0,
			"-0.017": 0.0,
			"-0.016": 0.0,
			"-0.015": 0.0,
			"-0.014": 0.0,
			"-0.013": 0.30520337231,
			"-0.012": 0.328116064245,
			"-0.011": 1.56853547731,
			"-0.01": 1.54273643176,
			"-0.009": 3.17527166336,
			"-0.008": 7.075333366,
			"-0.007": 11.6532062699,
			"-0.006": 13.9529812271,
			"-0.005": 12.0572869064,
			"-0.004": 12.4975455996,
			"-0.003": 9.19716110322,
			"-0.002": 5.44160383192,
			"-0.001": 5.89660641872,
			"0.0": 5.57353860043,
			"0.001": 5.63264353754,
			"0.002": 7.589688499,
			"0.003": 9.55065232638,
			"0.004": 7.39570254432,
			"0.005": 6.15413792482,
			"0.006": 6.11719882366,
			"0.007": 5.5536033598,
			"0.008": 5.78903171422,
			"0.009": 4.3909496993,
			"0.01": 5.12982456952,
			"0.011": 4.8894633004,
			"0.012": 4.71986474137,
			"0.013": 0.738842162352,
			"0.014": 0.0,
			"0.015": 0.0,
			"0.016": 0.0,
			"0.017": 0.0,
			"0.018": 0.0,
			"0.019": 0.0,
			"0.02": 0.0,
			"0.021": 0.0,
			"0.022": 0.0,
			"0.023": 0.0,
			"0.024": 0.0,
			"0.025": 0.0
		}
	}
}
