{
	 "smiles": "NNC1=NC2=C(C(N)=NN2)C(=N1)C1=CC=CC=C1", 
	 "Tm": 515.15, 
	 "num_atms": 29, 
	 "gaussian": { 
		 "optdone": 1, 
		 "sigma_profile": "yes", 
		 "theory": "DFT", 
		 "functional": "B3LYP", 
		 "basiset": "6-31G**", 
		 "properties": { 
			 "R2extent": 5263.352, 
			 "electric_dipole_moment_norm": 1.75019567192, 
			 "electric_quadrupole_moment_norm": 11.2254076652, 
			 "total_energy": -809.037028932, 
			 "HOMO_LUMO_gap": 0.15079, 
			 "cosmo_polarized_energy": -17.0, 
			 "cosmo_cavitation_energy": 33.23, 
			 "cosmo_dispersion_energy": -24.79, 
			 "cosmo_repulsion_energy": 1.93, 
			 "cosmo_total_nonelectrostatic_energy": 10.37, 
			 "SMD_solvation_energy": 2.42 
		},
		"coords": [
			{
				"x": 3.763631311,
				"y": 1.1256352561,
				"z": 4.253678567,
				"element": "N" 
			},
			{
				"x": 3.3367236476,
				"y": 1.1146715707,
				"z": 2.9177740801,
				"element": "N" 
			},
			{
				"x": 2.2489856962,
				"y": 0.4092798574,
				"z": 2.4833071252,
				"element": "C" 
			},
			{
				"x": 1.6955443035,
				"y": -0.4637310926,
				"z": 3.3340196336,
				"element": "N" 
			},
			{
				"x": 0.643932539,
				"y": -1.091181537,
				"z": 2.7943899954,
				"element": "C" 
			},
			{
				"x": 0.1360961166,
				"y": -0.9158951998,
				"z": 1.4783138675,
				"element": "C" 
			},
			{
				"x": -1.029893478,
				"y": -1.7669682126,
				"z": 1.4451836874,
				"element": "C" 
			},
			{
				"x": -1.8961193143,
				"y": -2.0081772746,
				"z": 0.3839371169,
				"element": "N" 
			},
			{
				"x": -1.2000033517,
				"y": -2.3981868331,
				"z": 2.5927506154,
				"element": "N" 
			},
			{
				"x": -0.1546715127,
				"y": -1.9939341773,
				"z": 3.3997366769,
				"element": "N" 
			},
			{
				"x": 0.8401366888,
				"y": 0.0196642648,
				"z": 0.682979353,
				"element": "C" 
			},
			{
				"x": 1.8724249386,
				"y": 0.6837278827,
				"z": 1.206259124,
				"element": "N" 
			},
			{
				"x": 0.5077514389,
				"y": 0.3443325341,
				"z": -0.7291441109,
				"element": "C" 
			},
			{
				"x": 0.0534560321,
				"y": -0.6378966225,
				"z": -1.6234373613,
				"element": "C" 
			},
			{
				"x": -0.2203305057,
				"y": -0.3088712866,
				"z": -2.9521933968,
				"element": "C" 
			},
			{
				"x": -0.0474937458,
				"y": 1.0006590461,
				"z": -3.4025630618,
				"element": "C" 
			},
			{
				"x": 0.4153870607,
				"y": 1.9813577081,
				"z": -2.5206183776,
				"element": "C" 
			},
			{
				"x": 0.700477175,
				"y": 1.6545133196,
				"z": -1.1975191533,
				"element": "C" 
			},
			{
				"x": 4.18352718,
				"y": 0.2185365367,
				"z": 4.4531212583,
				"element": "H" 
			},
			{
				"x": 2.9382133904,
				"y": 1.179244988,
				"z": 4.8519578697,
				"element": "H" 
			},
			{
				"x": 3.6372436411,
				"y": 1.8884967948,
				"z": 2.3448730385,
				"element": "H" 
			},
			{
				"x": -2.7331834178,
				"y": -2.4892432737,
				"z": 0.6921221599,
				"element": "H" 
			},
			{
				"x": -2.1120134411,
				"y": -1.1887279813,
				"z": -0.1690197305,
				"element": "H" 
			},
			{
				"x": -0.0998729415,
				"y": -2.3238827123,
				"z": 4.3491875583,
				"element": "H" 
			},
			{
				"x": -0.0713901368,
				"y": -1.660922463,
				"z": -1.2855285224,
				"element": "H" 
			},
			{
				"x": -0.5602286826,
				"y": -1.0806976617,
				"z": -3.6368290843,
				"element": "H" 
			},
			{
				"x": -0.2649242404,
				"y": 1.2552963571,
				"z": -4.435989861,
				"element": "H" 
			},
			{
				"x": 0.5573811377,
				"y": 3.0011646996,
				"z": -2.8668491742,
				"element": "H" 
			},
			{
				"x": 1.0775124711,
				"y": 2.4021355123,
				"z": -0.5084998928,
				"element": "H" 
			}
		],
		 "valence_orbital": [ 
			{
				"type": "occ",
				"energy": -0.25714,
				"method": "rhf"
			},
			{
				"type": "occ",
				"energy": -0.25109,
				"method": "rhf"
			},
			{
				"type": "occ",
				"energy": -0.2465,
				"method": "rhf"
			},
			{
				"type": "occ",
				"energy": -0.22387,
				"method": "rhf"
			},
			{
				"type": "occ",
				"energy": -0.20203,
				"method": "rhf"
			},
			{
				"type": "unocc",
				"energy": -0.05124,
				"method": "rhf"
			},
			{
				"type": "unocc",
				"energy": -0.0063,
				"method": "rhf"
			},
			{
				"type": "unocc",
				"energy": 0.01175,
				"method": "rhf"
			},
			{
				"type": "unocc",
				"energy": 0.02015,
				"method": "rhf"
			},
			{
				"type": "unocc",
				"energy": 0.06889,
				"method": "rhf"
			}
		],
		"cosmo_sigma_profile": { 
			"-0.025": 0.0,
			"-0.024": 0.0,
			"-0.023": 0.0,
			"-0.022": 0.0,
			"-0.021": 0.0,
			"-0.02": 0.0,
			"-0.019": 0.0,
			"-0.018": 0.0,
			"-0.017": 0.103737328274,
			"-0.016": 1.03706488956,
			"-0.015": 1.10143354122,
			"-0.014": 1.75368927183,
			"-0.013": 1.37625329191,
			"-0.012": 2.69608583326,
			"-0.011": 4.5892488142,
			"-0.01": 6.14880568873,
			"-0.009": 7.25156920619,
			"-0.008": 5.27813643678,
			"-0.007": 5.61500278186,
			"-0.006": 10.5387424836,
			"-0.005": 12.5221213302,
			"-0.004": 16.1683944194,
			"-0.003": 11.8389731851,
			"-0.002": 13.5290129918,
			"-0.001": 14.7567839603,
			"0.0": 19.5721723258,
			"0.001": 21.2268600964,
			"0.002": 19.2955075832,
			"0.003": 16.0741230507,
			"0.004": 16.9048139059,
			"0.005": 16.3045135928,
			"0.006": 6.40293323295,
			"0.007": 5.99087799051,
			"0.008": 4.69772199194,
			"0.009": 3.9112655555,
			"0.01": 4.47617043394,
			"0.011": 3.53900138908,
			"0.012": 4.03945034581,
			"0.013": 2.07950095938,
			"0.014": 1.45274880601,
			"0.015": 1.78424671639,
			"0.016": 0.833356059078,
			"0.017": 0.301778999235,
			"0.018": 0.0,
			"0.019": 0.0,
			"0.02": 0.0,
			"0.021": 0.0,
			"0.022": 0.0,
			"0.023": 0.0,
			"0.024": 0.0,
			"0.025": 0.0
		}
	}
}
