{
	 "smiles": "COC1=CC=C(CBr)C=C1C(F)(F)F", 
	 "Tm": 350.15, 
	 "num_atms": 22, 
	 "gaussian": { 
		 "optdone": 1, 
		 "sigma_profile": "yes", 
		 "theory": "DFT", 
		 "functional": "B3LYP", 
		 "basiset": "6-31G**", 
		 "properties": { 
			 "R2extent": 6598.9913, 
			 "electric_dipole_moment_norm": 4.15559831914, 
			 "electric_quadrupole_moment_norm": 17.9116549152, 
			 "total_energy": -3293.92772553, 
			 "HOMO_LUMO_gap": 0.19484, 
			 "cosmo_polarized_energy": -9.59, 
			 "cosmo_cavitation_energy": 29.8, 
			 "cosmo_dispersion_energy": -21.2, 
			 "cosmo_repulsion_energy": 1.64, 
			 "cosmo_total_nonelectrostatic_energy": 10.23, 
			 "SMD_solvation_energy": 5.75 
		},
		"coords": [
			{
				"x": -2.8474034107,
				"y": 0.86666126,
				"z": 0.8765731201,
				"element": "C" 
			},
			{
				"x": -1.452030855,
				"y": 0.5927504023,
				"z": 0.8819326972,
				"element": "O" 
			},
			{
				"x": -0.9987972902,
				"y": -0.5081311637,
				"z": 0.2362409146,
				"element": "C" 
			},
			{
				"x": -1.813458016,
				"y": -1.4071656434,
				"z": -0.4629009976,
				"element": "C" 
			},
			{
				"x": -1.248698453,
				"y": -2.5113742009,
				"z": -1.0983794968,
				"element": "C" 
			},
			{
				"x": 0.1283159751,
				"y": -2.7490893565,
				"z": -1.058805812,
				"element": "C" 
			},
			{
				"x": 0.727170663,
				"y": -3.9253356361,
				"z": -1.7508718038,
				"element": "C" 
			},
			{
				"x": 0.8030860472,
				"y": -5.5580221011,
				"z": -0.5750226737,
				"element": "Br" 
			},
			{
				"x": 0.9351114839,
				"y": -1.8449191429,
				"z": -0.3540491198,
				"element": "C" 
			},
			{
				"x": 0.3944896229,
				"y": -0.7358729942,
				"z": 0.285966554,
				"element": "C" 
			},
			{
				"x": 1.2883268615,
				"y": 0.2249155657,
				"z": 1.028196395,
				"element": "C" 
			},
			{
				"x": 2.5854472143,
				"y": -0.1579933146,
				"z": 0.9631176628,
				"element": "F" 
			},
			{
				"x": 0.967338619,
				"y": 0.3089224735,
				"z": 2.3362625178,
				"element": "F" 
			},
			{
				"x": 1.2214931737,
				"y": 1.473997488,
				"z": 0.5189143648,
				"element": "F" 
			},
			{
				"x": -2.9712883879,
				"y": 1.7812745642,
				"z": 1.4568542446,
				"element": "H" 
			},
			{
				"x": -3.4167918311,
				"y": 0.0568260292,
				"z": 1.3484029123,
				"element": "H" 
			},
			{
				"x": -3.2203763674,
				"y": 1.029468113,
				"z": -0.1419323183,
				"element": "H" 
			},
			{
				"x": -2.8837330008,
				"y": -1.2515215589,
				"z": -0.5167897499,
				"element": "H" 
			},
			{
				"x": -1.8970208997,
				"y": -3.2012956425,
				"z": -1.6321212252,
				"element": "H" 
			},
			{
				"x": 1.7634003534,
				"y": -3.7629576787,
				"z": -2.0409183297,
				"element": "H" 
			},
			{
				"x": 0.1457238443,
				"y": -4.2502971868,
				"z": -2.6115542502,
				"element": "H" 
			},
			{
				"x": 2.0060946534,
				"y": -2.0065402753,
				"z": -0.2998156063,
				"element": "H" 
			}
		],
		 "valence_orbital": [ 
			{
				"type": "occ",
				"energy": -0.33136,
				"method": "rhf"
			},
			{
				"type": "occ",
				"energy": -0.2776,
				"method": "rhf"
			},
			{
				"type": "occ",
				"energy": -0.27302,
				"method": "rhf"
			},
			{
				"type": "occ",
				"energy": -0.26886,
				"method": "rhf"
			},
			{
				"type": "occ",
				"energy": -0.23659,
				"method": "rhf"
			},
			{
				"type": "unocc",
				"energy": -0.04175,
				"method": "rhf"
			},
			{
				"type": "unocc",
				"energy": -0.02872,
				"method": "rhf"
			},
			{
				"type": "unocc",
				"energy": 0.02411,
				"method": "rhf"
			},
			{
				"type": "unocc",
				"energy": 0.07595,
				"method": "rhf"
			},
			{
				"type": "unocc",
				"energy": 0.0907,
				"method": "rhf"
			}
		],
		"cosmo_sigma_profile": { 
			"-0.025": 0.0,
			"-0.024": 0.0,
			"-0.023": 0.0,
			"-0.022": 0.0,
			"-0.021": 0.0,
			"-0.02": 0.0,
			"-0.019": 0.0,
			"-0.018": 0.0,
			"-0.017": 0.0,
			"-0.016": 0.0,
			"-0.015": 0.0,
			"-0.014": 0.0,
			"-0.013": 0.0,
			"-0.012": 0.0,
			"-0.011": 0.0,
			"-0.01": 0.0,
			"-0.009": 0.000697995839244,
			"-0.008": 5.07889300174,
			"-0.007": 12.2637247093,
			"-0.006": 17.7196866268,
			"-0.005": 16.0312668093,
			"-0.004": 15.5165405894,
			"-0.003": 12.1566601258,
			"-0.002": 10.8412684299,
			"-0.001": 11.5889831755,
			"0.0": 13.3849353092,
			"0.001": 16.4044222733,
			"0.002": 23.3530009447,
			"0.003": 37.9919873623,
			"0.004": 14.9702961769,
			"0.005": 9.35589398114,
			"0.006": 13.9713316071,
			"0.007": 8.3089427759,
			"0.008": 2.15250516294,
			"0.009": 0.071467584869,
			"0.01": 0.0,
			"0.011": 0.0,
			"0.012": 0.0,
			"0.013": 0.0,
			"0.014": 0.0,
			"0.015": 0.0,
			"0.016": 0.0,
			"0.017": 0.0,
			"0.018": 0.0,
			"0.019": 0.0,
			"0.02": 0.0,
			"0.021": 0.0,
			"0.022": 0.0,
			"0.023": 0.0,
			"0.024": 0.0,
			"0.025": 0.0
		}
	}
}
