{
	 "smiles": "CC(C)C1(C)NC(=O)NC1=O", 
	 "Tm": 450.15, 
	 "num_atms": 23, 
	 "gaussian": { 
		 "optdone": 1, 
		 "sigma_profile": "yes", 
		 "theory": "DFT", 
		 "functional": "B3LYP", 
		 "basiset": "6-31G**", 
		 "properties": { 
			 "R2extent": 2160.7933, 
			 "electric_dipole_moment_norm": 2.69821227853, 
			 "electric_quadrupole_moment_norm": 11.8088543551, 
			 "total_energy": -533.982103675, 
			 "HOMO_LUMO_gap": 0.24955, 
			 "cosmo_polarized_energy": -14.59, 
			 "cosmo_cavitation_energy": 25.11, 
			 "cosmo_dispersion_energy": -18.08, 
			 "cosmo_repulsion_energy": 1.45, 
			 "cosmo_total_nonelectrostatic_energy": 8.49, 
			 "SMD_solvation_energy": 5.92 
		},
		"coords": [
			{
				"x": -1.8429564126,
				"y": 1.1016026802,
				"z": 0.7437707537,
				"element": "C" 
			},
			{
				"x": -0.3147028259,
				"y": 1.2523130491,
				"z": 0.8129513775,
				"element": "C" 
			},
			{
				"x": 0.2122369443,
				"y": 0.8039917266,
				"z": 2.1851878916,
				"element": "C" 
			},
			{
				"x": 0.3989405746,
				"y": 0.5386372851,
				"z": -0.3852224479,
				"element": "C" 
			},
			{
				"x": 0.3642462927,
				"y": -0.9972238735,
				"z": -0.3031843134,
				"element": "C" 
			},
			{
				"x": -0.123083809,
				"y": 1.0273211327,
				"z": -1.6658973119,
				"element": "N" 
			},
			{
				"x": 0.8110291471,
				"y": 1.6284838356,
				"z": -2.4671581503,
				"element": "C" 
			},
			{
				"x": 0.6836157924,
				"y": 2.0637120252,
				"z": -3.5928212413,
				"element": "O" 
			},
			{
				"x": 1.9957527452,
				"y": 1.6470925334,
				"z": -1.6995398975,
				"element": "N" 
			},
			{
				"x": 1.8736320315,
				"y": 1.0043115464,
				"z": -0.4878934731,
				"element": "C" 
			},
			{
				"x": 2.7556677455,
				"y": 0.8302767522,
				"z": 0.329625694,
				"element": "O" 
			},
			{
				"x": -2.1552406158,
				"y": 0.0561827572,
				"z": 0.8455702288,
				"element": "H" 
			},
			{
				"x": -2.2551349307,
				"y": 1.4980660438,
				"z": -0.1889818666,
				"element": "H" 
			},
			{
				"x": -2.3060826243,
				"y": 1.6571909572,
				"z": 1.5651924798,
				"element": "H" 
			},
			{
				"x": -0.0879011637,
				"y": 2.320549033,
				"z": 0.6923957857,
				"element": "H" 
			},
			{
				"x": 1.3011392336,
				"y": 0.8581767375,
				"z": 2.2363962123,
				"element": "H" 
			},
			{
				"x": -0.2055058601,
				"y": 1.4465314716,
				"z": 2.9670750004,
				"element": "H" 
			},
			{
				"x": -0.091838189,
				"y": -0.2237046616,
				"z": 2.4124615978,
				"element": "H" 
			},
			{
				"x": -0.6628632803,
				"y": -1.3653534788,
				"z": -0.2233410987,
				"element": "H" 
			},
			{
				"x": 0.928174992,
				"y": -1.3432627442,
				"z": 0.5653442859,
				"element": "H" 
			},
			{
				"x": 0.8137910825,
				"y": -1.4333312437,
				"z": -1.1998198501,
				"element": "H" 
			},
			{
				"x": -1.0150482158,
				"y": 0.7633374844,
				"z": -2.0529793137,
				"element": "H" 
			},
			{
				"x": 2.8582313457,
				"y": 2.0401989507,
				"z": -2.0480323425,
				"element": "H" 
			}
		],
		 "valence_orbital": [ 
			{
				"type": "occ",
				"energy": -0.33977,
				"method": "rhf"
			},
			{
				"type": "occ",
				"energy": -0.28994,
				"method": "rhf"
			},
			{
				"type": "occ",
				"energy": -0.28568,
				"method": "rhf"
			},
			{
				"type": "occ",
				"energy": -0.2663,
				"method": "rhf"
			},
			{
				"type": "occ",
				"energy": -0.25878,
				"method": "rhf"
			},
			{
				"type": "unocc",
				"energy": -0.00923,
				"method": "rhf"
			},
			{
				"type": "unocc",
				"energy": 0.06009,
				"method": "rhf"
			},
			{
				"type": "unocc",
				"energy": 0.06477,
				"method": "rhf"
			},
			{
				"type": "unocc",
				"energy": 0.08876,
				"method": "rhf"
			},
			{
				"type": "unocc",
				"energy": 0.09777,
				"method": "rhf"
			}
		],
		"cosmo_sigma_profile": { 
			"-0.025": 0.0,
			"-0.024": 0.0,
			"-0.023": 0.0,
			"-0.022": 0.0,
			"-0.021": 0.0,
			"-0.02": 0.0,
			"-0.019": 0.0,
			"-0.018": 0.0,
			"-0.017": 0.154441232133,
			"-0.016": 1.46439349158,
			"-0.015": 1.23509145777,
			"-0.014": 2.04924238993,
			"-0.013": 1.57433627052,
			"-0.012": 1.55697216927,
			"-0.011": 2.2461995557,
			"-0.01": 2.12387320705,
			"-0.009": 1.74896602043,
			"-0.008": 2.22232941164,
			"-0.007": 2.06854173999,
			"-0.006": 3.30300427201,
			"-0.005": 8.72314616927,
			"-0.004": 12.6103092339,
			"-0.003": 20.2308009661,
			"-0.002": 22.3102519159,
			"-0.001": 22.0567596348,
			"0.0": 19.2071718289,
			"0.001": 17.0443019622,
			"0.002": 6.39163864241,
			"0.003": 4.51140985215,
			"0.004": 3.13984318396,
			"0.005": 2.4337985646,
			"0.006": 3.03379822248,
			"0.007": 2.16553941954,
			"0.008": 2.72691443149,
			"0.009": 2.67138004579,
			"0.01": 3.30844790627,
			"0.011": 3.89468038851,
			"0.012": 8.1223773386,
			"0.013": 7.95960889881,
			"0.014": 1.54381404641,
			"0.015": 0.0,
			"0.016": 0.0,
			"0.017": 0.0,
			"0.018": 0.0,
			"0.019": 0.0,
			"0.02": 0.0,
			"0.021": 0.0,
			"0.022": 0.0,
			"0.023": 0.0,
			"0.024": 0.0,
			"0.025": 0.0
		}
	}
}
