{
	 "smiles": "CC(=O)NC(CC1=CNC2=C1C=CC=C2)C(O)=O", 
	 "Tm": 478.15, 
	 "num_atms": 32, 
	 "gaussian": { 
		 "optdone": 1, 
		 "sigma_profile": "yes", 
		 "theory": "DFT", 
		 "functional": "B3LYP", 
		 "basiset": "6-31G**", 
		 "properties": { 
			 "R2extent": 5181.724, 
			 "electric_dipole_moment_norm": 1.73130312482, 
			 "electric_quadrupole_moment_norm": 25.7824163301, 
			 "total_energy": -839.031418765, 
			 "HOMO_LUMO_gap": 0.19137, 
			 "cosmo_polarized_energy": -22.79, 
			 "cosmo_cavitation_energy": 35.79, 
			 "cosmo_dispersion_energy": -24.39, 
			 "cosmo_repulsion_energy": 1.89, 
			 "cosmo_total_nonelectrostatic_energy": 13.29, 
			 "SMD_solvation_energy": 7.76 
		},
		"coords": [
			{
				"x": 3.1700453312,
				"y": -0.3690612301,
				"z": 0.6019832637,
				"element": "C" 
			},
			{
				"x": 2.2268046159,
				"y": 0.3863763608,
				"z": -0.3189999188,
				"element": "C" 
			},
			{
				"x": 2.5794676444,
				"y": 0.8252918425,
				"z": -1.4000898635,
				"element": "O" 
			},
			{
				"x": 0.928214352,
				"y": 0.609001275,
				"z": 0.1382090402,
				"element": "N" 
			},
			{
				"x": 0.2242177938,
				"y": -0.1561464006,
				"z": 1.1688256765,
				"element": "C" 
			},
			{
				"x": -1.000825283,
				"y": -0.9262004335,
				"z": 0.616422408,
				"element": "C" 
			},
			{
				"x": -2.0337901512,
				"y": -0.042876448,
				"z": -0.0258937866,
				"element": "C" 
			},
			{
				"x": -3.076414249,
				"y": 0.5819325501,
				"z": 0.6179912116,
				"element": "C" 
			},
			{
				"x": -3.802918738,
				"y": 1.3328800682,
				"z": -0.2826478021,
				"element": "N" 
			},
			{
				"x": -3.2432744822,
				"y": 1.2126223892,
				"z": -1.5382206404,
				"element": "C" 
			},
			{
				"x": -2.1181829824,
				"y": 0.3487597392,
				"z": -1.4149726502,
				"element": "C" 
			},
			{
				"x": -1.3640209703,
				"y": 0.0537229924,
				"z": -2.5674625027,
				"element": "C" 
			},
			{
				"x": -1.7381900739,
				"y": 0.6151870156,
				"z": -3.7818535292,
				"element": "C" 
			},
			{
				"x": -2.8566129741,
				"y": 1.4684364841,
				"z": -3.8770949979,
				"element": "C" 
			},
			{
				"x": -3.6238740051,
				"y": 1.7775056394,
				"z": -2.7598733335,
				"element": "C" 
			},
			{
				"x": -0.206603545,
				"y": 0.7407244721,
				"z": 2.3531155595,
				"element": "C" 
			},
			{
				"x": 0.3209925346,
				"y": 1.9749575115,
				"z": 2.3591774133,
				"element": "O" 
			},
			{
				"x": -0.9429346139,
				"y": 0.3458057761,
				"z": 3.2269934383,
				"element": "O" 
			},
			{
				"x": 4.1803003093,
				"y": -0.2479866911,
				"z": 0.2121167723,
				"element": "H" 
			},
			{
				"x": 3.1274694809,
				"y": -0.0019897541,
				"z": 1.632022288,
				"element": "H" 
			},
			{
				"x": 2.9307060849,
				"y": -1.4383755246,
				"z": 0.6164505251,
				"element": "H" 
			},
			{
				"x": 0.3365223648,
				"y": 0.9942021676,
				"z": -0.5945277035,
				"element": "H" 
			},
			{
				"x": 0.9190431525,
				"y": -0.8852150152,
				"z": 1.5965327786,
				"element": "H" 
			},
			{
				"x": -0.6409189917,
				"y": -1.674571059,
				"z": -0.0982341349,
				"element": "H" 
			},
			{
				"x": -1.4375760186,
				"y": -1.4641918541,
				"z": 1.4617291735,
				"element": "H" 
			},
			{
				"x": -3.3475769364,
				"y": 0.5490993175,
				"z": 1.6636290624,
				"element": "H" 
			},
			{
				"x": -4.6162681931,
				"y": 1.8814058035,
				"z": -0.0555629893,
				"element": "H" 
			},
			{
				"x": -0.4986993713,
				"y": -0.6013701921,
				"z": -2.5131662852,
				"element": "H" 
			},
			{
				"x": -1.159702127,
				"y": 0.395700087,
				"z": -4.6740546424,
				"element": "H" 
			},
			{
				"x": -3.1234731372,
				"y": 1.8922634391,
				"z": -4.8405854759,
				"element": "H" 
			},
			{
				"x": -4.4859253481,
				"y": 2.4345327631,
				"z": -2.8338517367,
				"element": "H" 
			},
			{
				"x": 0.836998527,
				"y": 2.0622769087,
				"z": 1.5335933819,
				"element": "H" 
			}
		],
		 "valence_orbital": [ 
			{
				"type": "occ",
				"energy": -0.28074,
				"method": "rhf"
			},
			{
				"type": "occ",
				"energy": -0.26907,
				"method": "rhf"
			},
			{
				"type": "occ",
				"energy": -0.25316,
				"method": "rhf"
			},
			{
				"type": "occ",
				"energy": -0.22757,
				"method": "rhf"
			},
			{
				"type": "occ",
				"energy": -0.20832,
				"method": "rhf"
			},
			{
				"type": "unocc",
				"energy": -0.01695,
				"method": "rhf"
			},
			{
				"type": "unocc",
				"energy": 0.00382,
				"method": "rhf"
			},
			{
				"type": "unocc",
				"energy": 0.00534,
				"method": "rhf"
			},
			{
				"type": "unocc",
				"energy": 0.02046,
				"method": "rhf"
			},
			{
				"type": "unocc",
				"energy": 0.04815,
				"method": "rhf"
			}
		],
		"cosmo_sigma_profile": { 
			"-0.025": 0.0,
			"-0.024": 0.0,
			"-0.023": 0.0,
			"-0.022": 0.0,
			"-0.021": 0.0,
			"-0.02": 0.0,
			"-0.019": 0.0,
			"-0.018": 0.0,
			"-0.017": 0.0,
			"-0.016": 0.478725613626,
			"-0.015": 1.69418213663,
			"-0.014": 1.98391983637,
			"-0.013": 1.92724442872,
			"-0.012": 1.85482437362,
			"-0.011": 3.41368704994,
			"-0.01": 4.20237434834,
			"-0.009": 6.03207452252,
			"-0.008": 8.18058940396,
			"-0.007": 10.0515874537,
			"-0.006": 12.9799638622,
			"-0.005": 20.8470177432,
			"-0.004": 18.9328965819,
			"-0.003": 19.2149499093,
			"-0.002": 21.0303728244,
			"-0.001": 15.9996340427,
			"0.0": 12.5244084967,
			"0.001": 10.8433551951,
			"0.002": 12.0955088305,
			"0.003": 12.8231581757,
			"0.004": 13.7987348557,
			"0.005": 14.3314258173,
			"0.006": 12.8218260787,
			"0.007": 8.32722326075,
			"0.008": 4.08341822147,
			"0.009": 5.29611587221,
			"0.01": 5.90369929602,
			"0.011": 5.17271447504,
			"0.012": 8.12204685293,
			"0.013": 6.9959553563,
			"0.014": 1.87572808343,
			"0.015": 0.025349609966,
			"0.016": 0.0,
			"0.017": 0.0,
			"0.018": 0.0,
			"0.019": 0.0,
			"0.02": 0.0,
			"0.021": 0.0,
			"0.022": 0.0,
			"0.023": 0.0,
			"0.024": 0.0,
			"0.025": 0.0
		}
	}
}
