{
	 "smiles": "OC(=O)C1=CC2=C(C=C1)C(=O)N(CCC1=CC=CC=C1)C2=O", 
	 "Tm": 489.15, 
	 "num_atms": 35, 
	 "gaussian": { 
		 "optdone": 1, 
		 "sigma_profile": "yes", 
		 "theory": "DFT", 
		 "functional": "B3LYP", 
		 "basiset": "6-31G**", 
		 "properties": { 
			 "R2extent": 8262.1634, 
			 "electric_dipole_moment_norm": 2.96133002045, 
			 "electric_quadrupole_moment_norm": 18.4356933908, 
			 "total_energy": -1011.33685617, 
			 "HOMO_LUMO_gap": 0.14538, 
			 "cosmo_polarized_energy": -20.97, 
			 "cosmo_cavitation_energy": 40.84, 
			 "cosmo_dispersion_energy": -27.45, 
			 "cosmo_repulsion_energy": 2.09, 
			 "cosmo_total_nonelectrostatic_energy": 15.47, 
			 "SMD_solvation_energy": 8.85 
		},
		"coords": [
			{
				"x": -1.0623718856,
				"y": -5.0217919595,
				"z": 3.7683161595,
				"element": "O" 
			},
			{
				"x": -1.8865463409,
				"y": -3.9440120645,
				"z": 3.7605611169,
				"element": "C" 
			},
			{
				"x": -2.7504264944,
				"y": -3.8331324997,
				"z": 4.5972370234,
				"element": "O" 
			},
			{
				"x": -1.6658923139,
				"y": -2.9255728427,
				"z": 2.6756319986,
				"element": "C" 
			},
			{
				"x": -0.9851297922,
				"y": -3.2234299638,
				"z": 1.4816224473,
				"element": "C" 
			},
			{
				"x": -0.8552147597,
				"y": -2.2112816315,
				"z": 0.5449075537,
				"element": "C" 
			},
			{
				"x": -1.3793003834,
				"y": -0.9384087628,
				"z": 0.7662967673,
				"element": "C" 
			},
			{
				"x": -2.0668422896,
				"y": -0.6306230422,
				"z": 1.9324459311,
				"element": "C" 
			},
			{
				"x": -2.209543266,
				"y": -1.6450917241,
				"z": 2.8830083745,
				"element": "C" 
			},
			{
				"x": -1.0751679701,
				"y": -0.0951538377,
				"z": -0.4315641181,
				"element": "C" 
			},
			{
				"x": -1.3743664023,
				"y": 1.0614371067,
				"z": -0.6414248882,
				"element": "O" 
			},
			{
				"x": -0.3665547033,
				"y": -0.9328545546,
				"z": -1.3132791906,
				"element": "N" 
			},
			{
				"x": 0.1351604854,
				"y": -0.4957238973,
				"z": -2.6116864089,
				"element": "C" 
			},
			{
				"x": 1.675137805,
				"y": -0.4421803465,
				"z": -2.6887214566,
				"element": "C" 
			},
			{
				"x": 2.3137184569,
				"y": 0.4555583918,
				"z": -1.6506642076,
				"element": "C" 
			},
			{
				"x": 2.2586369583,
				"y": 1.8514217744,
				"z": -1.7727972257,
				"element": "C" 
			},
			{
				"x": 2.8305953392,
				"y": 2.6772628501,
				"z": -0.8057601739,
				"element": "C" 
			},
			{
				"x": 3.4702915789,
				"y": 2.1193285745,
				"z": 0.3037581583,
				"element": "C" 
			},
			{
				"x": 3.5335565632,
				"y": 0.7320252388,
				"z": 0.4369461129,
				"element": "C" 
			},
			{
				"x": 2.9586207707,
				"y": -0.0912790627,
				"z": -0.5337741757,
				"element": "C" 
			},
			{
				"x": -0.1985236809,
				"y": -2.2234335129,
				"z": -0.7977709743,
				"element": "C" 
			},
			{
				"x": 0.3713380489,
				"y": -3.1425502606,
				"z": -1.354526625,
				"element": "O" 
			},
			{
				"x": -0.3318784475,
				"y": -4.901415091,
				"z": 3.1460919838,
				"element": "H" 
			},
			{
				"x": -0.5966220631,
				"y": -4.2134070878,
				"z": 1.257557841,
				"element": "H" 
			},
			{
				"x": -2.4790765511,
				"y": 0.3600267152,
				"z": 2.093062636,
				"element": "H" 
			},
			{
				"x": -2.7479377202,
				"y": -1.4708271208,
				"z": 3.8082487751,
				"element": "H" 
			},
			{
				"x": -0.3005059444,
				"y": 0.492016455,
				"z": -2.7792952305,
				"element": "H" 
			},
			{
				"x": -0.2452268032,
				"y": -1.1797139055,
				"z": -3.3772660544,
				"element": "H" 
			},
			{
				"x": 2.0623198403,
				"y": -1.4605808707,
				"z": -2.5951057723,
				"element": "H" 
			},
			{
				"x": 1.9287597659,
				"y": -0.0953959902,
				"z": -3.6982068989,
				"element": "H" 
			},
			{
				"x": 1.7654381048,
				"y": 2.2957279471,
				"z": -2.6343273438,
				"element": "H" 
			},
			{
				"x": 2.7793902509,
				"y": 3.7564382442,
				"z": -0.9190536589,
				"element": "H" 
			},
			{
				"x": 3.9185423758,
				"y": 2.7620753188,
				"z": 1.0559216359,
				"element": "H" 
			},
			{
				"x": 4.0336124904,
				"y": 0.2887499203,
				"z": 1.293673715,
				"element": "H" 
			},
			{
				"x": 3.0175089772,
				"y": -1.1722085078,
				"z": -0.429963827,
				"element": "H" 
			}
		],
		 "valence_orbital": [ 
			{
				"type": "occ",
				"energy": -0.28858,
				"method": "rhf"
			},
			{
				"type": "occ",
				"energy": -0.27986,
				"method": "rhf"
			},
			{
				"type": "occ",
				"energy": -0.27791,
				"method": "rhf"
			},
			{
				"type": "occ",
				"energy": -0.25267,
				"method": "rhf"
			},
			{
				"type": "occ",
				"energy": -0.2464,
				"method": "rhf"
			},
			{
				"type": "unocc",
				"energy": -0.10102,
				"method": "rhf"
			},
			{
				"type": "unocc",
				"energy": -0.06671,
				"method": "rhf"
			},
			{
				"type": "unocc",
				"energy": -0.01765,
				"method": "rhf"
			},
			{
				"type": "unocc",
				"energy": -0.00673,
				"method": "rhf"
			},
			{
				"type": "unocc",
				"energy": -0.00373,
				"method": "rhf"
			}
		],
		"cosmo_sigma_profile": { 
			"-0.025": 0.0,
			"-0.024": 0.0,
			"-0.023": 0.0,
			"-0.022": 0.0,
			"-0.021": 0.0,
			"-0.02": 0.271886432349,
			"-0.019": 0.848187139354,
			"-0.018": 1.25340952449,
			"-0.017": 1.21810749261,
			"-0.016": 0.819738561536,
			"-0.015": 0.755817473543,
			"-0.014": 0.902846544727,
			"-0.013": 1.64116657132,
			"-0.012": 1.27569432971,
			"-0.011": 0.86976405763,
			"-0.01": 1.43594342619,
			"-0.009": 1.45530029238,
			"-0.008": 3.51787131999,
			"-0.007": 6.8438851376,
			"-0.006": 12.1957587917,
			"-0.005": 25.7432274477,
			"-0.004": 28.1856433481,
			"-0.003": 34.88900067,
			"-0.002": 25.1121993403,
			"-0.001": 27.6515732228,
			"0.0": 21.5719172825,
			"0.001": 15.2988769612,
			"0.002": 12.4669889117,
			"0.003": 12.5371398987,
			"0.004": 13.1757992165,
			"0.005": 13.7196523139,
			"0.006": 13.1092595461,
			"0.007": 5.88984242082,
			"0.008": 5.84030644909,
			"0.009": 8.130081226,
			"0.01": 10.9985131796,
			"0.011": 13.4851886411,
			"0.012": 3.75788070014,
			"0.013": 0.40834786149,
			"0.014": 0.0,
			"0.015": 0.0,
			"0.016": 0.0,
			"0.017": 0.0,
			"0.018": 0.0,
			"0.019": 0.0,
			"0.02": 0.0,
			"0.021": 0.0,
			"0.022": 0.0,
			"0.023": 0.0,
			"0.024": 0.0,
			"0.0": 0.0
		}
	}
}
