{
	 "smiles": "O=C(NCNN(CNC(=O)C1=CC=CC=C1)CNC(=O)C1=CC=CC=C1)C1=CC=CC=C1", 
	 "Tm": 397.15, 
	 "num_atms": 57, 
	 "gaussian": { 
		 "optdone": 1, 
		 "sigma_profile": "yes", 
		 "theory": "DFT", 
		 "functional": "B3LYP", 
		 "basiset": "6-31G**", 
		 "properties": { 
			 "R2extent": 17169.0351, 
			 "electric_dipole_moment_norm": 3.86784703679, 
			 "electric_quadrupole_moment_norm": 41.3015783434, 
			 "total_energy": -1429.03874825, 
			 "HOMO_LUMO_gap": 0.19767, 
			 "cosmo_polarized_energy": -32.89, 
			 "cosmo_cavitation_energy": 62.34, 
			 "cosmo_dispersion_energy": -39.48, 
			 "cosmo_repulsion_energy": 3.05, 
			 "cosmo_total_nonelectrostatic_energy": 25.91, 
			 "SMD_solvation_energy": 9.72 
		},
		"coords": [
			{
				"x": 4.4175011739,
				"y": -2.8004838543,
				"z": -2.0052304686,
				"element": "O" 
			},
			{
				"x": 3.2746301598,
				"y": -2.5659954245,
				"z": -2.3760454679,
				"element": "C" 
			},
			{
				"x": 2.1852062962,
				"y": -3.0822443963,
				"z": -1.6830242609,
				"element": "N" 
			},
			{
				"x": 0.9285321542,
				"y": -2.3799293251,
				"z": -1.4984502793,
				"element": "C" 
			},
			{
				"x": 1.1440059036,
				"y": -1.0881789051,
				"z": -0.8267053348,
				"element": "N" 
			},
			{
				"x": 0.0115906038,
				"y": -0.2327649202,
				"z": -0.8723409094,
				"element": "N" 
			},
			{
				"x": -0.8601238263,
				"y": -0.3018912539,
				"z": 0.2973321066,
				"element": "C" 
			},
			{
				"x": -1.6252752333,
				"y": -1.542569895,
				"z": 0.2997856585,
				"element": "N" 
			},
			{
				"x": -2.1619327921,
				"y": -2.1831421411,
				"z": 1.4072292101,
				"element": "C" 
			},
			{
				"x": -3.2225563512,
				"y": -2.7893452775,
				"z": 1.3169574655,
				"element": "O" 
			},
			{
				"x": -1.3930814918,
				"y": -2.1719695645,
				"z": 2.6979868145,
				"element": "C" 
			},
			{
				"x": -2.1290772241,
				"y": -2.1213484634,
				"z": 3.8897008189,
				"element": "C" 
			},
			{
				"x": -1.4789034651,
				"y": -2.1680880256,
				"z": 5.1210265548,
				"element": "C" 
			},
			{
				"x": -0.0885200104,
				"y": -2.2967312459,
				"z": 5.1753431358,
				"element": "C" 
			},
			{
				"x": 0.6494054721,
				"y": -2.3807350476,
				"z": 3.9931270644,
				"element": "C" 
			},
			{
				"x": 0.0001485419,
				"y": -2.313537656,
				"z": 2.7600858522,
				"element": "C" 
			},
			{
				"x": 0.4365323644,
				"y": 1.142412967,
				"z": -1.1997038938,
				"element": "C" 
			},
			{
				"x": -0.6327248945,
				"y": 1.8764131378,
				"z": -1.8490476881,
				"element": "N" 
			},
			{
				"x": -1.456484992,
				"y": 2.8568922015,
				"z": -1.3271886763,
				"element": "C" 
			},
			{
				"x": -2.5879257824,
				"y": 3.0203228348,
				"z": -1.770927142,
				"element": "O" 
			},
			{
				"x": -0.9166616719,
				"y": 3.7464033293,
				"z": -0.2434006834,
				"element": "C" 
			},
			{
				"x": 0.4021079624,
				"y": 4.2235012944,
				"z": -0.232430695,
				"element": "C" 
			},
			{
				"x": 0.8206817954,
				"y": 5.110000381,
				"z": 0.7610929044,
				"element": "C" 
			},
			{
				"x": -0.0706617558,
				"y": 5.519181953,
				"z": 1.7544125793,
				"element": "C" 
			},
			{
				"x": -1.3900944606,
				"y": 5.0581782462,
				"z": 1.7403244512,
				"element": "C" 
			},
			{
				"x": -1.8147174368,
				"y": 4.1887008652,
				"z": 0.7383689417,
				"element": "C" 
			},
			{
				"x": 3.0047710673,
				"y": -1.77739847,
				"z": -3.6233140124,
				"element": "C" 
			},
			{
				"x": 3.8432953194,
				"y": -0.6915759366,
				"z": -3.9090585623,
				"element": "C" 
			},
			{
				"x": 3.6685417203,
				"y": 0.041778912,
				"z": -5.0808318518,
				"element": "C" 
			},
			{
				"x": 2.672853276,
				"y": -0.3211088013,
				"z": -5.9922578736,
				"element": "C" 
			},
			{
				"x": 1.8551474265,
				"y": -1.4215922563,
				"z": -5.7288084019,
				"element": "C" 
			},
			{
				"x": 2.016212214,
				"y": -2.1453848128,
				"z": -4.5464563509,
				"element": "C" 
			},
			{
				"x": 2.5075254129,
				"y": -3.6127229238,
				"z": -0.8808557138,
				"element": "H" 
			},
			{
				"x": 0.2547472375,
				"y": -3.0541543386,
				"z": -0.9557565356,
				"element": "H" 
			},
			{
				"x": 0.4653271092,
				"y": -2.1461599404,
				"z": -2.4565971406,
				"element": "H" 
			},
			{
				"x": 1.4811280497,
				"y": -1.2165088035,
				"z": 0.1293439883,
				"element": "H" 
			},
			{
				"x": -0.3028953123,
				"y": -0.231267221,
				"z": 1.2420957918,
				"element": "H" 
			},
			{
				"x": -1.5306920865,
				"y": 0.565061382,
				"z": 0.246847694,
				"element": "H" 
			},
			{
				"x": -2.254002158,
				"y": -1.6308130697,
				"z": -0.4925222425,
				"element": "H" 
			},
			{
				"x": -3.2102234734,
				"y": -2.0525806092,
				"z": 3.8308907773,
				"element": "H" 
			},
			{
				"x": -2.0564591889,
				"y": -2.1147111653,
				"z": 6.039175511,
				"element": "H" 
			},
			{
				"x": 0.4171368336,
				"y": -2.3418497754,
				"z": 6.1355117593,
				"element": "H" 
			},
			{
				"x": 1.7277380003,
				"y": -2.5048651401,
				"z": 4.0309246632,
				"element": "H" 
			},
			{
				"x": 0.5721124583,
				"y": -2.403824093,
				"z": 1.8418584517,
				"element": "H" 
			},
			{
				"x": 0.7658359636,
				"y": 1.7070931023,
				"z": -0.318828312,
				"element": "H" 
			},
			{
				"x": 1.2903928607,
				"y": 1.0251690484,
				"z": -1.8700672505,
				"element": "H" 
			},
			{
				"x": -1.0922406732,
				"y": 1.3665672323,
				"z": -2.5960429493,
				"element": "H" 
			},
			{
				"x": 1.0910889015,
				"y": 3.9291671507,
				"z": -1.0182216436,
				"element": "H" 
			},
			{
				"x": 1.8398137371,
				"y": 5.4854248103,
				"z": 0.7546733862,
				"element": "H" 
			},
			{
				"x": 0.2581236837,
				"y": 6.204021528,
				"z": 2.5308080226,
				"element": "H" 
			},
			{
				"x": -2.0890413201,
				"y": 5.3853482525,
				"z": 2.5045236515,
				"element": "H" 
			},
			{
				"x": -2.8436589377,
				"y": 3.8470660087,
				"z": 0.6935738785,
				"element": "H" 
			},
			{
				"x": 4.62989391,
				"y": -0.4412011205,
				"z": -3.2048071829,
				"element": "H" 
			},
			{
				"x": 4.3145285325,
				"y": 0.8895583251,
				"z": -5.2900303985,
				"element": "H" 
			},
			{
				"x": 2.5422737146,
				"y": 0.2457096573,
				"z": -6.9096450019,
				"element": "H" 
			},
			{
				"x": 1.0965237398,
				"y": -1.7210363497,
				"z": -6.4461411787,
				"element": "H" 
			},
			{
				"x": 1.3978009421,
				"y": -3.0171623965,
				"z": -4.3551630313,
				"element": "H" 
			}
		],
		 "valence_orbital": [ 
			{
				"type": "occ",
				"energy": -0.25675,
				"method": "rhf"
			},
			{
				"type": "occ",
				"energy": -0.25276,
				"method": "rhf"
			},
			{
				"type": "occ",
				"energy": -0.24697,
				"method": "rhf"
			},
			{
				"type": "occ",
				"energy": -0.24617,
				"method": "rhf"
			},
			{
				"type": "occ",
				"energy": -0.24054,
				"method": "rhf"
			},
			{
				"type": "unocc",
				"energy": -0.04287,
				"method": "rhf"
			},
			{
				"type": "unocc",
				"energy": -0.03913,
				"method": "rhf"
			},
			{
				"type": "unocc",
				"energy": -0.03582,
				"method": "rhf"
			},
			{
				"type": "unocc",
				"energy": -0.0184,
				"method": "rhf"
			},
			{
				"type": "unocc",
				"energy": -0.015,
				"method": "rhf"
			}
		],
		"cosmo_sigma_profile": { 
			"-0.025": 0.0,
			"-0.024": 0.0,
			"-0.023": 0.0,
			"-0.022": 0.0,
			"-0.021": 0.0,
			"-0.02": 0.0,
			"-0.019": 0.0,
			"-0.018": 0.0,
			"-0.017": 0.0,
			"-0.016": 0.0,
			"-0.015": 0.0,
			"-0.014": 0.0737622244994,
			"-0.013": 1.55881643013,
			"-0.012": 3.39198897569,
			"-0.011": 5.68584342096,
			"-0.01": 5.87106788612,
			"-0.009": 4.50788214653,
			"-0.008": 4.81276129026,
			"-0.007": 7.31275016187,
			"-0.006": 33.327752254,
			"-0.005": 44.0477581305,
			"-0.004": 46.9778303962,
			"-0.003": 34.3942195948,
			"-0.002": 34.7442814002,
			"-0.001": 27.0327231655,
			"0.0": 28.975496743,
			"0.001": 27.3901703991,
			"0.002": 29.9250434199,
			"0.003": 32.276010172,
			"0.004": 39.2538406449,
			"0.005": 21.0576982297,
			"0.006": 6.37206247192,
			"0.007": 6.22835389912,
			"0.008": 4.52404186781,
			"0.009": 6.07609113112,
			"0.01": 3.97310334029,
			"0.011": 4.57794995259,
			"0.012": 7.43222956613,
			"0.013": 15.5668758251,
			"0.014": 8.37112255803,
			"0.015": 0.297259260842,
			"0.016": 0.0,
			"0.017": 0.0,
			"0.018": 0.0,
			"0.019": 0.0,
			"0.02": 0.0,
			"0.021": 0.0,
			"0.022": 0.0,
			"0.023": 0.0,
			"0.024": 0.0,
			"0.025": 0.0
		}
	}
}
