{
	 "smiles": "[O-][N+](=O)C1=CC=C(C=C1)N1C=CNC1=S", 
	 "Tm": 505.15, 
	 "num_atms": 22, 
	 "gaussian": { 
		 "optdone": 1, 
		 "sigma_profile": "yes", 
		 "theory": "DFT", 
		 "functional": "B3LYP", 
		 "basiset": "6-31G**", 
		 "properties": { 
			 "R2extent": 4837.7268, 
			 "electric_dipole_moment_norm": 7.82377702839, 
			 "electric_quadrupole_moment_norm": 26.62652537, 
			 "total_energy": -1059.96541664, 
			 "HOMO_LUMO_gap": 0.11196, 
			 "cosmo_polarized_energy": -21.45, 
			 "cosmo_cavitation_energy": 29.13, 
			 "cosmo_dispersion_energy": -21.76, 
			 "cosmo_repulsion_energy": 1.64, 
			 "cosmo_total_nonelectrostatic_energy": 9.01, 
			 "SMD_solvation_energy": 6.98 
		},
		"coords": [
			{
				"x": 0.4853192364,
				"y": 3.4359533682,
				"z": -2.2450156094,
				"element": "O" 
			},
			{
				"x": 0.4863941414,
				"y": 2.2047540973,
				"z": -2.2590396026,
				"element": "N" 
			},
			{
				"x": 0.8240867244,
				"y": 1.5137719087,
				"z": -3.2194069751,
				"element": "O" 
			},
			{
				"x": 0.055548435,
				"y": 1.5102976364,
				"z": -1.0377635244,
				"element": "C" 
			},
			{
				"x": 0.0581534597,
				"y": 0.1167143461,
				"z": -1.0111100769,
				"element": "C" 
			},
			{
				"x": -0.341435436,
				"y": -0.5418260931,
				"z": 0.1464002037,
				"element": "C" 
			},
			{
				"x": -0.7460436011,
				"y": 0.2029432309,
				"z": 1.2626909786,
				"element": "C" 
			},
			{
				"x": -0.7515190084,
				"y": 1.6049839875,
				"z": 1.2150257491,
				"element": "C" 
			},
			{
				"x": -0.3440033809,
				"y": 2.2658650579,
				"z": 0.0622238678,
				"element": "C" 
			},
			{
				"x": -1.1244257919,
				"y": -0.4411457601,
				"z": 2.4703350944,
				"element": "N" 
			},
			{
				"x": -0.7785520166,
				"y": 0.0434478644,
				"z": 3.7411112257,
				"element": "C" 
			},
			{
				"x": -1.3396074676,
				"y": -0.7737731832,
				"z": 4.6584838179,
				"element": "C" 
			},
			{
				"x": -2.0296164939,
				"y": -1.7469586411,
				"z": 3.9550512522,
				"element": "N" 
			},
			{
				"x": -1.9282910584,
				"y": -1.5749406104,
				"z": 2.597765511,
				"element": "C" 
			},
			{
				"x": -2.6652149666,
				"y": -2.52734044,
				"z": 1.4362252019,
				"element": "S" 
			},
			{
				"x": 0.3803646317,
				"y": -0.4319971939,
				"z": -1.8869268737,
				"element": "H" 
			},
			{
				"x": -0.3481421512,
				"y": -1.6225135071,
				"z": 0.189474357,
				"element": "H" 
			},
			{
				"x": -1.0977389682,
				"y": 2.1754860795,
				"z": 2.0699261525,
				"element": "H" 
			},
			{
				"x": -0.3434271454,
				"y": 3.3463926931,
				"z": -0.0028874573,
				"element": "H" 
			},
			{
				"x": -0.1263297208,
				"y": 0.8918098406,
				"z": 3.862562419,
				"element": "H" 
			},
			{
				"x": -1.2916133859,
				"y": -0.757378674,
				"z": 5.7351352623,
				"element": "H" 
			},
			{
				"x": -2.5759060358,
				"y": -2.5033460077,
				"z": 4.3371390261,
				"element": "H" 
			}
		],
		 "valence_orbital": [ 
			{
				"type": "occ",
				"energy": -0.29201,
				"method": "rhf"
			},
			{
				"type": "occ",
				"energy": -0.28613,
				"method": "rhf"
			},
			{
				"type": "occ",
				"energy": -0.27868,
				"method": "rhf"
			},
			{
				"type": "occ",
				"energy": -0.21685,
				"method": "rhf"
			},
			{
				"type": "occ",
				"energy": -0.2052,
				"method": "rhf"
			},
			{
				"type": "unocc",
				"energy": -0.09324,
				"method": "rhf"
			},
			{
				"type": "unocc",
				"energy": -0.03473,
				"method": "rhf"
			},
			{
				"type": "unocc",
				"energy": -0.02355,
				"method": "rhf"
			},
			{
				"type": "unocc",
				"energy": 0.00281,
				"method": "rhf"
			},
			{
				"type": "unocc",
				"energy": 0.01671,
				"method": "rhf"
			}
		],
		"cosmo_sigma_profile": { 
			"-0.025": 0.0,
			"-0.024": 0.0,
			"-0.023": 0.0,
			"-0.022": 0.0,
			"-0.021": 0.0,
			"-0.02": 0.0,
			"-0.019": 0.0,
			"-0.018": 0.00920639431869,
			"-0.017": 1.07696792059,
			"-0.016": 1.35520787343,
			"-0.015": 1.28900088076,
			"-0.014": 0.881610659607,
			"-0.013": 0.636664446919,
			"-0.012": 1.42756629204,
			"-0.011": 2.17754411013,
			"-0.01": 5.29743910128,
			"-0.009": 5.31843032521,
			"-0.008": 8.83328978401,
			"-0.007": 10.0158447354,
			"-0.006": 11.0745821451,
			"-0.005": 10.3879209564,
			"-0.004": 10.4815461364,
			"-0.003": 11.9720948082,
			"-0.002": 15.9477927459,
			"-0.001": 17.4724539497,
			"0.0": 20.9001512171,
			"0.001": 15.8886365383,
			"0.002": 8.47118227464,
			"0.003": 6.94485840992,
			"0.004": 4.79401942651,
			"0.005": 6.40682479403,
			"0.006": 7.70365624595,
			"0.007": 11.2719037816,
			"0.008": 12.4220735683,
			"0.009": 9.13476822317,
			"0.01": 7.75274543694,
			"0.011": 6.51720090923,
			"0.012": 3.61450504423,
			"0.013": 0.14730796062,
			"0.014": 0.0,
			"0.015": 0.0,
			"0.016": 0.0,
			"0.017": 0.0,
			"0.018": 0.0,
			"0.019": 0.0,
			"0.02": 0.0,
			"0.021": 0.0,
			"0.022": 0.0,
			"0.023": 0.0,
			"0.024": 0.0,
			"0.025": 0.0
		}
	}
}
