{
	 "smiles": "FC(F)(F)C1=CC(=O)NC(=O)N1", 
	 "Tm": 484.15, 
	 "num_atms": 15, 
	 "gaussian": { 
		 "optdone": 1, 
		 "sigma_profile": "yes", 
		 "theory": "DFT", 
		 "functional": "B3LYP", 
		 "basiset": "6-31G**", 
		 "properties": { 
			 "R2extent": 2304.9592, 
			 "electric_dipole_moment_norm": 2.12932438111, 
			 "electric_quadrupole_moment_norm": 5.78839960352, 
			 "total_energy": -751.843993696, 
			 "HOMO_LUMO_gap": 0.20139, 
			 "cosmo_polarized_energy": -14.58, 
			 "cosmo_cavitation_energy": 21.96, 
			 "cosmo_dispersion_energy": -15.84, 
			 "cosmo_repulsion_energy": 1.21, 
			 "cosmo_total_nonelectrostatic_energy": 7.33, 
			 "SMD_solvation_energy": 6.82 
		},
		"coords": [
			{
				"x": -0.0961382816,
				"y": 1.4736687936,
				"z": 1.6425964138,
				"element": "F" 
			},
			{
				"x": -0.3685555413,
				"y": 0.1696831675,
				"z": 1.5229417133,
				"element": "C" 
			},
			{
				"x": -0.0913955716,
				"y": -0.4351686868,
				"z": 2.697567265,
				"element": "F" 
			},
			{
				"x": -1.6935627955,
				"y": 0.0270640888,
				"z": 1.3073603025,
				"element": "F" 
			},
			{
				"x": 0.4183730853,
				"y": -0.4702149473,
				"z": 0.4032673745,
				"element": "C" 
			},
			{
				"x": 1.2885153793,
				"y": 0.2113857824,
				"z": -0.3689342308,
				"element": "C" 
			},
			{
				"x": 2.0121631356,
				"y": -0.4857327399,
				"z": -1.4340344533,
				"element": "C" 
			},
			{
				"x": 2.8190698,
				"y": 0.0214121966,
				"z": -2.1922887782,
				"element": "O" 
			},
			{
				"x": 1.6941703951,
				"y": -1.8556333404,
				"z": -1.5271442113,
				"element": "N" 
			},
			{
				"x": 0.8069232608,
				"y": -2.5861927648,
				"z": -0.7518524233,
				"element": "C" 
			},
			{
				"x": 0.5851918311,
				"y": -3.7718275086,
				"z": -0.8942400126,
				"element": "O" 
			},
			{
				"x": 0.1795508628,
				"y": -1.81422639,
				"z": 0.2278652318,
				"element": "N" 
			},
			{
				"x": 1.4718261589,
				"y": 1.2660476673,
				"z": -0.2267258805,
				"element": "H" 
			},
			{
				"x": 2.1720220541,
				"y": -2.3783594697,
				"z": -2.2517471943,
				"element": "H" 
			},
			{
				"x": -0.4762537729,
				"y": -2.3117058488,
				"z": 0.8146688834,
				"element": "H" 
			}
		],
		 "valence_orbital": [ 
			{
				"type": "occ",
				"energy": -0.38308,
				"method": "rhf"
			},
			{
				"type": "occ",
				"energy": -0.30871,
				"method": "rhf"
			},
			{
				"type": "occ",
				"energy": -0.29932,
				"method": "rhf"
			},
			{
				"type": "occ",
				"energy": -0.27842,
				"method": "rhf"
			},
			{
				"type": "occ",
				"energy": -0.2711,
				"method": "rhf"
			},
			{
				"type": "unocc",
				"energy": -0.06971,
				"method": "rhf"
			},
			{
				"type": "unocc",
				"energy": -0.00392,
				"method": "rhf"
			},
			{
				"type": "unocc",
				"energy": 0.05618,
				"method": "rhf"
			},
			{
				"type": "unocc",
				"energy": 0.09333,
				"method": "rhf"
			},
			{
				"type": "unocc",
				"energy": 0.09417,
				"method": "rhf"
			}
		],
		"cosmo_sigma_profile": { 
			"-0.025": 0.0,
			"-0.024": 0.0,
			"-0.023": 0.0,
			"-0.022": 0.0,
			"-0.021": 0.0,
			"-0.02": 0.0,
			"-0.019": 0.0,
			"-0.018": 0.190389631851,
			"-0.017": 0.965712287591,
			"-0.016": 1.58586593704,
			"-0.015": 1.74515696263,
			"-0.014": 1.48463845956,
			"-0.013": 2.10783143182,
			"-0.012": 1.62817240391,
			"-0.011": 2.29339871671,
			"-0.01": 1.65970581137,
			"-0.009": 2.43926081556,
			"-0.008": 2.64437923397,
			"-0.007": 3.41123916152,
			"-0.006": 6.00850577385,
			"-0.005": 7.62337631117,
			"-0.004": 12.3563168219,
			"-0.003": 13.55364951,
			"-0.002": 12.8260533788,
			"-0.001": 10.0627721981,
			"0.0": 11.0466709497,
			"0.001": 21.506031029,
			"0.002": 18.9593916277,
			"0.003": 2.26510876681,
			"0.004": 1.59422633619,
			"0.005": 1.87265111725,
			"0.006": 2.71337630328,
			"0.007": 2.13523940293,
			"0.008": 2.33523163714,
			"0.009": 3.28240997885,
			"0.01": 3.30361814458,
			"0.011": 5.46667304735,
			"0.012": 12.2035088169,
			"0.013": 3.16782604438,
			"0.014": 0.0607386745887,
			"0.015": 0.0,
			"0.016": 0.0,
			"0.017": 0.0,
			"0.018": 0.0,
			"0.019": 0.0,
			"0.02": 0.0,
			"0.021": 0.0,
			"0.022": 0.0,
			"0.023": 0.0,
			"0.024": 0.0,
			"0.025": 0.0
		}
	}
}
