{
	 "smiles": "FC1=CC=CC(Cl)=C1COC1=CC=C(CC#N)C=C1", 
	 "Tm": 351.65, 
	 "num_atms": 30, 
	 "gaussian": { 
		 "optdone": 1, 
		 "sigma_profile": "yes", 
		 "theory": "DFT", 
		 "functional": "B3LYP", 
		 "basiset": "6-31G**", 
		 "properties": { 
			 "R2extent": 8737.249, 
			 "electric_dipole_moment_norm": 5.97917607284, 
			 "electric_quadrupole_moment_norm": 35.5971030347, 
			 "total_energy": -1268.20060047, 
			 "HOMO_LUMO_gap": 0.18991, 
			 "cosmo_polarized_energy": -14.7, 
			 "cosmo_cavitation_energy": 38.29, 
			 "cosmo_dispersion_energy": -26.45, 
			 "cosmo_repulsion_energy": 2.02, 
			 "cosmo_total_nonelectrostatic_energy": 13.85, 
			 "SMD_solvation_energy": 8.01 
		},
		"coords": [
			{
				"x": -2.5241075555,
				"y": -0.4359807261,
				"z": -2.5630309597,
				"element": "F" 
			},
			{
				"x": -1.7453695921,
				"y": 0.4825079457,
				"z": -3.1730677047,
				"element": "C" 
			},
			{
				"x": -2.0481275478,
				"y": 0.836760494,
				"z": -4.4810581304,
				"element": "C" 
			},
			{
				"x": -1.2461068317,
				"y": 1.7867334382,
				"z": -5.1107181836,
				"element": "C" 
			},
			{
				"x": -0.1697776559,
				"y": 2.3656337367,
				"z": -4.4382642792,
				"element": "C" 
			},
			{
				"x": 0.0991137197,
				"y": 1.9824405329,
				"z": -3.1244868648,
				"element": "C" 
			},
			{
				"x": 1.4628837309,
				"y": 2.7282595513,
				"z": -2.3071880793,
				"element": "Cl" 
			},
			{
				"x": -0.6839847293,
				"y": 1.034167152,
				"z": -2.4484572057,
				"element": "C" 
			},
			{
				"x": -0.4158311788,
				"y": 0.5867220169,
				"z": -1.0375025498,
				"element": "C" 
			},
			{
				"x": 0.6169436555,
				"y": -0.402375972,
				"z": -1.0767151897,
				"element": "O" 
			},
			{
				"x": 1.0397681351,
				"y": -0.9370324096,
				"z": 0.1052345338,
				"element": "C" 
			},
			{
				"x": 2.0759051043,
				"y": -1.8799572232,
				"z": 0.0067053631,
				"element": "C" 
			},
			{
				"x": 2.5768359566,
				"y": -2.4881727627,
				"z": 1.1480973059,
				"element": "C" 
			},
			{
				"x": 2.0627601022,
				"y": -2.1746552937,
				"z": 2.4162035556,
				"element": "C" 
			},
			{
				"x": 2.5849286173,
				"y": -2.8668396799,
				"z": 3.6675249697,
				"element": "C" 
			},
			{
				"x": 4.0427634916,
				"y": -2.7794607422,
				"z": 3.8229691122,
				"element": "C" 
			},
			{
				"x": 5.1965283345,
				"y": -2.7196493016,
				"z": 3.9343810869,
				"element": "N" 
			},
			{
				"x": 1.0385579927,
				"y": -1.2335425657,
				"z": 2.5032364862,
				"element": "C" 
			},
			{
				"x": 0.519305518,
				"y": -0.6130204534,
				"z": 1.362179713,
				"element": "C" 
			},
			{
				"x": -2.8901665604,
				"y": 0.3696268763,
				"z": -4.9786942383,
				"element": "H" 
			},
			{
				"x": -1.4597844351,
				"y": 2.0804754012,
				"z": -6.1335592559,
				"element": "H" 
			},
			{
				"x": 0.4588198226,
				"y": 3.1037294368,
				"z": -4.9222236328,
				"element": "H" 
			},
			{
				"x": -0.0966263724,
				"y": 1.4368611208,
				"z": -0.4239017731,
				"element": "H" 
			},
			{
				"x": -1.3275334132,
				"y": 0.1614291783,
				"z": -0.6053746743,
				"element": "H" 
			},
			{
				"x": 2.4708384229,
				"y": -2.1139292201,
				"z": -0.9762260125,
				"element": "H" 
			},
			{
				"x": 3.3851499157,
				"y": -3.2087645492,
				"z": 1.0560572292,
				"element": "H" 
			},
			{
				"x": 2.1204700822,
				"y": -2.4338753033,
				"z": 4.5601201672,
				"element": "H" 
			},
			{
				"x": 2.3163333444,
				"y": -3.9319536921,
				"z": 3.6646990239,
				"element": "H" 
			},
			{
				"x": 0.6279810104,
				"y": -0.9706698967,
				"z": 3.4749576946,
				"element": "H" 
			},
			{
				"x": -0.2772710843,
				"y": 0.1129329105,
				"z": 1.4712024925,
				"element": "H" 
			}
		],
		 "valence_orbital": [ 
			{
				"type": "occ",
				"energy": -0.31655,
				"method": "rhf"
			},
			{
				"type": "occ",
				"energy": -0.27136,
				"method": "rhf"
			},
			{
				"type": "occ",
				"energy": -0.26026,
				"method": "rhf"
			},
			{
				"type": "occ",
				"energy": -0.25848,
				"method": "rhf"
			},
			{
				"type": "occ",
				"energy": -0.22677,
				"method": "rhf"
			},
			{
				"type": "unocc",
				"energy": -0.03686,
				"method": "rhf"
			},
			{
				"type": "unocc",
				"energy": -0.02027,
				"method": "rhf"
			},
			{
				"type": "unocc",
				"energy": -0.01221,
				"method": "rhf"
			},
			{
				"type": "unocc",
				"energy": -0.00172,
				"method": "rhf"
			},
			{
				"type": "unocc",
				"energy": 0.01704,
				"method": "rhf"
			}
		],
		"cosmo_sigma_profile": { 
			"-0.025": 0.0,
			"-0.024": 0.0,
			"-0.023": 0.0,
			"-0.022": 0.0,
			"-0.021": 0.0,
			"-0.02": 0.0,
			"-0.019": 0.0,
			"-0.018": 0.0,
			"-0.017": 0.0,
			"-0.016": 0.0,
			"-0.015": 0.0,
			"-0.014": 0.0,
			"-0.013": 0.0,
			"-0.012": 0.0,
			"-0.011": 0.0,
			"-0.01": 0.0,
			"-0.009": 2.1271785274,
			"-0.008": 8.77662182457,
			"-0.007": 17.1247301225,
			"-0.006": 22.7996761613,
			"-0.005": 21.8426295152,
			"-0.004": 17.2431139764,
			"-0.003": 14.7293390547,
			"-0.002": 15.0624811526,
			"-0.001": 17.1198440905,
			"0.0": 19.9007342678,
			"0.001": 25.8705383712,
			"0.002": 28.2879458905,
			"0.003": 29.6041476232,
			"0.004": 26.2725067701,
			"0.005": 12.8622447905,
			"0.006": 5.93831317231,
			"0.007": 4.29285924236,
			"0.008": 4.78691111484,
			"0.009": 4.27789363152,
			"0.01": 3.62938482946,
			"0.011": 2.75427964992,
			"0.012": 2.62672480963,
			"0.013": 2.10788651937,
			"0.014": 0.285597065068,
			"0.015": 0.0,
			"0.016": 0.0,
			"0.017": 0.0,
			"0.018": 0.0,
			"0.019": 0.0,
			"0.02": 0.0,
			"0.021": 0.0,
			"0.022": 0.0,
			"0.023": 0.0,
			"0.024": 0.0,
			"0.025": 0.0
		}
	}
}
