{
	 "smiles": "CCCCCCCCCCCCCCCCCCCCCCCCCCO", 
	 "Tm": 353.15, 
	 "num_atms": 81, 
	 "gaussian": { 
		 "optdone": 1, 
		 "sigma_profile": "yes", 
		 "theory": "DFT", 
		 "functional": "B3LYP", 
		 "basiset": "6-31G**", 
		 "properties": { 
			 "R2extent": 15700.2424, 
			 "electric_dipole_moment_norm": 2.17198635585, 
			 "electric_quadrupole_moment_norm": 10.3710117178, 
			 "total_energy": -1098.59508355, 
			 "HOMO_LUMO_gap": 0.31819, 
			 "cosmo_polarized_energy": -6.43, 
			 "cosmo_cavitation_energy": 74.69, 
			 "cosmo_dispersion_energy": -42.55, 
			 "cosmo_repulsion_energy": 3.32, 
			 "cosmo_total_nonelectrostatic_energy": 35.46, 
			 "SMD_solvation_energy": 9.03 
		},
		"coords": [
			{
				"x": -3.1175682453,
				"y": 3.5134509379,
				"z": 0.1758393092,
				"element": "C" 
			},
			{
				"x": -3.9983070532,
				"y": 2.7517940005,
				"z": 1.1747159136,
				"element": "C" 
			},
			{
				"x": -3.714318387,
				"y": 1.2411601927,
				"z": 1.2442412552,
				"element": "C" 
			},
			{
				"x": -4.1830315984,
				"y": 0.4566892047,
				"z": 0.008280411,
				"element": "C" 
			},
			{
				"x": -3.9488394416,
				"y": -1.0615001198,
				"z": 0.092909375,
				"element": "C" 
			},
			{
				"x": -2.4782199748,
				"y": -1.4907532311,
				"z": -0.0186519471,
				"element": "C" 
			},
			{
				"x": -2.295527457,
				"y": -3.0144732432,
				"z": 0.0298260619,
				"element": "C" 
			},
			{
				"x": -0.8597122352,
				"y": -3.5017950283,
				"z": -0.2341750009,
				"element": "C" 
			},
			{
				"x": 0.2060787648,
				"y": -3.0503991861,
				"z": 0.7810101253,
				"element": "C" 
			},
			{
				"x": -0.0304651023,
				"y": -3.5696338956,
				"z": 2.2084593278,
				"element": "C" 
			},
			{
				"x": 1.1461061449,
				"y": -3.4282157272,
				"z": 3.1940765605,
				"element": "C" 
			},
			{
				"x": 1.4754755258,
				"y": -2.0116620082,
				"z": 3.7080339219,
				"element": "C" 
			},
			{
				"x": 2.2881121766,
				"y": -1.1189230636,
				"z": 2.7554585042,
				"element": "C" 
			},
			{
				"x": 2.8188200895,
				"y": 0.1725864253,
				"z": 3.4031551542,
				"element": "C" 
			},
			{
				"x": 1.7529483839,
				"y": 1.1427893181,
				"z": 3.9455480328,
				"element": "C" 
			},
			{
				"x": 0.712309191,
				"y": 1.6934507627,
				"z": 2.9508136214,
				"element": "C" 
			},
			{
				"x": 1.2396055656,
				"y": 2.6328747657,
				"z": 1.8447750384,
				"element": "C" 
			},
			{
				"x": 1.7268420327,
				"y": 1.9505450414,
				"z": 0.5569822675,
				"element": "C" 
			},
			{
				"x": 2.1185565647,
				"y": 2.9487752067,
				"z": -0.5407955282,
				"element": "C" 
			},
			{
				"x": 2.5956352495,
				"y": 2.2752863872,
				"z": -1.8353930678,
				"element": "C" 
			},
			{
				"x": 2.9588401272,
				"y": 3.2607053832,
				"z": -2.9623279287,
				"element": "C" 
			},
			{
				"x": 1.7706777501,
				"y": 4.0051207302,
				"z": -3.6225989911,
				"element": "C" 
			},
			{
				"x": 1.3203731858,
				"y": 3.4372263824,
				"z": -4.9841850437,
				"element": "C" 
			},
			{
				"x": 0.7175348282,
				"y": 2.016479943,
				"z": -5.0207155083,
				"element": "C" 
			},
			{
				"x": -0.7865468627,
				"y": 1.8935286421,
				"z": -4.7073084182,
				"element": "C" 
			},
			{
				"x": -1.2088295895,
				"y": 2.1363519405,
				"z": -3.2567172793,
				"element": "C" 
			},
			{
				"x": -2.5771929209,
				"y": 1.7933386642,
				"z": -3.0357602188,
				"element": "O" 
			},
			{
				"x": -2.0603670985,
				"y": 3.4427426094,
				"z": 0.4603634659,
				"element": "H" 
			},
			{
				"x": -3.2074119799,
				"y": 3.1149952598,
				"z": -0.8394806522,
				"element": "H" 
			},
			{
				"x": -3.3803803086,
				"y": 4.5768952054,
				"z": 0.1489479397,
				"element": "H" 
			},
			{
				"x": -3.8596186083,
				"y": 3.1872019576,
				"z": 2.1729762567,
				"element": "H" 
			},
			{
				"x": -5.0571554444,
				"y": 2.9054767227,
				"z": 0.9230366883,
				"element": "H" 
			},
			{
				"x": -4.2133037861,
				"y": 0.8256379694,
				"z": 2.1311597411,
				"element": "H" 
			},
			{
				"x": -2.6377662938,
				"y": 1.0903320493,
				"z": 1.4044762713,
				"element": "H" 
			},
			{
				"x": -5.2596179236,
				"y": 0.6380719079,
				"z": -0.1212417217,
				"element": "H" 
			},
			{
				"x": -3.6964541003,
				"y": 0.8416876334,
				"z": -0.8963441339,
				"element": "H" 
			},
			{
				"x": -4.5129835477,
				"y": -1.550647668,
				"z": -0.7130124286,
				"element": "H" 
			},
			{
				"x": -4.3710479855,
				"y": -1.4466737701,
				"z": 1.0330523752,
				"element": "H" 
			},
			{
				"x": -1.8938740999,
				"y": -1.0224681708,
				"z": 0.7834675699,
				"element": "H" 
			},
			{
				"x": -2.0668122235,
				"y": -1.1043043527,
				"z": -0.9625191538,
				"element": "H" 
			},
			{
				"x": -2.9548446032,
				"y": -3.4711248699,
				"z": -0.721224262,
				"element": "H" 
			},
			{
				"x": -2.6463592419,
				"y": -3.3915451108,
				"z": 1.000084508,
				"element": "H" 
			},
			{
				"x": -0.8633118487,
				"y": -4.6001579134,
				"z": -0.2721604009,
				"element": "H" 
			},
			{
				"x": -0.5548051092,
				"y": -3.1655840806,
				"z": -1.2348825119,
				"element": "H" 
			},
			{
				"x": 1.1851829586,
				"y": -3.4071060791,
				"z": 0.4326914782,
				"element": "H" 
			},
			{
				"x": 0.2687209842,
				"y": -1.9565380692,
				"z": 0.7804296817,
				"element": "H" 
			},
			{
				"x": -0.2809822088,
				"y": -4.6381649397,
				"z": 2.1417710721,
				"element": "H" 
			},
			{
				"x": -0.9152333467,
				"y": -3.0837842226,
				"z": 2.642016636,
				"element": "H" 
			},
			{
				"x": 2.0487433152,
				"y": -3.8709965326,
				"z": 2.7479792204,
				"element": "H" 
			},
			{
				"x": 0.9117326873,
				"y": -4.0498571908,
				"z": 4.0680480709,
				"element": "H" 
			},
			{
				"x": 2.0501407931,
				"y": -2.1161748247,
				"z": 4.639450875,
				"element": "H" 
			},
			{
				"x": 0.5401117804,
				"y": -1.5100876662,
				"z": 3.9913567,
				"element": "H" 
			},
			{
				"x": 3.147583827,
				"y": -1.6943528238,
				"z": 2.3845811748,
				"element": "H" 
			},
			{
				"x": 1.6947149331,
				"y": -0.8677853781,
				"z": 1.8703482197,
				"element": "H" 
			},
			{
				"x": 3.4803858365,
				"y": -0.1009541587,
				"z": 4.2373080657,
				"element": "H" 
			},
			{
				"x": 3.4574239105,
				"y": 0.6954253126,
				"z": 2.6803410289,
				"element": "H" 
			},
			{
				"x": 2.2700300647,
				"y": 1.9948876396,
				"z": 4.4083145943,
				"element": "H" 
			},
			{
				"x": 1.210796787,
				"y": 0.6498124679,
				"z": 4.7628348943,
				"element": "H" 
			},
			{
				"x": 0.1544222561,
				"y": 0.8669850605,
				"z": 2.4892857101,
				"element": "H" 
			},
			{
				"x": -0.0269734654,
				"y": 2.247589612,
				"z": 3.54290849,
				"element": "H" 
			},
			{
				"x": 2.0423321171,
				"y": 3.2636872726,
				"z": 2.2536036588,
				"element": "H" 
			},
			{
				"x": 0.4325774393,
				"y": 3.32493396,
				"z": 1.5673204345,
				"element": "H" 
			},
			{
				"x": 2.5804664169,
				"y": 1.2949554745,
				"z": 0.7677523848,
				"element": "H" 
			},
			{
				"x": 0.9282803383,
				"y": 1.2963182821,
				"z": 0.1781880037,
				"element": "H" 
			},
			{
				"x": 2.9138078969,
				"y": 3.6102683294,
				"z": -0.1675326098,
				"element": "H" 
			},
			{
				"x": 1.2594749434,
				"y": 3.6006567446,
				"z": -0.7509928659,
				"element": "H" 
			},
			{
				"x": 1.8251382537,
				"y": 1.5741599936,
				"z": -2.182624943,
				"element": "H" 
			},
			{
				"x": 3.4770343126,
				"y": 1.660890863,
				"z": -1.6064226268,
				"element": "H" 
			},
			{
				"x": 3.5196731138,
				"y": 2.7254675129,
				"z": -3.7401028295,
				"element": "H" 
			},
			{
				"x": 3.6606056604,
				"y": 3.9973100672,
				"z": -2.5496216246,
				"element": "H" 
			},
			{
				"x": 0.9250100299,
				"y": 4.0498793375,
				"z": -2.9267882008,
				"element": "H" 
			},
			{
				"x": 2.0582564869,
				"y": 5.0498252099,
				"z": -3.7935999434,
				"element": "H" 
			},
			{
				"x": 0.5998072721,
				"y": 4.1326291043,
				"z": -5.437673317,
				"element": "H" 
			},
			{
				"x": 2.1970323766,
				"y": 3.4502528646,
				"z": -5.6458217727,
				"element": "H" 
			},
			{
				"x": 1.2867952206,
				"y": 1.3448151774,
				"z": -4.3656176561,
				"element": "H" 
			},
			{
				"x": 0.8596809685,
				"y": 1.6217893993,
				"z": -6.034346985,
				"element": "H" 
			},
			{
				"x": -1.3442694477,
				"y": 2.5816550844,
				"z": -5.3610967676,
				"element": "H" 
			},
			{
				"x": -1.1214262049,
				"y": 0.8822492319,
				"z": -4.9694417282,
				"element": "H" 
			},
			{
				"x": -0.6354937135,
				"y": 1.4913285509,
				"z": -2.5826960398,
				"element": "H" 
			},
			{
				"x": -1.0185241383,
				"y": 3.175124432,
				"z": -2.9525977715,
				"element": "H" 
			},
			{
				"x": -3.121902965,
				"y": 2.3812710966,
				"z": -3.5750482108,
				"element": "H" 
			}
		],
		 "valence_orbital": [ 
			{
				"type": "occ",
				"energy": -0.29426,
				"method": "rhf"
			},
			{
				"type": "occ",
				"energy": -0.29018,
				"method": "rhf"
			},
			{
				"type": "occ",
				"energy": -0.28952,
				"method": "rhf"
			},
			{
				"type": "occ",
				"energy": -0.28758,
				"method": "rhf"
			},
			{
				"type": "occ",
				"energy": -0.2673,
				"method": "rhf"
			},
			{
				"type": "unocc",
				"energy": 0.05089,
				"method": "rhf"
			},
			{
				"type": "unocc",
				"energy": 0.06631,
				"method": "rhf"
			},
			{
				"type": "unocc",
				"energy": 0.0731,
				"method": "rhf"
			},
			{
				"type": "unocc",
				"energy": 0.08133,
				"method": "rhf"
			},
			{
				"type": "unocc",
				"energy": 0.08944,
				"method": "rhf"
			}
		],
		"cosmo_sigma_profile": { 
			"-0.025": 0.0,
			"-0.024": 0.0,
			"-0.023": 0.0,
			"-0.022": 0.0,
			"-0.021": 0.0,
			"-0.02": 0.0,
			"-0.019": 0.0,
			"-0.018": 0.0,
			"-0.017": 0.0,
			"-0.016": 0.0200736048843,
			"-0.015": 0.688722761064,
			"-0.014": 0.946007349417,
			"-0.013": 1.05013665099,
			"-0.012": 0.718851775223,
			"-0.011": 1.17913542102,
			"-0.01": 0.602761321007,
			"-0.009": 0.569711337461,
			"-0.008": 0.691279167192,
			"-0.007": 1.24778874099,
			"-0.006": 1.52386173064,
			"-0.005": 1.42517499525,
			"-0.004": 2.22824279404,
			"-0.003": 11.2730697262,
			"-0.002": 57.0638275515,
			"-0.001": 137.568056379,
			"0.0": 143.505361135,
			"0.001": 119.026811084,
			"0.002": 60.358594838,
			"0.003": 7.58103068115,
			"0.004": 4.50166112273,
			"0.005": 3.71018439313,
			"0.006": 2.95189065566,
			"0.007": 2.28043038611,
			"0.008": 2.04850810049,
			"0.009": 1.16573716819,
			"0.01": 0.887681304188,
			"0.011": 0.560773591999,
			"0.012": 0.46047965372,
			"0.013": 0.696270892642,
			"0.014": 0.392196952256,
			"0.015": 0.0,
			"0.016": 0.0,
			"0.017": 0.0,
			"0.018": 0.0,
			"0.019": 0.0,
			"0.02": 0.0,
			"0.021": 0.0,
			"0.022": 0.0,
			"0.023": 0.0,
			"0.024": 0.0,
			"0.025": 0.0
		}
	}
}
