{
	 "smiles": "OC(=O)CN1C(S)=NC2=C(C=CC=C2)C1=O", 
	 "Tm": 290.15, 
	 "num_atms": 24, 
	 "gaussian": { 
		 "optdone": 1, 
		 "sigma_profile": "yes", 
		 "theory": "DFT", 
		 "functional": "B3LYP", 
		 "basiset": "6-31G**", 
		 "properties": { 
			 "R2extent": 4478.8307, 
			 "electric_dipole_moment_norm": 1.59105006207, 
			 "electric_quadrupole_moment_norm": 14.8070616623, 
			 "total_energy": -1119.28084126, 
			 "HOMO_LUMO_gap": 0.18043, 
			 "cosmo_polarized_energy": -15.81, 
			 "cosmo_cavitation_energy": 30.59, 
			 "cosmo_dispersion_energy": -22.63, 
			 "cosmo_repulsion_energy": 1.71, 
			 "cosmo_total_nonelectrostatic_energy": 9.68, 
			 "SMD_solvation_energy": 5.07 
		},
		"coords": [
			{
				"x": 1.649659099,
				"y": -4.2943520513,
				"z": 1.3306928668,
				"element": "O" 
			},
			{
				"x": 1.0804678402,
				"y": -3.1781831761,
				"z": 0.8275946343,
				"element": "C" 
			},
			{
				"x": -0.1094481768,
				"y": -3.010073476,
				"z": 0.7243501198,
				"element": "O" 
			},
			{
				"x": 2.1612349373,
				"y": -2.1891794248,
				"z": 0.4055962022,
				"element": "C" 
			},
			{
				"x": 1.5953580824,
				"y": -0.9463784705,
				"z": -0.0940760596,
				"element": "N" 
			},
			{
				"x": 1.2037870212,
				"y": 0.0866941608,
				"z": 0.7389221416,
				"element": "C" 
			},
			{
				"x": 1.5387599554,
				"y": -0.1322197911,
				"z": 2.4830221164,
				"element": "S" 
			},
			{
				"x": 0.645705465,
				"y": 1.183308018,
				"z": 0.3510221504,
				"element": "N" 
			},
			{
				"x": 0.3950142695,
				"y": 1.3421001495,
				"z": -1.0025223411,
				"element": "C" 
			},
			{
				"x": 0.732250901,
				"y": 0.3498111601,
				"z": -1.9488098213,
				"element": "C" 
			},
			{
				"x": 0.4613741167,
				"y": 0.5432065382,
				"z": -3.3133287354,
				"element": "C" 
			},
			{
				"x": -0.1385113261,
				"y": 1.718428414,
				"z": -3.7373910812,
				"element": "C" 
			},
			{
				"x": -0.4760542859,
				"y": 2.7109667194,
				"z": -2.7985297937,
				"element": "C" 
			},
			{
				"x": -0.2156304801,
				"y": 2.5304099221,
				"z": -1.4489014253,
				"element": "C" 
			},
			{
				"x": 1.359940778,
				"y": -0.8893696692,
				"z": -1.4961111915,
				"element": "C" 
			},
			{
				"x": 1.6898732487,
				"y": -1.8267058314,
				"z": -2.210389771,
				"element": "O" 
			},
			{
				"x": 0.9226183567,
				"y": -4.8951139301,
				"z": 1.5659173903,
				"element": "H" 
			},
			{
				"x": 2.8459983777,
				"y": -2.0037542922,
				"z": 1.2367613139,
				"element": "H" 
			},
			{
				"x": 2.7302149935,
				"y": -2.6391907458,
				"z": -0.4110721083,
				"element": "H" 
			},
			{
				"x": 1.0275432012,
				"y": 1.0739995134,
				"z": 2.7865303277,
				"element": "H" 
			},
			{
				"x": 0.7327355291,
				"y": -0.2439768572,
				"z": -4.0087019713,
				"element": "H" 
			},
			{
				"x": -0.349420825,
				"y": 1.8742741495,
				"z": -4.790761838,
				"element": "H" 
			},
			{
				"x": -0.9474343591,
				"y": 3.6300391736,
				"z": -3.1351188908,
				"element": "H" 
			},
			{
				"x": -0.4709367195,
				"y": 3.2847597972,
				"z": -0.7122942348,
				"element": "H" 
			}
		],
		 "valence_orbital": [ 
			{
				"type": "occ",
				"energy": -0.28198,
				"method": "rhf"
			},
			{
				"type": "occ",
				"energy": -0.28124,
				"method": "rhf"
			},
			{
				"type": "occ",
				"energy": -0.27278,
				"method": "rhf"
			},
			{
				"type": "occ",
				"energy": -0.26281,
				"method": "rhf"
			},
			{
				"type": "occ",
				"energy": -0.22693,
				"method": "rhf"
			},
			{
				"type": "unocc",
				"energy": -0.0465,
				"method": "rhf"
			},
			{
				"type": "unocc",
				"energy": -0.03686,
				"method": "rhf"
			},
			{
				"type": "unocc",
				"energy": -0.00399,
				"method": "rhf"
			},
			{
				"type": "unocc",
				"energy": -0.00039,
				"method": "rhf"
			},
			{
				"type": "unocc",
				"energy": 0.02496,
				"method": "rhf"
			}
		],
		"cosmo_sigma_profile": { 
			"-0.025": 0.0,
			"-0.024": 0.0,
			"-0.023": 0.0,
			"-0.022": 0.0,
			"-0.021": 0.0,
			"-0.02": 0.0,
			"-0.019": 0.530373949568,
			"-0.018": 1.01503227071,
			"-0.017": 0.971761382993,
			"-0.016": 0.60668461827,
			"-0.015": 1.01386686713,
			"-0.014": 0.81711943454,
			"-0.013": 0.855856428425,
			"-0.012": 2.05177248225,
			"-0.011": 2.0340428204,
			"-0.01": 1.91929348525,
			"-0.009": 2.59700549197,
			"-0.008": 5.03312836975,
			"-0.007": 8.88182085236,
			"-0.006": 13.5860815707,
			"-0.005": 14.1755661442,
			"-0.004": 16.0233015512,
			"-0.003": 13.7555914029,
			"-0.002": 12.2058357632,
			"-0.001": 11.8090297392,
			"0.0": 16.3603800961,
			"0.001": 18.3086166232,
			"0.002": 20.7253275883,
			"0.003": 20.2425919299,
			"0.004": 13.3316273836,
			"0.005": 8.18943469512,
			"0.006": 8.05408086066,
			"0.007": 5.38442630338,
			"0.008": 5.45932977385,
			"0.009": 5.08260610022,
			"0.01": 5.4107358181,
			"0.011": 7.2453375789,
			"0.012": 3.7576944076,
			"0.013": 0.334107159011,
			"0.014": 0.0,
			"0.015": 0.0,
			"0.016": 0.0,
			"0.017": 0.0,
			"0.018": 0.0,
			"0.019": 0.0,
			"0.02": 0.0,
			"0.021": 0.0,
			"0.022": 0.0,
			"0.023": 0.0,
			"0.024": 0.0,
			"0.025": 0.0
		}
	}
}
