{
	 "smiles": "CCN1C=C(C(O)=O)C(=O)C2=CC=C(C)N=C12", 
	 "Tm": 502.15, 
	 "num_atms": 29, 
	 "gaussian": { 
		 "optdone": 1, 
		 "sigma_profile": "yes", 
		 "theory": "DFT", 
		 "functional": "B3LYP", 
		 "basiset": "6-31G**", 
		 "properties": { 
			 "R2extent": 4418.3854, 
			 "electric_dipole_moment_norm": 8.7616471682, 
			 "electric_quadrupole_moment_norm": 19.1266704818, 
			 "total_energy": -799.740842821, 
			 "HOMO_LUMO_gap": 0.16694, 
			 "cosmo_polarized_energy": -17.46, 
			 "cosmo_cavitation_energy": 32.71, 
			 "cosmo_dispersion_energy": -23.7, 
			 "cosmo_repulsion_energy": 1.82, 
			 "cosmo_total_nonelectrostatic_energy": 10.83, 
			 "SMD_solvation_energy": 6.61 
		},
		"coords": [
			{
				"x": -3.2655486197,
				"y": 0.3418886673,
				"z": -1.3509600054,
				"element": "C" 
			},
			{
				"x": -2.1976420392,
				"y": -0.670881692,
				"z": -1.7618261374,
				"element": "C" 
			},
			{
				"x": -0.8398780049,
				"y": -0.2748793765,
				"z": -1.3291947067,
				"element": "N" 
			},
			{
				"x": -0.0278842483,
				"y": 0.403958716,
				"z": -2.1760155479,
				"element": "C" 
			},
			{
				"x": 1.2303258972,
				"y": 0.8461003615,
				"z": -1.8586019118,
				"element": "C" 
			},
			{
				"x": 1.9937290357,
				"y": 1.5769170335,
				"z": -2.9240631267,
				"element": "C" 
			},
			{
				"x": 3.2132749671,
				"y": 1.9877377507,
				"z": -2.5686039605,
				"element": "O" 
			},
			{
				"x": 1.5279684859,
				"y": 1.7778953041,
				"z": -4.0297364828,
				"element": "O" 
			},
			{
				"x": 1.7767133346,
				"y": 0.5994886867,
				"z": -0.5405590359,
				"element": "C" 
			},
			{
				"x": 2.9159804168,
				"y": 0.9738369092,
				"z": -0.1835781432,
				"element": "O" 
			},
			{
				"x": 0.8855406843,
				"y": -0.1340061023,
				"z": 0.3670382261,
				"element": "C" 
			},
			{
				"x": 1.2755903911,
				"y": -0.4500889848,
				"z": 1.6789491371,
				"element": "C" 
			},
			{
				"x": 0.4076246691,
				"y": -1.1390940779,
				"z": 2.5027916221,
				"element": "C" 
			},
			{
				"x": -0.8607151127,
				"y": -1.5120646225,
				"z": 2.0051579336,
				"element": "C" 
			},
			{
				"x": -1.8376390359,
				"y": -2.264279429,
				"z": 2.8714046586,
				"element": "C" 
			},
			{
				"x": -1.2497713882,
				"y": -1.2201634558,
				"z": 0.7628066537,
				"element": "N" 
			},
			{
				"x": -0.4004335061,
				"y": -0.5531959434,
				"z": -0.0340894168,
				"element": "C" 
			},
			{
				"x": -3.0577595972,
				"y": 1.3304973559,
				"z": -1.771551745,
				"element": "H" 
			},
			{
				"x": -4.2433864494,
				"y": 0.0140446227,
				"z": -1.7173943111,
				"element": "H" 
			},
			{
				"x": -3.3177684572,
				"y": 0.4252768381,
				"z": -0.2629561574,
				"element": "H" 
			},
			{
				"x": -2.1580992945,
				"y": -0.7800411844,
				"z": -2.8484273702,
				"element": "H" 
			},
			{
				"x": -2.4062771313,
				"y": -1.6469945335,
				"z": -1.3241086571,
				"element": "H" 
			},
			{
				"x": -0.4118475375,
				"y": 0.6007927263,
				"z": -3.1717753596,
				"element": "H" 
			},
			{
				"x": 3.3743964923,
				"y": 1.7110821803,
				"z": -1.6247720972,
				"element": "H" 
			},
			{
				"x": 2.2619839423,
				"y": -0.1367218919,
				"z": 2.0052989593,
				"element": "H" 
			},
			{
				"x": 0.6847192786,
				"y": -1.3949501312,
				"z": 3.5204376236,
				"element": "H" 
			},
			{
				"x": -1.4125127312,
				"y": -3.2189722009,
				"z": 3.2009541471,
				"element": "H" 
			},
			{
				"x": -2.0811462931,
				"y": -1.692001079,
				"z": 3.7736019211,
				"element": "H" 
			},
			{
				"x": -2.7569381486,
				"y": -2.4595824472,
				"z": 2.3179732901,
				"element": "H" 
			}
		],
		 "valence_orbital": [ 
			{
				"type": "occ",
				"energy": -0.29004,
				"method": "rhf"
			},
			{
				"type": "occ",
				"energy": -0.27784,
				"method": "rhf"
			},
			{
				"type": "occ",
				"energy": -0.26592,
				"method": "rhf"
			},
			{
				"type": "occ",
				"energy": -0.25405,
				"method": "rhf"
			},
			{
				"type": "occ",
				"energy": -0.24062,
				"method": "rhf"
			},
			{
				"type": "unocc",
				"energy": -0.07368,
				"method": "rhf"
			},
			{
				"type": "unocc",
				"energy": -0.05322,
				"method": "rhf"
			},
			{
				"type": "unocc",
				"energy": -0.01668,
				"method": "rhf"
			},
			{
				"type": "unocc",
				"energy": 0.02487,
				"method": "rhf"
			},
			{
				"type": "unocc",
				"energy": 0.08028,
				"method": "rhf"
			}
		],
		"cosmo_sigma_profile": { 
			"-0.025": 0.0,
			"-0.024": 0.0,
			"-0.023": 0.0,
			"-0.022": 0.0,
			"-0.021": 0.0,
			"-0.02": 0.0,
			"-0.019": 0.0,
			"-0.018": 0.0,
			"-0.017": 0.0,
			"-0.016": 0.0,
			"-0.015": 0.0,
			"-0.014": 0.0,
			"-0.013": 0.0,
			"-0.012": 0.0,
			"-0.011": 0.356491466263,
			"-0.01": 1.69263100955,
			"-0.009": 1.73568909535,
			"-0.008": 2.90418892174,
			"-0.007": 6.08297439254,
			"-0.006": 9.00141235206,
			"-0.005": 18.0822562558,
			"-0.004": 25.6978422085,
			"-0.003": 28.1332077396,
			"-0.002": 29.312504575,
			"-0.001": 30.6738803066,
			"0.0": 25.0841888018,
			"0.001": 14.2028180805,
			"0.002": 8.39287987481,
			"0.003": 5.43348630438,
			"0.004": 5.56787410074,
			"0.005": 5.0631418078,
			"0.006": 4.99615862592,
			"0.007": 4.94580760733,
			"0.008": 4.09753988235,
			"0.009": 3.60178357303,
			"0.01": 5.61017473744,
			"0.011": 6.34973228046,
			"0.012": 7.96288060959,
			"0.013": 4.19745101517,
			"0.014": 1.61076549431,
			"0.015": 0.109957186288,
			"0.016": 0.0,
			"0.017": 0.0,
			"0.018": 0.0,
			"0.019": 0.0,
			"0.02": 0.0,
			"0.021": 0.0,
			"0.022": 0.0,
			"0.023": 0.0,
			"0.024": 0.0,
			"0.025": 0.0
		}
	}
}
