{
	 "smiles": "NNC(=O)C1=NC=CN=C1", 
	 "Tm": 444.15, 
	 "num_atms": 16, 
	 "gaussian": { 
		 "optdone": 1, 
		 "sigma_profile": "yes", 
		 "theory": "DFT", 
		 "functional": "B3LYP", 
		 "basiset": "6-31G**", 
		 "properties": { 
			 "R2extent": 1857.4007, 
			 "electric_dipole_moment_norm": 3.56779227815, 
			 "electric_quadrupole_moment_norm": 7.41300872791, 
			 "total_energy": -488.33519946, 
			 "HOMO_LUMO_gap": 0.16695, 
			 "cosmo_polarized_energy": -13.3, 
			 "cosmo_cavitation_energy": 20.82, 
			 "cosmo_dispersion_energy": -15.6, 
			 "cosmo_repulsion_energy": 1.27, 
			 "cosmo_total_nonelectrostatic_energy": 6.49, 
			 "SMD_solvation_energy": 2.92 
		},
		"coords": [
			{
				"x": 2.881567301,
				"y": -0.1474078154,
				"z": -1.2072083545,
				"element": "N" 
			},
			{
				"x": 3.1402609127,
				"y": 0.7324463106,
				"z": -0.1352559494,
				"element": "N" 
			},
			{
				"x": 2.2777403164,
				"y": 1.3544192112,
				"z": 0.7206660906,
				"element": "C" 
			},
			{
				"x": 2.6792741197,
				"y": 2.1840354914,
				"z": 1.5337139392,
				"element": "O" 
			},
			{
				"x": 0.8094540582,
				"y": 0.9963199978,
				"z": 0.6929958171,
				"element": "C" 
			},
			{
				"x": 0.385872683,
				"y": -0.1737302159,
				"z": 0.1917789492,
				"element": "N" 
			},
			{
				"x": -0.9253820171,
				"y": -0.4231939282,
				"z": 0.2756850983,
				"element": "C" 
			},
			{
				"x": -1.8126949475,
				"y": 0.4929630405,
				"z": 0.8416488526,
				"element": "C" 
			},
			{
				"x": -1.4001520458,
				"y": 1.6631293446,
				"z": 1.344540022,
				"element": "N" 
			},
			{
				"x": -0.0885189949,
				"y": 1.9036741298,
				"z": 1.2778787748,
				"element": "C" 
			},
			{
				"x": 2.4164575419,
				"y": 0.3696177779,
				"z": -1.953173081,
				"element": "H" 
			},
			{
				"x": 2.215896061,
				"y": -0.8425682733,
				"z": -0.8793510737,
				"element": "H" 
			},
			{
				"x": 4.1110685471,
				"y": 0.9888008109,
				"z": -0.0094015756,
				"element": "H" 
			},
			{
				"x": -1.2755551491,
				"y": -1.3747895456,
				"z": -0.1177098611,
				"element": "H" 
			},
			{
				"x": -2.8779992567,
				"y": 0.2784651281,
				"z": 0.8925400485,
				"element": "H" 
			},
			{
				"x": 0.2849108702,
				"y": 2.8324185358,
				"z": 1.697452303,
				"element": "H" 
			}
		],
		 "valence_orbital": [ 
			{
				"type": "occ",
				"energy": -0.29578,
				"method": "rhf"
			},
			{
				"type": "occ",
				"energy": -0.28744,
				"method": "rhf"
			},
			{
				"type": "occ",
				"energy": -0.2771,
				"method": "rhf"
			},
			{
				"type": "occ",
				"energy": -0.2588,
				"method": "rhf"
			},
			{
				"type": "occ",
				"energy": -0.24201,
				"method": "rhf"
			},
			{
				"type": "unocc",
				"energy": -0.07506,
				"method": "rhf"
			},
			{
				"type": "unocc",
				"energy": -0.05113,
				"method": "rhf"
			},
			{
				"type": "unocc",
				"energy": 0.03878,
				"method": "rhf"
			},
			{
				"type": "unocc",
				"energy": 0.08679,
				"method": "rhf"
			},
			{
				"type": "unocc",
				"energy": 0.10462,
				"method": "rhf"
			}
		],
		"cosmo_sigma_profile": { 
			"-0.025": 0.0,
			"-0.024": 0.0,
			"-0.023": 0.0,
			"-0.022": 0.0,
			"-0.021": 0.0,
			"-0.02": 0.0,
			"-0.019": 0.0,
			"-0.018": 0.0,
			"-0.017": 0.0,
			"-0.016": 0.0,
			"-0.015": 0.0285459114869,
			"-0.014": 0.648244659552,
			"-0.013": 0.864503867516,
			"-0.012": 1.53339976375,
			"-0.011": 2.42562546195,
			"-0.01": 1.98334457463,
			"-0.009": 2.11453061307,
			"-0.008": 8.21270365579,
			"-0.007": 8.55809097284,
			"-0.006": 8.77787347105,
			"-0.005": 7.4050426943,
			"-0.004": 8.0683093252,
			"-0.003": 11.3892909378,
			"-0.002": 15.4605986585,
			"-0.001": 15.7926761276,
			"0.0": 9.87710627998,
			"0.001": 8.25526408717,
			"0.002": 8.15226397111,
			"0.003": 4.79529165804,
			"0.004": 4.01734910214,
			"0.005": 4.84359804691,
			"0.006": 4.0388374384,
			"0.007": 2.58370138226,
			"0.008": 2.54277774466,
			"0.009": 2.96218543529,
			"0.01": 2.79921175828,
			"0.011": 3.47850444937,
			"0.012": 3.89185328119,
			"0.013": 6.44923241332,
			"0.014": 3.13945483403,
			"0.015": 0.862401504333,
			"0.016": 0.467390033474,
			"0.017": 0.169291381998,
			"0.018": 0.0,
			"0.019": 0.0,
			"0.02": 0.0,
			"0.021": 0.0,
			"0.022": 0.0,
			"0.023": 0.0,
			"0.024": 0.0,
			"0.025": 0.0
		}
	}
}
