{
	 "smiles": "CC(C)(C)OC(=O)N1CCN(CC1)C1=CC=CC=C1C(O)=O", 
	 "Tm": 439.15, 
	 "num_atms": 44, 
	 "gaussian": { 
		 "optdone": 1, 
		 "sigma_profile": "yes", 
		 "theory": "DFT", 
		 "functional": "B3LYP", 
		 "basiset": "6-31G**", 
		 "properties": { 
			 "R2extent": 10603.9289, 
			 "electric_dipole_moment_norm": 4.27425734953, 
			 "electric_quadrupole_moment_norm": 24.6498299341, 
			 "total_energy": -1033.39199363, 
			 "HOMO_LUMO_gap": 0.16835, 
			 "cosmo_polarized_energy": -19.87, 
			 "cosmo_cavitation_energy": 44.57, 
			 "cosmo_dispersion_energy": -31.28, 
			 "cosmo_repulsion_energy": 2.38, 
			 "cosmo_total_nonelectrostatic_energy": 15.67, 
			 "SMD_solvation_energy": 7.68 
		},
		"coords": [
			{
				"x": -2.0473070051,
				"y": -3.7406063713,
				"z": -1.5555185326,
				"element": "C" 
			},
			{
				"x": -2.3028892489,
				"y": -3.3283176069,
				"z": -0.101902645,
				"element": "C" 
			},
			{
				"x": -1.948503249,
				"y": -4.4419820927,
				"z": 0.8893215276,
				"element": "C" 
			},
			{
				"x": -3.7531895697,
				"y": -2.8750412291,
				"z": 0.0862087595,
				"element": "C" 
			},
			{
				"x": -1.5439617884,
				"y": -2.1080993232,
				"z": 0.2158502096,
				"element": "O" 
			},
			{
				"x": -0.188454794,
				"y": -2.1023144748,
				"z": 0.1727296352,
				"element": "C" 
			},
			{
				"x": 0.5244694354,
				"y": -3.0478339994,
				"z": -0.1352105073,
				"element": "O" 
			},
			{
				"x": 0.2982777058,
				"y": -0.8728019079,
				"z": 0.5296524959,
				"element": "N" 
			},
			{
				"x": -0.550709243,
				"y": 0.2721003962,
				"z": 0.8570446881,
				"element": "C" 
			},
			{
				"x": 0.2442887612,
				"y": 1.288549557,
				"z": 1.6750571777,
				"element": "C" 
			},
			{
				"x": 1.4094015083,
				"y": 1.7638234369,
				"z": 0.9305963429,
				"element": "N" 
			},
			{
				"x": 2.0107499092,
				"y": 0.7993590837,
				"z": -0.0001576926,
				"element": "C" 
			},
			{
				"x": 1.7385153077,
				"y": -0.6362223297,
				"z": 0.4486183484,
				"element": "C" 
			},
			{
				"x": 2.0596953932,
				"y": 2.9163967754,
				"z": 1.3363705323,
				"element": "C" 
			},
			{
				"x": 1.8335719189,
				"y": 3.4338124784,
				"z": 2.6356937588,
				"element": "C" 
			},
			{
				"x": 2.5085035493,
				"y": 4.5519671327,
				"z": 3.107101233,
				"element": "C" 
			},
			{
				"x": 3.4494546055,
				"y": 5.2095381897,
				"z": 2.3114803092,
				"element": "C" 
			},
			{
				"x": 3.6722145303,
				"y": 4.7336955524,
				"z": 1.0260004705,
				"element": "C" 
			},
			{
				"x": 2.9870052875,
				"y": 3.6185263726,
				"z": 0.5084395767,
				"element": "C" 
			},
			{
				"x": 3.117787181,
				"y": 3.3677422681,
				"z": -0.9605893875,
				"element": "C" 
			},
			{
				"x": 4.3745335056,
				"y": 3.5184428083,
				"z": -1.4759509714,
				"element": "O" 
			},
			{
				"x": 2.2015837277,
				"y": 3.1029476052,
				"z": -1.70492758,
				"element": "O" 
			},
			{
				"x": -2.7000367815,
				"y": -4.5790871689,
				"z": -1.8196303103,
				"element": "H" 
			},
			{
				"x": -1.0093875865,
				"y": -4.0414133926,
				"z": -1.6982795686,
				"element": "H" 
			},
			{
				"x": -2.2727366669,
				"y": -2.909179633,
				"z": -2.2309350501,
				"element": "H" 
			},
			{
				"x": -2.598669423,
				"y": -5.3062014441,
				"z": 0.7183682101,
				"element": "H" 
			},
			{
				"x": -0.910042949,
				"y": -4.7521647223,
				"z": 0.772456665,
				"element": "H" 
			},
			{
				"x": -2.1040608448,
				"y": -4.0990992944,
				"z": 1.9173747842,
				"element": "H" 
			},
			{
				"x": -3.989555882,
				"y": -2.0468283831,
				"z": -0.5881763525,
				"element": "H" 
			},
			{
				"x": -3.9250189918,
				"y": -2.5431749727,
				"z": 1.114516059,
				"element": "H" 
			},
			{
				"x": -4.4361126304,
				"y": -3.7023076705,
				"z": -0.1285682279,
				"element": "H" 
			},
			{
				"x": -0.9384244825,
				"y": 0.7524894113,
				"z": -0.0519141879,
				"element": "H" 
			},
			{
				"x": -1.4078892377,
				"y": -0.0671246245,
				"z": 1.4413821723,
				"element": "H" 
			},
			{
				"x": 0.5259266193,
				"y": 0.8316165217,
				"z": 2.6383521765,
				"element": "H" 
			},
			{
				"x": -0.4095498948,
				"y": 2.138390015,
				"z": 1.8957792783,
				"element": "H" 
			},
			{
				"x": 3.0942580422,
				"y": 0.9557877924,
				"z": -0.019392791,
				"element": "H" 
			},
			{
				"x": 1.6459568612,
				"y": 0.9549565154,
				"z": -1.0207629165,
				"element": "H" 
			},
			{
				"x": 2.2207789114,
				"y": -0.8299617579,
				"z": 1.4174235552,
				"element": "H" 
			},
			{
				"x": 2.1602910525,
				"y": -1.3396268474,
				"z": -0.271637033,
				"element": "H" 
			},
			{
				"x": 1.1450007645,
				"y": 2.9272015817,
				"z": 3.3001452757,
				"element": "H" 
			},
			{
				"x": 2.3067825783,
				"y": 4.9023852195,
				"z": 4.1156310674,
				"element": "H" 
			},
			{
				"x": 3.9770582539,
				"y": 6.0844945392,
				"z": 2.6759248751,
				"element": "H" 
			},
			{
				"x": 4.3454861807,
				"y": 5.2803447258,
				"z": 0.3706229496,
				"element": "H" 
			},
			{
				"x": 5.0100086782,
				"y": 3.5936212676,
				"z": -0.7499883796,
				"element": "H" 
			}
		],
		 "valence_orbital": [ 
			{
				"type": "occ",
				"energy": -0.27095,
				"method": "rhf"
			},
			{
				"type": "occ",
				"energy": -0.26048,
				"method": "rhf"
			},
			{
				"type": "occ",
				"energy": -0.25854,
				"method": "rhf"
			},
			{
				"type": "occ",
				"energy": -0.23807,
				"method": "rhf"
			},
			{
				"type": "occ",
				"energy": -0.20489,
				"method": "rhf"
			},
			{
				"type": "unocc",
				"energy": -0.03654,
				"method": "rhf"
			},
			{
				"type": "unocc",
				"energy": -0.00533,
				"method": "rhf"
			},
			{
				"type": "unocc",
				"energy": 0.03923,
				"method": "rhf"
			},
			{
				"type": "unocc",
				"energy": 0.05408,
				"method": "rhf"
			},
			{
				"type": "unocc",
				"energy": 0.06913,
				"method": "rhf"
			}
		],
		"cosmo_sigma_profile": { 
			"-0.025": 0.0,
			"-0.024": 0.0,
			"-0.023": 0.0,
			"-0.022": 0.0,
			"-0.021": 0.0,
			"-0.02": 0.0,
			"-0.019": 0.0,
			"-0.018": 0.346275533079,
			"-0.017": 0.728948232468,
			"-0.016": 0.99242225821,
			"-0.015": 0.943783366774,
			"-0.014": 0.999002588821,
			"-0.013": 0.294621148791,
			"-0.012": 0.912511345767,
			"-0.011": 1.69182929404,
			"-0.01": 0.803946373379,
			"-0.009": 0.80007725042,
			"-0.008": 1.54019676763,
			"-0.007": 3.67306916674,
			"-0.006": 12.1351752521,
			"-0.005": 23.8321352742,
			"-0.004": 41.0100871342,
			"-0.003": 35.8343314501,
			"-0.002": 27.5556513228,
			"-0.001": 26.7228089677,
			"0.0": 34.0027675994,
			"0.001": 30.794713422,
			"0.002": 13.5849709562,
			"0.003": 12.5119064586,
			"0.004": 17.0675546447,
			"0.005": 13.0495352485,
			"0.006": 6.72419743813,
			"0.007": 5.72826003832,
			"0.008": 4.08104860821,
			"0.009": 3.74323434686,
			"0.01": 5.61602497269,
			"0.011": 7.42633636697,
			"0.012": 6.41025873065,
			"0.013": 5.67151297596,
			"0.014": 2.15654920061,
			"0.015": 0.0,
			"0.016": 0.0,
			"0.017": 0.0,
			"0.018": 0.0,
			"0.019": 0.0,
			"0.02": 0.0,
			"0.021": 0.0,
			"0.022": 0.0,
			"0.023": 0.0,
			"0.024": 0.0,
			"0.025": 0.0
		}
	}
}
