{
	 "smiles": "CC1=C(C=C(O1)C1=CC=C(Cl)C=C1)C(Cl)=O", 
	 "Tm": 396.15, 
	 "num_atms": 24, 
	 "gaussian": { 
		 "optdone": 1, 
		 "sigma_profile": "yes", 
		 "theory": "DFT", 
		 "functional": "B3LYP", 
		 "basiset": "6-31G**", 
		 "properties": { 
			 "R2extent": 8357.2055, 
			 "electric_dipole_moment_norm": 2.6704872458, 
			 "electric_quadrupole_moment_norm": 20.3341068383, 
			 "total_energy": -1532.93430959, 
			 "HOMO_LUMO_gap": 0.16082, 
			 "cosmo_polarized_energy": -8.39, 
			 "cosmo_cavitation_energy": 33.09, 
			 "cosmo_dispersion_energy": -24.18, 
			 "cosmo_repulsion_energy": 1.87, 
			 "cosmo_total_nonelectrostatic_energy": 10.78, 
			 "SMD_solvation_energy": 6.29 
		},
		"coords": [
			{
				"x": -0.0653632622,
				"y": 1.4704099495,
				"z": -3.6220066391,
				"element": "C" 
			},
			{
				"x": 0.6535252955,
				"y": 1.4575045264,
				"z": -2.3175499181,
				"element": "C" 
			},
			{
				"x": 1.9682922156,
				"y": 1.3359041688,
				"z": -1.9033171506,
				"element": "C" 
			},
			{
				"x": 1.9581241554,
				"y": 1.4084648215,
				"z": -0.4664233153,
				"element": "C" 
			},
			{
				"x": 0.6595703504,
				"y": 1.567726764,
				"z": -0.0885707486,
				"element": "C" 
			},
			{
				"x": -0.1307278354,
				"y": 1.5967578796,
				"z": -1.2234647733,
				"element": "O" 
			},
			{
				"x": -0.0192452836,
				"y": 1.7049702992,
				"z": 1.1934207325,
				"element": "C" 
			},
			{
				"x": -1.4141271786,
				"y": 1.8607590073,
				"z": 1.2625166019,
				"element": "C" 
			},
			{
				"x": -2.0582074396,
				"y": 1.9916659265,
				"z": 2.4900162741,
				"element": "C" 
			},
			{
				"x": -1.3061558468,
				"y": 1.9673827781,
				"z": 3.6637830075,
				"element": "C" 
			},
			{
				"x": -2.1123877081,
				"y": 2.131927369,
				"z": 5.214370309,
				"element": "Cl" 
			},
			{
				"x": 0.080763505,
				"y": 1.8137886093,
				"z": 3.6226142721,
				"element": "C" 
			},
			{
				"x": 0.7155084479,
				"y": 1.6837554189,
				"z": 2.3922801641,
				"element": "C" 
			},
			{
				"x": 3.2088596142,
				"y": 1.1648194841,
				"z": -2.6447888817,
				"element": "C" 
			},
			{
				"x": 3.0234407665,
				"y": 1.0940241321,
				"z": -4.4701283179,
				"element": "Cl" 
			},
			{
				"x": 4.3024903282,
				"y": 1.0701658978,
				"z": -2.1708420664,
				"element": "O" 
			},
			{
				"x": 0.2835542007,
				"y": 2.286924932,
				"z": -4.2603505654,
				"element": "H" 
			},
			{
				"x": -1.1342992695,
				"y": 1.593908735,
				"z": -3.4370676923,
				"element": "H" 
			},
			{
				"x": 0.0967677072,
				"y": 0.5408018286,
				"z": -4.1746596217,
				"element": "H" 
			},
			{
				"x": 2.8313281785,
				"y": 1.3454400863,
				"z": 0.1642749848,
				"element": "H" 
			},
			{
				"x": -1.9970608968,
				"y": 1.8794033736,
				"z": 0.3486181574,
				"element": "H" 
			},
			{
				"x": -3.1348257532,
				"y": 2.1116139778,
				"z": 2.536825798,
				"element": "H" 
			},
			{
				"x": 0.6534204005,
				"y": 1.7965599375,
				"z": 4.5430931326,
				"element": "H" 
			},
			{
				"x": 1.7940553084,
				"y": 1.5645200972,
				"z": 2.3662562567,
				"element": "H" 
			}
		],
		 "valence_orbital": [ 
			{
				"type": "occ",
				"energy": -0.30742,
				"method": "rhf"
			},
			{
				"type": "occ",
				"energy": -0.29498,
				"method": "rhf"
			},
			{
				"type": "occ",
				"energy": -0.28425,
				"method": "rhf"
			},
			{
				"type": "occ",
				"energy": -0.2756,
				"method": "rhf"
			},
			{
				"type": "occ",
				"energy": -0.22547,
				"method": "rhf"
			},
			{
				"type": "unocc",
				"energy": -0.06465,
				"method": "rhf"
			},
			{
				"type": "unocc",
				"energy": -0.05253,
				"method": "rhf"
			},
			{
				"type": "unocc",
				"energy": -0.02428,
				"method": "rhf"
			},
			{
				"type": "unocc",
				"energy": 0.01568,
				"method": "rhf"
			},
			{
				"type": "unocc",
				"energy": 0.02257,
				"method": "rhf"
			}
		],
		"cosmo_sigma_profile": { 
			"-0.025": 0.0,
			"-0.024": 0.0,
			"-0.023": 0.0,
			"-0.022": 0.0,
			"-0.021": 0.0,
			"-0.02": 0.0,
			"-0.019": 0.0,
			"-0.018": 0.0,
			"-0.017": 0.0,
			"-0.016": 0.0,
			"-0.015": 0.0,
			"-0.014": 0.0,
			"-0.013": 0.0,
			"-0.012": 0.0,
			"-0.011": 0.0,
			"-0.01": 0.0,
			"-0.009": 1.59250742336,
			"-0.008": 3.83661040658,
			"-0.007": 6.78871843946,
			"-0.006": 12.6751143385,
			"-0.005": 13.6532005979,
			"-0.004": 14.4894688856,
			"-0.003": 20.5443780453,
			"-0.002": 21.6188767506,
			"-0.001": 20.8642451455,
			"0.0": 25.4680726378,
			"0.001": 29.6790452224,
			"0.002": 27.0810830618,
			"0.003": 26.4185578352,
			"0.004": 18.59690366,
			"0.005": 12.2792184689,
			"0.006": 3.27556742936,
			"0.007": 2.56853484498,
			"0.008": 3.32005644486,
			"0.009": 4.69203847041,
			"0.01": 1.3192085677,
			"0.011": 0.0135490847732,
			"0.012": 0.0,
			"0.013": 0.0,
			"0.014": 0.0,
			"0.015": 0.0,
			"0.016": 0.0,
			"0.017": 0.0,
			"0.018": 0.0,
			"0.019": 0.0,
			"0.02": 0.0,
			"0.021": 0.0,
			"0.022": 0.0,
			"0.023": 0.0,
			"0.024": 0.0,
			"0.025": 0.0
		}
	}
}
