{
	 "smiles": "COCCOC(=O)C(C#N)(C(=O)C1=CC=CC=C1C(F)(F)F)C1=CC=C(C=C1)C(C)(C)C", 
	 "Tm": 351.05, 
	 "num_atms": 56, 
	 "gaussian": { 
		 "optdone": 1, 
		 "sigma_profile": "yes", 
		 "theory": "DFT", 
		 "functional": "B3LYP", 
		 "basiset": "6-31G**", 
		 "properties": { 
			 "R2extent": 14538.4058, 
			 "electric_dipole_moment_norm": 6.60912852198, 
			 "electric_quadrupole_moment_norm": 27.3299524323, 
			 "total_energy": -1584.15213167, 
			 "HOMO_LUMO_gap": 0.19148, 
			 "cosmo_polarized_energy": -19.67, 
			 "cosmo_cavitation_energy": 60.17, 
			 "cosmo_dispersion_energy": -36.83, 
			 "cosmo_repulsion_energy": 2.77, 
			 "cosmo_total_nonelectrostatic_energy": 26.1, 
			 "SMD_solvation_energy": 13.91 
		},
		"coords": [
			{
				"x": -2.4111747696,
				"y": -2.0081627494,
				"z": -4.1675713822,
				"element": "C" 
			},
			{
				"x": -2.1048287174,
				"y": -0.8229380855,
				"z": -3.4599922086,
				"element": "O" 
			},
			{
				"x": -3.2072446287,
				"y": 0.0526634312,
				"z": -3.3546476243,
				"element": "C" 
			},
			{
				"x": -2.8099267977,
				"y": 1.2289010465,
				"z": -2.4852695064,
				"element": "C" 
			},
			{
				"x": -2.624210885,
				"y": 0.7704886875,
				"z": -1.1265379109,
				"element": "O" 
			},
			{
				"x": -1.3728449288,
				"y": 0.7021415806,
				"z": -0.6592346931,
				"element": "C" 
			},
			{
				"x": -0.3804874567,
				"y": 1.0832470829,
				"z": -1.2347099319,
				"element": "O" 
			},
			{
				"x": -1.3273641887,
				"y": 0.0764650293,
				"z": 0.7525555274,
				"element": "C" 
			},
			{
				"x": -2.6727647394,
				"y": -0.2940730791,
				"z": 1.2243822338,
				"element": "C" 
			},
			{
				"x": -3.7130875606,
				"y": -0.634497614,
				"z": 1.6075440616,
				"element": "N" 
			},
			{
				"x": -0.723235173,
				"y": 1.1209060407,
				"z": 1.7734983555,
				"element": "C" 
			},
			{
				"x": -1.2265290737,
				"y": 1.2487470129,
				"z": 2.8652931566,
				"element": "O" 
			},
			{
				"x": 0.5121608756,
				"y": 1.9032234538,
				"z": 1.3931440215,
				"element": "C" 
			},
			{
				"x": 1.7572424608,
				"y": 1.2681568574,
				"z": 1.3461981039,
				"element": "C" 
			},
			{
				"x": 2.9174457517,
				"y": 2.0043894945,
				"z": 1.1051826259,
				"element": "C" 
			},
			{
				"x": 2.8443560422,
				"y": 3.3796831501,
				"z": 0.8947062684,
				"element": "C" 
			},
			{
				"x": 1.6064136752,
				"y": 4.0200109679,
				"z": 0.9295237738,
				"element": "C" 
			},
			{
				"x": 0.443139292,
				"y": 3.2926563852,
				"z": 1.1836882435,
				"element": "C" 
			},
			{
				"x": -0.8770841728,
				"y": 4.0217863752,
				"z": 1.2326750199,
				"element": "C" 
			},
			{
				"x": -0.8154863736,
				"y": 5.2130763997,
				"z": 0.6007715038,
				"element": "F" 
			},
			{
				"x": -1.2840119345,
				"y": 4.2598437983,
				"z": 2.4932952266,
				"element": "F" 
			},
			{
				"x": -1.8647972195,
				"y": 3.3056431151,
				"z": 0.628520481,
				"element": "F" 
			},
			{
				"x": -0.4368776152,
				"y": -1.1946630175,
				"z": 0.7912047494,
				"element": "C" 
			},
			{
				"x": -0.2392312946,
				"y": -1.8245520655,
				"z": 2.0290763389,
				"element": "C" 
			},
			{
				"x": 0.5330479536,
				"y": -2.9772960967,
				"z": 2.1196733653,
				"element": "C" 
			},
			{
				"x": 1.132497397,
				"y": -3.5568465364,
				"z": 0.9872511838,
				"element": "C" 
			},
			{
				"x": 0.9132621594,
				"y": -2.920385358,
				"z": -0.2404467941,
				"element": "C" 
			},
			{
				"x": 0.1443033776,
				"y": -1.7575739818,
				"z": -0.346007674,
				"element": "C" 
			},
			{
				"x": 1.9783109279,
				"y": -4.834018613,
				"z": 1.1326277504,
				"element": "C" 
			},
			{
				"x": 2.5455730292,
				"y": -5.3166724281,
				"z": -0.2157196357,
				"element": "C" 
			},
			{
				"x": 3.1657481948,
				"y": -4.5564383741,
				"z": 2.0854388357,
				"element": "C" 
			},
			{
				"x": 1.1018162812,
				"y": -5.9652741331,
				"z": 1.721703407,
				"element": "C" 
			},
			{
				"x": -3.2118927829,
				"y": -2.5808832828,
				"z": -3.6753089474,
				"element": "H" 
			},
			{
				"x": -2.722147328,
				"y": -1.795877372,
				"z": -5.2023522574,
				"element": "H" 
			},
			{
				"x": -1.5034422322,
				"y": -2.6150813177,
				"z": -4.1900021536,
				"element": "H" 
			},
			{
				"x": -3.5118247604,
				"y": 0.432381225,
				"z": -4.3456297876,
				"element": "H" 
			},
			{
				"x": -4.0761230327,
				"y": -0.4594470637,
				"z": -2.9108782924,
				"element": "H" 
			},
			{
				"x": -1.8867110529,
				"y": 1.6888773025,
				"z": -2.8408994441,
				"element": "H" 
			},
			{
				"x": -3.6139146694,
				"y": 1.9677706575,
				"z": -2.4491272967,
				"element": "H" 
			},
			{
				"x": 1.8194009454,
				"y": 0.1983553161,
				"z": 1.5061678203,
				"element": "H" 
			},
			{
				"x": 3.8771218398,
				"y": 1.4971811084,
				"z": 1.0789357429,
				"element": "H" 
			},
			{
				"x": 3.7442743474,
				"y": 3.9542397486,
				"z": 0.6989457717,
				"element": "H" 
			},
			{
				"x": 1.5357595495,
				"y": 5.0868813032,
				"z": 0.7518470179,
				"element": "H" 
			},
			{
				"x": -0.6978648764,
				"y": -1.4144454266,
				"z": 2.9239139639,
				"element": "H" 
			},
			{
				"x": 0.6632090797,
				"y": -3.4333450477,
				"z": 3.0963112112,
				"element": "H" 
			},
			{
				"x": 1.3440628975,
				"y": -3.325041315,
				"z": -1.1488681536,
				"element": "H" 
			},
			{
				"x": 0.0072191109,
				"y": -1.3038335046,
				"z": -1.3200922557,
				"element": "H" 
			},
			{
				"x": 1.7511577571,
				"y": -5.5607349979,
				"z": -0.9286524192,
				"element": "H" 
			},
			{
				"x": 3.1389391241,
				"y": -6.2235412163,
				"z": -0.0614514668,
				"element": "H" 
			},
			{
				"x": 3.2006072405,
				"y": -4.5687853275,
				"z": -0.6747192352,
				"element": "H" 
			},
			{
				"x": 3.8098933455,
				"y": -3.7644185497,
				"z": 1.6892181094,
				"element": "H" 
			},
			{
				"x": 2.828168666,
				"y": -4.2473442734,
				"z": 3.0790789014,
				"element": "H" 
			},
			{
				"x": 3.7743302859,
				"y": -5.4594137684,
				"z": 2.2069617958,
				"element": "H" 
			},
			{
				"x": 0.2542149746,
				"y": -6.1868428297,
				"z": 1.0651073338,
				"element": "H" 
			},
			{
				"x": 1.6916970179,
				"y": -6.8814693687,
				"z": 1.8366621834,
				"element": "H" 
			},
			{
				"x": 0.7017346645,
				"y": -5.7021197763,
				"z": 2.7052149857,
				"element": "H" 
			}
		],
		 "valence_orbital": [ 
			{
				"type": "occ",
				"energy": -0.27196,
				"method": "rhf"
			},
			{
				"type": "occ",
				"energy": -0.26952,
				"method": "rhf"
			},
			{
				"type": "occ",
				"energy": -0.26403,
				"method": "rhf"
			},
			{
				"type": "occ",
				"energy": -0.25942,
				"method": "rhf"
			},
			{
				"type": "occ",
				"energy": -0.24649,
				"method": "rhf"
			},
			{
				"type": "unocc",
				"energy": -0.05501,
				"method": "rhf"
			},
			{
				"type": "unocc",
				"energy": -0.03298,
				"method": "rhf"
			},
			{
				"type": "unocc",
				"energy": -0.02657,
				"method": "rhf"
			},
			{
				"type": "unocc",
				"energy": -0.01593,
				"method": "rhf"
			},
			{
				"type": "unocc",
				"energy": -0.00939,
				"method": "rhf"
			}
		],
		"cosmo_sigma_profile": { 
			"-0.025": 0.0,
			"-0.024": 0.0,
			"-0.023": 0.0,
			"-0.022": 0.0,
			"-0.021": 0.0,
			"-0.02": 0.0,
			"-0.019": 0.0,
			"-0.018": 0.0,
			"-0.017": 0.0,
			"-0.016": 0.0,
			"-0.015": 0.0,
			"-0.014": 0.0,
			"-0.013": 0.0,
			"-0.012": 0.0,
			"-0.011": 0.0,
			"-0.01": 0.0,
			"-0.009": 0.0,
			"-0.008": 2.66018011465,
			"-0.007": 11.1925983968,
			"-0.006": 19.1819247548,
			"-0.005": 30.4763928505,
			"-0.004": 37.4585749331,
			"-0.003": 44.1476555749,
			"-0.002": 47.0473833032,
			"-0.001": 37.5976967094,
			"0.0": 38.9747677865,
			"0.001": 50.6215763027,
			"0.002": 50.5312334373,
			"0.003": 29.9546853679,
			"0.004": 14.7897973983,
			"0.005": 8.83415413725,
			"0.006": 9.17599450684,
			"0.007": 9.83985217829,
			"0.008": 11.577487159,
			"0.009": 9.87712934119,
			"0.01": 6.68536229886,
			"0.011": 3.5000304111,
			"0.012": 2.06352425186,
			"0.013": 0.428188030468,
			"0.014": 0.0,
			"0.015": 0.0,
			"0.016": 0.0,
			"0.017": 0.0,
			"0.018": 0.0,
			"0.019": 0.0,
			"0.02": 0.0,
			"0.021": 0.0,
			"0.022": 0.0,
			"0.023": 0.0,
			"0.024": 0.0,
			"0.025": 0.0
		}
	}
}
