{
	 "smiles": "CCOO", 
	 "Tm": 173.15, 
	 "num_atms": 10, 
	 "gaussian": { 
		 "optdone": 1, 
		 "sigma_profile": "yes", 
		 "theory": "DFT", 
		 "functional": "B3LYP", 
		 "basiset": "6-31G**", 
		 "properties": { 
			 "R2extent": 1127.0777, 
			 "electric_dipole_moment_norm": 1.79913118199, 
			 "electric_quadrupole_moment_norm": 8.30562148849, 
			 "total_energy": -230.174297664, 
			 "HOMO_LUMO_gap": 0.28411, 
			 "cosmo_polarized_energy": -6.76, 
			 "cosmo_cavitation_energy": 13.25, 
			 "cosmo_dispersion_energy": -9.9, 
			 "cosmo_repulsion_energy": 0.93, 
			 "cosmo_total_nonelectrostatic_energy": 4.28, 
			 "SMD_solvation_energy": 2.42 
		},
		"coords": [
			{
				"x": -1.6006728308,
				"y": 0.6527198483,
				"z": -1.7432196251,
				"element": "C" 
			},
			{
				"x": -0.4088161572,
				"y": -0.0853282106,
				"z": -2.3391161633,
				"element": "C" 
			},
			{
				"x": 0.3001393742,
				"y": 0.6726473545,
				"z": -3.3163226066,
				"element": "O" 
			},
			{
				"x": 0.9843620992,
				"y": 1.743668583,
				"z": -2.5996247102,
				"element": "O" 
			},
			{
				"x": -2.1328182962,
				"y": 0.0095827677,
				"z": -1.0344903833,
				"element": "H" 
			},
			{
				"x": -1.2665696975,
				"y": 1.5446497509,
				"z": -1.2065811019,
				"element": "H" 
			},
			{
				"x": -2.302464019,
				"y": 0.955269725,
				"z": -2.5270496227,
				"element": "H" 
			},
			{
				"x": -0.7294087429,
				"y": -0.9677003438,
				"z": -2.9063093302,
				"element": "H" 
			},
			{
				"x": 0.2871715419,
				"y": -0.4157302238,
				"z": -1.557436688,
				"element": "H" 
			},
			{
				"x": 0.5356767283,
				"y": 2.5148207487,
				"z": -2.9813497687,
				"element": "H" 
			}
		],
		 "valence_orbital": [ 
			{
				"type": "occ",
				"energy": -0.38272,
				"method": "rhf"
			},
			{
				"type": "occ",
				"energy": -0.37429,
				"method": "rhf"
			},
			{
				"type": "occ",
				"energy": -0.34865,
				"method": "rhf"
			},
			{
				"type": "occ",
				"energy": -0.29909,
				"method": "rhf"
			},
			{
				"type": "occ",
				"energy": -0.25494,
				"method": "rhf"
			},
			{
				"type": "unocc",
				"energy": 0.02917,
				"method": "rhf"
			},
			{
				"type": "unocc",
				"energy": 0.08383,
				"method": "rhf"
			},
			{
				"type": "unocc",
				"energy": 0.12326,
				"method": "rhf"
			},
			{
				"type": "unocc",
				"energy": 0.14006,
				"method": "rhf"
			},
			{
				"type": "unocc",
				"energy": 0.15294,
				"method": "rhf"
			}
		],
		"cosmo_sigma_profile": { 
			"-0.025": 0.0,
			"-0.024": 0.0,
			"-0.023": 0.0,
			"-0.022": 0.0,
			"-0.021": 0.0,
			"-0.02": 0.0,
			"-0.019": 0.0,
			"-0.018": 0.0,
			"-0.017": 0.650519179047,
			"-0.016": 1.18704785427,
			"-0.015": 0.323829799208,
			"-0.014": 1.19893885241,
			"-0.013": 0.990631615164,
			"-0.012": 0.334293146796,
			"-0.011": 0.60390385039,
			"-0.01": 1.18190413763,
			"-0.009": 0.447529588114,
			"-0.008": 0.465926447332,
			"-0.007": 0.749460704458,
			"-0.006": 2.06937540684,
			"-0.005": 3.65646475163,
			"-0.004": 8.4359553805,
			"-0.003": 13.4604779371,
			"-0.002": 11.3936121868,
			"-0.001": 9.88350299568,
			"0.0": 8.72203314133,
			"0.001": 6.22354246972,
			"0.002": 3.29885350403,
			"0.003": 2.44619228771,
			"0.004": 2.02809472952,
			"0.005": 2.27248067167,
			"0.006": 1.57431937831,
			"0.007": 2.61581650229,
			"0.008": 2.24345703938,
			"0.009": 2.97984263066,
			"0.01": 4.05050356745,
			"0.011": 3.44057601041,
			"0.012": 3.19464135518,
			"0.013": 0.61508509697,
			"0.014": 0.0,
			"0.015": 0.0,
			"0.016": 0.0,
			"0.017": 0.0,
			"0.018": 0.0,
			"0.019": 0.0,
			"0.02": 0.0,
			"0.021": 0.0,
			"0.022": 0.0,
			"0.023": 0.0,
			"0.024": 0.0,
			"0.025": 0.0
		}
	}
}
