{
	 "smiles": "CC1C2CC3OCC45CCCC(C)(COC(C)=O)C4CC4OC(C)(C)OC2C4(C35)C1=O", 
	 "Tm": 429.15, 
	 "num_atms": 67, 
	 "gaussian": { 
		 "optdone": 1, 
		 "sigma_profile": "yes", 
		 "theory": "DFT", 
		 "functional": "B3LYP", 
		 "basiset": "6-31G**", 
		 "properties": { 
			 "R2extent": 11412.6882, 
			 "electric_dipole_moment_norm": 3.64403746962, 
			 "electric_quadrupole_moment_norm": 18.7323157244, 
			 "total_energy": -1425.68185883, 
			 "HOMO_LUMO_gap": 0.22154, 
			 "cosmo_polarized_energy": -19.59, 
			 "cosmo_cavitation_energy": 57.83, 
			 "cosmo_dispersion_energy": -37.55, 
			 "cosmo_repulsion_energy": 2.73, 
			 "cosmo_total_nonelectrostatic_energy": 23.01, 
			 "SMD_solvation_energy": 9.69 
		},
		"coords": [
			{
				"x": -1.4433375139,
				"y": -3.726793959,
				"z": -1.53484562,
				"element": "C" 
			},
			{
				"x": -1.4781579115,
				"y": -2.5536496739,
				"z": -0.5476811044,
				"element": "C" 
			},
			{
				"x": -1.0805959359,
				"y": -2.9193671652,
				"z": 0.9224897932,
				"element": "C" 
			},
			{
				"x": -1.8806109771,
				"y": -2.1642378872,
				"z": 2.0642509753,
				"element": "C" 
			},
			{
				"x": -1.2048141739,
				"y": -0.814429064,
				"z": 2.3696300237,
				"element": "C" 
			},
			{
				"x": -1.9478313026,
				"y": 0.2003878306,
				"z": 3.0326887526,
				"element": "O" 
			},
			{
				"x": -1.1258913001,
				"y": 1.3662411162,
				"z": 2.8371090886,
				"element": "C" 
			},
			{
				"x": -0.6549013929,
				"y": 1.3566882682,
				"z": 1.3298329863,
				"element": "C" 
			},
			{
				"x": -1.6759320894,
				"y": 2.157527328,
				"z": 0.4901267054,
				"element": "C" 
			},
			{
				"x": -1.6504371517,
				"y": 3.6761273095,
				"z": 0.7760910952,
				"element": "C" 
			},
			{
				"x": -0.3248799455,
				"y": 4.1403516839,
				"z": 1.4074997894,
				"element": "C" 
			},
			{
				"x": 0.9323733963,
				"y": 3.4373214264,
				"z": 0.8514968287,
				"element": "C" 
			},
			{
				"x": 2.1615243874,
				"y": 3.9423680412,
				"z": 1.6433764392,
				"element": "C" 
			},
			{
				"x": 1.2107808158,
				"y": 3.8794335075,
				"z": -0.6024645337,
				"element": "C" 
			},
			{
				"x": 0.2231829986,
				"y": 3.381548938,
				"z": -1.5282147863,
				"element": "O" 
			},
			{
				"x": 0.5324486108,
				"y": 3.4853742046,
				"z": -2.8479969297,
				"element": "C" 
			},
			{
				"x": -0.5064830619,
				"y": 2.7918487863,
				"z": -3.694747555,
				"element": "C" 
			},
			{
				"x": 1.5270197372,
				"y": 4.0429197528,
				"z": -3.2548358181,
				"element": "O" 
			},
			{
				"x": 0.8130403324,
				"y": 1.8706397622,
				"z": 1.0659803197,
				"element": "C" 
			},
			{
				"x": 1.5572147262,
				"y": 1.0718515331,
				"z": -0.0469458235,
				"element": "C" 
			},
			{
				"x": 1.610098229,
				"y": -0.3950451892,
				"z": 0.3375967273,
				"element": "C" 
			},
			{
				"x": 2.4511194151,
				"y": -1.1808766627,
				"z": -0.5054811797,
				"element": "O" 
			},
			{
				"x": 2.5271988888,
				"y": -2.564375246,
				"z": -0.1397924819,
				"element": "C" 
			},
			{
				"x": 3.0685772454,
				"y": -3.2803747306,
				"z": -1.3687682626,
				"element": "C" 
			},
			{
				"x": 3.4329547059,
				"y": -2.7606415774,
				"z": 1.084578945,
				"element": "C" 
			},
			{
				"x": 1.2280217718,
				"y": -3.1530242775,
				"z": 0.1016960694,
				"element": "O" 
			},
			{
				"x": 0.3705283343,
				"y": -2.4179633287,
				"z": 0.982054326,
				"element": "C" 
			},
			{
				"x": 0.234240475,
				"y": -1.0202286404,
				"z": 0.3540993835,
				"element": "C" 
			},
			{
				"x": -0.8440160666,
				"y": -0.164133702,
				"z": 1.0460960418,
				"element": "C" 
			},
			{
				"x": -0.4697742543,
				"y": -1.4346965884,
				"z": -0.9526179014,
				"element": "C" 
			},
			{
				"x": -0.364254512,
				"y": -0.9484260655,
				"z": -2.0563840049,
				"element": "O" 
			},
			{
				"x": -0.4820642804,
				"y": -4.2433419702,
				"z": -1.485960398,
				"element": "H" 
			},
			{
				"x": -2.2383122607,
				"y": -4.4458959417,
				"z": -1.3120918828,
				"element": "H" 
			},
			{
				"x": -1.5863683582,
				"y": -3.3578572526,
				"z": -2.5545699907,
				"element": "H" 
			},
			{
				"x": -2.482727915,
				"y": -2.1125320371,
				"z": -0.5820411533,
				"element": "H" 
			},
			{
				"x": -1.1566653896,
				"y": -3.9984751653,
				"z": 1.0835149153,
				"element": "H" 
			},
			{
				"x": -2.9134385912,
				"y": -1.988059755,
				"z": 1.7423065005,
				"element": "H" 
			},
			{
				"x": -1.9201141097,
				"y": -2.7913885793,
				"z": 2.960623785,
				"element": "H" 
			},
			{
				"x": -0.2951830827,
				"y": -0.9959197504,
				"z": 2.9663460408,
				"element": "H" 
			},
			{
				"x": -0.2562142587,
				"y": 1.3228548292,
				"z": 3.5141882609,
				"element": "H" 
			},
			{
				"x": -1.7343461467,
				"y": 2.231178573,
				"z": 3.1064461984,
				"element": "H" 
			},
			{
				"x": -1.4666542769,
				"y": 1.9782785632,
				"z": -0.5672581973,
				"element": "H" 
			},
			{
				"x": -2.6760008115,
				"y": 1.7558449834,
				"z": 0.6906110349,
				"element": "H" 
			},
			{
				"x": -1.8257494215,
				"y": 4.2165801906,
				"z": -0.1581854617,
				"element": "H" 
			},
			{
				"x": -2.4708917716,
				"y": 3.9534777589,
				"z": 1.4482716414,
				"element": "H" 
			},
			{
				"x": -0.3521112091,
				"y": 3.9598010037,
				"z": 2.4898579593,
				"element": "H" 
			},
			{
				"x": -0.214306692,
				"y": 5.2261274217,
				"z": 1.293662292,
				"element": "H" 
			},
			{
				"x": 2.0172373859,
				"y": 3.7861285478,
				"z": 2.7169804406,
				"element": "H" 
			},
			{
				"x": 3.0746793679,
				"y": 3.4143466153,
				"z": 1.3469810165,
				"element": "H" 
			},
			{
				"x": 2.3298565245,
				"y": 5.0135245558,
				"z": 1.484058229,
				"element": "H" 
			},
			{
				"x": 1.2105423804,
				"y": 4.9744397387,
				"z": -0.6510455297,
				"element": "H" 
			},
			{
				"x": 2.194826422,
				"y": 3.5461060293,
				"z": -0.9404449237,
				"element": "H" 
			},
			{
				"x": -0.4717480443,
				"y": 1.7136736691,
				"z": -3.5029960793,
				"element": "H" 
			},
			{
				"x": -0.3035289269,
				"y": 2.9846755952,
				"z": -4.7477857337,
				"element": "H" 
			},
			{
				"x": -1.5097296819,
				"y": 3.1403619507,
				"z": -3.4340646959,
				"element": "H" 
			},
			{
				"x": 1.3680053036,
				"y": 1.6641073327,
				"z": 1.9928460254,
				"element": "H" 
			},
			{
				"x": 2.5804491812,
				"y": 1.4505875465,
				"z": -0.1447359895,
				"element": "H" 
			},
			{
				"x": 1.0672212978,
				"y": 1.176398213,
				"z": -1.0164266015,
				"element": "H" 
			},
			{
				"x": 2.0006357846,
				"y": -0.437117938,
				"z": 1.3706183711,
				"element": "H" 
			},
			{
				"x": 4.059537835,
				"y": -2.8939860475,
				"z": -1.6188534776,
				"element": "H" 
			},
			{
				"x": 3.138147648,
				"y": -4.3546127485,
				"z": -1.1810806421,
				"element": "H" 
			},
			{
				"x": 2.3973279908,
				"y": -3.102857028,
				"z": -2.2113059931,
				"element": "H" 
			},
			{
				"x": 4.4300838728,
				"y": -2.3688017814,
				"z": 0.867859379,
				"element": "H" 
			},
			{
				"x": 3.5128430448,
				"y": -3.8255268001,
				"z": 1.3180355406,
				"element": "H" 
			},
			{
				"x": 3.0571359134,
				"y": -2.2481280029,
				"z": 1.9734265976,
				"element": "H" 
			},
			{
				"x": 0.7843964502,
				"y": -2.4245803822,
				"z": 1.9958570484,
				"element": "H" 
			},
			{
				"x": -1.7624776547,
				"y": -0.2224776688,
				"z": 0.4521371839,
				"element": "H" 
			}
		],
		 "valence_orbital": [ 
			{
				"type": "occ",
				"energy": -0.26848,
				"method": "rhf"
			},
			{
				"type": "occ",
				"energy": -0.26607,
				"method": "rhf"
			},
			{
				"type": "occ",
				"energy": -0.26154,
				"method": "rhf"
			},
			{
				"type": "occ",
				"energy": -0.25247,
				"method": "rhf"
			},
			{
				"type": "occ",
				"energy": -0.23055,
				"method": "rhf"
			},
			{
				"type": "unocc",
				"energy": -0.00901,
				"method": "rhf"
			},
			{
				"type": "unocc",
				"energy": 0.01692,
				"method": "rhf"
			},
			{
				"type": "unocc",
				"energy": 0.05882,
				"method": "rhf"
			},
			{
				"type": "unocc",
				"energy": 0.06746,
				"method": "rhf"
			},
			{
				"type": "unocc",
				"energy": 0.07655,
				"method": "rhf"
			}
		],
		"cosmo_sigma_profile": { 
			"-0.025": 0.0,
			"-0.024": 0.0,
			"-0.023": 0.0,
			"-0.022": 0.0,
			"-0.021": 0.0,
			"-0.02": 0.0,
			"-0.019": 0.0,
			"-0.018": 0.0,
			"-0.017": 0.0,
			"-0.016": 0.0,
			"-0.015": 0.0,
			"-0.014": 0.0,
			"-0.013": 0.0,
			"-0.012": 0.0,
			"-0.011": 0.0,
			"-0.01": 0.0,
			"-0.009": 0.0225568441532,
			"-0.008": 1.02123291994,
			"-0.007": 3.75451884431,
			"-0.006": 9.62779523635,
			"-0.005": 20.1429106204,
			"-0.004": 47.5752861314,
			"-0.003": 59.7645732479,
			"-0.002": 57.0700157422,
			"-0.001": 54.1619746493,
			"0.0": 48.3348075523,
			"0.001": 39.8453143747,
			"0.002": 17.0391797163,
			"0.003": 13.0697857755,
			"0.004": 8.9432125479,
			"0.005": 8.50925217267,
			"0.006": 8.0488654004,
			"0.007": 6.16030693692,
			"0.008": 5.97586149361,
			"0.009": 6.35202341253,
			"0.01": 6.21946115265,
			"0.011": 9.29489699512,
			"0.012": 9.78038575638,
			"0.013": 4.03342372249,
			"0.014": 0.745128809541,
			"0.015": 0.0,
			"0.016": 0.0,
			"0.017": 0.0,
			"0.018": 0.0,
			"0.019": 0.0,
			"0.02": 0.0,
			"0.021": 0.0,
			"0.022": 0.0,
			"0.023": 0.0,
			"0.024": 0.0,
			"0.025": 0.0
		}
	}
}
