{
	 "smiles": "[O-][N+](=O)C1=CC=C(C=C1)S(=O)(=O)N1CCOCC1", 
	 "Tm": 447.15, 
	 "num_atms": 30, 
	 "gaussian": { 
		 "optdone": 1, 
		 "sigma_profile": "yes", 
		 "theory": "DFT", 
		 "functional": "B3LYP", 
		 "basiset": "6-31G**", 
		 "properties": { 
			 "R2extent": 6288.3339, 
			 "electric_dipole_moment_norm": 3.11484811829, 
			 "electric_quadrupole_moment_norm": 23.0757749805, 
			 "total_energy": -1271.9113569, 
			 "HOMO_LUMO_gap": 0.14294, 
			 "cosmo_polarized_energy": -18.16, 
			 "cosmo_cavitation_energy": 35.15, 
			 "cosmo_dispersion_energy": -25.04, 
			 "cosmo_repulsion_energy": 1.88, 
			 "cosmo_total_nonelectrostatic_energy": 11.98, 
			 "SMD_solvation_energy": 6.64 
		},
		"coords": [
			{
				"x": -1.6148375328,
				"y": 4.0137033063,
				"z": -0.3736983987,
				"element": "O" 
			},
			{
				"x": -0.5926185735,
				"y": 3.377339988,
				"z": -0.1258245459,
				"element": "N" 
			},
			{
				"x": 0.3643227105,
				"y": 3.801109932,
				"z": 0.5191714321,
				"element": "O" 
			},
			{
				"x": -0.5094151089,
				"y": 1.9965262459,
				"z": -0.6390339995,
				"element": "C" 
			},
			{
				"x": 0.6391405094,
				"y": 1.2519266733,
				"z": -0.3773516785,
				"element": "C" 
			},
			{
				"x": 0.7139477108,
				"y": -0.0522650119,
				"z": -0.8598718721,
				"element": "C" 
			},
			{
				"x": -0.3595339637,
				"y": -0.5796073782,
				"z": -1.5844256614,
				"element": "C" 
			},
			{
				"x": -1.4977881908,
				"y": 0.1852936184,
				"z": -1.8578285096,
				"element": "C" 
			},
			{
				"x": -1.5772601046,
				"y": 1.4899939939,
				"z": -1.3774249918,
				"element": "C" 
			},
			{
				"x": -0.2789714925,
				"y": -2.2884311758,
				"z": -2.1700281053,
				"element": "S" 
			},
			{
				"x": -1.1910871342,
				"y": -2.3723068699,
				"z": -3.3114822512,
				"element": "O" 
			},
			{
				"x": 1.142967537,
				"y": -2.6234122294,
				"z": -2.2582276393,
				"element": "O" 
			},
			{
				"x": -0.9208342792,
				"y": -3.2519153818,
				"z": -0.9772888741,
				"element": "N" 
			},
			{
				"x": -0.1246798238,
				"y": -3.6988469142,
				"z": 0.1739786672,
				"element": "C" 
			},
			{
				"x": -0.7148169784,
				"y": -3.1384556714,
				"z": 1.4697555861,
				"element": "C" 
			},
			{
				"x": -2.0962124707,
				"y": -3.4568728662,
				"z": 1.5813834523,
				"element": "O" 
			},
			{
				"x": -2.8493374675,
				"y": -2.907256493,
				"z": 0.5076834735,
				"element": "C" 
			},
			{
				"x": -2.3692806388,
				"y": -3.455701523,
				"z": -0.8376956148,
				"element": "C" 
			},
			{
				"x": 1.4491665397,
				"y": 1.700133228,
				"z": 0.1841433692,
				"element": "H" 
			},
			{
				"x": 1.6045235695,
				"y": -0.6501006434,
				"z": -0.702776222,
				"element": "H" 
			},
			{
				"x": -2.2954249444,
				"y": -0.2312669431,
				"z": -2.4623715684,
				"element": "H" 
			},
			{
				"x": -2.4382403229,
				"y": 2.1176595361,
				"z": -1.5699350022,
				"element": "H" 
			},
			{
				"x": 0.9154220388,
				"y": -3.3995015485,
				"z": 0.0348740413,
				"element": "H" 
			},
			{
				"x": -0.1561692978,
				"y": -4.7959314464,
				"z": 0.2008709883,
				"element": "H" 
			},
			{
				"x": -0.5717854469,
				"y": -2.0458088318,
				"z": 1.505130556,
				"element": "H" 
			},
			{
				"x": -0.2214610121,
				"y": -3.5828029582,
				"z": 2.3391366789,
				"element": "H" 
			},
			{
				"x": -3.8924833925,
				"y": -3.1851707496,
				"z": 0.6845578947,
				"element": "H" 
			},
			{
				"x": -2.7732219678,
				"y": -1.8073723106,
				"z": 0.5129319921,
				"element": "H" 
			},
			{
				"x": -2.5645954188,
				"y": -4.5350315527,
				"z": -0.8847411569,
				"element": "H" 
			},
			{
				"x": -2.884835053,
				"y": -2.9877280229,
				"z": -1.6779120399,
				"element": "H" 
			}
		],
		 "valence_orbital": [ 
			{
				"type": "occ",
				"energy": -0.30844,
				"method": "rhf"
			},
			{
				"type": "occ",
				"energy": -0.30534,
				"method": "rhf"
			},
			{
				"type": "occ",
				"energy": -0.29891,
				"method": "rhf"
			},
			{
				"type": "occ",
				"energy": -0.29494,
				"method": "rhf"
			},
			{
				"type": "occ",
				"energy": -0.25149,
				"method": "rhf"
			},
			{
				"type": "unocc",
				"energy": -0.10855,
				"method": "rhf"
			},
			{
				"type": "unocc",
				"energy": -0.04965,
				"method": "rhf"
			},
			{
				"type": "unocc",
				"energy": -0.03104,
				"method": "rhf"
			},
			{
				"type": "unocc",
				"energy": 0.03632,
				"method": "rhf"
			},
			{
				"type": "unocc",
				"energy": 0.06897,
				"method": "rhf"
			}
		],
		"cosmo_sigma_profile": { 
			"-0.025": 0.0,
			"-0.024": 0.0,
			"-0.023": 0.0,
			"-0.022": 0.0,
			"-0.021": 0.0,
			"-0.02": 0.0,
			"-0.019": 0.0,
			"-0.018": 0.0,
			"-0.017": 0.0,
			"-0.016": 0.0,
			"-0.015": 0.0,
			"-0.014": 0.0,
			"-0.013": 0.0,
			"-0.012": 0.0,
			"-0.011": 0.0,
			"-0.01": 0.0,
			"-0.009": 1.53082381624,
			"-0.008": 6.18693979475,
			"-0.007": 10.8354582662,
			"-0.006": 20.649183523,
			"-0.005": 28.1641794232,
			"-0.004": 26.0940114215,
			"-0.003": 26.8965192912,
			"-0.002": 19.3505857736,
			"-0.001": 21.4998612296,
			"0.0": 16.2992913098,
			"0.001": 8.81860574785,
			"0.002": 7.50055013746,
			"0.003": 8.5857945124,
			"0.004": 6.21821987886,
			"0.005": 8.26811516315,
			"0.006": 9.57563571624,
			"0.007": 13.7087799471,
			"0.008": 9.20018491418,
			"0.009": 8.58776304073,
			"0.01": 9.53861512014,
			"0.011": 8.24350397708,
			"0.012": 2.34215279678,
			"0.013": 1.41339696083,
			"0.014": 0.0489620420804,
			"0.015": 0.0,
			"0.016": 0.0,
			"0.017": 0.0,
			"0.018": 0.0,
			"0.019": 0.0,
			"0.02": 0.0,
			"0.021": 0.0,
			"0.022": 0.0,
			"0.023": 0.0,
			"0.024": 0.0,
			"0.025": 0.0
		}
	}
}
