{
	 "smiles": "C1=CC=C2C3=CC=C(C=C3)C=CC3=CC=C(C=C3)C2=C1", 
	 "Tm": 503.15, 
	 "num_atms": 34, 
	 "gaussian": { 
		 "optdone": 1, 
		 "sigma_profile": "yes", 
		 "theory": "DFT", 
		 "functional": "B3LYP", 
		 "basiset": "6-31G**", 
		 "properties": { 
			 "R2extent": 4505.8185, 
			 "electric_dipole_moment_norm": 0.0752937580414, 
			 "electric_quadrupole_moment_norm": 9.80427458663, 
			 "total_energy": -770.491887488, 
			 "HOMO_LUMO_gap": 0.19204, 
			 "cosmo_polarized_energy": -5.7, 
			 "cosmo_cavitation_energy": 34.47, 
			 "cosmo_dispersion_energy": -24.63, 
			 "cosmo_repulsion_energy": 1.81, 
			 "cosmo_total_nonelectrostatic_energy": 11.65, 
			 "SMD_solvation_energy": 4.94 
		},
		"coords": [
			{
				"x": -0.4848987747,
				"y": 3.7743306211,
				"z": 1.5105933379,
				"element": "C" 
			},
			{
				"x": 0.8699913556,
				"y": 3.5796390399,
				"z": 1.7697205262,
				"element": "C" 
			},
			{
				"x": 1.4473471794,
				"y": 2.3249550202,
				"z": 1.5553567386,
				"element": "C" 
			},
			{
				"x": 0.6873567208,
				"y": 1.2518593262,
				"z": 1.0822799661,
				"element": "C" 
			},
			{
				"x": 1.2569695442,
				"y": -0.1176260239,
				"z": 0.8349687068,
				"element": "C" 
			},
			{
				"x": 1.6244561717,
				"y": -0.5088784318,
				"z": -0.4612742992,
				"element": "C" 
			},
			{
				"x": 1.5099416273,
				"y": -1.8426994516,
				"z": -0.856581324,
				"element": "C" 
			},
			{
				"x": 1.0210999037,
				"y": -2.8084640667,
				"z": 0.0365582763,
				"element": "C" 
			},
			{
				"x": 0.9894673991,
				"y": -2.4657372422,
				"z": 1.397048674,
				"element": "C" 
			},
			{
				"x": 1.1042922555,
				"y": -1.1318883307,
				"z": 1.7922189186,
				"element": "C" 
			},
			{
				"x": 0.1944431115,
				"y": -3.9545051902,
				"z": -0.4713837486,
				"element": "C" 
			},
			{
				"x": -1.1207234866,
				"y": -3.7654124569,
				"z": -0.7233641171,
				"element": "C" 
			},
			{
				"x": -1.7299768566,
				"y": -2.4129338662,
				"z": -0.4903905505,
				"element": "C" 
			},
			{
				"x": -1.5796775225,
				"y": -1.3983890633,
				"z": -1.4482473343,
				"element": "C" 
			},
			{
				"x": -1.461826571,
				"y": -0.0650611489,
				"z": -1.0521743358,
				"element": "C" 
			},
			{
				"x": -1.4969041794,
				"y": 0.27824958,
				"z": 0.3077138744,
				"element": "C" 
			},
			{
				"x": -1.9833737553,
				"y": -0.688069235,
				"z": 1.2009866455,
				"element": "C" 
			},
			{
				"x": -2.1009849142,
				"y": -2.0214672451,
				"z": 0.8051805324,
				"element": "C" 
			},
			{
				"x": -0.7061614761,
				"y": 1.452120912,
				"z": 0.8156189024,
				"element": "C" 
			},
			{
				"x": -1.263279779,
				"y": 2.7145115985,
				"z": 1.0368447282,
				"element": "C" 
			},
			{
				"x": -0.9392543534,
				"y": 4.7472717544,
				"z": 1.6753896328,
				"element": "H" 
			},
			{
				"x": 1.480051655,
				"y": 4.3996199654,
				"z": 2.1380536752,
				"element": "H" 
			},
			{
				"x": 2.5039518323,
				"y": 2.1723240022,
				"z": 1.7573523778,
				"element": "H" 
			},
			{
				"x": 1.827114626,
				"y": 0.250443796,
				"z": -1.2119109779,
				"element": "H" 
			},
			{
				"x": 1.6220739293,
				"y": -2.0937439769,
				"z": -1.9079804484,
				"element": "H" 
			},
			{
				"x": 0.6895564234,
				"y": -3.2100983746,
				"z": 2.1298575786,
				"element": "H" 
			},
			{
				"x": 0.8953934686,
				"y": -0.8656332853,
				"z": 2.8249636009,
				"element": "H" 
			},
			{
				"x": 0.6356298404,
				"y": -4.9363337182,
				"z": -0.6408823473,
				"element": "H" 
			},
			{
				"x": -1.7196399007,
				"y": -4.5976872936,
				"z": -1.0921207227,
				"element": "H" 
			},
			{
				"x": -1.3674423685,
				"y": -1.6637338525,
				"z": -2.4805172022,
				"element": "H" 
			},
			{
				"x": -1.1642532657,
				"y": 0.6807125828,
				"z": -1.784544033,
				"element": "H" 
			},
			{
				"x": -2.0985246531,
				"y": -0.435375286,
				"z": 2.2516943618,
				"element": "H" 
			},
			{
				"x": -2.3013757707,
				"y": -2.780165384,
				"z": 1.557015451,
				"element": "H" 
			},
			{
				"x": -2.3200394161,
				"y": 2.8656647251,
				"z": 0.8345549357,
				"element": "H" 
			}
		],
		 "valence_orbital": [ 
			{
				"type": "occ",
				"energy": -0.24861,
				"method": "rhf"
			},
			{
				"type": "occ",
				"energy": -0.2421,
				"method": "rhf"
			},
			{
				"type": "occ",
				"energy": -0.23986,
				"method": "rhf"
			},
			{
				"type": "occ",
				"energy": -0.22199,
				"method": "rhf"
			},
			{
				"type": "occ",
				"energy": -0.21498,
				"method": "rhf"
			},
			{
				"type": "unocc",
				"energy": -0.02294,
				"method": "rhf"
			},
			{
				"type": "unocc",
				"energy": -0.02024,
				"method": "rhf"
			},
			{
				"type": "unocc",
				"energy": -0.00889,
				"method": "rhf"
			},
			{
				"type": "unocc",
				"energy": 0.00221,
				"method": "rhf"
			},
			{
				"type": "unocc",
				"energy": 0.00564,
				"method": "rhf"
			}
		],
		"cosmo_sigma_profile": { 
			"-0.025": 0.0,
			"-0.024": 0.0,
			"-0.023": 0.0,
			"-0.022": 0.0,
			"-0.021": 0.0,
			"-0.02": 0.0,
			"-0.019": 0.0,
			"-0.018": 0.0,
			"-0.017": 0.0,
			"-0.016": 0.0,
			"-0.015": 0.0,
			"-0.014": 0.0,
			"-0.013": 0.0,
			"-0.012": 0.0,
			"-0.011": 0.0,
			"-0.01": 0.0,
			"-0.009": 0.0,
			"-0.008": 0.0,
			"-0.007": 0.0,
			"-0.006": 5.56550193708,
			"-0.005": 23.2784448537,
			"-0.004": 25.2756663633,
			"-0.003": 27.2195839857,
			"-0.002": 23.5429949113,
			"-0.001": 25.5022987853,
			"0.0": 25.0258124602,
			"0.001": 24.5972634131,
			"0.002": 20.1017765101,
			"0.003": 18.3032457944,
			"0.004": 17.8064972282,
			"0.005": 20.031825764,
			"0.006": 18.8878256596,
			"0.007": 0.31850339702,
			"0.008": 0.0,
			"0.009": 0.0,
			"0.01": 0.0,
			"0.011": 0.0,
			"0.012": 0.0,
			"0.013": 0.0,
			"0.014": 0.0,
			"0.015": 0.0,
			"0.016": 0.0,
			"0.017": 0.0,
			"0.018": 0.0,
			"0.019": 0.0,
			"0.02": 0.0,
			"0.021": 0.0,
			"0.022": 0.0,
			"0.023": 0.0,
			"0.024": 0.0,
			"0.025": 0.0
		}
	}
}
