{
	 "smiles": "CCOC(=O)C1=C(C)OC(=O)C=C1C", 
	 "Tm": 290.65, 
	 "num_atms": 26, 
	 "gaussian": { 
		 "optdone": 1, 
		 "sigma_profile": "yes", 
		 "theory": "DFT", 
		 "functional": "B3LYP", 
		 "basiset": "6-31G**", 
		 "properties": { 
			 "R2extent": 3836.3566, 
			 "electric_dipole_moment_norm": 4.95303186745, 
			 "electric_quadrupole_moment_norm": 18.0064544961, 
			 "total_energy": -689.206486484, 
			 "HOMO_LUMO_gap": 0.17979, 
			 "cosmo_polarized_energy": -11.66, 
			 "cosmo_cavitation_energy": 29.78, 
			 "cosmo_dispersion_energy": -21.3, 
			 "cosmo_repulsion_energy": 1.69, 
			 "cosmo_total_nonelectrostatic_energy": 10.17, 
			 "SMD_solvation_energy": 7.61 
		},
		"coords": [
			{
				"x": -0.1945625601,
				"y": -2.5944041847,
				"z": -1.3219990065,
				"element": "C" 
			},
			{
				"x": -0.8840382327,
				"y": -1.3159712535,
				"z": -1.7732913539,
				"element": "C" 
			},
			{
				"x": -0.3577142445,
				"y": -0.1585467148,
				"z": -1.0772252381,
				"element": "O" 
			},
			{
				"x": -0.9100417249,
				"y": 0.126632082,
				"z": 0.1243541187,
				"element": "C" 
			},
			{
				"x": -1.7841369993,
				"y": -0.5611610895,
				"z": 0.6235500939,
				"element": "O" 
			},
			{
				"x": -0.3197553151,
				"y": 1.3344571172,
				"z": 0.7614749984,
				"element": "C" 
			},
			{
				"x": -0.4321097846,
				"y": 1.4444767361,
				"z": 2.1323812553,
				"element": "C" 
			},
			{
				"x": -1.0891304022,
				"y": 0.4884323643,
				"z": 3.0833007086,
				"element": "C" 
			},
			{
				"x": 0.0796929186,
				"y": 2.4913107609,
				"z": 2.7960977894,
				"element": "O" 
			},
			{
				"x": 0.7562956957,
				"y": 3.5755669539,
				"z": 2.1744521232,
				"element": "C" 
			},
			{
				"x": 1.1658296863,
				"y": 4.4498077312,
				"z": 2.8976789315,
				"element": "O" 
			},
			{
				"x": 0.8473111243,
				"y": 3.4663528337,
				"z": 0.7435548098,
				"element": "C" 
			},
			{
				"x": 0.3507035621,
				"y": 2.4082915716,
				"z": 0.039512724,
				"element": "C" 
			},
			{
				"x": 0.4899802258,
				"y": 2.424606348,
				"z": -1.4624650879,
				"element": "C" 
			},
			{
				"x": -0.4178981713,
				"y": -2.8010989578,
				"z": -0.2728172243,
				"element": "H" 
			},
			{
				"x": 0.889538733,
				"y": -2.5184549646,
				"z": -1.4472967174,
				"element": "H" 
			},
			{
				"x": -0.5512491538,
				"y": -3.4382729454,
				"z": -1.9218229272,
				"element": "H" 
			},
			{
				"x": -1.961975447,
				"y": -1.3680874427,
				"z": -1.6055166298,
				"element": "H" 
			},
			{
				"x": -0.688380338,
				"y": -1.1064682705,
				"z": -2.8277284137,
				"element": "H" 
			},
			{
				"x": -0.7732803439,
				"y": 0.7341193055,
				"z": 4.098403767,
				"element": "H" 
			},
			{
				"x": -2.177743952,
				"y": 0.5712483158,
				"z": 3.0127590735,
				"element": "H" 
			},
			{
				"x": -0.8464767928,
				"y": -0.5475988121,
				"z": 2.8449714164,
				"element": "H" 
			},
			{
				"x": 1.3376726991,
				"y": 4.2934378804,
				"z": 0.2437601836,
				"element": "H" 
			},
			{
				"x": 1.1501096953,
				"y": 1.6245091781,
				"z": -1.8056092052,
				"element": "H" 
			},
			{
				"x": -0.4733399322,
				"y": 2.264577315,
				"z": -1.9544667007,
				"element": "H" 
			},
			{
				"x": 0.8960990541,
				"y": 3.3846381419,
				"z": -1.7883134884,
				"element": "H" 
			}
		],
		 "valence_orbital": [ 
			{
				"type": "occ",
				"energy": -0.31481,
				"method": "rhf"
			},
			{
				"type": "occ",
				"energy": -0.30681,
				"method": "rhf"
			},
			{
				"type": "occ",
				"energy": -0.28321,
				"method": "rhf"
			},
			{
				"type": "occ",
				"energy": -0.27398,
				"method": "rhf"
			},
			{
				"type": "occ",
				"energy": -0.23636,
				"method": "rhf"
			},
			{
				"type": "unocc",
				"energy": -0.05657,
				"method": "rhf"
			},
			{
				"type": "unocc",
				"energy": -0.03652,
				"method": "rhf"
			},
			{
				"type": "unocc",
				"energy": 0.04648,
				"method": "rhf"
			},
			{
				"type": "unocc",
				"energy": 0.09256,
				"method": "rhf"
			},
			{
				"type": "unocc",
				"energy": 0.1039,
				"method": "rhf"
			}
		],
		"cosmo_sigma_profile": { 
			"-0.025": 0.0,
			"-0.024": 0.0,
			"-0.023": 0.0,
			"-0.022": 0.0,
			"-0.021": 0.0,
			"-0.02": 0.0,
			"-0.019": 0.0,
			"-0.018": 0.0,
			"-0.017": 0.0,
			"-0.016": 0.0,
			"-0.015": 0.0,
			"-0.014": 0.0,
			"-0.013": 0.0,
			"-0.012": 0.0,
			"-0.011": 0.0,
			"-0.01": 0.0,
			"-0.009": 0.0,
			"-0.008": 0.18313769292,
			"-0.007": 2.43258449011,
			"-0.006": 7.10384042534,
			"-0.005": 16.7957366046,
			"-0.004": 26.4586007156,
			"-0.003": 28.6056021429,
			"-0.002": 30.0415665616,
			"-0.001": 29.1521078647,
			"0.0": 24.6157120336,
			"0.001": 13.1137910192,
			"0.002": 8.87442821088,
			"0.003": 4.63433608393,
			"0.004": 4.4977861558,
			"0.005": 3.839980694,
			"0.006": 4.2340674134,
			"0.007": 3.57170412687,
			"0.008": 2.66782497543,
			"0.009": 4.02574161823,
			"0.01": 4.14265631262,
			"0.011": 5.65377117312,
			"0.012": 8.44290342846,
			"0.013": 2.58032108664,
			"0.014": 0.0124300769315,
			"0.015": 0.0,
			"0.016": 0.0,
			"0.017": 0.0,
			"0.018": 0.0,
			"0.019": 0.0,
			"0.02": 0.0,
			"0.021": 0.0,
			"0.022": 0.0,
			"0.023": 0.0,
			"0.024": 0.0,
			"0.025": 0.0
		}
	}
}
