{
	 "smiles": "CC(C)(NC1=CC=CC=C1)C#N", 
	 "Tm": 363.15, 
	 "num_atms": 24, 
	 "gaussian": { 
		 "optdone": 1, 
		 "sigma_profile": "yes", 
		 "theory": "DFT", 
		 "functional": "B3LYP", 
		 "basiset": "6-31G**", 
		 "properties": { 
			 "R2extent": 2852.0973, 
			 "electric_dipole_moment_norm": 2.8854480432, 
			 "electric_quadrupole_moment_norm": 17.8036543518, 
			 "total_energy": -497.780728133, 
			 "HOMO_LUMO_gap": 0.2245, 
			 "cosmo_polarized_energy": -11.3, 
			 "cosmo_cavitation_energy": 27.58, 
			 "cosmo_dispersion_energy": -18.92, 
			 "cosmo_repulsion_energy": 1.51, 
			 "cosmo_total_nonelectrostatic_energy": 10.18, 
			 "SMD_solvation_energy": 5.12 
		},
		"coords": [
			{
				"x": 1.8385568128,
				"y": -3.5436084317,
				"z": -0.3819612605,
				"element": "C" 
			},
			{
				"x": 0.5165195415,
				"y": -2.8289289868,
				"z": -0.040308655,
				"element": "C" 
			},
			{
				"x": -0.5279362587,
				"y": -3.0894121996,
				"z": -1.1388369265,
				"element": "C" 
			},
			{
				"x": 0.8206275573,
				"y": -1.3850080207,
				"z": 0.0883256762,
				"element": "N" 
			},
			{
				"x": -0.2300120912,
				"y": -0.4762398756,
				"z": 0.4440034594,
				"element": "C" 
			},
			{
				"x": -0.419163289,
				"y": -0.0701086948,
				"z": 1.7723237839,
				"element": "C" 
			},
			{
				"x": -1.4081266551,
				"y": 0.8604996059,
				"z": 2.0933161656,
				"element": "C" 
			},
			{
				"x": -2.2319638874,
				"y": 1.382894486,
				"z": 1.0953564372,
				"element": "C" 
			},
			{
				"x": -2.0487004711,
				"y": 0.9814501161,
				"z": -0.2298209247,
				"element": "C" 
			},
			{
				"x": -1.0462441472,
				"y": 0.0689775395,
				"z": -0.5572509736,
				"element": "C" 
			},
			{
				"x": 0.0061438795,
				"y": -3.3782433852,
				"z": 1.2507728635,
				"element": "C" 
			},
			{
				"x": -0.3627879214,
				"y": -3.7677611706,
				"z": 2.2812744358,
				"element": "N" 
			},
			{
				"x": 2.2239018657,
				"y": -3.1432437196,
				"z": -1.3230911912,
				"element": "H" 
			},
			{
				"x": 2.5869254757,
				"y": -3.3821438667,
				"z": 0.4003427016,
				"element": "H" 
			},
			{
				"x": 1.6822539187,
				"y": -4.6203815857,
				"z": -0.483544496,
				"element": "H" 
			},
			{
				"x": -0.7007607277,
				"y": -4.1641339812,
				"z": -1.2401086086,
				"element": "H" 
			},
			{
				"x": -1.4803123615,
				"y": -2.6091411859,
				"z": -0.9082325645,
				"element": "H" 
			},
			{
				"x": -0.1530386048,
				"y": -2.6981439088,
				"z": -2.0886527291,
				"element": "H" 
			},
			{
				"x": 1.5842687868,
				"y": -1.2873484787,
				"z": 0.7523180766,
				"element": "H" 
			},
			{
				"x": 0.2040489172,
				"y": -0.4940279565,
				"z": 2.555214385,
				"element": "H" 
			},
			{
				"x": -1.5405158132,
				"y": 1.1675355628,
				"z": 3.1267538042,
				"element": "H" 
			},
			{
				"x": -3.0056647661,
				"y": 2.1023911138,
				"z": 1.3463122375,
				"element": "H" 
			},
			{
				"x": -2.674551439,
				"y": 1.3953508433,
				"z": -1.0153947213,
				"element": "H" 
			},
			{
				"x": -0.869868322,
				"y": -0.2092238194,
				"z": -1.5909109756,
				"element": "H" 
			}
		],
		 "valence_orbital": [ 
			{
				"type": "occ",
				"energy": -0.32663,
				"method": "rhf"
			},
			{
				"type": "occ",
				"energy": -0.31869,
				"method": "rhf"
			},
			{
				"type": "occ",
				"energy": -0.27879,
				"method": "rhf"
			},
			{
				"type": "occ",
				"energy": -0.25277,
				"method": "rhf"
			},
			{
				"type": "occ",
				"energy": -0.23031,
				"method": "rhf"
			},
			{
				"type": "unocc",
				"energy": -0.00581,
				"method": "rhf"
			},
			{
				"type": "unocc",
				"energy": -0.00468,
				"method": "rhf"
			},
			{
				"type": "unocc",
				"energy": 0.03634,
				"method": "rhf"
			},
			{
				"type": "unocc",
				"energy": 0.04076,
				"method": "rhf"
			},
			{
				"type": "unocc",
				"energy": 0.07099,
				"method": "rhf"
			}
		],
		"cosmo_sigma_profile": { 
			"-0.025": 0.0,
			"-0.024": 0.0,
			"-0.023": 0.0,
			"-0.022": 0.0,
			"-0.021": 0.0,
			"-0.02": 0.0,
			"-0.019": 0.0,
			"-0.018": 0.0,
			"-0.017": 0.0,
			"-0.016": 0.0,
			"-0.015": 0.0,
			"-0.014": 0.0,
			"-0.013": 0.0629579515105,
			"-0.012": 1.30209512711,
			"-0.011": 1.41112463721,
			"-0.01": 1.7253204123,
			"-0.009": 1.52474416694,
			"-0.008": 2.19971535084,
			"-0.007": 1.5655845882,
			"-0.006": 8.673218186,
			"-0.005": 19.0116911282,
			"-0.004": 21.9279133009,
			"-0.003": 22.9965213816,
			"-0.002": 18.7432979824,
			"-0.001": 22.7068757542,
			"0.0": 12.3544256272,
			"0.001": 7.56206166914,
			"0.002": 8.62006340388,
			"0.003": 8.61011031535,
			"0.004": 11.7518180473,
			"0.005": 12.9213207809,
			"0.006": 9.11543947133,
			"0.007": 3.23288712263,
			"0.008": 3.27245910558,
			"0.009": 4.17284532904,
			"0.01": 3.52994250679,
			"0.011": 3.35841580544,
			"0.012": 3.37959196321,
			"0.013": 2.22878054826,
			"0.014": 0.588548586618,
			"0.015": 0.0,
			"0.016": 0.0,
			"0.017": 0.0,
			"0.018": 0.0,
			"0.019": 0.0,
			"0.02": 0.0,
			"0.021": 0.0,
			"0.022": 0.0,
			"0.023": 0.0,
			"0.024": 0.0,
			"0.025": 0.0
		}
	}
}
