{
	 "smiles": "NC(=S)C1=C(N=CC=C1)N1CCNC(=O)C1", 
	 "Tm": 463.15, 
	 "num_atms": 28, 
	 "gaussian": { 
		 "optdone": 1, 
		 "sigma_profile": "yes", 
		 "theory": "DFT", 
		 "functional": "B3LYP", 
		 "basiset": "6-31G**", 
		 "properties": { 
			 "R2extent": 4511.2428, 
			 "electric_dipole_moment_norm": 6.30122374543, 
			 "electric_quadrupole_moment_norm": 20.5152509271, 
			 "total_energy": -1080.72705569, 
			 "HOMO_LUMO_gap": 0.14156, 
			 "cosmo_polarized_energy": -22.15, 
			 "cosmo_cavitation_energy": 32.3, 
			 "cosmo_dispersion_energy": -23.73, 
			 "cosmo_repulsion_energy": 1.82, 
			 "cosmo_total_nonelectrostatic_energy": 10.38, 
			 "SMD_solvation_energy": 3.45 
		},
		"coords": [
			{
				"x": 0.6327495558,
				"y": 0.9877585991,
				"z": 1.563494462,
				"element": "N" 
			},
			{
				"x": 1.7471324866,
				"y": 0.6344042482,
				"z": 0.897920609,
				"element": "C" 
			},
			{
				"x": 3.2700561213,
				"y": 0.9976841463,
				"z": 1.4890616786,
				"element": "S" 
			},
			{
				"x": 1.531146754,
				"y": -0.1391257573,
				"z": -0.3694237603,
				"element": "C" 
			},
			{
				"x": 0.3488505948,
				"y": -0.1129653351,
				"z": -1.1621605831,
				"element": "C" 
			},
			{
				"x": 0.1585713978,
				"y": -0.931914615,
				"z": -2.1998596998,
				"element": "N" 
			},
			{
				"x": 1.1224801987,
				"y": -1.7949100343,
				"z": -2.536733571,
				"element": "C" 
			},
			{
				"x": 2.3468632281,
				"y": -1.8558627745,
				"z": -1.8795193547,
				"element": "C" 
			},
			{
				"x": 2.5389893653,
				"y": -1.0187864284,
				"z": -0.785573418,
				"element": "C" 
			},
			{
				"x": -0.7146123753,
				"y": 0.7978303535,
				"z": -0.881823695,
				"element": "N" 
			},
			{
				"x": -2.0110604766,
				"y": 0.4556025851,
				"z": -1.4834140717,
				"element": "C" 
			},
			{
				"x": -3.097451531,
				"y": 1.2483599432,
				"z": -0.7658939729,
				"element": "C" 
			},
			{
				"x": -2.7581535189,
				"y": 2.6656684241,
				"z": -0.7374324776,
				"element": "N" 
			},
			{
				"x": -1.5020036194,
				"y": 3.1894090886,
				"z": -0.8446897161,
				"element": "C" 
			},
			{
				"x": -1.2704371746,
				"y": 4.3848233822,
				"z": -0.7345103243,
				"element": "O" 
			},
			{
				"x": -0.3786761934,
				"y": 2.2086491868,
				"z": -1.1783810809,
				"element": "C" 
			},
			{
				"x": -0.2757866891,
				"y": 0.8664554297,
				"z": 1.1243427991,
				"element": "H" 
			},
			{
				"x": 0.7355297695,
				"y": 1.5282585255,
				"z": 2.4098472735,
				"element": "H" 
			},
			{
				"x": 0.9018873077,
				"y": -2.4532424495,
				"z": -3.3749474084,
				"element": "H" 
			},
			{
				"x": 3.1169917798,
				"y": -2.5499900559,
				"z": -2.1981019163,
				"element": "H" 
			},
			{
				"x": 3.4590729036,
				"y": -1.0411835192,
				"z": -0.2116878013,
				"element": "H" 
			},
			{
				"x": -2.022848451,
				"y": 0.6704235875,
				"z": -2.56170417,
				"element": "H" 
			},
			{
				"x": -2.1906987478,
				"y": -0.6133641762,
				"z": -1.3653784887,
				"element": "H" 
			},
			{
				"x": -4.0491810327,
				"y": 1.1173969299,
				"z": -1.2930712203,
				"element": "H" 
			},
			{
				"x": -3.2264204587,
				"y": 0.8578665014,
				"z": 0.2540536376,
				"element": "H" 
			},
			{
				"x": -3.4697157057,
				"y": 3.3410335708,
				"z": -0.4896240672,
				"element": "H" 
			},
			{
				"x": 0.4950055818,
				"y": 2.525862179,
				"z": -0.6089254971,
				"element": "H" 
			},
			{
				"x": -0.1413810706,
				"y": 2.3373584646,
				"z": -2.2472641648,
				"element": "H" 
			}
		],
		 "valence_orbital": [ 
			{
				"type": "occ",
				"energy": -0.26266,
				"method": "rhf"
			},
			{
				"type": "occ",
				"energy": -0.25471,
				"method": "rhf"
			},
			{
				"type": "occ",
				"energy": -0.24396,
				"method": "rhf"
			},
			{
				"type": "occ",
				"energy": -0.22798,
				"method": "rhf"
			},
			{
				"type": "occ",
				"energy": -0.21021,
				"method": "rhf"
			},
			{
				"type": "unocc",
				"energy": -0.06865,
				"method": "rhf"
			},
			{
				"type": "unocc",
				"energy": -0.03158,
				"method": "rhf"
			},
			{
				"type": "unocc",
				"energy": 0.0115,
				"method": "rhf"
			},
			{
				"type": "unocc",
				"energy": 0.01644,
				"method": "rhf"
			},
			{
				"type": "unocc",
				"energy": 0.06539,
				"method": "rhf"
			}
		],
		"cosmo_sigma_profile": { 
			"-0.025": 0.0,
			"-0.024": 0.0,
			"-0.023": 0.0,
			"-0.022": 0.0,
			"-0.021": 0.0,
			"-0.02": 0.0,
			"-0.019": 0.0,
			"-0.018": 0.0,
			"-0.017": 0.0,
			"-0.016": 0.0,
			"-0.015": 0.423996962172,
			"-0.014": 1.8559645881,
			"-0.013": 2.92030421138,
			"-0.012": 1.34596973419,
			"-0.011": 2.46522592279,
			"-0.01": 3.16855850685,
			"-0.009": 2.45706956282,
			"-0.008": 3.47135953143,
			"-0.007": 8.19251823038,
			"-0.006": 18.4265583235,
			"-0.005": 23.6894487203,
			"-0.004": 25.1940630123,
			"-0.003": 17.529492619,
			"-0.002": 13.0662231848,
			"-0.001": 13.1063131601,
			"0.0": 15.1814625074,
			"0.001": 15.3707029569,
			"0.002": 12.3036503861,
			"0.003": 8.62452604046,
			"0.004": 7.1817648483,
			"0.005": 7.73735466178,
			"0.006": 5.78306301915,
			"0.007": 6.86562232729,
			"0.008": 8.87775722082,
			"0.009": 7.19623009355,
			"0.01": 6.02590766042,
			"0.011": 6.43052052057,
			"0.012": 2.95451059029,
			"0.013": 3.62470026761,
			"0.014": 5.96494998269,
			"0.015": 1.49881012255,
			"0.016": 0.0,
			"0.017": 0.0,
			"0.018": 0.0,
			"0.019": 0.0,
			"0.02": 0.0,
			"0.021": 0.0,
			"0.022": 0.0,
			"0.023": 0.0,
			"0.024": 0.0,
			"0.025": 0.0
		}
	}
}
