{
	 "smiles": "CCCCCCCCC(CCCCCCCC)C(O)=O", 
	 "Tm": 311.65, 
	 "num_atms": 56, 
	 "gaussian": { 
		 "optdone": 1, 
		 "sigma_profile": "yes", 
		 "theory": "DFT", 
		 "functional": "B3LYP", 
		 "basiset": "6-31G**", 
		 "properties": { 
			 "R2extent": 11320.4523, 
			 "electric_dipole_moment_norm": 4.38409719441, 
			 "electric_quadrupole_moment_norm": 15.9018129485, 
			 "total_energy": -858.124441681, 
			 "HOMO_LUMO_gap": 0.27283, 
			 "cosmo_polarized_energy": -12.81, 
			 "cosmo_cavitation_energy": 54.51, 
			 "cosmo_dispersion_energy": -35.37, 
			 "cosmo_repulsion_energy": 2.87, 
			 "cosmo_total_nonelectrostatic_energy": 22.01, 
			 "SMD_solvation_energy": 8.12 
		},
		"coords": [
			{
				"x": -1.2902145973,
				"y": -3.2029236816,
				"z": -4.3012701925,
				"element": "C" 
			},
			{
				"x": -0.7255432628,
				"y": -4.15724453,
				"z": -3.2442294802,
				"element": "C" 
			},
			{
				"x": 0.1735417085,
				"y": -3.4589559709,
				"z": -2.2154382187,
				"element": "C" 
			},
			{
				"x": 0.7403155347,
				"y": -4.4164897814,
				"z": -1.1576923919,
				"element": "C" 
			},
			{
				"x": 1.7100547541,
				"y": -3.7715853305,
				"z": -0.1536667491,
				"element": "C" 
			},
			{
				"x": 1.0697645558,
				"y": -2.739505626,
				"z": 0.7863789475,
				"element": "C" 
			},
			{
				"x": 2.0644018078,
				"y": -2.1749003232,
				"z": 1.810548718,
				"element": "C" 
			},
			{
				"x": 1.4472033487,
				"y": -1.2288872826,
				"z": 2.8560300533,
				"element": "C" 
			},
			{
				"x": 0.8312507486,
				"y": 0.0769924869,
				"z": 2.2946920682,
				"element": "C" 
			},
			{
				"x": 1.8839027656,
				"y": 1.0069670771,
				"z": 1.6439499526,
				"element": "C" 
			},
			{
				"x": 1.3530624721,
				"y": 2.3732410496,
				"z": 1.1748240017,
				"element": "C" 
			},
			{
				"x": 0.2596396528,
				"y": 2.2934234475,
				"z": 0.099078084,
				"element": "C" 
			},
			{
				"x": -0.1799026534,
				"y": 3.6626226325,
				"z": -0.450323328,
				"element": "C" 
			},
			{
				"x": -0.8164668686,
				"y": 4.6208162869,
				"z": 0.5728135768,
				"element": "C" 
			},
			{
				"x": -2.0967541289,
				"y": 4.0941336226,
				"z": 1.2363863866,
				"element": "C" 
			},
			{
				"x": -2.754491413,
				"y": 5.1160083589,
				"z": 2.1733054004,
				"element": "C" 
			},
			{
				"x": -4.0158485381,
				"y": 4.5779875798,
				"z": 2.8564095331,
				"element": "C" 
			},
			{
				"x": 0.045998805,
				"y": 0.8139901634,
				"z": 3.3792864165,
				"element": "C" 
			},
			{
				"x": 0.7573297299,
				"y": 1.2154191169,
				"z": 4.4697868367,
				"element": "O" 
			},
			{
				"x": -1.1349554368,
				"y": 1.0593253988,
				"z": 3.3171824518,
				"element": "O" 
			},
			{
				"x": -1.8952219185,
				"y": -2.4137462333,
				"z": -3.8403217399,
				"element": "H" 
			},
			{
				"x": -0.486545329,
				"y": -2.714938971,
				"z": -4.8647162068,
				"element": "H" 
			},
			{
				"x": -1.925652675,
				"y": -3.7311937696,
				"z": -5.0196147064,
				"element": "H" 
			},
			{
				"x": -1.5532741197,
				"y": -4.6552084194,
				"z": -2.721029083,
				"element": "H" 
			},
			{
				"x": -0.1559166553,
				"y": -4.9562944891,
				"z": -3.7382317308,
				"element": "H" 
			},
			{
				"x": -0.3992038088,
				"y": -2.6572568144,
				"z": -1.7303757369,
				"element": "H" 
			},
			{
				"x": 1.0054256065,
				"y": -2.9646395617,
				"z": -2.738553711,
				"element": "H" 
			},
			{
				"x": -0.0899160285,
				"y": -4.8844292021,
				"z": -0.6093692064,
				"element": "H" 
			},
			{
				"x": 1.2621616777,
				"y": -5.2360073925,
				"z": -1.6701944153,
				"element": "H" 
			},
			{
				"x": 2.5371206174,
				"y": -3.298144458,
				"z": -0.7023724181,
				"element": "H" 
			},
			{
				"x": 2.1665798379,
				"y": -4.5641492527,
				"z": 0.4547718482,
				"element": "H" 
			},
			{
				"x": 0.6395408227,
				"y": -1.9217485846,
				"z": 0.1958189589,
				"element": "H" 
			},
			{
				"x": 0.2286014468,
				"y": -3.2071439773,
				"z": 1.3183404515,
				"element": "H" 
			},
			{
				"x": 2.8861587818,
				"y": -1.6720346977,
				"z": 1.2844753608,
				"element": "H" 
			},
			{
				"x": 2.5270304837,
				"y": -3.011204119,
				"z": 2.3512704024,
				"element": "H" 
			},
			{
				"x": 2.224403737,
				"y": -0.9795821076,
				"z": 3.5938837468,
				"element": "H" 
			},
			{
				"x": 0.6697509603,
				"y": -1.7736422399,
				"z": 3.4072171328,
				"element": "H" 
			},
			{
				"x": 0.0761156196,
				"y": -0.1837884017,
				"z": 1.5497265486,
				"element": "H" 
			},
			{
				"x": 2.7111747935,
				"y": 1.1678671863,
				"z": 2.3518859409,
				"element": "H" 
			},
			{
				"x": 2.3252487946,
				"y": 0.478646644,
				"z": 0.7906010569,
				"element": "H" 
			},
			{
				"x": 2.2002866963,
				"y": 2.9522051152,
				"z": 0.7830393368,
				"element": "H" 
			},
			{
				"x": 0.982369242,
				"y": 2.9333355054,
				"z": 2.0421869865,
				"element": "H" 
			},
			{
				"x": -0.613505271,
				"y": 1.7663836512,
				"z": 0.4995691163,
				"element": "H" 
			},
			{
				"x": 0.6301419903,
				"y": 1.6843225199,
				"z": -0.737697244,
				"element": "H" 
			},
			{
				"x": 0.688594446,
				"y": 4.1577571497,
				"z": -0.9069132627,
				"element": "H" 
			},
			{
				"x": -0.895520341,
				"y": 3.4937433021,
				"z": -1.2663884556,
				"element": "H" 
			},
			{
				"x": -0.0850219295,
				"y": 4.8758815137,
				"z": 1.3518407062,
				"element": "H" 
			},
			{
				"x": -1.0422671346,
				"y": 5.5661741265,
				"z": 0.0603267646,
				"element": "H" 
			},
			{
				"x": -2.8160076064,
				"y": 3.8039301968,
				"z": 0.4559317737,
				"element": "H" 
			},
			{
				"x": -1.8807263484,
				"y": 3.1829056876,
				"z": 1.8078172199,
				"element": "H" 
			},
			{
				"x": -2.0281737048,
				"y": 5.4208180099,
				"z": 2.9393267948,
				"element": "H" 
			},
			{
				"x": -2.9992474127,
				"y": 6.0262900987,
				"z": 1.6080687436,
				"element": "H" 
			},
			{
				"x": -3.7887469595,
				"y": 3.6878216997,
				"z": 3.4531847686,
				"element": "H" 
			},
			{
				"x": -4.46117021,
				"y": 5.3245307464,
				"z": 3.5227534361,
				"element": "H" 
			},
			{
				"x": -4.7760069552,
				"y": 4.2959299835,
				"z": 2.1184877029,
				"element": "H" 
			},
			{
				"x": 1.6835298691,
				"y": 0.9489748604,
				"z": 4.3793010521,
				"element": "H" 
			}
		],
		 "valence_orbital": [ 
			{
				"type": "occ",
				"energy": -0.30886,
				"method": "rhf"
			},
			{
				"type": "occ",
				"energy": -0.30445,
				"method": "rhf"
			},
			{
				"type": "occ",
				"energy": -0.30151,
				"method": "rhf"
			},
			{
				"type": "occ",
				"energy": -0.29701,
				"method": "rhf"
			},
			{
				"type": "occ",
				"energy": -0.26224,
				"method": "rhf"
			},
			{
				"type": "unocc",
				"energy": 0.01059,
				"method": "rhf"
			},
			{
				"type": "unocc",
				"energy": 0.04124,
				"method": "rhf"
			},
			{
				"type": "unocc",
				"energy": 0.07816,
				"method": "rhf"
			},
			{
				"type": "unocc",
				"energy": 0.08735,
				"method": "rhf"
			},
			{
				"type": "unocc",
				"energy": 0.09353,
				"method": "rhf"
			}
		],
		"cosmo_sigma_profile": { 
			"-0.025": 0.0,
			"-0.024": 0.0,
			"-0.023": 0.0,
			"-0.022": 0.0,
			"-0.021": 0.0,
			"-0.02": 0.0,
			"-0.019": 0.0,
			"-0.018": 0.0,
			"-0.017": 0.401348739317,
			"-0.016": 0.483051838612,
			"-0.015": 1.00705992792,
			"-0.014": 1.01504982708,
			"-0.013": 1.40567795747,
			"-0.012": 1.20104740463,
			"-0.011": 1.81672567914,
			"-0.01": 1.2244420943,
			"-0.009": 0.989624114567,
			"-0.008": 0.612549096944,
			"-0.007": 1.39277375924,
			"-0.006": 1.90042942868,
			"-0.005": 2.27351045408,
			"-0.004": 6.21108778713,
			"-0.003": 17.4543653038,
			"-0.002": 61.3550355867,
			"-0.001": 87.8660858435,
			"0.0": 86.81805593,
			"0.001": 68.7986956782,
			"0.002": 34.7699472634,
			"0.003": 6.00470065018,
			"0.004": 2.39371371949,
			"0.005": 2.82891384448,
			"0.006": 3.17349301064,
			"0.007": 2.81946741012,
			"0.008": 2.62553877998,
			"0.009": 2.75106154666,
			"0.01": 4.14840207715,
			"0.011": 5.30012175757,
			"0.012": 3.49977692106,
			"0.013": 2.3892531507,
			"0.014": 0.152213138272,
			"0.015": 0.0,
			"0.016": 0.0,
			"0.017": 0.0,
			"0.018": 0.0,
			"0.019": 0.0,
			"0.02": 0.0,
			"0.021": 0.0,
			"0.022": 0.0,
			"0.023": 0.0,
			"0.024": 0.0,
			"0.025": 0.0
		}
	}
}
