{
	 "smiles": "CN1C2=C(C=C(N)C=C2)N=C1C(C)(C)C", 
	 "Tm": 438.15, 
	 "num_atms": 32, 
	 "gaussian": { 
		 "optdone": 1, 
		 "sigma_profile": "yes", 
		 "theory": "DFT", 
		 "functional": "B3LYP", 
		 "basiset": "6-31G**", 
		 "properties": { 
			 "R2extent": 3852.1592, 
			 "electric_dipole_moment_norm": 2.90735987625, 
			 "electric_quadrupole_moment_norm": 12.9311470964, 
			 "total_energy": -631.802039592, 
			 "HOMO_LUMO_gap": 0.17709, 
			 "cosmo_polarized_energy": -14.5, 
			 "cosmo_cavitation_energy": 32.92, 
			 "cosmo_dispersion_energy": -23.75, 
			 "cosmo_repulsion_energy": 1.84, 
			 "cosmo_total_nonelectrostatic_energy": 11.01, 
			 "SMD_solvation_energy": 3.94 
		},
		"coords": [
			{
				"x": 1.5343246026,
				"y": -2.563293868,
				"z": -0.1882912977,
				"element": "C" 
			},
			{
				"x": 0.8284014645,
				"y": -1.2948771578,
				"z": -0.2128061138,
				"element": "N" 
			},
			{
				"x": 0.9477571538,
				"y": -0.3961200454,
				"z": -1.2690476736,
				"element": "C" 
			},
			{
				"x": 0.0808786108,
				"y": 0.6700831234,
				"z": -0.9556549904,
				"element": "C" 
			},
			{
				"x": -0.0388515368,
				"y": 1.7653157326,
				"z": -1.8182032256,
				"element": "C" 
			},
			{
				"x": 0.7188964251,
				"y": 1.7763294076,
				"z": -2.9935125974,
				"element": "C" 
			},
			{
				"x": 0.6822623878,
				"y": 2.8830653763,
				"z": -3.8615553266,
				"element": "N" 
			},
			{
				"x": 1.5807973875,
				"y": 0.6909226949,
				"z": -3.2899842986,
				"element": "C" 
			},
			{
				"x": 1.7053843141,
				"y": -0.4047342169,
				"z": -2.4405715817,
				"element": "C" 
			},
			{
				"x": -0.5551010963,
				"y": 0.4203282159,
				"z": 0.2469200812,
				"element": "N" 
			},
			{
				"x": -0.1047543368,
				"y": -0.7455594058,
				"z": 0.6636927999,
				"element": "C" 
			},
			{
				"x": -0.5654717336,
				"y": -1.3796149576,
				"z": 1.97116606,
				"element": "C" 
			},
			{
				"x": 0.6052645462,
				"y": -1.4604074744,
				"z": 2.9820330936,
				"element": "C" 
			},
			{
				"x": -1.6624067083,
				"y": -0.4849385058,
				"z": 2.5847385506,
				"element": "C" 
			},
			{
				"x": -1.1730763949,
				"y": -2.7827170154,
				"z": 1.7299227543,
				"element": "C" 
			},
			{
				"x": 1.5839658708,
				"y": -2.9607437203,
				"z": 0.8222932333,
				"element": "H" 
			},
			{
				"x": 2.559049143,
				"y": -2.4093715916,
				"z": -0.5397531342,
				"element": "H" 
			},
			{
				"x": 1.0527693641,
				"y": -3.3056437998,
				"z": -0.8364425683,
				"element": "H" 
			},
			{
				"x": -0.7064590248,
				"y": 2.5856561485,
				"z": -1.5706675934,
				"element": "H" 
			},
			{
				"x": 0.8749214476,
				"y": 2.6539464745,
				"z": -4.8280662949,
				"element": "H" 
			},
			{
				"x": -0.165471178,
				"y": 3.4305637756,
				"z": -3.7886984654,
				"element": "H" 
			},
			{
				"x": 2.1638182465,
				"y": 0.7223835,
				"z": -4.2069611511,
				"element": "H" 
			},
			{
				"x": 2.3668769206,
				"y": -1.2262204387,
				"z": -2.6991829676,
				"element": "H" 
			},
			{
				"x": 0.2442682121,
				"y": -1.8606458559,
				"z": 3.9357308166,
				"element": "H" 
			},
			{
				"x": 1.0210936065,
				"y": -0.465497492,
				"z": 3.1681110592,
				"element": "H" 
			},
			{
				"x": 1.4221667676,
				"y": -2.1052533417,
				"z": 2.6459737393,
				"element": "H" 
			},
			{
				"x": -1.9989916192,
				"y": -0.9217650228,
				"z": 3.5313383282,
				"element": "H" 
			},
			{
				"x": -1.2904326071,
				"y": 0.5240866729,
				"z": 2.7723909644,
				"element": "H" 
			},
			{
				"x": -2.520135652,
				"y": -0.3955820118,
				"z": 1.9141826089,
				"element": "H" 
			},
			{
				"x": -1.5665826427,
				"y": -3.1801749899,
				"z": 2.6717233537,
				"element": "H" 
			},
			{
				"x": -2.0015838481,
				"y": -2.727693394,
				"z": 1.0166613209,
				"element": "H" 
			},
			{
				"x": -0.4489780926,
				"y": -3.5069268164,
				"z": 1.3484205159,
				"element": "H" 
			}
		],
		 "valence_orbital": [ 
			{
				"type": "occ",
				"energy": -0.28618,
				"method": "rhf"
			},
			{
				"type": "occ",
				"energy": -0.26893,
				"method": "rhf"
			},
			{
				"type": "occ",
				"energy": -0.25166,
				"method": "rhf"
			},
			{
				"type": "occ",
				"energy": -0.20901,
				"method": "rhf"
			},
			{
				"type": "occ",
				"energy": -0.18119,
				"method": "rhf"
			},
			{
				"type": "unocc",
				"energy": -0.0041,
				"method": "rhf"
			},
			{
				"type": "unocc",
				"energy": 0.04326,
				"method": "rhf"
			},
			{
				"type": "unocc",
				"energy": 0.06597,
				"method": "rhf"
			},
			{
				"type": "unocc",
				"energy": 0.07321,
				"method": "rhf"
			},
			{
				"type": "unocc",
				"energy": 0.09283,
				"method": "rhf"
			}
		],
		"cosmo_sigma_profile": { 
			"-0.025": 0.0,
			"-0.024": 0.0,
			"-0.023": 0.0,
			"-0.022": 0.0,
			"-0.021": 0.0,
			"-0.02": 0.0,
			"-0.019": 0.0,
			"-0.018": 0.0,
			"-0.017": 0.0,
			"-0.016": 0.0,
			"-0.015": 0.0,
			"-0.014": 0.0,
			"-0.013": 0.0,
			"-0.012": 0.857284950857,
			"-0.011": 2.69064160028,
			"-0.01": 2.71484603504,
			"-0.009": 2.61556092113,
			"-0.008": 3.78685782968,
			"-0.007": 5.30211206748,
			"-0.006": 10.8443835794,
			"-0.005": 14.0678669399,
			"-0.004": 17.0200614238,
			"-0.003": 27.2056930661,
			"-0.002": 23.571097836,
			"-0.001": 23.4168614444,
			"0.0": 24.4102018635,
			"0.001": 22.2223095534,
			"0.002": 10.521930438,
			"0.003": 8.47323605082,
			"0.004": 7.82785216841,
			"0.005": 8.73187242824,
			"0.006": 12.6871419319,
			"0.007": 10.0677839814,
			"0.008": 2.92172106045,
			"0.009": 2.54220752226,
			"0.01": 2.39136192363,
			"0.011": 2.62333339354,
			"0.012": 1.54197976088,
			"0.013": 2.06006164666,
			"0.014": 1.74293817754,
			"0.015": 1.47818843452,
			"0.016": 1.10743615325,
			"0.017": 0.690864833486,
			"0.018": 0.0,
			"0.019": 0.0,
			"0.02": 0.0,
			"0.021": 0.0,
			"0.022": 0.0,
			"0.023": 0.0,
			"0.024": 0.0,
			"0.025": 0.0
		}
	}
}
