{
	 "smiles": "CC(=O)OC1=CC=CC=C1OC(C)=O", 
	 "Tm": 337.35, 
	 "num_atms": 24, 
	 "gaussian": { 
		 "optdone": 1, 
		 "sigma_profile": "yes", 
		 "theory": "DFT", 
		 "functional": "B3LYP", 
		 "basiset": "6-31G**", 
		 "properties": { 
			 "R2extent": 3043.7695, 
			 "electric_dipole_moment_norm": 0.717844648932, 
			 "electric_quadrupole_moment_norm": 18.9055243395, 
			 "total_energy": -688.000695309, 
			 "HOMO_LUMO_gap": 0.2366, 
			 "cosmo_polarized_energy": -13.74, 
			 "cosmo_cavitation_energy": 29.81, 
			 "cosmo_dispersion_energy": -20.05, 
			 "cosmo_repulsion_energy": 1.63, 
			 "cosmo_total_nonelectrostatic_energy": 11.39, 
			 "SMD_solvation_energy": 7.7 
		},
		"coords": [
			{
				"x": -2.9159931515,
				"y": -0.3641899272,
				"z": 3.2845194523,
				"element": "C" 
			},
			{
				"x": -2.4599067584,
				"y": -0.5193300645,
				"z": 1.8556216407,
				"element": "C" 
			},
			{
				"x": -2.8956901751,
				"y": -1.2923177966,
				"z": 1.0424096025,
				"element": "O" 
			},
			{
				"x": -1.450660778,
				"y": 0.3801670206,
				"z": 1.5915890601,
				"element": "O" 
			},
			{
				"x": -0.8958072578,
				"y": 0.3755711408,
				"z": 0.3149135226,
				"element": "C" 
			},
			{
				"x": -1.2740464041,
				"y": 1.3494275551,
				"z": -0.6030749278,
				"element": "C" 
			},
			{
				"x": -0.6731460447,
				"y": 1.3855546161,
				"z": -1.862249165,
				"element": "C" 
			},
			{
				"x": 0.2993403971,
				"y": 0.4434478608,
				"z": -2.200090288,
				"element": "C" 
			},
			{
				"x": 0.679652763,
				"y": -0.5309498339,
				"z": -1.2760697512,
				"element": "C" 
			},
			{
				"x": 0.0817912373,
				"y": -0.5630617243,
				"z": -0.0208061528,
				"element": "C" 
			},
			{
				"x": 0.4169213174,
				"y": -1.5738001226,
				"z": 0.8757813209,
				"element": "O" 
			},
			{
				"x": 1.2975227985,
				"y": -1.2662114676,
				"z": 1.8893476858,
				"element": "C" 
			},
			{
				"x": 1.5217659443,
				"y": -2.4822961507,
				"z": 2.7522951038,
				"element": "C" 
			},
			{
				"x": 1.8015090003,
				"y": -0.1823422211,
				"z": 2.0306308444,
				"element": "O" 
			},
			{
				"x": -3.6949124234,
				"y": -1.095458063,
				"z": 3.496996303,
				"element": "H" 
			},
			{
				"x": -3.299909541,
				"y": 0.6477187649,
				"z": 3.4446958136,
				"element": "H" 
			},
			{
				"x": -2.0720408732,
				"y": -0.501047813,
				"z": 3.9666083628,
				"element": "H" 
			},
			{
				"x": -2.0323568888,
				"y": 2.0706920568,
				"z": -0.3170032677,
				"element": "H" 
			},
			{
				"x": -0.9695961355,
				"y": 2.14630901,
				"z": -2.5774851109,
				"element": "H" 
			},
			{
				"x": 0.7669809035,
				"y": 0.4670379461,
				"z": -3.1793480967,
				"element": "H" 
			},
			{
				"x": 1.433195097,
				"y": -1.2740358111,
				"z": -1.5150015923,
				"element": "H" 
			},
			{
				"x": 0.5688257972,
				"y": -2.8441882423,
				"z": 3.1487381644,
				"element": "H" 
			},
			{
				"x": 1.9496980123,
				"y": -3.2906701589,
				"z": 2.1519545594,
				"element": "H" 
			},
			{
				"x": 2.1970631637,
				"y": -2.2273265742,
				"z": 3.5681269162,
				"element": "H" 
			}
		],
		 "valence_orbital": [ 
			{
				"type": "occ",
				"energy": -0.30835,
				"method": "rhf"
			},
			{
				"type": "occ",
				"energy": -0.28232,
				"method": "rhf"
			},
			{
				"type": "occ",
				"energy": -0.27816,
				"method": "rhf"
			},
			{
				"type": "occ",
				"energy": -0.25693,
				"method": "rhf"
			},
			{
				"type": "occ",
				"energy": -0.2475,
				"method": "rhf"
			},
			{
				"type": "unocc",
				"energy": -0.0109,
				"method": "rhf"
			},
			{
				"type": "unocc",
				"energy": -0.0071,
				"method": "rhf"
			},
			{
				"type": "unocc",
				"energy": 0.00491,
				"method": "rhf"
			},
			{
				"type": "unocc",
				"energy": 0.00678,
				"method": "rhf"
			},
			{
				"type": "unocc",
				"energy": 0.07877,
				"method": "rhf"
			}
		],
		"cosmo_sigma_profile": { 
			"-0.025": 0.0,
			"-0.024": 0.0,
			"-0.023": 0.0,
			"-0.022": 0.0,
			"-0.021": 0.0,
			"-0.02": 0.0,
			"-0.019": 0.0,
			"-0.018": 0.0,
			"-0.017": 0.0,
			"-0.016": 0.0,
			"-0.015": 0.0,
			"-0.014": 0.0,
			"-0.013": 0.0,
			"-0.012": 0.0,
			"-0.011": 0.0,
			"-0.01": 0.0,
			"-0.009": 0.0,
			"-0.008": 0.71452185936,
			"-0.007": 12.0781877471,
			"-0.006": 21.7100326377,
			"-0.005": 22.4528118887,
			"-0.004": 23.2768387452,
			"-0.003": 20.1497401093,
			"-0.002": 20.6429784349,
			"-0.001": 12.680273051,
			"0.0": 8.68923943916,
			"0.001": 9.49956854411,
			"0.002": 10.3621203528,
			"0.003": 12.9733276031,
			"0.004": 12.9017167903,
			"0.005": 6.279071661,
			"0.006": 6.88297590641,
			"0.007": 6.66287549679,
			"0.008": 5.41781008545,
			"0.009": 5.07368960645,
			"0.01": 5.69785307645,
			"0.011": 10.2819811362,
			"0.012": 3.22375803813,
			"0.013": 0.0714902394514,
			"0.014": 0.0,
			"0.015": 0.0,
			"0.016": 0.0,
			"0.017": 0.0,
			"0.018": 0.0,
			"0.019": 0.0,
			"0.02": 0.0,
			"0.021": 0.0,
			"0.022": 0.0,
			"0.023": 0.0,
			"0.024": 0.0,
			"0.025": 0.0
		}
	}
}
