{
	 "smiles": "COC(=O)C=C(C)N", 
	 "Tm": 356.15, 
	 "num_atms": 17, 
	 "gaussian": { 
		 "optdone": 1, 
		 "sigma_profile": "yes", 
		 "theory": "DFT", 
		 "functional": "B3LYP", 
		 "basiset": "6-31G**", 
		 "properties": { 
			 "R2extent": 1509.9327, 
			 "electric_dipole_moment_norm": 2.30538376198, 
			 "electric_quadrupole_moment_norm": 10.7314527381, 
			 "total_energy": -401.169281063, 
			 "HOMO_LUMO_gap": 0.19871, 
			 "cosmo_polarized_energy": -9.82, 
			 "cosmo_cavitation_energy": 20.64, 
			 "cosmo_dispersion_energy": -15.52, 
			 "cosmo_repulsion_energy": 1.31, 
			 "cosmo_total_nonelectrostatic_energy": 6.44, 
			 "SMD_solvation_energy": 5.36 
		},
		"coords": [
			{
				"x": -1.66530187,
				"y": -1.9776299743,
				"z": -1.5174755787,
				"element": "C" 
			},
			{
				"x": -0.3715796217,
				"y": -1.925554905,
				"z": -0.9087254501,
				"element": "O" 
			},
			{
				"x": -0.2565318845,
				"y": -1.0656974071,
				"z": 0.1399319854,
				"element": "C" 
			},
			{
				"x": -1.2142953588,
				"y": -0.3873794746,
				"z": 0.5236519505,
				"element": "O" 
			},
			{
				"x": 1.0724759084,
				"y": -1.0664275737,
				"z": 0.7051994798,
				"element": "C" 
			},
			{
				"x": 1.4057194883,
				"y": -0.2737529818,
				"z": 1.774700296,
				"element": "C" 
			},
			{
				"x": 2.7935297992,
				"y": -0.2950300551,
				"z": 2.3603496411,
				"element": "C" 
			},
			{
				"x": 0.5281943799,
				"y": 0.5740937454,
				"z": 2.3614947284,
				"element": "N" 
			},
			{
				"x": -1.580860857,
				"y": -2.7011568892,
				"z": -2.3294151297,
				"element": "H" 
			},
			{
				"x": -2.4246725539,
				"y": -2.3000156803,
				"z": -0.7993128197,
				"element": "H" 
			},
			{
				"x": -1.9544750599,
				"y": -0.9985033859,
				"z": -1.9097986322,
				"element": "H" 
			},
			{
				"x": 1.8169234304,
				"y": -1.7166339838,
				"z": 0.2662819348,
				"element": "H" 
			},
			{
				"x": 3.2480877106,
				"y": 0.7014278646,
				"z": 2.3111459574,
				"element": "H" 
			},
			{
				"x": 2.7622970424,
				"y": -0.5903234491,
				"z": 3.4160017334,
				"element": "H" 
			},
			{
				"x": 3.437030109,
				"y": -0.9951779892,
				"z": 1.8263486068,
				"element": "H" 
			},
			{
				"x": 0.7828646696,
				"y": 1.0988842235,
				"z": 3.1804301914,
				"element": "H" 
			},
			{
				"x": -0.4212053319,
				"y": 0.5826779158,
				"z": 1.9994911054,
				"element": "H" 
			}
		],
		 "valence_orbital": [ 
			{
				"type": "occ",
				"energy": -0.33653,
				"method": "rhf"
			},
			{
				"type": "occ",
				"energy": -0.32704,
				"method": "rhf"
			},
			{
				"type": "occ",
				"energy": -0.2796,
				"method": "rhf"
			},
			{
				"type": "occ",
				"energy": -0.25491,
				"method": "rhf"
			},
			{
				"type": "occ",
				"energy": -0.20659,
				"method": "rhf"
			},
			{
				"type": "unocc",
				"energy": -0.00788,
				"method": "rhf"
			},
			{
				"type": "unocc",
				"energy": 0.08097,
				"method": "rhf"
			},
			{
				"type": "unocc",
				"energy": 0.11371,
				"method": "rhf"
			},
			{
				"type": "unocc",
				"energy": 0.12521,
				"method": "rhf"
			},
			{
				"type": "unocc",
				"energy": 0.12847,
				"method": "rhf"
			}
		],
		"cosmo_sigma_profile": { 
			"-0.025": 0.0,
			"-0.024": 0.0,
			"-0.023": 0.0,
			"-0.022": 0.0,
			"-0.021": 0.0,
			"-0.02": 0.0,
			"-0.019": 0.0,
			"-0.018": 0.0,
			"-0.017": 0.0,
			"-0.016": 0.0,
			"-0.015": 0.0,
			"-0.014": 0.707022715646,
			"-0.013": 1.43271987154,
			"-0.012": 0.922990836814,
			"-0.011": 1.07395573635,
			"-0.01": 1.41495021467,
			"-0.009": 1.54621883334,
			"-0.008": 2.13712394965,
			"-0.007": 2.27674287848,
			"-0.006": 4.60126017767,
			"-0.005": 14.8077632146,
			"-0.004": 15.073728995,
			"-0.003": 15.2203821054,
			"-0.002": 14.662431049,
			"-0.001": 11.990173731,
			"0.0": 8.12802872536,
			"0.001": 7.39916555957,
			"0.002": 6.54345153724,
			"0.003": 6.37460614379,
			"0.004": 10.1494981109,
			"0.005": 10.3165173146,
			"0.006": 6.34021468285,
			"0.007": 3.74153536645,
			"0.008": 2.63610782427,
			"0.009": 2.73058453385,
			"0.01": 3.1892970775,
			"0.011": 2.05904006504,
			"0.012": 1.90936895704,
			"0.013": 2.25691347526,
			"0.014": 0.749290401134,
			"0.015": 0.0,
			"0.016": 0.0,
			"0.017": 0.0,
			"0.018": 0.0,
			"0.019": 0.0,
			"0.02": 0.0,
			"0.021": 0.0,
			"0.022": 0.0,
			"0.023": 0.0,
			"0.024": 0.0,
			"0.025": 0.0
		}
	}
}
