{
	 "smiles": "ClC1=CC(Cl)=C(C=C1)N1N=CC(Cl)=C(Cl)C1=O", 
	 "Tm": 474.15, 
	 "num_atms": 21, 
	 "gaussian": { 
		 "optdone": 1, 
		 "sigma_profile": "yes", 
		 "theory": "DFT", 
		 "functional": "B3LYP", 
		 "basiset": "6-31G**", 
		 "properties": { 
			 "R2extent": 7490.8016, 
			 "electric_dipole_moment_norm": 2.5470569016, 
			 "electric_quadrupole_moment_norm": 9.35761954612, 
			 "total_energy": -2408.92609817, 
			 "HOMO_LUMO_gap": 0.16603, 
			 "cosmo_polarized_energy": -10.84, 
			 "cosmo_cavitation_energy": 34.12, 
			 "cosmo_dispersion_energy": -24.65, 
			 "cosmo_repulsion_energy": 1.93, 
			 "cosmo_total_nonelectrostatic_energy": 11.4, 
			 "SMD_solvation_energy": 5.16 
		},
		"coords": [
			{
				"x": -4.7030843497,
				"y": 0.6501851665,
				"z": -3.2982624516,
				"element": "Cl" 
			},
			{
				"x": -3.1827791661,
				"y": 0.4068139738,
				"z": -2.4633496028,
				"element": "C" 
			},
			{
				"x": -2.7788850505,
				"y": 1.3387563878,
				"z": -1.5099200516,
				"element": "C" 
			},
			{
				"x": -1.5669172605,
				"y": 1.1453406796,
				"z": -0.8465656459,
				"element": "C" 
			},
			{
				"x": -1.0518472344,
				"y": 2.3423880632,
				"z": 0.3159347518,
				"element": "Cl" 
			},
			{
				"x": -0.7770625617,
				"y": 0.0225158648,
				"z": -1.1229967448,
				"element": "C" 
			},
			{
				"x": -1.2003535524,
				"y": -0.8907268459,
				"z": -2.0894675042,
				"element": "C" 
			},
			{
				"x": -2.4014159039,
				"y": -0.7084063071,
				"z": -2.7668628098,
				"element": "C" 
			},
			{
				"x": 0.4566984932,
				"y": -0.2058306151,
				"z": -0.4237237437,
				"element": "N" 
			},
			{
				"x": 0.3222999753,
				"y": -0.5218465609,
				"z": 0.8793126005,
				"element": "N" 
			},
			{
				"x": 1.4040257852,
				"y": -0.7223691219,
				"z": 1.5719857786,
				"element": "C" 
			},
			{
				"x": 2.720147929,
				"y": -0.6235482612,
				"z": 1.0157887393,
				"element": "C" 
			},
			{
				"x": 4.0665169041,
				"y": -0.9174874403,
				"z": 2.0705358608,
				"element": "Cl" 
			},
			{
				"x": 2.8616233129,
				"y": -0.3089823096,
				"z": -0.304608362,
				"element": "C" 
			},
			{
				"x": 4.3836714821,
				"y": -0.159918487,
				"z": -1.0922037528,
				"element": "Cl" 
			},
			{
				"x": 1.6733530253,
				"y": -0.0755026079,
				"z": -1.1415805882,
				"element": "C" 
			},
			{
				"x": 1.6885037992,
				"y": 0.1987371945,
				"z": -2.3277768237,
				"element": "O" 
			},
			{
				"x": -3.3878632645,
				"y": 2.2061903523,
				"z": -1.2883856555,
				"element": "H" 
			},
			{
				"x": -0.5752058686,
				"y": -1.7488613027,
				"z": -2.3090950079,
				"element": "H" 
			},
			{
				"x": -2.7288774307,
				"y": -1.4192615226,
				"z": -3.5160976027,
				"element": "H" 
			},
			{
				"x": 1.2703509367,
				"y": -0.9767863003,
				"z": 2.6175386163,
				"element": "H" 
			}
		],
		 "valence_orbital": [ 
			{
				"type": "occ",
				"energy": -0.30302,
				"method": "rhf"
			},
			{
				"type": "occ",
				"energy": -0.28292,
				"method": "rhf"
			},
			{
				"type": "occ",
				"energy": -0.27353,
				"method": "rhf"
			},
			{
				"type": "occ",
				"energy": -0.26694,
				"method": "rhf"
			},
			{
				"type": "occ",
				"energy": -0.25458,
				"method": "rhf"
			},
			{
				"type": "unocc",
				"energy": -0.08855,
				"method": "rhf"
			},
			{
				"type": "unocc",
				"energy": -0.04118,
				"method": "rhf"
			},
			{
				"type": "unocc",
				"energy": -0.03762,
				"method": "rhf"
			},
			{
				"type": "unocc",
				"energy": -0.02466,
				"method": "rhf"
			},
			{
				"type": "unocc",
				"energy": -0.01563,
				"method": "rhf"
			}
		],
		"cosmo_sigma_profile": { 
			"-0.025": 0.0,
			"-0.024": 0.0,
			"-0.023": 0.0,
			"-0.022": 0.0,
			"-0.021": 0.0,
			"-0.02": 0.0,
			"-0.019": 0.0,
			"-0.018": 0.0,
			"-0.017": 0.0,
			"-0.016": 0.0,
			"-0.015": 0.0,
			"-0.014": 0.0,
			"-0.013": 0.0,
			"-0.012": 0.0,
			"-0.011": 0.17648412835,
			"-0.01": 1.4798242382,
			"-0.009": 4.29625191298,
			"-0.008": 8.32391526524,
			"-0.007": 8.52499637099,
			"-0.006": 9.30057257736,
			"-0.005": 10.3175567007,
			"-0.004": 16.2696553143,
			"-0.003": 20.9501483701,
			"-0.002": 18.9701451812,
			"-0.001": 22.5840742281,
			"0.0": 32.782992117,
			"0.001": 29.1039330531,
			"0.002": 31.6222606499,
			"0.003": 26.7568131122,
			"0.004": 15.5746587578,
			"0.005": 4.04379136763,
			"0.006": 3.25907521649,
			"0.007": 3.45745628593,
			"0.008": 2.98558555735,
			"0.009": 3.07545542696,
			"0.01": 2.42343797408,
			"0.011": 4.15571130152,
			"0.012": 4.25285826367,
			"0.013": 0.494513009938,
			"0.014": 0.0,
			"0.015": 0.0,
			"0.016": 0.0,
			"0.017": 0.0,
			"0.018": 0.0,
			"0.019": 0.0,
			"0.02": 0.0,
			"0.021": 0.0,
			"0.022": 0.0,
			"0.023": 0.0,
			"0.024": 0.0,
			"0.025": 0.0
		}
	}
}
