{
	 "smiles": "CC1CCN(CC1)S(=O)(=O)C1=C(C)C(C)=CC(=C1)C(O)=O", 
	 "Tm": 450.15, 
	 "num_atms": 42, 
	 "gaussian": { 
		 "optdone": 1, 
		 "sigma_profile": "yes", 
		 "theory": "DFT", 
		 "functional": "B3LYP", 
		 "basiset": "6-31G**", 
		 "properties": { 
			 "R2extent": 7934.4841, 
			 "electric_dipole_moment_norm": 5.07902528543, 
			 "electric_quadrupole_moment_norm": 33.3191998819, 
			 "total_energy": -1338.04161607, 
			 "HOMO_LUMO_gap": 0.19146, 
			 "cosmo_polarized_energy": -20.89, 
			 "cosmo_cavitation_energy": 43.3, 
			 "cosmo_dispersion_energy": -30.56, 
			 "cosmo_repulsion_energy": 2.29, 
			 "cosmo_total_nonelectrostatic_energy": 15.04, 
			 "SMD_solvation_energy": 6.58 
		},
		"coords": [
			{
				"x": 0.9954879612,
				"y": -4.7160652233,
				"z": 2.4983886653,
				"element": "C" 
			},
			{
				"x": 0.9106851635,
				"y": -3.275236583,
				"z": 1.9861149957,
				"element": "C" 
			},
			{
				"x": -0.5241647609,
				"y": -2.728598177,
				"z": 2.0106178456,
				"element": "C" 
			},
			{
				"x": -0.5592649496,
				"y": -1.2200740021,
				"z": 1.6898273429,
				"element": "C" 
			},
			{
				"x": 0.5361142473,
				"y": -0.8848825338,
				"z": 0.7581645059,
				"element": "N" 
			},
			{
				"x": 0.8848710098,
				"y": -1.9378120972,
				"z": -0.2083197703,
				"element": "C" 
			},
			{
				"x": 1.4814332888,
				"y": -3.1421249481,
				"z": 0.5525597948,
				"element": "C" 
			},
			{
				"x": 0.7482728167,
				"y": 0.7201197669,
				"z": 0.3368311654,
				"element": "S" 
			},
			{
				"x": 1.974639178,
				"y": 0.7764589409,
				"z": -0.4654091784,
				"element": "O" 
			},
			{
				"x": 0.6258623911,
				"y": 1.4998007346,
				"z": 1.5707640028,
				"element": "O" 
			},
			{
				"x": -0.6116189586,
				"y": 1.1624883073,
				"z": -0.7993509256,
				"element": "C" 
			},
			{
				"x": -1.8990747264,
				"y": 1.5816853888,
				"z": -0.4022227942,
				"element": "C" 
			},
			{
				"x": -2.31476853,
				"y": 1.8473906347,
				"z": 1.0269032936,
				"element": "C" 
			},
			{
				"x": -2.864507967,
				"y": 1.7958077616,
				"z": -1.4224973917,
				"element": "C" 
			},
			{
				"x": -4.2658368535,
				"y": 2.2389748835,
				"z": -1.072621789,
				"element": "C" 
			},
			{
				"x": -2.5257895688,
				"y": 1.6060879828,
				"z": -2.7599876874,
				"element": "C" 
			},
			{
				"x": -1.2329381693,
				"y": 1.2335025127,
				"z": -3.1414496835,
				"element": "C" 
			},
			{
				"x": -0.2820786556,
				"y": 1.0004980431,
				"z": -2.150616783,
				"element": "C" 
			},
			{
				"x": -0.9486661245,
				"y": 1.0690186745,
				"z": -4.6048142306,
				"element": "C" 
			},
			{
				"x": 0.3540127567,
				"y": 1.1076763016,
				"z": -4.9860602033,
				"element": "O" 
			},
			{
				"x": -1.817799196,
				"y": 0.9052492062,
				"z": -5.4288681174,
				"element": "O" 
			},
			{
				"x": 2.0219443353,
				"y": -5.0945166795,
				"z": 2.4429304113,
				"element": "H" 
			},
			{
				"x": 0.3631559532,
				"y": -5.3846179973,
				"z": 1.901670116,
				"element": "H" 
			},
			{
				"x": 0.669088211,
				"y": -4.7888342997,
				"z": 3.5414320942,
				"element": "H" 
			},
			{
				"x": 1.5142487976,
				"y": -2.6396432297,
				"z": 2.6472974604,
				"element": "H" 
			},
			{
				"x": -1.1336673579,
				"y": -3.2842588895,
				"z": 1.2859439625,
				"element": "H" 
			},
			{
				"x": -0.9883758709,
				"y": -2.8865821741,
				"z": 2.9902418401,
				"element": "H" 
			},
			{
				"x": -1.5403620969,
				"y": -0.9550223869,
				"z": 1.2674756004,
				"element": "H" 
			},
			{
				"x": -0.4093997685,
				"y": -0.6299771936,
				"z": 2.5965311097,
				"element": "H" 
			},
			{
				"x": 1.6107972742,
				"y": -1.5307112294,
				"z": -0.9114836072,
				"element": "H" 
			},
			{
				"x": -0.0064114577,
				"y": -2.2392200145,
				"z": -0.7793450946,
				"element": "H" 
			},
			{
				"x": 1.2651366763,
				"y": -4.0520710277,
				"z": -0.0216665947,
				"element": "H" 
			},
			{
				"x": 2.5709597283,
				"y": -3.0476447337,
				"z": 0.6025139577,
				"element": "H" 
			},
			{
				"x": -2.6872452378,
				"y": 2.8741037014,
				"z": 1.1187307161,
				"element": "H" 
			},
			{
				"x": -3.1434024649,
				"y": 1.1905491684,
				"z": 1.3169835476,
				"element": "H" 
			},
			{
				"x": -1.4989680733,
				"y": 1.7271941823,
				"z": 1.7327160432,
				"element": "H" 
			},
			{
				"x": -4.8807469074,
				"y": 2.3218345467,
				"z": -1.9714304969,
				"element": "H" 
			},
			{
				"x": -4.7575858347,
				"y": 1.5348836258,
				"z": -0.3918688763,
				"element": "H" 
			},
			{
				"x": -4.2686792331,
				"y": 3.214911704,
				"z": -0.5732871621,
				"element": "H" 
			},
			{
				"x": -3.2643216815,
				"y": 1.7584700718,
				"z": -3.5404982163,
				"element": "H" 
			},
			{
				"x": 0.726141896,
				"y": 0.6816368141,
				"z": -2.3909976018,
				"element": "H" 
			},
			{
				"x": 0.9144227601,
				"y": 1.4050504664,
				"z": -4.2554422672,
				"element": "H" 
			}
		],
		 "valence_orbital": [ 
			{
				"type": "occ",
				"energy": -0.30315,
				"method": "rhf"
			},
			{
				"type": "occ",
				"energy": -0.28184,
				"method": "rhf"
			},
			{
				"type": "occ",
				"energy": -0.27749,
				"method": "rhf"
			},
			{
				"type": "occ",
				"energy": -0.26723,
				"method": "rhf"
			},
			{
				"type": "occ",
				"energy": -0.2519,
				"method": "rhf"
			},
			{
				"type": "unocc",
				"energy": -0.06044,
				"method": "rhf"
			},
			{
				"type": "unocc",
				"energy": -0.04157,
				"method": "rhf"
			},
			{
				"type": "unocc",
				"energy": 0.03115,
				"method": "rhf"
			},
			{
				"type": "unocc",
				"energy": 0.04733,
				"method": "rhf"
			},
			{
				"type": "unocc",
				"energy": 0.06459,
				"method": "rhf"
			}
		],
		"cosmo_sigma_profile": { 
			"-0.025": 0.0,
			"-0.024": 0.0,
			"-0.023": 0.0,
			"-0.022": 0.0,
			"-0.021": 0.0,
			"-0.02": 0.0,
			"-0.019": 0.210093806663,
			"-0.018": 1.35854997565,
			"-0.017": 0.499859474372,
			"-0.016": 1.25158272356,
			"-0.015": 0.851228098422,
			"-0.014": 0.779005172722,
			"-0.013": 0.947173213748,
			"-0.012": 1.19906033041,
			"-0.011": 0.821619124926,
			"-0.01": 1.05647517719,
			"-0.009": 0.81061955621,
			"-0.008": 1.06001785019,
			"-0.007": 2.96487782939,
			"-0.006": 6.42776081528,
			"-0.005": 17.0199967404,
			"-0.004": 31.283391411,
			"-0.003": 40.8174667411,
			"-0.002": 46.3014142361,
			"-0.001": 40.0452237635,
			"0.0": 31.6043715995,
			"0.001": 23.7283058638,
			"0.002": 13.3363933723,
			"0.003": 5.62482463658,
			"0.004": 5.6557583973,
			"0.005": 5.95903881102,
			"0.006": 6.36778642652,
			"0.007": 6.46659764197,
			"0.008": 6.42830770368,
			"0.009": 7.17102475775,
			"0.01": 10.0632933272,
			"0.011": 12.3676041643,
			"0.012": 7.88566315556,
			"0.013": 1.2358686687,
			"0.014": 0.0,
			"0.015": 0.0,
			"0.016": 0.0,
			"0.017": 0.0,
			"0.018": 0.0,
			"0.019": 0.0,
			"0.02": 0.0,
			"0.021": 0.0,
			"0.022": 0.0,
			"0.023": 0.0,
			"0.024": 0.0,
			"0.025": 0.0
		}
	}
}
