{
	 "smiles": "CC(C)=CCCC=C(C)C", 
	 "Tm": 198.75, 
	 "num_atms": 28, 
	 "gaussian": { 
		 "optdone": 1, 
		 "sigma_profile": "yes", 
		 "theory": "DFT", 
		 "functional": "B3LYP", 
		 "basiset": "6-31G**", 
		 "properties": { 
			 "R2extent": 2738.3509, 
			 "electric_dipole_moment_norm": 0.290627287088, 
			 "electric_quadrupole_moment_norm": 2.10747608053, 
			 "total_energy": -391.900838406, 
			 "HOMO_LUMO_gap": 0.25034, 
			 "cosmo_polarized_energy": -2.48, 
			 "cosmo_cavitation_energy": 29.74, 
			 "cosmo_dispersion_energy": -20.44, 
			 "cosmo_repulsion_energy": 1.72, 
			 "cosmo_total_nonelectrostatic_energy": 11.03, 
			 "SMD_solvation_energy": 5.45 
		},
		"coords": [
			{
				"x": -0.5200550606,
				"y": -2.3622139288,
				"z": -3.4322194623,
				"element": "C" 
			},
			{
				"x": -1.2221433832,
				"y": -1.4666206673,
				"z": -2.4385316333,
				"element": "C" 
			},
			{
				"x": -1.8585065665,
				"y": -2.1980945245,
				"z": -1.2818358212,
				"element": "C" 
			},
			{
				"x": -1.2564114602,
				"y": -0.1365555822,
				"z": -2.6184456422,
				"element": "C" 
			},
			{
				"x": -1.9041206392,
				"y": 0.9179753423,
				"z": -1.7613181138,
				"element": "C" 
			},
			{
				"x": -0.8957145834,
				"y": 1.950611438,
				"z": -1.1903764159,
				"element": "C" 
			},
			{
				"x": 0.0702759157,
				"y": 1.3506698945,
				"z": -0.205511983,
				"element": "C" 
			},
			{
				"x": 0.309247232,
				"y": 1.7186436656,
				"z": 1.0632477824,
				"element": "C" 
			},
			{
				"x": -0.3657704495,
				"y": 2.8650771405,
				"z": 1.7766205115,
				"element": "C" 
			},
			{
				"x": 1.3252516833,
				"y": 0.9783836998,
				"z": 1.9015697455,
				"element": "C" 
			},
			{
				"x": 0.2762391086,
				"y": -2.9432859947,
				"z": -2.9478940547,
				"element": "H" 
			},
			{
				"x": -0.0738836209,
				"y": -1.7926424211,
				"z": -4.2522447556,
				"element": "H" 
			},
			{
				"x": -1.2156251311,
				"y": -3.0936859385,
				"z": -3.8654836481,
				"element": "H" 
			},
			{
				"x": -2.6205092338,
				"y": -2.902705485,
				"z": -1.6410617801,
				"element": "H" 
			},
			{
				"x": -2.3305503902,
				"y": -1.5329593265,
				"z": -0.5570444494,
				"element": "H" 
			},
			{
				"x": -1.1102546656,
				"y": -2.7985119193,
				"z": -0.7480138335,
				"element": "H" 
			},
			{
				"x": -0.7485484589,
				"y": 0.2569867763,
				"z": -3.5016662913,
				"element": "H" 
			},
			{
				"x": -2.4660134917,
				"y": 0.4740898604,
				"z": -0.933966689,
				"element": "H" 
			},
			{
				"x": -2.6341894809,
				"y": 1.4668438837,
				"z": -2.3740313775,
				"element": "H" 
			},
			{
				"x": -0.333171142,
				"y": 2.3801165915,
				"z": -2.0336449704,
				"element": "H" 
			},
			{
				"x": -1.4554893185,
				"y": 2.778873077,
				"z": -0.7452763567,
				"element": "H" 
			},
			{
				"x": 0.6319693642,
				"y": 0.4998939879,
				"z": -0.5923484392,
				"element": "H" 
			},
			{
				"x": -0.8600194444,
				"y": 2.5134750034,
				"z": 2.6920240253,
				"element": "H" 
			},
			{
				"x": -1.113606222,
				"y": 3.3756966875,
				"z": 1.1673245437,
				"element": "H" 
			},
			{
				"x": 0.3737990088,
				"y": 3.6124282249,
				"z": 2.0939119707,
				"element": "H" 
			},
			{
				"x": 1.7901841218,
				"y": 0.1575875707,
				"z": 1.3484880562,
				"element": "H" 
			},
			{
				"x": 2.1224328754,
				"y": 1.6518511429,
				"z": 2.2446655433,
				"element": "H" 
			},
			{
				"x": 0.8635834328,
				"y": 0.560971801,
				"z": 2.8067635385,
				"element": "H" 
			}
		],
		 "valence_orbital": [ 
			{
				"type": "occ",
				"energy": -0.34347,
				"method": "rhf"
			},
			{
				"type": "occ",
				"energy": -0.31772,
				"method": "rhf"
			},
			{
				"type": "occ",
				"energy": -0.31064,
				"method": "rhf"
			},
			{
				"type": "occ",
				"energy": -0.23119,
				"method": "rhf"
			},
			{
				"type": "occ",
				"energy": -0.21951,
				"method": "rhf"
			},
			{
				"type": "unocc",
				"energy": 0.03083,
				"method": "rhf"
			},
			{
				"type": "unocc",
				"energy": 0.0386,
				"method": "rhf"
			},
			{
				"type": "unocc",
				"energy": 0.0984,
				"method": "rhf"
			},
			{
				"type": "unocc",
				"energy": 0.10547,
				"method": "rhf"
			},
			{
				"type": "unocc",
				"energy": 0.11946,
				"method": "rhf"
			}
		],
		"cosmo_sigma_profile": { 
			"-0.025": 0.0,
			"-0.024": 0.0,
			"-0.023": 0.0,
			"-0.022": 0.0,
			"-0.021": 0.0,
			"-0.02": 0.0,
			"-0.019": 0.0,
			"-0.018": 0.0,
			"-0.017": 0.0,
			"-0.016": 0.0,
			"-0.015": 0.0,
			"-0.014": 0.0,
			"-0.013": 0.0,
			"-0.012": 0.0,
			"-0.011": 0.0,
			"-0.01": 0.0,
			"-0.009": 0.0,
			"-0.008": 0.0,
			"-0.007": 0.0,
			"-0.006": 0.0,
			"-0.005": 0.342612834459,
			"-0.004": 5.67945714144,
			"-0.003": 28.5232277987,
			"-0.002": 36.204232128,
			"-0.001": 36.4680820891,
			"0.0": 36.392602171,
			"0.001": 38.0007636781,
			"0.002": 16.2439640599,
			"0.003": 10.3600067872,
			"0.004": 9.18935934305,
			"0.005": 6.38682398214,
			"0.006": 3.84917051514,
			"0.007": 2.99200351877,
			"0.008": 0.367274660035,
			"0.009": 0.0,
			"0.01": 0.0,
			"0.011": 0.0,
			"0.012": 0.0,
			"0.013": 0.0,
			"0.014": 0.0,
			"0.015": 0.0,
			"0.016": 0.0,
			"0.017": 0.0,
			"0.018": 0.0,
			"0.019": 0.0,
			"0.02": 0.0,
			"0.021": 0.0,
			"0.022": 0.0,
			"0.023": 0.0,
			"0.024": 0.0,
			"0.025": 0.0
		}
	}
}
