{
	 "smiles": "COC1=C(C=CC=C1)C(=O)C1=C(Cl)C=CC=C1", 
	 "Tm": 333.15, 
	 "num_atms": 28, 
	 "gaussian": { 
		 "optdone": 1, 
		 "sigma_profile": "yes", 
		 "theory": "DFT", 
		 "functional": "B3LYP", 
		 "basiset": "6-31G**", 
		 "properties": { 
			 "R2extent": 4130.7373, 
			 "electric_dipole_moment_norm": 4.07790415532, 
			 "electric_quadrupole_moment_norm": 13.7821601224, 
			 "total_energy": -1150.7397168, 
			 "HOMO_LUMO_gap": 0.16743, 
			 "cosmo_polarized_energy": -11.15, 
			 "cosmo_cavitation_energy": 33.71, 
			 "cosmo_dispersion_energy": -23.31, 
			 "cosmo_repulsion_energy": 1.8, 
			 "cosmo_total_nonelectrostatic_energy": 12.2, 
			 "SMD_solvation_energy": 6.73 
		},
		"coords": [
			{
				"x": -2.862490551,
				"y": 1.0406145245,
				"z": 0.6746949506,
				"element": "C" 
			},
			{
				"x": -1.4913266432,
				"y": 0.7259476292,
				"z": 0.4802765462,
				"element": "O" 
			},
			{
				"x": -0.9720897528,
				"y": 0.7816248137,
				"z": -0.7748025379,
				"element": "C" 
			},
			{
				"x": 0.3843234834,
				"y": 0.4059980738,
				"z": -0.92276184,
				"element": "C" 
			},
			{
				"x": 0.9784021254,
				"y": 0.5167413474,
				"z": -2.1880499708,
				"element": "C" 
			},
			{
				"x": 0.2558911306,
				"y": 0.9398952179,
				"z": -3.2988335094,
				"element": "C" 
			},
			{
				"x": -1.086585714,
				"y": 1.2855757531,
				"z": -3.1419095885,
				"element": "C" 
			},
			{
				"x": -1.6992377234,
				"y": 1.216874811,
				"z": -1.8904106028,
				"element": "C" 
			},
			{
				"x": 1.2719535788,
				"y": -0.0378842202,
				"z": 0.1968168271,
				"element": "C" 
			},
			{
				"x": 2.477179399,
				"y": 0.176536907,
				"z": 0.133812308,
				"element": "O" 
			},
			{
				"x": 0.7523905891,
				"y": -0.7315580362,
				"z": 1.4336902684,
				"element": "C" 
			},
			{
				"x": -0.1018980783,
				"y": -1.8429881146,
				"z": 1.4577098164,
				"element": "C" 
			},
			{
				"x": -0.7067674934,
				"y": -2.5669955264,
				"z": -0.0300851694,
				"element": "Cl" 
			},
			{
				"x": -0.4654611558,
				"y": -2.4537643155,
				"z": 2.6580097909,
				"element": "C" 
			},
			{
				"x": 0.0193353242,
				"y": -1.9510825025,
				"z": 3.8647544226,
				"element": "C" 
			},
			{
				"x": 0.8858926555,
				"y": -0.8570558582,
				"z": 3.866722938,
				"element": "C" 
			},
			{
				"x": 1.2567447412,
				"y": -0.2711860608,
				"z": 2.6602495758,
				"element": "C" 
			},
			{
				"x": -3.5139742998,
				"y": 0.3774641245,
				"z": 0.0928221531,
				"element": "H" 
			},
			{
				"x": -3.0527187677,
				"y": 0.8910756246,
				"z": 1.7382066884,
				"element": "H" 
			},
			{
				"x": -3.0777523938,
				"y": 2.0838182106,
				"z": 0.4118445584,
				"element": "H" 
			},
			{
				"x": 2.0269017843,
				"y": 0.2514879615,
				"z": -2.2712541822,
				"element": "H" 
			},
			{
				"x": 0.7314854696,
				"y": 1.0006354641,
				"z": -4.2723510956,
				"element": "H" 
			},
			{
				"x": -1.66821693,
				"y": 1.6201510233,
				"z": -3.9964375869,
				"element": "H" 
			},
			{
				"x": -2.7374172419,
				"y": 1.5081123011,
				"z": -1.7891572999,
				"element": "H" 
			},
			{
				"x": -1.115473048,
				"y": -3.3215813812,
				"z": 2.6378167702,
				"element": "H" 
			},
			{
				"x": -0.2720968906,
				"y": -2.4251848449,
				"z": 4.7973406279,
				"element": "H" 
			},
			{
				"x": 1.279244997,
				"y": -0.4698857071,
				"z": 4.801581477,
				"element": "H" 
			},
			{
				"x": 1.9505614056,
				"y": 0.5626127803,
				"z": 2.6405036645,
				"element": "H" 
			}
		],
		 "valence_orbital": [ 
			{
				"type": "occ",
				"energy": -0.26405,
				"method": "rhf"
			},
			{
				"type": "occ",
				"energy": -0.25737,
				"method": "rhf"
			},
			{
				"type": "occ",
				"energy": -0.24686,
				"method": "rhf"
			},
			{
				"type": "occ",
				"energy": -0.24255,
				"method": "rhf"
			},
			{
				"type": "occ",
				"energy": -0.22682,
				"method": "rhf"
			},
			{
				"type": "unocc",
				"energy": -0.05939,
				"method": "rhf"
			},
			{
				"type": "unocc",
				"energy": -0.01493,
				"method": "rhf"
			},
			{
				"type": "unocc",
				"energy": -0.01047,
				"method": "rhf"
			},
			{
				"type": "unocc",
				"energy": 0.00642,
				"method": "rhf"
			},
			{
				"type": "unocc",
				"energy": 0.03187,
				"method": "rhf"
			}
		],
		"cosmo_sigma_profile": { 
			"-0.025": 0.0,
			"-0.024": 0.0,
			"-0.023": 0.0,
			"-0.022": 0.0,
			"-0.021": 0.0,
			"-0.02": 0.0,
			"-0.019": 0.0,
			"-0.018": 0.0,
			"-0.017": 0.0,
			"-0.016": 0.0,
			"-0.015": 0.0,
			"-0.014": 0.0,
			"-0.013": 0.0,
			"-0.012": 0.0,
			"-0.011": 0.0,
			"-0.01": 0.0,
			"-0.009": 0.0,
			"-0.008": 0.210199376207,
			"-0.007": 7.8567872587,
			"-0.006": 20.0772379197,
			"-0.005": 25.302873015,
			"-0.004": 23.6168746374,
			"-0.003": 18.1150981695,
			"-0.002": 15.6481322609,
			"-0.001": 15.9897701554,
			"0.0": 16.4957529765,
			"0.001": 18.054499715,
			"0.002": 23.1783124247,
			"0.003": 26.3607094778,
			"0.004": 30.2993438103,
			"0.005": 11.3037584579,
			"0.006": 3.08938518249,
			"0.007": 3.49522226557,
			"0.008": 2.11582032938,
			"0.009": 1.62290427253,
			"0.01": 2.14502139374,
			"0.011": 3.64082003129,
			"0.012": 3.29766422865,
			"0.013": 0.31340979132,
			"0.014": 0.0,
			"0.015": 0.0,
			"0.016": 0.0,
			"0.017": 0.0,
			"0.018": 0.0,
			"0.019": 0.0,
			"0.02": 0.0,
			"0.021": 0.0,
			"0.022": 0.0,
			"0.023": 0.0,
			"0.024": 0.0,
			"0.025": 0.0
		}
	}
}
