{
	 "smiles": "CC1=C(C(N)=S)C(=NO1)C1=C(Cl)C=CC=C1F", 
	 "Tm": 449.15, 
	 "num_atms": 25, 
	 "gaussian": { 
		 "optdone": 1, 
		 "sigma_profile": "yes", 
		 "theory": "DFT", 
		 "functional": "B3LYP", 
		 "basiset": "6-31G**", 
		 "properties": { 
			 "R2extent": 5374.8633, 
			 "electric_dipole_moment_norm": 4.60915138068, 
			 "electric_quadrupole_moment_norm": 27.0949815898, 
			 "total_energy": -1566.8943194, 
			 "HOMO_LUMO_gap": 0.15708, 
			 "cosmo_polarized_energy": -16.32, 
			 "cosmo_cavitation_energy": 33.49, 
			 "cosmo_dispersion_energy": -23.75, 
			 "cosmo_repulsion_energy": 1.8, 
			 "cosmo_total_nonelectrostatic_energy": 11.55, 
			 "SMD_solvation_energy": 4.8 
		},
		"coords": [
			{
				"x": -1.3415811524,
				"y": 0.4281914657,
				"z": 3.2187236708,
				"element": "C" 
			},
			{
				"x": -1.6030998371,
				"y": 0.4176068455,
				"z": 1.7551407044,
				"element": "C" 
			},
			{
				"x": -0.8349467672,
				"y": 0.1645629182,
				"z": 0.6408566331,
				"element": "C" 
			},
			{
				"x": 0.5914381069,
				"y": -0.1988329931,
				"z": 0.6109585535,
				"element": "C" 
			},
			{
				"x": 0.9318667758,
				"y": -1.1047509189,
				"z": -0.3311010779,
				"element": "N" 
			},
			{
				"x": 1.7234575088,
				"y": 0.4659773867,
				"z": 1.6459694477,
				"element": "S" 
			},
			{
				"x": -1.7595947644,
				"y": 0.3569122033,
				"z": -0.4484661431,
				"element": "C" 
			},
			{
				"x": -2.9571054076,
				"y": 0.6824538106,
				"z": -0.0178815368,
				"element": "N" 
			},
			{
				"x": -2.8588682518,
				"y": 0.7048804931,
				"z": 1.3725867521,
				"element": "O" 
			},
			{
				"x": -1.5370095271,
				"y": 0.3216811039,
				"z": -1.9167223616,
				"element": "C" 
			},
			{
				"x": -1.4654662063,
				"y": 1.4808112081,
				"z": -2.7099450631,
				"element": "C" 
			},
			{
				"x": -1.5450929641,
				"y": 3.0613432068,
				"z": -1.9677804656,
				"element": "Cl" 
			},
			{
				"x": -1.3113341402,
				"y": 1.4082444977,
				"z": -4.0958567642,
				"element": "C" 
			},
			{
				"x": -1.2294135152,
				"y": 0.1643612967,
				"z": -4.7190881907,
				"element": "C" 
			},
			{
				"x": -1.2879631877,
				"y": -1.0095842558,
				"z": -3.9683405868,
				"element": "C" 
			},
			{
				"x": -1.4407939007,
				"y": -0.894508292,
				"z": -2.5965334385,
				"element": "C" 
			},
			{
				"x": -1.4719636572,
				"y": -2.03479702,
				"z": -1.8529598272,
				"element": "F" 
			},
			{
				"x": -2.2500571307,
				"y": 0.1536069519,
				"z": 3.760874143,
				"element": "H" 
			},
			{
				"x": -1.0296994018,
				"y": 1.4272593536,
				"z": 3.5410659648,
				"element": "H" 
			},
			{
				"x": -0.5294746117,
				"y": -0.2563499437,
				"z": 3.46692554,
				"element": "H" 
			},
			{
				"x": 0.2334034707,
				"y": -1.663008377,
				"z": -0.8025501313,
				"element": "H" 
			},
			{
				"x": 1.8990079654,
				"y": -1.3920028185,
				"z": -0.37605705,
				"element": "H" 
			},
			{
				"x": -1.2585390025,
				"y": 2.3235823866,
				"z": -4.6733254915,
				"element": "H" 
			},
			{
				"x": -1.112846281,
				"y": 0.1101816588,
				"z": -5.7966846417,
				"element": "H" 
			},
			{
				"x": -1.2234241209,
				"y": -1.9922221681,
				"z": -4.4211086393,
				"element": "H" 
			}
		],
		 "valence_orbital": [ 
			{
				"type": "occ",
				"energy": -0.28058,
				"method": "rhf"
			},
			{
				"type": "occ",
				"energy": -0.26726,
				"method": "rhf"
			},
			{
				"type": "occ",
				"energy": -0.26472,
				"method": "rhf"
			},
			{
				"type": "occ",
				"energy": -0.23306,
				"method": "rhf"
			},
			{
				"type": "occ",
				"energy": -0.21089,
				"method": "rhf"
			},
			{
				"type": "unocc",
				"energy": -0.05381,
				"method": "rhf"
			},
			{
				"type": "unocc",
				"energy": -0.04384,
				"method": "rhf"
			},
			{
				"type": "unocc",
				"energy": -0.0299,
				"method": "rhf"
			},
			{
				"type": "unocc",
				"energy": -0.01691,
				"method": "rhf"
			},
			{
				"type": "unocc",
				"energy": 0.01521,
				"method": "rhf"
			}
		],
		"cosmo_sigma_profile": { 
			"-0.025": 0.0,
			"-0.024": 0.0,
			"-0.023": 0.0,
			"-0.022": 0.0,
			"-0.021": 0.0,
			"-0.02": 0.0,
			"-0.019": 0.0,
			"-0.018": 0.0,
			"-0.017": 0.0,
			"-0.016": 0.0200748208102,
			"-0.015": 0.966271371731,
			"-0.014": 1.38459008949,
			"-0.013": 1.00998875023,
			"-0.012": 1.36498618024,
			"-0.011": 1.88138478582,
			"-0.01": 1.79595415863,
			"-0.009": 2.48229615221,
			"-0.008": 7.64783165036,
			"-0.007": 9.80205799798,
			"-0.006": 13.2556764452,
			"-0.005": 12.0161427566,
			"-0.004": 14.0158565766,
			"-0.003": 18.0345562717,
			"-0.002": 22.6720644472,
			"-0.001": 16.9597204755,
			"0.0": 23.9393813915,
			"0.001": 21.9438713558,
			"0.002": 21.6018368736,
			"0.003": 17.6261164135,
			"0.004": 11.6468492069,
			"0.005": 9.01232783337,
			"0.006": 9.62432236465,
			"0.007": 9.02328064661,
			"0.008": 6.89310106914,
			"0.009": 6.1530091224,
			"0.01": 5.29662183903,
			"0.011": 3.66148927172,
			"0.012": 1.67457992469,
			"0.013": 0.735274457652,
			"0.014": 0.00476517412441,
			"0.015": 0.0,
			"0.016": 0.0,
			"0.017": 0.0,
			"0.018": 0.0,
			"0.019": 0.0,
			"0.02": 0.0,
			"0.021": 0.0,
			"0.022": 0.0,
			"0.023": 0.0,
			"0.024": 0.0,
			"0.025": 0.0
		}
	}
}
