{
	 "smiles": "CC(C(O)=O)C1=CC=C(Br)S1", 
	 "Tm": 329.15, 
	 "num_atms": 18, 
	 "gaussian": { 
		 "optdone": 1, 
		 "sigma_profile": "yes", 
		 "theory": "DFT", 
		 "functional": "B3LYP", 
		 "basiset": "6-31G**", 
		 "properties": { 
			 "R2extent": 3991.9419, 
			 "electric_dipole_moment_norm": 3.0908596555, 
			 "electric_quadrupole_moment_norm": 18.3765488087, 
			 "total_energy": -3390.99253593, 
			 "HOMO_LUMO_gap": 0.19868, 
			 "cosmo_polarized_energy": -12.04, 
			 "cosmo_cavitation_energy": 26.21, 
			 "cosmo_dispersion_energy": -19.61, 
			 "cosmo_repulsion_energy": 1.55, 
			 "cosmo_total_nonelectrostatic_energy": 8.15, 
			 "SMD_solvation_energy": 4.16 
		},
		"coords": [
			{
				"x": 1.212780163,
				"y": 0.9854402737,
				"z": 2.2919598738,
				"element": "C" 
			},
			{
				"x": -0.0740680633,
				"y": 1.0856322679,
				"z": 1.4524243397,
				"element": "C" 
			},
			{
				"x": -0.3372386943,
				"y": 2.5570765957,
				"z": 1.0501812632,
				"element": "C" 
			},
			{
				"x": -1.0811830357,
				"y": 2.7557932882,
				"z": -0.0599442627,
				"element": "O" 
			},
			{
				"x": 0.0456371129,
				"y": 3.4887925573,
				"z": 1.7127296891,
				"element": "O" 
			},
			{
				"x": -0.0839102898,
				"y": 0.1299119982,
				"z": 0.2809918674,
				"element": "C" 
			},
			{
				"x": 0.6140225495,
				"y": 0.2081210623,
				"z": -0.9012634528,
				"element": "C" 
			},
			{
				"x": 0.4273479954,
				"y": -0.9160153534,
				"z": -1.7612782774,
				"element": "C" 
			},
			{
				"x": -0.4131649813,
				"y": -1.8445807382,
				"z": -1.2143443756,
				"element": "C" 
			},
			{
				"x": -0.9601257413,
				"y": -3.4735861757,
				"z": -1.9861280706,
				"element": "Br" 
			},
			{
				"x": -0.9952125309,
				"y": -1.3638406822,
				"z": 0.3523911847,
				"element": "S" 
			},
			{
				"x": 1.3278131981,
				"y": -0.025637949,
				"z": 2.6907763524,
				"element": "H" 
			},
			{
				"x": 1.1727404405,
				"y": 1.699366476,
				"z": 3.1163045124,
				"element": "H" 
			},
			{
				"x": 2.0901367659,
				"y": 1.2166514401,
				"z": 1.6816674107,
				"element": "H" 
			},
			{
				"x": -0.9228474979,
				"y": 0.8339374666,
				"z": 2.1048371169,
				"element": "H" 
			},
			{
				"x": -1.2330008124,
				"y": 1.9034188197,
				"z": -0.5005420038,
				"element": "H" 
			},
			{
				"x": 1.254206323,
				"y": 1.0472802803,
				"z": -1.1537183263,
				"element": "H" 
			},
			{
				"x": 0.8892670985,
				"y": -1.0287616275,
				"z": -2.733944841,
				"element": "H" 
			}
		],
		 "valence_orbital": [ 
			{
				"type": "occ",
				"energy": -0.31834,
				"method": "rhf"
			},
			{
				"type": "occ",
				"energy": -0.30893,
				"method": "rhf"
			},
			{
				"type": "occ",
				"energy": -0.28006,
				"method": "rhf"
			},
			{
				"type": "occ",
				"energy": -0.27732,
				"method": "rhf"
			},
			{
				"type": "occ",
				"energy": -0.24264,
				"method": "rhf"
			},
			{
				"type": "unocc",
				"energy": -0.04396,
				"method": "rhf"
			},
			{
				"type": "unocc",
				"energy": -0.01738,
				"method": "rhf"
			},
			{
				"type": "unocc",
				"energy": -0.01122,
				"method": "rhf"
			},
			{
				"type": "unocc",
				"energy": 0.01666,
				"method": "rhf"
			},
			{
				"type": "unocc",
				"energy": 0.03375,
				"method": "rhf"
			}
		],
		"cosmo_sigma_profile": { 
			"-0.025": 0.0,
			"-0.024": 0.0,
			"-0.023": 0.0,
			"-0.022": 0.0,
			"-0.021": 0.0,
			"-0.02": 0.0,
			"-0.019": 0.0,
			"-0.018": 0.0,
			"-0.017": 0.0,
			"-0.016": 0.0650247806912,
			"-0.015": 0.402085589305,
			"-0.014": 0.648438571365,
			"-0.013": 0.632549661939,
			"-0.012": 0.896725457968,
			"-0.011": 1.28287496607,
			"-0.01": 1.21956794272,
			"-0.009": 3.04515893602,
			"-0.008": 8.7636176201,
			"-0.007": 8.41518294836,
			"-0.006": 6.05700330482,
			"-0.005": 10.292305326,
			"-0.004": 12.6974834297,
			"-0.003": 12.519033344,
			"-0.002": 13.9977950229,
			"-0.001": 16.0508208761,
			"0.0": 18.6410996865,
			"0.001": 18.7998115624,
			"0.002": 20.4769150557,
			"0.003": 21.345145086,
			"0.004": 8.55815276524,
			"0.005": 2.59043387966,
			"0.006": 1.83140226362,
			"0.007": 2.50620488259,
			"0.008": 3.16108894011,
			"0.009": 3.65016036608,
			"0.01": 4.84417597348,
			"0.011": 5.13276044952,
			"0.012": 4.52570142915,
			"0.013": 1.27077427017,
			"0.014": 0.022842075692,
			"0.015": 0.0,
			"0.016": 0.0,
			"0.017": 0.0,
			"0.018": 0.0,
			"0.019": 0.0,
			"0.02": 0.0,
			"0.021": 0.0,
			"0.022": 0.0,
			"0.023": 0.0,
			"0.024": 0.0,
			"0.025": 0.0
		}
	}
}
