{
	 "smiles": "CC(C)C(=O)C1=CC2=C(O1)C(C)=CC(Br)=C2", 
	 "Tm": 343.15, 
	 "num_atms": 29, 
	 "gaussian": { 
		 "optdone": 1, 
		 "sigma_profile": "yes", 
		 "theory": "DFT", 
		 "functional": "B3LYP", 
		 "basiset": "6-31G**", 
		 "properties": { 
			 "R2extent": 11526.8894, 
			 "electric_dipole_moment_norm": 2.71852100047, 
			 "electric_quadrupole_moment_norm": 4.25563496907, 
			 "total_energy": -3225.07965612, 
			 "HOMO_LUMO_gap": 0.16481, 
			 "cosmo_polarized_energy": -7.94, 
			 "cosmo_cavitation_energy": 35.24, 
			 "cosmo_dispersion_energy": -25.14, 
			 "cosmo_repulsion_energy": 1.97, 
			 "cosmo_total_nonelectrostatic_energy": 12.07, 
			 "SMD_solvation_energy": 5.71 
		},
		"coords": [
			{
				"x": 0.3331543899,
				"y": 0.0491493577,
				"z": 2.3764738883,
				"element": "C" 
			},
			{
				"x": -1.0639019058,
				"y": 0.2101631945,
				"z": 1.7345157321,
				"element": "C" 
			},
			{
				"x": -2.1801633912,
				"y": -0.2170950976,
				"z": 2.6916953358,
				"element": "C" 
			},
			{
				"x": -1.2478344135,
				"y": 1.6629105709,
				"z": 1.3002914047,
				"element": "C" 
			},
			{
				"x": -1.8932090189,
				"y": 2.4729464281,
				"z": 1.9514871364,
				"element": "O" 
			},
			{
				"x": -0.5940596063,
				"y": 2.1121576973,
				"z": 0.0531254641,
				"element": "C" 
			},
			{
				"x": -0.5699406052,
				"y": 3.3513137648,
				"z": -0.5203288299,
				"element": "C" 
			},
			{
				"x": 0.2003178814,
				"y": 3.22970978,
				"z": -1.7239283632,
				"element": "C" 
			},
			{
				"x": 0.59461286,
				"y": 1.8768012066,
				"z": -1.784833083,
				"element": "C" 
			},
			{
				"x": 0.1118392357,
				"y": 1.1942632307,
				"z": -0.7034745204,
				"element": "O" 
			},
			{
				"x": 1.3668201155,
				"y": 1.3264639435,
				"z": -2.8092096605,
				"element": "C" 
			},
			{
				"x": 1.7638775643,
				"y": -0.128406386,
				"z": -2.8327147765,
				"element": "C" 
			},
			{
				"x": 1.7439830844,
				"y": 2.2241535033,
				"z": -3.8113475492,
				"element": "C" 
			},
			{
				"x": 1.3618781643,
				"y": 3.577468856,
				"z": -3.7703441335,
				"element": "C" 
			},
			{
				"x": 1.9324823324,
				"y": 4.7223355305,
				"z": -5.1950634275,
				"element": "Br" 
			},
			{
				"x": 0.5936796642,
				"y": 4.109645759,
				"z": -2.7457373341,
				"element": "C" 
			},
			{
				"x": 0.4901029372,
				"y": -0.9927123811,
				"z": 2.6727827238,
				"element": "H" 
			},
			{
				"x": 1.1325913436,
				"y": 0.3279277914,
				"z": 1.6843259724,
				"element": "H" 
			},
			{
				"x": 0.4182590371,
				"y": 0.672930628,
				"z": 3.2724817176,
				"element": "H" 
			},
			{
				"x": -1.0886715672,
				"y": -0.41287196,
				"z": 0.8315811703,
				"element": "H" 
			},
			{
				"x": -2.1924551208,
				"y": 0.4211737152,
				"z": 3.5788809039,
				"element": "H" 
			},
			{
				"x": -2.0319742154,
				"y": -1.2542556136,
				"z": 3.0081476403,
				"element": "H" 
			},
			{
				"x": -3.1631105322,
				"y": -0.1400621064,
				"z": 2.2176429236,
				"element": "H" 
			},
			{
				"x": -1.0511956922,
				"y": 4.2290309643,
				"z": -0.1152911986,
				"element": "H" 
			},
			{
				"x": 1.3815471306,
				"y": -0.6249397401,
				"z": -3.7308491184,
				"element": "H" 
			},
			{
				"x": 2.8535277452,
				"y": -0.2378863161,
				"z": -2.8367808895,
				"element": "H" 
			},
			{
				"x": 1.3734506533,
				"y": -0.657515661,
				"z": -1.9614039956,
				"element": "H" 
			},
			{
				"x": 2.3458199031,
				"y": 1.872573774,
				"z": -4.6425662521,
				"element": "H" 
			},
			{
				"x": 0.3128720267,
				"y": 5.1559255662,
				"z": -2.7383588813,
				"element": "H" 
			}
		],
		 "valence_orbital": [ 
			{
				"type": "occ",
				"energy": -0.29763,
				"method": "rhf"
			},
			{
				"type": "occ",
				"energy": -0.28947,
				"method": "rhf"
			},
			{
				"type": "occ",
				"energy": -0.2552,
				"method": "rhf"
			},
			{
				"type": "occ",
				"energy": -0.23992,
				"method": "rhf"
			},
			{
				"type": "occ",
				"energy": -0.23719,
				"method": "rhf"
			},
			{
				"type": "unocc",
				"energy": -0.07238,
				"method": "rhf"
			},
			{
				"type": "unocc",
				"energy": -0.00973,
				"method": "rhf"
			},
			{
				"type": "unocc",
				"energy": 0.00036,
				"method": "rhf"
			},
			{
				"type": "unocc",
				"energy": 0.00364,
				"method": "rhf"
			},
			{
				"type": "unocc",
				"energy": 0.07475,
				"method": "rhf"
			}
		],
		"cosmo_sigma_profile": { 
			"-0.025": 0.0,
			"-0.024": 0.0,
			"-0.023": 0.0,
			"-0.022": 0.0,
			"-0.021": 0.0,
			"-0.02": 0.0,
			"-0.019": 0.0,
			"-0.018": 0.0,
			"-0.017": 0.0,
			"-0.016": 0.0,
			"-0.015": 0.0,
			"-0.014": 0.0,
			"-0.013": 0.0,
			"-0.012": 0.0,
			"-0.011": 0.0,
			"-0.01": 0.0,
			"-0.009": 0.325346506373,
			"-0.008": 2.00708141403,
			"-0.007": 4.7929519598,
			"-0.006": 5.43338352609,
			"-0.005": 9.65327861877,
			"-0.004": 19.6003288348,
			"-0.003": 28.4471579169,
			"-0.002": 31.6742338825,
			"-0.001": 32.511089604,
			"0.0": 34.3190333213,
			"0.001": 32.0709402752,
			"0.002": 27.1640178686,
			"0.003": 17.1957469491,
			"0.004": 12.192746263,
			"0.005": 9.25045623796,
			"0.006": 1.35496556257,
			"0.007": 1.88857841481,
			"0.008": 1.40887361775,
			"0.009": 2.26103074794,
			"0.01": 1.69056856484,
			"0.011": 3.74642596416,
			"0.012": 3.76117598018,
			"0.013": 0.413707981241,
			"0.014": 0.0,
			"0.015": 0.0,
			"0.016": 0.0,
			"0.017": 0.0,
			"0.018": 0.0,
			"0.019": 0.0,
			"0.02": 0.0,
			"0.021": 0.0,
			"0.022": 0.0,
			"0.023": 0.0,
			"0.024": 0.0,
			"0.025": 0.0
		}
	}
}
