{
	 "smiles": "OC(=O)C1=CC=NC2=CC=CC=C12", 
	 "Tm": 527.15, 
	 "num_atms": 20, 
	 "gaussian": { 
		 "optdone": 1, 
		 "sigma_profile": "yes", 
		 "theory": "DFT", 
		 "functional": "B3LYP", 
		 "basiset": "6-31G**", 
		 "properties": { 
			 "R2extent": 2566.138, 
			 "electric_dipole_moment_norm": 3.50442570759, 
			 "electric_quadrupole_moment_norm": 14.5067980771, 
			 "total_energy": -590.490015579, 
			 "HOMO_LUMO_gap": 0.16802, 
			 "cosmo_polarized_energy": -13.49, 
			 "cosmo_cavitation_energy": 24.43, 
			 "cosmo_dispersion_energy": -18.31, 
			 "cosmo_repulsion_energy": 1.42, 
			 "cosmo_total_nonelectrostatic_energy": 7.53, 
			 "SMD_solvation_energy": 3.72 
		},
		"coords": [
			{
				"x": -2.509835685,
				"y": -1.0122210616,
				"z": 2.1812334595,
				"element": "O" 
			},
			{
				"x": -1.5693565728,
				"y": -1.9873564748,
				"z": 2.0662439047,
				"element": "C" 
			},
			{
				"x": -1.7647500863,
				"y": -3.0786570361,
				"z": 2.5416026545,
				"element": "O" 
			},
			{
				"x": -0.2858528028,
				"y": -1.6087869051,
				"z": 1.374447839,
				"element": "C" 
			},
			{
				"x": 0.8767106604,
				"y": -2.1324324438,
				"z": 1.9006694591,
				"element": "C" 
			},
			{
				"x": 2.1224310506,
				"y": -1.7613730527,
				"z": 1.3437891688,
				"element": "C" 
			},
			{
				"x": 2.2550802595,
				"y": -0.9393205941,
				"z": 0.3233615396,
				"element": "N" 
			},
			{
				"x": 1.1189310705,
				"y": -0.4428806998,
				"z": -0.2475359339,
				"element": "C" 
			},
			{
				"x": 1.2714890018,
				"y": 0.4101444484,
				"z": -1.3726274626,
				"element": "C" 
			},
			{
				"x": 0.1715259359,
				"y": 0.9216610217,
				"z": -2.0216706789,
				"element": "C" 
			},
			{
				"x": -1.1302493008,
				"y": 0.5885476913,
				"z": -1.5788303504,
				"element": "C" 
			},
			{
				"x": -1.3159864309,
				"y": -0.2283077045,
				"z": -0.4842032167,
				"element": "C" 
			},
			{
				"x": -0.2000944073,
				"y": -0.7525405426,
				"z": 0.2293445565,
				"element": "C" 
			},
			{
				"x": -2.1592496124,
				"y": -0.1706745194,
				"z": 1.8539272438,
				"element": "H" 
			},
			{
				"x": 0.8273528191,
				"y": -2.808090177,
				"z": 2.7474101795,
				"element": "H" 
			},
			{
				"x": 3.0414814719,
				"y": -2.1570325444,
				"z": 1.7734786314,
				"element": "H" 
			},
			{
				"x": 2.2839676135,
				"y": 0.6257320354,
				"z": -1.6972481104,
				"element": "H" 
			},
			{
				"x": 0.2969896284,
				"y": 1.5692089669,
				"z": -2.8841248426,
				"element": "H" 
			},
			{
				"x": -1.9940598485,
				"y": 0.9711497091,
				"z": -2.1142940115,
				"element": "H" 
			},
			{
				"x": -2.3239247647,
				"y": -0.5034701169,
				"z": -0.1914740292,
				"element": "H" 
			}
		],
		 "valence_orbital": [ 
			{
				"type": "occ",
				"energy": -0.3178,
				"method": "rhf"
			},
			{
				"type": "occ",
				"energy": -0.28569,
				"method": "rhf"
			},
			{
				"type": "occ",
				"energy": -0.26972,
				"method": "rhf"
			},
			{
				"type": "occ",
				"energy": -0.26897,
				"method": "rhf"
			},
			{
				"type": "occ",
				"energy": -0.24998,
				"method": "rhf"
			},
			{
				"type": "unocc",
				"energy": -0.08196,
				"method": "rhf"
			},
			{
				"type": "unocc",
				"energy": -0.03467,
				"method": "rhf"
			},
			{
				"type": "unocc",
				"energy": -0.02015,
				"method": "rhf"
			},
			{
				"type": "unocc",
				"energy": 0.0302,
				"method": "rhf"
			},
			{
				"type": "unocc",
				"energy": 0.07646,
				"method": "rhf"
			}
		],
		"cosmo_sigma_profile": { 
			"-0.025": 0.0,
			"-0.024": 0.0,
			"-0.023": 0.0,
			"-0.022": 0.0,
			"-0.021": 0.0,
			"-0.02": 0.0,
			"-0.019": 0.00683648540593,
			"-0.018": 0.325397581826,
			"-0.017": 0.871024384128,
			"-0.016": 0.90382400203,
			"-0.015": 0.42901466299,
			"-0.014": 1.111353003,
			"-0.013": 1.04437584143,
			"-0.012": 0.955885272286,
			"-0.011": 0.975665094195,
			"-0.01": 0.710665585026,
			"-0.009": 0.807204759697,
			"-0.008": 2.02100974457,
			"-0.007": 9.89767325173,
			"-0.006": 15.0338103551,
			"-0.005": 14.4066856311,
			"-0.004": 11.4806269735,
			"-0.003": 10.0545344045,
			"-0.002": 9.89214783022,
			"-0.001": 11.7510588076,
			"0.0": 16.4760368882,
			"0.001": 15.0169574318,
			"0.002": 14.3125784755,
			"0.003": 13.3754820852,
			"0.004": 6.97639848778,
			"0.005": 3.16034340419,
			"0.006": 3.40918237064,
			"0.007": 4.4460708394,
			"0.008": 4.4312973436,
			"0.009": 4.90243673811,
			"0.01": 5.32107526236,
			"0.011": 6.51887048757,
			"0.012": 3.74537771527,
			"0.013": 1.04692658755,
			"0.014": 0.548876786196,
			"0.015": 0.562120732963,
			"0.016": 0.102643596371,
			"0.017": 0.0,
			"0.018": 0.0,
			"0.019": 0.0,
			"0.02": 0.0,
			"0.021": 0.0,
			"0.022": 0.0,
			"0.023": 0.0,
			"0.024": 0.0,
			"0.025": 0.0
		}
	}
}
