{
	 "smiles": "OC1=C(Cl)C=CC(Br)=C1", 
	 "Tm": 330.15, 
	 "num_atms": 13, 
	 "gaussian": { 
		 "optdone": 1, 
		 "sigma_profile": "yes", 
		 "theory": "DFT", 
		 "functional": "B3LYP", 
		 "basiset": "6-31G**", 
		 "properties": { 
			 "R2extent": 3446.8059, 
			 "electric_dipole_moment_norm": 1.38626067534, 
			 "electric_quadrupole_moment_norm": 12.8090739326, 
			 "total_energy": -3337.86124666, 
			 "HOMO_LUMO_gap": 0.20772, 
			 "cosmo_polarized_energy": -9.32, 
			 "cosmo_cavitation_energy": 21.56, 
			 "cosmo_dispersion_energy": -16.76, 
			 "cosmo_repulsion_energy": 1.38, 
			 "cosmo_total_nonelectrostatic_energy": 6.18, 
			 "SMD_solvation_energy": 2.73 
		},
		"coords": [
			{
				"x": -3.7703780351,
				"y": -1.8779917253,
				"z": 0.357780481,
				"element": "O" 
			},
			{
				"x": -2.697932904,
				"y": -1.067084523,
				"z": 0.1769044505,
				"element": "C" 
			},
			{
				"x": -2.1987737947,
				"y": -0.8989770079,
				"z": -1.1260876955,
				"element": "C" 
			},
			{
				"x": -2.966393937,
				"y": -1.730307437,
				"z": -2.4575638778,
				"element": "Cl" 
			},
			{
				"x": -1.0999844789,
				"y": -0.0757921179,
				"z": -1.3563215675,
				"element": "C" 
			},
			{
				"x": -0.4763076944,
				"y": 0.5947268925,
				"z": -0.3034910035,
				"element": "C" 
			},
			{
				"x": -0.9763191319,
				"y": 0.4233441071,
				"z": 0.9843986804,
				"element": "C" 
			},
			{
				"x": -0.1458782445,
				"y": 1.3267741446,
				"z": 2.447316621,
				"element": "Br" 
			},
			{
				"x": -2.0740407674,
				"y": -0.3955412797,
				"z": 1.2347548089,
				"element": "C" 
			},
			{
				"x": -4.0018505652,
				"y": -1.8985572828,
				"z": 1.2955661745,
				"element": "H" 
			},
			{
				"x": -0.7319302273,
				"y": 0.0390876969,
				"z": -2.3700779686,
				"element": "H" 
			},
			{
				"x": 0.3782980838,
				"y": 1.2345172032,
				"z": -0.4853086408,
				"element": "H" 
			},
			{
				"x": -2.4478083034,
				"y": -0.5150986708,
				"z": 2.2470295373,
				"element": "H" 
			}
		],
		 "valence_orbital": [ 
			{
				"type": "occ",
				"energy": -0.31413,
				"method": "rhf"
			},
			{
				"type": "occ",
				"energy": -0.30082,
				"method": "rhf"
			},
			{
				"type": "occ",
				"energy": -0.29501,
				"method": "rhf"
			},
			{
				"type": "occ",
				"energy": -0.25862,
				"method": "rhf"
			},
			{
				"type": "occ",
				"energy": -0.23448,
				"method": "rhf"
			},
			{
				"type": "unocc",
				"energy": -0.02676,
				"method": "rhf"
			},
			{
				"type": "unocc",
				"energy": -0.01143,
				"method": "rhf"
			},
			{
				"type": "unocc",
				"energy": -0.00401,
				"method": "rhf"
			},
			{
				"type": "unocc",
				"energy": 0.03119,
				"method": "rhf"
			},
			{
				"type": "unocc",
				"energy": 0.05604,
				"method": "rhf"
			}
		],
		"cosmo_sigma_profile": { 
			"-0.025": 0.0,
			"-0.024": 0.0,
			"-0.023": 0.0,
			"-0.022": 0.0,
			"-0.021": 0.0,
			"-0.02": 0.012143370966,
			"-0.019": 0.773130781813,
			"-0.018": 1.12919030347,
			"-0.017": 1.61951286082,
			"-0.016": 1.07616606643,
			"-0.015": 0.773945837314,
			"-0.014": 0.65311921726,
			"-0.013": 0.812350942604,
			"-0.012": 1.36993875727,
			"-0.011": 1.25646928366,
			"-0.01": 1.40523535342,
			"-0.009": 1.24120638592,
			"-0.008": 2.36985652926,
			"-0.007": 5.08441082557,
			"-0.006": 5.62554934338,
			"-0.005": 5.60936272404,
			"-0.004": 5.79213161466,
			"-0.003": 7.48600474634,
			"-0.002": 7.03617963654,
			"-0.001": 9.11612626021,
			"0.0": 11.9621489316,
			"0.001": 20.8147451154,
			"0.002": 25.6254291868,
			"0.003": 18.7685584266,
			"0.004": 21.0840840909,
			"0.005": 9.03809801304,
			"0.006": 2.23995030418,
			"0.007": 2.16855259856,
			"0.008": 1.54694313444,
			"0.009": 2.23286752741,
			"0.01": 2.13071871729,
			"0.011": 0.819928226747,
			"0.012": 0.0,
			"0.013": 0.0,
			"0.014": 0.0,
			"0.015": 0.0,
			"0.016": 0.0,
			"0.017": 0.0,
			"0.018": 0.0,
			"0.019": 0.0,
			"0.02": 0.0,
			"0.021": 0.0,
			"0.022": 0.0,
			"0.023": 0.0,
			"0.024": 0.0,
			"0.025": 0.0
		}
	}
}
