{
	 "smiles": "ClC1=CC=C(Cl)C(Cl)=C1Cl", 
	 "Tm": 320.35, 
	 "num_atms": 12, 
	 "gaussian": { 
		 "optdone": 1, 
		 "sigma_profile": "yes", 
		 "theory": "DFT", 
		 "functional": "B3LYP", 
		 "basiset": "6-31G**", 
		 "properties": { 
			 "R2extent": 3379.6893, 
			 "electric_dipole_moment_norm": 2.09694034727, 
			 "electric_quadrupole_moment_norm": 9.7540958315, 
			 "total_energy": -2070.59837688, 
			 "HOMO_LUMO_gap": 0.21361, 
			 "cosmo_polarized_energy": -4.0, 
			 "cosmo_cavitation_energy": 23.39, 
			 "cosmo_dispersion_energy": -18.05, 
			 "cosmo_repulsion_energy": 1.45, 
			 "cosmo_total_nonelectrostatic_energy": 6.79, 
			 "SMD_solvation_energy": 3.04 
		},
		"coords": [
			{
				"x": 0.7178491355,
				"y": 1.9118663322,
				"z": -2.3740456886,
				"element": "Cl" 
			},
			{
				"x": 1.4490107708,
				"y": 0.9297198971,
				"z": -1.1328655163,
				"element": "C" 
			},
			{
				"x": 2.775564565,
				"y": 0.5320994785,
				"z": -1.2944533956,
				"element": "C" 
			},
			{
				"x": 3.3925633288,
				"y": -0.2504717469,
				"z": -0.3274949686,
				"element": "C" 
			},
			{
				"x": 2.6889891399,
				"y": -0.6430347602,
				"z": 0.8104177546,
				"element": "C" 
			},
			{
				"x": 3.5065933729,
				"y": -1.6253163299,
				"z": 1.9963360327,
				"element": "Cl" 
			},
			{
				"x": 1.3527436926,
				"y": -0.2514185048,
				"z": 0.9886543863,
				"element": "C" 
			},
			{
				"x": 0.4777251387,
				"y": -0.7407976278,
				"z": 2.4057158726,
				"element": "Cl" 
			},
			{
				"x": 0.7262710226,
				"y": 0.5432115622,
				"z": 0.0068443996,
				"element": "C" 
			},
			{
				"x": -0.9252248499,
				"y": 1.0389037739,
				"z": 0.2070199164,
				"element": "Cl" 
			},
			{
				"x": 3.3178929248,
				"y": 0.8399699985,
				"z": -2.1807526538,
				"element": "H" 
			},
			{
				"x": 4.4234217584,
				"y": -0.5622320729,
				"z": -0.4481761393,
				"element": "H" 
			}
		],
		 "valence_orbital": [ 
			{
				"type": "occ",
				"energy": -0.3288,
				"method": "rhf"
			},
			{
				"type": "occ",
				"energy": -0.32761,
				"method": "rhf"
			},
			{
				"type": "occ",
				"energy": -0.31082,
				"method": "rhf"
			},
			{
				"type": "occ",
				"energy": -0.26933,
				"method": "rhf"
			},
			{
				"type": "occ",
				"energy": -0.259,
				"method": "rhf"
			},
			{
				"type": "unocc",
				"energy": -0.04539,
				"method": "rhf"
			},
			{
				"type": "unocc",
				"energy": -0.04431,
				"method": "rhf"
			},
			{
				"type": "unocc",
				"energy": -0.03539,
				"method": "rhf"
			},
			{
				"type": "unocc",
				"energy": 0.01995,
				"method": "rhf"
			},
			{
				"type": "unocc",
				"energy": 0.05155,
				"method": "rhf"
			}
		],
		"cosmo_sigma_profile": { 
			"-0.025": 0.0,
			"-0.024": 0.0,
			"-0.023": 0.0,
			"-0.022": 0.0,
			"-0.021": 0.0,
			"-0.02": 0.0,
			"-0.019": 0.0,
			"-0.018": 0.0,
			"-0.017": 0.0,
			"-0.016": 0.0,
			"-0.015": 0.0,
			"-0.014": 0.0,
			"-0.013": 0.0,
			"-0.012": 0.0,
			"-0.011": 0.0,
			"-0.01": 0.070644043999,
			"-0.009": 2.94119121047,
			"-0.008": 4.3098502559,
			"-0.007": 3.58763933653,
			"-0.006": 2.84589704783,
			"-0.005": 3.41778859504,
			"-0.004": 5.99594009783,
			"-0.003": 9.5712815939,
			"-0.002": 19.4023292991,
			"-0.001": 28.7557925381,
			"0.0": 24.2333127956,
			"0.001": 18.9404009475,
			"0.002": 19.6068563326,
			"0.003": 33.6924922719,
			"0.004": 18.7220918579,
			"0.005": 1.59529013276,
			"0.006": 0.0,
			"0.007": 0.0,
			"0.008": 0.0,
			"0.009": 0.0,
			"0.01": 0.0,
			"0.011": 0.0,
			"0.012": 0.0,
			"0.013": 0.0,
			"0.014": 0.0,
			"0.015": 0.0,
			"0.016": 0.0,
			"0.017": 0.0,
			"0.018": 0.0,
			"0.019": 0.0,
			"0.02": 0.0,
			"0.021": 0.0,
			"0.022": 0.0,
			"0.023": 0.0,
			"0.024": 0.0,
			"0.025": 0.0
		}
	}
}
