{
	 "smiles": "CC(C)(C)CCN1CCNCC1", 
	 "Tm": 393.15, 
	 "num_atms": 34, 
	 "gaussian": { 
		 "optdone": 1, 
		 "sigma_profile": "yes", 
		 "theory": "DFT", 
		 "functional": "B3LYP", 
		 "basiset": "6-31G**", 
		 "properties": { 
			 "R2extent": 3073.8923, 
			 "electric_dipole_moment_norm": 1.17757620136, 
			 "electric_quadrupole_moment_norm": 7.18739418009, 
			 "total_energy": -503.817970543, 
			 "HOMO_LUMO_gap": 0.27315, 
			 "cosmo_polarized_energy": -4.6, 
			 "cosmo_cavitation_energy": 31.98, 
			 "cosmo_dispersion_energy": -22.34, 
			 "cosmo_repulsion_energy": 1.76, 
			 "cosmo_total_nonelectrostatic_energy": 11.39, 
			 "SMD_solvation_energy": 1.84 
		},
		"coords": [
			{
				"x": -1.2023533047,
				"y": -0.6286302951,
				"z": -0.4267592811,
				"element": "C" 
			},
			{
				"x": -1.3803629524,
				"y": 0.8678956191,
				"z": -0.1014619438,
				"element": "C" 
			},
			{
				"x": -2.1659381126,
				"y": 1.5324042759,
				"z": -1.2512411191,
				"element": "C" 
			},
			{
				"x": -2.1891425648,
				"y": 1.0136486706,
				"z": 1.2018995617,
				"element": "C" 
			},
			{
				"x": -0.0104413596,
				"y": 1.5949119298,
				"z": 0.0096086489,
				"element": "C" 
			},
			{
				"x": 0.8741981727,
				"y": 1.3320729829,
				"z": 1.2408353657,
				"element": "C" 
			},
			{
				"x": 1.408068798,
				"y": -0.023754821,
				"z": 1.3710943092,
				"element": "N" 
			},
			{
				"x": 1.9808405544,
				"y": -0.2835887057,
				"z": 2.6910150656,
				"element": "C" 
			},
			{
				"x": 2.1829656307,
				"y": -1.8123459487,
				"z": 2.8694283065,
				"element": "C" 
			},
			{
				"x": 2.3972469377,
				"y": -2.5214676076,
				"z": 1.6004466106,
				"element": "N" 
			},
			{
				"x": 3.1314111464,
				"y": -1.6706190504,
				"z": 0.6668396705,
				"element": "C" 
			},
			{
				"x": 2.3845232357,
				"y": -0.3511225777,
				"z": 0.3239062644,
				"element": "C" 
			},
			{
				"x": -2.1770745849,
				"y": -1.1226308663,
				"z": -0.5175590547,
				"element": "H" 
			},
			{
				"x": -0.6249759518,
				"y": -1.1293918381,
				"z": 0.3538394061,
				"element": "H" 
			},
			{
				"x": -0.6763282209,
				"y": -0.7627963036,
				"z": -1.379777618,
				"element": "H" 
			},
			{
				"x": -3.1286915493,
				"y": 1.0328220475,
				"z": -1.4080335534,
				"element": "H" 
			},
			{
				"x": -1.6077618254,
				"y": 1.4815566101,
				"z": -2.193484207,
				"element": "H" 
			},
			{
				"x": -2.3679105607,
				"y": 2.5889700029,
				"z": -1.0396310449,
				"element": "H" 
			},
			{
				"x": -2.2928370624,
				"y": 2.0657774145,
				"z": 1.4936905742,
				"element": "H" 
			},
			{
				"x": -1.7202001061,
				"y": 0.4760608167,
				"z": 2.0320718412,
				"element": "H" 
			},
			{
				"x": -3.1979038521,
				"y": 0.6046347374,
				"z": 1.0754700263,
				"element": "H" 
			},
			{
				"x": -0.2060506652,
				"y": 2.6763036895,
				"z": 0.0135086349,
				"element": "H" 
			},
			{
				"x": 0.5614294571,
				"y": 1.40751996,
				"z": -0.9084753656,
				"element": "H" 
			},
			{
				"x": 1.6973823447,
				"y": 2.0759614739,
				"z": 1.224227649,
				"element": "H" 
			},
			{
				"x": 0.294772812,
				"y": 1.5437197299,
				"z": 2.1462388147,
				"element": "H" 
			},
			{
				"x": 1.2966681861,
				"y": 0.0967206477,
				"z": 3.4570359585,
				"element": "H" 
			},
			{
				"x": 2.9396412454,
				"y": 0.2542844345,
				"z": 2.8333793521,
				"element": "H" 
			},
			{
				"x": 1.3082547146,
				"y": -2.2545693306,
				"z": 3.3565293581,
				"element": "H" 
			},
			{
				"x": 3.0426023771,
				"y": -1.9889675356,
				"z": 3.5299824064,
				"element": "H" 
			},
			{
				"x": 1.4873279425,
				"y": -2.7236667507,
				"z": 1.1937127804,
				"element": "H" 
			},
			{
				"x": 4.1033739322,
				"y": -1.4450509253,
				"z": 1.1224629651,
				"element": "H" 
			},
			{
				"x": 3.3403692197,
				"y": -2.2316950127,
				"z": -0.2498627122,
				"element": "H" 
			},
			{
				"x": 1.8515728964,
				"y": -0.4585152891,
				"z": -0.6268469871,
				"element": "H" 
			},
			{
				"x": 3.1203230695,
				"y": 0.4679478153,
				"z": 0.1897093168,
				"element": "H" 
			}
		],
		 "valence_orbital": [ 
			{
				"type": "occ",
				"energy": -0.31129,
				"method": "rhf"
			},
			{
				"type": "occ",
				"energy": -0.30766,
				"method": "rhf"
			},
			{
				"type": "occ",
				"energy": -0.30441,
				"method": "rhf"
			},
			{
				"type": "occ",
				"energy": -0.21574,
				"method": "rhf"
			},
			{
				"type": "occ",
				"energy": -0.20836,
				"method": "rhf"
			},
			{
				"type": "unocc",
				"energy": 0.06479,
				"method": "rhf"
			},
			{
				"type": "unocc",
				"energy": 0.08668,
				"method": "rhf"
			},
			{
				"type": "unocc",
				"energy": 0.10315,
				"method": "rhf"
			},
			{
				"type": "unocc",
				"energy": 0.10675,
				"method": "rhf"
			},
			{
				"type": "unocc",
				"energy": 0.12245,
				"method": "rhf"
			}
		],
		"cosmo_sigma_profile": { 
			"-0.025": 0.0,
			"-0.024": 0.0,
			"-0.023": 0.0,
			"-0.022": 0.0,
			"-0.021": 0.0,
			"-0.02": 0.0,
			"-0.019": 0.0,
			"-0.018": 0.0,
			"-0.017": 0.0,
			"-0.016": 0.0,
			"-0.015": 0.0,
			"-0.014": 0.0,
			"-0.013": 0.0,
			"-0.012": 0.0,
			"-0.011": 0.0,
			"-0.01": 0.0,
			"-0.009": 0.0106182703441,
			"-0.008": 0.839686255399,
			"-0.007": 0.999866700897,
			"-0.006": 1.02336351753,
			"-0.005": 1.79128303675,
			"-0.004": 5.87094294821,
			"-0.003": 16.2567745902,
			"-0.002": 41.0529303998,
			"-0.001": 59.1751290801,
			"0.0": 42.5292602814,
			"0.001": 27.8582922912,
			"0.002": 24.0036717926,
			"0.003": 6.54153796708,
			"0.004": 2.17284295738,
			"0.005": 2.37755353246,
			"0.006": 1.53175948691,
			"0.007": 1.68974726113,
			"0.008": 1.15906251595,
			"0.009": 1.22066479863,
			"0.01": 0.480559534322,
			"0.011": 0.368489801189,
			"0.012": 1.32715275411,
			"0.013": 0.642167324217,
			"0.014": 0.152864336283,
			"0.015": 0.48996026575,
			"0.016": 1.09380790805,
			"0.017": 0.41910511242,
			"0.018": 0.549180101353,
			"0.019": 0.359865772002,
			"0.02": 0.0141633124296,
			"0.021": 0.0,
			"0.022": 0.0,
			"0.023": 0.0,
			"0.024": 0.0,
			"0.025": 0.0
		}
	}
}
