{
	 "smiles": "CCCCC=CC=CC=CCCCCCCCC(O)=O", 
	 "Tm": 344.65, 
	 "num_atms": 50, 
	 "gaussian": { 
		 "optdone": 1, 
		 "sigma_profile": "yes", 
		 "theory": "DFT", 
		 "functional": "B3LYP", 
		 "basiset": "6-31G**", 
		 "properties": { 
			 "R2extent": 14450.6045, 
			 "electric_dipole_moment_norm": 4.63471670008, 
			 "electric_quadrupole_moment_norm": 42.0748154955, 
			 "total_energy": -854.432351436, 
			 "HOMO_LUMO_gap": 0.15856, 
			 "cosmo_polarized_energy": -16.29, 
			 "cosmo_cavitation_energy": 51.57, 
			 "cosmo_dispersion_energy": -34.81, 
			 "cosmo_repulsion_energy": 2.8, 
			 "cosmo_total_nonelectrostatic_energy": 19.57, 
			 "SMD_solvation_energy": 8.78 
		},
		"coords": [
			{
				"x": 1.1853139566,
				"y": -0.3551654903,
				"z": -6.3413136754,
				"element": "C" 
			},
			{
				"x": 0.4366522345,
				"y": 0.5140816319,
				"z": -5.3237613984,
				"element": "C" 
			},
			{
				"x": -1.0735410356,
				"y": 0.6435777127,
				"z": -5.596259322,
				"element": "C" 
			},
			{
				"x": -1.8881428618,
				"y": -0.6500924569,
				"z": -5.4311123857,
				"element": "C" 
			},
			{
				"x": -2.0745749671,
				"y": -1.1738386067,
				"z": -4.0308558742,
				"element": "C" 
			},
			{
				"x": -1.8036519692,
				"y": -0.5406049229,
				"z": -2.8736838604,
				"element": "C" 
			},
			{
				"x": -2.0517007958,
				"y": -1.1096870942,
				"z": -1.5645214962,
				"element": "C" 
			},
			{
				"x": -1.7837945932,
				"y": -0.4876389655,
				"z": -0.3928068089,
				"element": "C" 
			},
			{
				"x": -2.0375798048,
				"y": -1.0590128692,
				"z": 0.9135704621,
				"element": "C" 
			},
			{
				"x": -1.7736899152,
				"y": -0.4467533847,
				"z": 2.084378067,
				"element": "C" 
			},
			{
				"x": -2.0367807281,
				"y": -1.0500989954,
				"z": 3.4374361963,
				"element": "C" 
			},
			{
				"x": -0.7960058905,
				"y": -1.5839020879,
				"z": 4.2004715995,
				"element": "C" 
			},
			{
				"x": 0.1051109167,
				"y": -0.5401655717,
				"z": 4.8852544393,
				"element": "C" 
			},
			{
				"x": 0.90895986,
				"y": 0.4205115525,
				"z": 3.9876686205,
				"element": "C" 
			},
			{
				"x": 1.8451728903,
				"y": -0.1900441898,
				"z": 2.9266554525,
				"element": "C" 
			},
			{
				"x": 3.0917108324,
				"y": -0.9357495782,
				"z": 3.4470964941,
				"element": "C" 
			},
			{
				"x": 2.8634523384,
				"y": -2.4139609629,
				"z": 3.8280164839,
				"element": "C" 
			},
			{
				"x": 4.1417249234,
				"y": -3.1612136913,
				"z": 4.1863398912,
				"element": "C" 
			},
			{
				"x": 4.8803126097,
				"y": -2.6190575698,
				"z": 5.1969695821,
				"element": "O" 
			},
			{
				"x": 4.5167309879,
				"y": -4.1715716141,
				"z": 3.6473221316,
				"element": "O" 
			},
			{
				"x": 2.2598248072,
				"y": -0.3674878104,
				"z": -6.131194715,
				"element": "H" 
			},
			{
				"x": 0.8403844507,
				"y": -1.3942877507,
				"z": -6.3255469567,
				"element": "H" 
			},
			{
				"x": 1.050649822,
				"y": 0.0237567007,
				"z": -7.3613670483,
				"element": "H" 
			},
			{
				"x": 0.5988683869,
				"y": 0.1136192903,
				"z": -4.3163157879,
				"element": "H" 
			},
			{
				"x": 0.8746533009,
				"y": 1.5204799871,
				"z": -5.3275131484,
				"element": "H" 
			},
			{
				"x": -1.4968704042,
				"y": 1.4208539679,
				"z": -4.9474634944,
				"element": "H" 
			},
			{
				"x": -1.2134841244,
				"y": 1.0058298811,
				"z": -6.6233433832,
				"element": "H" 
			},
			{
				"x": -2.8880036838,
				"y": -0.4959654908,
				"z": -5.8670678544,
				"element": "H" 
			},
			{
				"x": -1.4459063673,
				"y": -1.4476370571,
				"z": -6.0446861537,
				"element": "H" 
			},
			{
				"x": -2.5066828411,
				"y": -2.1743266011,
				"z": -3.9697778256,
				"element": "H" 
			},
			{
				"x": -1.3744910542,
				"y": 0.4602744432,
				"z": -2.890311033,
				"element": "H" 
			},
			{
				"x": -2.4859873572,
				"y": -2.1100765574,
				"z": -1.5396266125,
				"element": "H" 
			},
			{
				"x": -1.3487612058,
				"y": 0.5123695189,
				"z": -0.4158009591,
				"element": "H" 
			},
			{
				"x": -2.4796921305,
				"y": -2.0568999917,
				"z": 0.9300557398,
				"element": "H" 
			},
			{
				"x": -1.3434661386,
				"y": 0.5537389869,
				"z": 2.0548793453,
				"element": "H" 
			},
			{
				"x": -2.5493769006,
				"y": -0.3170606646,
				"z": 4.0775466678,
				"element": "H" 
			},
			{
				"x": -2.7331922652,
				"y": -1.8879365776,
				"z": 3.3107456407,
				"element": "H" 
			},
			{
				"x": -1.1652611407,
				"y": -2.2545482257,
				"z": 4.9871670426,
				"element": "H" 
			},
			{
				"x": -0.2097926154,
				"y": -2.2136111995,
				"z": 3.5205899072,
				"element": "H" 
			},
			{
				"x": 0.797217887,
				"y": -1.0750614617,
				"z": 5.5490363836,
				"element": "H" 
			},
			{
				"x": -0.5182529418,
				"y": 0.0688178453,
				"z": 5.554707258,
				"element": "H" 
			},
			{
				"x": 1.5061843053,
				"y": 1.0722367218,
				"z": 4.6411849657,
				"element": "H" 
			},
			{
				"x": 0.2127664283,
				"y": 1.0913503281,
				"z": 3.4713323735,
				"element": "H" 
			},
			{
				"x": 2.1990417127,
				"y": 0.6389323397,
				"z": 2.301416587,
				"element": "H" 
			},
			{
				"x": 1.279891213,
				"y": -0.8449685036,
				"z": 2.2521442221,
				"element": "H" 
			},
			{
				"x": 3.8642659897,
				"y": -0.9088279146,
				"z": 2.6694245156,
				"element": "H" 
			},
			{
				"x": 3.5060881232,
				"y": -0.3751661211,
				"z": 4.2987810341,
				"element": "H" 
			},
			{
				"x": 2.4148785933,
				"y": -2.9534797263,
				"z": 2.9908991766,
				"element": "H" 
			},
			{
				"x": 2.1729809897,
				"y": -2.4953403658,
				"z": 4.6761530313,
				"element": "H" 
			},
			{
				"x": 4.4531461729,
				"y": -1.816890837,
				"z": 5.5286864821,
				"element": "H" 
			}
		],
		 "valence_orbital": [ 
			{
				"type": "occ",
				"energy": -0.31485,
				"method": "rhf"
			},
			{
				"type": "occ",
				"energy": -0.30921,
				"method": "rhf"
			},
			{
				"type": "occ",
				"energy": -0.2719,
				"method": "rhf"
			},
			{
				"type": "occ",
				"energy": -0.26189,
				"method": "rhf"
			},
			{
				"type": "occ",
				"energy": -0.19772,
				"method": "rhf"
			},
			{
				"type": "unocc",
				"energy": -0.03916,
				"method": "rhf"
			},
			{
				"type": "unocc",
				"energy": 0.01303,
				"method": "rhf"
			},
			{
				"type": "unocc",
				"energy": 0.04505,
				"method": "rhf"
			},
			{
				"type": "unocc",
				"energy": 0.04671,
				"method": "rhf"
			},
			{
				"type": "unocc",
				"energy": 0.077,
				"method": "rhf"
			}
		],
		"cosmo_sigma_profile": { 
			"-0.025": 0.0,
			"-0.024": 0.0,
			"-0.023": 0.0,
			"-0.022": 0.0,
			"-0.021": 0.0,
			"-0.02": 0.0,
			"-0.019": 0.0,
			"-0.018": 0.247469164212,
			"-0.017": 0.995414074211,
			"-0.016": 1.25084972785,
			"-0.015": 0.827513812087,
			"-0.014": 0.882197565511,
			"-0.013": 1.02507665204,
			"-0.012": 1.1126274923,
			"-0.011": 1.24485387357,
			"-0.01": 1.21018561747,
			"-0.009": 0.894012550647,
			"-0.008": 1.03878661106,
			"-0.007": 2.23117230108,
			"-0.006": 3.43125834657,
			"-0.005": 7.67853327266,
			"-0.004": 26.6642122744,
			"-0.003": 38.6494835142,
			"-0.002": 59.0028382426,
			"-0.001": 58.2507231538,
			"0.0": 56.0447131029,
			"0.001": 41.3775714903,
			"0.002": 19.2098227629,
			"0.003": 11.6055051097,
			"0.004": 9.63627707024,
			"0.005": 11.3713774632,
			"0.006": 13.5996672954,
			"0.007": 5.75587172104,
			"0.008": 2.32563065289,
			"0.009": 2.72345844125,
			"0.01": 4.16246944925,
			"0.011": 5.71967637636,
			"0.012": 5.95889554301,
			"0.013": 3.6817688634,
			"0.014": 0.370183687912,
			"0.015": 0.0,
			"0.016": 0.0,
			"0.017": 0.0,
			"0.018": 0.0,
			"0.019": 0.0,
			"0.02": 0.0,
			"0.021": 0.0,
			"0.022": 0.0,
			"0.023": 0.0,
			"0.024": 0.0,
			"0.025": 0.0
		}
	}
}
