{
	 "smiles": "OC(=O)C=CC1=CC=C(OCC2=CC=NC=C2)C=C1", 
	 "Tm": 572.15, 
	 "num_atms": 32, 
	 "gaussian": { 
		 "optdone": 1, 
		 "sigma_profile": "yes", 
		 "theory": "DFT", 
		 "functional": "B3LYP", 
		 "basiset": "6-31G**", 
		 "properties": { 
			 "R2extent": 9076.295, 
			 "electric_dipole_moment_norm": 6.03974283972, 
			 "electric_quadrupole_moment_norm": 41.1231940349, 
			 "total_energy": -859.826144458, 
			 "HOMO_LUMO_gap": 0.16982, 
			 "cosmo_polarized_energy": -20.13, 
			 "cosmo_cavitation_energy": 37.36, 
			 "cosmo_dispersion_energy": -26.87, 
			 "cosmo_repulsion_energy": 2.05, 
			 "cosmo_total_nonelectrostatic_energy": 12.53, 
			 "SMD_solvation_energy": 6.18 
		},
		"coords": [
			{
				"x": -1.2391948019,
				"y": 4.4382934757,
				"z": -0.1603472795,
				"element": "O" 
			},
			{
				"x": -1.3292682991,
				"y": 5.0879072572,
				"z": 1.0301195246,
				"element": "C" 
			},
			{
				"x": -1.134899108,
				"y": 6.2812658038,
				"z": 1.080542877,
				"element": "O" 
			},
			{
				"x": -1.7239597978,
				"y": 4.3112713193,
				"z": 2.240179775,
				"element": "C" 
			},
			{
				"x": -1.6327931692,
				"y": 2.9935624784,
				"z": 2.5113037573,
				"element": "C" 
			},
			{
				"x": -1.0340022107,
				"y": 1.8883995249,
				"z": 1.7419153519,
				"element": "C" 
			},
			{
				"x": 0.1434871956,
				"y": 2.0193419205,
				"z": 0.9732453463,
				"element": "C" 
			},
			{
				"x": 0.6802769068,
				"y": 0.935979161,
				"z": 0.2934137538,
				"element": "C" 
			},
			{
				"x": 0.0623054454,
				"y": -0.3220878297,
				"z": 0.3624023812,
				"element": "C" 
			},
			{
				"x": 0.6680245849,
				"y": -1.3167328428,
				"z": -0.3424838619,
				"element": "O" 
			},
			{
				"x": 0.1001093057,
				"y": -2.6194930707,
				"z": -0.3173590244,
				"element": "C" 
			},
			{
				"x": 0.9131307818,
				"y": -3.5421306571,
				"z": -1.1941372848,
				"element": "C" 
			},
			{
				"x": 0.7126413562,
				"y": -4.9243494884,
				"z": -1.1168006759,
				"element": "C" 
			},
			{
				"x": 1.4462839912,
				"y": -5.7609081717,
				"z": -1.9559131051,
				"element": "C" 
			},
			{
				"x": 2.3489825382,
				"y": -5.3214068613,
				"z": -2.8426049362,
				"element": "N" 
			},
			{
				"x": 2.535263556,
				"y": -3.9980602466,
				"z": -2.9052640103,
				"element": "C" 
			},
			{
				"x": 1.8507505765,
				"y": -3.0723325842,
				"z": -2.1148879544,
				"element": "C" 
			},
			{
				"x": -1.0927141812,
				"y": -0.4830929958,
				"z": 1.1397482897,
				"element": "C" 
			},
			{
				"x": -1.6157285042,
				"y": 0.6120319268,
				"z": 1.8243523648,
				"element": "C" 
			},
			{
				"x": -1.457436647,
				"y": 3.5002635542,
				"z": -0.0515697834,
				"element": "H" 
			},
			{
				"x": -2.1429561554,
				"y": 4.9603410239,
				"z": 3.0030166242,
				"element": "H" 
			},
			{
				"x": -2.0724469035,
				"y": 2.6802428278,
				"z": 3.4582304282,
				"element": "H" 
			},
			{
				"x": 0.6568337338,
				"y": 2.9735878434,
				"z": 0.9284860057,
				"element": "H" 
			},
			{
				"x": 1.5904925833,
				"y": 1.0364250225,
				"z": -0.2882095412,
				"element": "H" 
			},
			{
				"x": -0.9384367147,
				"y": -2.5822100718,
				"z": -0.6798856991,
				"element": "H" 
			},
			{
				"x": 0.0757027056,
				"y": -3.0044773068,
				"z": 0.7121100252,
				"element": "H" 
			},
			{
				"x": 0.0001019926,
				"y": -5.3492398747,
				"z": -0.414259132,
				"element": "H" 
			},
			{
				"x": 1.3041158367,
				"y": -6.8392530946,
				"z": -1.9097262136,
				"element": "H" 
			},
			{
				"x": 3.2730813469,
				"y": -3.6523378535,
				"z": -3.6273919916,
				"element": "H" 
			},
			{
				"x": 2.0474442541,
				"y": -2.0111832396,
				"z": -2.208608704,
				"element": "H" 
			},
			{
				"x": -1.582116341,
				"y": -1.4455632871,
				"z": 1.2258136598,
				"element": "H" 
			},
			{
				"x": -2.5062758578,
				"y": 0.4739463372,
				"z": 2.4318690329,
				"element": "H" 
			}
		],
		 "valence_orbital": [ 
			{
				"type": "occ",
				"energy": -0.27788,
				"method": "rhf"
			},
			{
				"type": "occ",
				"energy": -0.27039,
				"method": "rhf"
			},
			{
				"type": "occ",
				"energy": -0.267,
				"method": "rhf"
			},
			{
				"type": "occ",
				"energy": -0.26056,
				"method": "rhf"
			},
			{
				"type": "occ",
				"energy": -0.2358,
				"method": "rhf"
			},
			{
				"type": "unocc",
				"energy": -0.06598,
				"method": "rhf"
			},
			{
				"type": "unocc",
				"energy": -0.03544,
				"method": "rhf"
			},
			{
				"type": "unocc",
				"energy": -0.02748,
				"method": "rhf"
			},
			{
				"type": "unocc",
				"energy": -0.01928,
				"method": "rhf"
			},
			{
				"type": "unocc",
				"energy": 0.00521,
				"method": "rhf"
			}
		],
		"cosmo_sigma_profile": { 
			"-0.025": 0.0,
			"-0.024": 0.0,
			"-0.023": 0.0,
			"-0.022": 0.0,
			"-0.021": 0.0,
			"-0.02": 0.0,
			"-0.019": 0.0,
			"-0.018": 0.0,
			"-0.017": 0.0,
			"-0.016": 0.0,
			"-0.015": 0.074720570399,
			"-0.014": 0.716139430886,
			"-0.013": 0.406038393699,
			"-0.012": 0.425610669878,
			"-0.011": 0.856181006315,
			"-0.01": 1.36230252169,
			"-0.009": 0.629501087409,
			"-0.008": 3.20328362904,
			"-0.007": 21.8651225619,
			"-0.006": 27.3549248118,
			"-0.005": 21.5354621481,
			"-0.004": 17.568411659,
			"-0.003": 17.4451343921,
			"-0.002": 15.6010264543,
			"-0.001": 15.7136567756,
			"0.0": 19.7351322652,
			"0.001": 20.144975291,
			"0.002": 30.2921696838,
			"0.003": 25.2945321799,
			"0.004": 10.6290869007,
			"0.005": 5.93916320826,
			"0.006": 4.18797032888,
			"0.007": 3.75848817134,
			"0.008": 3.63299379322,
			"0.009": 5.01951010098,
			"0.01": 4.36582360644,
			"0.011": 6.48133001254,
			"0.012": 7.09450188919,
			"0.013": 4.8606595261,
			"0.014": 0.817871586606,
			"0.015": 0.866409170366,
			"0.016": 1.05507422364,
			"0.017": 0.440996820755,
			"0.018": 0.0,
			"0.019": 0.0,
			"0.02": 0.0,
			"0.021": 0.0,
			"0.022": 0.0,
			"0.023": 0.0,
			"0.024": 0.0,
			"0.025": 0.0
		}
	}
}
