{
	 "smiles": "NC1=CC(SC2=NC=CC=C2)=NC=C1", 
	 "Tm": 373.15, 
	 "num_atms": 23, 
	 "gaussian": { 
		 "optdone": 1, 
		 "sigma_profile": "yes", 
		 "theory": "DFT", 
		 "functional": "B3LYP", 
		 "basiset": "6-31G**", 
		 "properties": { 
			 "R2extent": 4586.3373, 
			 "electric_dipole_moment_norm": 4.25754669969, 
			 "electric_quadrupole_moment_norm": 27.3130057083, 
			 "total_energy": -948.922312251, 
			 "HOMO_LUMO_gap": 0.18902, 
			 "cosmo_polarized_energy": -15.46, 
			 "cosmo_cavitation_energy": 29.07, 
			 "cosmo_dispersion_energy": -22.2, 
			 "cosmo_repulsion_energy": 1.7, 
			 "cosmo_total_nonelectrostatic_energy": 8.57, 
			 "SMD_solvation_energy": 2.83 
		},
		"coords": [
			{
				"x": -0.022085794,
				"y": -5.1660967737,
				"z": -0.0014328913,
				"element": "N" 
			},
			{
				"x": 0.4233928569,
				"y": -3.8787921126,
				"z": -0.2150117892,
				"element": "C" 
			},
			{
				"x": -0.4758909959,
				"y": -2.8134844091,
				"z": -0.3713466957,
				"element": "C" 
			},
			{
				"x": 0.0261439679,
				"y": -1.5314427707,
				"z": -0.6198593282,
				"element": "C" 
			},
			{
				"x": -1.2182892256,
				"y": -0.2375465242,
				"z": -0.6471704014,
				"element": "S" 
			},
			{
				"x": -0.6551234184,
				"y": 1.1210612475,
				"z": -1.679650855,
				"element": "C" 
			},
			{
				"x": -1.6378487679,
				"y": 2.0165021383,
				"z": -1.817143854,
				"element": "N" 
			},
			{
				"x": -1.3978778806,
				"y": 3.0996138593,
				"z": -2.563362979,
				"element": "C" 
			},
			{
				"x": -0.1840018315,
				"y": 3.335525745,
				"z": -3.2068820828,
				"element": "C" 
			},
			{
				"x": 0.8326799752,
				"y": 2.3933515164,
				"z": -3.0448393482,
				"element": "C" 
			},
			{
				"x": 0.6110391165,
				"y": 1.2624280383,
				"z": -2.2620855426,
				"element": "C" 
			},
			{
				"x": 1.3276139687,
				"y": -1.2537492499,
				"z": -0.7431129324,
				"element": "N" 
			},
			{
				"x": 2.1763713311,
				"y": -2.2869749977,
				"z": -0.6221014009,
				"element": "C" 
			},
			{
				"x": 1.7966849231,
				"y": -3.5916083318,
				"z": -0.3498397656,
				"element": "C" 
			},
			{
				"x": -0.9596872324,
				"y": -5.2791153132,
				"z": 0.3538278585,
				"element": "H" 
			},
			{
				"x": 0.6423709619,
				"y": -5.8296617448,
				"z": 0.3672666369,
				"element": "H" 
			},
			{
				"x": -1.5469668931,
				"y": -2.9813803539,
				"z": -0.3118685938,
				"element": "H" 
			},
			{
				"x": -2.2199227923,
				"y": 3.8081474964,
				"z": -2.6492559862,
				"element": "H" 
			},
			{
				"x": -0.0418612192,
				"y": 4.2283926471,
				"z": -3.8069645058,
				"element": "H" 
			},
			{
				"x": 1.8001029105,
				"y": 2.5384344095,
				"z": -3.5181414524,
				"element": "H" 
			},
			{
				"x": 1.3781101778,
				"y": 0.5218448879,
				"z": -2.080302597,
				"element": "H" 
			},
			{
				"x": 3.2315000279,
				"y": -2.0459682221,
				"z": -0.7389703979,
				"element": "H" 
			},
			{
				"x": 2.5424458335,
				"y": -4.374981182,
				"z": -0.253351096,
				"element": "H" 
			}
		],
		 "valence_orbital": [ 
			{
				"type": "occ",
				"energy": -0.26348,
				"method": "rhf"
			},
			{
				"type": "occ",
				"energy": -0.2568,
				"method": "rhf"
			},
			{
				"type": "occ",
				"energy": -0.25177,
				"method": "rhf"
			},
			{
				"type": "occ",
				"energy": -0.23348,
				"method": "rhf"
			},
			{
				"type": "occ",
				"energy": -0.20851,
				"method": "rhf"
			},
			{
				"type": "unocc",
				"energy": -0.01949,
				"method": "rhf"
			},
			{
				"type": "unocc",
				"energy": -0.01532,
				"method": "rhf"
			},
			{
				"type": "unocc",
				"energy": -0.0088,
				"method": "rhf"
			},
			{
				"type": "unocc",
				"energy": 0.00498,
				"method": "rhf"
			},
			{
				"type": "unocc",
				"energy": 0.05485,
				"method": "rhf"
			}
		],
		"cosmo_sigma_profile": { 
			"-0.025": 0.0,
			"-0.024": 0.0,
			"-0.023": 0.0,
			"-0.022": 0.0,
			"-0.021": 0.0,
			"-0.02": 0.0,
			"-0.019": 0.0,
			"-0.018": 0.0,
			"-0.017": 0.0,
			"-0.016": 0.0,
			"-0.015": 0.0,
			"-0.014": 0.817151170155,
			"-0.013": 3.28423531452,
			"-0.012": 2.87058867656,
			"-0.011": 3.05953870247,
			"-0.01": 3.43528064324,
			"-0.009": 2.62535354995,
			"-0.008": 3.62837091319,
			"-0.007": 8.90137572335,
			"-0.006": 13.0912705224,
			"-0.005": 13.8344327165,
			"-0.004": 11.1777380556,
			"-0.003": 11.1599317336,
			"-0.002": 10.0118415465,
			"-0.001": 9.88448625791,
			"0.0": 11.0090166261,
			"0.001": 15.5158152026,
			"0.002": 25.9069709842,
			"0.003": 29.4558374292,
			"0.004": 14.9847841508,
			"0.005": 9.98949579214,
			"0.006": 8.16794063573,
			"0.007": 6.9546069362,
			"0.008": 3.62653098286,
			"0.009": 3.43177559118,
			"0.01": 2.4148658638,
			"0.011": 2.42206351172,
			"0.012": 1.39962205186,
			"0.013": 1.29355415579,
			"0.014": 0.710402580535,
			"0.015": 0.474415714111,
			"0.016": 0.0,
			"0.017": 0.0,
			"0.018": 0.0,
			"0.019": 0.0,
			"0.02": 0.0,
			"0.021": 0.0,
			"0.022": 0.0,
			"0.023": 0.0,
			"0.024": 0.0,
			"0.025": 0.0
		}
	}
}
