{
	 "smiles": "CN(C)S(Cl)(=O)=O", 
	 "Tm": 260.15, 
	 "num_atms": 13, 
	 "gaussian": { 
		 "optdone": 1, 
		 "sigma_profile": "yes", 
		 "theory": "DFT", 
		 "functional": "B3LYP", 
		 "basiset": "6-31G**", 
		 "properties": { 
			 "R2extent": 1823.262, 
			 "electric_dipole_moment_norm": 4.84218612302, 
			 "electric_quadrupole_moment_norm": 10.048269662, 
			 "total_energy": -1143.33312437, 
			 "HOMO_LUMO_gap": 0.21354, 
			 "cosmo_polarized_energy": -9.13, 
			 "cosmo_cavitation_energy": 19.4, 
			 "cosmo_dispersion_energy": -15.05, 
			 "cosmo_repulsion_energy": 1.21, 
			 "cosmo_total_nonelectrostatic_energy": 5.55, 
			 "SMD_solvation_energy": 1.51 
		},
		"coords": [
			{
				"x": 1.0382618412,
				"y": 2.2799403268,
				"z": 0.3960773404,
				"element": "C" 
			},
			{
				"x": 0.9390430377,
				"y": 0.8925097694,
				"z": -0.0795127889,
				"element": "N" 
			},
			{
				"x": -0.4129154853,
				"y": 0.3154034738,
				"z": -0.0646967435,
				"element": "C" 
			},
			{
				"x": 2.1668431161,
				"y": -0.1235227278,
				"z": 0.3855540829,
				"element": "S" 
			},
			{
				"x": 1.8424666067,
				"y": -0.3816618291,
				"z": 2.5013385398,
				"element": "Cl" 
			},
			{
				"x": 3.4277150018,
				"y": 0.5882300763,
				"z": 0.2717510566,
				"element": "O" 
			},
			{
				"x": 1.9366559395,
				"y": -1.4312568762,
				"z": -0.2028290343,
				"element": "O" 
			},
			{
				"x": 2.0618278813,
				"y": 2.632134336,
				"z": 0.2778336564,
				"element": "H" 
			},
			{
				"x": 0.3784225866,
				"y": 2.8863049474,
				"z": -0.2291361311,
				"element": "H" 
			},
			{
				"x": 0.7304086901,
				"y": 2.3763147288,
				"z": 1.4454778914,
				"element": "H" 
			},
			{
				"x": -1.0470630723,
				"y": 0.9558938995,
				"z": -0.6824400738,
				"element": "H" 
			},
			{
				"x": -0.3865600148,
				"y": -0.6827899227,
				"z": -0.4989972297,
				"element": "H" 
			},
			{
				"x": -0.8273061286,
				"y": 0.2685997978,
				"z": 0.9508794337,
				"element": "H" 
			}
		],
		 "valence_orbital": [ 
			{
				"type": "occ",
				"energy": -0.35103,
				"method": "rhf"
			},
			{
				"type": "occ",
				"energy": -0.3412,
				"method": "rhf"
			},
			{
				"type": "occ",
				"energy": -0.33081,
				"method": "rhf"
			},
			{
				"type": "occ",
				"energy": -0.31357,
				"method": "rhf"
			},
			{
				"type": "occ",
				"energy": -0.29321,
				"method": "rhf"
			},
			{
				"type": "unocc",
				"energy": -0.07967,
				"method": "rhf"
			},
			{
				"type": "unocc",
				"energy": 0.04945,
				"method": "rhf"
			},
			{
				"type": "unocc",
				"energy": 0.06931,
				"method": "rhf"
			},
			{
				"type": "unocc",
				"energy": 0.07533,
				"method": "rhf"
			},
			{
				"type": "unocc",
				"energy": 0.07899,
				"method": "rhf"
			}
		],
		"cosmo_sigma_profile": { 
			"-0.025": 0.0,
			"-0.024": 0.0,
			"-0.023": 0.0,
			"-0.022": 0.0,
			"-0.021": 0.0,
			"-0.02": 0.0,
			"-0.019": 0.0,
			"-0.018": 0.0,
			"-0.017": 0.0,
			"-0.016": 0.0,
			"-0.015": 0.0,
			"-0.014": 0.0,
			"-0.013": 0.0,
			"-0.012": 0.0,
			"-0.011": 0.0,
			"-0.01": 0.0,
			"-0.009": 0.725533793848,
			"-0.008": 3.0583757291,
			"-0.007": 5.85775846609,
			"-0.006": 10.5145090173,
			"-0.005": 12.9875697616,
			"-0.004": 17.2321556442,
			"-0.003": 13.3991060701,
			"-0.002": 6.00877600046,
			"-0.001": 6.91015424187,
			"0.0": 8.39242406162,
			"0.001": 7.10816485281,
			"0.002": 9.72928794635,
			"0.003": 10.3472064138,
			"0.004": 13.1066368502,
			"0.005": 6.38388656351,
			"0.006": 3.69336414247,
			"0.007": 5.88517100265,
			"0.008": 10.1629612919,
			"0.009": 4.48950515508,
			"0.01": 0.0,
			"0.011": 0.0,
			"0.012": 0.0,
			"0.013": 0.0,
			"0.014": 0.0,
			"0.015": 0.0,
			"0.016": 0.0,
			"0.017": 0.0,
			"0.018": 0.0,
			"0.019": 0.0,
			"0.02": 0.0,
			"0.021": 0.0,
			"0.022": 0.0,
			"0.023": 0.0,
			"0.024": 0.0,
			"0.025": 0.0
		}
	}
}
