{
	 "smiles": "NC1=NNC(=C1)C1=CC(Br)=CC(F)=C1", 
	 "Tm": 378.15, 
	 "num_atms": 21, 
	 "gaussian": { 
		 "optdone": 1, 
		 "sigma_profile": "yes", 
		 "theory": "DFT", 
		 "functional": "B3LYP", 
		 "basiset": "6-31G**", 
		 "properties": { 
			 "R2extent": 5936.3187, 
			 "electric_dipole_moment_norm": 1.33588667933, 
			 "electric_quadrupole_moment_norm": 8.78614883894, 
			 "total_energy": -3182.65326939, 
			 "HOMO_LUMO_gap": 0.16309, 
			 "cosmo_polarized_energy": -13.47, 
			 "cosmo_cavitation_energy": 29.0, 
			 "cosmo_dispersion_energy": -21.62, 
			 "cosmo_repulsion_energy": 1.68, 
			 "cosmo_total_nonelectrostatic_energy": 9.07, 
			 "SMD_solvation_energy": 3.08 
		},
		"coords": [
			{
				"x": 0.345012081,
				"y": 3.1082596009,
				"z": -2.8745089718,
				"element": "N" 
			},
			{
				"x": 0.7022586194,
				"y": 2.3104344952,
				"z": -1.7893408202,
				"element": "C" 
			},
			{
				"x": 1.4113568922,
				"y": 2.8131967863,
				"z": -0.7772415996,
				"element": "N" 
			},
			{
				"x": 1.6675623697,
				"y": 1.7399130932,
				"z": 0.0153805522,
				"element": "N" 
			},
			{
				"x": 1.0928565144,
				"y": 0.588042265,
				"z": -0.4348311007,
				"element": "C" 
			},
			{
				"x": 0.4621038571,
				"y": 0.9217383807,
				"z": -1.6257441899,
				"element": "C" 
			},
			{
				"x": 1.2152007965,
				"y": -0.6886540188,
				"z": 0.2713134699,
				"element": "C" 
			},
			{
				"x": 0.2201411975,
				"y": -1.670155098,
				"z": 0.1180969482,
				"element": "C" 
			},
			{
				"x": 0.3398924264,
				"y": -2.8821065174,
				"z": 0.7901271019,
				"element": "C" 
			},
			{
				"x": -1.0191333187,
				"y": -4.2053513941,
				"z": 0.5724414516,
				"element": "Br" 
			},
			{
				"x": 1.4184634766,
				"y": -3.157708911,
				"z": 1.6292609238,
				"element": "C" 
			},
			{
				"x": 2.3865778483,
				"y": -2.1688407734,
				"z": 1.7658801639,
				"element": "C" 
			},
			{
				"x": 3.4450669662,
				"y": -2.4125820155,
				"z": 2.5617187381,
				"element": "F" 
			},
			{
				"x": 2.3153236554,
				"y": -0.9504551748,
				"z": 1.1049760033,
				"element": "C" 
			},
			{
				"x": 0.4613267515,
				"y": 4.0941094885,
				"z": -2.6733100191,
				"element": "H" 
			},
			{
				"x": -0.5798168483,
				"y": 2.9147878405,
				"z": -3.2363425108,
				"element": "H" 
			},
			{
				"x": 2.0768314485,
				"y": 1.8997439121,
				"z": 0.9219174968,
				"element": "H" 
			},
			{
				"x": -0.0375805376,
				"y": 0.2517858896,
				"z": -2.3091502219,
				"element": "H" 
			},
			{
				"x": -0.6437341663,
				"y": -1.4753722888,
				"z": -0.5049042528,
				"element": "H" 
			},
			{
				"x": 1.5145034701,
				"y": -4.0979447993,
				"z": 2.1568979341,
				"element": "H" 
			},
			{
				"x": 3.1276865001,
				"y": -0.2413407605,
				"z": 1.2178629031,
				"element": "H" 
			}
		],
		 "valence_orbital": [ 
			{
				"type": "occ",
				"energy": -0.2911,
				"method": "rhf"
			},
			{
				"type": "occ",
				"energy": -0.28074,
				"method": "rhf"
			},
			{
				"type": "occ",
				"energy": -0.2539,
				"method": "rhf"
			},
			{
				"type": "occ",
				"energy": -0.23407,
				"method": "rhf"
			},
			{
				"type": "occ",
				"energy": -0.20895,
				"method": "rhf"
			},
			{
				"type": "unocc",
				"energy": -0.04586,
				"method": "rhf"
			},
			{
				"type": "unocc",
				"energy": -0.02102,
				"method": "rhf"
			},
			{
				"type": "unocc",
				"energy": -0.00356,
				"method": "rhf"
			},
			{
				"type": "unocc",
				"energy": 0.04234,
				"method": "rhf"
			},
			{
				"type": "unocc",
				"energy": 0.07461,
				"method": "rhf"
			}
		],
		"cosmo_sigma_profile": { 
			"-0.025": 0.0,
			"-0.024": 0.0,
			"-0.023": 0.0,
			"-0.022": 0.0,
			"-0.021": 0.0,
			"-0.02": 0.0,
			"-0.019": 0.0,
			"-0.018": 0.0,
			"-0.017": 0.0,
			"-0.016": 0.7618895651,
			"-0.015": 1.31669590912,
			"-0.014": 0.901327259029,
			"-0.013": 1.71573264726,
			"-0.012": 3.10929351571,
			"-0.011": 3.93134813897,
			"-0.01": 3.09602765522,
			"-0.009": 5.22225968992,
			"-0.008": 5.38658836772,
			"-0.007": 7.58559868635,
			"-0.006": 9.69200524386,
			"-0.005": 9.03702733382,
			"-0.004": 8.72409668231,
			"-0.003": 9.49273903128,
			"-0.002": 8.29310617981,
			"-0.001": 14.4639490789,
			"0.0": 17.7348259909,
			"0.001": 25.9369691895,
			"0.002": 23.3419340094,
			"0.003": 17.9487424977,
			"0.004": 25.5572467291,
			"0.005": 8.61314361837,
			"0.006": 3.96154219017,
			"0.007": 2.95009819639,
			"0.008": 2.42053874339,
			"0.009": 2.38889152165,
			"0.01": 2.26581294809,
			"0.011": 1.78145744627,
			"0.012": 2.15987460196,
			"0.013": 1.54208665777,
			"0.014": 1.98635849727,
			"0.015": 1.38143063548,
			"0.016": 1.04170397927,
			"0.017": 0.130564189869,
			"0.018": 0.0,
			"0.019": 0.0,
			"0.02": 0.0,
			"0.021": 0.0,
			"0.022": 0.0,
			"0.023": 0.0,
			"0.024": 0.0,
			"0.025": 0.0
		}
	}
}
