{
	 "smiles": "NC1=C(Cl)C=C(Cl)C=C1Cl", 
	 "Tm": 349.35, 
	 "num_atms": 14, 
	 "gaussian": { 
		 "optdone": 1, 
		 "sigma_profile": "yes", 
		 "theory": "DFT", 
		 "functional": "B3LYP", 
		 "basiset": "6-31G**", 
		 "properties": { 
			 "R2extent": 2609.5084, 
			 "electric_dipole_moment_norm": 2.09003116005, 
			 "electric_quadrupole_moment_norm": 7.01871980635, 
			 "total_energy": -1666.38187875, 
			 "HOMO_LUMO_gap": 0.18991, 
			 "cosmo_polarized_energy": -6.03, 
			 "cosmo_cavitation_energy": 23.39, 
			 "cosmo_dispersion_energy": -18.09, 
			 "cosmo_repulsion_energy": 1.47, 
			 "cosmo_total_nonelectrostatic_energy": 6.77, 
			 "SMD_solvation_energy": 3.08 
		},
		"coords": [
			{
				"x": 0.363030292,
				"y": 1.0494865166,
				"z": -2.5686582279,
				"element": "N" 
			},
			{
				"x": -0.0485547025,
				"y": 0.6137150378,
				"z": -1.3318439221,
				"element": "C" 
			},
			{
				"x": 0.0386735492,
				"y": -0.7407532036,
				"z": -0.9428168562,
				"element": "C" 
			},
			{
				"x": 0.6240582975,
				"y": -1.9136646402,
				"z": -2.1167512843,
				"element": "Cl" 
			},
			{
				"x": -0.3210444427,
				"y": -1.1883524708,
				"z": 0.3231299853,
				"element": "C" 
			},
			{
				"x": -0.7925451335,
				"y": -0.2677932693,
				"z": 1.2557507239,
				"element": "C" 
			},
			{
				"x": -1.2501869542,
				"y": -0.8132263039,
				"z": 2.8595346544,
				"element": "Cl" 
			},
			{
				"x": -0.9067790906,
				"y": 1.0808701754,
				"z": 0.9277576364,
				"element": "C" 
			},
			{
				"x": -0.539122754,
				"y": 1.4978339947,
				"z": -0.3463467309,
				"element": "C" 
			},
			{
				"x": -0.6963928273,
				"y": 3.2025290997,
				"z": -0.7535201792,
				"element": "Cl" 
			},
			{
				"x": 0.0236921716,
				"y": 1.9517779985,
				"z": -2.8660847583,
				"element": "H" 
			},
			{
				"x": 0.437152038,
				"y": 0.3507586668,
				"z": -3.2925563429,
				"element": "H" 
			},
			{
				"x": -0.2349434484,
				"y": -2.2386854019,
				"z": 0.5719007601,
				"element": "H" 
			},
			{
				"x": -1.2773369951,
				"y": 1.7996038002,
				"z": 1.6479045419,
				"element": "H" 
			}
		],
		 "valence_orbital": [ 
			{
				"type": "occ",
				"energy": -0.3321,
				"method": "rhf"
			},
			{
				"type": "occ",
				"energy": -0.31805,
				"method": "rhf"
			},
			{
				"type": "occ",
				"energy": -0.30555,
				"method": "rhf"
			},
			{
				"type": "occ",
				"energy": -0.26056,
				"method": "rhf"
			},
			{
				"type": "occ",
				"energy": -0.22063,
				"method": "rhf"
			},
			{
				"type": "unocc",
				"energy": -0.03072,
				"method": "rhf"
			},
			{
				"type": "unocc",
				"energy": -0.01494,
				"method": "rhf"
			},
			{
				"type": "unocc",
				"energy": -0.01239,
				"method": "rhf"
			},
			{
				"type": "unocc",
				"energy": 0.04163,
				"method": "rhf"
			},
			{
				"type": "unocc",
				"energy": 0.04661,
				"method": "rhf"
			}
		],
		"cosmo_sigma_profile": { 
			"-0.025": 0.0,
			"-0.024": 0.0,
			"-0.023": 0.0,
			"-0.022": 0.0,
			"-0.021": 0.0,
			"-0.02": 0.0,
			"-0.019": 0.0,
			"-0.018": 0.0,
			"-0.017": 0.0,
			"-0.016": 0.0,
			"-0.015": 0.0,
			"-0.014": 0.0,
			"-0.013": 0.731143520195,
			"-0.012": 2.25484999204,
			"-0.011": 1.83542591295,
			"-0.01": 1.90565182418,
			"-0.009": 2.60750070734,
			"-0.008": 5.0490700696,
			"-0.007": 3.89330673075,
			"-0.006": 5.31412087936,
			"-0.005": 4.82446199424,
			"-0.004": 4.94968175337,
			"-0.003": 7.89990202952,
			"-0.002": 11.4888768968,
			"-0.001": 13.9897577318,
			"0.0": 18.2706855842,
			"0.001": 28.643770691,
			"0.002": 27.9647390208,
			"0.003": 20.0255281534,
			"0.004": 22.5006933334,
			"0.005": 6.84590702902,
			"0.006": 0.848787902358,
			"0.007": 0.721993328144,
			"0.008": 0.497970261579,
			"0.009": 0.633777722295,
			"0.01": 0.572570639382,
			"0.011": 0.359347677209,
			"0.012": 0.0,
			"0.013": 0.0,
			"0.014": 0.0,
			"0.015": 0.0,
			"0.016": 0.0,
			"0.017": 0.0,
			"0.018": 0.0,
			"0.019": 0.0,
			"0.02": 0.0,
			"0.021": 0.0,
			"0.022": 0.0,
			"0.023": 0.0,
			"0.024": 0.0,
			"0.025": 0.0
		}
	}
}
