{
	 "smiles": "CC(C)(O)COC1=CC=C(N)C=C1", 
	 "Tm": 329.15, 
	 "num_atms": 28, 
	 "gaussian": { 
		 "optdone": 1, 
		 "sigma_profile": "yes", 
		 "theory": "DFT", 
		 "functional": "B3LYP", 
		 "basiset": "6-31G**", 
		 "properties": { 
			 "R2extent": 4160.82, 
			 "electric_dipole_moment_norm": 2.81982433141, 
			 "electric_quadrupole_moment_norm": 4.75125517837, 
			 "total_energy": -595.299262923, 
			 "HOMO_LUMO_gap": 0.18781, 
			 "cosmo_polarized_energy": -13.76, 
			 "cosmo_cavitation_energy": 30.74, 
			 "cosmo_dispersion_energy": -21.96, 
			 "cosmo_repulsion_energy": 1.75, 
			 "cosmo_total_nonelectrostatic_energy": 10.54, 
			 "SMD_solvation_energy": 5.39 
		},
		"coords": [
			{
				"x": 3.7987721704,
				"y": -2.2236157477,
				"z": 1.3905446696,
				"element": "C" 
			},
			{
				"x": 2.6748672676,
				"y": -1.7098833605,
				"z": 2.2899010465,
				"element": "C" 
			},
			{
				"x": 1.9284716692,
				"y": -2.8619583614,
				"z": 2.9710139336,
				"element": "C" 
			},
			{
				"x": 3.3091419665,
				"y": -0.8726433051,
				"z": 3.2667007276,
				"element": "O" 
			},
			{
				"x": 1.7058405638,
				"y": -0.8147637499,
				"z": 1.4963002902,
				"element": "C" 
			},
			{
				"x": 1.0610158646,
				"y": -1.5936745851,
				"z": 0.5000712563,
				"element": "O" 
			},
			{
				"x": 0.159013886,
				"y": -0.9771678339,
				"z": -0.3327717509,
				"element": "C" 
			},
			{
				"x": -0.1851747896,
				"y": 0.3759895315,
				"z": -0.2773940322,
				"element": "C" 
			},
			{
				"x": -1.1213718698,
				"y": 0.8976320293,
				"z": -1.1748746253,
				"element": "C" 
			},
			{
				"x": -1.7313110962,
				"y": 0.0903362795,
				"z": -2.1425015389,
				"element": "C" 
			},
			{
				"x": -2.6235994792,
				"y": 0.6299803105,
				"z": -3.0841856879,
				"element": "N" 
			},
			{
				"x": -1.3743793022,
				"y": -1.2695184325,
				"z": -2.1866436436,
				"element": "C" 
			},
			{
				"x": -0.4461905053,
				"y": -1.7939133458,
				"z": -1.2966272605,
				"element": "C" 
			},
			{
				"x": 4.3724759528,
				"y": -1.3822607368,
				"z": 0.9902960219,
				"element": "H" 
			},
			{
				"x": 3.388347385,
				"y": -2.7968415098,
				"z": 0.5560614477,
				"element": "H" 
			},
			{
				"x": 4.4797177683,
				"y": -2.8593012716,
				"z": 1.9634999868,
				"element": "H" 
			},
			{
				"x": 1.4356230532,
				"y": -3.4998930291,
				"z": 2.2332719678,
				"element": "H" 
			},
			{
				"x": 2.6254131571,
				"y": -3.4667948433,
				"z": 3.5584225133,
				"element": "H" 
			},
			{
				"x": 1.1533134877,
				"y": -2.4768937101,
				"z": 3.6463415981,
				"element": "H" 
			},
			{
				"x": 2.6564032501,
				"y": -0.6686892288,
				"z": 3.9502370796,
				"element": "H" 
			},
			{
				"x": 2.271098629,
				"y": 0.0121979015,
				"z": 1.0451670244,
				"element": "H" 
			},
			{
				"x": 0.9610597621,
				"y": -0.3821758495,
				"z": 2.1842432034,
				"element": "H" 
			},
			{
				"x": 0.2629214013,
				"y": 1.0365913852,
				"z": 0.4556216855,
				"element": "H" 
			},
			{
				"x": -1.374398314,
				"y": 1.9538778212,
				"z": -1.1209464709,
				"element": "H" 
			},
			{
				"x": -3.2880034837,
				"y": -0.0381808129,
				"z": -3.4526200812,
				"element": "H" 
			},
			{
				"x": -3.0969395207,
				"y": 1.4675229296,
				"z": -2.7710862759,
				"element": "H" 
			},
			{
				"x": -1.8278826635,
				"y": -1.9189476887,
				"z": -2.9316815099,
				"element": "H" 
			},
			{
				"x": -0.1746462106,
				"y": -2.8442107858,
				"z": -1.3321615752,
				"element": "H" 
			}
		],
		 "valence_orbital": [ 
			{
				"type": "occ",
				"energy": -0.3143,
				"method": "rhf"
			},
			{
				"type": "occ",
				"energy": -0.27255,
				"method": "rhf"
			},
			{
				"type": "occ",
				"energy": -0.26785,
				"method": "rhf"
			},
			{
				"type": "occ",
				"energy": -0.24416,
				"method": "rhf"
			},
			{
				"type": "occ",
				"energy": -0.18384,
				"method": "rhf"
			},
			{
				"type": "unocc",
				"energy": 0.00397,
				"method": "rhf"
			},
			{
				"type": "unocc",
				"energy": 0.03248,
				"method": "rhf"
			},
			{
				"type": "unocc",
				"energy": 0.07062,
				"method": "rhf"
			},
			{
				"type": "unocc",
				"energy": 0.08365,
				"method": "rhf"
			},
			{
				"type": "unocc",
				"energy": 0.10134,
				"method": "rhf"
			}
		],
		"cosmo_sigma_profile": { 
			"-0.025": 0.0,
			"-0.024": 0.0,
			"-0.023": 0.0,
			"-0.022": 0.0,
			"-0.021": 0.0,
			"-0.02": 0.0,
			"-0.019": 0.0,
			"-0.018": 0.0,
			"-0.017": 0.0,
			"-0.016": 0.0,
			"-0.015": 0.37648211297,
			"-0.014": 1.07482456615,
			"-0.013": 1.14981939249,
			"-0.012": 2.13714606576,
			"-0.011": 4.17721442916,
			"-0.01": 3.5309200716,
			"-0.009": 3.43628504882,
			"-0.008": 5.02322836364,
			"-0.007": 4.79254675515,
			"-0.006": 7.55492659929,
			"-0.005": 12.1047493565,
			"-0.004": 14.8067480101,
			"-0.003": 20.2254342608,
			"-0.002": 19.0114724545,
			"-0.001": 17.5720759867,
			"0.0": 19.2366655429,
			"0.001": 18.7169215381,
			"0.002": 11.3814600267,
			"0.003": 7.62041616681,
			"0.004": 10.1907120833,
			"0.005": 13.1669817489,
			"0.006": 15.2165470494,
			"0.007": 11.1927360997,
			"0.008": 2.57518972542,
			"0.009": 1.87496445353,
			"0.01": 1.75194059965,
			"0.011": 1.8818119084,
			"0.012": 2.06618539166,
			"0.013": 2.26646943067,
			"0.014": 2.78312403167,
			"0.015": 0.819472672339,
			"0.016": 0.348543717069,
			"0.017": 0.0,
			"0.018": 0.0,
			"0.019": 0.0,
			"0.02": 0.0,
			"0.021": 0.0,
			"0.022": 0.0,
			"0.023": 0.0,
			"0.024": 0.0,
			"0.025": 0.0
		}
	}
}
