{
	 "smiles": "CC1=C(O)C=C(C=C1)C(=O)NO", 
	 "Tm": 443.15, 
	 "num_atms": 21, 
	 "gaussian": { 
		 "optdone": 1, 
		 "sigma_profile": "yes", 
		 "theory": "DFT", 
		 "functional": "B3LYP", 
		 "basiset": "6-31G**", 
		 "properties": { 
			 "R2extent": 2884.1595, 
			 "electric_dipole_moment_norm": 3.64859088005, 
			 "electric_quadrupole_moment_norm": 16.3530983376, 
			 "total_energy": -590.647854729, 
			 "HOMO_LUMO_gap": 0.18352, 
			 "cosmo_polarized_energy": -17.39, 
			 "cosmo_cavitation_energy": 25.33, 
			 "cosmo_dispersion_energy": -18.66, 
			 "cosmo_repulsion_energy": 1.49, 
			 "cosmo_total_nonelectrostatic_energy": 8.16, 
			 "SMD_solvation_energy": 6.15 
		},
		"coords": [
			{
				"x": -0.5697267197,
				"y": -3.0489829873,
				"z": -0.0935641345,
				"element": "C" 
			},
			{
				"x": -0.2359361379,
				"y": -1.6561390562,
				"z": -0.5699502006,
				"element": "C" 
			},
			{
				"x": 1.1040235092,
				"y": -1.2645336524,
				"z": -0.7469862409,
				"element": "C" 
			},
			{
				"x": 2.1522933009,
				"y": -2.1125966568,
				"z": -0.5086447138,
				"element": "O" 
			},
			{
				"x": 1.4267365622,
				"y": 0.0223065699,
				"z": -1.1774726397,
				"element": "C" 
			},
			{
				"x": 0.4141959586,
				"y": 0.9467583252,
				"z": -1.4530628945,
				"element": "C" 
			},
			{
				"x": -0.9259126793,
				"y": 0.5644832061,
				"z": -1.2994005682,
				"element": "C" 
			},
			{
				"x": -1.2340037757,
				"y": -0.7165478073,
				"z": -0.8549478741,
				"element": "C" 
			},
			{
				"x": 0.6598038989,
				"y": 2.3232312704,
				"z": -1.9792590564,
				"element": "C" 
			},
			{
				"x": -0.1903167804,
				"y": 2.9480073131,
				"z": -2.601191357,
				"element": "O" 
			},
			{
				"x": 1.9246088643,
				"y": 2.9036861006,
				"z": -1.8430590106,
				"element": "N" 
			},
			{
				"x": 2.6417749248,
				"y": 2.66167729,
				"z": -0.6455580403,
				"element": "O" 
			},
			{
				"x": -0.1392094134,
				"y": -3.2603761642,
				"z": 0.894862379,
				"element": "H" 
			},
			{
				"x": -1.6504304239,
				"y": -3.1829768102,
				"z": -0.0087495366,
				"element": "H" 
			},
			{
				"x": -0.2029696533,
				"y": -3.820003759,
				"z": -0.7853292942,
				"element": "H" 
			},
			{
				"x": 1.8154566559,
				"y": -2.972432962,
				"z": -0.2284188374,
				"element": "H" 
			},
			{
				"x": 2.4729863258,
				"y": 0.2683816651,
				"z": -1.2974438223,
				"element": "H" 
			},
			{
				"x": -1.7041130269,
				"y": 1.2800799546,
				"z": -1.5377194328,
				"element": "H" 
			},
			{
				"x": -2.2741878974,
				"y": -1.0053057544,
				"z": -0.7278168744,
				"element": "H" 
			},
			{
				"x": 1.8670598958,
				"y": 3.9049815007,
				"z": -2.0143054091,
				"element": "H" 
			},
			{
				"x": 3.4897666116,
				"y": 2.3074024141,
				"z": -0.9511824415,
				"element": "H" 
			}
		],
		 "valence_orbital": [ 
			{
				"type": "occ",
				"energy": -0.31996,
				"method": "rhf"
			},
			{
				"type": "occ",
				"energy": -0.26983,
				"method": "rhf"
			},
			{
				"type": "occ",
				"energy": -0.25325,
				"method": "rhf"
			},
			{
				"type": "occ",
				"energy": -0.24969,
				"method": "rhf"
			},
			{
				"type": "occ",
				"energy": -0.22403,
				"method": "rhf"
			},
			{
				"type": "unocc",
				"energy": -0.04051,
				"method": "rhf"
			},
			{
				"type": "unocc",
				"energy": 0.00563,
				"method": "rhf"
			},
			{
				"type": "unocc",
				"energy": 0.04132,
				"method": "rhf"
			},
			{
				"type": "unocc",
				"energy": 0.05916,
				"method": "rhf"
			},
			{
				"type": "unocc",
				"energy": 0.06496,
				"method": "rhf"
			}
		],
		"cosmo_sigma_profile": { 
			"-0.025": 0.0,
			"-0.024": 0.0,
			"-0.023": 0.0,
			"-0.022": 0.0,
			"-0.021": 0.0,
			"-0.02": 0.0,
			"-0.019": 0.0,
			"-0.018": 0.182443654912,
			"-0.017": 1.01464053005,
			"-0.016": 1.61416774632,
			"-0.015": 1.64629162866,
			"-0.014": 3.17755769576,
			"-0.013": 2.79492832109,
			"-0.012": 3.08158040498,
			"-0.011": 2.19211887257,
			"-0.01": 3.35910342531,
			"-0.009": 3.6869423549,
			"-0.008": 2.93089408143,
			"-0.007": 3.53367919794,
			"-0.006": 7.43831931439,
			"-0.005": 11.8405081588,
			"-0.004": 10.2990689816,
			"-0.003": 10.4908535779,
			"-0.002": 11.1787643698,
			"-0.001": 13.3400478996,
			"0.0": 11.2120205398,
			"0.001": 8.20972342325,
			"0.002": 11.7806675587,
			"0.003": 13.3503211908,
			"0.004": 14.1123619469,
			"0.005": 10.6783854105,
			"0.006": 4.36388573711,
			"0.007": 4.1697879689,
			"0.008": 5.61633606501,
			"0.009": 4.4832253141,
			"0.01": 5.2505349937,
			"0.011": 5.15317407956,
			"0.012": 4.10635319809,
			"0.013": 4.08741009175,
			"0.014": 0.118780660872,
			"0.015": 0.0,
			"0.016": 0.0,
			"0.017": 0.0,
			"0.018": 0.0,
			"0.019": 0.0,
			"0.02": 0.0,
			"0.021": 0.0,
			"0.022": 0.0,
			"0.023": 0.0,
			"0.024": 0.0,
			"0.025": 0.0
		}
	}
}
