{
	 "smiles": "BrC1=NC=C(I)C=C1", 
	 "Tm": 396.65, 
	 "num_atms": 11, 
	 "gaussian": { 
		 "optdone": 1, 
		 "sigma_profile": "no", 
		 "theory": "DFT", 
		 "functional": "B3LYP", 
		 "basiset": "6-31G**", 
		 "properties": { 
			 "R2extent": 4401.9592, 
			 "electric_dipole_moment_norm": 2.25414624415, 
			 "electric_quadrupole_moment_norm": 7.87135385178, 
			 "total_energy": -2829.87066532, 
			 "HOMO_LUMO_gap": 0.19873, 
			 "cosmo_polarized_energy": -99417.78, 
			 "cosmo_cavitation_energy": 21.15, 
			 "cosmo_dispersion_energy": -17.73, 
			 "cosmo_repulsion_energy": 1.43, 
			 "cosmo_total_nonelectrostatic_energy": 4.85, 
			 "SMD_solvation_energy": 0.25 
		},
		"coords": [
			{
				"x": 4.5088880058,
				"y": -0.7842960935,
				"z": -0.8004998724,
				"element": "Br" 
			},
			{
				"x": 2.6842634054,
				"y": -1.3492035337,
				"z": -0.9739696017,
				"element": "C" 
			},
			{
				"x": 2.3194618276,
				"y": -1.8433933059,
				"z": -2.1416314672,
				"element": "N" 
			},
			{
				"x": 1.0501688443,
				"y": -2.2446460789,
				"z": -2.2871761643,
				"element": "C" 
			},
			{
				"x": 0.1160269032,
				"y": -2.1558539329,
				"z": -1.2531200129,
				"element": "C" 
			},
			{
				"x": -1.8680866424,
				"y": -2.8097769256,
				"z": -1.5603127534,
				"element": "I" 
			},
			{
				"x": 0.5164495393,
				"y": -1.6304257519,
				"z": -0.021808157,
				"element": "C" 
			},
			{
				"x": 1.8364158365,
				"y": -1.2136902947,
				"z": 0.1281221273,
				"element": "C" 
			},
			{
				"x": 0.7775664831,
				"y": -2.6472433254,
				"z": -3.2585663153,
				"element": "H" 
			},
			{
				"x": -0.1809418552,
				"y": -1.5459288327,
				"z": 0.8044391482,
				"element": "H" 
			},
			{
				"x": 2.1957876523,
				"y": -0.7996419246,
				"z": 1.0623230686,
				"element": "H" 
			}
		],
		 "valence_orbital": [ 
			{
				"type": "occ",
				"energy": -0.29558,
				"method": "rhf"
			},
			{
				"type": "occ",
				"energy": -0.29086,
				"method": "rhf"
			},
			{
				"type": "occ",
				"energy": -0.29038,
				"method": "rhf"
			},
			{
				"type": "occ",
				"energy": -0.27898,
				"method": "rhf"
			},
			{
				"type": "occ",
				"energy": -0.25226,
				"method": "rhf"
			},
			{
				"type": "unocc",
				"energy": -0.05353,
				"method": "rhf"
			},
			{
				"type": "unocc",
				"energy": -0.05208,
				"method": "rhf"
			},
			{
				"type": "unocc",
				"energy": -0.04249,
				"method": "rhf"
			},
			{
				"type": "unocc",
				"energy": 0.00102,
				"method": "rhf"
			},
			{
				"type": "unocc",
				"energy": 0.03552,
				"method": "rhf"
			}
		],
		"cosmo_sigma_profile": { 
			"0.0": 0.0,
			"0.0": 0.0,
			"0.0": 0.0,
			"0.0": 0.0,
			"0.0": 0.0,
			"0.0": 0.0,
			"0.0": 0.0,
			"0.0": 0.0,
			"0.0": 0.0,
			"0.0": 0.0,
			"0.0": 0.0,
			"0.0": 0.0,
			"0.0": 0.0,
			"0.0": 0.0,
			"0.0": 0.0,
			"0.0": 0.0,
			"0.0": 0.0,
			"0.0": 0.0,
			"0.0": 0.0,
			"0.0": 0.0,
			"0.0": 0.0,
			"0.0": 0.0,
			"0.0": 0.0,
			"0.0": 0.0,
			"0.0": 0.0,
			"0.0": 0.0,
			"0.0": 0.0,
			"0.0": 0.0,
			"0.0": 0.0,
			"0.0": 0.0,
			"0.0": 0.0,
			"0.0": 0.0,
			"0.0": 0.0,
			"0.0": 0.0,
			"0.0": 0.0,
			"0.0": 0.0,
			"0.0": 0.0,
			"0.0": 0.0,
			"0.0": 0.0,
			"0.0": 0.0,
			"0.0": 0.0,
			"0.0": 0.0,
			"0.0": 0.0,
			"0.0": 0.0,
			"0.0": 0.0,
			"0.0": 0.0,
			"0.0": 0.0,
			"0.0": 0.0,
			"0.0": 0.0,
			"0.0": 0.0,
			"0.0": 0.0
		}
	}
}
