{
	 "smiles": "ClC1=CC2=NN=C(N2C=N1)C1=CC=CC=C1", 
	 "Tm": 429.15, 
	 "num_atms": 23, 
	 "gaussian": { 
		 "optdone": 1, 
		 "sigma_profile": "yes", 
		 "theory": "DFT", 
		 "functional": "B3LYP", 
		 "basiset": "6-31G**", 
		 "properties": { 
			 "R2extent": 5196.8099, 
			 "electric_dipole_moment_norm": 3.76568672356, 
			 "electric_quadrupole_moment_norm": 13.1185659132, 
			 "total_energy": -1102.55408595, 
			 "HOMO_LUMO_gap": 0.15657, 
			 "cosmo_polarized_energy": -15.02, 
			 "cosmo_cavitation_energy": 29.91, 
			 "cosmo_dispersion_energy": -22.41, 
			 "cosmo_repulsion_energy": 1.7, 
			 "cosmo_total_nonelectrostatic_energy": 9.2, 
			 "SMD_solvation_energy": 1.57 
		},
		"coords": [
			{
				"x": 3.5380580561,
				"y": 3.6925879079,
				"z": -1.4378903207,
				"element": "Cl" 
			},
			{
				"x": 2.5686390647,
				"y": 2.300021577,
				"z": -1.0212415264,
				"element": "C" 
			},
			{
				"x": 2.7533000447,
				"y": 1.6667519792,
				"z": 0.1778721733,
				"element": "C" 
			},
			{
				"x": 1.9233757287,
				"y": 0.5494677898,
				"z": 0.4423681933,
				"element": "C" 
			},
			{
				"x": 1.8658930331,
				"y": -0.2968728939,
				"z": 1.4548872882,
				"element": "N" 
			},
			{
				"x": 0.8733173425,
				"y": -1.1918580354,
				"z": 1.1710297087,
				"element": "N" 
			},
			{
				"x": 0.3209408549,
				"y": -0.9051097231,
				"z": 0.0051887327,
				"element": "C" 
			},
			{
				"x": 0.9612289153,
				"y": 0.2114362568,
				"z": -0.5236111496,
				"element": "N" 
			},
			{
				"x": 0.8998446171,
				"y": 0.9003126032,
				"z": -1.7128918384,
				"element": "C" 
			},
			{
				"x": 1.665345705,
				"y": 1.9149121119,
				"z": -1.9689368119,
				"element": "N" 
			},
			{
				"x": -0.7716901444,
				"y": -1.6571383603,
				"z": -0.6187437663,
				"element": "C" 
			},
			{
				"x": -0.845147989,
				"y": -3.042034436,
				"z": -0.3895005188,
				"element": "C" 
			},
			{
				"x": -1.8788671538,
				"y": -3.7914172151,
				"z": -0.9439338489,
				"element": "C" 
			},
			{
				"x": -2.8518609708,
				"y": -3.1745459396,
				"z": -1.7351588207,
				"element": "C" 
			},
			{
				"x": -2.7945336813,
				"y": -1.7977576161,
				"z": -1.955277846,
				"element": "C" 
			},
			{
				"x": -1.7654901962,
				"y": -1.0398343487,
				"z": -1.3968673954,
				"element": "C" 
			},
			{
				"x": 3.4959255957,
				"y": 1.9744362309,
				"z": 0.9017876496,
				"element": "H" 
			},
			{
				"x": 0.185865766,
				"y": 0.5533500394,
				"z": -2.4510483764,
				"element": "H" 
			},
			{
				"x": -0.0851104929,
				"y": -3.5107340342,
				"z": 0.2260757398,
				"element": "H" 
			},
			{
				"x": -1.9229317756,
				"y": -4.8611199838,
				"z": -0.7623382488,
				"element": "H" 
			},
			{
				"x": -3.6538576029,
				"y": -3.7626250559,
				"z": -2.1711748917,
				"element": "H" 
			},
			{
				"x": -3.5586881802,
				"y": -1.3079348206,
				"z": -2.5513374473,
				"element": "H" 
			},
			{
				"x": -1.7657565369,
				"y": 0.0370059666,
				"z": -1.5347566784,
				"element": "H" 
			}
		],
		 "valence_orbital": [ 
			{
				"type": "occ",
				"energy": -0.31059,
				"method": "rhf"
			},
			{
				"type": "occ",
				"energy": -0.28037,
				"method": "rhf"
			},
			{
				"type": "occ",
				"energy": -0.271,
				"method": "rhf"
			},
			{
				"type": "occ",
				"energy": -0.26721,
				"method": "rhf"
			},
			{
				"type": "occ",
				"energy": -0.2316,
				"method": "rhf"
			},
			{
				"type": "unocc",
				"energy": -0.07503,
				"method": "rhf"
			},
			{
				"type": "unocc",
				"energy": -0.05337,
				"method": "rhf"
			},
			{
				"type": "unocc",
				"energy": -0.0218,
				"method": "rhf"
			},
			{
				"type": "unocc",
				"energy": -0.01534,
				"method": "rhf"
			},
			{
				"type": "unocc",
				"energy": 0.02053,
				"method": "rhf"
			}
		],
		"cosmo_sigma_profile": { 
			"-0.025": 0.0,
			"-0.024": 0.0,
			"-0.023": 0.0,
			"-0.022": 0.0,
			"-0.021": 0.0,
			"-0.02": 0.0,
			"-0.019": 0.0,
			"-0.018": 0.0,
			"-0.017": 0.0,
			"-0.016": 0.0,
			"-0.015": 0.0,
			"-0.014": 0.0,
			"-0.013": 0.0,
			"-0.012": 0.073521110013,
			"-0.011": 1.45401333108,
			"-0.01": 4.35468751177,
			"-0.009": 4.86909620349,
			"-0.008": 4.82357283505,
			"-0.007": 9.29926713605,
			"-0.006": 16.0282346117,
			"-0.005": 17.311717075,
			"-0.004": 14.4477073046,
			"-0.003": 14.8075228974,
			"-0.002": 17.127159962,
			"-0.001": 18.8924325952,
			"0.0": 12.6934038383,
			"0.001": 13.9162957349,
			"0.002": 16.7788143385,
			"0.003": 21.3958014877,
			"0.004": 19.3478570448,
			"0.005": 6.14262275621,
			"0.006": 3.8588319225,
			"0.007": 3.17765737122,
			"0.008": 2.93132713829,
			"0.009": 2.73978199231,
			"0.01": 2.94907925643,
			"0.011": 3.89464667892,
			"0.012": 4.3125913326,
			"0.013": 2.57470591137,
			"0.014": 2.25232680355,
			"0.015": 1.89294707575,
			"0.016": 0.759319720377,
			"0.017": 0.0,
			"0.018": 0.0,
			"0.019": 0.0,
			"0.02": 0.0,
			"0.021": 0.0,
			"0.022": 0.0,
			"0.023": 0.0,
			"0.024": 0.0,
			"0.025": 0.0
		}
	}
}
