{
	 "smiles": "CNC(=O)ON=C(/C)C(C)S(C)(=O)=O", 
	 "Tm": 360.15, 
	 "num_atms": 28, 
	 "gaussian": { 
		 "optdone": 1, 
		 "sigma_profile": "yes", 
		 "theory": "DFT", 
		 "functional": "B3LYP", 
		 "basiset": "6-31G**", 
		 "properties": { 
			 "R2extent": 4149.5354, 
			 "electric_dipole_moment_norm": 0.572406673616, 
			 "electric_quadrupole_moment_norm": 31.5749003259, 
			 "total_energy": -1083.66710858, 
			 "HOMO_LUMO_gap": 0.2289, 
			 "cosmo_polarized_energy": -21.88, 
			 "cosmo_cavitation_energy": 32.56, 
			 "cosmo_dispersion_energy": -22.37, 
			 "cosmo_repulsion_energy": 1.75, 
			 "cosmo_total_nonelectrostatic_energy": 11.94, 
			 "SMD_solvation_energy": 6.66 
		},
		"coords": [
			{
				"x": 0.0217008729,
				"y": 3.2370696493,
				"z": 2.2315887206,
				"element": "C" 
			},
			{
				"x": -0.907074119,
				"y": 2.3942679583,
				"z": 2.9871900072,
				"element": "N" 
			},
			{
				"x": -0.7918082832,
				"y": 1.0491424025,
				"z": 3.1763993247,
				"element": "C" 
			},
			{
				"x": -1.2351458305,
				"y": 0.4318129923,
				"z": 4.1168039016,
				"element": "O" 
			},
			{
				"x": -0.0532042945,
				"y": 0.3734470402,
				"z": 2.1985518532,
				"element": "O" 
			},
			{
				"x": -0.5558007228,
				"y": 0.596460335,
				"z": 0.8971197086,
				"element": "N" 
			},
			{
				"x": 0.159806424,
				"y": 0.0306969507,
				"z": -0.0011016408,
				"element": "C" 
			},
			{
				"x": 1.4219218577,
				"y": -0.7529910026,
				"z": 0.2260970043,
				"element": "C" 
			},
			{
				"x": -0.3414404528,
				"y": 0.1632773111,
				"z": -1.4274641472,
				"element": "C" 
			},
			{
				"x": -1.4586010819,
				"y": -0.8293804115,
				"z": -1.7753994272,
				"element": "C" 
			},
			{
				"x": -0.7892185816,
				"y": 1.8946626349,
				"z": -1.9085603521,
				"element": "S" 
			},
			{
				"x": -2.3683382348,
				"y": 2.2714559584,
				"z": -1.1158401487,
				"element": "C" 
			},
			{
				"x": 0.234868584,
				"y": 2.7927947749,
				"z": -1.3447678064,
				"element": "O" 
			},
			{
				"x": -1.0136911987,
				"y": 1.8528101338,
				"z": -3.3635629159,
				"element": "O" 
			},
			{
				"x": 1.0304218099,
				"y": 3.2296268931,
				"z": 2.6630644341,
				"element": "H" 
			},
			{
				"x": -0.356800551,
				"y": 4.2610212924,
				"z": 2.2599702714,
				"element": "H" 
			},
			{
				"x": 0.0800004654,
				"y": 2.9301056486,
				"z": 1.1876272709,
				"element": "H" 
			},
			{
				"x": -1.3719802318,
				"y": 2.8283796301,
				"z": 3.7729907097,
				"element": "H" 
			},
			{
				"x": 1.5214057549,
				"y": -1.0520785925,
				"z": 1.2684847244,
				"element": "H" 
			},
			{
				"x": 1.4426280594,
				"y": -1.6408166501,
				"z": -0.4139110629,
				"element": "H" 
			},
			{
				"x": 2.2853458872,
				"y": -0.1336525055,
				"z": -0.0470229227,
				"element": "H" 
			},
			{
				"x": 0.5043695832,
				"y": 0.0050999322,
				"z": -2.1067951357,
				"element": "H" 
			},
			{
				"x": -1.77729228,
				"y": -0.6971953404,
				"z": -2.8120607976,
				"element": "H" 
			},
			{
				"x": -1.0906013293,
				"y": -1.8533691702,
				"z": -1.65757538,
				"element": "H" 
			},
			{
				"x": -2.3150659844,
				"y": -0.7069869712,
				"z": -1.1075613006,
				"element": "H" 
			},
			{
				"x": -2.569325794,
				"y": 3.3152216044,
				"z": -1.3655364679,
				"element": "H" 
			},
			{
				"x": -2.2667095687,
				"y": 2.1299360715,
				"z": -0.0405317125,
				"element": "H" 
			},
			{
				"x": -3.1439707594,
				"y": 1.63038143,
				"z": -1.5353967125,
				"element": "H" 
			}
		],
		 "valence_orbital": [ 
			{
				"type": "occ",
				"energy": -0.29827,
				"method": "rhf"
			},
			{
				"type": "occ",
				"energy": -0.29188,
				"method": "rhf"
			},
			{
				"type": "occ",
				"energy": -0.28528,
				"method": "rhf"
			},
			{
				"type": "occ",
				"energy": -0.26827,
				"method": "rhf"
			},
			{
				"type": "occ",
				"energy": -0.25912,
				"method": "rhf"
			},
			{
				"type": "unocc",
				"energy": -0.03022,
				"method": "rhf"
			},
			{
				"type": "unocc",
				"energy": 0.01721,
				"method": "rhf"
			},
			{
				"type": "unocc",
				"energy": 0.05377,
				"method": "rhf"
			},
			{
				"type": "unocc",
				"energy": 0.06435,
				"method": "rhf"
			},
			{
				"type": "unocc",
				"energy": 0.06642,
				"method": "rhf"
			}
		],
		"cosmo_sigma_profile": { 
			"-0.025": 0.0,
			"-0.024": 0.0,
			"-0.023": 0.0,
			"-0.022": 0.0,
			"-0.021": 0.0,
			"-0.02": 0.0,
			"-0.019": 0.0,
			"-0.018": 0.0,
			"-0.017": 0.0,
			"-0.016": 0.0,
			"-0.015": 0.151688843838,
			"-0.014": 1.25829346317,
			"-0.013": 1.14898609561,
			"-0.012": 0.966595363521,
			"-0.011": 0.912808823793,
			"-0.01": 1.33730376266,
			"-0.009": 4.76381913984,
			"-0.008": 8.51151153527,
			"-0.007": 11.1154659099,
			"-0.006": 16.104524958,
			"-0.005": 18.4663825436,
			"-0.004": 22.4830695879,
			"-0.003": 24.5597154969,
			"-0.002": 22.9826554812,
			"-0.001": 17.149886706,
			"0.0": 9.38013559996,
			"0.001": 9.61583469429,
			"0.002": 8.79108887966,
			"0.003": 8.49220797651,
			"0.004": 8.0836365411,
			"0.005": 5.88326301013,
			"0.006": 4.53325354389,
			"0.007": 4.17244972069,
			"0.008": 3.15307111423,
			"0.009": 4.8510405467,
			"0.01": 5.61464002457,
			"0.011": 10.9390564271,
			"0.012": 14.6371918561,
			"0.013": 5.53606228643,
			"0.014": 0.651810658348,
			"0.015": 0.0,
			"0.016": 0.0,
			"0.017": 0.0,
			"0.018": 0.0,
			"0.019": 0.0,
			"0.02": 0.0,
			"0.021": 0.0,
			"0.022": 0.0,
			"0.023": 0.0,
			"0.024": 0.0,
			"0.025": 0.0
		}
	}
}
