{
	 "smiles": "NC(=S)CC1=CN2C=CC=CC2=N1", 
	 "Tm": 418.15, 
	 "num_atms": 22, 
	 "gaussian": { 
		 "optdone": 1, 
		 "sigma_profile": "yes", 
		 "theory": "DFT", 
		 "functional": "B3LYP", 
		 "basiset": "6-31G**", 
		 "properties": { 
			 "R2extent": 3677.452, 
			 "electric_dipole_moment_norm": 7.35763974995, 
			 "electric_quadrupole_moment_norm": 20.2784982166, 
			 "total_energy": -910.834830956, 
			 "HOMO_LUMO_gap": 0.1449, 
			 "cosmo_polarized_energy": -16.51, 
			 "cosmo_cavitation_energy": 27.79, 
			 "cosmo_dispersion_energy": -21.14, 
			 "cosmo_repulsion_energy": 1.63, 
			 "cosmo_total_nonelectrostatic_energy": 8.28, 
			 "SMD_solvation_energy": 3.1 
		},
		"coords": [
			{
				"x": -3.0985088981,
				"y": 0.6593697885,
				"z": 1.4757904307,
				"element": "N" 
			},
			{
				"x": -2.2059696636,
				"y": 0.5489545227,
				"z": 2.4679093429,
				"element": "C" 
			},
			{
				"x": -2.608186968,
				"y": 0.1602827254,
				"z": 4.0388979468,
				"element": "S" 
			},
			{
				"x": -0.7648744827,
				"y": 0.8806930398,
				"z": 2.0676471531,
				"element": "C" 
			},
			{
				"x": -0.3239409092,
				"y": 0.3705455213,
				"z": 0.724694453,
				"element": "C" 
			},
			{
				"x": 0.7692908553,
				"y": -0.4283397846,
				"z": 0.4550212429,
				"element": "C" 
			},
			{
				"x": 0.769023683,
				"y": -0.6170072143,
				"z": -0.9129094308,
				"element": "N" 
			},
			{
				"x": 1.6194495732,
				"y": -1.3188754215,
				"z": -1.7316624311,
				"element": "C" 
			},
			{
				"x": 1.3815400379,
				"y": -1.3465434333,
				"z": -3.0774414792,
				"element": "C" 
			},
			{
				"x": 0.2645298446,
				"y": -0.6544442206,
				"z": -3.6244699337,
				"element": "C" 
			},
			{
				"x": -0.5864872806,
				"y": 0.048942847,
				"z": -2.8056759805,
				"element": "C" 
			},
			{
				"x": -0.3444186673,
				"y": 0.0804454855,
				"z": -1.413596573,
				"element": "C" 
			},
			{
				"x": -1.003979703,
				"y": 0.6820389747,
				"z": -0.4242235716,
				"element": "N" 
			},
			{
				"x": -4.0676822463,
				"y": 0.4581364305,
				"z": 1.6742803988,
				"element": "H" 
			},
			{
				"x": -2.7787971557,
				"y": 0.8207246744,
				"z": 0.5208914384,
				"element": "H" 
			},
			{
				"x": -0.6886726765,
				"y": 1.9774565608,
				"z": 2.0731860655,
				"element": "H" 
			},
			{
				"x": -0.1047305001,
				"y": 0.5116676057,
				"z": 2.8519185266,
				"element": "H" 
			},
			{
				"x": 1.5205981616,
				"y": -0.8640628874,
				"z": 1.0946136095,
				"element": "H" 
			},
			{
				"x": 2.4485376472,
				"y": -1.8221478532,
				"z": -1.249290426,
				"element": "H" 
			},
			{
				"x": 2.0554822546,
				"y": -1.9021991086,
				"z": -3.7189889329,
				"element": "H" 
			},
			{
				"x": 0.0894124926,
				"y": -0.6852443517,
				"z": -4.6946560872,
				"element": "H" 
			},
			{
				"x": -1.4453153989,
				"y": 0.5888060987,
				"z": -3.1872357621,
				"element": "H" 
			}
		],
		 "valence_orbital": [ 
			{
				"type": "occ",
				"energy": -0.29238,
				"method": "rhf"
			},
			{
				"type": "occ",
				"energy": -0.25639,
				"method": "rhf"
			},
			{
				"type": "occ",
				"energy": -0.22586,
				"method": "rhf"
			},
			{
				"type": "occ",
				"energy": -0.21517,
				"method": "rhf"
			},
			{
				"type": "occ",
				"energy": -0.19286,
				"method": "rhf"
			},
			{
				"type": "unocc",
				"energy": -0.04796,
				"method": "rhf"
			},
			{
				"type": "unocc",
				"energy": -0.01483,
				"method": "rhf"
			},
			{
				"type": "unocc",
				"energy": -0.01013,
				"method": "rhf"
			},
			{
				"type": "unocc",
				"energy": 0.04847,
				"method": "rhf"
			},
			{
				"type": "unocc",
				"energy": 0.07561,
				"method": "rhf"
			}
		],
		"cosmo_sigma_profile": { 
			"-0.025": 0.0,
			"-0.024": 0.0,
			"-0.023": 0.0,
			"-0.022": 0.0,
			"-0.021": 0.0,
			"-0.02": 0.0,
			"-0.019": 0.0,
			"-0.018": 0.0,
			"-0.017": 0.0,
			"-0.016": 0.0,
			"-0.015": 0.342732035444,
			"-0.014": 0.99594129688,
			"-0.013": 1.27703327602,
			"-0.012": 0.921093350576,
			"-0.011": 1.03450392517,
			"-0.01": 3.14225958364,
			"-0.009": 5.91007505378,
			"-0.008": 6.26421180043,
			"-0.007": 11.0882824257,
			"-0.006": 14.3247013693,
			"-0.005": 14.7361417664,
			"-0.004": 10.1985630963,
			"-0.003": 11.72509477,
			"-0.002": 9.64037687019,
			"-0.001": 12.1634010914,
			"0.0": 16.1969153366,
			"0.001": 15.0775641079,
			"0.002": 19.5448567517,
			"0.003": 16.6727835786,
			"0.004": 9.91193567935,
			"0.005": 5.19331913453,
			"0.006": 3.83578285769,
			"0.007": 4.34730573953,
			"0.008": 5.93643835233,
			"0.009": 6.80579012144,
			"0.01": 6.64450326374,
			"0.011": 5.46636530254,
			"0.012": 4.28198928165,
			"0.013": 1.84933954477,
			"0.014": 0.0479759541744,
			"0.015": 0.0,
			"0.016": 0.0,
			"0.017": 0.0,
			"0.018": 0.0,
			"0.019": 0.0,
			"0.02": 0.0,
			"0.021": 0.0,
			"0.022": 0.0,
			"0.023": 0.0,
			"0.024": 0.0,
			"0.025": 0.0
		}
	}
}
