{
	 "smiles": "CC(=O)OC1CCC2(C)C(CCC3C2CCC2=C3CC[C@@]2(C)C#CC2=CC=CC=C2)C1", 
	 "Tm": 409.15, 
	 "num_atms": 67, 
	 "gaussian": { 
		 "optdone": 1, 
		 "sigma_profile": "yes", 
		 "theory": "DFT", 
		 "functional": "B3LYP", 
		 "basiset": "6-31G**", 
		 "properties": { 
			 "R2extent": 21074.7979, 
			 "electric_dipole_moment_norm": 2.17635890652, 
			 "electric_quadrupole_moment_norm": 11.4683771289, 
			 "total_energy": -1277.21051229, 
			 "HOMO_LUMO_gap": 0.19237, 
			 "cosmo_polarized_energy": -11.55, 
			 "cosmo_cavitation_energy": 62.93, 
			 "cosmo_dispersion_energy": -42.32, 
			 "cosmo_repulsion_energy": 3.2, 
			 "cosmo_total_nonelectrostatic_energy": 23.82, 
			 "SMD_solvation_energy": 10.04 
		},
		"coords": [
			{
				"x": 0.8102931546,
				"y": 1.2700742086,
				"z": -8.2088577225,
				"element": "C" 
			},
			{
				"x": 0.8778299415,
				"y": 1.1305829683,
				"z": -6.7051472928,
				"element": "C" 
			},
			{
				"x": 1.7953116205,
				"y": 1.5121164203,
				"z": -6.0098113724,
				"element": "O" 
			},
			{
				"x": -0.2315582862,
				"y": 0.5170535876,
				"z": -6.2332916363,
				"element": "O" 
			},
			{
				"x": -0.3153303553,
				"y": 0.3077638234,
				"z": -4.7957662703,
				"element": "C" 
			},
			{
				"x": -0.9045911636,
				"y": 1.5448425454,
				"z": -4.1175617719,
				"element": "C" 
			},
			{
				"x": -1.240759001,
				"y": 1.2836211165,
				"z": -2.6358026671,
				"element": "C" 
			},
			{
				"x": -2.1650638644,
				"y": 0.0503460843,
				"z": -2.4196917119,
				"element": "C" 
			},
			{
				"x": -3.5376430511,
				"y": 0.323575629,
				"z": -3.0797094286,
				"element": "C" 
			},
			{
				"x": -1.481206451,
				"y": -1.1836127748,
				"z": -3.0887352345,
				"element": "C" 
			},
			{
				"x": -0.1914535395,
				"y": -1.655873742,
				"z": -2.3551530129,
				"element": "C" 
			},
			{
				"x": -0.2053870703,
				"y": -1.4223128058,
				"z": -0.8328623193,
				"element": "C" 
			},
			{
				"x": -1.6489439122,
				"y": -1.4419946501,
				"z": -0.3051019682,
				"element": "C" 
			},
			{
				"x": -2.4738258345,
				"y": -0.2589285418,
				"z": -0.8933146373,
				"element": "C" 
			},
			{
				"x": -2.3998585195,
				"y": 0.9829218068,
				"z": 0.0199821674,
				"element": "C" 
			},
			{
				"x": -2.929672549,
				"y": 0.693473462,
				"z": 1.4331148081,
				"element": "C" 
			},
			{
				"x": -2.340477921,
				"y": -0.579253685,
				"z": 1.9642624029,
				"element": "C" 
			},
			{
				"x": -1.7413654512,
				"y": -1.5003453953,
				"z": 1.1972820637,
				"element": "C" 
			},
			{
				"x": -1.1592293468,
				"y": -2.6278409514,
				"z": 2.0246618972,
				"element": "C" 
			},
			{
				"x": -1.8347313205,
				"y": -2.4378159751,
				"z": 3.4001867385,
				"element": "C" 
			},
			{
				"x": -2.2775183868,
				"y": -0.935718586,
				"z": 3.4558027591,
				"element": "C" 
			},
			{
				"x": -3.6303608032,
				"y": -0.7616239391,
				"z": 4.1816494434,
				"element": "C" 
			},
			{
				"x": -1.2588822774,
				"y": -0.096048299,
				"z": 4.1128144155,
				"element": "C" 
			},
			{
				"x": -0.4252596473,
				"y": 0.6084872764,
				"z": 4.6453763355,
				"element": "C" 
			},
			{
				"x": 0.5622352168,
				"y": 1.4314915498,
				"z": 5.2706092433,
				"element": "C" 
			},
			{
				"x": 0.2331186062,
				"y": 2.2274550807,
				"z": 6.3855975036,
				"element": "C" 
			},
			{
				"x": 1.1983456314,
				"y": 3.0281013555,
				"z": 6.9914952503,
				"element": "C" 
			},
			{
				"x": 2.5059041755,
				"y": 3.0506857639,
				"z": 6.5000953901,
				"element": "C" 
			},
			{
				"x": 2.8436072753,
				"y": 2.2652502724,
				"z": 5.3952088578,
				"element": "C" 
			},
			{
				"x": 1.8839894841,
				"y": 1.4622881654,
				"z": 4.7835414261,
				"element": "C" 
			},
			{
				"x": -1.1769715297,
				"y": -0.9372834843,
				"z": -4.5836949427,
				"element": "C" 
			},
			{
				"x": -0.0523053387,
				"y": 1.8826509668,
				"z": -8.4881610661,
				"element": "H" 
			},
			{
				"x": 0.6760505072,
				"y": 0.2889177177,
				"z": -8.673339028,
				"element": "H" 
			},
			{
				"x": 1.7267432678,
				"y": 1.7341709135,
				"z": -8.5719432871,
				"element": "H" 
			},
			{
				"x": 0.7038588869,
				"y": 0.1497201637,
				"z": -4.4339827164,
				"element": "H" 
			},
			{
				"x": -1.801540738,
				"y": 1.8489369983,
				"z": -4.6687160877,
				"element": "H" 
			},
			{
				"x": -0.1898647592,
				"y": 2.3704593787,
				"z": -4.1953902493,
				"element": "H" 
			},
			{
				"x": -1.7068095,
				"y": 2.1851628421,
				"z": -2.2263915487,
				"element": "H" 
			},
			{
				"x": -0.3040441982,
				"y": 1.1493705271,
				"z": -2.0822488626,
				"element": "H" 
			},
			{
				"x": -4.0649406647,
				"y": 1.1207272948,
				"z": -2.5430347168,
				"element": "H" 
			},
			{
				"x": -3.4684562303,
				"y": 0.629954398,
				"z": -4.1254986722,
				"element": "H" 
			},
			{
				"x": -4.1679252136,
				"y": -0.5720712575,
				"z": -3.0410817644,
				"element": "H" 
			},
			{
				"x": -2.2041603734,
				"y": -2.0090696346,
				"z": -3.0415930173,
				"element": "H" 
			},
			{
				"x": 0.6944671772,
				"y": -1.1757947808,
				"z": -2.7826666364,
				"element": "H" 
			},
			{
				"x": -0.0725120504,
				"y": -2.7268997762,
				"z": -2.5611175792,
				"element": "H" 
			},
			{
				"x": 0.2529190573,
				"y": -0.4585515754,
				"z": -0.5793572721,
				"element": "H" 
			},
			{
				"x": 0.4016856172,
				"y": -2.1849373804,
				"z": -0.3329459551,
				"element": "H" 
			},
			{
				"x": -2.0982235097,
				"y": -2.377251528,
				"z": -0.6783251496,
				"element": "H" 
			},
			{
				"x": -3.5206466386,
				"y": -0.591086871,
				"z": -0.8618036677,
				"element": "H" 
			},
			{
				"x": -1.3623216638,
				"y": 1.3274593386,
				"z": 0.1031561765,
				"element": "H" 
			},
			{
				"x": -2.9706327817,
				"y": 1.8087210023,
				"z": -0.4194232692,
				"element": "H" 
			},
			{
				"x": -2.6834092595,
				"y": 1.527816375,
				"z": 2.1032046101,
				"element": "H" 
			},
			{
				"x": -4.0286413492,
				"y": 0.6313789962,
				"z": 1.4210544817,
				"element": "H" 
			},
			{
				"x": -1.3577802147,
				"y": -3.6191298575,
				"z": 1.5971181827,
				"element": "H" 
			},
			{
				"x": -0.0663237686,
				"y": -2.5347055638,
				"z": 2.0965328165,
				"element": "H" 
			},
			{
				"x": -1.1963946435,
				"y": -2.7106901011,
				"z": 4.2440739582,
				"element": "H" 
			},
			{
				"x": -2.7371641809,
				"y": -3.0571050868,
				"z": 3.4506544292,
				"element": "H" 
			},
			{
				"x": -3.5555649897,
				"y": -1.102717402,
				"z": 5.2189336769,
				"element": "H" 
			},
			{
				"x": -3.9413034332,
				"y": 0.2870883157,
				"z": 4.1952615139,
				"element": "H" 
			},
			{
				"x": -4.4056236024,
				"y": -1.34802765,
				"z": 3.6775133937,
				"element": "H" 
			},
			{
				"x": -0.7832729875,
				"y": 2.2077345847,
				"z": 6.7658799567,
				"element": "H" 
			},
			{
				"x": 0.9294491753,
				"y": 3.6364634126,
				"z": 7.8504431181,
				"element": "H" 
			},
			{
				"x": 3.2564621578,
				"y": 3.6759776998,
				"z": 6.9748271253,
				"element": "H" 
			},
			{
				"x": 3.8586035381,
				"y": 2.2785230799,
				"z": 5.0081872131,
				"element": "H" 
			},
			{
				"x": 2.1435144778,
				"y": 0.8515798489,
				"z": 3.9246687427,
				"element": "H" 
			},
			{
				"x": -2.1060434503,
				"y": -0.8194790806,
				"z": -5.1516598725,
				"element": "H" 
			},
			{
				"x": -0.6634931474,
				"y": -1.8095745951,
				"z": -5.0063076906,
				"element": "H" 
			}
		],
		 "valence_orbital": [ 
			{
				"type": "occ",
				"energy": -0.26319,
				"method": "rhf"
			},
			{
				"type": "occ",
				"energy": -0.25057,
				"method": "rhf"
			},
			{
				"type": "occ",
				"energy": -0.24974,
				"method": "rhf"
			},
			{
				"type": "occ",
				"energy": -0.22501,
				"method": "rhf"
			},
			{
				"type": "occ",
				"energy": -0.21421,
				"method": "rhf"
			},
			{
				"type": "unocc",
				"energy": -0.02184,
				"method": "rhf"
			},
			{
				"type": "unocc",
				"energy": 0.00132,
				"method": "rhf"
			},
			{
				"type": "unocc",
				"energy": 0.01804,
				"method": "rhf"
			},
			{
				"type": "unocc",
				"energy": 0.02974,
				"method": "rhf"
			},
			{
				"type": "unocc",
				"energy": 0.0649,
				"method": "rhf"
			}
		],
		"cosmo_sigma_profile": { 
			"-0.025": 0.0,
			"-0.024": 0.0,
			"-0.023": 0.0,
			"-0.022": 0.0,
			"-0.021": 0.0,
			"-0.02": 0.0,
			"-0.019": 0.0,
			"-0.018": 0.0,
			"-0.017": 0.0,
			"-0.016": 0.0,
			"-0.015": 0.0,
			"-0.014": 0.0,
			"-0.013": 0.0,
			"-0.012": 0.0,
			"-0.011": 0.0,
			"-0.01": 0.0,
			"-0.009": 0.0,
			"-0.008": 0.0,
			"-0.007": 0.451628696205,
			"-0.006": 10.3980254368,
			"-0.005": 17.6340026813,
			"-0.004": 23.1152930671,
			"-0.003": 47.8254432522,
			"-0.002": 76.9565576984,
			"-0.001": 82.2363066926,
			"0.0": 66.8548185416,
			"0.001": 44.0538775117,
			"0.002": 23.7920460727,
			"0.003": 19.6496802541,
			"0.004": 21.9249226704,
			"0.005": 23.0071660441,
			"0.006": 11.0208708887,
			"0.007": 4.96404639787,
			"0.008": 3.32013732752,
			"0.009": 1.84112517377,
			"0.01": 2.01425687627,
			"0.011": 2.41530968712,
			"0.012": 4.21796998942,
			"0.013": 2.37839433567,
			"0.014": 0.0951631486362,
			"0.015": 0.0,
			"0.016": 0.0,
			"0.017": 0.0,
			"0.018": 0.0,
			"0.019": 0.0,
			"0.02": 0.0,
			"0.021": 0.0,
			"0.022": 0.0,
			"0.023": 0.0,
			"0.024": 0.0,
			"0.025": 0.0
		}
	}
}
