{
	 "smiles": "COCCCN1C=C(C=C(C#N)C1=O)C(=O)C1=C(O)C=CC(F)=C1", 
	 "Tm": 400.15, 
	 "num_atms": 39, 
	 "gaussian": { 
		 "optdone": 1, 
		 "sigma_profile": "yes", 
		 "theory": "DFT", 
		 "functional": "B3LYP", 
		 "basiset": "6-31G**", 
		 "properties": { 
			 "R2extent": 8875.4721, 
			 "electric_dipole_moment_norm": 10.101865203, 
			 "electric_quadrupole_moment_norm": 47.2031409873, 
			 "total_energy": -1167.05242144, 
			 "HOMO_LUMO_gap": 0.16208, 
			 "cosmo_polarized_energy": -26.51, 
			 "cosmo_cavitation_energy": 45.36, 
			 "cosmo_dispersion_energy": -28.82, 
			 "cosmo_repulsion_energy": 2.18, 
			 "cosmo_total_nonelectrostatic_energy": 18.72, 
			 "SMD_solvation_energy": 11.22 
		},
		"coords": [
			{
				"x": -1.424202184,
				"y": 2.5739960284,
				"z": 0.824108211,
				"element": "C" 
			},
			{
				"x": -0.7873608679,
				"y": 2.5196560621,
				"z": -0.4392163734,
				"element": "O" 
			},
			{
				"x": -1.699147349,
				"y": 2.3146117366,
				"z": -1.5087899178,
				"element": "C" 
			},
			{
				"x": -0.9306240863,
				"y": 2.353656856,
				"z": -2.8255185311,
				"element": "C" 
			},
			{
				"x": 0.289225674,
				"y": 1.4246018402,
				"z": -2.8613807093,
				"element": "C" 
			},
			{
				"x": -0.0527613311,
				"y": 0.0054713496,
				"z": -2.637969561,
				"element": "N" 
			},
			{
				"x": 0.0233234875,
				"y": -0.5214159539,
				"z": -1.3959602624,
				"element": "C" 
			},
			{
				"x": -0.2953197845,
				"y": -1.8371703093,
				"z": -1.1325391392,
				"element": "C" 
			},
			{
				"x": -0.7317091982,
				"y": -2.6419036767,
				"z": -2.2187399873,
				"element": "C" 
			},
			{
				"x": -0.811079234,
				"y": -2.1318666614,
				"z": -3.492009046,
				"element": "C" 
			},
			{
				"x": -1.2379569977,
				"y": -2.9418607659,
				"z": -4.5897252279,
				"element": "C" 
			},
			{
				"x": -1.5870509121,
				"y": -3.6230745888,
				"z": -5.4655227186,
				"element": "N" 
			},
			{
				"x": -0.4813557013,
				"y": -0.7359164797,
				"z": -3.7806086665,
				"element": "C" 
			},
			{
				"x": -0.5498862946,
				"y": -0.1907723677,
				"z": -4.8732989746,
				"element": "O" 
			},
			{
				"x": -0.2963501636,
				"y": -2.4121085105,
				"z": 0.233691248,
				"element": "C" 
			},
			{
				"x": -0.8665418792,
				"y": -3.4763114954,
				"z": 0.4485222592,
				"element": "O" 
			},
			{
				"x": 0.3247642195,
				"y": -1.6724489646,
				"z": 1.3927540559,
				"element": "C" 
			},
			{
				"x": 1.6131505977,
				"y": -1.101455555,
				"z": 1.3836932899,
				"element": "C" 
			},
			{
				"x": 2.3519481778,
				"y": -1.1718087541,
				"z": 0.233679743,
				"element": "O" 
			},
			{
				"x": 2.1215127978,
				"y": -0.50307055,
				"z": 2.5431043375,
				"element": "C" 
			},
			{
				"x": 1.3695260264,
				"y": -0.4657848978,
				"z": 3.7145600681,
				"element": "C" 
			},
			{
				"x": 0.1067212116,
				"y": -1.0483185218,
				"z": 3.7180072352,
				"element": "C" 
			},
			{
				"x": -0.6257008792,
				"y": -1.0232116032,
				"z": 4.8509515629,
				"element": "F" 
			},
			{
				"x": -0.41047451,
				"y": -1.6589590522,
				"z": 2.5872305247,
				"element": "C" 
			},
			{
				"x": -0.6464211278,
				"y": 2.7356751349,
				"z": 1.5738598597,
				"element": "H" 
			},
			{
				"x": -1.9523809425,
				"y": 1.6364361636,
				"z": 1.0557388937,
				"element": "H" 
			},
			{
				"x": -2.1479358384,
				"y": 3.40105774,
				"z": 0.8761121442,
				"element": "H" 
			},
			{
				"x": -2.4764037536,
				"y": 3.0951443904,
				"z": -1.5077231871,
				"element": "H" 
			},
			{
				"x": -2.2155468616,
				"y": 1.3477469893,
				"z": -1.3854699948,
				"element": "H" 
			},
			{
				"x": -0.5662466301,
				"y": 3.3720160736,
				"z": -3.0032392903,
				"element": "H" 
			},
			{
				"x": -1.6075006263,
				"y": 2.1009028828,
				"z": -3.6476513415,
				"element": "H" 
			},
			{
				"x": 0.7672327067,
				"y": 1.4822045886,
				"z": -3.8396561807,
				"element": "H" 
			},
			{
				"x": 1.004243432,
				"y": 1.7113661786,
				"z": -2.0893145198,
				"element": "H" 
			},
			{
				"x": 0.3197714381,
				"y": 0.1724416835,
				"z": -0.6195248347,
				"element": "H" 
			},
			{
				"x": -1.0041506808,
				"y": -3.6721306185,
				"z": -2.0146461834,
				"element": "H" 
			},
			{
				"x": 3.2397601194,
				"y": -0.8310923041,
				"z": 0.4041778029,
				"element": "H" 
			},
			{
				"x": 3.1189906879,
				"y": -0.0696563946,
				"z": 2.5298062224,
				"element": "H" 
			},
			{
				"x": 1.7535140281,
				"y": -0.0020702812,
				"z": 4.6165235194,
				"element": "H" 
			},
			{
				"x": -1.3820767709,
				"y": -2.1383773916,
				"z": 2.6210836698,
				"element": "H" 
			}
		],
		 "valence_orbital": [ 
			{
				"type": "occ",
				"energy": -0.27951,
				"method": "rhf"
			},
			{
				"type": "occ",
				"energy": -0.27689,
				"method": "rhf"
			},
			{
				"type": "occ",
				"energy": -0.26446,
				"method": "rhf"
			},
			{
				"type": "occ",
				"energy": -0.24537,
				"method": "rhf"
			},
			{
				"type": "occ",
				"energy": -0.23732,
				"method": "rhf"
			},
			{
				"type": "unocc",
				"energy": -0.07524,
				"method": "rhf"
			},
			{
				"type": "unocc",
				"energy": -0.07178,
				"method": "rhf"
			},
			{
				"type": "unocc",
				"energy": -0.03084,
				"method": "rhf"
			},
			{
				"type": "unocc",
				"energy": -0.00927,
				"method": "rhf"
			},
			{
				"type": "unocc",
				"energy": 0.02106,
				"method": "rhf"
			}
		],
		"cosmo_sigma_profile": { 
			"-0.025": 0.0,
			"-0.024": 0.0,
			"-0.023": 0.0,
			"-0.022": 0.0,
			"-0.021": 0.0,
			"-0.02": 0.0,
			"-0.019": 0.440927113211,
			"-0.018": 0.946719080555,
			"-0.017": 1.03096891226,
			"-0.016": 1.46679181451,
			"-0.015": 0.927655346418,
			"-0.014": 0.946220942015,
			"-0.013": 0.38229960372,
			"-0.012": 1.21061013365,
			"-0.011": 1.79588188478,
			"-0.01": 0.626558152519,
			"-0.009": 2.43368507089,
			"-0.008": 5.29798199872,
			"-0.007": 7.67467763353,
			"-0.006": 11.9544396045,
			"-0.005": 20.9001775347,
			"-0.004": 39.5543373337,
			"-0.003": 39.975103458,
			"-0.002": 34.4246137299,
			"-0.001": 23.2113886336,
			"0.0": 20.6480536652,
			"0.001": 22.7980019366,
			"0.002": 18.7506946366,
			"0.003": 14.1786610539,
			"0.004": 16.128630742,
			"0.005": 11.5996119281,
			"0.006": 8.42699402798,
			"0.007": 9.14039170238,
			"0.008": 7.97685975891,
			"0.009": 8.54270935079,
			"0.01": 8.2878118704,
			"0.011": 9.19081152981,
			"0.012": 9.16336430406,
			"0.013": 2.25540030747,
			"0.014": 0.00682701756143,
			"0.015": 0.0,
			"0.016": 0.0,
			"0.017": 0.0,
			"0.018": 0.0,
			"0.019": 0.0,
			"0.02": 0.0,
			"0.021": 0.0,
			"0.022": 0.0,
			"0.023": 0.0,
			"0.024": 0.0,
			"0.025": 0.0
		}
	}
}
