{
	 "smiles": "OC(=O)CCCC(=O)NC1=C(C=CC=C1)C#N", 
	 "Tm": 413.15, 
	 "num_atms": 29, 
	 "gaussian": { 
		 "optdone": 1, 
		 "sigma_profile": "yes", 
		 "theory": "DFT", 
		 "functional": "B3LYP", 
		 "basiset": "6-31G**", 
		 "properties": { 
			 "R2extent": 4257.4143, 
			 "electric_dipole_moment_norm": 5.96866912636, 
			 "electric_quadrupole_moment_norm": 15.9826077293, 
			 "total_energy": -799.700012097, 
			 "HOMO_LUMO_gap": 0.18862, 
			 "cosmo_polarized_energy": -21.57, 
			 "cosmo_cavitation_energy": 34.71, 
			 "cosmo_dispersion_energy": -22.7, 
			 "cosmo_repulsion_energy": 1.79, 
			 "cosmo_total_nonelectrostatic_energy": 13.8, 
			 "SMD_solvation_energy": 8.43 
		},
		"coords": [
			{
				"x": -1.6365462172,
				"y": 1.260796199,
				"z": -0.8998150857,
				"element": "O" 
			},
			{
				"x": -2.7512185342,
				"y": 0.5472667791,
				"z": -0.5743839068,
				"element": "C" 
			},
			{
				"x": -3.5179847228,
				"y": 0.1402127657,
				"z": -1.4190304816,
				"element": "O" 
			},
			{
				"x": -2.8598008443,
				"y": 0.3041612537,
				"z": 0.912807143,
				"element": "C" 
			},
			{
				"x": -2.261179108,
				"y": -1.0624277362,
				"z": 1.3173541633,
				"element": "C" 
			},
			{
				"x": -0.7628561672,
				"y": -1.2139355283,
				"z": 1.0227882733,
				"element": "C" 
			},
			{
				"x": 0.0754453399,
				"y": -0.2325236962,
				"z": 1.8289638039,
				"element": "C" 
			},
			{
				"x": -0.2995399515,
				"y": 0.2384312463,
				"z": 2.8918010263,
				"element": "O" 
			},
			{
				"x": 1.3181462304,
				"y": 0.1416102685,
				"z": 1.3258962249,
				"element": "N" 
			},
			{
				"x": 1.8891843663,
				"y": -0.1071041729,
				"z": 0.0549935356,
				"element": "C" 
			},
			{
				"x": 2.3150926408,
				"y": -1.3997365672,
				"z": -0.327249213,
				"element": "C" 
			},
			{
				"x": 2.8960987894,
				"y": -1.6041809934,
				"z": -1.5916546266,
				"element": "C" 
			},
			{
				"x": 3.0912036189,
				"y": -0.5334706865,
				"z": -2.4569962294,
				"element": "C" 
			},
			{
				"x": 2.7010563913,
				"y": 0.7509911967,
				"z": -2.0680605073,
				"element": "C" 
			},
			{
				"x": 2.0988358995,
				"y": 0.958293197,
				"z": -0.8287531313,
				"element": "C" 
			},
			{
				"x": 2.1962610292,
				"y": -2.5099786998,
				"z": 0.570381676,
				"element": "C" 
			},
			{
				"x": 2.1116203216,
				"y": -3.428215618,
				"z": 1.2797433692,
				"element": "N" 
			},
			{
				"x": -1.6424234831,
				"y": 1.3287723847,
				"z": -1.8700160889,
				"element": "H" 
			},
			{
				"x": -2.3580258906,
				"y": 1.1023249718,
				"z": 1.4639149825,
				"element": "H" 
			},
			{
				"x": -3.923372627,
				"y": 0.3150092948,
				"z": 1.164733428,
				"element": "H" 
			},
			{
				"x": -2.8048356485,
				"y": -1.8590527193,
				"z": 0.7989352142,
				"element": "H" 
			},
			{
				"x": -2.4226252486,
				"y": -1.1918883852,
				"z": 2.3906005757,
				"element": "H" 
			},
			{
				"x": -0.4407816614,
				"y": -2.2247476728,
				"z": 1.2995077374,
				"element": "H" 
			},
			{
				"x": -0.5547498872,
				"y": -1.1039143832,
				"z": -0.0458092359,
				"element": "H" 
			},
			{
				"x": 1.7201979293,
				"y": 0.9003760464,
				"z": 1.8643403481,
				"element": "H" 
			},
			{
				"x": 3.2064588114,
				"y": -2.6055401572,
				"z": -1.8703395528,
				"element": "H" 
			},
			{
				"x": 3.5499944475,
				"y": -0.6981337836,
				"z": -3.4264566925,
				"element": "H" 
			},
			{
				"x": 2.8539629618,
				"y": 1.5923623217,
				"z": -2.7372377365,
				"element": "H" 
			},
			{
				"x": 1.7661812144,
				"y": 1.9489428743,
				"z": -0.534959013,
				"element": "H" 
			}
		],
		 "valence_orbital": [ 
			{
				"type": "occ",
				"energy": -0.30574,
				"method": "rhf"
			},
			{
				"type": "occ",
				"energy": -0.2815,
				"method": "rhf"
			},
			{
				"type": "occ",
				"energy": -0.27456,
				"method": "rhf"
			},
			{
				"type": "occ",
				"energy": -0.26666,
				"method": "rhf"
			},
			{
				"type": "occ",
				"energy": -0.25392,
				"method": "rhf"
			},
			{
				"type": "unocc",
				"energy": -0.0653,
				"method": "rhf"
			},
			{
				"type": "unocc",
				"energy": -0.04164,
				"method": "rhf"
			},
			{
				"type": "unocc",
				"energy": 0.00466,
				"method": "rhf"
			},
			{
				"type": "unocc",
				"energy": 0.01465,
				"method": "rhf"
			},
			{
				"type": "unocc",
				"energy": 0.02597,
				"method": "rhf"
			}
		],
		"cosmo_sigma_profile": { 
			"-0.025": 0.0,
			"-0.024": 0.0,
			"-0.023": 0.0,
			"-0.022": 0.0,
			"-0.021": 0.0,
			"-0.02": 0.0,
			"-0.019": 0.0,
			"-0.018": 0.385376637814,
			"-0.017": 0.88243943131,
			"-0.016": 0.672129160636,
			"-0.015": 0.931873725289,
			"-0.014": 2.25046064046,
			"-0.013": 2.08492681455,
			"-0.012": 1.02420358935,
			"-0.011": 1.77786033332,
			"-0.01": 2.03586718594,
			"-0.009": 2.45561235784,
			"-0.008": 5.64751085053,
			"-0.007": 10.9689297979,
			"-0.006": 13.0927112703,
			"-0.005": 14.9528741445,
			"-0.004": 20.1970280871,
			"-0.003": 24.840997173,
			"-0.002": 22.2701001048,
			"-0.001": 18.8101510872,
			"0.0": 17.5311914037,
			"0.001": 17.626414393,
			"0.002": 18.5969337835,
			"0.003": 10.633168673,
			"0.004": 6.28114635884,
			"0.005": 5.91686166326,
			"0.006": 5.82175495998,
			"0.007": 5.62164521535,
			"0.008": 5.90751729458,
			"0.009": 5.15103388543,
			"0.01": 6.99523849496,
			"0.011": 7.68643575563,
			"0.012": 9.57573362768,
			"0.013": 7.0456838207,
			"0.014": 0.574469772435,
			"0.015": 0.0,
			"0.016": 0.0,
			"0.017": 0.0,
			"0.018": 0.0,
			"0.019": 0.0,
			"0.02": 0.0,
			"0.021": 0.0,
			"0.022": 0.0,
			"0.023": 0.0,
			"0.024": 0.0,
			"0.025": 0.0
		}
	}
}
