{
	 "smiles": "FC1=CC=CC(CBr)=C1C(F)(F)F", 
	 "Tm": 315.15, 
	 "num_atms": 18, 
	 "gaussian": { 
		 "optdone": 1, 
		 "sigma_profile": "yes", 
		 "theory": "DFT", 
		 "functional": "B3LYP", 
		 "basiset": "6-31G**", 
		 "properties": { 
			 "R2extent": 3431.7435, 
			 "electric_dipole_moment_norm": 3.53786495785, 
			 "electric_quadrupole_moment_norm": 8.25130463563, 
			 "total_energy": -3278.62706436, 
			 "HOMO_LUMO_gap": 0.20297, 
			 "cosmo_polarized_energy": -6.54, 
			 "cosmo_cavitation_energy": 25.67, 
			 "cosmo_dispersion_energy": -18.65, 
			 "cosmo_repulsion_energy": 1.4, 
			 "cosmo_total_nonelectrostatic_energy": 8.42, 
			 "SMD_solvation_energy": 4.66 
		},
		"coords": [
			{
				"x": -2.9100583954,
				"y": 1.9162130269,
				"z": -0.9877615142,
				"element": "F" 
			},
			{
				"x": -1.8455442271,
				"y": 1.5876308508,
				"z": -0.2365662525,
				"element": "C" 
			},
			{
				"x": -1.6778488729,
				"y": 2.285930819,
				"z": 0.9546408621,
				"element": "C" 
			},
			{
				"x": -0.6002717232,
				"y": 1.9720677779,
				"z": 1.775457868,
				"element": "C" 
			},
			{
				"x": 0.2900606302,
				"y": 0.9693033505,
				"z": 1.3989318014,
				"element": "C" 
			},
			{
				"x": 0.127033492,
				"y": 0.2680430185,
				"z": 0.1991527899,
				"element": "C" 
			},
			{
				"x": 1.1235770413,
				"y": -0.8089270354,
				"z": -0.1236654923,
				"element": "C" 
			},
			{
				"x": 2.799681004,
				"y": -0.0573492886,
				"z": -0.9053166582,
				"element": "Br" 
			},
			{
				"x": -0.9615470634,
				"y": 0.5830533796,
				"z": -0.6480973366,
				"element": "C" 
			},
			{
				"x": -1.1634684905,
				"y": -0.1867945309,
				"z": -1.9359601118,
				"element": "C" 
			},
			{
				"x": -1.439559182,
				"y": -1.4926951853,
				"z": -1.6734261044,
				"element": "F" 
			},
			{
				"x": -0.0423767678,
				"y": -0.1749914126,
				"z": -2.6918755384,
				"element": "F" 
			},
			{
				"x": -2.1598737005,
				"y": 0.2787489491,
				"z": -2.7002230724,
				"element": "F" 
			},
			{
				"x": -2.3982549955,
				"y": 3.0542838584,
				"z": 1.211724092,
				"element": "H" 
			},
			{
				"x": -0.4576195158,
				"y": 2.5063929066,
				"z": 2.7093996959,
				"element": "H" 
			},
			{
				"x": 1.1351970462,
				"y": 0.7271226032,
				"z": 2.0358581242,
				"element": "H" 
			},
			{
				"x": 1.4550666173,
				"y": -1.3151686386,
				"z": 0.7806518739,
				"element": "H" 
			},
			{
				"x": 0.774607103,
				"y": -1.5361644492,
				"z": -0.8478250265,
				"element": "H" 
			}
		],
		 "valence_orbital": [ 
			{
				"type": "occ",
				"energy": -0.36135,
				"method": "rhf"
			},
			{
				"type": "occ",
				"energy": -0.28577,
				"method": "rhf"
			},
			{
				"type": "occ",
				"energy": -0.27968,
				"method": "rhf"
			},
			{
				"type": "occ",
				"energy": -0.27438,
				"method": "rhf"
			},
			{
				"type": "occ",
				"energy": -0.2623,
				"method": "rhf"
			},
			{
				"type": "unocc",
				"energy": -0.05933,
				"method": "rhf"
			},
			{
				"type": "unocc",
				"energy": -0.03049,
				"method": "rhf"
			},
			{
				"type": "unocc",
				"energy": 0.01655,
				"method": "rhf"
			},
			{
				"type": "unocc",
				"energy": 0.07353,
				"method": "rhf"
			},
			{
				"type": "unocc",
				"energy": 0.09721,
				"method": "rhf"
			}
		],
		"cosmo_sigma_profile": { 
			"-0.025": 0.0,
			"-0.024": 0.0,
			"-0.023": 0.0,
			"-0.022": 0.0,
			"-0.021": 0.0,
			"-0.02": 0.0,
			"-0.019": 0.0,
			"-0.018": 0.0,
			"-0.017": 0.0,
			"-0.016": 0.0,
			"-0.015": 0.0,
			"-0.014": 0.0,
			"-0.013": 0.0,
			"-0.012": 0.0,
			"-0.011": 0.0,
			"-0.01": 0.0,
			"-0.009": 1.00780164258,
			"-0.008": 5.73625832323,
			"-0.007": 9.8666195843,
			"-0.006": 9.73861215437,
			"-0.005": 10.0577347718,
			"-0.004": 8.76392176598,
			"-0.003": 8.71291187112,
			"-0.002": 12.1074070905,
			"-0.001": 13.1927318791,
			"0.0": 18.6685251374,
			"0.001": 18.4071670595,
			"0.002": 30.8079693834,
			"0.003": 29.1374421602,
			"0.004": 13.6071867656,
			"0.005": 9.96942314016,
			"0.006": 9.52352303313,
			"0.007": 0.259047598683,
			"0.008": 0.0,
			"0.009": 0.0,
			"0.01": 0.0,
			"0.011": 0.0,
			"0.012": 0.0,
			"0.013": 0.0,
			"0.014": 0.0,
			"0.015": 0.0,
			"0.016": 0.0,
			"0.017": 0.0,
			"0.018": 0.0,
			"0.019": 0.0,
			"0.02": 0.0,
			"0.021": 0.0,
			"0.022": 0.0,
			"0.023": 0.0,
			"0.024": 0.0,
			"0.025": 0.0
		}
	}
}
