{
	 "smiles": "CCCC(C)(C)C(=O)NC1=CC=C(Cl)C=C1", 
	 "Tm": 360.65, 
	 "num_atms": 34, 
	 "gaussian": { 
		 "optdone": 1, 
		 "sigma_profile": "yes", 
		 "theory": "DFT", 
		 "functional": "B3LYP", 
		 "basiset": "6-31G**", 
		 "properties": { 
			 "R2extent": 7234.165, 
			 "electric_dipole_moment_norm": 4.36341587635, 
			 "electric_quadrupole_moment_norm": 6.58557207158, 
			 "total_energy": -1096.43424306, 
			 "HOMO_LUMO_gap": 0.20107, 
			 "cosmo_polarized_energy": -11.68, 
			 "cosmo_cavitation_energy": 37.17, 
			 "cosmo_dispersion_energy": -26.54, 
			 "cosmo_repulsion_energy": 2.06, 
			 "cosmo_total_nonelectrostatic_energy": 12.69, 
			 "SMD_solvation_energy": 6.17 
		},
		"coords": [
			{
				"x": 3.6545307402,
				"y": 3.8685831496,
				"z": 0.7911581993,
				"element": "C" 
			},
			{
				"x": 3.5852210004,
				"y": 2.3516788516,
				"z": 1.015361333,
				"element": "C" 
			},
			{
				"x": 2.4736101211,
				"y": 1.6365777166,
				"z": 0.2121654998,
				"element": "C" 
			},
			{
				"x": 1.1227061156,
				"y": 1.3667163177,
				"z": 0.9448714452,
				"element": "C" 
			},
			{
				"x": 0.5179005429,
				"y": 2.6586608822,
				"z": 1.5374557093,
				"element": "C" 
			},
			{
				"x": 1.324515744,
				"y": 0.3383280887,
				"z": 2.0739309806,
				"element": "C" 
			},
			{
				"x": 0.1391465468,
				"y": 0.9046820697,
				"z": -0.1644969346,
				"element": "C" 
			},
			{
				"x": -0.1241706255,
				"y": 1.6480133625,
				"z": -1.1028956566,
				"element": "O" 
			},
			{
				"x": -0.4019706816,
				"y": -0.3542453396,
				"z": -0.0315045615,
				"element": "N" 
			},
			{
				"x": -1.310348497,
				"y": -1.0195134279,
				"z": -0.8812182697,
				"element": "C" 
			},
			{
				"x": -1.7065779118,
				"y": -2.314704917,
				"z": -0.5099939333,
				"element": "C" 
			},
			{
				"x": -2.5987967781,
				"y": -3.0424346231,
				"z": -1.2907164384,
				"element": "C" 
			},
			{
				"x": -3.1036239082,
				"y": -2.4715603566,
				"z": -2.4580993901,
				"element": "C" 
			},
			{
				"x": -4.2324512228,
				"y": -3.3828642115,
				"z": -3.4530822122,
				"element": "Cl" 
			},
			{
				"x": -2.7214262331,
				"y": -1.1878324057,
				"z": -2.8411431242,
				"element": "C" 
			},
			{
				"x": -1.8271883808,
				"y": -0.4574183713,
				"z": -2.0593459337,
				"element": "C" 
			},
			{
				"x": 2.7313922686,
				"y": 4.3731968042,
				"z": 1.0902338277,
				"element": "H" 
			},
			{
				"x": 4.4765996981,
				"y": 4.312889654,
				"z": 1.3626583828,
				"element": "H" 
			},
			{
				"x": 3.8240600907,
				"y": 4.096814984,
				"z": -0.266931404,
				"element": "H" 
			},
			{
				"x": 4.5507510586,
				"y": 1.9192882395,
				"z": 0.7266798749,
				"element": "H" 
			},
			{
				"x": 3.485911857,
				"y": 2.1436712869,
				"z": 2.0882332874,
				"element": "H" 
			},
			{
				"x": 2.2488942372,
				"y": 2.2148070584,
				"z": -0.6896658323,
				"element": "H" 
			},
			{
				"x": 2.848891219,
				"y": 0.6648327272,
				"z": -0.135195701,
				"element": "H" 
			},
			{
				"x": 1.1796617758,
				"y": 3.0838066558,
				"z": 2.2974699897,
				"element": "H" 
			},
			{
				"x": -0.4459019053,
				"y": 2.4512873959,
				"z": 2.0160293719,
				"element": "H" 
			},
			{
				"x": 0.3523888757,
				"y": 3.3992747063,
				"z": 0.7525234161,
				"element": "H" 
			},
			{
				"x": 1.7607253998,
				"y": -0.5992675301,
				"z": 1.7081203914,
				"element": "H" 
			},
			{
				"x": 0.3873440856,
				"y": 0.1165567247,
				"z": 2.5983424774,
				"element": "H" 
			},
			{
				"x": 2.0136530173,
				"y": 0.7327529031,
				"z": 2.8255708162,
				"element": "H" 
			},
			{
				"x": -0.1181804818,
				"y": -0.8831019892,
				"z": 0.7784841473,
				"element": "H" 
			},
			{
				"x": -1.3132260735,
				"y": -2.7611489377,
				"z": 0.4005417157,
				"element": "H" 
			},
			{
				"x": -2.8986656441,
				"y": -4.0417903252,
				"z": -0.9958098655,
				"element": "H" 
			},
			{
				"x": -3.1204171147,
				"y": -0.7534135647,
				"z": -3.7512418219,
				"element": "H" 
			},
			{
				"x": -1.525058936,
				"y": 0.538676421,
				"z": -2.3482897866,
				"element": "H" 
			}
		],
		 "valence_orbital": [ 
			{
				"type": "occ",
				"energy": -0.30896,
				"method": "rhf"
			},
			{
				"type": "occ",
				"energy": -0.2938,
				"method": "rhf"
			},
			{
				"type": "occ",
				"energy": -0.26307,
				"method": "rhf"
			},
			{
				"type": "occ",
				"energy": -0.25245,
				"method": "rhf"
			},
			{
				"type": "occ",
				"energy": -0.2216,
				"method": "rhf"
			},
			{
				"type": "unocc",
				"energy": -0.02053,
				"method": "rhf"
			},
			{
				"type": "unocc",
				"energy": -0.01305,
				"method": "rhf"
			},
			{
				"type": "unocc",
				"energy": 0.03235,
				"method": "rhf"
			},
			{
				"type": "unocc",
				"energy": 0.03809,
				"method": "rhf"
			},
			{
				"type": "unocc",
				"energy": 0.06217,
				"method": "rhf"
			}
		],
		"cosmo_sigma_profile": { 
			"-0.025": 0.0,
			"-0.024": 0.0,
			"-0.023": 0.0,
			"-0.022": 0.0,
			"-0.021": 0.0,
			"-0.02": 0.0,
			"-0.019": 0.0,
			"-0.018": 0.0,
			"-0.017": 0.0,
			"-0.016": 0.0,
			"-0.015": 0.00352401054489,
			"-0.014": 0.748524646912,
			"-0.013": 0.83511112513,
			"-0.012": 1.25318356267,
			"-0.011": 1.63968083461,
			"-0.01": 1.3859935345,
			"-0.009": 1.93176600919,
			"-0.008": 2.20093532013,
			"-0.007": 6.11575874247,
			"-0.006": 7.15777918611,
			"-0.005": 9.63843758546,
			"-0.004": 15.1860076994,
			"-0.003": 19.8333766383,
			"-0.002": 29.5554960265,
			"-0.001": 32.2680748775,
			"0.0": 35.3683264602,
			"0.001": 35.3523579749,
			"0.002": 24.5578266966,
			"0.003": 20.7699600408,
			"0.004": 19.9818467482,
			"0.005": 11.5511677359,
			"0.006": 3.47625858667,
			"0.007": 1.82664853242,
			"0.008": 1.47607100174,
			"0.009": 1.66230090026,
			"0.01": 1.77883052829,
			"0.011": 1.5455930929,
			"0.012": 2.29708668838,
			"0.013": 2.14795394509,
			"0.014": 0.765929549445,
			"0.015": 0.0,
			"0.016": 0.0,
			"0.017": 0.0,
			"0.018": 0.0,
			"0.019": 0.0,
			"0.02": 0.0,
			"0.021": 0.0,
			"0.022": 0.0,
			"0.023": 0.0,
			"0.024": 0.0,
			"0.025": 0.0
		}
	}
}
