{
	 "smiles": "IC1=CC2=C(OC3=C(O2)C=CC=C3)C=C1", 
	 "Tm": 368.15, 
	 "num_atms": 22, 
	 "gaussian": { 
		 "optdone": 1, 
		 "sigma_profile": "no", 
		 "theory": "DFT", 
		 "functional": "B3LYP", 
		 "basiset": "6-31G**", 
		 "properties": { 
			 "R2extent": 4002.3025, 
			 "electric_dipole_moment_norm": 2.09290875578, 
			 "electric_quadrupole_moment_norm": 8.52839575301, 
			 "total_energy": -623.310031122, 
			 "HOMO_LUMO_gap": 0.16413, 
			 "cosmo_polarized_energy": -103786.13, 
			 "cosmo_cavitation_energy": 29.63, 
			 "cosmo_dispersion_energy": -23.93, 
			 "cosmo_repulsion_energy": 1.8, 
			 "cosmo_total_nonelectrostatic_energy": 7.5, 
			 "SMD_solvation_energy": 4.55 
		},
		"coords": [
			{
				"x": -1.2573217025,
				"y": 5.5700220123,
				"z": -0.9883347292,
				"element": "I" 
			},
			{
				"x": -1.6592250716,
				"y": 3.5629536206,
				"z": -0.4423901925,
				"element": "C" 
			},
			{
				"x": -0.6041873929,
				"y": 2.6492431458,
				"z": -0.3812870405,
				"element": "C" 
			},
			{
				"x": -0.8680507269,
				"y": 1.3311919138,
				"z": -0.0226449658,
				"element": "C" 
			},
			{
				"x": -2.175298214,
				"y": 0.9259009769,
				"z": 0.2733956982,
				"element": "C" 
			},
			{
				"x": -2.4708087081,
				"y": -0.3703604976,
				"z": 0.6316510259,
				"element": "O" 
			},
			{
				"x": -1.4067360149,
				"y": -1.2513200531,
				"z": 0.6836398873,
				"element": "C" 
			},
			{
				"x": -0.1007504153,
				"y": -0.8464145367,
				"z": 0.3878369261,
				"element": "C" 
			},
			{
				"x": 0.1935595225,
				"y": 0.4559532353,
				"z": 0.0282425262,
				"element": "O" 
			},
			{
				"x": 0.9447137602,
				"y": -1.7603659639,
				"z": 0.4504529012,
				"element": "C" 
			},
			{
				"x": 0.6874184428,
				"y": -3.085715498,
				"z": 0.8099968821,
				"element": "C" 
			},
			{
				"x": -0.6147091581,
				"y": -3.4895840438,
				"z": 1.1050272225,
				"element": "C" 
			},
			{
				"x": -1.664307836,
				"y": -2.5696473958,
				"z": 1.0415562037,
				"element": "C" 
			},
			{
				"x": -3.2154167524,
				"y": 1.8453940561,
				"z": 0.2086597249,
				"element": "C" 
			},
			{
				"x": -2.965552331,
				"y": 3.1724827329,
				"z": -0.1500606976,
				"element": "C" 
			},
			{
				"x": 0.4177768712,
				"y": 2.9313549847,
				"z": -0.6042288416,
				"element": "H" 
			},
			{
				"x": 1.9466005373,
				"y": -1.4165445247,
				"z": 0.2154489593,
				"element": "H" 
			},
			{
				"x": 1.5065251336,
				"y": -3.7959440194,
				"z": 0.8576155261,
				"element": "H" 
			},
			{
				"x": -0.8203817168,
				"y": -4.5177041585,
				"z": 1.3848705527,
				"element": "H" 
			},
			{
				"x": -2.6871958009,
				"y": -2.8540361991,
				"z": 1.2653156785,
				"element": "H" 
			},
			{
				"x": -4.2203543463,
				"y": 1.5095971513,
				"z": 0.4421358814,
				"element": "H" 
			},
			{
				"x": -3.7826980798,
				"y": 3.8821430609,
				"z": -0.1977991287,
				"element": "H" 
			}
		],
		 "valence_orbital": [ 
			{
				"type": "occ",
				"energy": -0.27362,
				"method": "rhf"
			},
			{
				"type": "occ",
				"energy": -0.26977,
				"method": "rhf"
			},
			{
				"type": "occ",
				"energy": -0.25611,
				"method": "rhf"
			},
			{
				"type": "occ",
				"energy": -0.24264,
				"method": "rhf"
			},
			{
				"type": "occ",
				"energy": -0.20457,
				"method": "rhf"
			},
			{
				"type": "unocc",
				"energy": -0.04044,
				"method": "rhf"
			},
			{
				"type": "unocc",
				"energy": -0.02682,
				"method": "rhf"
			},
			{
				"type": "unocc",
				"energy": -0.01897,
				"method": "rhf"
			},
			{
				"type": "unocc",
				"energy": -0.01098,
				"method": "rhf"
			},
			{
				"type": "unocc",
				"energy": 0.01669,
				"method": "rhf"
			}
		],
		"cosmo_sigma_profile": { 
			"0.0": 0.0,
			"0.0": 0.0,
			"0.0": 0.0,
			"0.0": 0.0,
			"0.0": 0.0,
			"0.0": 0.0,
			"0.0": 0.0,
			"0.0": 0.0,
			"0.0": 0.0,
			"0.0": 0.0,
			"0.0": 0.0,
			"0.0": 0.0,
			"0.0": 0.0,
			"0.0": 0.0,
			"0.0": 0.0,
			"0.0": 0.0,
			"0.0": 0.0,
			"0.0": 0.0,
			"0.0": 0.0,
			"0.0": 0.0,
			"0.0": 0.0,
			"0.0": 0.0,
			"0.0": 0.0,
			"0.0": 0.0,
			"0.0": 0.0,
			"0.0": 0.0,
			"0.0": 0.0,
			"0.0": 0.0,
			"0.0": 0.0,
			"0.0": 0.0,
			"0.0": 0.0,
			"0.0": 0.0,
			"0.0": 0.0,
			"0.0": 0.0,
			"0.0": 0.0,
			"0.0": 0.0,
			"0.0": 0.0,
			"0.0": 0.0,
			"0.0": 0.0,
			"0.0": 0.0,
			"0.0": 0.0,
			"0.0": 0.0,
			"0.0": 0.0,
			"0.0": 0.0,
			"0.0": 0.0,
			"0.0": 0.0,
			"0.0": 0.0,
			"0.0": 0.0,
			"0.0": 0.0,
			"0.0": 0.0,
			"0.0": 0.0
		}
	}
}
