{
	 "smiles": "CCC1=C(N(C(C)COC)C(=O)CCl)C(C)=CC=C1", 
	 "Tm": 233.15, 
	 "num_atms": 41, 
	 "gaussian": { 
		 "optdone": 1, 
		 "sigma_profile": "yes", 
		 "theory": "DFT", 
		 "functional": "B3LYP", 
		 "basiset": "6-31G**", 
		 "properties": { 
			 "R2extent": 5244.8695, 
			 "electric_dipole_moment_norm": 3.01311264476, 
			 "electric_quadrupole_moment_norm": 13.1812241435, 
			 "total_energy": -1250.25482229, 
			 "HOMO_LUMO_gap": 0.21886, 
			 "cosmo_polarized_energy": -11.06, 
			 "cosmo_cavitation_energy": 41.75, 
			 "cosmo_dispersion_energy": -27.13, 
			 "cosmo_repulsion_energy": 2.07, 
			 "cosmo_total_nonelectrostatic_energy": 16.69, 
			 "SMD_solvation_energy": 8.04 
		},
		"coords": [
			{
				"x": 2.7349730038,
				"y": 0.8345782629,
				"z": -0.5175215547,
				"element": "C" 
			},
			{
				"x": 1.6002618933,
				"y": 0.3140127933,
				"z": 0.3804307358,
				"element": "C" 
			},
			{
				"x": 0.4310054473,
				"y": 1.2718403848,
				"z": 0.502257936,
				"element": "C" 
			},
			{
				"x": -0.878809913,
				"y": 0.9510862295,
				"z": 0.0961998211,
				"element": "C" 
			},
			{
				"x": -1.1824315739,
				"y": -0.3358783088,
				"z": -0.4919462941,
				"element": "N" 
			},
			{
				"x": -1.216312092,
				"y": -0.5260396958,
				"z": -1.9777398944,
				"element": "C" 
			},
			{
				"x": -0.9158449217,
				"y": 0.757349945,
				"z": -2.752989437,
				"element": "C" 
			},
			{
				"x": -0.3037396982,
				"y": -1.6727271564,
				"z": -2.434965641,
				"element": "C" 
			},
			{
				"x": 1.0531649125,
				"y": -1.2672732763,
				"z": -2.4052026838,
				"element": "O" 
			},
			{
				"x": 1.9338073982,
				"y": -2.2894817531,
				"z": -2.8231051399,
				"element": "C" 
			},
			{
				"x": -1.7869895073,
				"y": -1.333233539,
				"z": 0.2401535284,
				"element": "C" 
			},
			{
				"x": -2.2880186251,
				"y": -2.3251680587,
				"z": -0.2808164725,
				"element": "O" 
			},
			{
				"x": -1.8125557036,
				"y": -1.1982467854,
				"z": 1.7646706164,
				"element": "C" 
			},
			{
				"x": -0.3531111036,
				"y": -1.9887121225,
				"z": 2.5028431999,
				"element": "Cl" 
			},
			{
				"x": -1.9434359741,
				"y": 1.8700143041,
				"z": 0.2634430924,
				"element": "C" 
			},
			{
				"x": -3.3601040862,
				"y": 1.5152332418,
				"z": -0.1289370638,
				"element": "C" 
			},
			{
				"x": -1.6735629777,
				"y": 3.1169740938,
				"z": 0.8317193457,
				"element": "C" 
			},
			{
				"x": -0.3811225502,
				"y": 3.4512639297,
				"z": 1.2364315668,
				"element": "C" 
			},
			{
				"x": 0.6506795912,
				"y": 2.5353935734,
				"z": 1.0754974729,
				"element": "C" 
			},
			{
				"x": 3.5727108275,
				"y": 0.1292930322,
				"z": -0.5123457403,
				"element": "H" 
			},
			{
				"x": 3.1162026262,
				"y": 1.8039290097,
				"z": -0.179802647,
				"element": "H" 
			},
			{
				"x": 2.3952995551,
				"y": 0.9400723957,
				"z": -1.5511088714,
				"element": "H" 
			},
			{
				"x": 1.9934555378,
				"y": 0.1290780342,
				"z": 1.387995805,
				"element": "H" 
			},
			{
				"x": 1.257571794,
				"y": -0.644219856,
				"z": -0.0076831434,
				"element": "H" 
			},
			{
				"x": -2.2338916435,
				"y": -0.8617596423,
				"z": -2.2113941856,
				"element": "H" 
			},
			{
				"x": -1.6144844988,
				"y": 1.5605472719,
				"z": -2.511304275,
				"element": "H" 
			},
			{
				"x": -1.0064847846,
				"y": 0.5422499288,
				"z": -3.8221998507,
				"element": "H" 
			},
			{
				"x": 0.0993764574,
				"y": 1.1112587297,
				"z": -2.5690626748,
				"element": "H" 
			},
			{
				"x": -0.5957598253,
				"y": -1.9400579189,
				"z": -3.4658502755,
				"element": "H" 
			},
			{
				"x": -0.4657926852,
				"y": -2.5563310943,
				"z": -1.8065742417,
				"element": "H" 
			},
			{
				"x": 1.7378584243,
				"y": -2.5940388529,
				"z": -3.8634930438,
				"element": "H" 
			},
			{
				"x": 2.9492612676,
				"y": -1.891878125,
				"z": -2.7566635789,
				"element": "H" 
			},
			{
				"x": 1.8564044735,
				"y": -3.1819748895,
				"z": -2.1835551136,
				"element": "H" 
			},
			{
				"x": -1.8249366527,
				"y": -0.1721921581,
				"z": 2.1249990041,
				"element": "H" 
			},
			{
				"x": -2.6776358852,
				"y": -1.7521248967,
				"z": 2.1242914418,
				"element": "H" 
			},
			{
				"x": -3.4341850042,
				"y": 1.1833419899,
				"z": -1.1690307092,
				"element": "H" 
			},
			{
				"x": -4.0191496014,
				"y": 2.3781439759,
				"z": -0.0048914263,
				"element": "H" 
			},
			{
				"x": -3.7655572078,
				"y": 0.7031697083,
				"z": 0.4865864569,
				"element": "H" 
			},
			{
				"x": -2.485488217,
				"y": 3.827222831,
				"z": 0.9626072906,
				"element": "H" 
			},
			{
				"x": -0.1848204864,
				"y": 4.4217417494,
				"z": 1.6833749801,
				"element": "H" 
			},
			{
				"x": 1.6532920089,
				"y": 2.7921427151,
				"z": 1.4064816646,
				"element": "H" 
			}
		],
		 "valence_orbital": [ 
			{
				"type": "occ",
				"energy": -0.26416,
				"method": "rhf"
			},
			{
				"type": "occ",
				"energy": -0.25714,
				"method": "rhf"
			},
			{
				"type": "occ",
				"energy": -0.24964,
				"method": "rhf"
			},
			{
				"type": "occ",
				"energy": -0.24354,
				"method": "rhf"
			},
			{
				"type": "occ",
				"energy": -0.24067,
				"method": "rhf"
			},
			{
				"type": "unocc",
				"energy": -0.02181,
				"method": "rhf"
			},
			{
				"type": "unocc",
				"energy": -0.01397,
				"method": "rhf"
			},
			{
				"type": "unocc",
				"energy": -0.00618,
				"method": "rhf"
			},
			{
				"type": "unocc",
				"energy": 0.06153,
				"method": "rhf"
			},
			{
				"type": "unocc",
				"energy": 0.07357,
				"method": "rhf"
			}
		],
		"cosmo_sigma_profile": { 
			"-0.025": 0.0,
			"-0.024": 0.0,
			"-0.023": 0.0,
			"-0.022": 0.0,
			"-0.021": 0.0,
			"-0.02": 0.0,
			"-0.019": 0.0,
			"-0.018": 0.0,
			"-0.017": 0.0,
			"-0.016": 0.0,
			"-0.015": 0.0,
			"-0.014": 0.0,
			"-0.013": 0.0,
			"-0.012": 0.0,
			"-0.011": 0.0,
			"-0.01": 0.0,
			"-0.009": 0.0496529502044,
			"-0.008": 1.56019411854,
			"-0.007": 3.6138649516,
			"-0.006": 8.62234134824,
			"-0.005": 16.6266307782,
			"-0.004": 31.033421588,
			"-0.003": 35.7310876777,
			"-0.002": 37.287881253,
			"-0.001": 34.8173229211,
			"0.0": 32.229815404,
			"0.001": 29.4978514131,
			"0.002": 18.3662473904,
			"0.003": 20.4504881501,
			"0.004": 16.7438011765,
			"0.005": 15.5276631762,
			"0.006": 9.83435931483,
			"0.007": 2.66284713272,
			"0.008": 1.6880498784,
			"0.009": 1.67534686722,
			"0.01": 1.35295488729,
			"0.011": 2.09488430257,
			"0.012": 2.08747083842,
			"0.013": 3.9606892775,
			"0.014": 1.18656261068,
			"0.015": 0.00562877537676,
			"0.016": 0.0,
			"0.017": 0.0,
			"0.018": 0.0,
			"0.019": 0.0,
			"0.02": 0.0,
			"0.021": 0.0,
			"0.022": 0.0,
			"0.023": 0.0,
			"0.024": 0.0,
			"0.025": 0.0
		}
	}
}
