{
	 "smiles": "OC(=O)C(C1CCCC1)C1=CC=CC=C1", 
	 "Tm": 371.15, 
	 "num_atms": 31, 
	 "gaussian": { 
		 "optdone": 1, 
		 "sigma_profile": "yes", 
		 "theory": "DFT", 
		 "functional": "B3LYP", 
		 "basiset": "6-31G**", 
		 "properties": { 
			 "R2extent": 3751.5273, 
			 "electric_dipole_moment_norm": 1.17893695336, 
			 "electric_quadrupole_moment_norm": 3.8605051185, 
			 "total_energy": -655.498772588, 
			 "HOMO_LUMO_gap": 0.2324, 
			 "cosmo_polarized_energy": -8.79, 
			 "cosmo_cavitation_energy": 32.26, 
			 "cosmo_dispersion_energy": -23.02, 
			 "cosmo_repulsion_energy": 1.83, 
			 "cosmo_total_nonelectrostatic_energy": 11.07, 
			 "SMD_solvation_energy": 5.66 
		},
		"coords": [
			{
				"x": -0.8234486716,
				"y": 3.4165593775,
				"z": -0.8476563938,
				"element": "O" 
			},
			{
				"x": -0.490938598,
				"y": 2.2400619513,
				"z": -0.2630221834,
				"element": "C" 
			},
			{
				"x": -0.2567310136,
				"y": 2.1640848469,
				"z": 0.9264558901,
				"element": "O" 
			},
			{
				"x": -0.4700586509,
				"y": 1.0980822763,
				"z": -1.2683117655,
				"element": "C" 
			},
			{
				"x": -1.5348915844,
				"y": 0.0122862167,
				"z": -0.9323407496,
				"element": "C" 
			},
			{
				"x": -1.395541068,
				"y": -0.7554614168,
				"z": 0.3954238342,
				"element": "C" 
			},
			{
				"x": -2.7476445144,
				"y": -1.4781156528,
				"z": 0.5072306717,
				"element": "C" 
			},
			{
				"x": -3.7850006201,
				"y": -0.4418585062,
				"z": 0.006301364,
				"element": "C" 
			},
			{
				"x": -2.9930706714,
				"y": 0.5426161224,
				"z": -0.9032795926,
				"element": "C" 
			},
			{
				"x": 0.9299891502,
				"y": 0.5107055431,
				"z": -1.4402058824,
				"element": "C" 
			},
			{
				"x": 1.3624307582,
				"y": 0.1733966507,
				"z": -2.7303123381,
				"element": "C" 
			},
			{
				"x": 2.6130302411,
				"y": -0.4087692333,
				"z": -2.9394689515,
				"element": "C" 
			},
			{
				"x": 3.4571337183,
				"y": -0.657755078,
				"z": -1.8563432921,
				"element": "C" 
			},
			{
				"x": 3.0390353216,
				"y": -0.3199117862,
				"z": -0.5681807935,
				"element": "C" 
			},
			{
				"x": 1.785797662,
				"y": 0.2582273718,
				"z": -0.3584241654,
				"element": "C" 
			},
			{
				"x": -0.8086317059,
				"y": 4.0822673519,
				"z": -0.1382148262,
				"element": "H" 
			},
			{
				"x": -0.760340571,
				"y": 1.5341088213,
				"z": -2.2291877035,
				"element": "H" 
			},
			{
				"x": -1.4551557352,
				"y": -0.7235122993,
				"z": -1.7446468154,
				"element": "H" 
			},
			{
				"x": -1.2668970756,
				"y": -0.0507367528,
				"z": 1.2236206522,
				"element": "H" 
			},
			{
				"x": -0.5407997095,
				"y": -1.437840711,
				"z": 0.4027252295,
				"element": "H" 
			},
			{
				"x": -2.9600001642,
				"y": -1.8330586124,
				"z": 1.5204851604,
				"element": "H" 
			},
			{
				"x": -2.7487920246,
				"y": -2.3583001072,
				"z": -0.1479336202,
				"element": "H" 
			},
			{
				"x": -4.2248263704,
				"y": 0.0972860844,
				"z": 0.8517204529,
				"element": "H" 
			},
			{
				"x": -4.6134576882,
				"y": -0.9201963979,
				"z": -0.5250895377,
				"element": "H" 
			},
			{
				"x": -3.0235834682,
				"y": 1.554152984,
				"z": -0.4824292799,
				"element": "H" 
			},
			{
				"x": -3.4119525042,
				"y": 0.6152423195,
				"z": -1.9122597109,
				"element": "H" 
			},
			{
				"x": 0.7129174998,
				"y": 0.3707812378,
				"z": -3.5800358056,
				"element": "H" 
			},
			{
				"x": 2.9286770965,
				"y": -0.6607132667,
				"z": -3.9480677065,
				"element": "H" 
			},
			{
				"x": 4.4333282805,
				"y": -1.1069431257,
				"z": -2.0152482692,
				"element": "H" 
			},
			{
				"x": 3.691264165,
				"y": -0.5047203322,
				"z": 0.2809261166,
				"element": "H" 
			},
			{
				"x": 1.4725585162,
				"y": 0.529334123,
				"z": 0.6435700112,
				"element": "H" 
			}
		],
		 "valence_orbital": [ 
			{
				"type": "occ",
				"energy": -0.31251,
				"method": "rhf"
			},
			{
				"type": "occ",
				"energy": -0.31126,
				"method": "rhf"
			},
			{
				"type": "occ",
				"energy": -0.27118,
				"method": "rhf"
			},
			{
				"type": "occ",
				"energy": -0.24721,
				"method": "rhf"
			},
			{
				"type": "occ",
				"energy": -0.24081,
				"method": "rhf"
			},
			{
				"type": "unocc",
				"energy": -0.00841,
				"method": "rhf"
			},
			{
				"type": "unocc",
				"energy": 0.00031,
				"method": "rhf"
			},
			{
				"type": "unocc",
				"energy": 0.01439,
				"method": "rhf"
			},
			{
				"type": "unocc",
				"energy": 0.07798,
				"method": "rhf"
			},
			{
				"type": "unocc",
				"energy": 0.08369,
				"method": "rhf"
			}
		],
		"cosmo_sigma_profile": { 
			"-0.025": 0.0,
			"-0.024": 0.0,
			"-0.023": 0.0,
			"-0.022": 0.0,
			"-0.021": 0.0,
			"-0.02": 0.0,
			"-0.019": 0.0,
			"-0.018": 0.635396956735,
			"-0.017": 0.699183906467,
			"-0.016": 1.22259839169,
			"-0.015": 1.15015616969,
			"-0.014": 0.290952005411,
			"-0.013": 0.309899178711,
			"-0.012": 0.604658290687,
			"-0.011": 0.782252335795,
			"-0.01": 0.947213182632,
			"-0.009": 0.410782446141,
			"-0.008": 0.993292069818,
			"-0.007": 0.824958776405,
			"-0.006": 5.9393047149,
			"-0.005": 11.4032551318,
			"-0.004": 10.7581892764,
			"-0.003": 20.9069488666,
			"-0.002": 29.221955172,
			"-0.001": 32.0556342302,
			"0.0": 29.9321943534,
			"0.001": 27.8178074743,
			"0.002": 17.8791835141,
			"0.003": 11.2989367441,
			"0.004": 10.0822320232,
			"0.005": 10.8558653052,
			"0.006": 10.1721704925,
			"0.007": 3.05234296547,
			"0.008": 2.12656435966,
			"0.009": 3.3432918772,
			"0.01": 2.16587143315,
			"0.011": 2.73395687906,
			"0.012": 2.1393648949,
			"0.013": 0.0404043967226,
			"0.014": 0.0,
			"0.015": 0.0,
			"0.016": 0.0,
			"0.017": 0.0,
			"0.018": 0.0,
			"0.019": 0.0,
			"0.02": 0.0,
			"0.021": 0.0,
			"0.022": 0.0,
			"0.023": 0.0,
			"0.024": 0.0,
			"0.025": 0.0
		}
	}
}
