{
	 "smiles": "CC(N)(CN1C=C(Br)C=N1)C#N", 
	 "Tm": 334.15, 
	 "num_atms": 21, 
	 "gaussian": { 
		 "optdone": 1, 
		 "sigma_profile": "yes", 
		 "theory": "DFT", 
		 "functional": "B3LYP", 
		 "basiset": "6-31G**", 
		 "properties": { 
			 "R2extent": 4163.2388, 
			 "electric_dipole_moment_norm": 4.44094569433, 
			 "electric_quadrupole_moment_norm": 17.531390586, 
			 "total_energy": -3062.52583868, 
			 "HOMO_LUMO_gap": 0.23734, 
			 "cosmo_polarized_energy": -18.14, 
			 "cosmo_cavitation_energy": 28.16, 
			 "cosmo_dispersion_energy": -19.64, 
			 "cosmo_repulsion_energy": 1.59, 
			 "cosmo_total_nonelectrostatic_energy": 10.12, 
			 "SMD_solvation_energy": 3.66 
		},
		"coords": [
			{
				"x": 2.2685218027,
				"y": 1.1281368603,
				"z": -0.5530902397,
				"element": "C" 
			},
			{
				"x": 1.0550482045,
				"y": 1.7468698214,
				"z": -1.2669909936,
				"element": "C" 
			},
			{
				"x": 1.1477569238,
				"y": 3.2097559889,
				"z": -1.1687164571,
				"element": "N" 
			},
			{
				"x": -0.2797560366,
				"y": 1.3701980194,
				"z": -0.5604000773,
				"element": "C" 
			},
			{
				"x": -0.5917791044,
				"y": -0.0436807865,
				"z": -0.5249821983,
				"element": "N" 
			},
			{
				"x": -0.2515264066,
				"y": -0.9564568806,
				"z": 0.4291277674,
				"element": "C" 
			},
			{
				"x": -0.7552486095,
				"y": -2.1649097695,
				"z": -0.0075718062,
				"element": "C" 
			},
			{
				"x": -0.6329286671,
				"y": -3.8228399608,
				"z": 0.8772219727,
				"element": "Br" 
			},
			{
				"x": -1.3896383868,
				"y": -1.8885029136,
				"z": -1.2374767946,
				"element": "C" 
			},
			{
				"x": -1.2887360022,
				"y": -0.5984704107,
				"z": -1.5443303728,
				"element": "N" 
			},
			{
				"x": 1.0455998538,
				"y": 1.2969810244,
				"z": -2.6854380187,
				"element": "C" 
			},
			{
				"x": 1.0881803402,
				"y": 1.0305609291,
				"z": -3.8149852591,
				"element": "N" 
			},
			{
				"x": 2.2142693942,
				"y": 0.0377448353,
				"z": -0.5560919816,
				"element": "H" 
			},
			{
				"x": 2.3015895939,
				"y": 1.4922393753,
				"z": 0.4778215096,
				"element": "H" 
			},
			{
				"x": 3.1951154713,
				"y": 1.421356805,
				"z": -1.0551264471,
				"element": "H" 
			},
			{
				"x": 0.4287435277,
				"y": 3.6494138334,
				"z": -1.7397715492,
				"element": "H" 
			},
			{
				"x": 2.0423267189,
				"y": 3.5246407359,
				"z": -1.5364480272,
				"element": "H" 
			},
			{
				"x": -1.1114879353,
				"y": 1.8657872358,
				"z": -1.0663724696,
				"element": "H" 
			},
			{
				"x": -0.2165030191,
				"y": 1.751844296,
				"z": 0.4612749861,
				"element": "H" 
			},
			{
				"x": 0.2920615981,
				"y": -0.6929190458,
				"z": 1.3231660541,
				"element": "H" 
			},
			{
				"x": -1.9132092611,
				"y": -2.5715499925,
				"z": -1.8908195977,
				"element": "H" 
			}
		],
		 "valence_orbital": [ 
			{
				"type": "occ",
				"energy": -0.31066,
				"method": "rhf"
			},
			{
				"type": "occ",
				"energy": -0.28488,
				"method": "rhf"
			},
			{
				"type": "occ",
				"energy": -0.28062,
				"method": "rhf"
			},
			{
				"type": "occ",
				"energy": -0.26713,
				"method": "rhf"
			},
			{
				"type": "occ",
				"energy": -0.24065,
				"method": "rhf"
			},
			{
				"type": "unocc",
				"energy": -0.00331,
				"method": "rhf"
			},
			{
				"type": "unocc",
				"energy": 0.01171,
				"method": "rhf"
			},
			{
				"type": "unocc",
				"energy": 0.02367,
				"method": "rhf"
			},
			{
				"type": "unocc",
				"energy": 0.0305,
				"method": "rhf"
			},
			{
				"type": "unocc",
				"energy": 0.05171,
				"method": "rhf"
			}
		],
		"cosmo_sigma_profile": { 
			"-0.025": 0.0,
			"-0.024": 0.0,
			"-0.023": 0.0,
			"-0.022": 0.0,
			"-0.021": 0.0,
			"-0.02": 0.0,
			"-0.019": 0.0,
			"-0.018": 0.0,
			"-0.017": 0.0,
			"-0.016": 0.0,
			"-0.015": 0.0,
			"-0.014": 0.0,
			"-0.013": 0.185602220743,
			"-0.012": 2.73000457327,
			"-0.011": 4.13718121656,
			"-0.01": 6.56830783388,
			"-0.009": 7.01340305794,
			"-0.008": 8.3585905335,
			"-0.007": 9.03247879249,
			"-0.006": 8.4953997167,
			"-0.005": 13.0228991304,
			"-0.004": 14.0252508515,
			"-0.003": 12.4409876751,
			"-0.002": 12.7639213158,
			"-0.001": 12.641332385,
			"0.0": 10.063681516,
			"0.001": 10.2567785737,
			"0.002": 14.7763649156,
			"0.003": 16.1734922719,
			"0.004": 15.7025625013,
			"0.005": 8.472301514,
			"0.006": 4.58753154508,
			"0.007": 3.70624971002,
			"0.008": 5.02985364006,
			"0.009": 6.52008013748,
			"0.01": 6.05477196041,
			"0.011": 4.74955452273,
			"0.012": 4.0253210494,
			"0.013": 3.46164467073,
			"0.014": 1.54765410775,
			"0.015": 0.437148156197,
			"0.016": 0.285715749835,
			"0.017": 0.0,
			"0.018": 0.0,
			"0.019": 0.0,
			"0.02": 0.0,
			"0.021": 0.0,
			"0.022": 0.0,
			"0.023": 0.0,
			"0.024": 0.0,
			"0.025": 0.0
		}
	}
}
