{
	 "smiles": "CCCCCCCCCCCC(C)O", 
	 "Tm": 297.15, 
	 "num_atms": 42, 
	 "gaussian": { 
		 "optdone": 1, 
		 "sigma_profile": "yes", 
		 "theory": "DFT", 
		 "functional": "B3LYP", 
		 "basiset": "6-31G**", 
		 "properties": { 
			 "R2extent": 7221.5402, 
			 "electric_dipole_moment_norm": 1.42379280796, 
			 "electric_quadrupole_moment_norm": 11.1716211559, 
			 "total_energy": -587.511283118, 
			 "HOMO_LUMO_gap": 0.32916, 
			 "cosmo_polarized_energy": -5.9, 
			 "cosmo_cavitation_energy": 40.86, 
			 "cosmo_dispersion_energy": -28.3, 
			 "cosmo_repulsion_energy": 2.32, 
			 "cosmo_total_nonelectrostatic_energy": 14.88, 
			 "SMD_solvation_energy": 5.66 
		},
		"coords": [
			{
				"x": -5.7837446306,
				"y": -0.0433327603,
				"z": -1.02745012,
				"element": "C" 
			},
			{
				"x": -5.3858567863,
				"y": 0.592537972,
				"z": -2.3647186682,
				"element": "C" 
			},
			{
				"x": -4.3275219031,
				"y": 1.704143403,
				"z": -2.2484809201,
				"element": "C" 
			},
			{
				"x": -2.9564230713,
				"y": 1.2722775537,
				"z": -1.6984958803,
				"element": "C" 
			},
			{
				"x": -2.2095927605,
				"y": 0.2617936653,
				"z": -2.5827164648,
				"element": "C" 
			},
			{
				"x": -0.77451003,
				"y": -0.0472162844,
				"z": -2.1227820919,
				"element": "C" 
			},
			{
				"x": -0.6833845814,
				"y": -0.785174808,
				"z": -0.7778058022,
				"element": "C" 
			},
			{
				"x": 0.7366103228,
				"y": -1.231182342,
				"z": -0.3892245995,
				"element": "C" 
			},
			{
				"x": 1.717627687,
				"y": -0.0805839649,
				"z": -0.1147524681,
				"element": "C" 
			},
			{
				"x": 3.1092772638,
				"y": -0.5480044005,
				"z": 0.3537046799,
				"element": "C" 
			},
			{
				"x": 3.1807583801,
				"y": -1.1161686288,
				"z": 1.7889303887,
				"element": "C" 
			},
			{
				"x": 3.6186059222,
				"y": -0.1191237638,
				"z": 2.8717498472,
				"element": "C" 
			},
			{
				"x": 2.709589635,
				"y": 1.1016176975,
				"z": 3.0353654733,
				"element": "C" 
			},
			{
				"x": 4.9511269784,
				"y": 0.2801549147,
				"z": 2.5373241691,
				"element": "O" 
			},
			{
				"x": -6.5838016623,
				"y": -0.7786683006,
				"z": -1.163114928,
				"element": "H" 
			},
			{
				"x": -6.1452914045,
				"y": 0.7141913173,
				"z": -0.3219751859,
				"element": "H" 
			},
			{
				"x": -4.9424698253,
				"y": -0.5598454915,
				"z": -0.5534946215,
				"element": "H" 
			},
			{
				"x": -6.2806249672,
				"y": 1.0187672992,
				"z": -2.836446039,
				"element": "H" 
			},
			{
				"x": -5.0322696057,
				"y": -0.188683971,
				"z": -3.0495625719,
				"element": "H" 
			},
			{
				"x": -4.7276385474,
				"y": 2.5017631039,
				"z": -1.6071627023,
				"element": "H" 
			},
			{
				"x": -4.1823956531,
				"y": 2.1563826355,
				"z": -3.2393837933,
				"element": "H" 
			},
			{
				"x": -3.0771409804,
				"y": 0.8669623255,
				"z": -0.6864044701,
				"element": "H" 
			},
			{
				"x": -2.3313070565,
				"y": 2.1693484311,
				"z": -1.587568061,
				"element": "H" 
			},
			{
				"x": -2.7753861879,
				"y": -0.6782324085,
				"z": -2.6376744062,
				"element": "H" 
			},
			{
				"x": -2.174219018,
				"y": 0.6538118568,
				"z": -3.6088238024,
				"element": "H" 
			},
			{
				"x": -0.28253396,
				"y": -0.6602729906,
				"z": -2.8908317982,
				"element": "H" 
			},
			{
				"x": -0.2067221726,
				"y": 0.8915224437,
				"z": -2.0745532148,
				"element": "H" 
			},
			{
				"x": -1.3312263836,
				"y": -1.6720080343,
				"z": -0.8223477923,
				"element": "H" 
			},
			{
				"x": -1.0895247925,
				"y": -0.1536456291,
				"z": 0.0237827946,
				"element": "H" 
			},
			{
				"x": 1.147419716,
				"y": -1.8688487687,
				"z": -1.1856038226,
				"element": "H" 
			},
			{
				"x": 0.6670881057,
				"y": -1.8703652948,
				"z": 0.5007954682,
				"element": "H" 
			},
			{
				"x": 1.8419061049,
				"y": 0.5130239062,
				"z": -1.0290128782,
				"element": "H" 
			},
			{
				"x": 1.2753961939,
				"y": 0.5976210931,
				"z": 0.6271140988,
				"element": "H" 
			},
			{
				"x": 3.4623845697,
				"y": -1.3139292446,
				"z": -0.348749128,
				"element": "H" 
			},
			{
				"x": 3.8276323361,
				"y": 0.2753345788,
				"z": 0.2751286742,
				"element": "H" 
			},
			{
				"x": 2.2174362904,
				"y": -1.5481194302,
				"z": 2.0876682346,
				"element": "H" 
			},
			{
				"x": 3.9062839946,
				"y": -1.9367448175,
				"z": 1.8191965219,
				"element": "H" 
			},
			{
				"x": 3.6286294437,
				"y": -0.6672707654,
				"z": 3.8298519263,
				"element": "H" 
			},
			{
				"x": 2.6948159595,
				"y": 1.7062856587,
				"z": 2.1242152896,
				"element": "H" 
			},
			{
				"x": 1.6829996341,
				"y": 0.8054573441,
				"z": 3.2759077839,
				"element": "H" 
			},
			{
				"x": 3.0671274101,
				"y": 1.738282562,
				"z": 3.854519891,
				"element": "H" 
			},
			{
				"x": 5.2304700324,
				"y": 0.9477423373,
				"z": 3.1766809896,
				"element": "H" 
			}
		],
		 "valence_orbital": [ 
			{
				"type": "occ",
				"energy": -0.30268,
				"method": "rhf"
			},
			{
				"type": "occ",
				"energy": -0.30095,
				"method": "rhf"
			},
			{
				"type": "occ",
				"energy": -0.29842,
				"method": "rhf"
			},
			{
				"type": "occ",
				"energy": -0.29661,
				"method": "rhf"
			},
			{
				"type": "occ",
				"energy": -0.25925,
				"method": "rhf"
			},
			{
				"type": "unocc",
				"energy": 0.06991,
				"method": "rhf"
			},
			{
				"type": "unocc",
				"energy": 0.08323,
				"method": "rhf"
			},
			{
				"type": "unocc",
				"energy": 0.10177,
				"method": "rhf"
			},
			{
				"type": "unocc",
				"energy": 0.1085,
				"method": "rhf"
			},
			{
				"type": "unocc",
				"energy": 0.11422,
				"method": "rhf"
			}
		],
		"cosmo_sigma_profile": { 
			"-0.025": 0.0,
			"-0.024": 0.0,
			"-0.023": 0.0,
			"-0.022": 0.0,
			"-0.021": 0.0,
			"-0.02": 0.0,
			"-0.019": 0.0,
			"-0.018": 0.0,
			"-0.017": 0.0,
			"-0.016": 0.0,
			"-0.015": 0.320680853574,
			"-0.014": 0.901911090449,
			"-0.013": 1.2522165781,
			"-0.012": 0.668029104527,
			"-0.011": 0.773210546905,
			"-0.01": 0.91460474108,
			"-0.009": 1.07987184877,
			"-0.008": 0.920272729337,
			"-0.007": 1.05370704908,
			"-0.006": 1.13565347486,
			"-0.005": 1.4485260457,
			"-0.004": 2.04427735616,
			"-0.003": 8.69848436955,
			"-0.002": 39.1163484447,
			"-0.001": 69.8388979069,
			"0.0": 71.0367994301,
			"0.001": 65.1936915941,
			"0.002": 25.9389031378,
			"0.003": 2.02750288956,
			"0.004": 2.05558564124,
			"0.005": 1.85642327219,
			"0.006": 1.61263354823,
			"0.007": 1.19311455321,
			"0.008": 1.30002888255,
			"0.009": 1.6039580179,
			"0.01": 1.59449173467,
			"0.011": 1.03979243127,
			"0.012": 1.68444935347,
			"0.013": 1.16752331638,
			"0.014": 1.44952122764,
			"0.015": 0.865077698684,
			"0.016": 0.0236001183641,
			"0.017": 0.0,
			"0.018": 0.0,
			"0.019": 0.0,
			"0.02": 0.0,
			"0.021": 0.0,
			"0.022": 0.0,
			"0.023": 0.0,
			"0.024": 0.0,
			"0.025": 0.0
		}
	}
}
