{
	 "smiles": "CC1=CC=C(C=C1)S(=O)(=O)CC(O)=O", 
	 "Tm": 391.15, 
	 "num_atms": 24, 
	 "gaussian": { 
		 "optdone": 1, 
		 "sigma_profile": "yes", 
		 "theory": "DFT", 
		 "functional": "B3LYP", 
		 "basiset": "6-31G**", 
		 "properties": { 
			 "R2extent": 3497.7252, 
			 "electric_dipole_moment_norm": 4.30221536653, 
			 "electric_quadrupole_moment_norm": 20.9413279999, 
			 "total_energy": -1048.01743026, 
			 "HOMO_LUMO_gap": 0.22207, 
			 "cosmo_polarized_energy": -18.27, 
			 "cosmo_cavitation_energy": 29.91, 
			 "cosmo_dispersion_energy": -21.67, 
			 "cosmo_repulsion_energy": 1.68, 
			 "cosmo_total_nonelectrostatic_energy": 9.92, 
			 "SMD_solvation_energy": 5.63 
		},
		"coords": [
			{
				"x": -3.9877787585,
				"y": -1.7593123135,
				"z": 0.6442122271,
				"element": "C" 
			},
			{
				"x": -2.7550528761,
				"y": -1.0455121539,
				"z": 0.1448860838,
				"element": "C" 
			},
			{
				"x": -1.4791260244,
				"y": -1.5892751538,
				"z": 0.355539794,
				"element": "C" 
			},
			{
				"x": -0.335863609,
				"y": -0.9558470839,
				"z": -0.1248694802,
				"element": "C" 
			},
			{
				"x": -0.4747780328,
				"y": 0.2442809822,
				"z": -0.824574325,
				"element": "C" 
			},
			{
				"x": -1.7307780644,
				"y": 0.8087656166,
				"z": -1.0545377349,
				"element": "C" 
			},
			{
				"x": -2.8620079067,
				"y": 0.1592436285,
				"z": -0.5651893537,
				"element": "C" 
			},
			{
				"x": 0.9784234922,
				"y": 1.0730017459,
				"z": -1.4671611101,
				"element": "S" 
			},
			{
				"x": 2.031588402,
				"y": 0.0724829968,
				"z": -1.6902569038,
				"element": "O" 
			},
			{
				"x": 0.5450398031,
				"y": 1.9871659731,
				"z": -2.5341762212,
				"element": "O" 
			},
			{
				"x": 1.5570365128,
				"y": 2.1748707977,
				"z": -0.1069048622,
				"element": "C" 
			},
			{
				"x": 2.2791564393,
				"y": 1.4104057673,
				"z": 0.9789322619,
				"element": "C" 
			},
			{
				"x": 3.598680177,
				"y": 1.6800704284,
				"z": 0.9768478533,
				"element": "O" 
			},
			{
				"x": 1.7504795323,
				"y": 0.6458032103,
				"z": 1.7548765003,
				"element": "O" 
			},
			{
				"x": -4.8094965135,
				"y": -1.0609291938,
				"z": 0.8260569032,
				"element": "H" 
			},
			{
				"x": -4.338718589,
				"y": -2.4928214874,
				"z": -0.092275684,
				"element": "H" 
			},
			{
				"x": -3.7873344788,
				"y": -2.3017001572,
				"z": 1.57273452,
				"element": "H" 
			},
			{
				"x": -1.3793818803,
				"y": -2.5222528561,
				"z": 0.9035709763,
				"element": "H" 
			},
			{
				"x": 0.6475867126,
				"y": -1.381227556,
				"z": 0.0347412448,
				"element": "H" 
			},
			{
				"x": -1.8141211892,
				"y": 1.7290580283,
				"z": -1.6226527455,
				"element": "H" 
			},
			{
				"x": -3.8434512759,
				"y": 0.5908830996,
				"z": -0.7424227266,
				"element": "H" 
			},
			{
				"x": 0.675273225,
				"y": 2.6740710402,
				"z": 0.2985738009,
				"element": "H" 
			},
			{
				"x": 2.2076037225,
				"y": 2.895388871,
				"z": -0.604708661,
				"element": "H" 
			},
			{
				"x": 3.9956211801,
				"y": 1.1307857695,
				"z": 1.6745576426,
				"element": "H" 
			}
		],
		 "valence_orbital": [ 
			{
				"type": "occ",
				"energy": -0.30364,
				"method": "rhf"
			},
			{
				"type": "occ",
				"energy": -0.29563,
				"method": "rhf"
			},
			{
				"type": "occ",
				"energy": -0.28796,
				"method": "rhf"
			},
			{
				"type": "occ",
				"energy": -0.26823,
				"method": "rhf"
			},
			{
				"type": "occ",
				"energy": -0.26437,
				"method": "rhf"
			},
			{
				"type": "unocc",
				"energy": -0.0423,
				"method": "rhf"
			},
			{
				"type": "unocc",
				"energy": -0.02256,
				"method": "rhf"
			},
			{
				"type": "unocc",
				"energy": -0.01789,
				"method": "rhf"
			},
			{
				"type": "unocc",
				"energy": 0.06196,
				"method": "rhf"
			},
			{
				"type": "unocc",
				"energy": 0.06954,
				"method": "rhf"
			}
		],
		"cosmo_sigma_profile": { 
			"-0.025": 0.0,
			"-0.024": 0.0,
			"-0.023": 0.0,
			"-0.022": 0.0,
			"-0.021": 0.0,
			"-0.02": 0.0,
			"-0.019": 0.483029718134,
			"-0.018": 1.18778890157,
			"-0.017": 0.89268468795,
			"-0.016": 0.854847780993,
			"-0.015": 0.592108530792,
			"-0.014": 0.748727354025,
			"-0.013": 0.63422576433,
			"-0.012": 0.973253630617,
			"-0.011": 0.949604430989,
			"-0.01": 3.3436460981,
			"-0.009": 4.84226479644,
			"-0.008": 5.30659669093,
			"-0.007": 7.30285085668,
			"-0.006": 14.0031463419,
			"-0.005": 16.877527114,
			"-0.004": 15.1913263444,
			"-0.003": 13.5973566159,
			"-0.002": 15.2445635457,
			"-0.001": 16.8120670808,
			"0.0": 14.6922521301,
			"0.001": 13.1903936342,
			"0.002": 11.4643092273,
			"0.003": 15.7902211612,
			"0.004": 7.50533752108,
			"0.005": 5.9039049094,
			"0.006": 5.30341812558,
			"0.007": 5.83420046504,
			"0.008": 6.90012901939,
			"0.009": 5.93816753686,
			"0.01": 10.0734974955,
			"0.011": 12.3138613911,
			"0.012": 2.91965365306,
			"0.013": 0.0,
			"0.014": 0.0,
			"0.015": 0.0,
			"0.016": 0.0,
			"0.017": 0.0,
			"0.018": 0.0,
			"0.019": 0.0,
			"0.02": 0.0,
			"0.021": 0.0,
			"0.022": 0.0,
			"0.023": 0.0,
			"0.024": 0.0,
			"0.025": 0.0
		}
	}
}
