{
	 "smiles": "OC(=O)C(SC1=CC=C(F)C=C1)C1=CC=CC=C1", 
	 "Tm": 358.15, 
	 "num_atms": 29, 
	 "gaussian": { 
		 "optdone": 1, 
		 "sigma_profile": "yes", 
		 "theory": "DFT", 
		 "functional": "B3LYP", 
		 "basiset": "6-31G**", 
		 "properties": { 
			 "R2extent": 5654.9583, 
			 "electric_dipole_moment_norm": 5.16355522194, 
			 "electric_quadrupole_moment_norm": 23.4696415, 
			 "total_energy": -1188.58938507, 
			 "HOMO_LUMO_gap": 0.19638, 
			 "cosmo_polarized_energy": -16.88, 
			 "cosmo_cavitation_energy": 36.15, 
			 "cosmo_dispersion_energy": -24.31, 
			 "cosmo_repulsion_energy": 1.84, 
			 "cosmo_total_nonelectrostatic_energy": 13.69, 
			 "SMD_solvation_energy": 7.19 
		},
		"coords": [
			{
				"x": -2.5285018118,
				"y": 1.1815081723,
				"z": 2.4675175142,
				"element": "O" 
			},
			{
				"x": -2.6550677292,
				"y": -0.0358482689,
				"z": 1.887943677,
				"element": "C" 
			},
			{
				"x": -3.68701512,
				"y": -0.6516005717,
				"z": 1.9604628912,
				"element": "O" 
			},
			{
				"x": -1.3805939427,
				"y": -0.5461787476,
				"z": 1.1901825352,
				"element": "C" 
			},
			{
				"x": -1.8393801296,
				"y": -2.1117821339,
				"z": 0.2984852716,
				"element": "S" 
			},
			{
				"x": -0.214364715,
				"y": -2.6452586462,
				"z": -0.2460214742,
				"element": "C" 
			},
			{
				"x": 0.5558136941,
				"y": -3.4878393644,
				"z": 0.5699036064,
				"element": "C" 
			},
			{
				"x": 1.7978461254,
				"y": -3.9539876434,
				"z": 0.1406320714,
				"element": "C" 
			},
			{
				"x": 2.2538052748,
				"y": -3.572697539,
				"z": -1.1170069862,
				"element": "C" 
			},
			{
				"x": 3.4521014332,
				"y": -4.0223159427,
				"z": -1.5397381226,
				"element": "F" 
			},
			{
				"x": 1.5113611177,
				"y": -2.7467257545,
				"z": -1.9538045607,
				"element": "C" 
			},
			{
				"x": 0.2721143753,
				"y": -2.2849854667,
				"z": -1.5112295022,
				"element": "C" 
			},
			{
				"x": -0.735002008,
				"y": 0.5160055944,
				"z": 0.3226112865,
				"element": "C" 
			},
			{
				"x": -1.4419129272,
				"y": 1.1045351269,
				"z": -0.7398884207,
				"element": "C" 
			},
			{
				"x": -0.8503080418,
				"y": 2.097124457,
				"z": -1.5168805589,
				"element": "C" 
			},
			{
				"x": 0.4573801954,
				"y": 2.5164178845,
				"z": -1.249088514,
				"element": "C" 
			},
			{
				"x": 1.1685444175,
				"y": 1.9369683981,
				"z": -0.199630419,
				"element": "C" 
			},
			{
				"x": 0.5746100973,
				"y": 0.9416675387,
				"z": 0.5818989672,
				"element": "C" 
			},
			{
				"x": -1.6761178175,
				"y": 1.5753174688,
				"z": 2.22249703,
				"element": "H" 
			},
			{
				"x": -0.6803231163,
				"y": -0.821267329,
				"z": 1.9883439924,
				"element": "H" 
			},
			{
				"x": 0.173526728,
				"y": -3.7858492555,
				"z": 1.5411537109,
				"element": "H" 
			},
			{
				"x": 2.4057568341,
				"y": -4.6079669052,
				"z": 0.7564364677,
				"element": "H" 
			},
			{
				"x": 1.903343392,
				"y": -2.4798449983,
				"z": -2.9292564896,
				"element": "H" 
			},
			{
				"x": -0.3235441321,
				"y": -1.6412422312,
				"z": -2.1491898498,
				"element": "H" 
			},
			{
				"x": -2.4538302415,
				"y": 0.7730662694,
				"z": -0.9561887887,
				"element": "H" 
			},
			{
				"x": -1.4089149891,
				"y": 2.5462311605,
				"z": -2.3328467663,
				"element": "H" 
			},
			{
				"x": 0.9165133105,
				"y": 3.2896210194,
				"z": -1.8579326797,
				"element": "H" 
			},
			{
				"x": 2.1861820613,
				"y": 2.2521183199,
				"z": 0.0113532987,
				"element": "H" 
			},
			{
				"x": 1.1367776651,
				"y": 0.4839093881,
				"z": 1.3921808123,
				"element": "H" 
			}
		],
		 "valence_orbital": [ 
			{
				"type": "occ",
				"energy": -0.27218,
				"method": "rhf"
			},
			{
				"type": "occ",
				"energy": -0.27112,
				"method": "rhf"
			},
			{
				"type": "occ",
				"energy": -0.26561,
				"method": "rhf"
			},
			{
				"type": "occ",
				"energy": -0.25065,
				"method": "rhf"
			},
			{
				"type": "occ",
				"energy": -0.23402,
				"method": "rhf"
			},
			{
				"type": "unocc",
				"energy": -0.03764,
				"method": "rhf"
			},
			{
				"type": "unocc",
				"energy": -0.02519,
				"method": "rhf"
			},
			{
				"type": "unocc",
				"energy": -0.0221,
				"method": "rhf"
			},
			{
				"type": "unocc",
				"energy": -0.01713,
				"method": "rhf"
			},
			{
				"type": "unocc",
				"energy": 0.00328,
				"method": "rhf"
			}
		],
		"cosmo_sigma_profile": { 
			"-0.025": 0.0,
			"-0.024": 0.0,
			"-0.023": 0.0,
			"-0.022": 0.0,
			"-0.021": 0.0,
			"-0.02": 0.0,
			"-0.019": 0.0,
			"-0.018": 0.0,
			"-0.017": 0.0,
			"-0.016": 0.351181421242,
			"-0.015": 0.777582989991,
			"-0.014": 0.725578076742,
			"-0.013": 0.99378420324,
			"-0.012": 1.32045521684,
			"-0.011": 1.8108119608,
			"-0.01": 1.94699620215,
			"-0.009": 2.85042159837,
			"-0.008": 4.38722175246,
			"-0.007": 9.54183879967,
			"-0.006": 19.270264484,
			"-0.005": 20.2066905116,
			"-0.004": 19.3837327723,
			"-0.003": 15.9549778985,
			"-0.002": 13.5841286345,
			"-0.001": 14.1802821363,
			"0.0": 22.0982189955,
			"0.001": 24.4350427649,
			"0.002": 23.9051814624,
			"0.003": 24.7674873789,
			"0.004": 24.392634334,
			"0.005": 7.94424898072,
			"0.006": 4.54334339719,
			"0.007": 5.55122785653,
			"0.008": 4.73543136724,
			"0.009": 6.02620188649,
			"0.01": 6.28653879967,
			"0.011": 6.31723705053,
			"0.012": 2.84130516764,
			"0.013": 0.135346608558,
			"0.014": 0.0,
			"0.015": 0.0,
			"0.016": 0.0,
			"0.017": 0.0,
			"0.018": 0.0,
			"0.019": 0.0,
			"0.02": 0.0,
			"0.021": 0.0,
			"0.022": 0.0,
			"0.023": 0.0,
			"0.024": 0.0,
			"0.025": 0.0
		}
	}
}
