{
	 "smiles": "CSC(SC)=NC#N", 
	 "Tm": 327.15, 
	 "num_atms": 14, 
	 "gaussian": { 
		 "optdone": 1, 
		 "sigma_profile": "yes", 
		 "theory": "DFT", 
		 "functional": "B3LYP", 
		 "basiset": "6-31G**", 
		 "properties": { 
			 "R2extent": 1901.2219, 
			 "electric_dipole_moment_norm": 3.47271039103, 
			 "electric_quadrupole_moment_norm": 19.014262621, 
			 "total_energy": -1061.88202777, 
			 "HOMO_LUMO_gap": 0.19079, 
			 "cosmo_polarized_energy": -10.21, 
			 "cosmo_cavitation_energy": 22.08, 
			 "cosmo_dispersion_energy": -16.53, 
			 "cosmo_repulsion_energy": 1.29, 
			 "cosmo_total_nonelectrostatic_energy": 6.84, 
			 "SMD_solvation_energy": 5.61 
		},
		"coords": [
			{
				"x": 3.1143035823,
				"y": 0.1509628188,
				"z": -1.9022417268,
				"element": "C" 
			},
			{
				"x": 1.4461289964,
				"y": 0.7722979118,
				"z": -2.3424016366,
				"element": "S" 
			},
			{
				"x": 0.4026825059,
				"y": 0.1796839449,
				"z": -1.0279260323,
				"element": "C" 
			},
			{
				"x": -0.9023224074,
				"y": 1.3255413409,
				"z": -0.736005654,
				"element": "S" 
			},
			{
				"x": -2.0420904326,
				"y": 0.3208408123,
				"z": 0.2760085488,
				"element": "C" 
			},
			{
				"x": 0.4669380414,
				"y": -0.9098805164,
				"z": -0.3385736736,
				"element": "N" 
			},
			{
				"x": 1.3036738656,
				"y": -1.9141996987,
				"z": -0.5686322629,
				"element": "C" 
			},
			{
				"x": 1.9753067265,
				"y": -2.8648040348,
				"z": -0.6928082422,
				"element": "N" 
			},
			{
				"x": 3.7854361259,
				"y": 0.6629263164,
				"z": -2.5952523799,
				"element": "H" 
			},
			{
				"x": 3.1957544407,
				"y": -0.9269353734,
				"z": -2.0289919686,
				"element": "H" 
			},
			{
				"x": 3.368130029,
				"y": 0.4370177349,
				"z": -0.8806646165,
				"element": "H" 
			},
			{
				"x": -1.5671901219,
				"y": 0.0437156284,
				"z": 1.2167811562,
				"element": "H" 
			},
			{
				"x": -2.3423964621,
				"y": -0.5757265721,
				"z": -0.2674448721,
				"element": "H" 
			},
			{
				"x": -2.9101548897,
				"y": 0.956359687,
				"z": 0.4624533604,
				"element": "H" 
			}
		],
		 "valence_orbital": [ 
			{
				"type": "occ",
				"energy": -0.3471,
				"method": "rhf"
			},
			{
				"type": "occ",
				"energy": -0.33022,
				"method": "rhf"
			},
			{
				"type": "occ",
				"energy": -0.27668,
				"method": "rhf"
			},
			{
				"type": "occ",
				"energy": -0.26551,
				"method": "rhf"
			},
			{
				"type": "occ",
				"energy": -0.26029,
				"method": "rhf"
			},
			{
				"type": "unocc",
				"energy": -0.0695,
				"method": "rhf"
			},
			{
				"type": "unocc",
				"energy": -0.00663,
				"method": "rhf"
			},
			{
				"type": "unocc",
				"energy": 0.02434,
				"method": "rhf"
			},
			{
				"type": "unocc",
				"energy": 0.03452,
				"method": "rhf"
			},
			{
				"type": "unocc",
				"energy": 0.06494,
				"method": "rhf"
			}
		],
		"cosmo_sigma_profile": { 
			"-0.025": 0.0,
			"-0.024": 0.0,
			"-0.023": 0.0,
			"-0.022": 0.0,
			"-0.021": 0.0,
			"-0.02": 0.0,
			"-0.019": 0.0,
			"-0.018": 0.0,
			"-0.017": 0.0,
			"-0.016": 0.0,
			"-0.015": 0.0,
			"-0.014": 0.0,
			"-0.013": 0.0,
			"-0.012": 0.0,
			"-0.011": 0.0,
			"-0.01": 0.0,
			"-0.009": 0.747727821533,
			"-0.008": 5.69731635628,
			"-0.007": 9.26806327197,
			"-0.006": 8.85490192289,
			"-0.005": 11.5351347421,
			"-0.004": 13.0655798941,
			"-0.003": 18.9177921521,
			"-0.002": 14.7770374345,
			"-0.001": 9.07462760657,
			"0.0": 11.1671717467,
			"0.001": 12.5874008462,
			"0.002": 14.8017119937,
			"0.003": 11.3353597502,
			"0.004": 9.5369025233,
			"0.005": 6.9422035191,
			"0.006": 3.69697536685,
			"0.007": 1.65940091744,
			"0.008": 1.71836409001,
			"0.009": 2.74895631692,
			"0.01": 2.7086776187,
			"0.011": 3.0197797021,
			"0.012": 2.79491896574,
			"0.013": 2.72852805559,
			"0.014": 1.57449375015,
			"0.015": 0.0378091392941,
			"0.016": 0.0,
			"0.017": 0.0,
			"0.018": 0.0,
			"0.019": 0.0,
			"0.02": 0.0,
			"0.021": 0.0,
			"0.022": 0.0,
			"0.023": 0.0,
			"0.024": 0.0,
			"0.025": 0.0
		}
	}
}
