{
	 "smiles": "CC(OC1=CC(Cl)=C(Cl)C=C1Cl)C(O)=O", 
	 "Tm": 455.15, 
	 "num_atms": 22, 
	 "gaussian": { 
		 "optdone": 1, 
		 "sigma_profile": "yes", 
		 "theory": "DFT", 
		 "functional": "B3LYP", 
		 "basiset": "6-31G**", 
		 "properties": { 
			 "R2extent": 5211.1413, 
			 "electric_dipole_moment_norm": 4.66276430672, 
			 "electric_quadrupole_moment_norm": 12.8011367433, 
			 "total_energy": -1953.41167691, 
			 "HOMO_LUMO_gap": 0.21342, 
			 "cosmo_polarized_energy": -16.16, 
			 "cosmo_cavitation_energy": 32.25, 
			 "cosmo_dispersion_energy": -23.03, 
			 "cosmo_repulsion_energy": 1.82, 
			 "cosmo_total_nonelectrostatic_energy": 11.03, 
			 "SMD_solvation_energy": 6.0 
		},
		"coords": [
			{
				"x": 0.6661597446,
				"y": -3.0800412211,
				"z": 1.6874429154,
				"element": "C" 
			},
			{
				"x": -0.1356399967,
				"y": -1.8493964018,
				"z": 1.259097782,
				"element": "C" 
			},
			{
				"x": 0.7026098235,
				"y": -1.1010888426,
				"z": 0.3846829139,
				"element": "O" 
			},
			{
				"x": 0.3831655056,
				"y": 0.2169064522,
				"z": 0.170586523,
				"element": "C" 
			},
			{
				"x": -0.262937696,
				"y": 0.5829196568,
				"z": -1.0107472068,
				"element": "C" 
			},
			{
				"x": -0.5227011989,
				"y": 1.922974271,
				"z": -1.2956372547,
				"element": "C" 
			},
			{
				"x": -1.3298415267,
				"y": 2.3210156582,
				"z": -2.7884481287,
				"element": "Cl" 
			},
			{
				"x": -0.1376863924,
				"y": 2.9168544902,
				"z": -0.384329222,
				"element": "C" 
			},
			{
				"x": -0.4399649307,
				"y": 4.6074640748,
				"z": -0.6881423411,
				"element": "Cl" 
			},
			{
				"x": 0.5092726421,
				"y": 2.5586344232,
				"z": 0.7992285443,
				"element": "C" 
			},
			{
				"x": 0.7699863298,
				"y": 1.2191993416,
				"z": 1.0734906574,
				"element": "C" 
			},
			{
				"x": 1.6118987998,
				"y": 0.7993372953,
				"z": 2.5509427518,
				"element": "Cl" 
			},
			{
				"x": -1.4375721088,
				"y": -2.2655139909,
				"z": 0.5489929193,
				"element": "C" 
			},
			{
				"x": -2.3943649492,
				"y": -2.7676933698,
				"z": 1.3718357704,
				"element": "O" 
			},
			{
				"x": -1.6230382414,
				"y": -2.1996475263,
				"z": -0.6377365742,
				"element": "O" 
			},
			{
				"x": 0.9534351134,
				"y": -3.6563613767,
				"z": 0.8042959224,
				"element": "H" 
			},
			{
				"x": 0.0831157408,
				"y": -3.7264141874,
				"z": 2.3499105445,
				"element": "H" 
			},
			{
				"x": 1.5700001707,
				"y": -2.7610530139,
				"z": 2.2104606442,
				"element": "H" 
			},
			{
				"x": -0.3939232291,
				"y": -1.2432798245,
				"z": 2.1400830302,
				"element": "H" 
			},
			{
				"x": -0.5696629423,
				"y": -0.2016037237,
				"z": -1.6907220393,
				"element": "H" 
			},
			{
				"x": 0.8151332035,
				"y": 3.3265105921,
				"z": 1.4990790183,
				"element": "H" 
			},
			{
				"x": -2.1155438615,
				"y": -2.7193227765,
				"z": 2.2979328298,
				"element": "H" 
			}
		],
		 "valence_orbital": [ 
			{
				"type": "occ",
				"energy": -0.31888,
				"method": "rhf"
			},
			{
				"type": "occ",
				"energy": -0.31307,
				"method": "rhf"
			},
			{
				"type": "occ",
				"energy": -0.28543,
				"method": "rhf"
			},
			{
				"type": "occ",
				"energy": -0.26794,
				"method": "rhf"
			},
			{
				"type": "occ",
				"energy": -0.25061,
				"method": "rhf"
			},
			{
				"type": "unocc",
				"energy": -0.03719,
				"method": "rhf"
			},
			{
				"type": "unocc",
				"energy": -0.03375,
				"method": "rhf"
			},
			{
				"type": "unocc",
				"energy": -0.01519,
				"method": "rhf"
			},
			{
				"type": "unocc",
				"energy": -0.00866,
				"method": "rhf"
			},
			{
				"type": "unocc",
				"energy": 0.02349,
				"method": "rhf"
			}
		],
		"cosmo_sigma_profile": { 
			"-0.025": 0.0,
			"-0.024": 0.0,
			"-0.023": 0.0,
			"-0.022": 0.0,
			"-0.021": 0.0119392107978,
			"-0.02": 0.510258923514,
			"-0.019": 1.06697687164,
			"-0.018": 1.28380526987,
			"-0.017": 0.698740630887,
			"-0.016": 1.52755456247,
			"-0.015": 1.19775404525,
			"-0.014": 0.858867281588,
			"-0.013": 1.18842730708,
			"-0.012": 1.52525082196,
			"-0.011": 1.41490253942,
			"-0.01": 1.25787203332,
			"-0.009": 3.29430261542,
			"-0.008": 3.53010265194,
			"-0.007": 4.1590595261,
			"-0.006": 5.37806313496,
			"-0.005": 10.5749873152,
			"-0.004": 11.2526576027,
			"-0.003": 15.3302844629,
			"-0.002": 18.2845457357,
			"-0.001": 26.0013985356,
			"0.0": 34.8223973472,
			"0.001": 19.674420439,
			"0.002": 17.6368693597,
			"0.003": 25.9519572789,
			"0.004": 19.717154857,
			"0.005": 6.53930238009,
			"0.006": 4.33042595041,
			"0.007": 3.81352637328,
			"0.008": 4.54495179459,
			"0.009": 6.11317875355,
			"0.01": 5.48022131995,
			"0.011": 3.15045696746,
			"0.012": 1.88994038952,
			"0.013": 0.229668101178,
			"0.014": 0.0,
			"0.015": 0.0,
			"0.016": 0.0,
			"0.017": 0.0,
			"0.018": 0.0,
			"0.019": 0.0,
			"0.02": 0.0,
			"0.021": 0.0,
			"0.022": 0.0,
			"0.023": 0.0,
			"0.024": 0.0,
			"0.025": 0.0
		}
	}
}
