{
	 "smiles": "CN(C)C(=O)C(O)C(O)C(=O)N(C)C", 
	 "Tm": 460.15, 
	 "num_atms": 30, 
	 "gaussian": { 
		 "optdone": 1, 
		 "sigma_profile": "yes", 
		 "theory": "DFT", 
		 "functional": "B3LYP", 
		 "basiset": "6-31G**", 
		 "properties": { 
			 "R2extent": 3159.6279, 
			 "electric_dipole_moment_norm": 2.20152716086, 
			 "electric_quadrupole_moment_norm": 15.3444646231, 
			 "total_energy": -724.887808642, 
			 "HOMO_LUMO_gap": 0.24464, 
			 "cosmo_polarized_energy": -17.64, 
			 "cosmo_cavitation_energy": 31.44, 
			 "cosmo_dispersion_energy": -22.46, 
			 "cosmo_repulsion_energy": 1.79, 
			 "cosmo_total_nonelectrostatic_energy": 10.76, 
			 "SMD_solvation_energy": 6.21 
		},
		"coords": [
			{
				"x": 2.0933086329,
				"y": 1.8413484619,
				"z": -1.9803117344,
				"element": "C" 
			},
			{
				"x": 1.8225379502,
				"y": 0.5416134972,
				"z": -1.3788774967,
				"element": "N" 
			},
			{
				"x": 2.4994456073,
				"y": -0.586422763,
				"z": -2.005728268,
				"element": "C" 
			},
			{
				"x": 0.87659527,
				"y": 0.2874645523,
				"z": -0.4240470087,
				"element": "C" 
			},
			{
				"x": 0.6019927246,
				"y": -0.8582505966,
				"z": -0.063419319,
				"element": "O" 
			},
			{
				"x": 0.1309680007,
				"y": 1.4970052974,
				"z": 0.1897258013,
				"element": "C" 
			},
			{
				"x": 1.0092328599,
				"y": 2.4913557365,
				"z": 0.6972763416,
				"element": "O" 
			},
			{
				"x": -0.8337401486,
				"y": 1.0727133701,
				"z": 1.3131964402,
				"element": "C" 
			},
			{
				"x": -0.0227836416,
				"y": 0.7442380776,
				"z": 2.4432872202,
				"element": "O" 
			},
			{
				"x": -1.9077795182,
				"y": 0.0897507094,
				"z": 0.8047624221,
				"element": "C" 
			},
			{
				"x": -2.6154446625,
				"y": 0.542703806,
				"z": -0.0970686045,
				"element": "O" 
			},
			{
				"x": -2.1645292541,
				"y": -1.1114541406,
				"z": 1.4039775188,
				"element": "N" 
			},
			{
				"x": -1.1913610301,
				"y": -1.9332942419,
				"z": 2.120429377,
				"element": "C" 
			},
			{
				"x": -3.3185922682,
				"y": -1.8524604543,
				"z": 0.9035165453,
				"element": "C" 
			},
			{
				"x": 1.7039273926,
				"y": 2.6465458132,
				"z": -1.364098244,
				"element": "H" 
			},
			{
				"x": 1.6669855138,
				"y": 1.901031043,
				"z": -2.9913743473,
				"element": "H" 
			},
			{
				"x": 3.1775071732,
				"y": 1.9807326843,
				"z": -2.0647403305,
				"element": "H" 
			},
			{
				"x": 2.1985808487,
				"y": -0.6847868052,
				"z": -3.0571831403,
				"element": "H" 
			},
			{
				"x": 2.2314614495,
				"y": -1.4955002589,
				"z": -1.4707927624,
				"element": "H" 
			},
			{
				"x": 3.5852912285,
				"y": -0.4389223917,
				"z": -1.9711947694,
				"element": "H" 
			},
			{
				"x": -0.4765087631,
				"y": 1.9620971895,
				"z": -0.5921923194,
				"element": "H" 
			},
			{
				"x": 1.3070572419,
				"y": 2.1492164408,
				"z": 1.5553512077,
				"element": "H" 
			},
			{
				"x": -1.413475314,
				"y": 1.9772264274,
				"z": 1.5408190692,
				"element": "H" 
			},
			{
				"x": -0.5507027064,
				"y": 0.8677519546,
				"z": 3.2415677755,
				"element": "H" 
			},
			{
				"x": -0.9014182611,
				"y": -2.7887828717,
				"z": 1.498404209,
				"element": "H" 
			},
			{
				"x": -0.2976043924,
				"y": -1.3626218175,
				"z": 2.3427914219,
				"element": "H" 
			},
			{
				"x": -1.6406530963,
				"y": -2.3135513633,
				"z": 3.0466754796,
				"element": "H" 
			},
			{
				"x": -3.741203073,
				"y": -2.4461742456,
				"z": 1.7205697391,
				"element": "H" 
			},
			{
				"x": -3.0329192029,
				"y": -2.5322071481,
				"z": 0.0893070375,
				"element": "H" 
			},
			{
				"x": -4.061976561,
				"y": -1.153265963,
				"z": 0.5243707385,
				"element": "H" 
			}
		],
		 "valence_orbital": [ 
			{
				"type": "occ",
				"energy": -0.29619,
				"method": "rhf"
			},
			{
				"type": "occ",
				"energy": -0.24192,
				"method": "rhf"
			},
			{
				"type": "occ",
				"energy": -0.23827,
				"method": "rhf"
			},
			{
				"type": "occ",
				"energy": -0.23369,
				"method": "rhf"
			},
			{
				"type": "occ",
				"energy": -0.22723,
				"method": "rhf"
			},
			{
				"type": "unocc",
				"energy": 0.01741,
				"method": "rhf"
			},
			{
				"type": "unocc",
				"energy": 0.03224,
				"method": "rhf"
			},
			{
				"type": "unocc",
				"energy": 0.05617,
				"method": "rhf"
			},
			{
				"type": "unocc",
				"energy": 0.09601,
				"method": "rhf"
			},
			{
				"type": "unocc",
				"energy": 0.11006,
				"method": "rhf"
			}
		],
		"cosmo_sigma_profile": { 
			"-0.025": 0.0,
			"-0.024": 0.0,
			"-0.023": 0.0,
			"-0.022": 0.0,
			"-0.021": 0.0,
			"-0.02": 0.0,
			"-0.019": 0.0,
			"-0.018": 0.0,
			"-0.017": 0.653890791428,
			"-0.016": 1.22683654797,
			"-0.015": 1.19305583142,
			"-0.014": 0.588018167326,
			"-0.013": 0.905574779935,
			"-0.012": 1.83219353094,
			"-0.011": 1.52787064016,
			"-0.01": 1.28614846116,
			"-0.009": 1.90208779288,
			"-0.008": 2.34880469153,
			"-0.007": 2.54244012167,
			"-0.006": 4.65503845772,
			"-0.005": 14.7308684055,
			"-0.004": 25.9564980459,
			"-0.003": 28.2551000242,
			"-0.002": 32.8332271404,
			"-0.001": 28.5664059558,
			"0.0": 11.3034945759,
			"0.001": 9.10581939092,
			"0.002": 7.31366966976,
			"0.003": 7.28886925404,
			"0.004": 6.91728822562,
			"0.005": 5.35787873971,
			"0.006": 5.65215487615,
			"0.007": 5.74626074935,
			"0.008": 5.52723410728,
			"0.009": 5.43330900388,
			"0.01": 5.33038648313,
			"0.011": 4.32515270112,
			"0.012": 4.56051621425,
			"0.013": 4.37663031458,
			"0.014": 4.65208081094,
			"0.015": 0.974699167412,
			"0.016": 0.0,
			"0.017": 0.0,
			"0.018": 0.0,
			"0.019": 0.0,
			"0.02": 0.0,
			"0.021": 0.0,
			"0.022": 0.0,
			"0.023": 0.0,
			"0.024": 0.0,
			"0.025": 0.0
		}
	}
}
