{
	 "smiles": "OC1=CC(=CC=C1[N+]([O-])=O)[N+]([O-])=O", 
	 "Tm": 381.15, 
	 "num_atms": 17, 
	 "gaussian": { 
		 "optdone": 1, 
		 "sigma_profile": "yes", 
		 "theory": "DFT", 
		 "functional": "B3LYP", 
		 "basiset": "6-31G**", 
		 "properties": { 
			 "R2extent": 2786.3228, 
			 "electric_dipole_moment_norm": 1.67400155914, 
			 "electric_quadrupole_moment_norm": 27.4517494765, 
			 "total_energy": -716.450313894, 
			 "HOMO_LUMO_gap": 0.15419, 
			 "cosmo_polarized_energy": -17.05, 
			 "cosmo_cavitation_energy": 23.59, 
			 "cosmo_dispersion_energy": -17.45, 
			 "cosmo_repulsion_energy": 1.37, 
			 "cosmo_total_nonelectrostatic_energy": 7.52, 
			 "SMD_solvation_energy": 9.14 
		},
		"coords": [
			{
				"x": 0.775856204,
				"y": 2.1131981281,
				"z": 0.9709253254,
				"element": "O" 
			},
			{
				"x": 0.4492080438,
				"y": 1.1264491252,
				"z": 0.1145818708,
				"element": "C" 
			},
			{
				"x": -0.8606967232,
				"y": 0.9681500443,
				"z": -0.3576889257,
				"element": "C" 
			},
			{
				"x": -1.1509840766,
				"y": -0.0455651266,
				"z": -1.2594216833,
				"element": "C" 
			},
			{
				"x": -0.1869391699,
				"y": -0.9273887522,
				"z": -1.7413636405,
				"element": "C" 
			},
			{
				"x": 1.114707582,
				"y": -0.7671151164,
				"z": -1.285391023,
				"element": "C" 
			},
			{
				"x": 1.4325448918,
				"y": 0.2331366929,
				"z": -0.3649771432,
				"element": "C" 
			},
			{
				"x": 2.8327556341,
				"y": 0.3076900147,
				"z": 0.0824072171,
				"element": "N" 
			},
			{
				"x": 3.6809850781,
				"y": -0.1710633766,
				"z": -0.671841125,
				"element": "O" 
			},
			{
				"x": 3.0626159181,
				"y": 0.8150360978,
				"z": 1.174479431,
				"element": "O" 
			},
			{
				"x": -2.5468059401,
				"y": -0.1827566301,
				"z": -1.7265365603,
				"element": "N" 
			},
			{
				"x": -3.3727567139,
				"y": 0.615020892,
				"z": -1.2874540352,
				"element": "O" 
			},
			{
				"x": -2.7881491116,
				"y": -1.0856814837,
				"z": -2.5226497211,
				"element": "O" 
			},
			{
				"x": -0.0057509249,
				"y": 2.6559911425,
				"z": 1.1454434278,
				"element": "H" 
			},
			{
				"x": -1.6567311815,
				"y": 1.6274442434,
				"z": -0.029606449,
				"element": "H" 
			},
			{
				"x": -0.4591689343,
				"y": -1.7015700802,
				"z": -2.4457859386,
				"element": "H" 
			},
			{
				"x": 1.914809424,
				"y": -1.409175815,
				"z": -1.6317210272,
				"element": "H" 
			}
		],
		 "valence_orbital": [ 
			{
				"type": "occ",
				"energy": -0.31904,
				"method": "rhf"
			},
			{
				"type": "occ",
				"energy": -0.31394,
				"method": "rhf"
			},
			{
				"type": "occ",
				"energy": -0.31317,
				"method": "rhf"
			},
			{
				"type": "occ",
				"energy": -0.29633,
				"method": "rhf"
			},
			{
				"type": "occ",
				"energy": -0.27667,
				"method": "rhf"
			},
			{
				"type": "unocc",
				"energy": -0.12248,
				"method": "rhf"
			},
			{
				"type": "unocc",
				"energy": -0.07723,
				"method": "rhf"
			},
			{
				"type": "unocc",
				"energy": -0.04408,
				"method": "rhf"
			},
			{
				"type": "unocc",
				"energy": -0.00594,
				"method": "rhf"
			},
			{
				"type": "unocc",
				"energy": 0.03358,
				"method": "rhf"
			}
		],
		"cosmo_sigma_profile": { 
			"-0.025": 0.0,
			"-0.024": 0.0,
			"-0.023": 0.0,
			"-0.022": 0.0,
			"-0.021": 0.0,
			"-0.02": 0.823380599124,
			"-0.019": 1.72310351602,
			"-0.018": 1.30108052112,
			"-0.017": 0.970305238693,
			"-0.016": 1.36306713005,
			"-0.015": 1.07619096787,
			"-0.014": 0.875415522211,
			"-0.013": 1.01591631446,
			"-0.012": 0.690967387185,
			"-0.011": 1.20531215555,
			"-0.01": 0.810289732383,
			"-0.009": 2.90681774277,
			"-0.008": 6.53864861007,
			"-0.007": 6.66682373387,
			"-0.006": 6.80867338704,
			"-0.005": 8.20163497668,
			"-0.004": 8.07869759339,
			"-0.003": 15.6018211335,
			"-0.002": 16.9061059595,
			"-0.001": 12.3137557382,
			"0.0": 10.3768412161,
			"0.001": 6.01003854962,
			"0.002": 5.1748257577,
			"0.003": 4.11711816681,
			"0.004": 5.97560122112,
			"0.005": 7.64348282228,
			"0.006": 9.86480453019,
			"0.007": 18.2076933445,
			"0.008": 12.6507672146,
			"0.009": 8.80597842065,
			"0.01": 3.27961214387,
			"0.011": 1.14648704669,
			"0.012": 0.835299091501,
			"0.013": 0.00294840266459,
			"0.014": 0.0,
			"0.015": 0.0,
			"0.016": 0.0,
			"0.017": 0.0,
			"0.018": 0.0,
			"0.019": 0.0,
			"0.02": 0.0,
			"0.021": 0.0,
			"0.022": 0.0,
			"0.023": 0.0,
			"0.024": 0.0,
			"0.025": 0.0
		}
	}
}
