{
	 "smiles": "N#CCN1CCN(CC2=CC=CC=C2)CC1", 
	 "Tm": 323.15, 
	 "num_atms": 33, 
	 "gaussian": { 
		 "optdone": 1, 
		 "sigma_profile": "yes", 
		 "theory": "DFT", 
		 "functional": "B3LYP", 
		 "basiset": "6-31G**", 
		 "properties": { 
			 "R2extent": 5742.1929, 
			 "electric_dipole_moment_norm": 4.06074602629, 
			 "electric_quadrupole_moment_norm": 32.6705591325, 
			 "total_energy": -669.831468808, 
			 "HOMO_LUMO_gap": 0.2106, 
			 "cosmo_polarized_energy": -12.96, 
			 "cosmo_cavitation_energy": 35.32, 
			 "cosmo_dispersion_energy": -24.58, 
			 "cosmo_repulsion_energy": 1.92, 
			 "cosmo_total_nonelectrostatic_energy": 12.66, 
			 "SMD_solvation_energy": 2.92 
		},
		"coords": [
			{
				"x": -6.2040063759,
				"y": 0.8489056251,
				"z": -2.0834998685,
				"element": "N" 
			},
			{
				"x": -5.4262217192,
				"y": 1.3909607454,
				"z": -1.414752213,
				"element": "C" 
			},
			{
				"x": -4.4483025634,
				"y": 2.0702339065,
				"z": -0.5457669768,
				"element": "C" 
			},
			{
				"x": -3.0817476748,
				"y": 1.7141859267,
				"z": -0.8936961167,
				"element": "N" 
			},
			{
				"x": -2.0641380404,
				"y": 2.5978801049,
				"z": -0.2860198411,
				"element": "C" 
			},
			{
				"x": -1.3517523244,
				"y": 1.9462368794,
				"z": 0.9000279059,
				"element": "C" 
			},
			{
				"x": -0.608296978,
				"y": 0.7656196914,
				"z": 0.4482528055,
				"element": "N" 
			},
			{
				"x": -0.224523566,
				"y": -0.0919261638,
				"z": 1.5671819093,
				"element": "C" 
			},
			{
				"x": 0.8531459545,
				"y": -1.1009444379,
				"z": 1.2146139624,
				"element": "C" 
			},
			{
				"x": 1.9543396892,
				"y": -0.7249728578,
				"z": 0.432821698,
				"element": "C" 
			},
			{
				"x": 2.967789992,
				"y": -1.6393815645,
				"z": 0.1487894953,
				"element": "C" 
			},
			{
				"x": 2.8973022811,
				"y": -2.9447091062,
				"z": 0.6433798425,
				"element": "C" 
			},
			{
				"x": 1.8038331438,
				"y": -3.3292125416,
				"z": 1.4196319914,
				"element": "C" 
			},
			{
				"x": 0.787604639,
				"y": -2.4122415784,
				"z": 1.6988113947,
				"element": "C" 
			},
			{
				"x": -1.2887731695,
				"y": 0.0562435936,
				"z": -0.6565984239,
				"element": "C" 
			},
			{
				"x": -2.800203211,
				"y": 0.2869546978,
				"z": -0.6702179697,
				"element": "C" 
			},
			{
				"x": -4.5875159535,
				"y": 3.1489494782,
				"z": -0.6772513463,
				"element": "H" 
			},
			{
				"x": -4.7225410608,
				"y": 1.8323300219,
				"z": 0.5023379069,
				"element": "H" 
			},
			{
				"x": -1.3170199073,
				"y": 2.8635465301,
				"z": -1.0447482757,
				"element": "H" 
			},
			{
				"x": -2.5371483793,
				"y": 3.5311831245,
				"z": 0.0345143607,
				"element": "H" 
			},
			{
				"x": -0.654683971,
				"y": 2.659739615,
				"z": 1.3585216075,
				"element": "H" 
			},
			{
				"x": -2.1030008742,
				"y": 1.6963201873,
				"z": 1.6751915703,
				"element": "H" 
			},
			{
				"x": 0.1566222046,
				"y": 0.5707722091,
				"z": 2.3566450643,
				"element": "H" 
			},
			{
				"x": -1.0899765284,
				"y": -0.622282632,
				"z": 2.011661489,
				"element": "H" 
			},
			{
				"x": 1.9967151745,
				"y": 0.2873956762,
				"z": 0.0425385641,
				"element": "H" 
			},
			{
				"x": 3.8145932633,
				"y": -1.334367805,
				"z": -0.4600366058,
				"element": "H" 
			},
			{
				"x": 3.6867629186,
				"y": -3.6568697393,
				"z": 0.420565858,
				"element": "H" 
			},
			{
				"x": 1.736219976,
				"y": -4.3436681848,
				"z": 1.8026708974,
				"element": "H" 
			},
			{
				"x": -0.0659035487,
				"y": -2.7187343625,
				"z": 2.2994319641,
				"element": "H" 
			},
			{
				"x": -0.8752684066,
				"y": 0.3857072658,
				"z": -1.6183549742,
				"element": "H" 
			},
			{
				"x": -1.0801721261,
				"y": -1.0135197693,
				"z": -0.5762474946,
				"element": "H" 
			},
			{
				"x": -3.2343107169,
				"y": -0.0684180074,
				"z": 0.2843258746,
				"element": "H" 
			},
			{
				"x": -3.2667221415,
				"y": -0.3013165286,
				"z": -1.4684260556,
				"element": "H" 
			}
		],
		 "valence_orbital": [ 
			{
				"type": "occ",
				"energy": -0.32369,
				"method": "rhf"
			},
			{
				"type": "occ",
				"energy": -0.24944,
				"method": "rhf"
			},
			{
				"type": "occ",
				"energy": -0.24485,
				"method": "rhf"
			},
			{
				"type": "occ",
				"energy": -0.22708,
				"method": "rhf"
			},
			{
				"type": "occ",
				"energy": -0.2148,
				"method": "rhf"
			},
			{
				"type": "unocc",
				"energy": -0.0042,
				"method": "rhf"
			},
			{
				"type": "unocc",
				"energy": -0.00067,
				"method": "rhf"
			},
			{
				"type": "unocc",
				"energy": 0.02248,
				"method": "rhf"
			},
			{
				"type": "unocc",
				"energy": 0.03801,
				"method": "rhf"
			},
			{
				"type": "unocc",
				"energy": 0.07054,
				"method": "rhf"
			}
		],
		"cosmo_sigma_profile": { 
			"-0.025": 0.0,
			"-0.024": 0.0,
			"-0.023": 0.0,
			"-0.022": 0.0,
			"-0.021": 0.0,
			"-0.02": 0.0,
			"-0.019": 0.0,
			"-0.018": 0.0,
			"-0.017": 0.0,
			"-0.016": 0.0,
			"-0.015": 0.0,
			"-0.014": 0.0,
			"-0.013": 0.0,
			"-0.012": 0.0,
			"-0.011": 0.0,
			"-0.01": 0.0,
			"-0.009": 1.88883644844,
			"-0.008": 3.27249699329,
			"-0.007": 5.02325290587,
			"-0.006": 9.51786345606,
			"-0.005": 18.1334328872,
			"-0.004": 24.7338441629,
			"-0.003": 38.4329136669,
			"-0.002": 34.1443375108,
			"-0.001": 25.7370286443,
			"0.0": 15.2676234558,
			"0.001": 12.6557767481,
			"0.002": 9.64707525351,
			"0.003": 12.9367344014,
			"0.004": 13.0403533403,
			"0.005": 11.2780907128,
			"0.006": 13.2156567695,
			"0.007": 6.60105774088,
			"0.008": 4.47165956578,
			"0.009": 4.38478635027,
			"0.01": 4.67622637029,
			"0.011": 3.70227946169,
			"0.012": 2.96513913867,
			"0.013": 1.97382756482,
			"0.014": 0.392134815589,
			"0.015": 0.0,
			"0.016": 0.0,
			"0.017": 0.0,
			"0.018": 0.0,
			"0.019": 0.0,
			"0.02": 0.0,
			"0.021": 0.0,
			"0.022": 0.0,
			"0.023": 0.0,
			"0.024": 0.0,
			"0.025": 0.0
		}
	}
}
