{
	 "smiles": "NC1=C(C=C(C=C1)[N+]([O-])=O)C#N", 
	 "Tm": 482.15, 
	 "num_atms": 17, 
	 "gaussian": { 
		 "optdone": 1, 
		 "sigma_profile": "yes", 
		 "theory": "DFT", 
		 "functional": "B3LYP", 
		 "basiset": "6-31G**", 
		 "properties": { 
			 "R2extent": 2316.1526, 
			 "electric_dipole_moment_norm": 6.35663541427, 
			 "electric_quadrupole_moment_norm": 19.797461506, 
			 "total_energy": -584.351224936, 
			 "HOMO_LUMO_gap": 0.15946, 
			 "cosmo_polarized_energy": -17.65, 
			 "cosmo_cavitation_energy": 23.48, 
			 "cosmo_dispersion_energy": -16.84, 
			 "cosmo_repulsion_energy": 1.34, 
			 "cosmo_total_nonelectrostatic_energy": 7.98, 
			 "SMD_solvation_energy": 7.62 
		},
		"coords": [
			{
				"x": 3.2718851269,
				"y": 0.3905587378,
				"z": -1.2490862823,
				"element": "N" 
			},
			{
				"x": 2.1057190137,
				"y": -0.1243805461,
				"z": -0.783373861,
				"element": "C" 
			},
			{
				"x": 1.3153550616,
				"y": 0.6001457566,
				"z": 0.1601966603,
				"element": "C" 
			},
			{
				"x": 0.1150751606,
				"y": 0.0698268132,
				"z": 0.6395132343,
				"element": "C" 
			},
			{
				"x": -0.3072449146,
				"y": -1.1741779886,
				"z": 0.189771516,
				"element": "C" 
			},
			{
				"x": 0.4492070086,
				"y": -1.9053795593,
				"z": -0.7353858355,
				"element": "C" 
			},
			{
				"x": 1.6371580287,
				"y": -1.387414283,
				"z": -1.2138021163,
				"element": "C" 
			},
			{
				"x": -1.5604310423,
				"y": -1.7273976764,
				"z": 0.6906696783,
				"element": "N" 
			},
			{
				"x": -1.9041043896,
				"y": -2.8339160517,
				"z": 0.2695305254,
				"element": "O" 
			},
			{
				"x": -2.1995596161,
				"y": -1.0567237263,
				"z": 1.5032694941,
				"element": "O" 
			},
			{
				"x": 1.7843471771,
				"y": 1.8764935606,
				"z": 0.5980462303,
				"element": "C" 
			},
			{
				"x": 2.2322209896,
				"y": 2.9065506448,
				"z": 0.9061425567,
				"element": "N" 
			},
			{
				"x": 3.5990488707,
				"y": 1.29235054,
				"z": -0.9382947995,
				"element": "H" 
			},
			{
				"x": 3.8303127591,
				"y": -0.1165691536,
				"z": -1.9144383997,
				"element": "H" 
			},
			{
				"x": -0.4868179879,
				"y": 0.6159451285,
				"z": 1.3547651702,
				"element": "H" 
			},
			{
				"x": 0.0858644011,
				"y": -2.8720520221,
				"z": -1.0616649333,
				"element": "H" 
			},
			{
				"x": 2.2252643527,
				"y": -1.9521601746,
				"z": -1.9308588379,
				"element": "H" 
			}
		],
		 "valence_orbital": [ 
			{
				"type": "occ",
				"energy": -0.30926,
				"method": "rhf"
			},
			{
				"type": "occ",
				"energy": -0.30815,
				"method": "rhf"
			},
			{
				"type": "occ",
				"energy": -0.29073,
				"method": "rhf"
			},
			{
				"type": "occ",
				"energy": -0.28882,
				"method": "rhf"
			},
			{
				"type": "occ",
				"energy": -0.24698,
				"method": "rhf"
			},
			{
				"type": "unocc",
				"energy": -0.08752,
				"method": "rhf"
			},
			{
				"type": "unocc",
				"energy": -0.06502,
				"method": "rhf"
			},
			{
				"type": "unocc",
				"energy": -0.00454,
				"method": "rhf"
			},
			{
				"type": "unocc",
				"energy": 0.01286,
				"method": "rhf"
			},
			{
				"type": "unocc",
				"energy": 0.05059,
				"method": "rhf"
			}
		],
		"cosmo_sigma_profile": { 
			"-0.025": 0.0,
			"-0.024": 0.0,
			"-0.023": 0.0,
			"-0.022": 0.0,
			"-0.021": 0.0,
			"-0.02": 0.0,
			"-0.019": 0.0,
			"-0.018": 0.0,
			"-0.017": 0.0,
			"-0.016": 0.375212310523,
			"-0.015": 1.68252319173,
			"-0.014": 2.95355878272,
			"-0.013": 1.96289540377,
			"-0.012": 2.48681863298,
			"-0.011": 2.99872472521,
			"-0.01": 2.43432225431,
			"-0.009": 3.37388834097,
			"-0.008": 5.71308450908,
			"-0.007": 6.73804730782,
			"-0.006": 6.17047358314,
			"-0.005": 8.16592061992,
			"-0.004": 7.59350527926,
			"-0.003": 10.5481082161,
			"-0.002": 12.2216707046,
			"-0.001": 17.9967637335,
			"0.0": 17.558322085,
			"0.001": 10.690720666,
			"0.002": 6.49648130328,
			"0.003": 5.27247591179,
			"0.004": 4.44352370289,
			"0.005": 4.56264010409,
			"0.006": 4.89968664136,
			"0.007": 7.55260530491,
			"0.008": 13.4949477979,
			"0.009": 7.27103127971,
			"0.01": 7.28165083555,
			"0.011": 3.71138731365,
			"0.012": 2.29641024708,
			"0.013": 0.738108321069,
			"0.014": 0.0,
			"0.015": 0.0,
			"0.016": 0.0,
			"0.017": 0.0,
			"0.018": 0.0,
			"0.019": 0.0,
			"0.02": 0.0,
			"0.021": 0.0,
			"0.022": 0.0,
			"0.023": 0.0,
			"0.024": 0.0,
			"0.025": 0.0
		}
	}
}
