{
	 "smiles": "OC(=O)C1=CC(Br)=C(O)C(Br)=C1", 
	 "Tm": 545.15, 
	 "num_atms": 16, 
	 "gaussian": { 
		 "optdone": 1, 
		 "sigma_profile": "yes", 
		 "theory": "DFT", 
		 "functional": "B3LYP", 
		 "basiset": "6-31G**", 
		 "properties": { 
			 "R2extent": 5200.1269, 
			 "electric_dipole_moment_norm": 0.1191534305, 
			 "electric_quadrupole_moment_norm": 14.9799716538, 
			 "total_energy": -5637.64905605, 
			 "HOMO_LUMO_gap": 0.18949, 
			 "cosmo_polarized_energy": -10.94, 
			 "cosmo_cavitation_energy": 25.85, 
			 "cosmo_dispersion_energy": -20.08, 
			 "cosmo_repulsion_energy": 1.6, 
			 "cosmo_total_nonelectrostatic_energy": 7.38, 
			 "SMD_solvation_energy": 3.91 
		},
		"coords": [
			{
				"x": -2.2409767502,
				"y": -1.4830434081,
				"z": 0.9300150217,
				"element": "O" 
			},
			{
				"x": -0.8915330485,
				"y": -1.5942515263,
				"z": 0.9909089648,
				"element": "C" 
			},
			{
				"x": -0.3380408081,
				"y": -2.4643364154,
				"z": 1.6335872145,
				"element": "O" 
			},
			{
				"x": -0.1899968415,
				"y": -0.5526669856,
				"z": 0.200240508,
				"element": "C" 
			},
			{
				"x": -0.8768033589,
				"y": 0.4305201388,
				"z": -0.5244322058,
				"element": "C" 
			},
			{
				"x": -0.1718806188,
				"y": 1.3822164994,
				"z": -1.2477430103,
				"element": "C" 
			},
			{
				"x": -1.1136489636,
				"y": 2.7121245538,
				"z": -2.2278592758,
				"element": "Br" 
			},
			{
				"x": 1.2355135418,
				"y": 1.3844617807,
				"z": -1.2718617252,
				"element": "C" 
			},
			{
				"x": 1.8779680363,
				"y": 2.3232158056,
				"z": -1.9844432968,
				"element": "O" 
			},
			{
				"x": 1.8977906859,
				"y": 0.3840556464,
				"z": -0.5339760787,
				"element": "C" 
			},
			{
				"x": 3.8137510899,
				"y": 0.3777071365,
				"z": -0.5599380382,
				"element": "Br" 
			},
			{
				"x": 1.2094729658,
				"y": -0.5722507674,
				"z": 0.1925305153,
				"element": "C" 
			},
			{
				"x": -2.592547713,
				"y": -2.2052457927,
				"z": 1.4765104642,
				"element": "H" 
			},
			{
				"x": -1.9590505644,
				"y": 0.4505121653,
				"z": -0.5221321579,
				"element": "H" 
			},
			{
				"x": 2.8359529904,
				"y": 2.1818722321,
				"z": -1.8938372819,
				"element": "H" 
			},
			{
				"x": 1.732229357,
				"y": -1.3359910632,
				"z": 0.7556303823,
				"element": "H" 
			}
		],
		 "valence_orbital": [ 
			{
				"type": "occ",
				"energy": -0.31173,
				"method": "rhf"
			},
			{
				"type": "occ",
				"energy": -0.29466,
				"method": "rhf"
			},
			{
				"type": "occ",
				"energy": -0.28619,
				"method": "rhf"
			},
			{
				"type": "occ",
				"energy": -0.26072,
				"method": "rhf"
			},
			{
				"type": "occ",
				"energy": -0.2471,
				"method": "rhf"
			},
			{
				"type": "unocc",
				"energy": -0.05761,
				"method": "rhf"
			},
			{
				"type": "unocc",
				"energy": -0.03575,
				"method": "rhf"
			},
			{
				"type": "unocc",
				"energy": -0.03005,
				"method": "rhf"
			},
			{
				"type": "unocc",
				"energy": 0.01429,
				"method": "rhf"
			},
			{
				"type": "unocc",
				"energy": 0.04541,
				"method": "rhf"
			}
		],
		"cosmo_sigma_profile": { 
			"-0.025": 0.0,
			"-0.024": 0.0,
			"-0.023": 0.0,
			"-0.022": 0.0,
			"-0.021": 0.0,
			"-0.02": 0.0,
			"-0.019": 0.16573009331,
			"-0.018": 0.862375064407,
			"-0.017": 0.730610358674,
			"-0.016": 1.35908514304,
			"-0.015": 1.66544908577,
			"-0.014": 1.04799674192,
			"-0.013": 0.992650173292,
			"-0.012": 1.62213899235,
			"-0.011": 1.95444053756,
			"-0.01": 1.56253441818,
			"-0.009": 1.3785424901,
			"-0.008": 2.39614369249,
			"-0.007": 4.51759818011,
			"-0.006": 4.91307734563,
			"-0.005": 7.40142212358,
			"-0.004": 8.1456485744,
			"-0.003": 12.1952207276,
			"-0.002": 15.85804869,
			"-0.001": 21.1357572389,
			"0.0": 26.265029401,
			"0.001": 20.0767219531,
			"0.002": 17.8731654835,
			"0.003": 14.9003605199,
			"0.004": 12.9302598519,
			"0.005": 6.73238039498,
			"0.006": 4.08799937498,
			"0.007": 4.42827029433,
			"0.008": 4.0317019215,
			"0.009": 3.97492941217,
			"0.01": 2.09704776695,
			"0.011": 4.42213200082,
			"0.012": 2.66001142261,
			"0.013": 0.0,
			"0.014": 0.0,
			"0.015": 0.0,
			"0.016": 0.0,
			"0.017": 0.0,
			"0.018": 0.0,
			"0.019": 0.0,
			"0.02": 0.0,
			"0.021": 0.0,
			"0.022": 0.0,
			"0.023": 0.0,
			"0.024": 0.0,
			"0.025": 0.0
		}
	}
}
