{
	 "smiles": "ClC1=C2C=C(Br)C=CC2=NC=N1", 
	 "Tm": 440.15, 
	 "num_atms": 16, 
	 "gaussian": { 
		 "optdone": 1, 
		 "sigma_profile": "yes", 
		 "theory": "DFT", 
		 "functional": "B3LYP", 
		 "basiset": "6-31G**", 
		 "properties": { 
			 "R2extent": 6123.5793, 
			 "electric_dipole_moment_norm": 1.85562173408, 
			 "electric_quadrupole_moment_norm": 3.64091137629, 
			 "total_energy": -3448.36293432, 
			 "HOMO_LUMO_gap": 0.16838, 
			 "cosmo_polarized_energy": -6.43, 
			 "cosmo_cavitation_energy": 24.86, 
			 "cosmo_dispersion_energy": -19.26, 
			 "cosmo_repulsion_energy": 1.51, 
			 "cosmo_total_nonelectrostatic_energy": 7.12, 
			 "SMD_solvation_energy": -0.1 
		},
		"coords": [
			{
				"x": -4.0071546023,
				"y": -0.1979795085,
				"z": 0.5793776044,
				"element": "Cl" 
			},
			{
				"x": -2.4029976912,
				"y": 0.4279395809,
				"z": 0.9383379265,
				"element": "C" 
			},
			{
				"x": -1.3908189746,
				"y": -0.465214331,
				"z": 1.3995222254,
				"element": "C" 
			},
			{
				"x": -1.5494040307,
				"y": -1.856505587,
				"z": 1.6063609306,
				"element": "C" 
			},
			{
				"x": -0.4755038984,
				"y": -2.5893475791,
				"z": 2.0564345365,
				"element": "C" 
			},
			{
				"x": -0.662546643,
				"y": -4.464673656,
				"z": 2.3430941925,
				"element": "Br" 
			},
			{
				"x": 0.7796906621,
				"y": -1.9880078083,
				"z": 2.3167868624,
				"element": "C" 
			},
			{
				"x": 0.9458119252,
				"y": -0.6368359951,
				"z": 2.1195245867,
				"element": "C" 
			},
			{
				"x": -0.1317518009,
				"y": 0.1610273033,
				"z": 1.6565197164,
				"element": "C" 
			},
			{
				"x": 0.062211671,
				"y": 1.4985173007,
				"z": 1.4699603152,
				"element": "N" 
			},
			{
				"x": -0.9710114393,
				"y": 2.1830493936,
				"z": 1.0406035652,
				"element": "C" 
			},
			{
				"x": -2.2165015653,
				"y": 1.703064753,
				"z": 0.7609240004,
				"element": "N" 
			},
			{
				"x": -2.5041106538,
				"y": -2.3277159039,
				"z": 1.4108605599,
				"element": "H" 
			},
			{
				"x": 1.6001919458,
				"y": -2.6018688915,
				"z": 2.6704801421,
				"element": "H" 
			},
			{
				"x": 1.8946314572,
				"y": -0.1472216271,
				"z": 2.309965953,
				"element": "H" 
			},
			{
				"x": -0.8393363617,
				"y": 3.250972556,
				"z": 0.884946883,
				"element": "H" 
			}
		],
		 "valence_orbital": [ 
			{
				"type": "occ",
				"energy": -0.31039,
				"method": "rhf"
			},
			{
				"type": "occ",
				"energy": -0.30316,
				"method": "rhf"
			},
			{
				"type": "occ",
				"energy": -0.28646,
				"method": "rhf"
			},
			{
				"type": "occ",
				"energy": -0.27424,
				"method": "rhf"
			},
			{
				"type": "occ",
				"energy": -0.25451,
				"method": "rhf"
			},
			{
				"type": "unocc",
				"energy": -0.08613,
				"method": "rhf"
			},
			{
				"type": "unocc",
				"energy": -0.05285,
				"method": "rhf"
			},
			{
				"type": "unocc",
				"energy": -0.0094,
				"method": "rhf"
			},
			{
				"type": "unocc",
				"energy": -0.00776,
				"method": "rhf"
			},
			{
				"type": "unocc",
				"energy": 0.01956,
				"method": "rhf"
			}
		],
		"cosmo_sigma_profile": { 
			"-0.025": 0.0,
			"-0.024": 0.0,
			"-0.023": 0.0,
			"-0.022": 0.0,
			"-0.021": 0.0,
			"-0.02": 0.0,
			"-0.019": 0.0,
			"-0.018": 0.0,
			"-0.017": 0.0,
			"-0.016": 0.0,
			"-0.015": 0.0,
			"-0.014": 0.0,
			"-0.013": 0.0,
			"-0.012": 0.0,
			"-0.011": 0.0,
			"-0.01": 0.0,
			"-0.009": 0.858026381012,
			"-0.008": 5.07693691922,
			"-0.007": 6.42474699095,
			"-0.006": 7.02453514305,
			"-0.005": 8.45088856613,
			"-0.004": 11.1915312659,
			"-0.003": 16.422880635,
			"-0.002": 18.9014310166,
			"-0.001": 21.1041750879,
			"0.0": 26.0030267376,
			"0.001": 19.1970583869,
			"0.002": 15.0898197294,
			"0.003": 17.3036876451,
			"0.004": 14.4269631351,
			"0.005": 3.66261108906,
			"0.006": 2.35799477689,
			"0.007": 2.97395751255,
			"0.008": 1.84112091996,
			"0.009": 1.68369343885,
			"0.01": 1.79316297435,
			"0.011": 1.88183589033,
			"0.012": 1.58203103581,
			"0.013": 1.39506499946,
			"0.014": 0.580784555524,
			"0.015": 0.124598322335,
			"0.016": 0.0,
			"0.017": 0.0,
			"0.018": 0.0,
			"0.019": 0.0,
			"0.02": 0.0,
			"0.021": 0.0,
			"0.022": 0.0,
			"0.023": 0.0,
			"0.024": 0.0,
			"0.025": 0.0
		}
	}
}
