{
	 "smiles": "CCCC1=C(CC)C2=C(N1)C=CC=C2", 
	 "Tm": 317.15, 
	 "num_atms": 31, 
	 "gaussian": { 
		 "optdone": 1, 
		 "sigma_profile": "yes", 
		 "theory": "DFT", 
		 "functional": "B3LYP", 
		 "basiset": "6-31G**", 
		 "properties": { 
			 "R2extent": 3927.2096, 
			 "electric_dipole_moment_norm": 2.35177198937, 
			 "electric_quadrupole_moment_norm": 8.1885471996, 
			 "total_energy": -560.410782441, 
			 "HOMO_LUMO_gap": 0.18778, 
			 "cosmo_polarized_energy": -7.83, 
			 "cosmo_cavitation_energy": 32.85, 
			 "cosmo_dispersion_energy": -22.84, 
			 "cosmo_repulsion_energy": 1.81, 
			 "cosmo_total_nonelectrostatic_energy": 11.82, 
			 "SMD_solvation_energy": 5.0 
		},
		"coords": [
			{
				"x": -0.7813334079,
				"y": -2.8758270868,
				"z": -1.4555725857,
				"element": "C" 
			},
			{
				"x": 0.2364988575,
				"y": -2.4652985318,
				"z": -0.3875442199,
				"element": "C" 
			},
			{
				"x": -0.1730714164,
				"y": -1.221567018,
				"z": 0.4364674248,
				"element": "C" 
			},
			{
				"x": -0.2739084097,
				"y": 0.0571780727,
				"z": -0.3418869237,
				"element": "C" 
			},
			{
				"x": 0.6654230907,
				"y": 1.0408214172,
				"z": -0.5750590917,
				"element": "C" 
			},
			{
				"x": 2.0891785999,
				"y": 1.0785196757,
				"z": -0.0934417769,
				"element": "C" 
			},
			{
				"x": 3.1228232073,
				"y": 0.7067856016,
				"z": -1.1735678052,
				"element": "C" 
			},
			{
				"x": 0.0266105507,
				"y": 2.0422653937,
				"z": -1.3953377794,
				"element": "C" 
			},
			{
				"x": -1.30815469,
				"y": 1.6122621516,
				"z": -1.6295242723,
				"element": "C" 
			},
			{
				"x": -1.4591413352,
				"y": 0.4034142053,
				"z": -0.9840540233,
				"element": "N" 
			},
			{
				"x": -2.2157974587,
				"y": 2.3616991519,
				"z": -2.3842050522,
				"element": "C" 
			},
			{
				"x": -1.7693701519,
				"y": 3.5679983339,
				"z": -2.9145070503,
				"element": "C" 
			},
			{
				"x": -0.4512810345,
				"y": 4.0168062345,
				"z": -2.6951586213,
				"element": "C" 
			},
			{
				"x": 0.4463215863,
				"y": 3.2672784477,
				"z": -1.94340461,
				"element": "C" 
			},
			{
				"x": -0.9247525099,
				"y": -2.0836405881,
				"z": -2.1969786134,
				"element": "H" 
			},
			{
				"x": -1.7573844441,
				"y": -3.10066749,
				"z": -1.0073705845,
				"element": "H" 
			},
			{
				"x": -0.451842714,
				"y": -3.7734387611,
				"z": -1.9885933353,
				"element": "H" 
			},
			{
				"x": 1.2068461695,
				"y": -2.2717677591,
				"z": -0.8601667412,
				"element": "H" 
			},
			{
				"x": 0.3900351071,
				"y": -3.2992635067,
				"z": 0.3092889212,
				"element": "H" 
			},
			{
				"x": 0.5558103056,
				"y": -1.0807174229,
				"z": 1.2418836976,
				"element": "H" 
			},
			{
				"x": -1.1347027783,
				"y": -1.4227237487,
				"z": 0.9303558675,
				"element": "H" 
			},
			{
				"x": 2.3155809941,
				"y": 2.0857731946,
				"z": 0.2814663571,
				"element": "H" 
			},
			{
				"x": 2.2105349975,
				"y": 0.4060758986,
				"z": 0.7645154814,
				"element": "H" 
			},
			{
				"x": 4.1443470699,
				"y": 0.781453425,
				"z": -0.7845706233,
				"element": "H" 
			},
			{
				"x": 3.0410461393,
				"y": 1.3693527694,
				"z": -2.0408993813,
				"element": "H" 
			},
			{
				"x": 2.9678116536,
				"y": -0.3176092698,
				"z": -1.5279931847,
				"element": "H" 
			},
			{
				"x": -2.3105408978,
				"y": -0.132270574,
				"z": -0.9386007021,
				"element": "H" 
			},
			{
				"x": -3.2327173008,
				"y": 2.0166709053,
				"z": -2.5511349872,
				"element": "H" 
			},
			{
				"x": -2.44893426,
				"y": 4.1743411401,
				"z": -3.5064038233,
				"element": "H" 
			},
			{
				"x": -0.1351054999,
				"y": 4.9641273389,
				"z": -3.1224718109,
				"element": "H" 
			},
			{
				"x": 1.45926998,
				"y": 3.6258683991,
				"z": -1.7810301507,
				"element": "H" 
			}
		],
		 "valence_orbital": [ 
			{
				"type": "occ",
				"energy": -0.31675,
				"method": "rhf"
			},
			{
				"type": "occ",
				"energy": -0.31479,
				"method": "rhf"
			},
			{
				"type": "occ",
				"energy": -0.2593,
				"method": "rhf"
			},
			{
				"type": "occ",
				"energy": -0.20909,
				"method": "rhf"
			},
			{
				"type": "occ",
				"energy": -0.18847,
				"method": "rhf"
			},
			{
				"type": "unocc",
				"energy": -0.00069,
				"method": "rhf"
			},
			{
				"type": "unocc",
				"energy": 0.0359,
				"method": "rhf"
			},
			{
				"type": "unocc",
				"energy": 0.06686,
				"method": "rhf"
			},
			{
				"type": "unocc",
				"energy": 0.07743,
				"method": "rhf"
			},
			{
				"type": "unocc",
				"energy": 0.0877,
				"method": "rhf"
			}
		],
		"cosmo_sigma_profile": { 
			"-0.025": 0.0,
			"-0.024": 0.0,
			"-0.023": 0.0,
			"-0.022": 0.0,
			"-0.021": 0.0,
			"-0.02": 0.0,
			"-0.019": 0.0,
			"-0.018": 0.0,
			"-0.017": 0.0,
			"-0.016": 0.0,
			"-0.015": 0.171022154485,
			"-0.014": 0.730015581771,
			"-0.013": 1.22563904068,
			"-0.012": 1.01713735772,
			"-0.011": 0.805096280124,
			"-0.01": 1.21457500065,
			"-0.009": 1.77492368546,
			"-0.008": 1.50667776814,
			"-0.007": 1.92040567186,
			"-0.006": 3.35732916458,
			"-0.005": 5.31677550899,
			"-0.004": 12.6700691378,
			"-0.003": 22.1874281399,
			"-0.002": 33.3407108453,
			"-0.001": 35.1745529626,
			"0.0": 32.3081509811,
			"0.001": 30.1886573178,
			"0.002": 16.8368688787,
			"0.003": 8.47632607762,
			"0.004": 8.81468607549,
			"0.005": 11.0742025122,
			"0.006": 11.6899624515,
			"0.007": 10.3142602942,
			"0.008": 5.28705243951,
			"0.009": 0.124994848953,
			"0.01": 0.0,
			"0.011": 0.0,
			"0.012": 0.0,
			"0.013": 0.0,
			"0.014": 0.0,
			"0.015": 0.0,
			"0.016": 0.0,
			"0.017": 0.0,
			"0.018": 0.0,
			"0.019": 0.0,
			"0.02": 0.0,
			"0.021": 0.0,
			"0.022": 0.0,
			"0.023": 0.0,
			"0.024": 0.0,
			"0.025": 0.0
		}
	}
}
