{
	 "smiles": "CC1=C(OCC(O)=O)C=CC(=C1)S(Cl)(=O)=O", 
	 "Tm": 401.15, 
	 "num_atms": 25, 
	 "gaussian": { 
		 "optdone": 1, 
		 "sigma_profile": "yes", 
		 "theory": "DFT", 
		 "functional": "B3LYP", 
		 "basiset": "6-31G**", 
		 "properties": { 
			 "R2extent": 7212.3408, 
			 "electric_dipole_moment_norm": 2.29435486575, 
			 "electric_quadrupole_moment_norm": 44.1491152053, 
			 "total_energy": -1582.81598977, 
			 "HOMO_LUMO_gap": 0.17921, 
			 "cosmo_polarized_energy": -20.24, 
			 "cosmo_cavitation_energy": 33.68, 
			 "cosmo_dispersion_energy": -24.48, 
			 "cosmo_repulsion_energy": 1.87, 
			 "cosmo_total_nonelectrostatic_energy": 11.07, 
			 "SMD_solvation_energy": 6.02 
		},
		"coords": [
			{
				"x": 2.8202711417,
				"y": -0.0322192287,
				"z": 0.7116228619,
				"element": "C" 
			},
			{
				"x": 1.4244373124,
				"y": 0.517970412,
				"z": 0.8508982303,
				"element": "C" 
			},
			{
				"x": 0.3087819687,
				"y": -0.2418653508,
				"z": 0.4311293405,
				"element": "C" 
			},
			{
				"x": 0.605781103,
				"y": -1.4682315345,
				"z": -0.0948398657,
				"element": "O" 
			},
			{
				"x": -0.4417294658,
				"y": -2.3215910931,
				"z": -0.5531231415,
				"element": "C" 
			},
			{
				"x": 0.1669816867,
				"y": -3.6186387832,
				"z": -1.0916645941,
				"element": "C" 
			},
			{
				"x": 1.5052492639,
				"y": -3.70770938,
				"z": -1.0362914746,
				"element": "O" 
			},
			{
				"x": -0.5353625234,
				"y": -4.4911355098,
				"z": -1.533113823,
				"element": "O" 
			},
			{
				"x": -0.9984436819,
				"y": 0.2404432274,
				"z": 0.556384359,
				"element": "C" 
			},
			{
				"x": -1.2203021487,
				"y": 1.5033048315,
				"z": 1.1024938571,
				"element": "C" 
			},
			{
				"x": -0.1236991162,
				"y": 2.2530305401,
				"z": 1.515794887,
				"element": "C" 
			},
			{
				"x": 1.1853660337,
				"y": 1.7757162266,
				"z": 1.3947946393,
				"element": "C" 
			},
			{
				"x": -0.3939491865,
				"y": 3.860572622,
				"z": 2.2284675433,
				"element": "S" 
			},
			{
				"x": -0.269720482,
				"y": 5.1213676226,
				"z": 0.5058341915,
				"element": "Cl" 
			},
			{
				"x": 0.7444264719,
				"y": 4.2169307643,
				"z": 3.0663389302,
				"element": "O" 
			},
			{
				"x": -1.7707048438,
				"y": 3.9568657561,
				"z": 2.6975121204,
				"element": "O" 
			},
			{
				"x": 3.058578745,
				"y": -0.2492582908,
				"z": -0.3356667283,
				"element": "H" 
			},
			{
				"x": 2.9372025164,
				"y": -0.9664285634,
				"z": 1.2721870361,
				"element": "H" 
			},
			{
				"x": 3.557521878,
				"y": 0.681322956,
				"z": 1.0853708366,
				"element": "H" 
			},
			{
				"x": -1.0133608842,
				"y": -1.8495875893,
				"z": -1.3604421438,
				"element": "H" 
			},
			{
				"x": -1.1296933638,
				"y": -2.5776045948,
				"z": 0.260814549,
				"element": "H" 
			},
			{
				"x": 1.8540631686,
				"y": -2.8889348355,
				"z": -0.6440682668,
				"element": "H" 
			},
			{
				"x": -1.8457363156,
				"y": -0.3540175382,
				"z": 0.2381202202,
				"element": "H" 
			},
			{
				"x": -2.2262417369,
				"y": 1.891242472,
				"z": 1.2137974654,
				"element": "H" 
			},
			{
				"x": 2.0146824587,
				"y": 2.3854548615,
				"z": 1.7370489701,
				"element": "H" 
			}
		],
		 "valence_orbital": [ 
			{
				"type": "occ",
				"energy": -0.32997,
				"method": "rhf"
			},
			{
				"type": "occ",
				"energy": -0.31534,
				"method": "rhf"
			},
			{
				"type": "occ",
				"energy": -0.2944,
				"method": "rhf"
			},
			{
				"type": "occ",
				"energy": -0.29405,
				"method": "rhf"
			},
			{
				"type": "occ",
				"energy": -0.27168,
				"method": "rhf"
			},
			{
				"type": "unocc",
				"energy": -0.09247,
				"method": "rhf"
			},
			{
				"type": "unocc",
				"energy": -0.04747,
				"method": "rhf"
			},
			{
				"type": "unocc",
				"energy": -0.04392,
				"method": "rhf"
			},
			{
				"type": "unocc",
				"energy": -0.00941,
				"method": "rhf"
			},
			{
				"type": "unocc",
				"energy": 0.04229,
				"method": "rhf"
			}
		],
		"cosmo_sigma_profile": { 
			"-0.025": 0.0,
			"-0.024": 0.0,
			"-0.023": 0.0,
			"-0.022": 0.0,
			"-0.021": 0.0,
			"-0.02": 0.0,
			"-0.019": 0.0,
			"-0.018": 0.0,
			"-0.017": 0.0,
			"-0.016": 0.0,
			"-0.015": 0.0,
			"-0.014": 0.0,
			"-0.013": 0.117135908102,
			"-0.012": 0.641176197617,
			"-0.011": 1.13318233405,
			"-0.01": 3.25297120405,
			"-0.009": 11.1378327191,
			"-0.008": 11.9034711482,
			"-0.007": 13.1155867012,
			"-0.006": 10.7709462299,
			"-0.005": 14.1070331933,
			"-0.004": 13.5236304671,
			"-0.003": 13.1409578854,
			"-0.002": 16.339959835,
			"-0.001": 21.8637038721,
			"0.0": 21.9271150971,
			"0.001": 20.7976390145,
			"0.002": 11.731808173,
			"0.003": 14.9247115986,
			"0.004": 14.4855903412,
			"0.005": 4.70273916208,
			"0.006": 6.72837478397,
			"0.007": 7.90801463674,
			"0.008": 12.25580038,
			"0.009": 10.6204871994,
			"0.01": 4.48020034538,
			"0.011": 5.43187053604,
			"0.012": 4.04615503102,
			"0.013": 0.526777806907,
			"0.014": 0.0,
			"0.015": 0.0,
			"0.016": 0.0,
			"0.017": 0.0,
			"0.018": 0.0,
			"0.019": 0.0,
			"0.02": 0.0,
			"0.021": 0.0,
			"0.022": 0.0,
			"0.023": 0.0,
			"0.024": 0.0,
			"0.025": 0.0
		}
	}
}
