{
	 "smiles": "CC(NC(=O)C(=O)NN)C1=CC=CC=C1", 
	 "Tm": 430.15, 
	 "num_atms": 28, 
	 "gaussian": { 
		 "optdone": 1, 
		 "sigma_profile": "yes", 
		 "theory": "DFT", 
		 "functional": "B3LYP", 
		 "basiset": "6-31G**", 
		 "properties": { 
			 "R2extent": 4000.1041, 
			 "electric_dipole_moment_norm": 2.23329396632, 
			 "electric_quadrupole_moment_norm": 14.845504142, 
			 "total_energy": -703.591763057, 
			 "HOMO_LUMO_gap": 0.20197, 
			 "cosmo_polarized_energy": -15.09, 
			 "cosmo_cavitation_energy": 31.36, 
			 "cosmo_dispersion_energy": -21.96, 
			 "cosmo_repulsion_energy": 1.76, 
			 "cosmo_total_nonelectrostatic_energy": 11.16, 
			 "SMD_solvation_energy": 6.85 
		},
		"coords": [
			{
				"x": 0.4888985506,
				"y": -0.3832827813,
				"z": -1.4475951429,
				"element": "C" 
			},
			{
				"x": 0.0789622398,
				"y": 0.5417378012,
				"z": -0.2959790385,
				"element": "C" 
			},
			{
				"x": -1.3319567397,
				"y": 0.9851323846,
				"z": -0.4108674631,
				"element": "N" 
			},
			{
				"x": -2.5231223276,
				"y": 0.4144535688,
				"z": -0.0936210243,
				"element": "C" 
			},
			{
				"x": -3.5778488518,
				"y": 1.0488920426,
				"z": -0.156249828,
				"element": "O" 
			},
			{
				"x": -2.5779579878,
				"y": -1.0644204114,
				"z": 0.3309786087,
				"element": "C" 
			},
			{
				"x": -1.7197153651,
				"y": -1.9094649206,
				"z": 0.0936835321,
				"element": "O" 
			},
			{
				"x": -3.7419512533,
				"y": -1.3329285285,
				"z": 0.9692611204,
				"element": "N" 
			},
			{
				"x": -4.1202566183,
				"y": -2.6547691539,
				"z": 1.2721094417,
				"element": "N" 
			},
			{
				"x": 0.4305814356,
				"y": 0.0605383544,
				"z": 1.1139517789,
				"element": "C" 
			},
			{
				"x": 1.0623120645,
				"y": -1.1625162543,
				"z": 1.359009937,
				"element": "C" 
			},
			{
				"x": 1.4182059069,
				"y": -1.5327840842,
				"z": 2.6581877332,
				"element": "C" 
			},
			{
				"x": 1.1445808471,
				"y": -0.6874779818,
				"z": 3.7328017292,
				"element": "C" 
			},
			{
				"x": 0.511434274,
				"y": 0.5358184765,
				"z": 3.5001791276,
				"element": "C" 
			},
			{
				"x": 0.1621826604,
				"y": 0.9042549857,
				"z": 2.202247631,
				"element": "C" 
			},
			{
				"x": -0.0351718851,
				"y": -1.3368732833,
				"z": -1.3838006864,
				"element": "H" 
			},
			{
				"x": 0.2410817677,
				"y": 0.0925913634,
				"z": -2.400818441,
				"element": "H" 
			},
			{
				"x": 1.5691429023,
				"y": -0.5578623913,
				"z": -1.429221325,
				"element": "H" 
			},
			{
				"x": 0.6321476427,
				"y": 1.4796494934,
				"z": -0.4341731976,
				"element": "H" 
			},
			{
				"x": -1.4719991447,
				"y": 1.9422737757,
				"z": -0.7093887077,
				"element": "H" 
			},
			{
				"x": -4.4779482038,
				"y": -0.6400598369,
				"z": 0.9091628177,
				"element": "H" 
			},
			{
				"x": -3.6963159099,
				"y": -2.8990314143,
				"z": 2.1673783923,
				"element": "H" 
			},
			{
				"x": -3.661070881,
				"y": -3.2509571397,
				"z": 0.5819441802,
				"element": "H" 
			},
			{
				"x": 1.2667781716,
				"y": -1.8412418563,
				"z": 0.5394808374,
				"element": "H" 
			},
			{
				"x": 1.9050536313,
				"y": -2.4891053387,
				"z": 2.8275926361,
				"element": "H" 
			},
			{
				"x": 1.4212402022,
				"y": -0.9772673517,
				"z": 4.7424849508,
				"element": "H" 
			},
			{
				"x": 0.293984657,
				"y": 1.2047927859,
				"z": 4.3281449934,
				"element": "H" 
			},
			{
				"x": -0.3300717854,
				"y": 1.8583076959,
				"z": 2.0301154071,
				"element": "H" 
			}
		],
		 "valence_orbital": [ 
			{
				"type": "occ",
				"energy": -0.26778,
				"method": "rhf"
			},
			{
				"type": "occ",
				"energy": -0.25873,
				"method": "rhf"
			},
			{
				"type": "occ",
				"energy": -0.2477,
				"method": "rhf"
			},
			{
				"type": "occ",
				"energy": -0.24226,
				"method": "rhf"
			},
			{
				"type": "occ",
				"energy": -0.23928,
				"method": "rhf"
			},
			{
				"type": "unocc",
				"energy": -0.03731,
				"method": "rhf"
			},
			{
				"type": "unocc",
				"energy": -0.00708,
				"method": "rhf"
			},
			{
				"type": "unocc",
				"energy": 0.00127,
				"method": "rhf"
			},
			{
				"type": "unocc",
				"energy": 0.06796,
				"method": "rhf"
			},
			{
				"type": "unocc",
				"energy": 0.08511,
				"method": "rhf"
			}
		],
		"cosmo_sigma_profile": { 
			"-0.025": 0.0,
			"-0.024": 0.0,
			"-0.023": 0.0,
			"-0.022": 0.0,
			"-0.021": 0.0,
			"-0.02": 0.0,
			"-0.019": 0.0,
			"-0.018": 0.0,
			"-0.017": 0.0,
			"-0.016": 0.0,
			"-0.015": 0.0509247532172,
			"-0.014": 1.2131543102,
			"-0.013": 1.09271589554,
			"-0.012": 3.11659516719,
			"-0.011": 4.23195851835,
			"-0.01": 4.64393733871,
			"-0.009": 2.87063142026,
			"-0.008": 3.51532057479,
			"-0.007": 5.45361527973,
			"-0.006": 7.63147882677,
			"-0.005": 13.7645220522,
			"-0.004": 18.1468986884,
			"-0.003": 24.0800775482,
			"-0.002": 17.5825090248,
			"-0.001": 19.0651180452,
			"0.0": 17.2358088932,
			"0.001": 16.4527812303,
			"0.002": 13.2037714549,
			"0.003": 10.5663046895,
			"0.004": 10.2815203239,
			"0.005": 10.5859070401,
			"0.006": 10.8073937205,
			"0.007": 4.54516147037,
			"0.008": 3.4511617727,
			"0.009": 3.37222639126,
			"0.01": 4.10331304548,
			"0.011": 4.19372985436,
			"0.012": 5.88346417408,
			"0.013": 4.08780781287,
			"0.014": 1.05284323397,
			"0.015": 0.635052619792,
			"0.016": 0.561870094625,
			"0.017": 0.0110961694622,
			"0.018": 0.0,
			"0.019": 0.0,
			"0.02": 0.0,
			"0.021": 0.0,
			"0.022": 0.0,
			"0.023": 0.0,
			"0.024": 0.0,
			"0.025": 0.0
		}
	}
}
