{
	 "smiles": "NC1=CC=NN1CC1CCCCC1", 
	 "Tm": 333.15, 
	 "num_atms": 30, 
	 "gaussian": { 
		 "optdone": 1, 
		 "sigma_profile": "yes", 
		 "theory": "DFT", 
		 "functional": "B3LYP", 
		 "basiset": "6-31G**", 
		 "properties": { 
			 "R2extent": 3084.1696, 
			 "electric_dipole_moment_norm": 3.05895760186, 
			 "electric_quadrupole_moment_norm": 11.4746348691, 
			 "total_energy": -555.561604018, 
			 "HOMO_LUMO_gap": 0.23954, 
			 "cosmo_polarized_energy": -10.98, 
			 "cosmo_cavitation_energy": 29.91, 
			 "cosmo_dispersion_energy": -21.84, 
			 "cosmo_repulsion_energy": 1.74, 
			 "cosmo_total_nonelectrostatic_energy": 9.81, 
			 "SMD_solvation_energy": 3.55 
		},
		"coords": [
			{
				"x": 3.2010364736,
				"y": -2.1072716692,
				"z": -0.5569530784,
				"element": "N" 
			},
			{
				"x": 2.0729238492,
				"y": -2.0802239373,
				"z": -1.3911802436,
				"element": "C" 
			},
			{
				"x": 1.8976238664,
				"y": -2.4269088805,
				"z": -2.7230796899,
				"element": "C" 
			},
			{
				"x": 0.5124694398,
				"y": -2.2723397531,
				"z": -2.9441057536,
				"element": "C" 
			},
			{
				"x": -0.1305660424,
				"y": -1.8576723038,
				"z": -1.8565215189,
				"element": "N" 
			},
			{
				"x": 0.8402280049,
				"y": -1.7502877217,
				"z": -0.9037533795,
				"element": "N" 
			},
			{
				"x": 0.4884751003,
				"y": -1.3944201975,
				"z": 0.4639147062,
				"element": "C" 
			},
			{
				"x": 0.3458698231,
				"y": 0.116122693,
				"z": 0.7437488155,
				"element": "C" 
			},
			{
				"x": -0.8171908881,
				"y": 0.759366177,
				"z": -0.035098392,
				"element": "C" 
			},
			{
				"x": -0.9629829026,
				"y": 2.2546481603,
				"z": 0.286593168,
				"element": "C" 
			},
			{
				"x": 0.3476325612,
				"y": 3.0162830631,
				"z": 0.040412846,
				"element": "C" 
			},
			{
				"x": 1.5081709194,
				"y": 2.3889863042,
				"z": 0.8262990992,
				"element": "C" 
			},
			{
				"x": 1.6565558059,
				"y": 0.891625749,
				"z": 0.5110450634,
				"element": "C" 
			},
			{
				"x": 4.0039810856,
				"y": -2.4885458363,
				"z": -1.0420535377,
				"element": "H" 
			},
			{
				"x": 3.4411158119,
				"y": -1.1956385363,
				"z": -0.1803733232,
				"element": "H" 
			},
			{
				"x": 2.6616017011,
				"y": -2.7362416716,
				"z": -3.4212005935,
				"element": "H" 
			},
			{
				"x": -0.0421821879,
				"y": -2.4426724056,
				"z": -3.8579677114,
				"element": "H" 
			},
			{
				"x": -0.4568543064,
				"y": -1.8991269937,
				"z": 0.6833042041,
				"element": "H" 
			},
			{
				"x": 1.2621412651,
				"y": -1.8249507776,
				"z": 1.1084475045,
				"element": "H" 
			},
			{
				"x": 0.1086952115,
				"y": 0.1860326385,
				"z": 1.8177584837,
				"element": "H" 
			},
			{
				"x": -1.7499517523,
				"y": 0.2290227498,
				"z": 0.1923723805,
				"element": "H" 
			},
			{
				"x": -0.6483148054,
				"y": 0.6223565542,
				"z": -1.1097579993,
				"element": "H" 
			},
			{
				"x": -1.2561522616,
				"y": 2.3754268538,
				"z": 1.3397511454,
				"element": "H" 
			},
			{
				"x": -1.7728529333,
				"y": 2.6883224274,
				"z": -0.3119792738,
				"element": "H" 
			},
			{
				"x": 0.2338632736,
				"y": 4.0725385283,
				"z": 0.3124751362,
				"element": "H" 
			},
			{
				"x": 0.5835254795,
				"y": 2.9928377776,
				"z": -1.0329937679,
				"element": "H" 
			},
			{
				"x": 1.3244358637,
				"y": 2.5134852173,
				"z": 1.9029898255,
				"element": "H" 
			},
			{
				"x": 2.4466219256,
				"y": 2.9132796233,
				"z": 0.6087289766,
				"element": "H" 
			},
			{
				"x": 2.4582670428,
				"y": 0.4619407695,
				"z": 1.1287054794,
				"element": "H" 
			},
			{
				"x": 1.9573135759,
				"y": 0.7767253983,
				"z": -0.5403285716,
				"element": "H" 
			}
		],
		 "valence_orbital": [ 
			{
				"type": "occ",
				"energy": -0.30128,
				"method": "rhf"
			},
			{
				"type": "occ",
				"energy": -0.29416,
				"method": "rhf"
			},
			{
				"type": "occ",
				"energy": -0.26844,
				"method": "rhf"
			},
			{
				"type": "occ",
				"energy": -0.23196,
				"method": "rhf"
			},
			{
				"type": "occ",
				"energy": -0.2051,
				"method": "rhf"
			},
			{
				"type": "unocc",
				"energy": 0.03444,
				"method": "rhf"
			},
			{
				"type": "unocc",
				"energy": 0.07079,
				"method": "rhf"
			},
			{
				"type": "unocc",
				"energy": 0.08667,
				"method": "rhf"
			},
			{
				"type": "unocc",
				"energy": 0.09302,
				"method": "rhf"
			},
			{
				"type": "unocc",
				"energy": 0.10521,
				"method": "rhf"
			}
		],
		"cosmo_sigma_profile": { 
			"-0.025": 0.0,
			"-0.024": 0.0,
			"-0.023": 0.0,
			"-0.022": 0.0,
			"-0.021": 0.0,
			"-0.02": 0.0,
			"-0.019": 0.0,
			"-0.018": 0.0,
			"-0.017": 0.0,
			"-0.016": 0.0,
			"-0.015": 0.0,
			"-0.014": 0.0,
			"-0.013": 0.656375163646,
			"-0.012": 1.22059762447,
			"-0.011": 1.9667728811,
			"-0.01": 2.44570617951,
			"-0.009": 3.27797367396,
			"-0.008": 2.56351306753,
			"-0.007": 3.24913548785,
			"-0.006": 6.59224384148,
			"-0.005": 6.87383236011,
			"-0.004": 9.05332518149,
			"-0.003": 16.0037326266,
			"-0.002": 30.2346623712,
			"-0.001": 32.5467701588,
			"0.0": 32.0357971793,
			"0.001": 24.2816844404,
			"0.002": 10.1981052232,
			"0.003": 5.12871609678,
			"0.004": 7.03235007323,
			"0.005": 6.28342458181,
			"0.006": 7.0898883768,
			"0.007": 7.11652897946,
			"0.008": 3.33884084943,
			"0.009": 1.94014334021,
			"0.01": 1.78626035488,
			"0.011": 2.16079303848,
			"0.012": 1.99395517647,
			"0.013": 1.49132125784,
			"0.014": 1.38826312325,
			"0.015": 0.955788511991,
			"0.016": 0.846267663079,
			"0.017": 0.282176530612,
			"0.018": 0.0,
			"0.019": 0.0,
			"0.02": 0.0,
			"0.021": 0.0,
			"0.022": 0.0,
			"0.023": 0.0,
			"0.024": 0.0,
			"0.025": 0.0
		}
	}
}
