{
	 "smiles": "CC1=C(C=CC(=C1)N1C(=O)C2=C(C=CC=C2)C1=O)C(O)=O", 
	 "Tm": 545.15, 
	 "num_atms": 32, 
	 "gaussian": { 
		 "optdone": 1, 
		 "sigma_profile": "yes", 
		 "theory": "DFT", 
		 "functional": "B3LYP", 
		 "basiset": "6-31G**", 
		 "properties": { 
			 "R2extent": 7827.7033, 
			 "electric_dipole_moment_norm": 7.32636839232, 
			 "electric_quadrupole_moment_norm": 10.0972837615, 
			 "total_energy": -972.023030586, 
			 "HOMO_LUMO_gap": 0.15221, 
			 "cosmo_polarized_energy": -19.4, 
			 "cosmo_cavitation_energy": 37.38, 
			 "cosmo_dispersion_energy": -26.93, 
			 "cosmo_repulsion_energy": 2.0, 
			 "cosmo_total_nonelectrostatic_energy": 12.45, 
			 "SMD_solvation_energy": 8.45 
		},
		"coords": [
			{
				"x": 1.8369035336,
				"y": 1.1984595659,
				"z": -3.1998014907,
				"element": "C" 
			},
			{
				"x": 1.2135282133,
				"y": 1.4701878386,
				"z": -1.8514707608,
				"element": "C" 
			},
			{
				"x": 1.2120977102,
				"y": 2.750673003,
				"z": -1.2520639828,
				"element": "C" 
			},
			{
				"x": 0.5896189845,
				"y": 2.9302375097,
				"z": -0.006974551,
				"element": "C" 
			},
			{
				"x": -0.0217510908,
				"y": 1.8790015804,
				"z": 0.6646206093,
				"element": "C" 
			},
			{
				"x": 0.0072394462,
				"y": 0.6040207537,
				"z": 0.089391077,
				"element": "C" 
			},
			{
				"x": 0.6248828594,
				"y": 0.4121952264,
				"z": -1.1524967591,
				"element": "C" 
			},
			{
				"x": -0.5910982369,
				"y": -0.4966552126,
				"z": 0.7648431772,
				"element": "N" 
			},
			{
				"x": -1.2809702104,
				"y": -1.5632211038,
				"z": 0.1223270054,
				"element": "C" 
			},
			{
				"x": -1.4523657892,
				"y": -1.6842560598,
				"z": -1.0716484012,
				"element": "O" 
			},
			{
				"x": -1.7328914933,
				"y": -2.4694041289,
				"z": 1.2128715134,
				"element": "C" 
			},
			{
				"x": -1.3148385565,
				"y": -1.9419024377,
				"z": 2.4330796613,
				"element": "C" 
			},
			{
				"x": -1.592338927,
				"y": -2.578885507,
				"z": 3.6346795257,
				"element": "C" 
			},
			{
				"x": -2.3141558445,
				"y": -3.7777434572,
				"z": 3.573765212,
				"element": "C" 
			},
			{
				"x": -2.7364053555,
				"y": -4.3072671019,
				"z": 2.3465224487,
				"element": "C" 
			},
			{
				"x": -2.4495831215,
				"y": -3.6558146356,
				"z": 1.1401301975,
				"element": "C" 
			},
			{
				"x": -0.5812519302,
				"y": -0.6731133682,
				"z": 2.1763864954,
				"element": "C" 
			},
			{
				"x": -0.0701518972,
				"y": 0.073910568,
				"z": 2.9836919603,
				"element": "O" 
			},
			{
				"x": 1.8262551739,
				"y": 3.9273807772,
				"z": -1.9478779577,
				"element": "C" 
			},
			{
				"x": 2.3477986814,
				"y": 4.89183474,
				"z": -1.1370977136,
				"element": "O" 
			},
			{
				"x": 1.8728673949,
				"y": 4.0698953398,
				"z": -3.1476228714,
				"element": "O" 
			},
			{
				"x": 1.8612907393,
				"y": 0.1239534764,
				"z": -3.3978576432,
				"element": "H" 
			},
			{
				"x": 1.2721466956,
				"y": 1.6921967353,
				"z": -3.9947994688,
				"element": "H" 
			},
			{
				"x": 2.8556763213,
				"y": 1.5907518979,
				"z": -3.2639712448,
				"element": "H" 
			},
			{
				"x": 0.5365766011,
				"y": 3.9228628562,
				"z": 0.4325065315,
				"element": "H" 
			},
			{
				"x": -0.5014787303,
				"y": 2.0412954408,
				"z": 1.6200076868,
				"element": "H" 
			},
			{
				"x": 0.631820668,
				"y": -0.5761559104,
				"z": -1.5932626606,
				"element": "H" 
			},
			{
				"x": -1.2607042023,
				"y": -2.1581954178,
				"z": 4.5782726102,
				"element": "H" 
			},
			{
				"x": -2.5524813015,
				"y": -4.3071436136,
				"z": 4.4913165373,
				"element": "H" 
			},
			{
				"x": -3.2945391387,
				"y": -5.2385402454,
				"z": 2.3332569741,
				"element": "H" 
			},
			{
				"x": -2.7701064258,
				"y": -4.055652426,
				"z": 0.1837218861,
				"element": "H" 
			},
			{
				"x": 2.388809229,
				"y": 4.5669933165,
				"z": -0.2267456036,
				"element": "H" 
			}
		],
		 "valence_orbital": [ 
			{
				"type": "occ",
				"energy": -0.28796,
				"method": "rhf"
			},
			{
				"type": "occ",
				"energy": -0.27995,
				"method": "rhf"
			},
			{
				"type": "occ",
				"energy": -0.26911,
				"method": "rhf"
			},
			{
				"type": "occ",
				"energy": -0.25991,
				"method": "rhf"
			},
			{
				"type": "occ",
				"energy": -0.24601,
				"method": "rhf"
			},
			{
				"type": "unocc",
				"energy": -0.0938,
				"method": "rhf"
			},
			{
				"type": "unocc",
				"energy": -0.06195,
				"method": "rhf"
			},
			{
				"type": "unocc",
				"energy": -0.03824,
				"method": "rhf"
			},
			{
				"type": "unocc",
				"energy": -0.01708,
				"method": "rhf"
			},
			{
				"type": "unocc",
				"energy": 0.01765,
				"method": "rhf"
			}
		],
		"cosmo_sigma_profile": { 
			"-0.025": 0.0,
			"-0.024": 0.0,
			"-0.023": 0.0,
			"-0.022": 0.0,
			"-0.021": 0.0,
			"-0.02": 0.0,
			"-0.019": 0.155089561252,
			"-0.018": 0.543330425363,
			"-0.017": 0.828956909331,
			"-0.016": 0.936236460115,
			"-0.015": 0.909077627198,
			"-0.014": 0.651048727475,
			"-0.013": 1.27351195952,
			"-0.012": 1.53846775676,
			"-0.011": 0.84030243158,
			"-0.01": 1.25196135232,
			"-0.009": 1.09357794418,
			"-0.008": 4.68664648442,
			"-0.007": 12.5494344738,
			"-0.006": 18.0647069168,
			"-0.005": 20.4981169773,
			"-0.004": 20.4552147175,
			"-0.003": 18.3334169251,
			"-0.002": 20.2610031979,
			"-0.001": 24.3386802646,
			"0.0": 25.186432637,
			"0.001": 23.4222184871,
			"0.002": 24.4008214637,
			"0.003": 11.2476246904,
			"0.004": 7.65273107991,
			"0.005": 5.63820638628,
			"0.006": 5.89260482089,
			"0.007": 5.89772053784,
			"0.008": 6.34933754441,
			"0.009": 8.19381853256,
			"0.01": 11.4782520981,
			"0.011": 10.5265667059,
			"0.012": 4.07125163336,
			"0.013": 1.57222540023,
			"0.014": 0.0363822097369,
			"0.015": 0.0,
			"0.016": 0.0,
			"0.017": 0.0,
			"0.018": 0.0,
			"0.019": 0.0,
			"0.02": 0.0,
			"0.021": 0.0,
			"0.022": 0.0,
			"0.023": 0.0,
			"0.024": 0.0,
			"0.025": 0.0
		}
	}
}
