{
	 "smiles": "CC(=O)NC1=CC(C(O)=O)=C(O)C=C1", 
	 "Tm": 495.15, 
	 "num_atms": 23, 
	 "gaussian": { 
		 "optdone": 1, 
		 "sigma_profile": "yes", 
		 "theory": "DFT", 
		 "functional": "B3LYP", 
		 "basiset": "6-31G**", 
		 "properties": { 
			 "R2extent": 3636.9204, 
			 "electric_dipole_moment_norm": 7.21241622898, 
			 "electric_quadrupole_moment_norm": 20.517200223, 
			 "total_energy": -704.053709346, 
			 "HOMO_LUMO_gap": 0.1729, 
			 "cosmo_polarized_energy": -24.61, 
			 "cosmo_cavitation_energy": 27.73, 
			 "cosmo_dispersion_energy": -20.3, 
			 "cosmo_repulsion_energy": 1.59, 
			 "cosmo_total_nonelectrostatic_energy": 9.03, 
			 "SMD_solvation_energy": 7.12 
		},
		"coords": [
			{
				"x": -0.9332347325,
				"y": -1.0359828631,
				"z": -2.854403423,
				"element": "C" 
			},
			{
				"x": -0.8700466741,
				"y": -1.9820047669,
				"z": -1.6722689633,
				"element": "C" 
			},
			{
				"x": -1.0924141462,
				"y": -3.1782982724,
				"z": -1.7813444757,
				"element": "O" 
			},
			{
				"x": -0.5619218912,
				"y": -1.4676705268,
				"z": -0.4188190809,
				"element": "N" 
			},
			{
				"x": -0.2910373035,
				"y": -0.1540294902,
				"z": 0.0189220415,
				"element": "C" 
			},
			{
				"x": 0.5118823718,
				"y": 0.734788862,
				"z": -0.699069728,
				"element": "C" 
			},
			{
				"x": 0.7764449321,
				"y": 2.0311272271,
				"z": -0.2392782317,
				"element": "C" 
			},
			{
				"x": 1.6481552458,
				"y": 2.8835806651,
				"z": -1.1308682819,
				"element": "C" 
			},
			{
				"x": 1.9514141057,
				"y": 4.1272891679,
				"z": -0.7170289904,
				"element": "O" 
			},
			{
				"x": 2.0660308868,
				"y": 2.4684144836,
				"z": -2.1898651814,
				"element": "O" 
			},
			{
				"x": 0.2468172185,
				"y": 2.4238857063,
				"z": 1.0022518074,
				"element": "C" 
			},
			{
				"x": 0.5146852143,
				"y": 3.6939003211,
				"z": 1.4609088289,
				"element": "O" 
			},
			{
				"x": -0.5301039447,
				"y": 1.5349464802,
				"z": 1.7474203561,
				"element": "C" 
			},
			{
				"x": -0.8055842837,
				"y": 0.2640413439,
				"z": 1.2573223028,
				"element": "C" 
			},
			{
				"x": 0.0614793787,
				"y": -0.9081077779,
				"z": -3.2940331304,
				"element": "H" 
			},
			{
				"x": -1.3152752381,
				"y": -0.0467781064,
				"z": -2.592218757,
				"element": "H" 
			},
			{
				"x": -1.5746981972,
				"y": -1.4990572216,
				"z": -3.6047629707,
				"element": "H" 
			},
			{
				"x": -0.6501753421,
				"y": -2.1781845581,
				"z": 0.2976547561,
				"element": "H" 
			},
			{
				"x": 0.9745643831,
				"y": 0.4514866968,
				"z": -1.6354744432,
				"element": "H" 
			},
			{
				"x": 1.5427368063,
				"y": 4.3113561087,
				"z": 0.1474432679,
				"element": "H" 
			},
			{
				"x": 0.1120149992,
				"y": 3.8380018501,
				"z": 2.3263454966,
				"element": "H" 
			},
			{
				"x": -0.9342252125,
				"y": 1.8440658987,
				"z": 2.7087368298,
				"element": "H" 
			},
			{
				"x": -1.4304085767,
				"y": -0.4106712284,
				"z": 1.8355299706,
				"element": "H" 
			}
		],
		 "valence_orbital": [ 
			{
				"type": "occ",
				"energy": -0.29739,
				"method": "rhf"
			},
			{
				"type": "occ",
				"energy": -0.27943,
				"method": "rhf"
			},
			{
				"type": "occ",
				"energy": -0.27221,
				"method": "rhf"
			},
			{
				"type": "occ",
				"energy": -0.2564,
				"method": "rhf"
			},
			{
				"type": "occ",
				"energy": -0.23131,
				"method": "rhf"
			},
			{
				"type": "unocc",
				"energy": -0.05841,
				"method": "rhf"
			},
			{
				"type": "unocc",
				"energy": -0.02345,
				"method": "rhf"
			},
			{
				"type": "unocc",
				"energy": 0.02138,
				"method": "rhf"
			},
			{
				"type": "unocc",
				"energy": 0.031,
				"method": "rhf"
			},
			{
				"type": "unocc",
				"energy": 0.053,
				"method": "rhf"
			}
		],
		"cosmo_sigma_profile": { 
			"-0.025": 0.0,
			"-0.024": 0.0,
			"-0.023": 0.0,
			"-0.022": 0.0,
			"-0.021": 0.0,
			"-0.02": 0.332313720431,
			"-0.019": 1.30868332649,
			"-0.018": 1.14918966169,
			"-0.017": 1.20811562307,
			"-0.016": 1.12779720856,
			"-0.015": 0.887541946109,
			"-0.014": 1.14969544582,
			"-0.013": 2.73319939769,
			"-0.012": 2.93680376504,
			"-0.011": 1.7223289248,
			"-0.01": 2.04829342305,
			"-0.009": 3.3394892738,
			"-0.008": 6.54538388486,
			"-0.007": 7.68606459995,
			"-0.006": 8.44141943277,
			"-0.005": 11.7865964354,
			"-0.004": 11.1912627238,
			"-0.003": 15.6580473214,
			"-0.002": 16.828734518,
			"-0.001": 13.2494584583,
			"0.0": 14.0805679126,
			"0.001": 15.2873194998,
			"0.002": 16.6673930394,
			"0.003": 9.65756550395,
			"0.004": 3.62852375007,
			"0.005": 3.50390408588,
			"0.006": 3.26549833134,
			"0.007": 3.52966566768,
			"0.008": 3.98208107749,
			"0.009": 3.96868314288,
			"0.01": 4.59071516799,
			"0.011": 7.11089298522,
			"0.012": 7.6390920131,
			"0.013": 7.89539883163,
			"0.014": 4.39110683744,
			"0.015": 0.473667266464,
			"0.016": 0.0,
			"0.017": 0.0,
			"0.018": 0.0,
			"0.019": 0.0,
			"0.02": 0.0,
			"0.021": 0.0,
			"0.022": 0.0,
			"0.023": 0.0,
			"0.024": 0.0,
			"0.025": 0.0
		}
	}
}
