{
	 "smiles": "OC(=O)CSC1=CC=CC=C1", 
	 "Tm": 337.65, 
	 "num_atms": 19, 
	 "gaussian": { 
		 "optdone": 1, 
		 "sigma_profile": "yes", 
		 "theory": "DFT", 
		 "functional": "B3LYP", 
		 "basiset": "6-31G**", 
		 "properties": { 
			 "R2extent": 2920.3546, 
			 "electric_dipole_moment_norm": 0.835805772892, 
			 "electric_quadrupole_moment_norm": 10.4934925187, 
			 "total_energy": -858.316657629, 
			 "HOMO_LUMO_gap": 0.19486, 
			 "cosmo_polarized_energy": -10.29, 
			 "cosmo_cavitation_energy": 24.86, 
			 "cosmo_dispersion_energy": -18.67, 
			 "cosmo_repulsion_energy": 1.46, 
			 "cosmo_total_nonelectrostatic_energy": 7.65, 
			 "SMD_solvation_energy": 5.12 
		},
		"coords": [
			{
				"x": -0.1698513891,
				"y": -3.614619521,
				"z": 3.501088713,
				"element": "O" 
			},
			{
				"x": 0.5103538163,
				"y": -3.0775663089,
				"z": 2.4657137517,
				"element": "C" 
			},
			{
				"x": 1.6549291999,
				"y": -2.6878296765,
				"z": 2.5610511144,
				"element": "O" 
			},
			{
				"x": -0.339833946,
				"y": -3.0163702407,
				"z": 1.2146938259,
				"element": "C" 
			},
			{
				"x": -1.3243810031,
				"y": -1.4602384605,
				"z": 1.1196601648,
				"element": "S" 
			},
			{
				"x": -0.2875315336,
				"y": -0.3751772988,
				"z": 0.137025336,
				"element": "C" 
			},
			{
				"x": -0.9478987305,
				"y": 0.5111519099,
				"z": -0.7258407181,
				"element": "C" 
			},
			{
				"x": -0.2146025084,
				"y": 1.4248758684,
				"z": -1.4824941258,
				"element": "C" 
			},
			{
				"x": 1.1791096435,
				"y": 1.4465389118,
				"z": -1.4034399973,
				"element": "C" 
			},
			{
				"x": 1.8338640211,
				"y": 0.5569336433,
				"z": -0.5502165119,
				"element": "C" 
			},
			{
				"x": 1.1103206417,
				"y": -0.3444259333,
				"z": 0.2334545053,
				"element": "C" 
			},
			{
				"x": 0.4222436929,
				"y": -3.5731500499,
				"z": 4.2711901548,
				"element": "H" 
			},
			{
				"x": -1.0656444004,
				"y": -3.8316893601,
				"z": 1.2138762911,
				"element": "H" 
			},
			{
				"x": 0.2993394293,
				"y": -3.0862099094,
				"z": 0.3341875924,
				"element": "H" 
			},
			{
				"x": -2.0299635384,
				"y": 0.4758835208,
				"z": -0.8115592926,
				"element": "H" 
			},
			{
				"x": -0.7351908739,
				"y": 2.1078309471,
				"z": -2.1478398706,
				"element": "H" 
			},
			{
				"x": 1.7495483359,
				"y": 2.1504011736,
				"z": -2.002168702,
				"element": "H" 
			},
			{
				"x": 2.9177954325,
				"y": 0.5702149192,
				"z": -0.4776766966,
				"element": "H" 
			},
			{
				"x": 1.6303937104,
				"y": -1.0090541349,
				"z": 0.9155944655,
				"element": "H" 
			}
		],
		 "valence_orbital": [ 
			{
				"type": "occ",
				"energy": -0.32169,
				"method": "rhf"
			},
			{
				"type": "occ",
				"energy": -0.29585,
				"method": "rhf"
			},
			{
				"type": "occ",
				"energy": -0.27477,
				"method": "rhf"
			},
			{
				"type": "occ",
				"energy": -0.25286,
				"method": "rhf"
			},
			{
				"type": "occ",
				"energy": -0.21908,
				"method": "rhf"
			},
			{
				"type": "unocc",
				"energy": -0.02422,
				"method": "rhf"
			},
			{
				"type": "unocc",
				"energy": -0.00577,
				"method": "rhf"
			},
			{
				"type": "unocc",
				"energy": -0.00191,
				"method": "rhf"
			},
			{
				"type": "unocc",
				"energy": 0.04093,
				"method": "rhf"
			},
			{
				"type": "unocc",
				"energy": 0.06834,
				"method": "rhf"
			}
		],
		"cosmo_sigma_profile": { 
			"-0.025": 0.0,
			"-0.024": 0.0,
			"-0.023": 0.0,
			"-0.022": 0.0,
			"-0.021": 0.0,
			"-0.02": 0.0,
			"-0.019": 0.422858301761,
			"-0.018": 0.827755526746,
			"-0.017": 1.05737325895,
			"-0.016": 0.818828390687,
			"-0.015": 0.720911545778,
			"-0.014": 0.7344568759,
			"-0.013": 0.408193538616,
			"-0.012": 0.769311362818,
			"-0.011": 0.610032367508,
			"-0.01": 0.689080365524,
			"-0.009": 0.764977511338,
			"-0.008": 3.47444593886,
			"-0.007": 4.69515441973,
			"-0.006": 12.4479711048,
			"-0.005": 13.9577102983,
			"-0.004": 15.0670320235,
			"-0.003": 12.6194040171,
			"-0.002": 11.1445061878,
			"-0.001": 9.34377559345,
			"0.0": 10.4610210927,
			"0.001": 12.0962671648,
			"0.002": 13.4321433786,
			"0.003": 14.9088849649,
			"0.004": 16.5274394446,
			"0.005": 17.1093687133,
			"0.006": 6.77635738367,
			"0.007": 4.38684609687,
			"0.008": 4.56888448061,
			"0.009": 2.69578246628,
			"0.01": 2.42477794533,
			"0.011": 3.77040074781,
			"0.012": 0.71650650843,
			"0.013": 0.0,
			"0.014": 0.0,
			"0.015": 0.0,
			"0.016": 0.0,
			"0.017": 0.0,
			"0.018": 0.0,
			"0.019": 0.0,
			"0.02": 0.0,
			"0.021": 0.0,
			"0.022": 0.0,
			"0.023": 0.0,
			"0.024": 0.0,
			"0.025": 0.0
		}
	}
}
