{
	 "smiles": "CN1N=C(C)C2=C1NN=C2N", 
	 "Tm": 409.15, 
	 "num_atms": 20, 
	 "gaussian": { 
		 "optdone": 1, 
		 "sigma_profile": "yes", 
		 "theory": "DFT", 
		 "functional": "B3LYP", 
		 "basiset": "6-31G**", 
		 "properties": { 
			 "R2extent": 1751.8177, 
			 "electric_dipole_moment_norm": 1.27248090752, 
			 "electric_quadrupole_moment_norm": 14.825736725, 
			 "total_energy": -507.765405081, 
			 "HOMO_LUMO_gap": 0.21484, 
			 "cosmo_polarized_energy": -16.05, 
			 "cosmo_cavitation_energy": 24.15, 
			 "cosmo_dispersion_energy": -17.86, 
			 "cosmo_repulsion_energy": 1.46, 
			 "cosmo_total_nonelectrostatic_energy": 7.76, 
			 "SMD_solvation_energy": 2.27 
		},
		"coords": [
			{
				"x": 1.6355255725,
				"y": 0.6135459515,
				"z": -2.939817133,
				"element": "C" 
			},
			{
				"x": 1.0602729184,
				"y": 0.2465113008,
				"z": -1.6659518879,
				"element": "N" 
			},
			{
				"x": 1.4205152227,
				"y": -0.9441004049,
				"z": -1.0581413246,
				"element": "N" 
			},
			{
				"x": 0.8522882306,
				"y": -0.9584751143,
				"z": 0.1440140951,
				"element": "C" 
			},
			{
				"x": 1.0298992986,
				"y": -2.1394857898,
				"z": 1.0467049183,
				"element": "C" 
			},
			{
				"x": 0.120741266,
				"y": 0.2494039293,
				"z": 0.3606325087,
				"element": "C" 
			},
			{
				"x": 0.3040175903,
				"y": 0.9747682012,
				"z": -0.8100036693,
				"element": "C" 
			},
			{
				"x": -0.408874419,
				"y": 2.1330798899,
				"z": -0.7435366176,
				"element": "N" 
			},
			{
				"x": -0.9963230795,
				"y": 2.2336186126,
				"z": 0.5245045108,
				"element": "N" 
			},
			{
				"x": -0.7052051691,
				"y": 1.108056121,
				"z": 1.1606738109,
				"element": "C" 
			},
			{
				"x": -1.1278233937,
				"y": 0.8962903723,
				"z": 2.4697478252,
				"element": "N" 
			},
			{
				"x": 0.9009085024,
				"y": 1.165875446,
				"z": -3.5338901349,
				"element": "H" 
			},
			{
				"x": 1.8973078148,
				"y": -0.3061671016,
				"z": -3.4637217981,
				"element": "H" 
			},
			{
				"x": 2.5385285226,
				"y": 1.2260657063,
				"z": -2.8247722435,
				"element": "H" 
			},
			{
				"x": 1.7032710431,
				"y": -2.8624778071,
				"z": 0.5815740413,
				"element": "H" 
			},
			{
				"x": 0.0745235673,
				"y": -2.6396576938,
				"z": 1.2463252659,
				"element": "H" 
			},
			{
				"x": 1.4506842196,
				"y": -1.8402541379,
				"z": 2.0131774247,
				"element": "H" 
			},
			{
				"x": -0.2182349315,
				"y": 2.9982996933,
				"z": -1.2234833287,
				"element": "H" 
			},
			{
				"x": -1.4295277109,
				"y": -0.052241106,
				"z": 2.6524770639,
				"element": "H" 
			},
			{
				"x": -1.8332950653,
				"y": 1.5672439311,
				"z": 2.7501866728,
				"element": "H" 
			}
		],
		 "valence_orbital": [ 
			{
				"type": "occ",
				"energy": -0.30586,
				"method": "rhf"
			},
			{
				"type": "occ",
				"energy": -0.26265,
				"method": "rhf"
			},
			{
				"type": "occ",
				"energy": -0.2459,
				"method": "rhf"
			},
			{
				"type": "occ",
				"energy": -0.22408,
				"method": "rhf"
			},
			{
				"type": "occ",
				"energy": -0.19403,
				"method": "rhf"
			},
			{
				"type": "unocc",
				"energy": 0.02081,
				"method": "rhf"
			},
			{
				"type": "unocc",
				"energy": 0.04784,
				"method": "rhf"
			},
			{
				"type": "unocc",
				"energy": 0.06611,
				"method": "rhf"
			},
			{
				"type": "unocc",
				"energy": 0.08656,
				"method": "rhf"
			},
			{
				"type": "unocc",
				"energy": 0.11593,
				"method": "rhf"
			}
		],
		"cosmo_sigma_profile": { 
			"-0.025": 0.0,
			"-0.024": 0.0,
			"-0.023": 0.0,
			"-0.022": 0.0,
			"-0.021": 0.0,
			"-0.02": 0.0,
			"-0.019": 0.0,
			"-0.018": 0.0,
			"-0.017": 0.0,
			"-0.016": 0.296996629174,
			"-0.015": 1.38155107749,
			"-0.014": 1.51635079926,
			"-0.013": 1.15424878865,
			"-0.012": 3.74716199318,
			"-0.011": 3.34581174988,
			"-0.01": 2.90665975203,
			"-0.009": 4.41678082431,
			"-0.008": 3.83951459988,
			"-0.007": 4.69407603945,
			"-0.006": 7.3208578501,
			"-0.005": 11.7754941529,
			"-0.004": 15.471183763,
			"-0.003": 15.9547820609,
			"-0.002": 11.7399062802,
			"-0.001": 12.082746208,
			"0.0": 10.3898107804,
			"0.001": 6.15478816061,
			"0.002": 8.08656434565,
			"0.003": 8.61551856927,
			"0.004": 9.43968561288,
			"0.005": 7.29444033494,
			"0.006": 5.40284778013,
			"0.007": 5.98245391535,
			"0.008": 4.92969991817,
			"0.009": 3.14340002264,
			"0.01": 3.26100433081,
			"0.011": 3.35387257911,
			"0.012": 3.57347708758,
			"0.013": 2.83158800833,
			"0.014": 2.25021568794,
			"0.015": 2.75222440924,
			"0.016": 1.5322418768,
			"0.017": 0.489286836839,
			"0.018": 0.0,
			"0.019": 0.0,
			"0.02": 0.0,
			"0.021": 0.0,
			"0.022": 0.0,
			"0.023": 0.0,
			"0.024": 0.0,
			"0.025": 0.0
		}
	}
}
