{
	 "smiles": "CC1=NC=C(N1CC(O)CCl)[N+]([O-])=O", 
	 "Tm": 350.65, 
	 "num_atms": 24, 
	 "gaussian": { 
		 "optdone": 1, 
		 "sigma_profile": "yes", 
		 "theory": "DFT", 
		 "functional": "B3LYP", 
		 "basiset": "6-31G**", 
		 "properties": { 
			 "R2extent": 4117.3247, 
			 "electric_dipole_moment_norm": 4.12383288337, 
			 "electric_quadrupole_moment_norm": 14.8331041687, 
			 "total_energy": -1122.78357333, 
			 "HOMO_LUMO_gap": 0.16974, 
			 "cosmo_polarized_energy": -17.2, 
			 "cosmo_cavitation_energy": 29.66, 
			 "cosmo_dispersion_energy": -20.95, 
			 "cosmo_repulsion_energy": 1.65, 
			 "cosmo_total_nonelectrostatic_energy": 10.36, 
			 "SMD_solvation_energy": 5.25 
		},
		"coords": [
			{
				"x": -1.8574601831,
				"y": -2.2371966507,
				"z": -0.2395766543,
				"element": "C" 
			},
			{
				"x": -0.82704556,
				"y": -1.47212308,
				"z": -1.0030404757,
				"element": "C" 
			},
			{
				"x": 0.1925128045,
				"y": -2.0379800246,
				"z": -1.6479257643,
				"element": "N" 
			},
			{
				"x": 0.8820792133,
				"y": -1.0222470727,
				"z": -2.2246826188,
				"element": "C" 
			},
			{
				"x": 0.2807083065,
				"y": 0.1829877263,
				"z": -1.9247912658,
				"element": "C" 
			},
			{
				"x": -0.8286655334,
				"y": -0.1085294231,
				"z": -1.1335464087,
				"element": "N" 
			},
			{
				"x": -1.819813165,
				"y": 0.8028549534,
				"z": -0.5497827012,
				"element": "C" 
			},
			{
				"x": -1.3356606694,
				"y": 1.398279474,
				"z": 0.7842894819,
				"element": "C" 
			},
			{
				"x": -0.9700810343,
				"y": 0.3661071175,
				"z": 1.6996354808,
				"element": "O" 
			},
			{
				"x": -2.4362028712,
				"y": 2.1725260671,
				"z": 1.5102147858,
				"element": "C" 
			},
			{
				"x": -3.0590982136,
				"y": 3.5690783642,
				"z": 0.5459007537,
				"element": "Cl" 
			},
			{
				"x": 0.7001960045,
				"y": 1.4821004109,
				"z": -2.3123826611,
				"element": "N" 
			},
			{
				"x": 1.6690251288,
				"y": 1.5484474559,
				"z": -3.0720397747,
				"element": "O" 
			},
			{
				"x": 0.0855266073,
				"y": 2.4636540353,
				"z": -1.8653104612,
				"element": "O" 
			},
			{
				"x": -2.8445426519,
				"y": -2.1719198183,
				"z": -0.7130330074,
				"element": "H" 
			},
			{
				"x": -1.9464303773,
				"y": -1.8670081088,
				"z": 0.7854128874,
				"element": "H" 
			},
			{
				"x": -1.5548138087,
				"y": -3.2846632894,
				"z": -0.2257510916,
				"element": "H" 
			},
			{
				"x": 1.771655049,
				"y": -1.1728749434,
				"z": -2.8182293275,
				"element": "H" 
			},
			{
				"x": -2.7277680001,
				"y": 0.2196818381,
				"z": -0.3806577888,
				"element": "H" 
			},
			{
				"x": -2.0339697348,
				"y": 1.5963430373,
				"z": -1.2624343145,
				"element": "H" 
			},
			{
				"x": -0.4926217126,
				"y": 2.0683775405,
				"z": 0.5809805229,
				"element": "H" 
			},
			{
				"x": -0.0497233671,
				"y": 0.124694581,
				"z": 1.5382181261,
				"element": "H" 
			},
			{
				"x": -2.0440315443,
				"y": 2.5702226552,
				"z": 2.4456793025,
				"element": "H" 
			},
			{
				"x": -3.2846746869,
				"y": 1.5204871542,
				"z": 1.7276529745,
				"element": "H" 
			}
		],
		 "valence_orbital": [ 
			{
				"type": "occ",
				"energy": -0.30766,
				"method": "rhf"
			},
			{
				"type": "occ",
				"energy": -0.29924,
				"method": "rhf"
			},
			{
				"type": "occ",
				"energy": -0.29296,
				"method": "rhf"
			},
			{
				"type": "occ",
				"energy": -0.28684,
				"method": "rhf"
			},
			{
				"type": "occ",
				"energy": -0.25954,
				"method": "rhf"
			},
			{
				"type": "unocc",
				"energy": -0.0898,
				"method": "rhf"
			},
			{
				"type": "unocc",
				"energy": 0.00715,
				"method": "rhf"
			},
			{
				"type": "unocc",
				"energy": 0.01019,
				"method": "rhf"
			},
			{
				"type": "unocc",
				"energy": 0.05529,
				"method": "rhf"
			},
			{
				"type": "unocc",
				"energy": 0.06239,
				"method": "rhf"
			}
		],
		"cosmo_sigma_profile": { 
			"-0.025": 0.0,
			"-0.024": 0.0,
			"-0.023": 0.0,
			"-0.022": 0.0,
			"-0.021": 0.0,
			"-0.02": 0.0,
			"-0.019": 0.0,
			"-0.018": 0.0,
			"-0.017": 0.328892849117,
			"-0.016": 0.893155300732,
			"-0.015": 0.985911898738,
			"-0.014": 0.72256110367,
			"-0.013": 1.13237982658,
			"-0.012": 1.49364067769,
			"-0.011": 0.980438144674,
			"-0.01": 1.20590400764,
			"-0.009": 3.04504934015,
			"-0.008": 7.95355652468,
			"-0.007": 11.5697869304,
			"-0.006": 13.7731861721,
			"-0.005": 15.5241251282,
			"-0.004": 15.7377252187,
			"-0.003": 14.6964748837,
			"-0.002": 17.358321817,
			"-0.001": 14.1841713466,
			"0.0": 13.0633249296,
			"0.001": 9.89112901556,
			"0.002": 9.7153194178,
			"0.003": 10.0603040203,
			"0.004": 10.943741812,
			"0.005": 11.5968164756,
			"0.006": 12.0244416023,
			"0.007": 6.8680937187,
			"0.008": 10.7889084311,
			"0.009": 6.70981850095,
			"0.01": 5.42387608465,
			"0.011": 2.5289033212,
			"0.012": 2.3172263905,
			"0.013": 1.02219708026,
			"0.014": 0.820169920376,
			"0.015": 0.966940019132,
			"0.016": 0.674462269333,
			"0.017": 0.00606215315711,
			"0.018": 0.0,
			"0.019": 0.0,
			"0.02": 0.0,
			"0.021": 0.0,
			"0.022": 0.0,
			"0.023": 0.0,
			"0.024": 0.0,
			"0.025": 0.0
		}
	}
}
