{
	 "smiles": "OC(=O)CN(CCCCCCN(CC(O)=O)CC(O)=O)CC(O)=O", 
	 "Tm": 512.15, 
	 "num_atms": 48, 
	 "gaussian": { 
		 "optdone": 1, 
		 "sigma_profile": "yes", 
		 "theory": "DFT", 
		 "functional": "B3LYP", 
		 "basiset": "6-31G**", 
		 "properties": { 
			 "R2extent": 11512.4137, 
			 "electric_dipole_moment_norm": 4.76553711978, 
			 "electric_quadrupole_moment_norm": 50.1113359716, 
			 "total_energy": -1259.25271358, 
			 "HOMO_LUMO_gap": 0.20393, 
			 "cosmo_polarized_energy": -47.5, 
			 "cosmo_cavitation_energy": 48.7, 
			 "cosmo_dispersion_energy": -32.09, 
			 "cosmo_repulsion_energy": 2.45, 
			 "cosmo_total_nonelectrostatic_energy": 19.06, 
			 "SMD_solvation_energy": 9.85 
		},
		"coords": [
			{
				"x": 2.7406803722,
				"y": -0.7946003424,
				"z": 5.8261454717,
				"element": "O" 
			},
			{
				"x": 1.9369262516,
				"y": -0.9267867696,
				"z": 4.7368375766,
				"element": "C" 
			},
			{
				"x": 1.6013386452,
				"y": -2.0205165361,
				"z": 4.3640607325,
				"element": "O" 
			},
			{
				"x": 1.5990461295,
				"y": 0.3971463782,
				"z": 4.0465045758,
				"element": "C" 
			},
			{
				"x": 0.5300227435,
				"y": 0.3123521119,
				"z": 3.0727350846,
				"element": "N" 
			},
			{
				"x": 0.0185126913,
				"y": 1.6278080649,
				"z": 2.6572746381,
				"element": "C" 
			},
			{
				"x": -1.5068409127,
				"y": 1.7138814431,
				"z": 2.450339736,
				"element": "C" 
			},
			{
				"x": -2.1030748901,
				"y": 1.0454049538,
				"z": 1.1989768436,
				"element": "C" 
			},
			{
				"x": -1.6742128046,
				"y": 1.6720567795,
				"z": -0.140274181,
				"element": "C" 
			},
			{
				"x": -2.0137282093,
				"y": 0.8162655873,
				"z": -1.375409229,
				"element": "C" 
			},
			{
				"x": -1.17501977,
				"y": -0.466161497,
				"z": -1.4230823236,
				"element": "C" 
			},
			{
				"x": -1.3532270409,
				"y": -1.2447869078,
				"z": -2.6669215251,
				"element": "N" 
			},
			{
				"x": -0.6101424559,
				"y": -0.7372717948,
				"z": -3.8273331252,
				"element": "C" 
			},
			{
				"x": -1.4178975582,
				"y": -0.8892720785,
				"z": -5.126126614,
				"element": "C" 
			},
			{
				"x": -2.734360861,
				"y": -1.0794844985,
				"z": -4.9184801557,
				"element": "O" 
			},
			{
				"x": -0.9233562545,
				"y": -0.8193298238,
				"z": -6.2241626431,
				"element": "O" 
			},
			{
				"x": -1.2137361603,
				"y": -2.6833066426,
				"z": -2.4985073252,
				"element": "C" 
			},
			{
				"x": 0.1644593361,
				"y": -3.1811478816,
				"z": -2.0339798131,
				"element": "C" 
			},
			{
				"x": 0.3366941049,
				"y": -4.5184087353,
				"z": -2.0572928989,
				"element": "O" 
			},
			{
				"x": 1.0520040039,
				"y": -2.4630293509,
				"z": -1.6287750173,
				"element": "O" 
			},
			{
				"x": 0.758207301,
				"y": -0.6431139104,
				"z": 2.0010720292,
				"element": "C" 
			},
			{
				"x": -0.2188407406,
				"y": -1.828173489,
				"z": 2.0044999321,
				"element": "C" 
			},
			{
				"x": 0.0623755587,
				"y": -2.7845485703,
				"z": 1.0787111924,
				"element": "O" 
			},
			{
				"x": -1.1995407874,
				"y": -1.9222754064,
				"z": 2.6942913464,
				"element": "O" 
			},
			{
				"x": 2.9113886232,
				"y": 0.138587474,
				"z": 6.018680316,
				"element": "H" 
			},
			{
				"x": 1.2993885106,
				"y": 1.1100204336,
				"z": 4.8239352135,
				"element": "H" 
			},
			{
				"x": 2.5589661601,
				"y": 0.7785638801,
				"z": 3.6320971966,
				"element": "H" 
			},
			{
				"x": 0.2655679586,
				"y": 2.3354148946,
				"z": 3.455632431,
				"element": "H" 
			},
			{
				"x": 0.5523084973,
				"y": 1.9942706201,
				"z": 1.7619793993,
				"element": "H" 
			},
			{
				"x": -1.7646430825,
				"y": 2.782720277,
				"z": 2.4345169906,
				"element": "H" 
			},
			{
				"x": -1.9820803054,
				"y": 1.2841246227,
				"z": 3.3384692408,
				"element": "H" 
			},
			{
				"x": -3.1967739967,
				"y": 1.103891467,
				"z": 1.2731083562,
				"element": "H" 
			},
			{
				"x": -1.8764397434,
				"y": -0.0221033388,
				"z": 1.2289982891,
				"element": "H" 
			},
			{
				"x": -0.5919238743,
				"y": 1.8611604278,
				"z": -0.1453467652,
				"element": "H" 
			},
			{
				"x": -2.1462730008,
				"y": 2.6572344269,
				"z": -0.2420384684,
				"element": "H" 
			},
			{
				"x": -3.0802614003,
				"y": 0.5567065956,
				"z": -1.3829906157,
				"element": "H" 
			},
			{
				"x": -1.832282441,
				"y": 1.4106714158,
				"z": -2.2801425555,
				"element": "H" 
			},
			{
				"x": -0.1141974149,
				"y": -0.2222172282,
				"z": -1.277994665,
				"element": "H" 
			},
			{
				"x": -1.4582598051,
				"y": -1.1202241386,
				"z": -0.5952118427,
				"element": "H" 
			},
			{
				"x": -0.4276708739,
				"y": 0.3334770449,
				"z": -3.6939384399,
				"element": "H" 
			},
			{
				"x": 0.37099501,
				"y": -1.2069012867,
				"z": -3.9652180966,
				"element": "H" 
			},
			{
				"x": -2.8354111522,
				"y": -1.0974095404,
				"z": -3.9399042568,
				"element": "H" 
			},
			{
				"x": -1.9395048014,
				"y": -3.0314141155,
				"z": -1.7512574015,
				"element": "H" 
			},
			{
				"x": -1.4735610656,
				"y": -3.1803551512,
				"z": -3.4428811237,
				"element": "H" 
			},
			{
				"x": -0.4538756437,
				"y": -4.9697511232,
				"z": -2.3887444036,
				"element": "H" 
			},
			{
				"x": 0.6676928675,
				"y": -0.1520079193,
				"z": 1.0208699015,
				"element": "H" 
			},
			{
				"x": 1.7747270204,
				"y": -1.0524180195,
				"z": 2.0398279219,
				"element": "H" 
			},
			{
				"x": 0.8420352611,
				"y": -2.5644428021,
				"z": 0.5411490705,
				"element": "H" 
			}
		],
		 "valence_orbital": [ 
			{
				"type": "occ",
				"energy": -0.28188,
				"method": "rhf"
			},
			{
				"type": "occ",
				"energy": -0.27569,
				"method": "rhf"
			},
			{
				"type": "occ",
				"energy": -0.26472,
				"method": "rhf"
			},
			{
				"type": "occ",
				"energy": -0.25094,
				"method": "rhf"
			},
			{
				"type": "occ",
				"energy": -0.22865,
				"method": "rhf"
			},
			{
				"type": "unocc",
				"energy": -0.02472,
				"method": "rhf"
			},
			{
				"type": "unocc",
				"energy": 0.00067,
				"method": "rhf"
			},
			{
				"type": "unocc",
				"energy": 0.00904,
				"method": "rhf"
			},
			{
				"type": "unocc",
				"energy": 0.01857,
				"method": "rhf"
			},
			{
				"type": "unocc",
				"energy": 0.03201,
				"method": "rhf"
			}
		],
		"cosmo_sigma_profile": { 
			"-0.025": 0.0,
			"-0.024": 0.0,
			"-0.023": 0.0,
			"-0.022": 0.0,
			"-0.021": 0.0,
			"-0.02": 0.840662631245,
			"-0.019": 2.00733037593,
			"-0.018": 2.7413233058,
			"-0.017": 2.29478720152,
			"-0.016": 2.66208972234,
			"-0.015": 3.14683467332,
			"-0.014": 1.77548686125,
			"-0.013": 2.59664304351,
			"-0.012": 3.60488262807,
			"-0.011": 4.93608916893,
			"-0.01": 4.83857065322,
			"-0.009": 6.92770028219,
			"-0.008": 10.883549434,
			"-0.007": 17.7841698084,
			"-0.006": 18.968673866,
			"-0.005": 18.3604603724,
			"-0.004": 19.7893509155,
			"-0.003": 23.7206588408,
			"-0.002": 28.1593769257,
			"-0.001": 31.2278358907,
			"0.0": 22.9810196711,
			"0.001": 14.1049496672,
			"0.002": 7.95412674305,
			"0.003": 7.22333272682,
			"0.004": 9.38933898777,
			"0.005": 8.44516582326,
			"0.006": 7.55857422235,
			"0.007": 9.52141640822,
			"0.008": 10.367639894,
			"0.009": 13.6698534532,
			"0.01": 17.5396330431,
			"0.011": 17.3549442421,
			"0.012": 14.6206175797,
			"0.013": 7.74449302863,
			"0.014": 2.0329150887,
			"0.015": 0.632656405444,
			"0.016": 0.567073487708,
			"0.017": 0.347403618897,
			"0.018": 0.0,
			"0.019": 0.0,
			"0.02": 0.0,
			"0.021": 0.0,
			"0.022": 0.0,
			"0.023": 0.0,
			"0.024": 0.0,
			"0.025": 0.0
		}
	}
}
