{
	 "smiles": "[O-][N+](=O)C1=CC=C(NC2CCOC3=C2C=CC=C3)C=C1", 
	 "Tm": 398.15, 
	 "num_atms": 34, 
	 "gaussian": { 
		 "optdone": 1, 
		 "sigma_profile": "yes", 
		 "theory": "DFT", 
		 "functional": "B3LYP", 
		 "basiset": "6-31G**", 
		 "properties": { 
			 "R2extent": 8403.1036, 
			 "electric_dipole_moment_norm": 6.49599593134, 
			 "electric_quadrupole_moment_norm": 37.0572597425, 
			 "total_energy": -915.112321806, 
			 "HOMO_LUMO_gap": 0.15006, 
			 "cosmo_polarized_energy": -17.18, 
			 "cosmo_cavitation_energy": 37.67, 
			 "cosmo_dispersion_energy": -27.33, 
			 "cosmo_repulsion_energy": 2.06, 
			 "cosmo_total_nonelectrostatic_energy": 12.41, 
			 "SMD_solvation_energy": 8.19 
		},
		"coords": [
			{
				"x": 0.6294007585,
				"y": -5.4803627244,
				"z": -1.0291925917,
				"element": "O" 
			},
			{
				"x": 1.0690410051,
				"y": -4.8886110569,
				"z": -0.0387288566,
				"element": "N" 
			},
			{
				"x": 1.8282356316,
				"y": -5.3951840104,
				"z": 0.7927838834,
				"element": "O" 
			},
			{
				"x": 0.6669227748,
				"y": -3.5056845451,
				"z": 0.1622957867,
				"element": "C" 
			},
			{
				"x": 1.1477836144,
				"y": -2.8000626966,
				"z": 1.2702731417,
				"element": "C" 
			},
			{
				"x": 0.7661261492,
				"y": -1.4845683762,
				"z": 1.4555064237,
				"element": "C" 
			},
			{
				"x": -0.105087636,
				"y": -0.8392067279,
				"z": 0.5431512193,
				"element": "C" 
			},
			{
				"x": -0.4885128974,
				"y": 0.4578739925,
				"z": 0.7924836427,
				"element": "N" 
			},
			{
				"x": -1.1763288983,
				"y": 1.3334712239,
				"z": -0.1496663453,
				"element": "C" 
			},
			{
				"x": -0.2582234329,
				"y": 1.850603466,
				"z": -1.2748688993,
				"element": "C" 
			},
			{
				"x": -0.9743025112,
				"y": 2.9419228142,
				"z": -2.0562227442,
				"element": "C" 
			},
			{
				"x": -1.280497201,
				"y": 4.0657557635,
				"z": -1.2258684492,
				"element": "O" 
			},
			{
				"x": -1.8111537236,
				"y": 3.7916006089,
				"z": 0.0049390344,
				"element": "C" 
			},
			{
				"x": -1.801663698,
				"y": 2.5108391578,
				"z": 0.5881863827,
				"element": "C" 
			},
			{
				"x": -2.3856126363,
				"y": 2.3537033221,
				"z": 1.8532834385,
				"element": "C" 
			},
			{
				"x": -2.9448234164,
				"y": 3.4308611789,
				"z": 2.5361764942,
				"element": "C" 
			},
			{
				"x": -2.9258511242,
				"y": 4.7000847231,
				"z": 1.949911514,
				"element": "C" 
			},
			{
				"x": -2.3646859287,
				"y": 4.880254984,
				"z": 0.6906978962,
				"element": "C" 
			},
			{
				"x": -0.5713075786,
				"y": -1.5750155717,
				"z": -0.571494403,
				"element": "C" 
			},
			{
				"x": -0.1901463723,
				"y": -2.8960742863,
				"z": -0.7544208375,
				"element": "C" 
			},
			{
				"x": 1.813454481,
				"y": -3.2970999438,
				"z": 1.9649736042,
				"element": "H" 
			},
			{
				"x": 1.1346144315,
				"y": -0.9330857916,
				"z": 2.3165315209,
				"element": "H" 
			},
			{
				"x": 0.0154802745,
				"y": 0.9363861848,
				"z": 1.5265582756,
				"element": "H" 
			},
			{
				"x": -1.9847595416,
				"y": 0.7447389227,
				"z": -0.6041025137,
				"element": "H" 
			},
			{
				"x": 0.6575990065,
				"y": 2.2624968656,
				"z": -0.8349780036,
				"element": "H" 
			},
			{
				"x": 0.0345308533,
				"y": 1.0329461736,
				"z": -1.9411033587,
				"element": "H" 
			},
			{
				"x": -0.3533496842,
				"y": 3.3364337811,
				"z": -2.8636179932,
				"element": "H" 
			},
			{
				"x": -1.9056021696,
				"y": 2.5565809218,
				"z": -2.4983682638,
				"element": "H" 
			},
			{
				"x": -2.3902724223,
				"y": 1.3645600094,
				"z": 2.3020922294,
				"element": "H" 
			},
			{
				"x": -3.3901273,
				"y": 3.2828845948,
				"z": 3.5149094723,
				"element": "H" 
			},
			{
				"x": -3.3550226036,
				"y": 5.5505179117,
				"z": 2.4716575647,
				"element": "H" 
			},
			{
				"x": -2.3440216297,
				"y": 5.8528688791,
				"z": 0.2101873047,
				"element": "H" 
			},
			{
				"x": -1.2345817654,
				"y": -1.1156188769,
				"z": -1.2946314122,
				"element": "H" 
			},
			{
				"x": -0.5437548092,
				"y": -3.4673108719,
				"z": -1.603934157,
				"element": "H" 
			}
		],
		 "valence_orbital": [ 
			{
				"type": "occ",
				"energy": -0.27318,
				"method": "rhf"
			},
			{
				"type": "occ",
				"energy": -0.27284,
				"method": "rhf"
			},
			{
				"type": "occ",
				"energy": -0.26001,
				"method": "rhf"
			},
			{
				"type": "occ",
				"energy": -0.23021,
				"method": "rhf"
			},
			{
				"type": "occ",
				"energy": -0.22096,
				"method": "rhf"
			},
			{
				"type": "unocc",
				"energy": -0.0709,
				"method": "rhf"
			},
			{
				"type": "unocc",
				"energy": -0.02108,
				"method": "rhf"
			},
			{
				"type": "unocc",
				"energy": -0.01776,
				"method": "rhf"
			},
			{
				"type": "unocc",
				"energy": -0.00243,
				"method": "rhf"
			},
			{
				"type": "unocc",
				"energy": 0.02115,
				"method": "rhf"
			}
		],
		"cosmo_sigma_profile": { 
			"-0.025": 0.0,
			"-0.024": 0.0,
			"-0.023": 0.0,
			"-0.022": 0.0,
			"-0.021": 0.0,
			"-0.02": 0.0,
			"-0.019": 0.0,
			"-0.018": 0.0,
			"-0.017": 0.0,
			"-0.016": 0.0,
			"-0.015": 0.0,
			"-0.014": 0.390382752202,
			"-0.013": 1.19026497345,
			"-0.012": 1.4128013911,
			"-0.011": 1.29383778281,
			"-0.01": 1.22497422964,
			"-0.009": 1.92070419466,
			"-0.008": 3.54385976144,
			"-0.007": 8.6029197102,
			"-0.006": 15.3180042447,
			"-0.005": 25.2539872128,
			"-0.004": 25.8878402062,
			"-0.003": 23.6023627028,
			"-0.002": 20.3460070308,
			"-0.001": 17.75013848,
			"0.0": 18.4569028867,
			"0.001": 19.7058207647,
			"0.002": 20.3051092189,
			"0.003": 22.6899211185,
			"0.004": 13.6074358642,
			"0.005": 13.5244552132,
			"0.006": 8.96183147643,
			"0.007": 5.33959892797,
			"0.008": 7.43695271751,
			"0.009": 11.2379119996,
			"0.01": 6.15238535275,
			"0.011": 4.30263699944,
			"0.012": 0.695142955317,
			"0.013": 0.0,
			"0.014": 0.0,
			"0.015": 0.0,
			"0.016": 0.0,
			"0.017": 0.0,
			"0.018": 0.0,
			"0.019": 0.0,
			"0.02": 0.0,
			"0.021": 0.0,
			"0.022": 0.0,
			"0.023": 0.0,
			"0.024": 0.0,
			"0.025": 0.0
		}
	}
}
