{
	 "smiles": "NC1=CC2=C(C=C1)C1=CC=CC=C1C2", 
	 "Tm": 401.15, 
	 "num_atms": 25, 
	 "gaussian": { 
		 "optdone": 1, 
		 "sigma_profile": "yes", 
		 "theory": "DFT", 
		 "functional": "B3LYP", 
		 "basiset": "6-31G**", 
		 "properties": { 
			 "R2extent": 3228.6349, 
			 "electric_dipole_moment_norm": 2.28380708467, 
			 "electric_quadrupole_moment_norm": 14.8280059516, 
			 "total_energy": -556.784946699, 
			 "HOMO_LUMO_gap": 0.16985, 
			 "cosmo_polarized_energy": -10.01, 
			 "cosmo_cavitation_energy": 28.16, 
			 "cosmo_dispersion_energy": -21.06, 
			 "cosmo_repulsion_energy": 1.63, 
			 "cosmo_total_nonelectrostatic_energy": 8.73, 
			 "SMD_solvation_energy": 3.95 
		},
		"coords": [
			{
				"x": 1.1361415195,
				"y": -3.7959732153,
				"z": 0.7327912619,
				"element": "N" 
			},
			{
				"x": 0.9522882986,
				"y": -2.4167047552,
				"z": 0.6015183465,
				"element": "C" 
			},
			{
				"x": -0.3137458661,
				"y": -1.8417611198,
				"z": 0.8265337721,
				"element": "C" 
			},
			{
				"x": -0.4616885026,
				"y": -0.4650514774,
				"z": 0.748145699,
				"element": "C" 
			},
			{
				"x": 0.6338088386,
				"y": 0.3708356821,
				"z": 0.4461625756,
				"element": "C" 
			},
			{
				"x": 1.8904630373,
				"y": -0.196617238,
				"z": 0.2229821091,
				"element": "C" 
			},
			{
				"x": 2.0443479625,
				"y": -1.5785036647,
				"z": 0.3006264747,
				"element": "C" 
			},
			{
				"x": 0.1744978212,
				"y": 1.7640529497,
				"z": 0.4291972267,
				"element": "C" 
			},
			{
				"x": 0.8602049112,
				"y": 2.9567653753,
				"z": 0.1851087483,
				"element": "C" 
			},
			{
				"x": 0.1579551012,
				"y": 4.1635868796,
				"z": 0.2354479993,
				"element": "C" 
			},
			{
				"x": -1.2103241318,
				"y": 4.1832078983,
				"z": 0.5252573963,
				"element": "C" 
			},
			{
				"x": -1.9001108049,
				"y": 2.9891440072,
				"z": 0.7705281329,
				"element": "C" 
			},
			{
				"x": -1.2070136925,
				"y": 1.785877702,
				"z": 0.7218306495,
				"element": "C" 
			},
			{
				"x": -1.710001223,
				"y": 0.3727384684,
				"z": 0.9458489602,
				"element": "C" 
			},
			{
				"x": 1.9292382471,
				"y": -4.1713668124,
				"z": 0.2309267336,
				"element": "H" 
			},
			{
				"x": 0.3052819811,
				"y": -4.3537269291,
				"z": 0.589705415,
				"element": "H" 
			},
			{
				"x": -1.1607752266,
				"y": -2.4824950682,
				"z": 1.0635684452,
				"element": "H" 
			},
			{
				"x": 2.7492054818,
				"y": 0.4261615335,
				"z": -0.0132109117,
				"element": "H" 
			},
			{
				"x": 3.0216274041,
				"y": -2.0245032991,
				"z": 0.1320269388,
				"element": "H" 
			},
			{
				"x": 1.923281354,
				"y": 2.9512479319,
				"z": -0.0404391093,
				"element": "H" 
			},
			{
				"x": 0.6807282391,
				"y": 5.0974023909,
				"z": 0.047492158,
				"element": "H" 
			},
			{
				"x": -1.7411980135,
				"y": 5.1302528408,
				"z": 0.5605442184,
				"element": "H" 
			},
			{
				"x": -2.9637475417,
				"y": 3.0090739224,
				"z": 0.9957223307,
				"element": "H" 
			},
			{
				"x": -2.5030383114,
				"y": 0.1008130457,
				"z": 0.236189166,
				"element": "H" 
			},
			{
				"x": -2.135226883,
				"y": 0.2420429512,
				"z": 1.9500952632,
				"element": "H" 
			}
		],
		 "valence_orbital": [ 
			{
				"type": "occ",
				"energy": -0.30855,
				"method": "rhf"
			},
			{
				"type": "occ",
				"energy": -0.24756,
				"method": "rhf"
			},
			{
				"type": "occ",
				"energy": -0.24208,
				"method": "rhf"
			},
			{
				"type": "occ",
				"energy": -0.23397,
				"method": "rhf"
			},
			{
				"type": "occ",
				"energy": -0.1841,
				"method": "rhf"
			},
			{
				"type": "unocc",
				"energy": -0.01425,
				"method": "rhf"
			},
			{
				"type": "unocc",
				"energy": -0.00254,
				"method": "rhf"
			},
			{
				"type": "unocc",
				"energy": 0.01745,
				"method": "rhf"
			},
			{
				"type": "unocc",
				"energy": 0.05521,
				"method": "rhf"
			},
			{
				"type": "unocc",
				"energy": 0.08301,
				"method": "rhf"
			}
		],
		"cosmo_sigma_profile": { 
			"-0.025": 0.0,
			"-0.024": 0.0,
			"-0.023": 0.0,
			"-0.022": 0.0,
			"-0.021": 0.0,
			"-0.02": 0.0,
			"-0.019": 0.0,
			"-0.018": 0.0,
			"-0.017": 0.0,
			"-0.016": 0.0,
			"-0.015": 0.0,
			"-0.014": 0.0,
			"-0.013": 0.125063689894,
			"-0.012": 2.39312902068,
			"-0.011": 2.60349891065,
			"-0.01": 2.9453218566,
			"-0.009": 3.42677068459,
			"-0.008": 2.53581072666,
			"-0.007": 2.65490547688,
			"-0.006": 6.11898038139,
			"-0.005": 18.2392119463,
			"-0.004": 16.6748461576,
			"-0.003": 20.93205552,
			"-0.002": 18.4031047682,
			"-0.001": 14.2166608013,
			"0.0": 11.9844002543,
			"0.001": 10.3917320011,
			"0.002": 11.731770049,
			"0.003": 11.8127114609,
			"0.004": 15.6678771924,
			"0.005": 16.4233603398,
			"0.006": 18.7045172746,
			"0.007": 11.113782538,
			"0.008": 1.00546600653,
			"0.009": 0.701550416356,
			"0.01": 0.743160831661,
			"0.011": 0.385874535186,
			"0.012": 1.01710247654,
			"0.013": 0.833139593325,
			"0.014": 0.483348966667,
			"0.015": 0.256632211752,
			"0.016": 0.0,
			"0.017": 0.0,
			"0.018": 0.0,
			"0.019": 0.0,
			"0.02": 0.0,
			"0.021": 0.0,
			"0.022": 0.0,
			"0.023": 0.0,
			"0.024": 0.0,
			"0.025": 0.0
		}
	}
}
