{
	 "smiles": "NC1=NC=NC2=C1N=CN2C1CC(O)C(COP(O)(O)=O)O1", 
	 "Tm": 421.15, 
	 "num_atms": 36, 
	 "gaussian": { 
		 "optdone": 1, 
		 "sigma_profile": "yes", 
		 "theory": "DFT", 
		 "functional": "B3LYP", 
		 "basiset": "6-31G**", 
		 "properties": { 
			 "R2extent": 10120.8137, 
			 "electric_dipole_moment_norm": 4.59432494933, 
			 "electric_quadrupole_moment_norm": 27.4333272051, 
			 "total_energy": -1456.03716112, 
			 "HOMO_LUMO_gap": 0.19955, 
			 "cosmo_polarized_energy": -33.25, 
			 "cosmo_cavitation_energy": 41.91, 
			 "cosmo_dispersion_energy": -30.34, 
			 "cosmo_repulsion_energy": 2.34, 
			 "cosmo_total_nonelectrostatic_energy": 13.91, 
			 "SMD_solvation_energy": 5.78 
		},
		"coords": [
			{
				"x": -3.0831956787,
				"y": 3.9933820291,
				"z": -4.1560962481,
				"element": "N" 
			},
			{
				"x": -2.7008014444,
				"y": 3.2605935953,
				"z": -3.0834956343,
				"element": "C" 
			},
			{
				"x": -3.6308183565,
				"y": 2.8864707022,
				"z": -2.1856329073,
				"element": "N" 
			},
			{
				"x": -3.2315144965,
				"y": 2.1842464882,
				"z": -1.1152928126,
				"element": "C" 
			},
			{
				"x": -1.9992270743,
				"y": 1.7776544919,
				"z": -0.7907929665,
				"element": "N" 
			},
			{
				"x": -1.0944973325,
				"y": 2.1556125816,
				"z": -1.7066521575,
				"element": "C" 
			},
			{
				"x": -1.3562869822,
				"y": 2.8913613922,
				"z": -2.8672567625,
				"element": "C" 
			},
			{
				"x": -0.2031929731,
				"y": 3.1144513309,
				"z": -3.5990148355,
				"element": "N" 
			},
			{
				"x": 0.7283039504,
				"y": 2.5263403738,
				"z": -2.8926219789,
				"element": "C" 
			},
			{
				"x": 0.2741985575,
				"y": 1.9358306949,
				"z": -1.7239325936,
				"element": "N" 
			},
			{
				"x": 1.1030366049,
				"y": 1.1338526981,
				"z": -0.8271105942,
				"element": "C" 
			},
			{
				"x": 0.799950882,
				"y": 1.3182919624,
				"z": 0.6679777285,
				"element": "C" 
			},
			{
				"x": 0.0088679324,
				"y": 0.0526121047,
				"z": 1.0472200316,
				"element": "C" 
			},
			{
				"x": 0.2310878538,
				"y": -0.3936825495,
				"z": 2.3773416079,
				"element": "O" 
			},
			{
				"x": 0.5428415285,
				"y": -0.9925794805,
				"z": 0.0455105628,
				"element": "C" 
			},
			{
				"x": 1.7179128227,
				"y": -1.7978294853,
				"z": 0.594756084,
				"element": "C" 
			},
			{
				"x": 2.1893760989,
				"y": -2.7244499284,
				"z": -0.4124165248,
				"element": "O" 
			},
			{
				"x": 1.8666149559,
				"y": -4.2909741832,
				"z": -0.2760109826,
				"element": "P" 
			},
			{
				"x": 2.5088723137,
				"y": -4.8238087551,
				"z": -1.6488968411,
				"element": "O" 
			},
			{
				"x": 0.2526207309,
				"y": -4.310888013,
				"z": -0.4872006413,
				"element": "O" 
			},
			{
				"x": 2.307404274,
				"y": -5.0276344735,
				"z": 0.9229024848,
				"element": "O" 
			},
			{
				"x": 0.9355201021,
				"y": -0.247097557,
				"z": -1.1167494498,
				"element": "O" 
			},
			{
				"x": -2.423221432,
				"y": 4.1679801395,
				"z": -4.8964146608,
				"element": "H" 
			},
			{
				"x": -4.0687486632,
				"y": 4.121130886,
				"z": -4.3208772219,
				"element": "H" 
			},
			{
				"x": -4.0209987619,
				"y": 1.9084736459,
				"z": -0.4188068972,
				"element": "H" 
			},
			{
				"x": 1.7774597564,
				"y": 2.4837663752,
				"z": -3.1568798064,
				"element": "H" 
			},
			{
				"x": 2.1313767536,
				"y": 1.4251947479,
				"z": -1.0701149981,
				"element": "H" 
			},
			{
				"x": 1.7363313678,
				"y": 1.3289779616,
				"z": 1.2345901003,
				"element": "H" 
			},
			{
				"x": 0.2564563547,
				"y": 2.2422716799,
				"z": 0.871618328,
				"element": "H" 
			},
			{
				"x": -1.0533893044,
				"y": 0.2242465894,
				"z": 0.8500728661,
				"element": "H" 
			},
			{
				"x": -0.3308793044,
				"y": 0.1225182018,
				"z": 2.9672288041,
				"element": "H" 
			},
			{
				"x": -0.236029363,
				"y": -1.691695608,
				"z": -0.2721378623,
				"element": "H" 
			},
			{
				"x": 2.5671991005,
				"y": -1.1523346108,
				"z": 0.8319385627,
				"element": "H" 
			},
			{
				"x": 1.4261044482,
				"y": -2.3253318784,
				"z": 1.5056705449,
				"element": "H" 
			},
			{
				"x": 2.3823876896,
				"y": -4.1975671002,
				"z": -2.3761736889,
				"element": "H" 
			},
			{
				"x": -0.1255229113,
				"y": -5.0635870496,
				"z": -0.0101486396,
				"element": "H" 
			}
		],
		 "valence_orbital": [ 
			{
				"type": "occ",
				"energy": -0.28224,
				"method": "rhf"
			},
			{
				"type": "occ",
				"energy": -0.27386,
				"method": "rhf"
			},
			{
				"type": "occ",
				"energy": -0.26634,
				"method": "rhf"
			},
			{
				"type": "occ",
				"energy": -0.25346,
				"method": "rhf"
			},
			{
				"type": "occ",
				"energy": -0.22383,
				"method": "rhf"
			},
			{
				"type": "unocc",
				"energy": -0.02428,
				"method": "rhf"
			},
			{
				"type": "unocc",
				"energy": -0.00075,
				"method": "rhf"
			},
			{
				"type": "unocc",
				"energy": 0.03129,
				"method": "rhf"
			},
			{
				"type": "unocc",
				"energy": 0.03799,
				"method": "rhf"
			},
			{
				"type": "unocc",
				"energy": 0.05289,
				"method": "rhf"
			}
		],
		"cosmo_sigma_profile": { 
			"-0.025": 0.0,
			"-0.024": 0.0,
			"-0.023": 0.0,
			"-0.022": 0.0,
			"-0.021": 0.0,
			"-0.02": 0.453620011599,
			"-0.019": 1.90962158663,
			"-0.018": 1.68369939284,
			"-0.017": 1.74630209481,
			"-0.016": 3.05398554376,
			"-0.015": 2.24550249833,
			"-0.014": 3.79786189729,
			"-0.013": 4.92674195002,
			"-0.012": 3.64513687957,
			"-0.011": 4.70665836692,
			"-0.01": 7.0257349789,
			"-0.009": 6.51428130122,
			"-0.008": 8.77134372448,
			"-0.007": 11.7258290327,
			"-0.006": 11.5818571269,
			"-0.005": 13.4866379574,
			"-0.004": 15.640977809,
			"-0.003": 15.455243643,
			"-0.002": 16.5166877878,
			"-0.001": 16.0753738729,
			"0.0": 19.6994787444,
			"0.001": 20.1384271783,
			"0.002": 16.5364920325,
			"0.003": 16.1314443724,
			"0.004": 13.3958359792,
			"0.005": 13.1677374611,
			"0.006": 11.2238737306,
			"0.007": 9.88206949662,
			"0.008": 12.2134715582,
			"0.009": 8.34244515124,
			"0.01": 8.70723728025,
			"0.011": 6.39954431288,
			"0.012": 5.01400366314,
			"0.013": 5.09308810461,
			"0.014": 8.87579909225,
			"0.015": 2.26554005171,
			"0.016": 0.233206439515,
			"0.017": 0.0,
			"0.018": 0.0,
			"0.019": 0.0,
			"0.02": 0.0,
			"0.021": 0.0,
			"0.022": 0.0,
			"0.023": 0.0,
			"0.024": 0.0,
			"0.025": 0.0
		}
	}
}
