{
	 "smiles": "COC1=CC=CC(F)=C1CO", 
	 "Tm": 310.15, 
	 "num_atms": 20, 
	 "gaussian": { 
		 "optdone": 1, 
		 "sigma_profile": "yes", 
		 "theory": "DFT", 
		 "functional": "B3LYP", 
		 "basiset": "6-31G**", 
		 "properties": { 
			 "R2extent": 2737.385, 
			 "electric_dipole_moment_norm": 4.22516057091, 
			 "electric_quadrupole_moment_norm": 14.9355881314, 
			 "total_energy": -560.535297628, 
			 "HOMO_LUMO_gap": 0.22138, 
			 "cosmo_polarized_energy": -8.74, 
			 "cosmo_cavitation_energy": 23.64, 
			 "cosmo_dispersion_energy": -17.47, 
			 "cosmo_repulsion_energy": 1.39, 
			 "cosmo_total_nonelectrostatic_energy": 7.55, 
			 "SMD_solvation_energy": 5.21 
		},
		"coords": [
			{
				"x": -0.4173468493,
				"y": 1.7742582982,
				"z": 3.5881299378,
				"element": "C" 
			},
			{
				"x": -1.1635819606,
				"y": 0.7500852766,
				"z": 2.9434092428,
				"element": "O" 
			},
			{
				"x": -0.5548755402,
				"y": 0.018549071,
				"z": 1.9530648337,
				"element": "C" 
			},
			{
				"x": 0.7522100161,
				"y": 0.2388241521,
				"z": 1.511338278,
				"element": "C" 
			},
			{
				"x": 1.273139852,
				"y": -0.5649782924,
				"z": 0.4920146022,
				"element": "C" 
			},
			{
				"x": 0.5097132375,
				"y": -1.5746045608,
				"z": -0.0834618102,
				"element": "C" 
			},
			{
				"x": -0.7893132401,
				"y": -1.7602881254,
				"z": 0.3844008053,
				"element": "C" 
			},
			{
				"x": -1.528457648,
				"y": -2.7475402636,
				"z": -0.1722573417,
				"element": "F" 
			},
			{
				"x": -1.3602000909,
				"y": -0.9954965074,
				"z": 1.3955970873,
				"element": "C" 
			},
			{
				"x": -2.7774315828,
				"y": -1.2214553498,
				"z": 1.885719339,
				"element": "C" 
			},
			{
				"x": -3.6090658337,
				"y": -0.0779215045,
				"z": 1.7534076887,
				"element": "O" 
			},
			{
				"x": -0.116899384,
				"y": 2.5578541778,
				"z": 2.8819734147,
				"element": "H" 
			},
			{
				"x": 0.474466238,
				"y": 1.3683208122,
				"z": 4.0802449733,
				"element": "H" 
			},
			{
				"x": -1.0809666075,
				"y": 2.2020162873,
				"z": 4.3408866667,
				"element": "H" 
			},
			{
				"x": 1.3639699839,
				"y": 1.021253399,
				"z": 1.9425973385,
				"element": "H" 
			},
			{
				"x": 2.2885294579,
				"y": -0.3949175008,
				"z": 0.1473982084,
				"element": "H" 
			},
			{
				"x": 0.8904864063,
				"y": -2.2100125213,
				"z": -0.8746774208,
				"element": "H" 
			},
			{
				"x": -3.2390371952,
				"y": -2.0138392915,
				"z": 1.2947286265,
				"element": "H" 
			},
			{
				"x": -2.741850844,
				"y": -1.5652765425,
				"z": 2.9317987039,
				"element": "H" 
			},
			{
				"x": -3.1951884153,
				"y": 0.6134689859,
				"z": 2.2883868257,
				"element": "H" 
			}
		],
		 "valence_orbital": [ 
			{
				"type": "occ",
				"energy": -0.32646,
				"method": "rhf"
			},
			{
				"type": "occ",
				"energy": -0.31625,
				"method": "rhf"
			},
			{
				"type": "occ",
				"energy": -0.25776,
				"method": "rhf"
			},
			{
				"type": "occ",
				"energy": -0.24502,
				"method": "rhf"
			},
			{
				"type": "occ",
				"energy": -0.23113,
				"method": "rhf"
			},
			{
				"type": "unocc",
				"energy": -0.00975,
				"method": "rhf"
			},
			{
				"type": "unocc",
				"energy": 0.00774,
				"method": "rhf"
			},
			{
				"type": "unocc",
				"energy": 0.07653,
				"method": "rhf"
			},
			{
				"type": "unocc",
				"energy": 0.08692,
				"method": "rhf"
			},
			{
				"type": "unocc",
				"energy": 0.11052,
				"method": "rhf"
			}
		],
		"cosmo_sigma_profile": { 
			"-0.025": 0.0,
			"-0.024": 0.0,
			"-0.023": 0.0,
			"-0.022": 0.0,
			"-0.021": 0.0,
			"-0.02": 0.0,
			"-0.019": 0.0,
			"-0.018": 0.0,
			"-0.017": 0.0,
			"-0.016": 0.0,
			"-0.015": 0.0,
			"-0.014": 0.0,
			"-0.013": 0.0,
			"-0.012": 0.0,
			"-0.011": 0.0412524958442,
			"-0.01": 0.421313800584,
			"-0.009": 0.53716765943,
			"-0.008": 0.746970352143,
			"-0.007": 3.20340269856,
			"-0.006": 12.9765363901,
			"-0.005": 16.1756700109,
			"-0.004": 18.9928751925,
			"-0.003": 15.8282341717,
			"-0.002": 13.8783386501,
			"-0.001": 11.5452251237,
			"0.0": 10.4720623597,
			"0.001": 13.5546340295,
			"0.002": 12.2885571275,
			"0.003": 15.4869092832,
			"0.004": 17.3692692861,
			"0.005": 9.00131041448,
			"0.006": 2.22910760403,
			"0.007": 1.33827150768,
			"0.008": 1.38348491226,
			"0.009": 1.27289458193,
			"0.01": 1.11288170321,
			"0.011": 1.32295865938,
			"0.012": 1.6372986346,
			"0.013": 1.16340993071,
			"0.014": 2.81004974595,
			"0.015": 0.935302767985,
			"0.016": 0.0,
			"0.017": 0.0,
			"0.018": 0.0,
			"0.019": 0.0,
			"0.02": 0.0,
			"0.021": 0.0,
			"0.022": 0.0,
			"0.023": 0.0,
			"0.024": 0.0,
			"0.025": 0.0
		}
	}
}
