{
	 "smiles": "CC1=NN(CC(F)(F)F)C=C1C(O)=O", 
	 "Tm": 393.15, 
	 "num_atms": 21, 
	 "gaussian": { 
		 "optdone": 1, 
		 "sigma_profile": "yes", 
		 "theory": "DFT", 
		 "functional": "B3LYP", 
		 "basiset": "6-31G**", 
		 "properties": { 
			 "R2extent": 3486.584, 
			 "electric_dipole_moment_norm": 1.57792556225, 
			 "electric_quadrupole_moment_norm": 11.0222607282, 
			 "total_energy": -830.4453846, 
			 "HOMO_LUMO_gap": 0.23171, 
			 "cosmo_polarized_energy": -13.2, 
			 "cosmo_cavitation_energy": 27.7, 
			 "cosmo_dispersion_energy": -19.25, 
			 "cosmo_repulsion_energy": 1.48, 
			 "cosmo_total_nonelectrostatic_energy": 9.94, 
			 "SMD_solvation_energy": 6.43 
		},
		"coords": [
			{
				"x": 0.3628128975,
				"y": -3.5132911722,
				"z": -0.2905827947,
				"element": "C" 
			},
			{
				"x": 0.030915373,
				"y": -2.0577927882,
				"z": -0.1826326894,
				"element": "C" 
			},
			{
				"x": -1.1401800854,
				"y": -1.6071928973,
				"z": -0.6190104676,
				"element": "N" 
			},
			{
				"x": -1.1288561036,
				"y": -0.2645130412,
				"z": -0.3662096611,
				"element": "N" 
			},
			{
				"x": -2.2550571334,
				"y": 0.5380668981,
				"z": -0.7797580015,
				"element": "C" 
			},
			{
				"x": -2.001884051,
				"y": 1.2717475877,
				"z": -2.0920799265,
				"element": "C" 
			},
			{
				"x": -1.7383349895,
				"y": 0.4277576919,
				"z": -3.099762773,
				"element": "F" 
			},
			{
				"x": -0.9589256504,
				"y": 2.1220148498,
				"z": -1.978219927,
				"element": "F" 
			},
			{
				"x": -3.0929554951,
				"y": 1.9951004058,
				"z": -2.4174364728,
				"element": "F" 
			},
			{
				"x": 0.0232968728,
				"y": 0.1428567897,
				"z": 0.2082775522,
				"element": "C" 
			},
			{
				"x": 0.8122730122,
				"y": -0.9865161547,
				"z": 0.3549143823,
				"element": "C" 
			},
			{
				"x": 2.1452667265,
				"y": -0.9629915017,
				"z": 0.9581684454,
				"element": "C" 
			},
			{
				"x": 2.7323638058,
				"y": -2.1883657345,
				"z": 0.9923927199,
				"element": "O" 
			},
			{
				"x": 2.6965941877,
				"y": 0.0312161891,
				"z": 1.3920105865,
				"element": "O" 
			},
			{
				"x": -0.4723913399,
				"y": -4.0442426083,
				"z": -0.7513304748,
				"element": "H" 
			},
			{
				"x": 1.2622531349,
				"y": -3.6670891844,
				"z": -0.8940738859,
				"element": "H" 
			},
			{
				"x": 0.5641980364,
				"y": -3.9455457288,
				"z": 0.6940493319,
				"element": "H" 
			},
			{
				"x": -2.4917904885,
				"y": 1.2853005357,
				"z": -0.0180346254,
				"element": "H" 
			},
			{
				"x": -3.1078516142,
				"y": -0.1286741659,
				"z": -0.9096820111,
				"element": "H" 
			},
			{
				"x": 0.2210144445,
				"y": 1.1716435004,
				"z": 0.4692103433,
				"element": "H" 
			},
			{
				"x": 3.6003384597,
				"y": -2.0491894713,
				"z": 1.4064903493,
				"element": "H" 
			}
		],
		 "valence_orbital": [ 
			{
				"type": "occ",
				"energy": -0.31827,
				"method": "rhf"
			},
			{
				"type": "occ",
				"energy": -0.31134,
				"method": "rhf"
			},
			{
				"type": "occ",
				"energy": -0.27251,
				"method": "rhf"
			},
			{
				"type": "occ",
				"energy": -0.26504,
				"method": "rhf"
			},
			{
				"type": "occ",
				"energy": -0.2613,
				"method": "rhf"
			},
			{
				"type": "unocc",
				"energy": -0.02959,
				"method": "rhf"
			},
			{
				"type": "unocc",
				"energy": 0.00986,
				"method": "rhf"
			},
			{
				"type": "unocc",
				"energy": 0.07894,
				"method": "rhf"
			},
			{
				"type": "unocc",
				"energy": 0.08584,
				"method": "rhf"
			},
			{
				"type": "unocc",
				"energy": 0.09417,
				"method": "rhf"
			}
		],
		"cosmo_sigma_profile": { 
			"-0.025": 0.0,
			"-0.024": 0.0,
			"-0.023": 0.0,
			"-0.022": 0.0,
			"-0.021": 0.0,
			"-0.02": 0.0,
			"-0.019": 0.0201405159605,
			"-0.018": 0.740960590401,
			"-0.017": 0.725990940976,
			"-0.016": 1.11771752903,
			"-0.015": 0.910344400037,
			"-0.014": 0.225319549204,
			"-0.013": 0.440276324884,
			"-0.012": 0.392068993185,
			"-0.011": 2.52927843562,
			"-0.01": 6.29446453228,
			"-0.009": 6.24307206736,
			"-0.008": 4.85760036207,
			"-0.007": 5.55143667576,
			"-0.006": 5.66084077532,
			"-0.005": 5.92811373704,
			"-0.004": 7.79045081113,
			"-0.003": 9.21225416949,
			"-0.002": 13.6175475738,
			"-0.001": 18.1171871458,
			"0.0": 19.8490596361,
			"0.001": 18.7061664044,
			"0.002": 33.044780854,
			"0.003": 18.329774145,
			"0.004": 5.78614259686,
			"0.005": 5.66710932956,
			"0.006": 5.69273294953,
			"0.007": 3.32751840777,
			"0.008": 2.47395267498,
			"0.009": 1.85334161936,
			"0.01": 3.16643227418,
			"0.011": 3.85587038979,
			"0.012": 6.2380914856,
			"0.013": 1.53272094251,
			"0.014": 0.613800217718,
			"0.015": 0.0579321753403,
			"0.016": 0.0,
			"0.017": 0.0,
			"0.018": 0.0,
			"0.019": 0.0,
			"0.02": 0.0,
			"0.021": 0.0,
			"0.022": 0.0,
			"0.023": 0.0,
			"0.024": 0.0,
			"0.025": 0.0
		}
	}
}
