{
	 "smiles": "CCC(C)C(C)S(N)(=O)=O", 
	 "Tm": 318.15, 
	 "num_atms": 25, 
	 "gaussian": { 
		 "optdone": 1, 
		 "sigma_profile": "yes", 
		 "theory": "DFT", 
		 "functional": "B3LYP", 
		 "basiset": "6-31G**", 
		 "properties": { 
			 "R2extent": 1914.4304, 
			 "electric_dipole_moment_norm": 3.02867361893, 
			 "electric_quadrupole_moment_norm": 10.7669466252, 
			 "total_energy": -841.018151028, 
			 "HOMO_LUMO_gap": 0.33724, 
			 "cosmo_polarized_energy": -12.99, 
			 "cosmo_cavitation_energy": 26.43, 
			 "cosmo_dispersion_energy": -19.66, 
			 "cosmo_repulsion_energy": 1.54, 
			 "cosmo_total_nonelectrostatic_energy": 8.31, 
			 "SMD_solvation_energy": 4.39 
		},
		"coords": [
			{
				"x": 1.2175760317,
				"y": 1.1807182419,
				"z": 1.5140818222,
				"element": "C" 
			},
			{
				"x": -0.1134771735,
				"y": 0.4352339923,
				"z": 1.3609108706,
				"element": "C" 
			},
			{
				"x": -0.8716209537,
				"y": 0.6132436097,
				"z": 0.0234397491,
				"element": "C" 
			},
			{
				"x": -2.2879265999,
				"y": 0.0202664353,
				"z": 0.1397249861,
				"element": "C" 
			},
			{
				"x": -0.1666622417,
				"y": 0.117719295,
				"z": -1.277507749,
				"element": "C" 
			},
			{
				"x": 0.8431285647,
				"y": 1.095045266,
				"z": -1.8885034471,
				"element": "C" 
			},
			{
				"x": 0.6139130403,
				"y": -1.5317118539,
				"z": -1.0906672099,
				"element": "S" 
			},
			{
				"x": 0.8501715058,
				"y": -1.9809869559,
				"z": -2.7181466428,
				"element": "N" 
			},
			{
				"x": 1.9502350171,
				"y": -1.3812673793,
				"z": -0.4976315161,
				"element": "O" 
			},
			{
				"x": -0.3700434307,
				"y": -2.4626161957,
				"z": -0.5194713857,
				"element": "O" 
			},
			{
				"x": 1.1177597054,
				"y": 2.2405888271,
				"z": 1.2511796353,
				"element": "H" 
			},
			{
				"x": 1.5566248766,
				"y": 1.1323772638,
				"z": 2.5542576695,
				"element": "H" 
			},
			{
				"x": 2.0021612483,
				"y": 0.7372806022,
				"z": 0.8975481285,
				"element": "H" 
			},
			{
				"x": -0.7990090445,
				"y": 0.7844791605,
				"z": 2.143377612,
				"element": "H" 
			},
			{
				"x": 0.0361510372,
				"y": -0.6328891911,
				"z": 1.5561108984,
				"element": "H" 
			},
			{
				"x": -0.9821485027,
				"y": 1.6957509997,
				"z": -0.1384973682,
				"element": "H" 
			},
			{
				"x": -2.8745273047,
				"y": 0.2113268632,
				"z": -0.7660317439,
				"element": "H" 
			},
			{
				"x": -2.2482963829,
				"y": -1.0604401279,
				"z": 0.2966689217,
				"element": "H" 
			},
			{
				"x": -2.8221738089,
				"y": 0.4720300618,
				"z": 0.9817217786,
				"element": "H" 
			},
			{
				"x": -0.9437063915,
				"y": -0.0865299949,
				"z": -2.022534985,
				"element": "H" 
			},
			{
				"x": 1.6875287562,
				"y": 1.2791163725,
				"z": -1.2241369959,
				"element": "H" 
			},
			{
				"x": 0.3395691519,
				"y": 2.0476968215,
				"z": -2.0801318797,
				"element": "H" 
			},
			{
				"x": 1.2228308422,
				"y": 0.717898298,
				"z": -2.8415721436,
				"element": "H" 
			},
			{
				"x": 0.2855884938,
				"y": -2.8042326077,
				"z": -2.9139407153,
				"element": "H" 
			},
			{
				"x": 1.8376535635,
				"y": -2.1815978039,
				"z": -2.8562482898,
				"element": "H" 
			}
		],
		 "valence_orbital": [ 
			{
				"type": "occ",
				"energy": -0.32045,
				"method": "rhf"
			},
			{
				"type": "occ",
				"energy": -0.31148,
				"method": "rhf"
			},
			{
				"type": "occ",
				"energy": -0.30433,
				"method": "rhf"
			},
			{
				"type": "occ",
				"energy": -0.29768,
				"method": "rhf"
			},
			{
				"type": "occ",
				"energy": -0.28331,
				"method": "rhf"
			},
			{
				"type": "unocc",
				"energy": 0.05393,
				"method": "rhf"
			},
			{
				"type": "unocc",
				"energy": 0.06149,
				"method": "rhf"
			},
			{
				"type": "unocc",
				"energy": 0.07913,
				"method": "rhf"
			},
			{
				"type": "unocc",
				"energy": 0.08687,
				"method": "rhf"
			},
			{
				"type": "unocc",
				"energy": 0.1011,
				"method": "rhf"
			}
		],
		"cosmo_sigma_profile": { 
			"-0.025": 0.0,
			"-0.024": 0.0,
			"-0.023": 0.0,
			"-0.022": 0.0,
			"-0.021": 0.0,
			"-0.02": 0.0,
			"-0.019": 0.0,
			"-0.018": 0.0,
			"-0.017": 0.0,
			"-0.016": 0.0,
			"-0.015": 0.120621211133,
			"-0.014": 2.43884770863,
			"-0.013": 1.95328364528,
			"-0.012": 2.7792812319,
			"-0.011": 2.27869370597,
			"-0.01": 2.31938049067,
			"-0.009": 1.76010368644,
			"-0.008": 0.966482708423,
			"-0.007": 2.98741439088,
			"-0.006": 3.93901195744,
			"-0.005": 7.0913079094,
			"-0.004": 9.7619167687,
			"-0.003": 18.8251830802,
			"-0.002": 22.6192391743,
			"-0.001": 25.0871562938,
			"0.0": 22.2926306063,
			"0.001": 20.5146909261,
			"0.002": 9.91955672052,
			"0.003": 4.25384697014,
			"0.004": 3.62313078416,
			"0.005": 4.36454357143,
			"0.006": 4.2407437548,
			"0.007": 3.71547228153,
			"0.008": 3.86746695893,
			"0.009": 4.58605104462,
			"0.01": 4.49819947203,
			"0.011": 7.80785126542,
			"0.012": 5.22813739692,
			"0.013": 0.504591313862,
			"0.014": 0.0,
			"0.015": 0.0,
			"0.016": 0.0,
			"0.017": 0.0,
			"0.018": 0.0,
			"0.019": 0.0,
			"0.02": 0.0,
			"0.021": 0.0,
			"0.022": 0.0,
			"0.023": 0.0,
			"0.024": 0.0,
			"0.025": 0.0
		}
	}
}
