{
	 "smiles": "CC1=CC(C)=C(N)C(=C1)[N+]([O-])=O", 
	 "Tm": 340.15, 
	 "num_atms": 22, 
	 "gaussian": { 
		 "optdone": 1, 
		 "sigma_profile": "yes", 
		 "theory": "DFT", 
		 "functional": "B3LYP", 
		 "basiset": "6-31G**", 
		 "properties": { 
			 "R2extent": 2389.019, 
			 "electric_dipole_moment_norm": 5.14569459354, 
			 "electric_quadrupole_moment_norm": 14.8384675122, 
			 "total_energy": -570.752659506, 
			 "HOMO_LUMO_gap": 0.13721, 
			 "cosmo_polarized_energy": -10.88, 
			 "cosmo_cavitation_energy": 25.41, 
			 "cosmo_dispersion_energy": -19.04, 
			 "cosmo_repulsion_energy": 1.51, 
			 "cosmo_total_nonelectrostatic_energy": 7.88, 
			 "SMD_solvation_energy": 6.32 
		},
		"coords": [
			{
				"x": -0.8971849151,
				"y": -3.5194836424,
				"z": 0.6870954508,
				"element": "C" 
			},
			{
				"x": -0.5230420108,
				"y": -2.1345363087,
				"z": 0.2170022838,
				"element": "C" 
			},
			{
				"x": 0.4881418203,
				"y": -1.3980352097,
				"z": 0.8715122878,
				"element": "C" 
			},
			{
				"x": 0.8697966998,
				"y": -0.1245758794,
				"z": 0.487007551,
				"element": "C" 
			},
			{
				"x": 1.9512411804,
				"y": 0.6205604672,
				"z": 1.2293866729,
				"element": "C" 
			},
			{
				"x": 0.2272560182,
				"y": 0.5020425516,
				"z": -0.6261216256,
				"element": "C" 
			},
			{
				"x": 0.5861553684,
				"y": 1.7637256108,
				"z": -0.9853078758,
				"element": "N" 
			},
			{
				"x": -0.7868486466,
				"y": -0.2433808902,
				"z": -1.2860109356,
				"element": "C" 
			},
			{
				"x": -1.1464376262,
				"y": -1.5350615373,
				"z": -0.8603732867,
				"element": "C" 
			},
			{
				"x": -1.4941919481,
				"y": 0.2805797446,
				"z": -2.4367922906,
				"element": "N" 
			},
			{
				"x": -1.2043973733,
				"y": 1.4169334104,
				"z": -2.8632368818,
				"element": "O" 
			},
			{
				"x": -2.3629202256,
				"y": -0.4168504411,
				"z": -2.963554756,
				"element": "O" 
			},
			{
				"x": -1.2544349629,
				"y": -3.5093552356,
				"z": 1.7237491591,
				"element": "H" 
			},
			{
				"x": -0.040035118,
				"y": -4.2022263718,
				"z": 0.6494114111,
				"element": "H" 
			},
			{
				"x": -1.6896525277,
				"y": -3.946335961,
				"z": 0.0668951141,
				"element": "H" 
			},
			{
				"x": 0.9947011317,
				"y": -1.8483229148,
				"z": 1.7231518179,
				"element": "H" 
			},
			{
				"x": 1.5819835005,
				"y": 1.5684865193,
				"z": 1.6421800516,
				"element": "H" 
			},
			{
				"x": 2.3321857441,
				"y": 0.0248538772,
				"z": 2.0618004026,
				"element": "H" 
			},
			{
				"x": 2.8063319455,
				"y": 0.8581243984,
				"z": 0.5814125176,
				"element": "H" 
			},
			{
				"x": 1.4044252963,
				"y": 2.183267736,
				"z": -0.5801312763,
				"element": "H" 
			},
			{
				"x": 0.1718838199,
				"y": 2.1426453987,
				"z": -1.8254963294,
				"element": "H" 
			},
			{
				"x": -1.9288571708,
				"y": -2.0413553221,
				"z": -1.4115794627,
				"element": "H" 
			}
		],
		 "valence_orbital": [ 
			{
				"type": "occ",
				"energy": -0.29707,
				"method": "rhf"
			},
			{
				"type": "occ",
				"energy": -0.29557,
				"method": "rhf"
			},
			{
				"type": "occ",
				"energy": -0.27775,
				"method": "rhf"
			},
			{
				"type": "occ",
				"energy": -0.26322,
				"method": "rhf"
			},
			{
				"type": "occ",
				"energy": -0.21261,
				"method": "rhf"
			},
			{
				"type": "unocc",
				"energy": -0.0754,
				"method": "rhf"
			},
			{
				"type": "unocc",
				"energy": 0.00199,
				"method": "rhf"
			},
			{
				"type": "unocc",
				"energy": 0.01423,
				"method": "rhf"
			},
			{
				"type": "unocc",
				"energy": 0.07122,
				"method": "rhf"
			},
			{
				"type": "unocc",
				"energy": 0.097,
				"method": "rhf"
			}
		],
		"cosmo_sigma_profile": { 
			"-0.025": 0.0,
			"-0.024": 0.0,
			"-0.023": 0.0,
			"-0.022": 0.0,
			"-0.021": 0.0,
			"-0.02": 0.0,
			"-0.019": 0.0,
			"-0.018": 0.0,
			"-0.017": 0.0,
			"-0.016": 0.0,
			"-0.015": 0.0,
			"-0.014": 0.206676256204,
			"-0.013": 1.13397615514,
			"-0.012": 0.775816973946,
			"-0.011": 1.52125322885,
			"-0.01": 1.72398010887,
			"-0.009": 2.87539197459,
			"-0.008": 1.70877563312,
			"-0.007": 2.26024018465,
			"-0.006": 5.9913962057,
			"-0.005": 10.6662622742,
			"-0.004": 16.0740819729,
			"-0.003": 18.6632140959,
			"-0.002": 16.6233352622,
			"-0.001": 17.8513493651,
			"0.0": 20.5003240886,
			"0.001": 16.6331442551,
			"0.002": 14.0685257517,
			"0.003": 11.7991780851,
			"0.004": 8.89381551365,
			"0.005": 3.63694620705,
			"0.006": 3.40430892075,
			"0.007": 4.30921323878,
			"0.008": 4.62425982376,
			"0.009": 6.81241392437,
			"0.01": 4.0414774375,
			"0.011": 3.58761798532,
			"0.012": 0.90572738109,
			"0.013": 0.0,
			"0.014": 0.0,
			"0.015": 0.0,
			"0.016": 0.0,
			"0.017": 0.0,
			"0.018": 0.0,
			"0.019": 0.0,
			"0.02": 0.0,
			"0.021": 0.0,
			"0.022": 0.0,
			"0.023": 0.0,
			"0.024": 0.0,
			"0.025": 0.0
		}
	}
}
