{
	 "smiles": "O=C1CCCC2=C1NC1=C2C=CC=C1", 
	 "Tm": 443.15, 
	 "num_atms": 25, 
	 "gaussian": { 
		 "optdone": 1, 
		 "sigma_profile": "yes", 
		 "theory": "DFT", 
		 "functional": "B3LYP", 
		 "basiset": "6-31G**", 
		 "properties": { 
			 "R2extent": 3025.7753, 
			 "electric_dipole_moment_norm": 2.10773426456, 
			 "electric_quadrupole_moment_norm": 15.9142870224, 
			 "total_energy": -593.907302797, 
			 "HOMO_LUMO_gap": 0.15736, 
			 "cosmo_polarized_energy": -9.95, 
			 "cosmo_cavitation_energy": 27.78, 
			 "cosmo_dispersion_energy": -20.83, 
			 "cosmo_repulsion_energy": 1.63, 
			 "cosmo_total_nonelectrostatic_energy": 8.57, 
			 "SMD_solvation_energy": 4.18 
		},
		"coords": [
			{
				"x": -0.5456596681,
				"y": -0.0314549595,
				"z": 4.1407663057,
				"element": "O" 
			},
			{
				"x": 0.2714087663,
				"y": 0.0713323809,
				"z": 3.2309034316,
				"element": "C" 
			},
			{
				"x": 1.7410053031,
				"y": 0.4234428393,
				"z": 3.4525473182,
				"element": "C" 
			},
			{
				"x": 2.6735101907,
				"y": -0.134140433,
				"z": 2.3597839462,
				"element": "C" 
			},
			{
				"x": 2.23636242,
				"y": 0.2776062887,
				"z": 0.9384918631,
				"element": "C" 
			},
			{
				"x": 0.7721213593,
				"y": 0.0069751543,
				"z": 0.7525686897,
				"element": "C" 
			},
			{
				"x": -0.0896163182,
				"y": -0.0899422353,
				"z": 1.8302124559,
				"element": "C" 
			},
			{
				"x": -1.3739354237,
				"y": -0.345952452,
				"z": 1.3893060533,
				"element": "N" 
			},
			{
				"x": -1.365719933,
				"y": -0.4143469907,
				"z": 0.0180814909,
				"element": "C" 
			},
			{
				"x": -0.0222437164,
				"y": -0.1931008007,
				"z": -0.4224755165,
				"element": "C" 
			},
			{
				"x": 0.2578088349,
				"y": -0.2164689436,
				"z": -1.8029257764,
				"element": "C" 
			},
			{
				"x": -0.7764262155,
				"y": -0.4520959258,
				"z": -2.6949590131,
				"element": "C" 
			},
			{
				"x": -2.0968282867,
				"y": -0.6675249878,
				"z": -2.2383097564,
				"element": "C" 
			},
			{
				"x": -2.4097622655,
				"y": -0.6529948509,
				"z": -0.886234312,
				"element": "C" 
			},
			{
				"x": 2.0266846449,
				"y": 0.0730655356,
				"z": 4.4487673336,
				"element": "H" 
			},
			{
				"x": 1.8067422815,
				"y": 1.5217710347,
				"z": 3.4744638032,
				"element": "H" 
			},
			{
				"x": 2.6766952774,
				"y": -1.2294333906,
				"z": 2.4220868363,
				"element": "H" 
			},
			{
				"x": 3.7007205692,
				"y": 0.1966512041,
				"z": 2.5476044703,
				"element": "H" 
			},
			{
				"x": 2.4458599681,
				"y": 1.3466722438,
				"z": 0.7805930449,
				"element": "H" 
			},
			{
				"x": 2.8306820654,
				"y": -0.2608277739,
				"z": 0.1907251622,
				"element": "H" 
			},
			{
				"x": -2.1596389749,
				"y": -0.4527197605,
				"z": 2.0121098523,
				"element": "H" 
			},
			{
				"x": 1.2700175851,
				"y": -0.0504846527,
				"z": -2.1610115945,
				"element": "H" 
			},
			{
				"x": -0.5754162862,
				"y": -0.4721558053,
				"z": -3.7618287491,
				"element": "H" 
			},
			{
				"x": -2.8848569545,
				"y": -0.8493645017,
				"z": -2.9633008784,
				"element": "H" 
			},
			{
				"x": -3.4260152233,
				"y": -0.8201082174,
				"z": -0.5416664612,
				"element": "H" 
			}
		],
		 "valence_orbital": [ 
			{
				"type": "occ",
				"energy": -0.32806,
				"method": "rhf"
			},
			{
				"type": "occ",
				"energy": -0.27877,
				"method": "rhf"
			},
			{
				"type": "occ",
				"energy": -0.24292,
				"method": "rhf"
			},
			{
				"type": "occ",
				"energy": -0.22769,
				"method": "rhf"
			},
			{
				"type": "occ",
				"energy": -0.2107,
				"method": "rhf"
			},
			{
				"type": "unocc",
				"energy": -0.05334,
				"method": "rhf"
			},
			{
				"type": "unocc",
				"energy": 0.01196,
				"method": "rhf"
			},
			{
				"type": "unocc",
				"energy": 0.02598,
				"method": "rhf"
			},
			{
				"type": "unocc",
				"energy": 0.08032,
				"method": "rhf"
			},
			{
				"type": "unocc",
				"energy": 0.09492,
				"method": "rhf"
			}
		],
		"cosmo_sigma_profile": { 
			"-0.025": 0.0,
			"-0.024": 0.0,
			"-0.023": 0.0,
			"-0.022": 0.0,
			"-0.021": 0.0,
			"-0.02": 0.0,
			"-0.019": 0.0,
			"-0.018": 0.0,
			"-0.017": 0.0,
			"-0.016": 0.0366491824022,
			"-0.015": 0.682585992458,
			"-0.014": 1.0203077023,
			"-0.013": 1.00345760141,
			"-0.012": 0.926093370429,
			"-0.011": 0.618199555799,
			"-0.01": 1.12190092899,
			"-0.009": 0.975732180614,
			"-0.008": 1.44723081459,
			"-0.007": 1.59286443357,
			"-0.006": 5.30845063505,
			"-0.005": 11.9017309535,
			"-0.004": 21.0053244944,
			"-0.003": 27.3716931091,
			"-0.002": 23.097664712,
			"-0.001": 21.5907064696,
			"0.0": 14.8272842499,
			"0.001": 10.5283246031,
			"0.002": 10.0784436399,
			"0.003": 15.5624983199,
			"0.004": 13.4988366728,
			"0.005": 10.4584815819,
			"0.006": 8.99498080538,
			"0.007": 1.60401984174,
			"0.008": 1.03641635842,
			"0.009": 1.83318789255,
			"0.01": 1.76636371969,
			"0.011": 2.12620264397,
			"0.012": 3.75091889359,
			"0.013": 3.46123918133,
			"0.014": 1.22045936672,
			"0.015": 0.100428548843,
			"0.016": 0.0,
			"0.017": 0.0,
			"0.018": 0.0,
			"0.019": 0.0,
			"0.02": 0.0,
			"0.021": 0.0,
			"0.022": 0.0,
			"0.023": 0.0,
			"0.024": 0.0,
			"0.025": 0.0
		}
	}
}
