{
	 "smiles": "[O-][N+](=O)C1=CC(Cl)=CC=C1", 
	 "Tm": 317.65, 
	 "num_atms": 14, 
	 "gaussian": { 
		 "optdone": 1, 
		 "sigma_profile": "yes", 
		 "theory": "DFT", 
		 "functional": "B3LYP", 
		 "basiset": "6-31G**", 
		 "properties": { 
			 "R2extent": 2302.6522, 
			 "electric_dipole_moment_norm": 3.83223873082, 
			 "electric_quadrupole_moment_norm": 7.64456648542, 
			 "total_energy": -896.337964252, 
			 "HOMO_LUMO_gap": 0.17501, 
			 "cosmo_polarized_energy": -7.38, 
			 "cosmo_cavitation_energy": 21.1, 
			 "cosmo_dispersion_energy": -15.81, 
			 "cosmo_repulsion_energy": 1.28, 
			 "cosmo_total_nonelectrostatic_energy": 6.57, 
			 "SMD_solvation_energy": 5.71 
		},
		"coords": [
			{
				"x": 0.5303993151,
				"y": -2.6097297282,
				"z": 0.8233141178,
				"element": "O" 
			},
			{
				"x": -0.0922671544,
				"y": -2.13020282,
				"z": -0.1223028106,
				"element": "N" 
			},
			{
				"x": -0.2404562916,
				"y": -2.6713637303,
				"z": -1.2162538611,
				"element": "O" 
			},
			{
				"x": -0.7082578017,
				"y": -0.8036945258,
				"z": 0.0723621389,
				"element": "C" 
			},
			{
				"x": -1.4181917235,
				"y": -0.2433462808,
				"z": -0.9872135054,
				"element": "C" 
			},
			{
				"x": -1.9937781437,
				"y": 1.0085132998,
				"z": -0.7891586616,
				"element": "C" 
			},
			{
				"x": -2.8959482091,
				"y": 1.7520457551,
				"z": -2.0940402237,
				"element": "Cl" 
			},
			{
				"x": -1.8652692063,
				"y": 1.6812366119,
				"z": 0.4287743745,
				"element": "C" 
			},
			{
				"x": -1.1461190181,
				"y": 1.0877563183,
				"z": 1.4678940484,
				"element": "C" 
			},
			{
				"x": -0.5581188778,
				"y": -0.164644051,
				"z": 1.3006242449,
				"element": "C" 
			},
			{
				"x": -1.5088365106,
				"y": -0.7766462913,
				"z": -1.9241734628,
				"element": "H" 
			},
			{
				"x": -2.3235744328,
				"y": 2.6555554018,
				"z": 0.5566353298,
				"element": "H" 
			},
			{
				"x": -1.0452703542,
				"y": 1.6087770917,
				"z": 2.4145136808,
				"element": "H" 
			},
			{
				"x": 0.0046884085,
				"y": -0.6479570513,
				"z": 2.0887245901,
				"element": "H" 
			}
		],
		 "valence_orbital": [ 
			{
				"type": "occ",
				"energy": -0.31862,
				"method": "rhf"
			},
			{
				"type": "occ",
				"energy": -0.31527,
				"method": "rhf"
			},
			{
				"type": "occ",
				"energy": -0.30029,
				"method": "rhf"
			},
			{
				"type": "occ",
				"energy": -0.29582,
				"method": "rhf"
			},
			{
				"type": "occ",
				"energy": -0.27422,
				"method": "rhf"
			},
			{
				"type": "unocc",
				"energy": -0.09921,
				"method": "rhf"
			},
			{
				"type": "unocc",
				"energy": -0.04111,
				"method": "rhf"
			},
			{
				"type": "unocc",
				"energy": -0.01204,
				"method": "rhf"
			},
			{
				"type": "unocc",
				"energy": 0.00909,
				"method": "rhf"
			},
			{
				"type": "unocc",
				"energy": 0.09075,
				"method": "rhf"
			}
		],
		"cosmo_sigma_profile": { 
			"-0.025": 0.0,
			"-0.024": 0.0,
			"-0.023": 0.0,
			"-0.022": 0.0,
			"-0.021": 0.0,
			"-0.02": 0.0,
			"-0.019": 0.0,
			"-0.018": 0.0,
			"-0.017": 0.0,
			"-0.016": 0.0,
			"-0.015": 0.0,
			"-0.014": 0.0,
			"-0.013": 0.0,
			"-0.012": 0.0,
			"-0.011": 0.0,
			"-0.01": 0.0,
			"-0.009": 0.996579929686,
			"-0.008": 5.93285716913,
			"-0.007": 9.7732714437,
			"-0.006": 7.41193272535,
			"-0.005": 7.30170007627,
			"-0.004": 8.1422091417,
			"-0.003": 9.55378343131,
			"-0.002": 13.3435990794,
			"-0.001": 17.2657292839,
			"0.0": 21.0279096194,
			"0.001": 14.0338660669,
			"0.002": 9.21005941696,
			"0.003": 9.01898925503,
			"0.004": 10.7702012963,
			"0.005": 3.85743832527,
			"0.006": 4.62379087318,
			"0.007": 8.96388726755,
			"0.008": 5.790414004,
			"0.009": 4.09569843895,
			"0.01": 1.39732505298,
			"0.011": 0.0,
			"0.012": 0.0,
			"0.013": 0.0,
			"0.014": 0.0,
			"0.015": 0.0,
			"0.016": 0.0,
			"0.017": 0.0,
			"0.018": 0.0,
			"0.019": 0.0,
			"0.02": 0.0,
			"0.021": 0.0,
			"0.022": 0.0,
			"0.023": 0.0,
			"0.024": 0.0,
			"0.025": 0.0
		}
	}
}
