{
	 "smiles": "BrC1=CN(C2=C1C=CC=C2)S(=O)(=O)C1=CC=CC=C1", 
	 "Tm": 393.15, 
	 "num_atms": 29, 
	 "gaussian": { 
		 "optdone": 1, 
		 "sigma_profile": "yes", 
		 "theory": "DFT", 
		 "functional": "B3LYP", 
		 "basiset": "6-31G**", 
		 "properties": { 
			 "R2extent": 8831.8876, 
			 "electric_dipole_moment_norm": 4.86342650094, 
			 "electric_quadrupole_moment_norm": 10.7703990581, 
			 "total_energy": -3714.22933551, 
			 "HOMO_LUMO_gap": 0.1638, 
			 "cosmo_polarized_energy": -11.14, 
			 "cosmo_cavitation_energy": 36.92, 
			 "cosmo_dispersion_energy": -26.71, 
			 "cosmo_repulsion_energy": 2.01, 
			 "cosmo_total_nonelectrostatic_energy": 12.21, 
			 "SMD_solvation_energy": 4.3 
		},
		"coords": [
			{
				"x": -3.0250170455,
				"y": 2.7037740053,
				"z": 3.9579988145,
				"element": "Br" 
			},
			{
				"x": -1.8710456398,
				"y": 1.6052602257,
				"z": 2.9521638249,
				"element": "C" 
			},
			{
				"x": -2.2533620353,
				"y": 0.7364517575,
				"z": 1.9787828316,
				"element": "C" 
			},
			{
				"x": -1.1156642379,
				"y": 0.0654312169,
				"z": 1.5061064683,
				"element": "N" 
			},
			{
				"x": 0.0158667001,
				"y": 0.5624842102,
				"z": 2.18126611,
				"element": "C" 
			},
			{
				"x": -0.4422828789,
				"y": 1.5290112201,
				"z": 3.1118151495,
				"element": "C" 
			},
			{
				"x": 0.4717308542,
				"y": 2.174784195,
				"z": 3.9543707409,
				"element": "C" 
			},
			{
				"x": 1.8184451598,
				"y": 1.8523738289,
				"z": 3.8441383301,
				"element": "C" 
			},
			{
				"x": 2.2577223481,
				"y": 0.8885709804,
				"z": 2.9172210508,
				"element": "C" 
			},
			{
				"x": 1.3679771584,
				"y": 0.2239080041,
				"z": 2.0776089023,
				"element": "C" 
			},
			{
				"x": -1.1270496975,
				"y": -0.7874459266,
				"z": 0.0133568205,
				"element": "S" 
			},
			{
				"x": 0.0133429009,
				"y": -1.6969270032,
				"z": 0.0619173607,
				"element": "O" 
			},
			{
				"x": -2.5036464407,
				"y": -1.2497091165,
				"z": -0.1370007182,
				"element": "O" 
			},
			{
				"x": -0.8082424482,
				"y": 0.4689742086,
				"z": -1.2220615012,
				"element": "C" 
			},
			{
				"x": 0.5076037928,
				"y": 0.7211173508,
				"z": -1.6170078511,
				"element": "C" 
			},
			{
				"x": 0.7436067203,
				"y": 1.7134121359,
				"z": -2.5683707268,
				"element": "C" 
			},
			{
				"x": -0.3230837747,
				"y": 2.4337131271,
				"z": -3.1107087487,
				"element": "C" 
			},
			{
				"x": -1.6345363248,
				"y": 2.1626730728,
				"z": -2.7118668863,
				"element": "C" 
			},
			{
				"x": -1.8871574581,
				"y": 1.1741382725,
				"z": -1.7618279836,
				"element": "C" 
			},
			{
				"x": -3.2293637913,
				"y": 0.4908036977,
				"z": 1.5929641217,
				"element": "H" 
			},
			{
				"x": 0.122019101,
				"y": 2.9076262205,
				"z": 4.6746283963,
				"element": "H" 
			},
			{
				"x": 2.5431075279,
				"y": 2.3425391421,
				"z": 4.4871421968,
				"element": "H" 
			},
			{
				"x": 3.3146454915,
				"y": 0.6458553485,
				"z": 2.8617650962,
				"element": "H" 
			},
			{
				"x": 1.7023211916,
				"y": -0.5426723736,
				"z": 1.3899081405,
				"element": "H" 
			},
			{
				"x": 1.3213563631,
				"y": 0.1398333062,
				"z": -1.1996211422,
				"element": "H" 
			},
			{
				"x": 1.7601844757,
				"y": 1.9190548263,
				"z": -2.8887245056,
				"element": "H" 
			},
			{
				"x": -0.1327916979,
				"y": 3.2041423563,
				"z": -3.8519088268,
				"element": "H" 
			},
			{
				"x": -2.4621203826,
				"y": 2.7162680485,
				"z": -3.1442930959,
				"element": "H" 
			},
			{
				"x": -2.8996659322,
				"y": 0.9363536618,
				"z": -1.455562369,
				"element": "H" 
			}
		],
		 "valence_orbital": [ 
			{
				"type": "occ",
				"energy": -0.28711,
				"method": "rhf"
			},
			{
				"type": "occ",
				"energy": -0.28218,
				"method": "rhf"
			},
			{
				"type": "occ",
				"energy": -0.27268,
				"method": "rhf"
			},
			{
				"type": "occ",
				"energy": -0.24264,
				"method": "rhf"
			},
			{
				"type": "occ",
				"energy": -0.22076,
				"method": "rhf"
			},
			{
				"type": "unocc",
				"energy": -0.05696,
				"method": "rhf"
			},
			{
				"type": "unocc",
				"energy": -0.03214,
				"method": "rhf"
			},
			{
				"type": "unocc",
				"energy": -0.0274,
				"method": "rhf"
			},
			{
				"type": "unocc",
				"energy": -0.00091,
				"method": "rhf"
			},
			{
				"type": "unocc",
				"energy": 0.00936,
				"method": "rhf"
			}
		],
		"cosmo_sigma_profile": { 
			"-0.025": 0.0,
			"-0.024": 0.0,
			"-0.023": 0.0,
			"-0.022": 0.0,
			"-0.021": 0.0,
			"-0.02": 0.0,
			"-0.019": 0.0,
			"-0.018": 0.0,
			"-0.017": 0.0,
			"-0.016": 0.0,
			"-0.015": 0.0,
			"-0.014": 0.0,
			"-0.013": 0.0,
			"-0.012": 0.0,
			"-0.011": 0.0,
			"-0.01": 0.267863923408,
			"-0.009": 0.822970684957,
			"-0.008": 2.96351382441,
			"-0.007": 11.3772415,
			"-0.006": 19.7202532694,
			"-0.005": 21.5228808764,
			"-0.004": 18.8679213039,
			"-0.003": 16.3600560391,
			"-0.002": 17.7751208096,
			"-0.001": 19.1620850812,
			"0.0": 22.72855372,
			"0.001": 31.1163053627,
			"0.002": 36.5652130409,
			"0.003": 27.4929390349,
			"0.004": 21.5345116152,
			"0.005": 10.1474116747,
			"0.006": 2.35907181501,
			"0.007": 3.72004819848,
			"0.008": 3.72673155796,
			"0.009": 6.45361061217,
			"0.01": 6.37633319175,
			"0.011": 0.326557870705,
			"0.012": 0.0,
			"0.013": 0.0,
			"0.014": 0.0,
			"0.015": 0.0,
			"0.016": 0.0,
			"0.017": 0.0,
			"0.018": 0.0,
			"0.019": 0.0,
			"0.02": 0.0,
			"0.021": 0.0,
			"0.022": 0.0,
			"0.023": 0.0,
			"0.024": 0.0,
			"0.025": 0.0
		}
	}
}
