{
	 "smiles": "COC1=CC(C=O)=C(OCC(O)=O)C=C1", 
	 "Tm": 428.15, 
	 "num_atms": 25, 
	 "gaussian": { 
		 "optdone": 1, 
		 "sigma_profile": "yes", 
		 "theory": "DFT", 
		 "functional": "B3LYP", 
		 "basiset": "6-31G**", 
		 "properties": { 
			 "R2extent": 4408.8037, 
			 "electric_dipole_moment_norm": 8.79181471597, 
			 "electric_quadrupole_moment_norm": 21.3465210709, 
			 "total_energy": -763.185058411, 
			 "HOMO_LUMO_gap": 0.15108, 
			 "cosmo_polarized_energy": -17.76, 
			 "cosmo_cavitation_energy": 29.73, 
			 "cosmo_dispersion_energy": -21.76, 
			 "cosmo_repulsion_energy": 1.68, 
			 "cosmo_total_nonelectrostatic_energy": 9.65, 
			 "SMD_solvation_energy": 8.29 
		},
		"coords": [
			{
				"x": -0.1207661879,
				"y": -1.2782882396,
				"z": 4.9662296469,
				"element": "C" 
			},
			{
				"x": -0.7529642215,
				"y": -0.601257986,
				"z": 3.8897611452,
				"element": "O" 
			},
			{
				"x": -0.1787567926,
				"y": -0.6735671492,
				"z": 2.6557455606,
				"element": "C" 
			},
			{
				"x": -0.8390894235,
				"y": 0.0095327137,
				"z": 1.6300741594,
				"element": "C" 
			},
			{
				"x": -0.3405427168,
				"y": 0.0190012428,
				"z": 0.3232692471,
				"element": "C" 
			},
			{
				"x": -1.0523113261,
				"y": 0.8502939085,
				"z": -0.667256114,
				"element": "C" 
			},
			{
				"x": -0.6933883876,
				"y": 1.1211014094,
				"z": -1.8029452993,
				"element": "O" 
			},
			{
				"x": 0.8377803194,
				"y": -0.7083721703,
				"z": 0.0270926298,
				"element": "C" 
			},
			{
				"x": 1.232724894,
				"y": -0.7465778403,
				"z": -1.2736916658,
				"element": "O" 
			},
			{
				"x": 2.6133866154,
				"y": -0.7384824402,
				"z": -1.6208609163,
				"element": "C" 
			},
			{
				"x": 2.8109567658,
				"y": 0.1392600924,
				"z": -2.8649001181,
				"element": "C" 
			},
			{
				"x": 1.7706154419,
				"y": 0.8797747721,
				"z": -3.2417455102,
				"element": "O" 
			},
			{
				"x": 3.8783921902,
				"y": 0.1480387944,
				"z": -3.4325516036,
				"element": "O" 
			},
			{
				"x": 1.4982294395,
				"y": -1.386951314,
				"z": 1.0491096165,
				"element": "C" 
			},
			{
				"x": 1.0014071042,
				"y": -1.3657194356,
				"z": 2.3565907743,
				"element": "C" 
			},
			{
				"x": -0.7388127394,
				"y": -1.0884693898,
				"z": 5.8445277492,
				"element": "H" 
			},
			{
				"x": -0.0689345015,
				"y": -2.3602623658,
				"z": 4.7890205911,
				"element": "H" 
			},
			{
				"x": 0.8910672887,
				"y": -0.8934182436,
				"z": 5.1476633381,
				"element": "H" 
			},
			{
				"x": -1.7455639697,
				"y": 0.5579277159,
				"z": 1.8705352028,
				"element": "H" 
			},
			{
				"x": -2.0027207932,
				"y": 1.2756132152,
				"z": -0.2819510792,
				"element": "H" 
			},
			{
				"x": 2.9699263021,
				"y": -1.7478490532,
				"z": -1.8501119788,
				"element": "H" 
			},
			{
				"x": 3.2250091003,
				"y": -0.3270834023,
				"z": -0.8092530549,
				"element": "H" 
			},
			{
				"x": 0.9862664937,
				"y": 0.7468268219,
				"z": -2.6615798324,
				"element": "H" 
			},
			{
				"x": 2.395700657,
				"y": -1.9555686505,
				"z": 0.8298840933,
				"element": "H" 
			},
			{
				"x": 1.5388884477,
				"y": -1.9055030062,
				"z": 3.1271434181,
				"element": "H" 
			}
		],
		 "valence_orbital": [ 
			{
				"type": "occ",
				"energy": -0.29579,
				"method": "rhf"
			},
			{
				"type": "occ",
				"energy": -0.28598,
				"method": "rhf"
			},
			{
				"type": "occ",
				"energy": -0.27297,
				"method": "rhf"
			},
			{
				"type": "occ",
				"energy": -0.2615,
				"method": "rhf"
			},
			{
				"type": "occ",
				"energy": -0.23161,
				"method": "rhf"
			},
			{
				"type": "unocc",
				"energy": -0.08053,
				"method": "rhf"
			},
			{
				"type": "unocc",
				"energy": -0.01952,
				"method": "rhf"
			},
			{
				"type": "unocc",
				"energy": 0.01964,
				"method": "rhf"
			},
			{
				"type": "unocc",
				"energy": 0.02858,
				"method": "rhf"
			},
			{
				"type": "unocc",
				"energy": 0.0702,
				"method": "rhf"
			}
		],
		"cosmo_sigma_profile": { 
			"-0.025": 0.0,
			"-0.024": 0.0,
			"-0.023": 0.0,
			"-0.022": 0.0,
			"-0.021": 0.0,
			"-0.02": 0.0,
			"-0.019": 0.0,
			"-0.018": 0.0,
			"-0.017": 0.0,
			"-0.016": 0.0,
			"-0.015": 0.0,
			"-0.014": 0.0,
			"-0.013": 0.0,
			"-0.012": 0.0,
			"-0.011": 0.0,
			"-0.01": 0.0,
			"-0.009": 1.8137394381,
			"-0.008": 12.0574192268,
			"-0.007": 17.164852062,
			"-0.006": 18.0269552719,
			"-0.005": 17.3692473567,
			"-0.004": 17.1261042688,
			"-0.003": 15.953961626,
			"-0.002": 11.4460551916,
			"-0.001": 11.1950442119,
			"0.0": 12.5651351244,
			"0.001": 13.0101545623,
			"0.002": 20.2377056476,
			"0.003": 10.349704182,
			"0.004": 7.03354886128,
			"0.005": 6.59317300479,
			"0.006": 5.75444088873,
			"0.007": 6.35691715663,
			"0.008": 5.10686299784,
			"0.009": 5.26552878126,
			"0.01": 7.47056505521,
			"0.011": 6.13567300758,
			"0.012": 6.54454746785,
			"0.013": 2.77153507611,
			"0.014": 0.25793993187,
			"0.015": 0.0,
			"0.016": 0.0,
			"0.017": 0.0,
			"0.018": 0.0,
			"0.019": 0.0,
			"0.02": 0.0,
			"0.021": 0.0,
			"0.022": 0.0,
			"0.023": 0.0,
			"0.024": 0.0,
			"0.025": 0.0
		}
	}
}
