{
	 "smiles": "CC(C)N(O)C(=O)C(O)=O", 
	 "Tm": 373.15, 
	 "num_atms": 19, 
	 "gaussian": { 
		 "optdone": 1, 
		 "sigma_profile": "yes", 
		 "theory": "DFT", 
		 "functional": "B3LYP", 
		 "basiset": "6-31G**", 
		 "properties": { 
			 "R2extent": 2000.744, 
			 "electric_dipole_moment_norm": 2.42800635296, 
			 "electric_quadrupole_moment_norm": 7.75952287386, 
			 "total_energy": -551.57337493, 
			 "HOMO_LUMO_gap": 0.18966, 
			 "cosmo_polarized_energy": -9.33, 
			 "cosmo_cavitation_energy": 22.72, 
			 "cosmo_dispersion_energy": -16.55, 
			 "cosmo_repulsion_energy": 1.36, 
			 "cosmo_total_nonelectrostatic_energy": 7.53, 
			 "SMD_solvation_energy": 6.91 
		},
		"coords": [
			{
				"x": 1.9183668086,
				"y": 0.7528272712,
				"z": 0.5515613391,
				"element": "C" 
			},
			{
				"x": 0.4969697804,
				"y": 0.1899494402,
				"z": 0.4317052532,
				"element": "C" 
			},
			{
				"x": -0.4425505901,
				"y": 0.7072677065,
				"z": 1.5277441229,
				"element": "C" 
			},
			{
				"x": 0.536818175,
				"y": -1.280472265,
				"z": 0.4594485067,
				"element": "N" 
			},
			{
				"x": 1.0410240388,
				"y": -1.79380099,
				"z": 1.6557682707,
				"element": "O" 
			},
			{
				"x": 0.1866355349,
				"y": -2.2119950049,
				"z": -0.4304753504,
				"element": "C" 
			},
			{
				"x": 0.3188512056,
				"y": -3.4294268503,
				"z": -0.1668988806,
				"element": "O" 
			},
			{
				"x": -0.3895613897,
				"y": -1.8372944521,
				"z": -1.8073100635,
				"element": "C" 
			},
			{
				"x": -0.6521126371,
				"y": -2.9478727612,
				"z": -2.4935453453,
				"element": "O" 
			},
			{
				"x": -0.5847691095,
				"y": -0.7202841711,
				"z": -2.2277650373,
				"element": "O" 
			},
			{
				"x": 2.5539583365,
				"y": 0.3835711695,
				"z": -0.2582285752,
				"element": "H" 
			},
			{
				"x": 2.3724812571,
				"y": 0.4751876092,
				"z": 1.5059827585,
				"element": "H" 
			},
			{
				"x": 1.882895972,
				"y": 1.8442127556,
				"z": 0.4881752367,
				"element": "H" 
			},
			{
				"x": 0.0867031978,
				"y": 0.4287375017,
				"z": -0.5493614022,
				"element": "H" 
			},
			{
				"x": -1.4517002678,
				"y": 0.3061433503,
				"z": 1.3981266924,
				"element": "H" 
			},
			{
				"x": -0.0807597602,
				"y": 0.428040972,
				"z": 2.5204099446,
				"element": "H" 
			},
			{
				"x": -0.4982968468,
				"y": 1.7982398819,
				"z": 1.4725058491,
				"element": "H" 
			},
			{
				"x": 0.9885642692,
				"y": -2.7610455965,
				"z": 1.4852040169,
				"element": "H" 
			},
			{
				"x": -0.3930179746,
				"y": -3.689585567,
				"z": -1.9008473363,
				"element": "H" 
			}
		],
		 "valence_orbital": [ 
			{
				"type": "occ",
				"energy": -0.35618,
				"method": "rhf"
			},
			{
				"type": "occ",
				"energy": -0.33427,
				"method": "rhf"
			},
			{
				"type": "occ",
				"energy": -0.33177,
				"method": "rhf"
			},
			{
				"type": "occ",
				"energy": -0.27736,
				"method": "rhf"
			},
			{
				"type": "occ",
				"energy": -0.25186,
				"method": "rhf"
			},
			{
				"type": "unocc",
				"energy": -0.0622,
				"method": "rhf"
			},
			{
				"type": "unocc",
				"energy": 0.05862,
				"method": "rhf"
			},
			{
				"type": "unocc",
				"energy": 0.07656,
				"method": "rhf"
			},
			{
				"type": "unocc",
				"energy": 0.09373,
				"method": "rhf"
			},
			{
				"type": "unocc",
				"energy": 0.10748,
				"method": "rhf"
			}
		],
		"cosmo_sigma_profile": { 
			"-0.025": 0.0,
			"-0.024": 0.0,
			"-0.023": 0.0,
			"-0.022": 0.0,
			"-0.021": 0.0,
			"-0.02": 0.0,
			"-0.019": 0.0,
			"-0.018": 0.0,
			"-0.017": 0.0,
			"-0.016": 0.0,
			"-0.015": 0.0,
			"-0.014": 0.540720143703,
			"-0.013": 1.24542630421,
			"-0.012": 1.39687577626,
			"-0.011": 1.32195891017,
			"-0.01": 0.88412009478,
			"-0.009": 0.584531064944,
			"-0.008": 2.01419929691,
			"-0.007": 5.03208273195,
			"-0.006": 5.61870052956,
			"-0.005": 10.759958732,
			"-0.004": 17.5051685428,
			"-0.003": 14.8736813272,
			"-0.002": 18.5721227357,
			"-0.001": 18.9175485395,
			"0.0": 15.7267004166,
			"0.001": 7.23680740798,
			"0.002": 4.75059777892,
			"0.003": 6.17197622009,
			"0.004": 5.36763887579,
			"0.005": 4.92113558944,
			"0.006": 4.96024305566,
			"0.007": 7.24679890915,
			"0.008": 7.53431053826,
			"0.009": 6.53483109503,
			"0.01": 5.77861623486,
			"0.011": 3.00651573372,
			"0.012": 0.496730547842,
			"0.013": 0.0,
			"0.014": 0.0,
			"0.015": 0.0,
			"0.016": 0.0,
			"0.017": 0.0,
			"0.018": 0.0,
			"0.019": 0.0,
			"0.02": 0.0,
			"0.021": 0.0,
			"0.022": 0.0,
			"0.023": 0.0,
			"0.024": 0.0,
			"0.025": 0.0
		}
	}
}
