{
	 "smiles": "SC1=NN=C(NCCCN2CCOCC2)S1", 
	 "Tm": 419.15, 
	 "num_atms": 32, 
	 "gaussian": { 
		 "optdone": 1, 
		 "sigma_profile": "yes", 
		 "theory": "DFT", 
		 "functional": "B3LYP", 
		 "basiset": "6-31G**", 
		 "properties": { 
			 "R2extent": 10309.2013, 
			 "electric_dipole_moment_norm": 3.83246060123, 
			 "electric_quadrupole_moment_norm": 39.4247652777, 
			 "total_energy": -1443.12717866, 
			 "HOMO_LUMO_gap": 0.17649, 
			 "cosmo_polarized_energy": -19.46, 
			 "cosmo_cavitation_energy": 37.32, 
			 "cosmo_dispersion_energy": -27.31, 
			 "cosmo_repulsion_energy": 2.08, 
			 "cosmo_total_nonelectrostatic_energy": 12.08, 
			 "SMD_solvation_energy": 0.74 
		},
		"coords": [
			{
				"x": 2.819515011,
				"y": 0.9077174618,
				"z": 6.8104949243,
				"element": "S" 
			},
			{
				"x": 3.1227943907,
				"y": 1.2619151646,
				"z": 5.1031646574,
				"element": "C" 
			},
			{
				"x": 4.3047671696,
				"y": 1.4111043393,
				"z": 4.5913882325,
				"element": "N" 
			},
			{
				"x": 4.3093417056,
				"y": 1.7568913308,
				"z": 3.275872864,
				"element": "N" 
			},
			{
				"x": 3.0959172935,
				"y": 1.8864013764,
				"z": 2.777125568,
				"element": "C" 
			},
			{
				"x": 2.8767222507,
				"y": 2.2690956415,
				"z": 1.4918551081,
				"element": "N" 
			},
			{
				"x": 1.6082518652,
				"y": 2.1314924811,
				"z": 0.7864926268,
				"element": "C" 
			},
			{
				"x": 1.3480169304,
				"y": 0.7217156088,
				"z": 0.23066893,
				"element": "C" 
			},
			{
				"x": 0.0720971895,
				"y": 0.5948709346,
				"z": -0.6383849426,
				"element": "C" 
			},
			{
				"x": -1.2247103232,
				"y": 0.6034190001,
				"z": 0.0132660437,
				"element": "N" 
			},
			{
				"x": -1.765094246,
				"y": 1.8515576339,
				"z": 0.517308152,
				"element": "C" 
			},
			{
				"x": -3.3042094051,
				"y": 1.7470127317,
				"z": 0.5420426131,
				"element": "C" 
			},
			{
				"x": -3.7569954175,
				"y": 0.4346664591,
				"z": 0.8703050508,
				"element": "O" 
			},
			{
				"x": -2.8194088501,
				"y": -0.2813326071,
				"z": 1.6507460202,
				"element": "C" 
			},
			{
				"x": -1.5296729988,
				"y": -0.5501937989,
				"z": 0.8545920483,
				"element": "C" 
			},
			{
				"x": 1.8099587339,
				"y": 1.5789216783,
				"z": 3.9399152282,
				"element": "S" 
			},
			{
				"x": 2.4134945198,
				"y": -0.3711543437,
				"z": 6.6478936796,
				"element": "H" 
			},
			{
				"x": 3.7253346786,
				"y": 2.289888873,
				"z": 0.9399728798,
				"element": "H" 
			},
			{
				"x": 0.8108804924,
				"y": 2.4399719452,
				"z": 1.4694664216,
				"element": "H" 
			},
			{
				"x": 1.6102543052,
				"y": 2.8608863046,
				"z": -0.0318693731,
				"element": "H" 
			},
			{
				"x": 2.2073156406,
				"y": 0.4357526485,
				"z": -0.3908277672,
				"element": "H" 
			},
			{
				"x": 1.3178139444,
				"y": 0.0029157217,
				"z": 1.0578600509,
				"element": "H" 
			},
			{
				"x": 0.0749935658,
				"y": 1.3933601763,
				"z": -1.393707823,
				"element": "H" 
			},
			{
				"x": 0.1461162116,
				"y": -0.3503669945,
				"z": -1.1928639829,
				"element": "H" 
			},
			{
				"x": -1.3925168922,
				"y": 2.1258631652,
				"z": 1.5233534362,
				"element": "H" 
			},
			{
				"x": -1.4737995198,
				"y": 2.6676181732,
				"z": -0.1533742922,
				"element": "H" 
			},
			{
				"x": -3.7117244893,
				"y": 1.9650214367,
				"z": -0.4503331155,
				"element": "H" 
			},
			{
				"x": -3.7142070932,
				"y": 2.4820607689,
				"z": 1.2536368502,
				"element": "H" 
			},
			{
				"x": -3.2948969509,
				"y": -1.2247409006,
				"z": 1.9323978119,
				"element": "H" 
			},
			{
				"x": -2.588920704,
				"y": 0.2602251639,
				"z": 2.5825588179,
				"element": "H" 
			},
			{
				"x": -0.7269449276,
				"y": -0.7941812864,
				"z": 1.5765202587,
				"element": "H" 
			},
			{
				"x": -1.6572840809,
				"y": -1.4291762877,
				"z": 0.2077630225,
				"element": "H" 
			}
		],
		 "valence_orbital": [ 
			{
				"type": "occ",
				"energy": -0.26917,
				"method": "rhf"
			},
			{
				"type": "occ",
				"energy": -0.25664,
				"method": "rhf"
			},
			{
				"type": "occ",
				"energy": -0.25172,
				"method": "rhf"
			},
			{
				"type": "occ",
				"energy": -0.22708,
				"method": "rhf"
			},
			{
				"type": "occ",
				"energy": -0.20954,
				"method": "rhf"
			},
			{
				"type": "unocc",
				"energy": -0.03305,
				"method": "rhf"
			},
			{
				"type": "unocc",
				"energy": -0.00888,
				"method": "rhf"
			},
			{
				"type": "unocc",
				"energy": 0.02453,
				"method": "rhf"
			},
			{
				"type": "unocc",
				"energy": 0.04103,
				"method": "rhf"
			},
			{
				"type": "unocc",
				"energy": 0.05101,
				"method": "rhf"
			}
		],
		"cosmo_sigma_profile": { 
			"-0.025": 0.0,
			"-0.024": 0.0,
			"-0.023": 0.0,
			"-0.022": 0.0,
			"-0.021": 0.0,
			"-0.02": 0.0,
			"-0.019": 0.0,
			"-0.018": 0.0,
			"-0.017": 0.0,
			"-0.016": 0.0,
			"-0.015": 0.157134239672,
			"-0.014": 1.26468008587,
			"-0.013": 0.891273455999,
			"-0.012": 1.29855104134,
			"-0.011": 3.53215452085,
			"-0.01": 3.00925346275,
			"-0.009": 2.97438834068,
			"-0.008": 3.11092998468,
			"-0.007": 2.4303336147,
			"-0.006": 4.91124191876,
			"-0.005": 14.7423385984,
			"-0.004": 25.0934628206,
			"-0.003": 44.0354396419,
			"-0.002": 40.3821980304,
			"-0.001": 27.5526717656,
			"0.0": 21.0522288872,
			"0.001": 14.7505176339,
			"0.002": 11.8663407549,
			"0.003": 11.1499993304,
			"0.004": 6.69676516398,
			"0.005": 7.85039897112,
			"0.006": 5.80768769943,
			"0.007": 5.64107624636,
			"0.008": 5.48442304437,
			"0.009": 4.44940503427,
			"0.01": 4.53413994789,
			"0.011": 5.02914736474,
			"0.012": 6.41038717651,
			"0.013": 5.13120553714,
			"0.014": 4.54356869752,
			"0.015": 1.29664409637,
			"0.016": 0.0764249498255,
			"0.017": 0.0,
			"0.018": 0.0,
			"0.019": 0.0,
			"0.02": 0.0,
			"0.021": 0.0,
			"0.022": 0.0,
			"0.023": 0.0,
			"0.024": 0.0,
			"0.025": 0.0
		}
	}
}
