{
	 "smiles": "N#CC(=NC1=CC=CC=C1)C#N", 
	 "Tm": 359.65, 
	 "num_atms": 17, 
	 "gaussian": { 
		 "optdone": 1, 
		 "sigma_profile": "yes", 
		 "theory": "DFT", 
		 "functional": "B3LYP", 
		 "basiset": "6-31G**", 
		 "properties": { 
			 "R2extent": 2534.5062, 
			 "electric_dipole_moment_norm": 5.74041806579, 
			 "electric_quadrupole_moment_norm": 9.47067071595, 
			 "total_energy": -510.147244519, 
			 "HOMO_LUMO_gap": 0.14261, 
			 "cosmo_polarized_energy": -9.76, 
			 "cosmo_cavitation_energy": 24.51, 
			 "cosmo_dispersion_energy": -16.75, 
			 "cosmo_repulsion_energy": 1.34, 
			 "cosmo_total_nonelectrostatic_energy": 9.11, 
			 "SMD_solvation_energy": 5.85 
		},
		"coords": [
			{
				"x": -1.4712988997,
				"y": -1.8566172573,
				"z": 2.751885953,
				"element": "N" 
			},
			{
				"x": -0.7458864406,
				"y": -1.0109426293,
				"z": 2.4176381317,
				"element": "C" 
			},
			{
				"x": 0.1626472586,
				"y": 0.0512628863,
				"z": 2.0343330932,
				"element": "C" 
			},
			{
				"x": 0.1363170412,
				"y": 0.7750563785,
				"z": 0.9696744679,
				"element": "N" 
			},
			{
				"x": -0.7467911314,
				"y": 0.6785910083,
				"z": -0.1036823078,
				"element": "C" 
			},
			{
				"x": -1.5317584454,
				"y": -0.4430363983,
				"z": -0.449459539,
				"element": "C" 
			},
			{
				"x": -2.3518049036,
				"y": -0.3893721949,
				"z": -1.571320048,
				"element": "C" 
			},
			{
				"x": -2.4159269405,
				"y": 0.7694068231,
				"z": -2.3527892958,
				"element": "C" 
			},
			{
				"x": -1.6340082378,
				"y": 1.8798096189,
				"z": -2.0240934975,
				"element": "C" 
			},
			{
				"x": -0.7908106026,
				"y": 1.8278503114,
				"z": -0.9201852194,
				"element": "C" 
			},
			{
				"x": 1.1953790994,
				"y": 0.3227678262,
				"z": 3.0082797963,
				"element": "C" 
			},
			{
				"x": 2.0199040318,
				"y": 0.5205344168,
				"z": 3.8033911587,
				"element": "N" 
			},
			{
				"x": -1.48601138,
				"y": -1.354914205,
				"z": 0.1317913323,
				"element": "H" 
			},
			{
				"x": -2.9450299192,
				"y": -1.2580669675,
				"z": -1.8397056394,
				"element": "H" 
			},
			{
				"x": -3.0653161067,
				"y": 0.7997473079,
				"z": -3.2225879186,
				"element": "H" 
			},
			{
				"x": -1.6715876153,
				"y": 2.7759367809,
				"z": -2.635458976,
				"element": "H" 
			},
			{
				"x": -0.1577168082,
				"y": 2.6662862938,
				"z": -0.6503114915,
				"element": "H" 
			}
		],
		 "valence_orbital": [ 
			{
				"type": "occ",
				"energy": -0.3542,
				"method": "rhf"
			},
			{
				"type": "occ",
				"energy": -0.34726,
				"method": "rhf"
			},
			{
				"type": "occ",
				"energy": -0.31194,
				"method": "rhf"
			},
			{
				"type": "occ",
				"energy": -0.28294,
				"method": "rhf"
			},
			{
				"type": "occ",
				"energy": -0.26753,
				"method": "rhf"
			},
			{
				"type": "unocc",
				"energy": -0.12492,
				"method": "rhf"
			},
			{
				"type": "unocc",
				"energy": -0.03301,
				"method": "rhf"
			},
			{
				"type": "unocc",
				"energy": -0.02424,
				"method": "rhf"
			},
			{
				"type": "unocc",
				"energy": -0.01261,
				"method": "rhf"
			},
			{
				"type": "unocc",
				"energy": 0.02363,
				"method": "rhf"
			}
		],
		"cosmo_sigma_profile": { 
			"-0.025": 0.0,
			"-0.024": 0.0,
			"-0.023": 0.0,
			"-0.022": 0.0,
			"-0.021": 0.0,
			"-0.02": 0.0,
			"-0.019": 0.0,
			"-0.018": 0.0,
			"-0.017": 0.0,
			"-0.016": 0.0,
			"-0.015": 0.0,
			"-0.014": 0.0,
			"-0.013": 0.0,
			"-0.012": 0.0,
			"-0.011": 0.0,
			"-0.01": 0.0,
			"-0.009": 0.222133709428,
			"-0.008": 2.57312451113,
			"-0.007": 13.744902686,
			"-0.006": 16.7996437189,
			"-0.005": 13.655590736,
			"-0.004": 12.0453059762,
			"-0.003": 12.3552889614,
			"-0.002": 10.356560036,
			"-0.001": 12.8702275562,
			"0.0": 14.5556679973,
			"0.001": 16.0470767516,
			"0.002": 20.8553143574,
			"0.003": 10.821090458,
			"0.004": 5.46864011886,
			"0.005": 6.35033294157,
			"0.006": 6.58277694964,
			"0.007": 6.70236772946,
			"0.008": 5.93731986249,
			"0.009": 5.36561886063,
			"0.01": 4.37114190673,
			"0.011": 2.90475760593,
			"0.012": 0.229375775167,
			"0.013": 0.0,
			"0.014": 0.0,
			"0.015": 0.0,
			"0.016": 0.0,
			"0.017": 0.0,
			"0.018": 0.0,
			"0.019": 0.0,
			"0.02": 0.0,
			"0.021": 0.0,
			"0.022": 0.0,
			"0.023": 0.0,
			"0.024": 0.0,
			"0.025": 0.0
		}
	}
}
