{
	 "smiles": "CCC(C)C1=CN=C(CC(C)C)C(=O)N1O", 
	 "Tm": 371.15, 
	 "num_atms": 36, 
	 "gaussian": { 
		 "optdone": 1, 
		 "sigma_profile": "yes", 
		 "theory": "DFT", 
		 "functional": "B3LYP", 
		 "basiset": "6-31G**", 
		 "properties": { 
			 "R2extent": 5619.6648, 
			 "electric_dipole_moment_norm": 2.79659275727, 
			 "electric_quadrupole_moment_norm": 6.73232366795, 
			 "total_energy": -729.258500339, 
			 "HOMO_LUMO_gap": 0.16822, 
			 "cosmo_polarized_energy": -8.86, 
			 "cosmo_cavitation_energy": 36.87, 
			 "cosmo_dispersion_energy": -25.72, 
			 "cosmo_repulsion_energy": 2.03, 
			 "cosmo_total_nonelectrostatic_energy": 13.18, 
			 "SMD_solvation_energy": 6.05 
		},
		"coords": [
			{
				"x": 0.1195829104,
				"y": 0.9272450766,
				"z": 4.4194816243,
				"element": "C" 
			},
			{
				"x": 0.7210256657,
				"y": -0.1726834872,
				"z": 3.5383747608,
				"element": "C" 
			},
			{
				"x": -0.2694127304,
				"y": -0.8581952869,
				"z": 2.5532011267,
				"element": "C" 
			},
			{
				"x": -1.4108862794,
				"y": -1.586334092,
				"z": 3.2778158581,
				"element": "C" 
			},
			{
				"x": -0.7740888299,
				"y": 0.1128750736,
				"z": 1.5077718773,
				"element": "C" 
			},
			{
				"x": -2.0237582292,
				"y": 0.6978510449,
				"z": 1.4455954522,
				"element": "C" 
			},
			{
				"x": -2.395220278,
				"y": 1.5775664322,
				"z": 0.4813062214,
				"element": "N" 
			},
			{
				"x": -1.5521245942,
				"y": 1.9156362745,
				"z": -0.4733491731,
				"element": "C" 
			},
			{
				"x": -1.9626980906,
				"y": 2.8885447648,
				"z": -1.5445211151,
				"element": "C" 
			},
			{
				"x": -2.2233408208,
				"y": 2.2413828629,
				"z": -2.9300287767,
				"element": "C" 
			},
			{
				"x": -3.4094178055,
				"y": 1.2683083827,
				"z": -2.8909242109,
				"element": "C" 
			},
			{
				"x": -2.4425405051,
				"y": 3.3343528011,
				"z": -3.9851431296,
				"element": "C" 
			},
			{
				"x": -0.2129989469,
				"y": 1.3682182233,
				"z": -0.5335285886,
				"element": "C" 
			},
			{
				"x": 0.6920087589,
				"y": 1.5737012178,
				"z": -1.3657519342,
				"element": "O" 
			},
			{
				"x": 0.0739565642,
				"y": 0.4855702464,
				"z": 0.508730598,
				"element": "N" 
			},
			{
				"x": 1.3473303742,
				"y": -0.0350204415,
				"z": 0.4434174142,
				"element": "O" 
			},
			{
				"x": -0.6548780443,
				"y": 0.5417985117,
				"z": 5.0902619543,
				"element": "H" 
			},
			{
				"x": -0.3267451695,
				"y": 1.727224202,
				"z": 3.819655979,
				"element": "H" 
			},
			{
				"x": 0.896463423,
				"y": 1.3778829959,
				"z": 5.0449630344,
				"element": "H" 
			},
			{
				"x": 1.5545790082,
				"y": 0.2346611578,
				"z": 2.9577187915,
				"element": "H" 
			},
			{
				"x": 1.1439605791,
				"y": -0.9614696329,
				"z": 4.1730756489,
				"element": "H" 
			},
			{
				"x": 0.3140800625,
				"y": -1.6109500148,
				"z": 2.0090421331,
				"element": "H" 
			},
			{
				"x": -0.9916662288,
				"y": -2.3290543498,
				"z": 3.9634049485,
				"element": "H" 
			},
			{
				"x": -2.0307625237,
				"y": -0.9078510813,
				"z": 3.8704956778,
				"element": "H" 
			},
			{
				"x": -2.0631465359,
				"y": -2.1080284437,
				"z": 2.571386799,
				"element": "H" 
			},
			{
				"x": -2.7682314258,
				"y": 0.4584098144,
				"z": 2.195010277,
				"element": "H" 
			},
			{
				"x": -2.8657580654,
				"y": 3.4034636598,
				"z": -1.1998738023,
				"element": "H" 
			},
			{
				"x": -1.1658397424,
				"y": 3.6337636086,
				"z": -1.6595123329,
				"element": "H" 
			},
			{
				"x": -1.3187318898,
				"y": 1.6830869508,
				"z": -3.2026749726,
				"element": "H" 
			},
			{
				"x": -3.2640370333,
				"y": 0.4760405007,
				"z": -2.1502433609,
				"element": "H" 
			},
			{
				"x": -4.3373036206,
				"y": 1.7930318794,
				"z": -2.6325599947,
				"element": "H" 
			},
			{
				"x": -3.5554586289,
				"y": 0.7930782955,
				"z": -3.8670941279,
				"element": "H" 
			},
			{
				"x": -2.6050796561,
				"y": 2.8967876697,
				"z": -4.9760560641,
				"element": "H" 
			},
			{
				"x": -3.3224429292,
				"y": 3.9434279323,
				"z": -3.7434090779,
				"element": "H" 
			},
			{
				"x": -1.5788832265,
				"y": 4.0046475347,
				"z": -4.0521124102,
				"element": "H" 
			},
			{
				"x": 1.6516644839,
				"y": 0.4287297159,
				"z": -0.3872271049,
				"element": "H" 
			}
		],
		 "valence_orbital": [ 
			{
				"type": "occ",
				"energy": -0.31885,
				"method": "rhf"
			},
			{
				"type": "occ",
				"energy": -0.30043,
				"method": "rhf"
			},
			{
				"type": "occ",
				"energy": -0.28563,
				"method": "rhf"
			},
			{
				"type": "occ",
				"energy": -0.2522,
				"method": "rhf"
			},
			{
				"type": "occ",
				"energy": -0.22066,
				"method": "rhf"
			},
			{
				"type": "unocc",
				"energy": -0.05244,
				"method": "rhf"
			},
			{
				"type": "unocc",
				"energy": -0.00313,
				"method": "rhf"
			},
			{
				"type": "unocc",
				"energy": 0.06695,
				"method": "rhf"
			},
			{
				"type": "unocc",
				"energy": 0.07812,
				"method": "rhf"
			},
			{
				"type": "unocc",
				"energy": 0.09665,
				"method": "rhf"
			}
		],
		"cosmo_sigma_profile": { 
			"-0.025": 0.0,
			"-0.024": 0.0,
			"-0.023": 0.0,
			"-0.022": 0.0,
			"-0.021": 0.0,
			"-0.02": 0.0,
			"-0.019": 0.0,
			"-0.018": 0.0,
			"-0.017": 0.0,
			"-0.016": 0.0,
			"-0.015": 0.0,
			"-0.014": 0.0,
			"-0.013": 0.275192659164,
			"-0.012": 0.329456055166,
			"-0.011": 0.765915293051,
			"-0.01": 0.740236934373,
			"-0.009": 0.197035726591,
			"-0.008": 0.504377611041,
			"-0.007": 1.44044700719,
			"-0.006": 2.76828717205,
			"-0.005": 4.09003521437,
			"-0.004": 15.2109582355,
			"-0.003": 38.7488563364,
			"-0.002": 45.2707999122,
			"-0.001": 41.9411552946,
			"0.0": 41.0688666595,
			"0.001": 34.3942672066,
			"0.002": 14.8205422374,
			"0.003": 6.27464994427,
			"0.004": 6.35109359512,
			"0.005": 4.78350743116,
			"0.006": 5.04858069013,
			"0.007": 4.17855273907,
			"0.008": 3.10528503552,
			"0.009": 1.97092703572,
			"0.01": 2.42301008607,
			"0.011": 2.48748844153,
			"0.012": 3.40756408397,
			"0.013": 2.57637484314,
			"0.014": 1.34993463428,
			"0.015": 0.504517457036,
			"0.016": 0.0468652068932,
			"0.017": 0.0,
			"0.018": 0.0,
			"0.019": 0.0,
			"0.02": 0.0,
			"0.021": 0.0,
			"0.022": 0.0,
			"0.023": 0.0,
			"0.024": 0.0,
			"0.025": 0.0
		}
	}
}
