{
	 "smiles": "NNCCO", 
	 "Tm": 203.15, 
	 "num_atms": 13, 
	 "gaussian": { 
		 "optdone": 1, 
		 "sigma_profile": "yes", 
		 "theory": "DFT", 
		 "functional": "B3LYP", 
		 "basiset": "6-31G**", 
		 "properties": { 
			 "R2extent": 841.5003, 
			 "electric_dipole_moment_norm": 1.68412065185, 
			 "electric_quadrupole_moment_norm": 8.59980461173, 
			 "total_energy": -265.702357953, 
			 "HOMO_LUMO_gap": 0.29838, 
			 "cosmo_polarized_energy": -11.65, 
			 "cosmo_cavitation_energy": 15.91, 
			 "cosmo_dispersion_energy": -12.13, 
			 "cosmo_repulsion_energy": 1.13, 
			 "cosmo_total_nonelectrostatic_energy": 4.91, 
			 "SMD_solvation_energy": 2.59 
		},
		"coords": [
			{
				"x": -0.3933828981,
				"y": -0.1382613752,
				"z": -0.6473631329,
				"element": "N" 
			},
			{
				"x": -0.7805401165,
				"y": 1.0987817373,
				"z": -0.041696412,
				"element": "N" 
			},
			{
				"x": 0.2328634062,
				"y": 1.5450580134,
				"z": 0.9126413543,
				"element": "C" 
			},
			{
				"x": 0.1871440329,
				"y": 0.7112484144,
				"z": 2.1870763667,
				"element": "C" 
			},
			{
				"x": 1.2069748958,
				"y": 1.205701722,
				"z": 3.0504815109,
				"element": "O" 
			},
			{
				"x": 0.2098047694,
				"y": 0.0094097318,
				"z": -1.4594600205,
				"element": "H" 
			},
			{
				"x": -1.2361227138,
				"y": -0.6059728449,
				"z": -0.96713749,
				"element": "H" 
			},
			{
				"x": -0.9177335676,
				"y": 1.8269424457,
				"z": -0.7422063536,
				"element": "H" 
			},
			{
				"x": 0.0162116546,
				"y": 2.5905730649,
				"z": 1.1612318274,
				"element": "H" 
			},
			{
				"x": 1.2586041307,
				"y": 1.5094339574,
				"z": 0.5066805748,
				"element": "H" 
			},
			{
				"x": -0.8128319257,
				"y": 0.8034570848,
				"z": 2.6383809232,
				"element": "H" 
			},
			{
				"x": 0.3447207322,
				"y": -0.3442266324,
				"z": 1.9270738744,
				"element": "H" 
			},
			{
				"x": 1.2324875998,
				"y": 0.6417546808,
				"z": 3.8322969771,
				"element": "H" 
			}
		],
		 "valence_orbital": [ 
			{
				"type": "occ",
				"energy": -0.35365,
				"method": "rhf"
			},
			{
				"type": "occ",
				"energy": -0.31912,
				"method": "rhf"
			},
			{
				"type": "occ",
				"energy": -0.25773,
				"method": "rhf"
			},
			{
				"type": "occ",
				"energy": -0.24575,
				"method": "rhf"
			},
			{
				"type": "occ",
				"energy": -0.22705,
				"method": "rhf"
			},
			{
				"type": "unocc",
				"energy": 0.07133,
				"method": "rhf"
			},
			{
				"type": "unocc",
				"energy": 0.08828,
				"method": "rhf"
			},
			{
				"type": "unocc",
				"energy": 0.11803,
				"method": "rhf"
			},
			{
				"type": "unocc",
				"energy": 0.14562,
				"method": "rhf"
			},
			{
				"type": "unocc",
				"energy": 0.1558,
				"method": "rhf"
			}
		],
		"cosmo_sigma_profile": { 
			"-0.025": 0.0,
			"-0.024": 0.0,
			"-0.023": 0.0,
			"-0.022": 0.0,
			"-0.021": 0.0,
			"-0.02": 0.0,
			"-0.019": 0.0,
			"-0.018": 0.0,
			"-0.017": 0.0,
			"-0.016": 0.266353291802,
			"-0.015": 1.00147537349,
			"-0.014": 0.935031437498,
			"-0.013": 1.16014010549,
			"-0.012": 0.725342398956,
			"-0.011": 0.959631380919,
			"-0.01": 3.9789388273,
			"-0.009": 6.09921800546,
			"-0.008": 6.80913799631,
			"-0.007": 4.70689121807,
			"-0.006": 3.59826258226,
			"-0.005": 4.81002563131,
			"-0.004": 5.70911092178,
			"-0.003": 6.4947923093,
			"-0.002": 9.89256605886,
			"-0.001": 9.30108568897,
			"0.0": 7.24917327016,
			"0.001": 4.77877752019,
			"0.002": 2.97792881151,
			"0.003": 3.91206452556,
			"0.004": 3.66172454934,
			"0.005": 3.38177097739,
			"0.006": 3.15747390533,
			"0.007": 3.00559567381,
			"0.008": 2.84280188578,
			"0.009": 2.79730064715,
			"0.01": 2.97780809657,
			"0.011": 3.11429264191,
			"0.012": 2.64299745915,
			"0.013": 2.12308017383,
			"0.014": 3.81231239322,
			"0.015": 2.03289851631,
			"0.016": 0.728200197806,
			"0.017": 0.280502900067,
			"0.018": 0.0321612581353,
			"0.019": 0.0,
			"0.02": 0.0,
			"0.021": 0.0,
			"0.022": 0.0,
			"0.023": 0.0,
			"0.024": 0.0,
			"0.025": 0.0
		}
	}
}
