{
	 "smiles": "CC(N)(CO)C1CCCCC1", 
	 "Tm": 354.15, 
	 "num_atms": 30, 
	 "gaussian": { 
		 "optdone": 1, 
		 "sigma_profile": "yes", 
		 "theory": "DFT", 
		 "functional": "B3LYP", 
		 "basiset": "6-31G**", 
		 "properties": { 
			 "R2extent": 2189.9951, 
			 "electric_dipole_moment_norm": 2.87191724289, 
			 "electric_quadrupole_moment_norm": 12.9107348052, 
			 "total_energy": -484.38681354, 
			 "HOMO_LUMO_gap": 0.30931, 
			 "cosmo_polarized_energy": -7.84, 
			 "cosmo_cavitation_energy": 27.77, 
			 "cosmo_dispersion_energy": -20.59, 
			 "cosmo_repulsion_energy": 1.64, 
			 "cosmo_total_nonelectrostatic_energy": 8.81, 
			 "SMD_solvation_energy": 3.48 
		},
		"coords": [
			{
				"x": -1.9710081957,
				"y": 0.3635401149,
				"z": -0.2525499572,
				"element": "C" 
			},
			{
				"x": -0.7794799633,
				"y": 1.2558904396,
				"z": 0.1367668524,
				"element": "C" 
			},
			{
				"x": -0.6790758182,
				"y": 1.437800243,
				"z": 1.6069442632,
				"element": "N" 
			},
			{
				"x": -1.0127679988,
				"y": 2.6949224314,
				"z": -0.3922319261,
				"element": "C" 
			},
			{
				"x": -0.0284452621,
				"y": 3.5903846954,
				"z": 0.0784349616,
				"element": "O" 
			},
			{
				"x": 0.5931220908,
				"y": 0.7176846678,
				"z": -0.3781448377,
				"element": "C" 
			},
			{
				"x": 0.6224503121,
				"y": 0.4452055089,
				"z": -1.9144852755,
				"element": "C" 
			},
			{
				"x": 0.582355265,
				"y": -1.0503950932,
				"z": -2.2636901629,
				"element": "C" 
			},
			{
				"x": 1.8074486783,
				"y": -1.797247587,
				"z": -1.6923753841,
				"element": "C" 
			},
			{
				"x": 2.2701968966,
				"y": -1.1939289499,
				"z": -0.3447953914,
				"element": "C" 
			},
			{
				"x": 1.10981304,
				"y": -0.5190010901,
				"z": 0.4013351999,
				"element": "C" 
			},
			{
				"x": -1.8605090585,
				"y": -0.6502443885,
				"z": 0.1458523766,
				"element": "H" 
			},
			{
				"x": -2.0950859993,
				"y": 0.2859090253,
				"z": -1.3375619523,
				"element": "H" 
			},
			{
				"x": -2.9019999103,
				"y": 0.7771349289,
				"z": 0.15318437,
				"element": "H" 
			},
			{
				"x": -0.397573877,
				"y": 0.5743801428,
				"z": 2.0615996209,
				"element": "H" 
			},
			{
				"x": -1.5991426676,
				"y": 1.6688145254,
				"z": 1.9793887726,
				"element": "H" 
			},
			{
				"x": -0.9941899725,
				"y": 2.7224875287,
				"z": -1.4862676275,
				"element": "H" 
			},
			{
				"x": -2.0249554705,
				"y": 3.013619939,
				"z": -0.0799434564,
				"element": "H" 
			},
			{
				"x": 0.1230475986,
				"y": 3.3045548898,
				"z": 0.9974370157,
				"element": "H" 
			},
			{
				"x": 1.2974758402,
				"y": 1.5323853122,
				"z": -0.1784710429,
				"element": "H" 
			},
			{
				"x": 1.5407708582,
				"y": 0.8754081713,
				"z": -2.3325989102,
				"element": "H" 
			},
			{
				"x": -0.1970763955,
				"y": 0.9664054339,
				"z": -2.4195185157,
				"element": "H" 
			},
			{
				"x": -0.3388157908,
				"y": -1.4916086944,
				"z": -1.8641623023,
				"element": "H" 
			},
			{
				"x": 0.5326244379,
				"y": -1.1828114145,
				"z": -3.3505817273,
				"element": "H" 
			},
			{
				"x": 1.5593408046,
				"y": -2.8577997316,
				"z": -1.5648012451,
				"element": "H" 
			},
			{
				"x": 2.6352768221,
				"y": -1.7612966789,
				"z": -2.4105385438,
				"element": "H" 
			},
			{
				"x": 2.7288523114,
				"y": -1.9674012968,
				"z": 0.2813136116,
				"element": "H" 
			},
			{
				"x": 3.0506976656,
				"y": -0.4422009738,
				"z": -0.5200149414,
				"element": "H" 
			},
			{
				"x": 1.4476052868,
				"y": -0.2137278358,
				"z": 1.397966373,
				"element": "H" 
			},
			{
				"x": 0.307848472,
				"y": -1.2558642638,
				"z": 0.5517097822,
				"element": "H" 
			}
		],
		 "valence_orbital": [ 
			{
				"type": "occ",
				"energy": -0.29692,
				"method": "rhf"
			},
			{
				"type": "occ",
				"energy": -0.29464,
				"method": "rhf"
			},
			{
				"type": "occ",
				"energy": -0.28854,
				"method": "rhf"
			},
			{
				"type": "occ",
				"energy": -0.25306,
				"method": "rhf"
			},
			{
				"type": "occ",
				"energy": -0.24525,
				"method": "rhf"
			},
			{
				"type": "unocc",
				"energy": 0.06406,
				"method": "rhf"
			},
			{
				"type": "unocc",
				"energy": 0.08997,
				"method": "rhf"
			},
			{
				"type": "unocc",
				"energy": 0.09675,
				"method": "rhf"
			},
			{
				"type": "unocc",
				"energy": 0.11419,
				"method": "rhf"
			},
			{
				"type": "unocc",
				"energy": 0.11974,
				"method": "rhf"
			}
		],
		"cosmo_sigma_profile": { 
			"-0.025": 0.0,
			"-0.024": 0.0,
			"-0.023": 0.0,
			"-0.022": 0.0,
			"-0.021": 0.0,
			"-0.02": 0.0,
			"-0.019": 0.0,
			"-0.018": 0.0,
			"-0.017": 0.0,
			"-0.016": 0.0,
			"-0.015": 0.0,
			"-0.014": 0.0,
			"-0.013": 0.0,
			"-0.012": 0.0,
			"-0.011": 0.0,
			"-0.01": 0.282099050576,
			"-0.009": 2.15660629664,
			"-0.008": 2.3850805568,
			"-0.007": 4.46102883733,
			"-0.006": 4.28640531084,
			"-0.005": 4.02197903083,
			"-0.004": 8.16503113436,
			"-0.003": 15.2425410999,
			"-0.002": 26.9425191637,
			"-0.001": 36.6128402594,
			"0.0": 38.4994708004,
			"0.001": 28.6897998854,
			"0.002": 13.6297758481,
			"0.003": 3.05712653483,
			"0.004": 2.31821465355,
			"0.005": 2.16177741916,
			"0.006": 1.47199604766,
			"0.007": 2.71684491968,
			"0.008": 1.86129136687,
			"0.009": 1.50883512728,
			"0.01": 1.5278217193,
			"0.011": 1.76598381201,
			"0.012": 1.76391960129,
			"0.013": 1.91826889897,
			"0.014": 1.45008943438,
			"0.015": 2.45577140257,
			"0.016": 0.470963819253,
			"0.017": 0.0,
			"0.018": 0.0,
			"0.019": 0.0,
			"0.02": 0.0,
			"0.021": 0.0,
			"0.022": 0.0,
			"0.023": 0.0,
			"0.024": 0.0,
			"0.025": 0.0
		}
	}
}
