{
	 "smiles": "CNC1=NNC(=C1)C1=CC=CC=C1", 
	 "Tm": 396.15, 
	 "num_atms": 24, 
	 "gaussian": { 
		 "optdone": 1, 
		 "sigma_profile": "yes", 
		 "theory": "DFT", 
		 "functional": "B3LYP", 
		 "basiset": "6-31G**", 
		 "properties": { 
			 "R2extent": 3216.4772, 
			 "electric_dipole_moment_norm": 1.56771856212, 
			 "electric_quadrupole_moment_norm": 10.421754029, 
			 "total_energy": -551.92993969, 
			 "HOMO_LUMO_gap": 0.16365, 
			 "cosmo_polarized_energy": -12.07, 
			 "cosmo_cavitation_energy": 27.97, 
			 "cosmo_dispersion_energy": -20.7, 
			 "cosmo_repulsion_energy": 1.63, 
			 "cosmo_total_nonelectrostatic_energy": 8.9, 
			 "SMD_solvation_energy": 2.69 
		},
		"coords": [
			{
				"x": -2.6563989214,
				"y": -0.9716689701,
				"z": -3.8657917629,
				"element": "C" 
			},
			{
				"x": -3.1148251691,
				"y": -0.2127988671,
				"z": -2.7145649789,
				"element": "N" 
			},
			{
				"x": -2.1838993908,
				"y": 0.2017308794,
				"z": -1.7707693837,
				"element": "C" 
			},
			{
				"x": -2.428776989,
				"y": 1.278134231,
				"z": -1.0167661319,
				"element": "N" 
			},
			{
				"x": -1.3401338811,
				"y": 1.3680639716,
				"z": -0.20795266,
				"element": "N" 
			},
			{
				"x": -0.4288151369,
				"y": 0.3765304356,
				"z": -0.4081405563,
				"element": "C" 
			},
			{
				"x": -0.944313671,
				"y": -0.403684561,
				"z": -1.4371804076,
				"element": "C" 
			},
			{
				"x": 0.8157404149,
				"y": 0.2720686502,
				"z": 0.3586143783,
				"element": "C" 
			},
			{
				"x": 1.4245605022,
				"y": 1.4087752096,
				"z": 0.9196950053,
				"element": "C" 
			},
			{
				"x": 2.6017107379,
				"y": 1.2951504825,
				"z": 1.6572645106,
				"element": "C" 
			},
			{
				"x": 3.2017742448,
				"y": 0.0474096155,
				"z": 1.8372426636,
				"element": "C" 
			},
			{
				"x": 2.6118905141,
				"y": -1.0874743201,
				"z": 1.2751926264,
				"element": "C" 
			},
			{
				"x": 1.4288946535,
				"y": -0.9786336675,
				"z": 0.5480020385,
				"element": "C" 
			},
			{
				"x": -3.5103851401,
				"y": -1.1805807679,
				"z": -4.5149190553,
				"element": "H" 
			},
			{
				"x": -1.8811651995,
				"y": -0.4616705413,
				"z": -4.4606398064,
				"element": "H" 
			},
			{
				"x": -2.2514217708,
				"y": -1.9361600564,
				"z": -3.5415855545,
				"element": "H" 
			},
			{
				"x": -3.7697939478,
				"y": 0.5268002083,
				"z": -2.9338124307,
				"element": "H" 
			},
			{
				"x": -1.352114984,
				"y": 2.0370965734,
				"z": 0.5447233667,
				"element": "H" 
			},
			{
				"x": -0.4700029135,
				"y": -1.253860685,
				"z": -1.901800747,
				"element": "H" 
			},
			{
				"x": 0.9905647166,
				"y": 2.390788069,
				"z": 0.7520568054,
				"element": "H" 
			},
			{
				"x": 3.0579500108,
				"y": 2.1853928739,
				"z": 2.0807738197,
				"element": "H" 
			},
			{
				"x": 4.1216016684,
				"y": -0.0397310587,
				"z": 2.4078999826,
				"element": "H" 
			},
			{
				"x": 3.0697375658,
				"y": -2.0629905688,
				"z": 1.4123841075,
				"element": "H" 
			},
			{
				"x": 0.9597220856,
				"y": -1.8669871359,
				"z": 0.1364741707,
				"element": "H" 
			}
		],
		 "valence_orbital": [ 
			{
				"type": "occ",
				"energy": -0.28115,
				"method": "rhf"
			},
			{
				"type": "occ",
				"energy": -0.27009,
				"method": "rhf"
			},
			{
				"type": "occ",
				"energy": -0.25578,
				"method": "rhf"
			},
			{
				"type": "occ",
				"energy": -0.2191,
				"method": "rhf"
			},
			{
				"type": "occ",
				"energy": -0.18928,
				"method": "rhf"
			},
			{
				"type": "unocc",
				"energy": -0.02563,
				"method": "rhf"
			},
			{
				"type": "unocc",
				"energy": -0.00655,
				"method": "rhf"
			},
			{
				"type": "unocc",
				"energy": 0.05506,
				"method": "rhf"
			},
			{
				"type": "unocc",
				"energy": 0.0799,
				"method": "rhf"
			},
			{
				"type": "unocc",
				"energy": 0.09632,
				"method": "rhf"
			}
		],
		"cosmo_sigma_profile": { 
			"-0.025": 0.0,
			"-0.024": 0.0,
			"-0.023": 0.0,
			"-0.022": 0.0,
			"-0.021": 0.0,
			"-0.02": 0.0,
			"-0.019": 0.0,
			"-0.018": 0.0,
			"-0.017": 0.0,
			"-0.016": 0.291854847348,
			"-0.015": 1.15895287962,
			"-0.014": 0.88646260166,
			"-0.013": 0.938048913666,
			"-0.012": 1.98520896884,
			"-0.011": 2.02639482122,
			"-0.01": 1.97612489909,
			"-0.009": 2.18306374618,
			"-0.008": 2.45024769698,
			"-0.007": 2.58496982541,
			"-0.006": 9.50797262952,
			"-0.005": 16.8677715609,
			"-0.004": 18.8261927506,
			"-0.003": 18.4505694835,
			"-0.002": 15.4445680389,
			"-0.001": 18.5917556448,
			"0.0": 12.01422474,
			"0.001": 9.95161282334,
			"0.002": 12.4855767958,
			"0.003": 13.5244192636,
			"0.004": 14.6240436804,
			"0.005": 16.7774389686,
			"0.006": 8.41319634104,
			"0.007": 3.37798468131,
			"0.008": 2.64313241897,
			"0.009": 2.65020566869,
			"0.01": 2.63380402284,
			"0.011": 2.09232880276,
			"0.012": 1.91210676967,
			"0.013": 1.12610997803,
			"0.014": 1.64565223962,
			"0.015": 1.204680652,
			"0.016": 0.790554240823,
			"0.017": 0.543106537466,
			"0.018": 0.0,
			"0.019": 0.0,
			"0.02": 0.0,
			"0.021": 0.0,
			"0.022": 0.0,
			"0.023": 0.0,
			"0.024": 0.0,
			"0.025": 0.0
		}
	}
}
