{
	 "smiles": "NC1=NC2=C(N=CN2[C@@H]2C[C@H](CO)C=C2)C(NC2CC2)=N1", 
	 "Tm": 438.15, 
	 "num_atms": 39, 
	 "gaussian": { 
		 "optdone": 1, 
		 "sigma_profile": "yes", 
		 "theory": "DFT", 
		 "functional": "B3LYP", 
		 "basiset": "6-31G**", 
		 "properties": { 
			 "R2extent": 7828.5537, 
			 "electric_dipole_moment_norm": 3.83464337194, 
			 "electric_quadrupole_moment_norm": 16.284169557, 
			 "total_energy": -948.037222132, 
			 "HOMO_LUMO_gap": 0.18437, 
			 "cosmo_polarized_energy": -18.78, 
			 "cosmo_cavitation_energy": 40.54, 
			 "cosmo_dispersion_energy": -29.68, 
			 "cosmo_repulsion_energy": 2.31, 
			 "cosmo_total_nonelectrostatic_energy": 13.17, 
			 "SMD_solvation_energy": 2.66 
		},
		"coords": [
			{
				"x": 0.1356455317,
				"y": 2.4190540912,
				"z": -3.154050331,
				"element": "N" 
			},
			{
				"x": 0.7205700595,
				"y": 1.5510915358,
				"z": -2.2565253883,
				"element": "C" 
			},
			{
				"x": -0.103718802,
				"y": 0.956369347,
				"z": -1.3763391054,
				"element": "N" 
			},
			{
				"x": 0.5625254291,
				"y": 0.100525724,
				"z": -0.5974581341,
				"element": "C" 
			},
			{
				"x": 1.9358062581,
				"y": -0.2001347585,
				"z": -0.6182210294,
				"element": "C" 
			},
			{
				"x": 2.2349719825,
				"y": -1.1444037755,
				"z": 0.3557009151,
				"element": "N" 
			},
			{
				"x": 1.0887563097,
				"y": -1.4025145486,
				"z": 0.9349790981,
				"element": "C" 
			},
			{
				"x": 0.0315144153,
				"y": -0.6788242304,
				"z": 0.4076739917,
				"element": "N" 
			},
			{
				"x": -1.3800673082,
				"y": -0.7272420109,
				"z": 0.8018674297,
				"element": "C" 
			},
			{
				"x": -1.63527899,
				"y": -0.3199609287,
				"z": 2.2864346827,
				"element": "C" 
			},
			{
				"x": -2.3401005384,
				"y": -1.5281332564,
				"z": 2.973280406,
				"element": "C" 
			},
			{
				"x": -1.6052948057,
				"y": -2.0567687222,
				"z": 4.2095719414,
				"element": "C" 
			},
			{
				"x": -0.2937372503,
				"y": -2.4570009471,
				"z": 3.8287790305,
				"element": "O" 
			},
			{
				"x": -2.4572534527,
				"y": -2.5488247139,
				"z": 1.863821344,
				"element": "C" 
			},
			{
				"x": -1.9526131993,
				"y": -2.1238564306,
				"z": 0.7061859133,
				"element": "C" 
			},
			{
				"x": 2.6926606728,
				"y": 0.5042275046,
				"z": -1.5865613214,
				"element": "C" 
			},
			{
				"x": 4.0292877999,
				"y": 0.4262501763,
				"z": -1.8303011214,
				"element": "N" 
			},
			{
				"x": 5.1199850631,
				"y": -0.3329248814,
				"z": -1.269753059,
				"element": "C" 
			},
			{
				"x": 5.0775362965,
				"y": -1.7700865004,
				"z": -0.8205937417,
				"element": "C" 
			},
			{
				"x": 5.3312590302,
				"y": -0.6621541676,
				"z": 0.1848641943,
				"element": "C" 
			},
			{
				"x": 2.0469034811,
				"y": 1.3788341397,
				"z": -2.3905221553,
				"element": "N" 
			},
			{
				"x": -0.7656962682,
				"y": 2.7785622142,
				"z": -2.8792987425,
				"element": "H" 
			},
			{
				"x": 0.7663132328,
				"y": 3.0705335434,
				"z": -3.5951720247,
				"element": "H" 
			},
			{
				"x": 0.931616007,
				"y": -2.0876143783,
				"z": 1.7571946404,
				"element": "H" 
			},
			{
				"x": -1.872516391,
				"y": -0.0402643278,
				"z": 0.1060738776,
				"element": "H" 
			},
			{
				"x": -0.6861973209,
				"y": -0.0925785886,
				"z": 2.7765661399,
				"element": "H" 
			},
			{
				"x": -2.2547894868,
				"y": 0.5791411969,
				"z": 2.3348529162,
				"element": "H" 
			},
			{
				"x": -3.3428306245,
				"y": -1.2383757651,
				"z": 3.3204071164,
				"element": "H" 
			},
			{
				"x": -1.5712575329,
				"y": -1.2648617429,
				"z": 4.9742721963,
				"element": "H" 
			},
			{
				"x": -2.1678689215,
				"y": -2.9035254401,
				"z": 4.6351496146,
				"element": "H" 
			},
			{
				"x": 0.2058228552,
				"y": -2.6740849212,
				"z": 4.6248189826,
				"element": "H" 
			},
			{
				"x": -2.9139367566,
				"y": -3.5219252979,
				"z": 2.0232871653,
				"element": "H" 
			},
			{
				"x": -1.9271010273,
				"y": -2.6846240444,
				"z": -0.2228548221,
				"element": "H" 
			},
			{
				"x": 4.2838136494,
				"y": 1.0430000951,
				"z": -2.5890819428,
				"element": "H" 
			},
			{
				"x": 6.0233010235,
				"y": -0.0542006028,
				"z": -1.8045245545,
				"element": "H" 
			},
			{
				"x": 4.1077857343,
				"y": -2.2465347461,
				"z": -0.735076789,
				"element": "H" 
			},
			{
				"x": 5.893565989,
				"y": -2.4174698438,
				"z": -1.1305839577,
				"element": "H" 
			},
			{
				"x": 6.3284290108,
				"y": -0.5186083515,
				"z": 0.5925841111,
				"element": "H" 
			},
			{
				"x": 4.5128888448,
				"y": -0.4769916452,
				"z": 0.8709525129,
				"element": "H" 
			}
		],
		 "valence_orbital": [ 
			{
				"type": "occ",
				"energy": -0.25402,
				"method": "rhf"
			},
			{
				"type": "occ",
				"energy": -0.2409,
				"method": "rhf"
			},
			{
				"type": "occ",
				"energy": -0.23144,
				"method": "rhf"
			},
			{
				"type": "occ",
				"energy": -0.21195,
				"method": "rhf"
			},
			{
				"type": "occ",
				"energy": -0.18029,
				"method": "rhf"
			},
			{
				"type": "unocc",
				"energy": 0.00408,
				"method": "rhf"
			},
			{
				"type": "unocc",
				"energy": 0.01432,
				"method": "rhf"
			},
			{
				"type": "unocc",
				"energy": 0.03896,
				"method": "rhf"
			},
			{
				"type": "unocc",
				"energy": 0.06218,
				"method": "rhf"
			},
			{
				"type": "unocc",
				"energy": 0.06487,
				"method": "rhf"
			}
		],
		"cosmo_sigma_profile": { 
			"-0.025": 0.0,
			"-0.024": 0.0,
			"-0.023": 0.0,
			"-0.022": 0.0,
			"-0.021": 0.0,
			"-0.02": 0.0,
			"-0.019": 0.0,
			"-0.018": 0.0,
			"-0.017": 0.0,
			"-0.016": 0.463527904829,
			"-0.015": 1.18262435961,
			"-0.014": 1.19864757298,
			"-0.013": 2.16516741328,
			"-0.012": 4.4626982122,
			"-0.011": 3.50329515062,
			"-0.01": 3.68604122557,
			"-0.009": 4.03297177609,
			"-0.008": 3.68463706503,
			"-0.007": 4.17749207317,
			"-0.006": 7.48600508909,
			"-0.005": 11.387832581,
			"-0.004": 26.6797505196,
			"-0.003": 31.1632831012,
			"-0.002": 24.6095547569,
			"-0.001": 23.2642972721,
			"0.0": 20.8895418397,
			"0.001": 24.6168664388,
			"0.002": 24.0601945786,
			"0.003": 18.8879467277,
			"0.004": 16.4082419953,
			"0.005": 16.2356910323,
			"0.006": 10.1224745889,
			"0.007": 7.27461201423,
			"0.008": 6.77456181352,
			"0.009": 5.36565148339,
			"0.01": 4.98582098339,
			"0.011": 4.62913643679,
			"0.012": 5.18149225074,
			"0.013": 1.45209941942,
			"0.014": 0.0,
			"0.015": 0.0,
			"0.016": 0.0,
			"0.017": 0.0,
			"0.018": 0.0,
			"0.019": 0.0,
			"0.02": 0.0,
			"0.021": 0.0,
			"0.022": 0.0,
			"0.023": 0.0,
			"0.024": 0.0,
			"0.025": 0.0
		}
	}
}
