{
	 "smiles": "COC1=CC=CC2=C1C(N)=NO2", 
	 "Tm": 414.15, 
	 "num_atms": 20, 
	 "gaussian": { 
		 "optdone": 1, 
		 "sigma_profile": "yes", 
		 "theory": "DFT", 
		 "functional": "B3LYP", 
		 "basiset": "6-31G**", 
		 "properties": { 
			 "R2extent": 2403.9476, 
			 "electric_dipole_moment_norm": 5.18648690059, 
			 "electric_quadrupole_moment_norm": 15.6008293231, 
			 "total_energy": -569.570394702, 
			 "HOMO_LUMO_gap": 0.18631, 
			 "cosmo_polarized_energy": -13.38, 
			 "cosmo_cavitation_energy": 24.02, 
			 "cosmo_dispersion_energy": -18.18, 
			 "cosmo_repulsion_energy": 1.44, 
			 "cosmo_total_nonelectrostatic_energy": 7.28, 
			 "SMD_solvation_energy": 4.61 
		},
		"coords": [
			{
				"x": 0.885235575,
				"y": -2.0869616447,
				"z": -1.3297776928,
				"element": "C" 
			},
			{
				"x": 1.0797662606,
				"y": -0.678764154,
				"z": -1.2748694522,
				"element": "O" 
			},
			{
				"x": 0.5860187011,
				"y": -0.0053305082,
				"z": -0.1959131134,
				"element": "C" 
			},
			{
				"x": -0.0774255589,
				"y": -0.5750043086,
				"z": 0.8900301223,
				"element": "C" 
			},
			{
				"x": -0.5239029318,
				"y": 0.2386782444,
				"z": 1.9546340808,
				"element": "C" 
			},
			{
				"x": -0.3315090619,
				"y": 1.6141725739,
				"z": 1.985769622,
				"element": "C" 
			},
			{
				"x": 0.3358428976,
				"y": 2.1590901586,
				"z": 0.8835523184,
				"element": "C" 
			},
			{
				"x": 0.7809824749,
				"y": 1.3872225101,
				"z": -0.1897554077,
				"element": "C" 
			},
			{
				"x": 1.3920203944,
				"y": 2.3510952612,
				"z": -1.0674238472,
				"element": "C" 
			},
			{
				"x": 1.9279036103,
				"y": 2.090902386,
				"z": -2.3068856083,
				"element": "N" 
			},
			{
				"x": 1.3339133482,
				"y": 3.5663181261,
				"z": -0.5687055593,
				"element": "N" 
			},
			{
				"x": 0.6493545036,
				"y": 3.4556991677,
				"z": 0.6799457927,
				"element": "O" 
			},
			{
				"x": 1.3765722282,
				"y": -2.5912452192,
				"z": -0.4888320758,
				"element": "H" 
			},
			{
				"x": 1.3378050573,
				"y": -2.4181307286,
				"z": -2.2652694413,
				"element": "H" 
			},
			{
				"x": -0.1813265885,
				"y": -2.3413088566,
				"z": -1.3317464285,
				"element": "H" 
			},
			{
				"x": -0.255917545,
				"y": -1.642180827,
				"z": 0.9346328079,
				"element": "H" 
			},
			{
				"x": -1.036246226,
				"y": -0.240523026,
				"z": 2.7839094231,
				"element": "H" 
			},
			{
				"x": -0.672321887,
				"y": 2.2310068591,
				"z": 2.8084329864,
				"element": "H" 
			},
			{
				"x": 2.5409628562,
				"y": 2.8070878515,
				"z": -2.6699328227,
				"element": "H" 
			},
			{
				"x": 2.2438718918,
				"y": 1.1420761344,
				"z": -2.4422957042,
				"element": "H" 
			}
		],
		 "valence_orbital": [ 
			{
				"type": "occ",
				"energy": -0.32033,
				"method": "rhf"
			},
			{
				"type": "occ",
				"energy": -0.29179,
				"method": "rhf"
			},
			{
				"type": "occ",
				"energy": -0.24694,
				"method": "rhf"
			},
			{
				"type": "occ",
				"energy": -0.24388,
				"method": "rhf"
			},
			{
				"type": "occ",
				"energy": -0.20906,
				"method": "rhf"
			},
			{
				"type": "unocc",
				"energy": -0.02275,
				"method": "rhf"
			},
			{
				"type": "unocc",
				"energy": 0.01462,
				"method": "rhf"
			},
			{
				"type": "unocc",
				"energy": 0.06337,
				"method": "rhf"
			},
			{
				"type": "unocc",
				"energy": 0.07381,
				"method": "rhf"
			},
			{
				"type": "unocc",
				"energy": 0.0861,
				"method": "rhf"
			}
		],
		"cosmo_sigma_profile": { 
			"-0.025": 0.0,
			"-0.024": 0.0,
			"-0.023": 0.0,
			"-0.022": 0.0,
			"-0.021": 0.0,
			"-0.02": 0.0,
			"-0.019": 0.0,
			"-0.018": 0.0,
			"-0.017": 0.0,
			"-0.016": 0.0,
			"-0.015": 0.0,
			"-0.014": 0.410527357051,
			"-0.013": 1.32459832033,
			"-0.012": 1.74113537211,
			"-0.011": 2.30198207013,
			"-0.01": 1.62940377541,
			"-0.009": 1.58174799567,
			"-0.008": 1.82613072872,
			"-0.007": 5.89746787536,
			"-0.006": 14.0169707429,
			"-0.005": 16.8814394682,
			"-0.004": 15.8520373674,
			"-0.003": 11.5619119856,
			"-0.002": 9.49548659936,
			"-0.001": 7.60000413114,
			"0.0": 8.87993941295,
			"0.001": 13.6505561741,
			"0.002": 16.5318441798,
			"0.003": 12.3374949809,
			"0.004": 12.1348246679,
			"0.005": 6.85171789453,
			"0.006": 4.34977133844,
			"0.007": 3.24334798247,
			"0.008": 3.20619310609,
			"0.009": 4.72695681668,
			"0.01": 4.81129096588,
			"0.011": 2.90324078173,
			"0.012": 1.92020290364,
			"0.013": 1.49992935097,
			"0.014": 1.71335697414,
			"0.015": 0.957508698818,
			"0.016": 0.108177527584,
			"0.017": 0.0,
			"0.018": 0.0,
			"0.019": 0.0,
			"0.02": 0.0,
			"0.021": 0.0,
			"0.022": 0.0,
			"0.023": 0.0,
			"0.024": 0.0,
			"0.025": 0.0
		}
	}
}
