{
	 "smiles": "CN1N=C(C)C(=C1C)S(N)(=O)=O", 
	 "Tm": 487.15, 
	 "num_atms": 23, 
	 "gaussian": { 
		 "optdone": 1, 
		 "sigma_profile": "yes", 
		 "theory": "DFT", 
		 "functional": "B3LYP", 
		 "basiset": "6-31G**", 
		 "properties": { 
			 "R2extent": 2337.5031, 
			 "electric_dipole_moment_norm": 5.8844207149, 
			 "electric_quadrupole_moment_norm": 13.6465103114, 
			 "total_energy": -948.082416678, 
			 "HOMO_LUMO_gap": 0.25184, 
			 "cosmo_polarized_energy": -20.86, 
			 "cosmo_cavitation_energy": 27.51, 
			 "cosmo_dispersion_energy": -20.37, 
			 "cosmo_repulsion_energy": 1.58, 
			 "cosmo_total_nonelectrostatic_energy": 8.72, 
			 "SMD_solvation_energy": 3.68 
		},
		"coords": [
			{
				"x": -0.9970740502,
				"y": -1.1193113814,
				"z": 3.5081088619,
				"element": "C" 
			},
			{
				"x": -0.8252121889,
				"y": -0.4252588099,
				"z": 2.2439711953,
				"element": "N" 
			},
			{
				"x": -1.5175315869,
				"y": 0.724819897,
				"z": 2.0199384407,
				"element": "N" 
			},
			{
				"x": -1.1946178555,
				"y": 1.1030493634,
				"z": 0.7892281704,
				"element": "C" 
			},
			{
				"x": -1.7807404127,
				"y": 2.3463945977,
				"z": 0.1962259632,
				"element": "C" 
			},
			{
				"x": -0.2750945263,
				"y": 0.1750575027,
				"z": 0.2175306842,
				"element": "C" 
			},
			{
				"x": -0.0612643093,
				"y": -0.8060294637,
				"z": 1.1886558227,
				"element": "C" 
			},
			{
				"x": 0.7627068408,
				"y": -2.053196719,
				"z": 1.2141065129,
				"element": "C" 
			},
			{
				"x": 0.4194419339,
				"y": 0.2618015192,
				"z": -1.4022684287,
				"element": "S" 
			},
			{
				"x": 1.571259929,
				"y": 1.4917614422,
				"z": -1.3882864289,
				"element": "N" 
			},
			{
				"x": -0.6227536767,
				"y": 0.7297517724,
				"z": -2.3146698077,
				"element": "O" 
			},
			{
				"x": 1.1691176305,
				"y": -0.9726848573,
				"z": -1.6421883155,
				"element": "O" 
			},
			{
				"x": -1.4825905637,
				"y": -2.0895802955,
				"z": 3.3621365131,
				"element": "H" 
			},
			{
				"x": -0.0333343204,
				"y": -1.2741846367,
				"z": 4.0020691771,
				"element": "H" 
			},
			{
				"x": -1.6289628549,
				"y": -0.4899385661,
				"z": 4.1330556406,
				"element": "H" 
			},
			{
				"x": -2.5342179118,
				"y": 2.7503137583,
				"z": 0.8751547759,
				"element": "H" 
			},
			{
				"x": -2.2338432315,
				"y": 2.1390487775,
				"z": -0.7762616542,
				"element": "H" 
			},
			{
				"x": -1.0170796691,
				"y": 3.1192312496,
				"z": 0.0417587087,
				"element": "H" 
			},
			{
				"x": 1.2543510545,
				"y": -2.1909223817,
				"z": 0.2524978835,
				"element": "H" 
			},
			{
				"x": 0.1370067898,
				"y": -2.9309270612,
				"z": 1.4130413139,
				"element": "H" 
			},
			{
				"x": 1.5250149837,
				"y": -2.0088919538,
				"z": 2.0013328361,
				"element": "H" 
			},
			{
				"x": 2.3221908606,
				"y": 1.3151752403,
				"z": -0.7280154609,
				"element": "H" 
			},
			{
				"x": 1.1523271352,
				"y": 2.4090210061,
				"z": -1.2694224044,
				"element": "H" 
			}
		],
		 "valence_orbital": [ 
			{
				"type": "occ",
				"energy": -0.30836,
				"method": "rhf"
			},
			{
				"type": "occ",
				"energy": -0.30067,
				"method": "rhf"
			},
			{
				"type": "occ",
				"energy": -0.28916,
				"method": "rhf"
			},
			{
				"type": "occ",
				"energy": -0.25439,
				"method": "rhf"
			},
			{
				"type": "occ",
				"energy": -0.25374,
				"method": "rhf"
			},
			{
				"type": "unocc",
				"energy": -0.0019,
				"method": "rhf"
			},
			{
				"type": "unocc",
				"energy": 0.02262,
				"method": "rhf"
			},
			{
				"type": "unocc",
				"energy": 0.0538,
				"method": "rhf"
			},
			{
				"type": "unocc",
				"energy": 0.07652,
				"method": "rhf"
			},
			{
				"type": "unocc",
				"energy": 0.08865,
				"method": "rhf"
			}
		],
		"cosmo_sigma_profile": { 
			"-0.025": 0.0,
			"-0.024": 0.0,
			"-0.023": 0.0,
			"-0.022": 0.0,
			"-0.021": 0.0,
			"-0.02": 0.0,
			"-0.019": 0.0,
			"-0.018": 0.0,
			"-0.017": 0.0,
			"-0.016": 0.0,
			"-0.015": 0.892293618081,
			"-0.014": 1.81766938073,
			"-0.013": 2.68412212043,
			"-0.012": 2.67837466836,
			"-0.011": 3.61099583701,
			"-0.01": 3.26295950718,
			"-0.009": 2.26025465416,
			"-0.008": 1.92975078008,
			"-0.007": 7.26256404106,
			"-0.006": 14.3373626578,
			"-0.005": 13.466489279,
			"-0.004": 15.5018150612,
			"-0.003": 17.6332218914,
			"-0.002": 15.8010409414,
			"-0.001": 16.5092933584,
			"0.0": 12.716179344,
			"0.001": 8.38514870379,
			"0.002": 8.22543614137,
			"0.003": 6.94411608038,
			"0.004": 6.17424635972,
			"0.005": 4.71168479913,
			"0.006": 5.37763579625,
			"0.007": 5.07153635219,
			"0.008": 6.22146091549,
			"0.009": 6.36701447806,
			"0.01": 6.6387008834,
			"0.011": 9.02144769033,
			"0.012": 9.04760744703,
			"0.013": 1.16212285705,
			"0.014": 1.01833515616,
			"0.015": 0.41698375942,
			"0.016": 0.0,
			"0.017": 0.0,
			"0.018": 0.0,
			"0.019": 0.0,
			"0.02": 0.0,
			"0.021": 0.0,
			"0.022": 0.0,
			"0.023": 0.0,
			"0.024": 0.0,
			"0.025": 0.0
		}
	}
}
