{
	 "smiles": "OC1=C(F)C=C(C=C1)C#N", 
	 "Tm": 407.15, 
	 "num_atms": 14, 
	 "gaussian": { 
		 "optdone": 1, 
		 "sigma_profile": "yes", 
		 "theory": "DFT", 
		 "functional": "B3LYP", 
		 "basiset": "6-31G**", 
		 "properties": { 
			 "R2extent": 1712.8281, 
			 "electric_dipole_moment_norm": 4.13205876289, 
			 "electric_quadrupole_moment_norm": 10.7240798859, 
			 "total_energy": -498.941982856, 
			 "HOMO_LUMO_gap": 0.19816, 
			 "cosmo_polarized_energy": -10.95, 
			 "cosmo_cavitation_energy": 20.31, 
			 "cosmo_dispersion_energy": -14.5, 
			 "cosmo_repulsion_energy": 1.16, 
			 "cosmo_total_nonelectrostatic_energy": 6.96, 
			 "SMD_solvation_energy": 5.84 
		},
		"coords": [
			{
				"x": 0.9649097682,
				"y": -3.3536691648,
				"z": 0.1185187115,
				"element": "O" 
			},
			{
				"x": 0.7079110643,
				"y": -2.1122569625,
				"z": -0.3541632459,
				"element": "C" 
			},
			{
				"x": 0.4588272731,
				"y": -1.0427658649,
				"z": 0.5164596817,
				"element": "C" 
			},
			{
				"x": 0.4904728563,
				"y": -1.3235040959,
				"z": 1.8450072604,
				"element": "F" 
			},
			{
				"x": 0.1935219731,
				"y": 0.2347952847,
				"z": 0.0705668694,
				"element": "C" 
			},
			{
				"x": 0.173277234,
				"y": 0.4687459792,
				"z": -1.3174908869,
				"element": "C" 
			},
			{
				"x": 0.4206469528,
				"y": -0.5909088074,
				"z": -2.2081184561,
				"element": "C" 
			},
			{
				"x": 0.6856200801,
				"y": -1.870178127,
				"z": -1.7303668848,
				"element": "C" 
			},
			{
				"x": -0.0987992638,
				"y": 1.7832203658,
				"z": -1.8151080268,
				"element": "C" 
			},
			{
				"x": -0.3198002427,
				"y": 2.8511868719,
				"z": -2.2209005994,
				"element": "N" 
			},
			{
				"x": 0.9371372591,
				"y": -3.3216331648,
				"z": 1.0867227102,
				"element": "H" 
			},
			{
				"x": 0.0068806865,
				"y": 1.0301699237,
				"z": 0.7825592664,
				"element": "H" 
			},
			{
				"x": 0.4034756023,
				"y": -0.4035874115,
				"z": -3.2759518026,
				"element": "H" 
			},
			{
				"x": 0.8780187567,
				"y": -2.6960148264,
				"z": -2.4063345972,
				"element": "H" 
			}
		],
		 "valence_orbital": [ 
			{
				"type": "occ",
				"energy": -0.35892,
				"method": "rhf"
			},
			{
				"type": "occ",
				"energy": -0.33321,
				"method": "rhf"
			},
			{
				"type": "occ",
				"energy": -0.33214,
				"method": "rhf"
			},
			{
				"type": "occ",
				"energy": -0.2811,
				"method": "rhf"
			},
			{
				"type": "occ",
				"energy": -0.24797,
				"method": "rhf"
			},
			{
				"type": "unocc",
				"energy": -0.04981,
				"method": "rhf"
			},
			{
				"type": "unocc",
				"energy": -0.02888,
				"method": "rhf"
			},
			{
				"type": "unocc",
				"energy": 0.03151,
				"method": "rhf"
			},
			{
				"type": "unocc",
				"energy": 0.04912,
				"method": "rhf"
			},
			{
				"type": "unocc",
				"energy": 0.08209,
				"method": "rhf"
			}
		],
		"cosmo_sigma_profile": { 
			"-0.025": 0.0,
			"-0.024": 0.0,
			"-0.023": 0.0,
			"-0.022": 0.0,
			"-0.021": 0.0,
			"-0.02": 0.0,
			"-0.019": 0.0,
			"-0.018": 0.136422499365,
			"-0.017": 0.474669733447,
			"-0.016": 0.693385245479,
			"-0.015": 0.974339511455,
			"-0.014": 0.608973141103,
			"-0.013": 0.75827441949,
			"-0.012": 0.808205066938,
			"-0.011": 1.09761480398,
			"-0.01": 1.47477228277,
			"-0.009": 3.07820573114,
			"-0.008": 5.90132562545,
			"-0.007": 7.9814074069,
			"-0.006": 6.22080254461,
			"-0.005": 6.24836281353,
			"-0.004": 6.51827987604,
			"-0.003": 7.41915198565,
			"-0.002": 8.62073317735,
			"-0.001": 17.0737710347,
			"0.0": 15.5469716462,
			"0.001": 14.6704594541,
			"0.002": 11.3654481131,
			"0.003": 9.83472304414,
			"0.004": 4.00638403893,
			"0.005": 3.76537132695,
			"0.006": 3.4204611617,
			"0.007": 4.39720165266,
			"0.008": 5.08075889835,
			"0.009": 4.75525631062,
			"0.01": 4.69589344733,
			"0.011": 2.80362068335,
			"0.012": 2.52984578239,
			"0.013": 1.75391339644,
			"0.014": 0.115053880405,
			"0.015": 0.0,
			"0.016": 0.0,
			"0.017": 0.0,
			"0.018": 0.0,
			"0.019": 0.0,
			"0.02": 0.0,
			"0.021": 0.0,
			"0.022": 0.0,
			"0.023": 0.0,
			"0.024": 0.0,
			"0.025": 0.0
		}
	}
}
