{
	 "smiles": "OC(CNCC1=CC=CC=C1)C1=CC=C(C=C1)[N+]([O-])=O", 
	 "Tm": 407.15, 
	 "num_atms": 36, 
	 "gaussian": { 
		 "optdone": 1, 
		 "sigma_profile": "yes", 
		 "theory": "DFT", 
		 "functional": "B3LYP", 
		 "basiset": "6-31G**", 
		 "properties": { 
			 "R2extent": 8730.5247, 
			 "electric_dipole_moment_norm": 4.68161942174, 
			 "electric_quadrupole_moment_norm": 38.8108104735, 
			 "total_energy": -916.302021949, 
			 "HOMO_LUMO_gap": 0.13222, 
			 "cosmo_polarized_energy": -16.42, 
			 "cosmo_cavitation_energy": 40.6, 
			 "cosmo_dispersion_energy": -28.12, 
			 "cosmo_repulsion_energy": 2.18, 
			 "cosmo_total_nonelectrostatic_energy": 14.66, 
			 "SMD_solvation_energy": 7.49 
		},
		"coords": [
			{
				"x": 1.3069816897,
				"y": -0.7206192791,
				"z": -1.6878206265,
				"element": "O" 
			},
			{
				"x": 0.2314168211,
				"y": 0.1916315538,
				"z": -1.887279987,
				"element": "C" 
			},
			{
				"x": -1.0451638403,
				"y": -0.4471989405,
				"z": -1.2833887909,
				"element": "C" 
			},
			{
				"x": -1.5520058195,
				"y": -1.6532898837,
				"z": -1.9175011877,
				"element": "N" 
			},
			{
				"x": -0.8338857891,
				"y": -2.9105373855,
				"z": -1.6667931152,
				"element": "C" 
			},
			{
				"x": -1.0055691074,
				"y": -3.393712528,
				"z": -0.2372801339,
				"element": "C" 
			},
			{
				"x": -2.2703451617,
				"y": -3.4038736743,
				"z": 0.3679081092,
				"element": "C" 
			},
			{
				"x": -2.4331789937,
				"y": -3.887293815,
				"z": 1.6654645352,
				"element": "C" 
			},
			{
				"x": -1.3325611094,
				"y": -4.3689850118,
				"z": 2.3800956341,
				"element": "C" 
			},
			{
				"x": -0.0689814404,
				"y": -4.3575093135,
				"z": 1.7890561434,
				"element": "C" 
			},
			{
				"x": 0.0913279343,
				"y": -3.868127537,
				"z": 0.4902916988,
				"element": "C" 
			},
			{
				"x": 0.5065538898,
				"y": 1.5450556151,
				"z": -1.2532717597,
				"element": "C" 
			},
			{
				"x": -0.0779917255,
				"y": 2.708592665,
				"z": -1.7751394366,
				"element": "C" 
			},
			{
				"x": 0.1308924424,
				"y": 3.9456962435,
				"z": -1.1739780328,
				"element": "C" 
			},
			{
				"x": 0.9393108662,
				"y": 4.0073130983,
				"z": -0.0397000344,
				"element": "C" 
			},
			{
				"x": 1.5361829386,
				"y": 2.8707710843,
				"z": 0.5027549137,
				"element": "C" 
			},
			{
				"x": 1.3135084004,
				"y": 1.6409809821,
				"z": -0.1103660797,
				"element": "C" 
			},
			{
				"x": 1.1732952243,
				"y": 5.3112828181,
				"z": 0.598367188,
				"element": "N" 
			},
			{
				"x": 0.6322224756,
				"y": 6.2974235228,
				"z": 0.0980154253,
				"element": "O" 
			},
			{
				"x": 1.8959421733,
				"y": 5.3386386084,
				"z": 1.5943233979,
				"element": "O" 
			},
			{
				"x": 2.0967818785,
				"y": -0.3517133374,
				"z": -2.1057563411,
				"element": "H" 
			},
			{
				"x": 0.0534917989,
				"y": 0.3418274706,
				"z": -2.9662683957,
				"element": "H" 
			},
			{
				"x": -0.8492457995,
				"y": -0.6648638786,
				"z": -0.2279163103,
				"element": "H" 
			},
			{
				"x": -1.8324335895,
				"y": 0.3164057771,
				"z": -1.3108766502,
				"element": "H" 
			},
			{
				"x": -1.6763164611,
				"y": -1.5120727934,
				"z": -2.915304543,
				"element": "H" 
			},
			{
				"x": 0.2369598402,
				"y": -2.8568986901,
				"z": -1.9017088009,
				"element": "H" 
			},
			{
				"x": -1.2759422467,
				"y": -3.6528513624,
				"z": -2.3450740133,
				"element": "H" 
			},
			{
				"x": -3.11923032,
				"y": -3.0172704377,
				"z": -0.1882632293,
				"element": "H" 
			},
			{
				"x": -3.4197357452,
				"y": -3.8897570394,
				"z": 2.1212519158,
				"element": "H" 
			},
			{
				"x": -1.4599074022,
				"y": -4.7456316427,
				"z": 3.3911609209,
				"element": "H" 
			},
			{
				"x": 0.7939952024,
				"y": -4.7218574486,
				"z": 2.3397635172,
				"element": "H" 
			},
			{
				"x": 1.0791185077,
				"y": -3.849757301,
				"z": 0.0361943228,
				"element": "H" 
			},
			{
				"x": -0.6981730153,
				"y": 2.6470964874,
				"z": -2.6657883887,
				"element": "H" 
			},
			{
				"x": -0.3079555991,
				"y": 4.8550175646,
				"z": -1.5650606967,
				"element": "H" 
			},
			{
				"x": 2.1568204465,
				"y": 2.965715026,
				"z": 1.3850637122,
				"element": "H" 
			},
			{
				"x": 1.7691206359,
				"y": 0.7406727828,
				"z": 0.2878251191,
				"element": "H" 
			}
		],
		 "valence_orbital": [ 
			{
				"type": "occ",
				"energy": -0.27925,
				"method": "rhf"
			},
			{
				"type": "occ",
				"energy": -0.27458,
				"method": "rhf"
			},
			{
				"type": "occ",
				"energy": -0.24402,
				"method": "rhf"
			},
			{
				"type": "occ",
				"energy": -0.23955,
				"method": "rhf"
			},
			{
				"type": "occ",
				"energy": -0.22105,
				"method": "rhf"
			},
			{
				"type": "unocc",
				"energy": -0.08883,
				"method": "rhf"
			},
			{
				"type": "unocc",
				"energy": -0.02978,
				"method": "rhf"
			},
			{
				"type": "unocc",
				"energy": -0.00282,
				"method": "rhf"
			},
			{
				"type": "unocc",
				"energy": 0.00153,
				"method": "rhf"
			},
			{
				"type": "unocc",
				"energy": 0.00553,
				"method": "rhf"
			}
		],
		"cosmo_sigma_profile": { 
			"-0.025": 0.0,
			"-0.024": 0.0,
			"-0.023": 0.0,
			"-0.022": 0.0,
			"-0.021": 0.0,
			"-0.02": 0.0,
			"-0.019": 0.0,
			"-0.018": 0.0,
			"-0.017": 0.0,
			"-0.016": 0.526642627592,
			"-0.015": 1.06584058276,
			"-0.014": 1.14627504894,
			"-0.013": 0.614304462131,
			"-0.012": 0.61266729867,
			"-0.011": 1.31089304663,
			"-0.01": 2.56697071261,
			"-0.009": 2.16868985661,
			"-0.008": 2.46200800855,
			"-0.007": 8.84844957164,
			"-0.006": 14.7539503795,
			"-0.005": 21.3562420928,
			"-0.004": 24.0982553124,
			"-0.003": 25.5295224434,
			"-0.002": 23.6242430382,
			"-0.001": 25.6670727824,
			"0.0": 23.8388924692,
			"0.001": 23.5831143306,
			"0.002": 22.9985377597,
			"0.003": 14.3848772507,
			"0.004": 13.9746318533,
			"0.005": 14.6028006714,
			"0.006": 14.2628894117,
			"0.007": 13.0987993021,
			"0.008": 11.8446122883,
			"0.009": 5.65606036638,
			"0.01": 4.82453677982,
			"0.011": 1.21002491224,
			"0.012": 0.326084800693,
			"0.013": 0.662837056178,
			"0.014": 0.14405927991,
			"0.015": 0.0,
			"0.016": 0.0,
			"0.017": 0.0,
			"0.018": 0.0,
			"0.019": 0.0,
			"0.02": 0.0,
			"0.021": 0.0,
			"0.022": 0.0,
			"0.023": 0.0,
			"0.024": 0.0,
			"0.025": 0.0
		}
	}
}
