{
	 "smiles": "NNC(=O)NC1CC1", 
	 "Tm": 338.15, 
	 "num_atms": 17, 
	 "gaussian": { 
		 "optdone": 1, 
		 "sigma_profile": "yes", 
		 "theory": "DFT", 
		 "functional": "B3LYP", 
		 "basiset": "6-31G**", 
		 "properties": { 
			 "R2extent": 1363.1779, 
			 "electric_dipole_moment_norm": 4.20830726659, 
			 "electric_quadrupole_moment_norm": 12.1038236806, 
			 "total_energy": -397.282884804, 
			 "HOMO_LUMO_gap": 0.29026, 
			 "cosmo_polarized_energy": -15.6, 
			 "cosmo_cavitation_energy": 20.64, 
			 "cosmo_dispersion_energy": -15.34, 
			 "cosmo_repulsion_energy": 1.34, 
			 "cosmo_total_nonelectrostatic_energy": 6.64, 
			 "SMD_solvation_energy": 4.27 
		},
		"coords": [
			{
				"x": 1.3843848496,
				"y": -1.5449880375,
				"z": -0.1389891895,
				"element": "N" 
			},
			{
				"x": 0.3082071601,
				"y": -1.4640353178,
				"z": 0.7648565088,
				"element": "N" 
			},
			{
				"x": -0.4207682369,
				"y": -0.2722169753,
				"z": 0.8751864355,
				"element": "C" 
			},
			{
				"x": -1.5244441656,
				"y": -0.2716261525,
				"z": 1.4050365042,
				"element": "O" 
			},
			{
				"x": 0.2341246262,
				"y": 0.8341428221,
				"z": 0.4028867731,
				"element": "N" 
			},
			{
				"x": -0.4133138115,
				"y": 2.1083368567,
				"z": 0.3279882896,
				"element": "C" 
			},
			{
				"x": -0.6232649623,
				"y": 2.8914293953,
				"z": 1.5956144343,
				"element": "C" 
			},
			{
				"x": 0.4236861287,
				"y": 3.3330903075,
				"z": 0.6033021956,
				"element": "C" 
			},
			{
				"x": 1.1243247411,
				"y": -2.0510488181,
				"z": -0.9841412565,
				"element": "H" 
			},
			{
				"x": 2.1617518703,
				"y": -2.0274771396,
				"z": 0.3027438193,
				"element": "H" 
			},
			{
				"x": -0.2770887298,
				"y": -2.2789302617,
				"z": 0.9134888104,
				"element": "H" 
			},
			{
				"x": 1.0649492446,
				"y": 0.6532871485,
				"z": -0.1456563756,
				"element": "H" 
			},
			{
				"x": -1.1891231542,
				"y": 2.1989480766,
				"z": -0.4323103978,
				"element": "H" 
			},
			{
				"x": -1.5374247335,
				"y": 3.4692746593,
				"z": 1.6847977846,
				"element": "H" 
			},
			{
				"x": -0.2873884963,
				"y": 2.4272124758,
				"z": 2.515988789,
				"element": "H" 
			},
			{
				"x": 1.46530268,
				"y": 3.1749738518,
				"z": 0.86670748,
				"element": "H" 
			},
			{
				"x": 0.2395849894,
				"y": 4.219527109,
				"z": 0.004199395,
				"element": "H" 
			}
		],
		 "valence_orbital": [ 
			{
				"type": "occ",
				"energy": -0.29654,
				"method": "rhf"
			},
			{
				"type": "occ",
				"energy": -0.28124,
				"method": "rhf"
			},
			{
				"type": "occ",
				"energy": -0.25334,
				"method": "rhf"
			},
			{
				"type": "occ",
				"energy": -0.24045,
				"method": "rhf"
			},
			{
				"type": "occ",
				"energy": -0.2318,
				"method": "rhf"
			},
			{
				"type": "unocc",
				"energy": 0.05846,
				"method": "rhf"
			},
			{
				"type": "unocc",
				"energy": 0.07255,
				"method": "rhf"
			},
			{
				"type": "unocc",
				"energy": 0.10776,
				"method": "rhf"
			},
			{
				"type": "unocc",
				"energy": 0.11703,
				"method": "rhf"
			},
			{
				"type": "unocc",
				"energy": 0.12352,
				"method": "rhf"
			}
		],
		"cosmo_sigma_profile": { 
			"-0.025": 0.0,
			"-0.024": 0.0,
			"-0.023": 0.0,
			"-0.022": 0.0,
			"-0.021": 0.0,
			"-0.02": 0.0,
			"-0.019": 0.0,
			"-0.018": 0.0,
			"-0.017": 0.0,
			"-0.016": 0.0,
			"-0.015": 0.0,
			"-0.014": 0.0,
			"-0.013": 0.447071944913,
			"-0.012": 3.3853753519,
			"-0.011": 4.82903704801,
			"-0.01": 5.30876165338,
			"-0.009": 4.80596206411,
			"-0.008": 3.30688228901,
			"-0.007": 3.38854553217,
			"-0.006": 2.97338782009,
			"-0.005": 8.53186165768,
			"-0.004": 13.7813154617,
			"-0.003": 10.9916069304,
			"-0.002": 10.8587834991,
			"-0.001": 11.0534597783,
			"0.0": 11.764489573,
			"0.001": 9.04911844243,
			"0.002": 7.57320964737,
			"0.003": 7.29163856994,
			"0.004": 6.15991797545,
			"0.005": 5.88263747901,
			"0.006": 4.08467526248,
			"0.007": 2.91157336072,
			"0.008": 2.83959280382,
			"0.009": 1.96605990915,
			"0.01": 1.73954560447,
			"0.011": 1.54114998884,
			"0.012": 1.80444422574,
			"0.013": 1.57208523407,
			"0.014": 3.88862808101,
			"0.015": 6.63955822327,
			"0.016": 0.824633394434,
			"0.017": 0.0,
			"0.018": 0.0,
			"0.019": 0.0,
			"0.02": 0.0,
			"0.021": 0.0,
			"0.022": 0.0,
			"0.023": 0.0,
			"0.024": 0.0,
			"0.025": 0.0
		}
	}
}
