{
	 "smiles": "OC(=O)COC1=C(F)C=CC(F)=C1", 
	 "Tm": 425.15, 
	 "num_atms": 19, 
	 "gaussian": { 
		 "optdone": 1, 
		 "sigma_profile": "yes", 
		 "theory": "DFT", 
		 "functional": "B3LYP", 
		 "basiset": "6-31G**", 
		 "properties": { 
			 "R2extent": 2735.7683, 
			 "electric_dipole_moment_norm": 3.40035220088, 
			 "electric_quadrupole_moment_norm": 9.77954957194, 
			 "total_energy": -733.792207908, 
			 "HOMO_LUMO_gap": 0.21567, 
			 "cosmo_polarized_energy": -13.07, 
			 "cosmo_cavitation_energy": 25.12, 
			 "cosmo_dispersion_energy": -17.89, 
			 "cosmo_repulsion_energy": 1.39, 
			 "cosmo_total_nonelectrostatic_energy": 8.62, 
			 "SMD_solvation_energy": 6.85 
		},
		"coords": [
			{
				"x": -2.5675066985,
				"y": 0.630018793,
				"z": 1.5712967381,
				"element": "O" 
			},
			{
				"x": -1.985288865,
				"y": 1.5007732146,
				"z": 0.7265656094,
				"element": "C" 
			},
			{
				"x": -1.8810324477,
				"y": 2.6769832413,
				"z": 0.9654822083,
				"element": "O" 
			},
			{
				"x": -1.5125367966,
				"y": 0.8890897174,
				"z": -0.5978282537,
				"element": "C" 
			},
			{
				"x": -1.3522208458,
				"y": -0.5258253284,
				"z": -0.5243545388,
				"element": "O" 
			},
			{
				"x": -0.1601081111,
				"y": -1.0193120896,
				"z": -0.0502949125,
				"element": "C" 
			},
			{
				"x": 0.0379337071,
				"y": -2.3984731687,
				"z": -0.2204636347,
				"element": "C" 
			},
			{
				"x": -0.9280224141,
				"y": -3.1156579201,
				"z": -0.8248922462,
				"element": "F" 
			},
			{
				"x": 1.1943787659,
				"y": -3.0200544056,
				"z": 0.2193434108,
				"element": "C" 
			},
			{
				"x": 2.1945876806,
				"y": -2.2710355779,
				"z": 0.8464740283,
				"element": "C" 
			},
			{
				"x": 1.9880891384,
				"y": -0.9100273919,
				"z": 1.0134395417,
				"element": "C" 
			},
			{
				"x": 2.9353569845,
				"y": -0.1690845272,
				"z": 1.6203456284,
				"element": "F" 
			},
			{
				"x": 0.8298121429,
				"y": -0.2643143605,
				"z": 0.5813344281,
				"element": "C" 
			},
			{
				"x": -2.5297632043,
				"y": -0.2564378967,
				"z": 1.1715191215,
				"element": "H" 
			},
			{
				"x": -2.2909764226,
				"y": 1.0593134509,
				"z": -1.3479569265,
				"element": "H" 
			},
			{
				"x": -0.6016294692,
				"y": 1.3948678079,
				"z": -0.9274606961,
				"element": "H" 
			},
			{
				"x": 1.3041699299,
				"y": -4.0873958067,
				"z": 0.0624058072,
				"element": "H" 
			},
			{
				"x": 3.1109181924,
				"y": -2.7286216042,
				"z": 1.1996991177,
				"element": "H" 
			},
			{
				"x": 0.7268387333,
				"y": 0.7985938523,
				"z": 0.761545569,
				"element": "H" 
			}
		],
		 "valence_orbital": [ 
			{
				"type": "occ",
				"energy": -0.35093,
				"method": "rhf"
			},
			{
				"type": "occ",
				"energy": -0.32654,
				"method": "rhf"
			},
			{
				"type": "occ",
				"energy": -0.28624,
				"method": "rhf"
			},
			{
				"type": "occ",
				"energy": -0.26989,
				"method": "rhf"
			},
			{
				"type": "occ",
				"energy": -0.24335,
				"method": "rhf"
			},
			{
				"type": "unocc",
				"energy": -0.02768,
				"method": "rhf"
			},
			{
				"type": "unocc",
				"energy": -0.01306,
				"method": "rhf"
			},
			{
				"type": "unocc",
				"energy": -0.00175,
				"method": "rhf"
			},
			{
				"type": "unocc",
				"energy": 0.05196,
				"method": "rhf"
			},
			{
				"type": "unocc",
				"energy": 0.07285,
				"method": "rhf"
			}
		],
		"cosmo_sigma_profile": { 
			"-0.025": 0.0,
			"-0.024": 0.0,
			"-0.023": 0.0,
			"-0.022": 0.0,
			"-0.021": 0.0,
			"-0.02": 0.0,
			"-0.019": 0.0,
			"-0.018": 0.0,
			"-0.017": 0.122722543177,
			"-0.016": 0.581666598167,
			"-0.015": 0.712525813887,
			"-0.014": 0.257668919101,
			"-0.013": 0.663139888994,
			"-0.012": 1.49513514142,
			"-0.011": 1.64691894336,
			"-0.01": 4.13502834842,
			"-0.009": 6.45710484507,
			"-0.008": 8.57729877336,
			"-0.007": 9.97468759623,
			"-0.006": 9.05900413359,
			"-0.005": 7.92186791763,
			"-0.004": 7.1815101631,
			"-0.003": 7.53930845406,
			"-0.002": 6.79133366214,
			"-0.001": 9.97764090986,
			"0.0": 16.8028102424,
			"0.001": 17.9564799845,
			"0.002": 14.2801227416,
			"0.003": 12.6493893114,
			"0.004": 20.6462557133,
			"0.005": 5.77659500206,
			"0.006": 3.606890433,
			"0.007": 3.94212091295,
			"0.008": 4.74136321934,
			"0.009": 4.85277481109,
			"0.01": 3.99049548552,
			"0.011": 5.69529543462,
			"0.012": 3.29173955133,
			"0.013": 0.410135889427,
			"0.014": 0.0,
			"0.015": 0.0,
			"0.016": 0.0,
			"0.017": 0.0,
			"0.018": 0.0,
			"0.019": 0.0,
			"0.02": 0.0,
			"0.021": 0.0,
			"0.022": 0.0,
			"0.023": 0.0,
			"0.024": 0.0,
			"0.025": 0.0
		}
	}
}
