{
	 "smiles": "CS(=O)(=O)C1=CC=C(C=C1)C(=O)NC1=C(Cl)C=C(N)C=C1Cl", 
	 "Tm": 512.15, 
	 "num_atms": 34, 
	 "gaussian": { 
		 "optdone": 1, 
		 "sigma_profile": "yes", 
		 "theory": "DFT", 
		 "functional": "B3LYP", 
		 "basiset": "6-31G**", 
		 "properties": { 
			 "R2extent": 13741.6254, 
			 "electric_dipole_moment_norm": 6.21698626265, 
			 "electric_quadrupole_moment_norm": 37.7300804804, 
			 "total_energy": -2194.420072, 
			 "HOMO_LUMO_gap": 0.15577, 
			 "cosmo_polarized_energy": -28.53, 
			 "cosmo_cavitation_energy": 44.38, 
			 "cosmo_dispersion_energy": -31.64, 
			 "cosmo_repulsion_energy": 2.38, 
			 "cosmo_total_nonelectrostatic_energy": 15.13, 
			 "SMD_solvation_energy": 7.2 
		},
		"coords": [
			{
				"x": -0.2815355009,
				"y": 6.6653958768,
				"z": -0.807076668,
				"element": "C" 
			},
			{
				"x": -0.4743119694,
				"y": 5.5248387853,
				"z": -2.1979532504,
				"element": "S" 
			},
			{
				"x": 0.7380873572,
				"y": 5.6255710912,
				"z": -3.02426195,
				"element": "O" 
			},
			{
				"x": -1.8109882193,
				"y": 5.7463521837,
				"z": -2.7709909892,
				"element": "O" 
			},
			{
				"x": -0.4746458141,
				"y": 3.9013992854,
				"z": -1.4128485571,
				"element": "C" 
			},
			{
				"x": -1.6901311847,
				"y": 3.3279924238,
				"z": -1.0395163756,
				"element": "C" 
			},
			{
				"x": -1.68771021,
				"y": 2.0731522967,
				"z": -0.4310946171,
				"element": "C" 
			},
			{
				"x": -0.4793257323,
				"y": 1.4001141073,
				"z": -0.2010466006,
				"element": "C" 
			},
			{
				"x": 0.7316377175,
				"y": 1.9988384012,
				"z": -0.5760865241,
				"element": "C" 
			},
			{
				"x": 0.7396487949,
				"y": 3.2458132479,
				"z": -1.193587709,
				"element": "C" 
			},
			{
				"x": -0.3988650728,
				"y": 0.052587414,
				"z": 0.4643376279,
				"element": "C" 
			},
			{
				"x": 0.6068457278,
				"y": -0.3197022061,
				"z": 1.0463995391,
				"element": "O" 
			},
			{
				"x": -1.5486220383,
				"y": -0.717871664,
				"z": 0.3723534661,
				"element": "N" 
			},
			{
				"x": -1.6180237785,
				"y": -2.0354804198,
				"z": 0.8780315344,
				"element": "C" 
			},
			{
				"x": -1.6156457336,
				"y": -2.3135445044,
				"z": 2.2566299409,
				"element": "C" 
			},
			{
				"x": -1.5687713805,
				"y": -1.0009345064,
				"z": 3.4107367847,
				"element": "Cl" 
			},
			{
				"x": -1.6765597561,
				"y": -3.6112423355,
				"z": 2.7495969384,
				"element": "C" 
			},
			{
				"x": -1.7774671649,
				"y": -4.7009336575,
				"z": 1.8694424572,
				"element": "C" 
			},
			{
				"x": -1.8995765917,
				"y": -5.9950485004,
				"z": 2.3573758871,
				"element": "N" 
			},
			{
				"x": -1.819414515,
				"y": -4.4501013076,
				"z": 0.4882701207,
				"element": "C" 
			},
			{
				"x": -1.7306562411,
				"y": -3.1449919564,
				"z": 0.0233786467,
				"element": "C" 
			},
			{
				"x": -1.7728379006,
				"y": -2.8796373115,
				"z": -1.7142109064,
				"element": "Cl" 
			},
			{
				"x": -0.2740115265,
				"y": 7.6694126341,
				"z": -1.2365351654,
				"element": "H" 
			},
			{
				"x": -1.126229166,
				"y": 6.5491666081,
				"z": -0.1267533623,
				"element": "H" 
			},
			{
				"x": 0.6635981404,
				"y": 6.4609822319,
				"z": -0.3023148909,
				"element": "H" 
			},
			{
				"x": -2.6178436144,
				"y": 3.8547325502,
				"z": -1.2359714069,
				"element": "H" 
			},
			{
				"x": -2.6289884963,
				"y": 1.637880127,
				"z": -0.1100596213,
				"element": "H" 
			},
			{
				"x": 1.6545263336,
				"y": 1.4652952493,
				"z": -0.3767230729,
				"element": "H" 
			},
			{
				"x": 1.6673388646,
				"y": 3.7037525353,
				"z": -1.5203005594,
				"element": "H" 
			},
			{
				"x": -2.1852800703,
				"y": -0.4969959254,
				"z": -0.3811070469,
				"element": "H" 
			},
			{
				"x": -1.6658658021,
				"y": -3.7722971098,
				"z": 3.821963388,
				"element": "H" 
			},
			{
				"x": -1.6466186639,
				"y": -6.7352557898,
				"z": 1.7185828661,
				"element": "H" 
			},
			{
				"x": -1.5488895238,
				"y": -6.1503363277,
				"z": 3.2916259544,
				"element": "H" 
			},
			{
				"x": -1.9133672689,
				"y": -5.266603527,
				"z": -0.2190858784,
				"element": "H" 
			}
		],
		 "valence_orbital": [ 
			{
				"type": "occ",
				"energy": -0.28062,
				"method": "rhf"
			},
			{
				"type": "occ",
				"energy": -0.27904,
				"method": "rhf"
			},
			{
				"type": "occ",
				"energy": -0.26354,
				"method": "rhf"
			},
			{
				"type": "occ",
				"energy": -0.25473,
				"method": "rhf"
			},
			{
				"type": "occ",
				"energy": -0.22164,
				"method": "rhf"
			},
			{
				"type": "unocc",
				"energy": -0.06587,
				"method": "rhf"
			},
			{
				"type": "unocc",
				"energy": -0.03039,
				"method": "rhf"
			},
			{
				"type": "unocc",
				"energy": -0.02699,
				"method": "rhf"
			},
			{
				"type": "unocc",
				"energy": -0.01253,
				"method": "rhf"
			},
			{
				"type": "unocc",
				"energy": 0.00156,
				"method": "rhf"
			}
		],
		"cosmo_sigma_profile": { 
			"-0.025": 0.0,
			"-0.024": 0.0,
			"-0.023": 0.0,
			"-0.022": 0.0,
			"-0.021": 0.0,
			"-0.02": 0.0,
			"-0.019": 0.0,
			"-0.018": 0.0,
			"-0.017": 0.0,
			"-0.016": 0.0,
			"-0.015": 0.0968055369019,
			"-0.014": 1.39237555745,
			"-0.013": 3.9454805544,
			"-0.012": 4.30044106921,
			"-0.011": 4.8803909498,
			"-0.01": 4.7807127544,
			"-0.009": 8.33028601646,
			"-0.008": 14.7503230622,
			"-0.007": 16.2810277629,
			"-0.006": 17.4041400075,
			"-0.005": 15.8038230624,
			"-0.004": 15.3532365086,
			"-0.003": 17.4495102335,
			"-0.002": 16.7591808839,
			"-0.001": 18.5161321972,
			"0.0": 21.7991199335,
			"0.001": 34.4143965003,
			"0.002": 30.1023848486,
			"0.003": 24.792082103,
			"0.004": 20.3165156422,
			"0.005": 9.76667187235,
			"0.006": 5.00784416029,
			"0.007": 5.41624412754,
			"0.008": 5.03988813687,
			"0.009": 6.07478854175,
			"0.01": 8.17187782943,
			"0.011": 12.7135578458,
			"0.012": 11.9203365198,
			"0.013": 3.90317712015,
			"0.014": 0.0122714444431,
			"0.015": 0.0,
			"0.016": 0.0,
			"0.017": 0.0,
			"0.018": 0.0,
			"0.019": 0.0,
			"0.02": 0.0,
			"0.021": 0.0,
			"0.022": 0.0,
			"0.023": 0.0,
			"0.024": 0.0,
			"0.025": 0.0
		}
	}
}
