{
	 "smiles": "NC(=O)C1=CC(OC2=NC=C(N)C=C2)=CC=C1", 
	 "Tm": 469.15, 
	 "num_atms": 28, 
	 "gaussian": { 
		 "optdone": 1, 
		 "sigma_profile": "yes", 
		 "theory": "DFT", 
		 "functional": "B3LYP", 
		 "basiset": "6-31G**", 
		 "properties": { 
			 "R2extent": 6440.8931, 
			 "electric_dipole_moment_norm": 4.60057402831, 
			 "electric_quadrupole_moment_norm": 27.4878417929, 
			 "total_energy": -778.616403691, 
			 "HOMO_LUMO_gap": 0.17092, 
			 "cosmo_polarized_energy": -22.85, 
			 "cosmo_cavitation_energy": 33.37, 
			 "cosmo_dispersion_energy": -24.29, 
			 "cosmo_repulsion_energy": 1.89, 
			 "cosmo_total_nonelectrostatic_energy": 10.97, 
			 "SMD_solvation_energy": 5.05 
		},
		"coords": [
			{
				"x": 0.9317241453,
				"y": -5.6845837908,
				"z": -0.7028336729,
				"element": "N" 
			},
			{
				"x": 1.6843959301,
				"y": -5.1004765369,
				"z": 0.2879440265,
				"element": "C" 
			},
			{
				"x": 2.7171935413,
				"y": -5.6129568253,
				"z": 0.7015882625,
				"element": "O" 
			},
			{
				"x": 1.1797594019,
				"y": -3.7867739672,
				"z": 0.8186582138,
				"element": "C" 
			},
			{
				"x": 0.2677082627,
				"y": -2.9874008446,
				"z": 0.120284787,
				"element": "C" 
			},
			{
				"x": -0.1627808058,
				"y": -1.7769233638,
				"z": 0.668333609,
				"element": "C" 
			},
			{
				"x": -1.1031643886,
				"y": -1.0803283251,
				"z": -0.0562256968,
				"element": "O" 
			},
			{
				"x": -1.1432968461,
				"y": 0.3016109987,
				"z": -0.0038122147,
				"element": "C" 
			},
			{
				"x": -2.3517389964,
				"y": 0.8198796787,
				"z": 0.1454230795,
				"element": "N" 
			},
			{
				"x": -2.4742546642,
				"y": 2.1498595805,
				"z": 0.118563681,
				"element": "C" 
			},
			{
				"x": -1.3968647994,
				"y": 3.0348680321,
				"z": -0.0484394766,
				"element": "C" 
			},
			{
				"x": -1.5928784159,
				"y": 4.4137374829,
				"z": -0.1198066137,
				"element": "N" 
			},
			{
				"x": -0.1250971655,
				"y": 2.4569493464,
				"z": -0.2048491837,
				"element": "C" 
			},
			{
				"x": 0.0088105963,
				"y": 1.0752476308,
				"z": -0.1890728056,
				"element": "C" 
			},
			{
				"x": 0.3104855281,
				"y": -1.3568555642,
				"z": 1.9157293957,
				"element": "C" 
			},
			{
				"x": 1.2353990283,
				"y": -2.151016169,
				"z": 2.5965163461,
				"element": "C" 
			},
			{
				"x": 1.677123462,
				"y": -3.3557698207,
				"z": 2.0551461869,
				"element": "C" 
			},
			{
				"x": -0.0436892668,
				"y": -5.4526785588,
				"z": -0.8072048671,
				"element": "H" 
			},
			{
				"x": 1.2115409648,
				"y": -6.6190898677,
				"z": -0.9637798348,
				"element": "H" 
			},
			{
				"x": -0.101250542,
				"y": -3.2607019571,
				"z": -0.8625601012,
				"element": "H" 
			},
			{
				"x": -3.4841839059,
				"y": 2.542625749,
				"z": 0.2365913033,
				"element": "H" 
			},
			{
				"x": -0.7984297005,
				"y": 4.9782787026,
				"z": 0.14780894,
				"element": "H" 
			},
			{
				"x": -2.4486855648,
				"y": 4.7470099158,
				"z": 0.3027955029,
				"element": "H" 
			},
			{
				"x": 0.7471465362,
				"y": 3.0884186284,
				"z": -0.3538184301,
				"element": "H" 
			},
			{
				"x": 0.9771905925,
				"y": 0.6051097201,
				"z": -0.31904292,
				"element": "H" 
			},
			{
				"x": -0.0417691815,
				"y": -0.4249661475,
				"z": 2.3441952602,
				"element": "H" 
			},
			{
				"x": 1.6061644494,
				"y": -1.8235930273,
				"z": 3.5635198201,
				"element": "H" 
			},
			{
				"x": 2.4008418044,
				"y": -3.9793807,
				"z": 2.5673474027,
				"element": "H" 
			}
		],
		 "valence_orbital": [ 
			{
				"type": "occ",
				"energy": -0.26551,
				"method": "rhf"
			},
			{
				"type": "occ",
				"energy": -0.25933,
				"method": "rhf"
			},
			{
				"type": "occ",
				"energy": -0.24772,
				"method": "rhf"
			},
			{
				"type": "occ",
				"energy": -0.23785,
				"method": "rhf"
			},
			{
				"type": "occ",
				"energy": -0.20818,
				"method": "rhf"
			},
			{
				"type": "unocc",
				"energy": -0.03726,
				"method": "rhf"
			},
			{
				"type": "unocc",
				"energy": -0.02519,
				"method": "rhf"
			},
			{
				"type": "unocc",
				"energy": -0.00453,
				"method": "rhf"
			},
			{
				"type": "unocc",
				"energy": 0.00924,
				"method": "rhf"
			},
			{
				"type": "unocc",
				"energy": 0.06153,
				"method": "rhf"
			}
		],
		"cosmo_sigma_profile": { 
			"-0.025": 0.0,
			"-0.024": 0.0,
			"-0.023": 0.0,
			"-0.022": 0.0,
			"-0.021": 0.0,
			"-0.02": 0.0,
			"-0.019": 0.0,
			"-0.018": 0.0,
			"-0.017": 0.0,
			"-0.016": 0.0,
			"-0.015": 0.276920709671,
			"-0.014": 1.29783231909,
			"-0.013": 4.03316548248,
			"-0.012": 5.79196088825,
			"-0.011": 4.82315631663,
			"-0.01": 6.63580859142,
			"-0.009": 5.64721635992,
			"-0.008": 5.52914262263,
			"-0.007": 10.5394237294,
			"-0.006": 12.7117101325,
			"-0.005": 14.2726096366,
			"-0.004": 13.7336665196,
			"-0.003": 9.96874795233,
			"-0.002": 13.281497921,
			"-0.001": 12.3806146908,
			"0.0": 14.3396548071,
			"0.001": 19.3448749426,
			"0.002": 21.4060722869,
			"0.003": 23.0483216578,
			"0.004": 15.3926636568,
			"0.005": 5.87850425543,
			"0.006": 5.19472913635,
			"0.007": 5.10657431273,
			"0.008": 5.40755941883,
			"0.009": 3.28971499603,
			"0.01": 4.73342963279,
			"0.011": 3.89650963366,
			"0.012": 4.41258581731,
			"0.013": 6.57898706205,
			"0.014": 5.22165776054,
			"0.015": 1.4814393614,
			"0.016": 0.745485235005,
			"0.017": 0.0611868124036,
			"0.018": 0.0,
			"0.019": 0.0,
			"0.02": 0.0,
			"0.021": 0.0,
			"0.022": 0.0,
			"0.023": 0.0,
			"0.024": 0.0,
			"0.025": 0.0
		}
	}
}
