{
	 "smiles": "CC(CC(=O)C1=CC(F)=CC=C1)C(O)=O", 
	 "Tm": 370.15, 
	 "num_atms": 26, 
	 "gaussian": { 
		 "optdone": 1, 
		 "sigma_profile": "yes", 
		 "theory": "DFT", 
		 "functional": "B3LYP", 
		 "basiset": "6-31G**", 
		 "properties": { 
			 "R2extent": 3719.9562, 
			 "electric_dipole_moment_norm": 4.15664176109, 
			 "electric_quadrupole_moment_norm": 8.02093525968, 
			 "total_energy": -751.324605469, 
			 "HOMO_LUMO_gap": 0.18673, 
			 "cosmo_polarized_energy": -14.16, 
			 "cosmo_cavitation_energy": 30.43, 
			 "cosmo_dispersion_energy": -21.03, 
			 "cosmo_repulsion_energy": 1.62, 
			 "cosmo_total_nonelectrostatic_energy": 11.02, 
			 "SMD_solvation_energy": 7.16 
		},
		"coords": [
			{
				"x": -2.0886342725,
				"y": 1.8387678293,
				"z": 0.6091124669,
				"element": "C" 
			},
			{
				"x": -0.8935334765,
				"y": 1.7669512242,
				"z": -0.3443788557,
				"element": "C" 
			},
			{
				"x": 0.4632644227,
				"y": 1.4746355556,
				"z": 0.3701057501,
				"element": "C" 
			},
			{
				"x": 0.4807679103,
				"y": 0.1693048958,
				"z": 1.1643311458,
				"element": "C" 
			},
			{
				"x": -0.0394287836,
				"y": 0.1399025078,
				"z": 2.2709577659,
				"element": "O" 
			},
			{
				"x": 1.1287767542,
				"y": -1.0651184961,
				"z": 0.6047569092,
				"element": "C" 
			},
			{
				"x": 1.1102681981,
				"y": -2.2119131593,
				"z": 1.4156550195,
				"element": "C" 
			},
			{
				"x": 1.7042426952,
				"y": -3.3738368112,
				"z": 0.9549084388,
				"element": "C" 
			},
			{
				"x": 1.6884336029,
				"y": -4.4742702746,
				"z": 1.7335574738,
				"element": "F" 
			},
			{
				"x": 2.3228022402,
				"y": -3.4461860576,
				"z": -0.291705722,
				"element": "C" 
			},
			{
				"x": 2.3362965095,
				"y": -2.306842082,
				"z": -1.094894776,
				"element": "C" 
			},
			{
				"x": 1.7467293673,
				"y": -1.1198795069,
				"z": -0.6547183632,
				"element": "C" 
			},
			{
				"x": -1.1529631291,
				"y": 0.7762036464,
				"z": -1.4698495589,
				"element": "C" 
			},
			{
				"x": -0.2427976069,
				"y": 0.9067770191,
				"z": -2.4743317029,
				"element": "O" 
			},
			{
				"x": -2.0459002305,
				"y": -0.038566778,
				"z": -1.5140982706,
				"element": "O" 
			},
			{
				"x": -1.9049334487,
				"y": 2.5825503874,
				"z": 1.3891784704,
				"element": "H" 
			},
			{
				"x": -2.2712015642,
				"y": 0.878245599,
				"z": 1.0928081519,
				"element": "H" 
			},
			{
				"x": -2.9934826065,
				"y": 2.1201159684,
				"z": 0.063915084,
				"element": "H" 
			},
			{
				"x": -0.7563538174,
				"y": 2.740376825,
				"z": -0.8326191388,
				"element": "H" 
			},
			{
				"x": 0.6198520556,
				"y": 2.2714407837,
				"z": 1.1029212131,
				"element": "H" 
			},
			{
				"x": 1.2740150229,
				"y": 1.5255305802,
				"z": -0.3588411424,
				"element": "H" 
			},
			{
				"x": 0.6342393849,
				"y": -2.1741688187,
				"z": 2.3884007637,
				"element": "H" 
			},
			{
				"x": 2.7766867155,
				"y": -4.3783018964,
				"z": -0.6107144981,
				"element": "H" 
			},
			{
				"x": 2.8122680687,
				"y": -2.3451291651,
				"z": -2.0700320488,
				"element": "H" 
			},
			{
				"x": 1.7566430931,
				"y": -0.2532599988,
				"z": -1.3044263529,
				"element": "H" 
			},
			{
				"x": -0.4791571053,
				"y": 0.2347702226,
				"z": -3.1359982226,
				"element": "H" 
			}
		],
		 "valence_orbital": [ 
			{
				"type": "occ",
				"energy": -0.32713,
				"method": "rhf"
			},
			{
				"type": "occ",
				"energy": -0.28097,
				"method": "rhf"
			},
			{
				"type": "occ",
				"energy": -0.26943,
				"method": "rhf"
			},
			{
				"type": "occ",
				"energy": -0.25717,
				"method": "rhf"
			},
			{
				"type": "occ",
				"energy": -0.25497,
				"method": "rhf"
			},
			{
				"type": "unocc",
				"energy": -0.06824,
				"method": "rhf"
			},
			{
				"type": "unocc",
				"energy": -0.01282,
				"method": "rhf"
			},
			{
				"type": "unocc",
				"energy": -0.00154,
				"method": "rhf"
			},
			{
				"type": "unocc",
				"energy": 0.02942,
				"method": "rhf"
			},
			{
				"type": "unocc",
				"energy": 0.06581,
				"method": "rhf"
			}
		],
		"cosmo_sigma_profile": { 
			"-0.025": 0.0,
			"-0.024": 0.0,
			"-0.023": 0.0,
			"-0.022": 0.0,
			"-0.021": 0.0,
			"-0.02": 0.0,
			"-0.019": 0.0,
			"-0.018": 0.546899487756,
			"-0.017": 0.987652926833,
			"-0.016": 0.725378244447,
			"-0.015": 1.08946611242,
			"-0.014": 0.371825470215,
			"-0.013": 0.814306170466,
			"-0.012": 0.465365158216,
			"-0.011": 0.753962702532,
			"-0.01": 1.1163770357,
			"-0.009": 0.29504357831,
			"-0.008": 2.25700385897,
			"-0.007": 6.69679091197,
			"-0.006": 13.1552021066,
			"-0.005": 16.8280081752,
			"-0.004": 18.5214238925,
			"-0.003": 16.9113417386,
			"-0.002": 16.2272388038,
			"-0.001": 14.9913046132,
			"0.0": 22.0978349319,
			"0.001": 21.0169654058,
			"0.002": 19.177162171,
			"0.003": 13.2072589666,
			"0.004": 14.3101022226,
			"0.005": 6.34521120334,
			"0.006": 2.64068494795,
			"0.007": 4.08490454315,
			"0.008": 3.91899085022,
			"0.009": 4.11492691643,
			"0.01": 4.45032426914,
			"0.011": 7.25577041336,
			"0.012": 5.65080527966,
			"0.013": 0.429041449126,
			"0.014": 0.0,
			"0.015": 0.0,
			"0.016": 0.0,
			"0.017": 0.0,
			"0.018": 0.0,
			"0.019": 0.0,
			"0.02": 0.0,
			"0.021": 0.0,
			"0.022": 0.0,
			"0.023": 0.0,
			"0.024": 0.0,
			"0.025": 0.0
		}
	}
}
