{
	 "smiles": "COCC1=C(SC=C1)C(O)=O", 
	 "Tm": 393.15, 
	 "num_atms": 19, 
	 "gaussian": { 
		 "optdone": 1, 
		 "sigma_profile": "yes", 
		 "theory": "DFT", 
		 "functional": "B3LYP", 
		 "basiset": "6-31G**", 
		 "properties": { 
			 "R2extent": 2675.6311, 
			 "electric_dipole_moment_norm": 2.77143573081, 
			 "electric_quadrupole_moment_norm": 6.41562025295, 
			 "total_energy": -895.406010245, 
			 "HOMO_LUMO_gap": 0.18721, 
			 "cosmo_polarized_energy": -12.56, 
			 "cosmo_cavitation_energy": 24.75, 
			 "cosmo_dispersion_energy": -18.44, 
			 "cosmo_repulsion_energy": 1.45, 
			 "cosmo_total_nonelectrostatic_energy": 7.75, 
			 "SMD_solvation_energy": 6.0 
		},
		"coords": [
			{
				"x": -0.0509048587,
				"y": -1.9948769423,
				"z": -0.4853080918,
				"element": "C" 
			},
			{
				"x": -0.3195968097,
				"y": -1.0002349695,
				"z": -1.4518306708,
				"element": "O" 
			},
			{
				"x": 0.4326915862,
				"y": 0.1933643253,
				"z": -1.2852328242,
				"element": "C" 
			},
			{
				"x": 0.0117643365,
				"y": 1.0073394672,
				"z": -0.0768339143,
				"element": "C" 
			},
			{
				"x": -1.0838008068,
				"y": 1.8552287172,
				"z": -0.0290936497,
				"element": "C" 
			},
			{
				"x": -1.2792307942,
				"y": 2.5692381741,
				"z": 1.5526701829,
				"element": "S" 
			},
			{
				"x": 0.1091743398,
				"y": 1.7380197564,
				"z": 2.1429524015,
				"element": "C" 
			},
			{
				"x": 0.6859879337,
				"y": 0.952731923,
				"z": 1.1782935857,
				"element": "C" 
			},
			{
				"x": -1.9938349102,
				"y": 2.2027623656,
				"z": -1.1286528369,
				"element": "C" 
			},
			{
				"x": -3.0065416623,
				"y": 3.0101753986,
				"z": -0.7153566821,
				"element": "O" 
			},
			{
				"x": -1.8825483611,
				"y": 1.8440057796,
				"z": -2.284724166,
				"element": "O" 
			},
			{
				"x": 1.0189204425,
				"y": -2.2604711347,
				"z": -0.4598264317,
				"element": "H" 
			},
			{
				"x": -0.3555373235,
				"y": -1.6932352363,
				"z": 0.5274929627,
				"element": "H" 
			},
			{
				"x": -0.6245673268,
				"y": -2.8791914679,
				"z": -0.7733955241,
				"element": "H" 
			},
			{
				"x": 1.505932946,
				"y": -0.0416039877,
				"z": -1.1958441406,
				"element": "H" 
			},
			{
				"x": 0.2671156192,
				"y": 0.7686588058,
				"z": -2.1956955081,
				"element": "H" 
			},
			{
				"x": 0.4262968675,
				"y": 1.8719483047,
				"z": 3.1684594271,
				"element": "H" 
			},
			{
				"x": 1.5731692148,
				"y": 0.3525161405,
				"z": 1.3483775029,
				"element": "H" 
			},
			{
				"x": -3.5400904328,
				"y": 3.1956245804,
				"z": -1.5052516225,
				"element": "H" 
			}
		],
		 "valence_orbital": [ 
			{
				"type": "occ",
				"energy": -0.3115,
				"method": "rhf"
			},
			{
				"type": "occ",
				"energy": -0.27849,
				"method": "rhf"
			},
			{
				"type": "occ",
				"energy": -0.26295,
				"method": "rhf"
			},
			{
				"type": "occ",
				"energy": -0.25741,
				"method": "rhf"
			},
			{
				"type": "occ",
				"energy": -0.24685,
				"method": "rhf"
			},
			{
				"type": "unocc",
				"energy": -0.05964,
				"method": "rhf"
			},
			{
				"type": "unocc",
				"energy": 0.02282,
				"method": "rhf"
			},
			{
				"type": "unocc",
				"energy": 0.0262,
				"method": "rhf"
			},
			{
				"type": "unocc",
				"energy": 0.07594,
				"method": "rhf"
			},
			{
				"type": "unocc",
				"energy": 0.07974,
				"method": "rhf"
			}
		],
		"cosmo_sigma_profile": { 
			"-0.025": 0.0,
			"-0.024": 0.0,
			"-0.023": 0.0,
			"-0.022": 0.0,
			"-0.021": 0.0,
			"-0.02": 0.0,
			"-0.019": 0.137954809324,
			"-0.018": 0.795368642476,
			"-0.017": 1.05400232829,
			"-0.016": 0.768366985495,
			"-0.015": 0.66283758809,
			"-0.014": 0.780051682065,
			"-0.013": 0.861653192482,
			"-0.012": 0.552869606002,
			"-0.011": 0.720763135732,
			"-0.01": 0.868107358058,
			"-0.009": 2.68266007807,
			"-0.008": 3.12697480551,
			"-0.007": 4.71157261078,
			"-0.006": 6.45793131691,
			"-0.005": 9.60111137606,
			"-0.004": 14.2506838154,
			"-0.003": 16.8965811632,
			"-0.002": 18.8807289454,
			"-0.001": 13.6750717768,
			"0.0": 12.8899573938,
			"0.001": 13.2497225152,
			"0.002": 19.8095601629,
			"0.003": 12.9484836381,
			"0.004": 6.867345682,
			"0.005": 4.41771190116,
			"0.006": 4.25323713692,
			"0.007": 4.73221522055,
			"0.008": 3.04581227401,
			"0.009": 3.35416558806,
			"0.01": 3.65633035743,
			"0.011": 5.87034317656,
			"0.012": 4.312336441,
			"0.013": 1.63861438652,
			"0.014": 0.153244637546,
			"0.015": 0.0,
			"0.016": 0.0,
			"0.017": 0.0,
			"0.018": 0.0,
			"0.019": 0.0,
			"0.02": 0.0,
			"0.021": 0.0,
			"0.022": 0.0,
			"0.023": 0.0,
			"0.024": 0.0,
			"0.025": 0.0
		}
	}
}
