{
	 "smiles": "ClS(=O)(=O)C1=C(Br)C=C2OCCOC2=C1", 
	 "Tm": 447.15, 
	 "num_atms": 21, 
	 "gaussian": { 
		 "optdone": 1, 
		 "sigma_profile": "yes", 
		 "theory": "DFT", 
		 "functional": "B3LYP", 
		 "basiset": "6-31G**", 
		 "properties": { 
			 "R2extent": 6965.2113, 
			 "electric_dipole_moment_norm": 7.98932847366, 
			 "electric_quadrupole_moment_norm": 13.5273220362, 
			 "total_energy": -4039.04661413, 
			 "HOMO_LUMO_gap": 0.15934, 
			 "cosmo_polarized_energy": -12.7, 
			 "cosmo_cavitation_energy": 30.38, 
			 "cosmo_dispersion_energy": -23.7, 
			 "cosmo_repulsion_energy": 1.8, 
			 "cosmo_total_nonelectrostatic_energy": 8.48, 
			 "SMD_solvation_energy": 3.32 
		},
		"coords": [
			{
				"x": 2.3114633527,
				"y": 2.3415445189,
				"z": -2.8056945477,
				"element": "Cl" 
			},
			{
				"x": 3.0261742916,
				"y": 1.8217081049,
				"z": -0.8681303094,
				"element": "S" 
			},
			{
				"x": 2.6876457848,
				"y": 2.9490430843,
				"z": -0.0072170489,
				"element": "O" 
			},
			{
				"x": 4.4026862721,
				"y": 1.3789371177,
				"z": -1.0313092683,
				"element": "O" 
			},
			{
				"x": 1.9557944811,
				"y": 0.449277065,
				"z": -0.437371962,
				"element": "C" 
			},
			{
				"x": 2.0340981869,
				"y": -0.8314767412,
				"z": -1.0093330263,
				"element": "C" 
			},
			{
				"x": 3.2420804674,
				"y": -1.2956047544,
				"z": -2.3987442276,
				"element": "Br" 
			},
			{
				"x": 1.1627264962,
				"y": -1.8216438444,
				"z": -0.5656797331,
				"element": "C" 
			},
			{
				"x": 0.2261389116,
				"y": -1.5547949437,
				"z": 0.4343178012,
				"element": "C" 
			},
			{
				"x": -0.6058695298,
				"y": -2.5612528396,
				"z": 0.8159807402,
				"element": "O" 
			},
			{
				"x": -1.7258052196,
				"y": -2.1381849131,
				"z": 1.6065454409,
				"element": "C" 
			},
			{
				"x": -1.2796293878,
				"y": -1.1298388667,
				"z": 2.6510242753,
				"element": "C" 
			},
			{
				"x": -0.7229201539,
				"y": 0.0237317277,
				"z": 2.0130586655,
				"element": "O" 
			},
			{
				"x": 0.1636330456,
				"y": -0.2742451263,
				"z": 1.0163857264,
				"element": "C" 
			},
			{
				"x": 1.0238363907,
				"y": 0.7209213389,
				"z": 0.569462208,
				"element": "C" 
			},
			{
				"x": 1.1914666943,
				"y": -2.8138523021,
				"z": -0.9992915625,
				"element": "H" 
			},
			{
				"x": -2.1307205768,
				"y": -3.040909724,
				"z": 2.068836666,
				"element": "H" 
			},
			{
				"x": -2.4868610897,
				"y": -1.6955173181,
				"z": 0.9519114742,
				"element": "H" 
			},
			{
				"x": -0.5334673551,
				"y": -1.5801100749,
				"z": 3.3186920711,
				"element": "H" 
			},
			{
				"x": -2.1243123414,
				"y": -0.7754197657,
				"z": 3.2455703353,
				"element": "H" 
			},
			{
				"x": 0.973141279,
				"y": 1.7064882571,
				"z": 1.0157862819,
				"element": "H" 
			}
		],
		 "valence_orbital": [ 
			{
				"type": "occ",
				"energy": -0.31227,
				"method": "rhf"
			},
			{
				"type": "occ",
				"energy": -0.3063,
				"method": "rhf"
			},
			{
				"type": "occ",
				"energy": -0.29437,
				"method": "rhf"
			},
			{
				"type": "occ",
				"energy": -0.26912,
				"method": "rhf"
			},
			{
				"type": "occ",
				"energy": -0.24376,
				"method": "rhf"
			},
			{
				"type": "unocc",
				"energy": -0.08442,
				"method": "rhf"
			},
			{
				"type": "unocc",
				"energy": -0.04229,
				"method": "rhf"
			},
			{
				"type": "unocc",
				"energy": -0.03497,
				"method": "rhf"
			},
			{
				"type": "unocc",
				"energy": -0.00989,
				"method": "rhf"
			},
			{
				"type": "unocc",
				"energy": 0.0587,
				"method": "rhf"
			}
		],
		"cosmo_sigma_profile": { 
			"-0.025": 0.0,
			"-0.024": 0.0,
			"-0.023": 0.0,
			"-0.022": 0.0,
			"-0.021": 0.0,
			"-0.02": 0.0,
			"-0.019": 0.0,
			"-0.018": 0.0,
			"-0.017": 0.0,
			"-0.016": 0.0,
			"-0.015": 0.0,
			"-0.014": 0.0,
			"-0.013": 0.0,
			"-0.012": 0.0,
			"-0.011": 0.0,
			"-0.01": 0.0,
			"-0.009": 0.731081274522,
			"-0.008": 8.10103963443,
			"-0.007": 15.3629349212,
			"-0.006": 15.5939842941,
			"-0.005": 12.5850793521,
			"-0.004": 12.5240196898,
			"-0.003": 12.1655763987,
			"-0.002": 13.8643843521,
			"-0.001": 22.19117548,
			"0.0": 24.4133046358,
			"0.001": 15.4800452402,
			"0.002": 17.0847751468,
			"0.003": 24.5708230333,
			"0.004": 13.8223722374,
			"0.005": 5.92448983863,
			"0.006": 6.73121670365,
			"0.007": 9.33397885004,
			"0.008": 13.1474591293,
			"0.009": 5.60911240161,
			"0.01": 0.0546279072722,
			"0.011": 0.0,
			"0.012": 0.0,
			"0.013": 0.0,
			"0.014": 0.0,
			"0.015": 0.0,
			"0.016": 0.0,
			"0.017": 0.0,
			"0.018": 0.0,
			"0.019": 0.0,
			"0.02": 0.0,
			"0.021": 0.0,
			"0.022": 0.0,
			"0.023": 0.0,
			"0.024": 0.0,
			"0.025": 0.0
		}
	}
}
