{
	 "smiles": "CC(C)(C)N(NC(=O)C1=CC=CC=C1)C(=O)C1=CC=CC(Cl)=C1", 
	 "Tm": 453.15, 
	 "num_atms": 42, 
	 "gaussian": { 
		 "optdone": 1, 
		 "sigma_profile": "yes", 
		 "theory": "DFT", 
		 "functional": "B3LYP", 
		 "basiset": "6-31G**", 
		 "properties": { 
			 "R2extent": 8239.8728, 
			 "electric_dipole_moment_norm": 4.67739174113, 
			 "electric_quadrupole_moment_norm": 20.9535244288, 
			 "total_energy": -1417.50085157, 
			 "HOMO_LUMO_gap": 0.18405, 
			 "cosmo_polarized_energy": -15.64, 
			 "cosmo_cavitation_energy": 45.69, 
			 "cosmo_dispersion_energy": -29.36, 
			 "cosmo_repulsion_energy": 2.22, 
			 "cosmo_total_nonelectrostatic_energy": 18.55, 
			 "SMD_solvation_energy": 8.89 
		},
		"coords": [
			{
				"x": -0.0260367014,
				"y": -0.4771684503,
				"z": 2.4792380133,
				"element": "C" 
			},
			{
				"x": 0.4259359421,
				"y": 0.6681142298,
				"z": 1.561173532,
				"element": "C" 
			},
			{
				"x": 0.6622239155,
				"y": 1.9488575002,
				"z": 2.3926707154,
				"element": "C" 
			},
			{
				"x": 1.7493447807,
				"y": 0.2682805158,
				"z": 0.8917486387,
				"element": "C" 
			},
			{
				"x": -0.6759920014,
				"y": 0.9277879512,
				"z": 0.5384930013,
				"element": "N" 
			},
			{
				"x": -1.857591988,
				"y": 1.3554594192,
				"z": 1.1895551867,
				"element": "N" 
			},
			{
				"x": -3.1244646116,
				"y": 1.0772478369,
				"z": 0.6617075003,
				"element": "C" 
			},
			{
				"x": -4.0350555667,
				"y": 1.8522839143,
				"z": 0.9173655497,
				"element": "O" 
			},
			{
				"x": -3.361326777,
				"y": -0.1572462206,
				"z": -0.153785601,
				"element": "C" 
			},
			{
				"x": -2.6731701432,
				"y": -1.3664354257,
				"z": 0.0186989553,
				"element": "C" 
			},
			{
				"x": -3.014195775,
				"y": -2.483568087,
				"z": -0.7447683735,
				"element": "C" 
			},
			{
				"x": -4.034349665,
				"y": -2.4005576635,
				"z": -1.6947274002,
				"element": "C" 
			},
			{
				"x": -4.7293926526,
				"y": -1.2009651098,
				"z": -1.8651789897,
				"element": "C" 
			},
			{
				"x": -4.4039836975,
				"y": -0.0904282429,
				"z": -1.0900210605,
				"element": "C" 
			},
			{
				"x": -0.3991311337,
				"y": 1.7571673468,
				"z": -0.5968608379,
				"element": "C" 
			},
			{
				"x": -0.9135711576,
				"y": 2.8572677693,
				"z": -0.7194281503,
				"element": "O" 
			},
			{
				"x": 0.426832367,
				"y": 1.178360638,
				"z": -1.7019824154,
				"element": "C" 
			},
			{
				"x": 1.1654638511,
				"y": 2.0547390344,
				"z": -2.5094764204,
				"element": "C" 
			},
			{
				"x": 1.8864907641,
				"y": 1.5612325483,
				"z": -3.5932769296,
				"element": "C" 
			},
			{
				"x": 1.8565272612,
				"y": 0.1990853066,
				"z": -3.9028751062,
				"element": "C" 
			},
			{
				"x": 1.0923318617,
				"y": -0.6574389717,
				"z": -3.1107361387,
				"element": "C" 
			},
			{
				"x": 1.0261148145,
				"y": -2.3687612019,
				"z": -3.5094390859,
				"element": "Cl" 
			},
			{
				"x": 0.3774024491,
				"y": -0.18719165,
				"z": -2.0113927474,
				"element": "C" 
			},
			{
				"x": -0.0644934027,
				"y": -1.4258116999,
				"z": 1.9353738604,
				"element": "H" 
			},
			{
				"x": 0.6911978752,
				"y": -0.5929248327,
				"z": 3.297698167,
				"element": "H" 
			},
			{
				"x": -1.0079353927,
				"y": -0.2747436339,
				"z": 2.9111215539,
				"element": "H" 
			},
			{
				"x": 1.5010195726,
				"y": 1.7955492924,
				"z": 3.078208882,
				"element": "H" 
			},
			{
				"x": 0.9045990261,
				"y": 2.8007288811,
				"z": 1.7487932222,
				"element": "H" 
			},
			{
				"x": -0.2102502376,
				"y": 2.2070742188,
				"z": 2.9985111963,
				"element": "H" 
			},
			{
				"x": 2.175066075,
				"y": 1.0670820105,
				"z": 0.2802057049,
				"element": "H" 
			},
			{
				"x": 1.6434852774,
				"y": -0.6226146595,
				"z": 0.2701613768,
				"element": "H" 
			},
			{
				"x": 2.469198341,
				"y": 0.0415700137,
				"z": 1.6838899411,
				"element": "H" 
			},
			{
				"x": -1.8419145199,
				"y": 2.3343283821,
				"z": 1.4707961266,
				"element": "H" 
			},
			{
				"x": -1.8899017208,
				"y": -1.4400803783,
				"z": 0.7610467153,
				"element": "H" 
			},
			{
				"x": -2.4844383042,
				"y": -3.4200157006,
				"z": -0.5956162533,
				"element": "H" 
			},
			{
				"x": -4.2904363585,
				"y": -3.2691691214,
				"z": -2.2946327107,
				"element": "H" 
			},
			{
				"x": -5.5290135822,
				"y": -1.13343308,
				"z": -2.5969881667,
				"element": "H" 
			},
			{
				"x": -4.9485001186,
				"y": 0.8420477258,
				"z": -1.1913198427,
				"element": "H" 
			},
			{
				"x": 1.1591426499,
				"y": 3.1139132606,
				"z": -2.2765954239,
				"element": "H" 
			},
			{
				"x": 2.4708122773,
				"y": 2.2362431656,
				"z": -4.2110718541,
				"element": "H" 
			},
			{
				"x": 2.4079697609,
				"y": -0.1931245475,
				"z": -4.7502215355,
				"element": "H" 
			},
			{
				"x": -0.2336133545,
				"y": -0.859442284,
				"z": -1.4216627957,
				"element": "H" 
			}
		],
		 "valence_orbital": [ 
			{
				"type": "occ",
				"energy": -0.26358,
				"method": "rhf"
			},
			{
				"type": "occ",
				"energy": -0.25905,
				"method": "rhf"
			},
			{
				"type": "occ",
				"energy": -0.25628,
				"method": "rhf"
			},
			{
				"type": "occ",
				"energy": -0.2505,
				"method": "rhf"
			},
			{
				"type": "occ",
				"energy": -0.24549,
				"method": "rhf"
			},
			{
				"type": "unocc",
				"energy": -0.06144,
				"method": "rhf"
			},
			{
				"type": "unocc",
				"energy": -0.03784,
				"method": "rhf"
			},
			{
				"type": "unocc",
				"energy": -0.02541,
				"method": "rhf"
			},
			{
				"type": "unocc",
				"energy": -0.00542,
				"method": "rhf"
			},
			{
				"type": "unocc",
				"energy": 0.01458,
				"method": "rhf"
			}
		],
		"cosmo_sigma_profile": { 
			"-0.025": 0.0,
			"-0.024": 0.0,
			"-0.023": 0.0,
			"-0.022": 0.0,
			"-0.021": 0.0,
			"-0.02": 0.0,
			"-0.019": 0.0,
			"-0.018": 0.0,
			"-0.017": 0.0,
			"-0.016": 0.0,
			"-0.015": 0.0,
			"-0.014": 0.0,
			"-0.013": 0.0,
			"-0.012": 0.0569039881627,
			"-0.011": 0.479182449872,
			"-0.01": 0.628258963939,
			"-0.009": 0.649780465678,
			"-0.008": 2.32348981018,
			"-0.007": 6.38377622404,
			"-0.006": 16.0630311124,
			"-0.005": 21.188622035,
			"-0.004": 33.9133612355,
			"-0.003": 30.7723976774,
			"-0.002": 32.7625777682,
			"-0.001": 35.8053469552,
			"0.0": 38.1865035986,
			"0.001": 31.2174161116,
			"0.002": 27.542218323,
			"0.003": 21.821303269,
			"0.004": 24.4439964891,
			"0.005": 8.36445355656,
			"0.006": 3.65534373994,
			"0.007": 3.33972792125,
			"0.008": 2.93049826719,
			"0.009": 3.28710859606,
			"0.01": 3.78722219512,
			"0.011": 5.47630003778,
			"0.012": 5.77914300691,
			"0.013": 3.86835072815,
			"0.014": 0.249555503118,
			"0.015": 0.0,
			"0.016": 0.0,
			"0.017": 0.0,
			"0.018": 0.0,
			"0.019": 0.0,
			"0.02": 0.0,
			"0.021": 0.0,
			"0.022": 0.0,
			"0.023": 0.0,
			"0.024": 0.0,
			"0.025": 0.0
		}
	}
}
