{
	 "smiles": "CC(C)C(NC(=O)OCC1C2=C(C=CC=C2)C2=C1C=CC=C2)C(=O)OC1=C(F)C(F)=C(F)C(F)=C1F", 
	 "Tm": 395.15, 
	 "num_atms": 56, 
	 "gaussian": { 
		 "optdone": 1, 
		 "sigma_profile": "yes", 
		 "theory": "DFT", 
		 "functional": "B3LYP", 
		 "basiset": "6-31G**", 
		 "properties": { 
			 "R2extent": 17694.7273, 
			 "electric_dipole_moment_norm": 2.12122976832, 
			 "electric_quadrupole_moment_norm": 18.5550046289, 
			 "total_energy": -1857.64698562, 
			 "HOMO_LUMO_gap": 0.17947, 
			 "cosmo_polarized_energy": -16.2, 
			 "cosmo_cavitation_energy": 61.92, 
			 "cosmo_dispersion_energy": -38.34, 
			 "cosmo_repulsion_energy": 2.72, 
			 "cosmo_total_nonelectrostatic_energy": 26.31, 
			 "SMD_solvation_energy": 12.57 
		},
		"coords": [
			{
				"x": 3.174467018,
				"y": 4.6151434137,
				"z": 1.1631825094,
				"element": "C" 
			},
			{
				"x": 2.673597401,
				"y": 3.6237859594,
				"z": 2.2271437279,
				"element": "C" 
			},
			{
				"x": 3.8398200734,
				"y": 2.8462031825,
				"z": 2.8526007986,
				"element": "C" 
			},
			{
				"x": 1.5641978203,
				"y": 2.6658000932,
				"z": 1.6956752678,
				"element": "C" 
			},
			{
				"x": 0.3432315146,
				"y": 3.4041686088,
				"z": 1.4428608733,
				"element": "N" 
			},
			{
				"x": -0.8541428331,
				"y": 2.8440760157,
				"z": 1.0693014955,
				"element": "C" 
			},
			{
				"x": -1.8088685793,
				"y": 3.4853496696,
				"z": 0.6763650826,
				"element": "O" 
			},
			{
				"x": -0.8372495186,
				"y": 1.4937062881,
				"z": 1.2257102717,
				"element": "O" 
			},
			{
				"x": -2.0674240721,
				"y": 0.8321410848,
				"z": 0.8471926695,
				"element": "C" 
			},
			{
				"x": -2.0554785674,
				"y": -0.5984210391,
				"z": 1.3947509183,
				"element": "C" 
			},
			{
				"x": -1.1092899303,
				"y": -1.5552627869,
				"z": 0.6816305441,
				"element": "C" 
			},
			{
				"x": -1.8355306942,
				"y": -2.6155981655,
				"z": 0.0993039957,
				"element": "C" 
			},
			{
				"x": -1.1780954716,
				"y": -3.6178912107,
				"z": -0.6170065731,
				"element": "C" 
			},
			{
				"x": 0.2112378001,
				"y": -3.5539591297,
				"z": -0.7450267513,
				"element": "C" 
			},
			{
				"x": 0.9322416139,
				"y": -2.507884287,
				"z": -0.1595220853,
				"element": "C" 
			},
			{
				"x": 0.2751898143,
				"y": -1.5026388543,
				"z": 0.5604775263,
				"element": "C" 
			},
			{
				"x": -3.2603373401,
				"y": -2.4352069599,
				"z": 0.4067575792,
				"element": "C" 
			},
			{
				"x": -3.4087963622,
				"y": -1.2638144299,
				"z": 1.1766037,
				"element": "C" 
			},
			{
				"x": -4.6653809785,
				"y": -0.8619410195,
				"z": 1.6163825273,
				"element": "C" 
			},
			{
				"x": -5.781608906,
				"y": -1.6386356902,
				"z": 1.2834838497,
				"element": "C" 
			},
			{
				"x": -5.6351086075,
				"y": -2.8010766408,
				"z": 0.5192153728,
				"element": "C" 
			},
			{
				"x": -4.3747942664,
				"y": -3.2089882839,
				"z": 0.0760422626,
				"element": "C" 
			},
			{
				"x": 2.0648529963,
				"y": 1.8587136531,
				"z": 0.4965355768,
				"element": "C" 
			},
			{
				"x": 2.7713499862,
				"y": 0.8858414495,
				"z": 0.5644078655,
				"element": "O" 
			},
			{
				"x": 1.6308190961,
				"y": 2.3946868546,
				"z": -0.6978105007,
				"element": "O" 
			},
			{
				"x": 1.9922109913,
				"y": 1.7248415174,
				"z": -1.8486657713,
				"element": "C" 
			},
			{
				"x": 1.0434410743,
				"y": 0.951749754,
				"z": -2.516508791,
				"element": "C" 
			},
			{
				"x": -0.1848388834,
				"y": 0.8190085728,
				"z": -2.0106151455,
				"element": "F" 
			},
			{
				"x": 1.3679916035,
				"y": 0.3192374874,
				"z": -3.7149829631,
				"element": "C" 
			},
			{
				"x": 0.4555003294,
				"y": -0.4121659519,
				"z": -4.3591946339,
				"element": "F" 
			},
			{
				"x": 2.6525159216,
				"y": 0.4491040198,
				"z": -4.2403311881,
				"element": "C" 
			},
			{
				"x": 2.9673537144,
				"y": -0.1560194032,
				"z": -5.3879145682,
				"element": "F" 
			},
			{
				"x": 3.6096148984,
				"y": 1.2117878338,
				"z": -3.5722279515,
				"element": "C" 
			},
			{
				"x": 4.8402366946,
				"y": 1.3329239304,
				"z": -4.0787316295,
				"element": "F" 
			},
			{
				"x": 3.2760084511,
				"y": 1.8441095146,
				"z": -2.377833898,
				"element": "C" 
			},
			{
				"x": 4.1960806317,
				"y": 2.5759997191,
				"z": -1.7370767726,
				"element": "F" 
			},
			{
				"x": 3.8815678604,
				"y": 5.3177840215,
				"z": 1.6141682194,
				"element": "H" 
			},
			{
				"x": 3.6906178504,
				"y": 4.1015199395,
				"z": 0.3459769003,
				"element": "H" 
			},
			{
				"x": 2.3675998992,
				"y": 5.2093668462,
				"z": 0.7206273529,
				"element": "H" 
			},
			{
				"x": 2.1776058043,
				"y": 4.1932843276,
				"z": 3.0241618819,
				"element": "H" 
			},
			{
				"x": 4.3594430381,
				"y": 2.233287642,
				"z": 2.1109869673,
				"element": "H" 
			},
			{
				"x": 3.4941467244,
				"y": 2.1820631061,
				"z": 3.6511898356,
				"element": "H" 
			},
			{
				"x": 4.5641882457,
				"y": 3.5436091785,
				"z": 3.2846089624,
				"element": "H" 
			},
			{
				"x": 1.3688817419,
				"y": 1.9168326966,
				"z": 2.4685381121,
				"element": "H" 
			},
			{
				"x": 0.4166993768,
				"y": 4.3742698656,
				"z": 1.1741171906,
				"element": "H" 
			},
			{
				"x": -2.1506039188,
				"y": 0.8358742523,
				"z": -0.2429808587,
				"element": "H" 
			},
			{
				"x": -2.9051234619,
				"y": 1.4005447895,
				"z": 1.2566253615,
				"element": "H" 
			},
			{
				"x": -1.8187179127,
				"y": -0.5419559019,
				"z": 2.4667846128,
				"element": "H" 
			},
			{
				"x": -1.7334846719,
				"y": -4.4367691916,
				"z": -1.0660501035,
				"element": "H" 
			},
			{
				"x": 0.7366217277,
				"y": -4.3268281148,
				"z": -1.2990754766,
				"element": "H" 
			},
			{
				"x": 2.0132270663,
				"y": -2.4718099589,
				"z": -0.2588823753,
				"element": "H" 
			},
			{
				"x": 0.848478265,
				"y": -0.7052989954,
				"z": 1.0184616163,
				"element": "H" 
			},
			{
				"x": -4.7876183428,
				"y": 0.0383803881,
				"z": 2.2133082409,
				"element": "H" 
			},
			{
				"x": -6.7683403505,
				"y": -1.3366234287,
				"z": 1.6221960745,
				"element": "H" 
			},
			{
				"x": -6.5107862866,
				"y": -3.3932713518,
				"z": 0.269024968,
				"element": "H" 
			},
			{
				"x": -4.268317089,
				"y": -4.11403488,
				"z": -0.5155626738,
				"element": "H" 
			}
		],
		 "valence_orbital": [ 
			{
				"type": "occ",
				"energy": -0.26494,
				"method": "rhf"
			},
			{
				"type": "occ",
				"energy": -0.26035,
				"method": "rhf"
			},
			{
				"type": "occ",
				"energy": -0.24944,
				"method": "rhf"
			},
			{
				"type": "occ",
				"energy": -0.24294,
				"method": "rhf"
			},
			{
				"type": "occ",
				"energy": -0.21407,
				"method": "rhf"
			},
			{
				"type": "unocc",
				"energy": -0.0346,
				"method": "rhf"
			},
			{
				"type": "unocc",
				"energy": -0.02976,
				"method": "rhf"
			},
			{
				"type": "unocc",
				"energy": -0.02494,
				"method": "rhf"
			},
			{
				"type": "unocc",
				"energy": -0.01949,
				"method": "rhf"
			},
			{
				"type": "unocc",
				"energy": -0.01149,
				"method": "rhf"
			}
		],
		"cosmo_sigma_profile": { 
			"-0.025": 0.0,
			"-0.024": 0.0,
			"-0.023": 0.0,
			"-0.022": 0.0,
			"-0.021": 0.0,
			"-0.02": 0.0,
			"-0.019": 0.0,
			"-0.018": 0.0,
			"-0.017": 0.0,
			"-0.016": 0.0,
			"-0.015": 0.0,
			"-0.014": 0.409387930336,
			"-0.013": 0.629109251723,
			"-0.012": 1.45417047911,
			"-0.011": 1.0287237775,
			"-0.01": 0.899020073261,
			"-0.009": 0.618293366834,
			"-0.008": 0.949611725996,
			"-0.007": 3.89735690987,
			"-0.006": 16.6840027891,
			"-0.005": 27.7501964051,
			"-0.004": 46.1254330335,
			"-0.003": 46.4722416248,
			"-0.002": 38.0289479952,
			"-0.001": 42.4638740414,
			"0.0": 45.2931107942,
			"0.001": 44.7609733445,
			"0.002": 62.9040349965,
			"0.003": 38.5583867441,
			"0.004": 22.9511609328,
			"0.005": 20.3976688279,
			"0.006": 9.70390909709,
			"0.007": 3.13732929218,
			"0.008": 2.69877787858,
			"0.009": 3.16861587338,
			"0.01": 3.06619407033,
			"0.011": 2.52396719155,
			"0.012": 3.36574493745,
			"0.013": 4.76640854809,
			"0.014": 0.243103271664,
			"0.015": 0.0,
			"0.016": 0.0,
			"0.017": 0.0,
			"0.018": 0.0,
			"0.019": 0.0,
			"0.02": 0.0,
			"0.021": 0.0,
			"0.022": 0.0,
			"0.023": 0.0,
			"0.024": 0.0,
			"0.025": 0.0
		}
	}
}
