{
	 "smiles": "OC1=CC2=C(C=C1O)C(C1=CC=CC=C1)=C1C=C(O)C(=O)C=C1O2", 
	 "Tm": 573.15, 
	 "num_atms": 36, 
	 "gaussian": { 
		 "optdone": 1, 
		 "sigma_profile": "yes", 
		 "theory": "DFT", 
		 "functional": "B3LYP", 
		 "basiset": "6-31G**", 
		 "properties": { 
			 "R2extent": 8758.9808, 
			 "electric_dipole_moment_norm": 10.2308985739, 
			 "electric_quadrupole_moment_norm": 28.6916806529, 
			 "total_energy": -1107.34464239, 
			 "HOMO_LUMO_gap": 0.11121, 
			 "cosmo_polarized_energy": -29.55, 
			 "cosmo_cavitation_energy": 41.01, 
			 "cosmo_dispersion_energy": -29.37, 
			 "cosmo_repulsion_energy": 2.21, 
			 "cosmo_total_nonelectrostatic_energy": 13.85, 
			 "SMD_solvation_energy": 8.6 
		},
		"coords": [
			{
				"x": 1.5449066615,
				"y": -3.0140147305,
				"z": 3.531574335,
				"element": "O" 
			},
			{
				"x": 1.2065582524,
				"y": -2.1191543175,
				"z": 2.5734339398,
				"element": "C" 
			},
			{
				"x": 2.1296519426,
				"y": -1.7522064469,
				"z": 1.6041582895,
				"element": "C" 
			},
			{
				"x": 1.7591932369,
				"y": -0.8291523569,
				"z": 0.6255960136,
				"element": "C" 
			},
			{
				"x": 0.4767561022,
				"y": -0.2447972426,
				"z": 0.5864124352,
				"element": "C" 
			},
			{
				"x": -0.4491496052,
				"y": -0.6448316729,
				"z": 1.5808190431,
				"element": "C" 
			},
			{
				"x": -0.0928084379,
				"y": -1.5574284516,
				"z": 2.5519881901,
				"element": "C" 
			},
			{
				"x": -0.9185662022,
				"y": -2.005279795,
				"z": 3.556818558,
				"element": "O" 
			},
			{
				"x": 0.1763587967,
				"y": 0.6997125252,
				"z": -0.4666365983,
				"element": "C" 
			},
			{
				"x": -1.1760483242,
				"y": 1.3280850088,
				"z": -0.5215231208,
				"element": "C" 
			},
			{
				"x": -1.5646667127,
				"y": 2.273739354,
				"z": 0.4412167543,
				"element": "C" 
			},
			{
				"x": -2.8298138113,
				"y": 2.8603649828,
				"z": 0.3900638212,
				"element": "C" 
			},
			{
				"x": -3.7276041424,
				"y": 2.5062904995,
				"z": -0.6192382848,
				"element": "C" 
			},
			{
				"x": -3.3528287805,
				"y": 1.5643109955,
				"z": -1.5791113967,
				"element": "C" 
			},
			{
				"x": -2.0862557281,
				"y": 0.9798596711,
				"z": -1.5319213191,
				"element": "C" 
			},
			{
				"x": 1.1467609967,
				"y": 0.9998072704,
				"z": -1.40490754,
				"element": "C" 
			},
			{
				"x": 0.967966735,
				"y": 1.9425427853,
				"z": -2.4812561298,
				"element": "C" 
			},
			{
				"x": 1.9557070387,
				"y": 2.2007852172,
				"z": -3.3803711758,
				"element": "C" 
			},
			{
				"x": 1.8413840132,
				"y": 3.0758656841,
				"z": -4.4040178842,
				"element": "O" 
			},
			{
				"x": 3.2902386667,
				"y": 1.5289888415,
				"z": -3.3109307513,
				"element": "C" 
			},
			{
				"x": 4.1690431593,
				"y": 1.7709061197,
				"z": -4.1391081144,
				"element": "O" 
			},
			{
				"x": 3.452448616,
				"y": 0.6003982859,
				"z": -2.2064828457,
				"element": "C" 
			},
			{
				"x": 2.4505926965,
				"y": 0.3602452932,
				"z": -1.3180868767,
				"element": "C" 
			},
			{
				"x": 2.705006606,
				"y": -0.5234712458,
				"z": -0.3039785957,
				"element": "O" 
			},
			{
				"x": 0.7711546619,
				"y": -3.142089248,
				"z": 4.1020560088,
				"element": "H" 
			},
			{
				"x": 3.1247928426,
				"y": -2.1802854263,
				"z": 1.6041222487,
				"element": "H" 
			},
			{
				"x": -1.4501583456,
				"y": -0.2250935005,
				"z": 1.5717645363,
				"element": "H" 
			},
			{
				"x": -1.7907871655,
				"y": -1.6005863742,
				"z": 3.4748515403,
				"element": "H" 
			},
			{
				"x": -0.8656499002,
				"y": 2.5558255608,
				"z": 1.223369151,
				"element": "H" 
			},
			{
				"x": -3.1118134501,
				"y": 3.5973875724,
				"z": 1.1365509629,
				"element": "H" 
			},
			{
				"x": -4.7124208013,
				"y": 2.9625823008,
				"z": -0.6579470195,
				"element": "H" 
			},
			{
				"x": -4.0463975905,
				"y": 1.2821025244,
				"z": -2.3660007265,
				"element": "H" 
			},
			{
				"x": -1.7964349086,
				"y": 0.245859997,
				"z": -2.278030558,
				"element": "H" 
			},
			{
				"x": 0.0124357719,
				"y": 2.4532074684,
				"z": -2.5583872764,
				"element": "H" 
			},
			{
				"x": 0.9606029108,
				"y": 3.4751471139,
				"z": -4.381078116,
				"element": "H" 
			},
			{
				"x": 4.4082441985,
				"y": 0.0996757367,
				"z": -2.1060814979,
				"element": "H" 
			}
		],
		 "valence_orbital": [ 
			{
				"type": "occ",
				"energy": -0.25984,
				"method": "rhf"
			},
			{
				"type": "occ",
				"energy": -0.25298,
				"method": "rhf"
			},
			{
				"type": "occ",
				"energy": -0.2236,
				"method": "rhf"
			},
			{
				"type": "occ",
				"energy": -0.22316,
				"method": "rhf"
			},
			{
				"type": "occ",
				"energy": -0.19212,
				"method": "rhf"
			},
			{
				"type": "unocc",
				"energy": -0.08091,
				"method": "rhf"
			},
			{
				"type": "unocc",
				"energy": -0.02485,
				"method": "rhf"
			},
			{
				"type": "unocc",
				"energy": -0.02271,
				"method": "rhf"
			},
			{
				"type": "unocc",
				"energy": -0.00459,
				"method": "rhf"
			},
			{
				"type": "unocc",
				"energy": -0.00252,
				"method": "rhf"
			}
		],
		"cosmo_sigma_profile": { 
			"-0.025": 0.0,
			"-0.024": 0.0,
			"-0.023": 0.0,
			"-0.022": 0.0,
			"-0.021": 0.0,
			"-0.02": 0.0,
			"-0.019": 0.55288036953,
			"-0.018": 1.75576236648,
			"-0.017": 2.58668993897,
			"-0.016": 2.47578413903,
			"-0.015": 2.16427037297,
			"-0.014": 2.66826539434,
			"-0.013": 2.13323041995,
			"-0.012": 2.25100185725,
			"-0.011": 3.53223376431,
			"-0.01": 2.97325953637,
			"-0.009": 2.29105792913,
			"-0.008": 2.78265489401,
			"-0.007": 5.07701259099,
			"-0.006": 15.1416021849,
			"-0.005": 16.3247385684,
			"-0.004": 19.0835732644,
			"-0.003": 17.7607123452,
			"-0.002": 20.372282494,
			"-0.001": 20.1876639823,
			"0.0": 27.186574422,
			"0.001": 35.7465309776,
			"0.002": 30.8017870095,
			"0.003": 23.4536267228,
			"0.004": 16.4475641971,
			"0.005": 10.1304823879,
			"0.006": 6.1825871742,
			"0.007": 4.0990851349,
			"0.008": 3.25724349218,
			"0.009": 4.22069512563,
			"0.01": 3.73181019426,
			"0.011": 2.29214075728,
			"0.012": 2.63390315802,
			"0.013": 3.2761724483,
			"0.014": 5.59607744919,
			"0.015": 4.68285950022,
			"0.016": 2.50429400696,
			"0.017": 0.944952493707,
			"0.018": 0.0303935037534,
			"0.019": 0.0,
			"0.02": 0.0,
			"0.021": 0.0,
			"0.022": 0.0,
			"0.023": 0.0,
			"0.024": 0.0,
			"0.025": 0.0
		}
	}
}
