{
	 "smiles": "CN1C(=O)C=CN(CC(O)=O)C1=O", 
	 "Tm": 514.15, 
	 "num_atms": 21, 
	 "gaussian": { 
		 "optdone": 1, 
		 "sigma_profile": "yes", 
		 "theory": "DFT", 
		 "functional": "B3LYP", 
		 "basiset": "6-31G**", 
		 "properties": { 
			 "R2extent": 3021.2962, 
			 "electric_dipole_moment_norm": 3.27897106575, 
			 "electric_quadrupole_moment_norm": 29.5628639651, 
			 "total_energy": -682.005101772, 
			 "HOMO_LUMO_gap": 0.19982, 
			 "cosmo_polarized_energy": -18.84, 
			 "cosmo_cavitation_energy": 25.31, 
			 "cosmo_dispersion_energy": -18.68, 
			 "cosmo_repulsion_energy": 1.46, 
			 "cosmo_total_nonelectrostatic_energy": 8.09, 
			 "SMD_solvation_energy": 7.16 
		},
		"coords": [
			{
				"x": 0.7871887475,
				"y": 0.8849898,
				"z": 1.670823028,
				"element": "C" 
			},
			{
				"x": -0.2572426755,
				"y": 0.3803112707,
				"z": 0.7696587922,
				"element": "N" 
			},
			{
				"x": -0.9317610632,
				"y": -0.8309862529,
				"z": 1.1173413108,
				"element": "C" 
			},
			{
				"x": -0.6671603393,
				"y": -1.417062121,
				"z": 2.1538456705,
				"element": "O" 
			},
			{
				"x": -1.9136082962,
				"y": -1.2629420186,
				"z": 0.1365233237,
				"element": "C" 
			},
			{
				"x": -2.1478560081,
				"y": -0.53204833,
				"z": -0.971691569,
				"element": "C" 
			},
			{
				"x": -1.4730778728,
				"y": 0.6425896343,
				"z": -1.2324131311,
				"element": "N" 
			},
			{
				"x": -1.8099272246,
				"y": 1.468507475,
				"z": -2.404078774,
				"element": "C" 
			},
			{
				"x": -0.8045722947,
				"y": 1.3524805925,
				"z": -3.5691995539,
				"element": "C" 
			},
			{
				"x": 0.4402831471,
				"y": 1.7591776824,
				"z": -3.3012322641,
				"element": "O" 
			},
			{
				"x": -1.1434270773,
				"y": 0.9402515641,
				"z": -4.6525323773,
				"element": "O" 
			},
			{
				"x": -0.4812974717,
				"y": 1.1073300264,
				"z": -0.3752696871,
				"element": "C" 
			},
			{
				"x": 0.1606230093,
				"y": 2.1307082847,
				"z": -0.6447656934,
				"element": "O" 
			},
			{
				"x": 0.8398406064,
				"y": 0.1975329893,
				"z": 2.5117928613,
				"element": "H" 
			},
			{
				"x": 0.5316613847,
				"y": 1.8905054066,
				"z": 2.0104281133,
				"element": "H" 
			},
			{
				"x": 1.7434789187,
				"y": 0.9264081904,
				"z": 1.145638871,
				"element": "H" 
			},
			{
				"x": -2.4478737757,
				"y": -2.1820431597,
				"z": 0.3331570973,
				"element": "H" 
			},
			{
				"x": -2.8772183904,
				"y": -0.8206965271,
				"z": -1.7198527578,
				"element": "H" 
			},
			{
				"x": -1.8738742104,
				"y": 2.5109709064,
				"z": -2.0780343961,
				"element": "H" 
			},
			{
				"x": -2.7808269423,
				"y": 1.1477889515,
				"z": -2.7778428921,
				"element": "H" 
			},
			{
				"x": 0.4982478286,
				"y": 2.0691256349,
				"z": -2.3659959722,
				"element": "H" 
			}
		],
		 "valence_orbital": [ 
			{
				"type": "occ",
				"energy": -0.31646,
				"method": "rhf"
			},
			{
				"type": "occ",
				"energy": -0.29674,
				"method": "rhf"
			},
			{
				"type": "occ",
				"energy": -0.28549,
				"method": "rhf"
			},
			{
				"type": "occ",
				"energy": -0.28148,
				"method": "rhf"
			},
			{
				"type": "occ",
				"energy": -0.25839,
				"method": "rhf"
			},
			{
				"type": "unocc",
				"energy": -0.05857,
				"method": "rhf"
			},
			{
				"type": "unocc",
				"energy": -0.02005,
				"method": "rhf"
			},
			{
				"type": "unocc",
				"energy": -0.00458,
				"method": "rhf"
			},
			{
				"type": "unocc",
				"energy": 0.06479,
				"method": "rhf"
			},
			{
				"type": "unocc",
				"energy": 0.08698,
				"method": "rhf"
			}
		],
		"cosmo_sigma_profile": { 
			"-0.025": 0.0,
			"-0.024": 0.0,
			"-0.023": 0.0,
			"-0.022": 0.0,
			"-0.021": 0.0,
			"-0.02": 0.0,
			"-0.019": 0.0,
			"-0.018": 0.0,
			"-0.017": 0.0,
			"-0.016": 0.0,
			"-0.015": 0.0,
			"-0.014": 0.0,
			"-0.013": 0.273950401611,
			"-0.012": 1.60627166175,
			"-0.011": 2.53514944923,
			"-0.01": 3.92036181261,
			"-0.009": 5.14868630552,
			"-0.008": 7.51942454585,
			"-0.007": 10.2728187336,
			"-0.006": 16.2803011932,
			"-0.005": 15.1981930269,
			"-0.004": 16.0203693463,
			"-0.003": 15.4325787647,
			"-0.002": 11.6283795285,
			"-0.001": 9.65965816602,
			"0.0": 7.66463876648,
			"0.001": 7.83686667944,
			"0.002": 5.7034092561,
			"0.003": 4.75734587537,
			"0.004": 4.79813593518,
			"0.005": 3.9840653246,
			"0.006": 4.94657653463,
			"0.007": 4.93080419915,
			"0.008": 4.52575179009,
			"0.009": 6.35926948604,
			"0.01": 8.51064281536,
			"0.011": 9.6169022699,
			"0.012": 9.17437319649,
			"0.013": 3.60529911731,
			"0.014": 0.317217532171,
			"0.015": 0.0,
			"0.016": 0.0,
			"0.017": 0.0,
			"0.018": 0.0,
			"0.019": 0.0,
			"0.02": 0.0,
			"0.021": 0.0,
			"0.022": 0.0,
			"0.023": 0.0,
			"0.024": 0.0,
			"0.025": 0.0
		}
	}
}
