{
	 "smiles": "CC1=C(C)C(=CC=C1)C1(CCCN1)C(F)(F)F", 
	 "Tm": 319.15, 
	 "num_atms": 33, 
	 "gaussian": { 
		 "optdone": 1, 
		 "sigma_profile": "yes", 
		 "theory": "DFT", 
		 "functional": "B3LYP", 
		 "basiset": "6-31G**", 
		 "properties": { 
			 "R2extent": 4212.2415, 
			 "electric_dipole_moment_norm": 2.00752810441, 
			 "electric_quadrupole_moment_norm": 9.52064351817, 
			 "total_energy": -859.308553603, 
			 "HOMO_LUMO_gap": 0.22944, 
			 "cosmo_polarized_energy": -6.11, 
			 "cosmo_cavitation_energy": 33.43, 
			 "cosmo_dispersion_energy": -23.84, 
			 "cosmo_repulsion_energy": 1.77, 
			 "cosmo_total_nonelectrostatic_energy": 11.36, 
			 "SMD_solvation_energy": 5.39 
		},
		"coords": [
			{
				"x": 2.4108357136,
				"y": -1.5361663087,
				"z": -2.3304422334,
				"element": "C" 
			},
			{
				"x": 1.7070581899,
				"y": -1.0473476726,
				"z": -1.0837111719,
				"element": "C" 
			},
			{
				"x": 0.687532918,
				"y": -0.0658861171,
				"z": -1.1609487406,
				"element": "C" 
			},
			{
				"x": 0.3727486301,
				"y": 0.4708510085,
				"z": -2.5443612243,
				"element": "C" 
			},
			{
				"x": 0.0361319805,
				"y": 0.3427411831,
				"z": 0.0289071348,
				"element": "C" 
			},
			{
				"x": 0.4497891382,
				"y": -0.2009485589,
				"z": 1.2542951909,
				"element": "C" 
			},
			{
				"x": 1.4606322141,
				"y": -1.1517247887,
				"z": 1.3230037192,
				"element": "C" 
			},
			{
				"x": 2.0801951129,
				"y": -1.5781489475,
				"z": 0.1531901959,
				"element": "C" 
			},
			{
				"x": -1.1203371313,
				"y": 1.380714025,
				"z": 0.0921642625,
				"element": "C" 
			},
			{
				"x": -2.2276666344,
				"y": 1.1875342642,
				"z": -1.0116586716,
				"element": "C" 
			},
			{
				"x": -3.5666608521,
				"y": 1.2834908677,
				"z": -0.2643555069,
				"element": "C" 
			},
			{
				"x": -3.1900715225,
				"y": 0.7512562024,
				"z": 1.1215534433,
				"element": "C" 
			},
			{
				"x": -1.8455117269,
				"y": 1.2805012776,
				"z": 1.3900116626,
				"element": "N" 
			},
			{
				"x": -0.5436302262,
				"y": 2.8067954903,
				"z": 0.0315763186,
				"element": "C" 
			},
			{
				"x": 0.2039469836,
				"y": 3.0403963325,
				"z": -1.065242948,
				"element": "F" 
			},
			{
				"x": 0.2273071395,
				"y": 3.0697063803,
				"z": 1.1074400039,
				"element": "F" 
			},
			{
				"x": -1.5380689746,
				"y": 3.7357533176,
				"z": 0.0285835452,
				"element": "F" 
			},
			{
				"x": 3.1163970425,
				"y": -2.334836039,
				"z": -2.0873008616,
				"element": "H" 
			},
			{
				"x": 2.9763439444,
				"y": -0.7362864988,
				"z": -2.8245450133,
				"element": "H" 
			},
			{
				"x": 1.7077369228,
				"y": -1.9284783247,
				"z": -3.0746203945,
				"element": "H" 
			},
			{
				"x": -0.1116240088,
				"y": -0.2929312689,
				"z": -3.1666007421,
				"element": "H" 
			},
			{
				"x": 1.2961295223,
				"y": 0.7517822405,
				"z": -3.0614542717,
				"element": "H" 
			},
			{
				"x": -0.2595743339,
				"y": 1.3508590006,
				"z": -2.5382881562,
				"element": "H" 
			},
			{
				"x": -0.0626017037,
				"y": 0.1256365513,
				"z": 2.1500956924,
				"element": "H" 
			},
			{
				"x": 1.7587614243,
				"y": -1.5604781551,
				"z": 2.2844159383,
				"element": "H" 
			},
			{
				"x": 2.8651199658,
				"y": -2.3294241249,
				"z": 0.1930791262,
				"element": "H" 
			},
			{
				"x": -2.1502151636,
				"y": 1.9228449264,
				"z": -1.8149760418,
				"element": "H" 
			},
			{
				"x": -2.1137513015,
				"y": 0.1970663911,
				"z": -1.4580865736,
				"element": "H" 
			},
			{
				"x": -4.3621570322,
				"y": 0.7144183525,
				"z": -0.7557293902,
				"element": "H" 
			},
			{
				"x": -3.8893182477,
				"y": 2.3275524789,
				"z": -0.1901467443,
				"element": "H" 
			},
			{
				"x": -3.1491304182,
				"y": -0.3460341465,
				"z": 1.1118460919,
				"element": "H" 
			},
			{
				"x": -3.8750375306,
				"y": 1.0482940838,
				"z": 1.9207314432,
				"element": "H" 
			},
			{
				"x": -1.9229100344,
				"y": 2.1977965771,
				"z": 1.816474917,
				"element": "H" 
			}
		],
		 "valence_orbital": [ 
			{
				"type": "occ",
				"energy": -0.32412,
				"method": "rhf"
			},
			{
				"type": "occ",
				"energy": -0.32054,
				"method": "rhf"
			},
			{
				"type": "occ",
				"energy": -0.23652,
				"method": "rhf"
			},
			{
				"type": "occ",
				"energy": -0.23397,
				"method": "rhf"
			},
			{
				"type": "occ",
				"energy": -0.22695,
				"method": "rhf"
			},
			{
				"type": "unocc",
				"energy": 0.00249,
				"method": "rhf"
			},
			{
				"type": "unocc",
				"energy": 0.00961,
				"method": "rhf"
			},
			{
				"type": "unocc",
				"energy": 0.07889,
				"method": "rhf"
			},
			{
				"type": "unocc",
				"energy": 0.09159,
				"method": "rhf"
			},
			{
				"type": "unocc",
				"energy": 0.10462,
				"method": "rhf"
			}
		],
		"cosmo_sigma_profile": { 
			"-0.025": 0.0,
			"-0.024": 0.0,
			"-0.023": 0.0,
			"-0.022": 0.0,
			"-0.021": 0.0,
			"-0.02": 0.0,
			"-0.019": 0.0,
			"-0.018": 0.0,
			"-0.017": 0.0,
			"-0.016": 0.0,
			"-0.015": 0.0,
			"-0.014": 0.0,
			"-0.013": 0.0,
			"-0.012": 0.0,
			"-0.011": 0.339566473108,
			"-0.01": 0.786573969938,
			"-0.009": 1.28641726837,
			"-0.008": 0.541308398092,
			"-0.007": 1.04739060656,
			"-0.006": 2.07174330905,
			"-0.005": 9.30218132991,
			"-0.004": 19.9378305906,
			"-0.003": 29.4051457377,
			"-0.002": 31.4339409454,
			"-0.001": 28.911583063,
			"0.0": 29.0829240153,
			"0.001": 19.302902964,
			"0.002": 21.1665266367,
			"0.003": 31.8074503074,
			"0.004": 12.2501442036,
			"0.005": 8.25042610158,
			"0.006": 8.62963383353,
			"0.007": 4.69241976968,
			"0.008": 0.919878757106,
			"0.009": 0.805517044807,
			"0.01": 0.582465010269,
			"0.011": 0.118385472331,
			"0.012": 0.0,
			"0.013": 0.0,
			"0.014": 0.0,
			"0.015": 0.0,
			"0.016": 0.0,
			"0.017": 0.0,
			"0.018": 0.0,
			"0.019": 0.0,
			"0.02": 0.0,
			"0.021": 0.0,
			"0.022": 0.0,
			"0.023": 0.0,
			"0.024": 0.0,
			"0.025": 0.0
		}
	}
}
