{
	 "smiles": "ClC(=O)C1=CC2=CC=CC=C2O1", 
	 "Tm": 327.65, 
	 "num_atms": 17, 
	 "gaussian": { 
		 "optdone": 1, 
		 "sigma_profile": "yes", 
		 "theory": "DFT", 
		 "functional": "B3LYP", 
		 "basiset": "6-31G**", 
		 "properties": { 
			 "R2extent": 3043.6948, 
			 "electric_dipole_moment_norm": 4.83161621613, 
			 "electric_quadrupole_moment_norm": 9.70086783334, 
			 "total_energy": -956.603451172, 
			 "HOMO_LUMO_gap": 0.16201, 
			 "cosmo_polarized_energy": -7.51, 
			 "cosmo_cavitation_energy": 24.18, 
			 "cosmo_dispersion_energy": -18.13, 
			 "cosmo_repulsion_energy": 1.44, 
			 "cosmo_total_nonelectrostatic_energy": 7.49, 
			 "SMD_solvation_energy": 5.12 
		},
		"coords": [
			{
				"x": 0.4253640903,
				"y": -2.9061396487,
				"z": 2.2793471369,
				"element": "Cl" 
			},
			{
				"x": 1.6610602525,
				"y": -1.6176727223,
				"z": 1.8896089967,
				"element": "C" 
			},
			{
				"x": 2.7973480418,
				"y": -1.7358784059,
				"z": 2.236141531,
				"element": "O" 
			},
			{
				"x": 1.0848492262,
				"y": -0.5072382983,
				"z": 1.14546469,
				"element": "C" 
			},
			{
				"x": -0.1774007693,
				"y": -0.2404297972,
				"z": 0.6872181278,
				"element": "C" 
			},
			{
				"x": -0.1009845748,
				"y": 1.0246530775,
				"z": 0.0216477674,
				"element": "C" 
			},
			{
				"x": -1.0107799394,
				"y": 1.8581449171,
				"z": -0.6555815961,
				"element": "C" 
			},
			{
				"x": -0.5370197053,
				"y": 3.0507940341,
				"z": -1.1831346462,
				"element": "C" 
			},
			{
				"x": 0.8181465384,
				"y": 3.4263778771,
				"z": -1.0494098196,
				"element": "C" 
			},
			{
				"x": 1.7383676276,
				"y": 2.6216010018,
				"z": -0.3851277596,
				"element": "C" 
			},
			{
				"x": 1.2461316377,
				"y": 1.4288873784,
				"z": 0.137871192,
				"element": "C" 
			},
			{
				"x": 1.9689833531,
				"y": 0.499306879,
				"z": 0.8206295074,
				"element": "O" 
			},
			{
				"x": -1.0414028432,
				"y": -0.874602278,
				"z": 0.8155559071,
				"element": "H" 
			},
			{
				"x": -2.0530636503,
				"y": 1.5738471482,
				"z": -0.7609184954,
				"element": "H" 
			},
			{
				"x": -1.2172461337,
				"y": 3.7124136522,
				"z": -1.7103101133,
				"element": "H" 
			},
			{
				"x": 1.1498859459,
				"y": 4.3678613608,
				"z": -1.476391507,
				"element": "H" 
			},
			{
				"x": 2.7807609025,
				"y": 2.8983738242,
				"z": -0.2757109189,
				"element": "H" 
			}
		],
		 "valence_orbital": [ 
			{
				"type": "occ",
				"energy": -0.32439,
				"method": "rhf"
			},
			{
				"type": "occ",
				"energy": -0.31785,
				"method": "rhf"
			},
			{
				"type": "occ",
				"energy": -0.29822,
				"method": "rhf"
			},
			{
				"type": "occ",
				"energy": -0.26094,
				"method": "rhf"
			},
			{
				"type": "occ",
				"energy": -0.24956,
				"method": "rhf"
			},
			{
				"type": "unocc",
				"energy": -0.08755,
				"method": "rhf"
			},
			{
				"type": "unocc",
				"energy": -0.01387,
				"method": "rhf"
			},
			{
				"type": "unocc",
				"energy": -0.00074,
				"method": "rhf"
			},
			{
				"type": "unocc",
				"energy": 0.01492,
				"method": "rhf"
			},
			{
				"type": "unocc",
				"energy": 0.07181,
				"method": "rhf"
			}
		],
		"cosmo_sigma_profile": { 
			"-0.025": 0.0,
			"-0.024": 0.0,
			"-0.023": 0.0,
			"-0.022": 0.0,
			"-0.021": 0.0,
			"-0.02": 0.0,
			"-0.019": 0.0,
			"-0.018": 0.0,
			"-0.017": 0.0,
			"-0.016": 0.0,
			"-0.015": 0.0,
			"-0.014": 0.0,
			"-0.013": 0.0,
			"-0.012": 0.0,
			"-0.011": 0.0,
			"-0.01": 0.168925773213,
			"-0.009": 1.23301634641,
			"-0.008": 2.80891972444,
			"-0.007": 7.33142318685,
			"-0.006": 11.56582276,
			"-0.005": 11.926047264,
			"-0.004": 11.4049374285,
			"-0.003": 11.6886033193,
			"-0.002": 13.825010098,
			"-0.001": 16.1526195824,
			"0.0": 18.3125329744,
			"0.001": 17.1885620662,
			"0.002": 16.9399881356,
			"0.003": 17.9313484834,
			"0.004": 14.7625433538,
			"0.005": 6.49713588956,
			"0.006": 2.83494248646,
			"0.007": 4.36286013383,
			"0.008": 6.16143800938,
			"0.009": 4.60914270515,
			"0.01": 0.377355815133,
			"0.011": 0.0,
			"0.012": 0.0,
			"0.013": 0.0,
			"0.014": 0.0,
			"0.015": 0.0,
			"0.016": 0.0,
			"0.017": 0.0,
			"0.018": 0.0,
			"0.019": 0.0,
			"0.02": 0.0,
			"0.021": 0.0,
			"0.022": 0.0,
			"0.023": 0.0,
			"0.024": 0.0,
			"0.025": 0.0
		}
	}
}
