{
	 "smiles": "OC1=CC=C(NC2=CC3=C(C=CC=C3)C=C2)C=C1", 
	 "Tm": 413.15, 
	 "num_atms": 31, 
	 "gaussian": { 
		 "optdone": 1, 
		 "sigma_profile": "yes", 
		 "theory": "DFT", 
		 "functional": "B3LYP", 
		 "basiset": "6-31G**", 
		 "properties": { 
			 "R2extent": 7110.7048, 
			 "electric_dipole_moment_norm": 0.973252906495, 
			 "electric_quadrupole_moment_norm": 15.2450699529, 
			 "total_energy": -747.521300834, 
			 "HOMO_LUMO_gap": 0.14696, 
			 "cosmo_polarized_energy": -13.35, 
			 "cosmo_cavitation_energy": 34.89, 
			 "cosmo_dispersion_energy": -25.78, 
			 "cosmo_repulsion_energy": 1.95, 
			 "cosmo_total_nonelectrostatic_energy": 11.06, 
			 "SMD_solvation_energy": 5.63 
		},
		"coords": [
			{
				"x": 3.6780735755,
				"y": -1.1668371504,
				"z": -3.9943579308,
				"element": "O" 
			},
			{
				"x": 2.8455820805,
				"y": -0.8459694639,
				"z": -2.955178804,
				"element": "C" 
			},
			{
				"x": 3.1042979668,
				"y": -1.4324495038,
				"z": -1.7115392228,
				"element": "C" 
			},
			{
				"x": 2.2794100463,
				"y": -1.1579258379,
				"z": -0.6272421906,
				"element": "C" 
			},
			{
				"x": 1.1930747257,
				"y": -0.2728762994,
				"z": -0.743274726,
				"element": "C" 
			},
			{
				"x": 0.4213192701,
				"y": 0.0044308351,
				"z": 0.4012023509,
				"element": "N" 
			},
			{
				"x": -0.9030257846,
				"y": 0.4368379111,
				"z": 0.4681374612,
				"element": "C" 
			},
			{
				"x": -1.3357732449,
				"y": 1.1720336951,
				"z": 1.5628576712,
				"element": "C" 
			},
			{
				"x": -2.6880434489,
				"y": 1.5693414559,
				"z": 1.7022639858,
				"element": "C" 
			},
			{
				"x": -3.6297406445,
				"y": 1.2213713705,
				"z": 0.6790754056,
				"element": "C" 
			},
			{
				"x": -4.9814398645,
				"y": 1.6317573729,
				"z": 0.8109947732,
				"element": "C" 
			},
			{
				"x": -5.3962139656,
				"y": 2.3584290514,
				"z": 1.9056201639,
				"element": "C" 
			},
			{
				"x": -4.4672457013,
				"y": 2.7052505421,
				"z": 2.9173655651,
				"element": "C" 
			},
			{
				"x": -3.148495702,
				"y": 2.3207973111,
				"z": 2.819211714,
				"element": "C" 
			},
			{
				"x": -3.162876646,
				"y": 0.4652932158,
				"z": -0.4300355305,
				"element": "C" 
			},
			{
				"x": -1.8507362174,
				"y": 0.0750849238,
				"z": -0.5368459624,
				"element": "C" 
			},
			{
				"x": 0.9574226715,
				"y": 0.3291046797,
				"z": -1.9879718229,
				"element": "C" 
			},
			{
				"x": 1.7664695396,
				"y": 0.0317791154,
				"z": -3.0850239517,
				"element": "C" 
			},
			{
				"x": 3.3907079176,
				"y": -0.6931648486,
				"z": -4.7852832765,
				"element": "H" 
			},
			{
				"x": 3.9443830632,
				"y": -2.1123749557,
				"z": -1.6155397969,
				"element": "H" 
			},
			{
				"x": 2.4721646172,
				"y": -1.6381399273,
				"z": 0.3286692049,
				"element": "H" 
			},
			{
				"x": 0.9358471218,
				"y": 0.0564827989,
				"z": 1.2676174503,
				"element": "H" 
			},
			{
				"x": -0.6236605579,
				"y": 1.4572563442,
				"z": 2.3346706386,
				"element": "H" 
			},
			{
				"x": -5.6878469738,
				"y": 1.3604754439,
				"z": 0.0300151381,
				"element": "H" 
			},
			{
				"x": -6.4335009283,
				"y": 2.6667653198,
				"z": 1.9971955662,
				"element": "H" 
			},
			{
				"x": -4.801210384,
				"y": 3.278916774,
				"z": 3.7775310828,
				"element": "H" 
			},
			{
				"x": -2.4388090934,
				"y": 2.5893095529,
				"z": 3.5978681007,
				"element": "H" 
			},
			{
				"x": -3.8725831176,
				"y": 0.1766091669,
				"z": -1.2015500358,
				"element": "H" 
			},
			{
				"x": -1.5293338164,
				"y": -0.5318806074,
				"z": -1.375505761,
				"element": "H" 
			},
			{
				"x": 0.1493312597,
				"y": 1.0433135616,
				"z": -2.0996800295,
				"element": "H" 
			},
			{
				"x": 1.5635522358,
				"y": 0.5067781523,
				"z": -4.042967231,
				"element": "H" 
			}
		],
		 "valence_orbital": [ 
			{
				"type": "occ",
				"energy": -0.27193,
				"method": "rhf"
			},
			{
				"type": "occ",
				"energy": -0.25378,
				"method": "rhf"
			},
			{
				"type": "occ",
				"energy": -0.23396,
				"method": "rhf"
			},
			{
				"type": "occ",
				"energy": -0.21389,
				"method": "rhf"
			},
			{
				"type": "occ",
				"energy": -0.17849,
				"method": "rhf"
			},
			{
				"type": "unocc",
				"energy": -0.03153,
				"method": "rhf"
			},
			{
				"type": "unocc",
				"energy": -0.00666,
				"method": "rhf"
			},
			{
				"type": "unocc",
				"energy": -0.0027,
				"method": "rhf"
			},
			{
				"type": "unocc",
				"energy": 0.02568,
				"method": "rhf"
			},
			{
				"type": "unocc",
				"energy": 0.04034,
				"method": "rhf"
			}
		],
		"cosmo_sigma_profile": { 
			"-0.025": 0.0,
			"-0.024": 0.0,
			"-0.023": 0.0,
			"-0.022": 0.0,
			"-0.021": 0.0,
			"-0.02": 0.0,
			"-0.019": 0.0,
			"-0.018": 0.0872416559771,
			"-0.017": 1.02622894111,
			"-0.016": 1.12784133184,
			"-0.015": 0.882181242258,
			"-0.014": 1.4395240752,
			"-0.013": 2.05502198183,
			"-0.012": 2.58183892129,
			"-0.011": 1.34760267917,
			"-0.01": 2.84602884025,
			"-0.009": 2.64408534722,
			"-0.008": 2.37972067364,
			"-0.007": 3.92885282355,
			"-0.006": 10.1371376281,
			"-0.005": 21.9580871506,
			"-0.004": 19.3375332773,
			"-0.003": 21.2977327395,
			"-0.002": 16.5866435831,
			"-0.001": 14.1573927333,
			"0.0": 13.7812011057,
			"0.001": 14.2293282187,
			"0.002": 14.6684804976,
			"0.003": 18.5881325002,
			"0.004": 26.4269184585,
			"0.005": 36.6368653194,
			"0.006": 19.1429442185,
			"0.007": 1.83232639415,
			"0.008": 1.59970155153,
			"0.009": 1.58437719482,
			"0.01": 1.21272775442,
			"0.011": 2.25011164112,
			"0.012": 1.33225343389,
			"0.013": 0.00150598720258,
			"0.014": 0.0,
			"0.015": 0.0,
			"0.016": 0.0,
			"0.017": 0.0,
			"0.018": 0.0,
			"0.019": 0.0,
			"0.02": 0.0,
			"0.021": 0.0,
			"0.022": 0.0,
			"0.023": 0.0,
			"0.024": 0.0,
			"0.025": 0.0
		}
	}
}
