{
	 "smiles": "NC1=CC(=CC(=C1)C(=O)OCC1=CC=CC=C1)C(=O)OCC1=CC=CC=C1", 
	 "Tm": 390.15, 
	 "num_atms": 46, 
	 "gaussian": { 
		 "optdone": 1, 
		 "sigma_profile": "yes", 
		 "theory": "DFT", 
		 "functional": "B3LYP", 
		 "basiset": "6-31G**", 
		 "properties": { 
			 "R2extent": 16964.3531, 
			 "electric_dipole_moment_norm": 2.70672078538, 
			 "electric_quadrupole_moment_norm": 14.7778595784, 
			 "total_energy": -1205.4763271, 
			 "HOMO_LUMO_gap": 0.16234, 
			 "cosmo_polarized_energy": -18.27, 
			 "cosmo_cavitation_energy": 51.91, 
			 "cosmo_dispersion_energy": -36.42, 
			 "cosmo_repulsion_energy": 2.77, 
			 "cosmo_total_nonelectrostatic_energy": 18.27, 
			 "SMD_solvation_energy": 10.18 
		},
		"coords": [
			{
				"x": 2.766150289,
				"y": -2.9784902099,
				"z": 0.3449683272,
				"element": "N" 
			},
			{
				"x": 2.0347540533,
				"y": -1.8059162888,
				"z": 0.1644047589,
				"element": "C" 
			},
			{
				"x": 2.0023498415,
				"y": -1.1652336397,
				"z": -1.0828623592,
				"element": "C" 
			},
			{
				"x": 1.3135290249,
				"y": 0.040088099,
				"z": -1.2502155788,
				"element": "C" 
			},
			{
				"x": 0.6430720781,
				"y": 0.6309452581,
				"z": -0.1757797953,
				"element": "C" 
			},
			{
				"x": 0.6733561285,
				"y": -0.0027465534,
				"z": 1.0709259205,
				"element": "C" 
			},
			{
				"x": 1.3611224115,
				"y": -1.2084480813,
				"z": 1.242423318,
				"element": "C" 
			},
			{
				"x": -0.0555785333,
				"y": 0.6515413713,
				"z": 2.1975087678,
				"element": "C" 
			},
			{
				"x": -0.6910476753,
				"y": 1.6838242772,
				"z": 2.0876531814,
				"element": "O" 
			},
			{
				"x": 0.075699385,
				"y": -0.0301090147,
				"z": 3.3590094597,
				"element": "O" 
			},
			{
				"x": -0.5945999775,
				"y": 0.5251324095,
				"z": 4.5247529414,
				"element": "C" 
			},
			{
				"x": -1.9724735031,
				"y": -0.060310157,
				"z": 4.7122673769,
				"element": "C" 
			},
			{
				"x": -2.1635956142,
				"y": -1.1652904424,
				"z": 5.5507767446,
				"element": "C" 
			},
			{
				"x": -3.4341975918,
				"y": -1.7160561945,
				"z": 5.7234559276,
				"element": "C" 
			},
			{
				"x": -4.5287701538,
				"y": -1.1648993698,
				"z": 5.0550411497,
				"element": "C" 
			},
			{
				"x": -4.3475511889,
				"y": -0.0627189998,
				"z": 4.2159991033,
				"element": "C" 
			},
			{
				"x": -3.0775390096,
				"y": 0.4880923033,
				"z": 4.0453393817,
				"element": "C" 
			},
			{
				"x": 1.3262100431,
				"y": 0.6486584177,
				"z": -2.6140837991,
				"element": "C" 
			},
			{
				"x": 1.895652224,
				"y": 0.1558349218,
				"z": -3.5716456021,
				"element": "O" 
			},
			{
				"x": 0.6265567651,
				"y": 1.801502711,
				"z": -2.6654245626,
				"element": "O" 
			},
			{
				"x": 0.573963206,
				"y": 2.4816298308,
				"z": -3.9504719112,
				"element": "C" 
			},
			{
				"x": 1.6871297278,
				"y": 3.4890665343,
				"z": -4.0991297348,
				"element": "C" 
			},
			{
				"x": 2.9254419442,
				"y": 3.1108346941,
				"z": -4.6367619319,
				"element": "C" 
			},
			{
				"x": 3.9532851656,
				"y": 4.0453736508,
				"z": -4.764009258,
				"element": "C" 
			},
			{
				"x": 3.7556982202,
				"y": 5.3664613781,
				"z": -4.3557923446,
				"element": "C" 
			},
			{
				"x": 2.5257548707,
				"y": 5.7509540925,
				"z": -3.8184911281,
				"element": "C" 
			},
			{
				"x": 1.498266469,
				"y": 4.8155700738,
				"z": -3.6917980879,
				"element": "C" 
			},
			{
				"x": 2.9364030843,
				"y": -3.5168873485,
				"z": -0.4928349015,
				"element": "H" 
			},
			{
				"x": 2.4755418997,
				"y": -3.5575233388,
				"z": 1.120198036,
				"element": "H" 
			},
			{
				"x": 2.5122868345,
				"y": -1.5920134029,
				"z": -1.94113216,
				"element": "H" 
			},
			{
				"x": 0.1050127864,
				"y": 1.5621526719,
				"z": -0.2907608353,
				"element": "H" 
			},
			{
				"x": 1.371884984,
				"y": -1.6809271039,
				"z": 2.2187291373,
				"element": "H" 
			},
			{
				"x": 0.058141995,
				"y": 0.2632963012,
				"z": 5.3602278544,
				"element": "H" 
			},
			{
				"x": -0.6342964774,
				"y": 1.6100408214,
				"z": 4.4132401389,
				"element": "H" 
			},
			{
				"x": -1.3121804883,
				"y": -1.5938148112,
				"z": 6.0743439712,
				"element": "H" 
			},
			{
				"x": -3.5696118631,
				"y": -2.5709811115,
				"z": 6.3798876132,
				"element": "H" 
			},
			{
				"x": -5.5193240038,
				"y": -1.5902593673,
				"z": 5.1895014742,
				"element": "H" 
			},
			{
				"x": -5.1974762341,
				"y": 0.3705760926,
				"z": 3.6963677057,
				"element": "H" 
			},
			{
				"x": -2.9290146853,
				"y": 1.3399384951,
				"z": 3.3889884811,
				"element": "H" 
			},
			{
				"x": -0.401250578,
				"y": 2.9728485053,
				"z": -3.9508783633,
				"element": "H" 
			},
			{
				"x": 0.6094634285,
				"y": 1.7294215838,
				"z": -4.7404395841,
				"element": "H" 
			},
			{
				"x": 3.0765289034,
				"y": 2.0799210039,
				"z": -4.9414726708,
				"element": "H" 
			},
			{
				"x": 4.9085620638,
				"y": 3.7428903412,
				"z": -5.183698815,
				"element": "H" 
			},
			{
				"x": 4.5562771122,
				"y": 6.0937319704,
				"z": -4.4577865983,
				"element": "H" 
			},
			{
				"x": 2.3659547936,
				"y": 6.7774571866,
				"z": -3.5010194265,
				"element": "H" 
			},
			{
				"x": 0.5402578447,
				"y": 5.1164404385,
				"z": -3.2746213223,
				"element": "H" 
			}
		],
		 "valence_orbital": [ 
			{
				"type": "occ",
				"energy": -0.25155,
				"method": "rhf"
			},
			{
				"type": "occ",
				"energy": -0.24863,
				"method": "rhf"
			},
			{
				"type": "occ",
				"energy": -0.24817,
				"method": "rhf"
			},
			{
				"type": "occ",
				"energy": -0.24582,
				"method": "rhf"
			},
			{
				"type": "occ",
				"energy": -0.2139,
				"method": "rhf"
			},
			{
				"type": "unocc",
				"energy": -0.05156,
				"method": "rhf"
			},
			{
				"type": "unocc",
				"energy": -0.02754,
				"method": "rhf"
			},
			{
				"type": "unocc",
				"energy": -0.01054,
				"method": "rhf"
			},
			{
				"type": "unocc",
				"energy": -0.00773,
				"method": "rhf"
			},
			{
				"type": "unocc",
				"energy": -0.00252,
				"method": "rhf"
			}
		],
		"cosmo_sigma_profile": { 
			"-0.025": 0.0,
			"-0.024": 0.0,
			"-0.023": 0.0,
			"-0.022": 0.0,
			"-0.021": 0.0,
			"-0.02": 0.0,
			"-0.019": 0.0,
			"-0.018": 0.0,
			"-0.017": 0.0,
			"-0.016": 0.0,
			"-0.015": 0.0,
			"-0.014": 0.0184538876767,
			"-0.013": 1.94029569487,
			"-0.012": 3.21171097212,
			"-0.011": 2.82035836918,
			"-0.01": 3.63098257425,
			"-0.009": 3.10413975662,
			"-0.008": 3.04120127974,
			"-0.007": 6.00233411081,
			"-0.006": 21.6308227386,
			"-0.005": 28.1721677376,
			"-0.004": 31.5800168226,
			"-0.003": 31.0427113724,
			"-0.002": 29.162436425,
			"-0.001": 24.7234848518,
			"0.0": 25.5712273074,
			"0.001": 31.8283550697,
			"0.002": 35.967763612,
			"0.003": 37.3245800239,
			"0.004": 26.3849067102,
			"0.005": 30.0885798227,
			"0.006": 11.8284026877,
			"0.007": 3.54626272448,
			"0.008": 4.20342513335,
			"0.009": 3.32620630153,
			"0.01": 4.11577658217,
			"0.011": 5.7243853666,
			"0.012": 4.28051013862,
			"0.013": 0.661164300044,
			"0.014": 0.171243945542,
			"0.015": 0.0,
			"0.016": 0.0,
			"0.017": 0.0,
			"0.018": 0.0,
			"0.019": 0.0,
			"0.02": 0.0,
			"0.021": 0.0,
			"0.022": 0.0,
			"0.023": 0.0,
			"0.024": 0.0,
			"0.025": 0.0
		}
	}
}
