{
	 "smiles": "OCC1=NC=CS1", 
	 "Tm": 336.15, 
	 "num_atms": 12, 
	 "gaussian": { 
		 "optdone": 1, 
		 "sigma_profile": "yes", 
		 "theory": "DFT", 
		 "functional": "B3LYP", 
		 "basiset": "6-31G**", 
		 "properties": { 
			 "R2extent": 2026.6985, 
			 "electric_dipole_moment_norm": 2.76964026184, 
			 "electric_quadrupole_moment_norm": 6.23309471932, 
			 "total_energy": -683.57563434, 
			 "HOMO_LUMO_gap": 0.21569, 
			 "cosmo_polarized_energy": -7.12, 
			 "cosmo_cavitation_energy": 17.36, 
			 "cosmo_dispersion_energy": -13.96, 
			 "cosmo_repulsion_energy": 1.13, 
			 "cosmo_total_nonelectrostatic_energy": 4.53, 
			 "SMD_solvation_energy": 2.1 
		},
		"coords": [
			{
				"x": 1.9308847223,
				"y": 3.1990177714,
				"z": -0.9906265208,
				"element": "O" 
			},
			{
				"x": 0.5941102908,
				"y": 3.4890803474,
				"z": -1.3147343237,
				"element": "C" 
			},
			{
				"x": -0.2802285139,
				"y": 2.2662919729,
				"z": -1.1631703323,
				"element": "C" 
			},
			{
				"x": 0.1514865107,
				"y": 1.1986724086,
				"z": -0.5560695582,
				"element": "N" 
			},
			{
				"x": -0.8202268566,
				"y": 0.2224355391,
				"z": -0.5009745004,
				"element": "C" 
			},
			{
				"x": -2.0148794414,
				"y": 0.5465661678,
				"z": -1.0698596531,
				"element": "C" 
			},
			{
				"x": -1.9385699761,
				"y": 2.1570337947,
				"z": -1.7214910221,
				"element": "S" 
			},
			{
				"x": 1.9151133258,
				"y": 2.3585503283,
				"z": -0.504006657,
				"element": "H" 
			},
			{
				"x": 0.5437922059,
				"y": 3.8606084452,
				"z": -2.3474462925,
				"element": "H" 
			},
			{
				"x": 0.1919277484,
				"y": 4.2898511171,
				"z": -0.6700097904,
				"element": "H" 
			},
			{
				"x": -0.594532685,
				"y": -0.724235213,
				"z": -0.0248604434,
				"element": "H" 
			},
			{
				"x": -2.9124773308,
				"y": -0.0495726795,
				"z": -1.1496509061,
				"element": "H" 
			}
		],
		 "valence_orbital": [ 
			{
				"type": "occ",
				"energy": -0.33874,
				"method": "rhf"
			},
			{
				"type": "occ",
				"energy": -0.29445,
				"method": "rhf"
			},
			{
				"type": "occ",
				"energy": -0.2922,
				"method": "rhf"
			},
			{
				"type": "occ",
				"energy": -0.27273,
				"method": "rhf"
			},
			{
				"type": "occ",
				"energy": -0.24877,
				"method": "rhf"
			},
			{
				"type": "unocc",
				"energy": -0.03308,
				"method": "rhf"
			},
			{
				"type": "unocc",
				"energy": 0.00888,
				"method": "rhf"
			},
			{
				"type": "unocc",
				"energy": 0.04212,
				"method": "rhf"
			},
			{
				"type": "unocc",
				"energy": 0.08177,
				"method": "rhf"
			},
			{
				"type": "unocc",
				"energy": 0.11062,
				"method": "rhf"
			}
		],
		"cosmo_sigma_profile": { 
			"-0.025": 0.0,
			"-0.024": 0.0,
			"-0.023": 0.0,
			"-0.022": 0.0,
			"-0.021": 0.0,
			"-0.02": 0.0,
			"-0.019": 0.0,
			"-0.018": 0.0,
			"-0.017": 0.0,
			"-0.016": 0.0,
			"-0.015": 0.0,
			"-0.014": 0.0,
			"-0.013": 0.0,
			"-0.012": 0.0,
			"-0.011": 0.031714983171,
			"-0.01": 0.697292134475,
			"-0.009": 2.59925657633,
			"-0.008": 3.01828968315,
			"-0.007": 6.52000447525,
			"-0.006": 10.3170509613,
			"-0.005": 10.8211542123,
			"-0.004": 7.92168964095,
			"-0.003": 8.57549330521,
			"-0.002": 7.36253363604,
			"-0.001": 7.44639587891,
			"0.0": 10.700414309,
			"0.001": 11.633404825,
			"0.002": 13.8195181396,
			"0.003": 11.6357525179,
			"0.004": 6.38326369763,
			"0.005": 3.1737450952,
			"0.006": 2.34735457656,
			"0.007": 1.82983605439,
			"0.008": 3.95061276333,
			"0.009": 1.92380252006,
			"0.01": 0.986067070777,
			"0.011": 1.34966523219,
			"0.012": 1.8238378869,
			"0.013": 2.0499085409,
			"0.014": 1.97505726156,
			"0.015": 0.0759822018816,
			"0.016": 0.0,
			"0.017": 0.0,
			"0.018": 0.0,
			"0.019": 0.0,
			"0.02": 0.0,
			"0.021": 0.0,
			"0.022": 0.0,
			"0.023": 0.0,
			"0.024": 0.0,
			"0.025": 0.0
		}
	}
}
