{
	 "smiles": "CC1=C(C)N=C(S1)S(=O)(=O)OC1=C(F)C(F)=C(F)C(F)=C1F", 
	 "Tm": 372.15, 
	 "num_atms": 28, 
	 "gaussian": { 
		 "optdone": 1, 
		 "sigma_profile": "yes", 
		 "theory": "DFT", 
		 "functional": "B3LYP", 
		 "basiset": "6-31G**", 
		 "properties": { 
			 "R2extent": 9996.7743, 
			 "electric_dipole_moment_norm": 6.02237813824, 
			 "electric_quadrupole_moment_norm": 18.6077447715, 
			 "total_energy": -1998.6222895, 
			 "HOMO_LUMO_gap": 0.18501, 
			 "cosmo_polarized_energy": -11.31, 
			 "cosmo_cavitation_energy": 39.33, 
			 "cosmo_dispersion_energy": -27.19, 
			 "cosmo_repulsion_energy": 1.9, 
			 "cosmo_total_nonelectrostatic_energy": 14.04, 
			 "SMD_solvation_energy": 7.08 
		},
		"coords": [
			{
				"x": 1.8463860081,
				"y": 2.637116663,
				"z": -2.7905658397,
				"element": "C" 
			},
			{
				"x": 1.5827736565,
				"y": 1.3134016787,
				"z": -2.1365832832,
				"element": "C" 
			},
			{
				"x": 0.3878586762,
				"y": 0.7579163023,
				"z": -1.7224934182,
				"element": "C" 
			},
			{
				"x": -0.9799141194,
				"y": 1.3705893295,
				"z": -1.8123008883,
				"element": "C" 
			},
			{
				"x": 0.4946521278,
				"y": -0.4974379239,
				"z": -1.1653760466,
				"element": "N" 
			},
			{
				"x": 1.7264559568,
				"y": -0.893839844,
				"z": -1.1513153497,
				"element": "C" 
			},
			{
				"x": 2.896858843,
				"y": 0.2139238711,
				"z": -1.8083472179,
				"element": "S" 
			},
			{
				"x": 2.2133542308,
				"y": -2.4567574809,
				"z": -0.4467939266,
				"element": "S" 
			},
			{
				"x": 1.1913793891,
				"y": -3.4552935768,
				"z": -0.7063632515,
				"element": "O" 
			},
			{
				"x": 3.6241971071,
				"y": -2.6463000653,
				"z": -0.7329959021,
				"element": "O" 
			},
			{
				"x": 2.1850011835,
				"y": -2.0860634571,
				"z": 1.2069688232,
				"element": "O" 
			},
			{
				"x": 1.0276695118,
				"y": -2.332424117,
				"z": 1.9109455344,
				"element": "C" 
			},
			{
				"x": 0.1758947081,
				"y": -1.2776167647,
				"z": 2.2512930655,
				"element": "C" 
			},
			{
				"x": 0.4428476387,
				"y": -0.0367007002,
				"z": 1.8359530029,
				"element": "F" 
			},
			{
				"x": -0.9526183729,
				"y": -1.5067587845,
				"z": 3.0336476849,
				"element": "C" 
			},
			{
				"x": -1.7631513073,
				"y": -0.4938576105,
				"z": 3.3580046632,
				"element": "F" 
			},
			{
				"x": -1.2372859924,
				"y": -2.7959994596,
				"z": 3.4803158752,
				"element": "C" 
			},
			{
				"x": -2.3198713137,
				"y": -3.0166837615,
				"z": 4.2290298314,
				"element": "F" 
			},
			{
				"x": -0.3929362071,
				"y": -3.8544771135,
				"z": 3.1489078023,
				"element": "C" 
			},
			{
				"x": -0.6674806282,
				"y": -5.0867672564,
				"z": 3.5854158159,
				"element": "F" 
			},
			{
				"x": 0.7380846383,
				"y": -3.6206512757,
				"z": 2.3709312244,
				"element": "C" 
			},
			{
				"x": 1.5494601157,
				"y": -4.6332563676,
				"z": 2.0696896932,
				"element": "F" 
			},
			{
				"x": 2.5261415069,
				"y": 3.2533244992,
				"z": -2.1924964041,
				"element": "H" 
			},
			{
				"x": 2.2963344611,
				"y": 2.5134664345,
				"z": -3.7814993535,
				"element": "H" 
			},
			{
				"x": 0.9152278014,
				"y": 3.1931015477,
				"z": -2.9150654064,
				"element": "H" 
			},
			{
				"x": -0.9574942059,
				"y": 2.3673994276,
				"z": -2.255640044,
				"element": "H" 
			},
			{
				"x": -1.6411568832,
				"y": 0.740340522,
				"z": -2.4155039004,
				"element": "H" 
			},
			{
				"x": -1.4229685309,
				"y": 1.4475052838,
				"z": -0.8142627841,
				"element": "H" 
			}
		],
		 "valence_orbital": [ 
			{
				"type": "occ",
				"energy": -0.30643,
				"method": "rhf"
			},
			{
				"type": "occ",
				"energy": -0.30561,
				"method": "rhf"
			},
			{
				"type": "occ",
				"energy": -0.26803,
				"method": "rhf"
			},
			{
				"type": "occ",
				"energy": -0.26291,
				"method": "rhf"
			},
			{
				"type": "occ",
				"energy": -0.26146,
				"method": "rhf"
			},
			{
				"type": "unocc",
				"energy": -0.07645,
				"method": "rhf"
			},
			{
				"type": "unocc",
				"energy": -0.0372,
				"method": "rhf"
			},
			{
				"type": "unocc",
				"energy": -0.0222,
				"method": "rhf"
			},
			{
				"type": "unocc",
				"energy": -0.01074,
				"method": "rhf"
			},
			{
				"type": "unocc",
				"energy": -0.00415,
				"method": "rhf"
			}
		],
		"cosmo_sigma_profile": { 
			"-0.025": 0.0,
			"-0.024": 0.0,
			"-0.023": 0.0,
			"-0.022": 0.0,
			"-0.021": 0.0,
			"-0.02": 0.0,
			"-0.019": 0.0,
			"-0.018": 0.0,
			"-0.017": 0.0,
			"-0.016": 0.0,
			"-0.015": 0.0,
			"-0.014": 0.0,
			"-0.013": 0.0,
			"-0.012": 0.0,
			"-0.011": 0.0,
			"-0.01": 0.0,
			"-0.009": 0.0,
			"-0.008": 0.578707660369,
			"-0.007": 3.37029589397,
			"-0.006": 13.0948873913,
			"-0.005": 19.4854430956,
			"-0.004": 29.9861615373,
			"-0.003": 25.1891675685,
			"-0.002": 28.514340698,
			"-0.001": 30.5044663504,
			"0.0": 26.7468129187,
			"0.001": 27.5150675078,
			"0.002": 53.3967484145,
			"0.003": 17.0671823943,
			"0.004": 6.4962677804,
			"0.005": 6.41274812517,
			"0.006": 6.13128366938,
			"0.007": 6.99976291556,
			"0.008": 11.42793138,
			"0.009": 5.59493225992,
			"0.01": 0.590371441627,
			"0.011": 0.701950789019,
			"0.012": 0.0958779841165,
			"0.013": 0.0,
			"0.014": 0.0,
			"0.015": 0.0,
			"0.016": 0.0,
			"0.017": 0.0,
			"0.018": 0.0,
			"0.019": 0.0,
			"0.02": 0.0,
			"0.021": 0.0,
			"0.022": 0.0,
			"0.023": 0.0,
			"0.024": 0.0,
			"0.025": 0.0
		}
	}
}
