{
	 "smiles": "CC1=NC(C)=C(Cl)C(N)=N1", 
	 "Tm": 438.15, 
	 "num_atms": 18, 
	 "gaussian": { 
		 "optdone": 1, 
		 "sigma_profile": "yes", 
		 "theory": "DFT", 
		 "functional": "B3LYP", 
		 "basiset": "6-31G**", 
		 "properties": { 
			 "R2extent": 2100.4663, 
			 "electric_dipole_moment_norm": 1.83220592183, 
			 "electric_quadrupole_moment_norm": 5.70413347056, 
			 "total_energy": -857.935552374, 
			 "HOMO_LUMO_gap": 0.20816, 
			 "cosmo_polarized_energy": -8.72, 
			 "cosmo_cavitation_energy": 23.37, 
			 "cosmo_dispersion_energy": -17.71, 
			 "cosmo_repulsion_energy": 1.46, 
			 "cosmo_total_nonelectrostatic_energy": 7.12, 
			 "SMD_solvation_energy": 1.25 
		},
		"coords": [
			{
				"x": 1.0205580344,
				"y": 2.8493893353,
				"z": 1.9667123643,
				"element": "C" 
			},
			{
				"x": 0.4751515271,
				"y": 1.5020489963,
				"z": 1.5719276255,
				"element": "C" 
			},
			{
				"x": -0.8558992347,
				"y": 1.3651816141,
				"z": 1.5381582505,
				"element": "N" 
			},
			{
				"x": -1.3460173152,
				"y": 0.1584550278,
				"z": 1.1867969272,
				"element": "C" 
			},
			{
				"x": -2.8420882798,
				"y": 0.012083915,
				"z": 1.1449219391,
				"element": "C" 
			},
			{
				"x": -0.4833603534,
				"y": -0.8874767963,
				"z": 0.8806648376,
				"element": "C" 
			},
			{
				"x": -1.0857081143,
				"y": -2.4753086973,
				"z": 0.4133961795,
				"element": "Cl" 
			},
			{
				"x": 0.9087993244,
				"y": -0.6577424957,
				"z": 0.9449402923,
				"element": "C" 
			},
			{
				"x": 1.824953907,
				"y": -1.6299551803,
				"z": 0.6930944702,
				"element": "N" 
			},
			{
				"x": 1.3751508615,
				"y": 0.552549004,
				"z": 1.2892630673,
				"element": "N" 
			},
			{
				"x": 0.2054731869,
				"y": 3.5593410797,
				"z": 2.1088432575,
				"element": "H" 
			},
			{
				"x": 1.5948417627,
				"y": 2.7674041085,
				"z": 2.8957509423,
				"element": "H" 
			},
			{
				"x": 1.7058624975,
				"y": 3.2225573195,
				"z": 1.1993225406,
				"element": "H" 
			},
			{
				"x": -3.1826131957,
				"y": -0.2762352331,
				"z": 0.1446441371,
				"element": "H" 
			},
			{
				"x": -3.2990810874,
				"y": 0.9622187579,
				"z": 1.42242791,
				"element": "H" 
			},
			{
				"x": -3.1814000894,
				"y": -0.7689718185,
				"z": 1.8337062098,
				"element": "H" 
			},
			{
				"x": 1.5417478233,
				"y": -2.4876890975,
				"z": 0.2489101289,
				"element": "H" 
			},
			{
				"x": 2.7857287452,
				"y": -1.3348498393,
				"z": 0.6195189203,
				"element": "H" 
			}
		],
		 "valence_orbital": [ 
			{
				"type": "occ",
				"energy": -0.33324,
				"method": "rhf"
			},
			{
				"type": "occ",
				"energy": -0.29865,
				"method": "rhf"
			},
			{
				"type": "occ",
				"energy": -0.27108,
				"method": "rhf"
			},
			{
				"type": "occ",
				"energy": -0.24386,
				"method": "rhf"
			},
			{
				"type": "occ",
				"energy": -0.23183,
				"method": "rhf"
			},
			{
				"type": "unocc",
				"energy": -0.02367,
				"method": "rhf"
			},
			{
				"type": "unocc",
				"energy": -0.00339,
				"method": "rhf"
			},
			{
				"type": "unocc",
				"energy": 0.02895,
				"method": "rhf"
			},
			{
				"type": "unocc",
				"energy": 0.08478,
				"method": "rhf"
			},
			{
				"type": "unocc",
				"energy": 0.12604,
				"method": "rhf"
			}
		],
		"cosmo_sigma_profile": { 
			"-0.025": 0.0,
			"-0.024": 0.0,
			"-0.023": 0.0,
			"-0.022": 0.0,
			"-0.021": 0.0,
			"-0.02": 0.0,
			"-0.019": 0.0,
			"-0.018": 0.0,
			"-0.017": 0.0,
			"-0.016": 0.0,
			"-0.015": 0.0345451881351,
			"-0.014": 0.991073765865,
			"-0.013": 1.912029478,
			"-0.012": 2.0351282093,
			"-0.011": 1.70976780049,
			"-0.01": 1.70334852835,
			"-0.009": 2.1264051596,
			"-0.008": 1.77057141795,
			"-0.007": 1.79685690592,
			"-0.006": 1.69401953862,
			"-0.005": 7.56055643138,
			"-0.004": 12.2164933333,
			"-0.003": 12.1162359336,
			"-0.002": 16.2796014537,
			"-0.001": 22.0657871689,
			"0.0": 27.1814153606,
			"0.001": 15.3489987735,
			"0.002": 12.9112740219,
			"0.003": 10.5025829016,
			"0.004": 8.8466112955,
			"0.005": 6.30663309103,
			"0.006": 3.62080662341,
			"0.007": 2.535577417,
			"0.008": 2.33249643197,
			"0.009": 3.19880001282,
			"0.01": 1.87561032466,
			"0.011": 1.69808447562,
			"0.012": 1.50936587914,
			"0.013": 1.31517887884,
			"0.014": 1.59664687495,
			"0.015": 0.659381562994,
			"0.016": 0.0124612003381,
			"0.017": 0.0,
			"0.018": 0.0,
			"0.019": 0.0,
			"0.02": 0.0,
			"0.021": 0.0,
			"0.022": 0.0,
			"0.023": 0.0,
			"0.024": 0.0,
			"0.025": 0.0
		}
	}
}
