{
	 "smiles": "ClS(=O)(=O)C1C2=C(C=CC=C2)C2=C1C=CC=C2", 
	 "Tm": 358.15, 
	 "num_atms": 26, 
	 "gaussian": { 
		 "optdone": 1, 
		 "sigma_profile": "yes", 
		 "theory": "DFT", 
		 "functional": "B3LYP", 
		 "basiset": "6-31G**", 
		 "properties": { 
			 "R2extent": 5230.6547, 
			 "electric_dipole_moment_norm": 4.79063471578, 
			 "electric_quadrupole_moment_norm": 19.8741352984, 
			 "total_energy": -1509.5848895, 
			 "HOMO_LUMO_gap": 0.14847, 
			 "cosmo_polarized_energy": -10.62, 
			 "cosmo_cavitation_energy": 32.72, 
			 "cosmo_dispersion_energy": -23.76, 
			 "cosmo_repulsion_energy": 1.77, 
			 "cosmo_total_nonelectrostatic_energy": 10.72, 
			 "SMD_solvation_energy": 3.71 
		},
		"coords": [
			{
				"x": -0.4255325609,
				"y": 1.1181886699,
				"z": -3.4174339466,
				"element": "Cl" 
			},
			{
				"x": -0.1308345928,
				"y": 2.8581815916,
				"z": -2.2348924123,
				"element": "S" 
			},
			{
				"x": 1.2048489037,
				"y": 3.3667895944,
				"z": -2.5343697914,
				"element": "O" 
			},
			{
				"x": -1.3082248406,
				"y": 3.7049362317,
				"z": -2.4056662015,
				"element": "O" 
			},
			{
				"x": -0.1345499543,
				"y": 2.1731505136,
				"z": -0.5100741721,
				"element": "C" 
			},
			{
				"x": -1.4161602155,
				"y": 1.4639736992,
				"z": -0.1401109569,
				"element": "C" 
			},
			{
				"x": -1.1085597115,
				"y": 0.1590653744,
				"z": 0.2983930126,
				"element": "C" 
			},
			{
				"x": -2.1263116889,
				"y": -0.6917771367,
				"z": 0.7263287397,
				"element": "C" 
			},
			{
				"x": -3.444812747,
				"y": -0.2274439611,
				"z": 0.7042581891,
				"element": "C" 
			},
			{
				"x": -3.7433114771,
				"y": 1.0666989115,
				"z": 0.266701186,
				"element": "C" 
			},
			{
				"x": -2.7259579065,
				"y": 1.9286586047,
				"z": -0.1590547317,
				"element": "C" 
			},
			{
				"x": 0.3466217971,
				"y": -0.0381522316,
				"z": 0.2230797617,
				"element": "C" 
			},
			{
				"x": 0.9435136288,
				"y": 1.1442253859,
				"z": -0.2620999365,
				"element": "C" 
			},
			{
				"x": 2.3207424897,
				"y": 1.2447308054,
				"z": -0.42014993,
				"element": "C" 
			},
			{
				"x": 3.110471196,
				"y": 0.1377690758,
				"z": -0.088152707,
				"element": "C" 
			},
			{
				"x": 2.525073108,
				"y": -1.0366485091,
				"z": 0.394967508,
				"element": "C" 
			},
			{
				"x": 1.1399029302,
				"y": -1.1345264114,
				"z": 0.5570534913,
				"element": "C" 
			},
			{
				"x": 0.0209102612,
				"y": 3.1101022591,
				"z": 0.0411118154,
				"element": "H" 
			},
			{
				"x": -1.9040078354,
				"y": -1.6971382489,
				"z": 1.0716951462,
				"element": "H" 
			},
			{
				"x": -4.2479368878,
				"y": -0.8806050951,
				"z": 1.0328773679,
				"element": "H" 
			},
			{
				"x": -4.7739431635,
				"y": 1.407600166,
				"z": 0.2554113935,
				"element": "H" 
			},
			{
				"x": -2.9561794604,
				"y": 2.9277200639,
				"z": -0.5132081274,
				"element": "H" 
			},
			{
				"x": 2.7708467573,
				"y": 2.1516670007,
				"z": -0.8092790347,
				"element": "H" 
			},
			{
				"x": 4.1879649193,
				"y": 0.1929387039,
				"z": -0.2085922515,
				"element": "H" 
			},
			{
				"x": 3.1549834189,
				"y": -1.8841049241,
				"z": 0.649230052,
				"element": "H" 
			},
			{
				"x": 0.6948436319,
				"y": -2.0495001335,
				"z": 0.9367765361,
				"element": "H" 
			}
		],
		 "valence_orbital": [ 
			{
				"type": "occ",
				"energy": -0.3106,
				"method": "rhf"
			},
			{
				"type": "occ",
				"energy": -0.29746,
				"method": "rhf"
			},
			{
				"type": "occ",
				"energy": -0.26758,
				"method": "rhf"
			},
			{
				"type": "occ",
				"energy": -0.26511,
				"method": "rhf"
			},
			{
				"type": "occ",
				"energy": -0.23428,
				"method": "rhf"
			},
			{
				"type": "unocc",
				"energy": -0.08581,
				"method": "rhf"
			},
			{
				"type": "unocc",
				"energy": -0.04811,
				"method": "rhf"
			},
			{
				"type": "unocc",
				"energy": -0.03497,
				"method": "rhf"
			},
			{
				"type": "unocc",
				"energy": -0.012,
				"method": "rhf"
			},
			{
				"type": "unocc",
				"energy": 0.02324,
				"method": "rhf"
			}
		],
		"cosmo_sigma_profile": { 
			"-0.025": 0.0,
			"-0.024": 0.0,
			"-0.023": 0.0,
			"-0.022": 0.0,
			"-0.021": 0.0,
			"-0.02": 0.0,
			"-0.019": 0.0,
			"-0.018": 0.0,
			"-0.017": 0.0,
			"-0.016": 0.0,
			"-0.015": 0.0,
			"-0.014": 0.0,
			"-0.013": 0.518936170956,
			"-0.012": 1.40831088573,
			"-0.011": 1.92352502542,
			"-0.01": 1.6056772217,
			"-0.009": 1.34174657626,
			"-0.008": 1.45892838987,
			"-0.007": 6.91911874223,
			"-0.006": 17.5393583843,
			"-0.005": 17.9965754652,
			"-0.004": 20.2410383662,
			"-0.003": 12.1960868333,
			"-0.002": 13.453224184,
			"-0.001": 14.5744196145,
			"0.0": 16.8652130795,
			"0.001": 19.8951615273,
			"0.002": 27.6892368242,
			"0.003": 37.0523803645,
			"0.004": 25.0650806007,
			"0.005": 5.56041229133,
			"0.006": 4.13805548992,
			"0.007": 4.61595353451,
			"0.008": 7.81655946481,
			"0.009": 5.77259037247,
			"0.01": 0.118241652999,
			"0.011": 0.0,
			"0.012": 0.0,
			"0.013": 0.0,
			"0.014": 0.0,
			"0.015": 0.0,
			"0.016": 0.0,
			"0.017": 0.0,
			"0.018": 0.0,
			"0.019": 0.0,
			"0.02": 0.0,
			"0.021": 0.0,
			"0.022": 0.0,
			"0.023": 0.0,
			"0.024": 0.0,
			"0.025": 0.0
		}
	}
}
