{
	 "smiles": "CCCCNC(=O)OC#CCI", 
	 "Tm": 339.15, 
	 "num_atms": 24, 
	 "gaussian": { 
		 "optdone": 1, 
		 "sigma_profile": "no", 
		 "theory": "DFT", 
		 "functional": "B3LYP", 
		 "basiset": "6-31G**", 
		 "properties": { 
			 "R2extent": 4710.1418, 
			 "electric_dipole_moment_norm": 5.18791270647, 
			 "electric_quadrupole_moment_norm": 15.715293786, 
			 "total_energy": -528.617265009, 
			 "HOMO_LUMO_gap": 0.1832, 
			 "cosmo_polarized_energy": -122213.24, 
			 "cosmo_cavitation_energy": 32.93, 
			 "cosmo_dispersion_energy": -24.81, 
			 "cosmo_repulsion_energy": 2.05, 
			 "cosmo_total_nonelectrostatic_energy": 10.18, 
			 "SMD_solvation_energy": 6.36 
		},
		"coords": [
			{
				"x": -4.4831664157,
				"y": -0.0241222545,
				"z": -2.3906128251,
				"element": "C" 
			},
			{
				"x": -3.5220950068,
				"y": -0.8529573805,
				"z": -1.532683867,
				"element": "C" 
			},
			{
				"x": -2.110720259,
				"y": -0.2554763468,
				"z": -1.4692310665,
				"element": "C" 
			},
			{
				"x": -1.158865922,
				"y": -1.0928701921,
				"z": -0.6060611922,
				"element": "C" 
			},
			{
				"x": 0.1956923354,
				"y": -0.5520103942,
				"z": -0.5409705109,
				"element": "N" 
			},
			{
				"x": 0.586609521,
				"y": 0.2593837715,
				"z": 0.4628764874,
				"element": "C" 
			},
			{
				"x": -0.0068833967,
				"y": 0.5823838108,
				"z": 1.4588247322,
				"element": "O" 
			},
			{
				"x": 1.9135544916,
				"y": 0.6961881853,
				"z": 0.1671669775,
				"element": "O" 
			},
			{
				"x": 2.4755150992,
				"y": 1.5171011466,
				"z": 1.0189629556,
				"element": "C" 
			},
			{
				"x": 3.0677203992,
				"y": 2.2684359833,
				"z": 1.7565204596,
				"element": "C" 
			},
			{
				"x": 3.7474303672,
				"y": 3.1676570585,
				"z": 2.6391536012,
				"element": "C" 
			},
			{
				"x": 3.64427112,
				"y": 5.3107223884,
				"z": 1.9953486466,
				"element": "I" 
			},
			{
				"x": -4.5857473436,
				"y": 0.9936965298,
				"z": -1.9985461238,
				"element": "H" 
			},
			{
				"x": -4.1264459813,
				"y": 0.0534271917,
				"z": -3.4238629425,
				"element": "H" 
			},
			{
				"x": -5.4809338353,
				"y": -0.4732819423,
				"z": -2.4160012592,
				"element": "H" 
			},
			{
				"x": -3.467169931,
				"y": -1.8764744967,
				"z": -1.9283426533,
				"element": "H" 
			},
			{
				"x": -3.9229679675,
				"y": -0.9409966266,
				"z": -0.5141475701,
				"element": "H" 
			},
			{
				"x": -2.1530842474,
				"y": 0.7614271545,
				"z": -1.0596592478,
				"element": "H" 
			},
			{
				"x": -1.7004044442,
				"y": -0.168423026,
				"z": -2.4849509509,
				"element": "H" 
			},
			{
				"x": -1.0955925984,
				"y": -2.1182836549,
				"z": -0.9879822773,
				"element": "H" 
			},
			{
				"x": -1.5260425347,
				"y": -1.1466405966,
				"z": 0.421923427,
				"element": "H" 
			},
			{
				"x": 0.8107130377,
				"y": -0.6364131929,
				"z": -1.3371165701,
				"element": "H" 
			},
			{
				"x": 4.8196339011,
				"y": 2.986144078,
				"z": 2.6993042717,
				"element": "H" 
			},
			{
				"x": 3.3130796111,
				"y": 3.1918828055,
				"z": 3.6376874977,
				"element": "H" 
			}
		],
		 "valence_orbital": [ 
			{
				"type": "occ",
				"energy": -0.28017,
				"method": "rhf"
			},
			{
				"type": "occ",
				"energy": -0.26846,
				"method": "rhf"
			},
			{
				"type": "occ",
				"energy": -0.25787,
				"method": "rhf"
			},
			{
				"type": "occ",
				"energy": -0.25029,
				"method": "rhf"
			},
			{
				"type": "occ",
				"energy": -0.24185,
				"method": "rhf"
			},
			{
				"type": "unocc",
				"energy": -0.05865,
				"method": "rhf"
			},
			{
				"type": "unocc",
				"energy": 0.02376,
				"method": "rhf"
			},
			{
				"type": "unocc",
				"energy": 0.04223,
				"method": "rhf"
			},
			{
				"type": "unocc",
				"energy": 0.04621,
				"method": "rhf"
			},
			{
				"type": "unocc",
				"energy": 0.05346,
				"method": "rhf"
			}
		],
		"cosmo_sigma_profile": { 
			"0.0": 0.0,
			"0.0": 0.0,
			"0.0": 0.0,
			"0.0": 0.0,
			"0.0": 0.0,
			"0.0": 0.0,
			"0.0": 0.0,
			"0.0": 0.0,
			"0.0": 0.0,
			"0.0": 0.0,
			"0.0": 0.0,
			"0.0": 0.0,
			"0.0": 0.0,
			"0.0": 0.0,
			"0.0": 0.0,
			"0.0": 0.0,
			"0.0": 0.0,
			"0.0": 0.0,
			"0.0": 0.0,
			"0.0": 0.0,
			"0.0": 0.0,
			"0.0": 0.0,
			"0.0": 0.0,
			"0.0": 0.0,
			"0.0": 0.0,
			"0.0": 0.0,
			"0.0": 0.0,
			"0.0": 0.0,
			"0.0": 0.0,
			"0.0": 0.0,
			"0.0": 0.0,
			"0.0": 0.0,
			"0.0": 0.0,
			"0.0": 0.0,
			"0.0": 0.0,
			"0.0": 0.0,
			"0.0": 0.0,
			"0.0": 0.0,
			"0.0": 0.0,
			"0.0": 0.0,
			"0.0": 0.0,
			"0.0": 0.0,
			"0.0": 0.0,
			"0.0": 0.0,
			"0.0": 0.0,
			"0.0": 0.0,
			"0.0": 0.0,
			"0.0": 0.0,
			"0.0": 0.0,
			"0.0": 0.0,
			"0.0": 0.0
		}
	}
}
