{
	 "smiles": "CCOC1=CC(Cl)=C(N)C(Cl)=C1", 
	 "Tm": 319.15, 
	 "num_atms": 21, 
	 "gaussian": { 
		 "optdone": 1, 
		 "sigma_profile": "yes", 
		 "theory": "DFT", 
		 "functional": "B3LYP", 
		 "basiset": "6-31G**", 
		 "properties": { 
			 "R2extent": 3674.9627, 
			 "electric_dipole_moment_norm": 1.99231626254, 
			 "electric_quadrupole_moment_norm": 11.4241714649, 
			 "total_energy": -1360.63278156, 
			 "HOMO_LUMO_gap": 0.1804, 
			 "cosmo_polarized_energy": -7.7, 
			 "cosmo_cavitation_energy": 27.73, 
			 "cosmo_dispersion_energy": -20.9, 
			 "cosmo_repulsion_energy": 1.69, 
			 "cosmo_total_nonelectrostatic_energy": 8.52, 
			 "SMD_solvation_energy": 4.46 
		},
		"coords": [
			{
				"x": -1.3707964663,
				"y": 2.301158565,
				"z": 2.1331513902,
				"element": "C" 
			},
			{
				"x": -2.0188256842,
				"y": 1.3640736612,
				"z": 1.1186325577,
				"element": "C" 
			},
			{
				"x": -1.4124080595,
				"y": 1.4449210972,
				"z": -0.1735307397,
				"element": "O" 
			},
			{
				"x": -0.2419611972,
				"y": 0.7819878931,
				"z": -0.4160037456,
				"element": "C" 
			},
			{
				"x": 0.4202354526,
				"y": -0.0520244908,
				"z": 0.4884055514,
				"element": "C" 
			},
			{
				"x": 1.5981969458,
				"y": -0.6885966457,
				"z": 0.0974052267,
				"element": "C" 
			},
			{
				"x": 2.412316128,
				"y": -1.7226208454,
				"z": 1.271996625,
				"element": "Cl" 
			},
			{
				"x": 2.1748148587,
				"y": -0.5431679513,
				"z": -1.1757264381,
				"element": "C" 
			},
			{
				"x": 3.3106634477,
				"y": -1.2327260357,
				"z": -1.5672076153,
				"element": "N" 
			},
			{
				"x": 1.4734270794,
				"y": 0.3168632724,
				"z": -2.0487632407,
				"element": "C" 
			},
			{
				"x": 2.1268346552,
				"y": 0.582413863,
				"z": -3.663770244,
				"element": "Cl" 
			},
			{
				"x": 0.3012675435,
				"y": 0.9658727941,
				"z": -1.6938511781,
				"element": "C" 
			},
			{
				"x": -1.4043541151,
				"y": 3.3322570277,
				"z": 1.7701483824,
				"element": "H" 
			},
			{
				"x": -1.9100250994,
				"y": 2.2524849393,
				"z": 3.0851062573,
				"element": "H" 
			},
			{
				"x": -0.325710256,
				"y": 2.0397655058,
				"z": 2.319926741,
				"element": "H" 
			},
			{
				"x": -2.0238501932,
				"y": 0.3248440019,
				"z": 1.4725372311,
				"element": "H" 
			},
			{
				"x": -3.0593577125,
				"y": 1.6533199127,
				"z": 0.9469585147,
				"element": "H" 
			},
			{
				"x": 0.0507235173,
				"y": -0.2204321967,
				"z": 1.490731654,
				"element": "H" 
			},
			{
				"x": 3.9025740374,
				"y": -1.5475757691,
				"z": -0.811831907,
				"element": "H" 
			},
			{
				"x": 3.8159622002,
				"y": -0.8223375066,
				"z": -2.3394869855,
				"element": "H" 
			},
			{
				"x": -0.2053270822,
				"y": 1.615218908,
				"z": -2.3973280376,
				"element": "H" 
			}
		],
		 "valence_orbital": [ 
			{
				"type": "occ",
				"energy": -0.32213,
				"method": "rhf"
			},
			{
				"type": "occ",
				"energy": -0.31589,
				"method": "rhf"
			},
			{
				"type": "occ",
				"energy": -0.28307,
				"method": "rhf"
			},
			{
				"type": "occ",
				"energy": -0.2469,
				"method": "rhf"
			},
			{
				"type": "occ",
				"energy": -0.19825,
				"method": "rhf"
			},
			{
				"type": "unocc",
				"energy": -0.01785,
				"method": "rhf"
			},
			{
				"type": "unocc",
				"energy": 0.00562,
				"method": "rhf"
			},
			{
				"type": "unocc",
				"energy": 0.01399,
				"method": "rhf"
			},
			{
				"type": "unocc",
				"energy": 0.05292,
				"method": "rhf"
			},
			{
				"type": "unocc",
				"energy": 0.09142,
				"method": "rhf"
			}
		],
		"cosmo_sigma_profile": { 
			"-0.025": 0.0,
			"-0.024": 0.0,
			"-0.023": 0.0,
			"-0.022": 0.0,
			"-0.021": 0.0,
			"-0.02": 0.0,
			"-0.019": 0.0,
			"-0.018": 0.0,
			"-0.017": 0.0,
			"-0.016": 0.0,
			"-0.015": 0.0,
			"-0.014": 0.0,
			"-0.013": 0.0347611021061,
			"-0.012": 1.23590485577,
			"-0.011": 1.78824099333,
			"-0.01": 2.226771793,
			"-0.009": 1.53342001909,
			"-0.008": 3.48741076391,
			"-0.007": 5.31273724203,
			"-0.006": 6.26948285738,
			"-0.005": 9.73329436817,
			"-0.004": 14.5932092143,
			"-0.003": 16.7078219001,
			"-0.002": 16.2750564681,
			"-0.001": 16.0800736279,
			"0.0": 18.7079710524,
			"0.001": 18.0548749425,
			"0.002": 24.2211244652,
			"0.003": 28.3630579214,
			"0.004": 19.1967944314,
			"0.005": 8.8875428028,
			"0.006": 2.30877724335,
			"0.007": 1.52199414446,
			"0.008": 2.65597394862,
			"0.009": 1.99191632913,
			"0.01": 1.75688234346,
			"0.011": 0.682954161346,
			"0.012": 0.701006487485,
			"0.013": 0.444773044184,
			"0.014": 0.0,
			"0.015": 0.0,
			"0.016": 0.0,
			"0.017": 0.0,
			"0.018": 0.0,
			"0.019": 0.0,
			"0.02": 0.0,
			"0.021": 0.0,
			"0.022": 0.0,
			"0.023": 0.0,
			"0.024": 0.0,
			"0.025": 0.0
		}
	}
}
