{
	 "smiles": "FC(F)(F)C1=CN=CC(Cl)=C1", 
	 "Tm": 405.15, 
	 "num_atms": 14, 
	 "gaussian": { 
		 "optdone": 1, 
		 "sigma_profile": "yes", 
		 "theory": "DFT", 
		 "functional": "B3LYP", 
		 "basiset": "6-31G**", 
		 "properties": { 
			 "R2extent": 3441.2213, 
			 "electric_dipole_moment_norm": 0.675721695671, 
			 "electric_quadrupole_moment_norm": 2.87104329295, 
			 "total_energy": -1044.90637692, 
			 "HOMO_LUMO_gap": 0.21831, 
			 "cosmo_polarized_energy": -4.86, 
			 "cosmo_cavitation_energy": 22.08, 
			 "cosmo_dispersion_energy": -15.99, 
			 "cosmo_repulsion_energy": 1.22, 
			 "cosmo_total_nonelectrostatic_energy": 7.32, 
			 "SMD_solvation_energy": 3.36 
		},
		"coords": [
			{
				"x": 1.1122733626,
				"y": 3.7996897758,
				"z": 1.4542955289,
				"element": "F" 
			},
			{
				"x": 0.4809974644,
				"y": 3.4761050337,
				"z": 0.304695281,
				"element": "C" 
			},
			{
				"x": -0.4848517842,
				"y": 4.3989565187,
				"z": 0.108262322,
				"element": "F" 
			},
			{
				"x": 1.3805637297,
				"y": 3.5997123427,
				"z": -0.6925151835,
				"element": "F" 
			},
			{
				"x": -0.0896920121,
				"y": 2.0837326184,
				"z": 0.3651297883,
				"element": "C" 
			},
			{
				"x": 0.6809921252,
				"y": 0.9818805569,
				"z": -0.0151111684,
				"element": "C" 
			},
			{
				"x": 0.2402060528,
				"y": -0.2774616923,
				"z": 0.0642292983,
				"element": "N" 
			},
			{
				"x": -0.9945263852,
				"y": -0.4846038672,
				"z": 0.5281352895,
				"element": "C" 
			},
			{
				"x": -1.834401355,
				"y": 0.5605768268,
				"z": 0.9254227729,
				"element": "C" 
			},
			{
				"x": -3.4437576035,
				"y": 0.211266311,
				"z": 1.5124084742,
				"element": "Cl" 
			},
			{
				"x": -1.382036356,
				"y": 1.8732208479,
				"z": 0.8464878868,
				"element": "C" 
			},
			{
				"x": 1.6854356701,
				"y": 1.1229832137,
				"z": -0.404478392,
				"element": "H" 
			},
			{
				"x": -1.3382724867,
				"y": -1.5143312752,
				"z": 0.5872649898,
				"element": "H" 
			},
			{
				"x": -2.0140304221,
				"y": 2.703072789,
				"z": 1.1406731119,
				"element": "H" 
			}
		],
		 "valence_orbital": [ 
			{
				"type": "occ",
				"energy": -0.36995,
				"method": "rhf"
			},
			{
				"type": "occ",
				"energy": -0.33903,
				"method": "rhf"
			},
			{
				"type": "occ",
				"energy": -0.31495,
				"method": "rhf"
			},
			{
				"type": "occ",
				"energy": -0.28266,
				"method": "rhf"
			},
			{
				"type": "occ",
				"energy": -0.27766,
				"method": "rhf"
			},
			{
				"type": "unocc",
				"energy": -0.05935,
				"method": "rhf"
			},
			{
				"type": "unocc",
				"energy": -0.04784,
				"method": "rhf"
			},
			{
				"type": "unocc",
				"energy": 0.01144,
				"method": "rhf"
			},
			{
				"type": "unocc",
				"energy": 0.09481,
				"method": "rhf"
			},
			{
				"type": "unocc",
				"energy": 0.11276,
				"method": "rhf"
			}
		],
		"cosmo_sigma_profile": { 
			"-0.025": 0.0,
			"-0.024": 0.0,
			"-0.023": 0.0,
			"-0.022": 0.0,
			"-0.021": 0.0,
			"-0.02": 0.0,
			"-0.019": 0.0,
			"-0.018": 0.0,
			"-0.017": 0.0,
			"-0.016": 0.0,
			"-0.015": 0.0,
			"-0.014": 0.0,
			"-0.013": 0.0,
			"-0.012": 0.0,
			"-0.011": 0.0,
			"-0.01": 0.274827352871,
			"-0.009": 1.97635861279,
			"-0.008": 4.37464222314,
			"-0.007": 5.67074044942,
			"-0.006": 5.12615659886,
			"-0.005": 5.36089494171,
			"-0.004": 7.5161783378,
			"-0.003": 9.58180855121,
			"-0.002": 18.8430688273,
			"-0.001": 22.2320614803,
			"0.0": 13.8492561765,
			"0.001": 13.544396945,
			"0.002": 32.4705243535,
			"0.003": 23.5242302533,
			"0.004": 5.85389970401,
			"0.005": 1.28561757819,
			"0.006": 1.94267650718,
			"0.007": 1.50237692688,
			"0.008": 0.660232297722,
			"0.009": 0.676734679901,
			"0.01": 0.498838691238,
			"0.011": 0.770162910041,
			"0.012": 1.28792411526,
			"0.013": 0.822382682388,
			"0.014": 0.632234711353,
			"0.015": 0.494945378133,
			"0.016": 0.0,
			"0.017": 0.0,
			"0.018": 0.0,
			"0.019": 0.0,
			"0.02": 0.0,
			"0.021": 0.0,
			"0.022": 0.0,
			"0.023": 0.0,
			"0.024": 0.0,
			"0.025": 0.0
		}
	}
}
