{
	 "smiles": "N#CCC1=NC(=CS1)C1=CC=CC=C1", 
	 "Tm": 332.65, 
	 "num_atms": 22, 
	 "gaussian": { 
		 "optdone": 1, 
		 "sigma_profile": "yes", 
		 "theory": "DFT", 
		 "functional": "B3LYP", 
		 "basiset": "6-31G**", 
		 "properties": { 
			 "R2extent": 4451.0686, 
			 "electric_dipole_moment_norm": 3.46666253045, 
			 "electric_quadrupole_moment_norm": 22.1876992913, 
			 "total_energy": -931.659215123, 
			 "HOMO_LUMO_gap": 0.17774, 
			 "cosmo_polarized_energy": -12.01, 
			 "cosmo_cavitation_energy": 29.28, 
			 "cosmo_dispersion_energy": -21.47, 
			 "cosmo_repulsion_energy": 1.63, 
			 "cosmo_total_nonelectrostatic_energy": 9.44, 
			 "SMD_solvation_energy": 4.95 
		},
		"coords": [
			{
				"x": -4.5510693826,
				"y": -3.4759036478,
				"z": 2.5433349785,
				"element": "N" 
			},
			{
				"x": -3.5427168078,
				"y": -3.3123624475,
				"z": 1.9934358413,
				"element": "C" 
			},
			{
				"x": -2.2755638862,
				"y": -3.1127225578,
				"z": 1.2849758696,
				"element": "C" 
			},
			{
				"x": -1.9860886877,
				"y": -1.674346336,
				"z": 0.919702764,
				"element": "C" 
			},
			{
				"x": -0.7771291872,
				"y": -1.2077148734,
				"z": 0.8672372388,
				"element": "N" 
			},
			{
				"x": -0.7474142307,
				"y": 0.1116015617,
				"z": 0.443478491,
				"element": "C" 
			},
			{
				"x": -1.9884788308,
				"y": 0.638479265,
				"z": 0.1764625828,
				"element": "C" 
			},
			{
				"x": -3.2313914184,
				"y": -0.5300676023,
				"z": 0.4556247749,
				"element": "S" 
			},
			{
				"x": 0.5520791475,
				"y": 0.8033680311,
				"z": 0.3329858126,
				"element": "C" 
			},
			{
				"x": 1.7248528988,
				"y": 0.1558739602,
				"z": 0.7549743287,
				"element": "C" 
			},
			{
				"x": 2.9602206927,
				"y": 0.7945711074,
				"z": 0.663365146,
				"element": "C" 
			},
			{
				"x": 3.0490120494,
				"y": 2.0890924229,
				"z": 0.149002572,
				"element": "C" 
			},
			{
				"x": 1.8888032908,
				"y": 2.7407752132,
				"z": -0.2766041604,
				"element": "C" 
			},
			{
				"x": 0.6532580477,
				"y": 2.1047144208,
				"z": -0.1871807713,
				"element": "C" 
			},
			{
				"x": -1.4479032604,
				"y": -3.4686575357,
				"z": 1.9066843959,
				"element": "H" 
			},
			{
				"x": -2.2862476107,
				"y": -3.7353505378,
				"z": 0.3803370191,
				"element": "H" 
			},
			{
				"x": -2.2451960464,
				"y": 1.6388745243,
				"z": -0.1386710111,
				"element": "H" 
			},
			{
				"x": 1.650854514,
				"y": -0.8494244009,
				"z": 1.1536929351,
				"element": "H" 
			},
			{
				"x": 3.8563356207,
				"y": 0.2783802363,
				"z": 0.9959738772,
				"element": "H" 
			},
			{
				"x": 4.0121023465,
				"y": 2.5860136115,
				"z": 0.0778590499,
				"element": "H" 
			},
			{
				"x": 1.9463914127,
				"y": 3.7466814391,
				"z": -0.6824676006,
				"element": "H" 
			},
			{
				"x": -0.2353106716,
				"y": 2.6250241456,
				"z": -0.5321041338,
				"element": "H" 
			}
		],
		 "valence_orbital": [ 
			{
				"type": "occ",
				"energy": -0.30156,
				"method": "rhf"
			},
			{
				"type": "occ",
				"energy": -0.29003,
				"method": "rhf"
			},
			{
				"type": "occ",
				"energy": -0.28501,
				"method": "rhf"
			},
			{
				"type": "occ",
				"energy": -0.25512,
				"method": "rhf"
			},
			{
				"type": "occ",
				"energy": -0.22651,
				"method": "rhf"
			},
			{
				"type": "unocc",
				"energy": -0.04877,
				"method": "rhf"
			},
			{
				"type": "unocc",
				"energy": -0.0213,
				"method": "rhf"
			},
			{
				"type": "unocc",
				"energy": -0.00348,
				"method": "rhf"
			},
			{
				"type": "unocc",
				"energy": -0.00198,
				"method": "rhf"
			},
			{
				"type": "unocc",
				"energy": 0.02908,
				"method": "rhf"
			}
		],
		"cosmo_sigma_profile": { 
			"-0.025": 0.0,
			"-0.024": 0.0,
			"-0.023": 0.0,
			"-0.022": 0.0,
			"-0.021": 0.0,
			"-0.02": 0.0,
			"-0.019": 0.0,
			"-0.018": 0.0,
			"-0.017": 0.0,
			"-0.016": 0.0,
			"-0.015": 0.0,
			"-0.014": 0.0,
			"-0.013": 0.0,
			"-0.012": 0.0,
			"-0.011": 0.298699398632,
			"-0.01": 6.44716043945,
			"-0.009": 7.40883988941,
			"-0.008": 6.78599990337,
			"-0.007": 7.23064815777,
			"-0.006": 9.62831235007,
			"-0.005": 12.7900532037,
			"-0.004": 14.7097226055,
			"-0.003": 14.0197781246,
			"-0.002": 12.3818863543,
			"-0.001": 14.1112417101,
			"0.0": 16.0428308941,
			"0.001": 18.8290807421,
			"0.002": 21.3288185461,
			"0.003": 17.8125718362,
			"0.004": 14.0025954342,
			"0.005": 15.1721619834,
			"0.006": 8.01416843662,
			"0.007": 3.86898959428,
			"0.008": 4.41131143211,
			"0.009": 4.73533843707,
			"0.01": 3.38414311438,
			"0.011": 2.60028987256,
			"0.012": 2.2709317615,
			"0.013": 0.680617964624,
			"0.014": 0.0,
			"0.015": 0.0,
			"0.016": 0.0,
			"0.017": 0.0,
			"0.018": 0.0,
			"0.019": 0.0,
			"0.02": 0.0,
			"0.021": 0.0,
			"0.022": 0.0,
			"0.023": 0.0,
			"0.024": 0.0,
			"0.025": 0.0
		}
	}
}
