{
	 "smiles": "CC(C)(C)OC(=O)N[C@@H](CC1=CC=C(OCC2=CC=CC=C2)C=C1)C(O)=O", 
	 "Tm": 382.15, 
	 "num_atms": 52, 
	 "gaussian": { 
		 "optdone": 1, 
		 "sigma_profile": "yes", 
		 "theory": "DFT", 
		 "functional": "B3LYP", 
		 "basiset": "6-31G**", 
		 "properties": { 
			 "R2extent": 11128.1794, 
			 "electric_dipole_moment_norm": 2.73095519187, 
			 "electric_quadrupole_moment_norm": 21.9073516238, 
			 "total_energy": -1246.21329209, 
			 "HOMO_LUMO_gap": 0.20458, 
			 "cosmo_polarized_energy": -21.9, 
			 "cosmo_cavitation_energy": 54.26, 
			 "cosmo_dispersion_energy": -33.12, 
			 "cosmo_repulsion_energy": 2.49, 
			 "cosmo_total_nonelectrostatic_energy": 23.63, 
			 "SMD_solvation_energy": 10.21 
		},
		"coords": [
			{
				"x": 2.7390659574,
				"y": 1.3453633174,
				"z": -0.6439308208,
				"element": "C" 
			},
			{
				"x": 2.7180773694,
				"y": -0.1145423223,
				"z": -0.185341001,
				"element": "C" 
			},
			{
				"x": 4.1383568171,
				"y": -0.6137400268,
				"z": 0.1013521367,
				"element": "C" 
			},
			{
				"x": 1.7777923327,
				"y": -0.3007879619,
				"z": 1.008738738,
				"element": "C" 
			},
			{
				"x": 2.1716484202,
				"y": -0.8136406343,
				"z": -1.3646276471,
				"element": "O" 
			},
			{
				"x": 2.0837748772,
				"y": -2.1549944702,
				"z": -1.3884162104,
				"element": "C" 
			},
			{
				"x": 2.2697077912,
				"y": -2.9186907549,
				"z": -0.4556196613,
				"element": "O" 
			},
			{
				"x": 1.7161151196,
				"y": -2.6123939111,
				"z": -2.6371920066,
				"element": "N" 
			},
			{
				"x": 1.6849485486,
				"y": -1.8772146061,
				"z": -3.8894700631,
				"element": "C" 
			},
			{
				"x": 0.2997016521,
				"y": -1.2661046327,
				"z": -4.2440025503,
				"element": "C" 
			},
			{
				"x": -0.3236541817,
				"y": -0.2767720325,
				"z": -3.2830207325,
				"element": "C" 
			},
			{
				"x": -0.1591201117,
				"y": 1.1075845646,
				"z": -3.4460954286,
				"element": "C" 
			},
			{
				"x": -0.7860414192,
				"y": 2.0138197032,
				"z": -2.5982932632,
				"element": "C" 
			},
			{
				"x": -1.6033081975,
				"y": 1.5551178803,
				"z": -1.5555090377,
				"element": "C" 
			},
			{
				"x": -2.1988437453,
				"y": 2.5318457493,
				"z": -0.7991114897,
				"element": "O" 
			},
			{
				"x": -3.2254773142,
				"y": 2.1683397735,
				"z": 0.1207164511,
				"element": "C" 
			},
			{
				"x": -2.7173813191,
				"y": 1.6348911285,
				"z": 1.446690418,
				"element": "C" 
			},
			{
				"x": -3.4814089105,
				"y": 0.713093758,
				"z": 2.1715949,
				"element": "C" 
			},
			{
				"x": -3.0550350613,
				"y": 0.2653269945,
				"z": 3.4232716426,
				"element": "C" 
			},
			{
				"x": -1.8534406952,
				"y": 0.730643789,
				"z": 3.9593865139,
				"element": "C" 
			},
			{
				"x": -1.083862844,
				"y": 1.6468555191,
				"z": 3.2386955642,
				"element": "C" 
			},
			{
				"x": -1.5145481921,
				"y": 2.0997784156,
				"z": 1.9912941688,
				"element": "C" 
			},
			{
				"x": -1.7715595755,
				"y": 0.1789416522,
				"z": -1.3669616577,
				"element": "C" 
			},
			{
				"x": -1.1377413896,
				"y": -0.7151117076,
				"z": -2.2342532163,
				"element": "C" 
			},
			{
				"x": 2.9058024039,
				"y": -0.956852266,
				"z": -4.0415799273,
				"element": "C" 
			},
			{
				"x": 2.6474747169,
				"y": 0.1172292405,
				"z": -4.8252441076,
				"element": "O" 
			},
			{
				"x": 4.0090124951,
				"y": -1.1946573353,
				"z": -3.6100466003,
				"element": "O" 
			},
			{
				"x": 3.3990720995,
				"y": 1.4671083622,
				"z": -1.5080307888,
				"element": "H" 
			},
			{
				"x": 1.7359776634,
				"y": 1.6769088374,
				"z": -0.9245868654,
				"element": "H" 
			},
			{
				"x": 3.1080707501,
				"y": 1.9839363364,
				"z": 0.1645289023,
				"element": "H" 
			},
			{
				"x": 4.5934952495,
				"y": 0.0101039692,
				"z": 0.8777934941,
				"element": "H" 
			},
			{
				"x": 4.7504354281,
				"y": -0.545057936,
				"z": -0.8027103634,
				"element": "H" 
			},
			{
				"x": 4.1295958256,
				"y": -1.6492835585,
				"z": 0.4424037531,
				"element": "H" 
			},
			{
				"x": 1.7374860553,
				"y": -1.3480239537,
				"z": 1.309363029,
				"element": "H" 
			},
			{
				"x": 2.1380637055,
				"y": 0.2960689812,
				"z": 1.8535171958,
				"element": "H" 
			},
			{
				"x": 0.7684772143,
				"y": 0.0377982649,
				"z": 0.7581929116,
				"element": "H" 
			},
			{
				"x": 1.7534735256,
				"y": -3.6187327175,
				"z": -2.686490194,
				"element": "H" 
			},
			{
				"x": 1.8674878556,
				"y": -2.6285333319,
				"z": -4.6715956607,
				"element": "H" 
			},
			{
				"x": -0.3767372451,
				"y": -2.1218944048,
				"z": -4.3499181937,
				"element": "H" 
			},
			{
				"x": 0.3878951914,
				"y": -0.8143330188,
				"z": -5.2366587205,
				"element": "H" 
			},
			{
				"x": 0.4636454203,
				"y": 1.4774898337,
				"z": -4.254705954,
				"element": "H" 
			},
			{
				"x": -0.6759602722,
				"y": 3.0846136662,
				"z": -2.7378282156,
				"element": "H" 
			},
			{
				"x": -3.9192223519,
				"y": 1.4539639061,
				"z": -0.3419009257,
				"element": "H" 
			},
			{
				"x": -3.7776061438,
				"y": 3.1009221761,
				"z": 0.2839883339,
				"element": "H" 
			},
			{
				"x": -4.4152172932,
				"y": 0.3414097906,
				"z": 1.7549074595,
				"element": "H" 
			},
			{
				"x": -3.6564521474,
				"y": -0.4524913808,
				"z": 3.9738387882,
				"element": "H" 
			},
			{
				"x": -1.5162249279,
				"y": 0.378462411,
				"z": 4.9298905416,
				"element": "H" 
			},
			{
				"x": -0.1462183854,
				"y": 2.0104998232,
				"z": 3.6494997367,
				"element": "H" 
			},
			{
				"x": -0.9175592638,
				"y": 2.8098257929,
				"z": 1.4274016137,
				"element": "H" 
			},
			{
				"x": -2.3778372788,
				"y": -0.2039799472,
				"z": -0.5550340894,
				"element": "H" 
			},
			{
				"x": -1.2855652495,
				"y": -1.7812238474,
				"z": -2.0835811105,
				"element": "H" 
			},
			{
				"x": 3.4928690301,
				"y": 0.5895131214,
				"z": -4.9119097897,
				"element": "H" 
			}
		],
		 "valence_orbital": [ 
			{
				"type": "occ",
				"energy": -0.25231,
				"method": "rhf"
			},
			{
				"type": "occ",
				"energy": -0.25157,
				"method": "rhf"
			},
			{
				"type": "occ",
				"energy": -0.24854,
				"method": "rhf"
			},
			{
				"type": "occ",
				"energy": -0.24285,
				"method": "rhf"
			},
			{
				"type": "occ",
				"energy": -0.21239,
				"method": "rhf"
			},
			{
				"type": "unocc",
				"energy": -0.00781,
				"method": "rhf"
			},
			{
				"type": "unocc",
				"energy": -0.00556,
				"method": "rhf"
			},
			{
				"type": "unocc",
				"energy": 0.00059,
				"method": "rhf"
			},
			{
				"type": "unocc",
				"energy": 0.0037,
				"method": "rhf"
			},
			{
				"type": "unocc",
				"energy": 0.01186,
				"method": "rhf"
			}
		],
		"cosmo_sigma_profile": { 
			"-0.025": 0.0,
			"-0.024": 0.0,
			"-0.023": 0.0,
			"-0.022": 0.0,
			"-0.021": 0.0,
			"-0.02": 0.0,
			"-0.019": 0.0459230452391,
			"-0.018": 0.772937792937,
			"-0.017": 1.24170961717,
			"-0.016": 0.469184645502,
			"-0.015": 0.927958944756,
			"-0.014": 1.87456374833,
			"-0.013": 2.42122017666,
			"-0.012": 1.84737608493,
			"-0.011": 1.2946014776,
			"-0.01": 2.63123344772,
			"-0.009": 3.74110433676,
			"-0.008": 3.66865554388,
			"-0.007": 4.83812255319,
			"-0.006": 13.463069809,
			"-0.005": 22.9332006672,
			"-0.004": 37.0841249378,
			"-0.003": 35.2136668123,
			"-0.002": 28.8033994556,
			"-0.001": 30.5211684588,
			"0.0": 37.4316103287,
			"0.001": 43.0686709738,
			"0.002": 34.2119165848,
			"0.003": 24.8015075286,
			"0.004": 23.7221706072,
			"0.005": 22.4011154881,
			"0.006": 14.144640981,
			"0.007": 6.70749517117,
			"0.008": 4.62952981447,
			"0.009": 3.82364295826,
			"0.01": 4.2037886678,
			"0.011": 4.93129951467,
			"0.012": 3.84832916281,
			"0.013": 3.49272941785,
			"0.014": 1.9094020683,
			"0.015": 0.0,
			"0.016": 0.0,
			"0.017": 0.0,
			"0.018": 0.0,
			"0.019": 0.0,
			"0.02": 0.0,
			"0.021": 0.0,
			"0.022": 0.0,
			"0.023": 0.0,
			"0.024": 0.0,
			"0.025": 0.0
		}
	}
}
