{
	 "smiles": "CC(Cl)C(=O)NC1=CC=C(C=C1)C(F)(F)F", 
	 "Tm": 404.15, 
	 "num_atms": 25, 
	 "gaussian": { 
		 "optdone": 1, 
		 "sigma_profile": "yes", 
		 "theory": "DFT", 
		 "functional": "B3LYP", 
		 "basiset": "6-31G**", 
		 "properties": { 
			 "R2extent": 5579.4538, 
			 "electric_dipole_moment_norm": 2.03915718619, 
			 "electric_quadrupole_moment_norm": 21.5807527107, 
			 "total_energy": -1276.19605933, 
			 "HOMO_LUMO_gap": 0.19837, 
			 "cosmo_polarized_energy": -11.39, 
			 "cosmo_cavitation_energy": 31.99, 
			 "cosmo_dispersion_energy": -22.39, 
			 "cosmo_repulsion_energy": 1.7, 
			 "cosmo_total_nonelectrostatic_energy": 11.3, 
			 "SMD_solvation_energy": 7.0 
		},
		"coords": [
			{
				"x": -2.03982233,
				"y": 0.9197305961,
				"z": 1.9301103359,
				"element": "C" 
			},
			{
				"x": -0.7893580138,
				"y": 1.1418318923,
				"z": 2.7710682683,
				"element": "C" 
			},
			{
				"x": -0.1230938614,
				"y": 2.8386985894,
				"z": 2.5493479252,
				"element": "Cl" 
			},
			{
				"x": 0.3347216741,
				"y": 0.1003536724,
				"z": 2.6503567198,
				"element": "C" 
			},
			{
				"x": 0.7907643492,
				"y": -0.3801418471,
				"z": 3.6777650312,
				"element": "O" 
			},
			{
				"x": 0.7944133972,
				"y": -0.3752410661,
				"z": 1.434832857,
				"element": "N" 
			},
			{
				"x": 0.5345791693,
				"y": -0.109693284,
				"z": 0.0688940638,
				"element": "C" 
			},
			{
				"x": 0.3994176225,
				"y": 1.1833332702,
				"z": -0.4541295385,
				"element": "C" 
			},
			{
				"x": 0.1825811713,
				"y": 1.3622633373,
				"z": -1.8185856677,
				"element": "C" 
			},
			{
				"x": 0.1291316138,
				"y": 0.2651299317,
				"z": -2.6806149704,
				"element": "C" 
			},
			{
				"x": 0.2925776794,
				"y": -1.0242409509,
				"z": -2.1667623311,
				"element": "C" 
			},
			{
				"x": 0.4867495558,
				"y": -1.2101209452,
				"z": -0.8031092936,
				"element": "C" 
			},
			{
				"x": -0.0362096762,
				"y": 0.4722082644,
				"z": -4.1604907007,
				"element": "C" 
			},
			{
				"x": 1.1573224207,
				"y": 0.6107538413,
				"z": -4.7838399217,
				"element": "F" 
			},
			{
				"x": -0.6633376667,
				"y": -0.5728404249,
				"z": -4.7456848138,
				"element": "F" 
			},
			{
				"x": -0.7525730056,
				"y": 1.5846251742,
				"z": -4.4348509321,
				"element": "F" 
			},
			{
				"x": -1.8555610007,
				"y": 1.0230852498,
				"z": 0.8610664134,
				"element": "H" 
			},
			{
				"x": -2.4220495284,
				"y": -0.0892262446,
				"z": 2.1224981546,
				"element": "H" 
			},
			{
				"x": -2.8103452773,
				"y": 1.6373240499,
				"z": 2.2216159144,
				"element": "H" 
			},
			{
				"x": -1.0368714252,
				"y": 1.1078104609,
				"z": 3.8307434188,
				"element": "H" 
			},
			{
				"x": 1.4194781316,
				"y": -1.1552435016,
				"z": 1.6048799507,
				"element": "H" 
			},
			{
				"x": 0.4738471573,
				"y": 2.0430011718,
				"z": 0.1989309734,
				"element": "H" 
			},
			{
				"x": 0.0670924059,
				"y": 2.3653106029,
				"z": -2.214891797,
				"element": "H" 
			},
			{
				"x": 0.2484412519,
				"y": -1.8811231273,
				"z": -2.8301593571,
				"element": "H" 
			},
			{
				"x": 0.5904041854,
				"y": -2.2142887127,
				"z": -0.4018907031,
				"element": "H" 
			}
		],
		 "valence_orbital": [ 
			{
				"type": "occ",
				"energy": -0.31829,
				"method": "rhf"
			},
			{
				"type": "occ",
				"energy": -0.30987,
				"method": "rhf"
			},
			{
				"type": "occ",
				"energy": -0.28001,
				"method": "rhf"
			},
			{
				"type": "occ",
				"energy": -0.27275,
				"method": "rhf"
			},
			{
				"type": "occ",
				"energy": -0.24891,
				"method": "rhf"
			},
			{
				"type": "unocc",
				"energy": -0.05054,
				"method": "rhf"
			},
			{
				"type": "unocc",
				"energy": -0.03099,
				"method": "rhf"
			},
			{
				"type": "unocc",
				"energy": -0.01968,
				"method": "rhf"
			},
			{
				"type": "unocc",
				"energy": 0.04456,
				"method": "rhf"
			},
			{
				"type": "unocc",
				"energy": 0.07309,
				"method": "rhf"
			}
		],
		"cosmo_sigma_profile": { 
			"-0.025": 0.0,
			"-0.024": 0.0,
			"-0.023": 0.0,
			"-0.022": 0.0,
			"-0.021": 0.0,
			"-0.02": 0.0,
			"-0.019": 0.0,
			"-0.018": 0.0,
			"-0.017": 0.0,
			"-0.016": 0.0,
			"-0.015": 0.625990990347,
			"-0.014": 0.894781670092,
			"-0.013": 0.843403949919,
			"-0.012": 1.30998173323,
			"-0.011": 1.30864794461,
			"-0.01": 1.20245279302,
			"-0.009": 1.31331076341,
			"-0.008": 3.61270284248,
			"-0.007": 9.00224796595,
			"-0.006": 10.9834069221,
			"-0.005": 13.7536670132,
			"-0.004": 11.978749139,
			"-0.003": 14.6531467434,
			"-0.002": 18.1448097277,
			"-0.001": 21.3135151759,
			"0.0": 19.7273683389,
			"0.001": 21.3909035785,
			"0.002": 31.5341781606,
			"0.003": 38.8152965417,
			"0.004": 9.37861917391,
			"0.005": 7.28830816016,
			"0.006": 3.46568056988,
			"0.007": 0.905229428221,
			"0.008": 0.431060675995,
			"0.009": 1.95819923732,
			"0.01": 1.29367786527,
			"0.011": 2.951853768,
			"0.012": 4.84109418013,
			"0.013": 2.47682718825,
			"0.014": 0.0494897759511,
			"0.015": 0.0,
			"0.016": 0.0,
			"0.017": 0.0,
			"0.018": 0.0,
			"0.019": 0.0,
			"0.02": 0.0,
			"0.021": 0.0,
			"0.022": 0.0,
			"0.023": 0.0,
			"0.024": 0.0,
			"0.025": 0.0
		}
	}
}
