{
	 "smiles": "CC1=C(CBr)SC(=N1)C1=CC=C(C=C1)C(F)(F)F", 
	 "Tm": 337.65, 
	 "num_atms": 27, 
	 "gaussian": { 
		 "optdone": 1, 
		 "sigma_profile": "yes", 
		 "theory": "DFT", 
		 "functional": "B3LYP", 
		 "basiset": "6-31G**", 
		 "properties": { 
			 "R2extent": 11205.8357, 
			 "electric_dipole_moment_norm": 2.67666150269, 
			 "electric_quadrupole_moment_norm": 16.9123960987, 
			 "total_energy": -3786.58498588, 
			 "HOMO_LUMO_gap": 0.15434, 
			 "cosmo_polarized_energy": -8.93, 
			 "cosmo_cavitation_energy": 36.98, 
			 "cosmo_dispersion_energy": -26.85, 
			 "cosmo_repulsion_energy": 1.98, 
			 "cosmo_total_nonelectrostatic_energy": 12.11, 
			 "SMD_solvation_energy": 4.55 
		},
		"coords": [
			{
				"x": -3.4864122064,
				"y": 2.4157664897,
				"z": 1.5979603975,
				"element": "C" 
			},
			{
				"x": -2.64632641,
				"y": 1.2017163132,
				"z": 1.3302776802,
				"element": "C" 
			},
			{
				"x": -2.9504964739,
				"y": -0.0997957544,
				"z": 1.6737100707,
				"element": "C" 
			},
			{
				"x": -4.1501987313,
				"y": -0.6198873878,
				"z": 2.3566670104,
				"element": "C" 
			},
			{
				"x": -3.9202825592,
				"y": -0.7769749026,
				"z": 4.3567721879,
				"element": "Br" 
			},
			{
				"x": -1.6469103385,
				"y": -1.1530981278,
				"z": 1.1832741439,
				"element": "S" 
			},
			{
				"x": -0.7976797689,
				"y": 0.2441378825,
				"z": 0.5346663693,
				"element": "C" 
			},
			{
				"x": -1.4456763798,
				"y": 1.3708835001,
				"z": 0.6891308372,
				"element": "N" 
			},
			{
				"x": 0.5127620555,
				"y": 0.144282872,
				"z": -0.1206434119,
				"element": "C" 
			},
			{
				"x": 1.1918880943,
				"y": -1.0776004215,
				"z": -0.2534162741,
				"element": "C" 
			},
			{
				"x": 2.431476393,
				"y": -1.1344702899,
				"z": -0.8818234866,
				"element": "C" 
			},
			{
				"x": 3.011294969,
				"y": 0.031483013,
				"z": -1.3882534368,
				"element": "C" 
			},
			{
				"x": 2.3442397069,
				"y": 1.2544728292,
				"z": -1.2621469928,
				"element": "C" 
			},
			{
				"x": 1.1059268358,
				"y": 1.3114415935,
				"z": -0.6347922765,
				"element": "C" 
			},
			{
				"x": 4.3774947115,
				"y": -0.0179065144,
				"z": -2.0170946327,
				"element": "C" 
			},
			{
				"x": 4.5219907144,
				"y": 0.9218676697,
				"z": -2.9771705707,
				"element": "F" 
			},
			{
				"x": 4.628810594,
				"y": -1.2199410728,
				"z": -2.5810347126,
				"element": "F" 
			},
			{
				"x": 5.3530326671,
				"y": 0.200082049,
				"z": -1.1047089575,
				"element": "F" 
			},
			{
				"x": -3.7351694225,
				"y": 2.922722887,
				"z": 0.6598276942,
				"element": "H" 
			},
			{
				"x": -2.9271182096,
				"y": 3.1279735057,
				"z": 2.2132182619,
				"element": "H" 
			},
			{
				"x": -4.4130958329,
				"y": 2.1736027661,
				"z": 2.1212845959,
				"element": "H" 
			},
			{
				"x": -5.0044639225,
				"y": 0.0425659344,
				"z": 2.2391706965,
				"element": "H" 
			},
			{
				"x": -4.4207002318,
				"y": -1.6273775728,
				"z": 2.0483885656,
				"element": "H" 
			},
			{
				"x": 0.7539356961,
				"y": -1.9929672423,
				"z": 0.1338104659,
				"element": "H" 
			},
			{
				"x": 2.9461592391,
				"y": -2.0831177215,
				"z": -0.9865744676,
				"element": "H" 
			},
			{
				"x": 2.7927763229,
				"y": 2.1567980396,
				"z": -1.6635745492,
				"element": "H" 
			},
			{
				"x": 0.576242488,
				"y": 2.2515396631,
				"z": -0.533225208,
				"element": "H" 
			}
		],
		 "valence_orbital": [ 
			{
				"type": "occ",
				"energy": -0.2877,
				"method": "rhf"
			},
			{
				"type": "occ",
				"energy": -0.27712,
				"method": "rhf"
			},
			{
				"type": "occ",
				"energy": -0.27645,
				"method": "rhf"
			},
			{
				"type": "occ",
				"energy": -0.27388,
				"method": "rhf"
			},
			{
				"type": "occ",
				"energy": -0.23375,
				"method": "rhf"
			},
			{
				"type": "unocc",
				"energy": -0.07941,
				"method": "rhf"
			},
			{
				"type": "unocc",
				"energy": -0.03016,
				"method": "rhf"
			},
			{
				"type": "unocc",
				"energy": -0.02273,
				"method": "rhf"
			},
			{
				"type": "unocc",
				"energy": 0.00058,
				"method": "rhf"
			},
			{
				"type": "unocc",
				"energy": 0.01878,
				"method": "rhf"
			}
		],
		"cosmo_sigma_profile": { 
			"-0.025": 0.0,
			"-0.024": 0.0,
			"-0.023": 0.0,
			"-0.022": 0.0,
			"-0.021": 0.0,
			"-0.02": 0.0,
			"-0.019": 0.0,
			"-0.018": 0.0,
			"-0.017": 0.0,
			"-0.016": 0.0,
			"-0.015": 0.0,
			"-0.014": 0.0,
			"-0.013": 0.0,
			"-0.012": 0.0,
			"-0.011": 0.0,
			"-0.01": 0.0,
			"-0.009": 2.9002834359,
			"-0.008": 6.64867369898,
			"-0.007": 10.2477953492,
			"-0.006": 11.7526192046,
			"-0.005": 15.9251929545,
			"-0.004": 14.3491093923,
			"-0.003": 15.8132033249,
			"-0.002": 19.1640682649,
			"-0.001": 23.7058547565,
			"0.0": 27.8467443861,
			"0.001": 31.0387580239,
			"0.002": 43.2900829888,
			"0.003": 41.0321744338,
			"0.004": 8.64936867653,
			"0.005": 9.18894776505,
			"0.006": 12.3097703196,
			"0.007": 4.22721977297,
			"0.008": 0.813392759942,
			"0.009": 1.43919679235,
			"0.01": 1.22139955525,
			"0.011": 0.675475197738,
			"0.012": 0.00294472522593,
			"0.013": 0.0,
			"0.014": 0.0,
			"0.015": 0.0,
			"0.016": 0.0,
			"0.017": 0.0,
			"0.018": 0.0,
			"0.019": 0.0,
			"0.02": 0.0,
			"0.021": 0.0,
			"0.022": 0.0,
			"0.023": 0.0,
			"0.024": 0.0,
			"0.025": 0.0
		}
	}
}
