{
	 "smiles": "CC(=O)NC1=CC=CC=C1C=CC1=CC(C=CC2=C(NC(C)=O)C=CC=C2)=C(C=C1[N+]([O-])=O)[N+]([O-])=O", 
	 "Tm": 543.15, 
	 "num_atms": 58, 
	 "gaussian": { 
		 "optdone": 1, 
		 "sigma_profile": "yes", 
		 "theory": "DFT", 
		 "functional": "B3LYP", 
		 "basiset": "6-31G**", 
		 "properties": { 
			 "R2extent": 24259.4162, 
			 "electric_dipole_moment_norm": 8.42353178661, 
			 "electric_quadrupole_moment_norm": 24.597174122, 
			 "total_energy": -1674.18135257, 
			 "HOMO_LUMO_gap": 0.1105, 
			 "cosmo_polarized_energy": -32.42, 
			 "cosmo_cavitation_energy": 64.95, 
			 "cosmo_dispersion_energy": -42.97, 
			 "cosmo_repulsion_energy": 3.22, 
			 "cosmo_total_nonelectrostatic_energy": 25.21, 
			 "SMD_solvation_energy": 16.5 
		},
		"coords": [
			{
				"x": -1.4790339778,
				"y": -5.1237948168,
				"z": -3.9536002922,
				"element": "C" 
			},
			{
				"x": -1.1058068594,
				"y": -3.6595558606,
				"z": -3.8318938375,
				"element": "C" 
			},
			{
				"x": -0.2392541953,
				"y": -3.1487366465,
				"z": -4.5249536953,
				"element": "O" 
			},
			{
				"x": -1.747312045,
				"y": -2.8799009647,
				"z": -2.8765593664,
				"element": "N" 
			},
			{
				"x": -2.7879146001,
				"y": -3.1605627928,
				"z": -1.9707772967,
				"element": "C" 
			},
			{
				"x": -3.9171896519,
				"y": -3.882897315,
				"z": -2.3800058445,
				"element": "C" 
			},
			{
				"x": -4.9777851884,
				"y": -4.1145182479,
				"z": -1.507613831,
				"element": "C" 
			},
			{
				"x": -4.9519726835,
				"y": -3.5804315915,
				"z": -0.2181482818,
				"element": "C" 
			},
			{
				"x": -3.851612399,
				"y": -2.8331648698,
				"z": 0.1840669788,
				"element": "C" 
			},
			{
				"x": -2.7366882858,
				"y": -2.62917087,
				"z": -0.6528961461,
				"element": "C" 
			},
			{
				"x": -1.6142897297,
				"y": -1.8730377459,
				"z": -0.0875466505,
				"element": "C" 
			},
			{
				"x": -0.3045458573,
				"y": -1.9065935571,
				"z": -0.4263291372,
				"element": "C" 
			},
			{
				"x": 0.7097720489,
				"y": -1.0913957662,
				"z": 0.2520987679,
				"element": "C" 
			},
			{
				"x": 0.3809349402,
				"y": 0.2027947957,
				"z": 0.6851284228,
				"element": "C" 
			},
			{
				"x": 1.2619958038,
				"y": 1.0866929635,
				"z": 1.3348945627,
				"element": "C" 
			},
			{
				"x": 0.7842926827,
				"y": 2.41305041,
				"z": 1.7371635478,
				"element": "C" 
			},
			{
				"x": -0.5008117183,
				"y": 2.6586291001,
				"z": 2.0948467997,
				"element": "C" 
			},
			{
				"x": -1.1205390169,
				"y": 3.9163118578,
				"z": 2.5179441474,
				"element": "C" 
			},
			{
				"x": -0.7261563957,
				"y": 5.2192271561,
				"z": 2.0969707442,
				"element": "C" 
			},
			{
				"x": 0.2666102123,
				"y": 5.3406384011,
				"z": 1.1087448541,
				"element": "N" 
			},
			{
				"x": 0.8978882964,
				"y": 6.4803077736,
				"z": 0.6381650388,
				"element": "C" 
			},
			{
				"x": 1.938618825,
				"y": 6.2085636712,
				"z": -0.4381409155,
				"element": "C" 
			},
			{
				"x": 0.6839329286,
				"y": 7.6072797909,
				"z": 1.0563129183,
				"element": "O" 
			},
			{
				"x": -1.3711501606,
				"y": 6.3457181268,
				"z": 2.6318998635,
				"element": "C" 
			},
			{
				"x": -2.4062048887,
				"y": 6.1945160247,
				"z": 3.5505220475,
				"element": "C" 
			},
			{
				"x": -2.840551975,
				"y": 4.9250905957,
				"z": 3.9383327005,
				"element": "C" 
			},
			{
				"x": -2.2054878939,
				"y": 3.8091914239,
				"z": 3.4114609589,
				"element": "C" 
			},
			{
				"x": 2.5972731542,
				"y": 0.6263153814,
				"z": 1.4785235819,
				"element": "C" 
			},
			{
				"x": 2.9846044829,
				"y": -0.6280027576,
				"z": 1.0240171491,
				"element": "C" 
			},
			{
				"x": 2.060014858,
				"y": -1.4807288275,
				"z": 0.4391454806,
				"element": "C" 
			},
			{
				"x": 2.5592759699,
				"y": -2.8149221831,
				"z": 0.0687638375,
				"element": "N" 
			},
			{
				"x": 1.7341506214,
				"y": -3.701115176,
				"z": -0.1602565973,
				"element": "O" 
			},
			{
				"x": 3.7779902742,
				"y": -2.9740529477,
				"z": 0.0289706928,
				"element": "O" 
			},
			{
				"x": 3.6529365658,
				"y": 1.4163121675,
				"z": 2.1347145824,
				"element": "N" 
			},
			{
				"x": 4.8139622151,
				"y": 1.0325310006,
				"z": 2.0020501997,
				"element": "O" 
			},
			{
				"x": 3.3236618278,
				"y": 2.407310027,
				"z": 2.7901009344,
				"element": "O" 
			},
			{
				"x": -2.262622079,
				"y": -5.2516203773,
				"z": -4.7080491544,
				"element": "H" 
			},
			{
				"x": -0.592472185,
				"y": -5.6533079811,
				"z": -4.3047422702,
				"element": "H" 
			},
			{
				"x": -1.8297900344,
				"y": -5.5591193742,
				"z": -3.0158908733,
				"element": "H" 
			},
			{
				"x": -1.3184151751,
				"y": -1.9643784281,
				"z": -2.8028532919,
				"element": "H" 
			},
			{
				"x": -3.9747576748,
				"y": -4.2357421952,
				"z": -3.4028965444,
				"element": "H" 
			},
			{
				"x": -5.8371833369,
				"y": -4.6832050829,
				"z": -1.8496774932,
				"element": "H" 
			},
			{
				"x": -5.7844008293,
				"y": -3.7355866931,
				"z": 0.4606532966,
				"element": "H" 
			},
			{
				"x": -3.8270220536,
				"y": -2.4110516477,
				"z": 1.1853263355,
				"element": "H" 
			},
			{
				"x": -1.8914425127,
				"y": -1.2720849521,
				"z": 0.7780880518,
				"element": "H" 
			},
			{
				"x": 0.0478055847,
				"y": -2.5930217774,
				"z": -1.1830162099,
				"element": "H" 
			},
			{
				"x": -0.6093075127,
				"y": 0.5694011317,
				"z": 0.4452033481,
				"element": "H" 
			},
			{
				"x": 1.5305271948,
				"y": 3.1904705345,
				"z": 1.8249325143,
				"element": "H" 
			},
			{
				"x": -1.1706198054,
				"y": 1.8023322356,
				"z": 2.1680135186,
				"element": "H" 
			},
			{
				"x": 0.5127380782,
				"y": 4.4785225209,
				"z": 0.645632061,
				"element": "H" 
			},
			{
				"x": 1.8002052783,
				"y": 5.2558939223,
				"z": -0.9573753978,
				"element": "H" 
			},
			{
				"x": 2.9330566592,
				"y": 6.2113613321,
				"z": 0.0207612706,
				"element": "H" 
			},
			{
				"x": 1.9064055141,
				"y": 7.0232570042,
				"z": -1.1633875578,
				"element": "H" 
			},
			{
				"x": -1.0462676613,
				"y": 7.3258905424,
				"z": 2.3144596014,
				"element": "H" 
			},
			{
				"x": -2.8860666867,
				"y": 7.0819225103,
				"z": 3.9527814065,
				"element": "H" 
			},
			{
				"x": -3.6601385132,
				"y": 4.8089661549,
				"z": 4.6401924147,
				"element": "H" 
			},
			{
				"x": -2.5255535476,
				"y": 2.8148536356,
				"z": 3.7119462692,
				"element": "H" 
			},
			{
				"x": 4.0090131134,
				"y": -0.9502507462,
				"z": 1.1465817856,
				"element": "H" 
			}
		],
		 "valence_orbital": [ 
			{
				"type": "occ",
				"energy": -0.26209,
				"method": "rhf"
			},
			{
				"type": "occ",
				"energy": -0.25597,
				"method": "rhf"
			},
			{
				"type": "occ",
				"energy": -0.24992,
				"method": "rhf"
			},
			{
				"type": "occ",
				"energy": -0.23282,
				"method": "rhf"
			},
			{
				"type": "occ",
				"energy": -0.22751,
				"method": "rhf"
			},
			{
				"type": "unocc",
				"energy": -0.11701,
				"method": "rhf"
			},
			{
				"type": "unocc",
				"energy": -0.09888,
				"method": "rhf"
			},
			{
				"type": "unocc",
				"energy": -0.07107,
				"method": "rhf"
			},
			{
				"type": "unocc",
				"energy": -0.05164,
				"method": "rhf"
			},
			{
				"type": "unocc",
				"energy": -0.02809,
				"method": "rhf"
			}
		],
		"cosmo_sigma_profile": { 
			"-0.025": 0.0,
			"-0.024": 0.0,
			"-0.023": 0.0,
			"-0.022": 0.0,
			"-0.021": 0.0,
			"-0.02": 0.0,
			"-0.019": 0.0,
			"-0.018": 0.0,
			"-0.017": 0.0,
			"-0.016": 0.0,
			"-0.015": 0.0,
			"-0.014": 0.0,
			"-0.013": 0.432306623206,
			"-0.012": 1.56467861706,
			"-0.011": 2.46861026529,
			"-0.01": 1.94436608647,
			"-0.009": 3.4593192982,
			"-0.008": 11.0146944068,
			"-0.007": 21.4065667756,
			"-0.006": 32.7805000368,
			"-0.005": 36.0437318385,
			"-0.004": 40.4995068708,
			"-0.003": 39.3150763817,
			"-0.002": 49.1034505799,
			"-0.001": 39.5666830345,
			"0.0": 29.0729508886,
			"0.001": 25.6324838296,
			"0.002": 27.8493073951,
			"0.003": 27.8315176873,
			"0.004": 30.1380277192,
			"0.005": 17.1742203584,
			"0.006": 11.4344548891,
			"0.007": 18.5525436813,
			"0.008": 14.5752793642,
			"0.009": 10.6020631014,
			"0.01": 6.68533855783,
			"0.011": 3.84659003932,
			"0.012": 5.42433369613,
			"0.013": 7.82824011136,
			"0.014": 4.48412096249,
			"0.015": 0.356555840802,
			"0.016": 0.0,
			"0.017": 0.0,
			"0.018": 0.0,
			"0.019": 0.0,
			"0.02": 0.0,
			"0.021": 0.0,
			"0.022": 0.0,
			"0.023": 0.0,
			"0.024": 0.0,
			"0.025": 0.0
		}
	}
}
