{
	 "smiles": "C1COCCOC2=C(OCCOC3=C(OCCO1)C=CC=C3)C=CC=C2", 
	 "Tm": 391.15, 
	 "num_atms": 50, 
	 "gaussian": { 
		 "optdone": 1, 
		 "sigma_profile": "yes", 
		 "theory": "DFT", 
		 "functional": "B3LYP", 
		 "basiset": "6-31G**", 
		 "properties": { 
			 "R2extent": 12114.4214, 
			 "electric_dipole_moment_norm": 1.50774212981, 
			 "electric_quadrupole_moment_norm": 10.8200939922, 
			 "total_energy": -1227.85614741, 
			 "HOMO_LUMO_gap": 0.20585, 
			 "cosmo_polarized_energy": -14.15, 
			 "cosmo_cavitation_energy": 50.68, 
			 "cosmo_dispersion_energy": -34.68, 
			 "cosmo_repulsion_energy": 2.58, 
			 "cosmo_total_nonelectrostatic_energy": 18.58, 
			 "SMD_solvation_energy": 8.54 
		},
		"coords": [
			{
				"x": 0.199042131,
				"y": -0.456178345,
				"z": 3.2483430461,
				"element": "C" 
			},
			{
				"x": 0.0064860571,
				"y": -1.9289939332,
				"z": 2.9229541298,
				"element": "C" 
			},
			{
				"x": -0.0943487936,
				"y": -2.2153969637,
				"z": 1.5353773668,
				"element": "O" 
			},
			{
				"x": -1.4019215785,
				"y": -2.1187947715,
				"z": 0.9905190548,
				"element": "C" 
			},
			{
				"x": -1.360202197,
				"y": -2.6646003781,
				"z": -0.4237162781,
				"element": "C" 
			},
			{
				"x": -0.6918899877,
				"y": -1.717959557,
				"z": -1.2563321636,
				"element": "O" 
			},
			{
				"x": 0.0430370238,
				"y": -2.1630862892,
				"z": -2.3217149396,
				"element": "C" 
			},
			{
				"x": 1.086036936,
				"y": -1.3264578457,
				"z": -2.7819241979,
				"element": "C" 
			},
			{
				"x": 1.397911982,
				"y": -0.1015528359,
				"z": -2.2530815418,
				"element": "O" 
			},
			{
				"x": 1.2490762681,
				"y": 0.1555100464,
				"z": -0.8538827774,
				"element": "C" 
			},
			{
				"x": 2.1951070936,
				"y": 1.306988964,
				"z": -0.5421827919,
				"element": "C" 
			},
			{
				"x": 1.8937902007,
				"y": 1.7048615964,
				"z": 0.7924169479,
				"element": "O" 
			},
			{
				"x": 2.5290714232,
				"y": 2.7891665296,
				"z": 1.3247398212,
				"element": "C" 
			},
			{
				"x": 2.1117451837,
				"y": 3.1681463246,
				"z": 2.6205556326,
				"element": "C" 
			},
			{
				"x": 1.1548466665,
				"y": 2.4383900246,
				"z": 3.2916995355,
				"element": "O" 
			},
			{
				"x": -0.1924720416,
				"y": 2.5798298525,
				"z": 2.8143457256,
				"element": "C" 
			},
			{
				"x": -1.0747376402,
				"y": 1.5594254238,
				"z": 3.5210082299,
				"element": "C" 
			},
			{
				"x": -1.0156448112,
				"y": 0.245343107,
				"z": 2.9958458781,
				"element": "O" 
			},
			{
				"x": 2.7181317766,
				"y": 4.2476636578,
				"z": 3.2543799495,
				"element": "C" 
			},
			{
				"x": 3.7356300425,
				"y": 4.9673829555,
				"z": 2.6197670032,
				"element": "C" 
			},
			{
				"x": 4.1364626307,
				"y": 4.6015028335,
				"z": 1.33796727,
				"element": "C" 
			},
			{
				"x": 3.5382535279,
				"y": 3.5159665041,
				"z": 0.6881185376,
				"element": "C" 
			},
			{
				"x": 1.8308887557,
				"y": -1.7188381943,
				"z": -3.8961104705,
				"element": "C" 
			},
			{
				"x": 1.5698347682,
				"y": -2.9205572535,
				"z": -4.554094906,
				"element": "C" 
			},
			{
				"x": 0.5508585883,
				"y": -3.7507242138,
				"z": -4.0924503881,
				"element": "C" 
			},
			{
				"x": -0.2077397833,
				"y": -3.3699041575,
				"z": -2.9834840189,
				"element": "C" 
			},
			{
				"x": 1.0213658209,
				"y": -0.0435785807,
				"z": 2.6536738707,
				"element": "H" 
			},
			{
				"x": 0.4750666052,
				"y": -0.3643456527,
				"z": 4.3123160237,
				"element": "H" 
			},
			{
				"x": 0.8898115429,
				"y": -2.4722059755,
				"z": 3.2793621734,
				"element": "H" 
			},
			{
				"x": -0.8723783169,
				"y": -2.3150056664,
				"z": 3.4624257161,
				"element": "H" 
			},
			{
				"x": -1.7648159918,
				"y": -1.0839991308,
				"z": 0.9965854116,
				"element": "H" 
			},
			{
				"x": -2.1083717342,
				"y": -2.727582261,
				"z": 1.5797402682,
				"element": "H" 
			},
			{
				"x": -2.3822780854,
				"y": -2.8323440971,
				"z": -0.7918222465,
				"element": "H" 
			},
			{
				"x": -0.8235060201,
				"y": -3.6202688269,
				"z": -0.4219769278,
				"element": "H" 
			},
			{
				"x": 0.2241767793,
				"y": 0.4523823448,
				"z": -0.6186398511,
				"element": "H" 
			},
			{
				"x": 1.488610203,
				"y": -0.7256426618,
				"z": -0.2522770233,
				"element": "H" 
			},
			{
				"x": 2.0197768332,
				"y": 2.1328282429,
				"z": -1.2442413574,
				"element": "H" 
			},
			{
				"x": 3.2435740061,
				"y": 0.9939008389,
				"z": -0.6302053738,
				"element": "H" 
			},
			{
				"x": -0.2383445781,
				"y": 2.4217225555,
				"z": 1.7319568692,
				"element": "H" 
			},
			{
				"x": -0.55206301,
				"y": 3.5950036097,
				"z": 3.0411573161,
				"element": "H" 
			},
			{
				"x": -2.1187856367,
				"y": 1.8725302106,
				"z": 3.4104520297,
				"element": "H" 
			},
			{
				"x": -0.8281944998,
				"y": 1.5620100749,
				"z": 4.5953192344,
				"element": "H" 
			},
			{
				"x": 2.3824985111,
				"y": 4.504229204,
				"z": 4.2544368129,
				"element": "H" 
			},
			{
				"x": 4.2035034975,
				"y": 5.8063817083,
				"z": 3.1251917459,
				"element": "H" 
			},
			{
				"x": 4.9226855019,
				"y": 5.1534551653,
				"z": 0.8314866872,
				"element": "H" 
			},
			{
				"x": 3.8680303495,
				"y": 3.2368585944,
				"z": -0.3058704558,
				"element": "H" 
			},
			{
				"x": 2.6238029626,
				"y": -1.0550761748,
				"z": -4.2258765126,
				"element": "H" 
			},
			{
				"x": 2.1658506537,
				"y": -3.204326883,
				"z": -5.4159784258,
				"element": "H" 
			},
			{
				"x": 0.3337037956,
				"y": -4.6897765692,
				"z": -4.5922704092,
				"element": "H" 
			},
			{
				"x": -1.0185734121,
				"y": -4.0046831508,
				"z": -2.6431092306,
				"element": "H" 
			}
		],
		 "valence_orbital": [ 
			{
				"type": "occ",
				"energy": -0.2497,
				"method": "rhf"
			},
			{
				"type": "occ",
				"energy": -0.24185,
				"method": "rhf"
			},
			{
				"type": "occ",
				"energy": -0.23046,
				"method": "rhf"
			},
			{
				"type": "occ",
				"energy": -0.21579,
				"method": "rhf"
			},
			{
				"type": "occ",
				"energy": -0.20315,
				"method": "rhf"
			},
			{
				"type": "unocc",
				"energy": 0.0027,
				"method": "rhf"
			},
			{
				"type": "unocc",
				"energy": 0.0093,
				"method": "rhf"
			},
			{
				"type": "unocc",
				"energy": 0.01155,
				"method": "rhf"
			},
			{
				"type": "unocc",
				"energy": 0.0188,
				"method": "rhf"
			},
			{
				"type": "unocc",
				"energy": 0.07554,
				"method": "rhf"
			}
		],
		"cosmo_sigma_profile": { 
			"-0.025": 0.0,
			"-0.024": 0.0,
			"-0.023": 0.0,
			"-0.022": 0.0,
			"-0.021": 0.0,
			"-0.02": 0.0,
			"-0.019": 0.0,
			"-0.018": 0.0,
			"-0.017": 0.0,
			"-0.016": 0.0,
			"-0.015": 0.0,
			"-0.014": 0.0,
			"-0.013": 0.0,
			"-0.012": 0.0,
			"-0.011": 0.0,
			"-0.01": 0.0,
			"-0.009": 0.0,
			"-0.008": 0.0,
			"-0.007": 1.15352216451,
			"-0.006": 16.0646004983,
			"-0.005": 42.0674036048,
			"-0.004": 49.3306936832,
			"-0.003": 43.9474284418,
			"-0.002": 28.3893274604,
			"-0.001": 24.3741790441,
			"0.0": 22.4090500261,
			"0.001": 20.20526827,
			"0.002": 22.6363747398,
			"0.003": 27.8957507051,
			"0.004": 29.8604181382,
			"0.005": 27.4191554554,
			"0.006": 21.5537531689,
			"0.007": 8.04330849546,
			"0.008": 4.57075396309,
			"0.009": 3.88548238045,
			"0.01": 3.2133505949,
			"0.011": 2.02740143286,
			"0.012": 0.486408093304,
			"0.013": 0.01730624036,
			"0.014": 0.0,
			"0.015": 0.0,
			"0.016": 0.0,
			"0.017": 0.0,
			"0.018": 0.0,
			"0.019": 0.0,
			"0.02": 0.0,
			"0.021": 0.0,
			"0.022": 0.0,
			"0.023": 0.0,
			"0.024": 0.0,
			"0.025": 0.0
		}
	}
}
