{
	 "smiles": "OC(=O)C1=CC=C(C=C1)S(=O)(=O)N1CCCC1", 
	 "Tm": 517.15, 
	 "num_atms": 30, 
	 "gaussian": { 
		 "optdone": 1, 
		 "sigma_profile": "yes", 
		 "theory": "DFT", 
		 "functional": "B3LYP", 
		 "basiset": "6-31G**", 
		 "properties": { 
			 "R2extent": 5662.1384, 
			 "electric_dipole_moment_norm": 3.9122566084, 
			 "electric_quadrupole_moment_norm": 33.6154685392, 
			 "total_energy": -1180.77555325, 
			 "HOMO_LUMO_gap": 0.18196, 
			 "cosmo_polarized_energy": -22.64, 
			 "cosmo_cavitation_energy": 34.37, 
			 "cosmo_dispersion_energy": -25.09, 
			 "cosmo_repulsion_energy": 1.91, 
			 "cosmo_total_nonelectrostatic_energy": 11.19, 
			 "SMD_solvation_energy": 4.92 
		},
		"coords": [
			{
				"x": -0.287878311,
				"y": -5.751916843,
				"z": 1.8172264617,
				"element": "O" 
			},
			{
				"x": 0.6535930168,
				"y": -4.9956382003,
				"z": 1.195159636,
				"element": "C" 
			},
			{
				"x": 1.6396412384,
				"y": -5.5141528865,
				"z": 0.7287828213,
				"element": "O" 
			},
			{
				"x": 0.3949364985,
				"y": -3.517714832,
				"z": 1.1212379542,
				"element": "C" 
			},
			{
				"x": 1.4995276386,
				"y": -2.6753776386,
				"z": 0.9314127577,
				"element": "C" 
			},
			{
				"x": 1.3276552633,
				"y": -1.2973660567,
				"z": 0.8469858777,
				"element": "C" 
			},
			{
				"x": 0.0371034488,
				"y": -0.7617713672,
				"z": 0.9267756295,
				"element": "C" 
			},
			{
				"x": -1.0754577798,
				"y": -1.5870956684,
				"z": 1.1052436607,
				"element": "C" 
			},
			{
				"x": -0.8910719844,
				"y": -2.9655746782,
				"z": 1.2038802457,
				"element": "C" 
			},
			{
				"x": -0.2009264336,
				"y": 1.0173585928,
				"z": 0.7467289821,
				"element": "S" 
			},
			{
				"x": -1.5149769733,
				"y": 1.3256471579,
				"z": 1.3134667897,
				"element": "O" 
			},
			{
				"x": 1.0321269308,
				"y": 1.658600058,
				"z": 1.2055697242,
				"element": "O" 
			},
			{
				"x": -0.3075107914,
				"y": 1.3038231031,
				"z": -0.8831380087,
				"element": "N" 
			},
			{
				"x": -1.5339106953,
				"y": 0.9534460824,
				"z": -1.6395521038,
				"element": "C" 
			},
			{
				"x": -1.0336621636,
				"y": 0.8224504343,
				"z": -3.0929170736,
				"element": "C" 
			},
			{
				"x": 0.2876127277,
				"y": 1.6122549329,
				"z": -3.1163440985,
				"element": "C" 
			},
			{
				"x": 0.8930466021,
				"y": 1.3143124714,
				"z": -1.7406116885,
				"element": "C" 
			},
			{
				"x": -0.9197018493,
				"y": -5.1882277502,
				"z": 2.284865434,
				"element": "H" 
			},
			{
				"x": 2.4854940346,
				"y": -3.1218719887,
				"z": 0.8623133949,
				"element": "H" 
			},
			{
				"x": 2.180055751,
				"y": -0.6347002874,
				"z": 0.7459112009,
				"element": "H" 
			},
			{
				"x": -2.0628143821,
				"y": -1.1468730852,
				"z": 1.1882176448,
				"element": "H" 
			},
			{
				"x": -1.7647495327,
				"y": -3.6031917255,
				"z": 1.3135233197,
				"element": "H" 
			},
			{
				"x": -2.2732633869,
				"y": 1.7500358728,
				"z": -1.5171917696,
				"element": "H" 
			},
			{
				"x": -1.9828558444,
				"y": 0.0205946804,
				"z": -1.2799490139,
				"element": "H" 
			},
			{
				"x": -0.8406734967,
				"y": -0.2301126807,
				"z": -3.3270456777,
				"element": "H" 
			},
			{
				"x": -1.7676053573,
				"y": 1.1924377797,
				"z": -3.8132968218,
				"element": "H" 
			},
			{
				"x": 0.949777185,
				"y": 1.3151405713,
				"z": -3.9337592158,
				"element": "H" 
			},
			{
				"x": 0.09179246,
				"y": 2.6857513541,
				"z": -3.2076296529,
				"element": "H" 
			},
			{
				"x": 1.5953259081,
				"y": 2.0722200585,
				"z": -1.3908066505,
				"element": "H" 
			},
			{
				"x": 1.4013702783,
				"y": 0.3374125388,
				"z": -1.7423597595,
				"element": "H" 
			}
		],
		 "valence_orbital": [ 
			{
				"type": "occ",
				"energy": -0.30597,
				"method": "rhf"
			},
			{
				"type": "occ",
				"energy": -0.29382,
				"method": "rhf"
			},
			{
				"type": "occ",
				"energy": -0.2892,
				"method": "rhf"
			},
			{
				"type": "occ",
				"energy": -0.28083,
				"method": "rhf"
			},
			{
				"type": "occ",
				"energy": -0.25645,
				"method": "rhf"
			},
			{
				"type": "unocc",
				"energy": -0.07449,
				"method": "rhf"
			},
			{
				"type": "unocc",
				"energy": -0.04101,
				"method": "rhf"
			},
			{
				"type": "unocc",
				"energy": 0.02132,
				"method": "rhf"
			},
			{
				"type": "unocc",
				"energy": 0.04396,
				"method": "rhf"
			},
			{
				"type": "unocc",
				"energy": 0.06282,
				"method": "rhf"
			}
		],
		"cosmo_sigma_profile": { 
			"-0.025": 0.0,
			"-0.024": 0.0,
			"-0.023": 0.0,
			"-0.022": 0.0,
			"-0.021": 0.0,
			"-0.02": 0.0593746173912,
			"-0.019": 0.60225772321,
			"-0.018": 0.945751529427,
			"-0.017": 1.6112266226,
			"-0.016": 0.356743149359,
			"-0.015": 0.746428670439,
			"-0.014": 1.30400526387,
			"-0.013": 1.39692002758,
			"-0.012": 1.03774269187,
			"-0.011": 1.06728813355,
			"-0.01": 1.20049318421,
			"-0.009": 1.85808197932,
			"-0.008": 4.15425802695,
			"-0.007": 7.26193776498,
			"-0.006": 7.34661441868,
			"-0.005": 15.172312805,
			"-0.004": 33.1674147136,
			"-0.003": 30.9570393673,
			"-0.002": 24.5724715737,
			"-0.001": 18.9362718155,
			"0.0": 16.9372891037,
			"0.001": 16.9835764889,
			"0.002": 8.1462929129,
			"0.003": 4.97195809916,
			"0.004": 5.28174707888,
			"0.005": 8.20654279745,
			"0.006": 6.1775511772,
			"0.007": 5.39899000776,
			"0.008": 6.51451705805,
			"0.009": 6.619872248,
			"0.01": 12.8113395982,
			"0.011": 13.5821615008,
			"0.012": 6.67865745451,
			"0.013": 0.556324057921,
			"0.014": 0.0,
			"0.015": 0.0,
			"0.016": 0.0,
			"0.017": 0.0,
			"0.018": 0.0,
			"0.019": 0.0,
			"0.02": 0.0,
			"0.021": 0.0,
			"0.022": 0.0,
			"0.023": 0.0,
			"0.024": 0.0,
			"0.0": 0.0
		}
	}
}
