{
	 "smiles": "CC1=C(C(O)=O)C(=O)OC2=C1C=CC(F)=C2", 
	 "Tm": 443.15, 
	 "num_atms": 23, 
	 "gaussian": { 
		 "optdone": 1, 
		 "sigma_profile": "yes", 
		 "theory": "DFT", 
		 "functional": "B3LYP", 
		 "basiset": "6-31G**", 
		 "properties": { 
			 "R2extent": 4320.1597, 
			 "electric_dipole_moment_norm": 4.39978774715, 
			 "electric_quadrupole_moment_norm": 9.66762754299, 
			 "total_energy": -824.136404089, 
			 "HOMO_LUMO_gap": 0.16365, 
			 "cosmo_polarized_energy": -16.36, 
			 "cosmo_cavitation_energy": 28.59, 
			 "cosmo_dispersion_energy": -20.95, 
			 "cosmo_repulsion_energy": 1.58, 
			 "cosmo_total_nonelectrostatic_energy": 9.23, 
			 "SMD_solvation_energy": 7.66 
		},
		"coords": [
			{
				"x": 0.4695117573,
				"y": -2.2498838123,
				"z": 0.0463633564,
				"element": "C" 
			},
			{
				"x": 0.7819178214,
				"y": -0.8763189666,
				"z": 0.5799909048,
				"element": "C" 
			},
			{
				"x": 1.217797219,
				"y": -0.6493365225,
				"z": 1.8585057768,
				"element": "C" 
			},
			{
				"x": 1.4354135801,
				"y": -1.7662086466,
				"z": 2.8347505377,
				"element": "C" 
			},
			{
				"x": 0.8780989833,
				"y": -1.5123517409,
				"z": 4.0328625689,
				"element": "O" 
			},
			{
				"x": 2.0170213923,
				"y": -2.8041266656,
				"z": 2.5876445049,
				"element": "O" 
			},
			{
				"x": 1.5590540695,
				"y": 0.6975337555,
				"z": 2.3397153058,
				"element": "C" 
			},
			{
				"x": 2.0606577711,
				"y": 0.9743581924,
				"z": 3.4005012885,
				"element": "O" 
			},
			{
				"x": 1.3010164998,
				"y": 1.7507083269,
				"z": 1.4630538384,
				"element": "O" 
			},
			{
				"x": 0.8351127882,
				"y": 1.5570321578,
				"z": 0.2031491526,
				"element": "C" 
			},
			{
				"x": 0.5733231182,
				"y": 0.2655037701,
				"z": -0.2968236574,
				"element": "C" 
			},
			{
				"x": 0.1067235159,
				"y": 0.1624780325,
				"z": -1.6245633389,
				"element": "C" 
			},
			{
				"x": -0.0935594992,
				"y": 1.2852752419,
				"z": -2.412192048,
				"element": "C" 
			},
			{
				"x": 0.175859699,
				"y": 2.541888909,
				"z": -1.863130669,
				"element": "C" 
			},
			{
				"x": -0.0185211411,
				"y": 3.6327847555,
				"z": -2.6217669044,
				"element": "F" 
			},
			{
				"x": 0.6374462469,
				"y": 2.704013464,
				"z": -0.5678493119,
				"element": "C" 
			},
			{
				"x": 1.1001616464,
				"y": -2.4650490911,
				"z": -0.823525016,
				"element": "H" 
			},
			{
				"x": -0.5723453726,
				"y": -2.297890455,
				"z": -0.2891044399,
				"element": "H" 
			},
			{
				"x": 0.6487265054,
				"y": -3.0273644602,
				"z": 0.7838173709,
				"element": "H" 
			},
			{
				"x": 1.1071578963,
				"y": -2.2651480502,
				"z": 4.6040252167,
				"element": "H" 
			},
			{
				"x": -0.1009424724,
				"y": -0.815307661,
				"z": -2.0428542766,
				"element": "H" 
			},
			{
				"x": -0.4508299946,
				"y": 1.2121056159,
				"z": -3.4327114759,
				"element": "H" 
			},
			{
				"x": 0.8453979701,
				"y": 3.6852038506,
				"z": -0.1593586842,
				"element": "H" 
			}
		],
		 "valence_orbital": [ 
			{
				"type": "occ",
				"energy": -0.31492,
				"method": "rhf"
			},
			{
				"type": "occ",
				"energy": -0.28758,
				"method": "rhf"
			},
			{
				"type": "occ",
				"energy": -0.28051,
				"method": "rhf"
			},
			{
				"type": "occ",
				"energy": -0.26933,
				"method": "rhf"
			},
			{
				"type": "occ",
				"energy": -0.24582,
				"method": "rhf"
			},
			{
				"type": "unocc",
				"energy": -0.08217,
				"method": "rhf"
			},
			{
				"type": "unocc",
				"energy": -0.03027,
				"method": "rhf"
			},
			{
				"type": "unocc",
				"energy": -0.00953,
				"method": "rhf"
			},
			{
				"type": "unocc",
				"energy": 0.00341,
				"method": "rhf"
			},
			{
				"type": "unocc",
				"energy": 0.06954,
				"method": "rhf"
			}
		],
		"cosmo_sigma_profile": { 
			"-0.025": 0.0,
			"-0.024": 0.0,
			"-0.023": 0.0,
			"-0.022": 0.0,
			"-0.021": 0.0,
			"-0.02": 0.0,
			"-0.019": 0.179611138917,
			"-0.018": 1.19507166952,
			"-0.017": 0.802999954154,
			"-0.016": 0.603348924314,
			"-0.015": 1.20230196737,
			"-0.014": 0.827444538977,
			"-0.013": 0.527910012444,
			"-0.012": 0.536732161489,
			"-0.011": 0.643550547244,
			"-0.01": 0.491773392901,
			"-0.009": 1.41317745436,
			"-0.008": 6.11352572523,
			"-0.007": 10.0137769637,
			"-0.006": 13.6638383761,
			"-0.005": 10.5169121322,
			"-0.004": 14.0119139063,
			"-0.003": 14.1417222842,
			"-0.002": 18.0810764321,
			"-0.001": 22.6417927243,
			"0.0": 20.7549485534,
			"0.001": 14.4514118138,
			"0.002": 10.1830593543,
			"0.003": 12.6054413681,
			"0.004": 8.28367682083,
			"0.005": 4.47306554729,
			"0.006": 4.76551089641,
			"0.007": 4.1738240764,
			"0.008": 4.31559657748,
			"0.009": 5.01951993139,
			"0.01": 6.15032752185,
			"0.011": 9.80402047076,
			"0.012": 6.30095885505,
			"0.013": 1.10170370201,
			"0.014": 0.0,
			"0.015": 0.0,
			"0.016": 0.0,
			"0.017": 0.0,
			"0.018": 0.0,
			"0.019": 0.0,
			"0.02": 0.0,
			"0.021": 0.0,
			"0.022": 0.0,
			"0.023": 0.0,
			"0.024": 0.0,
			"0.025": 0.0
		}
	}
}
