{
	 "smiles": "NC1=CC=CC(I)=C1", 
	 "Tm": 306.15, 
	 "num_atms": 14, 
	 "gaussian": { 
		 "optdone": 1, 
		 "sigma_profile": "no", 
		 "theory": "DFT", 
		 "functional": "B3LYP", 
		 "basiset": "6-31G**", 
		 "properties": { 
			 "R2extent": 1366.6036, 
			 "electric_dipole_moment_norm": 3.16330357696, 
			 "electric_quadrupole_moment_norm": 14.222782026, 
			 "total_energy": -298.394014196, 
			 "HOMO_LUMO_gap": 0.17836, 
			 "cosmo_polarized_energy": -98368.65, 
			 "cosmo_cavitation_energy": 20.96, 
			 "cosmo_dispersion_energy": -17.18, 
			 "cosmo_repulsion_energy": 1.39, 
			 "cosmo_total_nonelectrostatic_energy": 5.17, 
			 "SMD_solvation_energy": 2.69 
		},
		"coords": [
			{
				"x": -3.4773719039,
				"y": 0.695694106,
				"z": 0.5412949966,
				"element": "N" 
			},
			{
				"x": -2.1870566812,
				"y": 0.4939504276,
				"z": 0.0559287732,
				"element": "C" 
			},
			{
				"x": -1.5610799934,
				"y": -0.7595301065,
				"z": 0.1725944612,
				"element": "C" 
			},
			{
				"x": -0.2519725615,
				"y": -0.9340416782,
				"z": -0.2646324878,
				"element": "C" 
			},
			{
				"x": 0.4737724934,
				"y": 0.1192047862,
				"z": -0.8279134042,
				"element": "C" 
			},
			{
				"x": -0.1580530653,
				"y": 1.3579510958,
				"z": -0.9385258711,
				"element": "C" 
			},
			{
				"x": 0.9026642886,
				"y": 2.9903654227,
				"z": -1.794444373,
				"element": "I" 
			},
			{
				"x": -1.4667235536,
				"y": 1.562226626,
				"z": -0.5101672092,
				"element": "C" 
			},
			{
				"x": -4.0518610285,
				"y": -0.1330547927,
				"z": 0.6046357539,
				"element": "H" 
			},
			{
				"x": -3.9774806582,
				"y": 1.4771740021,
				"z": 0.1411785926,
				"element": "H" 
			},
			{
				"x": -2.105611667,
				"y": -1.5912874798,
				"z": 0.6118105539,
				"element": "H" 
			},
			{
				"x": 0.2164261185,
				"y": -1.9096177328,
				"z": -0.1684111917,
				"element": "H" 
			},
			{
				"x": 1.4922788724,
				"y": -0.0242249,
				"z": -1.1670237907,
				"element": "H" 
			},
			{
				"x": -1.9341306602,
				"y": 2.5368902237,
				"z": -0.6038248037,
				"element": "H" 
			}
		],
		 "valence_orbital": [ 
			{
				"type": "occ",
				"energy": -0.32684,
				"method": "rhf"
			},
			{
				"type": "occ",
				"energy": -0.28205,
				"method": "rhf"
			},
			{
				"type": "occ",
				"energy": -0.26211,
				"method": "rhf"
			},
			{
				"type": "occ",
				"energy": -0.23746,
				"method": "rhf"
			},
			{
				"type": "occ",
				"energy": -0.21133,
				"method": "rhf"
			},
			{
				"type": "unocc",
				"energy": -0.03297,
				"method": "rhf"
			},
			{
				"type": "unocc",
				"energy": -0.01055,
				"method": "rhf"
			},
			{
				"type": "unocc",
				"energy": 0.00652,
				"method": "rhf"
			},
			{
				"type": "unocc",
				"energy": 0.04547,
				"method": "rhf"
			},
			{
				"type": "unocc",
				"energy": 0.05444,
				"method": "rhf"
			}
		],
		"cosmo_sigma_profile": { 
			"0.0": 0.0,
			"0.0": 0.0,
			"0.0": 0.0,
			"0.0": 0.0,
			"0.0": 0.0,
			"0.0": 0.0,
			"0.0": 0.0,
			"0.0": 0.0,
			"0.0": 0.0,
			"0.0": 0.0,
			"0.0": 0.0,
			"0.0": 0.0,
			"0.0": 0.0,
			"0.0": 0.0,
			"0.0": 0.0,
			"0.0": 0.0,
			"0.0": 0.0,
			"0.0": 0.0,
			"0.0": 0.0,
			"0.0": 0.0,
			"0.0": 0.0,
			"0.0": 0.0,
			"0.0": 0.0,
			"0.0": 0.0,
			"0.0": 0.0,
			"0.0": 0.0,
			"0.0": 0.0,
			"0.0": 0.0,
			"0.0": 0.0,
			"0.0": 0.0,
			"0.0": 0.0,
			"0.0": 0.0,
			"0.0": 0.0,
			"0.0": 0.0,
			"0.0": 0.0,
			"0.0": 0.0,
			"0.0": 0.0,
			"0.0": 0.0,
			"0.0": 0.0,
			"0.0": 0.0,
			"0.0": 0.0,
			"0.0": 0.0,
			"0.0": 0.0,
			"0.0": 0.0,
			"0.0": 0.0,
			"0.0": 0.0,
			"0.0": 0.0,
			"0.0": 0.0,
			"0.0": 0.0,
			"0.0": 0.0,
			"0.0": 0.0
		}
	}
}
