{
	 "smiles": "OC1=CC=CC=C1C=O", 
	 "Tm": 269.65, 
	 "num_atms": 15, 
	 "gaussian": { 
		 "optdone": 1, 
		 "sigma_profile": "yes", 
		 "theory": "DFT", 
		 "functional": "B3LYP", 
		 "basiset": "6-31G**", 
		 "properties": { 
			 "R2extent": 2034.3505, 
			 "electric_dipole_moment_norm": 2.13542017879, 
			 "electric_quadrupole_moment_norm": 15.5077793059, 
			 "total_energy": -420.792097368, 
			 "HOMO_LUMO_gap": 0.1735, 
			 "cosmo_polarized_energy": -10.84, 
			 "cosmo_cavitation_energy": 19.33, 
			 "cosmo_dispersion_energy": -14.52, 
			 "cosmo_repulsion_energy": 1.18, 
			 "cosmo_total_nonelectrostatic_energy": 5.99, 
			 "SMD_solvation_energy": 4.74 
		},
		"coords": [
			{
				"x": 0.2664444678,
				"y": -2.8761196556,
				"z": 0.537019129,
				"element": "O" 
			},
			{
				"x": 0.6721086,
				"y": -1.5792662009,
				"z": 0.6129980148,
				"element": "C" 
			},
			{
				"x": -0.1760509998,
				"y": -0.6374115256,
				"z": 0.0139839157,
				"element": "C" 
			},
			{
				"x": 0.1532167441,
				"y": 0.711245096,
				"z": 0.0402156161,
				"element": "C" 
			},
			{
				"x": 1.3318888281,
				"y": 1.153385839,
				"z": 0.6619169926,
				"element": "C" 
			},
			{
				"x": 2.1707420058,
				"y": 0.2247356572,
				"z": 1.2539604395,
				"element": "C" 
			},
			{
				"x": 1.8628852274,
				"y": -1.1510320292,
				"z": 1.2432338101,
				"element": "C" 
			},
			{
				"x": 2.7979080717,
				"y": -2.0835135637,
				"z": 1.8904582924,
				"element": "C" 
			},
			{
				"x": 3.8333512912,
				"y": -1.7617716649,
				"z": 2.4450854118,
				"element": "O" 
			},
			{
				"x": 0.9011734367,
				"y": -3.4603664595,
				"z": 0.9705035493,
				"element": "H" 
			},
			{
				"x": -1.08345879,
				"y": -0.9923860214,
				"z": -0.4628521697,
				"element": "H" 
			},
			{
				"x": -0.5140660588,
				"y": 1.4291571881,
				"z": -0.428299019,
				"element": "H" 
			},
			{
				"x": 1.5805866507,
				"y": 2.2094917274,
				"z": 0.6772327375,
				"element": "H" 
			},
			{
				"x": 3.0917117035,
				"y": 0.5217546057,
				"z": 1.7455289321,
				"element": "H" 
			},
			{
				"x": 2.5198588215,
				"y": -3.1653029927,
				"z": 1.8605143478,
				"element": "H" 
			}
		],
		 "valence_orbital": [ 
			{
				"type": "occ",
				"energy": -0.35494,
				"method": "rhf"
			},
			{
				"type": "occ",
				"energy": -0.34693,
				"method": "rhf"
			},
			{
				"type": "occ",
				"energy": -0.26615,
				"method": "rhf"
			},
			{
				"type": "occ",
				"energy": -0.26106,
				"method": "rhf"
			},
			{
				"type": "occ",
				"energy": -0.23976,
				"method": "rhf"
			},
			{
				"type": "unocc",
				"energy": -0.06626,
				"method": "rhf"
			},
			{
				"type": "unocc",
				"energy": -0.00405,
				"method": "rhf"
			},
			{
				"type": "unocc",
				"energy": 0.03627,
				"method": "rhf"
			},
			{
				"type": "unocc",
				"energy": 0.04351,
				"method": "rhf"
			},
			{
				"type": "unocc",
				"energy": 0.09653,
				"method": "rhf"
			}
		],
		"cosmo_sigma_profile": { 
			"-0.025": 0.0,
			"-0.024": 0.0,
			"-0.023": 0.0,
			"-0.022": 0.0,
			"-0.021": 0.0,
			"-0.02": 0.0,
			"-0.019": 0.0497361287416,
			"-0.018": 0.922973098818,
			"-0.017": 1.1822364772,
			"-0.016": 1.2102559505,
			"-0.015": 1.24614248741,
			"-0.014": 0.529970169734,
			"-0.013": 1.07142082764,
			"-0.012": 1.25288480095,
			"-0.011": 1.68528638797,
			"-0.01": 1.40452160685,
			"-0.009": 0.564921103424,
			"-0.008": 1.59686844515,
			"-0.007": 4.28258833524,
			"-0.006": 8.58389153817,
			"-0.005": 9.50297823809,
			"-0.004": 9.2662289412,
			"-0.003": 8.62238758095,
			"-0.002": 8.61540688386,
			"-0.001": 7.44601918899,
			"0.0": 7.69535167407,
			"0.001": 10.3682854748,
			"0.002": 13.8364680218,
			"0.003": 14.6325672808,
			"0.004": 10.9654869862,
			"0.005": 4.35993410382,
			"0.006": 2.32168696547,
			"0.007": 2.22448778305,
			"0.008": 4.11672161126,
			"0.009": 3.12838849136,
			"0.01": 4.23537515595,
			"0.011": 4.25684078359,
			"0.012": 3.13401617973,
			"0.013": 0.896022319684,
			"0.014": 0.00247872642612,
			"0.015": 0.0,
			"0.016": 0.0,
			"0.017": 0.0,
			"0.018": 0.0,
			"0.019": 0.0,
			"0.02": 0.0,
			"0.021": 0.0,
			"0.022": 0.0,
			"0.023": 0.0,
			"0.024": 0.0,
			"0.025": 0.0
		}
	}
}
