{
	 "smiles": "OC(=O)CC1=C2N=CC=CC2=CC=C1", 
	 "Tm": 404.15, 
	 "num_atms": 23, 
	 "gaussian": { 
		 "optdone": 1, 
		 "sigma_profile": "yes", 
		 "theory": "DFT", 
		 "functional": "B3LYP", 
		 "basiset": "6-31G**", 
		 "properties": { 
			 "R2extent": 2692.8695, 
			 "electric_dipole_moment_norm": 1.74154691295, 
			 "electric_quadrupole_moment_norm": 13.9501567876, 
			 "total_energy": -629.81803512, 
			 "HOMO_LUMO_gap": 0.17651, 
			 "cosmo_polarized_energy": -13.71, 
			 "cosmo_cavitation_energy": 27.56, 
			 "cosmo_dispersion_energy": -19.89, 
			 "cosmo_repulsion_energy": 1.57, 
			 "cosmo_total_nonelectrostatic_energy": 9.24, 
			 "SMD_solvation_energy": 4.8 
		},
		"coords": [
			{
				"x": -0.1978301231,
				"y": 0.7009279867,
				"z": -3.8200430513,
				"element": "O" 
			},
			{
				"x": -0.8185684631,
				"y": 0.3983552146,
				"z": -2.6524701916,
				"element": "C" 
			},
			{
				"x": -1.8344156581,
				"y": 0.9467558071,
				"z": -2.2930094036,
				"element": "O" 
			},
			{
				"x": -0.0910702306,
				"y": -0.7257291259,
				"z": -1.9314047445,
				"element": "C" 
			},
			{
				"x": -0.4853233553,
				"y": -0.8594012902,
				"z": -0.4840742442,
				"element": "C" 
			},
			{
				"x": -0.0381462245,
				"y": 0.1240129159,
				"z": 0.4527531049,
				"element": "C" 
			},
			{
				"x": 0.7336227633,
				"y": 1.1494618077,
				"z": -0.0093434728,
				"element": "N" 
			},
			{
				"x": 1.1413205079,
				"y": 2.0589798687,
				"z": 0.8533623216,
				"element": "C" 
			},
			{
				"x": 0.8286872213,
				"y": 2.0384505188,
				"z": 2.2347720754,
				"element": "C" 
			},
			{
				"x": 0.0571246536,
				"y": 1.0083791931,
				"z": 2.718957018,
				"element": "C" 
			},
			{
				"x": -0.4060089539,
				"y": 0.004915549,
				"z": 1.8305546198,
				"element": "C" 
			},
			{
				"x": -1.2058832058,
				"y": -1.0912154569,
				"z": 2.2483969609,
				"element": "C" 
			},
			{
				"x": -1.6206230811,
				"y": -2.0290175323,
				"z": 1.3324821758,
				"element": "C" 
			},
			{
				"x": -1.25784206,
				"y": -1.9084464086,
				"z": -0.0316023437,
				"element": "C" 
			},
			{
				"x": -0.7322132261,
				"y": 1.4014575857,
				"z": -4.2300784142,
				"element": "H" 
			},
			{
				"x": 0.9815022831,
				"y": -0.541239486,
				"z": -2.0335122266,
				"element": "H" 
			},
			{
				"x": -0.3130343109,
				"y": -1.6516723858,
				"z": -2.4756179608,
				"element": "H" 
			},
			{
				"x": 1.7558993066,
				"y": 2.8646853371,
				"z": 0.4529353909,
				"element": "H" 
			},
			{
				"x": 1.1989203828,
				"y": 2.8240958204,
				"z": 2.8856952462,
				"element": "H" 
			},
			{
				"x": -0.2056772143,
				"y": 0.9499868603,
				"z": 3.7723507778,
				"element": "H" 
			},
			{
				"x": -1.4822000401,
				"y": -1.1748540323,
				"z": 3.2963166981,
				"element": "H" 
			},
			{
				"x": -2.2320698259,
				"y": -2.869011048,
				"z": 1.6484715511,
				"element": "H" 
			},
			{
				"x": -1.6013711457,
				"y": -2.6604776992,
				"z": -0.7371918875,
				"element": "H" 
			}
		],
		 "valence_orbital": [ 
			{
				"type": "occ",
				"energy": -0.30129,
				"method": "rhf"
			},
			{
				"type": "occ",
				"energy": -0.26643,
				"method": "rhf"
			},
			{
				"type": "occ",
				"energy": -0.25532,
				"method": "rhf"
			},
			{
				"type": "occ",
				"energy": -0.25141,
				"method": "rhf"
			},
			{
				"type": "occ",
				"energy": -0.23024,
				"method": "rhf"
			},
			{
				"type": "unocc",
				"energy": -0.05373,
				"method": "rhf"
			},
			{
				"type": "unocc",
				"energy": -0.01658,
				"method": "rhf"
			},
			{
				"type": "unocc",
				"energy": 0.01625,
				"method": "rhf"
			},
			{
				"type": "unocc",
				"energy": 0.02502,
				"method": "rhf"
			},
			{
				"type": "unocc",
				"energy": 0.08549,
				"method": "rhf"
			}
		],
		"cosmo_sigma_profile": { 
			"-0.025": 0.0,
			"-0.024": 0.0,
			"-0.023": 0.0,
			"-0.022": 0.0,
			"-0.021": 0.0,
			"-0.02": 0.0,
			"-0.019": 0.0,
			"-0.018": 0.524033793142,
			"-0.017": 0.846214913088,
			"-0.016": 1.17157558708,
			"-0.015": 0.724473324535,
			"-0.014": 0.491005730913,
			"-0.013": 0.772161745688,
			"-0.012": 0.641057305457,
			"-0.011": 1.05850177986,
			"-0.01": 0.646641022355,
			"-0.009": 0.495702725456,
			"-0.008": 0.912204656205,
			"-0.007": 11.2633492739,
			"-0.006": 18.0870993648,
			"-0.005": 16.0432802728,
			"-0.004": 14.7375817628,
			"-0.003": 11.9172302912,
			"-0.002": 11.9082151024,
			"-0.001": 11.4446562678,
			"0.0": 10.6638613781,
			"0.001": 14.3683665057,
			"0.002": 22.2041949835,
			"0.003": 16.8449294118,
			"0.004": 10.8760346576,
			"0.005": 6.12516726913,
			"0.006": 4.50015885523,
			"0.007": 5.63493248543,
			"0.008": 5.68922307111,
			"0.009": 4.96575332407,
			"0.01": 4.06250735304,
			"0.011": 4.84631071252,
			"0.012": 5.16683821195,
			"0.013": 0.719695422475,
			"0.014": 0.0,
			"0.015": 0.0,
			"0.016": 0.0,
			"0.017": 0.0,
			"0.018": 0.0,
			"0.019": 0.0,
			"0.02": 0.0,
			"0.021": 0.0,
			"0.022": 0.0,
			"0.023": 0.0,
			"0.024": 0.0,
			"0.025": 0.0
		}
	}
}
