{
	 "smiles": "CCCCCCCCCCCCCCCCCOC(=O)C1=CC=C(C=NC2=CC=C(F)C=C2)C(O)=C1", 
	 "Tm": 368.55, 
	 "num_atms": 80, 
	 "gaussian": { 
		 "optdone": 1, 
		 "sigma_profile": "yes", 
		 "theory": "DFT", 
		 "functional": "B3LYP", 
		 "basiset": "6-31G**", 
		 "properties": { 
			 "R2extent": 48371.2687, 
			 "electric_dipole_moment_norm": 2.29727545149, 
			 "electric_quadrupole_moment_norm": 23.7054418018, 
			 "total_energy": -1588.12725684, 
			 "HOMO_LUMO_gap": 0.1398, 
			 "cosmo_polarized_energy": -14.61, 
			 "cosmo_cavitation_energy": 81.5, 
			 "cosmo_dispersion_energy": -54.2, 
			 "cosmo_repulsion_energy": 4.15, 
			 "cosmo_total_nonelectrostatic_energy": 31.46, 
			 "SMD_solvation_energy": 12.1 
		},
		"coords": [
			{
				"x": 6.9180067892,
				"y": -7.1517829835,
				"z": -0.0365077981,
				"element": "C" 
			},
			{
				"x": 5.5283093777,
				"y": -6.8966392228,
				"z": 0.5582947554,
				"element": "C" 
			},
			{
				"x": 5.3877959448,
				"y": -5.5506866357,
				"z": 1.2901128805,
				"element": "C" 
			},
			{
				"x": 5.5564358462,
				"y": -4.2660174953,
				"z": 0.4550554361,
				"element": "C" 
			},
			{
				"x": 4.4803611766,
				"y": -4.0120597474,
				"z": -0.6251583912,
				"element": "C" 
			},
			{
				"x": 4.8101340589,
				"y": -4.5679815712,
				"z": -2.0208104423,
				"element": "C" 
			},
			{
				"x": 3.7097261951,
				"y": -4.3471331654,
				"z": -3.0735780231,
				"element": "C" 
			},
			{
				"x": 3.455462077,
				"y": -2.8760330306,
				"z": -3.4365637233,
				"element": "C" 
			},
			{
				"x": 2.4992929214,
				"y": -2.6717692468,
				"z": -4.6249520653,
				"element": "C" 
			},
			{
				"x": 1.0433990592,
				"y": -3.1522047561,
				"z": -4.4627262997,
				"element": "C" 
			},
			{
				"x": 0.1910402674,
				"y": -2.4036134421,
				"z": -3.4142461565,
				"element": "C" 
			},
			{
				"x": 0.2162693832,
				"y": -2.990266958,
				"z": -1.9942053699,
				"element": "C" 
			},
			{
				"x": -0.6804587388,
				"y": -2.2267604405,
				"z": -1.0104265978,
				"element": "C" 
			},
			{
				"x": -0.6765260831,
				"y": -2.8280297433,
				"z": 0.402464029,
				"element": "C" 
			},
			{
				"x": -1.501821811,
				"y": -2.0472054234,
				"z": 1.4383627835,
				"element": "C" 
			},
			{
				"x": -3.014985539,
				"y": -2.0592685283,
				"z": 1.1801976139,
				"element": "C" 
			},
			{
				"x": -3.8280091864,
				"y": -1.3354365898,
				"z": 2.2493976274,
				"element": "C" 
			},
			{
				"x": -3.4646984153,
				"y": 0.0640303065,
				"z": 2.348186273,
				"element": "O" 
			},
			{
				"x": -4.0974298029,
				"y": 0.9144482767,
				"z": 1.5114451199,
				"element": "C" 
			},
			{
				"x": -4.9411704454,
				"y": 0.5693489062,
				"z": 0.7043585359,
				"element": "O" 
			},
			{
				"x": -3.6483479,
				"y": 2.3260614481,
				"z": 1.6930882857,
				"element": "C" 
			},
			{
				"x": -2.6735329171,
				"y": 2.6990477105,
				"z": 2.631797541,
				"element": "C" 
			},
			{
				"x": -2.307529785,
				"y": 4.0333264245,
				"z": 2.7400926156,
				"element": "C" 
			},
			{
				"x": -2.8924069412,
				"y": 5.0249019619,
				"z": 1.9334885557,
				"element": "C" 
			},
			{
				"x": -2.5048679627,
				"y": 6.4337370167,
				"z": 2.0540310246,
				"element": "C" 
			},
			{
				"x": -1.6294134913,
				"y": 6.8175039922,
				"z": 2.9115313245,
				"element": "N" 
			},
			{
				"x": -1.2360996594,
				"y": 8.164928477,
				"z": 2.9658154911,
				"element": "C" 
			},
			{
				"x": -1.1394526163,
				"y": 9.0021387319,
				"z": 1.8380843736,
				"element": "C" 
			},
			{
				"x": -0.7206651066,
				"y": 10.3244950413,
				"z": 1.967907546,
				"element": "C" 
			},
			{
				"x": -0.4016947425,
				"y": 10.8087795732,
				"z": 3.2319537508,
				"element": "C" 
			},
			{
				"x": 0.0039349293,
				"y": 12.090130367,
				"z": 3.3598103288,
				"element": "F" 
			},
			{
				"x": -0.4694667044,
				"y": 10.0041354736,
				"z": 4.3652779503,
				"element": "C" 
			},
			{
				"x": -0.8709978397,
				"y": 8.679628074,
				"z": 4.2224602289,
				"element": "C" 
			},
			{
				"x": -3.8725064959,
				"y": 4.6330028511,
				"z": 0.9940885091,
				"element": "C" 
			},
			{
				"x": -4.4322157193,
				"y": 5.6048814943,
				"z": 0.21516382,
				"element": "O" 
			},
			{
				"x": -4.2424773232,
				"y": 3.2940437726,
				"z": 0.8786530154,
				"element": "C" 
			},
			{
				"x": 7.1717547401,
				"y": -6.4227252692,
				"z": -0.8128147639,
				"element": "H" 
			},
			{
				"x": 7.6930534337,
				"y": -7.0927281823,
				"z": 0.7367479862,
				"element": "H" 
			},
			{
				"x": 6.9770682093,
				"y": -8.1470645821,
				"z": -0.4895503942,
				"element": "H" 
			},
			{
				"x": 4.767936674,
				"y": -6.9767691108,
				"z": -0.2286793335,
				"element": "H" 
			},
			{
				"x": 5.2977779351,
				"y": -7.6971694507,
				"z": 1.2734487422,
				"element": "H" 
			},
			{
				"x": 6.1228311434,
				"y": -5.5259588642,
				"z": 2.1070952266,
				"element": "H" 
			},
			{
				"x": 4.4015083962,
				"y": -5.5174166389,
				"z": 1.7735160919,
				"element": "H" 
			},
			{
				"x": 6.55161285,
				"y": -4.2436539949,
				"z": -0.0090259833,
				"element": "H" 
			},
			{
				"x": 5.5459071179,
				"y": -3.4258109722,
				"z": 1.1607029756,
				"element": "H" 
			},
			{
				"x": 4.3245039261,
				"y": -2.9300186511,
				"z": -0.7117943321,
				"element": "H" 
			},
			{
				"x": 3.5189686228,
				"y": -4.4253378422,
				"z": -0.2858726298,
				"element": "H" 
			},
			{
				"x": 5.0132436554,
				"y": -5.6427685629,
				"z": -1.9516588732,
				"element": "H" 
			},
			{
				"x": 5.7440943322,
				"y": -4.106835188,
				"z": -2.3738973686,
				"element": "H" 
			},
			{
				"x": 3.9885424958,
				"y": -4.8872047214,
				"z": -3.9892482743,
				"element": "H" 
			},
			{
				"x": 2.7798185081,
				"y": -4.8131296858,
				"z": -2.7210179202,
				"element": "H" 
			},
			{
				"x": 3.0838396548,
				"y": -2.3264575165,
				"z": -2.563615453,
				"element": "H" 
			},
			{
				"x": 4.4177869189,
				"y": -2.4101074566,
				"z": -3.6920483306,
				"element": "H" 
			},
			{
				"x": 2.9286226069,
				"y": -3.1772757674,
				"z": -5.5014869059,
				"element": "H" 
			},
			{
				"x": 2.4795991405,
				"y": -1.6022877937,
				"z": -4.8763525761,
				"element": "H" 
			},
			{
				"x": 0.5623238239,
				"y": -3.0379960658,
				"z": -5.442336138,
				"element": "H" 
			},
			{
				"x": 1.0206074557,
				"y": -4.2294947318,
				"z": -4.2504497047,
				"element": "H" 
			},
			{
				"x": 0.4985383626,
				"y": -1.3483596659,
				"z": -3.3809427814,
				"element": "H" 
			},
			{
				"x": -0.8539618265,
				"y": -2.3955063328,
				"z": -3.752284773,
				"element": "H" 
			},
			{
				"x": -0.1077093072,
				"y": -4.04020681,
				"z": -2.0378201939,
				"element": "H" 
			},
			{
				"x": 1.2414382895,
				"y": -3.0073068864,
				"z": -1.6046262958,
				"element": "H" 
			},
			{
				"x": -0.3511027439,
				"y": -1.1789417671,
				"z": -0.9566277823,
				"element": "H" 
			},
			{
				"x": -1.7043146221,
				"y": -2.2021881378,
				"z": -1.4067268779,
				"element": "H" 
			},
			{
				"x": -1.0381166856,
				"y": -3.8656190906,
				"z": 0.3568064313,
				"element": "H" 
			},
			{
				"x": 0.3615581887,
				"y": -2.8866380656,
				"z": 0.7564346537,
				"element": "H" 
			},
			{
				"x": -1.1505586055,
				"y": -1.008342904,
				"z": 1.4776394107,
				"element": "H" 
			},
			{
				"x": -1.3119565481,
				"y": -2.470391246,
				"z": 2.4345411736,
				"element": "H" 
			},
			{
				"x": -3.2529515349,
				"y": -1.6153060293,
				"z": 0.208077296,
				"element": "H" 
			},
			{
				"x": -3.3756994289,
				"y": -3.0970268951,
				"z": 1.1448663566,
				"element": "H" 
			},
			{
				"x": -3.6218102553,
				"y": -1.7368776026,
				"z": 3.2456103624,
				"element": "H" 
			},
			{
				"x": -4.8978629576,
				"y": -1.4043859014,
				"z": 2.0401341726,
				"element": "H" 
			},
			{
				"x": -2.2163591876,
				"y": 1.9452276794,
				"z": 3.2608127965,
				"element": "H" 
			},
			{
				"x": -1.5569854435,
				"y": 4.3512401445,
				"z": 3.4556931793,
				"element": "H" 
			},
			{
				"x": -3.0144969367,
				"y": 7.1330627139,
				"z": 1.3826414945,
				"element": "H" 
			},
			{
				"x": -1.3599567662,
				"y": 8.6065516366,
				"z": 0.8516633234,
				"element": "H" 
			},
			{
				"x": -0.6278131493,
				"y": 10.9770783983,
				"z": 1.1063350024,
				"element": "H" 
			},
			{
				"x": -0.1992307183,
				"y": 10.4158624563,
				"z": 5.3316715454,
				"element": "H" 
			},
			{
				"x": -0.9234929543,
				"y": 8.0206382417,
				"z": 5.0828143693,
				"element": "H" 
			},
			{
				"x": -5.0845324863,
				"y": 5.2027706286,
				"z": -0.3730916111,
				"element": "H" 
			},
			{
				"x": -4.9944171229,
				"y": 2.9784955644,
				"z": 0.1603721583,
				"element": "H" 
			}
		],
		 "valence_orbital": [ 
			{
				"type": "occ",
				"energy": -0.27701,
				"method": "rhf"
			},
			{
				"type": "occ",
				"energy": -0.2609,
				"method": "rhf"
			},
			{
				"type": "occ",
				"energy": -0.25733,
				"method": "rhf"
			},
			{
				"type": "occ",
				"energy": -0.24084,
				"method": "rhf"
			},
			{
				"type": "occ",
				"energy": -0.21552,
				"method": "rhf"
			},
			{
				"type": "unocc",
				"energy": -0.07572,
				"method": "rhf"
			},
			{
				"type": "unocc",
				"energy": -0.01408,
				"method": "rhf"
			},
			{
				"type": "unocc",
				"energy": -0.00931,
				"method": "rhf"
			},
			{
				"type": "unocc",
				"energy": -0.00181,
				"method": "rhf"
			},
			{
				"type": "unocc",
				"energy": 0.03313,
				"method": "rhf"
			}
		],
		"cosmo_sigma_profile": { 
			"-0.025": 0.0,
			"-0.024": 0.0,
			"-0.023": 0.0,
			"-0.022": 0.0,
			"-0.021": 0.0,
			"-0.02": 0.0,
			"-0.019": 0.267759098595,
			"-0.018": 1.30299929005,
			"-0.017": 1.13343556854,
			"-0.016": 1.09322617229,
			"-0.015": 0.734621181732,
			"-0.014": 0.939757023125,
			"-0.013": 0.673687305318,
			"-0.012": 1.02637239376,
			"-0.011": 1.76221003313,
			"-0.01": 0.853982612726,
			"-0.009": 0.937202264876,
			"-0.008": 1.34797438917,
			"-0.007": 6.8167707231,
			"-0.006": 10.2683348354,
			"-0.005": 16.312138857,
			"-0.004": 20.1194453703,
			"-0.003": 24.1365013659,
			"-0.002": 57.4571601651,
			"-0.001": 107.62565617,
			"0.0": 119.366367735,
			"0.001": 101.536761766,
			"0.002": 61.7779967377,
			"0.003": 31.7337811127,
			"0.004": 26.5151174195,
			"0.005": 12.4558341633,
			"0.006": 5.28930900603,
			"0.007": 5.17235765109,
			"0.008": 4.46478897329,
			"0.009": 3.02198903967,
			"0.01": 3.04700990123,
			"0.011": 2.9901049829,
			"0.012": 3.43412105419,
			"0.013": 0.0172702500555,
			"0.014": 0.0,
			"0.015": 0.0,
			"0.016": 0.0,
			"0.017": 0.0,
			"0.018": 0.0,
			"0.019": 0.0,
			"0.02": 0.0,
			"0.021": 0.0,
			"0.022": 0.0,
			"0.023": 0.0,
			"0.024": 0.0,
			"0.025": 0.0
		}
	}
}
