{
	 "smiles": "CC1=C(CC(O)=O)C(C)=NO1", 
	 "Tm": 391.15, 
	 "num_atms": 20, 
	 "gaussian": { 
		 "optdone": 1, 
		 "sigma_profile": "yes", 
		 "theory": "DFT", 
		 "functional": "B3LYP", 
		 "basiset": "6-31G**", 
		 "properties": { 
			 "R2extent": 1836.0993, 
			 "electric_dipole_moment_norm": 2.72150086901, 
			 "electric_quadrupole_moment_norm": 12.403095741, 
			 "total_energy": -552.57013136, 
			 "HOMO_LUMO_gap": 0.23505, 
			 "cosmo_polarized_energy": -13.3, 
			 "cosmo_cavitation_energy": 24.79, 
			 "cosmo_dispersion_energy": -17.38, 
			 "cosmo_repulsion_energy": 1.42, 
			 "cosmo_total_nonelectrostatic_energy": 8.83, 
			 "SMD_solvation_energy": 5.55 
		},
		"coords": [
			{
				"x": 0.8912996335,
				"y": 1.698574901,
				"z": 1.4684645949,
				"element": "C" 
			},
			{
				"x": 0.7626227049,
				"y": 0.2293748983,
				"z": 1.2546757742,
				"element": "C" 
			},
			{
				"x": 0.4482244798,
				"y": -0.5323209102,
				"z": 0.1634449797,
				"element": "C" 
			},
			{
				"x": 0.1015719297,
				"y": -0.0675071818,
				"z": -1.2269913478,
				"element": "C" 
			},
			{
				"x": -1.338379861,
				"y": 0.4143127795,
				"z": -1.2856972187,
				"element": "C" 
			},
			{
				"x": -2.2003998028,
				"y": -0.6007336592,
				"z": -1.5288879002,
				"element": "O" 
			},
			{
				"x": -1.7005529565,
				"y": 1.5552310401,
				"z": -1.1001416769,
				"element": "O" 
			},
			{
				"x": 0.4911477528,
				"y": -1.8755555243,
				"z": 0.6584833895,
				"element": "C" 
			},
			{
				"x": 0.2118024997,
				"y": -3.1432310919,
				"z": -0.087216566,
				"element": "C" 
			},
			{
				"x": 0.8171019554,
				"y": -1.9125003951,
				"z": 1.9306810609,
				"element": "N" 
			},
			{
				"x": 0.992053149,
				"y": -0.5738520932,
				"z": 2.3130574896,
				"element": "O" 
			},
			{
				"x": 0.37072268,
				"y": 2.2395047776,
				"z": 0.6755210084,
				"element": "H" 
			},
			{
				"x": 0.4516443768,
				"y": 1.9818744761,
				"z": 2.4289976894,
				"element": "H" 
			},
			{
				"x": 1.9426975967,
				"y": 2.0090128381,
				"z": 1.4804949392,
				"element": "H" 
			},
			{
				"x": 0.7351984166,
				"y": 0.7698723363,
				"z": -1.52905615,
				"element": "H" 
			},
			{
				"x": 0.2427513405,
				"y": -0.8825705188,
				"z": -1.9416192426,
				"element": "H" 
			},
			{
				"x": -3.0935870224,
				"y": -0.2178049281,
				"z": -1.49202412,
				"element": "H" 
			},
			{
				"x": -0.7927837497,
				"y": -3.122448023,
				"z": -0.5220429976,
				"element": "H" 
			},
			{
				"x": 0.288801226,
				"y": -3.9976882606,
				"z": 0.5878253988,
				"element": "H" 
			},
			{
				"x": 0.9247636509,
				"y": -3.2843454609,
				"z": -0.9074691048,
				"element": "H" 
			}
		],
		 "valence_orbital": [ 
			{
				"type": "occ",
				"energy": -0.32925,
				"method": "rhf"
			},
			{
				"type": "occ",
				"energy": -0.2992,
				"method": "rhf"
			},
			{
				"type": "occ",
				"energy": -0.29045,
				"method": "rhf"
			},
			{
				"type": "occ",
				"energy": -0.27661,
				"method": "rhf"
			},
			{
				"type": "occ",
				"energy": -0.24513,
				"method": "rhf"
			},
			{
				"type": "unocc",
				"energy": -0.01008,
				"method": "rhf"
			},
			{
				"type": "unocc",
				"energy": 0.00149,
				"method": "rhf"
			},
			{
				"type": "unocc",
				"energy": 0.05868,
				"method": "rhf"
			},
			{
				"type": "unocc",
				"energy": 0.06574,
				"method": "rhf"
			},
			{
				"type": "unocc",
				"energy": 0.09538,
				"method": "rhf"
			}
		],
		"cosmo_sigma_profile": { 
			"-0.025": 0.0,
			"-0.024": 0.0,
			"-0.023": 0.0,
			"-0.022": 0.0,
			"-0.021": 0.0,
			"-0.02": 0.0,
			"-0.019": 0.132152789304,
			"-0.018": 1.10550375746,
			"-0.017": 0.597141578606,
			"-0.016": 0.959935641721,
			"-0.015": 0.798829953893,
			"-0.014": 0.588964523035,
			"-0.013": 0.437764944967,
			"-0.012": 1.09691382552,
			"-0.011": 0.742897568314,
			"-0.01": 0.482524115004,
			"-0.009": 0.405810507113,
			"-0.008": 0.919374500433,
			"-0.007": 3.31496268294,
			"-0.006": 11.0040860049,
			"-0.005": 14.9256731399,
			"-0.004": 17.0305651833,
			"-0.003": 16.9360956004,
			"-0.002": 19.2950725684,
			"-0.001": 18.574290147,
			"0.0": 12.5418253056,
			"0.001": 11.4137895906,
			"0.002": 8.36056565757,
			"0.003": 5.99833816126,
			"0.004": 4.57987329081,
			"0.005": 5.55386048926,
			"0.006": 4.47407929362,
			"0.007": 4.81366763428,
			"0.008": 6.06611369749,
			"0.009": 5.9968991414,
			"0.01": 3.37815904674,
			"0.011": 5.94933190666,
			"0.012": 4.44531157862,
			"0.013": 0.865057128748,
			"0.014": 1.52107551012,
			"0.015": 0.659042875316,
			"0.016": 0.0179341628147,
			"0.017": 0.0,
			"0.018": 0.0,
			"0.019": 0.0,
			"0.02": 0.0,
			"0.021": 0.0,
			"0.022": 0.0,
			"0.023": 0.0,
			"0.024": 0.0,
			"0.025": 0.0
		}
	}
}
