{
	 "smiles": "C1CCC(CC1)NC1=NCCCS1", 
	 "Tm": 386.15, 
	 "num_atms": 31, 
	 "gaussian": { 
		 "optdone": 1, 
		 "sigma_profile": "yes", 
		 "theory": "DFT", 
		 "functional": "B3LYP", 
		 "basiset": "6-31G**", 
		 "properties": { 
			 "R2extent": 3523.3684, 
			 "electric_dipole_moment_norm": 1.04083468908, 
			 "electric_quadrupole_moment_norm": 9.1917018892, 
			 "total_energy": -899.603928468, 
			 "HOMO_LUMO_gap": 0.23942, 
			 "cosmo_polarized_energy": -7.41, 
			 "cosmo_cavitation_energy": 31.33, 
			 "cosmo_dispersion_energy": -23.89, 
			 "cosmo_repulsion_energy": 1.87, 
			 "cosmo_total_nonelectrostatic_energy": 9.32, 
			 "SMD_solvation_energy": 0.23 
		},
		"coords": [
			{
				"x": -2.8779446243,
				"y": 2.0376278733,
				"z": 1.8549444719,
				"element": "C" 
			},
			{
				"x": -2.4287357029,
				"y": 2.0248864437,
				"z": 0.3873924522,
				"element": "C" 
			},
			{
				"x": -0.9465269674,
				"y": 1.603222392,
				"z": 0.257251996,
				"element": "C" 
			},
			{
				"x": -0.5256682488,
				"y": 0.594488282,
				"z": 1.3599734331,
				"element": "C" 
			},
			{
				"x": -1.7211241812,
				"y": -0.2657387378,
				"z": 1.8038736743,
				"element": "C" 
			},
			{
				"x": -2.7944660998,
				"y": 0.621313902,
				"z": 2.4804969161,
				"element": "C" 
			},
			{
				"x": 0.6984605757,
				"y": -0.168742822,
				"z": 1.048085043,
				"element": "N" 
			},
			{
				"x": 1.0057883712,
				"y": -0.8348358142,
				"z": -0.1323233117,
				"element": "C" 
			},
			{
				"x": 2.204469159,
				"y": -0.7776236981,
				"z": -0.5677566439,
				"element": "N" 
			},
			{
				"x": 2.7138069145,
				"y": -1.5606093816,
				"z": -1.6785449299,
				"element": "C" 
			},
			{
				"x": 1.8789550415,
				"y": -2.7667677883,
				"z": -2.1231304253,
				"element": "C" 
			},
			{
				"x": 0.4243796556,
				"y": -2.3756408292,
				"z": -2.3638306877,
				"element": "C" 
			},
			{
				"x": -0.3682370693,
				"y": -1.8043791907,
				"z": -0.8076485566,
				"element": "S" 
			},
			{
				"x": -3.8974547252,
				"y": 2.4291086948,
				"z": 1.943463625,
				"element": "H" 
			},
			{
				"x": -2.2379808579,
				"y": 2.732703995,
				"z": 2.4147297435,
				"element": "H" 
			},
			{
				"x": -3.0613156644,
				"y": 1.3243174857,
				"z": -0.1725414317,
				"element": "H" 
			},
			{
				"x": -2.5802937127,
				"y": 3.007663955,
				"z": -0.0730430789,
				"element": "H" 
			},
			{
				"x": -0.7791557856,
				"y": 1.1543671409,
				"z": -0.7265162304,
				"element": "H" 
			},
			{
				"x": -0.2933064344,
				"y": 2.4824844035,
				"z": 0.3169969123,
				"element": "H" 
			},
			{
				"x": -0.2319077637,
				"y": 1.1702858932,
				"z": 2.2464400746,
				"element": "H" 
			},
			{
				"x": -2.1544373602,
				"y": -0.7743417612,
				"z": 0.9369427723,
				"element": "H" 
			},
			{
				"x": -1.3764356909,
				"y": -1.0474641509,
				"z": 2.4878846243,
				"element": "H" 
			},
			{
				"x": -2.5812624047,
				"y": 0.7093147145,
				"z": 3.5526948323,
				"element": "H" 
			},
			{
				"x": -3.7665998442,
				"y": 0.1213200966,
				"z": 2.4024857186,
				"element": "H" 
			},
			{
				"x": 1.5452983734,
				"y": 0.2932497752,
				"z": 1.3603439091,
				"element": "H" 
			},
			{
				"x": 2.8497357583,
				"y": -0.8822129359,
				"z": -2.5353263317,
				"element": "H" 
			},
			{
				"x": 3.7231658396,
				"y": -1.8995953816,
				"z": -1.4113753239,
				"element": "H" 
			},
			{
				"x": 2.3061303724,
				"y": -3.1740895473,
				"z": -3.0481191778,
				"element": "H" 
			},
			{
				"x": 1.9208500736,
				"y": -3.5590347449,
				"z": -1.3672614028,
				"element": "H" 
			},
			{
				"x": -0.1798162036,
				"y": -3.2253253301,
				"z": -2.6919439841,
				"element": "H" 
			},
			{
				"x": 0.3445292065,
				"y": -1.5895529335,
				"z": -3.1212386822,
				"element": "H" 
			}
		],
		 "valence_orbital": [ 
			{
				"type": "occ",
				"energy": -0.30054,
				"method": "rhf"
			},
			{
				"type": "occ",
				"energy": -0.2941,
				"method": "rhf"
			},
			{
				"type": "occ",
				"energy": -0.23467,
				"method": "rhf"
			},
			{
				"type": "occ",
				"energy": -0.22865,
				"method": "rhf"
			},
			{
				"type": "occ",
				"energy": -0.21097,
				"method": "rhf"
			},
			{
				"type": "unocc",
				"energy": 0.02845,
				"method": "rhf"
			},
			{
				"type": "unocc",
				"energy": 0.04042,
				"method": "rhf"
			},
			{
				"type": "unocc",
				"energy": 0.07133,
				"method": "rhf"
			},
			{
				"type": "unocc",
				"energy": 0.08444,
				"method": "rhf"
			},
			{
				"type": "unocc",
				"energy": 0.09573,
				"method": "rhf"
			}
		],
		"cosmo_sigma_profile": { 
			"-0.025": 0.0,
			"-0.024": 0.0,
			"-0.023": 0.0,
			"-0.022": 0.0,
			"-0.021": 0.0,
			"-0.02": 0.0,
			"-0.019": 0.0,
			"-0.018": 0.0,
			"-0.017": 0.0,
			"-0.016": 0.0,
			"-0.015": 0.0,
			"-0.014": 0.0,
			"-0.013": 0.0,
			"-0.012": 0.127974272747,
			"-0.011": 0.844385070847,
			"-0.01": 0.849785661777,
			"-0.009": 1.10614090708,
			"-0.008": 1.06401291004,
			"-0.007": 1.58027096966,
			"-0.006": 3.25661380219,
			"-0.005": 6.29995037677,
			"-0.004": 13.5871155066,
			"-0.003": 24.8698982778,
			"-0.002": 37.9542243963,
			"-0.001": 37.8105659526,
			"0.0": 31.7691868077,
			"0.001": 27.6399417971,
			"0.002": 11.6610106317,
			"0.003": 7.00797807477,
			"0.004": 6.06322080819,
			"0.005": 4.68982506139,
			"0.006": 6.78719230216,
			"0.007": 4.70031905594,
			"0.008": 3.88367162852,
			"0.009": 2.64260903364,
			"0.01": 1.97716994724,
			"0.011": 1.45583711636,
			"0.012": 0.867779385131,
			"0.013": 1.23374759748,
			"0.014": 0.662716390922,
			"0.015": 0.783978506226,
			"0.016": 0.655615731174,
			"0.017": 0.0,
			"0.018": 0.0,
			"0.019": 0.0,
			"0.02": 0.0,
			"0.021": 0.0,
			"0.022": 0.0,
			"0.023": 0.0,
			"0.024": 0.0,
			"0.025": 0.0
		}
	}
}
