{
	 "smiles": "CC(C)C(O)C1(C)CCC(C(O)=O)C(C)(C)O1", 
	 "Tm": 388.15, 
	 "num_atms": 41, 
	 "gaussian": { 
		 "optdone": 1, 
		 "sigma_profile": "yes", 
		 "theory": "DFT", 
		 "functional": "B3LYP", 
		 "basiset": "6-31G**", 
		 "properties": { 
			 "R2extent": 4779.0791, 
			 "electric_dipole_moment_norm": 2.81734559648, 
			 "electric_quadrupole_moment_norm": 6.94927868703, 
			 "total_energy": -810.769004849, 
			 "HOMO_LUMO_gap": 0.25176, 
			 "cosmo_polarized_energy": -11.93, 
			 "cosmo_cavitation_energy": 38.56, 
			 "cosmo_dispersion_energy": -26.01, 
			 "cosmo_repulsion_energy": 1.97, 
			 "cosmo_total_nonelectrostatic_energy": 14.52, 
			 "SMD_solvation_energy": 7.26 
		},
		"coords": [
			{
				"x": 1.6006993365,
				"y": 0.5621380014,
				"z": -2.8431561606,
				"element": "C" 
			},
			{
				"x": 0.1484487075,
				"y": 0.960993179,
				"z": -3.1504222433,
				"element": "C" 
			},
			{
				"x": -0.167741661,
				"y": 0.7252451108,
				"z": -4.6368212104,
				"element": "C" 
			},
			{
				"x": -0.9045108978,
				"y": 0.2192287789,
				"z": -2.2855165766,
				"element": "C" 
			},
			{
				"x": -0.8221345345,
				"y": -1.1885751303,
				"z": -2.4720804622,
				"element": "O" 
			},
			{
				"x": -0.92850967,
				"y": 0.5267830462,
				"z": -0.7513463241,
				"element": "C" 
			},
			{
				"x": -0.7786062649,
				"y": 2.0307377937,
				"z": -0.473642368,
				"element": "C" 
			},
			{
				"x": -2.2500654817,
				"y": -0.0155591285,
				"z": -0.1746745173,
				"element": "C" 
			},
			{
				"x": -2.2766843106,
				"y": -0.1032849793,
				"z": 1.3666772641,
				"element": "C" 
			},
			{
				"x": -0.8502480021,
				"y": -0.1752312888,
				"z": 1.9810348811,
				"element": "C" 
			},
			{
				"x": -0.9334743767,
				"y": -0.7196263402,
				"z": 3.3959546744,
				"element": "C" 
			},
			{
				"x": -1.5926156297,
				"y": 0.1529486017,
				"z": 4.1997764965,
				"element": "O" 
			},
			{
				"x": -0.5117489243,
				"y": -1.7764861013,
				"z": 3.8164704386,
				"element": "O" 
			},
			{
				"x": 0.1532608516,
				"y": -0.902307411,
				"z": 1.0570947325,
				"element": "C" 
			},
			{
				"x": 1.580907461,
				"y": -0.7974735976,
				"z": 1.6057067368,
				"element": "C" 
			},
			{
				"x": -0.2009224434,
				"y": -2.3759768859,
				"z": 0.8000225816,
				"element": "C" 
			},
			{
				"x": 0.211213585,
				"y": -0.1858010324,
				"z": -0.2082000918,
				"element": "O" 
			},
			{
				"x": 2.2900529652,
				"y": 1.1201100843,
				"z": -3.4859378589,
				"element": "H" 
			},
			{
				"x": 1.7569038553,
				"y": -0.503485005,
				"z": -3.0446865893,
				"element": "H" 
			},
			{
				"x": 1.870016807,
				"y": 0.746575399,
				"z": -1.8011912262,
				"element": "H" 
			},
			{
				"x": 0.0371379994,
				"y": 2.0355132623,
				"z": -2.9547433148,
				"element": "H" 
			},
			{
				"x": -0.1371988052,
				"y": -0.3440899494,
				"z": -4.8662472068,
				"element": "H" 
			},
			{
				"x": -1.1656268637,
				"y": 1.0954172022,
				"z": -4.899001809,
				"element": "H" 
			},
			{
				"x": 0.5580801224,
				"y": 1.2367783273,
				"z": -5.2778398488,
				"element": "H" 
			},
			{
				"x": -1.8913849811,
				"y": 0.511576213,
				"z": -2.6702963811,
				"element": "H" 
			},
			{
				"x": -0.1129240967,
				"y": -1.4706669901,
				"z": -1.8731613921,
				"element": "H" 
			},
			{
				"x": -1.4830411258,
				"y": 2.6060517783,
				"z": -1.0848966129,
				"element": "H" 
			},
			{
				"x": -0.9843027822,
				"y": 2.271164467,
				"z": 0.5729610275,
				"element": "H" 
			},
			{
				"x": 0.2339648354,
				"y": 2.3693226529,
				"z": -0.7026276509,
				"element": "H" 
			},
			{
				"x": -2.4194647874,
				"y": -0.9997084957,
				"z": -0.6171322406,
				"element": "H" 
			},
			{
				"x": -3.068003835,
				"y": 0.6249909058,
				"z": -0.5222230105,
				"element": "H" 
			},
			{
				"x": -2.7920408519,
				"y": 0.7553707247,
				"z": 1.8049805978,
				"element": "H" 
			},
			{
				"x": -2.851689467,
				"y": -0.9875022842,
				"z": 1.6622640392,
				"element": "H" 
			},
			{
				"x": -0.4796144967,
				"y": 0.850380598,
				"z": 2.0887586368,
				"element": "H" 
			},
			{
				"x": -1.6339563763,
				"y": -0.2671144018,
				"z": 5.0757052554,
				"element": "H" 
			},
			{
				"x": 1.6833237182,
				"y": -1.3646634827,
				"z": 2.5333092544,
				"element": "H" 
			},
			{
				"x": 1.8445749754,
				"y": 0.2483623913,
				"z": 1.7914154753,
				"element": "H" 
			},
			{
				"x": 2.2850576377,
				"y": -1.1961460736,
				"z": 0.8698834485,
				"element": "H" 
			},
			{
				"x": -1.1913645261,
				"y": -2.4941859438,
				"z": 0.3555430429,
				"element": "H" 
			},
			{
				"x": -0.1700456674,
				"y": -2.9405392226,
				"z": 1.7335672154,
				"element": "H" 
			},
			{
				"x": 0.5315780015,
				"y": -2.8067647737,
				"z": 0.1094192978,
				"element": "H" 
			}
		],
		 "valence_orbital": [ 
			{
				"type": "occ",
				"energy": -0.30475,
				"method": "rhf"
			},
			{
				"type": "occ",
				"energy": -0.29027,
				"method": "rhf"
			},
			{
				"type": "occ",
				"energy": -0.27894,
				"method": "rhf"
			},
			{
				"type": "occ",
				"energy": -0.25586,
				"method": "rhf"
			},
			{
				"type": "occ",
				"energy": -0.25217,
				"method": "rhf"
			},
			{
				"type": "unocc",
				"energy": -0.00041,
				"method": "rhf"
			},
			{
				"type": "unocc",
				"energy": 0.06248,
				"method": "rhf"
			},
			{
				"type": "unocc",
				"energy": 0.07519,
				"method": "rhf"
			},
			{
				"type": "unocc",
				"energy": 0.0858,
				"method": "rhf"
			},
			{
				"type": "unocc",
				"energy": 0.0925,
				"method": "rhf"
			}
		],
		"cosmo_sigma_profile": { 
			"-0.025": 0.0,
			"-0.024": 0.0,
			"-0.023": 0.0,
			"-0.022": 0.0,
			"-0.021": 0.0,
			"-0.02": 0.0,
			"-0.019": 0.0513294978413,
			"-0.018": 0.634275077309,
			"-0.017": 1.05987932642,
			"-0.016": 1.08622858632,
			"-0.015": 0.233222091271,
			"-0.014": 0.393650750419,
			"-0.013": 0.755520825767,
			"-0.012": 0.656178555022,
			"-0.011": 1.08095774442,
			"-0.01": 0.740190699272,
			"-0.009": 0.86190519476,
			"-0.008": 1.52213158657,
			"-0.007": 1.81225178151,
			"-0.006": 3.62685638155,
			"-0.005": 7.37748184038,
			"-0.004": 20.6742380702,
			"-0.003": 29.2147362206,
			"-0.002": 35.6482777074,
			"-0.001": 40.0150630439,
			"0.0": 39.0299111846,
			"0.001": 34.1160365235,
			"0.002": 21.5825162157,
			"0.003": 7.80329072508,
			"0.004": 7.39387714808,
			"0.005": 5.62912260248,
			"0.006": 5.86350814314,
			"0.007": 5.89288295726,
			"0.008": 3.96603122555,
			"0.009": 3.72057731952,
			"0.01": 3.64128176363,
			"0.011": 3.37960725537,
			"0.012": 3.27878010055,
			"0.013": 1.4758002227,
			"0.014": 1.02117773937,
			"0.015": 0.915494492477,
			"0.016": 0.0,
			"0.017": 0.0,
			"0.018": 0.0,
			"0.019": 0.0,
			"0.02": 0.0,
			"0.021": 0.0,
			"0.022": 0.0,
			"0.023": 0.0,
			"0.024": 0.0,
			"0.025": 0.0
		}
	}
}
