{
	 "smiles": "CC1=CC=CN=C1C(O)=O", 
	 "Tm": 392.15, 
	 "num_atms": 17, 
	 "gaussian": { 
		 "optdone": 1, 
		 "sigma_profile": "yes", 
		 "theory": "DFT", 
		 "functional": "B3LYP", 
		 "basiset": "6-31G**", 
		 "properties": { 
			 "R2extent": 1529.8823, 
			 "electric_dipole_moment_norm": 2.17621505831, 
			 "electric_quadrupole_moment_norm": 8.72090522423, 
			 "total_energy": -476.174847865, 
			 "HOMO_LUMO_gap": 0.19678, 
			 "cosmo_polarized_energy": -11.52, 
			 "cosmo_cavitation_energy": 21.27, 
			 "cosmo_dispersion_energy": -15.94, 
			 "cosmo_repulsion_energy": 1.29, 
			 "cosmo_total_nonelectrostatic_energy": 6.62, 
			 "SMD_solvation_energy": 3.94 
		},
		"coords": [
			{
				"x": -1.8908234565,
				"y": 1.4117386338,
				"z": 2.0468675533,
				"element": "C" 
			},
			{
				"x": -0.5865915432,
				"y": 0.8453257085,
				"z": 1.5438748443,
				"element": "C" 
			},
			{
				"x": 0.5614666517,
				"y": 0.9471032618,
				"z": 2.34256814,
				"element": "C" 
			},
			{
				"x": 1.777758721,
				"y": 0.4350729668,
				"z": 1.9069870635,
				"element": "C" 
			},
			{
				"x": 1.8230422168,
				"y": -0.1816471599,
				"z": 0.6549746772,
				"element": "C" 
			},
			{
				"x": 0.7552392456,
				"y": -0.2969638545,
				"z": -0.1305530096,
				"element": "N" 
			},
			{
				"x": -0.4167325979,
				"y": 0.1999613366,
				"z": 0.2964732921,
				"element": "C" 
			},
			{
				"x": -1.5743942837,
				"y": 0.031833839,
				"z": -0.6441245163,
				"element": "C" 
			},
			{
				"x": -1.2457359759,
				"y": -0.6022616962,
				"z": -1.787046464,
				"element": "O" 
			},
			{
				"x": -2.7085631578,
				"y": 0.418798039,
				"z": -0.4247346818,
				"element": "O" 
			},
			{
				"x": -1.7490897181,
				"y": 1.8549725083,
				"z": 3.0368303727,
				"element": "H" 
			},
			{
				"x": -2.6642383477,
				"y": 0.6421294507,
				"z": 2.109888159,
				"element": "H" 
			},
			{
				"x": -2.2844467445,
				"y": 2.1739847796,
				"z": 1.369738462,
				"element": "H" 
			},
			{
				"x": 0.4885826503,
				"y": 1.4337512305,
				"z": 3.3115773381,
				"element": "H" 
			},
			{
				"x": 2.6709050885,
				"y": 0.5100552204,
				"z": 2.5196911752,
				"element": "H" 
			},
			{
				"x": 2.7527314491,
				"y": -0.5976556369,
				"z": 0.2711611438,
				"element": "H" 
			},
			{
				"x": -2.0717101977,
				"y": -0.6444986275,
				"z": -2.2972735496,
				"element": "H" 
			}
		],
		 "valence_orbital": [ 
			{
				"type": "occ",
				"energy": -0.31434,
				"method": "rhf"
			},
			{
				"type": "occ",
				"energy": -0.29129,
				"method": "rhf"
			},
			{
				"type": "occ",
				"energy": -0.28189,
				"method": "rhf"
			},
			{
				"type": "occ",
				"energy": -0.2636,
				"method": "rhf"
			},
			{
				"type": "occ",
				"energy": -0.25397,
				"method": "rhf"
			},
			{
				"type": "unocc",
				"energy": -0.05719,
				"method": "rhf"
			},
			{
				"type": "unocc",
				"energy": -0.02326,
				"method": "rhf"
			},
			{
				"type": "unocc",
				"energy": 0.0516,
				"method": "rhf"
			},
			{
				"type": "unocc",
				"energy": 0.0835,
				"method": "rhf"
			},
			{
				"type": "unocc",
				"energy": 0.09712,
				"method": "rhf"
			}
		],
		"cosmo_sigma_profile": { 
			"-0.025": 0.0,
			"-0.024": 0.0,
			"-0.023": 0.0,
			"-0.022": 0.0,
			"-0.021": 0.0,
			"-0.02": 0.0,
			"-0.019": 0.0,
			"-0.018": 0.550166445007,
			"-0.017": 1.07885989027,
			"-0.016": 0.869933804582,
			"-0.015": 0.558812044442,
			"-0.014": 0.954907916577,
			"-0.013": 0.773247677597,
			"-0.012": 0.523363808528,
			"-0.011": 0.581366328163,
			"-0.01": 0.939453855669,
			"-0.009": 0.607087999192,
			"-0.008": 1.10321689061,
			"-0.007": 7.52728801805,
			"-0.006": 8.85808009171,
			"-0.005": 9.0347280034,
			"-0.004": 9.31623348451,
			"-0.003": 11.8237510373,
			"-0.002": 14.4021329986,
			"-0.001": 16.6291021667,
			"0.0": 16.5859190107,
			"0.001": 14.7675263166,
			"0.002": 11.4823374229,
			"0.003": 4.44783752397,
			"0.004": 3.95510931234,
			"0.005": 3.94408284238,
			"0.006": 2.28140853629,
			"0.007": 2.81747684863,
			"0.008": 3.43705896748,
			"0.009": 3.69339637143,
			"0.01": 2.95705594964,
			"0.011": 4.01843647524,
			"0.012": 3.68629434808,
			"0.013": 1.63011608919,
			"0.014": 0.977180856526,
			"0.015": 0.725033993356,
			"0.016": 1.24225681257,
			"0.017": 0.787510138769,
			"0.018": 0.128816310116,
			"0.019": 0.0,
			"0.02": 0.0,
			"0.021": 0.0,
			"0.022": 0.0,
			"0.023": 0.0,
			"0.024": 0.0,
			"0.025": 0.0
		}
	}
}
