{
	 "smiles": "CCN(CC)CCCN(C1CC2=CC=CC=C2C1)C1=CC=CC=C1", 
	 "Tm": 393.15, 
	 "num_atms": 54, 
	 "gaussian": { 
		 "optdone": 1, 
		 "sigma_profile": "yes", 
		 "theory": "DFT", 
		 "functional": "B3LYP", 
		 "basiset": "6-31G**", 
		 "properties": { 
			 "R2extent": 10311.5054, 
			 "electric_dipole_moment_norm": 0.661823042814, 
			 "electric_quadrupole_moment_norm": 5.63033378229, 
			 "total_energy": -965.917185555, 
			 "HOMO_LUMO_gap": 0.19847, 
			 "cosmo_polarized_energy": -8.39, 
			 "cosmo_cavitation_energy": 52.34, 
			 "cosmo_dispersion_energy": -33.72, 
			 "cosmo_repulsion_energy": 2.63, 
			 "cosmo_total_nonelectrostatic_energy": 21.25, 
			 "SMD_solvation_energy": 6.77 
		},
		"coords": [
			{
				"x": -4.8121915898,
				"y": -2.3789575333,
				"z": 3.3289256606,
				"element": "C" 
			},
			{
				"x": -3.3371977958,
				"y": -2.7764944538,
				"z": 3.2418319213,
				"element": "C" 
			},
			{
				"x": -2.4757965568,
				"y": -1.7227857324,
				"z": 2.7002811511,
				"element": "N" 
			},
			{
				"x": -2.3830925535,
				"y": -0.5173701375,
				"z": 3.5309027191,
				"element": "C" 
			},
			{
				"x": -1.7241414703,
				"y": -0.669873653,
				"z": 4.9140931634,
				"element": "C" 
			},
			{
				"x": -1.1701114501,
				"y": -2.2319156449,
				"z": 2.2627504303,
				"element": "C" 
			},
			{
				"x": -1.2155240023,
				"y": -2.8570317036,
				"z": 0.8600391079,
				"element": "C" 
			},
			{
				"x": -1.5853243941,
				"y": -1.8471571894,
				"z": -0.2328198421,
				"element": "C" 
			},
			{
				"x": -0.5687663067,
				"y": -0.7980129674,
				"z": -0.4022796698,
				"element": "N" 
			},
			{
				"x": -1.1095281399,
				"y": 0.4332590403,
				"z": -1.0188147797,
				"element": "C" 
			},
			{
				"x": -1.4550069593,
				"y": 0.337194093,
				"z": -2.5460147776,
				"element": "C" 
			},
			{
				"x": -0.3142008772,
				"y": 1.0440990909,
				"z": -3.2409449107,
				"element": "C" 
			},
			{
				"x": 0.0268703775,
				"y": 1.0438121003,
				"z": -4.5929604773,
				"element": "C" 
			},
			{
				"x": 1.1226608825,
				"y": 1.7996748495,
				"z": -5.0198342853,
				"element": "C" 
			},
			{
				"x": 1.8666946614,
				"y": 2.5476754172,
				"z": -4.1018862011,
				"element": "C" 
			},
			{
				"x": 1.5237726205,
				"y": 2.5483279962,
				"z": -2.7466359813,
				"element": "C" 
			},
			{
				"x": 0.4321289592,
				"y": 1.7925706837,
				"z": -2.3215999284,
				"element": "C" 
			},
			{
				"x": -0.1410929972,
				"y": 1.648084193,
				"z": -0.9306344117,
				"element": "C" 
			},
			{
				"x": 0.7113912399,
				"y": -1.2633706691,
				"z": -0.8692936016,
				"element": "C" 
			},
			{
				"x": 0.8563698623,
				"y": -2.1271684973,
				"z": -1.9676997592,
				"element": "C" 
			},
			{
				"x": 2.1183977809,
				"y": -2.565428486,
				"z": -2.3696157737,
				"element": "C" 
			},
			{
				"x": 3.2617544545,
				"y": -2.1483254089,
				"z": -1.6860608319,
				"element": "C" 
			},
			{
				"x": 3.1304747784,
				"y": -1.3007596893,
				"z": -0.5853187627,
				"element": "C" 
			},
			{
				"x": 1.8669070197,
				"y": -0.8745919885,
				"z": -0.1749058496,
				"element": "C" 
			},
			{
				"x": -5.1686125086,
				"y": -2.0175009875,
				"z": 2.3592997025,
				"element": "H" 
			},
			{
				"x": -5.4179245049,
				"y": -3.2430379807,
				"z": 3.6213070156,
				"element": "H" 
			},
			{
				"x": -4.9893051604,
				"y": -1.5929680954,
				"z": 4.069546467,
				"element": "H" 
			},
			{
				"x": -3.254374811,
				"y": -3.6384682408,
				"z": 2.5714198964,
				"element": "H" 
			},
			{
				"x": -2.9913593482,
				"y": -3.1325750296,
				"z": 4.2312888793,
				"element": "H" 
			},
			{
				"x": -3.3921430863,
				"y": -0.1094223201,
				"z": 3.6576556289,
				"element": "H" 
			},
			{
				"x": -1.827471118,
				"y": 0.2284235882,
				"z": 2.9501233602,
				"element": "H" 
			},
			{
				"x": -2.2769540284,
				"y": -1.3607319069,
				"z": 5.558809584,
				"element": "H" 
			},
			{
				"x": -0.6962876756,
				"y": -1.0382380202,
				"z": 4.8318150932,
				"element": "H" 
			},
			{
				"x": -1.6904687632,
				"y": 0.2993676824,
				"z": 5.4236624,
				"element": "H" 
			},
			{
				"x": -0.4733080257,
				"y": -1.3890190325,
				"z": 2.2273055148,
				"element": "H" 
			},
			{
				"x": -0.749347366,
				"y": -2.9638911927,
				"z": 2.975584364,
				"element": "H" 
			},
			{
				"x": -1.9460234757,
				"y": -3.6750379246,
				"z": 0.8292773861,
				"element": "H" 
			},
			{
				"x": -0.2410227329,
				"y": -3.3103638207,
				"z": 0.6435833336,
				"element": "H" 
			},
			{
				"x": -2.511264852,
				"y": -1.3510226823,
				"z": 0.0748711888,
				"element": "H" 
			},
			{
				"x": -1.8093862748,
				"y": -2.3866633165,
				"z": -1.16925482,
				"element": "H" 
			},
			{
				"x": -2.0195085843,
				"y": 0.6459389522,
				"z": -0.4506540153,
				"element": "H" 
			},
			{
				"x": -2.4036422553,
				"y": 0.8555135112,
				"z": -2.7448935877,
				"element": "H" 
			},
			{
				"x": -1.5938602129,
				"y": -0.6964258311,
				"z": -2.8791035191,
				"element": "H" 
			},
			{
				"x": -0.5474918798,
				"y": 0.4610937049,
				"z": -5.3091794767,
				"element": "H" 
			},
			{
				"x": 1.4004186869,
				"y": 1.8032446002,
				"z": -6.070289833,
				"element": "H" 
			},
			{
				"x": 2.7193801404,
				"y": 3.1279632501,
				"z": -4.4436015919,
				"element": "H" 
			},
			{
				"x": 2.1078257177,
				"y": 3.1271262229,
				"z": -2.0352792744,
				"element": "H" 
			},
			{
				"x": 0.6161573846,
				"y": 1.5151850022,
				"z": -0.1543619558,
				"element": "H" 
			},
			{
				"x": -0.7126356054,
				"y": 2.5467417351,
				"z": -0.6603225422,
				"element": "H" 
			},
			{
				"x": -0.0206589422,
				"y": -2.4630787091,
				"z": -2.5114877989,
				"element": "H" 
			},
			{
				"x": 2.2079946025,
				"y": -3.2314163604,
				"z": -3.2235944969,
				"element": "H" 
			},
			{
				"x": 4.2434614751,
				"y": -2.488949899,
				"z": -2.0022280095,
				"element": "H" 
			},
			{
				"x": 4.0108874924,
				"y": -0.9830136752,
				"z": -0.0334662489,
				"element": "H" 
			},
			{
				"x": 1.7572781679,
				"y": -0.2467269339,
				"z": 0.7035630461,
				"element": "H" 
			}
		],
		 "valence_orbital": [ 
			{
				"type": "occ",
				"energy": -0.24421,
				"method": "rhf"
			},
			{
				"type": "occ",
				"energy": -0.23559,
				"method": "rhf"
			},
			{
				"type": "occ",
				"energy": -0.22347,
				"method": "rhf"
			},
			{
				"type": "occ",
				"energy": -0.20098,
				"method": "rhf"
			},
			{
				"type": "occ",
				"energy": -0.19849,
				"method": "rhf"
			},
			{
				"type": "unocc",
				"energy": -2e-05,
				"method": "rhf"
			},
			{
				"type": "unocc",
				"energy": 0.0024,
				"method": "rhf"
			},
			{
				"type": "unocc",
				"energy": 0.00984,
				"method": "rhf"
			},
			{
				"type": "unocc",
				"energy": 0.01572,
				"method": "rhf"
			},
			{
				"type": "unocc",
				"energy": 0.07657,
				"method": "rhf"
			}
		],
		"cosmo_sigma_profile": { 
			"-0.025": 0.0,
			"-0.024": 0.0,
			"-0.023": 0.0,
			"-0.022": 0.0,
			"-0.021": 0.0,
			"-0.02": 0.0,
			"-0.019": 0.0,
			"-0.018": 0.0,
			"-0.017": 0.0,
			"-0.016": 0.0,
			"-0.015": 0.0,
			"-0.014": 0.0,
			"-0.013": 0.0,
			"-0.012": 0.0,
			"-0.011": 0.0,
			"-0.01": 0.0,
			"-0.009": 0.0,
			"-0.008": 0.0,
			"-0.007": 0.0825252395057,
			"-0.006": 3.13282759424,
			"-0.005": 17.676257714,
			"-0.004": 26.7582320383,
			"-0.003": 44.5005559664,
			"-0.002": 52.7884099587,
			"-0.001": 57.3387579557,
			"0.0": 57.0340671019,
			"0.001": 42.9736835589,
			"0.002": 24.9245820492,
			"0.003": 16.6203510487,
			"0.004": 16.2114644813,
			"0.005": 15.7186111992,
			"0.006": 16.1451157943,
			"0.007": 12.0873638387,
			"0.008": 3.25140849483,
			"0.009": 0.900230730739,
			"0.01": 0.878167255351,
			"0.011": 0.132638980986,
			"0.012": 0.0,
			"0.013": 0.0,
			"0.014": 0.0,
			"0.015": 0.0,
			"0.016": 0.0,
			"0.017": 0.0,
			"0.018": 0.0,
			"0.019": 0.0,
			"0.02": 0.0,
			"0.021": 0.0,
			"0.022": 0.0,
			"0.023": 0.0,
			"0.024": 0.0,
			"0.025": 0.0
		}
	}
}
