{
	 "smiles": "COC(=O)C1=C(C=CC2=C1C=CC=C2)P(C1=CC=CC=C1)C1=CC=CC=C1", 
	 "Tm": 380.65, 
	 "num_atms": 46, 
	 "gaussian": { 
		 "optdone": 1, 
		 "sigma_profile": "yes", 
		 "theory": "DFT", 
		 "functional": "B3LYP", 
		 "basiset": "6-31G**", 
		 "properties": { 
			 "R2extent": 10024.9163, 
			 "electric_dipole_moment_norm": 1.56245045361, 
			 "electric_quadrupole_moment_norm": 10.5878488826, 
			 "total_energy": -1417.81043982, 
			 "HOMO_LUMO_gap": 0.15711, 
			 "cosmo_polarized_energy": -12.55, 
			 "cosmo_cavitation_energy": 49.44, 
			 "cosmo_dispersion_energy": -33.6, 
			 "cosmo_repulsion_energy": 2.58, 
			 "cosmo_total_nonelectrostatic_energy": 18.42, 
			 "SMD_solvation_energy": 8.87 
		},
		"coords": [
			{
				"x": -1.6567807251,
				"y": 2.3999780947,
				"z": -2.7887814188,
				"element": "C" 
			},
			{
				"x": -1.7322645718,
				"y": 1.6626511504,
				"z": -1.55271453,
				"element": "O" 
			},
			{
				"x": -0.7700318098,
				"y": 0.7383936008,
				"z": -1.3717110919,
				"element": "C" 
			},
			{
				"x": 0.0966726793,
				"y": 0.5079021665,
				"z": -2.190858974,
				"element": "O" 
			},
			{
				"x": -0.9320617445,
				"y": -0.0040227723,
				"z": -0.0737741459,
				"element": "C" 
			},
			{
				"x": 0.0108783645,
				"y": 0.097679157,
				"z": 0.9447690583,
				"element": "C" 
			},
			{
				"x": -0.1609397267,
				"y": -0.7097570122,
				"z": 2.109060813,
				"element": "C" 
			},
			{
				"x": -1.2011038825,
				"y": -1.5940703962,
				"z": 2.2341018165,
				"element": "C" 
			},
			{
				"x": -2.1755515661,
				"y": -1.7139073532,
				"z": 1.2110509764,
				"element": "C" 
			},
			{
				"x": -2.0513464854,
				"y": -0.8990726005,
				"z": 0.0392276559,
				"element": "C" 
			},
			{
				"x": -3.0349907257,
				"y": -1.0443112018,
				"z": -0.9807851905,
				"element": "C" 
			},
			{
				"x": -4.0763593624,
				"y": -1.9346345441,
				"z": -0.8439083615,
				"element": "C" 
			},
			{
				"x": -4.1975129533,
				"y": -2.7304984776,
				"z": 0.3195406345,
				"element": "C" 
			},
			{
				"x": -3.2646598093,
				"y": -2.6184630914,
				"z": 1.3240859296,
				"element": "C" 
			},
			{
				"x": 1.4818520472,
				"y": 1.2306073405,
				"z": 1.1250934261,
				"element": "P" 
			},
			{
				"x": 2.875794954,
				"y": 0.2405270925,
				"z": 0.4201948688,
				"element": "C" 
			},
			{
				"x": 2.7817886424,
				"y": -0.5950818344,
				"z": -0.7060112879,
				"element": "C" 
			},
			{
				"x": 3.8937792553,
				"y": -1.3207217547,
				"z": -1.1365128704,
				"element": "C" 
			},
			{
				"x": 5.1100804883,
				"y": -1.2227408683,
				"z": -0.456183163,
				"element": "C" 
			},
			{
				"x": 5.2145590583,
				"y": -0.3948943543,
				"z": 0.6622987385,
				"element": "C" 
			},
			{
				"x": 4.1022729372,
				"y": 0.3260597315,
				"z": 1.1002227507,
				"element": "C" 
			},
			{
				"x": 1.2598173765,
				"y": 2.6411738407,
				"z": -0.0473869525,
				"element": "C" 
			},
			{
				"x": 2.0997970485,
				"y": 2.8835217471,
				"z": -1.1447085806,
				"element": "C" 
			},
			{
				"x": 1.9873421754,
				"y": 4.0664371332,
				"z": -1.8788615439,
				"element": "C" 
			},
			{
				"x": 1.0273634982,
				"y": 5.0206534391,
				"z": -1.5372064176,
				"element": "C" 
			},
			{
				"x": 0.179204053,
				"y": 4.7875549792,
				"z": -0.4509664588,
				"element": "C" 
			},
			{
				"x": 0.3038506001,
				"y": 3.615414802,
				"z": 0.2934484702,
				"element": "C" 
			},
			{
				"x": -1.7038832224,
				"y": 1.7207579477,
				"z": -3.6436905535,
				"element": "H" 
			},
			{
				"x": -2.5178934224,
				"y": 3.0677936139,
				"z": -2.7804484022,
				"element": "H" 
			},
			{
				"x": -0.727730408,
				"y": 2.9706046041,
				"z": -2.8314803336,
				"element": "H" 
			},
			{
				"x": 0.556514408,
				"y": -0.6064111767,
				"z": 2.9184414808,
				"element": "H" 
			},
			{
				"x": -1.2983530623,
				"y": -2.2045483558,
				"z": 3.1281575634,
				"element": "H" 
			},
			{
				"x": -2.9693172926,
				"y": -0.4373444889,
				"z": -1.8758088878,
				"element": "H" 
			},
			{
				"x": -4.8132713987,
				"y": -2.0259050695,
				"z": -1.6365705366,
				"element": "H" 
			},
			{
				"x": -5.0249314264,
				"y": -3.4275028519,
				"z": 0.4144991832,
				"element": "H" 
			},
			{
				"x": -3.3431380191,
				"y": -3.225404021,
				"z": 2.222324352,
				"element": "H" 
			},
			{
				"x": 1.847810901,
				"y": -0.6598121735,
				"z": -1.2539609492,
				"element": "H" 
			},
			{
				"x": 3.8093507733,
				"y": -1.963308223,
				"z": -2.008705266,
				"element": "H" 
			},
			{
				"x": 5.9715384046,
				"y": -1.7914347416,
				"z": -0.795511725,
				"element": "H" 
			},
			{
				"x": 6.1562130524,
				"y": -0.3159467759,
				"z": 1.198433193,
				"element": "H" 
			},
			{
				"x": 4.1812472465,
				"y": 0.9576431878,
				"z": 1.9812582884,
				"element": "H" 
			},
			{
				"x": 2.8421275095,
				"y": 2.1457480905,
				"z": -1.4287667512,
				"element": "H" 
			},
			{
				"x": 2.6509636601,
				"y": 4.2390632084,
				"z": -2.7217819146,
				"element": "H" 
			},
			{
				"x": 0.9446064161,
				"y": 5.9419617511,
				"z": -2.1071081021,
				"element": "H" 
			},
			{
				"x": -0.5684634405,
				"y": 5.525499939,
				"z": -0.1735070825,
				"element": "H" 
			},
			{
				"x": -0.3421404945,
				"y": 3.4585675211,
				"z": 1.1538022923,
				"element": "H" 
			}
		],
		 "valence_orbital": [ 
			{
				"type": "occ",
				"energy": -0.24949,
				"method": "rhf"
			},
			{
				"type": "occ",
				"energy": -0.2469,
				"method": "rhf"
			},
			{
				"type": "occ",
				"energy": -0.24383,
				"method": "rhf"
			},
			{
				"type": "occ",
				"energy": -0.22191,
				"method": "rhf"
			},
			{
				"type": "occ",
				"energy": -0.20842,
				"method": "rhf"
			},
			{
				"type": "unocc",
				"energy": -0.05131,
				"method": "rhf"
			},
			{
				"type": "unocc",
				"energy": -0.02114,
				"method": "rhf"
			},
			{
				"type": "unocc",
				"energy": -0.01872,
				"method": "rhf"
			},
			{
				"type": "unocc",
				"energy": -0.00785,
				"method": "rhf"
			},
			{
				"type": "unocc",
				"energy": -0.00261,
				"method": "rhf"
			}
		],
		"cosmo_sigma_profile": { 
			"-0.025": 0.0,
			"-0.024": 0.0,
			"-0.023": 0.0,
			"-0.022": 0.0,
			"-0.021": 0.0,
			"-0.02": 0.0,
			"-0.019": 0.0,
			"-0.018": 0.0,
			"-0.017": 0.0,
			"-0.016": 0.0,
			"-0.015": 0.0,
			"-0.014": 0.0,
			"-0.013": 0.0,
			"-0.012": 0.0,
			"-0.011": 0.0,
			"-0.01": 0.0,
			"-0.009": 0.0,
			"-0.008": 0.0,
			"-0.007": 2.85609907798,
			"-0.006": 25.6927534134,
			"-0.005": 35.0861515278,
			"-0.004": 38.1675754784,
			"-0.003": 33.8336549766,
			"-0.002": 25.4437158306,
			"-0.001": 23.0740014074,
			"0.0": 24.7420441607,
			"0.001": 29.4371182971,
			"0.002": 34.8418330676,
			"0.003": 40.3767351021,
			"0.004": 35.4127097226,
			"0.005": 22.1428520521,
			"0.006": 7.03905118265,
			"0.007": 4.51538307332,
			"0.008": 3.6051219488,
			"0.009": 3.19210984097,
			"0.01": 2.61217264432,
			"0.011": 2.72743289534,
			"0.012": 0.997733132804,
			"0.013": 0.420537894677,
			"0.014": 0.0502184846386,
			"0.015": 0.0,
			"0.016": 0.0,
			"0.017": 0.0,
			"0.018": 0.0,
			"0.019": 0.0,
			"0.02": 0.0,
			"0.021": 0.0,
			"0.022": 0.0,
			"0.023": 0.0,
			"0.024": 0.0,
			"0.025": 0.0
		}
	}
}
