{
	 "smiles": "OC1=CC=C(C=C1)C1=NC2=C(C=CC=C2)N=C1", 
	 "Tm": 478.15, 
	 "num_atms": 27, 
	 "gaussian": { 
		 "optdone": 1, 
		 "sigma_profile": "yes", 
		 "theory": "DFT", 
		 "functional": "B3LYP", 
		 "basiset": "6-31G**", 
		 "properties": { 
			 "R2extent": 6186.8382, 
			 "electric_dipole_moment_norm": 1.3701025728, 
			 "electric_quadrupole_moment_norm": 19.7514562288, 
			 "total_energy": -724.247762939, 
			 "HOMO_LUMO_gap": 0.14595, 
			 "cosmo_polarized_energy": -13.05, 
			 "cosmo_cavitation_energy": 31.61, 
			 "cosmo_dispersion_energy": -23.68, 
			 "cosmo_repulsion_energy": 1.78, 
			 "cosmo_total_nonelectrostatic_energy": 9.72, 
			 "SMD_solvation_energy": 2.79 
		},
		"coords": [
			{
				"x": 1.6970899155,
				"y": -2.6605034516,
				"z": -4.8343831763,
				"element": "O" 
			},
			{
				"x": 1.0962281103,
				"y": -2.1141714243,
				"z": -3.7399404764,
				"element": "C" 
			},
			{
				"x": -0.1258192278,
				"y": -2.6649267581,
				"z": -3.3302322087,
				"element": "C" 
			},
			{
				"x": -0.7801254086,
				"y": -2.1461165106,
				"z": -2.2233531571,
				"element": "C" 
			},
			{
				"x": -0.2473896993,
				"y": -1.0644270451,
				"z": -1.4953777627,
				"element": "C" 
			},
			{
				"x": 0.9812496549,
				"y": -0.5311047558,
				"z": -1.9166324431,
				"element": "C" 
			},
			{
				"x": 1.6489889158,
				"y": -1.0465363211,
				"z": -3.0248336336,
				"element": "C" 
			},
			{
				"x": -0.9803996106,
				"y": -0.5397180758,
				"z": -0.3213330885,
				"element": "C" 
			},
			{
				"x": -1.9388048657,
				"y": -1.2902387253,
				"z": 0.202790083,
				"element": "N" 
			},
			{
				"x": -2.609303165,
				"y": -0.8040165662,
				"z": 1.2819225603,
				"element": "C" 
			},
			{
				"x": -2.290103809,
				"y": 0.4727905542,
				"z": 1.8374561729,
				"element": "C" 
			},
			{
				"x": -2.9996462671,
				"y": 0.9428645249,
				"z": 2.9697768565,
				"element": "C" 
			},
			{
				"x": -3.9937786589,
				"y": 0.1685652329,
				"z": 3.5278222239,
				"element": "C" 
			},
			{
				"x": -4.3152248893,
				"y": -1.0977994536,
				"z": 2.9759048873,
				"element": "C" 
			},
			{
				"x": -3.6401688595,
				"y": -1.5784405111,
				"z": 1.8754520534,
				"element": "C" 
			},
			{
				"x": -1.3144447273,
				"y": 1.2479327812,
				"z": 1.2772623911,
				"element": "N" 
			},
			{
				"x": -0.6918193025,
				"y": 0.7525345572,
				"z": 0.2341123388,
				"element": "C" 
			},
			{
				"x": 2.5243790186,
				"y": -2.1937177679,
				"z": -5.0111397447,
				"element": "H" 
			},
			{
				"x": -0.5415048101,
				"y": -3.4935855024,
				"z": -3.8939358434,
				"element": "H" 
			},
			{
				"x": -1.7233336851,
				"y": -2.5697074412,
				"z": -1.8973674709,
				"element": "H" 
			},
			{
				"x": 1.4473168392,
				"y": 0.2811276932,
				"z": -1.3687959037,
				"element": "H" 
			},
			{
				"x": 2.6040546829,
				"y": -0.6232595263,
				"z": -3.3287360279,
				"element": "H" 
			},
			{
				"x": -2.7345877046,
				"y": 1.9167350604,
				"z": 3.3689346635,
				"element": "H" 
			},
			{
				"x": -4.5389936455,
				"y": 0.5265381912,
				"z": 4.3961433887,
				"element": "H" 
			},
			{
				"x": -5.1028792735,
				"y": -1.6921825563,
				"z": 3.4298995598,
				"element": "H" 
			},
			{
				"x": -3.8673077212,
				"y": -2.5451853651,
				"z": 1.4376109062,
				"element": "H" 
			},
			{
				"x": 0.0626281933,
				"y": 1.3882491626,
				"z": -0.2237271484,
				"element": "H" 
			}
		],
		 "valence_orbital": [ 
			{
				"type": "occ",
				"energy": -0.26465,
				"method": "rhf"
			},
			{
				"type": "occ",
				"energy": -0.25874,
				"method": "rhf"
			},
			{
				"type": "occ",
				"energy": -0.24372,
				"method": "rhf"
			},
			{
				"type": "occ",
				"energy": -0.24066,
				"method": "rhf"
			},
			{
				"type": "occ",
				"energy": -0.21494,
				"method": "rhf"
			},
			{
				"type": "unocc",
				"energy": -0.06899,
				"method": "rhf"
			},
			{
				"type": "unocc",
				"energy": -0.03274,
				"method": "rhf"
			},
			{
				"type": "unocc",
				"energy": -0.00701,
				"method": "rhf"
			},
			{
				"type": "unocc",
				"energy": 0.01186,
				"method": "rhf"
			},
			{
				"type": "unocc",
				"energy": 0.02384,
				"method": "rhf"
			}
		],
		"cosmo_sigma_profile": { 
			"-0.025": 0.0,
			"-0.024": 0.0,
			"-0.023": 0.0,
			"-0.022": 0.0,
			"-0.021": 0.0,
			"-0.02": 0.0,
			"-0.019": 0.0,
			"-0.018": 0.646861122783,
			"-0.017": 1.29969633943,
			"-0.016": 1.03321628751,
			"-0.015": 1.0968594926,
			"-0.014": 1.28501039213,
			"-0.013": 0.860947678785,
			"-0.012": 0.757105862464,
			"-0.011": 0.73634399102,
			"-0.01": 1.54685821982,
			"-0.009": 2.13634629559,
			"-0.008": 3.42833292194,
			"-0.007": 5.98163609558,
			"-0.006": 13.825967348,
			"-0.005": 15.6369284274,
			"-0.004": 15.8623354867,
			"-0.003": 12.1982638968,
			"-0.002": 15.2201585837,
			"-0.001": 15.3641822174,
			"0.0": 16.0062205531,
			"0.001": 19.5562981208,
			"0.002": 23.9790059595,
			"0.003": 25.9772023162,
			"0.004": 25.4261311403,
			"0.005": 9.18407607272,
			"0.006": 4.54492585552,
			"0.007": 4.53445049967,
			"0.008": 3.69761278976,
			"0.009": 3.3437621008,
			"0.01": 3.35607776431,
			"0.011": 3.41622149628,
			"0.012": 0.811713756303,
			"0.013": 0.727628147196,
			"0.014": 0.946660272355,
			"0.015": 0.438571132708,
			"0.016": 0.0157868338426,
			"0.017": 0.0,
			"0.018": 0.0,
			"0.019": 0.0,
			"0.02": 0.0,
			"0.021": 0.0,
			"0.022": 0.0,
			"0.023": 0.0,
			"0.024": 0.0,
			"0.025": 0.0
		}
	}
}
