{
	 "smiles": "ClC1=CC=C(CBr)C=C1", 
	 "Tm": 322.15, 
	 "num_atms": 15, 
	 "gaussian": { 
		 "optdone": 1, 
		 "sigma_profile": "yes", 
		 "theory": "DFT", 
		 "functional": "B3LYP", 
		 "basiset": "6-31G**", 
		 "properties": { 
			 "R2extent": 3438.4698, 
			 "electric_dipole_moment_norm": 1.88183288047, 
			 "electric_quadrupole_moment_norm": 11.6696105513, 
			 "total_energy": -3301.96421586, 
			 "HOMO_LUMO_gap": 0.20209, 
			 "cosmo_polarized_energy": -6.61, 
			 "cosmo_cavitation_energy": 23.24, 
			 "cosmo_dispersion_energy": -17.5, 
			 "cosmo_repulsion_energy": 1.45, 
			 "cosmo_total_nonelectrostatic_energy": 7.19, 
			 "SMD_solvation_energy": 2.44 
		},
		"coords": [
			{
				"x": -3.4618185622,
				"y": 0.2944737165,
				"z": 0.2201399973,
				"element": "Cl" 
			},
			{
				"x": -1.7201482937,
				"y": 0.1528360092,
				"z": 0.3951536263,
				"element": "C" 
			},
			{
				"x": -1.1674199187,
				"y": 0.0229808076,
				"z": 1.6693866696,
				"element": "C" 
			},
			{
				"x": 0.2149020548,
				"y": -0.0922973991,
				"z": 1.7987097901,
				"element": "C" 
			},
			{
				"x": 1.0495031391,
				"y": -0.0818189595,
				"z": 0.672872299,
				"element": "C" 
			},
			{
				"x": 2.5287854099,
				"y": -0.2221316903,
				"z": 0.820262281,
				"element": "C" 
			},
			{
				"x": 3.4455731234,
				"y": 1.5524711226,
				"z": 1.0232896794,
				"element": "Br" 
			},
			{
				"x": 0.4671746388,
				"y": 0.0525548018,
				"z": -0.5948107199,
				"element": "C" 
			},
			{
				"x": -0.9131871959,
				"y": 0.1689639736,
				"z": -0.7426554217,
				"element": "C" 
			},
			{
				"x": -1.8100950516,
				"y": 0.0110629507,
				"z": 2.5425251846,
				"element": "H" 
			},
			{
				"x": 0.6501337987,
				"y": -0.1888673603,
				"z": 2.7896518206,
				"element": "H" 
			},
			{
				"x": 2.8127464691,
				"y": -0.7723803145,
				"z": 1.7153212958,
				"element": "H" 
			},
			{
				"x": 2.9991861033,
				"y": -0.6661044893,
				"z": -0.0550306236,
				"element": "H" 
			},
			{
				"x": 1.0999317235,
				"y": 0.0693890456,
				"z": -1.4780187296,
				"element": "H" 
			},
			{
				"x": -1.3602674384,
				"y": 0.2693677856,
				"z": -1.7252971487,
				"element": "H" 
			}
		],
		 "valence_orbital": [ 
			{
				"type": "occ",
				"energy": -0.31842,
				"method": "rhf"
			},
			{
				"type": "occ",
				"energy": -0.27721,
				"method": "rhf"
			},
			{
				"type": "occ",
				"energy": -0.27712,
				"method": "rhf"
			},
			{
				"type": "occ",
				"energy": -0.26998,
				"method": "rhf"
			},
			{
				"type": "occ",
				"energy": -0.2493,
				"method": "rhf"
			},
			{
				"type": "unocc",
				"energy": -0.04721,
				"method": "rhf"
			},
			{
				"type": "unocc",
				"energy": -0.0232,
				"method": "rhf"
			},
			{
				"type": "unocc",
				"energy": 0.0194,
				"method": "rhf"
			},
			{
				"type": "unocc",
				"energy": 0.02316,
				"method": "rhf"
			},
			{
				"type": "unocc",
				"energy": 0.0949,
				"method": "rhf"
			}
		],
		"cosmo_sigma_profile": { 
			"-0.025": 0.0,
			"-0.024": 0.0,
			"-0.023": 0.0,
			"-0.022": 0.0,
			"-0.021": 0.0,
			"-0.02": 0.0,
			"-0.019": 0.0,
			"-0.018": 0.0,
			"-0.017": 0.0,
			"-0.016": 0.0,
			"-0.015": 0.0,
			"-0.014": 0.0,
			"-0.013": 0.0,
			"-0.012": 0.0,
			"-0.011": 0.0,
			"-0.01": 0.0,
			"-0.009": 0.0128932779095,
			"-0.008": 5.35951607389,
			"-0.007": 12.9892668434,
			"-0.006": 12.1256006698,
			"-0.005": 10.7359056065,
			"-0.004": 9.2677687773,
			"-0.003": 8.0035123982,
			"-0.002": 9.34872900287,
			"-0.001": 10.8279349555,
			"0.0": 11.3464650038,
			"0.001": 15.8786267796,
			"0.002": 17.4853040391,
			"0.003": 22.3352520127,
			"0.004": 18.6161412636,
			"0.005": 11.8358167975,
			"0.006": 11.5746349805,
			"0.007": 3.8864270888,
			"0.008": 0.0,
			"0.009": 0.0,
			"0.01": 0.0,
			"0.011": 0.0,
			"0.012": 0.0,
			"0.013": 0.0,
			"0.014": 0.0,
			"0.015": 0.0,
			"0.016": 0.0,
			"0.017": 0.0,
			"0.018": 0.0,
			"0.019": 0.0,
			"0.02": 0.0,
			"0.021": 0.0,
			"0.022": 0.0,
			"0.023": 0.0,
			"0.024": 0.0,
			"0.025": 0.0
		}
	}
}
