{
	 "smiles": "NNS(=O)(=O)C1=CC=CC=C1", 
	 "Tm": 375.15, 
	 "num_atms": 19, 
	 "gaussian": { 
		 "optdone": 1, 
		 "sigma_profile": "yes", 
		 "theory": "DFT", 
		 "functional": "B3LYP", 
		 "basiset": "6-31G**", 
		 "properties": { 
			 "R2extent": 3136.006, 
			 "electric_dipole_moment_norm": 3.79206850677, 
			 "electric_quadrupole_moment_norm": 10.4245255748, 
			 "total_energy": -891.49038195, 
			 "HOMO_LUMO_gap": 0.21166, 
			 "cosmo_polarized_energy": -15.61, 
			 "cosmo_cavitation_energy": 24.64, 
			 "cosmo_dispersion_energy": -18.46, 
			 "cosmo_repulsion_energy": 1.44, 
			 "cosmo_total_nonelectrostatic_energy": 7.62, 
			 "SMD_solvation_energy": 4.08 
		},
		"coords": [
			{
				"x": 0.3281023005,
				"y": 2.8410342655,
				"z": -3.9133475652,
				"element": "N" 
			},
			{
				"x": -0.1164474105,
				"y": 2.2120590893,
				"z": -2.719987317,
				"element": "N" 
			},
			{
				"x": -0.4141797157,
				"y": 0.5120290427,
				"z": -2.8975846799,
				"element": "S" 
			},
			{
				"x": -1.6279024295,
				"y": 0.267755083,
				"z": -3.6953167918,
				"element": "O" 
			},
			{
				"x": 0.8700791198,
				"y": -0.0466560342,
				"z": -3.3329408448,
				"element": "O" 
			},
			{
				"x": -0.7490305056,
				"y": 0.0644215085,
				"z": -1.199261109,
				"element": "C" 
			},
			{
				"x": -2.052004645,
				"y": -0.2761861479,
				"z": -0.8328366464,
				"element": "C" 
			},
			{
				"x": -2.3062245319,
				"y": -0.630872612,
				"z": 0.493092267,
				"element": "C" 
			},
			{
				"x": -1.2675447336,
				"y": -0.640740643,
				"z": 1.4260555039,
				"element": "C" 
			},
			{
				"x": 0.033632932,
				"y": -0.3016368853,
				"z": 1.0419397567,
				"element": "C" 
			},
			{
				"x": 0.302833267,
				"y": 0.051777197,
				"z": -0.2787427441,
				"element": "C" 
			},
			{
				"x": -0.2196854064,
				"y": 2.5361429587,
				"z": -4.7210659389,
				"element": "H" 
			},
			{
				"x": 1.2910519327,
				"y": 2.5500892112,
				"z": -4.0578030106,
				"element": "H" 
			},
			{
				"x": -0.9760559954,
				"y": 2.6633388147,
				"z": -2.4079957444,
				"element": "H" 
			},
			{
				"x": -2.837407557,
				"y": -0.2709495211,
				"z": -1.5806342307,
				"element": "H" 
			},
			{
				"x": -3.3132786154,
				"y": -0.902282855,
				"z": 0.7945414927,
				"element": "H" 
			},
			{
				"x": -1.4703176203,
				"y": -0.9174086796,
				"z": 2.4565349512,
				"element": "H" 
			},
			{
				"x": 0.8383115054,
				"y": -0.3171381131,
				"z": 1.7705551621,
				"element": "H" 
			},
			{
				"x": 1.3068681088,
				"y": 0.3077243207,
				"z": -0.598602511,
				"element": "H" 
			}
		],
		 "valence_orbital": [ 
			{
				"type": "occ",
				"energy": -0.31198,
				"method": "rhf"
			},
			{
				"type": "occ",
				"energy": -0.2923,
				"method": "rhf"
			},
			{
				"type": "occ",
				"energy": -0.27676,
				"method": "rhf"
			},
			{
				"type": "occ",
				"energy": -0.27319,
				"method": "rhf"
			},
			{
				"type": "occ",
				"energy": -0.25856,
				"method": "rhf"
			},
			{
				"type": "unocc",
				"energy": -0.0469,
				"method": "rhf"
			},
			{
				"type": "unocc",
				"energy": -0.02556,
				"method": "rhf"
			},
			{
				"type": "unocc",
				"energy": 0.04995,
				"method": "rhf"
			},
			{
				"type": "unocc",
				"energy": 0.06898,
				"method": "rhf"
			},
			{
				"type": "unocc",
				"energy": 0.07657,
				"method": "rhf"
			}
		],
		"cosmo_sigma_profile": { 
			"-0.025": 0.0,
			"-0.024": 0.0,
			"-0.023": 0.0,
			"-0.022": 0.0,
			"-0.021": 0.0,
			"-0.02": 0.0,
			"-0.019": 0.0,
			"-0.018": 0.0,
			"-0.017": 0.0,
			"-0.016": 0.0201127091987,
			"-0.015": 0.848580952947,
			"-0.014": 1.24105217208,
			"-0.013": 0.803023116959,
			"-0.012": 3.02690295477,
			"-0.011": 2.64371883156,
			"-0.01": 4.09455812786,
			"-0.009": 3.16884185003,
			"-0.008": 3.38164106611,
			"-0.007": 11.7172437384,
			"-0.006": 14.0393381837,
			"-0.005": 12.1635138681,
			"-0.004": 9.41952503456,
			"-0.003": 9.25126036063,
			"-0.002": 8.5738608005,
			"-0.001": 10.1676708623,
			"0.0": 11.160105184,
			"0.001": 11.8189936158,
			"0.002": 14.5011114805,
			"0.003": 14.4615780575,
			"0.004": 3.81437220358,
			"0.005": 4.02093338409,
			"0.006": 3.70283034336,
			"0.007": 4.31847160175,
			"0.008": 5.4375414174,
			"0.009": 3.58904274961,
			"0.01": 8.81936198741,
			"0.011": 9.74762864205,
			"0.012": 4.16020293181,
			"0.013": 0.714537875922,
			"0.014": 0.574223493707,
			"0.015": 0.615881052288,
			"0.016": 0.0903501354879,
			"0.017": 0.0,
			"0.018": 0.0,
			"0.019": 0.0,
			"0.02": 0.0,
			"0.021": 0.0,
			"0.022": 0.0,
			"0.023": 0.0,
			"0.024": 0.0,
			"0.025": 0.0
		}
	}
}
