{
	 "smiles": "OC(=O)C1=C2C=CC=CC2=NC(=C1)C1=C(Cl)C=CC=C1", 
	 "Tm": 547.15, 
	 "num_atms": 30, 
	 "gaussian": { 
		 "optdone": 1, 
		 "sigma_profile": "yes", 
		 "theory": "DFT", 
		 "functional": "B3LYP", 
		 "basiset": "6-31G**", 
		 "properties": { 
			 "R2extent": 7028.6434, 
			 "electric_dipole_moment_norm": 1.68063565951, 
			 "electric_quadrupole_moment_norm": 10.1056739122, 
			 "total_energy": -1281.14747934, 
			 "HOMO_LUMO_gap": 0.15113, 
			 "cosmo_polarized_energy": -11.22, 
			 "cosmo_cavitation_energy": 36.43, 
			 "cosmo_dispersion_energy": -26.57, 
			 "cosmo_repulsion_energy": 2.0, 
			 "cosmo_total_nonelectrostatic_energy": 11.87, 
			 "SMD_solvation_energy": 5.58 
		},
		"coords": [
			{
				"x": 1.1537451657,
				"y": 2.9864209401,
				"z": 0.5071234069,
				"element": "O" 
			},
			{
				"x": 1.1279575487,
				"y": 2.5141064726,
				"z": 1.7779779093,
				"element": "C" 
			},
			{
				"x": 1.4837639735,
				"y": 3.207376736,
				"z": 2.7115349911,
				"element": "O" 
			},
			{
				"x": 0.6306968716,
				"y": 1.1054436737,
				"z": 1.8557801724,
				"element": "C" 
			},
			{
				"x": 0.4557289747,
				"y": 0.4236087722,
				"z": 3.1061584429,
				"element": "C" 
			},
			{
				"x": 0.740039209,
				"y": 0.9626960208,
				"z": 4.3904026568,
				"element": "C" 
			},
			{
				"x": 0.5150883323,
				"y": 0.2155830331,
				"z": 5.5270814632,
				"element": "C" 
			},
			{
				"x": -0.0021243904,
				"y": -1.0992224115,
				"z": 5.4484581259,
				"element": "C" 
			},
			{
				"x": -0.2870692476,
				"y": -1.6514120056,
				"z": 4.2223036482,
				"element": "C" 
			},
			{
				"x": -0.065986641,
				"y": -0.9127223176,
				"z": 3.0286239491,
				"element": "C" 
			},
			{
				"x": -0.3662620094,
				"y": -1.5326793453,
				"z": 1.8545940811,
				"element": "N" 
			},
			{
				"x": -0.1619521102,
				"y": -0.8905011367,
				"z": 0.7168326281,
				"element": "C" 
			},
			{
				"x": 0.3232242463,
				"y": 0.4446246357,
				"z": 0.6825306279,
				"element": "C" 
			},
			{
				"x": -0.5605603991,
				"y": -1.6126289989,
				"z": -0.5269475728,
				"element": "C" 
			},
			{
				"x": 0.1758913048,
				"y": -1.635697256,
				"z": -1.7238597275,
				"element": "C" 
			},
			{
				"x": 1.7556631837,
				"y": -0.859684076,
				"z": -1.8544689293,
				"element": "Cl" 
			},
			{
				"x": -0.2785411284,
				"y": -2.32511784,
				"z": -2.8494830649,
				"element": "C" 
			},
			{
				"x": -1.4873032974,
				"y": -3.0152674899,
				"z": -2.7990644285,
				"element": "C" 
			},
			{
				"x": -2.2300901401,
				"y": -3.0280677745,
				"z": -1.6171919634,
				"element": "C" 
			},
			{
				"x": -1.7647429603,
				"y": -2.3396742462,
				"z": -0.5023014853,
				"element": "C" 
			},
			{
				"x": 1.4956529928,
				"y": 3.8930146048,
				"z": 0.5729864307,
				"element": "H" 
			},
			{
				"x": 1.1353132678,
				"y": 1.9663060683,
				"z": 4.4588886515,
				"element": "H" 
			},
			{
				"x": 0.7395075935,
				"y": 0.6447202843,
				"z": 6.4993703876,
				"element": "H" 
			},
			{
				"x": -0.170753387,
				"y": -1.6687243498,
				"z": 6.357762862,
				"element": "H" 
			},
			{
				"x": -0.6812123976,
				"y": -2.6567735257,
				"z": 4.1183105222,
				"element": "H" 
			},
			{
				"x": 0.4358150719,
				"y": 0.9531009506,
				"z": -0.2639303231,
				"element": "H" 
			},
			{
				"x": 0.3248747359,
				"y": -2.3251199163,
				"z": -3.7503311605,
				"element": "H" 
			},
			{
				"x": -1.8383793715,
				"y": -3.5467546809,
				"z": -3.67844885,
				"element": "H" 
			},
			{
				"x": -3.1686477963,
				"y": -3.5711803899,
				"z": -1.5648042295,
				"element": "H" 
			},
			{
				"x": -2.3255371958,
				"y": -2.3479744316,
				"z": 0.4259107779,
				"element": "H" 
			}
		],
		 "valence_orbital": [ 
			{
				"type": "occ",
				"energy": -0.27507,
				"method": "rhf"
			},
			{
				"type": "occ",
				"energy": -0.26204,
				"method": "rhf"
			},
			{
				"type": "occ",
				"energy": -0.25209,
				"method": "rhf"
			},
			{
				"type": "occ",
				"energy": -0.2442,
				"method": "rhf"
			},
			{
				"type": "occ",
				"energy": -0.23341,
				"method": "rhf"
			},
			{
				"type": "unocc",
				"energy": -0.08228,
				"method": "rhf"
			},
			{
				"type": "unocc",
				"energy": -0.03794,
				"method": "rhf"
			},
			{
				"type": "unocc",
				"energy": -0.01451,
				"method": "rhf"
			},
			{
				"type": "unocc",
				"energy": -0.00815,
				"method": "rhf"
			},
			{
				"type": "unocc",
				"energy": 0.00136,
				"method": "rhf"
			}
		],
		"cosmo_sigma_profile": { 
			"-0.025": 0.0,
			"-0.024": 0.0,
			"-0.023": 0.0,
			"-0.022": 0.0,
			"-0.021": 0.0,
			"-0.02": 0.0,
			"-0.019": 0.342340275615,
			"-0.018": 1.087707481,
			"-0.017": 0.627926897225,
			"-0.016": 0.999375336653,
			"-0.015": 0.49627485773,
			"-0.014": 0.666093129503,
			"-0.013": 0.321150557812,
			"-0.012": 0.660932826804,
			"-0.011": 1.01640861661,
			"-0.01": 0.359264787724,
			"-0.009": 0.980883241042,
			"-0.008": 1.11185942588,
			"-0.007": 5.7108713243,
			"-0.006": 15.8441978293,
			"-0.005": 15.8283205753,
			"-0.004": 19.6424298514,
			"-0.003": 15.6953021192,
			"-0.002": 17.6215925312,
			"-0.001": 22.5440741953,
			"0.0": 27.8175206054,
			"0.001": 27.7795589172,
			"0.002": 32.364299155,
			"0.003": 33.0964088563,
			"0.004": 25.178187312,
			"0.005": 6.76897052437,
			"0.006": 4.72655567124,
			"0.007": 3.30369730393,
			"0.008": 2.8238279513,
			"0.009": 2.40902743397,
			"0.01": 3.69478837792,
			"0.011": 3.08884193437,
			"0.012": 1.06785460299,
			"0.013": 0.459233937072,
			"0.014": 0.00943883120481,
			"0.015": 0.0,
			"0.016": 0.0,
			"0.017": 0.0,
			"0.018": 0.0,
			"0.019": 0.0,
			"0.02": 0.0,
			"0.021": 0.0,
			"0.022": 0.0,
			"0.023": 0.0,
			"0.024": 0.0,
			"0.0": 0.0
		}
	}
}
