{
	 "smiles": "FC(F)(F)C1=CC=CC=C1C#N", 
	 "Tm": 291.15, 
	 "num_atms": 16, 
	 "gaussian": { 
		 "optdone": 1, 
		 "sigma_profile": "yes", 
		 "theory": "DFT", 
		 "functional": "B3LYP", 
		 "basiset": "6-31G**", 
		 "properties": { 
			 "R2extent": 2317.4282, 
			 "electric_dipole_moment_norm": 5.65404777217, 
			 "electric_quadrupole_moment_norm": 10.6660230288, 
			 "total_energy": -661.519118681, 
			 "HOMO_LUMO_gap": 0.20973, 
			 "cosmo_polarized_energy": -9.3, 
			 "cosmo_cavitation_energy": 22.82, 
			 "cosmo_dispersion_energy": -15.78, 
			 "cosmo_repulsion_energy": 1.2, 
			 "cosmo_total_nonelectrostatic_energy": 8.24, 
			 "SMD_solvation_energy": 6.25 
		},
		"coords": [
			{
				"x": -3.060028921,
				"y": -1.1666861186,
				"z": 0.1601924534,
				"element": "F" 
			},
			{
				"x": -2.0262981844,
				"y": -1.1201426254,
				"z": -0.7064639236,
				"element": "C" 
			},
			{
				"x": -2.1481726437,
				"y": -2.1734593712,
				"z": -1.5394071922,
				"element": "F" 
			},
			{
				"x": -2.1688450919,
				"y": -0.0026854252,
				"z": -1.4474915322,
				"element": "F" 
			},
			{
				"x": -0.6966376623,
				"y": -1.1378616186,
				"z": 0.0123678765,
				"element": "C" 
			},
			{
				"x": -0.6551224777,
				"y": -1.194789748,
				"z": 1.4034171503,
				"element": "C" 
			},
			{
				"x": 0.5688864796,
				"y": -1.2112903523,
				"z": 2.0752384734,
				"element": "C" 
			},
			{
				"x": 1.7625788194,
				"y": -1.1707620518,
				"z": 1.3560468478,
				"element": "C" 
			},
			{
				"x": 1.7354036835,
				"y": -1.1136763576,
				"z": -0.0358912138,
				"element": "C" 
			},
			{
				"x": 0.5096324215,
				"y": -1.0966846001,
				"z": -0.7190506938,
				"element": "C" 
			},
			{
				"x": 0.5287565159,
				"y": -1.0373627565,
				"z": -2.1530875467,
				"element": "C" 
			},
			{
				"x": 0.6010207459,
				"y": -0.9891740592,
				"z": -3.3123063491,
				"element": "N" 
			},
			{
				"x": -1.5852749077,
				"y": -1.2261152871,
				"z": 1.9579960232,
				"element": "H" 
			},
			{
				"x": 0.5857521408,
				"y": -1.2558050885,
				"z": 3.1596180799,
				"element": "H" 
			},
			{
				"x": 2.7157873501,
				"y": -1.1834476794,
				"z": 1.8749638486,
				"element": "H" 
			},
			{
				"x": 2.6567617319,
				"y": -1.0817568606,
				"z": -0.6071423016,
				"element": "H" 
			}
		],
		 "valence_orbital": [ 
			{
				"type": "occ",
				"energy": -0.36483,
				"method": "rhf"
			},
			{
				"type": "occ",
				"energy": -0.35866,
				"method": "rhf"
			},
			{
				"type": "occ",
				"energy": -0.33771,
				"method": "rhf"
			},
			{
				"type": "occ",
				"energy": -0.29383,
				"method": "rhf"
			},
			{
				"type": "occ",
				"energy": -0.28097,
				"method": "rhf"
			},
			{
				"type": "unocc",
				"energy": -0.07124,
				"method": "rhf"
			},
			{
				"type": "unocc",
				"energy": -0.0447,
				"method": "rhf"
			},
			{
				"type": "unocc",
				"energy": 0.02694,
				"method": "rhf"
			},
			{
				"type": "unocc",
				"energy": 0.06416,
				"method": "rhf"
			},
			{
				"type": "unocc",
				"energy": 0.07013,
				"method": "rhf"
			}
		],
		"cosmo_sigma_profile": { 
			"-0.025": 0.0,
			"-0.024": 0.0,
			"-0.023": 0.0,
			"-0.022": 0.0,
			"-0.021": 0.0,
			"-0.02": 0.0,
			"-0.019": 0.0,
			"-0.018": 0.0,
			"-0.017": 0.0,
			"-0.016": 0.0,
			"-0.015": 0.0,
			"-0.014": 0.0,
			"-0.013": 0.0,
			"-0.012": 0.0,
			"-0.011": 0.0,
			"-0.01": 0.0,
			"-0.009": 0.955256926959,
			"-0.008": 7.1915063133,
			"-0.007": 9.98225135735,
			"-0.006": 8.95107250648,
			"-0.005": 6.11921547233,
			"-0.004": 8.53317167198,
			"-0.003": 10.4385228908,
			"-0.002": 13.1766839403,
			"-0.001": 14.9861015051,
			"0.0": 16.2119643872,
			"0.001": 19.4105845186,
			"0.002": 28.9144615746,
			"0.003": 14.2285580346,
			"0.004": 3.58715567875,
			"0.005": 2.4450644077,
			"0.006": 2.9862160249,
			"0.007": 3.31459494745,
			"0.008": 2.84794983396,
			"0.009": 3.3254111284,
			"0.01": 2.56817620181,
			"0.011": 2.58093119362,
			"0.012": 2.16113509476,
			"0.013": 0.357059610016,
			"0.014": 0.0,
			"0.015": 0.0,
			"0.016": 0.0,
			"0.017": 0.0,
			"0.018": 0.0,
			"0.019": 0.0,
			"0.02": 0.0,
			"0.021": 0.0,
			"0.022": 0.0,
			"0.023": 0.0,
			"0.024": 0.0,
			"0.025": 0.0
		}
	}
}
