{
	 "smiles": "COC1=CC=C(NN=C2C(=O)NC(=O)NC2=O)C=C1", 
	 "Tm": 537.15, 
	 "num_atms": 29, 
	 "gaussian": { 
		 "optdone": 1, 
		 "sigma_profile": "yes", 
		 "theory": "DFT", 
		 "functional": "B3LYP", 
		 "basiset": "6-31G**", 
		 "properties": { 
			 "R2extent": 6338.2635, 
			 "electric_dipole_moment_norm": 5.30422759127, 
			 "electric_quadrupole_moment_norm": 13.4528826554, 
			 "total_energy": -945.08268058, 
			 "HOMO_LUMO_gap": 0.13311, 
			 "cosmo_polarized_energy": -25.18, 
			 "cosmo_cavitation_energy": 34.79, 
			 "cosmo_dispersion_energy": -25.3, 
			 "cosmo_repulsion_energy": 1.96, 
			 "cosmo_total_nonelectrostatic_energy": 11.44, 
			 "SMD_solvation_energy": 8.27 
		},
		"coords": [
			{
				"x": 2.4932959153,
				"y": -2.273328791,
				"z": 4.7889895261,
				"element": "C" 
			},
			{
				"x": 1.1286406051,
				"y": -1.8971391799,
				"z": 4.9063960733,
				"element": "O" 
			},
			{
				"x": 0.5758207812,
				"y": -1.1480007287,
				"z": 3.9138564432,
				"element": "C" 
			},
			{
				"x": 1.2601959154,
				"y": -0.6992895557,
				"z": 2.776582206,
				"element": "C" 
			},
			{
				"x": 0.5942595895,
				"y": 0.0599798599,
				"z": 1.8157036945,
				"element": "C" 
			},
			{
				"x": -0.7546389274,
				"y": 0.3754240594,
				"z": 1.9795362671,
				"element": "C" 
			},
			{
				"x": -1.4506370964,
				"y": 1.2630237474,
				"z": 1.1041389424,
				"element": "N" 
			},
			{
				"x": -1.3175436779,
				"y": 1.5859309734,
				"z": -0.1551954843,
				"element": "N" 
			},
			{
				"x": -0.7976123212,
				"y": 0.8708326634,
				"z": -1.1266572535,
				"element": "C" 
			},
			{
				"x": -0.5242913869,
				"y": -0.5799389874,
				"z": -1.114706444,
				"element": "C" 
			},
			{
				"x": -0.809706009,
				"y": -1.3392559761,
				"z": -0.1987150193,
				"element": "O" 
			},
			{
				"x": 0.0517864532,
				"y": -1.0848733538,
				"z": -2.2834346636,
				"element": "N" 
			},
			{
				"x": 0.2677206506,
				"y": -0.4218973525,
				"z": -3.4857726864,
				"element": "C" 
			},
			{
				"x": 0.7342560178,
				"y": -0.9699449385,
				"z": -4.4664550486,
				"element": "O" 
			},
			{
				"x": -0.1053383527,
				"y": 0.9112634853,
				"z": -3.4614891208,
				"element": "N" 
			},
			{
				"x": -0.6773916214,
				"y": 1.6343551573,
				"z": -2.4054912597,
				"element": "C" 
			},
			{
				"x": -0.993270511,
				"y": 2.7976195212,
				"z": -2.566913347,
				"element": "O" 
			},
			{
				"x": -1.4350309273,
				"y": -0.0605138923,
				"z": 3.1242774451,
				"element": "C" 
			},
			{
				"x": -0.7781758382,
				"y": -0.8170371079,
				"z": 4.0822603668,
				"element": "C" 
			},
			{
				"x": 3.1535376619,
				"y": -1.3969774516,
				"z": 4.7666241455,
				"element": "H" 
			},
			{
				"x": 2.6685235723,
				"y": -2.879963098,
				"z": 3.8916527012,
				"element": "H" 
			},
			{
				"x": 2.7177540149,
				"y": -2.8687083557,
				"z": 5.6749043807,
				"element": "H" 
			},
			{
				"x": 2.3074717617,
				"y": -0.9317090969,
				"z": 2.6276175703,
				"element": "H" 
			},
			{
				"x": 1.1387939045,
				"y": 0.420878685,
				"z": 0.9507912561,
				"element": "H" 
			},
			{
				"x": -1.9695088968,
				"y": 1.9833418796,
				"z": 1.5933070217,
				"element": "H" 
			},
			{
				"x": 0.2125911461,
				"y": -2.0844498819,
				"z": -2.302119872,
				"element": "H" 
			},
			{
				"x": 0.0174015617,
				"y": 1.418279889,
				"z": -4.3290464352,
				"element": "H" 
			},
			{
				"x": -2.4852657468,
				"y": 0.1860213883,
				"z": 3.2536609958,
				"element": "H" 
			},
			{
				"x": -1.293238238,
				"y": -1.1699235613,
				"z": 4.9690975986,
				"element": "H" 
			}
		],
		 "valence_orbital": [ 
			{
				"type": "occ",
				"energy": -0.2845,
				"method": "rhf"
			},
			{
				"type": "occ",
				"energy": -0.27087,
				"method": "rhf"
			},
			{
				"type": "occ",
				"energy": -0.26392,
				"method": "rhf"
			},
			{
				"type": "occ",
				"energy": -0.24994,
				"method": "rhf"
			},
			{
				"type": "occ",
				"energy": -0.21853,
				"method": "rhf"
			},
			{
				"type": "unocc",
				"energy": -0.08542,
				"method": "rhf"
			},
			{
				"type": "unocc",
				"energy": -0.01978,
				"method": "rhf"
			},
			{
				"type": "unocc",
				"energy": -0.00021,
				"method": "rhf"
			},
			{
				"type": "unocc",
				"energy": 0.00543,
				"method": "rhf"
			},
			{
				"type": "unocc",
				"energy": 0.02607,
				"method": "rhf"
			}
		],
		"cosmo_sigma_profile": { 
			"-0.025": 0.0,
			"-0.024": 0.0,
			"-0.023": 0.0,
			"-0.022": 0.0,
			"-0.021": 0.0,
			"-0.02": 0.0,
			"-0.019": 0.0,
			"-0.018": 0.0,
			"-0.017": 0.410962780973,
			"-0.016": 2.59741415444,
			"-0.015": 3.35670575534,
			"-0.014": 2.65972022116,
			"-0.013": 2.42498116042,
			"-0.012": 3.35604696795,
			"-0.011": 1.68890864892,
			"-0.01": 2.4836300617,
			"-0.009": 3.25542339231,
			"-0.008": 4.67659915426,
			"-0.007": 10.5280149077,
			"-0.006": 19.4369122707,
			"-0.005": 20.0783500655,
			"-0.004": 21.4453926084,
			"-0.003": 18.690659722,
			"-0.002": 16.6993343264,
			"-0.001": 13.1362622324,
			"0.0": 13.4121973627,
			"0.001": 10.4295788196,
			"0.002": 12.2050261249,
			"0.003": 13.7249784488,
			"0.004": 11.1263218452,
			"0.005": 7.49350583175,
			"0.006": 6.77079192947,
			"0.007": 4.24792724666,
			"0.008": 5.97940605592,
			"0.009": 7.01354147511,
			"0.01": 6.9571459265,
			"0.011": 8.96230074225,
			"0.012": 14.602390239,
			"0.013": 4.76734054303,
			"0.014": 1.25554124697,
			"0.015": 1.10096070022,
			"0.016": 0.803308728846,
			"0.017": 0.1664456506,
			"0.018": 0.0,
			"0.019": 0.0,
			"0.02": 0.0,
			"0.021": 0.0,
			"0.022": 0.0,
			"0.023": 0.0,
			"0.024": 0.0,
			"0.025": 0.0
		}
	}
}
