{
	 "smiles": "OCCN1N=C2C=CC=CN2C1=O", 
	 "Tm": 408.15, 
	 "num_atms": 22, 
	 "gaussian": { 
		 "optdone": 1, 
		 "sigma_profile": "yes", 
		 "theory": "DFT", 
		 "functional": "B3LYP", 
		 "basiset": "6-31G**", 
		 "properties": { 
			 "R2extent": 2765.2483, 
			 "electric_dipole_moment_norm": 3.63815169145, 
			 "electric_quadrupole_moment_norm": 14.8570603236, 
			 "total_energy": -624.955164217, 
			 "HOMO_LUMO_gap": 0.14688, 
			 "cosmo_polarized_energy": -15.05, 
			 "cosmo_cavitation_energy": 26.52, 
			 "cosmo_dispersion_energy": -19.57, 
			 "cosmo_repulsion_energy": 1.56, 
			 "cosmo_total_nonelectrostatic_energy": 8.51, 
			 "SMD_solvation_energy": 4.71 
		},
		"coords": [
			{
				"x": 2.7370578828,
				"y": 2.9127563842,
				"z": 1.990976872,
				"element": "O" 
			},
			{
				"x": 1.8254615916,
				"y": 2.2898223507,
				"z": 1.099404954,
				"element": "C" 
			},
			{
				"x": 1.7667248323,
				"y": 0.8172387915,
				"z": 1.5060494985,
				"element": "C" 
			},
			{
				"x": 0.8288442212,
				"y": 0.0676967688,
				"z": 0.6964549069,
				"element": "N" 
			},
			{
				"x": -0.5365216922,
				"y": 0.2641169796,
				"z": 0.835691343,
				"element": "N" 
			},
			{
				"x": -1.0668046178,
				"y": -0.5538405643,
				"z": -0.043294583,
				"element": "C" 
			},
			{
				"x": -2.4314310373,
				"y": -0.8140191182,
				"z": -0.37307951,
				"element": "C" 
			},
			{
				"x": -2.7060338232,
				"y": -1.7342560739,
				"z": -1.3445322105,
				"element": "C" 
			},
			{
				"x": -1.6559143555,
				"y": -2.4383354271,
				"z": -2.0330138551,
				"element": "C" 
			},
			{
				"x": -0.357260996,
				"y": -2.1902349803,
				"z": -1.717969641,
				"element": "C" 
			},
			{
				"x": -0.0853285564,
				"y": -1.2636942906,
				"z": -0.7405486597,
				"element": "N" 
			},
			{
				"x": 1.1800451208,
				"y": -0.8558698417,
				"z": -0.2612559712,
				"element": "C" 
			},
			{
				"x": 2.2770273328,
				"y": -1.2501911275,
				"z": -0.6291855461,
				"element": "O" 
			},
			{
				"x": 2.7881635654,
				"y": 3.8492632091,
				"z": 1.7661361912,
				"element": "H" 
			},
			{
				"x": 2.1555642099,
				"y": 2.3638783896,
				"z": 0.0515186202,
				"element": "H" 
			},
			{
				"x": 0.8163589297,
				"y": 2.7216844154,
				"z": 1.1686411521,
				"element": "H" 
			},
			{
				"x": 1.4738280045,
				"y": 0.7408401975,
				"z": 2.5572105319,
				"element": "H" 
			},
			{
				"x": 2.7451859708,
				"y": 0.3500149055,
				"z": 1.3753326217,
				"element": "H" 
			},
			{
				"x": -3.205869427,
				"y": -0.2736158335,
				"z": 0.1581868382,
				"element": "H" 
			},
			{
				"x": -3.7376310047,
				"y": -1.9449861656,
				"z": -1.6082277585,
				"element": "H" 
			},
			{
				"x": -1.8938074778,
				"y": -3.1649679836,
				"z": -2.8003266248,
				"element": "H" 
			},
			{
				"x": 0.5106413262,
				"y": -2.6577009856,
				"z": -2.1672691699,
				"element": "H" 
			}
		],
		 "valence_orbital": [ 
			{
				"type": "occ",
				"energy": -0.30832,
				"method": "rhf"
			},
			{
				"type": "occ",
				"energy": -0.27216,
				"method": "rhf"
			},
			{
				"type": "occ",
				"energy": -0.27096,
				"method": "rhf"
			},
			{
				"type": "occ",
				"energy": -0.26599,
				"method": "rhf"
			},
			{
				"type": "occ",
				"energy": -0.19895,
				"method": "rhf"
			},
			{
				"type": "unocc",
				"energy": -0.05207,
				"method": "rhf"
			},
			{
				"type": "unocc",
				"energy": 0.00375,
				"method": "rhf"
			},
			{
				"type": "unocc",
				"energy": 0.0592,
				"method": "rhf"
			},
			{
				"type": "unocc",
				"energy": 0.07231,
				"method": "rhf"
			},
			{
				"type": "unocc",
				"energy": 0.08625,
				"method": "rhf"
			}
		],
		"cosmo_sigma_profile": { 
			"-0.025": 0.0,
			"-0.024": 0.0,
			"-0.023": 0.0,
			"-0.022": 0.0,
			"-0.021": 0.0,
			"-0.02": 0.0,
			"-0.019": 0.0,
			"-0.018": 0.0,
			"-0.017": 0.0505665733531,
			"-0.016": 0.773293411695,
			"-0.015": 1.06849960581,
			"-0.014": 1.10293044471,
			"-0.013": 1.16888177998,
			"-0.012": 0.396368808389,
			"-0.011": 0.579372407275,
			"-0.01": 1.65443711958,
			"-0.009": 2.25531017646,
			"-0.008": 4.77914650608,
			"-0.007": 8.7397798773,
			"-0.006": 10.7443183482,
			"-0.005": 11.9805924369,
			"-0.004": 16.7563093802,
			"-0.003": 20.5408292867,
			"-0.002": 18.2283415156,
			"-0.001": 13.5521366387,
			"0.0": 14.5744617066,
			"0.001": 13.2405354531,
			"0.002": 13.4455716082,
			"0.003": 8.40580339767,
			"0.004": 4.72926932504,
			"0.005": 4.2810965027,
			"0.006": 3.54570171316,
			"0.007": 3.36874937579,
			"0.008": 2.51424713755,
			"0.009": 4.11927184176,
			"0.01": 4.12440489722,
			"0.011": 3.01928748934,
			"0.012": 5.10172183484,
			"0.013": 8.71470003503,
			"0.014": 3.40184183715,
			"0.015": 0.292824863001,
			"0.016": 0.0,
			"0.017": 0.0,
			"0.018": 0.0,
			"0.019": 0.0,
			"0.02": 0.0,
			"0.021": 0.0,
			"0.022": 0.0,
			"0.023": 0.0,
			"0.024": 0.0,
			"0.025": 0.0
		}
	}
}
