{
	 "smiles": "COC(=O)C1=C(N)C2=C(S1)N=CC=C2", 
	 "Tm": 465.15, 
	 "num_atms": 22, 
	 "gaussian": { 
		 "optdone": 1, 
		 "sigma_profile": "yes", 
		 "theory": "DFT", 
		 "functional": "B3LYP", 
		 "basiset": "6-31G**", 
		 "properties": { 
			 "R2extent": 3773.3784, 
			 "electric_dipole_moment_norm": 2.8902762169, 
			 "electric_quadrupole_moment_norm": 18.2816639869, 
			 "total_energy": -1005.93289273, 
			 "HOMO_LUMO_gap": 0.14405, 
			 "cosmo_polarized_energy": -13.45, 
			 "cosmo_cavitation_energy": 27.95, 
			 "cosmo_dispersion_energy": -21.53, 
			 "cosmo_repulsion_energy": 1.63, 
			 "cosmo_total_nonelectrostatic_energy": 8.05, 
			 "SMD_solvation_energy": 4.05 
		},
		"coords": [
			{
				"x": 3.9070295466,
				"y": 0.2190179109,
				"z": -0.9502804271,
				"element": "C" 
			},
			{
				"x": 2.5606642692,
				"y": -0.2655297035,
				"z": -0.8438273054,
				"element": "O" 
			},
			{
				"x": 2.0254300423,
				"y": -0.2364695816,
				"z": 0.3979003424,
				"element": "C" 
			},
			{
				"x": 2.6413556073,
				"y": 0.1753091976,
				"z": 1.3790853339,
				"element": "O" 
			},
			{
				"x": 0.6629373572,
				"y": -0.7290889817,
				"z": 0.4342684659,
				"element": "C" 
			},
			{
				"x": -0.1048940399,
				"y": -0.7753005264,
				"z": 1.5894812744,
				"element": "C" 
			},
			{
				"x": 0.3471488865,
				"y": -0.4545499797,
				"z": 2.8396984608,
				"element": "N" 
			},
			{
				"x": -1.4409291685,
				"y": -1.2595001635,
				"z": 1.3215010844,
				"element": "C" 
			},
			{
				"x": -1.6378586446,
				"y": -1.561466555,
				"z": -0.0497730529,
				"element": "C" 
			},
			{
				"x": -0.1994571833,
				"y": -1.2769395229,
				"z": -1.0128054512,
				"element": "S" 
			},
			{
				"x": -2.7707629794,
				"y": -2.023470052,
				"z": -0.5789743664,
				"element": "N" 
			},
			{
				"x": -3.7828885307,
				"y": -2.2073203566,
				"z": 0.2717566363,
				"element": "C" 
			},
			{
				"x": -3.7083230085,
				"y": -1.9537873075,
				"z": 1.6525395201,
				"element": "C" 
			},
			{
				"x": -2.5200221522,
				"y": -1.4763863907,
				"z": 2.1894230341,
				"element": "C" 
			},
			{
				"x": 4.1728614284,
				"y": 0.1144496855,
				"z": -2.0020012557,
				"element": "H" 
			},
			{
				"x": 4.58039595,
				"y": -0.3712599515,
				"z": -0.3236319483,
				"element": "H" 
			},
			{
				"x": 3.9661855005,
				"y": 1.2661312381,
				"z": -0.6424273353,
				"element": "H" 
			},
			{
				"x": 1.2579059141,
				"y": -0.0064257883,
				"z": 2.8539094785,
				"element": "H" 
			},
			{
				"x": -0.329013738,
				"y": -0.1412311011,
				"z": 3.5190136127,
				"element": "H" 
			},
			{
				"x": -4.7075867627,
				"y": -2.5816162992,
				"z": -0.1630222051,
				"element": "H" 
			},
			{
				"x": -4.5721185893,
				"y": -2.1382380096,
				"z": 2.2823270047,
				"element": "H" 
			},
			{
				"x": -2.430259705,
				"y": -1.2879277611,
				"z": 3.2561390991,
				"element": "H" 
			}
		],
		 "valence_orbital": [ 
			{
				"type": "occ",
				"energy": -0.29122,
				"method": "rhf"
			},
			{
				"type": "occ",
				"energy": -0.27866,
				"method": "rhf"
			},
			{
				"type": "occ",
				"energy": -0.26619,
				"method": "rhf"
			},
			{
				"type": "occ",
				"energy": -0.24932,
				"method": "rhf"
			},
			{
				"type": "occ",
				"energy": -0.20453,
				"method": "rhf"
			},
			{
				"type": "unocc",
				"energy": -0.06048,
				"method": "rhf"
			},
			{
				"type": "unocc",
				"energy": -0.02319,
				"method": "rhf"
			},
			{
				"type": "unocc",
				"energy": 0.01605,
				"method": "rhf"
			},
			{
				"type": "unocc",
				"energy": 0.02642,
				"method": "rhf"
			},
			{
				"type": "unocc",
				"energy": 0.06807,
				"method": "rhf"
			}
		],
		"cosmo_sigma_profile": { 
			"-0.025": 0.0,
			"-0.024": 0.0,
			"-0.023": 0.0,
			"-0.022": 0.0,
			"-0.021": 0.0,
			"-0.02": 0.0,
			"-0.019": 0.0,
			"-0.018": 0.0,
			"-0.017": 0.0,
			"-0.016": 0.0,
			"-0.015": 0.0187248430848,
			"-0.014": 1.07031452562,
			"-0.013": 1.98940245323,
			"-0.012": 1.61022798989,
			"-0.011": 1.41643975663,
			"-0.01": 2.73892474992,
			"-0.009": 2.48581694235,
			"-0.008": 3.97612432041,
			"-0.007": 8.22783977622,
			"-0.006": 11.5628708681,
			"-0.005": 12.8320623398,
			"-0.004": 12.3266769299,
			"-0.003": 13.8725289758,
			"-0.002": 11.3234787324,
			"-0.001": 10.50587072,
			"0.0": 19.6778979135,
			"0.001": 23.465347267,
			"0.002": 19.748320341,
			"0.003": 16.1529594906,
			"0.004": 11.7336896645,
			"0.005": 10.1692673036,
			"0.006": 6.70328633824,
			"0.007": 5.38989634761,
			"0.008": 2.81386358535,
			"0.009": 2.52704551018,
			"0.01": 3.42013115897,
			"0.011": 3.59665022237,
			"0.012": 2.62302765874,
			"0.013": 1.35239483218,
			"0.014": 0.601184267885,
			"0.015": 0.403780921075,
			"0.016": 0.0,
			"0.017": 0.0,
			"0.018": 0.0,
			"0.019": 0.0,
			"0.02": 0.0,
			"0.021": 0.0,
			"0.022": 0.0,
			"0.023": 0.0,
			"0.024": 0.0,
			"0.025": 0.0
		}
	}
}
