{
	 "smiles": "CC(N)C(O)=O", 
	 "Tm": 588.15, 
	 "num_atms": 13, 
	 "gaussian": { 
		 "optdone": 1, 
		 "sigma_profile": "yes", 
		 "theory": "DFT", 
		 "functional": "B3LYP", 
		 "basiset": "6-31G**", 
		 "properties": { 
			 "R2extent": 1061.1216, 
			 "electric_dipole_moment_norm": 2.54675264209, 
			 "electric_quadrupole_moment_norm": 11.5278241793, 
			 "total_energy": -323.746867111, 
			 "HOMO_LUMO_gap": 0.25048, 
			 "cosmo_polarized_energy": -11.36, 
			 "cosmo_cavitation_energy": 16.64, 
			 "cosmo_dispersion_energy": -12.22, 
			 "cosmo_repulsion_energy": 1.09, 
			 "cosmo_total_nonelectrostatic_energy": 5.5, 
			 "SMD_solvation_energy": 3.23 
		},
		"coords": [
			{
				"x": 0.1998783694,
				"y": -0.6202787011,
				"z": 0.0386599291,
				"element": "C" 
			},
			{
				"x": 0.7503319137,
				"y": -0.496085441,
				"z": -1.3988458299,
				"element": "C" 
			},
			{
				"x": -0.2600650612,
				"y": -0.4908447877,
				"z": -2.4592622349,
				"element": "N" 
			},
			{
				"x": 1.6067037602,
				"y": 0.7596568511,
				"z": -1.4969826918,
				"element": "C" 
			},
			{
				"x": 0.8515590706,
				"y": 1.8716606158,
				"z": -1.6827180767,
				"element": "O" 
			},
			{
				"x": 2.8094662182,
				"y": 0.8019212829,
				"z": -1.3736724261,
				"element": "O" 
			},
			{
				"x": 1.0076791798,
				"y": -0.6361305125,
				"z": 0.778056621,
				"element": "H" 
			},
			{
				"x": -0.3695199808,
				"y": -1.5504307333,
				"z": 0.1380585865,
				"element": "H" 
			},
			{
				"x": -0.465852642,
				"y": 0.2176213064,
				"z": 0.2704775145,
				"element": "H" 
			},
			{
				"x": 1.4372036938,
				"y": -1.3268885272,
				"z": -1.5869202061,
				"element": "H" 
			},
			{
				"x": -0.8255543098,
				"y": -1.3335107489,
				"z": -2.3901301134,
				"element": "H" 
			},
			{
				"x": -0.8861374376,
				"y": 0.3003771217,
				"z": -2.3293446458,
				"element": "H" 
			},
			{
				"x": 1.4725072255,
				"y": 2.6185322737,
				"z": -1.7150764263,
				"element": "H" 
			}
		],
		 "valence_orbital": [ 
			{
				"type": "occ",
				"energy": -0.3757,
				"method": "rhf"
			},
			{
				"type": "occ",
				"energy": -0.36257,
				"method": "rhf"
			},
			{
				"type": "occ",
				"energy": -0.31854,
				"method": "rhf"
			},
			{
				"type": "occ",
				"energy": -0.27613,
				"method": "rhf"
			},
			{
				"type": "occ",
				"energy": -0.24085,
				"method": "rhf"
			},
			{
				"type": "unocc",
				"energy": 0.00963,
				"method": "rhf"
			},
			{
				"type": "unocc",
				"energy": 0.06446,
				"method": "rhf"
			},
			{
				"type": "unocc",
				"energy": 0.09618,
				"method": "rhf"
			},
			{
				"type": "unocc",
				"energy": 0.13289,
				"method": "rhf"
			},
			{
				"type": "unocc",
				"energy": 0.13857,
				"method": "rhf"
			}
		],
		"cosmo_sigma_profile": { 
			"-0.025": 0.0,
			"-0.024": 0.0,
			"-0.023": 0.0,
			"-0.022": 0.0,
			"-0.021": 0.0,
			"-0.02": 0.0,
			"-0.019": 0.137876202602,
			"-0.018": 0.609539136087,
			"-0.017": 1.0125240868,
			"-0.016": 1.16140697944,
			"-0.015": 0.420951257874,
			"-0.014": 0.618505103721,
			"-0.013": 0.428829995195,
			"-0.012": 0.773068910258,
			"-0.011": 1.31584684839,
			"-0.01": 2.26469344099,
			"-0.009": 2.32026249304,
			"-0.008": 2.7525337847,
			"-0.007": 5.48681841817,
			"-0.006": 3.69518294981,
			"-0.005": 6.22988768255,
			"-0.004": 9.62630234014,
			"-0.003": 10.5219107567,
			"-0.002": 11.5975585906,
			"-0.001": 10.0559934848,
			"0.0": 9.45062647259,
			"0.001": 5.55316419156,
			"0.002": 4.20527979455,
			"0.003": 3.04382310769,
			"0.004": 2.86987941962,
			"0.005": 3.46775022719,
			"0.006": 3.72404603542,
			"0.007": 3.48544536401,
			"0.008": 3.22394143258,
			"0.009": 2.58955216157,
			"0.01": 2.1969390816,
			"0.011": 4.6600448516,
			"0.012": 4.74500195432,
			"0.013": 1.76054170813,
			"0.014": 0.88613161965,
			"0.015": 0.674708715661,
			"0.016": 0.408788862811,
			"0.017": 0.501012089712,
			"0.018": 0.694777812358,
			"0.019": 0.113328724555,
			"0.02": 0.0,
			"0.021": 0.0,
			"0.022": 0.0,
			"0.023": 0.0,
			"0.024": 0.0,
			"0.025": 0.0
		}
	}
}
