{
	 "smiles": "CNC(=O)NC(C)=O", 
	 "Tm": 452.15, 
	 "num_atms": 16, 
	 "gaussian": { 
		 "optdone": 1, 
		 "sigma_profile": "yes", 
		 "theory": "DFT", 
		 "functional": "B3LYP", 
		 "basiset": "6-31G**", 
		 "properties": { 
			 "R2extent": 1272.1084, 
			 "electric_dipole_moment_norm": 4.41499413363, 
			 "electric_quadrupole_moment_norm": 6.25696733969, 
			 "total_energy": -417.230291924, 
			 "HOMO_LUMO_gap": 0.24539, 
			 "cosmo_polarized_energy": -15.95, 
			 "cosmo_cavitation_energy": 20.03, 
			 "cosmo_dispersion_energy": -14.73, 
			 "cosmo_repulsion_energy": 1.25, 
			 "cosmo_total_nonelectrostatic_energy": 6.55, 
			 "SMD_solvation_energy": 5.39 
		},
		"coords": [
			{
				"x": 1.6530248953,
				"y": 2.1474679468,
				"z": 1.5398368253,
				"element": "C" 
			},
			{
				"x": 0.8037971283,
				"y": 1.3194642254,
				"z": 0.6934324453,
				"element": "N" 
			},
			{
				"x": -0.5521749918,
				"y": 1.344058144,
				"z": 0.8868310891,
				"element": "C" 
			},
			{
				"x": -1.0928606527,
				"y": 1.9579495205,
				"z": 1.7936328043,
				"element": "O" 
			},
			{
				"x": -1.3457349414,
				"y": 0.6168087777,
				"z": -0.0300940891,
				"element": "N" 
			},
			{
				"x": -1.1585746011,
				"y": -0.4973481793,
				"z": -0.851603534,
				"element": "C" 
			},
			{
				"x": 0.2295743452,
				"y": -1.0887137128,
				"z": -1.0050351176,
				"element": "C" 
			},
			{
				"x": -2.1237883522,
				"y": -0.9693131844,
				"z": -1.4268956777,
				"element": "O" 
			},
			{
				"x": 1.6121861788,
				"y": 3.208701173,
				"z": 1.2647486974,
				"element": "H" 
			},
			{
				"x": 1.3178926043,
				"y": 2.0537442608,
				"z": 2.5729222541,
				"element": "H" 
			},
			{
				"x": 2.6841703367,
				"y": 1.795395572,
				"z": 1.4612294203,
				"element": "H" 
			},
			{
				"x": 1.1453346408,
				"y": 1.1033109621,
				"z": -0.2298184856,
				"element": "H" 
			},
			{
				"x": -2.3287201543,
				"y": 0.8338049095,
				"z": 0.0919239358,
				"element": "H" 
			},
			{
				"x": 0.8355340002,
				"y": -0.4805349445,
				"z": -1.6882204513,
				"element": "H" 
			},
			{
				"x": 0.1113752639,
				"y": -2.0740326491,
				"z": -1.4552327228,
				"element": "H" 
			},
			{
				"x": 0.7581642998,
				"y": -1.1683628217,
				"z": -0.0527573934,
				"element": "H" 
			}
		],
		 "valence_orbital": [ 
			{
				"type": "occ",
				"energy": -0.37246,
				"method": "rhf"
			},
			{
				"type": "occ",
				"energy": -0.29344,
				"method": "rhf"
			},
			{
				"type": "occ",
				"energy": -0.27545,
				"method": "rhf"
			},
			{
				"type": "occ",
				"energy": -0.27006,
				"method": "rhf"
			},
			{
				"type": "occ",
				"energy": -0.25637,
				"method": "rhf"
			},
			{
				"type": "unocc",
				"energy": -0.01098,
				"method": "rhf"
			},
			{
				"type": "unocc",
				"energy": 0.04376,
				"method": "rhf"
			},
			{
				"type": "unocc",
				"energy": 0.06948,
				"method": "rhf"
			},
			{
				"type": "unocc",
				"energy": 0.10454,
				"method": "rhf"
			},
			{
				"type": "unocc",
				"energy": 0.11646,
				"method": "rhf"
			}
		],
		"cosmo_sigma_profile": { 
			"-0.025": 0.0,
			"-0.024": 0.0,
			"-0.023": 0.0,
			"-0.022": 0.0,
			"-0.021": 0.0,
			"-0.02": 0.0,
			"-0.019": 0.0,
			"-0.018": 0.0,
			"-0.017": 0.0,
			"-0.016": 0.0,
			"-0.015": 0.300356544269,
			"-0.014": 2.49625570302,
			"-0.013": 2.1966976126,
			"-0.012": 1.43617853841,
			"-0.011": 2.16374730277,
			"-0.01": 2.64561838379,
			"-0.009": 2.02249183591,
			"-0.008": 3.05962020773,
			"-0.007": 2.99980640206,
			"-0.006": 5.94511032735,
			"-0.005": 12.0456953513,
			"-0.004": 13.7645304066,
			"-0.003": 15.4315705814,
			"-0.002": 18.0924285474,
			"-0.001": 11.3035333503,
			"0.0": 6.38123616398,
			"0.001": 5.48553181348,
			"0.002": 3.60713296787,
			"0.003": 3.84828200548,
			"0.004": 3.74239355331,
			"0.005": 2.46246452841,
			"0.006": 3.10071080242,
			"0.007": 2.58726630569,
			"0.008": 2.31109652046,
			"0.009": 2.07274481355,
			"0.01": 3.21144864803,
			"0.011": 3.99955692746,
			"0.012": 7.0427084934,
			"0.013": 9.66835559064,
			"0.014": 2.22741044091,
			"0.015": 0.0,
			"0.016": 0.0,
			"0.017": 0.0,
			"0.018": 0.0,
			"0.019": 0.0,
			"0.02": 0.0,
			"0.021": 0.0,
			"0.022": 0.0,
			"0.023": 0.0,
			"0.024": 0.0,
			"0.025": 0.0
		}
	}
}
