{
	 "smiles": "NC1=CC(F)=C(F)C(C(O)=O)=C1F", 
	 "Tm": 450.65, 
	 "num_atms": 17, 
	 "gaussian": { 
		 "optdone": 1, 
		 "sigma_profile": "yes", 
		 "theory": "DFT", 
		 "functional": "B3LYP", 
		 "basiset": "6-31G**", 
		 "properties": { 
			 "R2extent": 3092.897, 
			 "electric_dipole_moment_norm": 5.43995363583, 
			 "electric_quadrupole_moment_norm": 16.8883427446, 
			 "total_energy": -773.851725595, 
			 "HOMO_LUMO_gap": 0.16844, 
			 "cosmo_polarized_energy": -15.43, 
			 "cosmo_cavitation_energy": 23.2, 
			 "cosmo_dispersion_energy": -17.27, 
			 "cosmo_repulsion_energy": 1.3, 
			 "cosmo_total_nonelectrostatic_energy": 7.24, 
			 "SMD_solvation_energy": 6.4 
		},
		"coords": [
			{
				"x": -1.3797654836,
				"y": -0.0415447363,
				"z": -1.6795445215,
				"element": "N" 
			},
			{
				"x": -0.4171991555,
				"y": 0.278319708,
				"z": -0.7372282023,
				"element": "C" 
			},
			{
				"x": -0.6062391457,
				"y": 0.0785470863,
				"z": 0.6361797985,
				"element": "C" 
			},
			{
				"x": 0.4241556186,
				"y": 0.359308138,
				"z": 1.521160352,
				"element": "C" 
			},
			{
				"x": 0.2499510292,
				"y": 0.1675661882,
				"z": 2.8384557598,
				"element": "F" 
			},
			{
				"x": 1.6439862465,
				"y": 0.8378367301,
				"z": 1.0676011802,
				"element": "C" 
			},
			{
				"x": 2.6070887792,
				"y": 1.079703312,
				"z": 2.0030074135,
				"element": "F" 
			},
			{
				"x": 1.8870703867,
				"y": 1.0660150387,
				"z": -0.2968377315,
				"element": "C" 
			},
			{
				"x": 3.1846010635,
				"y": 1.6212743164,
				"z": -0.8442768307,
				"element": "C" 
			},
			{
				"x": 4.2275211846,
				"y": 1.6945782136,
				"z": 0.0092721557,
				"element": "O" 
			},
			{
				"x": 3.3078332629,
				"y": 1.9818878979,
				"z": -1.9886284576,
				"element": "O" 
			},
			{
				"x": 0.8284118406,
				"y": 0.7729495706,
				"z": -1.1668891067,
				"element": "C" 
			},
			{
				"x": 0.9488718943,
				"y": 0.9512870749,
				"z": -2.4942288131,
				"element": "F" 
			},
			{
				"x": -1.2383601572,
				"y": 0.3706728473,
				"z": -2.5904658992,
				"element": "H" 
			},
			{
				"x": -2.3386119469,
				"y": -0.021028052,
				"z": -1.3656034745,
				"element": "H" 
			},
			{
				"x": -1.5437231319,
				"y": -0.3040418567,
				"z": 1.024947096,
				"element": "H" 
			},
			{
				"x": 3.9743077146,
				"y": 1.4144685229,
				"z": 0.9022792815,
				"element": "H" 
			}
		],
		 "valence_orbital": [ 
			{
				"type": "occ",
				"energy": -0.33389,
				"method": "rhf"
			},
			{
				"type": "occ",
				"energy": -0.31215,
				"method": "rhf"
			},
			{
				"type": "occ",
				"energy": -0.27593,
				"method": "rhf"
			},
			{
				"type": "occ",
				"energy": -0.27293,
				"method": "rhf"
			},
			{
				"type": "occ",
				"energy": -0.2296,
				"method": "rhf"
			},
			{
				"type": "unocc",
				"energy": -0.06116,
				"method": "rhf"
			},
			{
				"type": "unocc",
				"energy": -0.00865,
				"method": "rhf"
			},
			{
				"type": "unocc",
				"energy": 0.03593,
				"method": "rhf"
			},
			{
				"type": "unocc",
				"energy": 0.04491,
				"method": "rhf"
			},
			{
				"type": "unocc",
				"energy": 0.06547,
				"method": "rhf"
			}
		],
		"cosmo_sigma_profile": { 
			"-0.025": 0.0,
			"-0.024": 0.0,
			"-0.023": 0.0,
			"-0.022": 0.0,
			"-0.021": 0.0,
			"-0.02": 0.0,
			"-0.019": 0.0,
			"-0.018": 0.0,
			"-0.017": 0.0,
			"-0.016": 0.0,
			"-0.015": 0.00503440852256,
			"-0.014": 1.05784629409,
			"-0.013": 2.7745073482,
			"-0.012": 3.71099628285,
			"-0.011": 3.91103082416,
			"-0.01": 4.40866488473,
			"-0.009": 4.95824399619,
			"-0.008": 4.83740242093,
			"-0.007": 4.88105781652,
			"-0.006": 5.5388370844,
			"-0.005": 5.53685753491,
			"-0.004": 6.05747774285,
			"-0.003": 6.85345311421,
			"-0.002": 15.2549460792,
			"-0.001": 20.0587559645,
			"0.0": 11.9904595253,
			"0.001": 11.8302508604,
			"0.002": 11.788930471,
			"0.003": 16.535484905,
			"0.004": 7.33368072593,
			"0.005": 4.18812453146,
			"0.006": 3.4416926374,
			"0.007": 3.3152976411,
			"0.008": 4.25493100025,
			"0.009": 4.00001341911,
			"0.01": 5.85855129041,
			"0.011": 6.95208428013,
			"0.012": 4.87819560329,
			"0.013": 0.841374708985,
			"0.014": 0.0,
			"0.015": 0.0,
			"0.016": 0.0,
			"0.017": 0.0,
			"0.018": 0.0,
			"0.019": 0.0,
			"0.02": 0.0,
			"0.021": 0.0,
			"0.022": 0.0,
			"0.023": 0.0,
			"0.024": 0.0,
			"0.025": 0.0
		}
	}
}
