{
	 "smiles": "O=CC1=C(CN2C=NC=N2)C=CC=C1", 
	 "Tm": 332.15, 
	 "num_atms": 23, 
	 "gaussian": { 
		 "optdone": 1, 
		 "sigma_profile": "yes", 
		 "theory": "DFT", 
		 "functional": "B3LYP", 
		 "basiset": "6-31G**", 
		 "properties": { 
			 "R2extent": 2800.2242, 
			 "electric_dipole_moment_norm": 5.22437952105, 
			 "electric_quadrupole_moment_norm": 8.50134652393, 
			 "total_energy": -625.940038003, 
			 "HOMO_LUMO_gap": 0.17473, 
			 "cosmo_polarized_energy": -12.73, 
			 "cosmo_cavitation_energy": 27.49, 
			 "cosmo_dispersion_energy": -19.72, 
			 "cosmo_repulsion_energy": 1.51, 
			 "cosmo_total_nonelectrostatic_energy": 9.28, 
			 "SMD_solvation_energy": 3.38 
		},
		"coords": [
			{
				"x": -1.1207734894,
				"y": -2.4730710531,
				"z": 1.7298015755,
				"element": "O" 
			},
			{
				"x": -1.2538764325,
				"y": -2.5119818537,
				"z": 0.5178107906,
				"element": "C" 
			},
			{
				"x": -1.1369031469,
				"y": -1.3798565625,
				"z": -0.4292392341,
				"element": "C" 
			},
			{
				"x": -0.9203904812,
				"y": -0.0333293921,
				"z": -0.047530687,
				"element": "C" 
			},
			{
				"x": -0.7823192328,
				"y": 0.4071053292,
				"z": 1.4010787779,
				"element": "C" 
			},
			{
				"x": 0.6050098858,
				"y": 0.4006283019,
				"z": 1.858612372,
				"element": "N" 
			},
			{
				"x": 1.2752978129,
				"y": -0.5216592348,
				"z": 2.5888697314,
				"element": "C" 
			},
			{
				"x": 2.537321258,
				"y": -0.1543629633,
				"z": 2.7454726617,
				"element": "N" 
			},
			{
				"x": 2.586746943,
				"y": 1.0258840834,
				"z": 2.067009603,
				"element": "C" 
			},
			{
				"x": 1.4470030656,
				"y": 1.4091937064,
				"z": 1.5083776179,
				"element": "N" 
			},
			{
				"x": -0.8223835592,
				"y": 0.9349432179,
				"z": -1.04924064,
				"element": "C" 
			},
			{
				"x": -0.9335604699,
				"y": 0.5978057131,
				"z": -2.4002012343,
				"element": "C" 
			},
			{
				"x": -1.1554537701,
				"y": -0.7271631205,
				"z": -2.7767073789,
				"element": "C" 
			},
			{
				"x": -1.2590492706,
				"y": -1.7034485068,
				"z": -1.7908593133,
				"element": "C" 
			},
			{
				"x": -1.4861019217,
				"y": -3.4786339027,
				"z": 0.0197715717,
				"element": "H" 
			},
			{
				"x": -1.3477833042,
				"y": -0.2424637107,
				"z": 2.06561379,
				"element": "H" 
			},
			{
				"x": -1.1410992814,
				"y": 1.4335706856,
				"z": 1.5049499399,
				"element": "H" 
			},
			{
				"x": 0.8036544616,
				"y": -1.4191070615,
				"z": 2.9617460909,
				"element": "H" 
			},
			{
				"x": 3.4841235281,
				"y": 1.6244159442,
				"z": 1.9872093701,
				"element": "H" 
			},
			{
				"x": -0.6425322103,
				"y": 1.9668999235,
				"z": -0.7632427759,
				"element": "H" 
			},
			{
				"x": -0.8486475275,
				"y": 1.3727486638,
				"z": -3.1563575574,
				"element": "H" 
			},
			{
				"x": -1.2471741917,
				"y": -0.9943104748,
				"z": -3.8248285467,
				"element": "H" 
			},
			{
				"x": -1.4336086657,
				"y": -2.7401077325,
				"z": -2.0692165248,
				"element": "H" 
			}
		],
		 "valence_orbital": [ 
			{
				"type": "occ",
				"energy": -0.27889,
				"method": "rhf"
			},
			{
				"type": "occ",
				"energy": -0.27306,
				"method": "rhf"
			},
			{
				"type": "occ",
				"energy": -0.27014,
				"method": "rhf"
			},
			{
				"type": "occ",
				"energy": -0.26357,
				"method": "rhf"
			},
			{
				"type": "occ",
				"energy": -0.25467,
				"method": "rhf"
			},
			{
				"type": "unocc",
				"energy": -0.07994,
				"method": "rhf"
			},
			{
				"type": "unocc",
				"energy": -0.02991,
				"method": "rhf"
			},
			{
				"type": "unocc",
				"energy": 0.01639,
				"method": "rhf"
			},
			{
				"type": "unocc",
				"energy": 0.02322,
				"method": "rhf"
			},
			{
				"type": "unocc",
				"energy": 0.0637,
				"method": "rhf"
			}
		],
		"cosmo_sigma_profile": { 
			"-0.025": 0.0,
			"-0.024": 0.0,
			"-0.023": 0.0,
			"-0.022": 0.0,
			"-0.021": 0.0,
			"-0.02": 0.0,
			"-0.019": 0.0,
			"-0.018": 0.0,
			"-0.017": 0.0,
			"-0.016": 0.0,
			"-0.015": 0.0,
			"-0.014": 0.0,
			"-0.013": 0.0,
			"-0.012": 0.0,
			"-0.011": 0.0,
			"-0.01": 0.0,
			"-0.009": 0.261922221281,
			"-0.008": 4.73804106027,
			"-0.007": 13.8432897624,
			"-0.006": 16.5846509776,
			"-0.005": 19.7680820923,
			"-0.004": 15.5975220391,
			"-0.003": 14.881965626,
			"-0.002": 14.375285156,
			"-0.001": 15.0102428926,
			"0.0": 12.9372261736,
			"0.001": 13.8997238795,
			"0.002": 17.6064721359,
			"0.003": 15.0346878331,
			"0.004": 7.6849456225,
			"0.005": 5.15517764846,
			"0.006": 4.08214098642,
			"0.007": 4.69065543793,
			"0.008": 4.93396226724,
			"0.009": 3.17844139989,
			"0.01": 2.89859953416,
			"0.011": 4.20568434998,
			"0.012": 3.81122865638,
			"0.013": 2.10256922192,
			"0.014": 1.09571212921,
			"0.015": 1.1960387918,
			"0.016": 1.16065929577,
			"0.017": 0.552254856478,
			"0.018": 0.0078854332625,
			"0.019": 0.0,
			"0.02": 0.0,
			"0.021": 0.0,
			"0.022": 0.0,
			"0.023": 0.0,
			"0.024": 0.0,
			"0.025": 0.0
		}
	}
}
