{
	 "smiles": "BrC1=CC2=C(OCCCO2)C=C1C(=O)C1=CC=CC=C1", 
	 "Tm": 379.15, 
	 "num_atms": 33, 
	 "gaussian": { 
		 "optdone": 1, 
		 "sigma_profile": "yes", 
		 "theory": "DFT", 
		 "functional": "B3LYP", 
		 "basiset": "6-31G**", 
		 "properties": { 
			 "R2extent": 7887.3604, 
			 "electric_dipole_moment_norm": 5.32742157239, 
			 "electric_quadrupole_moment_norm": 21.1135707629, 
			 "total_energy": -3414.5856442, 
			 "HOMO_LUMO_gap": 0.16798, 
			 "cosmo_polarized_energy": -13.15, 
			 "cosmo_cavitation_energy": 38.65, 
			 "cosmo_dispersion_energy": -27.93, 
			 "cosmo_repulsion_energy": 2.15, 
			 "cosmo_total_nonelectrostatic_energy": 12.87, 
			 "SMD_solvation_energy": 5.98 
		},
		"coords": [
			{
				"x": 1.1511698992,
				"y": -1.1320662912,
				"z": -2.7440493493,
				"element": "Br" 
			},
			{
				"x": 0.5122235789,
				"y": 0.255585951,
				"z": -1.5895323433,
				"element": "C" 
			},
			{
				"x": -0.2048441451,
				"y": 1.2960915534,
				"z": -2.1725740219,
				"element": "C" 
			},
			{
				"x": -0.6457234466,
				"y": 2.3788610745,
				"z": -1.4070078057,
				"element": "C" 
			},
			{
				"x": -0.3450714001,
				"y": 2.4150847832,
				"z": -0.029283798,
				"element": "C" 
			},
			{
				"x": -0.6381779304,
				"y": 3.4780338113,
				"z": 0.7855020573,
				"element": "O" 
			},
			{
				"x": -2.0029453595,
				"y": 3.8999539591,
				"z": 0.8784923822,
				"element": "C" 
			},
			{
				"x": -2.4736297299,
				"y": 4.6789715592,
				"z": -0.3439206733,
				"element": "C" 
			},
			{
				"x": -2.5527035937,
				"y": 3.8293392801,
				"z": -1.6063985423,
				"element": "C" 
			},
			{
				"x": -1.2716451895,
				"y": 3.3941124407,
				"z": -2.0789051852,
				"element": "O" 
			},
			{
				"x": 0.3763077636,
				"y": 1.3616767142,
				"z": 0.5308725733,
				"element": "C" 
			},
			{
				"x": 0.8048406139,
				"y": 0.2600241402,
				"z": -0.2199010792,
				"element": "C" 
			},
			{
				"x": 1.6120381592,
				"y": -0.7895760911,
				"z": 0.5118979327,
				"element": "C" 
			},
			{
				"x": 2.6205265556,
				"y": -0.4437780493,
				"z": 1.111059476,
				"element": "O" 
			},
			{
				"x": 1.1243746906,
				"y": -2.2010277172,
				"z": 0.5756365262,
				"element": "C" 
			},
			{
				"x": -0.1795814553,
				"y": -2.5650840268,
				"z": 0.2093585114,
				"element": "C" 
			},
			{
				"x": -0.6042308231,
				"y": -3.8857305428,
				"z": 0.3477684003,
				"element": "C" 
			},
			{
				"x": 0.2719772129,
				"y": -4.8531438454,
				"z": 0.8441099253,
				"element": "C" 
			},
			{
				"x": 1.5732847195,
				"y": -4.4968687827,
				"z": 1.2128316848,
				"element": "C" 
			},
			{
				"x": 1.9946286817,
				"y": -3.1769923128,
				"z": 1.0869499907,
				"element": "C" 
			},
			{
				"x": -0.4126535824,
				"y": 1.301908002,
				"z": -3.2357496829,
				"element": "H" 
			},
			{
				"x": -2.6488232515,
				"y": 3.0265206083,
				"z": 1.0533942361,
				"element": "H" 
			},
			{
				"x": -2.0376550437,
				"y": 4.5320627858,
				"z": 1.7697323434,
				"element": "H" 
			},
			{
				"x": -3.472609293,
				"y": 5.0854110362,
				"z": -0.1358940938,
				"element": "H" 
			},
			{
				"x": -1.8013968437,
				"y": 5.526737299,
				"z": -0.5165169443,
				"element": "H" 
			},
			{
				"x": -2.9672241839,
				"y": 4.41184714,
				"z": -2.4332784884,
				"element": "H" 
			},
			{
				"x": -3.2007271037,
				"y": 2.9551723125,
				"z": -1.4450240496,
				"element": "H" 
			},
			{
				"x": 0.6264567634,
				"y": 1.4197622201,
				"z": 1.5848019303,
				"element": "H" 
			},
			{
				"x": -0.8618324797,
				"y": -1.8145105282,
				"z": -0.1757895826,
				"element": "H" 
			},
			{
				"x": -1.6168167629,
				"y": -4.1604516712,
				"z": 0.0673199015,
				"element": "H" 
			},
			{
				"x": -0.0584366714,
				"y": -5.8830930022,
				"z": 0.9458716514,
				"element": "H" 
			},
			{
				"x": 2.2539100709,
				"y": -5.2492555107,
				"z": 1.6005718151,
				"element": "H" 
			},
			{
				"x": 2.9942895798,
				"y": -2.8731782991,
				"z": 1.3788543016,
				"element": "H" 
			}
		],
		 "valence_orbital": [ 
			{
				"type": "occ",
				"energy": -0.2593,
				"method": "rhf"
			},
			{
				"type": "occ",
				"energy": -0.25515,
				"method": "rhf"
			},
			{
				"type": "occ",
				"energy": -0.25416,
				"method": "rhf"
			},
			{
				"type": "occ",
				"energy": -0.24505,
				"method": "rhf"
			},
			{
				"type": "occ",
				"energy": -0.22885,
				"method": "rhf"
			},
			{
				"type": "unocc",
				"energy": -0.06087,
				"method": "rhf"
			},
			{
				"type": "unocc",
				"energy": -0.01729,
				"method": "rhf"
			},
			{
				"type": "unocc",
				"energy": -0.01385,
				"method": "rhf"
			},
			{
				"type": "unocc",
				"energy": -0.00559,
				"method": "rhf"
			},
			{
				"type": "unocc",
				"energy": 0.00728,
				"method": "rhf"
			}
		],
		"cosmo_sigma_profile": { 
			"-0.025": 0.0,
			"-0.024": 0.0,
			"-0.023": 0.0,
			"-0.022": 0.0,
			"-0.021": 0.0,
			"-0.02": 0.0,
			"-0.019": 0.0,
			"-0.018": 0.0,
			"-0.017": 0.0,
			"-0.016": 0.0,
			"-0.015": 0.0,
			"-0.014": 0.0,
			"-0.013": 0.0,
			"-0.012": 0.0,
			"-0.011": 0.0,
			"-0.01": 0.0,
			"-0.009": 0.0,
			"-0.008": 0.386211584563,
			"-0.007": 3.62579874006,
			"-0.006": 18.9261786204,
			"-0.005": 32.872921279,
			"-0.004": 30.4737705622,
			"-0.003": 25.0157548416,
			"-0.002": 21.463780385,
			"-0.001": 17.2423123162,
			"0.0": 21.5231633556,
			"0.001": 25.4985927663,
			"0.002": 26.8108652565,
			"0.003": 22.4675670389,
			"0.004": 25.9898651244,
			"0.005": 10.0238477233,
			"0.006": 4.09472093326,
			"0.007": 3.13730801461,
			"0.008": 4.42454390783,
			"0.009": 4.50525666783,
			"0.01": 4.98250290938,
			"0.011": 5.31562584554,
			"0.012": 2.30444587944,
			"0.013": 0.324472432046,
			"0.014": 0.0,
			"0.015": 0.0,
			"0.016": 0.0,
			"0.017": 0.0,
			"0.018": 0.0,
			"0.019": 0.0,
			"0.02": 0.0,
			"0.021": 0.0,
			"0.022": 0.0,
			"0.023": 0.0,
			"0.024": 0.0,
			"0.025": 0.0
		}
	}
}
