{
	 "smiles": "COC1=CC=C(C=C1)C(C=O)C=O", 
	 "Tm": 453.15, 
	 "num_atms": 23, 
	 "gaussian": { 
		 "optdone": 1, 
		 "sigma_profile": "yes", 
		 "theory": "DFT", 
		 "functional": "B3LYP", 
		 "basiset": "6-31G**", 
		 "properties": { 
			 "R2extent": 3165.1815, 
			 "electric_dipole_moment_norm": 4.43689316865, 
			 "electric_quadrupole_moment_norm": 13.2983655345, 
			 "total_energy": -612.716195741, 
			 "HOMO_LUMO_gap": 0.18621, 
			 "cosmo_polarized_energy": -12.25, 
			 "cosmo_cavitation_energy": 28.04, 
			 "cosmo_dispersion_energy": -19.69, 
			 "cosmo_repulsion_energy": 1.58, 
			 "cosmo_total_nonelectrostatic_energy": 9.93, 
			 "SMD_solvation_energy": 7.54 
		},
		"coords": [
			{
				"x": -3.9226557959,
				"y": 0.1004643301,
				"z": -0.3245034935,
				"element": "C" 
			},
			{
				"x": -2.9358232152,
				"y": -0.8945022595,
				"z": -0.0931528086,
				"element": "O" 
			},
			{
				"x": -1.6255543625,
				"y": -0.5278408182,
				"z": -0.1335144098,
				"element": "C" 
			},
			{
				"x": -1.1668517785,
				"y": 0.7683782189,
				"z": -0.396028458,
				"element": "C" 
			},
			{
				"x": 0.2064578388,
				"y": 1.0245928735,
				"z": -0.4148007275,
				"element": "C" 
			},
			{
				"x": 1.1392180486,
				"y": 0.0094659972,
				"z": -0.1745852775,
				"element": "C" 
			},
			{
				"x": 0.6622675524,
				"y": -1.2852059785,
				"z": 0.0897108529,
				"element": "C" 
			},
			{
				"x": -0.6982774782,
				"y": -1.5545541283,
				"z": 0.1092141631,
				"element": "C" 
			},
			{
				"x": 2.6354956915,
				"y": 0.3078025392,
				"z": -0.1569693949,
				"element": "C" 
			},
			{
				"x": 3.0063981245,
				"y": 1.0630089918,
				"z": 1.1187683405,
				"element": "C" 
			},
			{
				"x": 3.7365931196,
				"y": 0.6089841394,
				"z": 1.968735036,
				"element": "O" 
			},
			{
				"x": 3.006318113,
				"y": 1.0939578434,
				"z": -1.40780856,
				"element": "C" 
			},
			{
				"x": 3.2890949775,
				"y": 2.2719899783,
				"z": -1.4170193689,
				"element": "O" 
			},
			{
				"x": -3.8291200632,
				"y": 0.5368941252,
				"z": -1.3270237743,
				"element": "H" 
			},
			{
				"x": -4.885116086,
				"y": -0.4061861029,
				"z": -0.242022067,
				"element": "H" 
			},
			{
				"x": -3.8711114257,
				"y": 0.9019428762,
				"z": 0.4232374125,
				"element": "H" 
			},
			{
				"x": -1.8594474679,
				"y": 1.5785857366,
				"z": -0.5894529198,
				"element": "H" 
			},
			{
				"x": 0.5479076632,
				"y": 2.0337824953,
				"z": -0.6289589308,
				"element": "H" 
			},
			{
				"x": 1.3676995709,
				"y": -2.0880139701,
				"z": 0.2861926193,
				"element": "H" 
			},
			{
				"x": -1.0723369448,
				"y": -2.5526682627,
				"z": 0.3116070596,
				"element": "H" 
			},
			{
				"x": 3.1939763384,
				"y": -0.6354822658,
				"z": -0.1603005066,
				"element": "H" 
			},
			{
				"x": 2.5292154582,
				"y": 2.0578825093,
				"z": 1.2278123363,
				"element": "H" 
			},
			{
				"x": 2.9639521213,
				"y": 0.5010211314,
				"z": -2.3474371231,
				"element": "H" 
			}
		],
		 "valence_orbital": [ 
			{
				"type": "occ",
				"energy": -0.33236,
				"method": "rhf"
			},
			{
				"type": "occ",
				"energy": -0.27508,
				"method": "rhf"
			},
			{
				"type": "occ",
				"energy": -0.2673,
				"method": "rhf"
			},
			{
				"type": "occ",
				"energy": -0.25654,
				"method": "rhf"
			},
			{
				"type": "occ",
				"energy": -0.22691,
				"method": "rhf"
			},
			{
				"type": "unocc",
				"energy": -0.0407,
				"method": "rhf"
			},
			{
				"type": "unocc",
				"energy": -0.03307,
				"method": "rhf"
			},
			{
				"type": "unocc",
				"energy": -0.01677,
				"method": "rhf"
			},
			{
				"type": "unocc",
				"energy": 0.00937,
				"method": "rhf"
			},
			{
				"type": "unocc",
				"energy": 0.08269,
				"method": "rhf"
			}
		],
		"cosmo_sigma_profile": { 
			"-0.025": 0.0,
			"-0.024": 0.0,
			"-0.023": 0.0,
			"-0.022": 0.0,
			"-0.021": 0.0,
			"-0.02": 0.0,
			"-0.019": 0.0,
			"-0.018": 0.0,
			"-0.017": 0.0,
			"-0.016": 0.0,
			"-0.015": 0.0,
			"-0.014": 0.0,
			"-0.013": 0.0,
			"-0.012": 0.0,
			"-0.011": 0.0,
			"-0.01": 0.0,
			"-0.009": 8.10727342452e-05,
			"-0.008": 4.56359079549,
			"-0.007": 12.1576178854,
			"-0.006": 18.734011435,
			"-0.005": 21.8165969394,
			"-0.004": 18.4586171178,
			"-0.003": 17.6639576248,
			"-0.002": 14.9647699411,
			"-0.001": 11.6881106114,
			"0.0": 9.52755056046,
			"0.001": 10.0818905225,
			"0.002": 10.0861826815,
			"0.003": 13.5908134183,
			"0.004": 14.379791162,
			"0.005": 7.92140309177,
			"0.006": 3.64589367478,
			"0.007": 4.72148602899,
			"0.008": 5.61363946201,
			"0.009": 5.89091760701,
			"0.01": 8.47404541811,
			"0.011": 7.02231550036,
			"0.012": 2.1316680005,
			"0.013": 0.0196450785744,
			"0.014": 0.0,
			"0.015": 0.0,
			"0.016": 0.0,
			"0.017": 0.0,
			"0.018": 0.0,
			"0.019": 0.0,
			"0.02": 0.0,
			"0.021": 0.0,
			"0.022": 0.0,
			"0.023": 0.0,
			"0.024": 0.0,
			"0.025": 0.0
		}
	}
}
