{
	 "smiles": "CC(C)(C)C(N)=O", 
	 "Tm": 428.15, 
	 "num_atms": 18, 
	 "gaussian": { 
		 "optdone": 1, 
		 "sigma_profile": "yes", 
		 "theory": "DFT", 
		 "functional": "B3LYP", 
		 "basiset": "6-31G**", 
		 "properties": { 
			 "R2extent": 1331.6417, 
			 "electric_dipole_moment_norm": 3.48429265418, 
			 "electric_quadrupole_moment_norm": 15.1947882545, 
			 "total_energy": -327.1658305, 
			 "HOMO_LUMO_gap": 0.27366, 
			 "cosmo_polarized_energy": -11.52, 
			 "cosmo_cavitation_energy": 20.04, 
			 "cosmo_dispersion_energy": -14.46, 
			 "cosmo_repulsion_energy": 1.23, 
			 "cosmo_total_nonelectrostatic_energy": 6.8, 
			 "SMD_solvation_energy": 4.51 
		},
		"coords": [
			{
				"x": -0.2935370415,
				"y": -1.1577257703,
				"z": 0.35722432,
				"element": "C" 
			},
			{
				"x": 1.1251940956,
				"y": -0.5511546246,
				"z": 0.2733359448,
				"element": "C" 
			},
			{
				"x": 1.7710511804,
				"y": -0.5582442209,
				"z": 1.667556823,
				"element": "C" 
			},
			{
				"x": 1.0470167022,
				"y": 0.8994913003,
				"z": -0.2533056344,
				"element": "C" 
			},
			{
				"x": 2.0032945758,
				"y": -1.4043119672,
				"z": -0.6739885492,
				"element": "C" 
			},
			{
				"x": 1.5659715821,
				"y": -1.504371703,
				"z": -1.9680676727,
				"element": "N" 
			},
			{
				"x": 3.0286404366,
				"y": -1.9628391343,
				"z": -0.3087216927,
				"element": "O" 
			},
			{
				"x": -0.9019930023,
				"y": -0.5889429616,
				"z": 1.0686821848,
				"element": "H" 
			},
			{
				"x": -0.2588007344,
				"y": -2.1969745823,
				"z": 0.6995536577,
				"element": "H" 
			},
			{
				"x": -0.8140842866,
				"y": -1.1398951286,
				"z": -0.6063333822,
				"element": "H" 
			},
			{
				"x": 1.8494949006,
				"y": -1.5756254349,
				"z": 2.0583291406,
				"element": "H" 
			},
			{
				"x": 2.7819543501,
				"y": -0.1449058464,
				"z": 1.633700864,
				"element": "H" 
			},
			{
				"x": 1.1702600846,
				"y": 0.0392760831,
				"z": 2.3615800943,
				"element": "H" 
			},
			{
				"x": 0.5570869672,
				"y": 0.9642225043,
				"z": -1.2308191853,
				"element": "H" 
			},
			{
				"x": 2.0451942909,
				"y": 1.3385655948,
				"z": -0.3496391195,
				"element": "H" 
			},
			{
				"x": 0.4720467962,
				"y": 1.519660835,
				"z": 0.4429082976,
				"element": "H" 
			},
			{
				"x": 0.7288583728,
				"y": -1.0596066683,
				"z": -2.3041041372,
				"element": "H" 
			},
			{
				"x": 2.1186507296,
				"y": -2.0540182752,
				"z": -2.6076919535,
				"element": "H" 
			}
		],
		 "valence_orbital": [ 
			{
				"type": "occ",
				"energy": -0.35177,
				"method": "rhf"
			},
			{
				"type": "occ",
				"energy": -0.33107,
				"method": "rhf"
			},
			{
				"type": "occ",
				"energy": -0.3294,
				"method": "rhf"
			},
			{
				"type": "occ",
				"energy": -0.26118,
				"method": "rhf"
			},
			{
				"type": "occ",
				"energy": -0.23871,
				"method": "rhf"
			},
			{
				"type": "unocc",
				"energy": 0.03495,
				"method": "rhf"
			},
			{
				"type": "unocc",
				"energy": 0.05796,
				"method": "rhf"
			},
			{
				"type": "unocc",
				"energy": 0.10549,
				"method": "rhf"
			},
			{
				"type": "unocc",
				"energy": 0.12418,
				"method": "rhf"
			},
			{
				"type": "unocc",
				"energy": 0.13222,
				"method": "rhf"
			}
		],
		"cosmo_sigma_profile": { 
			"-0.025": 0.0,
			"-0.024": 0.0,
			"-0.023": 0.0,
			"-0.022": 0.0,
			"-0.021": 0.0,
			"-0.02": 0.0,
			"-0.019": 0.0,
			"-0.018": 0.0,
			"-0.017": 0.0,
			"-0.016": 0.0,
			"-0.015": 0.0,
			"-0.014": 0.259102266748,
			"-0.013": 2.31162716505,
			"-0.012": 2.16965545988,
			"-0.011": 2.53442749145,
			"-0.01": 2.94733946949,
			"-0.009": 2.89623684877,
			"-0.008": 2.12958602808,
			"-0.007": 1.72705064259,
			"-0.006": 2.40131150696,
			"-0.005": 1.73264723171,
			"-0.004": 4.37713036597,
			"-0.003": 17.1748809701,
			"-0.002": 19.0548328781,
			"-0.001": 15.6838753937,
			"0.0": 18.6983869525,
			"0.001": 19.9363059346,
			"0.002": 7.98088223635,
			"0.003": 3.39465092003,
			"0.004": 3.46024406137,
			"0.005": 2.79439194442,
			"0.006": 1.65663572727,
			"0.007": 1.25514685035,
			"0.008": 0.974948377766,
			"0.009": 1.72245816744,
			"0.01": 1.69487536306,
			"0.011": 1.16117301224,
			"0.012": 1.75181806706,
			"0.013": 2.4666039045,
			"0.014": 5.51155373444,
			"0.015": 2.72783515133,
			"0.016": 0.0201814426922,
			"0.017": 0.0,
			"0.018": 0.0,
			"0.019": 0.0,
			"0.02": 0.0,
			"0.021": 0.0,
			"0.022": 0.0,
			"0.023": 0.0,
			"0.024": 0.0,
			"0.025": 0.0
		}
	}
}
