{
	 "smiles": "NC1=C(C#N)C(OCCCO)=NN1", 
	 "Tm": 429.15, 
	 "num_atms": 23, 
	 "gaussian": { 
		 "optdone": 1, 
		 "sigma_profile": "yes", 
		 "theory": "DFT", 
		 "functional": "B3LYP", 
		 "basiset": "6-31G**", 
		 "properties": { 
			 "R2extent": 3906.9239, 
			 "electric_dipole_moment_norm": 6.38672755408, 
			 "electric_quadrupole_moment_norm": 27.3688093809, 
			 "total_energy": -642.17078006, 
			 "HOMO_LUMO_gap": 0.2289, 
			 "cosmo_polarized_energy": -25.67, 
			 "cosmo_cavitation_energy": 28.85, 
			 "cosmo_dispersion_energy": -20.61, 
			 "cosmo_repulsion_energy": 1.71, 
			 "cosmo_total_nonelectrostatic_energy": 9.95, 
			 "SMD_solvation_energy": 5.63 
		},
		"coords": [
			{
				"x": 4.4069137077,
				"y": 1.6706546597,
				"z": 1.26830906,
				"element": "N" 
			},
			{
				"x": 3.0637659507,
				"y": 1.5627211453,
				"z": 0.9816414627,
				"element": "C" 
			},
			{
				"x": 2.1234296979,
				"y": 0.622376244,
				"z": 1.4176469544,
				"element": "C" 
			},
			{
				"x": 2.3474796663,
				"y": -0.3938098188,
				"z": 2.3691225588,
				"element": "C" 
			},
			{
				"x": 2.5809198813,
				"y": -1.2147348554,
				"z": 3.1637709229,
				"element": "N" 
			},
			{
				"x": 0.9292991776,
				"y": 0.9771982022,
				"z": 0.7101437023,
				"element": "C" 
			},
			{
				"x": -0.2271225844,
				"y": 0.3178287987,
				"z": 0.8488519319,
				"element": "O" 
			},
			{
				"x": -1.3342858542,
				"y": 0.8070422459,
				"z": 0.0727094301,
				"element": "C" 
			},
			{
				"x": -2.5265829663,
				"y": -0.0953593536,
				"z": 0.3473089469,
				"element": "C" 
			},
			{
				"x": -3.7852230953,
				"y": 0.3456004195,
				"z": -0.4068707902,
				"element": "C" 
			},
			{
				"x": -3.6603208536,
				"y": 0.2485754867,
				"z": -1.8215246206,
				"element": "O" 
			},
			{
				"x": 1.09228107,
				"y": 2.0249117842,
				"z": -0.0745125236,
				"element": "N" 
			},
			{
				"x": 2.4154446028,
				"y": 2.3746847374,
				"z": 0.118666944,
				"element": "N" 
			},
			{
				"x": 4.7630069962,
				"y": 2.6126757461,
				"z": 1.3663771325,
				"element": "H" 
			},
			{
				"x": 4.7043409736,
				"y": 1.0701006953,
				"z": 2.0268881363,
				"element": "H" 
			},
			{
				"x": -1.538434168,
				"y": 1.8484536096,
				"z": 0.3546187771,
				"element": "H" 
			},
			{
				"x": -1.0570066375,
				"y": 0.7960618404,
				"z": -0.9881351464,
				"element": "H" 
			},
			{
				"x": -2.7351952965,
				"y": -0.0955107667,
				"z": 1.4241797165,
				"element": "H" 
			},
			{
				"x": -2.2753851381,
				"y": -1.1223132932,
				"z": 0.0613157271,
				"element": "H" 
			},
			{
				"x": -4.072411748,
				"y": 1.3649960136,
				"z": -0.1015968922,
				"element": "H" 
			},
			{
				"x": -4.614715304,
				"y": -0.3143696224,
				"z": -0.1354389384,
				"element": "H" 
			},
			{
				"x": -3.1189052606,
				"y": 0.984394756,
				"z": -2.1315097673,
				"element": "H" 
			},
			{
				"x": 2.8191071826,
				"y": 3.0811213256,
				"z": -0.4748627246,
				"element": "H" 
			}
		],
		 "valence_orbital": [ 
			{
				"type": "occ",
				"energy": -0.32303,
				"method": "rhf"
			},
			{
				"type": "occ",
				"energy": -0.30199,
				"method": "rhf"
			},
			{
				"type": "occ",
				"energy": -0.27173,
				"method": "rhf"
			},
			{
				"type": "occ",
				"energy": -0.23837,
				"method": "rhf"
			},
			{
				"type": "occ",
				"energy": -0.22841,
				"method": "rhf"
			},
			{
				"type": "unocc",
				"energy": 0.00049,
				"method": "rhf"
			},
			{
				"type": "unocc",
				"energy": 0.02841,
				"method": "rhf"
			},
			{
				"type": "unocc",
				"energy": 0.03369,
				"method": "rhf"
			},
			{
				"type": "unocc",
				"energy": 0.05201,
				"method": "rhf"
			},
			{
				"type": "unocc",
				"energy": 0.06077,
				"method": "rhf"
			}
		],
		"cosmo_sigma_profile": { 
			"-0.025": 0.0,
			"-0.024": 0.0,
			"-0.023": 0.0,
			"-0.022": 0.0,
			"-0.021": 0.0,
			"-0.02": 0.0,
			"-0.019": 0.0,
			"-0.018": 0.00804740221233,
			"-0.017": 1.73703915376,
			"-0.016": 2.97553279482,
			"-0.015": 3.9130807495,
			"-0.014": 3.91747960935,
			"-0.013": 4.43481647409,
			"-0.012": 4.22335900286,
			"-0.011": 5.07194440025,
			"-0.01": 3.36452710561,
			"-0.009": 3.13350765663,
			"-0.008": 4.22319331149,
			"-0.007": 4.40039788746,
			"-0.006": 3.36227991379,
			"-0.005": 8.48602163307,
			"-0.004": 15.0823027084,
			"-0.003": 16.1889490153,
			"-0.002": 11.8637592605,
			"-0.001": 10.3864706756,
			"0.0": 12.0097406656,
			"0.001": 17.2321900802,
			"0.002": 11.4258588831,
			"0.003": 8.44517371913,
			"0.004": 7.82789277346,
			"0.005": 8.29759828668,
			"0.006": 6.54842390637,
			"0.007": 8.18059117831,
			"0.008": 6.22112113765,
			"0.009": 7.41646234544,
			"0.01": 6.29597896677,
			"0.011": 5.92015069365,
			"0.012": 5.16978899894,
			"0.013": 5.43261106129,
			"0.014": 3.99018849405,
			"0.015": 0.935186808551,
			"0.016": 0.0,
			"0.017": 0.0,
			"0.018": 0.0,
			"0.019": 0.0,
			"0.02": 0.0,
			"0.021": 0.0,
			"0.022": 0.0,
			"0.023": 0.0,
			"0.024": 0.0,
			"0.025": 0.0
		}
	}
}
