{
	 "smiles": "CC(C)C=CC(O)=O", 
	 "Tm": 308.15, 
	 "num_atms": 18, 
	 "gaussian": { 
		 "optdone": 1, 
		 "sigma_profile": "yes", 
		 "theory": "DFT", 
		 "functional": "B3LYP", 
		 "basiset": "6-31G**", 
		 "properties": { 
			 "R2extent": 1913.5397, 
			 "electric_dipole_moment_norm": 5.33269765972, 
			 "electric_quadrupole_moment_norm": 16.0216076806, 
			 "total_energy": -385.108979951, 
			 "HOMO_LUMO_gap": 0.22055, 
			 "cosmo_polarized_energy": -13.57, 
			 "cosmo_cavitation_energy": 21.55, 
			 "cosmo_dispersion_energy": -15.48, 
			 "cosmo_repulsion_energy": 1.32, 
			 "cosmo_total_nonelectrostatic_energy": 7.39, 
			 "SMD_solvation_energy": 5.27 
		},
		"coords": [
			{
				"x": 2.6618526374,
				"y": 1.0410002092,
				"z": 0.1106203862,
				"element": "C" 
			},
			{
				"x": 1.3923530007,
				"y": 1.5145276435,
				"z": -0.629252034,
				"element": "C" 
			},
			{
				"x": 0.3094418509,
				"y": 1.970120829,
				"z": 0.3545166098,
				"element": "C" 
			},
			{
				"x": 0.9409126348,
				"y": 0.448874782,
				"z": -1.5975634471,
				"element": "C" 
			},
			{
				"x": -0.2646841462,
				"y": -0.1323329027,
				"z": -1.6576908764,
				"element": "C" 
			},
			{
				"x": -0.6793229327,
				"y": -1.1433963846,
				"z": -2.6698040494,
				"element": "C" 
			},
			{
				"x": 0.3049364942,
				"y": -1.8638666944,
				"z": -3.2783474435,
				"element": "O" 
			},
			{
				"x": -1.8366712169,
				"y": -1.3293465492,
				"z": -2.9650193085,
				"element": "O" 
			},
			{
				"x": 3.4506322674,
				"y": 0.7459526199,
				"z": -0.5897211771,
				"element": "H" 
			},
			{
				"x": 3.0581663132,
				"y": 1.8412370521,
				"z": 0.7433914145,
				"element": "H" 
			},
			{
				"x": 2.4399369091,
				"y": 0.1805792056,
				"z": 0.7511404522,
				"element": "H" 
			},
			{
				"x": 1.6842729113,
				"y": 2.3824857517,
				"z": -1.2416044297,
				"element": "H" 
			},
			{
				"x": -0.5725893242,
				"y": 2.3567518128,
				"z": -0.1650076642,
				"element": "H" 
			},
			{
				"x": 0.6944930799,
				"y": 2.7667059952,
				"z": 0.9982433331,
				"element": "H" 
			},
			{
				"x": -0.0109639466,
				"y": 1.1458299702,
				"z": 1.001325,
				"element": "H" 
			},
			{
				"x": 1.7058520777,
				"y": 0.157670174,
				"z": -2.3218267193,
				"element": "H" 
			},
			{
				"x": -1.0728730521,
				"y": 0.1713282354,
				"z": -1.0006299566,
				"element": "H" 
			},
			{
				"x": 1.144854442,
				"y": -1.7202217498,
				"z": -2.8208700899,
				"element": "H" 
			}
		],
		 "valence_orbital": [ 
			{
				"type": "occ",
				"energy": -0.3568,
				"method": "rhf"
			},
			{
				"type": "occ",
				"energy": -0.35291,
				"method": "rhf"
			},
			{
				"type": "occ",
				"energy": -0.31307,
				"method": "rhf"
			},
			{
				"type": "occ",
				"energy": -0.28235,
				"method": "rhf"
			},
			{
				"type": "occ",
				"energy": -0.26493,
				"method": "rhf"
			},
			{
				"type": "unocc",
				"energy": -0.04438,
				"method": "rhf"
			},
			{
				"type": "unocc",
				"energy": 0.05923,
				"method": "rhf"
			},
			{
				"type": "unocc",
				"energy": 0.07373,
				"method": "rhf"
			},
			{
				"type": "unocc",
				"energy": 0.08508,
				"method": "rhf"
			},
			{
				"type": "unocc",
				"energy": 0.1084,
				"method": "rhf"
			}
		],
		"cosmo_sigma_profile": { 
			"-0.025": 0.0,
			"-0.024": 0.0,
			"-0.023": 0.0,
			"-0.022": 0.0,
			"-0.021": 0.0,
			"-0.02": 0.0,
			"-0.019": 0.0,
			"-0.018": 0.518258010897,
			"-0.017": 0.974615265639,
			"-0.016": 0.934954635165,
			"-0.015": 1.01736451681,
			"-0.014": 0.733943437081,
			"-0.013": 0.823807963285,
			"-0.012": 1.14569840221,
			"-0.011": 1.31227856853,
			"-0.01": 0.85663337585,
			"-0.009": 0.935463948831,
			"-0.008": 1.82919734,
			"-0.007": 2.0383755396,
			"-0.006": 3.29774859403,
			"-0.005": 4.4561837731,
			"-0.004": 11.2909209596,
			"-0.003": 21.5436406388,
			"-0.002": 20.7135679296,
			"-0.001": 19.5436760434,
			"0.0": 17.4546784633,
			"0.001": 14.5476443841,
			"0.002": 5.35902037954,
			"0.003": 3.01886258808,
			"0.004": 2.4232322733,
			"0.005": 1.8680958383,
			"0.006": 2.33762916177,
			"0.007": 2.38573838887,
			"0.008": 2.06305613774,
			"0.009": 3.37121684399,
			"0.01": 4.07548739728,
			"0.011": 5.15552824775,
			"0.012": 6.07829946098,
			"0.013": 4.11084254877,
			"0.014": 0.483354674733,
			"0.015": 0.0,
			"0.016": 0.0,
			"0.017": 0.0,
			"0.018": 0.0,
			"0.019": 0.0,
			"0.02": 0.0,
			"0.021": 0.0,
			"0.022": 0.0,
			"0.023": 0.0,
			"0.024": 0.0,
			"0.025": 0.0
		}
	}
}
