{
	 "smiles": "ClC1=CC(Cl)=C(C=C1)C#N", 
	 "Tm": 332.15, 
	 "num_atms": 13, 
	 "gaussian": { 
		 "optdone": 1, 
		 "sigma_profile": "yes", 
		 "theory": "DFT", 
		 "functional": "B3LYP", 
		 "basiset": "6-31G**", 
		 "properties": { 
			 "R2extent": 2384.3064, 
			 "electric_dipole_moment_norm": 3.56941384964, 
			 "electric_quadrupole_moment_norm": 9.7759030253, 
			 "total_energy": -1243.66700684, 
			 "HOMO_LUMO_gap": 0.19792, 
			 "cosmo_polarized_energy": -8.37, 
			 "cosmo_cavitation_energy": 22.49, 
			 "cosmo_dispersion_energy": -16.29, 
			 "cosmo_repulsion_energy": 1.33, 
			 "cosmo_total_nonelectrostatic_energy": 7.52, 
			 "SMD_solvation_energy": 4.67 
		},
		"coords": [
			{
				"x": -1.3662324351,
				"y": -2.5629204109,
				"z": 2.7836829445,
				"element": "Cl" 
			},
			{
				"x": -0.7269594762,
				"y": -1.4604659168,
				"z": 1.587330202,
				"element": "C" 
			},
			{
				"x": -0.6101587751,
				"y": -1.8909156762,
				"z": 0.265891983,
				"element": "C" 
			},
			{
				"x": -0.1009072152,
				"y": -1.0133165342,
				"z": -0.6882943637,
				"element": "C" 
			},
			{
				"x": 0.0430442087,
				"y": -1.5560478708,
				"z": -2.3379983417,
				"element": "Cl" 
			},
			{
				"x": 0.2924310988,
				"y": 0.2912623489,
				"z": -0.3314863611,
				"element": "C" 
			},
			{
				"x": 0.1610143,
				"y": 0.6923484915,
				"z": 1.0101043991,
				"element": "C" 
			},
			{
				"x": -0.3453824225,
				"y": -0.1732147625,
				"z": 1.9714110346,
				"element": "C" 
			},
			{
				"x": 0.8183262668,
				"y": 1.2109647842,
				"z": -1.2934605657,
				"element": "C" 
			},
			{
				"x": 1.249719566,
				"y": 1.9875743563,
				"z": -2.0438185109,
				"element": "N" 
			},
			{
				"x": -0.9096492282,
				"y": -2.891764554,
				"z": -0.0190062257,
				"element": "H" 
			},
			{
				"x": 0.4633700023,
				"y": 1.6964664228,
				"z": 1.2867139798,
				"element": "H" 
			},
			{
				"x": -0.4445158904,
				"y": 0.1409293217,
				"z": 3.0036298258,
				"element": "H" 
			}
		],
		 "valence_orbital": [ 
			{
				"type": "occ",
				"energy": -0.33968,
				"method": "rhf"
			},
			{
				"type": "occ",
				"energy": -0.33737,
				"method": "rhf"
			},
			{
				"type": "occ",
				"energy": -0.33391,
				"method": "rhf"
			},
			{
				"type": "occ",
				"energy": -0.28701,
				"method": "rhf"
			},
			{
				"type": "occ",
				"energy": -0.27124,
				"method": "rhf"
			},
			{
				"type": "unocc",
				"energy": -0.07332,
				"method": "rhf"
			},
			{
				"type": "unocc",
				"energy": -0.04911,
				"method": "rhf"
			},
			{
				"type": "unocc",
				"energy": -0.0123,
				"method": "rhf"
			},
			{
				"type": "unocc",
				"energy": 0.02035,
				"method": "rhf"
			},
			{
				"type": "unocc",
				"energy": 0.03321,
				"method": "rhf"
			}
		],
		"cosmo_sigma_profile": { 
			"-0.025": 0.0,
			"-0.024": 0.0,
			"-0.023": 0.0,
			"-0.022": 0.0,
			"-0.021": 0.0,
			"-0.02": 0.0,
			"-0.019": 0.0,
			"-0.018": 0.0,
			"-0.017": 0.0,
			"-0.016": 0.0,
			"-0.015": 0.0,
			"-0.014": 0.0,
			"-0.013": 0.0,
			"-0.012": 0.0,
			"-0.011": 0.0,
			"-0.01": 0.701824446188,
			"-0.009": 5.30067437345,
			"-0.008": 6.14474620055,
			"-0.007": 5.57783242608,
			"-0.006": 5.0821035236,
			"-0.005": 5.27770695764,
			"-0.004": 6.68863134951,
			"-0.003": 12.9553819067,
			"-0.002": 18.6698152295,
			"-0.001": 24.8122832547,
			"0.0": 19.1313542456,
			"0.001": 12.9710232778,
			"0.002": 14.1915719937,
			"0.003": 19.8331397795,
			"0.004": 6.77310352808,
			"0.005": 2.83640208088,
			"0.006": 2.59341007409,
			"0.007": 3.59985037253,
			"0.008": 3.0432272195,
			"0.009": 3.63625627571,
			"0.01": 2.46958913641,
			"0.011": 2.89075715887,
			"0.012": 1.75016184212,
			"0.013": 0.506470539149,
			"0.014": 0.0,
			"0.015": 0.0,
			"0.016": 0.0,
			"0.017": 0.0,
			"0.018": 0.0,
			"0.019": 0.0,
			"0.02": 0.0,
			"0.021": 0.0,
			"0.022": 0.0,
			"0.023": 0.0,
			"0.024": 0.0,
			"0.025": 0.0
		}
	}
}
