{
	 "smiles": "ClCC(=O)NC1=NN=CS1", 
	 "Tm": 507.15, 
	 "num_atms": 14, 
	 "gaussian": { 
		 "optdone": 1, 
		 "sigma_profile": "yes", 
		 "theory": "DFT", 
		 "functional": "B3LYP", 
		 "basiset": "6-31G**", 
		 "properties": { 
			 "R2extent": 2551.3844, 
			 "electric_dipole_moment_norm": 2.46891637768, 
			 "electric_quadrupole_moment_norm": 11.4642560147, 
			 "total_energy": -1252.67110925, 
			 "HOMO_LUMO_gap": 0.20849, 
			 "cosmo_polarized_energy": -13.98, 
			 "cosmo_cavitation_energy": 22.35, 
			 "cosmo_dispersion_energy": -17.61, 
			 "cosmo_repulsion_energy": 1.39, 
			 "cosmo_total_nonelectrostatic_energy": 6.13, 
			 "SMD_solvation_energy": 2.69 
		},
		"coords": [
			{
				"x": -3.7171932072,
				"y": -1.8335446581,
				"z": 0.894258698,
				"element": "Cl" 
			},
			{
				"x": -2.2150580682,
				"y": -2.5709299675,
				"z": 0.2086673033,
				"element": "C" 
			},
			{
				"x": -1.0826643955,
				"y": -1.6081773215,
				"z": -0.1390462086,
				"element": "C" 
			},
			{
				"x": -0.0502088416,
				"y": -2.0659866349,
				"z": -0.6051624837,
				"element": "O" 
			},
			{
				"x": -1.284737296,
				"y": -0.276329475,
				"z": 0.0908594424,
				"element": "N" 
			},
			{
				"x": -0.358783754,
				"y": 0.7209457239,
				"z": -0.170096542,
				"element": "C" 
			},
			{
				"x": -0.6438147001,
				"y": 1.9697136005,
				"z": 0.0836666598,
				"element": "N" 
			},
			{
				"x": 0.3881746287,
				"y": 2.8119077577,
				"z": -0.2373332982,
				"element": "N" 
			},
			{
				"x": 1.4145521636,
				"y": 2.1793155087,
				"z": -0.7203911843,
				"element": "C" 
			},
			{
				"x": 1.2323843575,
				"y": 0.4427556604,
				"z": -0.8407146313,
				"element": "S" 
			},
			{
				"x": -1.8378410078,
				"y": -3.2889946648,
				"z": 0.937700105,
				"element": "H" 
			},
			{
				"x": -2.4953526003,
				"y": -3.1067346743,
				"z": -0.6989319873,
				"element": "H" 
			},
			{
				"x": -2.1653807275,
				"y": 0.0420592182,
				"z": 0.4804941079,
				"element": "H" 
			},
			{
				"x": 2.3241234483,
				"y": 2.6787999268,
				"z": -1.0303699809,
				"element": "H" 
			}
		],
		 "valence_orbital": [ 
			{
				"type": "occ",
				"energy": -0.31562,
				"method": "rhf"
			},
			{
				"type": "occ",
				"energy": -0.30299,
				"method": "rhf"
			},
			{
				"type": "occ",
				"energy": -0.29616,
				"method": "rhf"
			},
			{
				"type": "occ",
				"energy": -0.27056,
				"method": "rhf"
			},
			{
				"type": "occ",
				"energy": -0.26005,
				"method": "rhf"
			},
			{
				"type": "unocc",
				"energy": -0.05156,
				"method": "rhf"
			},
			{
				"type": "unocc",
				"energy": -0.00644,
				"method": "rhf"
			},
			{
				"type": "unocc",
				"energy": -0.00504,
				"method": "rhf"
			},
			{
				"type": "unocc",
				"energy": 0.00823,
				"method": "rhf"
			},
			{
				"type": "unocc",
				"energy": 0.03921,
				"method": "rhf"
			}
		],
		"cosmo_sigma_profile": { 
			"-0.025": 0.0,
			"-0.024": 0.0,
			"-0.023": 0.0,
			"-0.022": 0.0,
			"-0.021": 0.0,
			"-0.02": 0.0,
			"-0.019": 0.0,
			"-0.018": 0.0,
			"-0.017": 0.0,
			"-0.016": 0.0,
			"-0.015": 0.0,
			"-0.014": 0.0,
			"-0.013": 0.481962214615,
			"-0.012": 0.920923479435,
			"-0.011": 2.53792825541,
			"-0.01": 7.149620733,
			"-0.009": 7.28675299991,
			"-0.008": 7.32863109719,
			"-0.007": 8.688332376,
			"-0.006": 7.62448227102,
			"-0.005": 6.5107574395,
			"-0.004": 8.48128697911,
			"-0.003": 10.4833534582,
			"-0.002": 11.9174061223,
			"-0.001": 12.3317381448,
			"0.0": 10.7828101102,
			"0.001": 10.8184821755,
			"0.002": 9.66499284226,
			"0.003": 7.98905801512,
			"0.004": 10.3730471037,
			"0.005": 8.16083263129,
			"0.006": 3.17925547126,
			"0.007": 3.31838188125,
			"0.008": 3.72402494863,
			"0.009": 4.93902797123,
			"0.01": 5.17240319863,
			"0.011": 6.14900086694,
			"0.012": 3.93296010881,
			"0.013": 2.28197283914,
			"0.014": 1.80974375212,
			"0.015": 0.248249085375,
			"0.016": 0.0,
			"0.017": 0.0,
			"0.018": 0.0,
			"0.019": 0.0,
			"0.02": 0.0,
			"0.021": 0.0,
			"0.022": 0.0,
			"0.023": 0.0,
			"0.024": 0.0,
			"0.025": 0.0
		}
	}
}
