{
	 "smiles": "COC(C)(C)CCO", 
	 "Tm": 223.15, 
	 "num_atms": 22, 
	 "gaussian": { 
		 "optdone": 1, 
		 "sigma_profile": "yes", 
		 "theory": "DFT", 
		 "functional": "B3LYP", 
		 "basiset": "6-31G**", 
		 "properties": { 
			 "R2extent": 1412.5812, 
			 "electric_dipole_moment_norm": 3.43636683723, 
			 "electric_quadrupole_moment_norm": 10.5840999868, 
			 "total_energy": -387.512612575, 
			 "HOMO_LUMO_gap": 0.31103, 
			 "cosmo_polarized_energy": -7.26, 
			 "cosmo_cavitation_energy": 22.6, 
			 "cosmo_dispersion_energy": -16.49, 
			 "cosmo_repulsion_energy": 1.36, 
			 "cosmo_total_nonelectrostatic_energy": 7.47, 
			 "SMD_solvation_energy": 4.43 
		},
		"coords": [
			{
				"x": 1.5948839846,
				"y": 0.582365575,
				"z": 2.888581801,
				"element": "C" 
			},
			{
				"x": 1.5624398191,
				"y": 0.5036810461,
				"z": 1.4736526145,
				"element": "O" 
			},
			{
				"x": 0.4874086827,
				"y": -0.2465710929,
				"z": 0.8484963944,
				"element": "C" 
			},
			{
				"x": -0.8824502378,
				"y": 0.3177476629,
				"z": 1.2585873186,
				"element": "C" 
			},
			{
				"x": 0.5919031598,
				"y": -1.7334285406,
				"z": 1.2229655108,
				"element": "C" 
			},
			{
				"x": 0.7409266696,
				"y": -0.0844907335,
				"z": -0.6676587129,
				"element": "C" 
			},
			{
				"x": 0.8306499189,
				"y": 1.35557051,
				"z": -1.1912680458,
				"element": "C" 
			},
			{
				"x": 2.0096416246,
				"y": 2.0246012212,
				"z": -0.7859165617,
				"element": "O" 
			},
			{
				"x": 1.6637302982,
				"y": -0.4061333683,
				"z": 3.3602306791,
				"element": "H" 
			},
			{
				"x": 2.4949918943,
				"y": 1.147251294,
				"z": 3.1430155364,
				"element": "H" 
			},
			{
				"x": 0.725470987,
				"y": 1.1101725961,
				"z": 3.3018941124,
				"element": "H" 
			},
			{
				"x": -1.0990556177,
				"y": 0.1234025829,
				"z": 2.3132799889,
				"element": "H" 
			},
			{
				"x": -1.6756368457,
				"y": -0.1553189253,
				"z": 0.6713394131,
				"element": "H" 
			},
			{
				"x": -0.9331781358,
				"y": 1.3973095034,
				"z": 1.093844869,
				"element": "H" 
			},
			{
				"x": -0.1326951664,
				"y": -2.3196665705,
				"z": 0.6491631634,
				"element": "H" 
			},
			{
				"x": 1.593948495,
				"y": -2.1114400918,
				"z": 0.9995498534,
				"element": "H" 
			},
			{
				"x": 0.3833258918,
				"y": -1.9067613007,
				"z": 2.2831085053,
				"element": "H" 
			},
			{
				"x": 1.6815465489,
				"y": -0.590651836,
				"z": -0.9157381551,
				"element": "H" 
			},
			{
				"x": -0.0607837603,
				"y": -0.6122207351,
				"z": -1.1995084664,
				"element": "H" 
			},
			{
				"x": 0.8438954337,
				"y": 1.3302413551,
				"z": -2.2873923929,
				"element": "H" 
			},
			{
				"x": -0.0739846522,
				"y": 1.9200167387,
				"z": -0.9053373259,
				"element": "H" 
			},
			{
				"x": 2.1135210075,
				"y": 1.8115231095,
				"z": 0.1549099005,
				"element": "H" 
			}
		],
		 "valence_orbital": [ 
			{
				"type": "occ",
				"energy": -0.34218,
				"method": "rhf"
			},
			{
				"type": "occ",
				"energy": -0.3282,
				"method": "rhf"
			},
			{
				"type": "occ",
				"energy": -0.28858,
				"method": "rhf"
			},
			{
				"type": "occ",
				"energy": -0.26238,
				"method": "rhf"
			},
			{
				"type": "occ",
				"energy": -0.24132,
				"method": "rhf"
			},
			{
				"type": "unocc",
				"energy": 0.06971,
				"method": "rhf"
			},
			{
				"type": "unocc",
				"energy": 0.09563,
				"method": "rhf"
			},
			{
				"type": "unocc",
				"energy": 0.11326,
				"method": "rhf"
			},
			{
				"type": "unocc",
				"energy": 0.12427,
				"method": "rhf"
			},
			{
				"type": "unocc",
				"energy": 0.13577,
				"method": "rhf"
			}
		],
		"cosmo_sigma_profile": { 
			"-0.025": 0.0,
			"-0.024": 0.0,
			"-0.023": 0.0,
			"-0.022": 0.0,
			"-0.021": 0.0,
			"-0.02": 0.0,
			"-0.019": 0.0,
			"-0.018": 0.0,
			"-0.017": 0.0,
			"-0.016": 0.0,
			"-0.015": 0.0,
			"-0.014": 0.0,
			"-0.013": 0.0,
			"-0.012": 0.0,
			"-0.011": 0.0,
			"-0.01": 0.0,
			"-0.009": 0.0,
			"-0.008": 0.0,
			"-0.007": 0.0,
			"-0.006": 0.343804033378,
			"-0.005": 2.4353052134,
			"-0.004": 18.3609884989,
			"-0.003": 30.8561175835,
			"-0.002": 30.5803644868,
			"-0.001": 23.2157137761,
			"0.0": 22.2342612954,
			"0.001": 14.4559298174,
			"0.002": 4.71894228835,
			"0.003": 2.55387920256,
			"0.004": 2.00391221871,
			"0.005": 2.71219315231,
			"0.006": 2.47506137144,
			"0.007": 2.24619821489,
			"0.008": 1.84119342749,
			"0.009": 1.42134955182,
			"0.01": 1.72116046488,
			"0.011": 1.61941665649,
			"0.012": 1.57428647989,
			"0.013": 1.23701724273,
			"0.014": 1.46885443353,
			"0.015": 2.77923401256,
			"0.016": 1.22291756556,
			"0.017": 0.0,
			"0.018": 0.0,
			"0.019": 0.0,
			"0.02": 0.0,
			"0.021": 0.0,
			"0.022": 0.0,
			"0.023": 0.0,
			"0.024": 0.0,
			"0.025": 0.0
		}
	}
}
