{
	 "smiles": "CC1=CC=C(NC(=O)C2=CC=CC=C2)C=C1", 
	 "Tm": 430.15, 
	 "num_atms": 29, 
	 "gaussian": { 
		 "optdone": 1, 
		 "sigma_profile": "yes", 
		 "theory": "DFT", 
		 "functional": "B3LYP", 
		 "basiset": "6-31G**", 
		 "properties": { 
			 "R2extent": 4351.727, 
			 "electric_dipole_moment_norm": 3.65506107747, 
			 "electric_quadrupole_moment_norm": 12.0584237258, 
			 "total_energy": -671.321458155, 
			 "HOMO_LUMO_gap": 0.18271, 
			 "cosmo_polarized_energy": -11.36, 
			 "cosmo_cavitation_energy": 32.96, 
			 "cosmo_dispersion_energy": -23.27, 
			 "cosmo_repulsion_energy": 1.83, 
			 "cosmo_total_nonelectrostatic_energy": 11.52, 
			 "SMD_solvation_energy": 6.22 
		},
		"coords": [
			{
				"x": -2.505097216,
				"y": -2.1740900089,
				"z": -3.9792912302,
				"element": "C" 
			},
			{
				"x": -1.6012118392,
				"y": -1.3135550706,
				"z": -3.1282125418,
				"element": "C" 
			},
			{
				"x": -1.307755236,
				"y": -1.6623845485,
				"z": -1.8027396483,
				"element": "C" 
			},
			{
				"x": -0.4429925285,
				"y": -0.9007606665,
				"z": -1.0202741808,
				"element": "C" 
			},
			{
				"x": 0.1321707938,
				"y": 0.2658573241,
				"z": -1.5423803295,
				"element": "C" 
			},
			{
				"x": 1.03864712,
				"y": 1.0669335676,
				"z": -0.8000676715,
				"element": "N" 
			},
			{
				"x": 1.13838542,
				"y": 1.3016327424,
				"z": 0.5616962121,
				"element": "C" 
			},
			{
				"x": 2.2150720056,
				"y": 1.6458675522,
				"z": 1.0383268205,
				"element": "O" 
			},
			{
				"x": -0.0895378864,
				"y": 1.2067289863,
				"z": 1.4185566355,
				"element": "C" 
			},
			{
				"x": -1.37216687,
				"y": 1.5393248036,
				"z": 0.9596651825,
				"element": "C" 
			},
			{
				"x": -2.4559755742,
				"y": 1.5200812336,
				"z": 1.8372162958,
				"element": "C" 
			},
			{
				"x": -2.2711790724,
				"y": 1.1587203811,
				"z": 3.17351123,
				"element": "C" 
			},
			{
				"x": -0.9937099209,
				"y": 0.8347847423,
				"z": 3.6377040976,
				"element": "C" 
			},
			{
				"x": 0.0937022369,
				"y": 0.872701948,
				"z": 2.7677748285,
				"element": "C" 
			},
			{
				"x": -0.1557022047,
				"y": 0.6288708722,
				"z": -2.8642136032,
				"element": "C" 
			},
			{
				"x": -1.0030481223,
				"y": -0.1568079139,
				"z": -3.6433038782,
				"element": "C" 
			},
			{
				"x": -3.3139988623,
				"y": -2.6136066321,
				"z": -3.387333171,
				"element": "H" 
			},
			{
				"x": -2.9565898058,
				"y": -1.5978361277,
				"z": -4.79230517,
				"element": "H" 
			},
			{
				"x": -1.9512794479,
				"y": -3.0038673257,
				"z": -4.4365005154,
				"element": "H" 
			},
			{
				"x": -1.7503540109,
				"y": -2.5592392146,
				"z": -1.376153812,
				"element": "H" 
			},
			{
				"x": -0.2135654,
				"y": -1.2095359599,
				"z": -0.0065519839,
				"element": "H" 
			},
			{
				"x": 1.8998516927,
				"y": 1.3174900512,
				"z": -1.2718566231,
				"element": "H" 
			},
			{
				"x": -1.5214254413,
				"y": 1.8258237274,
				"z": -0.075597364,
				"element": "H" 
			},
			{
				"x": -3.4447423257,
				"y": 1.7895691579,
				"z": 1.4775051197,
				"element": "H" 
			},
			{
				"x": -3.1187041133,
				"y": 1.1374717076,
				"z": 3.8528191902,
				"element": "H" 
			},
			{
				"x": -0.8447207008,
				"y": 0.5631296896,
				"z": 4.6787227396,
				"element": "H" 
			},
			{
				"x": 1.0980717201,
				"y": 0.6556656425,
				"z": 3.1157551894,
				"element": "H" 
			},
			{
				"x": 0.2811130084,
				"y": 1.5351883045,
				"z": -3.2748452272,
				"element": "H" 
			},
			{
				"x": -1.211357419,
				"y": 0.1435410344,
				"z": -4.6672265913,
				"element": "H" 
			}
		],
		 "valence_orbital": [ 
			{
				"type": "occ",
				"energy": -0.26308,
				"method": "rhf"
			},
			{
				"type": "occ",
				"energy": -0.25935,
				"method": "rhf"
			},
			{
				"type": "occ",
				"energy": -0.25137,
				"method": "rhf"
			},
			{
				"type": "occ",
				"energy": -0.24393,
				"method": "rhf"
			},
			{
				"type": "occ",
				"energy": -0.22042,
				"method": "rhf"
			},
			{
				"type": "unocc",
				"energy": -0.03771,
				"method": "rhf"
			},
			{
				"type": "unocc",
				"energy": -0.01291,
				"method": "rhf"
			},
			{
				"type": "unocc",
				"energy": -0.00214,
				"method": "rhf"
			},
			{
				"type": "unocc",
				"energy": 0.00131,
				"method": "rhf"
			},
			{
				"type": "unocc",
				"energy": 0.05775,
				"method": "rhf"
			}
		],
		"cosmo_sigma_profile": { 
			"-0.025": 0.0,
			"-0.024": 0.0,
			"-0.023": 0.0,
			"-0.022": 0.0,
			"-0.021": 0.0,
			"-0.02": 0.0,
			"-0.019": 0.0,
			"-0.018": 0.0,
			"-0.017": 0.0,
			"-0.016": 0.0,
			"-0.015": 0.0,
			"-0.014": 0.600021734773,
			"-0.013": 0.974495637837,
			"-0.012": 1.06545790942,
			"-0.011": 0.590680598215,
			"-0.01": 1.33745081187,
			"-0.009": 0.8027344949,
			"-0.008": 1.17426005944,
			"-0.007": 2.11323245472,
			"-0.006": 11.3201237411,
			"-0.005": 19.9931582719,
			"-0.004": 26.0848040522,
			"-0.003": 22.1008967055,
			"-0.002": 20.8380084506,
			"-0.001": 22.0272395318,
			"0.0": 20.9575309521,
			"0.001": 20.7119033121,
			"0.002": 16.088093233,
			"0.003": 16.3465650306,
			"0.004": 20.5344445686,
			"0.005": 15.3025525718,
			"0.006": 4.01761131508,
			"0.007": 1.49710937323,
			"0.008": 1.54972188957,
			"0.009": 1.39315060716,
			"0.01": 1.05943767463,
			"0.011": 2.40214519135,
			"0.012": 2.15524236748,
			"0.013": 5.06514845914,
			"0.014": 2.62513916718,
			"0.015": 0.00641904886997,
			"0.016": 0.0,
			"0.017": 0.0,
			"0.018": 0.0,
			"0.019": 0.0,
			"0.02": 0.0,
			"0.021": 0.0,
			"0.022": 0.0,
			"0.023": 0.0,
			"0.024": 0.0,
			"0.025": 0.0
		}
	}
}
