{
	 "smiles": "OC(=O)C12CC3CC(CC(C3)C1)C2", 
	 "Tm": 448.15, 
	 "num_atms": 29, 
	 "gaussian": { 
		 "optdone": 1, 
		 "sigma_profile": "yes", 
		 "theory": "DFT", 
		 "functional": "B3LYP", 
		 "basiset": "6-31G**", 
		 "properties": { 
			 "R2extent": 3591.612, 
			 "electric_dipole_moment_norm": 4.50069740596, 
			 "electric_quadrupole_moment_norm": 25.5629948097, 
			 "total_energy": -579.299746416, 
			 "HOMO_LUMO_gap": 0.27234, 
			 "cosmo_polarized_energy": -12.0, 
			 "cosmo_cavitation_energy": 26.96, 
			 "cosmo_dispersion_energy": -20.55, 
			 "cosmo_repulsion_energy": 1.58, 
			 "cosmo_total_nonelectrostatic_energy": 7.99, 
			 "SMD_solvation_energy": 4.18 
		},
		"coords": [
			{
				"x": -1.2088449973,
				"y": -3.5806094532,
				"z": 2.8707934571,
				"element": "O" 
			},
			{
				"x": -1.3977466178,
				"y": -3.3056694632,
				"z": 1.5490073763,
				"element": "C" 
			},
			{
				"x": -1.5055594715,
				"y": -4.2181329172,
				"z": 0.7665657396,
				"element": "O" 
			},
			{
				"x": -1.4576120802,
				"y": -1.821613773,
				"z": 1.1679871858,
				"element": "C" 
			},
			{
				"x": -0.1298187499,
				"y": -1.1051212373,
				"z": 1.54781266,
				"element": "C" 
			},
			{
				"x": -0.1966276104,
				"y": 0.3815760002,
				"z": 1.1402251464,
				"element": "C" 
			},
			{
				"x": -0.4147321743,
				"y": 0.488272758,
				"z": -0.3829653285,
				"element": "C" 
			},
			{
				"x": -1.738434798,
				"y": -0.206602368,
				"z": -0.7627453412,
				"element": "C" 
			},
			{
				"x": -2.9090742549,
				"y": 0.4785464881,
				"z": -0.028376057,
				"element": "C" 
			},
			{
				"x": -2.6931624429,
				"y": 0.3716779453,
				"z": 1.4950880403,
				"element": "C" 
			},
			{
				"x": -1.3680386,
				"y": 1.0634243433,
				"z": 1.8773431713,
				"element": "C" 
			},
			{
				"x": -2.6322113408,
				"y": -1.1149330405,
				"z": 1.9037578431,
				"element": "C" 
			},
			{
				"x": -1.6749664442,
				"y": -1.6919106876,
				"z": -0.3563859002,
				"element": "C" 
			},
			{
				"x": -1.1400182395,
				"y": -2.7585979215,
				"z": 3.3763389588,
				"element": "H" 
			},
			{
				"x": 0.0590353595,
				"y": -1.1781973813,
				"z": 2.6283209556,
				"element": "H" 
			},
			{
				"x": 0.7114116332,
				"y": -1.6012779386,
				"z": 1.0482854743,
				"element": "H" 
			},
			{
				"x": 0.7472291226,
				"y": 0.8686270225,
				"z": 1.4152054992,
				"element": "H" 
			},
			{
				"x": 0.4232256848,
				"y": 0.0228834878,
				"z": -0.9177825532,
				"element": "H" 
			},
			{
				"x": -0.4392643449,
				"y": 1.5434440174,
				"z": -0.6841694464,
				"element": "H" 
			},
			{
				"x": -1.8927409505,
				"y": -0.1380198697,
				"z": -1.8465575522,
				"element": "H" 
			},
			{
				"x": -3.8593375129,
				"y": 0.0062837543,
				"z": -0.3089916151,
				"element": "H" 
			},
			{
				"x": -2.9774082904,
				"y": 1.5336011987,
				"z": -0.3231795286,
				"element": "H" 
			},
			{
				"x": -3.5266582682,
				"y": 0.8518196179,
				"z": 2.022775661,
				"element": "H" 
			},
			{
				"x": -1.2134399235,
				"y": 1.0131353597,
				"z": 2.9636802477,
				"element": "H" 
			},
			{
				"x": -1.4099308122,
				"y": 2.1274301205,
				"z": 1.6122947373,
				"element": "H" 
			},
			{
				"x": -2.5116632689,
				"y": -1.187958204,
				"z": 2.9940089995,
				"element": "H" 
			},
			{
				"x": -3.575552363,
				"y": -1.618130691,
				"z": 1.6582533186,
				"element": "H" 
			},
			{
				"x": -0.8627760842,
				"y": -2.2040902585,
				"z": -0.8833255812,
				"element": "H" 
			},
			{
				"x": -2.5979821597,
				"y": -2.2107569093,
				"z": -0.636565568,
				"element": "H" 
			}
		],
		 "valence_orbital": [ 
			{
				"type": "occ",
				"energy": -0.30809,
				"method": "rhf"
			},
			{
				"type": "occ",
				"energy": -0.30808,
				"method": "rhf"
			},
			{
				"type": "occ",
				"energy": -0.29103,
				"method": "rhf"
			},
			{
				"type": "occ",
				"energy": -0.29057,
				"method": "rhf"
			},
			{
				"type": "occ",
				"energy": -0.25776,
				"method": "rhf"
			},
			{
				"type": "unocc",
				"energy": 0.01458,
				"method": "rhf"
			},
			{
				"type": "unocc",
				"energy": 0.04082,
				"method": "rhf"
			},
			{
				"type": "unocc",
				"energy": 0.07433,
				"method": "rhf"
			},
			{
				"type": "unocc",
				"energy": 0.11537,
				"method": "rhf"
			},
			{
				"type": "unocc",
				"energy": 0.11675,
				"method": "rhf"
			}
		],
		"cosmo_sigma_profile": { 
			"-0.025": 0.0,
			"-0.024": 0.0,
			"-0.023": 0.0,
			"-0.022": 0.0,
			"-0.021": 0.0,
			"-0.02": 0.0,
			"-0.019": 0.0,
			"-0.018": 0.0664814577784,
			"-0.017": 0.584456763372,
			"-0.016": 0.947269097526,
			"-0.015": 1.30362818719,
			"-0.014": 0.953639507836,
			"-0.013": 0.322877870567,
			"-0.012": 1.00463564293,
			"-0.011": 0.975182026086,
			"-0.01": 1.40437293445,
			"-0.009": 0.74724428487,
			"-0.008": 1.23983053118,
			"-0.007": 1.33671642696,
			"-0.006": 1.42384313331,
			"-0.005": 1.34792134524,
			"-0.004": 6.73462277211,
			"-0.003": 17.7370387511,
			"-0.002": 42.0118848827,
			"-0.001": 38.1951999316,
			"0.0": 31.9908414028,
			"0.001": 16.5574038163,
			"0.002": 4.85275809487,
			"0.003": 1.62133818437,
			"0.004": 2.25095183476,
			"0.005": 2.29601590527,
			"0.006": 2.42738137439,
			"0.007": 2.46161139649,
			"0.008": 2.15005719581,
			"0.009": 3.43125053895,
			"0.01": 4.33498896678,
			"0.011": 5.34526570043,
			"0.012": 5.82688603141,
			"0.013": 2.77950374516,
			"0.014": 0.350312425404,
			"0.015": 0.0,
			"0.016": 0.0,
			"0.017": 0.0,
			"0.018": 0.0,
			"0.019": 0.0,
			"0.02": 0.0,
			"0.021": 0.0,
			"0.022": 0.0,
			"0.023": 0.0,
			"0.024": 0.0,
			"0.025": 0.0
		}
	}
}
