{
	 "smiles": "CC1C2C(CC3C4CCC5CC(O)CCC5(C)C4CCC23C)OC11CCC(C)CN1", 
	 "Tm": 483.15, 
	 "num_atms": 75, 
	 "gaussian": { 
		 "optdone": 1, 
		 "sigma_profile": "yes", 
		 "theory": "DFT", 
		 "functional": "B3LYP", 
		 "basiset": "6-31G**", 
		 "properties": { 
			 "R2extent": 15321.2546, 
			 "electric_dipole_moment_norm": 2.61686717279, 
			 "electric_quadrupole_moment_norm": 17.8360865663, 
			 "total_energy": -1261.19154527, 
			 "HOMO_LUMO_gap": 0.27667, 
			 "cosmo_polarized_energy": -11.73, 
			 "cosmo_cavitation_energy": 59.72, 
			 "cosmo_dispersion_energy": -41.09, 
			 "cosmo_repulsion_energy": 2.99, 
			 "cosmo_total_nonelectrostatic_energy": 21.62, 
			 "SMD_solvation_energy": 7.33 
		},
		"coords": [
			{
				"x": -3.2742909944,
				"y": 2.9003123768,
				"z": -0.6247685776,
				"element": "C" 
			},
			{
				"x": -2.9673940029,
				"y": 2.2838072771,
				"z": 0.7442130918,
				"element": "C" 
			},
			{
				"x": -2.6301432633,
				"y": 0.762298208,
				"z": 0.9022458025,
				"element": "C" 
			},
			{
				"x": -1.9495383567,
				"y": 0.7394770344,
				"z": 2.3020970494,
				"element": "C" 
			},
			{
				"x": -0.5893861064,
				"y": 0.0318143598,
				"z": 2.1656044976,
				"element": "C" 
			},
			{
				"x": -0.487662948,
				"y": -0.6061809849,
				"z": 0.7579042906,
				"element": "C" 
			},
			{
				"x": 0.857961885,
				"y": -0.2400502102,
				"z": 0.0787471723,
				"element": "C" 
			},
			{
				"x": 2.1151843453,
				"y": -0.6544546214,
				"z": 0.8779484043,
				"element": "C" 
			},
			{
				"x": 2.5919544648,
				"y": -2.085554064,
				"z": 0.6132063052,
				"element": "C" 
			},
			{
				"x": 2.828876899,
				"y": -2.3120575931,
				"z": -0.8852594739,
				"element": "C" 
			},
			{
				"x": 3.5087685311,
				"y": -3.6710302283,
				"z": -1.166105031,
				"element": "C" 
			},
			{
				"x": 3.4846725626,
				"y": -4.092055351,
				"z": -2.6556651186,
				"element": "C" 
			},
			{
				"x": 4.650259899,
				"y": -4.8264742368,
				"z": -3.027619005,
				"element": "O" 
			},
			{
				"x": 3.2550464457,
				"y": -2.8718283646,
				"z": -3.548727129,
				"element": "C" 
			},
			{
				"x": 1.9106405807,
				"y": -2.1728979039,
				"z": -3.2474421063,
				"element": "C" 
			},
			{
				"x": 1.5338578625,
				"y": -2.0938797197,
				"z": -1.7220119154,
				"element": "C" 
			},
			{
				"x": 0.5134584969,
				"y": -3.2141135227,
				"z": -1.4118039561,
				"element": "C" 
			},
			{
				"x": 0.9873145638,
				"y": -0.6497929198,
				"z": -1.4199063712,
				"element": "C" 
			},
			{
				"x": -0.3126654145,
				"y": -0.2987406051,
				"z": -2.2027485535,
				"element": "C" 
			},
			{
				"x": -1.3033580424,
				"y": 0.5507206955,
				"z": -1.3887554276,
				"element": "C" 
			},
			{
				"x": -1.7537986757,
				"y": -0.1272112056,
				"z": -0.0734841012,
				"element": "C" 
			},
			{
				"x": -2.6261434719,
				"y": -1.3578424688,
				"z": -0.4215327861,
				"element": "C" 
			},
			{
				"x": -1.8216927035,
				"y": 2.0983693941,
				"z": 2.7518845231,
				"element": "O" 
			},
			{
				"x": -1.9319945266,
				"y": 3.0020509945,
				"z": 1.6439641902,
				"element": "C" 
			},
			{
				"x": -2.4090606234,
				"y": 4.33415446,
				"z": 2.2371534584,
				"element": "C" 
			},
			{
				"x": -1.3916680388,
				"y": 4.9020032521,
				"z": 3.2541061597,
				"element": "C" 
			},
			{
				"x": 0.0620238347,
				"y": 4.4722643076,
				"z": 2.9410266131,
				"element": "C" 
			},
			{
				"x": 1.0854978281,
				"y": 5.474340306,
				"z": 3.4824094288,
				"element": "C" 
			},
			{
				"x": 0.2200051133,
				"y": 4.2597939536,
				"z": 1.4320204716,
				"element": "C" 
			},
			{
				"x": -0.6407542109,
				"y": 3.1578345255,
				"z": 0.960850019,
				"element": "N" 
			},
			{
				"x": -3.699624517,
				"y": 3.9012902357,
				"z": -0.4934880021,
				"element": "H" 
			},
			{
				"x": -2.4089238815,
				"y": 2.9959850917,
				"z": -1.2834006627,
				"element": "H" 
			},
			{
				"x": -4.0181776204,
				"y": 2.300995654,
				"z": -1.159599749,
				"element": "H" 
			},
			{
				"x": -3.8971487119,
				"y": 2.3874577372,
				"z": 1.3179453059,
				"element": "H" 
			},
			{
				"x": -3.5994617766,
				"y": 0.260037441,
				"z": 0.97113696,
				"element": "H" 
			},
			{
				"x": -2.5776959531,
				"y": 0.2436611054,
				"z": 3.0503738543,
				"element": "H" 
			},
			{
				"x": 0.1787107928,
				"y": 0.7965182048,
				"z": 2.2995935822,
				"element": "H" 
			},
			{
				"x": -0.4469494283,
				"y": -0.7098620048,
				"z": 2.9586290702,
				"element": "H" 
			},
			{
				"x": -0.5530931052,
				"y": -1.6951037171,
				"z": 0.8618499801,
				"element": "H" 
			},
			{
				"x": 0.8618579674,
				"y": 0.8575721367,
				"z": 0.081718485,
				"element": "H" 
			},
			{
				"x": 2.9317786065,
				"y": 0.025211574,
				"z": 0.5955758731,
				"element": "H" 
			},
			{
				"x": 1.9549515053,
				"y": -0.497671668,
				"z": 1.9495505329,
				"element": "H" 
			},
			{
				"x": 1.8687662153,
				"y": -2.8166796074,
				"z": 0.9967819618,
				"element": "H" 
			},
			{
				"x": 3.5242006169,
				"y": -2.2691837878,
				"z": 1.1635192386,
				"element": "H" 
			},
			{
				"x": 3.5305061784,
				"y": -1.5267147898,
				"z": -1.2071402052,
				"element": "H" 
			},
			{
				"x": 4.5584896123,
				"y": -3.6024262898,
				"z": -0.8497040079,
				"element": "H" 
			},
			{
				"x": 3.0659765562,
				"y": -4.4609007622,
				"z": -0.5479003971,
				"element": "H" 
			},
			{
				"x": 2.6673663593,
				"y": -4.8023476174,
				"z": -2.8264690027,
				"element": "H" 
			},
			{
				"x": 5.4083422995,
				"y": -4.2353536398,
				"z": -2.9215454627,
				"element": "H" 
			},
			{
				"x": 3.2962444376,
				"y": -3.1778283715,
				"z": -4.5995101706,
				"element": "H" 
			},
			{
				"x": 4.0874871438,
				"y": -2.1686212583,
				"z": -3.39755951,
				"element": "H" 
			},
			{
				"x": 1.9478301836,
				"y": -1.1648148481,
				"z": -3.6749162624,
				"element": "H" 
			},
			{
				"x": 1.112006359,
				"y": -2.6956134497,
				"z": -3.7873714013,
				"element": "H" 
			},
			{
				"x": 0.9289493407,
				"y": -4.1990191348,
				"z": -1.6423318567,
				"element": "H" 
			},
			{
				"x": 0.2045304603,
				"y": -3.2307972006,
				"z": -0.3647545915,
				"element": "H" 
			},
			{
				"x": -0.3885561026,
				"y": -3.1119333195,
				"z": -2.0208781647,
				"element": "H" 
			},
			{
				"x": 1.7802634255,
				"y": 0.0085819086,
				"z": -1.804782361,
				"element": "H" 
			},
			{
				"x": -0.8198007903,
				"y": -1.2077889849,
				"z": -2.5371436409,
				"element": "H" 
			},
			{
				"x": -0.0608386075,
				"y": 0.2434026166,
				"z": -3.1213187518,
				"element": "H" 
			},
			{
				"x": -2.1787565253,
				"y": 0.7658810531,
				"z": -2.0116403478,
				"element": "H" 
			},
			{
				"x": -0.8331934446,
				"y": 1.5113290252,
				"z": -1.164940006,
				"element": "H" 
			},
			{
				"x": -2.0887654315,
				"y": -2.0955089721,
				"z": -1.0207471363,
				"element": "H" 
			},
			{
				"x": -2.959861645,
				"y": -1.8646588622,
				"z": 0.4912597145,
				"element": "H" 
			},
			{
				"x": -3.5213500354,
				"y": -1.0587611738,
				"z": -0.9803594322,
				"element": "H" 
			},
			{
				"x": -2.5431562687,
				"y": 5.0411068917,
				"z": 1.4089908313,
				"element": "H" 
			},
			{
				"x": -3.3885889251,
				"y": 4.1997087633,
				"z": 2.706717712,
				"element": "H" 
			},
			{
				"x": -1.4600503397,
				"y": 5.9976861051,
				"z": 3.2532431215,
				"element": "H" 
			},
			{
				"x": -1.6511924655,
				"y": 4.5715293542,
				"z": 4.2644521315,
				"element": "H" 
			},
			{
				"x": 0.2325897966,
				"y": 3.5002373518,
				"z": 3.4171591066,
				"element": "H" 
			},
			{
				"x": 2.1120798644,
				"y": 5.123442136,
				"z": 3.3288893691,
				"element": "H" 
			},
			{
				"x": 0.9457324284,
				"y": 5.6352906485,
				"z": 4.5568906175,
				"element": "H" 
			},
			{
				"x": 0.986468422,
				"y": 6.44853529,
				"z": 2.987591417,
				"element": "H" 
			},
			{
				"x": -0.0039650049,
				"y": 5.2145641446,
				"z": 0.921102917,
				"element": "H" 
			},
			{
				"x": 1.2619851533,
				"y": 4.0134083696,
				"z": 1.1907860542,
				"element": "H" 
			},
			{
				"x": -0.7899350778,
				"y": 3.2548794754,
				"z": -0.0365086386,
				"element": "H" 
			}
		],
		 "valence_orbital": [ 
			{
				"type": "occ",
				"energy": -0.27023,
				"method": "rhf"
			},
			{
				"type": "occ",
				"energy": -0.26502,
				"method": "rhf"
			},
			{
				"type": "occ",
				"energy": -0.24953,
				"method": "rhf"
			},
			{
				"type": "occ",
				"energy": -0.24044,
				"method": "rhf"
			},
			{
				"type": "occ",
				"energy": -0.21815,
				"method": "rhf"
			},
			{
				"type": "unocc",
				"energy": 0.05852,
				"method": "rhf"
			},
			{
				"type": "unocc",
				"energy": 0.07198,
				"method": "rhf"
			},
			{
				"type": "unocc",
				"energy": 0.07667,
				"method": "rhf"
			},
			{
				"type": "unocc",
				"energy": 0.08629,
				"method": "rhf"
			},
			{
				"type": "unocc",
				"energy": 0.08993,
				"method": "rhf"
			}
		],
		"cosmo_sigma_profile": { 
			"-0.025": 0.0,
			"-0.024": 0.0,
			"-0.023": 0.0,
			"-0.022": 0.0,
			"-0.021": 0.0,
			"-0.02": 0.0,
			"-0.019": 0.0,
			"-0.018": 0.0,
			"-0.017": 0.0,
			"-0.016": 0.0,
			"-0.015": 0.0974452426409,
			"-0.014": 0.739654128151,
			"-0.013": 0.815359032197,
			"-0.012": 0.989233756838,
			"-0.011": 1.07406802397,
			"-0.01": 1.03863619596,
			"-0.009": 1.65231247292,
			"-0.008": 2.10038331028,
			"-0.007": 2.43570761737,
			"-0.006": 2.57224443039,
			"-0.005": 2.79426058904,
			"-0.004": 6.30506067407,
			"-0.003": 27.9767861096,
			"-0.002": 76.6288246726,
			"-0.001": 100.545206374,
			"0.0": 82.6462842121,
			"0.001": 64.4824536065,
			"0.002": 30.5587960746,
			"0.003": 7.1339518992,
			"0.004": 4.52562081359,
			"0.005": 4.74647107398,
			"0.006": 3.90453790053,
			"0.007": 5.41833577004,
			"0.008": 4.93617266652,
			"0.009": 3.97786598478,
			"0.01": 2.6130969052,
			"0.011": 1.98967989774,
			"0.012": 2.62132518147,
			"0.013": 1.88956665483,
			"0.014": 2.83601932832,
			"0.015": 2.32579893313,
			"0.016": 0.109851887539,
			"0.017": 0.0,
			"0.018": 0.0,
			"0.019": 0.0,
			"0.02": 0.0,
			"0.021": 0.0,
			"0.022": 0.0,
			"0.023": 0.0,
			"0.024": 0.0,
			"0.025": 0.0
		}
	}
}
