{
	 "smiles": "OC(=O)CCN1C=CN=C1", 
	 "Tm": 421.15, 
	 "num_atms": 18, 
	 "gaussian": { 
		 "optdone": 1, 
		 "sigma_profile": "yes", 
		 "theory": "DFT", 
		 "functional": "B3LYP", 
		 "basiset": "6-31G**", 
		 "properties": { 
			 "R2extent": 1682.2915, 
			 "electric_dipole_moment_norm": 4.2151138917, 
			 "electric_quadrupole_moment_norm": 12.0100750322, 
			 "total_energy": -493.412878676, 
			 "HOMO_LUMO_gap": 0.21928, 
			 "cosmo_polarized_energy": -17.39, 
			 "cosmo_cavitation_energy": 22.52, 
			 "cosmo_dispersion_energy": -15.97, 
			 "cosmo_repulsion_energy": 1.31, 
			 "cosmo_total_nonelectrostatic_energy": 7.86, 
			 "SMD_solvation_energy": 4.02 
		},
		"coords": [
			{
				"x": 0.7924096065,
				"y": 2.7039443308,
				"z": -1.2160325404,
				"element": "O" 
			},
			{
				"x": -0.1081799041,
				"y": 2.4107725479,
				"z": -0.2434193499,
				"element": "C" 
			},
			{
				"x": -0.0196120046,
				"y": 2.8436382912,
				"z": 0.8812221689,
				"element": "O" 
			},
			{
				"x": -1.2346514025,
				"y": 1.5323682018,
				"z": -0.7536735102,
				"element": "C" 
			},
			{
				"x": -0.8112708596,
				"y": 0.4398066823,
				"z": -1.7470476983,
				"element": "C" 
			},
			{
				"x": 0.0901387228,
				"y": -0.5486524851,
				"z": -1.1724655467,
				"element": "N" 
			},
			{
				"x": -0.2493356789,
				"y": -1.5894905643,
				"z": -0.3264581445,
				"element": "C" 
			},
			{
				"x": 0.931862494,
				"y": -2.2204681928,
				"z": -0.0256667211,
				"element": "C" 
			},
			{
				"x": 1.9887221386,
				"y": -1.6028348448,
				"z": -0.656398124,
				"element": "N" 
			},
			{
				"x": 1.4508366466,
				"y": -0.6090649702,
				"z": -1.3291393065,
				"element": "C" 
			},
			{
				"x": 1.4634102061,
				"y": 3.272004176,
				"z": -0.8009059743,
				"element": "H" 
			},
			{
				"x": -1.9589699831,
				"y": 2.1906455134,
				"z": -1.2514574885,
				"element": "H" 
			},
			{
				"x": -1.7304942179,
				"y": 1.106210305,
				"z": 0.1210895108,
				"element": "H" 
			},
			{
				"x": -0.3093211175,
				"y": 0.8901686758,
				"z": -2.6057501289,
				"element": "H" 
			},
			{
				"x": -1.7032495269,
				"y": -0.0749036405,
				"z": -2.1179644998,
				"element": "H" 
			},
			{
				"x": -1.2721641219,
				"y": -1.7791388103,
				"z": -0.0372524228,
				"element": "H" 
			},
			{
				"x": 1.0790301799,
				"y": -3.0872300532,
				"z": 0.6040168005,
				"element": "H" 
			},
			{
				"x": 1.9796388226,
				"y": 0.105124837,
				"z": -1.9455970244,
				"element": "H" 
			}
		],
		 "valence_orbital": [ 
			{
				"type": "occ",
				"energy": -0.33104,
				"method": "rhf"
			},
			{
				"type": "occ",
				"energy": -0.28722,
				"method": "rhf"
			},
			{
				"type": "occ",
				"energy": -0.26637,
				"method": "rhf"
			},
			{
				"type": "occ",
				"energy": -0.25994,
				"method": "rhf"
			},
			{
				"type": "occ",
				"energy": -0.22421,
				"method": "rhf"
			},
			{
				"type": "unocc",
				"energy": -0.00493,
				"method": "rhf"
			},
			{
				"type": "unocc",
				"energy": 0.02688,
				"method": "rhf"
			},
			{
				"type": "unocc",
				"energy": 0.06026,
				"method": "rhf"
			},
			{
				"type": "unocc",
				"energy": 0.07187,
				"method": "rhf"
			},
			{
				"type": "unocc",
				"energy": 0.09664,
				"method": "rhf"
			}
		],
		"cosmo_sigma_profile": { 
			"-0.025": 0.0,
			"-0.024": 0.0,
			"-0.023": 0.0,
			"-0.022": 0.0,
			"-0.021": 0.0,
			"-0.02": 0.0,
			"-0.019": 0.0915083904525,
			"-0.018": 0.734908181494,
			"-0.017": 1.16365311769,
			"-0.016": 0.769238322356,
			"-0.015": 0.539741719805,
			"-0.014": 0.56130181515,
			"-0.013": 0.833808011879,
			"-0.012": 0.78231901956,
			"-0.011": 0.999270468371,
			"-0.01": 0.76643835196,
			"-0.009": 0.496812864046,
			"-0.008": 6.31729358538,
			"-0.007": 14.3194911855,
			"-0.006": 15.3622151125,
			"-0.005": 12.8888489126,
			"-0.004": 9.62942466351,
			"-0.003": 11.1829936893,
			"-0.002": 8.92711419784,
			"-0.001": 8.65857628871,
			"0.0": 9.56679796473,
			"0.001": 7.39831874936,
			"0.002": 6.40957457625,
			"0.003": 6.76267847024,
			"0.004": 5.43333630826,
			"0.005": 7.38819158643,
			"0.006": 6.46521887637,
			"0.007": 4.33140681586,
			"0.008": 3.85754775198,
			"0.009": 3.55060098267,
			"0.01": 3.84015454822,
			"0.011": 5.54681351622,
			"0.012": 5.72412230006,
			"0.013": 1.39190182685,
			"0.014": 1.09217674578,
			"0.015": 1.20720112888,
			"0.016": 1.3976392006,
			"0.017": 0.986708761702,
			"0.018": 1.05912853422,
			"0.019": 0.140237406148,
			"0.02": 0.0,
			"0.021": 0.0,
			"0.022": 0.0,
			"0.023": 0.0,
			"0.024": 0.0,
			"0.025": 0.0
		}
	}
}
