{
	 "smiles": "NC1=CC2=C(CNC2=O)C=C1", 
	 "Tm": 511.15, 
	 "num_atms": 19, 
	 "gaussian": { 
		 "optdone": 1, 
		 "sigma_profile": "yes", 
		 "theory": "DFT", 
		 "functional": "B3LYP", 
		 "basiset": "6-31G**", 
		 "properties": { 
			 "R2extent": 1862.0909, 
			 "electric_dipole_moment_norm": 4.06064485766, 
			 "electric_quadrupole_moment_norm": 14.9786266363, 
			 "total_energy": -494.421627518, 
			 "HOMO_LUMO_gap": 0.1811, 
			 "cosmo_polarized_energy": -16.68, 
			 "cosmo_cavitation_energy": 22.87, 
			 "cosmo_dispersion_energy": -17.35, 
			 "cosmo_repulsion_energy": 1.41, 
			 "cosmo_total_nonelectrostatic_energy": 6.92, 
			 "SMD_solvation_energy": 3.54 
		},
		"coords": [
			{
				"x": -0.1418852242,
				"y": -2.5245827046,
				"z": -2.2020826541,
				"element": "N" 
			},
			{
				"x": -0.4980141865,
				"y": -1.3918650593,
				"z": -1.4693003963,
				"element": "C" 
			},
			{
				"x": -0.1108748094,
				"y": -1.2537677153,
				"z": -0.1257160536,
				"element": "C" 
			},
			{
				"x": -0.5412216054,
				"y": -0.1353224072,
				"z": 0.5738766556,
				"element": "C" 
			},
			{
				"x": -1.3392949647,
				"y": 0.8524514771,
				"z": -0.0032973967,
				"element": "C" 
			},
			{
				"x": -1.6276621907,
				"y": 1.9287192567,
				"z": 1.0207750247,
				"element": "C" 
			},
			{
				"x": -0.9109784913,
				"y": 1.4292340494,
				"z": 2.1856291976,
				"element": "N" 
			},
			{
				"x": -0.2568189616,
				"y": 0.2287067528,
				"z": 1.9930957727,
				"element": "C" 
			},
			{
				"x": 0.4040523558,
				"y": -0.3788592797,
				"z": 2.8213841684,
				"element": "O" 
			},
			{
				"x": -1.7274550512,
				"y": 0.7256832073,
				"z": -1.3339804315,
				"element": "C" 
			},
			{
				"x": -1.3056348614,
				"y": -0.3916582178,
				"z": -2.0550590902,
				"element": "C" 
			},
			{
				"x": -0.1200674645,
				"y": -2.4043621875,
				"z": -3.2051296903,
				"element": "H" 
			},
			{
				"x": 0.671121155,
				"y": -3.0188591475,
				"z": -1.8615965169,
				"element": "H" 
			},
			{
				"x": 0.5084021526,
				"y": -1.9988382443,
				"z": 0.3663170443,
				"element": "H" 
			},
			{
				"x": -1.2536677577,
				"y": 2.9137282202,
				"z": 0.7062459308,
				"element": "H" 
			},
			{
				"x": -2.7036782652,
				"y": 2.0340996373,
				"z": 1.2211216234,
				"element": "H" 
			},
			{
				"x": -0.8842940138,
				"y": 1.8983279952,
				"z": 3.0773541911,
				"element": "H" 
			},
			{
				"x": -2.3470527074,
				"y": 1.4759111043,
				"z": -1.8187212213,
				"element": "H" 
			},
			{
				"x": -1.6076751085,
				"y": -0.5036467373,
				"z": -3.0936161577,
				"element": "H" 
			}
		],
		 "valence_orbital": [ 
			{
				"type": "occ",
				"energy": -0.30941,
				"method": "rhf"
			},
			{
				"type": "occ",
				"energy": -0.25318,
				"method": "rhf"
			},
			{
				"type": "occ",
				"energy": -0.24441,
				"method": "rhf"
			},
			{
				"type": "occ",
				"energy": -0.23917,
				"method": "rhf"
			},
			{
				"type": "occ",
				"energy": -0.20649,
				"method": "rhf"
			},
			{
				"type": "unocc",
				"energy": -0.02539,
				"method": "rhf"
			},
			{
				"type": "unocc",
				"energy": 0.00586,
				"method": "rhf"
			},
			{
				"type": "unocc",
				"energy": 0.07205,
				"method": "rhf"
			},
			{
				"type": "unocc",
				"energy": 0.08564,
				"method": "rhf"
			},
			{
				"type": "unocc",
				"energy": 0.09715,
				"method": "rhf"
			}
		],
		"cosmo_sigma_profile": { 
			"-0.025": 0.0,
			"-0.024": 0.0,
			"-0.023": 0.0,
			"-0.022": 0.0,
			"-0.021": 0.0,
			"-0.02": 0.0,
			"-0.019": 0.0,
			"-0.018": 0.0,
			"-0.017": 0.0,
			"-0.016": 0.0,
			"-0.015": 0.0966897215116,
			"-0.014": 1.00737242161,
			"-0.013": 1.83588053291,
			"-0.012": 4.15694288963,
			"-0.011": 3.30504292089,
			"-0.01": 4.23887873232,
			"-0.009": 3.41460849882,
			"-0.008": 3.99371641541,
			"-0.007": 5.35833299949,
			"-0.006": 10.1033046193,
			"-0.005": 14.2826585546,
			"-0.004": 14.0306613942,
			"-0.003": 9.80464861047,
			"-0.002": 7.12145499764,
			"-0.001": 6.38418167808,
			"0.0": 8.86515736926,
			"0.001": 8.99499624824,
			"0.002": 8.70194367854,
			"0.003": 11.2575032414,
			"0.004": 10.5864803375,
			"0.005": 12.7245686337,
			"0.006": 5.28696573366,
			"0.007": 2.20046159432,
			"0.008": 2.39887262105,
			"0.009": 1.58283609612,
			"0.01": 1.3919512688,
			"0.011": 2.63487080626,
			"0.012": 2.84631367136,
			"0.013": 3.66268254204,
			"0.014": 6.76993451478,
			"0.015": 2.47827428262,
			"0.016": 0.0219637275583,
			"0.017": 0.0,
			"0.018": 0.0,
			"0.019": 0.0,
			"0.02": 0.0,
			"0.021": 0.0,
			"0.022": 0.0,
			"0.023": 0.0,
			"0.024": 0.0,
			"0.025": 0.0
		}
	}
}
