{
	 "smiles": "OC1=C(O)C=C(C=C/C(=O)NCC2=CC=CC=C2)C=C1", 
	 "Tm": 438.15, 
	 "num_atms": 35, 
	 "gaussian": { 
		 "optdone": 1, 
		 "sigma_profile": "yes", 
		 "theory": "DFT", 
		 "functional": "B3LYP", 
		 "basiset": "6-31G**", 
		 "properties": { 
			 "R2extent": 7556.5801, 
			 "electric_dipole_moment_norm": 3.76923708063, 
			 "electric_quadrupole_moment_norm": 24.2588923645, 
			 "total_energy": -899.152150942, 
			 "HOMO_LUMO_gap": 0.17597, 
			 "cosmo_polarized_energy": -20.15, 
			 "cosmo_cavitation_energy": 39.82, 
			 "cosmo_dispersion_energy": -27.59, 
			 "cosmo_repulsion_energy": 2.15, 
			 "cosmo_total_nonelectrostatic_energy": 14.39, 
			 "SMD_solvation_energy": 7.62 
		},
		"coords": [
			{
				"x": -0.1709413106,
				"y": 4.4043961949,
				"z": 2.8956868053,
				"element": "O" 
			},
			{
				"x": -0.1422306516,
				"y": 3.6059295753,
				"z": 1.7765968979,
				"element": "C" 
			},
			{
				"x": 1.1389533861,
				"y": 3.3731966801,
				"z": 1.2442567367,
				"element": "C" 
			},
			{
				"x": 2.2398353519,
				"y": 3.9199085379,
				"z": 1.8318554535,
				"element": "O" 
			},
			{
				"x": 1.2729316597,
				"y": 2.5829755676,
				"z": 0.1095690864,
				"element": "C" 
			},
			{
				"x": 0.1495339555,
				"y": 1.997507173,
				"z": -0.5056345871,
				"element": "C" 
			},
			{
				"x": 0.3517203626,
				"y": 1.1683854579,
				"z": -1.7058403626,
				"element": "C" 
			},
			{
				"x": -0.3941680902,
				"y": 0.1393545372,
				"z": -2.143117093,
				"element": "C" 
			},
			{
				"x": -1.6560039631,
				"y": -0.4038774557,
				"z": -1.5333578913,
				"element": "C" 
			},
			{
				"x": -2.7378473885,
				"y": -0.2402903594,
				"z": -2.0925518887,
				"element": "O" 
			},
			{
				"x": -1.5581754995,
				"y": -1.1284750861,
				"z": -0.3758442137,
				"element": "N" 
			},
			{
				"x": -0.383994061,
				"y": -1.3970697564,
				"z": 0.4410097196,
				"element": "C" 
			},
			{
				"x": -0.2985379111,
				"y": -2.8465218153,
				"z": 0.885974757,
				"element": "C" 
			},
			{
				"x": 0.0933085037,
				"y": -3.1567356133,
				"z": 2.1931966935,
				"element": "C" 
			},
			{
				"x": 0.2161157443,
				"y": -4.4850343789,
				"z": 2.6054674317,
				"element": "C" 
			},
			{
				"x": -0.0610355179,
				"y": -5.5219789292,
				"z": 1.7138362625,
				"element": "C" 
			},
			{
				"x": -0.4596152613,
				"y": -5.2221016936,
				"z": 0.4089283976,
				"element": "C" 
			},
			{
				"x": -0.576489468,
				"y": -3.894342648,
				"z": -0.0019186955,
				"element": "C" 
			},
			{
				"x": -1.1240381143,
				"y": 2.2572304307,
				"z": 0.0280539072,
				"element": "C" 
			},
			{
				"x": -1.2638183777,
				"y": 3.0551136306,
				"z": 1.1649663173,
				"element": "C" 
			},
			{
				"x": -1.0839866579,
				"y": 4.5503240805,
				"z": 3.172105391,
				"element": "H" 
			},
			{
				"x": 1.9371990263,
				"y": 4.4436852342,
				"z": 2.5886441001,
				"element": "H" 
			},
			{
				"x": 2.2705473164,
				"y": 2.4199055027,
				"z": -0.2869222239,
				"element": "H" 
			},
			{
				"x": 1.2196032367,
				"y": 1.4382926232,
				"z": -2.307101197,
				"element": "H" 
			},
			{
				"x": -0.1475467598,
				"y": -0.3121869366,
				"z": -3.1015379592,
				"element": "H" 
			},
			{
				"x": -2.4541998163,
				"y": -1.4525459348,
				"z": -0.031520084,
				"element": "H" 
			},
			{
				"x": -0.3672211153,
				"y": -0.7421052945,
				"z": 1.3225305322,
				"element": "H" 
			},
			{
				"x": 0.4930650132,
				"y": -1.1322845994,
				"z": -0.1568456488,
				"element": "H" 
			},
			{
				"x": 0.3031881444,
				"y": -2.3519181772,
				"z": 2.8939361319,
				"element": "H" 
			},
			{
				"x": 0.5202500096,
				"y": -4.7081661961,
				"z": 3.6242684694,
				"element": "H" 
			},
			{
				"x": 0.0282938003,
				"y": -6.5562044702,
				"z": 2.0335701564,
				"element": "H" 
			},
			{
				"x": -0.6799023813,
				"y": -6.0238397036,
				"z": -0.2903881032,
				"element": "H" 
			},
			{
				"x": -0.8929145328,
				"y": -3.6640713072,
				"z": -1.0153250135,
				"element": "H" 
			},
			{
				"x": -2.0092207031,
				"y": 1.8729652329,
				"z": -0.4653184142,
				"element": "H" 
			},
			{
				"x": -2.2533579296,
				"y": 3.262179897,
				"z": 1.5671701286,
				"element": "H" 
			}
		],
		 "valence_orbital": [ 
			{
				"type": "occ",
				"energy": -0.25281,
				"method": "rhf"
			},
			{
				"type": "occ",
				"energy": -0.24904,
				"method": "rhf"
			},
			{
				"type": "occ",
				"energy": -0.23775,
				"method": "rhf"
			},
			{
				"type": "occ",
				"energy": -0.2326,
				"method": "rhf"
			},
			{
				"type": "occ",
				"energy": -0.20791,
				"method": "rhf"
			},
			{
				"type": "unocc",
				"energy": -0.03194,
				"method": "rhf"
			},
			{
				"type": "unocc",
				"energy": -0.00633,
				"method": "rhf"
			},
			{
				"type": "unocc",
				"energy": -0.00438,
				"method": "rhf"
			},
			{
				"type": "unocc",
				"energy": 0.00068,
				"method": "rhf"
			},
			{
				"type": "unocc",
				"energy": 0.02913,
				"method": "rhf"
			}
		],
		"cosmo_sigma_profile": { 
			"-0.025": 0.0,
			"-0.024": 0.0,
			"-0.023": 0.0,
			"-0.022": 0.0,
			"-0.021": 0.0,
			"-0.02": 0.0,
			"-0.019": 0.174299346038,
			"-0.018": 1.02365743948,
			"-0.017": 1.0597238344,
			"-0.016": 0.852036815062,
			"-0.015": 1.67924987205,
			"-0.014": 1.2205960938,
			"-0.013": 2.71353980938,
			"-0.012": 2.39137281145,
			"-0.011": 1.94590524751,
			"-0.01": 2.60517528154,
			"-0.009": 2.62014725803,
			"-0.008": 2.63594461905,
			"-0.007": 4.6974167699,
			"-0.006": 14.8909956254,
			"-0.005": 22.3249387838,
			"-0.004": 24.7476577491,
			"-0.003": 24.7228306298,
			"-0.002": 19.6748091022,
			"-0.001": 19.8424592524,
			"0.0": 18.4333651495,
			"0.001": 19.3046932883,
			"0.002": 21.7020389076,
			"0.003": 23.6069073393,
			"0.004": 22.5093294858,
			"0.005": 17.3517676629,
			"0.006": 12.1072799411,
			"0.007": 4.32088446154,
			"0.008": 3.03263385101,
			"0.009": 2.7626169315,
			"0.01": 3.16452334401,
			"0.011": 3.48190341012,
			"0.012": 1.6673338067,
			"0.013": 3.44303588968,
			"0.014": 5.64876097969,
			"0.015": 2.34864527393,
			"0.016": 0.140369972956,
			"0.017": 0.0,
			"0.018": 0.0,
			"0.019": 0.0,
			"0.02": 0.0,
			"0.021": 0.0,
			"0.022": 0.0,
			"0.023": 0.0,
			"0.024": 0.0,
			"0.025": 0.0
		}
	}
}
