{
	 "smiles": "NC1=CC(OC2=NC=CN=C2)=CC=C1", 
	 "Tm": 363.15, 
	 "num_atms": 23, 
	 "gaussian": { 
		 "optdone": 1, 
		 "sigma_profile": "yes", 
		 "theory": "DFT", 
		 "functional": "B3LYP", 
		 "basiset": "6-31G**", 
		 "properties": { 
			 "R2extent": 3720.9633, 
			 "electric_dipole_moment_norm": 2.87887897801, 
			 "electric_quadrupole_moment_norm": 9.13138470934, 
			 "total_energy": -625.946949423, 
			 "HOMO_LUMO_gap": 0.15958, 
			 "cosmo_polarized_energy": -12.92, 
			 "cosmo_cavitation_energy": 28.11, 
			 "cosmo_dispersion_energy": -20.62, 
			 "cosmo_repulsion_energy": 1.63, 
			 "cosmo_total_nonelectrostatic_energy": 9.12, 
			 "SMD_solvation_energy": 2.77 
		},
		"coords": [
			{
				"x": 2.8127129972,
				"y": 2.4181739688,
				"z": 2.0330238431,
				"element": "N" 
			},
			{
				"x": 1.8898588157,
				"y": 1.4699089924,
				"z": 1.5906330782,
				"element": "C" 
			},
			{
				"x": 1.2713500445,
				"y": 1.6112897713,
				"z": 0.3366038806,
				"element": "C" 
			},
			{
				"x": 0.3996318808,
				"y": 0.6293052913,
				"z": -0.1156055668,
				"element": "C" 
			},
			{
				"x": -0.1051438516,
				"y": 0.7816436305,
				"z": -1.4110525576,
				"element": "O" 
			},
			{
				"x": -1.4369997206,
				"y": 0.9440867159,
				"z": -1.616759359,
				"element": "C" 
			},
			{
				"x": -2.2688400822,
				"y": 1.1278611071,
				"z": -0.603581674,
				"element": "N" 
			},
			{
				"x": -3.5607149037,
				"y": 1.298549739,
				"z": -0.92764925,
				"element": "C" 
			},
			{
				"x": -4.0022234162,
				"y": 1.2871908644,
				"z": -2.2453158092,
				"element": "C" 
			},
			{
				"x": -3.1494466947,
				"y": 1.101362668,
				"z": -3.2691332679,
				"element": "N" 
			},
			{
				"x": -1.8710799715,
				"y": 0.9288755034,
				"z": -2.9592264678,
				"element": "C" 
			},
			{
				"x": 0.1115813103,
				"y": -0.509326451,
				"z": 0.6341619827,
				"element": "C" 
			},
			{
				"x": 0.7255659618,
				"y": -0.6405354123,
				"z": 1.8796966437,
				"element": "C" 
			},
			{
				"x": 1.6029388953,
				"y": 0.3291814511,
				"z": 2.3601895478,
				"element": "C" 
			},
			{
				"x": 2.9466875945,
				"y": 2.4519932517,
				"z": 3.0341099505,
				"element": "H" 
			},
			{
				"x": 2.708015565,
				"y": 3.341125539,
				"z": 1.6349242107,
				"element": "H" 
			},
			{
				"x": 1.471883898,
				"y": 2.4732973012,
				"z": -0.2921282353,
				"element": "H" 
			},
			{
				"x": -4.2541566779,
				"y": 1.4501470177,
				"z": -0.1030662412,
				"element": "H" 
			},
			{
				"x": -5.0516379088,
				"y": 1.427127975,
				"z": -2.4905039077,
				"element": "H" 
			},
			{
				"x": -1.1556550644,
				"y": 0.7749703376,
				"z": -3.7632223563,
				"element": "H" 
			},
			{
				"x": -0.5699290898,
				"y": -1.2607624593,
				"z": 0.2537969427,
				"element": "H" 
			},
			{
				"x": 0.5173547674,
				"y": -1.5161816013,
				"z": 2.4878033534,
				"element": "H" 
			},
			{
				"x": 2.076545651,
				"y": 0.2043147985,
				"z": 3.3304012593,
				"element": "H" 
			}
		],
		 "valence_orbital": [ 
			{
				"type": "occ",
				"energy": -0.30227,
				"method": "rhf"
			},
			{
				"type": "occ",
				"energy": -0.25267,
				"method": "rhf"
			},
			{
				"type": "occ",
				"energy": -0.25184,
				"method": "rhf"
			},
			{
				"type": "occ",
				"energy": -0.23718,
				"method": "rhf"
			},
			{
				"type": "occ",
				"energy": -0.20418,
				"method": "rhf"
			},
			{
				"type": "unocc",
				"energy": -0.0446,
				"method": "rhf"
			},
			{
				"type": "unocc",
				"energy": -0.01254,
				"method": "rhf"
			},
			{
				"type": "unocc",
				"energy": 0.00595,
				"method": "rhf"
			},
			{
				"type": "unocc",
				"energy": 0.01626,
				"method": "rhf"
			},
			{
				"type": "unocc",
				"energy": 0.07866,
				"method": "rhf"
			}
		],
		"cosmo_sigma_profile": { 
			"-0.025": 0.0,
			"-0.024": 0.0,
			"-0.023": 0.0,
			"-0.022": 0.0,
			"-0.021": 0.0,
			"-0.02": 0.0,
			"-0.019": 0.0,
			"-0.018": 0.0,
			"-0.017": 0.0,
			"-0.016": 0.0,
			"-0.015": 0.0,
			"-0.014": 0.0,
			"-0.013": 0.680301305541,
			"-0.012": 2.4596334097,
			"-0.011": 2.89072669752,
			"-0.01": 2.4630601571,
			"-0.009": 3.5136097897,
			"-0.008": 5.86437781598,
			"-0.007": 9.93122424278,
			"-0.006": 12.6467933906,
			"-0.005": 13.2665867432,
			"-0.004": 11.7483575948,
			"-0.003": 13.9746875454,
			"-0.002": 13.9534605222,
			"-0.001": 16.6855076799,
			"0.0": 15.9783345219,
			"0.001": 12.9855930989,
			"0.002": 11.1947681877,
			"0.003": 11.9272488715,
			"0.004": 12.6784638157,
			"0.005": 12.4847583754,
			"0.006": 11.845345988,
			"0.007": 4.84959179542,
			"0.008": 4.50639149085,
			"0.009": 4.10257747032,
			"0.01": 2.50913636099,
			"0.011": 2.73803807762,
			"0.012": 2.37558126008,
			"0.013": 2.58180821301,
			"0.014": 1.89127055684,
			"0.015": 0.726278804405,
			"0.016": 0.0,
			"0.017": 0.0,
			"0.018": 0.0,
			"0.019": 0.0,
			"0.02": 0.0,
			"0.021": 0.0,
			"0.022": 0.0,
			"0.023": 0.0,
			"0.024": 0.0,
			"0.025": 0.0
		}
	}
}
