{
	 "smiles": "ClC(=O)C1=CN=C(Cl)C=C1", 
	 "Tm": 323.15, 
	 "num_atms": 13, 
	 "gaussian": { 
		 "optdone": 1, 
		 "sigma_profile": "yes", 
		 "theory": "DFT", 
		 "functional": "B3LYP", 
		 "basiset": "6-31G**", 
		 "properties": { 
			 "R2extent": 3568.3747, 
			 "electric_dipole_moment_norm": 2.52220161565, 
			 "electric_quadrupole_moment_norm": 13.4534106278, 
			 "total_energy": -1280.80561317, 
			 "HOMO_LUMO_gap": 0.18928, 
			 "cosmo_polarized_energy": -7.5, 
			 "cosmo_cavitation_energy": 21.99, 
			 "cosmo_dispersion_energy": -16.63, 
			 "cosmo_repulsion_energy": 1.35, 
			 "cosmo_total_nonelectrostatic_energy": 6.71, 
			 "SMD_solvation_energy": 2.8 
		},
		"coords": [
			{
				"x": 4.9707506306,
				"y": -0.2620485455,
				"z": 0.8699466328,
				"element": "Cl" 
			},
			{
				"x": 3.5739072694,
				"y": -0.7738266764,
				"z": -0.1900625177,
				"element": "C" 
			},
			{
				"x": 3.6950665858,
				"y": -1.7300153734,
				"z": -0.8945390848,
				"element": "O" 
			},
			{
				"x": 2.3649669263,
				"y": 0.0729363029,
				"z": -0.0810149038,
				"element": "C" 
			},
			{
				"x": 1.2651737878,
				"y": -0.2835048876,
				"z": -0.8790841551,
				"element": "C" 
			},
			{
				"x": 0.1127341564,
				"y": 0.3889479706,
				"z": -0.8824683799,
				"element": "N" 
			},
			{
				"x": 0.0216314174,
				"y": 1.4431176761,
				"z": -0.0856282944,
				"element": "C" 
			},
			{
				"x": -1.4988387875,
				"y": 2.3117815713,
				"z": -0.1049989608,
				"element": "Cl" 
			},
			{
				"x": 1.0436502397,
				"y": 1.8990715739,
				"z": 0.7553711477,
				"element": "C" 
			},
			{
				"x": 2.2387580245,
				"y": 1.1935448149,
				"z": 0.7523693302,
				"element": "C" 
			},
			{
				"x": 1.3317984985,
				"y": -1.1466029856,
				"z": -1.5351969545,
				"element": "H" 
			},
			{
				"x": 0.8981794625,
				"y": 2.7707075092,
				"z": 1.3814588336,
				"element": "H" 
			},
			{
				"x": 3.0628217886,
				"y": 1.5030910497,
				"z": 1.3842473068,
				"element": "H" 
			}
		],
		 "valence_orbital": [ 
			{
				"type": "occ",
				"energy": -0.33474,
				"method": "rhf"
			},
			{
				"type": "occ",
				"energy": -0.32604,
				"method": "rhf"
			},
			{
				"type": "occ",
				"energy": -0.31295,
				"method": "rhf"
			},
			{
				"type": "occ",
				"energy": -0.29593,
				"method": "rhf"
			},
			{
				"type": "occ",
				"energy": -0.28745,
				"method": "rhf"
			},
			{
				"type": "unocc",
				"energy": -0.09817,
				"method": "rhf"
			},
			{
				"type": "unocc",
				"energy": -0.0605,
				"method": "rhf"
			},
			{
				"type": "unocc",
				"energy": 0.00086,
				"method": "rhf"
			},
			{
				"type": "unocc",
				"energy": 0.00562,
				"method": "rhf"
			},
			{
				"type": "unocc",
				"energy": 0.0157,
				"method": "rhf"
			}
		],
		"cosmo_sigma_profile": { 
			"-0.025": 0.0,
			"-0.024": 0.0,
			"-0.023": 0.0,
			"-0.022": 0.0,
			"-0.021": 0.0,
			"-0.02": 0.0,
			"-0.019": 0.0,
			"-0.018": 0.0,
			"-0.017": 0.0,
			"-0.016": 0.0,
			"-0.015": 0.0,
			"-0.014": 0.0,
			"-0.013": 0.0,
			"-0.012": 0.0,
			"-0.011": 0.0,
			"-0.01": 0.279389370817,
			"-0.009": 3.637569738,
			"-0.008": 5.60302198401,
			"-0.007": 4.47700466354,
			"-0.006": 5.57057328639,
			"-0.005": 8.30991004315,
			"-0.004": 10.8579946215,
			"-0.003": 17.9230382783,
			"-0.002": 17.9744256677,
			"-0.001": 15.6995151339,
			"0.0": 12.0968283475,
			"0.001": 10.0266755606,
			"0.002": 13.3366322706,
			"0.003": 17.2586829819,
			"0.004": 13.5716124895,
			"0.005": 7.11884659774,
			"0.006": 3.7252492361,
			"0.007": 4.35701626722,
			"0.008": 5.26390506407,
			"0.009": 2.48766145738,
			"0.01": 0.660668495284,
			"0.011": 1.22011811291,
			"0.012": 0.657070484253,
			"0.013": 0.705723808068,
			"0.014": 0.0505554925554,
			"0.015": 0.0,
			"0.016": 0.0,
			"0.017": 0.0,
			"0.018": 0.0,
			"0.019": 0.0,
			"0.02": 0.0,
			"0.021": 0.0,
			"0.022": 0.0,
			"0.023": 0.0,
			"0.024": 0.0,
			"0.025": 0.0
		}
	}
}
