{
	 "smiles": "CC1=C(C)N=C(NN)C(Cl)=N1", 
	 "Tm": 408.15, 
	 "num_atms": 20, 
	 "gaussian": { 
		 "optdone": 1, 
		 "sigma_profile": "yes", 
		 "theory": "DFT", 
		 "functional": "B3LYP", 
		 "basiset": "6-31G**", 
		 "properties": { 
			 "R2extent": 2290.734, 
			 "electric_dipole_moment_norm": 2.79464804761, 
			 "electric_quadrupole_moment_norm": 4.19839779321, 
			 "total_energy": -913.241125483, 
			 "HOMO_LUMO_gap": 0.17545, 
			 "cosmo_polarized_energy": -9.22, 
			 "cosmo_cavitation_energy": 25.53, 
			 "cosmo_dispersion_energy": -19.01, 
			 "cosmo_repulsion_energy": 1.56, 
			 "cosmo_total_nonelectrostatic_energy": 8.09, 
			 "SMD_solvation_energy": 2.35 
		},
		"coords": [
			{
				"x": 2.4580133173,
				"y": 0.594881038,
				"z": 1.9756954184,
				"element": "C" 
			},
			{
				"x": 1.4768628883,
				"y": 0.0995325169,
				"z": 0.946386834,
				"element": "C" 
			},
			{
				"x": 1.0907328931,
				"y": -1.2471787561,
				"z": 0.843526535,
				"element": "C" 
			},
			{
				"x": 1.6453166997,
				"y": -2.3036091007,
				"z": 1.7631222669,
				"element": "C" 
			},
			{
				"x": 0.209493001,
				"y": -1.6523273715,
				"z": -0.08577198,
				"element": "N" 
			},
			{
				"x": -0.3109952768,
				"y": -0.7469491259,
				"z": -0.920693136,
				"element": "C" 
			},
			{
				"x": -1.2377933863,
				"y": -1.1617733694,
				"z": -1.843241374,
				"element": "N" 
			},
			{
				"x": -1.4729061937,
				"y": -2.5280684801,
				"z": -2.0905517191,
				"element": "N" 
			},
			{
				"x": 0.1027061544,
				"y": 0.6037709344,
				"z": -0.8065437224,
				"element": "C" 
			},
			{
				"x": -0.553823813,
				"y": 1.80742417,
				"z": -1.9265316678,
				"element": "Cl" 
			},
			{
				"x": 0.9605658076,
				"y": 1.0050482807,
				"z": 0.0914455318,
				"element": "N" 
			},
			{
				"x": 2.1077168251,
				"y": 0.4019378277,
				"z": 2.9969706489,
				"element": "H" 
			},
			{
				"x": 2.5959116557,
				"y": 1.6703943174,
				"z": 1.8544961341,
				"element": "H" 
			},
			{
				"x": 3.4344751904,
				"y": 0.1055364069,
				"z": 1.8753195364,
				"element": "H" 
			},
			{
				"x": 1.4074030812,
				"y": -2.0849653195,
				"z": 2.8108290585,
				"element": "H" 
			},
			{
				"x": 1.2226226749,
				"y": -3.2752363462,
				"z": 1.50371998,
				"element": "H" 
			},
			{
				"x": 2.7376602217,
				"y": -2.3632117256,
				"z": 1.6914144286,
				"element": "H" 
			},
			{
				"x": -1.4216150323,
				"y": -0.5571859904,
				"z": -2.6299406532,
				"element": "H" 
			},
			{
				"x": -0.5821277567,
				"y": -3.0230049497,
				"z": -2.0248773306,
				"element": "H" 
			},
			{
				"x": -2.0367189514,
				"y": -2.885714957,
				"z": -1.3207747895,
				"element": "H" 
			}
		],
		 "valence_orbital": [ 
			{
				"type": "occ",
				"energy": -0.30288,
				"method": "rhf"
			},
			{
				"type": "occ",
				"energy": -0.29026,
				"method": "rhf"
			},
			{
				"type": "occ",
				"energy": -0.27321,
				"method": "rhf"
			},
			{
				"type": "occ",
				"energy": -0.26049,
				"method": "rhf"
			},
			{
				"type": "occ",
				"energy": -0.2159,
				"method": "rhf"
			},
			{
				"type": "unocc",
				"energy": -0.04045,
				"method": "rhf"
			},
			{
				"type": "unocc",
				"energy": -0.00935,
				"method": "rhf"
			},
			{
				"type": "unocc",
				"energy": 0.03312,
				"method": "rhf"
			},
			{
				"type": "unocc",
				"energy": 0.08616,
				"method": "rhf"
			},
			{
				"type": "unocc",
				"energy": 0.09258,
				"method": "rhf"
			}
		],
		"cosmo_sigma_profile": { 
			"-0.025": 0.0,
			"-0.024": 0.0,
			"-0.023": 0.0,
			"-0.022": 0.0,
			"-0.021": 0.0,
			"-0.02": 0.0,
			"-0.019": 0.0,
			"-0.018": 0.0,
			"-0.017": 0.0,
			"-0.016": 0.0,
			"-0.015": 0.0,
			"-0.014": 0.0,
			"-0.013": 0.174531184012,
			"-0.012": 0.774162190342,
			"-0.011": 1.63633673062,
			"-0.01": 2.99950631267,
			"-0.009": 3.37793704458,
			"-0.008": 2.98620713836,
			"-0.007": 2.5790391171,
			"-0.006": 3.39149158321,
			"-0.005": 11.7576748809,
			"-0.004": 14.6340608203,
			"-0.003": 13.5386701692,
			"-0.002": 19.5086799706,
			"-0.001": 24.3443385455,
			"0.0": 22.4428187597,
			"0.001": 14.7049187694,
			"0.002": 10.2917230062,
			"0.003": 10.7680511392,
			"0.004": 11.3557463032,
			"0.005": 9.32159545238,
			"0.006": 5.22075496195,
			"0.007": 4.3894982281,
			"0.008": 2.2971876561,
			"0.009": 2.45723643238,
			"0.01": 2.39425476947,
			"0.011": 1.75411722467,
			"0.012": 1.65211972668,
			"0.013": 1.21350655897,
			"0.014": 0.862439916807,
			"0.015": 0.476442250806,
			"0.016": 0.552581996951,
			"0.017": 0.251061974649,
			"0.018": 0.0,
			"0.019": 0.0,
			"0.02": 0.0,
			"0.021": 0.0,
			"0.022": 0.0,
			"0.023": 0.0,
			"0.024": 0.0,
			"0.025": 0.0
		}
	}
}
