{
	 "smiles": "NNC(=O)C1=CC(OCC(F)(F)F)=CC=C1OCC(F)(F)F", 
	 "Tm": 360.15, 
	 "num_atms": 32, 
	 "gaussian": { 
		 "optdone": 1, 
		 "sigma_profile": "yes", 
		 "theory": "DFT", 
		 "functional": "B3LYP", 
		 "basiset": "6-31G**", 
		 "properties": { 
			 "R2extent": 9272.1783, 
			 "electric_dipole_moment_norm": 3.23499950696, 
			 "electric_quadrupole_moment_norm": 18.7812378737, 
			 "total_energy": -1359.37400263, 
			 "HOMO_LUMO_gap": 0.18212, 
			 "cosmo_polarized_energy": -17.07, 
			 "cosmo_cavitation_energy": 40.12, 
			 "cosmo_dispersion_energy": -26.76, 
			 "cosmo_repulsion_energy": 1.96, 
			 "cosmo_total_nonelectrostatic_energy": 15.32, 
			 "SMD_solvation_energy": 10.33 
		},
		"coords": [
			{
				"x": -0.9031636791,
				"y": -1.8545957217,
				"z": -2.8236072757,
				"element": "N" 
			},
			{
				"x": -0.6515024531,
				"y": -1.4395343345,
				"z": -1.4978463522,
				"element": "N" 
			},
			{
				"x": 0.643896398,
				"y": -1.3050820299,
				"z": -1.0511573913,
				"element": "C" 
			},
			{
				"x": 1.5942236482,
				"y": -1.6455557022,
				"z": -1.7514192567,
				"element": "O" 
			},
			{
				"x": 0.7830938402,
				"y": -0.743516293,
				"z": 0.3332921967,
				"element": "C" 
			},
			{
				"x": -0.2027461878,
				"y": -1.0519211597,
				"z": 1.2925973513,
				"element": "C" 
			},
			{
				"x": -0.0798418175,
				"y": -0.6239992235,
				"z": 2.6108036607,
				"element": "C" 
			},
			{
				"x": -0.9843727153,
				"y": -0.8873784801,
				"z": 3.6166748955,
				"element": "O" 
			},
			{
				"x": -1.8831448465,
				"y": -1.9671318217,
				"z": 3.500237424,
				"element": "C" 
			},
			{
				"x": -3.2557150155,
				"y": -1.5331468566,
				"z": 2.9990708824,
				"element": "C" 
			},
			{
				"x": -3.2215899177,
				"y": -1.0702270651,
				"z": 1.7279562424,
				"element": "F" 
			},
			{
				"x": -4.0890427962,
				"y": -2.5951815464,
				"z": 3.02381818,
				"element": "F" 
			},
			{
				"x": -3.7808904274,
				"y": -0.5670944834,
				"z": 3.7671178277,
				"element": "F" 
			},
			{
				"x": 1.0319374988,
				"y": 0.1381723273,
				"z": 2.9906174285,
				"element": "C" 
			},
			{
				"x": 1.999000391,
				"y": 0.4614352248,
				"z": 2.0518381426,
				"element": "C" 
			},
			{
				"x": 1.8951440465,
				"y": 0.025712385,
				"z": 0.7241073798,
				"element": "C" 
			},
			{
				"x": 2.9449258983,
				"y": 0.3566147705,
				"z": -0.090144745,
				"element": "O" 
			},
			{
				"x": 2.7076970967,
				"y": 0.9748884503,
				"z": -1.3416842072,
				"element": "C" 
			},
			{
				"x": 3.5143324442,
				"y": 2.2611633334,
				"z": -1.3910157835,
				"element": "C" 
			},
			{
				"x": 3.1357317314,
				"y": 3.1215760001,
				"z": -0.4242892359,
				"element": "F" 
			},
			{
				"x": 4.8316137668,
				"y": 2.0369595558,
				"z": -1.2484110849,
				"element": "F" 
			},
			{
				"x": 3.319330059,
				"y": 2.8658056934,
				"z": -2.5845871218,
				"element": "F" 
			},
			{
				"x": -0.9027332159,
				"y": -2.8743473469,
				"z": -2.8291313928,
				"element": "H" 
			},
			{
				"x": -0.0834803268,
				"y": -1.5836535505,
				"z": -3.3697804552,
				"element": "H" 
			},
			{
				"x": -1.3752737429,
				"y": -0.8554759053,
				"z": -1.1024625937,
				"element": "H" 
			},
			{
				"x": -1.0526873807,
				"y": -1.6452777831,
				"z": 0.9848270301,
				"element": "H" 
			},
			{
				"x": -2.0271382225,
				"y": -2.3731440092,
				"z": 4.5054821064,
				"element": "H" 
			},
			{
				"x": -1.5050430084,
				"y": -2.7644211356,
				"z": 2.851617999,
				"element": "H" 
			},
			{
				"x": 1.1163175188,
				"y": 0.4668717412,
				"z": 4.0209057554,
				"element": "H" 
			},
			{
				"x": 2.8617577388,
				"y": 1.0609371129,
				"z": 2.3206936443,
				"element": "H" 
			},
			{
				"x": 1.6544916308,
				"y": 1.237444913,
				"z": -1.4801041722,
				"element": "H" 
			},
			{
				"x": 3.0177720458,
				"y": 0.3146029407,
				"z": -2.1541170785,
				"element": "H" 
			}
		],
		 "valence_orbital": [ 
			{
				"type": "occ",
				"energy": -0.30049,
				"method": "rhf"
			},
			{
				"type": "occ",
				"energy": -0.27801,
				"method": "rhf"
			},
			{
				"type": "occ",
				"energy": -0.26799,
				"method": "rhf"
			},
			{
				"type": "occ",
				"energy": -0.26213,
				"method": "rhf"
			},
			{
				"type": "occ",
				"energy": -0.23231,
				"method": "rhf"
			},
			{
				"type": "unocc",
				"energy": -0.05019,
				"method": "rhf"
			},
			{
				"type": "unocc",
				"energy": -0.01129,
				"method": "rhf"
			},
			{
				"type": "unocc",
				"energy": 0.03464,
				"method": "rhf"
			},
			{
				"type": "unocc",
				"energy": 0.07172,
				"method": "rhf"
			},
			{
				"type": "unocc",
				"energy": 0.0762,
				"method": "rhf"
			}
		],
		"cosmo_sigma_profile": { 
			"-0.025": 0.0,
			"-0.024": 0.0,
			"-0.023": 0.0,
			"-0.022": 0.0,
			"-0.021": 0.0,
			"-0.02": 0.0,
			"-0.019": 0.0,
			"-0.018": 0.0,
			"-0.017": 0.0,
			"-0.016": 0.0,
			"-0.015": 0.0,
			"-0.014": 0.185544850212,
			"-0.013": 1.06180836963,
			"-0.012": 1.22177668059,
			"-0.011": 3.00308632014,
			"-0.01": 4.13333557745,
			"-0.009": 10.3414593672,
			"-0.008": 11.8344140573,
			"-0.007": 13.219109523,
			"-0.006": 15.0226091634,
			"-0.005": 13.5956808413,
			"-0.004": 12.3225068043,
			"-0.003": 9.63086778968,
			"-0.002": 10.3581385412,
			"-0.001": 14.7750688487,
			"0.0": 17.9415084499,
			"0.001": 26.3701187066,
			"0.002": 57.968013987,
			"0.003": 53.4826215854,
			"0.004": 6.84585504668,
			"0.005": 5.35114923206,
			"0.006": 4.63497177434,
			"0.007": 4.70163020343,
			"0.008": 3.85587495103,
			"0.009": 3.23060772749,
			"0.01": 2.5583244245,
			"0.011": 2.91718153614,
			"0.012": 3.09165482259,
			"0.013": 3.62505570682,
			"0.014": 1.03289338625,
			"0.015": 0.583533377121,
			"0.016": 0.629513410839,
			"0.017": 0.0984343007388,
			"0.018": 0.0,
			"0.019": 0.0,
			"0.02": 0.0,
			"0.021": 0.0,
			"0.022": 0.0,
			"0.023": 0.0,
			"0.024": 0.0,
			"0.025": 0.0
		}
	}
}
