{
	 "smiles": "FC(F)(F)C1=CC(=CC(=C1)P(C1=CC(=CC(=C1)C(F)(F)F)C(F)(F)F)C1=CC(=CC(=C1)C(F)(F)F)C(F)(F)F)C(F)(F)F", 
	 "Tm": 373.15, 
	 "num_atms": 52, 
	 "gaussian": { 
		 "optdone": 1, 
		 "sigma_profile": "yes", 
		 "theory": "DFT", 
		 "functional": "B3LYP", 
		 "basiset": "6-31G**", 
		 "properties": { 
			 "R2extent": 27120.5079, 
			 "electric_dipole_moment_norm": 1.11920402519, 
			 "electric_quadrupole_moment_norm": 3.65489890695, 
			 "total_energy": -3058.49284754, 
			 "HOMO_LUMO_gap": 0.18918, 
			 "cosmo_polarized_energy": -11.46, 
			 "cosmo_cavitation_energy": 69.58, 
			 "cosmo_dispersion_energy": -40.08, 
			 "cosmo_repulsion_energy": 2.8, 
			 "cosmo_total_nonelectrostatic_energy": 32.3, 
			 "SMD_solvation_energy": 18.57 
		},
		"coords": [
			{
				"x": -2.0028724672,
				"y": 5.3885046502,
				"z": 0.3271679323,
				"element": "F" 
			},
			{
				"x": -0.8015749216,
				"y": 4.9121606679,
				"z": -0.0663122001,
				"element": "C" 
			},
			{
				"x": 0.0256018172,
				"y": 5.9700044707,
				"z": -0.1933191943,
				"element": "F" 
			},
			{
				"x": -0.9710852259,
				"y": 4.3708794152,
				"z": -1.2913713817,
				"element": "F" 
			},
			{
				"x": -0.2661952433,
				"y": 3.9005118906,
				"z": 0.9165751758,
				"element": "C" 
			},
			{
				"x": 0.547471162,
				"y": 4.3189971282,
				"z": 1.968120686,
				"element": "C" 
			},
			{
				"x": 0.9837762115,
				"y": 3.3830553842,
				"z": 2.9068072463,
				"element": "C" 
			},
			{
				"x": 0.6036982661,
				"y": 2.0452515968,
				"z": 2.7989224636,
				"element": "C" 
			},
			{
				"x": -0.2018415948,
				"y": 1.6142921992,
				"z": 1.7333554686,
				"element": "C" 
			},
			{
				"x": -0.636430098,
				"y": 2.558474228,
				"z": 0.7943535768,
				"element": "C" 
			},
			{
				"x": -0.6573826655,
				"y": -0.1828754765,
				"z": 1.7103545452,
				"element": "P" 
			},
			{
				"x": 0.7183541217,
				"y": -0.9278592558,
				"z": 0.7152842912,
				"element": "C" 
			},
			{
				"x": 1.6159335115,
				"y": -0.1981318554,
				"z": -0.0745919625,
				"element": "C" 
			},
			{
				"x": 2.6438583577,
				"y": -0.8486010597,
				"z": -0.7625900836,
				"element": "C" 
			},
			{
				"x": 2.7870000455,
				"y": -2.2327295584,
				"z": -0.6809672924,
				"element": "C" 
			},
			{
				"x": 1.8957813835,
				"y": -2.9653330159,
				"z": 0.1042106477,
				"element": "C" 
			},
			{
				"x": 0.8779283237,
				"y": -2.3193750638,
				"z": 0.8060317389,
				"element": "C" 
			},
			{
				"x": 2.0086157324,
				"y": -4.4687020503,
				"z": 0.1572967592,
				"element": "C" 
			},
			{
				"x": 3.2864260636,
				"y": -4.8763918988,
				"z": 0.0112868008,
				"element": "F" 
			},
			{
				"x": 1.5489476963,
				"y": -4.9612590554,
				"z": 1.3265410423,
				"element": "F" 
			},
			{
				"x": 1.2902602922,
				"y": -5.0480499741,
				"z": -0.8293522091,
				"element": "F" 
			},
			{
				"x": 3.6405356727,
				"y": -0.0365197556,
				"z": -1.5520890841,
				"element": "C" 
			},
			{
				"x": 4.1755625026,
				"y": -0.7505330074,
				"z": -2.5636807937,
				"element": "F" 
			},
			{
				"x": 3.0715431666,
				"y": 1.0673797386,
				"z": -2.0813462623,
				"element": "F" 
			},
			{
				"x": 4.6617822839,
				"y": 0.3784472417,
				"z": -0.7712635745,
				"element": "F" 
			},
			{
				"x": -2.0750591632,
				"y": -0.2173533996,
				"z": 0.5158063606,
				"element": "C" 
			},
			{
				"x": -3.3587207096,
				"y": -0.0518340258,
				"z": 1.0588198202,
				"element": "C" 
			},
			{
				"x": -4.4864980284,
				"y": -0.0786282484,
				"z": 0.2383152195,
				"element": "C" 
			},
			{
				"x": -4.3561818614,
				"y": -0.2952702989,
				"z": -1.1341103633,
				"element": "C" 
			},
			{
				"x": -3.0853860809,
				"y": -0.4767302981,
				"z": -1.6773274785,
				"element": "C" 
			},
			{
				"x": -1.9508149816,
				"y": -0.4343280303,
				"z": -0.8624363056,
				"element": "C" 
			},
			{
				"x": -2.9337691363,
				"y": -0.7800314298,
				"z": -3.147417473,
				"element": "C" 
			},
			{
				"x": -2.9280816359,
				"y": -2.1116996684,
				"z": -3.3743134854,
				"element": "F" 
			},
			{
				"x": -1.775600865,
				"y": -0.2890242523,
				"z": -3.6374061609,
				"element": "F" 
			},
			{
				"x": -3.9436364516,
				"y": -0.2555341367,
				"z": -3.8715753589,
				"element": "F" 
			},
			{
				"x": -5.8516280137,
				"y": 0.1721791804,
				"z": 0.8292296471,
				"element": "C" 
			},
			{
				"x": -6.1576130292,
				"y": 1.4879457838,
				"z": 0.8118852469,
				"element": "F" 
			},
			{
				"x": -6.8171987136,
				"y": -0.4702444894,
				"z": 0.1398692111,
				"element": "F" 
			},
			{
				"x": -5.9202852837,
				"y": -0.235637319,
				"z": 2.1137821447,
				"element": "F" 
			},
			{
				"x": 1.9077906215,
				"y": 3.8145099034,
				"z": 4.0184277019,
				"element": "C" 
			},
			{
				"x": 1.7583226001,
				"y": 3.0447419775,
				"z": 5.1167029766,
				"element": "F" 
			},
			{
				"x": 3.2019146931,
				"y": 3.7240405366,
				"z": 3.6412967012,
				"element": "F" 
			},
			{
				"x": 1.6868995096,
				"y": 5.0957265298,
				"z": 4.3789595374,
				"element": "F" 
			},
			{
				"x": 0.8327456074,
				"y": 5.3602994579,
				"z": 2.0590808026,
				"element": "H" 
			},
			{
				"x": 0.9282580065,
				"y": 1.3384341157,
				"z": 3.5563746556,
				"element": "H" 
			},
			{
				"x": -1.2624819129,
				"y": 2.2576586875,
				"z": -0.0380983738,
				"element": "H" 
			},
			{
				"x": 1.5211228108,
				"y": 0.8783205682,
				"z": -0.1622695025,
				"element": "H" 
			},
			{
				"x": 3.5850190579,
				"y": -2.733366417,
				"z": -1.216224288,
				"element": "H" 
			},
			{
				"x": 0.2137474331,
				"y": -2.9034131037,
				"z": 1.4356312922,
				"element": "H" 
			},
			{
				"x": -3.4833840438,
				"y": 0.0873684412,
				"z": 2.1282870368,
				"element": "H" 
			},
			{
				"x": -5.2332473651,
				"y": -0.3283130575,
				"z": -1.7693973692,
				"element": "H" 
			},
			{
				"x": -0.9733274587,
				"y": -0.5692145915,
				"z": -1.3116165321,
				"element": "H" 
			}
		],
		 "valence_orbital": [ 
			{
				"type": "occ",
				"energy": -0.30507,
				"method": "rhf"
			},
			{
				"type": "occ",
				"energy": -0.30343,
				"method": "rhf"
			},
			{
				"type": "occ",
				"energy": -0.29826,
				"method": "rhf"
			},
			{
				"type": "occ",
				"energy": -0.29825,
				"method": "rhf"
			},
			{
				"type": "occ",
				"energy": -0.25975,
				"method": "rhf"
			},
			{
				"type": "unocc",
				"energy": -0.07057,
				"method": "rhf"
			},
			{
				"type": "unocc",
				"energy": -0.07051,
				"method": "rhf"
			},
			{
				"type": "unocc",
				"energy": -0.06973,
				"method": "rhf"
			},
			{
				"type": "unocc",
				"energy": -0.05787,
				"method": "rhf"
			},
			{
				"type": "unocc",
				"energy": -0.05784,
				"method": "rhf"
			}
		],
		"cosmo_sigma_profile": { 
			"-0.025": 0.0,
			"-0.024": 0.0,
			"-0.023": 0.0,
			"-0.022": 0.0,
			"-0.021": 0.0,
			"-0.02": 0.0,
			"-0.019": 0.0,
			"-0.018": 0.0,
			"-0.017": 0.0,
			"-0.016": 0.0,
			"-0.015": 0.0,
			"-0.014": 0.0,
			"-0.013": 0.0,
			"-0.012": 0.0,
			"-0.011": 0.0,
			"-0.01": 0.0,
			"-0.009": 0.0895996045114,
			"-0.008": 5.28457863188,
			"-0.007": 13.4043874851,
			"-0.006": 16.5183707557,
			"-0.005": 23.8355018678,
			"-0.004": 22.6202516894,
			"-0.003": 30.4365267651,
			"-0.002": 39.4346737421,
			"-0.001": 52.563994122,
			"0.0": 64.305044539,
			"0.001": 51.5034593916,
			"0.002": 137.176896899,
			"0.003": 100.476308919,
			"0.004": 0.922677014402,
			"0.005": 0.786029176708,
			"0.006": 0.304760097172,
			"0.007": 0.47483640211,
			"0.008": 1.11258402165,
			"0.009": 0.501373340313,
			"0.01": 0.431419776076,
			"0.011": 0.185250417853,
			"0.012": 0.0,
			"0.013": 0.0,
			"0.014": 0.0,
			"0.015": 0.0,
			"0.016": 0.0,
			"0.017": 0.0,
			"0.018": 0.0,
			"0.019": 0.0,
			"0.02": 0.0,
			"0.021": 0.0,
			"0.022": 0.0,
			"0.023": 0.0,
			"0.024": 0.0,
			"0.025": 0.0
		}
	}
}
