{
	 "smiles": "OC1=C(C=O)C=C(I)C=C1I", 
	 "Tm": 381.15, 
	 "num_atms": 15, 
	 "gaussian": { 
		 "optdone": 1, 
		 "sigma_profile": "no", 
		 "theory": "DFT", 
		 "functional": "B3LYP", 
		 "basiset": "6-31G**", 
		 "properties": { 
			 "R2extent": 2083.8731, 
			 "electric_dipole_moment_norm": 2.52495252431, 
			 "electric_quadrupole_moment_norm": 13.2537968217, 
			 "total_energy": -442.353053952, 
			 "HOMO_LUMO_gap": 0.16531, 
			 "cosmo_polarized_energy": -205482.84, 
			 "cosmo_cavitation_energy": 26.28, 
			 "cosmo_dispersion_energy": -22.14, 
			 "cosmo_repulsion_energy": 1.71, 
			 "cosmo_total_nonelectrostatic_energy": 5.85, 
			 "SMD_solvation_energy": 4.18 
		},
		"coords": [
			{
				"x": 1.3750713772,
				"y": -1.0134909789,
				"z": 1.1346665415,
				"element": "O" 
			},
			{
				"x": 0.3150783665,
				"y": -0.6202396667,
				"z": 0.4149116483,
				"element": "C" 
			},
			{
				"x": -0.8737672991,
				"y": -1.3901707181,
				"z": 0.4794740914,
				"element": "C" 
			},
			{
				"x": -1.008854756,
				"y": -2.6173760303,
				"z": 1.3073807288,
				"element": "C" 
			},
			{
				"x": -0.1608837147,
				"y": -3.1152395294,
				"z": 2.0154226198,
				"element": "O" 
			},
			{
				"x": -1.9973791366,
				"y": -1.0034236403,
				"z": -0.2618291895,
				"element": "C" 
			},
			{
				"x": -1.971044105,
				"y": 0.1296152001,
				"z": -1.0665910252,
				"element": "C" 
			},
			{
				"x": -3.6812901491,
				"y": 0.6948299723,
				"z": -2.1778237695,
				"element": "I" 
			},
			{
				"x": -0.8096513439,
				"y": 0.9013478558,
				"z": -1.143761381,
				"element": "C" 
			},
			{
				"x": 0.3126817744,
				"y": 0.5227218963,
				"z": -0.4089405441,
				"element": "C" 
			},
			{
				"x": 2.0709248597,
				"y": 1.7074655169,
				"z": -0.5377500778,
				"element": "I" 
			},
			{
				"x": 2.1117585282,
				"y": -0.3950079828,
				"z": 0.992866451,
				"element": "H" 
			},
			{
				"x": -2.0208057841,
				"y": -3.0758709551,
				"z": 1.2203198499,
				"element": "H" 
			},
			{
				"x": -2.8945926746,
				"y": -1.6109540354,
				"z": -0.1941306721,
				"element": "H" 
			},
			{
				"x": -0.775145943,
				"y": 1.7864930956,
				"z": -1.7667152716,
				"element": "H" 
			}
		],
		 "valence_orbital": [ 
			{
				"type": "occ",
				"energy": -0.29415,
				"method": "rhf"
			},
			{
				"type": "occ",
				"energy": -0.28278,
				"method": "rhf"
			},
			{
				"type": "occ",
				"energy": -0.27211,
				"method": "rhf"
			},
			{
				"type": "occ",
				"energy": -0.25838,
				"method": "rhf"
			},
			{
				"type": "occ",
				"energy": -0.24224,
				"method": "rhf"
			},
			{
				"type": "unocc",
				"energy": -0.07693,
				"method": "rhf"
			},
			{
				"type": "unocc",
				"energy": -0.07306,
				"method": "rhf"
			},
			{
				"type": "unocc",
				"energy": -0.04226,
				"method": "rhf"
			},
			{
				"type": "unocc",
				"energy": -0.03313,
				"method": "rhf"
			},
			{
				"type": "unocc",
				"energy": 0.01543,
				"method": "rhf"
			}
		],
		"cosmo_sigma_profile": { 
			"0.0": 0.0,
			"0.0": 0.0,
			"0.0": 0.0,
			"0.0": 0.0,
			"0.0": 0.0,
			"0.0": 0.0,
			"0.0": 0.0,
			"0.0": 0.0,
			"0.0": 0.0,
			"0.0": 0.0,
			"0.0": 0.0,
			"0.0": 0.0,
			"0.0": 0.0,
			"0.0": 0.0,
			"0.0": 0.0,
			"0.0": 0.0,
			"0.0": 0.0,
			"0.0": 0.0,
			"0.0": 0.0,
			"0.0": 0.0,
			"0.0": 0.0,
			"0.0": 0.0,
			"0.0": 0.0,
			"0.0": 0.0,
			"0.0": 0.0,
			"0.0": 0.0,
			"0.0": 0.0,
			"0.0": 0.0,
			"0.0": 0.0,
			"0.0": 0.0,
			"0.0": 0.0,
			"0.0": 0.0,
			"0.0": 0.0,
			"0.0": 0.0,
			"0.0": 0.0,
			"0.0": 0.0,
			"0.0": 0.0,
			"0.0": 0.0,
			"0.0": 0.0,
			"0.0": 0.0,
			"0.0": 0.0,
			"0.0": 0.0,
			"0.0": 0.0,
			"0.0": 0.0,
			"0.0": 0.0,
			"0.0": 0.0,
			"0.0": 0.0,
			"0.0": 0.0,
			"0.0": 0.0,
			"0.0": 0.0,
			"0.0": 0.0
		}
	}
}
