{
	 "smiles": "CN1C(=O)CC(C)(C1=O)C1=CC=CC=C1", 
	 "Tm": 325.65, 
	 "num_atms": 28, 
	 "gaussian": { 
		 "optdone": 1, 
		 "sigma_profile": "yes", 
		 "theory": "DFT", 
		 "functional": "B3LYP", 
		 "basiset": "6-31G**", 
		 "properties": { 
			 "R2extent": 3525.8888, 
			 "electric_dipole_moment_norm": 1.44193262325, 
			 "electric_quadrupole_moment_norm": 13.7950114831, 
			 "total_energy": -670.350057849, 
			 "HOMO_LUMO_gap": 0.22245, 
			 "cosmo_polarized_energy": -11.67, 
			 "cosmo_cavitation_energy": 30.73, 
			 "cosmo_dispersion_energy": -21.85, 
			 "cosmo_repulsion_energy": 1.7, 
			 "cosmo_total_nonelectrostatic_energy": 10.58, 
			 "SMD_solvation_energy": 6.57 
		},
		"coords": [
			{
				"x": 3.567870995,
				"y": -2.0434560804,
				"z": 1.3651755571,
				"element": "C" 
			},
			{
				"x": 2.3268815081,
				"y": -1.2865311876,
				"z": 1.3082694803,
				"element": "N" 
			},
			{
				"x": 1.639253883,
				"y": -0.8504511254,
				"z": 2.4403075203,
				"element": "C" 
			},
			{
				"x": 1.9962222411,
				"y": -1.0437665668,
				"z": 3.5837258324,
				"element": "O" 
			},
			{
				"x": 0.3881957405,
				"y": -0.1308897811,
				"z": 1.9644841837,
				"element": "C" 
			},
			{
				"x": 0.5085451758,
				"y": -0.0164945914,
				"z": 0.4206911744,
				"element": "C" 
			},
			{
				"x": 0.8607624566,
				"y": 1.4320615823,
				"z": -0.0099723237,
				"element": "C" 
			},
			{
				"x": 1.7529059867,
				"y": -0.8771945232,
				"z": 0.1116968552,
				"element": "C" 
			},
			{
				"x": 2.2370661733,
				"y": -1.1231710621,
				"z": -0.9774179287,
				"element": "O" 
			},
			{
				"x": -0.7572203404,
				"y": -0.46877445,
				"z": -0.3223826635,
				"element": "C" 
			},
			{
				"x": -0.7134762035,
				"y": -1.1646446725,
				"z": -1.5388351401,
				"element": "C" 
			},
			{
				"x": -1.8929769796,
				"y": -1.5137246883,
				"z": -2.2005564735,
				"element": "C" 
			},
			{
				"x": -3.1351427555,
				"y": -1.1649163194,
				"z": -1.6715324388,
				"element": "C" 
			},
			{
				"x": -3.1905700918,
				"y": -0.4568333754,
				"z": -0.4703584508,
				"element": "C" 
			},
			{
				"x": -2.0135701871,
				"y": -0.1135012448,
				"z": 0.1944419773,
				"element": "C" 
			},
			{
				"x": 3.8476369884,
				"y": -2.1336628228,
				"z": 2.4148566487,
				"element": "H" 
			},
			{
				"x": 3.4275139359,
				"y": -3.0353591112,
				"z": 0.9278106368,
				"element": "H" 
			},
			{
				"x": 4.3482018438,
				"y": -1.5234616027,
				"z": 0.8046079859,
				"element": "H" 
			},
			{
				"x": 0.3071364665,
				"y": 0.8331595866,
				"z": 2.4739453361,
				"element": "H" 
			},
			{
				"x": -0.4723910282,
				"y": -0.7328005239,
				"z": 2.27028151,
				"element": "H" 
			},
			{
				"x": 0.0174580572,
				"y": 2.0972534014,
				"z": 0.1961306343,
				"element": "H" 
			},
			{
				"x": 1.0767117896,
				"y": 1.4630392479,
				"z": -1.0803954008,
				"element": "H" 
			},
			{
				"x": 1.7375796528,
				"y": 1.803660189,
				"z": 0.5322970212,
				"element": "H" 
			},
			{
				"x": 0.2447972676,
				"y": -1.4310207548,
				"z": -1.9678473064,
				"element": "H" 
			},
			{
				"x": -1.834848993,
				"y": -2.0611686326,
				"z": -3.1372177039,
				"element": "H" 
			},
			{
				"x": -4.0497994429,
				"y": -1.4379412324,
				"z": -2.1897876438,
				"element": "H" 
			},
			{
				"x": -4.1494168865,
				"y": -0.1713725564,
				"z": -0.0468478877,
				"element": "H" 
			},
			{
				"x": -2.0805272535,
				"y": 0.4439628981,
				"z": 1.1248290079,
				"element": "H" 
			}
		],
		 "valence_orbital": [ 
			{
				"type": "occ",
				"energy": -0.28334,
				"method": "rhf"
			},
			{
				"type": "occ",
				"energy": -0.27897,
				"method": "rhf"
			},
			{
				"type": "occ",
				"energy": -0.26234,
				"method": "rhf"
			},
			{
				"type": "occ",
				"energy": -0.25243,
				"method": "rhf"
			},
			{
				"type": "occ",
				"energy": -0.24504,
				"method": "rhf"
			},
			{
				"type": "unocc",
				"energy": -0.02259,
				"method": "rhf"
			},
			{
				"type": "unocc",
				"energy": -0.00872,
				"method": "rhf"
			},
			{
				"type": "unocc",
				"energy": -0.00409,
				"method": "rhf"
			},
			{
				"type": "unocc",
				"energy": 0.0281,
				"method": "rhf"
			},
			{
				"type": "unocc",
				"energy": 0.08619,
				"method": "rhf"
			}
		],
		"cosmo_sigma_profile": { 
			"-0.025": 0.0,
			"-0.024": 0.0,
			"-0.023": 0.0,
			"-0.022": 0.0,
			"-0.021": 0.0,
			"-0.02": 0.0,
			"-0.019": 0.0,
			"-0.018": 0.0,
			"-0.017": 0.0,
			"-0.016": 0.0,
			"-0.015": 0.0,
			"-0.014": 0.0,
			"-0.013": 0.0,
			"-0.012": 0.0,
			"-0.011": 0.0,
			"-0.01": 0.0,
			"-0.009": 0.0233505071957,
			"-0.008": 0.616399330482,
			"-0.007": 5.28464901495,
			"-0.006": 17.5931091229,
			"-0.005": 23.7631222098,
			"-0.004": 26.0017426363,
			"-0.003": 26.8668043112,
			"-0.002": 19.0721310622,
			"-0.001": 18.6948891605,
			"0.0": 12.5004165002,
			"0.001": 11.9743986607,
			"0.002": 11.464867399,
			"0.003": 10.6934782969,
			"0.004": 10.1564227749,
			"0.005": 11.2648083877,
			"0.006": 9.66385132909,
			"0.007": 3.0605617551,
			"0.008": 3.39385623326,
			"0.009": 2.91940286724,
			"0.01": 3.3199659078,
			"0.011": 6.82468291767,
			"0.012": 7.28400750559,
			"0.013": 1.19510033778,
			"0.014": 0.0335899615519,
			"0.015": 0.0,
			"0.016": 0.0,
			"0.017": 0.0,
			"0.018": 0.0,
			"0.019": 0.0,
			"0.02": 0.0,
			"0.021": 0.0,
			"0.022": 0.0,
			"0.023": 0.0,
			"0.024": 0.0,
			"0.025": 0.0
		}
	}
}
