{
	 "smiles": "COC(=O)C1=CC=C(C=C1)S(C)(=O)=O", 
	 "Tm": 390.15, 
	 "num_atms": 24, 
	 "gaussian": { 
		 "optdone": 1, 
		 "sigma_profile": "yes", 
		 "theory": "DFT", 
		 "functional": "B3LYP", 
		 "basiset": "6-31G**", 
		 "properties": { 
			 "R2extent": 5072.1641, 
			 "electric_dipole_moment_norm": 4.9734170346, 
			 "electric_quadrupole_moment_norm": 25.0969944539, 
			 "total_energy": -1048.01343333, 
			 "HOMO_LUMO_gap": 0.207, 
			 "cosmo_polarized_energy": -17.06, 
			 "cosmo_cavitation_energy": 30.18, 
			 "cosmo_dispersion_energy": -22.28, 
			 "cosmo_repulsion_energy": 1.7, 
			 "cosmo_total_nonelectrostatic_energy": 9.6, 
			 "SMD_solvation_energy": 6.59 
		},
		"coords": [
			{
				"x": -1.8004347184,
				"y": 2.9369481221,
				"z": -2.1026419566,
				"element": "C" 
			},
			{
				"x": -0.8783237925,
				"y": 1.9108168596,
				"z": -1.6980417598,
				"element": "O" 
			},
			{
				"x": -1.4029070914,
				"y": 0.9383548556,
				"z": -0.9231610344,
				"element": "C" 
			},
			{
				"x": -2.5668220071,
				"y": 0.9130556797,
				"z": -0.5760063211,
				"element": "O" 
			},
			{
				"x": -0.3917169326,
				"y": -0.0952422452,
				"z": -0.5434719292,
				"element": "C" 
			},
			{
				"x": 0.94391938,
				"y": -0.0243251798,
				"z": -0.9627241006,
				"element": "C" 
			},
			{
				"x": 1.8471653338,
				"y": -1.0135595799,
				"z": -0.5786733054,
				"element": "C" 
			},
			{
				"x": 1.4013847863,
				"y": -2.0639872054,
				"z": 0.2255580895,
				"element": "C" 
			},
			{
				"x": 0.0703858787,
				"y": -2.1571751198,
				"z": 0.6388190955,
				"element": "C" 
			},
			{
				"x": -0.8253687582,
				"y": -1.1641932177,
				"z": 0.2524024696,
				"element": "C" 
			},
			{
				"x": 2.5717405648,
				"y": -3.3418898577,
				"z": 0.7299552762,
				"element": "S" 
			},
			{
				"x": 3.2135897658,
				"y": -2.7242833273,
				"z": 2.3045752415,
				"element": "C" 
			},
			{
				"x": 1.8072205181,
				"y": -4.5658938096,
				"z": 1.0126509404,
				"element": "O" 
			},
			{
				"x": 3.6829929461,
				"y": -3.3388335153,
				"z": -0.233534458,
				"element": "O" 
			},
			{
				"x": -1.2204458937,
				"y": 3.6279416045,
				"z": -2.7137517603,
				"element": "H" 
			},
			{
				"x": -2.6217924621,
				"y": 2.5070373332,
				"z": -2.680875591,
				"element": "H" 
			},
			{
				"x": -2.2128368538,
				"y": 3.4474840033,
				"z": -1.2290210142,
				"element": "H" 
			},
			{
				"x": 1.265992129,
				"y": 0.7983814792,
				"z": -1.590059286,
				"element": "H" 
			},
			{
				"x": 2.8795739936,
				"y": -0.9902926922,
				"z": -0.9107486834,
				"element": "H" 
			},
			{
				"x": -0.2525772026,
				"y": -3.0051835466,
				"z": 1.2332348298,
				"element": "H" 
			},
			{
				"x": -1.8674966081,
				"y": -1.2007829208,
				"z": 0.5503751337,
				"element": "H" 
			},
			{
				"x": 2.3917044878,
				"y": -2.6272831943,
				"z": 3.0151810862,
				"element": "H" 
			},
			{
				"x": 3.7099508444,
				"y": -1.7669595985,
				"z": 2.1401972534,
				"element": "H" 
			},
			{
				"x": 3.9313016924,
				"y": -3.470034927,
				"z": 2.6528617843,
				"element": "H" 
			}
		],
		 "valence_orbital": [ 
			{
				"type": "occ",
				"energy": -0.29955,
				"method": "rhf"
			},
			{
				"type": "occ",
				"energy": -0.29402,
				"method": "rhf"
			},
			{
				"type": "occ",
				"energy": -0.28792,
				"method": "rhf"
			},
			{
				"type": "occ",
				"energy": -0.28239,
				"method": "rhf"
			},
			{
				"type": "occ",
				"energy": -0.28035,
				"method": "rhf"
			},
			{
				"type": "unocc",
				"energy": -0.07335,
				"method": "rhf"
			},
			{
				"type": "unocc",
				"energy": -0.03028,
				"method": "rhf"
			},
			{
				"type": "unocc",
				"energy": 0.02391,
				"method": "rhf"
			},
			{
				"type": "unocc",
				"energy": 0.06162,
				"method": "rhf"
			},
			{
				"type": "unocc",
				"energy": 0.08001,
				"method": "rhf"
			}
		],
		"cosmo_sigma_profile": { 
			"-0.025": 0.0,
			"-0.024": 0.0,
			"-0.023": 0.0,
			"-0.022": 0.0,
			"-0.021": 0.0,
			"-0.02": 0.0,
			"-0.019": 0.0,
			"-0.018": 0.0,
			"-0.017": 0.0,
			"-0.016": 0.0,
			"-0.015": 0.0,
			"-0.014": 0.0,
			"-0.013": 0.0,
			"-0.012": 0.0,
			"-0.011": 0.0,
			"-0.01": 0.0223630232426,
			"-0.009": 2.7701858074,
			"-0.008": 8.65501679489,
			"-0.007": 12.1182587095,
			"-0.006": 19.678604205,
			"-0.005": 18.8383187537,
			"-0.004": 21.8934375741,
			"-0.003": 18.137319988,
			"-0.002": 12.9076988592,
			"-0.001": 14.1635822271,
			"0.0": 16.8374212018,
			"0.001": 19.9341000506,
			"0.002": 11.5168135512,
			"0.003": 5.15907088177,
			"0.004": 5.80883564012,
			"0.005": 5.06639657018,
			"0.006": 3.9871142293,
			"0.007": 3.71508777711,
			"0.008": 4.46052993253,
			"0.009": 5.06116704607,
			"0.01": 7.04660950048,
			"0.011": 13.555903502,
			"0.012": 9.46997562823,
			"0.013": 0.222080867514,
			"0.014": 0.0,
			"0.015": 0.0,
			"0.016": 0.0,
			"0.017": 0.0,
			"0.018": 0.0,
			"0.019": 0.0,
			"0.02": 0.0,
			"0.021": 0.0,
			"0.022": 0.0,
			"0.023": 0.0,
			"0.024": 0.0,
			"0.025": 0.0
		}
	}
}
