{
	 "smiles": "CCCC(C)(C)CC", 
	 "Tm": 147.15, 
	 "num_atms": 26, 
	 "gaussian": { 
		 "optdone": 1, 
		 "sigma_profile": "yes", 
		 "theory": "DFT", 
		 "functional": "B3LYP", 
		 "basiset": "6-31G**", 
		 "properties": { 
			 "R2extent": 1401.4742, 
			 "electric_dipole_moment_norm": 0.0557571520076, 
			 "electric_quadrupole_moment_norm": 0.531676922576, 
			 "total_energy": -315.723648023, 
			 "HOMO_LUMO_gap": 0.37201, 
			 "cosmo_polarized_energy": -0.71, 
			 "cosmo_cavitation_energy": 25.37, 
			 "cosmo_dispersion_energy": -18.09, 
			 "cosmo_repulsion_energy": 1.5, 
			 "cosmo_total_nonelectrostatic_energy": 8.77, 
			 "SMD_solvation_energy": 4.35 
		},
		"coords": [
			{
				"x": -0.6324766209,
				"y": -3.1727356468,
				"z": 1.3571524651,
				"element": "C" 
			},
			{
				"x": -0.707505308,
				"y": -1.8153443736,
				"z": 0.6469827141,
				"element": "C" 
			},
			{
				"x": 0.6756955864,
				"y": -1.3278862047,
				"z": 0.1903219984,
				"element": "C" 
			},
			{
				"x": 0.8175039205,
				"y": 0.1013671717,
				"z": -0.405383193,
				"element": "C" 
			},
			{
				"x": 0.5180995435,
				"y": 1.1689668934,
				"z": 0.6649616884,
				"element": "C" 
			},
			{
				"x": 2.2938987738,
				"y": 0.2530650798,
				"z": -0.8355245278,
				"element": "C" 
			},
			{
				"x": -0.0578030129,
				"y": 0.3117809746,
				"z": -1.677981283,
				"element": "C" 
			},
			{
				"x": -1.5307283721,
				"y": 0.7064494369,
				"z": -1.4930819039,
				"element": "C" 
			},
			{
				"x": -0.1984574417,
				"y": -3.9384918229,
				"z": 0.7037646387,
				"element": "H" 
			},
			{
				"x": -0.008083199,
				"y": -3.1159386253,
				"z": 2.2562162692,
				"element": "H" 
			},
			{
				"x": -1.6249599874,
				"y": -3.5205288208,
				"z": 1.6623461944,
				"element": "H" 
			},
			{
				"x": -1.3773929993,
				"y": -1.9050191178,
				"z": -0.215783492,
				"element": "H" 
			},
			{
				"x": -1.1677676709,
				"y": -1.0826640856,
				"z": 1.3215638607,
				"element": "H" 
			},
			{
				"x": 1.0615773413,
				"y": -2.0436760406,
				"z": -0.550178311,
				"element": "H" 
			},
			{
				"x": 1.3601573774,
				"y": -1.3938984591,
				"z": 1.0490055471,
				"element": "H" 
			},
			{
				"x": -0.4995237839,
				"y": 1.0944146851,
				"z": 1.0587987715,
				"element": "H" 
			},
			{
				"x": 0.6401378483,
				"y": 2.1790005419,
				"z": 0.2565579527,
				"element": "H" 
			},
			{
				"x": 1.2084088607,
				"y": 1.0691994033,
				"z": 1.510522417,
				"element": "H" 
			},
			{
				"x": 2.9741540424,
				"y": 0.0511401426,
				"z": -0.0002895277,
				"element": "H" 
			},
			{
				"x": 2.5438170812,
				"y": -0.4435453589,
				"z": -1.6444164036,
				"element": "H" 
			},
			{
				"x": 2.4975464457,
				"y": 1.2680697276,
				"z": -1.1948308907,
				"element": "H" 
			},
			{
				"x": 0.4156780167,
				"y": 1.0983087715,
				"z": -2.2810151276,
				"element": "H" 
			},
			{
				"x": 0.0010005112,
				"y": -0.6002981672,
				"z": -2.2879021585,
				"element": "H" 
			},
			{
				"x": -2.0179110681,
				"y": 0.7961750529,
				"z": -2.4702013045,
				"element": "H" 
			},
			{
				"x": -1.6275893081,
				"y": 1.6755721557,
				"z": -0.9937519479,
				"element": "H" 
			},
			{
				"x": -2.0990765767,
				"y": -0.0222833136,
				"z": -0.9103544458,
				"element": "H" 
			}
		],
		 "valence_orbital": [ 
			{
				"type": "occ",
				"energy": -0.33068,
				"method": "rhf"
			},
			{
				"type": "occ",
				"energy": -0.32245,
				"method": "rhf"
			},
			{
				"type": "occ",
				"energy": -0.30509,
				"method": "rhf"
			},
			{
				"type": "occ",
				"energy": -0.29923,
				"method": "rhf"
			},
			{
				"type": "occ",
				"energy": -0.29414,
				"method": "rhf"
			},
			{
				"type": "unocc",
				"energy": 0.07787,
				"method": "rhf"
			},
			{
				"type": "unocc",
				"energy": 0.1084,
				"method": "rhf"
			},
			{
				"type": "unocc",
				"energy": 0.11536,
				"method": "rhf"
			},
			{
				"type": "unocc",
				"energy": 0.12264,
				"method": "rhf"
			},
			{
				"type": "unocc",
				"energy": 0.13674,
				"method": "rhf"
			}
		],
		"cosmo_sigma_profile": { 
			"-0.025": 0.0,
			"-0.024": 0.0,
			"-0.023": 0.0,
			"-0.022": 0.0,
			"-0.021": 0.0,
			"-0.02": 0.0,
			"-0.019": 0.0,
			"-0.018": 0.0,
			"-0.017": 0.0,
			"-0.016": 0.0,
			"-0.015": 0.0,
			"-0.014": 0.0,
			"-0.013": 0.0,
			"-0.012": 0.0,
			"-0.011": 0.0,
			"-0.01": 0.0,
			"-0.009": 0.0,
			"-0.008": 0.0,
			"-0.007": 0.0,
			"-0.006": 0.0,
			"-0.005": 0.0,
			"-0.004": 0.0,
			"-0.003": 2.75787715204,
			"-0.002": 26.7079213909,
			"-0.001": 46.8606117394,
			"0.0": 44.4407108151,
			"0.001": 39.6360348188,
			"0.002": 30.4887231591,
			"0.003": 2.70916598471,
			"0.004": 0.0,
			"0.005": 0.0,
			"0.006": 0.0,
			"0.007": 0.0,
			"0.008": 0.0,
			"0.009": 0.0,
			"0.01": 0.0,
			"0.011": 0.0,
			"0.012": 0.0,
			"0.013": 0.0,
			"0.014": 0.0,
			"0.015": 0.0,
			"0.016": 0.0,
			"0.017": 0.0,
			"0.018": 0.0,
			"0.019": 0.0,
			"0.02": 0.0,
			"0.021": 0.0,
			"0.022": 0.0,
			"0.023": 0.0,
			"0.024": 0.0,
			"0.025": 0.0
		}
	}
}
