{
	 "smiles": "CC1=C(C)C=C2OC(CC2=C1)C(O)=O", 
	 "Tm": 423.15, 
	 "num_atms": 26, 
	 "gaussian": { 
		 "optdone": 1, 
		 "sigma_profile": "yes", 
		 "theory": "DFT", 
		 "functional": "B3LYP", 
		 "basiset": "6-31G**", 
		 "properties": { 
			 "R2extent": 3466.3476, 
			 "electric_dipole_moment_norm": 4.43929439213, 
			 "electric_quadrupole_moment_norm": 23.4415246074, 
			 "total_energy": -652.080007205, 
			 "HOMO_LUMO_gap": 0.20492, 
			 "cosmo_polarized_energy": -18.83, 
			 "cosmo_cavitation_energy": 29.41, 
			 "cosmo_dispersion_energy": -21.31, 
			 "cosmo_repulsion_energy": 1.68, 
			 "cosmo_total_nonelectrostatic_energy": 9.78, 
			 "SMD_solvation_energy": 5.99 
		},
		"coords": [
			{
				"x": 0.9915683646,
				"y": -2.9064409081,
				"z": 1.2283579574,
				"element": "C" 
			},
			{
				"x": 0.7542820026,
				"y": -1.4300423089,
				"z": 1.0109493075,
				"element": "C" 
			},
			{
				"x": 0.7999707287,
				"y": -0.5241413479,
				"z": 2.0965645181,
				"element": "C" 
			},
			{
				"x": 1.0868714384,
				"y": -1.0199439502,
				"z": 3.4945065623,
				"element": "C" 
			},
			{
				"x": 0.571472848,
				"y": 0.8433667438,
				"z": 1.8850644792,
				"element": "C" 
			},
			{
				"x": 0.301188081,
				"y": 1.2789498807,
				"z": 0.5960519994,
				"element": "C" 
			},
			{
				"x": 0.0802268744,
				"y": 2.5900314772,
				"z": 0.2476490089,
				"element": "O" 
			},
			{
				"x": -0.3625758631,
				"y": 2.6090676365,
				"z": -1.1107044253,
				"element": "C" 
			},
			{
				"x": -0.0167163088,
				"y": 1.2149464556,
				"z": -1.7329728442,
				"element": "C" 
			},
			{
				"x": 0.2548927429,
				"y": 0.4069926063,
				"z": -0.4854782571,
				"element": "C" 
			},
			{
				"x": 0.4824672059,
				"y": -0.9478582696,
				"z": -0.278656099,
				"element": "C" 
			},
			{
				"x": -1.8741569507,
				"y": 2.8824030143,
				"z": -1.1560610407,
				"element": "C" 
			},
			{
				"x": -2.3512403654,
				"y": 3.1444971826,
				"z": -2.4064851073,
				"element": "O" 
			},
			{
				"x": -2.61023809,
				"y": 2.8547300907,
				"z": -0.2092452167,
				"element": "O" 
			},
			{
				"x": 1.9813698109,
				"y": -3.1035402264,
				"z": 1.6585737788,
				"element": "H" 
			},
			{
				"x": 0.9254523703,
				"y": -3.4574483059,
				"z": 0.2862594115,
				"element": "H" 
			},
			{
				"x": 0.2575105903,
				"y": -3.3415168889,
				"z": 1.9178991598,
				"element": "H" 
			},
			{
				"x": 0.3381352102,
				"y": -1.7498474672,
				"z": 3.8254623726,
				"element": "H" 
			},
			{
				"x": 2.0612207872,
				"y": -1.5200387246,
				"z": 3.5543540815,
				"element": "H" 
			},
			{
				"x": 1.0894433419,
				"y": -0.1965265272,
				"z": 4.2130117535,
				"element": "H" 
			},
			{
				"x": 0.5944844026,
				"y": 1.5483623703,
				"z": 2.709457439,
				"element": "H" 
			},
			{
				"x": 0.1597289672,
				"y": 3.4298200894,
				"z": -1.6169237642,
				"element": "H" 
			},
			{
				"x": -0.8395761545,
				"y": 0.821098592,
				"z": -2.3390822736,
				"element": "H" 
			},
			{
				"x": 0.8674798077,
				"y": 1.2790540543,
				"z": -2.3791513963,
				"element": "H" 
			},
			{
				"x": 0.4504898877,
				"y": -1.6448998683,
				"z": -1.112777309,
				"element": "H" 
			},
			{
				"x": -1.6307517299,
				"y": 3.1590245994,
				"z": -3.0534240961,
				"element": "H" 
			}
		],
		 "valence_orbital": [ 
			{
				"type": "occ",
				"energy": -0.32168,
				"method": "rhf"
			},
			{
				"type": "occ",
				"energy": -0.31103,
				"method": "rhf"
			},
			{
				"type": "occ",
				"energy": -0.27442,
				"method": "rhf"
			},
			{
				"type": "occ",
				"energy": -0.24271,
				"method": "rhf"
			},
			{
				"type": "occ",
				"energy": -0.2095,
				"method": "rhf"
			},
			{
				"type": "unocc",
				"energy": -0.00458,
				"method": "rhf"
			},
			{
				"type": "unocc",
				"energy": 0.0031,
				"method": "rhf"
			},
			{
				"type": "unocc",
				"energy": 0.01555,
				"method": "rhf"
			},
			{
				"type": "unocc",
				"energy": 0.04507,
				"method": "rhf"
			},
			{
				"type": "unocc",
				"energy": 0.08697,
				"method": "rhf"
			}
		],
		"cosmo_sigma_profile": { 
			"-0.025": 0.0,
			"-0.024": 0.0,
			"-0.023": 0.0,
			"-0.022": 0.0,
			"-0.021": 0.0,
			"-0.02": 0.161873760348,
			"-0.019": 1.24095953799,
			"-0.018": 1.32187979313,
			"-0.017": 0.854593570793,
			"-0.016": 1.46178082188,
			"-0.015": 0.83754789636,
			"-0.014": 1.22382343338,
			"-0.013": 0.854790453091,
			"-0.012": 1.61280440397,
			"-0.011": 1.35660517888,
			"-0.01": 1.77600100198,
			"-0.009": 1.92614259556,
			"-0.008": 2.75911793921,
			"-0.007": 4.48113508237,
			"-0.006": 8.28854258112,
			"-0.005": 10.8969436154,
			"-0.004": 18.8655396805,
			"-0.003": 21.4879822448,
			"-0.002": 16.9632154616,
			"-0.001": 17.0230641748,
			"0.0": 19.0988422834,
			"0.001": 14.9664456448,
			"0.002": 10.2240430383,
			"0.003": 8.33068047831,
			"0.004": 10.1729027435,
			"0.005": 11.438609018,
			"0.006": 9.11329820992,
			"0.007": 3.58187955971,
			"0.008": 4.04053212294,
			"0.009": 5.45139746297,
			"0.01": 7.35802171582,
			"0.011": 6.8494486522,
			"0.012": 4.77356038658,
			"0.013": 1.32329975663,
			"0.014": 0.0,
			"0.015": 0.0,
			"0.016": 0.0,
			"0.017": 0.0,
			"0.018": 0.0,
			"0.019": 0.0,
			"0.02": 0.0,
			"0.021": 0.0,
			"0.022": 0.0,
			"0.023": 0.0,
			"0.024": 0.0,
			"0.025": 0.0
		}
	}
}
