{
	 "smiles": "OC(=O)C1=C2C=NNC2=CC=C1", 
	 "Tm": 559.15, 
	 "num_atms": 18, 
	 "gaussian": { 
		 "optdone": 1, 
		 "sigma_profile": "yes", 
		 "theory": "DFT", 
		 "functional": "B3LYP", 
		 "basiset": "6-31G**", 
		 "properties": { 
			 "R2extent": 2003.0252, 
			 "electric_dipole_moment_norm": 3.47059253731, 
			 "electric_quadrupole_moment_norm": 16.3794628874, 
			 "total_energy": -568.420479496, 
			 "HOMO_LUMO_gap": 0.16885, 
			 "cosmo_polarized_energy": -14.43, 
			 "cosmo_cavitation_energy": 22.75, 
			 "cosmo_dispersion_energy": -17.27, 
			 "cosmo_repulsion_energy": 1.36, 
			 "cosmo_total_nonelectrostatic_energy": 6.83, 
			 "SMD_solvation_energy": 4.11 
		},
		"coords": [
			{
				"x": 0.727410287,
				"y": -0.1597270756,
				"z": 3.1294816115,
				"element": "O" 
			},
			{
				"x": 1.2371468014,
				"y": -0.5881311667,
				"z": 1.9465014933,
				"element": "C" 
			},
			{
				"x": 2.2907762702,
				"y": -1.1935754037,
				"z": 1.8850707771,
				"element": "O" 
			},
			{
				"x": 0.3867708467,
				"y": -0.2423788294,
				"z": 0.7826456231,
				"element": "C" 
			},
			{
				"x": 0.7943232188,
				"y": -0.6267928646,
				"z": -0.5172584517,
				"element": "C" 
			},
			{
				"x": 1.9012996374,
				"y": -1.3228898737,
				"z": -1.0929746014,
				"element": "C" 
			},
			{
				"x": 1.7837733298,
				"y": -1.4108511528,
				"z": -2.4069702266,
				"element": "N" 
			},
			{
				"x": 0.6193693163,
				"y": -0.7872283439,
				"z": -2.7235110732,
				"element": "N" 
			},
			{
				"x": -0.0256598257,
				"y": -0.2917247193,
				"z": -1.624865192,
				"element": "C" 
			},
			{
				"x": -1.2324541392,
				"y": 0.4100264064,
				"z": -1.4838435029,
				"element": "C" 
			},
			{
				"x": -1.6072665067,
				"y": 0.7741861564,
				"z": -0.19863073,
				"element": "C" 
			},
			{
				"x": -0.8115425468,
				"y": 0.4542243007,
				"z": 0.9210057979,
				"element": "C" 
			},
			{
				"x": 1.365186817,
				"y": -0.4423091609,
				"z": 3.8050537155,
				"element": "H" 
			},
			{
				"x": 2.7531666828,
				"y": -1.7464170244,
				"z": -0.5839304973,
				"element": "H" 
			},
			{
				"x": 0.3376895175,
				"y": -0.7410548806,
				"z": -3.6893802379,
				"element": "H" 
			},
			{
				"x": -1.8493406377,
				"y": 0.6592154153,
				"z": -2.3420035656,
				"element": "H" 
			},
			{
				"x": -2.5344088673,
				"y": 1.3183864498,
				"z": -0.0473553312,
				"element": "H" 
			},
			{
				"x": -1.1355402015,
				"y": 0.7546417671,
				"z": 1.9104643915,
				"element": "H" 
			}
		],
		 "valence_orbital": [ 
			{
				"type": "occ",
				"energy": -0.29545,
				"method": "rhf"
			},
			{
				"type": "occ",
				"energy": -0.29451,
				"method": "rhf"
			},
			{
				"type": "occ",
				"energy": -0.27675,
				"method": "rhf"
			},
			{
				"type": "occ",
				"energy": -0.24999,
				"method": "rhf"
			},
			{
				"type": "occ",
				"energy": -0.23153,
				"method": "rhf"
			},
			{
				"type": "unocc",
				"energy": -0.06268,
				"method": "rhf"
			},
			{
				"type": "unocc",
				"energy": -0.00014,
				"method": "rhf"
			},
			{
				"type": "unocc",
				"energy": 0.04329,
				"method": "rhf"
			},
			{
				"type": "unocc",
				"energy": 0.06703,
				"method": "rhf"
			},
			{
				"type": "unocc",
				"energy": 0.07817,
				"method": "rhf"
			}
		],
		"cosmo_sigma_profile": { 
			"-0.025": 0.0,
			"-0.024": 0.0,
			"-0.023": 0.0,
			"-0.022": 0.0,
			"-0.021": 0.0,
			"-0.02": 0.0,
			"-0.019": 0.0181572857962,
			"-0.018": 0.607084392302,
			"-0.017": 1.72237249799,
			"-0.016": 2.44749157865,
			"-0.015": 2.31480052177,
			"-0.014": 1.59668831181,
			"-0.013": 1.30869867805,
			"-0.012": 2.14819392072,
			"-0.011": 2.21840990444,
			"-0.01": 1.93515991015,
			"-0.009": 1.72789010134,
			"-0.008": 2.43243907678,
			"-0.007": 5.28894464579,
			"-0.006": 7.88671802414,
			"-0.005": 8.25032101609,
			"-0.004": 7.16738654433,
			"-0.003": 6.95413172378,
			"-0.002": 8.47936370433,
			"-0.001": 9.53417397332,
			"0.0": 9.41708970356,
			"0.001": 13.9077804905,
			"0.002": 21.6133950412,
			"0.003": 19.7810520387,
			"0.004": 8.65805375306,
			"0.005": 5.2238280462,
			"0.006": 4.9772397905,
			"0.007": 5.06508699451,
			"0.008": 2.5464798812,
			"0.009": 3.54738757937,
			"0.01": 3.92159176844,
			"0.011": 3.71768017001,
			"0.012": 3.62974714389,
			"0.013": 1.07551230133,
			"0.014": 0.941346610052,
			"0.015": 0.825394007855,
			"0.016": 0.0,
			"0.017": 0.0,
			"0.018": 0.0,
			"0.019": 0.0,
			"0.02": 0.0,
			"0.021": 0.0,
			"0.022": 0.0,
			"0.023": 0.0,
			"0.024": 0.0,
			"0.025": 0.0
		}
	}
}
