{
	 "smiles": "NC(=O)C1=CC2=C(C=C1)C(N)=NC=N2", 
	 "Tm": 633.15, 
	 "num_atms": 22, 
	 "gaussian": { 
		 "optdone": 1, 
		 "sigma_profile": "yes", 
		 "theory": "DFT", 
		 "functional": "B3LYP", 
		 "basiset": "6-31G**", 
		 "properties": { 
			 "R2extent": 3331.8232, 
			 "electric_dipole_moment_norm": 1.73092362916, 
			 "electric_quadrupole_moment_norm": 29.0359450373, 
			 "total_energy": -642.046663628, 
			 "HOMO_LUMO_gap": 0.16476, 
			 "cosmo_polarized_energy": -20.76, 
			 "cosmo_cavitation_energy": 26.62, 
			 "cosmo_dispersion_energy": -20.17, 
			 "cosmo_repulsion_energy": 1.57, 
			 "cosmo_total_nonelectrostatic_energy": 8.02, 
			 "SMD_solvation_energy": 2.28 
		},
		"coords": [
			{
				"x": -1.4495030229,
				"y": -3.5170084413,
				"z": -0.3792914656,
				"element": "N" 
			},
			{
				"x": -0.1109379223,
				"y": -3.4101686698,
				"z": -0.1068319287,
				"element": "C" 
			},
			{
				"x": 0.6187765702,
				"y": -4.3917062545,
				"z": -0.0345676527,
				"element": "O" 
			},
			{
				"x": 0.427078427,
				"y": -2.0152364468,
				"z": 0.0791892927,
				"element": "C" 
			},
			{
				"x": -0.2399957514,
				"y": -0.8787483282,
				"z": -0.3410530769,
				"element": "C" 
			},
			{
				"x": 0.3202480703,
				"y": 0.4080777057,
				"z": -0.1443420219,
				"element": "C" 
			},
			{
				"x": 1.594070236,
				"y": 0.513959109,
				"z": 0.4805438363,
				"element": "C" 
			},
			{
				"x": 2.2628313759,
				"y": -0.6604398317,
				"z": 0.9030626476,
				"element": "C" 
			},
			{
				"x": 1.6964421952,
				"y": -1.8987531829,
				"z": 0.7001444708,
				"element": "C" 
			},
			{
				"x": 2.0994719193,
				"y": 1.8560242564,
				"z": 0.6227389853,
				"element": "C" 
			},
			{
				"x": 3.3090648516,
				"y": 2.1051942015,
				"z": 1.2034572035,
				"element": "N" 
			},
			{
				"x": 1.3964030492,
				"y": 2.9094366532,
				"z": 0.2236768841,
				"element": "N" 
			},
			{
				"x": 0.1885719287,
				"y": 2.6656928718,
				"z": -0.335904095,
				"element": "C" 
			},
			{
				"x": -0.3875544792,
				"y": 1.5043686555,
				"z": -0.5582944198,
				"element": "N" 
			},
			{
				"x": -2.0874526467,
				"y": -2.7676680775,
				"z": -0.1641961987,
				"element": "H" 
			},
			{
				"x": -1.8213543944,
				"y": -4.4550747871,
				"z": -0.4041335747,
				"element": "H" 
			},
			{
				"x": -1.194845892,
				"y": -0.9188188938,
				"z": -0.8548742831,
				"element": "H" 
			},
			{
				"x": 3.2237534669,
				"y": -0.596080514,
				"z": 1.4059082941,
				"element": "H" 
			},
			{
				"x": 2.1976985336,
				"y": -2.8099684687,
				"z": 1.0060122833,
				"element": "H" 
			},
			{
				"x": 4.0117611208,
				"y": 1.3851302934,
				"z": 1.234981512,
				"element": "H" 
			},
			{
				"x": 3.6351052965,
				"y": 3.0576405593,
				"z": 1.1264126048,
				"element": "H" 
			},
			{
				"x": -0.3620329322,
				"y": 3.5528475903,
				"z": -0.6458392973,
				"element": "H" 
			}
		],
		 "valence_orbital": [ 
			{
				"type": "occ",
				"energy": -0.27529,
				"method": "rhf"
			},
			{
				"type": "occ",
				"energy": -0.27091,
				"method": "rhf"
			},
			{
				"type": "occ",
				"energy": -0.25679,
				"method": "rhf"
			},
			{
				"type": "occ",
				"energy": -0.24983,
				"method": "rhf"
			},
			{
				"type": "occ",
				"energy": -0.22944,
				"method": "rhf"
			},
			{
				"type": "unocc",
				"energy": -0.06468,
				"method": "rhf"
			},
			{
				"type": "unocc",
				"energy": -0.03455,
				"method": "rhf"
			},
			{
				"type": "unocc",
				"energy": 0.0161,
				"method": "rhf"
			},
			{
				"type": "unocc",
				"energy": 0.03491,
				"method": "rhf"
			},
			{
				"type": "unocc",
				"energy": 0.06063,
				"method": "rhf"
			}
		],
		"cosmo_sigma_profile": { 
			"-0.025": 0.0,
			"-0.024": 0.0,
			"-0.023": 0.0,
			"-0.022": 0.0,
			"-0.021": 0.0,
			"-0.02": 0.0,
			"-0.019": 0.0,
			"-0.018": 0.0,
			"-0.017": 0.0,
			"-0.016": 0.0,
			"-0.015": 1.40311664757,
			"-0.014": 4.18690498131,
			"-0.013": 5.06675252466,
			"-0.012": 5.28495290386,
			"-0.011": 5.10010021617,
			"-0.01": 5.23836648237,
			"-0.009": 3.75774564003,
			"-0.008": 4.39398870638,
			"-0.007": 5.91083936032,
			"-0.006": 7.18327775287,
			"-0.005": 8.03365804956,
			"-0.004": 7.06942046226,
			"-0.003": 7.58360042814,
			"-0.002": 9.24055654914,
			"-0.001": 14.198563669,
			"0.0": 15.7773475571,
			"0.001": 17.3515505593,
			"0.002": 18.7969944041,
			"0.003": 10.4542900869,
			"0.004": 7.75930464037,
			"0.005": 6.94982418567,
			"0.006": 4.50493875612,
			"0.007": 4.99972150163,
			"0.008": 6.1236567127,
			"0.009": 3.5097362173,
			"0.01": 2.58895308595,
			"0.011": 3.14814129127,
			"0.012": 4.59660856531,
			"0.013": 6.54685500215,
			"0.014": 4.00673277307,
			"0.015": 1.82836457736,
			"0.016": 0.634346319633,
			"0.017": 0.0374598394644,
			"0.018": 0.0,
			"0.019": 0.0,
			"0.02": 0.0,
			"0.021": 0.0,
			"0.022": 0.0,
			"0.023": 0.0,
			"0.024": 0.0,
			"0.025": 0.0
		}
	}
}
