{
	 "smiles": "OC(=O)CSC1=CC=NC=C1", 
	 "Tm": 526.15, 
	 "num_atms": 18, 
	 "gaussian": { 
		 "optdone": 1, 
		 "sigma_profile": "yes", 
		 "theory": "DFT", 
		 "functional": "B3LYP", 
		 "basiset": "6-31G**", 
		 "properties": { 
			 "R2extent": 2701.6004, 
			 "electric_dipole_moment_norm": 3.17828151208, 
			 "electric_quadrupole_moment_norm": 9.69985199836, 
			 "total_energy": -874.351465611, 
			 "HOMO_LUMO_gap": 0.20437, 
			 "cosmo_polarized_energy": -12.73, 
			 "cosmo_cavitation_energy": 24.21, 
			 "cosmo_dispersion_energy": -18.23, 
			 "cosmo_repulsion_energy": 1.42, 
			 "cosmo_total_nonelectrostatic_energy": 7.39, 
			 "SMD_solvation_energy": 3.69 
		},
		"coords": [
			{
				"x": -0.4185624832,
				"y": -4.047521616,
				"z": 1.5024893999,
				"element": "O" 
			},
			{
				"x": 0.3122234951,
				"y": -3.3956940539,
				"z": 0.5752390498,
				"element": "C" 
			},
			{
				"x": 0.1169287032,
				"y": -3.4994348708,
				"z": -0.6168147648,
				"element": "O" 
			},
			{
				"x": 1.3788555841,
				"y": -2.5300062147,
				"z": 1.2144267303,
				"element": "C" 
			},
			{
				"x": 0.7469179863,
				"y": -0.8911135429,
				"z": 1.7589483317,
				"element": "S" 
			},
			{
				"x": 0.9170984319,
				"y": 0.1374308277,
				"z": 0.3110851408,
				"element": "C" 
			},
			{
				"x": 0.9593107831,
				"y": 1.5225433249,
				"z": 0.5238210607,
				"element": "C" 
			},
			{
				"x": 1.0679687997,
				"y": 2.3638162934,
				"z": -0.5808294201,
				"element": "C" 
			},
			{
				"x": 1.1484736411,
				"y": 1.935149695,
				"z": -1.8475442427,
				"element": "N" 
			},
			{
				"x": 1.1061662883,
				"y": 0.6108653676,
				"z": -2.0316122267,
				"element": "C" 
			},
			{
				"x": 0.9828815155,
				"y": -0.3297529216,
				"z": -1.0062837373,
				"element": "C" 
			},
			{
				"x": -1.102610657,
				"y": -4.5427064306,
				"z": 1.0205153533,
				"element": "H" 
			},
			{
				"x": 2.2033747261,
				"y": -2.3884416443,
				"z": 0.5149949552,
				"element": "H" 
			},
			{
				"x": 1.747213023,
				"y": -3.0049530962,
				"z": 2.1260108694,
				"element": "H" 
			},
			{
				"x": 0.9223004111,
				"y": 1.9379255626,
				"z": 1.5261902438,
				"element": "H" 
			},
			{
				"x": 1.1036973234,
				"y": 3.4421269161,
				"z": -0.4344461409,
				"element": "H" 
			},
			{
				"x": 1.164058087,
				"y": 0.268026711,
				"z": -3.0634979027,
				"element": "H" 
			},
			{
				"x": 0.9147043413,
				"y": -1.3849603072,
				"z": -1.2455926998,
				"element": "H" 
			}
		],
		 "valence_orbital": [ 
			{
				"type": "occ",
				"energy": -0.32101,
				"method": "rhf"
			},
			{
				"type": "occ",
				"energy": -0.29555,
				"method": "rhf"
			},
			{
				"type": "occ",
				"energy": -0.26435,
				"method": "rhf"
			},
			{
				"type": "occ",
				"energy": -0.25396,
				"method": "rhf"
			},
			{
				"type": "occ",
				"energy": -0.23734,
				"method": "rhf"
			},
			{
				"type": "unocc",
				"energy": -0.03297,
				"method": "rhf"
			},
			{
				"type": "unocc",
				"energy": -0.02313,
				"method": "rhf"
			},
			{
				"type": "unocc",
				"energy": -0.01304,
				"method": "rhf"
			},
			{
				"type": "unocc",
				"energy": 0.03019,
				"method": "rhf"
			},
			{
				"type": "unocc",
				"energy": 0.05954,
				"method": "rhf"
			}
		],
		"cosmo_sigma_profile": { 
			"-0.025": 0.0,
			"-0.024": 0.0,
			"-0.023": 0.0,
			"-0.022": 0.0,
			"-0.021": 0.0,
			"-0.02": 0.0,
			"-0.019": 0.53071191273,
			"-0.018": 0.959809411012,
			"-0.017": 1.41633845171,
			"-0.016": 0.327334384955,
			"-0.015": 0.462275427365,
			"-0.014": 0.480020541426,
			"-0.013": 0.677785396423,
			"-0.012": 1.05598662871,
			"-0.011": 0.789495493563,
			"-0.01": 0.979626274716,
			"-0.009": 2.18216344872,
			"-0.008": 5.16940445649,
			"-0.007": 8.95473263839,
			"-0.006": 13.9475017622,
			"-0.005": 11.5901425739,
			"-0.004": 10.0365028393,
			"-0.003": 9.5412652348,
			"-0.002": 9.11179813542,
			"-0.001": 9.40091645948,
			"0.0": 10.1230681659,
			"0.001": 13.9735021636,
			"0.002": 22.4183690222,
			"0.003": 13.1056301442,
			"0.004": 8.94269600919,
			"0.005": 7.05030450155,
			"0.006": 5.60720918168,
			"0.007": 5.29169015836,
			"0.008": 4.83747947756,
			"0.009": 3.20055364603,
			"0.01": 4.10005331787,
			"0.011": 4.42777222523,
			"0.012": 0.850723270161,
			"0.013": 1.37162829244,
			"0.014": 0.688273176067,
			"0.015": 0.889315802814,
			"0.016": 0.875968138046,
			"0.017": 0.382702699834,
			"0.018": 0.0,
			"0.019": 0.0,
			"0.02": 0.0,
			"0.021": 0.0,
			"0.022": 0.0,
			"0.023": 0.0,
			"0.024": 0.0,
			"0.025": 0.0
		}
	}
}
