{
	 "smiles": "ClC1=CC(=C(Cl)C=C1)S(=O)(=O)CC#N", 
	 "Tm": 388.15, 
	 "num_atms": 19, 
	 "gaussian": { 
		 "optdone": 1, 
		 "sigma_profile": "yes", 
		 "theory": "DFT", 
		 "functional": "B3LYP", 
		 "basiset": "6-31G**", 
		 "properties": { 
			 "R2extent": 4677.0285, 
			 "electric_dipole_moment_norm": 3.59282583769, 
			 "electric_quadrupole_moment_norm": 18.2789735511, 
			 "total_energy": -1831.52641294, 
			 "HOMO_LUMO_gap": 0.19516, 
			 "cosmo_polarized_energy": -17.77, 
			 "cosmo_cavitation_energy": 29.5, 
			 "cosmo_dispersion_energy": -21.27, 
			 "cosmo_repulsion_energy": 1.63, 
			 "cosmo_total_nonelectrostatic_energy": 9.86, 
			 "SMD_solvation_energy": 5.22 
		},
		"coords": [
			{
				"x": 1.8974860032,
				"y": 1.7760815315,
				"z": -1.280093465,
				"element": "Cl" 
			},
			{
				"x": 0.5789471239,
				"y": 0.8442510958,
				"z": -0.6070449828,
				"element": "C" 
			},
			{
				"x": 0.6125236008,
				"y": -0.5443163719,
				"z": -0.6791166312,
				"element": "C" 
			},
			{
				"x": -0.4388769971,
				"y": -1.294699785,
				"z": -0.1383831838,
				"element": "C" 
			},
			{
				"x": -1.5348618675,
				"y": -0.6491730219,
				"z": 0.4598813731,
				"element": "C" 
			},
			{
				"x": -2.9033106369,
				"y": -1.485811892,
				"z": 1.1340254843,
				"element": "Cl" 
			},
			{
				"x": -1.5463361579,
				"y": 0.7486719229,
				"z": 0.5178709587,
				"element": "C" 
			},
			{
				"x": -0.4979052353,
				"y": 1.4971984321,
				"z": -0.0072145495,
				"element": "C" 
			},
			{
				"x": -0.2546259108,
				"y": -3.0935870106,
				"z": -0.3291962152,
				"element": "S" 
			},
			{
				"x": -1.5587669332,
				"y": -3.73417978,
				"z": -0.4775691472,
				"element": "O" 
			},
			{
				"x": 0.8163239741,
				"y": -3.3045768853,
				"z": -1.3114364953,
				"element": "O" 
			},
			{
				"x": 0.5156796409,
				"y": -3.6605676736,
				"z": 1.2597453424,
				"element": "C" 
			},
			{
				"x": -0.2786840047,
				"y": -3.4784681584,
				"z": 2.4612555579,
				"element": "C" 
			},
			{
				"x": -0.8917208823,
				"y": -3.32878075,
				"z": 3.4349797892,
				"element": "N" 
			},
			{
				"x": 1.4341938589,
				"y": -1.0560936651,
				"z": -1.1655467145,
				"element": "H" 
			},
			{
				"x": -2.3922705641,
				"y": 1.2459891907,
				"z": 0.9787675289,
				"element": "H" 
			},
			{
				"x": -0.5199781278,
				"y": 2.579986536,
				"z": 0.0444566437,
				"element": "H" 
			},
			{
				"x": 1.474079552,
				"y": -3.1405180257,
				"z": 1.3376356498,
				"element": "H" 
			},
			{
				"x": 0.7058035639,
				"y": -4.7228056894,
				"z": 1.0737830564,
				"element": "H" 
			}
		],
		 "valence_orbital": [ 
			{
				"type": "occ",
				"energy": -0.33495,
				"method": "rhf"
			},
			{
				"type": "occ",
				"energy": -0.31817,
				"method": "rhf"
			},
			{
				"type": "occ",
				"energy": -0.31446,
				"method": "rhf"
			},
			{
				"type": "occ",
				"energy": -0.30635,
				"method": "rhf"
			},
			{
				"type": "occ",
				"energy": -0.26995,
				"method": "rhf"
			},
			{
				"type": "unocc",
				"energy": -0.07479,
				"method": "rhf"
			},
			{
				"type": "unocc",
				"energy": -0.05265,
				"method": "rhf"
			},
			{
				"type": "unocc",
				"energy": -0.02748,
				"method": "rhf"
			},
			{
				"type": "unocc",
				"energy": -0.00616,
				"method": "rhf"
			},
			{
				"type": "unocc",
				"energy": 0.01132,
				"method": "rhf"
			}
		],
		"cosmo_sigma_profile": { 
			"-0.025": 0.0,
			"-0.024": 0.0,
			"-0.023": 0.0,
			"-0.022": 0.0,
			"-0.021": 0.0,
			"-0.02": 0.0,
			"-0.019": 0.0,
			"-0.018": 0.0,
			"-0.017": 0.0,
			"-0.016": 0.0,
			"-0.015": 0.0,
			"-0.014": 0.0413765277252,
			"-0.013": 2.39540449964,
			"-0.012": 5.19040611448,
			"-0.011": 4.65755148218,
			"-0.01": 3.56929074585,
			"-0.009": 7.45673357783,
			"-0.008": 8.5677779657,
			"-0.007": 7.55346400556,
			"-0.006": 7.26234024471,
			"-0.005": 6.52679233067,
			"-0.004": 9.01816664219,
			"-0.003": 11.5887076764,
			"-0.002": 17.6754782875,
			"-0.001": 24.370788218,
			"0.0": 18.3127888097,
			"0.001": 11.0967179629,
			"0.002": 13.5369954418,
			"0.003": 18.2401188586,
			"0.004": 13.2828357021,
			"0.005": 6.13292748445,
			"0.006": 7.04256116231,
			"0.007": 5.87465328684,
			"0.008": 7.02947542363,
			"0.009": 11.2689683612,
			"0.01": 10.5956984635,
			"0.011": 3.52508137789,
			"0.012": 1.12534284638,
			"0.013": 0.0,
			"0.014": 0.0,
			"0.015": 0.0,
			"0.016": 0.0,
			"0.017": 0.0,
			"0.018": 0.0,
			"0.019": 0.0,
			"0.02": 0.0,
			"0.021": 0.0,
			"0.022": 0.0,
			"0.023": 0.0,
			"0.024": 0.0,
			"0.0": 0.0
		}
	}
}
