{
	 "smiles": "CCC1=C(C(=O)C2=CC(Br)=C(O)C(Br)=C2)C2=C(O1)C=CC=C2", 
	 "Tm": 424.15, 
	 "num_atms": 34, 
	 "gaussian": { 
		 "optdone": 1, 
		 "sigma_profile": "yes", 
		 "theory": "DFT", 
		 "functional": "B3LYP", 
		 "basiset": "6-31G**", 
		 "properties": { 
			 "R2extent": 15166.2632, 
			 "electric_dipole_moment_norm": 3.68970754532, 
			 "electric_quadrupole_moment_norm": 11.8194764656, 
			 "total_energy": -6023.52185677, 
			 "HOMO_LUMO_gap": 0.15881, 
			 "cosmo_polarized_energy": -12.7, 
			 "cosmo_cavitation_energy": 43.04, 
			 "cosmo_dispersion_energy": -30.95, 
			 "cosmo_repulsion_energy": 2.38, 
			 "cosmo_total_nonelectrostatic_energy": 14.48, 
			 "SMD_solvation_energy": 5.92 
		},
		"coords": [
			{
				"x": 1.1876144063,
				"y": -0.4027905422,
				"z": -2.9618758131,
				"element": "C" 
			},
			{
				"x": 0.4308276971,
				"y": 0.3626799366,
				"z": -1.8597095488,
				"element": "C" 
			},
			{
				"x": 0.0135520634,
				"y": -0.5208842501,
				"z": -0.7283879655,
				"element": "C" 
			},
			{
				"x": 0.3275459121,
				"y": -0.5895676569,
				"z": 0.6100855445,
				"element": "C" 
			},
			{
				"x": 1.2004961789,
				"y": 0.2727939336,
				"z": 1.4378087665,
				"element": "C" 
			},
			{
				"x": 1.8798706789,
				"y": -0.2262272205,
				"z": 2.3313397529,
				"element": "O" 
			},
			{
				"x": 1.2271479975,
				"y": 1.7585702142,
				"z": 1.2381280427,
				"element": "C" 
			},
			{
				"x": 2.3430047019,
				"y": 2.4660948858,
				"z": 1.7120064995,
				"element": "C" 
			},
			{
				"x": 2.4012103058,
				"y": 3.846154693,
				"z": 1.6100481641,
				"element": "C" 
			},
			{
				"x": 3.9375214882,
				"y": 4.7807853403,
				"z": 2.2288525116,
				"element": "Br" 
			},
			{
				"x": 1.3330961865,
				"y": 4.5807706075,
				"z": 1.0575026829,
				"element": "C" 
			},
			{
				"x": 1.42573825,
				"y": 5.9190556605,
				"z": 0.9833219887,
				"element": "O" 
			},
			{
				"x": 0.2144915105,
				"y": 3.8543951276,
				"z": 0.6136669833,
				"element": "C" 
			},
			{
				"x": -1.2609683573,
				"y": 4.8397935202,
				"z": -0.1145777738,
				"element": "Br" 
			},
			{
				"x": 0.1512888856,
				"y": 2.4699470546,
				"z": 0.6936178062,
				"element": "C" 
			},
			{
				"x": -0.2967140582,
				"y": -1.8056924392,
				"z": 1.1082403225,
				"element": "C" 
			},
			{
				"x": -0.9820652467,
				"y": -2.3518909108,
				"z": 0.0154328279,
				"element": "C" 
			},
			{
				"x": -0.7801862014,
				"y": -1.5751776044,
				"z": -1.1011403269,
				"element": "O" 
			},
			{
				"x": -1.7433558735,
				"y": -3.5116637325,
				"z": 0.076620434,
				"element": "C" 
			},
			{
				"x": -1.7971695977,
				"y": -4.1456720818,
				"z": 1.3181023984,
				"element": "C" 
			},
			{
				"x": -1.1124181184,
				"y": -3.6273180554,
				"z": 2.433001892,
				"element": "C" 
			},
			{
				"x": -0.3572172845,
				"y": -2.4600077606,
				"z": 2.3461885401,
				"element": "C" 
			},
			{
				"x": 1.4581886221,
				"y": 0.2777104259,
				"z": -3.7744350193,
				"element": "H" 
			},
			{
				"x": 0.5714468967,
				"y": -1.204842492,
				"z": -3.3754574816,
				"element": "H" 
			},
			{
				"x": 2.1064712551,
				"y": -0.8475401646,
				"z": -2.5682445082,
				"element": "H" 
			},
			{
				"x": 1.0534291102,
				"y": 1.1684974586,
				"z": -1.467527086,
				"element": "H" 
			},
			{
				"x": -0.4625558735,
				"y": 0.8316806455,
				"z": -2.2935724202,
				"element": "H" 
			},
			{
				"x": 3.1579388491,
				"y": 1.9130362651,
				"z": 2.1633576923,
				"element": "H" 
			},
			{
				"x": 0.6083414854,
				"y": 6.2668764427,
				"z": 0.5885505737,
				"element": "H" 
			},
			{
				"x": -0.7379513095,
				"y": 1.9513214958,
				"z": 0.3571795882,
				"element": "H" 
			},
			{
				"x": -2.2603628499,
				"y": -3.8974473689,
				"z": -0.7950822921,
				"element": "H" 
			},
			{
				"x": -2.3748653463,
				"y": -5.0589534066,
				"z": 1.4234462271,
				"element": "H" 
			},
			{
				"x": -1.1708832682,
				"y": -4.1544960778,
				"z": 3.3805717658,
				"element": "H" 
			},
			{
				"x": 0.1854909037,
				"y": -2.069491943,
				"z": 3.1991392308,
				"element": "H" 
			}
		],
		 "valence_orbital": [ 
			{
				"type": "occ",
				"energy": -0.2626,
				"method": "rhf"
			},
			{
				"type": "occ",
				"energy": -0.25475,
				"method": "rhf"
			},
			{
				"type": "occ",
				"energy": -0.24451,
				"method": "rhf"
			},
			{
				"type": "occ",
				"energy": -0.24223,
				"method": "rhf"
			},
			{
				"type": "occ",
				"energy": -0.22682,
				"method": "rhf"
			},
			{
				"type": "unocc",
				"energy": -0.06801,
				"method": "rhf"
			},
			{
				"type": "unocc",
				"energy": -0.03617,
				"method": "rhf"
			},
			{
				"type": "unocc",
				"energy": -0.03013,
				"method": "rhf"
			},
			{
				"type": "unocc",
				"energy": -0.02524,
				"method": "rhf"
			},
			{
				"type": "unocc",
				"energy": 0.00624,
				"method": "rhf"
			}
		],
		"cosmo_sigma_profile": { 
			"-0.025": 0.0,
			"-0.024": 0.0,
			"-0.023": 0.0,
			"-0.022": 0.0,
			"-0.021": 0.0,
			"-0.02": 0.0,
			"-0.019": 0.0,
			"-0.018": 0.0,
			"-0.017": 0.0,
			"-0.016": 0.168313696177,
			"-0.015": 0.734665856213,
			"-0.014": 0.376173209439,
			"-0.013": 0.572880352538,
			"-0.012": 0.969203360665,
			"-0.011": 1.1664215713,
			"-0.01": 0.799992696611,
			"-0.009": 0.756607257474,
			"-0.008": 2.17114792257,
			"-0.007": 4.66937347681,
			"-0.006": 12.1035015006,
			"-0.005": 18.9033034849,
			"-0.004": 27.1581546481,
			"-0.003": 28.3431380766,
			"-0.002": 31.1293602182,
			"-0.001": 33.2609707783,
			"0.0": 37.6961420002,
			"0.001": 33.297522808,
			"0.002": 23.6474164954,
			"0.003": 26.534680331,
			"0.004": 24.0678086519,
			"0.005": 15.1404409244,
			"0.006": 6.38481239404,
			"0.007": 5.44960814552,
			"0.008": 3.59544092081,
			"0.009": 3.66656335197,
			"0.01": 3.17142290821,
			"0.011": 2.65518846079,
			"0.012": 3.19676659385,
			"0.013": 0.110834978261,
			"0.014": 0.0,
			"0.015": 0.0,
			"0.016": 0.0,
			"0.017": 0.0,
			"0.018": 0.0,
			"0.019": 0.0,
			"0.02": 0.0,
			"0.021": 0.0,
			"0.022": 0.0,
			"0.023": 0.0,
			"0.024": 0.0,
			"0.025": 0.0
		}
	}
}
