{
	 "smiles": "CC(=C)C(=O)OCCOC(=O)C1=CC(N)=CC(N)=C1", 
	 "Tm": 364.15, 
	 "num_atms": 35, 
	 "gaussian": { 
		 "optdone": 1, 
		 "sigma_profile": "yes", 
		 "theory": "DFT", 
		 "functional": "B3LYP", 
		 "basiset": "6-31G**", 
		 "properties": { 
			 "R2extent": 8226.882, 
			 "electric_dipole_moment_norm": 4.53811195102, 
			 "electric_quadrupole_moment_norm": 14.3518284034, 
			 "total_energy": -915.440156907, 
			 "HOMO_LUMO_gap": 0.15571, 
			 "cosmo_polarized_energy": -21.24, 
			 "cosmo_cavitation_energy": 40.75, 
			 "cosmo_dispersion_energy": -27.84, 
			 "cosmo_repulsion_energy": 2.19, 
			 "cosmo_total_nonelectrostatic_energy": 15.1, 
			 "SMD_solvation_energy": 9.37 
		},
		"coords": [
			{
				"x": -0.3867282134,
				"y": 3.1208705098,
				"z": 0.9377505,
				"element": "C" 
			},
			{
				"x": 1.0201835031,
				"y": 3.4555153141,
				"z": 0.5158641301,
				"element": "C" 
			},
			{
				"x": 1.4041900024,
				"y": 4.6593925341,
				"z": 0.0739633289,
				"element": "C" 
			},
			{
				"x": 2.0713035736,
				"y": 2.3908288886,
				"z": 0.5817433001,
				"element": "C" 
			},
			{
				"x": 3.2351695519,
				"y": 2.52634319,
				"z": 0.2572832206,
				"element": "O" 
			},
			{
				"x": 1.5641037674,
				"y": 1.226309792,
				"z": 1.0615862481,
				"element": "O" 
			},
			{
				"x": 2.4852263366,
				"y": 0.1237973318,
				"z": 1.160551172,
				"element": "C" 
			},
			{
				"x": 2.6169902548,
				"y": -0.628458758,
				"z": -0.1474277451,
				"element": "C" 
			},
			{
				"x": 1.3380198786,
				"y": -1.2073578821,
				"z": -0.454089767,
				"element": "O" 
			},
			{
				"x": 1.3084201554,
				"y": -2.0192976079,
				"z": -1.5408694913,
				"element": "C" 
			},
			{
				"x": 2.299317469,
				"y": -2.2640427222,
				"z": -2.2020709464,
				"element": "O" 
			},
			{
				"x": -0.0533849294,
				"y": -2.5612429529,
				"z": -1.8136333824,
				"element": "C" 
			},
			{
				"x": -1.154170157,
				"y": -2.2074935271,
				"z": -1.027357772,
				"element": "C" 
			},
			{
				"x": -2.4156561,
				"y": -2.7433893391,
				"z": -1.3300403052,
				"element": "C" 
			},
			{
				"x": -3.5408782603,
				"y": -2.3583268018,
				"z": -0.5955939799,
				"element": "N" 
			},
			{
				"x": -2.5474763672,
				"y": -3.6234464747,
				"z": -2.4138278943,
				"element": "C" 
			},
			{
				"x": -1.4410922995,
				"y": -3.9765273435,
				"z": -3.2009410676,
				"element": "C" 
			},
			{
				"x": -1.5814696579,
				"y": -4.8987292643,
				"z": -4.2398433208,
				"element": "N" 
			},
			{
				"x": -0.1833886374,
				"y": -3.4372898284,
				"z": -2.8940006717,
				"element": "C" 
			},
			{
				"x": -0.4192580931,
				"y": 2.7907901714,
				"z": 1.9813677264,
				"element": "H" 
			},
			{
				"x": -1.0391298451,
				"y": 3.9907211896,
				"z": 0.8270933598,
				"element": "H" 
			},
			{
				"x": -0.7936025263,
				"y": 2.3002050287,
				"z": 0.3378969971,
				"element": "H" 
			},
			{
				"x": 2.4339803313,
				"y": 4.8348171466,
				"z": -0.2177513458,
				"element": "H" 
			},
			{
				"x": 0.7022639606,
				"y": 5.4839548218,
				"z": -0.0040080048,
				"element": "H" 
			},
			{
				"x": 2.0711138904,
				"y": -0.5236175772,
				"z": 1.9365176235,
				"element": "H" 
			},
			{
				"x": 3.4679963537,
				"y": 0.4938972365,
				"z": 1.4632738228,
				"element": "H" 
			},
			{
				"x": 2.9303509508,
				"y": 0.0363076334,
				"z": -0.9567203101,
				"element": "H" 
			},
			{
				"x": 3.3693410652,
				"y": -1.418744768,
				"z": -0.0519951202,
				"element": "H" 
			},
			{
				"x": -1.0324848185,
				"y": -1.518893493,
				"z": -0.1993172645,
				"element": "H" 
			},
			{
				"x": -3.3411445323,
				"y": -2.0231319023,
				"z": 0.3368500797,
				"element": "H" 
			},
			{
				"x": -4.3012046462,
				"y": -3.024503584,
				"z": -0.5970354872,
				"element": "H" 
			},
			{
				"x": -3.5252992911,
				"y": -4.0396288786,
				"z": -2.6483800287,
				"element": "H" 
			},
			{
				"x": -0.8576071259,
				"y": -4.8566183828,
				"z": -4.9439186636,
				"element": "H" 
			},
			{
				"x": -2.5035121292,
				"y": -4.9479127005,
				"z": -4.6508826492,
				"element": "H" 
			},
			{
				"x": 0.6956165851,
				"y": -3.689197,
				"z": -3.477336291,
				"element": "H" 
			}
		],
		 "valence_orbital": [ 
			{
				"type": "occ",
				"energy": -0.27259,
				"method": "rhf"
			},
			{
				"type": "occ",
				"energy": -0.26659,
				"method": "rhf"
			},
			{
				"type": "occ",
				"energy": -0.26584,
				"method": "rhf"
			},
			{
				"type": "occ",
				"energy": -0.21709,
				"method": "rhf"
			},
			{
				"type": "occ",
				"energy": -0.19526,
				"method": "rhf"
			},
			{
				"type": "unocc",
				"energy": -0.03955,
				"method": "rhf"
			},
			{
				"type": "unocc",
				"energy": -0.03289,
				"method": "rhf"
			},
			{
				"type": "unocc",
				"energy": 0.02542,
				"method": "rhf"
			},
			{
				"type": "unocc",
				"energy": 0.06925,
				"method": "rhf"
			},
			{
				"type": "unocc",
				"energy": 0.08076,
				"method": "rhf"
			}
		],
		"cosmo_sigma_profile": { 
			"-0.025": 0.0,
			"-0.024": 0.0,
			"-0.023": 0.0,
			"-0.022": 0.0,
			"-0.021": 0.0,
			"-0.02": 0.0,
			"-0.019": 0.0,
			"-0.018": 0.0,
			"-0.017": 0.0,
			"-0.016": 0.0,
			"-0.015": 0.0,
			"-0.014": 0.0,
			"-0.013": 0.456274323008,
			"-0.012": 5.01330536296,
			"-0.011": 5.20728492346,
			"-0.01": 6.62130916322,
			"-0.009": 6.07116942165,
			"-0.008": 5.62043079448,
			"-0.007": 11.4505112134,
			"-0.006": 17.8889777691,
			"-0.005": 17.6182286678,
			"-0.004": 20.799887411,
			"-0.003": 20.0879470265,
			"-0.002": 21.6199112589,
			"-0.001": 20.7160034696,
			"0.0": 21.4924682968,
			"0.001": 15.8808618616,
			"0.002": 15.4194427381,
			"0.003": 17.1565551457,
			"0.004": 17.5023659603,
			"0.005": 16.955847072,
			"0.006": 16.3372054687,
			"0.007": 7.22743563742,
			"0.008": 5.86962049963,
			"0.009": 4.63487117367,
			"0.01": 4.69096379493,
			"0.011": 6.78356119897,
			"0.012": 9.5509899938,
			"0.013": 1.55957971317,
			"0.014": 1.36620221289,
			"0.015": 0.400350416323,
			"0.016": 0.0,
			"0.017": 0.0,
			"0.018": 0.0,
			"0.019": 0.0,
			"0.02": 0.0,
			"0.021": 0.0,
			"0.022": 0.0,
			"0.023": 0.0,
			"0.024": 0.0,
			"0.025": 0.0
		}
	}
}
