{
	 "smiles": "CC1=NN(C(N)=C1)C1=NC=CC=C1", 
	 "Tm": 376.15, 
	 "num_atms": 23, 
	 "gaussian": { 
		 "optdone": 1, 
		 "sigma_profile": "yes", 
		 "theory": "DFT", 
		 "functional": "B3LYP", 
		 "basiset": "6-31G**", 
		 "properties": { 
			 "R2extent": 2709.5372, 
			 "electric_dipole_moment_norm": 4.09648597093, 
			 "electric_quadrupole_moment_norm": 9.6194581443, 
			 "total_energy": -567.966216473, 
			 "HOMO_LUMO_gap": 0.17457, 
			 "cosmo_polarized_energy": -17.77, 
			 "cosmo_cavitation_energy": 27.05, 
			 "cosmo_dispersion_energy": -20.1, 
			 "cosmo_repulsion_energy": 1.61, 
			 "cosmo_total_nonelectrostatic_energy": 8.56, 
			 "SMD_solvation_energy": 2.78 
		},
		"coords": [
			{
				"x": -2.0993118788,
				"y": -2.0814978103,
				"z": -3.4519738573,
				"element": "C" 
			},
			{
				"x": -0.9698963523,
				"y": -1.5665842244,
				"z": -2.6133585658,
				"element": "C" 
			},
			{
				"x": -1.2209378728,
				"y": -0.9154467505,
				"z": -1.4887671044,
				"element": "N" 
			},
			{
				"x": 0.0180756307,
				"y": -0.5736903398,
				"z": -0.9930007927,
				"element": "N" 
			},
			{
				"x": 1.0310920417,
				"y": -1.0383931935,
				"z": -1.8025883312,
				"element": "C" 
			},
			{
				"x": 2.382705483,
				"y": -0.8055351311,
				"z": -1.5342936271,
				"element": "N" 
			},
			{
				"x": 0.4265473813,
				"y": -1.6817217011,
				"z": -2.8617724577,
				"element": "C" 
			},
			{
				"x": 0.1164637294,
				"y": 0.1530504224,
				"z": 0.2189575844,
				"element": "C" 
			},
			{
				"x": -0.7745712134,
				"y": -0.1498770417,
				"z": 1.1650448768,
				"element": "N" 
			},
			{
				"x": -0.7164581739,
				"y": 0.5368155624,
				"z": 2.3098162073,
				"element": "C" 
			},
			{
				"x": 0.2314103373,
				"y": 1.5249042684,
				"z": 2.5789402455,
				"element": "C" 
			},
			{
				"x": 1.1573254961,
				"y": 1.8277368874,
				"z": 1.5806838349,
				"element": "C" 
			},
			{
				"x": 1.1000657939,
				"y": 1.1437933527,
				"z": 0.369402897,
				"element": "C" 
			},
			{
				"x": -2.0398812699,
				"y": -3.1688338408,
				"z": -3.5764635602,
				"element": "H" 
			},
			{
				"x": -3.0516407213,
				"y": -1.8390557083,
				"z": -2.9757512823,
				"element": "H" 
			},
			{
				"x": -2.0874791772,
				"y": -1.6377234664,
				"z": -4.4540416954,
				"element": "H" 
			},
			{
				"x": 2.9778170848,
				"y": -1.3963299767,
				"z": -2.1016922171,
				"element": "H" 
			},
			{
				"x": 2.6266156821,
				"y": -0.906071917,
				"z": -0.5545674523,
				"element": "H" 
			},
			{
				"x": 0.9201992119,
				"y": -2.1771444601,
				"z": -3.6854609917,
				"element": "H" 
			},
			{
				"x": -1.4642351212,
				"y": 0.2737592199,
				"z": 3.0561420278,
				"element": "H" 
			},
			{
				"x": 0.2366674573,
				"y": 2.0400377585,
				"z": 3.5338172933,
				"element": "H" 
			},
			{
				"x": 1.9041332676,
				"y": 2.6019995506,
				"z": 1.7314082069,
				"element": "H" 
			},
			{
				"x": 1.7777931836,
				"y": 1.3737085393,
				"z": -0.4440812388,
				"element": "H" 
			}
		],
		 "valence_orbital": [ 
			{
				"type": "occ",
				"energy": -0.27763,
				"method": "rhf"
			},
			{
				"type": "occ",
				"energy": -0.27251,
				"method": "rhf"
			},
			{
				"type": "occ",
				"energy": -0.25534,
				"method": "rhf"
			},
			{
				"type": "occ",
				"energy": -0.22322,
				"method": "rhf"
			},
			{
				"type": "occ",
				"energy": -0.2033,
				"method": "rhf"
			},
			{
				"type": "unocc",
				"energy": -0.02873,
				"method": "rhf"
			},
			{
				"type": "unocc",
				"energy": -0.01855,
				"method": "rhf"
			},
			{
				"type": "unocc",
				"energy": 0.05011,
				"method": "rhf"
			},
			{
				"type": "unocc",
				"energy": 0.07411,
				"method": "rhf"
			},
			{
				"type": "unocc",
				"energy": 0.08819,
				"method": "rhf"
			}
		],
		"cosmo_sigma_profile": { 
			"-0.025": 0.0,
			"-0.024": 0.0,
			"-0.023": 0.0,
			"-0.022": 0.0,
			"-0.021": 0.0,
			"-0.02": 0.0,
			"-0.019": 0.0,
			"-0.018": 0.0,
			"-0.017": 0.0,
			"-0.016": 0.0,
			"-0.015": 0.0,
			"-0.014": 0.194290780542,
			"-0.013": 1.735289579,
			"-0.012": 3.27971105874,
			"-0.011": 2.91679557857,
			"-0.01": 2.62514709987,
			"-0.009": 2.68740126428,
			"-0.008": 3.03658564254,
			"-0.007": 7.88073562027,
			"-0.006": 12.5351097323,
			"-0.005": 12.007177312,
			"-0.004": 13.7230741763,
			"-0.003": 13.1362018088,
			"-0.002": 16.3251693935,
			"-0.001": 16.2612635329,
			"0.0": 17.1869269001,
			"0.001": 15.0398400314,
			"0.002": 16.8149828613,
			"0.003": 10.0011312617,
			"0.004": 6.86194484145,
			"0.005": 8.33501900849,
			"0.006": 6.9571599413,
			"0.007": 3.74350857881,
			"0.008": 2.6029191259,
			"0.009": 3.06324126219,
			"0.01": 2.35973443869,
			"0.011": 1.94596270687,
			"0.012": 1.75301102873,
			"0.013": 2.53515992224,
			"0.014": 1.25155114561,
			"0.015": 1.36709844973,
			"0.016": 1.63825999046,
			"0.017": 1.36289120377,
			"0.018": 1.16511271553,
			"0.019": 1.315734389,
			"0.02": 0.370172165106,
			"0.021": 0.0,
			"0.022": 0.0,
			"0.023": 0.0,
			"0.024": 0.0,
			"0.025": 0.0
		}
	}
}
