{
	 "smiles": "NC1=C(C=CC2=C1C(=O)C1=C(C=CC=C1)C2=O)C(O)=O", 
	 "Tm": 569.15, 
	 "num_atms": 29, 
	 "gaussian": { 
		 "optdone": 1, 
		 "sigma_profile": "yes", 
		 "theory": "DFT", 
		 "functional": "B3LYP", 
		 "basiset": "6-31G**", 
		 "properties": { 
			 "R2extent": 6138.1894, 
			 "electric_dipole_moment_norm": 2.84713931517, 
			 "electric_quadrupole_moment_norm": 20.5663102055, 
			 "total_energy": -932.717622807, 
			 "HOMO_LUMO_gap": 0.11243, 
			 "cosmo_polarized_energy": -13.71, 
			 "cosmo_cavitation_energy": 33.3, 
			 "cosmo_dispersion_energy": -25.33, 
			 "cosmo_repulsion_energy": 1.85, 
			 "cosmo_total_nonelectrostatic_energy": 9.82, 
			 "SMD_solvation_energy": 6.99 
		},
		"coords": [
			{
				"x": 2.3070082468,
				"y": -0.0906939997,
				"z": -0.849490769,
				"element": "N" 
			},
			{
				"x": 1.5214911641,
				"y": -0.3638520206,
				"z": 0.2078674958,
				"element": "C" 
			},
			{
				"x": 2.042245927,
				"y": -0.4858971134,
				"z": 1.542647534,
				"element": "C" 
			},
			{
				"x": 1.1766083688,
				"y": -0.7709294675,
				"z": 2.6019432803,
				"element": "C" 
			},
			{
				"x": -0.1882053287,
				"y": -0.9438780529,
				"z": 2.4146742072,
				"element": "C" 
			},
			{
				"x": -0.7200767343,
				"y": -0.8314318282,
				"z": 1.1322171046,
				"element": "C" 
			},
			{
				"x": 0.1012339754,
				"y": -0.5447150545,
				"z": 0.0175498608,
				"element": "C" 
			},
			{
				"x": -0.4965119316,
				"y": -0.4333904553,
				"z": -1.3232851158,
				"element": "C" 
			},
			{
				"x": 0.168183993,
				"y": -0.1836811669,
				"z": -2.3424914452,
				"element": "O" 
			},
			{
				"x": -1.970288512,
				"y": -0.6291841794,
				"z": -1.46905861,
				"element": "C" 
			},
			{
				"x": -2.7893881098,
				"y": -0.9141823118,
				"z": -0.3633913603,
				"element": "C" 
			},
			{
				"x": -4.1673975907,
				"y": -1.0918453232,
				"z": -0.5361437425,
				"element": "C" 
			},
			{
				"x": -4.728664244,
				"y": -0.9862910193,
				"z": -1.8052935404,
				"element": "C" 
			},
			{
				"x": -3.9145763225,
				"y": -0.702384145,
				"z": -2.9087073345,
				"element": "C" 
			},
			{
				"x": -2.5433850987,
				"y": -0.5246940969,
				"z": -2.7425841476,
				"element": "C" 
			},
			{
				"x": -2.2012088539,
				"y": -1.0288469228,
				"z": 0.993189736,
				"element": "C" 
			},
			{
				"x": -2.8962308481,
				"y": -1.2765602398,
				"z": 1.9726560343,
				"element": "O" 
			},
			{
				"x": 3.4659221643,
				"y": -0.3345469625,
				"z": 1.9324727298,
				"element": "C" 
			},
			{
				"x": 4.3243853401,
				"y": -0.0549406414,
				"z": 0.905777513,
				"element": "O" 
			},
			{
				"x": 3.8878183244,
				"y": -0.4418405398,
				"z": 3.0674260837,
				"element": "O" 
			},
			{
				"x": 3.2970902894,
				"y": 0.0351447425,
				"z": -0.7169285735,
				"element": "H" 
			},
			{
				"x": 1.8502990352,
				"y": -0.0232916064,
				"z": -1.7544486318,
				"element": "H" 
			},
			{
				"x": 1.6154451629,
				"y": -0.8534935548,
				"z": 3.5903638646,
				"element": "H" 
			},
			{
				"x": -0.8546254788,
				"y": -1.1645916265,
				"z": 3.2392795898,
				"element": "H" 
			},
			{
				"x": -4.7710911496,
				"y": -1.3106914523,
				"z": 0.3381040516,
				"element": "H" 
			},
			{
				"x": -5.7974864492,
				"y": -1.1240773931,
				"z": -1.939504469,
				"element": "H" 
			},
			{
				"x": -4.3531715504,
				"y": -0.6201207964,
				"z": -3.8989190995,
				"element": "H" 
			},
			{
				"x": -1.8948334138,
				"y": -0.3042437522,
				"z": -3.583004374,
				"element": "H" 
			},
			{
				"x": 5.2032096249,
				"y": 0.01325098,
				"z": 1.3147821276,
				"element": "H" 
			}
		],
		 "valence_orbital": [ 
			{
				"type": "occ",
				"energy": -0.27244,
				"method": "rhf"
			},
			{
				"type": "occ",
				"energy": -0.26927,
				"method": "rhf"
			},
			{
				"type": "occ",
				"energy": -0.26818,
				"method": "rhf"
			},
			{
				"type": "occ",
				"energy": -0.25982,
				"method": "rhf"
			},
			{
				"type": "occ",
				"energy": -0.22141,
				"method": "rhf"
			},
			{
				"type": "unocc",
				"energy": -0.10898,
				"method": "rhf"
			},
			{
				"type": "unocc",
				"energy": -0.05554,
				"method": "rhf"
			},
			{
				"type": "unocc",
				"energy": -0.0417,
				"method": "rhf"
			},
			{
				"type": "unocc",
				"energy": -0.00729,
				"method": "rhf"
			},
			{
				"type": "unocc",
				"energy": 0.01851,
				"method": "rhf"
			}
		],
		"cosmo_sigma_profile": { 
			"-0.025": 0.0,
			"-0.024": 0.0,
			"-0.023": 0.0,
			"-0.022": 0.0,
			"-0.021": 0.0,
			"-0.02": 0.0,
			"-0.019": 0.369296527861,
			"-0.018": 0.938252478565,
			"-0.017": 0.85604259432,
			"-0.016": 0.665261905327,
			"-0.015": 0.649096515941,
			"-0.014": 0.551641263256,
			"-0.013": 0.728135708638,
			"-0.012": 0.999870543363,
			"-0.011": 1.16876551998,
			"-0.01": 0.694910486692,
			"-0.009": 1.85328840773,
			"-0.008": 2.86101738948,
			"-0.007": 7.56311884568,
			"-0.006": 12.5426943874,
			"-0.005": 15.1900180833,
			"-0.004": 12.8104335886,
			"-0.003": 17.2957338719,
			"-0.002": 20.1501954014,
			"-0.001": 20.6574272655,
			"0.0": 29.6128360523,
			"0.001": 31.4774159394,
			"0.002": 27.9058362057,
			"0.003": 12.9689372875,
			"0.004": 7.20759451155,
			"0.005": 4.61023736286,
			"0.006": 3.83420161084,
			"0.007": 4.51373636303,
			"0.008": 4.82851510316,
			"0.009": 5.2617261544,
			"0.01": 6.40090145034,
			"0.011": 9.4987000265,
			"0.012": 2.4174163855,
			"0.013": 0.0,
			"0.014": 0.0,
			"0.015": 0.0,
			"0.016": 0.0,
			"0.017": 0.0,
			"0.018": 0.0,
			"0.019": 0.0,
			"0.02": 0.0,
			"0.021": 0.0,
			"0.022": 0.0,
			"0.023": 0.0,
			"0.024": 0.0,
			"0.025": 0.0
		}
	}
}
