{
	 "smiles": "CC(C)C1=C(C=C(C)C(=C1)[N+]([O-])=NC1=CC=CC=C1)[N+]([O-])=NC1=CC=CC=C1", 
	 "Tm": 400.15, 
	 "num_atms": 50, 
	 "gaussian": { 
		 "optdone": 1, 
		 "sigma_profile": "yes", 
		 "theory": "DFT", 
		 "functional": "B3LYP", 
		 "basiset": "6-31G**", 
		 "properties": { 
			 "R2extent": 13074.8082, 
			 "electric_dipole_moment_norm": 4.37267180108, 
			 "electric_quadrupole_moment_norm": 15.200774871, 
			 "total_energy": -1220.8808767, 
			 "HOMO_LUMO_gap": 0.14381, 
			 "cosmo_polarized_energy": -15.93, 
			 "cosmo_cavitation_energy": 53.83, 
			 "cosmo_dispersion_energy": -35.17, 
			 "cosmo_repulsion_energy": 2.67, 
			 "cosmo_total_nonelectrostatic_energy": 21.33, 
			 "SMD_solvation_energy": 9.27 
		},
		"coords": [
			{
				"x": 1.3924744025,
				"y": -2.750377469,
				"z": 0.7202644686,
				"element": "C" 
			},
			{
				"x": 0.0603124255,
				"y": -2.5203319567,
				"z": -0.0172158779,
				"element": "C" 
			},
			{
				"x": -1.0633211146,
				"y": -3.4035117858,
				"z": 0.5596149879,
				"element": "C" 
			},
			{
				"x": -0.3560940152,
				"y": -1.0523720957,
				"z": -0.0086028793,
				"element": "C" 
			},
			{
				"x": -0.7707192587,
				"y": -0.3311338093,
				"z": -1.1399540043,
				"element": "C" 
			},
			{
				"x": -1.1124852309,
				"y": 1.0217465213,
				"z": -1.0859715365,
				"element": "C" 
			},
			{
				"x": -1.0878976147,
				"y": 1.7359630994,
				"z": 0.1112178401,
				"element": "C" 
			},
			{
				"x": -1.5062506139,
				"y": 3.1837141434,
				"z": 0.1632498751,
				"element": "C" 
			},
			{
				"x": -0.6671526691,
				"y": 1.0180463355,
				"z": 1.2390493883,
				"element": "C" 
			},
			{
				"x": -0.3140255209,
				"y": -0.3242279294,
				"z": 1.187676942,
				"element": "C" 
			},
			{
				"x": -0.679242407,
				"y": 1.680583149,
				"z": 2.5609305089,
				"element": "N" 
			},
			{
				"x": -1.8043529888,
				"y": 2.1085923802,
				"z": 2.8987677104,
				"element": "O" 
			},
			{
				"x": 0.3255093844,
				"y": 1.7606399801,
				"z": 3.3482689962,
				"element": "N" 
			},
			{
				"x": 1.6184971217,
				"y": 1.4210922887,
				"z": 2.8902710859,
				"element": "C" 
			},
			{
				"x": 2.1943804299,
				"y": 1.9222679036,
				"z": 1.7104657467,
				"element": "C" 
			},
			{
				"x": 3.5157563686,
				"y": 1.6122613403,
				"z": 1.3934837711,
				"element": "C" 
			},
			{
				"x": 4.2797799201,
				"y": 0.8080222672,
				"z": 2.2419131133,
				"element": "C" 
			},
			{
				"x": 3.7177106992,
				"y": 0.32958966,
				"z": 3.4283318162,
				"element": "C" 
			},
			{
				"x": 2.4023731972,
				"y": 0.6451312846,
				"z": 3.759827588,
				"element": "C" 
			},
			{
				"x": -0.899231275,
				"y": -0.9940491248,
				"z": -2.4394649419,
				"element": "N" 
			},
			{
				"x": -1.4731992748,
				"y": -2.1179286554,
				"z": -2.4502359036,
				"element": "O" 
			},
			{
				"x": -0.4239484806,
				"y": -0.3312794082,
				"z": -3.4254502211,
				"element": "N" 
			},
			{
				"x": -0.5122427117,
				"y": -0.8132234564,
				"z": -4.7394799011,
				"element": "C" 
			},
			{
				"x": 0.0636448341,
				"y": 0.0731649797,
				"z": -5.6760748852,
				"element": "C" 
			},
			{
				"x": 0.0751027369,
				"y": -0.2269397987,
				"z": -7.0313120883,
				"element": "C" 
			},
			{
				"x": -0.4895227396,
				"y": -1.4237460511,
				"z": -7.4843593167,
				"element": "C" 
			},
			{
				"x": -1.0598809748,
				"y": -2.3078663315,
				"z": -6.5676589988,
				"element": "C" 
			},
			{
				"x": -1.0789490869,
				"y": -2.0218558981,
				"z": -5.2025723305,
				"element": "C" 
			},
			{
				"x": 1.7070640594,
				"y": -3.7913225361,
				"z": 0.5931878934,
				"element": "H" 
			},
			{
				"x": 2.186050201,
				"y": -2.1052232385,
				"z": 0.3308616889,
				"element": "H" 
			},
			{
				"x": 1.3112737319,
				"y": -2.5671966428,
				"z": 1.796920233,
				"element": "H" 
			},
			{
				"x": 0.2007424921,
				"y": -2.8220473725,
				"z": -1.0566793343,
				"element": "H" 
			},
			{
				"x": -1.2759067576,
				"y": -3.1446331318,
				"z": 1.6031661728,
				"element": "H" 
			},
			{
				"x": -1.980095153,
				"y": -3.2836723612,
				"z": -0.0220498216,
				"element": "H" 
			},
			{
				"x": -0.7700363301,
				"y": -4.4582641084,
				"z": 0.5282026929,
				"element": "H" 
			},
			{
				"x": -1.4082440317,
				"y": 1.5157418535,
				"z": -2.00403574,
				"element": "H" 
			},
			{
				"x": -2.4627933925,
				"y": 3.2885839659,
				"z": 0.6820625425,
				"element": "H" 
			},
			{
				"x": -0.7841797376,
				"y": 3.7977654025,
				"z": 0.7115378522,
				"element": "H" 
			},
			{
				"x": -1.602414445,
				"y": 3.5893012997,
				"z": -0.8465750869,
				"element": "H" 
			},
			{
				"x": 0.0095043941,
				"y": -0.8133122727,
				"z": 2.0986300325,
				"element": "H" 
			},
			{
				"x": 1.6173723634,
				"y": 2.5673510326,
				"z": 1.0568805813,
				"element": "H" 
			},
			{
				"x": 3.9514548049,
				"y": 2.0088495273,
				"z": 0.4809317957,
				"element": "H" 
			},
			{
				"x": 5.3086081333,
				"y": 0.5705094605,
				"z": 1.9890403356,
				"element": "H" 
			},
			{
				"x": 4.308336538,
				"y": -0.2829789893,
				"z": 4.103315394,
				"element": "H" 
			},
			{
				"x": 1.9589776334,
				"y": 0.2985148447,
				"z": 4.6878161422,
				"element": "H" 
			},
			{
				"x": 0.4966064238,
				"y": 0.9948829295,
				"z": -5.301427843,
				"element": "H" 
			},
			{
				"x": 0.5225129573,
				"y": 0.4685396222,
				"z": -7.7352255086,
				"element": "H" 
			},
			{
				"x": -0.483522297,
				"y": -1.6640139445,
				"z": -8.5435566559,
				"element": "H" 
			},
			{
				"x": -1.4989403115,
				"y": -3.238518636,
				"z": -6.9158120388,
				"element": "H" 
			},
			{
				"x": -1.5211968195,
				"y": -2.7126282678,
				"z": -4.5028722813,
				"element": "H" 
			}
		],
		 "valence_orbital": [ 
			{
				"type": "occ",
				"energy": -0.26029,
				"method": "rhf"
			},
			{
				"type": "occ",
				"energy": -0.25853,
				"method": "rhf"
			},
			{
				"type": "occ",
				"energy": -0.25406,
				"method": "rhf"
			},
			{
				"type": "occ",
				"energy": -0.23161,
				"method": "rhf"
			},
			{
				"type": "occ",
				"energy": -0.22811,
				"method": "rhf"
			},
			{
				"type": "unocc",
				"energy": -0.0843,
				"method": "rhf"
			},
			{
				"type": "unocc",
				"energy": -0.06488,
				"method": "rhf"
			},
			{
				"type": "unocc",
				"energy": -0.02652,
				"method": "rhf"
			},
			{
				"type": "unocc",
				"energy": -0.0201,
				"method": "rhf"
			},
			{
				"type": "unocc",
				"energy": -0.00843,
				"method": "rhf"
			}
		],
		"cosmo_sigma_profile": { 
			"-0.025": 0.0,
			"-0.024": 0.0,
			"-0.023": 0.0,
			"-0.022": 0.0,
			"-0.021": 0.0,
			"-0.02": 0.0,
			"-0.019": 0.0,
			"-0.018": 0.0,
			"-0.017": 0.0,
			"-0.016": 0.0,
			"-0.015": 0.0,
			"-0.014": 0.0,
			"-0.013": 0.0,
			"-0.012": 0.0,
			"-0.011": 0.0159082329046,
			"-0.01": 0.321984708371,
			"-0.009": 0.924433611382,
			"-0.008": 1.99213025262,
			"-0.007": 7.53962489215,
			"-0.006": 24.0719433506,
			"-0.005": 29.3421827812,
			"-0.004": 33.0267326222,
			"-0.003": 35.6941174808,
			"-0.002": 37.8290205698,
			"-0.001": 36.2834129969,
			"0.0": 35.0329058337,
			"0.001": 44.2706005224,
			"0.002": 29.7130416632,
			"0.003": 31.4740422765,
			"0.004": 29.9075611854,
			"0.005": 12.693500281,
			"0.006": 6.25651263643,
			"0.007": 5.62726489745,
			"0.008": 4.73442442187,
			"0.009": 6.12559199894,
			"0.01": 6.52792450237,
			"0.011": 3.99683147518,
			"0.012": 2.74622330875,
			"0.013": 2.28901654297,
			"0.014": 0.197085633167,
			"0.015": 0.0,
			"0.016": 0.0,
			"0.017": 0.0,
			"0.018": 0.0,
			"0.019": 0.0,
			"0.02": 0.0,
			"0.021": 0.0,
			"0.022": 0.0,
			"0.023": 0.0,
			"0.024": 0.0,
			"0.025": 0.0
		}
	}
}
