{
	 "smiles": "CC(N(C(=O)CCl)C1=NC=CC=C1)C1=CC=CO1", 
	 "Tm": 361.15, 
	 "num_atms": 31, 
	 "gaussian": { 
		 "optdone": 1, 
		 "sigma_profile": "yes", 
		 "theory": "DFT", 
		 "functional": "B3LYP", 
		 "basiset": "6-31G**", 
		 "properties": { 
			 "R2extent": 6501.4641, 
			 "electric_dipole_moment_norm": 6.56406184386, 
			 "electric_quadrupole_moment_norm": 24.3102162711, 
			 "total_energy": -1223.33730016, 
			 "HOMO_LUMO_gap": 0.18939, 
			 "cosmo_polarized_energy": -14.38, 
			 "cosmo_cavitation_energy": 36.4, 
			 "cosmo_dispersion_energy": -24.78, 
			 "cosmo_repulsion_energy": 1.95, 
			 "cosmo_total_nonelectrostatic_energy": 13.57, 
			 "SMD_solvation_energy": 6.44 
		},
		"coords": [
			{
				"x": 2.383480623,
				"y": 0.2909582768,
				"z": 1.8758585915,
				"element": "C" 
			},
			{
				"x": 0.858787138,
				"y": 0.1321773059,
				"z": 1.9468252169,
				"element": "C" 
			},
			{
				"x": 0.4454863069,
				"y": -1.3063115395,
				"z": 1.8065164679,
				"element": "N" 
			},
			{
				"x": 0.4570421445,
				"y": -2.036539028,
				"z": 2.9931535565,
				"element": "C" 
			},
			{
				"x": 0.7671964861,
				"y": -1.514760493,
				"z": 4.0511089679,
				"element": "O" 
			},
			{
				"x": 0.1104565312,
				"y": -3.5283153785,
				"z": 2.8995013168,
				"element": "C" 
			},
			{
				"x": 0.8261664113,
				"y": -4.4564689969,
				"z": 4.265650896,
				"element": "Cl" 
			},
			{
				"x": -0.0912986847,
				"y": -1.8030508933,
				"z": 0.5891784137,
				"element": "C" 
			},
			{
				"x": -1.2447513453,
				"y": -2.4766877277,
				"z": 0.6703613908,
				"element": "N" 
			},
			{
				"x": -1.7754940177,
				"y": -2.961868554,
				"z": -0.4586796203,
				"element": "C" 
			},
			{
				"x": -1.2128380125,
				"y": -2.7719425742,
				"z": -1.7185715062,
				"element": "C" 
			},
			{
				"x": -0.012361037,
				"y": -2.0640164276,
				"z": -1.7960039321,
				"element": "C" 
			},
			{
				"x": 0.5706614823,
				"y": -1.5824656614,
				"z": -0.6288162247,
				"element": "C" 
			},
			{
				"x": 0.1125863352,
				"y": 1.0466710644,
				"z": 1.0261346724,
				"element": "C" 
			},
			{
				"x": -1.1288777658,
				"y": 1.6106166963,
				"z": 1.09559503,
				"element": "C" 
			},
			{
				"x": -1.2810936568,
				"y": 2.4224159114,
				"z": -0.0746523193,
				"element": "C" 
			},
			{
				"x": -0.1176551072,
				"y": 2.3008008033,
				"z": -0.7702437672,
				"element": "C" 
			},
			{
				"x": 0.7423673845,
				"y": 1.4687716148,
				"z": -0.1175905763,
				"element": "O" 
			},
			{
				"x": 2.6613722766,
				"y": 1.3248589167,
				"z": 2.1006050536,
				"element": "H" 
			},
			{
				"x": 2.7798833484,
				"y": 0.0449549446,
				"z": 0.8877460323,
				"element": "H" 
			},
			{
				"x": 2.8475844635,
				"y": -0.3607169405,
				"z": 2.6188612194,
				"element": "H" 
			},
			{
				"x": 0.5525076419,
				"y": 0.3816371911,
				"z": 2.9655011508,
				"element": "H" 
			},
			{
				"x": -0.9698489074,
				"y": -3.6581675025,
				"z": 2.937473539,
				"element": "H" 
			},
			{
				"x": 0.4764235692,
				"y": -3.9755948059,
				"z": 1.9768138259,
				"element": "H" 
			},
			{
				"x": -2.7044498232,
				"y": -3.5172689852,
				"z": -0.3447769136,
				"element": "H" 
			},
			{
				"x": -1.6959528545,
				"y": -3.169436571,
				"z": -2.6047835768,
				"element": "H" 
			},
			{
				"x": 0.4752821288,
				"y": -1.9019306596,
				"z": -2.7527651936,
				"element": "H" 
			},
			{
				"x": 1.5124573155,
				"y": -1.0501832061,
				"z": -0.6562292783,
				"element": "H" 
			},
			{
				"x": -1.8485298953,
				"y": 1.4635838944,
				"z": 1.8884437206,
				"element": "H" 
			},
			{
				"x": -2.1372241606,
				"y": 3.0206844451,
				"z": -0.3512929405,
				"element": "H" 
			},
			{
				"x": 0.2471336813,
				"y": 2.7245948801,
				"z": -1.693023213,
				"element": "H" 
			}
		],
		 "valence_orbital": [ 
			{
				"type": "occ",
				"energy": -0.28413,
				"method": "rhf"
			},
			{
				"type": "occ",
				"energy": -0.27593,
				"method": "rhf"
			},
			{
				"type": "occ",
				"energy": -0.26315,
				"method": "rhf"
			},
			{
				"type": "occ",
				"energy": -0.24334,
				"method": "rhf"
			},
			{
				"type": "occ",
				"energy": -0.22912,
				"method": "rhf"
			},
			{
				"type": "unocc",
				"energy": -0.03973,
				"method": "rhf"
			},
			{
				"type": "unocc",
				"energy": -0.03188,
				"method": "rhf"
			},
			{
				"type": "unocc",
				"energy": 0.00087,
				"method": "rhf"
			},
			{
				"type": "unocc",
				"energy": 0.01442,
				"method": "rhf"
			},
			{
				"type": "unocc",
				"energy": 0.04968,
				"method": "rhf"
			}
		],
		"cosmo_sigma_profile": { 
			"-0.025": 0.0,
			"-0.024": 0.0,
			"-0.023": 0.0,
			"-0.022": 0.0,
			"-0.021": 0.0,
			"-0.02": 0.0,
			"-0.019": 0.0,
			"-0.018": 0.0,
			"-0.017": 0.0,
			"-0.016": 0.0,
			"-0.015": 0.0,
			"-0.014": 0.0,
			"-0.013": 0.0,
			"-0.012": 0.0,
			"-0.011": 0.0,
			"-0.01": 0.0,
			"-0.009": 1.36215592826,
			"-0.008": 5.20998950577,
			"-0.007": 15.3049437281,
			"-0.006": 17.5940422541,
			"-0.005": 20.1907783789,
			"-0.004": 19.4379324327,
			"-0.003": 20.5399061031,
			"-0.002": 20.3656319928,
			"-0.001": 21.4134210481,
			"0.0": 22.9336439397,
			"0.001": 18.8290303359,
			"0.002": 23.6684484796,
			"0.003": 20.0154041915,
			"0.004": 14.5639245201,
			"0.005": 15.4104634278,
			"0.006": 12.4575964332,
			"0.007": 5.15321101716,
			"0.008": 2.52545039487,
			"0.009": 2.28874370397,
			"0.01": 2.82009921531,
			"0.011": 3.21365876535,
			"0.012": 3.72657413964,
			"0.013": 2.81395264861,
			"0.014": 1.0671054325,
			"0.015": 0.0,
			"0.016": 0.0,
			"0.017": 0.0,
			"0.018": 0.0,
			"0.019": 0.0,
			"0.02": 0.0,
			"0.021": 0.0,
			"0.022": 0.0,
			"0.023": 0.0,
			"0.024": 0.0,
			"0.025": 0.0
		}
	}
}
