{
	 "smiles": "OC(=O)C1=C(Br)SC(Br)=C1", 
	 "Tm": 453.15, 
	 "num_atms": 12, 
	 "gaussian": { 
		 "optdone": 1, 
		 "sigma_profile": "yes", 
		 "theory": "DFT", 
		 "functional": "B3LYP", 
		 "basiset": "6-31G**", 
		 "properties": { 
			 "R2extent": 5250.2549, 
			 "electric_dipole_moment_norm": 3.7894946708, 
			 "electric_quadrupole_moment_norm": 9.25512995749, 
			 "total_energy": -5883.15613269, 
			 "HOMO_LUMO_gap": 0.18236, 
			 "cosmo_polarized_energy": -9.68, 
			 "cosmo_cavitation_energy": 23.27, 
			 "cosmo_dispersion_energy": -18.75, 
			 "cosmo_repulsion_energy": 1.47, 
			 "cosmo_total_nonelectrostatic_energy": 5.98, 
			 "SMD_solvation_energy": 2.75 
		},
		"coords": [
			{
				"x": -0.4459190412,
				"y": 2.3141774392,
				"z": -0.8439648371,
				"element": "O" 
			},
			{
				"x": 0.0399083428,
				"y": 1.0585792092,
				"z": -0.8193675543,
				"element": "C" 
			},
			{
				"x": 0.1344575894,
				"y": 0.4180118896,
				"z": -1.8413824164,
				"element": "O" 
			},
			{
				"x": 0.4618641383,
				"y": 0.4667251587,
				"z": 0.4943955485,
				"element": "C" 
			},
			{
				"x": 0.4494271872,
				"y": 0.9895061463,
				"z": 1.7683263063,
				"element": "C" 
			},
			{
				"x": -0.1199889463,
				"y": 2.6980377074,
				"z": 2.3561372488,
				"element": "Br" 
			},
			{
				"x": 1.0514957151,
				"y": -0.1163710631,
				"z": 2.9651762723,
				"element": "S" 
			},
			{
				"x": 1.3294080982,
				"y": -1.3158670191,
				"z": 1.7279604468,
				"element": "C" 
			},
			{
				"x": 2.0422226592,
				"y": -2.9947562993,
				"z": 2.1869957235,
				"element": "Br" 
			},
			{
				"x": 0.9771303577,
				"y": -0.8755387819,
				"z": 0.4911167123,
				"element": "C" 
			},
			{
				"x": -0.4682954877,
				"y": 2.7135001157,
				"z": 0.0412417445,
				"element": "H" 
			},
			{
				"x": 1.0623893873,
				"y": -1.4492045027,
				"z": -0.4217351952,
				"element": "H" 
			}
		],
		 "valence_orbital": [ 
			{
				"type": "occ",
				"energy": -0.31855,
				"method": "rhf"
			},
			{
				"type": "occ",
				"energy": -0.31434,
				"method": "rhf"
			},
			{
				"type": "occ",
				"energy": -0.2893,
				"method": "rhf"
			},
			{
				"type": "occ",
				"energy": -0.2849,
				"method": "rhf"
			},
			{
				"type": "occ",
				"energy": -0.25318,
				"method": "rhf"
			},
			{
				"type": "unocc",
				"energy": -0.07082,
				"method": "rhf"
			},
			{
				"type": "unocc",
				"energy": -0.04869,
				"method": "rhf"
			},
			{
				"type": "unocc",
				"energy": -0.02557,
				"method": "rhf"
			},
			{
				"type": "unocc",
				"energy": -0.01592,
				"method": "rhf"
			},
			{
				"type": "unocc",
				"energy": 0.00075,
				"method": "rhf"
			}
		],
		"cosmo_sigma_profile": { 
			"-0.025": 0.0,
			"-0.024": 0.0,
			"-0.023": 0.0,
			"-0.022": 0.0,
			"-0.021": 0.0,
			"-0.02": 0.0,
			"-0.019": 0.0,
			"-0.018": 0.0,
			"-0.017": 0.0,
			"-0.016": 0.0,
			"-0.015": 0.0,
			"-0.014": 0.0,
			"-0.013": 0.014619498093,
			"-0.012": 0.331409966659,
			"-0.011": 1.45733339366,
			"-0.01": 1.58177873387,
			"-0.009": 2.52803207074,
			"-0.008": 3.94139489653,
			"-0.007": 3.76796969297,
			"-0.006": 6.87308125511,
			"-0.005": 6.77300886704,
			"-0.004": 11.3890251954,
			"-0.003": 14.9670028832,
			"-0.002": 19.2448614796,
			"-0.001": 25.2517922934,
			"0.0": 23.4322465525,
			"0.001": 21.0737411147,
			"0.002": 13.8696646193,
			"0.003": 10.3929354781,
			"0.004": 3.21879274146,
			"0.005": 1.98826337428,
			"0.006": 2.60453929457,
			"0.007": 1.64519338914,
			"0.008": 2.86782964653,
			"0.009": 3.8353314546,
			"0.01": 4.86851979127,
			"0.011": 5.17615746023,
			"0.012": 3.21060140796,
			"0.013": 0.740192746921,
			"0.014": 0.0,
			"0.015": 0.0,
			"0.016": 0.0,
			"0.017": 0.0,
			"0.018": 0.0,
			"0.019": 0.0,
			"0.02": 0.0,
			"0.021": 0.0,
			"0.022": 0.0,
			"0.023": 0.0,
			"0.024": 0.0,
			"0.025": 0.0
		}
	}
}
