{
	 "smiles": "CC(=O)OOC(=O)C1=CC=CC=C1", 
	 "Tm": 310.15, 
	 "num_atms": 21, 
	 "gaussian": { 
		 "optdone": 1, 
		 "sigma_profile": "yes", 
		 "theory": "DFT", 
		 "functional": "B3LYP", 
		 "basiset": "6-31G**", 
		 "properties": { 
			 "R2extent": 3330.1206, 
			 "electric_dipole_moment_norm": 1.49913723855, 
			 "electric_quadrupole_moment_norm": 15.6202401963, 
			 "total_energy": -648.607119596, 
			 "HOMO_LUMO_gap": 0.21017, 
			 "cosmo_polarized_energy": -10.41, 
			 "cosmo_cavitation_energy": 26.92, 
			 "cosmo_dispersion_energy": -19.34, 
			 "cosmo_repulsion_energy": 1.55, 
			 "cosmo_total_nonelectrostatic_energy": 9.12, 
			 "SMD_solvation_energy": 6.45 
		},
		"coords": [
			{
				"x": 3.9501518647,
				"y": 2.1733712879,
				"z": 2.0329763707,
				"element": "C" 
			},
			{
				"x": 3.2492133665,
				"y": 1.4869559377,
				"z": 0.8859456659,
				"element": "C" 
			},
			{
				"x": 3.5970223448,
				"y": 0.5054058231,
				"z": 0.293133771,
				"element": "O" 
			},
			{
				"x": 2.0797819451,
				"y": 2.1865915232,
				"z": 0.6329442584,
				"element": "O" 
			},
			{
				"x": 1.3260900845,
				"y": 1.5713421052,
				"z": -0.4240598899,
				"element": "O" 
			},
			{
				"x": 0.5310908891,
				"y": 0.5503971307,
				"z": 0.0744260226,
				"element": "C" 
			},
			{
				"x": 0.5330240689,
				"y": 0.2072093278,
				"z": 1.2290409818,
				"element": "O" 
			},
			{
				"x": -0.2988012785,
				"y": -0.0263814524,
				"z": -1.01724733,
				"element": "C" 
			},
			{
				"x": -1.1687098358,
				"y": -1.0690742453,
				"z": -0.6672292785,
				"element": "C" 
			},
			{
				"x": -1.9765209899,
				"y": -1.6557980215,
				"z": -1.6372659574,
				"element": "C" 
			},
			{
				"x": -1.9191950071,
				"y": -1.2057303049,
				"z": -2.959050551,
				"element": "C" 
			},
			{
				"x": -1.0524429774,
				"y": -0.1678812994,
				"z": -3.3102672542,
				"element": "C" 
			},
			{
				"x": -0.2412053705,
				"y": 0.4247568872,
				"z": -2.3445462858,
				"element": "C" 
			},
			{
				"x": 5.0192688371,
				"y": 1.9731049398,
				"z": 1.956447414,
				"element": "H" 
			},
			{
				"x": 3.759956956,
				"y": 3.2480840316,
				"z": 2.0415430835,
				"element": "H" 
			},
			{
				"x": 3.5761328671,
				"y": 1.7494213584,
				"z": 2.9702572668,
				"element": "H" 
			},
			{
				"x": -1.1937114446,
				"y": -1.4014885544,
				"z": 0.3648320714,
				"element": "H" 
			},
			{
				"x": -2.6494432796,
				"y": -2.4631727156,
				"z": -1.3647532567,
				"element": "H" 
			},
			{
				"x": -2.5492683004,
				"y": -1.6643476855,
				"z": -3.7157695329,
				"element": "H" 
			},
			{
				"x": -1.007620029,
				"y": 0.1797210195,
				"z": -4.3379097964,
				"element": "H" 
			},
			{
				"x": 0.433585289,
				"y": 1.2281129069,
				"z": -2.6163477732,
				"element": "H" 
			}
		],
		 "valence_orbital": [ 
			{
				"type": "occ",
				"energy": -0.32368,
				"method": "rhf"
			},
			{
				"type": "occ",
				"energy": -0.2911,
				"method": "rhf"
			},
			{
				"type": "occ",
				"energy": -0.28491,
				"method": "rhf"
			},
			{
				"type": "occ",
				"energy": -0.26785,
				"method": "rhf"
			},
			{
				"type": "occ",
				"energy": -0.2656,
				"method": "rhf"
			},
			{
				"type": "unocc",
				"energy": -0.05543,
				"method": "rhf"
			},
			{
				"type": "unocc",
				"energy": -0.01467,
				"method": "rhf"
			},
			{
				"type": "unocc",
				"energy": -0.00992,
				"method": "rhf"
			},
			{
				"type": "unocc",
				"energy": 0.00049,
				"method": "rhf"
			},
			{
				"type": "unocc",
				"energy": 0.04968,
				"method": "rhf"
			}
		],
		"cosmo_sigma_profile": { 
			"-0.025": 0.0,
			"-0.024": 0.0,
			"-0.023": 0.0,
			"-0.022": 0.0,
			"-0.021": 0.0,
			"-0.02": 0.0,
			"-0.019": 0.0,
			"-0.018": 0.0,
			"-0.017": 0.0,
			"-0.016": 0.0,
			"-0.015": 0.0,
			"-0.014": 0.0,
			"-0.013": 0.0,
			"-0.012": 0.0,
			"-0.011": 0.0,
			"-0.01": 0.0,
			"-0.009": 0.0888039906972,
			"-0.008": 2.28178458192,
			"-0.007": 9.58344909645,
			"-0.006": 17.0421271171,
			"-0.005": 19.4149429426,
			"-0.004": 17.8480821949,
			"-0.003": 14.4413439395,
			"-0.002": 13.982619554,
			"-0.001": 12.7242740901,
			"0.0": 14.2446785603,
			"0.001": 13.2357732528,
			"0.002": 13.4135451279,
			"0.003": 19.6042295286,
			"0.004": 9.67078410655,
			"0.005": 6.76503492565,
			"0.006": 5.68944298873,
			"0.007": 4.26463933315,
			"0.008": 3.83185989535,
			"0.009": 5.60515167549,
			"0.01": 9.07333221139,
			"0.011": 2.99233638833,
			"0.012": 0.0337598285897,
			"0.013": 0.0,
			"0.014": 0.0,
			"0.015": 0.0,
			"0.016": 0.0,
			"0.017": 0.0,
			"0.018": 0.0,
			"0.019": 0.0,
			"0.02": 0.0,
			"0.021": 0.0,
			"0.022": 0.0,
			"0.023": 0.0,
			"0.024": 0.0,
			"0.025": 0.0
		}
	}
}
