{
	 "smiles": "C[C@]12CC[C@H]3[C@@H](CCC4=CC(=O)CC[C@]34C)[C@@H]1CC[C@@H]2C(=O)CO", 
	 "Tm": 415.15, 
	 "num_atms": 54, 
	 "gaussian": { 
		 "optdone": 1, 
		 "sigma_profile": "yes", 
		 "theory": "DFT", 
		 "functional": "B3LYP", 
		 "basiset": "6-31G**", 
		 "properties": { 
			 "R2extent": 10110.877, 
			 "electric_dipole_moment_norm": 2.3449944904, 
			 "electric_quadrupole_moment_norm": 46.1738685839, 
			 "total_energy": -1043.9908565, 
			 "HOMO_LUMO_gap": 0.18659, 
			 "cosmo_polarized_energy": -17.53, 
			 "cosmo_cavitation_energy": 47.83, 
			 "cosmo_dispersion_energy": -33.13, 
			 "cosmo_repulsion_energy": 2.44, 
			 "cosmo_total_nonelectrostatic_energy": 17.15, 
			 "SMD_solvation_energy": 7.65 
		},
		"coords": [
			{
				"x": 1.8062646745,
				"y": 1.2393142207,
				"z": 0.8177340154,
				"element": "C" 
			},
			{
				"x": 1.5084789467,
				"y": -0.2616278797,
				"z": 0.6090701258,
				"element": "C" 
			},
			{
				"x": 1.2335771916,
				"y": -0.5539478858,
				"z": -0.8751010437,
				"element": "C" 
			},
			{
				"x": -0.1016154302,
				"y": 0.0672733522,
				"z": -1.3392153263,
				"element": "C" 
			},
			{
				"x": -1.3048684003,
				"y": -0.3621295398,
				"z": -0.469150105,
				"element": "C" 
			},
			{
				"x": -1.0351920019,
				"y": -0.0894018946,
				"z": 1.0442996831,
				"element": "C" 
			},
			{
				"x": -2.200965693,
				"y": -0.5635076536,
				"z": 1.9302797329,
				"element": "C" 
			},
			{
				"x": -3.5616668788,
				"y": 0.0008601272,
				"z": 1.4624155048,
				"element": "C" 
			},
			{
				"x": -3.7364503228,
				"y": -0.3540058422,
				"z": 0.0098080409,
				"element": "C" 
			},
			{
				"x": -4.661849013,
				"y": -1.2591878296,
				"z": -0.3734220449,
				"element": "C" 
			},
			{
				"x": -4.7014311738,
				"y": -1.8923884532,
				"z": -1.704449439,
				"element": "C" 
			},
			{
				"x": -5.5851863356,
				"y": -2.6750381133,
				"z": -2.025309792,
				"element": "O" 
			},
			{
				"x": -3.5202992037,
				"y": -1.5766064776,
				"z": -2.6094917778,
				"element": "C" 
			},
			{
				"x": -3.0479507229,
				"y": -0.1353216885,
				"z": -2.4051967848,
				"element": "C" 
			},
			{
				"x": -2.6902573632,
				"y": 0.2293519773,
				"z": -0.9400709285,
				"element": "C" 
			},
			{
				"x": -2.7021595047,
				"y": 1.7784845444,
				"z": -0.862310784,
				"element": "C" 
			},
			{
				"x": 0.2891503116,
				"y": -0.7621159084,
				"z": 1.4329003279,
				"element": "C" 
			},
			{
				"x": 0.7766513901,
				"y": -0.7164978516,
				"z": 2.8908817086,
				"element": "C" 
			},
			{
				"x": 2.2808546096,
				"y": -1.1065850175,
				"z": 2.795744755,
				"element": "C" 
			},
			{
				"x": 2.6334437266,
				"y": -1.1354247155,
				"z": 1.2784162848,
				"element": "C" 
			},
			{
				"x": 4.0498059571,
				"y": -0.6935953292,
				"z": 0.9777015426,
				"element": "C" 
			},
			{
				"x": 4.6313822197,
				"y": 0.1764029414,
				"z": 1.6106558424,
				"element": "O" 
			},
			{
				"x": 4.7907914158,
				"y": -1.3663138845,
				"z": -0.1714492172,
				"element": "C" 
			},
			{
				"x": 6.0458875667,
				"y": -0.7905058613,
				"z": -0.3832226546,
				"element": "O" 
			},
			{
				"x": 2.0788714509,
				"y": 1.4695424021,
				"z": 1.8498648637,
				"element": "H" 
			},
			{
				"x": 2.6472579058,
				"y": 1.5525997697,
				"z": 0.1915888292,
				"element": "H" 
			},
			{
				"x": 0.9520493564,
				"y": 1.8655839537,
				"z": 0.5514205688,
				"element": "H" 
			},
			{
				"x": 1.1915625979,
				"y": -1.6420537832,
				"z": -1.0252767618,
				"element": "H" 
			},
			{
				"x": 2.0443762318,
				"y": -0.1785627568,
				"z": -1.5122395485,
				"element": "H" 
			},
			{
				"x": -0.0133042049,
				"y": 1.1595972105,
				"z": -1.3429070327,
				"element": "H" 
			},
			{
				"x": -0.2696745709,
				"y": -0.2261309047,
				"z": -2.3802288397,
				"element": "H" 
			},
			{
				"x": -1.3936845215,
				"y": -1.4556409843,
				"z": -0.5667129904,
				"element": "H" 
			},
			{
				"x": -0.9293636931,
				"y": 0.9934952856,
				"z": 1.1936821686,
				"element": "H" 
			},
			{
				"x": -2.2524053376,
				"y": -1.6607812038,
				"z": 1.9070565738,
				"element": "H" 
			},
			{
				"x": -2.0208481225,
				"y": -0.2761011067,
				"z": 2.9723270823,
				"element": "H" 
			},
			{
				"x": -3.5768412059,
				"y": 1.0869757447,
				"z": 1.6144360261,
				"element": "H" 
			},
			{
				"x": -4.3736912296,
				"y": -0.4220756665,
				"z": 2.0619884151,
				"element": "H" 
			},
			{
				"x": -5.3936707749,
				"y": -1.6341875917,
				"z": 0.3391557337,
				"element": "H" 
			},
			{
				"x": -3.8119647824,
				"y": -1.7659171212,
				"z": -3.6463863032,
				"element": "H" 
			},
			{
				"x": -2.72077958,
				"y": -2.2918410467,
				"z": -2.3690826158,
				"element": "H" 
			},
			{
				"x": -3.8610804732,
				"y": 0.5321783111,
				"z": -2.7181660436,
				"element": "H" 
			},
			{
				"x": -2.2068362897,
				"y": 0.0920157002,
				"z": -3.0667491512,
				"element": "H" 
			},
			{
				"x": -3.7192722771,
				"y": 2.1557432676,
				"z": -1.0099263908,
				"element": "H" 
			},
			{
				"x": -2.0783114854,
				"y": 2.2018057217,
				"z": -1.6556849099,
				"element": "H" 
			},
			{
				"x": -2.337760584,
				"y": 2.1713289644,
				"z": 0.0889259922,
				"element": "H" 
			},
			{
				"x": 0.1756895392,
				"y": -1.8287055939,
				"z": 1.1760868459,
				"element": "H" 
			},
			{
				"x": 0.2167012523,
				"y": -1.3977106344,
				"z": 3.5376487261,
				"element": "H" 
			},
			{
				"x": 0.6596444641,
				"y": 0.2886456881,
				"z": 3.3117221775,
				"element": "H" 
			},
			{
				"x": 2.9196388725,
				"y": -0.3826817077,
				"z": 3.3065340096,
				"element": "H" 
			},
			{
				"x": 2.4760983563,
				"y": -2.0831138999,
				"z": 3.2483818618,
				"element": "H" 
			},
			{
				"x": 2.5133618818,
				"y": -2.1541131216,
				"z": 0.8860902683,
				"element": "H" 
			},
			{
				"x": 4.1678540494,
				"y": -1.3092163446,
				"z": -1.0792597555,
				"element": "H" 
			},
			{
				"x": 4.8695727476,
				"y": -2.4411941447,
				"z": 0.0744418478,
				"element": "H" 
			},
			{
				"x": 6.1440144604,
				"y": -0.1391697444,
				"z": 0.3350506863,
				"element": "H" 
			}
		],
		 "valence_orbital": [ 
			{
				"type": "occ",
				"energy": -0.29311,
				"method": "rhf"
			},
			{
				"type": "occ",
				"energy": -0.27058,
				"method": "rhf"
			},
			{
				"type": "occ",
				"energy": -0.26629,
				"method": "rhf"
			},
			{
				"type": "occ",
				"energy": -0.2551,
				"method": "rhf"
			},
			{
				"type": "occ",
				"energy": -0.23251,
				"method": "rhf"
			},
			{
				"type": "unocc",
				"energy": -0.04592,
				"method": "rhf"
			},
			{
				"type": "unocc",
				"energy": -0.03279,
				"method": "rhf"
			},
			{
				"type": "unocc",
				"energy": 0.05471,
				"method": "rhf"
			},
			{
				"type": "unocc",
				"energy": 0.06175,
				"method": "rhf"
			},
			{
				"type": "unocc",
				"energy": 0.06648,
				"method": "rhf"
			}
		],
		"cosmo_sigma_profile": { 
			"-0.025": 0.0,
			"-0.024": 0.0,
			"-0.023": 0.0,
			"-0.022": 0.0,
			"-0.021": 0.0,
			"-0.02": 0.0,
			"-0.019": 0.0,
			"-0.018": 0.0,
			"-0.017": 0.0,
			"-0.016": 0.0,
			"-0.015": 0.0,
			"-0.014": 0.0,
			"-0.013": 0.0,
			"-0.012": 0.0,
			"-0.011": 0.0473649159325,
			"-0.01": 0.22820056077,
			"-0.009": 0.52889788115,
			"-0.008": 0.618653451642,
			"-0.007": 2.02293473208,
			"-0.006": 5.64433088658,
			"-0.005": 13.6300052534,
			"-0.004": 32.4419401981,
			"-0.003": 53.5795847851,
			"-0.002": 61.6779034401,
			"-0.001": 58.0301748489,
			"0.0": 39.4874300396,
			"0.001": 24.6146649641,
			"0.002": 11.1017002113,
			"0.003": 7.39474353767,
			"0.004": 6.02997267539,
			"0.005": 5.07718538391,
			"0.006": 3.54098970436,
			"0.007": 5.087736486,
			"0.008": 4.73423685549,
			"0.009": 4.43359005457,
			"0.01": 3.88565221017,
			"0.011": 5.75313011897,
			"0.012": 5.54491617735,
			"0.013": 6.46513690425,
			"0.014": 5.89331960365,
			"0.015": 0.907964453418,
			"0.016": 0.0,
			"0.017": 0.0,
			"0.018": 0.0,
			"0.019": 0.0,
			"0.02": 0.0,
			"0.021": 0.0,
			"0.022": 0.0,
			"0.023": 0.0,
			"0.024": 0.0,
			"0.025": 0.0
		}
	}
}
