{
	 "smiles": "CCOC(=O)C1=CC2=CC(OC)=CC=C2O1", 
	 "Tm": 333.15, 
	 "num_atms": 28, 
	 "gaussian": { 
		 "optdone": 1, 
		 "sigma_profile": "yes", 
		 "theory": "DFT", 
		 "functional": "B3LYP", 
		 "basiset": "6-31G**", 
		 "properties": { 
			 "R2extent": 5561.5689, 
			 "electric_dipole_moment_norm": 2.77780665454, 
			 "electric_quadrupole_moment_norm": 14.5479883895, 
			 "total_energy": -765.3943872, 
			 "HOMO_LUMO_gap": 0.16197, 
			 "cosmo_polarized_energy": -10.56, 
			 "cosmo_cavitation_energy": 32.87, 
			 "cosmo_dispersion_energy": -24.17, 
			 "cosmo_repulsion_energy": 1.89, 
			 "cosmo_total_nonelectrostatic_energy": 10.59, 
			 "SMD_solvation_energy": 7.83 
		},
		"coords": [
			{
				"x": 1.6583341981,
				"y": -0.4106227205,
				"z": -5.488279352,
				"element": "C" 
			},
			{
				"x": 2.3777108595,
				"y": 0.4667923857,
				"z": -4.4747403199,
				"element": "C" 
			},
			{
				"x": 1.6138964253,
				"y": 0.5904624598,
				"z": -3.250676626,
				"element": "O" 
			},
			{
				"x": 1.7866129919,
				"y": -0.3877682342,
				"z": -2.3413065914,
				"element": "C" 
			},
			{
				"x": 2.5283058875,
				"y": -1.3440413802,
				"z": -2.4735667209,
				"element": "O" 
			},
			{
				"x": 0.9713801173,
				"y": -0.1798262131,
				"z": -1.1342671853,
				"element": "C" 
			},
			{
				"x": 0.8967993838,
				"y": -0.9635558934,
				"z": -0.0195731605,
				"element": "C" 
			},
			{
				"x": -0.0383670985,
				"y": -0.3213380267,
				"z": 0.861248413,
				"element": "C" 
			},
			{
				"x": -0.5567210984,
				"y": -0.5919991374,
				"z": 2.1337419481,
				"element": "C" 
			},
			{
				"x": -1.4806376513,
				"y": 0.3020751259,
				"z": 2.6778703027,
				"element": "C" 
			},
			{
				"x": -1.9476110734,
				"y": -0.0205768808,
				"z": 3.9230456319,
				"element": "O" 
			},
			{
				"x": -2.8888056605,
				"y": 0.8401812667,
				"z": 4.5409539751,
				"element": "C" 
			},
			{
				"x": -1.8862079434,
				"y": 1.4543051502,
				"z": 1.9651187556,
				"element": "C" 
			},
			{
				"x": -1.3767569738,
				"y": 1.7340741309,
				"z": 0.6971359014,
				"element": "C" 
			},
			{
				"x": -0.4598978395,
				"y": 0.8354810328,
				"z": 0.1714628089,
				"element": "C" 
			},
			{
				"x": 0.1553371832,
				"y": 0.9237038482,
				"z": -1.0468966833,
				"element": "O" 
			},
			{
				"x": 0.6531121854,
				"y": -0.0290684844,
				"z": -5.6894908425,
				"element": "H" 
			},
			{
				"x": 1.5817785004,
				"y": -1.4370685889,
				"z": -5.1215556624,
				"element": "H" 
			},
			{
				"x": 2.2171367223,
				"y": -0.4231775965,
				"z": -6.4300652513,
				"element": "H" 
			},
			{
				"x": 2.4789002339,
				"y": 1.493904365,
				"z": -4.8327107832,
				"element": "H" 
			},
			{
				"x": 3.365114699,
				"y": 0.0649496134,
				"z": -4.2353353731,
				"element": "H" 
			},
			{
				"x": 1.4481978411,
				"y": -1.8792248698,
				"z": 0.1336441071,
				"element": "H" 
			},
			{
				"x": -0.2651077644,
				"y": -1.4668245372,
				"z": 2.7044146262,
				"element": "H" 
			},
			{
				"x": -3.114898633,
				"y": 0.3919355595,
				"z": 5.5098338421,
				"element": "H" 
			},
			{
				"x": -3.8158097197,
				"y": 0.9181677157,
				"z": 3.9576102338,
				"element": "H" 
			},
			{
				"x": -2.4797136699,
				"y": 1.8468355643,
				"z": 4.6990299935,
				"element": "H" 
			},
			{
				"x": -2.6036943641,
				"y": 2.1389180133,
				"z": 2.400167859,
				"element": "H" 
			},
			{
				"x": -1.6842877388,
				"y": 2.6161063317,
				"z": 0.1464861534,
				"element": "H" 
			}
		],
		 "valence_orbital": [ 
			{
				"type": "occ",
				"energy": -0.30106,
				"method": "rhf"
			},
			{
				"type": "occ",
				"energy": -0.29483,
				"method": "rhf"
			},
			{
				"type": "occ",
				"energy": -0.27656,
				"method": "rhf"
			},
			{
				"type": "occ",
				"energy": -0.22898,
				"method": "rhf"
			},
			{
				"type": "occ",
				"energy": -0.2163,
				"method": "rhf"
			},
			{
				"type": "unocc",
				"energy": -0.05433,
				"method": "rhf"
			},
			{
				"type": "unocc",
				"energy": 0.0097,
				"method": "rhf"
			},
			{
				"type": "unocc",
				"energy": 0.02827,
				"method": "rhf"
			},
			{
				"type": "unocc",
				"energy": 0.08986,
				"method": "rhf"
			},
			{
				"type": "unocc",
				"energy": 0.104,
				"method": "rhf"
			}
		],
		"cosmo_sigma_profile": { 
			"-0.025": 0.0,
			"-0.024": 0.0,
			"-0.023": 0.0,
			"-0.022": 0.0,
			"-0.021": 0.0,
			"-0.02": 0.0,
			"-0.019": 0.0,
			"-0.018": 0.0,
			"-0.017": 0.0,
			"-0.016": 0.0,
			"-0.015": 0.0,
			"-0.014": 0.0,
			"-0.013": 0.0,
			"-0.012": 0.0,
			"-0.011": 0.0,
			"-0.01": 0.0,
			"-0.009": 0.225602468295,
			"-0.008": 2.02802292637,
			"-0.007": 5.50226374238,
			"-0.006": 13.186599295,
			"-0.005": 21.8843265764,
			"-0.004": 24.2509391544,
			"-0.003": 26.127185069,
			"-0.002": 20.8388468813,
			"-0.001": 17.9845694399,
			"0.0": 22.0251654373,
			"0.001": 18.559550618,
			"0.002": 18.9559981266,
			"0.003": 19.2862602715,
			"0.004": 13.7108606531,
			"0.005": 5.32917740565,
			"0.006": 5.14391495424,
			"0.007": 4.61555544386,
			"0.008": 4.71164696721,
			"0.009": 4.6851652887,
			"0.01": 4.93539303803,
			"0.011": 4.55808258968,
			"0.012": 3.44631983133,
			"0.013": 0.037089025615,
			"0.014": 0.0,
			"0.015": 0.0,
			"0.016": 0.0,
			"0.017": 0.0,
			"0.018": 0.0,
			"0.019": 0.0,
			"0.02": 0.0,
			"0.021": 0.0,
			"0.022": 0.0,
			"0.023": 0.0,
			"0.024": 0.0,
			"0.025": 0.0
		}
	}
}
