{
	 "smiles": "OC1=C(C=O)C=C(Cl)C=C1", 
	 "Tm": 374.15, 
	 "num_atms": 15, 
	 "gaussian": { 
		 "optdone": 1, 
		 "sigma_profile": "yes", 
		 "theory": "DFT", 
		 "functional": "B3LYP", 
		 "basiset": "6-31G**", 
		 "properties": { 
			 "R2extent": 2483.1062, 
			 "electric_dipole_moment_norm": 5.16599269066, 
			 "electric_quadrupole_moment_norm": 10.586451651, 
			 "total_energy": -880.383232963, 
			 "HOMO_LUMO_gap": 0.17011, 
			 "cosmo_polarized_energy": -12.63, 
			 "cosmo_cavitation_energy": 21.78, 
			 "cosmo_dispersion_energy": -16.23, 
			 "cosmo_repulsion_energy": 1.31, 
			 "cosmo_total_nonelectrostatic_energy": 6.86, 
			 "SMD_solvation_energy": 4.95 
		},
		"coords": [
			{
				"x": 0.9480841526,
				"y": -2.6353675318,
				"z": -1.0090454011,
				"element": "O" 
			},
			{
				"x": -0.1404486239,
				"y": -1.8524181143,
				"z": -0.7733467623,
				"element": "C" 
			},
			{
				"x": -0.3221035631,
				"y": -1.3443183807,
				"z": 0.5283270877,
				"element": "C" 
			},
			{
				"x": 0.634410731,
				"y": -1.6437092716,
				"z": 1.6210482596,
				"element": "C" 
			},
			{
				"x": 0.5067899326,
				"y": -1.2206524396,
				"z": 2.7564049482,
				"element": "O" 
			},
			{
				"x": -1.4338889699,
				"y": -0.5346227734,
				"z": 0.8027700528,
				"element": "C" 
			},
			{
				"x": -2.3459391236,
				"y": -0.2371514418,
				"z": -0.1985738512,
				"element": "C" 
			},
			{
				"x": -3.737486104,
				"y": 0.7774028622,
				"z": 0.1487479434,
				"element": "Cl" 
			},
			{
				"x": -2.1684420574,
				"y": -0.7398944906,
				"z": -1.4914878147,
				"element": "C" 
			},
			{
				"x": -1.0687591356,
				"y": -1.5443709978,
				"z": -1.7750653272,
				"element": "C" 
			},
			{
				"x": 0.9524447381,
				"y": -2.9148807093,
				"z": -1.9337519697,
				"element": "H" 
			},
			{
				"x": 1.4897165138,
				"y": -2.2868645204,
				"z": 1.3429905041,
				"element": "H" 
			},
			{
				"x": -1.5507630185,
				"y": -0.1562519996,
				"z": 1.8124021534,
				"element": "H" 
			},
			{
				"x": -2.886179232,
				"y": -0.5026965004,
				"z": -2.2691553706,
				"element": "H" 
			},
			{
				"x": -0.9315362401,
				"y": -1.934903691,
				"z": -2.7808644525,
				"element": "H" 
			}
		],
		 "valence_orbital": [ 
			{
				"type": "occ",
				"energy": -0.3224,
				"method": "rhf"
			},
			{
				"type": "occ",
				"energy": -0.31859,
				"method": "rhf"
			},
			{
				"type": "occ",
				"energy": -0.27754,
				"method": "rhf"
			},
			{
				"type": "occ",
				"energy": -0.25568,
				"method": "rhf"
			},
			{
				"type": "occ",
				"energy": -0.24032,
				"method": "rhf"
			},
			{
				"type": "unocc",
				"energy": -0.07021,
				"method": "rhf"
			},
			{
				"type": "unocc",
				"energy": -0.01576,
				"method": "rhf"
			},
			{
				"type": "unocc",
				"energy": 0.02292,
				"method": "rhf"
			},
			{
				"type": "unocc",
				"energy": 0.02882,
				"method": "rhf"
			},
			{
				"type": "unocc",
				"energy": 0.04762,
				"method": "rhf"
			}
		],
		"cosmo_sigma_profile": { 
			"-0.025": 0.0,
			"-0.024": 0.0,
			"-0.023": 0.0,
			"-0.022": 0.0,
			"-0.021": 0.0,
			"-0.02": 0.0,
			"-0.019": 0.652596639446,
			"-0.018": 1.19708015637,
			"-0.017": 1.66071219353,
			"-0.016": 1.00231951761,
			"-0.015": 0.702060901047,
			"-0.014": 0.71358774272,
			"-0.013": 1.10952441472,
			"-0.012": 1.65995168597,
			"-0.011": 0.992904820876,
			"-0.01": 0.828143146584,
			"-0.009": 1.62244632748,
			"-0.008": 3.43565156809,
			"-0.007": 4.29657848398,
			"-0.006": 6.92282253379,
			"-0.005": 6.49952338619,
			"-0.004": 7.84205454654,
			"-0.003": 7.21011030361,
			"-0.002": 8.77103374004,
			"-0.001": 11.0027200167,
			"0.0": 16.1646326718,
			"0.001": 21.3615902984,
			"0.002": 19.2308039079,
			"0.003": 10.5710726712,
			"0.004": 11.7541757293,
			"0.005": 8.8687094015,
			"0.006": 2.01269918577,
			"0.007": 4.38994285381,
			"0.008": 2.83948438092,
			"0.009": 1.60779417556,
			"0.01": 2.88059693361,
			"0.011": 4.07614697241,
			"0.012": 2.45854047614,
			"0.013": 0.892466483371,
			"0.014": 0.0,
			"0.015": 0.0,
			"0.016": 0.0,
			"0.017": 0.0,
			"0.018": 0.0,
			"0.019": 0.0,
			"0.02": 0.0,
			"0.021": 0.0,
			"0.022": 0.0,
			"0.023": 0.0,
			"0.024": 0.0,
			"0.025": 0.0
		}
	}
}
