{
	 "smiles": "ClC1=CC=C(COC(CN2C=CN=C2)C2=CC=C(Cl)C=C2Cl)C=C1", 
	 "Tm": 359.95, 
	 "num_atms": 39, 
	 "gaussian": { 
		 "optdone": 1, 
		 "sigma_profile": "yes", 
		 "theory": "DFT", 
		 "functional": "B3LYP", 
		 "basiset": "6-31G**", 
		 "properties": { 
			 "R2extent": 12926.7985, 
			 "electric_dipole_moment_norm": 3.74742113993, 
			 "electric_quadrupole_moment_norm": 31.9977729359, 
			 "total_energy": -2260.23048702, 
			 "HOMO_LUMO_gap": 0.17642, 
			 "cosmo_polarized_energy": -19.47, 
			 "cosmo_cavitation_energy": 48.34, 
			 "cosmo_dispersion_energy": -31.85, 
			 "cosmo_repulsion_energy": 2.45, 
			 "cosmo_total_nonelectrostatic_energy": 18.94, 
			 "SMD_solvation_energy": 5.93 
		},
		"coords": [
			{
				"x": -2.7010290518,
				"y": 3.9296788987,
				"z": 5.1893516897,
				"element": "Cl" 
			},
			{
				"x": -2.3649922701,
				"y": 2.8292187188,
				"z": 3.8592961752,
				"element": "C" 
			},
			{
				"x": -2.4462953134,
				"y": 1.4538425698,
				"z": 4.0707047195,
				"element": "C" 
			},
			{
				"x": -2.1717875757,
				"y": 0.5897634123,
				"z": 3.0103674391,
				"element": "C" 
			},
			{
				"x": -1.8246478566,
				"y": 1.0830791628,
				"z": 1.7483567768,
				"element": "C" 
			},
			{
				"x": -1.6051450073,
				"y": 0.1338727812,
				"z": 0.5859513002,
				"element": "C" 
			},
			{
				"x": -0.6873173945,
				"y": 0.6361889032,
				"z": -0.3849082681,
				"element": "O" 
			},
			{
				"x": 0.6609323712,
				"y": 0.1426787304,
				"z": -0.3619805472,
				"element": "C" 
			},
			{
				"x": 0.7440426614,
				"y": -1.2556324681,
				"z": -1.0066848779,
				"element": "C" 
			},
			{
				"x": 0.5067337344,
				"y": -1.2280693488,
				"z": -2.4407859877,
				"element": "N" 
			},
			{
				"x": -0.6464351867,
				"y": -0.8510822437,
				"z": -3.1076684298,
				"element": "C" 
			},
			{
				"x": -0.3740470914,
				"y": -1.0320422059,
				"z": -4.4407246401,
				"element": "C" 
			},
			{
				"x": 0.9048747419,
				"y": -1.5109518863,
				"z": -4.6199514285,
				"element": "N" 
			},
			{
				"x": 1.3998634912,
				"y": -1.6164845909,
				"z": -3.4074701641,
				"element": "C" 
			},
			{
				"x": 1.3190210413,
				"y": 0.2153978281,
				"z": 1.0093797061,
				"element": "C" 
			},
			{
				"x": 1.3845290997,
				"y": -0.896086039,
				"z": 1.8629968905,
				"element": "C" 
			},
			{
				"x": 1.972946039,
				"y": -0.8379767408,
				"z": 3.1244202282,
				"element": "C" 
			},
			{
				"x": 2.5193178425,
				"y": 0.3689077045,
				"z": 3.5539113722,
				"element": "C" 
			},
			{
				"x": 3.2678697338,
				"y": 0.472429052,
				"z": 5.1339082467,
				"element": "Cl" 
			},
			{
				"x": 2.4858368939,
				"y": 1.5001720863,
				"z": 2.7416545124,
				"element": "C" 
			},
			{
				"x": 1.8882832606,
				"y": 1.41003226,
				"z": 1.485316552,
				"element": "C" 
			},
			{
				"x": 1.8845822079,
				"y": 2.8656029286,
				"z": 0.501715555,
				"element": "Cl" 
			},
			{
				"x": -1.7520528523,
				"y": 2.4679966601,
				"z": 1.5611665822,
				"element": "C" 
			},
			{
				"x": -2.016434101,
				"y": 3.3458794475,
				"z": 2.6115378847,
				"element": "C" 
			},
			{
				"x": -2.7107893004,
				"y": 1.0676217916,
				"z": 5.0488314781,
				"element": "H" 
			},
			{
				"x": -2.2278493033,
				"y": -0.4835006305,
				"z": 3.1766413879,
				"element": "H" 
			},
			{
				"x": -2.5510336706,
				"y": -0.0067914895,
				"z": 0.0466077762,
				"element": "H" 
			},
			{
				"x": -1.3082436614,
				"y": -0.8534466142,
				"z": 0.9620506991,
				"element": "H" 
			},
			{
				"x": 1.1883189927,
				"y": 0.8288072028,
				"z": -1.0289412757,
				"element": "H" 
			},
			{
				"x": 0.0323192475,
				"y": -1.943273674,
				"z": -0.5349332487,
				"element": "H" 
			},
			{
				"x": 1.7455479622,
				"y": -1.6672152997,
				"z": -0.8543266676,
				"element": "H" 
			},
			{
				"x": -1.5060876493,
				"y": -0.4726440553,
				"z": -2.5801990862,
				"element": "H" 
			},
			{
				"x": -1.0271702376,
				"y": -0.8413357485,
				"z": -5.2812861811,
				"element": "H" 
			},
			{
				"x": 2.390668473,
				"y": -1.9711947166,
				"z": -3.1536086201,
				"element": "H" 
			},
			{
				"x": 0.9686928458,
				"y": -1.8443460693,
				"z": 1.5379452463,
				"element": "H" 
			},
			{
				"x": 2.0090903803,
				"y": -1.7136288723,
				"z": 3.7620785008,
				"element": "H" 
			},
			{
				"x": 2.9164145142,
				"y": 2.4354005623,
				"z": 3.0770681256,
				"element": "H" 
			},
			{
				"x": -1.4710311224,
				"y": 2.8572296626,
				"z": 0.5885253048,
				"element": "H" 
			},
			{
				"x": -1.9540968887,
				"y": 4.4187023297,
				"z": 2.4659852731,
				"element": "H" 
			}
		],
		 "valence_orbital": [ 
			{
				"type": "occ",
				"energy": -0.26606,
				"method": "rhf"
			},
			{
				"type": "occ",
				"energy": -0.2634,
				"method": "rhf"
			},
			{
				"type": "occ",
				"energy": -0.26054,
				"method": "rhf"
			},
			{
				"type": "occ",
				"energy": -0.24566,
				"method": "rhf"
			},
			{
				"type": "occ",
				"energy": -0.22318,
				"method": "rhf"
			},
			{
				"type": "unocc",
				"energy": -0.04676,
				"method": "rhf"
			},
			{
				"type": "unocc",
				"energy": -0.04174,
				"method": "rhf"
			},
			{
				"type": "unocc",
				"energy": -0.01863,
				"method": "rhf"
			},
			{
				"type": "unocc",
				"energy": -0.01785,
				"method": "rhf"
			},
			{
				"type": "unocc",
				"energy": -0.00496,
				"method": "rhf"
			}
		],
		"cosmo_sigma_profile": { 
			"-0.025": 0.0,
			"-0.024": 0.0,
			"-0.023": 0.0,
			"-0.022": 0.0,
			"-0.021": 0.0,
			"-0.02": 0.0,
			"-0.019": 0.0,
			"-0.018": 0.0,
			"-0.017": 0.0,
			"-0.016": 0.0,
			"-0.015": 0.0,
			"-0.014": 0.0,
			"-0.013": 0.00415306363327,
			"-0.012": 0.117138103373,
			"-0.011": 0.53988036542,
			"-0.01": 0.910567158754,
			"-0.009": 4.88085721175,
			"-0.008": 9.75374977716,
			"-0.007": 17.5477066169,
			"-0.006": 22.5206694759,
			"-0.005": 24.623342653,
			"-0.004": 22.9209547083,
			"-0.003": 21.555723697,
			"-0.002": 21.7474737793,
			"-0.001": 22.1340761421,
			"0.0": 30.204811139,
			"0.001": 35.1131183983,
			"0.002": 36.1996683975,
			"0.003": 38.1320878517,
			"0.004": 38.7734424563,
			"0.005": 17.4858936239,
			"0.006": 7.93069149143,
			"0.007": 3.56927709701,
			"0.008": 2.42942779901,
			"0.009": 2.29852576223,
			"0.01": 2.60202809398,
			"0.011": 1.37776248794,
			"0.012": 0.798935653309,
			"0.013": 1.42697317691,
			"0.014": 1.4788761431,
			"0.015": 1.25191074787,
			"0.016": 1.05502231939,
			"0.017": 1.12867943186,
			"0.018": 0.9545009387,
			"0.019": 0.137158224891,
			"0.02": 0.0,
			"0.021": 0.0,
			"0.022": 0.0,
			"0.023": 0.0,
			"0.024": 0.0,
			"0.025": 0.0
		}
	}
}
