{
	 "smiles": "CC1=CC=C(C=C1)N1N=CC(Cl)=C(Cl)C1=O", 
	 "Tm": 418.15, 
	 "num_atms": 24, 
	 "gaussian": { 
		 "optdone": 1, 
		 "sigma_profile": "yes", 
		 "theory": "DFT", 
		 "functional": "B3LYP", 
		 "basiset": "6-31G**", 
		 "properties": { 
			 "R2extent": 8866.9792, 
			 "electric_dipole_moment_norm": 3.02119561432, 
			 "electric_quadrupole_moment_norm": 14.8550465149, 
			 "total_energy": -1529.0732622, 
			 "HOMO_LUMO_gap": 0.14946, 
			 "cosmo_polarized_energy": -9.75, 
			 "cosmo_cavitation_energy": 32.29, 
			 "cosmo_dispersion_energy": -23.95, 
			 "cosmo_repulsion_energy": 1.85, 
			 "cosmo_total_nonelectrostatic_energy": 10.2, 
			 "SMD_solvation_energy": 5.27 
		},
		"coords": [
			{
				"x": 2.337631298,
				"y": 1.8991255373,
				"z": -2.0721492376,
				"element": "C" 
			},
			{
				"x": 1.4419069298,
				"y": 1.404876372,
				"z": -0.9617323185,
				"element": "C" 
			},
			{
				"x": 1.821155782,
				"y": 1.5296750299,
				"z": 0.3812317713,
				"element": "C" 
			},
			{
				"x": 1.0175637454,
				"y": 1.056928515,
				"z": 1.416258537,
				"element": "C" 
			},
			{
				"x": -0.2006865272,
				"y": 0.4437135056,
				"z": 1.1100772778,
				"element": "C" 
			},
			{
				"x": -0.6026488405,
				"y": 0.3101148985,
				"z": -0.2214578646,
				"element": "C" 
			},
			{
				"x": 0.2157831667,
				"y": 0.7874755797,
				"z": -1.2413848675,
				"element": "C" 
			},
			{
				"x": -1.0537705507,
				"y": -0.0903246603,
				"z": 2.1444203786,
				"element": "N" 
			},
			{
				"x": -1.6574824419,
				"y": -1.2488252159,
				"z": 1.819959977,
				"element": "N" 
			},
			{
				"x": -2.487563059,
				"y": -1.7869043247,
				"z": 2.665614854,
				"element": "C" 
			},
			{
				"x": -2.7938389021,
				"y": -1.2086944636,
				"z": 3.9343227011,
				"element": "C" 
			},
			{
				"x": -3.9112035401,
				"y": -2.0474327376,
				"z": 4.9652540139,
				"element": "Cl" 
			},
			{
				"x": -2.1966004648,
				"y": -0.0300248712,
				"z": 4.2757053066,
				"element": "C" 
			},
			{
				"x": -2.4863635156,
				"y": 0.783242986,
				"z": 5.7650654637,
				"element": "Cl" 
			},
			{
				"x": -1.2566770129,
				"y": 0.6284522298,
				"z": 3.3547269337,
				"element": "C" 
			},
			{
				"x": -0.697989969,
				"y": 1.6869784656,
				"z": 3.5880578208,
				"element": "O" 
			},
			{
				"x": 1.7639029633,
				"y": 2.1418487764,
				"z": -2.9713097482,
				"element": "H" 
			},
			{
				"x": 2.8921057656,
				"y": 2.7931065986,
				"z": -1.7712924425,
				"element": "H" 
			},
			{
				"x": 3.0764872715,
				"y": 1.1375930965,
				"z": -2.3519429859,
				"element": "H" 
			},
			{
				"x": 2.7656534808,
				"y": 2.0074210834,
				"z": 0.6280146856,
				"element": "H" 
			},
			{
				"x": 1.3263312444,
				"y": 1.1763744693,
				"z": 2.4454182191,
				"element": "H" 
			},
			{
				"x": -1.547323006,
				"y": -0.1695157632,
				"z": -0.4489951777,
				"element": "H" 
			},
			{
				"x": -0.1096527906,
				"y": 0.6831820245,
				"z": -2.2731050099,
				"element": "H" 
			},
			{
				"x": -2.945421027,
				"y": -2.7226871318,
				"z": 2.3643417122,
				"element": "H" 
			}
		],
		 "valence_orbital": [ 
			{
				"type": "occ",
				"energy": -0.30208,
				"method": "rhf"
			},
			{
				"type": "occ",
				"energy": -0.27245,
				"method": "rhf"
			},
			{
				"type": "occ",
				"energy": -0.26179,
				"method": "rhf"
			},
			{
				"type": "occ",
				"energy": -0.25678,
				"method": "rhf"
			},
			{
				"type": "occ",
				"energy": -0.23269,
				"method": "rhf"
			},
			{
				"type": "unocc",
				"energy": -0.08323,
				"method": "rhf"
			},
			{
				"type": "unocc",
				"energy": -0.02211,
				"method": "rhf"
			},
			{
				"type": "unocc",
				"energy": -0.01133,
				"method": "rhf"
			},
			{
				"type": "unocc",
				"energy": -0.00844,
				"method": "rhf"
			},
			{
				"type": "unocc",
				"energy": -0.0023,
				"method": "rhf"
			}
		],
		"cosmo_sigma_profile": { 
			"-0.025": 0.0,
			"-0.024": 0.0,
			"-0.023": 0.0,
			"-0.022": 0.0,
			"-0.021": 0.0,
			"-0.02": 0.0,
			"-0.019": 0.0,
			"-0.018": 0.0,
			"-0.017": 0.0,
			"-0.016": 0.0,
			"-0.015": 0.0,
			"-0.014": 0.0,
			"-0.013": 0.0,
			"-0.012": 0.0,
			"-0.011": 0.00367892541836,
			"-0.01": 1.28900189318,
			"-0.009": 1.28473602134,
			"-0.008": 1.83891678826,
			"-0.007": 2.96669558187,
			"-0.006": 7.80436533318,
			"-0.005": 17.18750388,
			"-0.004": 26.1645981964,
			"-0.003": 26.4615904364,
			"-0.002": 23.1467158949,
			"-0.001": 22.9592013288,
			"0.0": 22.1341343734,
			"0.001": 19.6989693492,
			"0.002": 22.6051595944,
			"0.003": 21.3107475226,
			"0.004": 16.2320098764,
			"0.005": 8.15088936133,
			"0.006": 3.07653633756,
			"0.007": 3.0867204805,
			"0.008": 2.98918721888,
			"0.009": 2.616691998,
			"0.01": 2.84575771521,
			"0.011": 2.91673401607,
			"0.012": 4.46296382996,
			"0.013": 0.89040402281,
			"0.014": 0.0,
			"0.015": 0.0,
			"0.016": 0.0,
			"0.017": 0.0,
			"0.018": 0.0,
			"0.019": 0.0,
			"0.02": 0.0,
			"0.021": 0.0,
			"0.022": 0.0,
			"0.023": 0.0,
			"0.024": 0.0,
			"0.025": 0.0
		}
	}
}
