{
	 "smiles": "OC(=O)C1=CC(=CC=C1)S(=O)(=O)N(CC=C)C1=CC=CC=C1", 
	 "Tm": 377.15, 
	 "num_atms": 37, 
	 "gaussian": { 
		 "optdone": 1, 
		 "sigma_profile": "yes", 
		 "theory": "DFT", 
		 "functional": "B3LYP", 
		 "basiset": "6-31G**", 
		 "properties": { 
			 "R2extent": 8168.8875, 
			 "electric_dipole_moment_norm": 7.30978426836, 
			 "electric_quadrupole_moment_norm": 27.1858692085, 
			 "total_energy": -1372.48095517, 
			 "HOMO_LUMO_gap": 0.17177, 
			 "cosmo_polarized_energy": -24.74, 
			 "cosmo_cavitation_energy": 43.0, 
			 "cosmo_dispersion_energy": -28.68, 
			 "cosmo_repulsion_energy": 2.19, 
			 "cosmo_total_nonelectrostatic_energy": 16.51, 
			 "SMD_solvation_energy": 7.85 
		},
		"coords": [
			{
				"x": 0.4910700495,
				"y": 0.6082245719,
				"z": -6.0035730325,
				"element": "O" 
			},
			{
				"x": 0.7012009502,
				"y": 1.4926037641,
				"z": -4.993434317,
				"element": "C" 
			},
			{
				"x": 1.5329564094,
				"y": 2.3597131233,
				"z": -5.1104464949,
				"element": "O" 
			},
			{
				"x": -0.1371378307,
				"y": 1.3242410682,
				"z": -3.757541077,
				"element": "C" 
			},
			{
				"x": 0.3147880407,
				"y": 1.9491985135,
				"z": -2.5880202026,
				"element": "C" 
			},
			{
				"x": -0.4272566087,
				"y": 1.8241229258,
				"z": -1.416406813,
				"element": "C" 
			},
			{
				"x": -1.6304163322,
				"y": 1.1111623087,
				"z": -1.3878734238,
				"element": "C" 
			},
			{
				"x": -2.0903130938,
				"y": 0.5140386282,
				"z": -2.5607017409,
				"element": "C" 
			},
			{
				"x": -1.3473742156,
				"y": 0.6163758518,
				"z": -3.7374907072,
				"element": "C" 
			},
			{
				"x": 0.1818299997,
				"y": 2.5787891143,
				"z": 0.1027028887,
				"element": "S" 
			},
			{
				"x": -0.9801926292,
				"y": 2.7956582995,
				"z": 0.96300513,
				"element": "O" 
			},
			{
				"x": 1.082561018,
				"y": 3.6686362344,
				"z": -0.2753349842,
				"element": "O" 
			},
			{
				"x": 1.1485429045,
				"y": 1.3989718932,
				"z": 0.8566855851,
				"element": "N" 
			},
			{
				"x": 2.5315456565,
				"y": 1.2390075583,
				"z": 0.3505528367,
				"element": "C" 
			},
			{
				"x": 3.4619706166,
				"y": 0.829828862,
				"z": 1.4585881446,
				"element": "C" 
			},
			{
				"x": 4.2890047605,
				"y": -0.2121572514,
				"z": 1.3938175407,
				"element": "C" 
			},
			{
				"x": 0.4782496846,
				"y": 0.258973097,
				"z": 1.4248687407,
				"element": "C" 
			},
			{
				"x": -0.2393693368,
				"y": 0.4142796646,
				"z": 2.6177222429,
				"element": "C" 
			},
			{
				"x": -0.8853286322,
				"y": -0.681078312,
				"z": 3.1890527826,
				"element": "C" 
			},
			{
				"x": -0.8046036176,
				"y": -1.9402967217,
				"z": 2.5903680884,
				"element": "C" 
			},
			{
				"x": -0.0805682592,
				"y": -2.0980708897,
				"z": 1.4075568028,
				"element": "C" 
			},
			{
				"x": 0.5521900431,
				"y": -1.0026264683,
				"z": 0.8194994393,
				"element": "C" 
			},
			{
				"x": -0.0783311863,
				"y": -0.1159828446,
				"z": -5.7100770494,
				"element": "H" 
			},
			{
				"x": 1.2237601217,
				"y": 2.5393169549,
				"z": -2.6183922512,
				"element": "H" 
			},
			{
				"x": -2.2005234701,
				"y": 1.0552328964,
				"z": -0.4676078324,
				"element": "H" 
			},
			{
				"x": -3.0346742889,
				"y": -0.0209036598,
				"z": -2.5605552531,
				"element": "H" 
			},
			{
				"x": -1.7474104997,
				"y": 0.1746867336,
				"z": -4.6469769643,
				"element": "H" 
			},
			{
				"x": 2.5876096633,
				"y": 0.5235240742,
				"z": -0.4819398283,
				"element": "H" 
			},
			{
				"x": 2.8279856656,
				"y": 2.218806902,
				"z": -0.0325948496,
				"element": "H" 
			},
			{
				"x": 3.4439906812,
				"y": 1.4680097975,
				"z": 2.3403512676,
				"element": "H" 
			},
			{
				"x": 4.317629814,
				"y": -0.8667918269,
				"z": 0.5258003965,
				"element": "H" 
			},
			{
				"x": 4.9750287706,
				"y": -0.4454298892,
				"z": 2.2021349362,
				"element": "H" 
			},
			{
				"x": -0.288422789,
				"y": 1.3942822392,
				"z": 3.076528493,
				"element": "H" 
			},
			{
				"x": -1.4425403958,
				"y": -0.551166752,
				"z": 4.1121075696,
				"element": "H" 
			},
			{
				"x": -1.2982412741,
				"y": -2.7939601875,
				"z": 3.0453367936,
				"element": "H" 
			},
			{
				"x": -0.0104410141,
				"y": -3.0742813423,
				"z": 0.9364620076,
				"element": "H" 
			},
			{
				"x": 1.1067306244,
				"y": -1.1317389311,
				"z": -0.1040748651,
				"element": "H" 
			}
		],
		 "valence_orbital": [ 
			{
				"type": "occ",
				"energy": -0.28238,
				"method": "rhf"
			},
			{
				"type": "occ",
				"energy": -0.27979,
				"method": "rhf"
			},
			{
				"type": "occ",
				"energy": -0.27085,
				"method": "rhf"
			},
			{
				"type": "occ",
				"energy": -0.26113,
				"method": "rhf"
			},
			{
				"type": "occ",
				"energy": -0.24245,
				"method": "rhf"
			},
			{
				"type": "unocc",
				"energy": -0.07068,
				"method": "rhf"
			},
			{
				"type": "unocc",
				"energy": -0.0519,
				"method": "rhf"
			},
			{
				"type": "unocc",
				"energy": -0.0214,
				"method": "rhf"
			},
			{
				"type": "unocc",
				"energy": -0.01253,
				"method": "rhf"
			},
			{
				"type": "unocc",
				"energy": 0.00347,
				"method": "rhf"
			}
		],
		"cosmo_sigma_profile": { 
			"-0.025": 0.0,
			"-0.024": 0.0,
			"-0.023": 0.0,
			"-0.022": 0.0,
			"-0.021": 0.0,
			"-0.02": 0.0852788421948,
			"-0.019": 0.669933119493,
			"-0.018": 1.02298752314,
			"-0.017": 0.973935920466,
			"-0.016": 1.15921495081,
			"-0.015": 1.07489295793,
			"-0.014": 1.20354792927,
			"-0.013": 1.04126054241,
			"-0.012": 1.14181652783,
			"-0.011": 1.25062951874,
			"-0.01": 1.41993681196,
			"-0.009": 1.62575784923,
			"-0.008": 5.48241091709,
			"-0.007": 9.70269624159,
			"-0.006": 17.4602134919,
			"-0.005": 28.3230664494,
			"-0.004": 26.5711397038,
			"-0.003": 23.9159325162,
			"-0.002": 22.5345617748,
			"-0.001": 20.7809275022,
			"0.0": 25.7109135958,
			"0.001": 23.9945631839,
			"0.002": 20.6130466776,
			"0.003": 17.8988796561,
			"0.004": 16.0403906096,
			"0.005": 15.6053958772,
			"0.006": 8.23119339909,
			"0.007": 6.37626361541,
			"0.008": 7.25750625443,
			"0.009": 7.71829853997,
			"0.01": 11.935115934,
			"0.011": 11.4341949312,
			"0.012": 3.17531376795,
			"0.013": 0.649229106233,
			"0.014": 0.0,
			"0.015": 0.0,
			"0.016": 0.0,
			"0.017": 0.0,
			"0.018": 0.0,
			"0.019": 0.0,
			"0.02": 0.0,
			"0.021": 0.0,
			"0.022": 0.0,
			"0.023": 0.0,
			"0.024": 0.0,
			"0.0": 0.0
		}
	}
}
