{
	 "smiles": "CCOC(=O)OCC", 
	 "Tm": 230.15, 
	 "num_atms": 18, 
	 "gaussian": { 
		 "optdone": 1, 
		 "sigma_profile": "yes", 
		 "theory": "DFT", 
		 "functional": "B3LYP", 
		 "basiset": "6-31G**", 
		 "properties": { 
			 "R2extent": 1522.5748, 
			 "electric_dipole_moment_norm": 0.407648978902, 
			 "electric_quadrupole_moment_norm": 10.982776506, 
			 "total_energy": -422.252691346, 
			 "HOMO_LUMO_gap": 0.32601, 
			 "cosmo_polarized_energy": -6.78, 
			 "cosmo_cavitation_energy": 21.47, 
			 "cosmo_dispersion_energy": -15.76, 
			 "cosmo_repulsion_energy": 1.36, 
			 "cosmo_total_nonelectrostatic_energy": 7.07, 
			 "SMD_solvation_energy": 5.74 
		},
		"coords": [
			{
				"x": 0.4441654728,
				"y": -0.6285978855,
				"z": 2.4306774363,
				"element": "C" 
			},
			{
				"x": 0.7555776164,
				"y": -1.8242096991,
				"z": 1.5441502817,
				"element": "C" 
			},
			{
				"x": 1.4789882784,
				"y": -1.4270396016,
				"z": 0.3551861827,
				"element": "O" 
			},
			{
				"x": 0.7256138565,
				"y": -0.9839133674,
				"z": -0.6622866395,
				"element": "C" 
			},
			{
				"x": -0.4863561949,
				"y": -0.9084042447,
				"z": -0.6764452811,
				"element": "O" 
			},
			{
				"x": 1.5510167696,
				"y": -0.6497201388,
				"z": -1.6653760547,
				"element": "O" 
			},
			{
				"x": 0.9124417504,
				"y": -0.1313601041,
				"z": -2.8562848584,
				"element": "C" 
			},
			{
				"x": 0.6271746915,
				"y": 1.3570461814,
				"z": -2.7311098101,
				"element": "C" 
			},
			{
				"x": -0.032928179,
				"y": -0.9670537612,
				"z": 3.3564819732,
				"element": "H" 
			},
			{
				"x": 1.3592368315,
				"y": -0.0892571678,
				"z": 2.692312882,
				"element": "H" 
			},
			{
				"x": -0.2401780326,
				"y": 0.0561669484,
				"z": 1.9237568181,
				"element": "H" 
			},
			{
				"x": -0.1578999218,
				"y": -2.3443502467,
				"z": 1.2460379344,
				"element": "H" 
			},
			{
				"x": 1.4274526331,
				"y": -2.5276757455,
				"z": 2.0413203944,
				"element": "H" 
			},
			{
				"x": -0.0046808173,
				"y": -0.6958536913,
				"z": -3.0409517838,
				"element": "H" 
			},
			{
				"x": 1.6308377479,
				"y": -0.3361616368,
				"z": -3.6534154412,
				"element": "H" 
			},
			{
				"x": -0.1039166453,
				"y": 1.5417177884,
				"z": -1.9401701574,
				"element": "H" 
			},
			{
				"x": 1.5431317866,
				"y": 1.9113231834,
				"z": -2.5063925296,
				"element": "H" 
			},
			{
				"x": 0.2168223562,
				"y": 1.736943189,
				"z": -3.6726913468,
				"element": "H" 
			}
		],
		 "valence_orbital": [ 
			{
				"type": "occ",
				"energy": -0.34765,
				"method": "rhf"
			},
			{
				"type": "occ",
				"energy": -0.33986,
				"method": "rhf"
			},
			{
				"type": "occ",
				"energy": -0.29925,
				"method": "rhf"
			},
			{
				"type": "occ",
				"energy": -0.29788,
				"method": "rhf"
			},
			{
				"type": "occ",
				"energy": -0.28081,
				"method": "rhf"
			},
			{
				"type": "unocc",
				"energy": 0.0452,
				"method": "rhf"
			},
			{
				"type": "unocc",
				"energy": 0.10147,
				"method": "rhf"
			},
			{
				"type": "unocc",
				"energy": 0.11012,
				"method": "rhf"
			},
			{
				"type": "unocc",
				"energy": 0.11568,
				"method": "rhf"
			},
			{
				"type": "unocc",
				"energy": 0.13969,
				"method": "rhf"
			}
		],
		"cosmo_sigma_profile": { 
			"-0.025": 0.0,
			"-0.024": 0.0,
			"-0.023": 0.0,
			"-0.022": 0.0,
			"-0.021": 0.0,
			"-0.02": 0.0,
			"-0.019": 0.0,
			"-0.018": 0.0,
			"-0.017": 0.0,
			"-0.016": 0.0,
			"-0.015": 0.0,
			"-0.014": 0.0,
			"-0.013": 0.0,
			"-0.012": 0.0,
			"-0.011": 0.0,
			"-0.01": 0.0,
			"-0.009": 0.0,
			"-0.008": 0.0,
			"-0.007": 0.108501374008,
			"-0.006": 4.08036237608,
			"-0.005": 11.022732005,
			"-0.004": 21.1598009528,
			"-0.003": 24.1781060393,
			"-0.002": 20.5859993427,
			"-0.001": 18.0254896227,
			"0.0": 18.6530472493,
			"0.001": 8.46424850282,
			"0.002": 4.02084234405,
			"0.003": 4.19975179491,
			"0.004": 4.70146207873,
			"0.005": 2.84749653902,
			"0.006": 3.57010879155,
			"0.007": 3.44167298291,
			"0.008": 3.39990917566,
			"0.009": 4.42570517399,
			"0.01": 4.882180139,
			"0.011": 2.3032132465,
			"0.012": 3.7971772343,
			"0.013": 0.155033497728,
			"0.014": 0.0,
			"0.015": 0.0,
			"0.016": 0.0,
			"0.017": 0.0,
			"0.018": 0.0,
			"0.019": 0.0,
			"0.02": 0.0,
			"0.021": 0.0,
			"0.022": 0.0,
			"0.023": 0.0,
			"0.024": 0.0,
			"0.025": 0.0
		}
	}
}
