{
	 "smiles": "CCOC(=O)C1=CC=C(Cl)N=C1", 
	 "Tm": 301.15, 
	 "num_atms": 20, 
	 "gaussian": { 
		 "optdone": 1, 
		 "sigma_profile": "yes", 
		 "theory": "DFT", 
		 "functional": "B3LYP", 
		 "basiset": "6-31G**", 
		 "properties": { 
			 "R2extent": 4354.2245, 
			 "electric_dipole_moment_norm": 2.44182891293, 
			 "electric_quadrupole_moment_norm": 11.7745516377, 
			 "total_energy": -975.078555738, 
			 "HOMO_LUMO_gap": 0.20402, 
			 "cosmo_polarized_energy": -8.32, 
			 "cosmo_cavitation_energy": 26.69, 
			 "cosmo_dispersion_energy": -19.7, 
			 "cosmo_repulsion_energy": 1.59, 
			 "cosmo_total_nonelectrostatic_energy": 8.58, 
			 "SMD_solvation_energy": 4.11 
		},
		"coords": [
			{
				"x": 2.0207351148,
				"y": -1.6170611623,
				"z": 1.8307052044,
				"element": "C" 
			},
			{
				"x": 0.9958180536,
				"y": -2.262443945,
				"z": 0.9109168087,
				"element": "C" 
			},
			{
				"x": 0.147344501,
				"y": -1.2655479693,
				"z": 0.2869033814,
				"element": "O" 
			},
			{
				"x": -0.9300784883,
				"y": -0.8632028158,
				"z": 0.9909783242,
				"element": "C" 
			},
			{
				"x": -1.2260150705,
				"y": -1.2856204684,
				"z": 2.0923606854,
				"element": "O" 
			},
			{
				"x": -1.7277740988,
				"y": 0.1614462462,
				"z": 0.2601015146,
				"element": "C" 
			},
			{
				"x": -2.8854502138,
				"y": 0.6705231657,
				"z": 0.8641717837,
				"element": "C" 
			},
			{
				"x": -3.6375047438,
				"y": 1.6248569935,
				"z": 0.1942209125,
				"element": "C" 
			},
			{
				"x": -3.181847683,
				"y": 2.0264465301,
				"z": -1.0671070703,
				"element": "C" 
			},
			{
				"x": -4.1086740764,
				"y": 3.234613945,
				"z": -1.9466419218,
				"element": "Cl" 
			},
			{
				"x": -2.0951615669,
				"y": 1.5660864871,
				"z": -1.6621655684,
				"element": "N" 
			},
			{
				"x": -1.3784390271,
				"y": 0.6449701794,
				"z": -1.0051629739,
				"element": "C" 
			},
			{
				"x": 2.6203211,
				"y": -0.8787807192,
				"z": 1.2903677641,
				"element": "H" 
			},
			{
				"x": 1.5272891929,
				"y": -1.126505612,
				"z": 2.6731899036,
				"element": "H" 
			},
			{
				"x": 2.694821931,
				"y": -2.3834872073,
				"z": 2.2272238929,
				"element": "H" 
			},
			{
				"x": 1.4729868556,
				"y": -2.7720260833,
				"z": 0.0708504535,
				"element": "H" 
			},
			{
				"x": 0.3638760315,
				"y": -2.9681627414,
				"z": 1.4546713931,
				"element": "H" 
			},
			{
				"x": -3.1717378479,
				"y": 0.3072400941,
				"z": 1.8456279154,
				"element": "H" 
			},
			{
				"x": -4.539659121,
				"y": 2.0481143107,
				"z": 0.6188206558,
				"element": "H" 
			},
			{
				"x": -0.4891508431,
				"y": 0.2776407722,
				"z": -1.5077330589,
				"element": "H" 
			}
		],
		 "valence_orbital": [ 
			{
				"type": "occ",
				"energy": -0.31263,
				"method": "rhf"
			},
			{
				"type": "occ",
				"energy": -0.30524,
				"method": "rhf"
			},
			{
				"type": "occ",
				"energy": -0.29467,
				"method": "rhf"
			},
			{
				"type": "occ",
				"energy": -0.27712,
				"method": "rhf"
			},
			{
				"type": "occ",
				"energy": -0.26912,
				"method": "rhf"
			},
			{
				"type": "unocc",
				"energy": -0.0651,
				"method": "rhf"
			},
			{
				"type": "unocc",
				"energy": -0.04245,
				"method": "rhf"
			},
			{
				"type": "unocc",
				"energy": 0.02883,
				"method": "rhf"
			},
			{
				"type": "unocc",
				"energy": 0.03618,
				"method": "rhf"
			},
			{
				"type": "unocc",
				"energy": 0.10022,
				"method": "rhf"
			}
		],
		"cosmo_sigma_profile": { 
			"-0.025": 0.0,
			"-0.024": 0.0,
			"-0.023": 0.0,
			"-0.022": 0.0,
			"-0.021": 0.0,
			"-0.02": 0.0,
			"-0.019": 0.0,
			"-0.018": 0.0,
			"-0.017": 0.0,
			"-0.016": 0.0,
			"-0.015": 0.0,
			"-0.014": 0.0,
			"-0.013": 0.0,
			"-0.012": 0.0,
			"-0.011": 0.0,
			"-0.01": 0.0,
			"-0.009": 0.892626940589,
			"-0.008": 3.86073998087,
			"-0.007": 4.85604223026,
			"-0.006": 7.18186496661,
			"-0.005": 8.40234375394,
			"-0.004": 16.4487190313,
			"-0.003": 20.0435104402,
			"-0.002": 25.7736364378,
			"-0.001": 28.8659195586,
			"0.0": 22.678749098,
			"0.001": 12.201058801,
			"0.002": 10.4732926862,
			"0.003": 11.9294726879,
			"0.004": 13.0818657138,
			"0.005": 5.86657811274,
			"0.006": 3.68841739678,
			"0.007": 2.7143682954,
			"0.008": 2.94682593315,
			"0.009": 2.40921582826,
			"0.01": 2.8010309188,
			"0.011": 4.90096303772,
			"0.012": 2.27081902592,
			"0.013": 1.068846039,
			"0.014": 0.347251158022,
			"0.015": 0.0,
			"0.016": 0.0,
			"0.017": 0.0,
			"0.018": 0.0,
			"0.019": 0.0,
			"0.02": 0.0,
			"0.021": 0.0,
			"0.022": 0.0,
			"0.023": 0.0,
			"0.024": 0.0,
			"0.025": 0.0
		}
	}
}
