{
	 "smiles": "CCOC(=O)C1=CN2C=CN=C2N=C1", 
	 "Tm": 442.15, 
	 "num_atms": 23, 
	 "gaussian": { 
		 "optdone": 1, 
		 "sigma_profile": "yes", 
		 "theory": "DFT", 
		 "functional": "B3LYP", 
		 "basiset": "6-31G**", 
		 "properties": { 
			 "R2extent": 3679.9239, 
			 "electric_dipole_moment_norm": 3.75167546704, 
			 "electric_quadrupole_moment_norm": 27.1345373029, 
			 "total_energy": -663.082926959, 
			 "HOMO_LUMO_gap": 0.16487, 
			 "cosmo_polarized_energy": -15.49, 
			 "cosmo_cavitation_energy": 27.97, 
			 "cosmo_dispersion_energy": -20.62, 
			 "cosmo_repulsion_energy": 1.6, 
			 "cosmo_total_nonelectrostatic_energy": 8.95, 
			 "SMD_solvation_energy": 3.34 
		},
		"coords": [
			{
				"x": -2.0616494384,
				"y": 2.6936574332,
				"z": 2.1864994773,
				"element": "C" 
			},
			{
				"x": -2.3592228515,
				"y": 2.2738140189,
				"z": 0.7554914701,
				"element": "C" 
			},
			{
				"x": -1.8483695881,
				"y": 0.9441208337,
				"z": 0.4809930147,
				"element": "O" 
			},
			{
				"x": -0.559246955,
				"y": 0.8595954169,
				"z": 0.0979443053,
				"element": "C" 
			},
			{
				"x": 0.1828306601,
				"y": 1.8153938569,
				"z": -0.0353205285,
				"element": "O" 
			},
			{
				"x": -0.1471927268,
				"y": -0.5457063135,
				"z": -0.1501867389,
				"element": "C" 
			},
			{
				"x": 1.1484655967,
				"y": -0.7652613579,
				"z": -0.553779204,
				"element": "C" 
			},
			{
				"x": 1.5425762301,
				"y": -2.0413704215,
				"z": -0.7858667604,
				"element": "N" 
			},
			{
				"x": 2.7371654455,
				"y": -2.5976679457,
				"z": -1.1904955951,
				"element": "C" 
			},
			{
				"x": 2.4978020562,
				"y": -3.954880305,
				"z": -1.2411571925,
				"element": "C" 
			},
			{
				"x": 1.2180161879,
				"y": -4.2798243802,
				"z": -0.8908515036,
				"element": "N" 
			},
			{
				"x": 0.6277272883,
				"y": -3.1305309812,
				"z": -0.6125092095,
				"element": "C" 
			},
			{
				"x": -0.6412383928,
				"y": -2.915509238,
				"z": -0.2165102497,
				"element": "N" 
			},
			{
				"x": -1.0125907243,
				"y": -1.6740640113,
				"z": 0.0053057836,
				"element": "C" 
			},
			{
				"x": -0.9844989607,
				"y": 2.787534622,
				"z": 2.3442201043,
				"element": "H" 
			},
			{
				"x": -2.4637198119,
				"y": 1.9669755083,
				"z": 2.8983396934,
				"element": "H" 
			},
			{
				"x": -2.5238145907,
				"y": 3.6653966696,
				"z": 2.3893147449,
				"element": "H" 
			},
			{
				"x": -3.4331713252,
				"y": 2.1903349112,
				"z": 0.5750281976,
				"element": "H" 
			},
			{
				"x": -1.9212965049,
				"y": 2.9711560361,
				"z": 0.037931466,
				"element": "H" 
			},
			{
				"x": 1.8609256241,
				"y": 0.0398426684,
				"z": -0.6928223066,
				"element": "H" 
			},
			{
				"x": 3.6109878754,
				"y": -1.9993000452,
				"z": -1.396148298,
				"element": "H" 
			},
			{
				"x": 3.2083808255,
				"y": -4.7216110485,
				"z": -1.5208296194,
				"element": "H" 
			},
			{
				"x": -2.0381659192,
				"y": -1.5121959273,
				"z": 0.3240089491,
				"element": "H" 
			}
		],
		 "valence_orbital": [ 
			{
				"type": "occ",
				"energy": -0.29814,
				"method": "rhf"
			},
			{
				"type": "occ",
				"energy": -0.28226,
				"method": "rhf"
			},
			{
				"type": "occ",
				"energy": -0.27138,
				"method": "rhf"
			},
			{
				"type": "occ",
				"energy": -0.2656,
				"method": "rhf"
			},
			{
				"type": "occ",
				"energy": -0.23267,
				"method": "rhf"
			},
			{
				"type": "unocc",
				"energy": -0.0678,
				"method": "rhf"
			},
			{
				"type": "unocc",
				"energy": -0.04192,
				"method": "rhf"
			},
			{
				"type": "unocc",
				"energy": 0.03524,
				"method": "rhf"
			},
			{
				"type": "unocc",
				"energy": 0.06486,
				"method": "rhf"
			},
			{
				"type": "unocc",
				"energy": 0.09252,
				"method": "rhf"
			}
		],
		"cosmo_sigma_profile": { 
			"-0.025": 0.0,
			"-0.024": 0.0,
			"-0.023": 0.0,
			"-0.022": 0.0,
			"-0.021": 0.0,
			"-0.02": 0.0,
			"-0.019": 0.0,
			"-0.018": 0.0,
			"-0.017": 0.0,
			"-0.016": 0.0,
			"-0.015": 0.0,
			"-0.014": 0.0,
			"-0.013": 0.0,
			"-0.012": 0.87296287886,
			"-0.011": 2.02790267643,
			"-0.01": 3.10073302159,
			"-0.009": 3.07932760617,
			"-0.008": 3.96518634057,
			"-0.007": 5.73195406089,
			"-0.006": 7.1820661732,
			"-0.005": 14.4541024158,
			"-0.004": 20.2915082189,
			"-0.003": 25.804654427,
			"-0.002": 22.8569342606,
			"-0.001": 20.0121630868,
			"0.0": 16.3862164023,
			"0.001": 10.6574091411,
			"0.002": 10.0726506609,
			"0.003": 9.42098040463,
			"0.004": 5.73487442674,
			"0.005": 5.12358749535,
			"0.006": 3.7445380263,
			"0.007": 3.61343027132,
			"0.008": 3.87002370279,
			"0.009": 3.06062021777,
			"0.01": 3.86774346257,
			"0.011": 5.90956476886,
			"0.012": 4.33486768725,
			"0.013": 3.00119536641,
			"0.014": 2.60738662697,
			"0.015": 1.79694121705,
			"0.016": 1.32494503246,
			"0.017": 0.538927584458,
			"0.018": 0.0,
			"0.019": 0.0,
			"0.02": 0.0,
			"0.021": 0.0,
			"0.022": 0.0,
			"0.023": 0.0,
			"0.024": 0.0,
			"0.025": 0.0
		}
	}
}
