{
	 "smiles": "CSC1=CC=CC=C1C#N", 
	 "Tm": 309.15, 
	 "num_atms": 17, 
	 "gaussian": { 
		 "optdone": 1, 
		 "sigma_profile": "yes", 
		 "theory": "DFT", 
		 "functional": "B3LYP", 
		 "basiset": "6-31G**", 
		 "properties": { 
			 "R2extent": 2337.1917, 
			 "electric_dipole_moment_norm": 4.18240763317, 
			 "electric_quadrupole_moment_norm": 19.5161571135, 
			 "total_energy": -761.989606965, 
			 "HOMO_LUMO_gap": 0.17314, 
			 "cosmo_polarized_energy": -9.2, 
			 "cosmo_cavitation_energy": 23.29, 
			 "cosmo_dispersion_energy": -16.95, 
			 "cosmo_repulsion_energy": 1.33, 
			 "cosmo_total_nonelectrostatic_energy": 7.67, 
			 "SMD_solvation_energy": 5.27 
		},
		"coords": [
			{
				"x": -1.9244131707,
				"y": 2.1164432832,
				"z": -1.7818778272,
				"element": "C" 
			},
			{
				"x": -1.9737526679,
				"y": 0.2825511894,
				"z": -1.8250741828,
				"element": "S" 
			},
			{
				"x": -1.2882326071,
				"y": -0.1806335239,
				"z": -0.2390797091,
				"element": "C" 
			},
			{
				"x": -0.1607515481,
				"y": -1.0110543972,
				"z": -0.2259602304,
				"element": "C" 
			},
			{
				"x": 0.3835842462,
				"y": -1.4675510239,
				"z": 0.9748937149,
				"element": "C" 
			},
			{
				"x": -0.1800607881,
				"y": -1.0862343054,
				"z": 2.1937831602,
				"element": "C" 
			},
			{
				"x": -1.3010621206,
				"y": -0.2621057195,
				"z": 2.206005478,
				"element": "C" 
			},
			{
				"x": -1.8707654155,
				"y": 0.1806800905,
				"z": 0.9993245911,
				"element": "C" 
			},
			{
				"x": -3.0535866774,
				"y": 0.9881500164,
				"z": 1.0641572947,
				"element": "C" 
			},
			{
				"x": -4.0071112342,
				"y": 1.6496017873,
				"z": 1.1496081227,
				"element": "N" 
			},
			{
				"x": -0.9092172574,
				"y": 2.4701673412,
				"z": -1.5932818761,
				"element": "H" 
			},
			{
				"x": -2.619825385,
				"y": 2.5216018593,
				"z": -1.0467923906,
				"element": "H" 
			},
			{
				"x": -2.2342029581,
				"y": 2.4337425692,
				"z": -2.780246308,
				"element": "H" 
			},
			{
				"x": 0.2917046355,
				"y": -1.2897907649,
				"z": -1.1718539647,
				"element": "H" 
			},
			{
				"x": 1.2584262097,
				"y": -2.1106920103,
				"z": 0.9563900564,
				"element": "H" 
			},
			{
				"x": 0.2484480463,
				"y": -1.4298529001,
				"z": 3.1298286411,
				"element": "H" 
			},
			{
				"x": -1.7580813077,
				"y": 0.0371765088,
				"z": 3.1434754298,
				"element": "H" 
			}
		],
		 "valence_orbital": [ 
			{
				"type": "occ",
				"energy": -0.33988,
				"method": "rhf"
			},
			{
				"type": "occ",
				"energy": -0.32673,
				"method": "rhf"
			},
			{
				"type": "occ",
				"energy": -0.28223,
				"method": "rhf"
			},
			{
				"type": "occ",
				"energy": -0.27081,
				"method": "rhf"
			},
			{
				"type": "occ",
				"energy": -0.23323,
				"method": "rhf"
			},
			{
				"type": "unocc",
				"energy": -0.06009,
				"method": "rhf"
			},
			{
				"type": "unocc",
				"energy": -0.03217,
				"method": "rhf"
			},
			{
				"type": "unocc",
				"energy": 0.03101,
				"method": "rhf"
			},
			{
				"type": "unocc",
				"energy": 0.03896,
				"method": "rhf"
			},
			{
				"type": "unocc",
				"energy": 0.06232,
				"method": "rhf"
			}
		],
		"cosmo_sigma_profile": { 
			"-0.025": 0.0,
			"-0.024": 0.0,
			"-0.023": 0.0,
			"-0.022": 0.0,
			"-0.021": 0.0,
			"-0.02": 0.0,
			"-0.019": 0.0,
			"-0.018": 0.0,
			"-0.017": 0.0,
			"-0.016": 0.0,
			"-0.015": 0.0,
			"-0.014": 0.0,
			"-0.013": 0.0,
			"-0.012": 0.0,
			"-0.011": 0.0,
			"-0.01": 0.0,
			"-0.009": 0.105183024551,
			"-0.008": 2.62974903404,
			"-0.007": 9.85756319938,
			"-0.006": 14.2540223319,
			"-0.005": 11.5843860509,
			"-0.004": 10.6013878128,
			"-0.003": 13.9711094465,
			"-0.002": 17.4020579195,
			"-0.001": 15.3933222071,
			"0.0": 13.6845355326,
			"0.001": 15.5293469998,
			"0.002": 16.7602728248,
			"0.003": 8.04633094927,
			"0.004": 5.7374827531,
			"0.005": 5.87196949429,
			"0.006": 5.98607034318,
			"0.007": 4.71370345277,
			"0.008": 4.88385402825,
			"0.009": 3.68114446918,
			"0.01": 2.79447805035,
			"0.011": 2.5162358844,
			"0.012": 2.45475347281,
			"0.013": 1.14605634048,
			"0.014": 0.0,
			"0.015": 0.0,
			"0.016": 0.0,
			"0.017": 0.0,
			"0.018": 0.0,
			"0.019": 0.0,
			"0.02": 0.0,
			"0.021": 0.0,
			"0.022": 0.0,
			"0.023": 0.0,
			"0.024": 0.0,
			"0.025": 0.0
		}
	}
}
