{
	 "smiles": "COC(=O)C1=CC=C(CN2CCC(CO)CC2)C=C1", 
	 "Tm": 328.15, 
	 "num_atms": 40, 
	 "gaussian": { 
		 "optdone": 1, 
		 "sigma_profile": "yes", 
		 "theory": "DFT", 
		 "functional": "B3LYP", 
		 "basiset": "6-31G**", 
		 "properties": { 
			 "R2extent": 9253.2398, 
			 "electric_dipole_moment_norm": 2.93038888204, 
			 "electric_quadrupole_moment_norm": 12.6957379793, 
			 "total_energy": -864.671331216, 
			 "HOMO_LUMO_gap": 0.16099, 
			 "cosmo_polarized_energy": -13.72, 
			 "cosmo_cavitation_energy": 41.35, 
			 "cosmo_dispersion_energy": -29.28, 
			 "cosmo_repulsion_energy": 2.26, 
			 "cosmo_total_nonelectrostatic_energy": 14.34, 
			 "SMD_solvation_energy": 5.93 
		},
		"coords": [
			{
				"x": -2.9327622377,
				"y": 6.2530884954,
				"z": -0.634075113,
				"element": "C" 
			},
			{
				"x": -2.3086019092,
				"y": 5.0449963604,
				"z": -1.0925789673,
				"element": "O" 
			},
			{
				"x": -2.9037206878,
				"y": 3.8992054856,
				"z": -0.6839719558,
				"element": "C" 
			},
			{
				"x": -3.8946795519,
				"y": 3.8844806016,
				"z": 0.0209619178,
				"element": "O" 
			},
			{
				"x": -2.2100698018,
				"y": 2.6836626596,
				"z": -1.1921971093,
				"element": "C" 
			},
			{
				"x": -1.0729571059,
				"y": 2.7482042841,
				"z": -2.0081904783,
				"element": "C" 
			},
			{
				"x": -0.4708843923,
				"y": 1.5738803309,
				"z": -2.4551453451,
				"element": "C" 
			},
			{
				"x": -0.9797134881,
				"y": 0.3153678757,
				"z": -2.1013413267,
				"element": "C" 
			},
			{
				"x": -0.2900045269,
				"y": -0.9652693497,
				"z": -2.5596820098,
				"element": "C" 
			},
			{
				"x": 0.6894491513,
				"y": -1.5486449838,
				"z": -1.6419392218,
				"element": "N" 
			},
			{
				"x": 1.8875109805,
				"y": -0.7286433081,
				"z": -1.4417127331,
				"element": "C" 
			},
			{
				"x": 2.7995801268,
				"y": -1.3355861735,
				"z": -0.3533780474,
				"element": "C" 
			},
			{
				"x": 2.5941347822,
				"y": -2.8516784707,
				"z": -0.2418891523,
				"element": "C" 
			},
			{
				"x": 3.6104983219,
				"y": -3.4988921728,
				"z": 0.7019246126,
				"element": "C" 
			},
			{
				"x": 3.4165904792,
				"y": -4.8993386898,
				"z": 0.8627896831,
				"element": "O" 
			},
			{
				"x": 1.1373094731,
				"y": -3.1332808156,
				"z": 0.1895786889,
				"element": "C" 
			},
			{
				"x": 0.1571362146,
				"y": -2.086315656,
				"z": -0.390862581,
				"element": "C" 
			},
			{
				"x": -2.1248740659,
				"y": 0.2664103729,
				"z": -1.2909178127,
				"element": "C" 
			},
			{
				"x": -2.7339241972,
				"y": 1.432520925,
				"z": -0.8391387837,
				"element": "C" 
			},
			{
				"x": -3.964571298,
				"y": 6.3132864709,
				"z": -0.989616383,
				"element": "H" 
			},
			{
				"x": -2.3373316705,
				"y": 7.0674450076,
				"z": -1.0470626933,
				"element": "H" 
			},
			{
				"x": -2.9359028801,
				"y": 6.2952924743,
				"z": 0.4581079873,
				"element": "H" 
			},
			{
				"x": -0.6714871676,
				"y": 3.7144498923,
				"z": -2.2916453321,
				"element": "H" 
			},
			{
				"x": 0.4023035222,
				"y": 1.6334001875,
				"z": -3.1001417877,
				"element": "H" 
			},
			{
				"x": 0.2269865602,
				"y": -0.7703658195,
				"z": -3.5081690359,
				"element": "H" 
			},
			{
				"x": -1.0498612346,
				"y": -1.730745893,
				"z": -2.7586024613,
				"element": "H" 
			},
			{
				"x": 1.6460242479,
				"y": 0.3126886445,
				"z": -1.164572622,
				"element": "H" 
			},
			{
				"x": 2.4213155371,
				"y": -0.6850509856,
				"z": -2.4015717515,
				"element": "H" 
			},
			{
				"x": 3.8446350627,
				"y": -1.0897625654,
				"z": -0.5755586272,
				"element": "H" 
			},
			{
				"x": 2.576117046,
				"y": -0.8781162678,
				"z": 0.619458863,
				"element": "H" 
			},
			{
				"x": 2.7450959408,
				"y": -3.2810436913,
				"z": -1.2438668901,
				"element": "H" 
			},
			{
				"x": 4.6340793099,
				"y": -3.2762678458,
				"z": 0.3561478287,
				"element": "H" 
			},
			{
				"x": 3.5107188625,
				"y": -3.0729979054,
				"z": 1.7076241598,
				"element": "H" 
			},
			{
				"x": 3.5182347057,
				"y": -5.3088542862,
				"z": -0.00643484,
				"element": "H" 
			},
			{
				"x": 1.0703227586,
				"y": -3.123361357,
				"z": 1.2848528497,
				"element": "H" 
			},
			{
				"x": 0.8526623518,
				"y": -4.1407910898,
				"z": -0.1265738239,
				"element": "H" 
			},
			{
				"x": -0.8082907851,
				"y": -2.5578564624,
				"z": -0.6038352449,
				"element": "H" 
			},
			{
				"x": -0.0456563998,
				"y": -1.2948301463,
				"z": 0.3537770351,
				"element": "H" 
			},
			{
				"x": -2.5487517534,
				"y": -0.6973687689,
				"z": -1.0212510147,
				"element": "H" 
			},
			{
				"x": -3.6216602809,
				"y": 1.3992826361,
				"z": -0.2164004805,
				"element": "H" 
			}
		],
		 "valence_orbital": [ 
			{
				"type": "occ",
				"energy": -0.27133,
				"method": "rhf"
			},
			{
				"type": "occ",
				"energy": -0.26132,
				"method": "rhf"
			},
			{
				"type": "occ",
				"energy": -0.25734,
				"method": "rhf"
			},
			{
				"type": "occ",
				"energy": -0.25324,
				"method": "rhf"
			},
			{
				"type": "occ",
				"energy": -0.20543,
				"method": "rhf"
			},
			{
				"type": "unocc",
				"energy": -0.04444,
				"method": "rhf"
			},
			{
				"type": "unocc",
				"energy": -0.00837,
				"method": "rhf"
			},
			{
				"type": "unocc",
				"energy": 0.05444,
				"method": "rhf"
			},
			{
				"type": "unocc",
				"energy": 0.07226,
				"method": "rhf"
			},
			{
				"type": "unocc",
				"energy": 0.08198,
				"method": "rhf"
			}
		],
		"cosmo_sigma_profile": { 
			"-0.025": 0.0,
			"-0.024": 0.0,
			"-0.023": 0.0,
			"-0.022": 0.0,
			"-0.021": 0.0,
			"-0.02": 0.0,
			"-0.019": 0.0,
			"-0.018": 0.0,
			"-0.017": 0.0,
			"-0.016": 0.00597812495719,
			"-0.015": 0.615078206961,
			"-0.014": 0.97946126306,
			"-0.013": 1.09420640475,
			"-0.012": 0.387988513136,
			"-0.011": 1.07623100773,
			"-0.01": 1.31736120925,
			"-0.009": 0.906426375729,
			"-0.008": 0.45891106772,
			"-0.007": 1.05517091803,
			"-0.006": 9.61392808153,
			"-0.005": 18.7972433438,
			"-0.004": 24.8424528371,
			"-0.003": 35.4086809336,
			"-0.002": 41.1673609859,
			"-0.001": 41.2523523381,
			"0.0": 29.056997756,
			"0.001": 20.6371554635,
			"0.002": 18.3762477559,
			"0.003": 15.5755382346,
			"0.004": 16.0077486093,
			"0.005": 7.49956571227,
			"0.006": 5.08904513201,
			"0.007": 2.58966713198,
			"0.008": 4.60675160925,
			"0.009": 2.84614975717,
			"0.01": 4.00419483538,
			"0.011": 4.7964514839,
			"0.012": 6.07713712753,
			"0.013": 2.34002420211,
			"0.014": 2.28119344516,
			"0.015": 1.66645914668,
			"0.016": 0.0153074748453,
			"0.017": 0.0,
			"0.018": 0.0,
			"0.019": 0.0,
			"0.02": 0.0,
			"0.021": 0.0,
			"0.022": 0.0,
			"0.023": 0.0,
			"0.024": 0.0,
			"0.025": 0.0
		}
	}
}
