{
	 "smiles": "CC1=NN(CC2=CC(Cl)=CC=C2)C=C1C(O)=O", 
	 "Tm": 441.15, 
	 "num_atms": 28, 
	 "gaussian": { 
		 "optdone": 1, 
		 "sigma_profile": "yes", 
		 "theory": "DFT", 
		 "functional": "B3LYP", 
		 "basiset": "6-31G**", 
		 "properties": { 
			 "R2extent": 6418.2372, 
			 "electric_dipole_moment_norm": 4.25411219528, 
			 "electric_quadrupole_moment_norm": 28.7677950132, 
			 "total_energy": -1184.04832816, 
			 "HOMO_LUMO_gap": 0.22139, 
			 "cosmo_polarized_energy": -20.24, 
			 "cosmo_cavitation_energy": 35.06, 
			 "cosmo_dispersion_energy": -24.83, 
			 "cosmo_repulsion_energy": 1.95, 
			 "cosmo_total_nonelectrostatic_energy": 12.18, 
			 "SMD_solvation_energy": 6.03 
		},
		"coords": [
			{
				"x": 0.5621269761,
				"y": -0.1587879357,
				"z": -4.7249843626,
				"element": "C" 
			},
			{
				"x": 0.3131459322,
				"y": 0.3579278742,
				"z": -3.3440045663,
				"element": "C" 
			},
			{
				"x": -0.7520449634,
				"y": -0.0328003515,
				"z": -2.6490200444,
				"element": "N" 
			},
			{
				"x": -0.6838590251,
				"y": 0.6359564234,
				"z": -1.4660212248,
				"element": "N" 
			},
			{
				"x": -1.6861104624,
				"y": 0.3771132229,
				"z": -0.4370582317,
				"element": "C" 
			},
			{
				"x": -1.2966028422,
				"y": -0.7332667682,
				"z": 0.5238361332,
				"element": "C" 
			},
			{
				"x": -1.2982485505,
				"y": -0.4938652146,
				"z": 1.9007631177,
				"element": "C" 
			},
			{
				"x": -0.960618083,
				"y": -1.5239958181,
				"z": 2.7795807444,
				"element": "C" 
			},
			{
				"x": -0.9660090171,
				"y": -1.2088903668,
				"z": 4.5091537036,
				"element": "Cl" 
			},
			{
				"x": -0.6149019591,
				"y": -2.7895198308,
				"z": 2.3124698233,
				"element": "C" 
			},
			{
				"x": -0.6133885955,
				"y": -3.0188184746,
				"z": 0.9341259681,
				"element": "C" 
			},
			{
				"x": -0.9531703561,
				"y": -2.003620131,
				"z": 0.0423597364,
				"element": "C" 
			},
			{
				"x": 0.4077346583,
				"y": 1.425668238,
				"z": -1.3880113512,
				"element": "C" 
			},
			{
				"x": 1.0954194807,
				"y": 1.2840941633,
				"z": -2.588737796,
				"element": "C" 
			},
			{
				"x": 2.3226504243,
				"y": 1.9546017514,
				"z": -3.0508554079,
				"element": "C" 
			},
			{
				"x": 3.0593810596,
				"y": 2.6062506222,
				"z": -2.102986674,
				"element": "O" 
			},
			{
				"x": 2.6956039533,
				"y": 1.9575247982,
				"z": -4.2024420868,
				"element": "O" 
			},
			{
				"x": 1.5365713555,
				"y": -0.6521646569,
				"z": -4.7902293986,
				"element": "H" 
			},
			{
				"x": 0.581974779,
				"y": 0.6610788086,
				"z": -5.4479290005,
				"element": "H" 
			},
			{
				"x": -0.2210067513,
				"y": -0.8690195755,
				"z": -4.9982961427,
				"element": "H" 
			},
			{
				"x": -2.6037598902,
				"y": 0.1227637873,
				"z": -0.9739786095,
				"element": "H" 
			},
			{
				"x": -1.8631142268,
				"y": 1.3084869357,
				"z": 0.1079907874,
				"element": "H" 
			},
			{
				"x": -1.5620232962,
				"y": 0.4829999941,
				"z": 2.2939755964,
				"element": "H" 
			},
			{
				"x": -0.3530953175,
				"y": -3.575861151,
				"z": 3.0115117472,
				"element": "H" 
			},
			{
				"x": -0.3463172212,
				"y": -4.0020259296,
				"z": 0.558495401,
				"element": "H" 
			},
			{
				"x": -0.9477138015,
				"y": -2.183662619,
				"z": -1.0281772884,
				"element": "H" 
			},
			{
				"x": 0.5903280478,
				"y": 2.0393997913,
				"z": -0.5159827733,
				"element": "H" 
			},
			{
				"x": 2.7373476926,
				"y": 2.3881324126,
				"z": -1.2180478,
				"element": "H" 
			}
		],
		 "valence_orbital": [ 
			{
				"type": "occ",
				"energy": -0.27708,
				"method": "rhf"
			},
			{
				"type": "occ",
				"energy": -0.27274,
				"method": "rhf"
			},
			{
				"type": "occ",
				"energy": -0.26719,
				"method": "rhf"
			},
			{
				"type": "occ",
				"energy": -0.26113,
				"method": "rhf"
			},
			{
				"type": "occ",
				"energy": -0.25472,
				"method": "rhf"
			},
			{
				"type": "unocc",
				"energy": -0.03333,
				"method": "rhf"
			},
			{
				"type": "unocc",
				"energy": -0.02948,
				"method": "rhf"
			},
			{
				"type": "unocc",
				"energy": -0.02534,
				"method": "rhf"
			},
			{
				"type": "unocc",
				"energy": 0.00976,
				"method": "rhf"
			},
			{
				"type": "unocc",
				"energy": 0.02005,
				"method": "rhf"
			}
		],
		"cosmo_sigma_profile": { 
			"-0.025": 0.0,
			"-0.024": 0.0,
			"-0.023": 0.0,
			"-0.022": 0.0,
			"-0.021": 0.0,
			"-0.02": 0.0,
			"-0.019": 0.443988429543,
			"-0.018": 1.08237472386,
			"-0.017": 1.14615468963,
			"-0.016": 1.11582421394,
			"-0.015": 0.927087665431,
			"-0.014": 1.11980306999,
			"-0.013": 1.08428231208,
			"-0.012": 1.60905876194,
			"-0.011": 2.46441885159,
			"-0.01": 2.73831283713,
			"-0.009": 3.77148710071,
			"-0.008": 6.32643217568,
			"-0.007": 9.33778573737,
			"-0.006": 10.7953436944,
			"-0.005": 12.895261989,
			"-0.004": 15.9805937164,
			"-0.003": 14.788250826,
			"-0.002": 17.3292900949,
			"-0.001": 19.706031053,
			"0.0": 22.2824935071,
			"0.001": 22.2003554867,
			"0.002": 25.5923211074,
			"0.003": 21.9692710441,
			"0.004": 19.5482068806,
			"0.005": 10.751594735,
			"0.006": 3.379987747,
			"0.007": 3.97170949022,
			"0.008": 4.27035538807,
			"0.009": 2.96270709396,
			"0.01": 4.79072369183,
			"0.011": 5.81676328003,
			"0.012": 5.74502074095,
			"0.013": 3.32687064845,
			"0.014": 1.03959082828,
			"0.015": 0.113083761619,
			"0.016": 0.0,
			"0.017": 0.0,
			"0.018": 0.0,
			"0.019": 0.0,
			"0.02": 0.0,
			"0.021": 0.0,
			"0.022": 0.0,
			"0.023": 0.0,
			"0.024": 0.0,
			"0.025": 0.0
		}
	}
}
