{
	 "smiles": "CC1CC(C)CC2(C1)NC(=O)NC2=O", 
	 "Tm": 573.15, 
	 "num_atms": 30, 
	 "gaussian": { 
		 "optdone": 1, 
		 "sigma_profile": "yes", 
		 "theory": "DFT", 
		 "functional": "B3LYP", 
		 "basiset": "6-31G**", 
		 "properties": { 
			 "R2extent": 2970.4089, 
			 "electric_dipole_moment_norm": 2.69359773352, 
			 "electric_quadrupole_moment_norm": 11.9087238813, 
			 "total_energy": -650.722186658, 
			 "HOMO_LUMO_gap": 0.24725, 
			 "cosmo_polarized_energy": -14.42, 
			 "cosmo_cavitation_energy": 30.12, 
			 "cosmo_dispersion_energy": -21.85, 
			 "cosmo_repulsion_energy": 1.72, 
			 "cosmo_total_nonelectrostatic_energy": 9.99, 
			 "SMD_solvation_energy": 5.74 
		},
		"coords": [
			{
				"x": 0.0172955811,
				"y": -2.5671501513,
				"z": -0.9584307583,
				"element": "C" 
			},
			{
				"x": -0.6786301595,
				"y": -2.0293477425,
				"z": 0.3029558157,
				"element": "C" 
			},
			{
				"x": -1.8749993264,
				"y": -1.1091509176,
				"z": -0.0201888021,
				"element": "C" 
			},
			{
				"x": -1.4653635504,
				"y": 0.3096596409,
				"z": -0.4510852649,
				"element": "C" 
			},
			{
				"x": -2.6905182649,
				"y": 1.1740905147,
				"z": -0.7726940967,
				"element": "C" 
			},
			{
				"x": -0.6158967823,
				"y": 0.9609567759,
				"z": 0.6537914175,
				"element": "C" 
			},
			{
				"x": 0.6417678573,
				"y": 0.1460438223,
				"z": 1.0285329282,
				"element": "C" 
			},
			{
				"x": 0.2765344659,
				"y": -1.3393648879,
				"z": 1.3054870006,
				"element": "C" 
			},
			{
				"x": 1.3105555468,
				"y": 0.7185544545,
				"z": 2.2040134713,
				"element": "N" 
			},
			{
				"x": 2.636852038,
				"y": 1.0059492225,
				"z": 2.0175266642,
				"element": "C" 
			},
			{
				"x": 3.4578573608,
				"y": 1.3860314001,
				"z": 2.8260378184,
				"element": "O" 
			},
			{
				"x": 2.8675850867,
				"y": 0.7779864418,
				"z": 0.6438310471,
				"element": "N" 
			},
			{
				"x": 1.7571994141,
				"y": 0.3258294033,
				"z": -0.0331885128,
				"element": "C" 
			},
			{
				"x": 1.6861015206,
				"y": 0.1377804092,
				"z": -1.2326822625,
				"element": "O" 
			},
			{
				"x": 0.4352141812,
				"y": -1.770733888,
				"z": -1.5758993762,
				"element": "H" 
			},
			{
				"x": -0.6943617027,
				"y": -3.1397379473,
				"z": -1.5635500948,
				"element": "H" 
			},
			{
				"x": 0.8376940071,
				"y": -3.2422298479,
				"z": -0.6888213113,
				"element": "H" 
			},
			{
				"x": -1.0780532661,
				"y": -2.9039263594,
				"z": 0.8348929848,
				"element": "H" 
			},
			{
				"x": -2.5177268414,
				"y": -1.0267639965,
				"z": 0.8695485394,
				"element": "H" 
			},
			{
				"x": -2.4901003268,
				"y": -1.572981363,
				"z": -0.8012189715,
				"element": "H" 
			},
			{
				"x": -0.8458540595,
				"y": 0.2412141253,
				"z": -1.3528196345,
				"element": "H" 
			},
			{
				"x": -3.2865505388,
				"y": 0.7278124585,
				"z": -1.575802051,
				"element": "H" 
			},
			{
				"x": -3.3414836552,
				"y": 1.2807004612,
				"z": 0.1040756528,
				"element": "H" 
			},
			{
				"x": -2.396784048,
				"y": 2.1793383034,
				"z": -1.0939841666,
				"element": "H" 
			},
			{
				"x": -1.225738376,
				"y": 1.0572629835,
				"z": 1.5641991512,
				"element": "H" 
			},
			{
				"x": -0.3167499587,
				"y": 1.9771006718,
				"z": 0.3716821044,
				"element": "H" 
			},
			{
				"x": -0.2172547275,
				"y": -1.3344508081,
				"z": 2.2874409436,
				"element": "H" 
			},
			{
				"x": 1.1969395589,
				"y": -1.9224058603,
				"z": 1.4285685567,
				"element": "H" 
			},
			{
				"x": 0.9533190733,
				"y": 0.6189655117,
				"z": 3.1422688775,
				"element": "H" 
			},
			{
				"x": 3.7460498926,
				"y": 1.0008671692,
				"z": 0.19811233,
				"element": "H" 
			}
		],
		 "valence_orbital": [ 
			{
				"type": "occ",
				"energy": -0.30836,
				"method": "rhf"
			},
			{
				"type": "occ",
				"energy": -0.28848,
				"method": "rhf"
			},
			{
				"type": "occ",
				"energy": -0.28593,
				"method": "rhf"
			},
			{
				"type": "occ",
				"energy": -0.26467,
				"method": "rhf"
			},
			{
				"type": "occ",
				"energy": -0.2588,
				"method": "rhf"
			},
			{
				"type": "unocc",
				"energy": -0.01155,
				"method": "rhf"
			},
			{
				"type": "unocc",
				"energy": 0.06013,
				"method": "rhf"
			},
			{
				"type": "unocc",
				"energy": 0.06326,
				"method": "rhf"
			},
			{
				"type": "unocc",
				"energy": 0.08003,
				"method": "rhf"
			},
			{
				"type": "unocc",
				"energy": 0.08996,
				"method": "rhf"
			}
		],
		"cosmo_sigma_profile": { 
			"-0.025": 0.0,
			"-0.024": 0.0,
			"-0.023": 0.0,
			"-0.022": 0.0,
			"-0.021": 0.0,
			"-0.02": 0.0,
			"-0.019": 0.0,
			"-0.018": 0.0,
			"-0.017": 0.0666767627871,
			"-0.016": 1.13240863475,
			"-0.015": 1.76611517882,
			"-0.014": 1.96080482921,
			"-0.013": 2.53751594931,
			"-0.012": 1.73102378968,
			"-0.011": 1.65134036686,
			"-0.01": 2.07677334434,
			"-0.009": 1.70564474641,
			"-0.008": 2.60959526055,
			"-0.007": 2.67443362615,
			"-0.006": 2.59240371921,
			"-0.005": 6.09958112059,
			"-0.004": 9.15231398415,
			"-0.003": 18.4373939262,
			"-0.002": 36.1892861011,
			"-0.001": 29.448833529,
			"0.0": 27.1574666542,
			"0.001": 22.8167203896,
			"0.002": 14.1962975902,
			"0.003": 5.6752137359,
			"0.004": 3.96155942703,
			"0.005": 3.78420531787,
			"0.006": 2.60067399351,
			"0.007": 2.94577062005,
			"0.008": 2.64397932984,
			"0.009": 2.73544423854,
			"0.01": 3.34942711437,
			"0.011": 4.03935418038,
			"0.012": 6.30015269141,
			"0.013": 7.71576383436,
			"0.014": 1.51556238757,
			"0.015": 0.0,
			"0.016": 0.0,
			"0.017": 0.0,
			"0.018": 0.0,
			"0.019": 0.0,
			"0.02": 0.0,
			"0.021": 0.0,
			"0.022": 0.0,
			"0.023": 0.0,
			"0.024": 0.0,
			"0.025": 0.0
		}
	}
}
