{
	 "smiles": "CC(SC1=NN=CN1C)C(O)=O", 
	 "Tm": 431.15, 
	 "num_atms": 21, 
	 "gaussian": { 
		 "optdone": 1, 
		 "sigma_profile": "yes", 
		 "theory": "DFT", 
		 "functional": "B3LYP", 
		 "basiset": "6-31G**", 
		 "properties": { 
			 "R2extent": 2535.8409, 
			 "electric_dipole_moment_norm": 4.86528957823, 
			 "electric_quadrupole_moment_norm": 12.7297775723, 
			 "total_energy": -946.935851377, 
			 "HOMO_LUMO_gap": 0.22258, 
			 "cosmo_polarized_energy": -19.39, 
			 "cosmo_cavitation_energy": 26.27, 
			 "cosmo_dispersion_energy": -19.28, 
			 "cosmo_repulsion_energy": 1.49, 
			 "cosmo_total_nonelectrostatic_energy": 8.48, 
			 "SMD_solvation_energy": 4.22 
		},
		"coords": [
			{
				"x": -0.4787930376,
				"y": -2.6204284423,
				"z": -1.0903208165,
				"element": "C" 
			},
			{
				"x": 0.05036073,
				"y": -2.5073996201,
				"z": 0.3494348615,
				"element": "C" 
			},
			{
				"x": 1.7243453012,
				"y": -1.737396607,
				"z": 0.466082274,
				"element": "S" 
			},
			{
				"x": 1.4509218739,
				"y": -0.1158581818,
				"z": -0.1744691832,
				"element": "C" 
			},
			{
				"x": 1.2085110587,
				"y": 0.1950639953,
				"z": -1.4353816641,
				"element": "N" 
			},
			{
				"x": 1.0964792983,
				"y": 1.5623199466,
				"z": -1.5112399485,
				"element": "N" 
			},
			{
				"x": 1.2972305754,
				"y": 2.032096911,
				"z": -0.2998220059,
				"element": "C" 
			},
			{
				"x": 1.5238538229,
				"y": 1.0263969588,
				"z": 0.5908442357,
				"element": "N" 
			},
			{
				"x": 1.7366066708,
				"y": 1.1395922836,
				"z": 2.0283355093,
				"element": "C" 
			},
			{
				"x": -0.9681181905,
				"y": -1.8566669604,
				"z": 1.2814406103,
				"element": "C" 
			},
			{
				"x": -2.0790531852,
				"y": -2.624564733,
				"z": 1.3660593175,
				"element": "O" 
			},
			{
				"x": -0.8593597201,
				"y": -0.8096923933,
				"z": 1.8800530379,
				"element": "O" 
			},
			{
				"x": -1.4553516929,
				"y": -3.1125486955,
				"z": -1.089364072,
				"element": "H" 
			},
			{
				"x": 0.2172257455,
				"y": -3.209975092,
				"z": -1.6905943077,
				"element": "H" 
			},
			{
				"x": -0.5649065291,
				"y": -1.6344673907,
				"z": -1.5513639073,
				"element": "H" 
			},
			{
				"x": 0.2291386857,
				"y": -3.5162669388,
				"z": 0.7404933972,
				"element": "H" 
			},
			{
				"x": 1.2940287771,
				"y": 3.0765668715,
				"z": -0.0203656683,
				"element": "H" 
			},
			{
				"x": 2.7464617223,
				"y": 0.8186160482,
				"z": 2.2957832084,
				"element": "H" 
			},
			{
				"x": 1.002214397,
				"y": 0.5230086609,
				"z": 2.5470208688,
				"element": "H" 
			},
			{
				"x": 1.6085393556,
				"y": 2.1851290981,
				"z": 2.3133766424,
				"element": "H" 
			},
			{
				"x": -2.6949356591,
				"y": -2.1531257191,
				"z": 1.9523976106,
				"element": "H" 
			}
		],
		 "valence_orbital": [ 
			{
				"type": "occ",
				"energy": -0.29399,
				"method": "rhf"
			},
			{
				"type": "occ",
				"energy": -0.28718,
				"method": "rhf"
			},
			{
				"type": "occ",
				"energy": -0.26805,
				"method": "rhf"
			},
			{
				"type": "occ",
				"energy": -0.25099,
				"method": "rhf"
			},
			{
				"type": "occ",
				"energy": -0.24031,
				"method": "rhf"
			},
			{
				"type": "unocc",
				"energy": -0.01773,
				"method": "rhf"
			},
			{
				"type": "unocc",
				"energy": -0.00374,
				"method": "rhf"
			},
			{
				"type": "unocc",
				"energy": 0.03505,
				"method": "rhf"
			},
			{
				"type": "unocc",
				"energy": 0.05597,
				"method": "rhf"
			},
			{
				"type": "unocc",
				"energy": 0.06096,
				"method": "rhf"
			}
		],
		"cosmo_sigma_profile": { 
			"-0.025": 0.0,
			"-0.024": 0.0,
			"-0.023": 0.0,
			"-0.022": 0.0,
			"-0.021": 0.0,
			"-0.02": 0.0,
			"-0.019": 0.321473592629,
			"-0.018": 1.1545654489,
			"-0.017": 0.963086060383,
			"-0.016": 0.615007863243,
			"-0.015": 0.494212179256,
			"-0.014": 0.447962180295,
			"-0.013": 0.893113097738,
			"-0.012": 1.35674296524,
			"-0.011": 1.65405377317,
			"-0.01": 3.97674060351,
			"-0.009": 5.65428392417,
			"-0.008": 6.30214122098,
			"-0.007": 7.12936934671,
			"-0.006": 8.65307790845,
			"-0.005": 10.6990155238,
			"-0.004": 17.4362911777,
			"-0.003": 16.864109737,
			"-0.002": 13.0191360507,
			"-0.001": 13.4323455022,
			"0.0": 11.2949659646,
			"0.001": 8.99686841784,
			"0.002": 8.36099630436,
			"0.003": 9.48839870443,
			"0.004": 8.65997840717,
			"0.005": 8.66262806972,
			"0.006": 7.07535680248,
			"0.007": 6.50422240844,
			"0.008": 4.90842792726,
			"0.009": 4.42288958308,
			"0.01": 3.33669485959,
			"0.011": 4.09720289541,
			"0.012": 2.35922526503,
			"0.013": 3.52353399261,
			"0.014": 3.16379585692,
			"0.015": 2.31715992626,
			"0.016": 1.78429260403,
			"0.017": 0.436214382666,
			"0.018": 0.0,
			"0.019": 0.0,
			"0.02": 0.0,
			"0.021": 0.0,
			"0.022": 0.0,
			"0.023": 0.0,
			"0.024": 0.0,
			"0.025": 0.0
		}
	}
}
