{
	 "smiles": "CC12CCC3C(CCC4CCCCC34C)C1CCC2O", 
	 "Tm": 439.15, 
	 "num_atms": 52, 
	 "gaussian": { 
		 "optdone": 1, 
		 "sigma_profile": "yes", 
		 "theory": "DFT", 
		 "functional": "B3LYP", 
		 "basiset": "6-31G**", 
		 "properties": { 
			 "R2extent": 6335.1651, 
			 "electric_dipole_moment_norm": 1.23860955914, 
			 "electric_quadrupole_moment_norm": 8.52863241792, 
			 "total_energy": -818.544539056, 
			 "HOMO_LUMO_gap": 0.31259, 
			 "cosmo_polarized_energy": -6.04, 
			 "cosmo_cavitation_energy": 42.75, 
			 "cosmo_dispersion_energy": -30.52, 
			 "cosmo_repulsion_energy": 2.25, 
			 "cosmo_total_nonelectrostatic_energy": 14.47, 
			 "SMD_solvation_energy": 5.2 
		},
		"coords": [
			{
				"x": 3.0024616031,
				"y": -0.2979307637,
				"z": 0.8981481002,
				"element": "C" 
			},
			{
				"x": 1.6305857472,
				"y": -0.7741892428,
				"z": 1.4093600344,
				"element": "C" 
			},
			{
				"x": 1.0194055947,
				"y": 0.2752872283,
				"z": 2.3672043022,
				"element": "C" 
			},
			{
				"x": 0.5039905484,
				"y": 1.5164145837,
				"z": 1.6250455833,
				"element": "C" 
			},
			{
				"x": -0.5838650235,
				"y": 1.1927753143,
				"z": 0.5561296601,
				"element": "C" 
			},
			{
				"x": -0.7081574291,
				"y": -0.3490572314,
				"z": 0.34700055,
				"element": "C" 
			},
			{
				"x": -1.7309066223,
				"y": -0.7202295847,
				"z": -0.7698908366,
				"element": "C" 
			},
			{
				"x": -2.3836961575,
				"y": 0.4997646541,
				"z": -1.4327370875,
				"element": "C" 
			},
			{
				"x": -1.2697052008,
				"y": 1.4304925717,
				"z": -1.9321349559,
				"element": "C" 
			},
			{
				"x": -1.7177555981,
				"y": 2.4187218408,
				"z": -3.0356729878,
				"element": "C" 
			},
			{
				"x": -2.4285655501,
				"y": 3.6746450033,
				"z": -2.519717156,
				"element": "C" 
			},
			{
				"x": -1.5377988165,
				"y": 4.3959088851,
				"z": -1.5030961999,
				"element": "C" 
			},
			{
				"x": -1.2103324244,
				"y": 3.4533887719,
				"z": -0.3390186864,
				"element": "C" 
			},
			{
				"x": -0.5177666272,
				"y": 2.1130451324,
				"z": -0.7346431332,
				"element": "C" 
			},
			{
				"x": 0.9216192564,
				"y": 2.4085584925,
				"z": -1.2157055619,
				"element": "C" 
			},
			{
				"x": 0.6469498325,
				"y": -1.0834998671,
				"z": 0.2065015728,
				"element": "C" 
			},
			{
				"x": 0.4759367542,
				"y": -2.6281180618,
				"z": 0.226661898,
				"element": "C" 
			},
			{
				"x": 0.6301117174,
				"y": -3.0150850785,
				"z": 1.7001063932,
				"element": "C" 
			},
			{
				"x": 1.8093066001,
				"y": -2.1574354216,
				"z": 2.1457488381,
				"element": "C" 
			},
			{
				"x": 1.8527751174,
				"y": -2.0984772079,
				"z": 3.5655679752,
				"element": "O" 
			},
			{
				"x": 3.7204162332,
				"y": -0.206552929,
				"z": 1.7242869394,
				"element": "H" 
			},
			{
				"x": 3.4201490379,
				"y": -1.0108363531,
				"z": 0.1777580028,
				"element": "H" 
			},
			{
				"x": 2.9504362681,
				"y": 0.6760694184,
				"z": 0.4032228802,
				"element": "H" 
			},
			{
				"x": 0.2174331904,
				"y": -0.1819810876,
				"z": 2.9555602638,
				"element": "H" 
			},
			{
				"x": 1.7755793857,
				"y": 0.5840929075,
				"z": 3.0998946262,
				"element": "H" 
			},
			{
				"x": 0.1085915595,
				"y": 2.2335799935,
				"z": 2.3534804086,
				"element": "H" 
			},
			{
				"x": 1.3604729654,
				"y": 2.0131569147,
				"z": 1.1645209167,
				"element": "H" 
			},
			{
				"x": -1.5439041434,
				"y": 1.455033105,
				"z": 1.0150652252,
				"element": "H" 
			},
			{
				"x": -1.1412480313,
				"y": -0.7083779667,
				"z": 1.2886372047,
				"element": "H" 
			},
			{
				"x": -2.498278716,
				"y": -1.393428838,
				"z": -0.3708286932,
				"element": "H" 
			},
			{
				"x": -1.2199117225,
				"y": -1.2825704472,
				"z": -1.5625465192,
				"element": "H" 
			},
			{
				"x": -3.059411575,
				"y": 1.0161825365,
				"z": -0.7387793683,
				"element": "H" 
			},
			{
				"x": -3.0041380825,
				"y": 0.1670234181,
				"z": -2.2742898123,
				"element": "H" 
			},
			{
				"x": -0.5398803974,
				"y": 0.7635428136,
				"z": -2.4161915669,
				"element": "H" 
			},
			{
				"x": -2.3554022401,
				"y": 1.8804198182,
				"z": -3.7484013551,
				"element": "H" 
			},
			{
				"x": -0.8372075859,
				"y": 2.7402200153,
				"z": -3.6079665108,
				"element": "H" 
			},
			{
				"x": -2.6787030387,
				"y": 4.3342412295,
				"z": -3.359571033,
				"element": "H" 
			},
			{
				"x": -3.3803380288,
				"y": 3.4041867061,
				"z": -2.0411337581,
				"element": "H" 
			},
			{
				"x": -2.0362994737,
				"y": 5.2935896361,
				"z": -1.1171700618,
				"element": "H" 
			},
			{
				"x": -0.6194373506,
				"y": 4.7412512712,
				"z": -1.9969529005,
				"element": "H" 
			},
			{
				"x": -2.1575688578,
				"y": 3.2227798867,
				"z": 0.1676899416,
				"element": "H" 
			},
			{
				"x": -0.5877717782,
				"y": 3.9658402563,
				"z": 0.4056633417,
				"element": "H" 
			},
			{
				"x": 1.5022308294,
				"y": 1.4876126827,
				"z": -1.3286426615,
				"element": "H" 
			},
			{
				"x": 0.9090877233,
				"y": 2.9006092942,
				"z": -2.1926752054,
				"element": "H" 
			},
			{
				"x": 1.4672657093,
				"y": 3.0725271405,
				"z": -0.5387578303,
				"element": "H" 
			},
			{
				"x": 1.1069512719,
				"y": -0.7752532664,
				"z": -0.7412076672,
				"element": "H" 
			},
			{
				"x": 1.2746870444,
				"y": -3.1002570784,
				"z": -0.3596375906,
				"element": "H" 
			},
			{
				"x": -0.4702180064,
				"y": -2.9618291909,
				"z": -0.207660202,
				"element": "H" 
			},
			{
				"x": -0.2565367624,
				"y": -2.731998713,
				"z": 2.2806884955,
				"element": "H" 
			},
			{
				"x": 0.8011117077,
				"y": -4.0834707693,
				"z": 1.8633030116,
				"element": "H" 
			},
			{
				"x": 2.7360497299,
				"y": -2.6235605334,
				"z": 1.7702335985,
				"element": "H" 
			},
			{
				"x": 2.6533998127,
				"y": -1.6239218896,
				"z": 3.8234495778,
				"element": "H" 
			}
		],
		 "valence_orbital": [ 
			{
				"type": "occ",
				"energy": -0.29017,
				"method": "rhf"
			},
			{
				"type": "occ",
				"energy": -0.27504,
				"method": "rhf"
			},
			{
				"type": "occ",
				"energy": -0.26602,
				"method": "rhf"
			},
			{
				"type": "occ",
				"energy": -0.26379,
				"method": "rhf"
			},
			{
				"type": "occ",
				"energy": -0.25036,
				"method": "rhf"
			},
			{
				"type": "unocc",
				"energy": 0.06223,
				"method": "rhf"
			},
			{
				"type": "unocc",
				"energy": 0.0729,
				"method": "rhf"
			},
			{
				"type": "unocc",
				"energy": 0.0827,
				"method": "rhf"
			},
			{
				"type": "unocc",
				"energy": 0.09023,
				"method": "rhf"
			},
			{
				"type": "unocc",
				"energy": 0.10064,
				"method": "rhf"
			}
		],
		"cosmo_sigma_profile": { 
			"-0.025": 0.0,
			"-0.024": 0.0,
			"-0.023": 0.0,
			"-0.022": 0.0,
			"-0.021": 0.0,
			"-0.02": 0.0,
			"-0.019": 0.0,
			"-0.018": 0.0,
			"-0.017": 0.0,
			"-0.016": 0.0,
			"-0.015": 0.0,
			"-0.014": 0.97561489511,
			"-0.013": 0.689641338604,
			"-0.012": 0.622116281091,
			"-0.011": 0.812341253896,
			"-0.01": 1.35236775918,
			"-0.009": 1.29905478219,
			"-0.008": 1.35223707024,
			"-0.007": 0.881198595202,
			"-0.006": 1.22581739544,
			"-0.005": 1.80572676909,
			"-0.004": 1.85192743244,
			"-0.003": 6.89166046733,
			"-0.002": 46.8201831613,
			"-0.001": 75.2988854871,
			"0.0": 69.569859184,
			"0.001": 59.5205028451,
			"0.002": 32.9939713089,
			"0.003": 3.52753788115,
			"0.004": 1.89322988774,
			"0.005": 1.79940068938,
			"0.006": 1.1366744954,
			"0.007": 1.63599223573,
			"0.008": 1.43411994308,
			"0.009": 1.02078723739,
			"0.01": 1.51566666844,
			"0.011": 0.986880681571,
			"0.012": 1.46173455913,
			"0.013": 1.52764657609,
			"0.014": 1.64065976542,
			"0.015": 1.08115396024,
			"0.016": 0.0,
			"0.017": 0.0,
			"0.018": 0.0,
			"0.019": 0.0,
			"0.02": 0.0,
			"0.021": 0.0,
			"0.022": 0.0,
			"0.023": 0.0,
			"0.024": 0.0,
			"0.025": 0.0
		}
	}
}
