{
	 "smiles": "NC(COC1=C(Cl)C=C(Cl)C=C1)=NO", 
	 "Tm": 415.15, 
	 "num_atms": 22, 
	 "gaussian": { 
		 "optdone": 1, 
		 "sigma_profile": "yes", 
		 "theory": "DFT", 
		 "functional": "B3LYP", 
		 "basiset": "6-31G**", 
		 "properties": { 
			 "R2extent": 5833.7046, 
			 "electric_dipole_moment_norm": 2.19077252585, 
			 "electric_quadrupole_moment_norm": 7.25266864609, 
			 "total_energy": -1489.94366478, 
			 "HOMO_LUMO_gap": 0.20067, 
			 "cosmo_polarized_energy": -12.0, 
			 "cosmo_cavitation_energy": 30.42, 
			 "cosmo_dispersion_energy": -22.19, 
			 "cosmo_repulsion_energy": 1.8, 
			 "cosmo_total_nonelectrostatic_energy": 10.03, 
			 "SMD_solvation_energy": 4.94 
		},
		"coords": [
			{
				"x": 0.6897461778,
				"y": 0.0102900406,
				"z": -2.5212954079,
				"element": "N" 
			},
			{
				"x": 0.6235563669,
				"y": 0.7431420316,
				"z": -1.36564733,
				"element": "C" 
			},
			{
				"x": 1.7827642464,
				"y": 0.6201633861,
				"z": -0.4085897205,
				"element": "C" 
			},
			{
				"x": 2.1009419926,
				"y": -0.7442920148,
				"z": -0.1133250337,
				"element": "O" 
			},
			{
				"x": 1.342011385,
				"y": -1.426682093,
				"z": 0.7912805369,
				"element": "C" 
			},
			{
				"x": 1.7857057927,
				"y": -2.7175573948,
				"z": 1.1362604787,
				"element": "C" 
			},
			{
				"x": 3.2345576101,
				"y": -3.3609676557,
				"z": 0.3946261456,
				"element": "Cl" 
			},
			{
				"x": 1.0940542023,
				"y": -3.4948336491,
				"z": 2.0595147985,
				"element": "C" 
			},
			{
				"x": -0.0604140697,
				"y": -2.9808166988,
				"z": 2.6497273988,
				"element": "C" 
			},
			{
				"x": -0.9355871581,
				"y": -3.9588145758,
				"z": 3.8175109789,
				"element": "Cl" 
			},
			{
				"x": -0.524237974,
				"y": -1.7116385408,
				"z": 2.3196340702,
				"element": "C" 
			},
			{
				"x": 0.1742809721,
				"y": -0.938981816,
				"z": 1.3903718403,
				"element": "C" 
			},
			{
				"x": -0.2997037543,
				"y": 1.5866443782,
				"z": -1.0493401249,
				"element": "N" 
			},
			{
				"x": -1.2802835864,
				"y": 1.619686121,
				"z": -2.0797720962,
				"element": "O" 
			},
			{
				"x": -0.1716675073,
				"y": -0.0428592628,
				"z": -3.04645458,
				"element": "H" 
			},
			{
				"x": 1.2360658764,
				"y": -0.8380682607,
				"z": -2.4759063169,
				"element": "H" 
			},
			{
				"x": 1.5753846013,
				"y": 1.19760573,
				"z": 0.4963280481,
				"element": "H" 
			},
			{
				"x": 2.692454157,
				"y": 1.0072232172,
				"z": -0.8767912547,
				"element": "H" 
			},
			{
				"x": 1.4558687242,
				"y": -4.4837003886,
				"z": 2.3130259326,
				"element": "H" 
			},
			{
				"x": -1.4280544035,
				"y": -1.3249505344,
				"z": 2.7764073967,
				"element": "H" 
			},
			{
				"x": -0.2127661567,
				"y": 0.034980307,
				"z": 1.1165155615,
				"element": "H" 
			},
			{
				"x": -1.9181774945,
				"y": 2.2550276737,
				"z": -1.7327813221,
				"element": "H" 
			}
		],
		 "valence_orbital": [ 
			{
				"type": "occ",
				"energy": -0.31246,
				"method": "rhf"
			},
			{
				"type": "occ",
				"energy": -0.2867,
				"method": "rhf"
			},
			{
				"type": "occ",
				"energy": -0.26244,
				"method": "rhf"
			},
			{
				"type": "occ",
				"energy": -0.23207,
				"method": "rhf"
			},
			{
				"type": "occ",
				"energy": -0.22634,
				"method": "rhf"
			},
			{
				"type": "unocc",
				"energy": -0.02567,
				"method": "rhf"
			},
			{
				"type": "unocc",
				"energy": -0.01169,
				"method": "rhf"
			},
			{
				"type": "unocc",
				"energy": 0.00672,
				"method": "rhf"
			},
			{
				"type": "unocc",
				"energy": 0.01572,
				"method": "rhf"
			},
			{
				"type": "unocc",
				"energy": 0.05092,
				"method": "rhf"
			}
		],
		"cosmo_sigma_profile": { 
			"-0.025": 0.0,
			"-0.024": 0.0,
			"-0.023": 0.0,
			"-0.022": 0.0,
			"-0.021": 0.0,
			"-0.02": 0.0,
			"-0.019": 0.0,
			"-0.018": 0.0,
			"-0.017": 0.317933070949,
			"-0.016": 1.18607145293,
			"-0.015": 0.890588013354,
			"-0.014": 0.599315352878,
			"-0.013": 1.16967670275,
			"-0.012": 3.00081222153,
			"-0.011": 2.0019364174,
			"-0.01": 2.69206414715,
			"-0.009": 2.73813828503,
			"-0.008": 6.00644145447,
			"-0.007": 10.2718815447,
			"-0.006": 10.4287191365,
			"-0.005": 12.0978496374,
			"-0.004": 9.58892029646,
			"-0.003": 9.60617552008,
			"-0.002": 11.4568051385,
			"-0.001": 13.9676635451,
			"0.0": 16.8409805439,
			"0.001": 25.5164125065,
			"0.002": 25.288837284,
			"0.003": 20.3010574719,
			"0.004": 20.3892878758,
			"0.005": 12.0798102629,
			"0.006": 6.1733536428,
			"0.007": 6.60242944527,
			"0.008": 4.64164112111,
			"0.009": 4.15299553678,
			"0.01": 3.47107539548,
			"0.011": 1.44218195247,
			"0.012": 0.844202090349,
			"0.013": 0.683031046344,
			"0.014": 0.561018192452,
			"0.015": 0.0647283968698,
			"0.016": 0.0,
			"0.017": 0.0,
			"0.018": 0.0,
			"0.019": 0.0,
			"0.02": 0.0,
			"0.021": 0.0,
			"0.022": 0.0,
			"0.023": 0.0,
			"0.024": 0.0,
			"0.025": 0.0
		}
	}
}
