{
	 "smiles": "CC(C)(C)OC(=O)NC(CC(O)=O)C1=CC=CC=C1", 
	 "Tm": 409.15, 
	 "num_atms": 38, 
	 "gaussian": { 
		 "optdone": 1, 
		 "sigma_profile": "yes", 
		 "theory": "DFT", 
		 "functional": "B3LYP", 
		 "basiset": "6-31G**", 
		 "properties": { 
			 "R2extent": 5851.2331, 
			 "electric_dipole_moment_norm": 3.59565463859, 
			 "electric_quadrupole_moment_norm": 20.8742512196, 
			 "total_energy": -900.63250408, 
			 "HOMO_LUMO_gap": 0.23502, 
			 "cosmo_polarized_energy": -20.05, 
			 "cosmo_cavitation_energy": 40.46, 
			 "cosmo_dispersion_energy": -26.59, 
			 "cosmo_repulsion_energy": 2.07, 
			 "cosmo_total_nonelectrostatic_energy": 15.93, 
			 "SMD_solvation_energy": 8.38 
		},
		"coords": [
			{
				"x": 1.9661707405,
				"y": 0.9183418438,
				"z": 2.6297359121,
				"element": "C" 
			},
			{
				"x": 1.4819096442,
				"y": 1.6909129984,
				"z": 1.3983204365,
				"element": "C" 
			},
			{
				"x": 0.4095488167,
				"y": 2.7119139267,
				"z": 1.78819408,
				"element": "C" 
			},
			{
				"x": 2.633204571,
				"y": 2.3729340015,
				"z": 0.6517330726,
				"element": "C" 
			},
			{
				"x": 0.752116522,
				"y": 0.7894106384,
				"z": 0.4861431137,
				"element": "O" 
			},
			{
				"x": 1.3890768022,
				"y": -0.2553267955,
				"z": -0.103808733,
				"element": "C" 
			},
			{
				"x": 2.5492776911,
				"y": -0.5813745742,
				"z": 0.0900209525,
				"element": "O" 
			},
			{
				"x": 0.5816693324,
				"y": -0.9200127154,
				"z": -0.9899387754,
				"element": "N" 
			},
			{
				"x": -0.849311599,
				"y": -0.8021064119,
				"z": -1.2963035351,
				"element": "C" 
			},
			{
				"x": -1.296567434,
				"y": 0.6597059892,
				"z": -1.4994578393,
				"element": "C" 
			},
			{
				"x": -2.4968034316,
				"y": 0.7569575228,
				"z": -2.4367364073,
				"element": "C" 
			},
			{
				"x": -3.2020422373,
				"y": 1.9136984996,
				"z": -2.3569765807,
				"element": "O" 
			},
			{
				"x": -2.8100142015,
				"y": -0.0837659899,
				"z": -3.2442446683,
				"element": "O" 
			},
			{
				"x": -1.7646800704,
				"y": -1.5636318446,
				"z": -0.3349894652,
				"element": "C" 
			},
			{
				"x": -1.6046382087,
				"y": -1.4908109954,
				"z": 1.0557438226,
				"element": "C" 
			},
			{
				"x": -2.4647551823,
				"y": -2.1864043913,
				"z": 1.905706558,
				"element": "C" 
			},
			{
				"x": -3.5000329512,
				"y": -2.9624976312,
				"z": 1.3798453066,
				"element": "C" 
			},
			{
				"x": -3.669366803,
				"y": -3.0374329922,
				"z": -0.0027629529,
				"element": "C" 
			},
			{
				"x": -2.8062864257,
				"y": -2.3442432238,
				"z": -0.8538246425,
				"element": "C" 
			},
			{
				"x": 1.1249195527,
				"y": 0.4260103435,
				"z": 3.1283893325,
				"element": "H" 
			},
			{
				"x": 2.4195282905,
				"y": 1.6145128051,
				"z": 3.3429126386,
				"element": "H" 
			},
			{
				"x": 2.7038609535,
				"y": 0.1659886795,
				"z": 2.3518127692,
				"element": "H" 
			},
			{
				"x": -0.4390956186,
				"y": 2.2187773473,
				"z": 2.2716352286,
				"element": "H" 
			},
			{
				"x": 0.0454014336,
				"y": 3.2490730693,
				"z": 0.9069529767,
				"element": "H" 
			},
			{
				"x": 0.8256374181,
				"y": 3.4437802669,
				"z": 2.4866108321,
				"element": "H" 
			},
			{
				"x": 3.0926034812,
				"y": 3.1274387183,
				"z": 1.2984193717,
				"element": "H" 
			},
			{
				"x": 3.3929757222,
				"y": 1.6482191933,
				"z": 0.3594988207,
				"element": "H" 
			},
			{
				"x": 2.259854165,
				"y": 2.8782168587,
				"z": -0.2449761477,
				"element": "H" 
			},
			{
				"x": 1.0362844619,
				"y": -1.7530748548,
				"z": -1.3350888111,
				"element": "H" 
			},
			{
				"x": -0.9604004299,
				"y": -1.2688249863,
				"z": -2.2792183367,
				"element": "H" 
			},
			{
				"x": -1.5111923007,
				"y": 1.1400899132,
				"z": -0.5416390265,
				"element": "H" 
			},
			{
				"x": -0.4806181905,
				"y": 1.2275777277,
				"z": -1.9641080765,
				"element": "H" 
			},
			{
				"x": -2.8476219976,
				"y": 2.4726821823,
				"z": -1.6510528948,
				"element": "H" 
			},
			{
				"x": -0.8049183434,
				"y": -0.8896168723,
				"z": 1.4744826316,
				"element": "H" 
			},
			{
				"x": -2.3243288383,
				"y": -2.1238480387,
				"z": 2.9813589716,
				"element": "H" 
			},
			{
				"x": -4.1672169875,
				"y": -3.5053739264,
				"z": 2.043285308,
				"element": "H" 
			},
			{
				"x": -4.4702083908,
				"y": -3.6391723806,
				"z": -0.4230810281,
				"element": "H" 
			},
			{
				"x": -2.9474399567,
				"y": -2.3954239009,
				"z": -1.9292942149,
				"element": "H" 
			}
		],
		 "valence_orbital": [ 
			{
				"type": "occ",
				"energy": -0.27952,
				"method": "rhf"
			},
			{
				"type": "occ",
				"energy": -0.26788,
				"method": "rhf"
			},
			{
				"type": "occ",
				"energy": -0.26144,
				"method": "rhf"
			},
			{
				"type": "occ",
				"energy": -0.25028,
				"method": "rhf"
			},
			{
				"type": "occ",
				"energy": -0.24312,
				"method": "rhf"
			},
			{
				"type": "unocc",
				"energy": -0.0081,
				"method": "rhf"
			},
			{
				"type": "unocc",
				"energy": -0.00286,
				"method": "rhf"
			},
			{
				"type": "unocc",
				"energy": 0.00463,
				"method": "rhf"
			},
			{
				"type": "unocc",
				"energy": 0.04658,
				"method": "rhf"
			},
			{
				"type": "unocc",
				"energy": 0.0503,
				"method": "rhf"
			}
		],
		"cosmo_sigma_profile": { 
			"-0.025": 0.0,
			"-0.024": 0.0,
			"-0.023": 0.0,
			"-0.022": 0.0,
			"-0.021": 0.0,
			"-0.02": 0.0,
			"-0.019": 0.397521718475,
			"-0.018": 1.33689466194,
			"-0.017": 1.07760450739,
			"-0.016": 0.984653347773,
			"-0.015": 1.04914782387,
			"-0.014": 2.24642511945,
			"-0.013": 2.18221498688,
			"-0.012": 1.91951748806,
			"-0.011": 1.90525717973,
			"-0.01": 2.11326615514,
			"-0.009": 1.86621370747,
			"-0.008": 3.50679536404,
			"-0.007": 4.41624782355,
			"-0.006": 6.48606708035,
			"-0.005": 11.4554916225,
			"-0.004": 24.2624600323,
			"-0.003": 32.440479582,
			"-0.002": 28.3478960519,
			"-0.001": 28.1132710862,
			"0.0": 32.3962866817,
			"0.001": 27.0229578449,
			"0.002": 16.0558120163,
			"0.003": 14.5561694047,
			"0.004": 11.9047279195,
			"0.005": 11.7944890437,
			"0.006": 10.8243484282,
			"0.007": 4.67978581506,
			"0.008": 4.71144048313,
			"0.009": 4.45554296067,
			"0.01": 5.53306437786,
			"0.011": 6.13451408604,
			"0.012": 4.66189342203,
			"0.013": 4.66926580203,
			"0.014": 2.14261730877,
			"0.015": 0.0177492364309,
			"0.016": 0.0,
			"0.017": 0.0,
			"0.018": 0.0,
			"0.019": 0.0,
			"0.02": 0.0,
			"0.021": 0.0,
			"0.022": 0.0,
			"0.023": 0.0,
			"0.024": 0.0,
			"0.025": 0.0
		}
	}
}
