{
	 "smiles": "OC1CCC(O)C1", 
	 "Tm": 313.15, 
	 "num_atms": 17, 
	 "gaussian": { 
		 "optdone": 1, 
		 "sigma_profile": "yes", 
		 "theory": "DFT", 
		 "functional": "B3LYP", 
		 "basiset": "6-31G**", 
		 "properties": { 
			 "R2extent": 1142.773, 
			 "electric_dipole_moment_norm": 2.13208810794, 
			 "electric_quadrupole_moment_norm": 11.2994671202, 
			 "total_energy": -346.990897379, 
			 "HOMO_LUMO_gap": 0.32018, 
			 "cosmo_polarized_energy": -10.28, 
			 "cosmo_cavitation_energy": 18.69, 
			 "cosmo_dispersion_energy": -14.34, 
			 "cosmo_repulsion_energy": 1.24, 
			 "cosmo_total_nonelectrostatic_energy": 5.59, 
			 "SMD_solvation_energy": 2.81 
		},
		"coords": [
			{
				"x": -1.7696460967,
				"y": -1.9548506545,
				"z": -0.9716198396,
				"element": "O" 
			},
			{
				"x": -1.6652817349,
				"y": -0.8999300763,
				"z": -0.0247297953,
				"element": "C" 
			},
			{
				"x": -0.2106644883,
				"y": -0.7830565036,
				"z": 0.4566042115,
				"element": "C" 
			},
			{
				"x": -0.0327392886,
				"y": 0.6951647256,
				"z": 0.8919897792,
				"element": "C" 
			},
			{
				"x": -1.3187522956,
				"y": 1.4377129672,
				"z": 0.4542309976,
				"element": "C" 
			},
			{
				"x": -2.1412706061,
				"y": 1.5616621749,
				"z": 1.6199766529,
				"element": "O" 
			},
			{
				"x": -1.9581478862,
				"y": 0.5036539189,
				"z": -0.583736307,
				"element": "C" 
			},
			{
				"x": -2.7042899139,
				"y": -2.0768277504,
				"z": -1.1804976126,
				"element": "H" 
			},
			{
				"x": -2.3248486655,
				"y": -1.0822831436,
				"z": 0.8364926493,
				"element": "H" 
			},
			{
				"x": 0.4343825831,
				"y": -1.0230747276,
				"z": -0.3960283637,
				"element": "H" 
			},
			{
				"x": 0.0215969724,
				"y": -1.4975248255,
				"z": 1.2505556226,
				"element": "H" 
			},
			{
				"x": 0.0788284921,
				"y": 0.8079391402,
				"z": 1.9734045673,
				"element": "H" 
			},
			{
				"x": 0.8493910473,
				"y": 1.1428031176,
				"z": 0.424689987,
				"element": "H" 
			},
			{
				"x": -1.099435827,
				"y": 2.4332614266,
				"z": 0.0415239833,
				"element": "H" 
			},
			{
				"x": -2.9696469412,
				"y": 1.9810660176,
				"z": 1.3524650932,
				"element": "H" 
			},
			{
				"x": -1.4500543808,
				"y": 0.6041308045,
				"z": -1.5515476853,
				"element": "H" 
			},
			{
				"x": -3.0246209703,
				"y": 0.7089533885,
				"z": -0.7413739402,
				"element": "H" 
			}
		],
		 "valence_orbital": [ 
			{
				"type": "occ",
				"energy": -0.33229,
				"method": "rhf"
			},
			{
				"type": "occ",
				"energy": -0.31759,
				"method": "rhf"
			},
			{
				"type": "occ",
				"energy": -0.3029,
				"method": "rhf"
			},
			{
				"type": "occ",
				"energy": -0.27745,
				"method": "rhf"
			},
			{
				"type": "occ",
				"energy": -0.24852,
				"method": "rhf"
			},
			{
				"type": "unocc",
				"energy": 0.07166,
				"method": "rhf"
			},
			{
				"type": "unocc",
				"energy": 0.07691,
				"method": "rhf"
			},
			{
				"type": "unocc",
				"energy": 0.11167,
				"method": "rhf"
			},
			{
				"type": "unocc",
				"energy": 0.11457,
				"method": "rhf"
			},
			{
				"type": "unocc",
				"energy": 0.1539,
				"method": "rhf"
			}
		],
		"cosmo_sigma_profile": { 
			"-0.025": 0.0,
			"-0.024": 0.0,
			"-0.023": 0.0,
			"-0.022": 0.0,
			"-0.021": 0.0,
			"-0.02": 0.0,
			"-0.019": 0.0,
			"-0.018": 0.0,
			"-0.017": 0.0,
			"-0.016": 0.0163285027295,
			"-0.015": 1.76075943222,
			"-0.014": 1.81294244251,
			"-0.013": 2.02662714268,
			"-0.012": 1.23871793144,
			"-0.011": 1.95466115196,
			"-0.01": 2.67225046287,
			"-0.009": 1.33577748939,
			"-0.008": 1.68032355314,
			"-0.007": 1.35535470972,
			"-0.006": 2.10257825297,
			"-0.005": 3.51348858536,
			"-0.004": 4.67884399757,
			"-0.003": 16.2740506249,
			"-0.002": 20.7437872678,
			"-0.001": 15.3587656025,
			"0.0": 13.0720127197,
			"0.001": 11.4007043035,
			"0.002": 5.22886987003,
			"0.003": 2.71600958217,
			"0.004": 3.38982351301,
			"0.005": 2.86229682524,
			"0.006": 3.20360081851,
			"0.007": 2.47307066868,
			"0.008": 2.38455742571,
			"0.009": 2.60917697454,
			"0.01": 2.57102192823,
			"0.011": 2.58104072896,
			"0.012": 2.56471743707,
			"0.013": 2.39007839872,
			"0.014": 4.52086180499,
			"0.015": 1.06522259224,
			"0.016": 0.0,
			"0.017": 0.0,
			"0.018": 0.0,
			"0.019": 0.0,
			"0.02": 0.0,
			"0.021": 0.0,
			"0.022": 0.0,
			"0.023": 0.0,
			"0.024": 0.0,
			"0.025": 0.0
		}
	}
}
