{
	 "smiles": "SC1=CC=C2C=CC=CC2=C1", 
	 "Tm": 354.15, 
	 "num_atms": 19, 
	 "gaussian": { 
		 "optdone": 1, 
		 "sigma_profile": "yes", 
		 "theory": "DFT", 
		 "functional": "B3LYP", 
		 "basiset": "6-31G**", 
		 "properties": { 
			 "R2extent": 2600.8921, 
			 "electric_dipole_moment_norm": 1.40143173219, 
			 "electric_quadrupole_moment_norm": 11.4375258085, 
			 "total_energy": -784.081236236, 
			 "HOMO_LUMO_gap": 0.16815, 
			 "cosmo_polarized_energy": -6.73, 
			 "cosmo_cavitation_energy": 24.29, 
			 "cosmo_dispersion_energy": -18.7, 
			 "cosmo_repulsion_energy": 1.42, 
			 "cosmo_total_nonelectrostatic_energy": 7.01, 
			 "SMD_solvation_energy": 3.34 
		},
		"coords": [
			{
				"x": -0.4135376339,
				"y": 1.9644267719,
				"z": 3.4626542908,
				"element": "S" 
			},
			{
				"x": -0.1980374674,
				"y": 1.4799816608,
				"z": 1.7536153159,
				"element": "C" 
			},
			{
				"x": 1.0794706896,
				"y": 1.5086848291,
				"z": 1.1292698582,
				"element": "C" 
			},
			{
				"x": 1.2105859271,
				"y": 1.1682300031,
				"z": -0.1959123689,
				"element": "C" 
			},
			{
				"x": 0.0830342991,
				"y": 0.8005407847,
				"z": -0.9785591564,
				"element": "C" 
			},
			{
				"x": 0.1885426041,
				"y": 0.4529263534,
				"z": -2.3511446991,
				"element": "C" 
			},
			{
				"x": -0.9280071008,
				"y": 0.1009559771,
				"z": -3.0765236718,
				"element": "C" 
			},
			{
				"x": -2.2022308257,
				"y": 0.080338855,
				"z": -2.4575985464,
				"element": "C" 
			},
			{
				"x": -2.337450841,
				"y": 0.4118546103,
				"z": -1.1280081189,
				"element": "C" 
			},
			{
				"x": -1.204988139,
				"y": 0.7816001483,
				"z": -0.3522504902,
				"element": "C" 
			},
			{
				"x": -1.3119500263,
				"y": 1.1185239675,
				"z": 1.0230065415,
				"element": "C" 
			},
			{
				"x": 0.8427286022,
				"y": 1.6959534593,
				"z": 3.8679345687,
				"element": "H" 
			},
			{
				"x": 1.9527303388,
				"y": 1.8052012064,
				"z": 1.7025224272,
				"element": "H" 
			},
			{
				"x": 2.1914297275,
				"y": 1.1859983978,
				"z": -0.6642459683,
				"element": "H" 
			},
			{
				"x": 1.1685523694,
				"y": 0.4697195754,
				"z": -2.821368601,
				"element": "H" 
			},
			{
				"x": -0.8360787349,
				"y": -0.1626353913,
				"z": -4.1260775256,
				"element": "H" 
			},
			{
				"x": -3.0761071733,
				"y": -0.1993404992,
				"z": -3.0389777777,
				"element": "H" 
			},
			{
				"x": -3.3149783235,
				"y": 0.3956496711,
				"z": -0.6530505052,
				"element": "H" 
			},
			{
				"x": -2.2892082921,
				"y": 1.0795896193,
				"z": 1.4966144272,
				"element": "H" 
			}
		],
		 "valence_orbital": [ 
			{
				"type": "occ",
				"energy": -0.32952,
				"method": "rhf"
			},
			{
				"type": "occ",
				"energy": -0.29242,
				"method": "rhf"
			},
			{
				"type": "occ",
				"energy": -0.27191,
				"method": "rhf"
			},
			{
				"type": "occ",
				"energy": -0.23294,
				"method": "rhf"
			},
			{
				"type": "occ",
				"energy": -0.20982,
				"method": "rhf"
			},
			{
				"type": "unocc",
				"energy": -0.04167,
				"method": "rhf"
			},
			{
				"type": "unocc",
				"energy": -0.0146,
				"method": "rhf"
			},
			{
				"type": "unocc",
				"energy": 0.01979,
				"method": "rhf"
			},
			{
				"type": "unocc",
				"energy": 0.02878,
				"method": "rhf"
			},
			{
				"type": "unocc",
				"energy": 0.06987,
				"method": "rhf"
			}
		],
		"cosmo_sigma_profile": { 
			"-0.025": 0.0,
			"-0.024": 0.0,
			"-0.023": 0.0,
			"-0.022": 0.0,
			"-0.021": 0.0,
			"-0.02": 0.0,
			"-0.019": 0.0,
			"-0.018": 0.0,
			"-0.017": 0.0,
			"-0.016": 0.0,
			"-0.015": 0.0,
			"-0.014": 0.0,
			"-0.013": 0.0,
			"-0.012": 0.0,
			"-0.011": 0.301657845079,
			"-0.01": 2.4981211504,
			"-0.009": 1.93859704437,
			"-0.008": 2.98405403775,
			"-0.007": 2.87988155088,
			"-0.006": 13.992750409,
			"-0.005": 15.9030467236,
			"-0.004": 14.2242296253,
			"-0.003": 13.6444766097,
			"-0.002": 9.50649520099,
			"-0.001": 10.2247132998,
			"0.0": 10.0766713219,
			"0.001": 10.0203206761,
			"0.002": 13.5672858894,
			"0.003": 16.1701517687,
			"0.004": 31.1053851865,
			"0.005": 16.5494810158,
			"0.006": 4.63306124747,
			"0.007": 2.69569932038,
			"0.008": 2.84073079159,
			"0.009": 1.56874900627,
			"0.01": 0.0552188980695,
			"0.011": 0.0,
			"0.012": 0.0,
			"0.013": 0.0,
			"0.014": 0.0,
			"0.015": 0.0,
			"0.016": 0.0,
			"0.017": 0.0,
			"0.018": 0.0,
			"0.019": 0.0,
			"0.02": 0.0,
			"0.021": 0.0,
			"0.022": 0.0,
			"0.023": 0.0,
			"0.024": 0.0,
			"0.025": 0.0
		}
	}
}
