{
	 "smiles": "OC(=O)C1=CC2=C(C=C1)C1=CC=C(C=C1C2=O)C(O)=O", 
	 "Tm": 680.15, 
	 "num_atms": 28, 
	 "gaussian": { 
		 "optdone": 1, 
		 "sigma_profile": "yes", 
		 "theory": "DFT", 
		 "functional": "B3LYP", 
		 "basiset": "6-31G**", 
		 "properties": { 
			 "R2extent": 8739.7147, 
			 "electric_dipole_moment_norm": 3.38090916471, 
			 "electric_quadrupole_moment_norm": 31.8402876619, 
			 "total_energy": -952.57223125, 
			 "HOMO_LUMO_gap": 0.14436, 
			 "cosmo_polarized_energy": -22.59, 
			 "cosmo_cavitation_energy": 34.81, 
			 "cosmo_dispersion_energy": -25.18, 
			 "cosmo_repulsion_energy": 1.87, 
			 "cosmo_total_nonelectrostatic_energy": 11.5, 
			 "SMD_solvation_energy": 8.4 
		},
		"coords": [
			{
				"x": -6.6468173217,
				"y": -1.3147362754,
				"z": -0.2122261512,
				"element": "O" 
			},
			{
				"x": -5.9407896986,
				"y": -0.1964206819,
				"z": -0.518796431,
				"element": "C" 
			},
			{
				"x": -6.5101741751,
				"y": 0.7809007398,
				"z": -0.9448817378,
				"element": "O" 
			},
			{
				"x": -4.4561756506,
				"y": -0.2468500952,
				"z": -0.3023104285,
				"element": "C" 
			},
			{
				"x": -3.828848242,
				"y": -1.1974375919,
				"z": 0.5228596009,
				"element": "C" 
			},
			{
				"x": -2.4530530633,
				"y": -1.1445779869,
				"z": 0.6648627271,
				"element": "C" 
			},
			{
				"x": -1.6754956543,
				"y": -0.1685990227,
				"z": 0.011175938,
				"element": "C" 
			},
			{
				"x": -2.2925220725,
				"y": 0.7835116155,
				"z": -0.79645911,
				"element": "C" 
			},
			{
				"x": -3.6823102759,
				"y": 0.7379933311,
				"z": -0.9382458519,
				"element": "C" 
			},
			{
				"x": -0.2542428337,
				"y": -0.3852843425,
				"z": 0.3674017097,
				"element": "C" 
			},
			{
				"x": 0.9012214611,
				"y": 0.2933442104,
				"z": -0.008698483,
				"element": "C" 
			},
			{
				"x": 2.1267485566,
				"y": -0.1491377334,
				"z": 0.4988669309,
				"element": "C" 
			},
			{
				"x": 2.2035600846,
				"y": -1.2490638717,
				"z": 1.3670596186,
				"element": "C" 
			},
			{
				"x": 1.0358617864,
				"y": -1.9350849608,
				"z": 1.7473146129,
				"element": "C" 
			},
			{
				"x": -0.1734509218,
				"y": -1.4908834697,
				"z": 1.2409115451,
				"element": "C" 
			},
			{
				"x": -1.552647861,
				"y": -2.02824823,
				"z": 1.476699334,
				"element": "C" 
			},
			{
				"x": -1.8785291529,
				"y": -2.9744104365,
				"z": 2.1694431927,
				"element": "O" 
			},
			{
				"x": 3.5515335294,
				"y": -1.6476729634,
				"z": 1.8567821957,
				"element": "C" 
			},
			{
				"x": 3.5139056881,
				"y": -2.7171179233,
				"z": 2.6867809811,
				"element": "O" 
			},
			{
				"x": 4.588608133,
				"y": -1.0896793411,
				"z": 1.5583203918,
				"element": "O" 
			},
			{
				"x": -6.0539749188,
				"y": -2.0563188588,
				"z": -0.0286370315,
				"element": "H" 
			},
			{
				"x": -4.3828458408,
				"y": -1.950219536,
				"z": 1.0791145298,
				"element": "H" 
			},
			{
				"x": -1.7189476423,
				"y": 1.5517547658,
				"z": -1.3060927406,
				"element": "H" 
			},
			{
				"x": -4.2016387247,
				"y": 1.4699398982,
				"z": -1.5475256451,
				"element": "H" 
			},
			{
				"x": 0.8649207071,
				"y": 1.1465248838,
				"z": -0.6791824277,
				"element": "H" 
			},
			{
				"x": 3.0512295673,
				"y": 0.3514190437,
				"z": 0.2309605433,
				"element": "H" 
			},
			{
				"x": 1.0791853539,
				"y": -2.7863708414,
				"z": 2.4173744475,
				"element": "H" 
			},
			{
				"x": 4.4343891827,
				"y": -2.8901743257,
				"z": 2.9442277391,
				"element": "H" 
			}
		],
		 "valence_orbital": [ 
			{
				"type": "occ",
				"energy": -0.29045,
				"method": "rhf"
			},
			{
				"type": "occ",
				"energy": -0.28519,
				"method": "rhf"
			},
			{
				"type": "occ",
				"energy": -0.28419,
				"method": "rhf"
			},
			{
				"type": "occ",
				"energy": -0.27069,
				"method": "rhf"
			},
			{
				"type": "occ",
				"energy": -0.25479,
				"method": "rhf"
			},
			{
				"type": "unocc",
				"energy": -0.11043,
				"method": "rhf"
			},
			{
				"type": "unocc",
				"energy": -0.07989,
				"method": "rhf"
			},
			{
				"type": "unocc",
				"energy": -0.04281,
				"method": "rhf"
			},
			{
				"type": "unocc",
				"energy": -0.02585,
				"method": "rhf"
			},
			{
				"type": "unocc",
				"energy": 0.00264,
				"method": "rhf"
			}
		],
		"cosmo_sigma_profile": { 
			"-0.025": 0.0,
			"-0.024": 0.0,
			"-0.023": 0.0,
			"-0.022": 0.0,
			"-0.021": 0.0,
			"-0.02": 0.136773560154,
			"-0.019": 0.871536182694,
			"-0.018": 1.93858220807,
			"-0.017": 1.9390595126,
			"-0.016": 2.0312302355,
			"-0.015": 1.68570260061,
			"-0.014": 1.49022694669,
			"-0.013": 1.58818204065,
			"-0.012": 1.88911928013,
			"-0.011": 2.75435113085,
			"-0.01": 1.31150293223,
			"-0.009": 2.24324880034,
			"-0.008": 6.63123054905,
			"-0.007": 10.8298967621,
			"-0.006": 10.3198026288,
			"-0.005": 9.99887011774,
			"-0.004": 13.925462644,
			"-0.003": 15.5801607462,
			"-0.002": 21.1177480858,
			"-0.001": 25.5482799723,
			"0.0": 29.7590887695,
			"0.001": 28.9284940145,
			"0.002": 10.7238651075,
			"0.003": 6.00437272847,
			"0.004": 6.60110062122,
			"0.005": 6.01512261313,
			"0.006": 6.598541215,
			"0.007": 7.22652676098,
			"0.008": 5.92437414663,
			"0.009": 7.31846690214,
			"0.01": 10.495024405,
			"0.011": 13.9158797749,
			"0.012": 6.80272020229,
			"0.013": 0.951698365131,
			"0.014": 0.0,
			"0.015": 0.0,
			"0.016": 0.0,
			"0.017": 0.0,
			"0.018": 0.0,
			"0.019": 0.0,
			"0.02": 0.0,
			"0.021": 0.0,
			"0.022": 0.0,
			"0.023": 0.0,
			"0.024": 0.0,
			"0.025": 0.0
		}
	}
}
