{
	 "smiles": "O=CC1=NN(N=C1)C1=CC=CC=C1", 
	 "Tm": 340.15, 
	 "num_atms": 20, 
	 "gaussian": { 
		 "optdone": 1, 
		 "sigma_profile": "yes", 
		 "theory": "DFT", 
		 "functional": "B3LYP", 
		 "basiset": "6-31G**", 
		 "properties": { 
			 "R2extent": 3892.744, 
			 "electric_dipole_moment_norm": 3.66186808337, 
			 "electric_quadrupole_moment_norm": 12.2049470286, 
			 "total_energy": -586.608459039, 
			 "HOMO_LUMO_gap": 0.17404, 
			 "cosmo_polarized_energy": -8.14, 
			 "cosmo_cavitation_energy": 25.63, 
			 "cosmo_dispersion_energy": -18.89, 
			 "cosmo_repulsion_energy": 1.47, 
			 "cosmo_total_nonelectrostatic_energy": 8.22, 
			 "SMD_solvation_energy": 4.28 
		},
		"coords": [
			{
				"x": 3.5285046764,
				"y": -0.28624989,
				"z": -4.9127555726,
				"element": "O" 
			},
			{
				"x": 2.415709031,
				"y": 0.0676111963,
				"z": -4.5713611185,
				"element": "C" 
			},
			{
				"x": 2.015363565,
				"y": 0.2189908445,
				"z": -3.1675212598,
				"element": "C" 
			},
			{
				"x": 0.7799287242,
				"y": 0.6112094553,
				"z": -2.8228103804,
				"element": "N" 
			},
			{
				"x": 0.808530022,
				"y": 0.6271637446,
				"z": -1.4973688068,
				"element": "N" 
			},
			{
				"x": 1.9826717759,
				"y": 0.2710597083,
				"z": -0.9414161507,
				"element": "N" 
			},
			{
				"x": 2.7588592241,
				"y": 0.0092406047,
				"z": -1.9853115782,
				"element": "C" 
			},
			{
				"x": -0.3208381851,
				"y": 0.9946235367,
				"z": -0.7079536303,
				"element": "C" 
			},
			{
				"x": -1.5130366546,
				"y": 1.3547725378,
				"z": -1.3420939263,
				"element": "C" 
			},
			{
				"x": -2.6105889313,
				"y": 1.7122209669,
				"z": -0.5616116521,
				"element": "C" 
			},
			{
				"x": -2.5215915905,
				"y": 1.7108703549,
				"z": 0.8322393445,
				"element": "C" 
			},
			{
				"x": -1.3222959685,
				"y": 1.3481506016,
				"z": 1.4486424526,
				"element": "C" 
			},
			{
				"x": -0.2133994167,
				"y": 0.9874864753,
				"z": 0.6852770067,
				"element": "C" 
			},
			{
				"x": 1.6178217308,
				"y": 0.3028327185,
				"z": -5.30472012,
				"element": "H" 
			},
			{
				"x": 3.7836936659,
				"y": -0.3084501207,
				"z": -1.8674993935,
				"element": "H" 
			},
			{
				"x": -1.5668309165,
				"y": 1.3510653373,
				"z": -2.423714172,
				"element": "H" 
			},
			{
				"x": -3.5394201807,
				"y": 1.9929584588,
				"z": -1.0487208266,
				"element": "H" 
			},
			{
				"x": -3.3810727085,
				"y": 1.9906009632,
				"z": 1.433649184,
				"element": "H" 
			},
			{
				"x": -1.2447758046,
				"y": 1.3444802722,
				"z": 2.5315922972,
				"element": "H" 
			},
			{
				"x": 0.7235679414,
				"y": 0.7037622339,
				"z": 1.147858303,
				"element": "H" 
			}
		],
		 "valence_orbital": [ 
			{
				"type": "occ",
				"energy": -0.31384,
				"method": "rhf"
			},
			{
				"type": "occ",
				"energy": -0.30879,
				"method": "rhf"
			},
			{
				"type": "occ",
				"energy": -0.26837,
				"method": "rhf"
			},
			{
				"type": "occ",
				"energy": -0.2643,
				"method": "rhf"
			},
			{
				"type": "occ",
				"energy": -0.24555,
				"method": "rhf"
			},
			{
				"type": "unocc",
				"energy": -0.07151,
				"method": "rhf"
			},
			{
				"type": "unocc",
				"energy": -0.03638,
				"method": "rhf"
			},
			{
				"type": "unocc",
				"energy": -0.01749,
				"method": "rhf"
			},
			{
				"type": "unocc",
				"energy": 0.01793,
				"method": "rhf"
			},
			{
				"type": "unocc",
				"energy": 0.08282,
				"method": "rhf"
			}
		],
		"cosmo_sigma_profile": { 
			"-0.025": 0.0,
			"-0.024": 0.0,
			"-0.023": 0.0,
			"-0.022": 0.0,
			"-0.021": 0.0,
			"-0.02": 0.0,
			"-0.019": 0.0,
			"-0.018": 0.0,
			"-0.017": 0.0,
			"-0.016": 0.0,
			"-0.015": 0.0,
			"-0.014": 0.0,
			"-0.013": 0.0,
			"-0.012": 0.0,
			"-0.011": 0.0162832292353,
			"-0.01": 1.24786060687,
			"-0.009": 1.27660786733,
			"-0.008": 2.03245388242,
			"-0.007": 6.67909463967,
			"-0.006": 12.7345671809,
			"-0.005": 15.0367644998,
			"-0.004": 15.2482993938,
			"-0.003": 13.7402892756,
			"-0.002": 16.9442501157,
			"-0.001": 17.0488345841,
			"0.0": 16.5812835128,
			"0.001": 15.4306189335,
			"0.002": 13.6187070393,
			"0.003": 15.1040822612,
			"0.004": 14.60407378,
			"0.005": 4.67211378209,
			"0.006": 3.87318401532,
			"0.007": 3.42177126912,
			"0.008": 4.24847266131,
			"0.009": 4.25724295073,
			"0.01": 3.88188491368,
			"0.011": 4.01846772566,
			"0.012": 1.63181208514,
			"0.013": 0.0529732217314,
			"0.014": 0.0,
			"0.015": 0.0,
			"0.016": 0.0,
			"0.017": 0.0,
			"0.018": 0.0,
			"0.019": 0.0,
			"0.02": 0.0,
			"0.021": 0.0,
			"0.022": 0.0,
			"0.023": 0.0,
			"0.024": 0.0,
			"0.025": 0.0
		}
	}
}
