{
	 "smiles": "CCCC1=NN(C)C2=C1NC(=NC2=O)C1=C(OCC)C=CC(=C1)S(=O)(=O)N1CCN(C)CC1", 
	 "Tm": 462.65, 
	 "num_atms": 63, 
	 "gaussian": { 
		 "optdone": 1, 
		 "sigma_profile": "yes", 
		 "theory": "DFT", 
		 "functional": "B3LYP", 
		 "basiset": "6-31G**", 
		 "properties": { 
			 "R2extent": 18435.9009, 
			 "electric_dipole_moment_norm": 1.77689086609, 
			 "electric_quadrupole_moment_norm": 30.396948979, 
			 "total_energy": -1883.92541168, 
			 "HOMO_LUMO_gap": 0.15469, 
			 "cosmo_polarized_energy": -30.78, 
			 "cosmo_cavitation_energy": 65.39, 
			 "cosmo_dispersion_energy": -42.4, 
			 "cosmo_repulsion_energy": 3.2, 
			 "cosmo_total_nonelectrostatic_energy": 26.19, 
			 "SMD_solvation_energy": 5.19 
		},
		"coords": [
			{
				"x": 0.3282667484,
				"y": -4.7349872934,
				"z": 2.1677050967,
				"element": "C" 
			},
			{
				"x": 0.2339209752,
				"y": -4.8869740365,
				"z": 3.6887436985,
				"element": "C" 
			},
			{
				"x": -0.2957502607,
				"y": -3.6331060948,
				"z": 4.4188658206,
				"element": "C" 
			},
			{
				"x": 0.6074033593,
				"y": -2.4359342356,
				"z": 4.3306077778,
				"element": "C" 
			},
			{
				"x": 1.6004260821,
				"y": -2.2490422531,
				"z": 5.2115518966,
				"element": "N" 
			},
			{
				"x": 2.2313769205,
				"y": -1.1112261235,
				"z": 4.8695595066,
				"element": "N" 
			},
			{
				"x": 3.3658279539,
				"y": -0.6302425499,
				"z": 5.6442598148,
				"element": "C" 
			},
			{
				"x": 1.6712922169,
				"y": -0.5363378346,
				"z": 3.7681597505,
				"element": "C" 
			},
			{
				"x": 0.6226388274,
				"y": -1.3713028343,
				"z": 3.3998014545,
				"element": "C" 
			},
			{
				"x": -0.1454137153,
				"y": -1.026951575,
				"z": 2.3041149866,
				"element": "N" 
			},
			{
				"x": 0.169246507,
				"y": 0.1220551846,
				"z": 1.6206796456,
				"element": "C" 
			},
			{
				"x": 1.1506576591,
				"y": 0.9208149556,
				"z": 1.9350048345,
				"element": "N" 
			},
			{
				"x": 1.9683721816,
				"y": 0.7025297365,
				"z": 3.0552455066,
				"element": "C" 
			},
			{
				"x": 2.8422647918,
				"y": 1.5027751067,
				"z": 3.3807869196,
				"element": "O" 
			},
			{
				"x": -0.678050522,
				"y": 0.4108749135,
				"z": 0.4318261688,
				"element": "C" 
			},
			{
				"x": -1.1642160128,
				"y": 1.7140080757,
				"z": 0.1767650903,
				"element": "C" 
			},
			{
				"x": -0.9301151528,
				"y": 2.7244062419,
				"z": 1.0555812365,
				"element": "O" 
			},
			{
				"x": 0.1468841144,
				"y": 3.632172314,
				"z": 0.7097521809,
				"element": "C" 
			},
			{
				"x": 0.4351431789,
				"y": 4.4883914319,
				"z": 1.9258893208,
				"element": "C" 
			},
			{
				"x": -1.9775926768,
				"y": 1.9432641086,
				"z": -0.9413410134,
				"element": "C" 
			},
			{
				"x": -2.3087134172,
				"y": 0.9098151984,
				"z": -1.8122299848,
				"element": "C" 
			},
			{
				"x": -1.8173356815,
				"y": -0.3752260227,
				"z": -1.5638885705,
				"element": "C" 
			},
			{
				"x": -1.0205721918,
				"y": -0.6255640854,
				"z": -0.4469284089,
				"element": "C" 
			},
			{
				"x": -2.1945991543,
				"y": -1.7220281075,
				"z": -2.6955555921,
				"element": "S" 
			},
			{
				"x": -2.0464647935,
				"y": -2.9612450355,
				"z": -1.9269680967,
				"element": "O" 
			},
			{
				"x": -3.4365494304,
				"y": -1.3637773033,
				"z": -3.3841076908,
				"element": "O" 
			},
			{
				"x": -0.9952507167,
				"y": -1.7532198999,
				"z": -3.8595745667,
				"element": "N" 
			},
			{
				"x": 0.3495581432,
				"y": -2.1983460869,
				"z": -3.4433380785,
				"element": "C" 
			},
			{
				"x": 1.2616295822,
				"y": -2.1562616837,
				"z": -4.67480743,
				"element": "C" 
			},
			{
				"x": 1.4038293433,
				"y": -0.8145369109,
				"z": -5.2622010276,
				"element": "N" 
			},
			{
				"x": 2.6427253517,
				"y": -0.1341535409,
				"z": -4.9169812204,
				"element": "C" 
			},
			{
				"x": 0.2364695915,
				"y": 0.0415610886,
				"z": -5.0314112727,
				"element": "C" 
			},
			{
				"x": -1.0437772691,
				"y": -0.7877638584,
				"z": -4.9799089633,
				"element": "C" 
			},
			{
				"x": 1.0125799051,
				"y": -3.9272043746,
				"z": 1.886522564,
				"element": "H" 
			},
			{
				"x": 0.6976654677,
				"y": -5.6541694572,
				"z": 1.7025029319,
				"element": "H" 
			},
			{
				"x": -0.6524482734,
				"y": -4.5191855449,
				"z": 1.7257155393,
				"element": "H" 
			},
			{
				"x": -0.4273380116,
				"y": -5.7280615487,
				"z": 3.9306645714,
				"element": "H" 
			},
			{
				"x": 1.2196297651,
				"y": -5.135659311,
				"z": 4.0992999144,
				"element": "H" 
			},
			{
				"x": -0.4365702217,
				"y": -3.8692933542,
				"z": 5.4785148064,
				"element": "H" 
			},
			{
				"x": -1.2873950044,
				"y": -3.3736183487,
				"z": 4.0228700781,
				"element": "H" 
			},
			{
				"x": 3.0692565096,
				"y": -0.5046628545,
				"z": 6.68832136,
				"element": "H" 
			},
			{
				"x": 4.1866159362,
				"y": -1.350318199,
				"z": 5.5895029255,
				"element": "H" 
			},
			{
				"x": 3.6706887432,
				"y": 0.324952227,
				"z": 5.2169040346,
				"element": "H" 
			},
			{
				"x": -0.9670128606,
				"y": -1.5575931888,
				"z": 2.0521960067,
				"element": "H" 
			},
			{
				"x": -0.1659807598,
				"y": 4.2403327816,
				"z": -0.1508647791,
				"element": "H" 
			},
			{
				"x": 1.0270498272,
				"y": 3.0422829914,
				"z": 0.4391291068,
				"element": "H" 
			},
			{
				"x": -0.4705433989,
				"y": 4.9973220915,
				"z": 2.2693974054,
				"element": "H" 
			},
			{
				"x": 1.1843842727,
				"y": 5.2458520494,
				"z": 1.6743821769,
				"element": "H" 
			},
			{
				"x": 0.830632124,
				"y": 3.8689266232,
				"z": 2.7341975819,
				"element": "H" 
			},
			{
				"x": -2.3732451755,
				"y": 2.9425677807,
				"z": -1.0912019336,
				"element": "H" 
			},
			{
				"x": -2.9695148332,
				"y": 1.0822534742,
				"z": -2.6547302541,
				"element": "H" 
			},
			{
				"x": -0.6666015749,
				"y": -1.6359321757,
				"z": -0.2702263052,
				"element": "H" 
			},
			{
				"x": 0.7614231504,
				"y": -1.5527206736,
				"z": -2.6518563739,
				"element": "H" 
			},
			{
				"x": 0.2767941033,
				"y": -3.2145816571,
				"z": -3.0499751749,
				"element": "H" 
			},
			{
				"x": 2.2502862516,
				"y": -2.5319297093,
				"z": -4.3956414214,
				"element": "H" 
			},
			{
				"x": 0.8591688985,
				"y": -2.8496748682,
				"z": -5.4249878303,
				"element": "H" 
			},
			{
				"x": 2.7310771601,
				"y": 0.1223307234,
				"z": -3.8433005967,
				"element": "H" 
			},
			{
				"x": 3.5010010405,
				"y": -0.7537299133,
				"z": -5.1936595388,
				"element": "H" 
			},
			{
				"x": 2.7132893671,
				"y": 0.8003887792,
				"z": -5.4842042341,
				"element": "H" 
			},
			{
				"x": 0.3223616848,
				"y": 0.6125504844,
				"z": -4.0865730209,
				"element": "H" 
			},
			{
				"x": 0.1627153548,
				"y": 0.7798037263,
				"z": -5.8407285688,
				"element": "H" 
			},
			{
				"x": -1.919507578,
				"y": -0.1474136091,
				"z": -4.8667121205,
				"element": "H" 
			},
			{
				"x": -1.1715944034,
				"y": -1.3401559344,
				"z": -5.9182176413,
				"element": "H" 
			}
		],
		 "valence_orbital": [ 
			{
				"type": "occ",
				"energy": -0.25653,
				"method": "rhf"
			},
			{
				"type": "occ",
				"energy": -0.25049,
				"method": "rhf"
			},
			{
				"type": "occ",
				"energy": -0.24474,
				"method": "rhf"
			},
			{
				"type": "occ",
				"energy": -0.22831,
				"method": "rhf"
			},
			{
				"type": "occ",
				"energy": -0.21739,
				"method": "rhf"
			},
			{
				"type": "unocc",
				"energy": -0.0627,
				"method": "rhf"
			},
			{
				"type": "unocc",
				"energy": -0.04285,
				"method": "rhf"
			},
			{
				"type": "unocc",
				"energy": -0.03121,
				"method": "rhf"
			},
			{
				"type": "unocc",
				"energy": 0.00398,
				"method": "rhf"
			},
			{
				"type": "unocc",
				"energy": 0.03695,
				"method": "rhf"
			}
		],
		"cosmo_sigma_profile": { 
			"-0.025": 0.0,
			"-0.024": 0.0,
			"-0.023": 0.0,
			"-0.022": 0.0,
			"-0.021": 0.0,
			"-0.02": 0.0,
			"-0.019": 0.0,
			"-0.018": 0.0,
			"-0.017": 0.0,
			"-0.016": 0.460095107305,
			"-0.015": 0.684783162222,
			"-0.014": 0.963810687128,
			"-0.013": 1.65028948295,
			"-0.012": 1.9709107428,
			"-0.011": 2.12788690276,
			"-0.01": 1.65984074626,
			"-0.009": 1.25862139936,
			"-0.008": 3.60791507523,
			"-0.007": 8.36391644534,
			"-0.006": 14.5135091095,
			"-0.005": 24.9528751531,
			"-0.004": 48.8911826756,
			"-0.003": 62.674006129,
			"-0.002": 62.6985889161,
			"-0.001": 56.6780004909,
			"0.0": 52.1117197244,
			"0.001": 34.1033163224,
			"0.002": 19.8388885027,
			"0.003": 12.225622694,
			"0.004": 10.9974401973,
			"0.005": 11.1760630742,
			"0.006": 10.1718187578,
			"0.007": 11.176129277,
			"0.008": 7.56736187183,
			"0.009": 9.91471071073,
			"0.01": 11.375820143,
			"0.011": 12.1497971763,
			"0.012": 7.67771224496,
			"0.013": 4.93336120027,
			"0.014": 3.85470026708,
			"0.015": 1.82162751352,
			"0.016": 0.394773495581,
			"0.017": 0.0167186654866,
			"0.018": 0.0,
			"0.019": 0.0,
			"0.02": 0.0,
			"0.021": 0.0,
			"0.022": 0.0,
			"0.023": 0.0,
			"0.024": 0.0,
			"0.025": 0.0
		}
	}
}
