{
	 "smiles": "NC1=CC=CC=C1C=CC1=C(N)C=C(N)C(C=CC2=CC=CC=C2)=C1", 
	 "Tm": 419.15, 
	 "num_atms": 46, 
	 "gaussian": { 
		 "optdone": 1, 
		 "sigma_profile": "yes", 
		 "theory": "DFT", 
		 "functional": "B3LYP", 
		 "basiset": "6-31G**", 
		 "properties": { 
			 "R2extent": 14467.3695, 
			 "electric_dipole_moment_norm": 2.59813908404, 
			 "electric_quadrupole_moment_norm": 20.4680853787, 
			 "total_energy": -1015.24473863, 
			 "HOMO_LUMO_gap": 0.13595, 
			 "cosmo_polarized_energy": -19.52, 
			 "cosmo_cavitation_energy": 49.25, 
			 "cosmo_dispersion_energy": -34.57, 
			 "cosmo_repulsion_energy": 2.61, 
			 "cosmo_total_nonelectrostatic_energy": 17.29, 
			 "SMD_solvation_energy": 7.45 
		},
		"coords": [
			{
				"x": -2.2514201965,
				"y": 3.7081631514,
				"z": -3.6517669065,
				"element": "N" 
			},
			{
				"x": -3.0321509155,
				"y": 3.0012085958,
				"z": -2.740010761,
				"element": "C" 
			},
			{
				"x": -4.3231218295,
				"y": 3.4650107093,
				"z": -2.4281138648,
				"element": "C" 
			},
			{
				"x": -5.0936859285,
				"y": 2.8323861493,
				"z": -1.4596996173,
				"element": "C" 
			},
			{
				"x": -4.5929356993,
				"y": 1.7205022281,
				"z": -0.7741063968,
				"element": "C" 
			},
			{
				"x": -3.3217673746,
				"y": 1.2488199226,
				"z": -1.0832270286,
				"element": "C" 
			},
			{
				"x": -2.5178704874,
				"y": 1.862779778,
				"z": -2.0621335837,
				"element": "C" 
			},
			{
				"x": -1.2144990598,
				"y": 1.2924697901,
				"z": -2.4498489748,
				"element": "C" 
			},
			{
				"x": -0.2577407227,
				"y": 0.716902942,
				"z": -1.6875682117,
				"element": "C" 
			},
			{
				"x": -0.1139491804,
				"y": 0.5803230242,
				"z": -0.2258849198,
				"element": "C" 
			},
			{
				"x": -0.376097813,
				"y": 1.6111413917,
				"z": 0.7230738086,
				"element": "C" 
			},
			{
				"x": -0.725645427,
				"y": 2.8928511092,
				"z": 0.3360087066,
				"element": "N" 
			},
			{
				"x": -0.1780197414,
				"y": 1.3443241469,
				"z": 2.0868840568,
				"element": "C" 
			},
			{
				"x": 0.2870982148,
				"y": 0.1129714639,
				"z": 2.5500950393,
				"element": "C" 
			},
			{
				"x": 0.4426371788,
				"y": -0.107861892,
				"z": 3.9208944799,
				"element": "N" 
			},
			{
				"x": 0.5814403162,
				"y": -0.922094626,
				"z": 1.6197641589,
				"element": "C" 
			},
			{
				"x": 1.0320740665,
				"y": -2.2334493981,
				"z": 2.0855783072,
				"element": "C" 
			},
			{
				"x": 1.810940637,
				"y": -3.1000651203,
				"z": 1.4014853074,
				"element": "C" 
			},
			{
				"x": 2.211580423,
				"y": -4.4436295445,
				"z": 1.8285177164,
				"element": "C" 
			},
			{
				"x": 3.2452747375,
				"y": -5.1017542858,
				"z": 1.134337376,
				"element": "C" 
			},
			{
				"x": 3.6778275197,
				"y": -6.371704534,
				"z": 1.5107819728,
				"element": "C" 
			},
			{
				"x": 3.083259746,
				"y": -7.0230576611,
				"z": 2.592810594,
				"element": "C" 
			},
			{
				"x": 2.0469180759,
				"y": -6.3908999237,
				"z": 3.2868274805,
				"element": "C" 
			},
			{
				"x": 1.6125180918,
				"y": -5.1240269459,
				"z": 2.9081686309,
				"element": "C" 
			},
			{
				"x": 0.3822349758,
				"y": -0.6352388252,
				"z": 0.2642459911,
				"element": "C" 
			},
			{
				"x": -2.7559907674,
				"y": 4.2210923635,
				"z": -4.3601966057,
				"element": "H" 
			},
			{
				"x": -1.4316957883,
				"y": 3.2385734974,
				"z": -4.0062730157,
				"element": "H" 
			},
			{
				"x": -4.7083210431,
				"y": 4.3393540718,
				"z": -2.9476582683,
				"element": "H" 
			},
			{
				"x": -6.0884013143,
				"y": 3.2095894044,
				"z": -1.2386455629,
				"element": "H" 
			},
			{
				"x": -5.1930888513,
				"y": 1.2198043314,
				"z": -0.0208722072,
				"element": "H" 
			},
			{
				"x": -2.9305853704,
				"y": 0.3711939667,
				"z": -0.5785119752,
				"element": "H" 
			},
			{
				"x": -1.0259268322,
				"y": 1.2714415518,
				"z": -3.5254679955,
				"element": "H" 
			},
			{
				"x": 0.5474114771,
				"y": 0.2367852431,
				"z": -2.2447457403,
				"element": "H" 
			},
			{
				"x": -1.1702078347,
				"y": 2.9901155625,
				"z": -0.5643958838,
				"element": "H" 
			},
			{
				"x": -1.1593805525,
				"y": 3.4608390973,
				"z": 1.0493574566,
				"element": "H" 
			},
			{
				"x": -0.3598902718,
				"y": 2.1429033689,
				"z": 2.804059237,
				"element": "H" 
			},
			{
				"x": 0.4284885094,
				"y": 0.7320926218,
				"z": 4.483522619,
				"element": "H" 
			},
			{
				"x": 1.2198499723,
				"y": -0.7045868912,
				"z": 4.1690245056,
				"element": "H" 
			},
			{
				"x": 0.6862682125,
				"y": -2.5208453259,
				"z": 3.0784021587,
				"element": "H" 
			},
			{
				"x": 2.218208279,
				"y": -2.7826835544,
				"z": 0.4421827334,
				"element": "H" 
			},
			{
				"x": 3.7161658979,
				"y": -4.5998825862,
				"z": 0.2924523748,
				"element": "H" 
			},
			{
				"x": 4.4797288288,
				"y": -6.8534467654,
				"z": 0.957973588,
				"element": "H" 
			},
			{
				"x": 3.415478401,
				"y": -8.0142606108,
				"z": 2.8874373641,
				"element": "H" 
			},
			{
				"x": 1.5668765151,
				"y": -6.8946761714,
				"z": 4.1215342059,
				"element": "H" 
			},
			{
				"x": 0.7871758431,
				"y": -4.6636515882,
				"z": 3.442959054,
				"element": "H" 
			},
			{
				"x": 0.5741370827,
				"y": -1.4266232329,
				"z": -0.4555514037,
				"element": "H" 
			}
		],
		 "valence_orbital": [ 
			{
				"type": "occ",
				"energy": -0.23602,
				"method": "rhf"
			},
			{
				"type": "occ",
				"energy": -0.22307,
				"method": "rhf"
			},
			{
				"type": "occ",
				"energy": -0.20805,
				"method": "rhf"
			},
			{
				"type": "occ",
				"energy": -0.19445,
				"method": "rhf"
			},
			{
				"type": "occ",
				"energy": -0.17022,
				"method": "rhf"
			},
			{
				"type": "unocc",
				"energy": -0.03427,
				"method": "rhf"
			},
			{
				"type": "unocc",
				"energy": -0.02764,
				"method": "rhf"
			},
			{
				"type": "unocc",
				"energy": 0.00822,
				"method": "rhf"
			},
			{
				"type": "unocc",
				"energy": 0.01043,
				"method": "rhf"
			},
			{
				"type": "unocc",
				"energy": 0.02351,
				"method": "rhf"
			}
		],
		"cosmo_sigma_profile": { 
			"-0.025": 0.0,
			"-0.024": 0.0,
			"-0.023": 0.0,
			"-0.022": 0.0,
			"-0.021": 0.0,
			"-0.02": 0.0,
			"-0.019": 0.0,
			"-0.018": 0.0,
			"-0.017": 0.0,
			"-0.016": 0.0,
			"-0.015": 0.0,
			"-0.014": 0.0,
			"-0.013": 0.662820769994,
			"-0.012": 4.6897110347,
			"-0.011": 6.2281339145,
			"-0.01": 7.74966746802,
			"-0.009": 7.11321387342,
			"-0.008": 6.4804847536,
			"-0.007": 7.36688400233,
			"-0.006": 13.828510679,
			"-0.005": 24.9411628919,
			"-0.004": 31.974336535,
			"-0.003": 29.3635696674,
			"-0.002": 22.4184430591,
			"-0.001": 20.4914900119,
			"0.0": 20.1694330569,
			"0.001": 18.6402920195,
			"0.002": 21.7030682169,
			"0.003": 24.0100606157,
			"0.004": 29.7933141791,
			"0.005": 35.3440958135,
			"0.006": 34.3032418208,
			"0.007": 11.2531303636,
			"0.008": 2.28869193536,
			"0.009": 2.19993799496,
			"0.01": 2.25591270421,
			"0.011": 2.17524153199,
			"0.012": 1.90947532161,
			"0.013": 1.56702124049,
			"0.014": 0.979673166,
			"0.015": 0.0680578885429,
			"0.016": 0.0,
			"0.017": 0.0,
			"0.018": 0.0,
			"0.019": 0.0,
			"0.02": 0.0,
			"0.021": 0.0,
			"0.022": 0.0,
			"0.023": 0.0,
			"0.024": 0.0,
			"0.025": 0.0
		}
	}
}
