{
	 "smiles": "COC(=O)C1=C(C)N(C)C2=C1C=C(O)C=C2", 
	 "Tm": 497.15, 
	 "num_atms": 29, 
	 "gaussian": { 
		 "optdone": 1, 
		 "sigma_profile": "yes", 
		 "theory": "DFT", 
		 "functional": "B3LYP", 
		 "basiset": "6-31G**", 
		 "properties": { 
			 "R2extent": 4347.0937, 
			 "electric_dipole_moment_norm": 1.70927086794, 
			 "electric_quadrupole_moment_norm": 18.1574992405, 
			 "total_energy": -745.558832173, 
			 "HOMO_LUMO_gap": 0.17803, 
			 "cosmo_polarized_energy": -14.89, 
			 "cosmo_cavitation_energy": 32.21, 
			 "cosmo_dispersion_energy": -23.47, 
			 "cosmo_repulsion_energy": 1.8, 
			 "cosmo_total_nonelectrostatic_energy": 10.54, 
			 "SMD_solvation_energy": 7.09 
		},
		"coords": [
			{
				"x": 3.2177951915,
				"y": 1.8524155339,
				"z": -2.8043890156,
				"element": "C" 
			},
			{
				"x": 2.0882340601,
				"y": 1.7146825865,
				"z": -1.9333543455,
				"element": "O" 
			},
			{
				"x": 1.9237109031,
				"y": 0.4719443322,
				"z": -1.3962941238,
				"element": "C" 
			},
			{
				"x": 2.6964710737,
				"y": -0.4397460841,
				"z": -1.6547816819,
				"element": "O" 
			},
			{
				"x": 0.7562000701,
				"y": 0.4067394212,
				"z": -0.5216705814,
				"element": "C" 
			},
			{
				"x": 0.3463781881,
				"y": -0.7398282472,
				"z": 0.1623719082,
				"element": "C" 
			},
			{
				"x": 0.9572781714,
				"y": -2.1043779044,
				"z": 0.1738648249,
				"element": "C" 
			},
			{
				"x": -0.7823839953,
				"y": -0.4462257427,
				"z": 0.888267652,
				"element": "N" 
			},
			{
				"x": -1.533670125,
				"y": -1.3480077501,
				"z": 1.7400504967,
				"element": "C" 
			},
			{
				"x": -1.1258243503,
				"y": 0.8893803025,
				"z": 0.6910780582,
				"element": "C" 
			},
			{
				"x": -0.1793094107,
				"y": 1.4608170393,
				"z": -0.1920241515,
				"element": "C" 
			},
			{
				"x": -0.3133307341,
				"y": 2.81278061,
				"z": -0.547561928,
				"element": "C" 
			},
			{
				"x": -1.3737071452,
				"y": 3.5436926798,
				"z": -0.0180572506,
				"element": "C" 
			},
			{
				"x": -1.5712743199,
				"y": 4.8677133084,
				"z": -0.3177574684,
				"element": "O" 
			},
			{
				"x": -2.3071029762,
				"y": 2.9570878279,
				"z": 0.8605803338,
				"element": "C" 
			},
			{
				"x": -2.1901111766,
				"y": 1.6213589544,
				"z": 1.223101885,
				"element": "C" 
			},
			{
				"x": 4.1483939279,
				"y": 1.6358226952,
				"z": -2.2732186684,
				"element": "H" 
			},
			{
				"x": 3.2048541417,
				"y": 2.8893620508,
				"z": -3.1420765995,
				"element": "H" 
			},
			{
				"x": 3.1379223596,
				"y": 1.1726699457,
				"z": -3.656828303,
				"element": "H" 
			},
			{
				"x": 0.2550339329,
				"y": -2.8617946869,
				"z": -0.1954898046,
				"element": "H" 
			},
			{
				"x": 1.8368510818,
				"y": -2.1014862056,
				"z": -0.4676830529,
				"element": "H" 
			},
			{
				"x": 1.2605778069,
				"y": -2.400091799,
				"z": 1.1856681923,
				"element": "H" 
			},
			{
				"x": -2.5657721877,
				"y": -1.4436258296,
				"z": 1.3851641284,
				"element": "H" 
			},
			{
				"x": -1.071922745,
				"y": -2.3342952069,
				"z": 1.7337362556,
				"element": "H" 
			},
			{
				"x": -1.5528969805,
				"y": -0.9782087179,
				"z": 2.7711616289,
				"element": "H" 
			},
			{
				"x": 0.400554875,
				"y": 3.2719739097,
				"z": -1.2230518771,
				"element": "H" 
			},
			{
				"x": -0.8750165424,
				"y": 5.1538905824,
				"z": -0.9227386134,
				"element": "H" 
			},
			{
				"x": -3.1137371326,
				"y": 3.5727727955,
				"z": 1.2433510735,
				"element": "H" 
			},
			{
				"x": -2.9095959623,
				"y": 1.1708835991,
				"z": 1.899781028,
				"element": "H" 
			}
		],
		 "valence_orbital": [ 
			{
				"type": "occ",
				"energy": -0.28803,
				"method": "rhf"
			},
			{
				"type": "occ",
				"energy": -0.27021,
				"method": "rhf"
			},
			{
				"type": "occ",
				"energy": -0.25898,
				"method": "rhf"
			},
			{
				"type": "occ",
				"energy": -0.20572,
				"method": "rhf"
			},
			{
				"type": "occ",
				"energy": -0.19899,
				"method": "rhf"
			},
			{
				"type": "unocc",
				"energy": -0.02096,
				"method": "rhf"
			},
			{
				"type": "unocc",
				"energy": 0.00739,
				"method": "rhf"
			},
			{
				"type": "unocc",
				"energy": 0.03715,
				"method": "rhf"
			},
			{
				"type": "unocc",
				"energy": 0.07987,
				"method": "rhf"
			},
			{
				"type": "unocc",
				"energy": 0.08382,
				"method": "rhf"
			}
		],
		"cosmo_sigma_profile": { 
			"-0.025": 0.0,
			"-0.024": 0.0,
			"-0.023": 0.0,
			"-0.022": 0.0,
			"-0.021": 0.0,
			"-0.02": 0.0,
			"-0.019": 0.0,
			"-0.018": 0.0,
			"-0.017": 0.601805226897,
			"-0.016": 1.18732784707,
			"-0.015": 0.952276089464,
			"-0.014": 1.08926390038,
			"-0.013": 0.903355993283,
			"-0.012": 1.08424725677,
			"-0.011": 0.551526423237,
			"-0.01": 0.742456072397,
			"-0.009": 1.28804776821,
			"-0.008": 1.09046142819,
			"-0.007": 1.68301598441,
			"-0.006": 15.3152233017,
			"-0.005": 26.5089738519,
			"-0.004": 21.894928914,
			"-0.003": 24.446316177,
			"-0.002": 17.213036805,
			"-0.001": 14.4179408549,
			"0.0": 12.6614178083,
			"0.001": 11.6931372222,
			"0.002": 14.1214272626,
			"0.003": 12.932939855,
			"0.004": 17.3249902813,
			"0.005": 19.9427826299,
			"0.006": 12.4881437484,
			"0.007": 3.3889183522,
			"0.008": 3.36697347115,
			"0.009": 2.18437160568,
			"0.01": 4.08968125344,
			"0.011": 3.38682385128,
			"0.012": 4.45090533077,
			"0.013": 2.66722857533,
			"0.014": 0.169821190681,
			"0.015": 0.0,
			"0.016": 0.0,
			"0.017": 0.0,
			"0.018": 0.0,
			"0.019": 0.0,
			"0.02": 0.0,
			"0.021": 0.0,
			"0.022": 0.0,
			"0.023": 0.0,
			"0.024": 0.0,
			"0.025": 0.0
		}
	}
}
