{
	 "smiles": "NC1=NSC(SCC2=CC=CC=C2)=N1", 
	 "Tm": 393.15, 
	 "num_atms": 23, 
	 "gaussian": { 
		 "optdone": 1, 
		 "sigma_profile": "yes", 
		 "theory": "DFT", 
		 "functional": "B3LYP", 
		 "basiset": "6-31G**", 
		 "properties": { 
			 "R2extent": 4531.5268, 
			 "electric_dipole_moment_norm": 2.83089341022, 
			 "electric_quadrupole_moment_norm": 13.7473609166, 
			 "total_energy": -1309.00824118, 
			 "HOMO_LUMO_gap": 0.18404, 
			 "cosmo_polarized_energy": -11.58, 
			 "cosmo_cavitation_energy": 30.7, 
			 "cosmo_dispersion_energy": -23.04, 
			 "cosmo_repulsion_energy": 1.74, 
			 "cosmo_total_nonelectrostatic_energy": 9.4, 
			 "SMD_solvation_energy": 2.4 
		},
		"coords": [
			{
				"x": 2.2561080434,
				"y": -3.792952303,
				"z": -1.5227163002,
				"element": "N" 
			},
			{
				"x": 0.9929945543,
				"y": -3.651006791,
				"z": -0.9940293738,
				"element": "C" 
			},
			{
				"x": 0.4008502548,
				"y": -4.6293534009,
				"z": -0.3442585735,
				"element": "N" 
			},
			{
				"x": -1.069144268,
				"y": -4.0301398579,
				"z": 0.2284431527,
				"element": "S" 
			},
			{
				"x": -0.7801436114,
				"y": -2.4659206809,
				"z": -0.5128364251,
				"element": "C" 
			},
			{
				"x": -1.9577505922,
				"y": -1.1689728824,
				"z": -0.4251273036,
				"element": "S" 
			},
			{
				"x": -1.0073252352,
				"y": 0.2466309688,
				"z": -1.1751907469,
				"element": "C" 
			},
			{
				"x": -0.2048203988,
				"y": 1.0537559831,
				"z": -0.189748465,
				"element": "C" 
			},
			{
				"x": -0.7707005343,
				"y": 2.1720978852,
				"z": 0.4372259157,
				"element": "C" 
			},
			{
				"x": -0.0313415439,
				"y": 2.9279207123,
				"z": 1.3468873117,
				"element": "C" 
			},
			{
				"x": 1.2866589482,
				"y": 2.5735017611,
				"z": 1.6411903013,
				"element": "C" 
			},
			{
				"x": 1.8592055245,
				"y": 1.4613360481,
				"z": 1.0203319157,
				"element": "C" 
			},
			{
				"x": 1.1200596627,
				"y": 0.7055998973,
				"z": 0.1102518682,
				"element": "C" 
			},
			{
				"x": 0.3728027654,
				"y": -2.4216517335,
				"z": -1.1268711772,
				"element": "N" 
			},
			{
				"x": 2.5623958371,
				"y": -4.749299044,
				"z": -1.6284773057,
				"element": "H" 
			},
			{
				"x": 2.455212305,
				"y": -3.1922032442,
				"z": -2.3091426646,
				"element": "H" 
			},
			{
				"x": -1.7878553312,
				"y": 0.850897379,
				"z": -1.6442734632,
				"element": "H" 
			},
			{
				"x": -0.3850130997,
				"y": -0.193242937,
				"z": -1.955447843,
				"element": "H" 
			},
			{
				"x": -1.7963084921,
				"y": 2.4535977276,
				"z": 0.209716723,
				"element": "H" 
			},
			{
				"x": -0.4828309178,
				"y": 3.7938144537,
				"z": 1.8226967161,
				"element": "H" 
			},
			{
				"x": 1.8645140403,
				"y": 3.1618252519,
				"z": 2.3481758843,
				"element": "H" 
			},
			{
				"x": 2.884948483,
				"y": 1.1818203469,
				"z": 1.2436188625,
				"element": "H" 
			},
			{
				"x": 1.5595836063,
				"y": -0.1641555402,
				"z": -0.3681190095,
				"element": "H" 
			}
		],
		 "valence_orbital": [ 
			{
				"type": "occ",
				"energy": -0.28042,
				"method": "rhf"
			},
			{
				"type": "occ",
				"energy": -0.25883,
				"method": "rhf"
			},
			{
				"type": "occ",
				"energy": -0.25219,
				"method": "rhf"
			},
			{
				"type": "occ",
				"energy": -0.24533,
				"method": "rhf"
			},
			{
				"type": "occ",
				"energy": -0.21627,
				"method": "rhf"
			},
			{
				"type": "unocc",
				"energy": -0.03223,
				"method": "rhf"
			},
			{
				"type": "unocc",
				"energy": -0.02072,
				"method": "rhf"
			},
			{
				"type": "unocc",
				"energy": -0.00495,
				"method": "rhf"
			},
			{
				"type": "unocc",
				"energy": 0.00137,
				"method": "rhf"
			},
			{
				"type": "unocc",
				"energy": 0.03717,
				"method": "rhf"
			}
		],
		"cosmo_sigma_profile": { 
			"-0.025": 0.0,
			"-0.024": 0.0,
			"-0.023": 0.0,
			"-0.022": 0.0,
			"-0.021": 0.0,
			"-0.02": 0.0,
			"-0.019": 0.0,
			"-0.018": 0.0,
			"-0.017": 0.0,
			"-0.016": 0.0,
			"-0.015": 0.0,
			"-0.014": 0.920260660494,
			"-0.013": 2.47971752647,
			"-0.012": 1.60663516191,
			"-0.011": 2.31433132616,
			"-0.01": 2.76769443669,
			"-0.009": 1.80884837291,
			"-0.008": 3.56186531832,
			"-0.007": 4.85477031004,
			"-0.006": 10.4321818631,
			"-0.005": 15.0428299914,
			"-0.004": 14.9602296595,
			"-0.003": 16.4152896255,
			"-0.002": 15.385535665,
			"-0.001": 19.4016376489,
			"0.0": 18.7376045676,
			"0.001": 18.8638122185,
			"0.002": 20.2940408526,
			"0.003": 20.6058239277,
			"0.004": 15.6692450411,
			"0.005": 17.1901761799,
			"0.006": 11.8186380881,
			"0.007": 3.17856283713,
			"0.008": 1.95476572192,
			"0.009": 2.08723043325,
			"0.01": 1.28317823844,
			"0.011": 1.85970837293,
			"0.012": 1.49555755259,
			"0.013": 1.28402139076,
			"0.014": 1.26800275455,
			"0.015": 0.52005711045,
			"0.016": 0.0,
			"0.017": 0.0,
			"0.018": 0.0,
			"0.019": 0.0,
			"0.02": 0.0,
			"0.021": 0.0,
			"0.022": 0.0,
			"0.023": 0.0,
			"0.024": 0.0,
			"0.025": 0.0
		}
	}
}
