{
	 "smiles": "OCCOC(=O)NCC1=CC=CC=C1", 
	 "Tm": 313.15, 
	 "num_atms": 27, 
	 "gaussian": { 
		 "optdone": 1, 
		 "sigma_profile": "yes", 
		 "theory": "DFT", 
		 "functional": "B3LYP", 
		 "basiset": "6-31G**", 
		 "properties": { 
			 "R2extent": 4049.2448, 
			 "electric_dipole_moment_norm": 2.93878367016, 
			 "electric_quadrupole_moment_norm": 11.9715164499, 
			 "total_energy": -669.333358897, 
			 "HOMO_LUMO_gap": 0.23399, 
			 "cosmo_polarized_energy": -14.1, 
			 "cosmo_cavitation_energy": 31.18, 
			 "cosmo_dispersion_energy": -22.0, 
			 "cosmo_repulsion_energy": 1.77, 
			 "cosmo_total_nonelectrostatic_energy": 10.95, 
			 "SMD_solvation_energy": 5.72 
		},
		"coords": [
			{
				"x": 0.7650680645,
				"y": -2.64161718,
				"z": 3.0024434117,
				"element": "O" 
			},
			{
				"x": 1.3091412684,
				"y": -3.1186445479,
				"z": 1.7832011074,
				"element": "C" 
			},
			{
				"x": 0.4110741465,
				"y": -2.8120377498,
				"z": 0.5944040973,
				"element": "C" 
			},
			{
				"x": 0.2338553334,
				"y": -1.3813093154,
				"z": 0.4620082155,
				"element": "O" 
			},
			{
				"x": 1.1556306437,
				"y": -0.7427175999,
				"z": -0.3223627199,
				"element": "C" 
			},
			{
				"x": 2.0633778796,
				"y": -1.3059025041,
				"z": -0.9072624109,
				"element": "O" 
			},
			{
				"x": 0.9447791949,
				"y": 0.6055075669,
				"z": -0.3500141333,
				"element": "N" 
			},
			{
				"x": -0.2223636488,
				"y": 1.3258190656,
				"z": 0.1576925637,
				"element": "C" 
			},
			{
				"x": -1.2497359184,
				"y": 1.6630407839,
				"z": -0.9094373787,
				"element": "C" 
			},
			{
				"x": -1.9785477789,
				"y": 0.6452498903,
				"z": -1.5417595631,
				"element": "C" 
			},
			{
				"x": -2.9138886859,
				"y": 0.9523044488,
				"z": -2.5280754712,
				"element": "C" 
			},
			{
				"x": -3.1358559902,
				"y": 2.282705878,
				"z": -2.8962607669,
				"element": "C" 
			},
			{
				"x": -2.4176262756,
				"y": 3.3018830551,
				"z": -2.2717476309,
				"element": "C" 
			},
			{
				"x": -1.4790814311,
				"y": 2.9907098787,
				"z": -1.2843681833,
				"element": "C" 
			},
			{
				"x": 0.6122243673,
				"y": -1.6944396735,
				"z": 2.8840909863,
				"element": "H" 
			},
			{
				"x": 1.4074773459,
				"y": -4.2049674387,
				"z": 1.8849395991,
				"element": "H" 
			},
			{
				"x": 2.3116516522,
				"y": -2.708362982,
				"z": 1.5909750666,
				"element": "H" 
			},
			{
				"x": 0.8280554545,
				"y": -3.2139843324,
				"z": -0.3315238137,
				"element": "H" 
			},
			{
				"x": -0.5953938664,
				"y": -3.2018389721,
				"z": 0.7640369763,
				"element": "H" 
			},
			{
				"x": 1.5393588666,
				"y": 1.0778436281,
				"z": -1.0161683565,
				"element": "H" 
			},
			{
				"x": -0.6682353763,
				"y": 0.7047955195,
				"z": 0.936258446,
				"element": "H" 
			},
			{
				"x": 0.1257970211,
				"y": 2.247937479,
				"z": 0.6364796284,
				"element": "H" 
			},
			{
				"x": -1.8100447809,
				"y": -0.3889200333,
				"z": -1.2537349311,
				"element": "H" 
			},
			{
				"x": -3.4738611013,
				"y": 0.1548472648,
				"z": -3.0083699358,
				"element": "H" 
			},
			{
				"x": -3.8659797015,
				"y": 2.5210099589,
				"z": -3.6643250855,
				"element": "H" 
			},
			{
				"x": -2.5847229674,
				"y": 4.3381588438,
				"z": -2.5515575555,
				"element": "H" 
			},
			{
				"x": -0.9215537159,
				"y": 3.7887290678,
				"z": -0.7989621622,
				"element": "H" 
			}
		],
		 "valence_orbital": [ 
			{
				"type": "occ",
				"energy": -0.27863,
				"method": "rhf"
			},
			{
				"type": "occ",
				"energy": -0.26548,
				"method": "rhf"
			},
			{
				"type": "occ",
				"energy": -0.26262,
				"method": "rhf"
			},
			{
				"type": "occ",
				"energy": -0.25652,
				"method": "rhf"
			},
			{
				"type": "occ",
				"energy": -0.2469,
				"method": "rhf"
			},
			{
				"type": "unocc",
				"energy": -0.01291,
				"method": "rhf"
			},
			{
				"type": "unocc",
				"energy": -0.00673,
				"method": "rhf"
			},
			{
				"type": "unocc",
				"energy": 0.05106,
				"method": "rhf"
			},
			{
				"type": "unocc",
				"energy": 0.07248,
				"method": "rhf"
			},
			{
				"type": "unocc",
				"energy": 0.08972,
				"method": "rhf"
			}
		],
		"cosmo_sigma_profile": { 
			"-0.025": 0.0,
			"-0.024": 0.0,
			"-0.023": 0.0,
			"-0.022": 0.0,
			"-0.021": 0.0,
			"-0.02": 0.0,
			"-0.019": 0.0,
			"-0.018": 0.0,
			"-0.017": 0.0,
			"-0.016": 0.0,
			"-0.015": 0.0,
			"-0.014": 0.863692077172,
			"-0.013": 1.80892318793,
			"-0.012": 1.496464212,
			"-0.011": 1.94824297449,
			"-0.01": 1.88247278769,
			"-0.009": 0.996759361199,
			"-0.008": 2.35278035194,
			"-0.007": 2.54670365261,
			"-0.006": 12.1013948986,
			"-0.005": 22.8496702453,
			"-0.004": 23.3932459173,
			"-0.003": 23.4446264278,
			"-0.002": 20.9392551472,
			"-0.001": 16.9016060566,
			"0.0": 13.4047402205,
			"0.001": 13.2526343974,
			"0.002": 12.2319521152,
			"0.003": 12.7123435638,
			"0.004": 12.3876549648,
			"0.005": 11.0427908494,
			"0.006": 10.1510121289,
			"0.007": 2.96113655156,
			"0.008": 2.1797075622,
			"0.009": 2.36239297683,
			"0.01": 2.34268533101,
			"0.011": 2.59289754054,
			"0.012": 3.7143017952,
			"0.013": 6.86861980841,
			"0.014": 4.04279732719,
			"0.015": 0.356269007243,
			"0.016": 0.0,
			"0.017": 0.0,
			"0.018": 0.0,
			"0.019": 0.0,
			"0.02": 0.0,
			"0.021": 0.0,
			"0.022": 0.0,
			"0.023": 0.0,
			"0.024": 0.0,
			"0.025": 0.0
		}
	}
}
