{
	 "smiles": "COP(=S)(OC)OC1=CC(Cl)=C(Br)C=C1Cl", 
	 "Tm": 326.65, 
	 "num_atms": 24, 
	 "gaussian": { 
		 "optdone": 1, 
		 "sigma_profile": "yes", 
		 "theory": "DFT", 
		 "functional": "B3LYP", 
		 "basiset": "6-31G**", 
		 "properties": { 
			 "R2extent": 8245.734, 
			 "electric_dipole_moment_norm": 2.94764287016, 
			 "electric_quadrupole_moment_norm": 16.9166074338, 
			 "total_energy": -4766.71938253, 
			 "HOMO_LUMO_gap": 0.20671, 
			 "cosmo_polarized_energy": -9.66, 
			 "cosmo_cavitation_energy": 38.27, 
			 "cosmo_dispersion_energy": -26.89, 
			 "cosmo_repulsion_energy": 2.06, 
			 "cosmo_total_nonelectrostatic_energy": 13.44, 
			 "SMD_solvation_energy": 6.38 
		},
		"coords": [
			{
				"x": 2.7779914231,
				"y": 3.1623795533,
				"z": 0.393266718,
				"element": "C" 
			},
			{
				"x": 3.0092924286,
				"y": 1.8806216136,
				"z": -0.2286480764,
				"element": "O" 
			},
			{
				"x": 2.1755868636,
				"y": 0.585507314,
				"z": 0.224759739,
				"element": "P" 
			},
			{
				"x": 2.0062535666,
				"y": 0.2236433329,
				"z": 2.1153327326,
				"element": "S" 
			},
			{
				"x": 2.8402515619,
				"y": -0.5486288352,
				"z": -0.7043170248,
				"element": "O" 
			},
			{
				"x": 4.1066007221,
				"y": -1.1372002564,
				"z": -0.3389699011,
				"element": "C" 
			},
			{
				"x": 0.7897538853,
				"y": 0.8475880938,
				"z": -0.6109959367,
				"element": "O" 
			},
			{
				"x": -0.3583762998,
				"y": 0.1022174136,
				"z": -0.4597780179,
				"element": "C" 
			},
			{
				"x": -0.3617596994,
				"y": -1.2700462272,
				"z": -0.6991835748,
				"element": "C" 
			},
			{
				"x": -1.5453584383,
				"y": -2.0008076636,
				"z": -0.6012718298,
				"element": "C" 
			},
			{
				"x": -1.4843938912,
				"y": -3.7156821878,
				"z": -0.9093604751,
				"element": "Cl" 
			},
			{
				"x": -2.7412972526,
				"y": -1.3511264963,
				"z": -0.270415742,
				"element": "C" 
			},
			{
				"x": -4.3874269791,
				"y": -2.2842825306,
				"z": -0.1253243991,
				"element": "Br" 
			},
			{
				"x": -2.7378191841,
				"y": 0.0250199436,
				"z": -0.0410978399,
				"element": "C" 
			},
			{
				"x": -1.5542775759,
				"y": 0.7526194857,
				"z": -0.1318254274,
				"element": "C" 
			},
			{
				"x": -1.5765403169,
				"y": 2.4722795091,
				"z": 0.1562333681,
				"element": "Cl" 
			},
			{
				"x": 1.7785994313,
				"y": 3.525992466,
				"z": 0.1407451516,
				"element": "H" 
			},
			{
				"x": 3.533663471,
				"y": 3.8336608756,
				"z": -0.0151806758,
				"element": "H" 
			},
			{
				"x": 2.8871966338,
				"y": 3.0863436436,
				"z": 1.4782523692,
				"element": "H" 
			},
			{
				"x": 4.9026421589,
				"y": -0.3920411992,
				"z": -0.4172212781,
				"element": "H" 
			},
			{
				"x": 4.0636288194,
				"y": -1.5376612069,
				"z": 0.6773217884,
				"element": "H" 
			},
			{
				"x": 4.2805480928,
				"y": -1.9421035451,
				"z": -1.0532764814,
				"element": "H" 
			},
			{
				"x": 0.5639695957,
				"y": -1.7628314246,
				"z": -0.9693283732,
				"element": "H" 
			},
			{
				"x": -3.660429017,
				"y": 0.5310383282,
				"z": 0.2134831863,
				"element": "H" 
			}
		],
		 "valence_orbital": [ 
			{
				"type": "occ",
				"energy": -0.29542,
				"method": "rhf"
			},
			{
				"type": "occ",
				"energy": -0.26847,
				"method": "rhf"
			},
			{
				"type": "occ",
				"energy": -0.25735,
				"method": "rhf"
			},
			{
				"type": "occ",
				"energy": -0.25437,
				"method": "rhf"
			},
			{
				"type": "occ",
				"energy": -0.2465,
				"method": "rhf"
			},
			{
				"type": "unocc",
				"energy": -0.03979,
				"method": "rhf"
			},
			{
				"type": "unocc",
				"energy": -0.03598,
				"method": "rhf"
			},
			{
				"type": "unocc",
				"energy": -0.02598,
				"method": "rhf"
			},
			{
				"type": "unocc",
				"energy": 0.0221,
				"method": "rhf"
			},
			{
				"type": "unocc",
				"energy": 0.03232,
				"method": "rhf"
			}
		],
		"cosmo_sigma_profile": { 
			"-0.025": 0.0,
			"-0.024": 0.0,
			"-0.023": 0.0,
			"-0.022": 0.0,
			"-0.021": 0.0,
			"-0.02": 0.0,
			"-0.019": 0.0,
			"-0.018": 0.0,
			"-0.017": 0.0,
			"-0.016": 0.0,
			"-0.015": 0.0,
			"-0.014": 0.0,
			"-0.013": 0.0,
			"-0.012": 0.0,
			"-0.011": 0.0,
			"-0.01": 0.100189824844,
			"-0.009": 1.25214062716,
			"-0.008": 1.61064723716,
			"-0.007": 8.19467349961,
			"-0.006": 12.7222207609,
			"-0.005": 19.688929648,
			"-0.004": 24.6224538566,
			"-0.003": 18.2661883165,
			"-0.002": 22.7228731487,
			"-0.001": 35.1294197042,
			"0.0": 32.0757395388,
			"0.001": 22.6259947873,
			"0.002": 24.6831359354,
			"0.003": 31.7295701424,
			"0.004": 23.2894449781,
			"0.005": 10.7112849808,
			"0.006": 9.33474386002,
			"0.007": 10.158795615,
			"0.008": 5.75182189117,
			"0.009": 0.672450400409,
			"0.01": 0.0,
			"0.011": 0.0,
			"0.012": 0.0,
			"0.013": 0.0,
			"0.014": 0.0,
			"0.015": 0.0,
			"0.016": 0.0,
			"0.017": 0.0,
			"0.018": 0.0,
			"0.019": 0.0,
			"0.02": 0.0,
			"0.021": 0.0,
			"0.022": 0.0,
			"0.023": 0.0,
			"0.024": 0.0,
			"0.025": 0.0
		}
	}
}
