{
	 "smiles": "OC1=C(C=CC=C1)N1C=CN=C1", 
	 "Tm": 492.15, 
	 "num_atms": 20, 
	 "gaussian": { 
		 "optdone": 1, 
		 "sigma_profile": "yes", 
		 "theory": "DFT", 
		 "functional": "B3LYP", 
		 "basiset": "6-31G**", 
		 "properties": { 
			 "R2extent": 2186.2734, 
			 "electric_dipole_moment_norm": 5.2365270428, 
			 "electric_quadrupole_moment_norm": 12.4152297731, 
			 "total_energy": -532.486074759, 
			 "HOMO_LUMO_gap": 0.19455, 
			 "cosmo_polarized_energy": -14.47, 
			 "cosmo_cavitation_energy": 24.2, 
			 "cosmo_dispersion_energy": -17.95, 
			 "cosmo_repulsion_energy": 1.4, 
			 "cosmo_total_nonelectrostatic_energy": 7.66, 
			 "SMD_solvation_energy": 3.67 
		},
		"coords": [
			{
				"x": -2.1699509977,
				"y": 1.5654142677,
				"z": -0.3832673132,
				"element": "O" 
			},
			{
				"x": -1.0450540976,
				"y": 1.2163911927,
				"z": 0.3056626744,
				"element": "C" 
			},
			{
				"x": -0.1724596045,
				"y": 0.2781950034,
				"z": -0.2811148066,
				"element": "C" 
			},
			{
				"x": 0.9884728516,
				"y": -0.0938689483,
				"z": 0.4036991248,
				"element": "C" 
			},
			{
				"x": 1.2821013568,
				"y": 0.4320572697,
				"z": 1.6614796376,
				"element": "C" 
			},
			{
				"x": 0.416221939,
				"y": 1.3605011883,
				"z": 2.2374678268,
				"element": "C" 
			},
			{
				"x": -0.7369471771,
				"y": 1.7532590311,
				"z": 1.558477992,
				"element": "C" 
			},
			{
				"x": -0.4707426691,
				"y": -0.3137450221,
				"z": -1.5363584108,
				"element": "N" 
			},
			{
				"x": -0.9069465226,
				"y": 0.3078302816,
				"z": -2.6984122464,
				"element": "C" 
			},
			{
				"x": -0.9846930058,
				"y": -0.6839639504,
				"z": -3.639701976,
				"element": "C" 
			},
			{
				"x": -0.619996867,
				"y": -1.9017888121,
				"z": -3.1031741149,
				"element": "N" 
			},
			{
				"x": -0.3168425949,
				"y": -1.6471544337,
				"z": -1.8529868484,
				"element": "C" 
			},
			{
				"x": -2.6884488676,
				"y": 2.1809331463,
				"z": 0.1510811855,
				"element": "H" 
			},
			{
				"x": 1.6674262988,
				"y": -0.7943245087,
				"z": -0.0714773656,
				"element": "H" 
			},
			{
				"x": 2.187347474,
				"y": 0.1279909999,
				"z": 2.176496365,
				"element": "H" 
			},
			{
				"x": 0.6348402743,
				"y": 1.7867558415,
				"z": 3.2116670252,
				"element": "H" 
			},
			{
				"x": -1.4152255738,
				"y": 2.4777466627,
				"z": 2.0045757664,
				"element": "H" 
			},
			{
				"x": -1.1156864753,
				"y": 1.3639833959,
				"z": -2.7277430256,
				"element": "H" 
			},
			{
				"x": -1.2855656698,
				"y": -0.5918687655,
				"z": -4.6742071336,
				"element": "H" 
			},
			{
				"x": -0.0072500717,
				"y": -2.3700438398,
				"z": -1.1109643568,
				"element": "H" 
			}
		],
		 "valence_orbital": [ 
			{
				"type": "occ",
				"energy": -0.29419,
				"method": "rhf"
			},
			{
				"type": "occ",
				"energy": -0.25816,
				"method": "rhf"
			},
			{
				"type": "occ",
				"energy": -0.25299,
				"method": "rhf"
			},
			{
				"type": "occ",
				"energy": -0.23131,
				"method": "rhf"
			},
			{
				"type": "occ",
				"energy": -0.21715,
				"method": "rhf"
			},
			{
				"type": "unocc",
				"energy": -0.0226,
				"method": "rhf"
			},
			{
				"type": "unocc",
				"energy": -0.005,
				"method": "rhf"
			},
			{
				"type": "unocc",
				"energy": 0.04179,
				"method": "rhf"
			},
			{
				"type": "unocc",
				"energy": 0.05488,
				"method": "rhf"
			},
			{
				"type": "unocc",
				"energy": 0.07782,
				"method": "rhf"
			}
		],
		"cosmo_sigma_profile": { 
			"-0.025": 0.0,
			"-0.024": 0.0,
			"-0.023": 0.0,
			"-0.022": 0.0,
			"-0.021": 0.0,
			"-0.02": 0.0,
			"-0.019": 0.0261816764087,
			"-0.018": 1.07823904645,
			"-0.017": 1.09682003687,
			"-0.016": 1.23495337161,
			"-0.015": 1.31180899426,
			"-0.014": 0.673754133232,
			"-0.013": 0.576189609304,
			"-0.012": 0.678174824105,
			"-0.011": 1.66867054765,
			"-0.01": 0.994420020841,
			"-0.009": 1.34872108942,
			"-0.008": 3.3666192531,
			"-0.007": 6.511787245,
			"-0.006": 13.5265149809,
			"-0.005": 11.6386030238,
			"-0.004": 13.4000096244,
			"-0.003": 11.7635003478,
			"-0.002": 9.4330381367,
			"-0.001": 9.16806202563,
			"0.0": 10.6935337034,
			"0.001": 13.3587247056,
			"0.002": 12.1893770546,
			"0.003": 13.6037466451,
			"0.004": 14.4098989802,
			"0.005": 13.2459578567,
			"0.006": 6.2286026598,
			"0.007": 3.67047182539,
			"0.008": 2.50890087897,
			"0.009": 3.80153926226,
			"0.01": 1.94639595609,
			"0.011": 1.03506699798,
			"0.012": 1.61620780544,
			"0.013": 1.40489750249,
			"0.014": 1.23805991463,
			"0.015": 0.901818489868,
			"0.016": 1.28652644431,
			"0.017": 1.10688426383,
			"0.018": 0.648028717016,
			"0.019": 0.000761595876979,
			"0.02": 0.0,
			"0.021": 0.0,
			"0.022": 0.0,
			"0.023": 0.0,
			"0.024": 0.0,
			"0.025": 0.0
		}
	}
}
