{
	 "smiles": "CC1=C(C2=C(S1)C=CC=C2)S(Cl)(=O)=O", 
	 "Tm": 391.15, 
	 "num_atms": 21, 
	 "gaussian": { 
		 "optdone": 1, 
		 "sigma_profile": "yes", 
		 "theory": "DFT", 
		 "functional": "B3LYP", 
		 "basiset": "6-31G**", 
		 "properties": { 
			 "R2extent": 3732.8404, 
			 "electric_dipole_moment_norm": 4.71674559522, 
			 "electric_quadrupole_moment_norm": 10.353333397, 
			 "total_energy": -1754.12878433, 
			 "HOMO_LUMO_gap": 0.15717, 
			 "cosmo_polarized_energy": -8.76, 
			 "cosmo_cavitation_energy": 29.47, 
			 "cosmo_dispersion_energy": -22.44, 
			 "cosmo_repulsion_energy": 1.66, 
			 "cosmo_total_nonelectrostatic_energy": 8.69, 
			 "SMD_solvation_energy": 3.28 
		},
		"coords": [
			{
				"x": -2.3503529814,
				"y": 1.2416449112,
				"z": 2.5250716475,
				"element": "C" 
			},
			{
				"x": -1.7438603979,
				"y": 0.5077957214,
				"z": 1.3648445227,
				"element": "C" 
			},
			{
				"x": -0.4773591603,
				"y": 0.5514566494,
				"z": 0.8309791105,
				"element": "C" 
			},
			{
				"x": -0.2627185188,
				"y": -0.2957688129,
				"z": -0.3287217489,
				"element": "C" 
			},
			{
				"x": -1.4425080451,
				"y": -1.0122569501,
				"z": -0.6375729765,
				"element": "C" 
			},
			{
				"x": -2.7387829581,
				"y": -0.6206178301,
				"z": 0.4799856448,
				"element": "S" 
			},
			{
				"x": -1.5087308628,
				"y": -1.9079924043,
				"z": -1.7083694788,
				"element": "C" 
			},
			{
				"x": -0.3717469965,
				"y": -2.0824328474,
				"z": -2.4882033469,
				"element": "C" 
			},
			{
				"x": 0.8090343614,
				"y": -1.3780489331,
				"z": -2.1977856354,
				"element": "C" 
			},
			{
				"x": 0.8776660451,
				"y": -0.4937497489,
				"z": -1.1295591479,
				"element": "C" 
			},
			{
				"x": 0.7764211127,
				"y": 1.6149008088,
				"z": 1.4745562186,
				"element": "S" 
			},
			{
				"x": 0.6562198368,
				"y": 3.2860213045,
				"z": 0.1348457724,
				"element": "Cl" 
			},
			{
				"x": 2.0917535406,
				"y": 1.0271364078,
				"z": 1.2492081416,
				"element": "O" 
			},
			{
				"x": 0.383382276,
				"y": 2.1258236777,
				"z": 2.7826475562,
				"element": "O" 
			},
			{
				"x": -3.4102505422,
				"y": 0.9969417937,
				"z": 2.623853551,
				"element": "H" 
			},
			{
				"x": -2.2506531255,
				"y": 2.3229761293,
				"z": 2.3991014139,
				"element": "H" 
			},
			{
				"x": -1.8398468364,
				"y": 0.9823257881,
				"z": 3.4561297306,
				"element": "H" 
			},
			{
				"x": -2.4237808345,
				"y": -2.4502145662,
				"z": -1.9247410849,
				"element": "H" 
			},
			{
				"x": -0.3977612567,
				"y": -2.7703906286,
				"z": -3.3275960157,
				"element": "H" 
			},
			{
				"x": 1.6874517936,
				"y": -1.5297297308,
				"z": -2.8173330588,
				"element": "H" 
			},
			{
				"x": 1.7968235498,
				"y": 0.0332792604,
				"z": -0.906340816,
				"element": "H" 
			}
		],
		 "valence_orbital": [ 
			{
				"type": "occ",
				"energy": -0.32936,
				"method": "rhf"
			},
			{
				"type": "occ",
				"energy": -0.31118,
				"method": "rhf"
			},
			{
				"type": "occ",
				"energy": -0.30372,
				"method": "rhf"
			},
			{
				"type": "occ",
				"energy": -0.25743,
				"method": "rhf"
			},
			{
				"type": "occ",
				"energy": -0.24551,
				"method": "rhf"
			},
			{
				"type": "unocc",
				"energy": -0.08834,
				"method": "rhf"
			},
			{
				"type": "unocc",
				"energy": -0.05168,
				"method": "rhf"
			},
			{
				"type": "unocc",
				"energy": -0.02077,
				"method": "rhf"
			},
			{
				"type": "unocc",
				"energy": -0.01313,
				"method": "rhf"
			},
			{
				"type": "unocc",
				"energy": 0.00174,
				"method": "rhf"
			}
		],
		"cosmo_sigma_profile": { 
			"-0.025": 0.0,
			"-0.024": 0.0,
			"-0.023": 0.0,
			"-0.022": 0.0,
			"-0.021": 0.0,
			"-0.02": 0.0,
			"-0.019": 0.0,
			"-0.018": 0.0,
			"-0.017": 0.0,
			"-0.016": 0.0,
			"-0.015": 0.0,
			"-0.014": 0.0,
			"-0.013": 0.0,
			"-0.012": 0.0,
			"-0.011": 0.0,
			"-0.01": 0.0,
			"-0.009": 0.0948685170816,
			"-0.008": 2.36819362572,
			"-0.007": 6.75532620193,
			"-0.006": 13.4220746539,
			"-0.005": 16.8197031115,
			"-0.004": 16.7201933094,
			"-0.003": 17.8045222616,
			"-0.002": 17.2516276869,
			"-0.001": 17.8920655717,
			"0.0": 19.6564455557,
			"0.001": 22.2383479982,
			"0.002": 18.6303118845,
			"0.003": 25.0554684334,
			"0.004": 21.6071903121,
			"0.005": 5.17508526872,
			"0.006": 2.90504877058,
			"0.007": 5.44073783612,
			"0.008": 6.923988184,
			"0.009": 4.80119479554,
			"0.01": 0.113696494373,
			"0.011": 0.0,
			"0.012": 0.0,
			"0.013": 0.0,
			"0.014": 0.0,
			"0.015": 0.0,
			"0.016": 0.0,
			"0.017": 0.0,
			"0.018": 0.0,
			"0.019": 0.0,
			"0.02": 0.0,
			"0.021": 0.0,
			"0.022": 0.0,
			"0.023": 0.0,
			"0.024": 0.0,
			"0.025": 0.0
		}
	}
}
