{
	 "smiles": "O=C(N1N=C(C[C@H]1C1=CN(N=C1C1=CC=CC=C1)C1=CC=CC=C1)C1=CC=CC=C1)C1=CC=NC=C1", 
	 "Tm": 498.15, 
	 "num_atms": 59, 
	 "gaussian": { 
		 "optdone": 1, 
		 "sigma_profile": "yes", 
		 "theory": "DFT", 
		 "functional": "B3LYP", 
		 "basiset": "6-31G**", 
		 "properties": { 
			 "R2extent": 18025.5053, 
			 "electric_dipole_moment_norm": 5.09979191536, 
			 "electric_quadrupole_moment_norm": 16.04472236, 
			 "total_energy": -1505.9949814, 
			 "HOMO_LUMO_gap": 0.15451, 
			 "cosmo_polarized_energy": -25.49, 
			 "cosmo_cavitation_energy": 62.83, 
			 "cosmo_dispersion_energy": -39.93, 
			 "cosmo_repulsion_energy": 2.95, 
			 "cosmo_total_nonelectrostatic_energy": 25.85, 
			 "SMD_solvation_energy": 7.65 
		},
		"coords": [
			{
				"x": 2.8370231351,
				"y": -2.0747567634,
				"z": -0.5831577615,
				"element": "O" 
			},
			{
				"x": 2.2564209798,
				"y": -1.6723439573,
				"z": 0.4128978227,
				"element": "C" 
			},
			{
				"x": 2.0152880624,
				"y": -0.3293994942,
				"z": 0.6635158999,
				"element": "N" 
			},
			{
				"x": 2.6607470419,
				"y": 0.6053450676,
				"z": -0.1170261607,
				"element": "N" 
			},
			{
				"x": 2.170303388,
				"y": 1.77541617,
				"z": 0.1153996683,
				"element": "C" 
			},
			{
				"x": 1.0223728809,
				"y": 1.7679682649,
				"z": 1.1034640111,
				"element": "C" 
			},
			{
				"x": 0.914909855,
				"y": 0.2716074814,
				"z": 1.5017331065,
				"element": "C" 
			},
			{
				"x": -0.4441136541,
				"y": -0.3497352828,
				"z": 1.3202293133,
				"element": "C" 
			},
			{
				"x": -1.0909930402,
				"y": -1.0704598201,
				"z": 2.3058088261,
				"element": "C" 
			},
			{
				"x": -2.3276668404,
				"y": -1.3897430109,
				"z": 1.8411021364,
				"element": "N" 
			},
			{
				"x": -2.5332869631,
				"y": -0.9020610584,
				"z": 0.593565461,
				"element": "N" 
			},
			{
				"x": -1.4037306412,
				"y": -0.2740643015,
				"z": 0.2552105131,
				"element": "C" 
			},
			{
				"x": -1.3327612435,
				"y": 0.3852201583,
				"z": -1.0669494529,
				"element": "C" 
			},
			{
				"x": -0.1989201279,
				"y": 0.2844291025,
				"z": -1.8886676286,
				"element": "C" 
			},
			{
				"x": -0.1769236093,
				"y": 0.9025048734,
				"z": -3.1397954792,
				"element": "C" 
			},
			{
				"x": -1.2844434157,
				"y": 1.6206798906,
				"z": -3.5918420614,
				"element": "C" 
			},
			{
				"x": -2.4227631498,
				"y": 1.7143054785,
				"z": -2.787012678,
				"element": "C" 
			},
			{
				"x": -2.4475188224,
				"y": 1.1024301269,
				"z": -1.5359589564,
				"element": "C" 
			},
			{
				"x": -3.3383669465,
				"y": -2.1437559646,
				"z": 2.4968496114,
				"element": "C" 
			},
			{
				"x": -2.9907858617,
				"y": -3.0881623645,
				"z": 3.4692102492,
				"element": "C" 
			},
			{
				"x": -3.9970649068,
				"y": -3.8009771833,
				"z": 4.1210000364,
				"element": "C" 
			},
			{
				"x": -5.3381514628,
				"y": -3.5921759451,
				"z": 3.7957561124,
				"element": "C" 
			},
			{
				"x": -5.6713744731,
				"y": -2.6626594048,
				"z": 2.8075089318,
				"element": "C" 
			},
			{
				"x": -4.6787838928,
				"y": -1.9327771867,
				"z": 2.1573247249,
				"element": "C" 
			},
			{
				"x": 2.6948359194,
				"y": 2.9749612869,
				"z": -0.5449592581,
				"element": "C" 
			},
			{
				"x": 3.779609467,
				"y": 2.8825726435,
				"z": -1.438180894,
				"element": "C" 
			},
			{
				"x": 4.2756917133,
				"y": 4.0218255928,
				"z": -2.0610805674,
				"element": "C" 
			},
			{
				"x": 3.7030943355,
				"y": 5.2734497583,
				"z": -1.8071474867,
				"element": "C" 
			},
			{
				"x": 2.6282662508,
				"y": 5.3754744743,
				"z": -0.9241961163,
				"element": "C" 
			},
			{
				"x": 2.1269406525,
				"y": 4.2350056667,
				"z": -0.2962169921,
				"element": "C" 
			},
			{
				"x": 1.7975487637,
				"y": -2.6368111002,
				"z": 1.4746953567,
				"element": "C" 
			},
			{
				"x": 1.1319971311,
				"y": -3.804941818,
				"z": 1.0932332159,
				"element": "C" 
			},
			{
				"x": 0.739499555,
				"y": -4.7048061678,
				"z": 2.0824829461,
				"element": "C" 
			},
			{
				"x": 0.9910738838,
				"y": -4.5343388924,
				"z": 3.3893150673,
				"element": "N" 
			},
			{
				"x": 1.6785275466,
				"y": -3.4390093109,
				"z": 3.7377494064,
				"element": "C" 
			},
			{
				"x": 2.0960259265,
				"y": -2.4641117484,
				"z": 2.8303769063,
				"element": "C" 
			},
			{
				"x": 1.2267419782,
				"y": 2.4025721958,
				"z": 1.9715594583,
				"element": "H" 
			},
			{
				"x": 0.1014798007,
				"y": 2.1331774741,
				"z": 0.6386448185,
				"element": "H" 
			},
			{
				"x": 1.1888679158,
				"y": 0.1528148587,
				"z": 2.5531981547,
				"element": "H" 
			},
			{
				"x": -0.7619627098,
				"y": -1.3522359792,
				"z": 3.2941870982,
				"element": "H" 
			},
			{
				"x": 0.658917009,
				"y": -0.2968141379,
				"z": -1.5705208127,
				"element": "H" 
			},
			{
				"x": 0.7078368425,
				"y": 0.8124192922,
				"z": -3.7629241362,
				"element": "H" 
			},
			{
				"x": -1.2631802569,
				"y": 2.1012277492,
				"z": -4.5657954047,
				"element": "H" 
			},
			{
				"x": -3.2913197719,
				"y": 2.2675796416,
				"z": -3.1331999533,
				"element": "H" 
			},
			{
				"x": -3.3290915061,
				"y": 1.1704533359,
				"z": -0.9069810589,
				"element": "H" 
			},
			{
				"x": -1.9490947512,
				"y": -3.2927828159,
				"z": 3.694038882,
				"element": "H" 
			},
			{
				"x": -3.7248076433,
				"y": -4.5349019521,
				"z": 4.8735241124,
				"element": "H" 
			},
			{
				"x": -6.1165918419,
				"y": -4.1550695898,
				"z": 4.3016356961,
				"element": "H" 
			},
			{
				"x": -6.7117815592,
				"y": -2.4983892581,
				"z": 2.5429390738,
				"element": "H" 
			},
			{
				"x": -4.919339819,
				"y": -1.2080385265,
				"z": 1.3891400156,
				"element": "H" 
			},
			{
				"x": 4.2172183797,
				"y": 1.9084548991,
				"z": -1.6283489849,
				"element": "H" 
			},
			{
				"x": 5.112954024,
				"y": 3.9371240364,
				"z": -2.7479048557,
				"element": "H" 
			},
			{
				"x": 4.0940261843,
				"y": 6.1613351547,
				"z": -2.2955510305,
				"element": "H" 
			},
			{
				"x": 2.1772330046,
				"y": 6.3427730862,
				"z": -0.7227709402,
				"element": "H" 
			},
			{
				"x": 1.2878699793,
				"y": 4.3282344531,
				"z": 0.3865714481,
				"element": "H" 
			},
			{
				"x": 0.9179491232,
				"y": -3.9928865354,
				"z": 0.0467840586,
				"element": "H" 
			},
			{
				"x": 0.1934838261,
				"y": -5.6072869602,
				"z": 1.8147630431,
				"element": "H" 
			},
			{
				"x": 1.9052456196,
				"y": -3.331999137,
				"z": 4.7974428706,
				"element": "H" 
			},
			{
				"x": 2.6555187355,
				"y": -1.5996665461,
				"z": 3.1744306172,
				"element": "H" 
			}
		],
		 "valence_orbital": [ 
			{
				"type": "occ",
				"energy": -0.25186,
				"method": "rhf"
			},
			{
				"type": "occ",
				"energy": -0.24757,
				"method": "rhf"
			},
			{
				"type": "occ",
				"energy": -0.24628,
				"method": "rhf"
			},
			{
				"type": "occ",
				"energy": -0.22184,
				"method": "rhf"
			},
			{
				"type": "occ",
				"energy": -0.21419,
				"method": "rhf"
			},
			{
				"type": "unocc",
				"energy": -0.05968,
				"method": "rhf"
			},
			{
				"type": "unocc",
				"energy": -0.04057,
				"method": "rhf"
			},
			{
				"type": "unocc",
				"energy": -0.03309,
				"method": "rhf"
			},
			{
				"type": "unocc",
				"energy": -0.02176,
				"method": "rhf"
			},
			{
				"type": "unocc",
				"energy": -0.01263,
				"method": "rhf"
			}
		],
		"cosmo_sigma_profile": { 
			"-0.025": 0.0,
			"-0.024": 0.0,
			"-0.023": 0.0,
			"-0.022": 0.0,
			"-0.021": 0.0,
			"-0.02": 0.0,
			"-0.019": 0.0,
			"-0.018": 0.0,
			"-0.017": 0.0,
			"-0.016": 0.0,
			"-0.015": 0.0,
			"-0.014": 0.0,
			"-0.013": 0.0,
			"-0.012": 0.0,
			"-0.011": 0.0,
			"-0.01": 0.0,
			"-0.009": 0.720417588467,
			"-0.008": 7.07294209301,
			"-0.007": 16.8993522262,
			"-0.006": 37.6936860394,
			"-0.005": 39.7907493853,
			"-0.004": 44.308191818,
			"-0.003": 34.6088147101,
			"-0.002": 33.4396949846,
			"-0.001": 31.8483209617,
			"0.0": 33.3558370903,
			"0.001": 39.2159999418,
			"0.002": 36.5062131314,
			"0.003": 36.811121391,
			"0.004": 37.5597190446,
			"0.005": 28.7404671781,
			"0.006": 7.96186790429,
			"0.007": 4.98205832312,
			"0.008": 3.36121114296,
			"0.009": 4.61563141087,
			"0.01": 3.4528975919,
			"0.011": 4.63587355887,
			"0.012": 5.41971753047,
			"0.013": 5.74669473862,
			"0.014": 2.16116940386,
			"0.015": 2.03449782629,
			"0.016": 1.59015337984,
			"0.017": 0.480502126857,
			"0.018": 0.0,
			"0.019": 0.0,
			"0.02": 0.0,
			"0.021": 0.0,
			"0.022": 0.0,
			"0.023": 0.0,
			"0.024": 0.0,
			"0.025": 0.0
		}
	}
}
