{
	 "smiles": "CC(C)(C)OC(=O)N1CC[C@H](O)C1", 
	 "Tm": 334.15, 
	 "num_atms": 30, 
	 "gaussian": { 
		 "optdone": 1, 
		 "sigma_profile": "yes", 
		 "theory": "DFT", 
		 "functional": "B3LYP", 
		 "basiset": "6-31G**", 
		 "properties": { 
			 "R2extent": 3261.1094, 
			 "electric_dipole_moment_norm": 1.47815688613, 
			 "electric_quadrupole_moment_norm": 11.5901078968, 
			 "total_energy": -633.655317206, 
			 "HOMO_LUMO_gap": 0.28547, 
			 "cosmo_polarized_energy": -11.79, 
			 "cosmo_cavitation_energy": 31.03, 
			 "cosmo_dispersion_energy": -21.93, 
			 "cosmo_repulsion_energy": 1.76, 
			 "cosmo_total_nonelectrostatic_energy": 10.87, 
			 "SMD_solvation_energy": 5.5 
		},
		"coords": [
			{
				"x": -0.615020948,
				"y": 1.7078620808,
				"z": -2.1918986729,
				"element": "C" 
			},
			{
				"x": -0.1974425072,
				"y": 0.2575979422,
				"z": -1.9241873864,
				"element": "C" 
			},
			{
				"x": 1.2960399567,
				"y": 0.0277893848,
				"z": -2.1811413046,
				"element": "C" 
			},
			{
				"x": -1.0458918401,
				"y": -0.7127449401,
				"z": -2.7505474327,
				"element": "C" 
			},
			{
				"x": -0.5363192091,
				"y": -0.1176092126,
				"z": -0.5436446852,
				"element": "O" 
			},
			{
				"x": 0.0320420372,
				"y": 0.5237536618,
				"z": 0.5096609393,
				"element": "C" 
			},
			{
				"x": 0.8332222043,
				"y": 1.446797845,
				"z": 0.4501204336,
				"element": "O" 
			},
			{
				"x": -0.4103926325,
				"y": -0.0081906897,
				"z": 1.6854981356,
				"element": "N" 
			},
			{
				"x": -0.0081692356,
				"y": 0.5880665955,
				"z": 2.9680558769,
				"element": "C" 
			},
			{
				"x": -0.9324198736,
				"y": -0.1095551638,
				"z": 3.9825221484,
				"element": "C" 
			},
			{
				"x": -1.2726143586,
				"y": -1.4553597128,
				"z": 3.3133674325,
				"element": "C" 
			},
			{
				"x": -0.2591728795,
				"y": -2.433346271,
				"z": 3.5132198812,
				"element": "O" 
			},
			{
				"x": -1.4173916457,
				"y": -1.0650404599,
				"z": 1.8344278049,
				"element": "C" 
			},
			{
				"x": -0.0294997537,
				"y": 2.3992139317,
				"z": -1.5856375022,
				"element": "H" 
			},
			{
				"x": -1.6767591626,
				"y": 1.8452298623,
				"z": -1.9630220483,
				"element": "H" 
			},
			{
				"x": -0.4625348465,
				"y": 1.9455918436,
				"z": -3.249795165,
				"element": "H" 
			},
			{
				"x": 1.5673680171,
				"y": -1.0058170283,
				"z": -1.9431029959,
				"element": "H" 
			},
			{
				"x": 1.9032077708,
				"y": 0.7020512584,
				"z": -1.5768430519,
				"element": "H" 
			},
			{
				"x": 1.5185185722,
				"y": 0.2014471067,
				"z": -3.2390758587,
				"element": "H" 
			},
			{
				"x": -0.8871049466,
				"y": -0.535861621,
				"z": -3.8184972673,
				"element": "H" 
			},
			{
				"x": -2.1092622172,
				"y": -0.5787711851,
				"z": -2.5314362138,
				"element": "H" 
			},
			{
				"x": -0.7758658266,
				"y": -1.749101768,
				"z": -2.5272333832,
				"element": "H" 
			},
			{
				"x": 1.0530798048,
				"y": 0.3904333805,
				"z": 3.1673459714,
				"element": "H" 
			},
			{
				"x": -0.1288084446,
				"y": 1.6747576225,
				"z": 2.9455803071,
				"element": "H" 
			},
			{
				"x": -0.466873567,
				"y": -0.2545571015,
				"z": 4.9598084029,
				"element": "H" 
			},
			{
				"x": -1.8491055026,
				"y": 0.4743204204,
				"z": 4.1220459799,
				"element": "H" 
			},
			{
				"x": -2.1885639227,
				"y": -1.9007870291,
				"z": 3.7100702376,
				"element": "H" 
			},
			{
				"x": 0.5450073421,
				"y": -2.1233134356,
				"z": 3.0745660595,
				"element": "H" 
			},
			{
				"x": -2.4280099785,
				"y": -0.6929176975,
				"z": 1.6138278194,
				"element": "H" 
			},
			{
				"x": -1.2134624067,
				"y": -1.9080396202,
				"z": 1.1709455381,
				"element": "H" 
			}
		],
		 "valence_orbital": [ 
			{
				"type": "occ",
				"energy": -0.3277,
				"method": "rhf"
			},
			{
				"type": "occ",
				"energy": -0.28408,
				"method": "rhf"
			},
			{
				"type": "occ",
				"energy": -0.2744,
				"method": "rhf"
			},
			{
				"type": "occ",
				"energy": -0.25692,
				"method": "rhf"
			},
			{
				"type": "occ",
				"energy": -0.23624,
				"method": "rhf"
			},
			{
				"type": "unocc",
				"energy": 0.04923,
				"method": "rhf"
			},
			{
				"type": "unocc",
				"energy": 0.06597,
				"method": "rhf"
			},
			{
				"type": "unocc",
				"energy": 0.08886,
				"method": "rhf"
			},
			{
				"type": "unocc",
				"energy": 0.10354,
				"method": "rhf"
			},
			{
				"type": "unocc",
				"energy": 0.10685,
				"method": "rhf"
			}
		],
		"cosmo_sigma_profile": { 
			"-0.025": 0.0,
			"-0.024": 0.0,
			"-0.023": 0.0,
			"-0.022": 0.0,
			"-0.021": 0.0,
			"-0.02": 0.0,
			"-0.019": 0.0,
			"-0.018": 0.0,
			"-0.017": 0.0,
			"-0.016": 0.0,
			"-0.015": 0.289349502687,
			"-0.014": 0.565650897451,
			"-0.013": 0.858244756198,
			"-0.012": 0.45670990227,
			"-0.011": 1.40432758736,
			"-0.01": 1.10552832189,
			"-0.009": 0.952390741185,
			"-0.008": 0.747538413779,
			"-0.007": 1.32672818966,
			"-0.006": 2.28395160022,
			"-0.005": 10.5256892068,
			"-0.004": 28.8463722797,
			"-0.003": 29.0660022187,
			"-0.002": 27.6432819741,
			"-0.001": 26.3241163885,
			"0.0": 29.5335227131,
			"0.001": 21.7030344094,
			"0.002": 8.21719911436,
			"0.003": 5.91514060457,
			"0.004": 4.75821523914,
			"0.005": 5.34243874617,
			"0.006": 3.67555819987,
			"0.007": 4.47699375499,
			"0.008": 2.95448766315,
			"0.009": 2.41937191226,
			"0.01": 2.92689967153,
			"0.011": 2.86147051387,
			"0.012": 2.69361619094,
			"0.013": 5.36756956929,
			"0.014": 4.78227204455,
			"0.015": 0.195276885199,
			"0.016": 0.0,
			"0.017": 0.0,
			"0.018": 0.0,
			"0.019": 0.0,
			"0.02": 0.0,
			"0.021": 0.0,
			"0.022": 0.0,
			"0.023": 0.0,
			"0.024": 0.0,
			"0.025": 0.0
		}
	}
}
