{
	 "smiles": "COC1=CC=CC(OC)=C1C(Cl)=O", 
	 "Tm": 338.15, 
	 "num_atms": 22, 
	 "gaussian": { 
		 "optdone": 1, 
		 "sigma_profile": "yes", 
		 "theory": "DFT", 
		 "functional": "B3LYP", 
		 "basiset": "6-31G**", 
		 "properties": { 
			 "R2extent": 2971.2759, 
			 "electric_dipole_moment_norm": 4.8622945972, 
			 "electric_quadrupole_moment_norm": 14.136487579, 
			 "total_energy": -1034.21427487, 
			 "HOMO_LUMO_gap": 0.18578, 
			 "cosmo_polarized_energy": -9.86, 
			 "cosmo_cavitation_energy": 28.12, 
			 "cosmo_dispersion_energy": -20.06, 
			 "cosmo_repulsion_energy": 1.61, 
			 "cosmo_total_nonelectrostatic_energy": 9.67, 
			 "SMD_solvation_energy": 6.82 
		},
		"coords": [
			{
				"x": 2.2042970196,
				"y": 2.280259719,
				"z": 2.5671227187,
				"element": "C" 
			},
			{
				"x": 1.8424260158,
				"y": 1.8103620666,
				"z": 1.2750360474,
				"element": "O" 
			},
			{
				"x": 0.9971325925,
				"y": 0.754819396,
				"z": 1.1750965288,
				"element": "C" 
			},
			{
				"x": 0.3724580421,
				"y": 0.135903804,
				"z": 2.263096751,
				"element": "C" 
			},
			{
				"x": -0.5140180026,
				"y": -0.920390573,
				"z": 2.0409660979,
				"element": "C" 
			},
			{
				"x": -0.7980894924,
				"y": -1.3667379124,
				"z": 0.7543839884,
				"element": "C" 
			},
			{
				"x": -0.1826464637,
				"y": -0.7455400986,
				"z": -0.336287638,
				"element": "C" 
			},
			{
				"x": -0.3905143323,
				"y": -1.2149457383,
				"z": -1.6073329844,
				"element": "O" 
			},
			{
				"x": -1.6018132461,
				"y": -0.7738624848,
				"z": -2.232807542,
				"element": "C" 
			},
			{
				"x": 0.7236511685,
				"y": 0.3086394711,
				"z": -0.1368689911,
				"element": "C" 
			},
			{
				"x": 1.3395982692,
				"y": 0.9420318031,
				"z": -1.3341029006,
				"element": "C" 
			},
			{
				"x": 3.1594856888,
				"y": 0.8199368827,
				"z": -1.3782631803,
				"element": "Cl" 
			},
			{
				"x": 0.7652430306,
				"y": 1.4475183459,
				"z": -2.2483986606,
				"element": "O" 
			},
			{
				"x": 1.3333103939,
				"y": 2.6628735642,
				"z": 3.1132172217,
				"element": "H" 
			},
			{
				"x": 2.9107779509,
				"y": 3.0934224238,
				"z": 2.3986893512,
				"element": "H" 
			},
			{
				"x": 2.6887511867,
				"y": 1.4939513219,
				"z": 3.1582123966,
				"element": "H" 
			},
			{
				"x": 0.5681133795,
				"y": 0.4701849989,
				"z": 3.2740031225,
				"element": "H" 
			},
			{
				"x": -0.9860609542,
				"y": -1.4007299392,
				"z": 2.892981619,
				"element": "H" 
			},
			{
				"x": -1.4681497307,
				"y": -2.2008161162,
				"z": 0.5770955762,
				"element": "H" 
			},
			{
				"x": -1.5776737913,
				"y": 0.3085974326,
				"z": -2.3952795606,
				"element": "H" 
			},
			{
				"x": -2.480042814,
				"y": -1.0404267483,
				"z": -1.6317651189,
				"element": "H" 
			},
			{
				"x": -1.6513359108,
				"y": -1.2876516188,
				"z": -3.1941948429,
				"element": "H" 
			}
		],
		 "valence_orbital": [ 
			{
				"type": "occ",
				"energy": -0.30296,
				"method": "rhf"
			},
			{
				"type": "occ",
				"energy": -0.2897,
				"method": "rhf"
			},
			{
				"type": "occ",
				"energy": -0.28116,
				"method": "rhf"
			},
			{
				"type": "occ",
				"energy": -0.25595,
				"method": "rhf"
			},
			{
				"type": "occ",
				"energy": -0.23638,
				"method": "rhf"
			},
			{
				"type": "unocc",
				"energy": -0.0506,
				"method": "rhf"
			},
			{
				"type": "unocc",
				"energy": -0.00717,
				"method": "rhf"
			},
			{
				"type": "unocc",
				"energy": -0.00375,
				"method": "rhf"
			},
			{
				"type": "unocc",
				"energy": 0.03688,
				"method": "rhf"
			},
			{
				"type": "unocc",
				"energy": 0.08209,
				"method": "rhf"
			}
		],
		"cosmo_sigma_profile": { 
			"-0.025": 0.0,
			"-0.024": 0.0,
			"-0.023": 0.0,
			"-0.022": 0.0,
			"-0.021": 0.0,
			"-0.02": 0.0,
			"-0.019": 0.0,
			"-0.018": 0.0,
			"-0.017": 0.0,
			"-0.016": 0.0,
			"-0.015": 0.0,
			"-0.014": 0.0,
			"-0.013": 0.0,
			"-0.012": 0.0,
			"-0.011": 0.0,
			"-0.01": 0.0,
			"-0.009": 0.0,
			"-0.008": 0.429794538037,
			"-0.007": 6.36601478859,
			"-0.006": 15.997930564,
			"-0.005": 20.0599424851,
			"-0.004": 19.5285933941,
			"-0.003": 18.8127339556,
			"-0.002": 11.8537973541,
			"-0.001": 12.6440450027,
			"0.0": 13.9886686447,
			"0.001": 17.6225959332,
			"0.002": 17.8452150329,
			"0.003": 17.5230239778,
			"0.004": 17.9754069367,
			"0.005": 12.481418362,
			"0.006": 7.24171227747,
			"0.007": 6.24501531583,
			"0.008": 5.24223614771,
			"0.009": 2.30268952072,
			"0.01": 1.65051175392,
			"0.011": 0.725927764282,
			"0.012": 0.0388608746436,
			"0.013": 0.0,
			"0.014": 0.0,
			"0.015": 0.0,
			"0.016": 0.0,
			"0.017": 0.0,
			"0.018": 0.0,
			"0.019": 0.0,
			"0.02": 0.0,
			"0.021": 0.0,
			"0.022": 0.0,
			"0.023": 0.0,
			"0.024": 0.0,
			"0.025": 0.0
		}
	}
}
