{
	 "smiles": "COC1=CC=C(O)C=C1", 
	 "Tm": 329.15, 
	 "num_atms": 17, 
	 "gaussian": { 
		 "optdone": 1, 
		 "sigma_profile": "yes", 
		 "theory": "DFT", 
		 "functional": "B3LYP", 
		 "basiset": "6-31G**", 
		 "properties": { 
			 "R2extent": 1528.2152, 
			 "electric_dipole_moment_norm": 2.49108279469, 
			 "electric_quadrupole_moment_norm": 6.51469435047, 
			 "total_energy": -421.993219024, 
			 "HOMO_LUMO_gap": 0.19663, 
			 "cosmo_polarized_energy": -9.75, 
			 "cosmo_cavitation_energy": 20.71, 
			 "cosmo_dispersion_energy": -15.66, 
			 "cosmo_repulsion_energy": 1.28, 
			 "cosmo_total_nonelectrostatic_energy": 6.33, 
			 "SMD_solvation_energy": 4.7 
		},
		"coords": [
			{
				"x": -0.277887942,
				"y": 2.7878112475,
				"z": -2.7143733259,
				"element": "C" 
			},
			{
				"x": -0.1970295513,
				"y": 2.8504514571,
				"z": -1.302518935,
				"element": "O" 
			},
			{
				"x": 0.0320987829,
				"y": 1.683976665,
				"z": -0.6205017856,
				"element": "C" 
			},
			{
				"x": 0.1040073729,
				"y": 1.7978178273,
				"z": 0.7766274758,
				"element": "C" 
			},
			{
				"x": 0.3323872588,
				"y": 0.6804312685,
				"z": 1.5668427866,
				"element": "C" 
			},
			{
				"x": 0.4943050305,
				"y": -0.5793982465,
				"z": 0.9740788763,
				"element": "C" 
			},
			{
				"x": 0.7173414095,
				"y": -1.6457244344,
				"z": 1.8069935077,
				"element": "O" 
			},
			{
				"x": 0.4235494917,
				"y": -0.6964142337,
				"z": -0.4128158311,
				"element": "C" 
			},
			{
				"x": 0.1931745977,
				"y": 0.4294384214,
				"z": -1.2133049226,
				"element": "C" 
			},
			{
				"x": 0.6575947967,
				"y": 2.4239899223,
				"z": -3.1609731738,
				"element": "H" 
			},
			{
				"x": -0.4620008544,
				"y": 3.8084193921,
				"z": -3.05422432,
				"element": "H" 
			},
			{
				"x": -1.1033463685,
				"y": 2.1440454972,
				"z": -3.0477377998,
				"element": "H" 
			},
			{
				"x": -0.0231303177,
				"y": 2.7790485202,
				"z": 1.222298098,
				"element": "H" 
			},
			{
				"x": 0.3888953802,
				"y": 0.7629090991,
				"z": 2.6473070592,
				"element": "H" 
			},
			{
				"x": 0.8100286072,
				"y": -2.4455486855,
				"z": 1.2740290583,
				"element": "H" 
			},
			{
				"x": 0.547721984,
				"y": -1.669282052,
				"z": -0.8845167227,
				"element": "H" 
			},
			{
				"x": 0.1433903219,
				"y": 0.3070283342,
				"z": -2.2887100454,
				"element": "H" 
			}
		],
		 "valence_orbital": [ 
			{
				"type": "occ",
				"energy": -0.34564,
				"method": "rhf"
			},
			{
				"type": "occ",
				"energy": -0.32238,
				"method": "rhf"
			},
			{
				"type": "occ",
				"energy": -0.29166,
				"method": "rhf"
			},
			{
				"type": "occ",
				"energy": -0.24896,
				"method": "rhf"
			},
			{
				"type": "occ",
				"energy": -0.19679,
				"method": "rhf"
			},
			{
				"type": "unocc",
				"energy": -0.00016,
				"method": "rhf"
			},
			{
				"type": "unocc",
				"energy": 0.03001,
				"method": "rhf"
			},
			{
				"type": "unocc",
				"energy": 0.07413,
				"method": "rhf"
			},
			{
				"type": "unocc",
				"energy": 0.0938,
				"method": "rhf"
			},
			{
				"type": "unocc",
				"energy": 0.11108,
				"method": "rhf"
			}
		],
		"cosmo_sigma_profile": { 
			"-0.025": 0.0,
			"-0.024": 0.0,
			"-0.023": 0.0,
			"-0.022": 0.0,
			"-0.021": 0.0,
			"-0.02": 0.0,
			"-0.019": 0.0,
			"-0.018": 0.181361527151,
			"-0.017": 0.932381710114,
			"-0.016": 1.02984528938,
			"-0.015": 0.977556530729,
			"-0.014": 1.04232109246,
			"-0.013": 1.01485875312,
			"-0.012": 0.86820719083,
			"-0.011": 0.458511497946,
			"-0.01": 1.00906186719,
			"-0.009": 1.93690760731,
			"-0.008": 0.937410457657,
			"-0.007": 1.3574645049,
			"-0.006": 7.2727058121,
			"-0.005": 14.6273903555,
			"-0.004": 15.4016167626,
			"-0.003": 14.999919866,
			"-0.002": 9.04962127216,
			"-0.001": 8.56073967664,
			"0.0": 7.06537331912,
			"0.001": 5.07314331786,
			"0.002": 7.72036415897,
			"0.003": 8.5142306216,
			"0.004": 13.6173718025,
			"0.005": 14.3338687685,
			"0.006": 9.95351534023,
			"0.007": 3.0474366654,
			"0.008": 2.55491586321,
			"0.009": 3.24180068731,
			"0.01": 2.87711815481,
			"0.011": 2.9710341695,
			"0.012": 1.65128168655,
			"0.013": 0.083854980664,
			"0.014": 0.0,
			"0.015": 0.0,
			"0.016": 0.0,
			"0.017": 0.0,
			"0.018": 0.0,
			"0.019": 0.0,
			"0.02": 0.0,
			"0.021": 0.0,
			"0.022": 0.0,
			"0.023": 0.0,
			"0.024": 0.0,
			"0.025": 0.0
		}
	}
}
