{
	 "smiles": "CCOC(=O)C1=CC2=C(N=C1NC)C1=CC=CC=C1OC2=O", 
	 "Tm": 505.15, 
	 "num_atms": 36, 
	 "gaussian": { 
		 "optdone": 1, 
		 "sigma_profile": "yes", 
		 "theory": "DFT", 
		 "functional": "B3LYP", 
		 "basiset": "6-31G**", 
		 "properties": { 
			 "R2extent": 8770.0946, 
			 "electric_dipole_moment_norm": 3.63701534366, 
			 "electric_quadrupole_moment_norm": 23.348925075, 
			 "total_energy": -1028.60388153, 
			 "HOMO_LUMO_gap": 0.15048, 
			 "cosmo_polarized_energy": -13.01, 
			 "cosmo_cavitation_energy": 40.56, 
			 "cosmo_dispersion_energy": -29.42, 
			 "cosmo_repulsion_energy": 2.23, 
			 "cosmo_total_nonelectrostatic_energy": 13.37, 
			 "SMD_solvation_energy": 7.48 
		},
		"coords": [
			{
				"x": 2.8040931876,
				"y": 5.0913984617,
				"z": -0.8644704055,
				"element": "C" 
			},
			{
				"x": 2.1331983486,
				"y": 4.0139888668,
				"z": -1.6943034117,
				"element": "C" 
			},
			{
				"x": 1.4577224134,
				"y": 3.1209057785,
				"z": -0.776955615,
				"element": "O" 
			},
			{
				"x": 0.7956544482,
				"y": 2.0879525231,
				"z": -1.3283490281,
				"element": "C" 
			},
			{
				"x": 0.7615377064,
				"y": 1.9059090105,
				"z": -2.5428492089,
				"element": "O" 
			},
			{
				"x": 0.1353502866,
				"y": 1.2263482868,
				"z": -0.3280395371,
				"element": "C" 
			},
			{
				"x": 0.2201891092,
				"y": 1.4981575867,
				"z": 1.0285514093,
				"element": "C" 
			},
			{
				"x": -0.4137779146,
				"y": 0.6681493775,
				"z": 1.9597700146,
				"element": "C" 
			},
			{
				"x": -1.1351750541,
				"y": -0.4439736688,
				"z": 1.4723074744,
				"element": "C" 
			},
			{
				"x": -1.2362998492,
				"y": -0.733689982,
				"z": 0.171823256,
				"element": "N" 
			},
			{
				"x": -0.6270595004,
				"y": 0.0632593629,
				"z": -0.7271325943,
				"element": "C" 
			},
			{
				"x": -0.7569350495,
				"y": -0.2686186887,
				"z": -2.0250944472,
				"element": "N" 
			},
			{
				"x": -1.5095765263,
				"y": -1.4228722341,
				"z": -2.4790760548,
				"element": "C" 
			},
			{
				"x": -1.795069433,
				"y": -1.30686117,
				"z": 2.4468437483,
				"element": "C" 
			},
			{
				"x": -2.5416885147,
				"y": -2.4422038782,
				"z": 2.0866059038,
				"element": "C" 
			},
			{
				"x": -3.1480110132,
				"y": -3.2266900365,
				"z": 3.0574248934,
				"element": "C" 
			},
			{
				"x": -3.0167176819,
				"y": -2.8864583949,
				"z": 4.412200455,
				"element": "C" 
			},
			{
				"x": -2.2831726786,
				"y": -1.7681753404,
				"z": 4.7923646741,
				"element": "C" 
			},
			{
				"x": -1.6756549154,
				"y": -0.9833053961,
				"z": 3.808965426,
				"element": "C" 
			},
			{
				"x": -0.9673642177,
				"y": 0.1046181653,
				"z": 4.251134011,
				"element": "O" 
			},
			{
				"x": -0.3126096983,
				"y": 0.9718574199,
				"z": 3.3884712064,
				"element": "C" 
			},
			{
				"x": 0.2866171578,
				"y": 1.9041868892,
				"z": 3.8738614657,
				"element": "O" 
			},
			{
				"x": 3.5319108422,
				"y": 4.6572119228,
				"z": -0.1732957123,
				"element": "H" 
			},
			{
				"x": 3.3286710941,
				"y": 5.7906705139,
				"z": -1.5228670826,
				"element": "H" 
			},
			{
				"x": 2.0679346734,
				"y": 5.652788674,
				"z": -0.2823426641,
				"element": "H" 
			},
			{
				"x": 2.8531954831,
				"y": 3.4354634544,
				"z": -2.2813165362,
				"element": "H" 
			},
			{
				"x": 1.3957013394,
				"y": 4.426529135,
				"z": -2.3896921135,
				"element": "H" 
			},
			{
				"x": 0.7782153871,
				"y": 2.3563139306,
				"z": 1.3834279528,
				"element": "H" 
			},
			{
				"x": -0.2891166527,
				"y": 0.3468498276,
				"z": -2.6833245011,
				"element": "H" 
			},
			{
				"x": -1.453599273,
				"y": -1.4595208484,
				"z": -3.5686120442,
				"element": "H" 
			},
			{
				"x": -1.1012510444,
				"y": -2.3523359936,
				"z": -2.0689768217,
				"element": "H" 
			},
			{
				"x": -2.5601257369,
				"y": -1.3584407721,
				"z": -2.1773768708,
				"element": "H" 
			},
			{
				"x": -2.6247994567,
				"y": -2.6790007463,
				"z": 1.0318750312,
				"element": "H" 
			},
			{
				"x": -3.7225777313,
				"y": -4.1015293165,
				"z": 2.7697714148,
				"element": "H" 
			},
			{
				"x": -3.4900339192,
				"y": -3.4983865623,
				"z": 5.1743820441,
				"element": "H" 
			},
			{
				"x": -2.1669756163,
				"y": -1.4843961585,
				"z": 5.8325942682,
				"element": "H" 
			}
		],
		 "valence_orbital": [ 
			{
				"type": "occ",
				"energy": -0.27936,
				"method": "rhf"
			},
			{
				"type": "occ",
				"energy": -0.26495,
				"method": "rhf"
			},
			{
				"type": "occ",
				"energy": -0.25527,
				"method": "rhf"
			},
			{
				"type": "occ",
				"energy": -0.23965,
				"method": "rhf"
			},
			{
				"type": "occ",
				"energy": -0.22201,
				"method": "rhf"
			},
			{
				"type": "unocc",
				"energy": -0.07153,
				"method": "rhf"
			},
			{
				"type": "unocc",
				"energy": -0.04181,
				"method": "rhf"
			},
			{
				"type": "unocc",
				"energy": -0.00848,
				"method": "rhf"
			},
			{
				"type": "unocc",
				"energy": -0.00034,
				"method": "rhf"
			},
			{
				"type": "unocc",
				"energy": 0.03405,
				"method": "rhf"
			}
		],
		"cosmo_sigma_profile": { 
			"-0.025": 0.0,
			"-0.024": 0.0,
			"-0.023": 0.0,
			"-0.022": 0.0,
			"-0.021": 0.0,
			"-0.02": 0.0,
			"-0.019": 0.0,
			"-0.018": 0.0,
			"-0.017": 0.0,
			"-0.016": 0.0,
			"-0.015": 0.0,
			"-0.014": 0.0,
			"-0.013": 0.0,
			"-0.012": 0.0,
			"-0.011": 0.0823274019698,
			"-0.01": 0.596367418514,
			"-0.009": 0.912067790201,
			"-0.008": 1.09785017596,
			"-0.007": 4.72017987865,
			"-0.006": 11.0093668109,
			"-0.005": 20.3520235379,
			"-0.004": 30.1243333293,
			"-0.003": 30.517737012,
			"-0.002": 34.7428861204,
			"-0.001": 36.9921078464,
			"0.0": 33.1432521079,
			"0.001": 22.993367074,
			"0.002": 22.0591212916,
			"0.003": 17.9563385766,
			"0.004": 14.1024161743,
			"0.005": 6.13168653029,
			"0.006": 5.93303115328,
			"0.007": 5.54733897031,
			"0.008": 4.16635081447,
			"0.009": 3.53759632247,
			"0.01": 5.28326145795,
			"0.011": 5.79166287351,
			"0.012": 5.22661319862,
			"0.013": 1.54050924851,
			"0.014": 0.0486901179557,
			"0.015": 0.0,
			"0.016": 0.0,
			"0.017": 0.0,
			"0.018": 0.0,
			"0.019": 0.0,
			"0.02": 0.0,
			"0.021": 0.0,
			"0.022": 0.0,
			"0.023": 0.0,
			"0.024": 0.0,
			"0.025": 0.0
		}
	}
}
