{
	 "smiles": "O=CC1=CN(CC2=CN=CC=C2)N=N1", 
	 "Tm": 371.15, 
	 "num_atms": 22, 
	 "gaussian": { 
		 "optdone": 1, 
		 "sigma_profile": "yes", 
		 "theory": "DFT", 
		 "functional": "B3LYP", 
		 "basiset": "6-31G**", 
		 "properties": { 
			 "R2extent": 3614.0074, 
			 "electric_dipole_moment_norm": 5.09818601956, 
			 "electric_quadrupole_moment_norm": 28.9823292685, 
			 "total_energy": -641.94196414, 
			 "HOMO_LUMO_gap": 0.20183, 
			 "cosmo_polarized_energy": -22.03, 
			 "cosmo_cavitation_energy": 28.12, 
			 "cosmo_dispersion_energy": -19.81, 
			 "cosmo_repulsion_energy": 1.55, 
			 "cosmo_total_nonelectrostatic_energy": 9.86, 
			 "SMD_solvation_energy": 3.29 
		},
		"coords": [
			{
				"x": 4.0331056856,
				"y": -0.6590782493,
				"z": -2.8959720522,
				"element": "O" 
			},
			{
				"x": 3.7793705365,
				"y": -0.368100598,
				"z": -1.7459486018,
				"element": "C" 
			},
			{
				"x": 2.5044026693,
				"y": 0.1928775925,
				"z": -1.2762478904,
				"element": "C" 
			},
			{
				"x": 2.1663526697,
				"y": 0.540082548,
				"z": 0.0225904973,
				"element": "C" 
			},
			{
				"x": 0.9072964443,
				"y": 1.0129722091,
				"z": -0.0709533507,
				"element": "N" 
			},
			{
				"x": -0.0076690227,
				"y": 1.4687883897,
				"z": 0.9760789232,
				"element": "C" 
			},
			{
				"x": -0.6678933848,
				"y": 0.3292726248,
				"z": 1.7226213411,
				"element": "C" 
			},
			{
				"x": -0.5596452947,
				"y": 0.2279187856,
				"z": 3.1126444832,
				"element": "C" 
			},
			{
				"x": -1.1282718274,
				"y": -0.7389741194,
				"z": 3.841684753,
				"element": "N" 
			},
			{
				"x": -1.8392855278,
				"y": -1.6618296827,
				"z": 3.1849023186,
				"element": "C" 
			},
			{
				"x": -2.0112034043,
				"y": -1.6603422966,
				"z": 1.7975198405,
				"element": "C" 
			},
			{
				"x": -1.4161205919,
				"y": -0.6464746614,
				"z": 1.0534485269,
				"element": "C" 
			},
			{
				"x": 0.4724648349,
				"y": 0.9545545953,
				"z": -1.3660164076,
				"element": "N" 
			},
			{
				"x": 1.4305464521,
				"y": 0.4660180831,
				"z": -2.085392528,
				"element": "N" 
			},
			{
				"x": 4.5267749385,
				"y": -0.5137978841,
				"z": -0.9335573054,
				"element": "H" 
			},
			{
				"x": 2.7068317801,
				"y": 0.4851817532,
				"z": 0.9553635431,
				"element": "H" 
			},
			{
				"x": -0.7477147315,
				"y": 2.0863938797,
				"z": 0.4601662959,
				"element": "H" 
			},
			{
				"x": 0.5472833492,
				"y": 2.1116205668,
				"z": 1.6649687447,
				"element": "H" 
			},
			{
				"x": 0.0155345919,
				"y": 0.9694542585,
				"z": 3.6681940516,
				"element": "H" 
			},
			{
				"x": -2.2925842751,
				"y": -2.4415072074,
				"z": 3.7942206171,
				"element": "H" 
			},
			{
				"x": -2.5985065968,
				"y": -2.4361937561,
				"z": 1.3168897797,
				"element": "H" 
			},
			{
				"x": -1.519669295,
				"y": -0.6088368313,
				"z": -0.0278055797,
				"element": "H" 
			}
		],
		 "valence_orbital": [ 
			{
				"type": "occ",
				"energy": -0.28624,
				"method": "rhf"
			},
			{
				"type": "occ",
				"energy": -0.28103,
				"method": "rhf"
			},
			{
				"type": "occ",
				"energy": -0.27922,
				"method": "rhf"
			},
			{
				"type": "occ",
				"energy": -0.27027,
				"method": "rhf"
			},
			{
				"type": "occ",
				"energy": -0.25776,
				"method": "rhf"
			},
			{
				"type": "unocc",
				"energy": -0.05593,
				"method": "rhf"
			},
			{
				"type": "unocc",
				"energy": -0.04681,
				"method": "rhf"
			},
			{
				"type": "unocc",
				"energy": -0.03454,
				"method": "rhf"
			},
			{
				"type": "unocc",
				"energy": -0.02047,
				"method": "rhf"
			},
			{
				"type": "unocc",
				"energy": 0.0745,
				"method": "rhf"
			}
		],
		"cosmo_sigma_profile": { 
			"-0.025": 0.0,
			"-0.024": 0.0,
			"-0.023": 0.0,
			"-0.022": 0.0,
			"-0.021": 0.0,
			"-0.02": 0.0,
			"-0.019": 0.0,
			"-0.018": 0.0,
			"-0.017": 0.0,
			"-0.016": 0.0,
			"-0.015": 0.0,
			"-0.014": 0.0,
			"-0.013": 0.0,
			"-0.012": 1.51919841011,
			"-0.011": 3.48975403721,
			"-0.01": 3.28661607595,
			"-0.009": 5.99937271767,
			"-0.008": 8.64177902635,
			"-0.007": 13.6136318287,
			"-0.006": 16.2751447747,
			"-0.005": 16.0264571292,
			"-0.004": 12.5229986818,
			"-0.003": 13.154913062,
			"-0.002": 15.6793406351,
			"-0.001": 12.5236598517,
			"0.0": 9.446054462,
			"0.001": 13.6194435967,
			"0.002": 13.9360929892,
			"0.003": 7.07497862419,
			"0.004": 4.88962180116,
			"0.005": 4.01503737086,
			"0.006": 3.97968046696,
			"0.007": 4.77791053805,
			"0.008": 6.01041681398,
			"0.009": 6.11473711492,
			"0.01": 6.86166387705,
			"0.011": 7.94188871353,
			"0.012": 6.27230324108,
			"0.013": 4.30026832142,
			"0.014": 2.32049752983,
			"0.015": 1.22946658686,
			"0.016": 0.848993802884,
			"0.017": 0.165585217857,
			"0.018": 0.0,
			"0.019": 0.0,
			"0.02": 0.0,
			"0.021": 0.0,
			"0.022": 0.0,
			"0.023": 0.0,
			"0.024": 0.0,
			"0.025": 0.0
		}
	}
}
