{
	 "smiles": "CCOC(=O)C1=C(N)C2=C(SC3=C2CCCC3)N=C1C", 
	 "Tm": 409.15, 
	 "num_atms": 38, 
	 "gaussian": { 
		 "optdone": 1, 
		 "sigma_profile": "yes", 
		 "theory": "DFT", 
		 "functional": "B3LYP", 
		 "basiset": "6-31G**", 
		 "properties": { 
			 "R2extent": 8258.6947, 
			 "electric_dipole_moment_norm": 2.87878025559, 
			 "electric_quadrupole_moment_norm": 18.8919413701, 
			 "total_energy": -1240.63771129, 
			 "HOMO_LUMO_gap": 0.16335, 
			 "cosmo_polarized_energy": -11.18, 
			 "cosmo_cavitation_energy": 40.12, 
			 "cosmo_dispersion_energy": -30.21, 
			 "cosmo_repulsion_energy": 2.26, 
			 "cosmo_total_nonelectrostatic_energy": 12.16, 
			 "SMD_solvation_energy": 4.56 
		},
		"coords": [
			{
				"x": -3.4681394242,
				"y": 4.9678490505,
				"z": -1.286334417,
				"element": "C" 
			},
			{
				"x": -2.2143835986,
				"y": 4.3220667524,
				"z": -1.8459961296,
				"element": "C" 
			},
			{
				"x": -2.1196510325,
				"y": 2.9958919354,
				"z": -1.2790460874,
				"element": "O" 
			},
			{
				"x": -1.052162565,
				"y": 2.2646610807,
				"z": -1.6620258488,
				"element": "C" 
			},
			{
				"x": -0.2307563407,
				"y": 2.7455107157,
				"z": -2.4459094321,
				"element": "O" 
			},
			{
				"x": -0.9726527927,
				"y": 0.9123606762,
				"z": -1.0715918496,
				"element": "C" 
			},
			{
				"x": 0.1989230624,
				"y": 0.1291390154,
				"z": -1.3605176349,
				"element": "C" 
			},
			{
				"x": 1.1929619433,
				"y": 0.6028797853,
				"z": -2.1488765813,
				"element": "N" 
			},
			{
				"x": 0.2940866646,
				"y": -1.1692670575,
				"z": -0.7767066954,
				"element": "C" 
			},
			{
				"x": -0.8087044924,
				"y": -1.5835033096,
				"z": -0.0173004607,
				"element": "C" 
			},
			{
				"x": -0.5923647316,
				"y": -3.2138882868,
				"z": 0.5974632482,
				"element": "S" 
			},
			{
				"x": 0.9911380087,
				"y": -3.31718792,
				"z": -0.1560295254,
				"element": "C" 
			},
			{
				"x": 1.3386993652,
				"y": -2.1797818204,
				"z": -0.8302736298,
				"element": "C" 
			},
			{
				"x": 2.6904059846,
				"y": -2.0592226975,
				"z": -1.5055929463,
				"element": "C" 
			},
			{
				"x": 3.6611422363,
				"y": -3.174863778,
				"z": -1.0773007206,
				"element": "C" 
			},
			{
				"x": 2.9733821236,
				"y": -4.5444420508,
				"z": -1.0550075659,
				"element": "C" 
			},
			{
				"x": 1.8322284587,
				"y": -4.557830393,
				"z": -0.025170612,
				"element": "C" 
			},
			{
				"x": -1.9178097691,
				"y": -0.8903280077,
				"z": 0.2486977872,
				"element": "N" 
			},
			{
				"x": -2.0031145372,
				"y": 0.3412080847,
				"z": -0.2543336547,
				"element": "C" 
			},
			{
				"x": -3.2933824272,
				"y": 1.0373500467,
				"z": 0.1172342614,
				"element": "C" 
			},
			{
				"x": -3.4205342196,
				"y": 5.0386419087,
				"z": -0.1958660527,
				"element": "H" 
			},
			{
				"x": -3.5740019469,
				"y": 5.9790627258,
				"z": -1.6915923458,
				"element": "H" 
			},
			{
				"x": -4.3601763164,
				"y": 4.3952164698,
				"z": -1.5559719285,
				"element": "H" 
			},
			{
				"x": -1.3117711597,
				"y": 4.8836271291,
				"z": -1.5863380891,
				"element": "H" 
			},
			{
				"x": -2.245597627,
				"y": 4.240611718,
				"z": -2.9368891698,
				"element": "H" 
			},
			{
				"x": 1.0365123567,
				"y": 1.5019153528,
				"z": -2.5947023421,
				"element": "H" 
			},
			{
				"x": 1.9242850692,
				"y": -0.010296323,
				"z": -2.4582952265,
				"element": "H" 
			},
			{
				"x": 2.5667239214,
				"y": -2.0911291086,
				"z": -2.6000223822,
				"element": "H" 
			},
			{
				"x": 3.1452850295,
				"y": -1.0897153098,
				"z": -1.2673347767,
				"element": "H" 
			},
			{
				"x": 4.5252504763,
				"y": -3.1858575441,
				"z": -1.7506324889,
				"element": "H" 
			},
			{
				"x": 4.0452446714,
				"y": -2.9507006856,
				"z": -0.0736647627,
				"element": "H" 
			},
			{
				"x": 3.6951580585,
				"y": -5.3341803853,
				"z": -0.8196244293,
				"element": "H" 
			},
			{
				"x": 2.5692237199,
				"y": -4.7676469341,
				"z": -2.0509450826,
				"element": "H" 
			},
			{
				"x": 1.2127825731,
				"y": -5.4537078492,
				"z": -0.1545094721,
				"element": "H" 
			},
			{
				"x": 2.2487960735,
				"y": -4.620795328,
				"z": 0.990826581,
				"element": "H" 
			},
			{
				"x": -3.8615793218,
				"y": 1.3449019643,
				"z": -0.7642312188,
				"element": "H" 
			},
			{
				"x": -3.1123864536,
				"y": 1.9419013286,
				"z": 0.7034200877,
				"element": "H" 
			},
			{
				"x": -3.8840610405,
				"y": 0.3346490493,
				"z": 0.7057915937,
				"element": "H" 
			}
		],
		 "valence_orbital": [ 
			{
				"type": "occ",
				"energy": -0.27911,
				"method": "rhf"
			},
			{
				"type": "occ",
				"energy": -0.24744,
				"method": "rhf"
			},
			{
				"type": "occ",
				"energy": -0.24607,
				"method": "rhf"
			},
			{
				"type": "occ",
				"energy": -0.23384,
				"method": "rhf"
			},
			{
				"type": "occ",
				"energy": -0.19798,
				"method": "rhf"
			},
			{
				"type": "unocc",
				"energy": -0.03463,
				"method": "rhf"
			},
			{
				"type": "unocc",
				"energy": -0.01203,
				"method": "rhf"
			},
			{
				"type": "unocc",
				"energy": 0.02976,
				"method": "rhf"
			},
			{
				"type": "unocc",
				"energy": 0.03338,
				"method": "rhf"
			},
			{
				"type": "unocc",
				"energy": 0.06733,
				"method": "rhf"
			}
		],
		"cosmo_sigma_profile": { 
			"-0.025": 0.0,
			"-0.024": 0.0,
			"-0.023": 0.0,
			"-0.022": 0.0,
			"-0.021": 0.0,
			"-0.02": 0.0,
			"-0.019": 0.0,
			"-0.018": 0.0,
			"-0.017": 0.0,
			"-0.016": 0.0,
			"-0.015": 0.0,
			"-0.014": 0.0,
			"-0.013": 0.0,
			"-0.012": 0.658557868792,
			"-0.011": 1.01277606991,
			"-0.01": 1.43631833136,
			"-0.009": 2.02287182811,
			"-0.008": 2.52583998106,
			"-0.007": 2.07626611149,
			"-0.006": 2.62421909618,
			"-0.005": 8.1673126106,
			"-0.004": 22.769339698,
			"-0.003": 36.6026732707,
			"-0.002": 42.4995120083,
			"-0.001": 37.3539713321,
			"0.0": 33.949230106,
			"0.001": 28.2512884134,
			"0.002": 26.6746460633,
			"0.003": 21.9007310076,
			"0.004": 15.413899738,
			"0.005": 8.5440703915,
			"0.006": 4.75928382301,
			"0.007": 3.96097557067,
			"0.008": 2.65191951774,
			"0.009": 3.27673489329,
			"0.01": 2.71482654833,
			"0.011": 2.38715168371,
			"0.012": 1.94628794831,
			"0.013": 1.03121632701,
			"0.014": 0.699584393137,
			"0.015": 0.434819114463,
			"0.016": 0.0,
			"0.017": 0.0,
			"0.018": 0.0,
			"0.019": 0.0,
			"0.02": 0.0,
			"0.021": 0.0,
			"0.022": 0.0,
			"0.023": 0.0,
			"0.024": 0.0,
			"0.025": 0.0
		}
	}
}
