{
	 "smiles": "CC1=C(NS(=O)(=O)C(F)(F)F)C=CC(=C1)C(O)=O", 
	 "Tm": 477.15, 
	 "num_atms": 26, 
	 "gaussian": { 
		 "optdone": 1, 
		 "sigma_profile": "yes", 
		 "theory": "DFT", 
		 "functional": "B3LYP", 
		 "basiset": "6-31G**", 
		 "properties": { 
			 "R2extent": 6546.831, 
			 "electric_dipole_moment_norm": 4.48982774057, 
			 "electric_quadrupole_moment_norm": 31.358977909, 
			 "total_energy": -1401.06053414, 
			 "HOMO_LUMO_gap": 0.19687, 
			 "cosmo_polarized_energy": -21.36, 
			 "cosmo_cavitation_energy": 33.84, 
			 "cosmo_dispersion_energy": -23.99, 
			 "cosmo_repulsion_energy": 1.74, 
			 "cosmo_total_nonelectrostatic_energy": 11.59, 
			 "SMD_solvation_energy": 7.26 
		},
		"coords": [
			{
				"x": -1.051510799,
				"y": 1.5131524091,
				"z": 1.4219782997,
				"element": "C" 
			},
			{
				"x": -0.5551634143,
				"y": 0.9524726725,
				"z": 0.1104041268,
				"element": "C" 
			},
			{
				"x": 0.469534002,
				"y": -0.0145142803,
				"z": 0.062637516,
				"element": "C" 
			},
			{
				"x": 1.0687257325,
				"y": -0.4409650708,
				"z": 1.2825666591,
				"element": "N" 
			},
			{
				"x": 1.2512630734,
				"y": -2.050163405,
				"z": 1.744034046,
				"element": "S" 
			},
			{
				"x": 0.6439969026,
				"y": -2.9396669518,
				"z": 0.7656834925,
				"element": "O" 
			},
			{
				"x": 0.9758657613,
				"y": -2.1038128206,
				"z": 3.1755825019,
				"element": "O" 
			},
			{
				"x": 3.0994080938,
				"y": -2.263935576,
				"z": 1.5755589692,
				"element": "C" 
			},
			{
				"x": 3.4166878033,
				"y": -3.4982690059,
				"z": 1.9573343195,
				"element": "F" 
			},
			{
				"x": 3.7253919962,
				"y": -1.3776532833,
				"z": 2.3481185738,
				"element": "F" 
			},
			{
				"x": 3.4682721909,
				"y": -2.0832117618,
				"z": 0.3035476898,
				"element": "F" 
			},
			{
				"x": 0.9356866031,
				"y": -0.5071869969,
				"z": -1.1619562642,
				"element": "C" 
			},
			{
				"x": 0.3718635964,
				"y": -0.0638015043,
				"z": -2.3499294437,
				"element": "C" 
			},
			{
				"x": -0.6602085359,
				"y": 0.8815512129,
				"z": -2.3331768989,
				"element": "C" 
			},
			{
				"x": -1.0957100843,
				"y": 1.3874446627,
				"z": -1.1023352773,
				"element": "C" 
			},
			{
				"x": -1.2143293323,
				"y": 1.3381851467,
				"z": -3.6481563429,
				"element": "C" 
			},
			{
				"x": -2.4520791841,
				"y": 1.903819487,
				"z": -3.628918306,
				"element": "O" 
			},
			{
				"x": -0.6172435033,
				"y": 1.2267248865,
				"z": -4.6925885853,
				"element": "O" 
			},
			{
				"x": -1.394261441,
				"y": 0.7216024901,
				"z": 2.0990250817,
				"element": "H" 
			},
			{
				"x": -1.8917639882,
				"y": 2.1918481159,
				"z": 1.2598411751,
				"element": "H" 
			},
			{
				"x": -0.2766249831,
				"y": 2.0869813258,
				"z": 1.9477844369,
				"element": "H" 
			},
			{
				"x": 0.8562700717,
				"y": 0.1115880499,
				"z": 2.1058417187,
				"element": "H" 
			},
			{
				"x": 1.740866851,
				"y": -1.2305642113,
				"z": -1.1779981634,
				"element": "H" 
			},
			{
				"x": 0.7282250769,
				"y": -0.4305998189,
				"z": -3.3059250729,
				"element": "H" 
			},
			{
				"x": -1.8565943631,
				"y": 2.1639661725,
				"z": -1.0654277962,
				"element": "H" 
			},
			{
				"x": -2.8732681266,
				"y": 1.7567080553,
				"z": -2.7709264559,
				"element": "H" 
			}
		],
		 "valence_orbital": [ 
			{
				"type": "occ",
				"energy": -0.34019,
				"method": "rhf"
			},
			{
				"type": "occ",
				"energy": -0.31944,
				"method": "rhf"
			},
			{
				"type": "occ",
				"energy": -0.28022,
				"method": "rhf"
			},
			{
				"type": "occ",
				"energy": -0.27744,
				"method": "rhf"
			},
			{
				"type": "occ",
				"energy": -0.25776,
				"method": "rhf"
			},
			{
				"type": "unocc",
				"energy": -0.06089,
				"method": "rhf"
			},
			{
				"type": "unocc",
				"energy": -0.03233,
				"method": "rhf"
			},
			{
				"type": "unocc",
				"energy": 0.01741,
				"method": "rhf"
			},
			{
				"type": "unocc",
				"energy": 0.03182,
				"method": "rhf"
			},
			{
				"type": "unocc",
				"energy": 0.03406,
				"method": "rhf"
			}
		],
		"cosmo_sigma_profile": { 
			"-0.025": 0.0,
			"-0.024": 0.0,
			"-0.023": 0.0,
			"-0.022": 0.0,
			"-0.021": 0.0,
			"-0.02": 0.0,
			"-0.019": 0.218019852286,
			"-0.018": 0.919434665441,
			"-0.017": 0.856720082067,
			"-0.016": 1.33211637146,
			"-0.015": 1.34590112979,
			"-0.014": 1.88130724605,
			"-0.013": 2.48309587483,
			"-0.012": 2.18919263428,
			"-0.011": 2.66508136191,
			"-0.01": 2.67422530303,
			"-0.009": 3.14169541069,
			"-0.008": 4.95751301576,
			"-0.007": 5.97660079438,
			"-0.006": 10.2291079926,
			"-0.005": 12.246348008,
			"-0.004": 11.4382829579,
			"-0.003": 14.7255509451,
			"-0.002": 20.1588606392,
			"-0.001": 26.916545298,
			"0.0": 29.922830253,
			"0.001": 26.2040958384,
			"0.002": 16.1519292475,
			"0.003": 9.25462046538,
			"0.004": 5.02377910736,
			"0.005": 6.0114133998,
			"0.006": 5.84217826333,
			"0.007": 6.40986095871,
			"0.008": 11.7847465309,
			"0.009": 11.2142936185,
			"0.01": 5.24555127302,
			"0.011": 5.13263495747,
			"0.012": 5.03827527766,
			"0.013": 1.47131869298,
			"0.014": 0.046137703249,
			"0.015": 0.0,
			"0.016": 0.0,
			"0.017": 0.0,
			"0.018": 0.0,
			"0.019": 0.0,
			"0.02": 0.0,
			"0.021": 0.0,
			"0.022": 0.0,
			"0.023": 0.0,
			"0.024": 0.0,
			"0.025": 0.0
		}
	}
}
