{
	 "smiles": "ClC1=CC(=C(Cl)C=C1)C1=CC(Cl)=CC=C1Cl", 
	 "Tm": 360.15, 
	 "num_atms": 22, 
	 "gaussian": { 
		 "optdone": 1, 
		 "sigma_profile": "yes", 
		 "theory": "DFT", 
		 "functional": "B3LYP", 
		 "basiset": "6-31G**", 
		 "properties": { 
			 "R2extent": 5895.2437, 
			 "electric_dipole_moment_norm": 0.225271813594, 
			 "electric_quadrupole_moment_norm": 11.7923497883, 
			 "total_energy": -2301.66474115, 
			 "HOMO_LUMO_gap": 0.20909, 
			 "cosmo_polarized_energy": -6.5, 
			 "cosmo_cavitation_energy": 34.2, 
			 "cosmo_dispersion_energy": -24.24, 
			 "cosmo_repulsion_energy": 1.92, 
			 "cosmo_total_nonelectrostatic_energy": 11.88, 
			 "SMD_solvation_energy": 4.62 
		},
		"coords": [
			{
				"x": 1.0175200076,
				"y": -0.0688737606,
				"z": -4.2513551646,
				"element": "Cl" 
			},
			{
				"x": 0.4213854906,
				"y": 0.6235460459,
				"z": -2.7534513283,
				"element": "C" 
			},
			{
				"x": 0.2067171795,
				"y": -0.2055059688,
				"z": -1.6552253581,
				"element": "C" 
			},
			{
				"x": -0.2715887693,
				"y": 0.322261856,
				"z": -0.4476444051,
				"element": "C" 
			},
			{
				"x": -0.5134472882,
				"y": 1.7032711092,
				"z": -0.3793346064,
				"element": "C" 
			},
			{
				"x": -1.0797751055,
				"y": 2.4334759737,
				"z": 1.1108781521,
				"element": "Cl" 
			},
			{
				"x": -0.2976195824,
				"y": 2.5300272501,
				"z": -1.4819794813,
				"element": "C" 
			},
			{
				"x": 0.1706163493,
				"y": 1.9923775126,
				"z": -2.6786719413,
				"element": "C" 
			},
			{
				"x": -0.4658068212,
				"y": -0.5927137655,
				"z": 0.7166556344,
				"element": "C" 
			},
			{
				"x": 0.6537422236,
				"y": -1.0000118659,
				"z": 1.4557644468,
				"element": "C" 
			},
			{
				"x": 0.5111150203,
				"y": -1.8708222615,
				"z": 2.5331960247,
				"element": "C" 
			},
			{
				"x": 1.9319272888,
				"y": -2.3586704682,
				"z": 3.4397556079,
				"element": "Cl" 
			},
			{
				"x": -0.7415724271,
				"y": -2.3594114366,
				"z": 2.8995638036,
				"element": "C" 
			},
			{
				"x": -1.8607157081,
				"y": -1.9681858436,
				"z": 2.1682293703,
				"element": "C" 
			},
			{
				"x": -1.7222373925,
				"y": -1.0965946346,
				"z": 1.0879064592,
				"element": "C" 
			},
			{
				"x": -3.1589376785,
				"y": -0.6547152624,
				"z": 0.1849395107,
				"element": "Cl" 
			},
			{
				"x": 0.4023376296,
				"y": -1.2691194543,
				"z": -1.7314664652,
				"element": "H" 
			},
			{
				"x": -0.4925817566,
				"y": 3.59335524,
				"z": -1.39998887,
				"element": "H" 
			},
			{
				"x": 0.340639054,
				"y": 2.6292844496,
				"z": -3.5392908722,
				"element": "H" 
			},
			{
				"x": 1.6348563598,
				"y": -0.6253258242,
				"z": 1.1867381805,
				"element": "H" 
			},
			{
				"x": -0.8421698278,
				"y": -3.0365951561,
				"z": 3.7401164524,
				"element": "H" 
			},
			{
				"x": -2.8437042457,
				"y": -2.3418537347,
				"z": 2.4318648498,
				"element": "H" 
			}
		],
		 "valence_orbital": [ 
			{
				"type": "occ",
				"energy": -0.31966,
				"method": "rhf"
			},
			{
				"type": "occ",
				"energy": -0.28326,
				"method": "rhf"
			},
			{
				"type": "occ",
				"energy": -0.27674,
				"method": "rhf"
			},
			{
				"type": "occ",
				"energy": -0.2514,
				"method": "rhf"
			},
			{
				"type": "occ",
				"energy": -0.24984,
				"method": "rhf"
			},
			{
				"type": "unocc",
				"energy": -0.04075,
				"method": "rhf"
			},
			{
				"type": "unocc",
				"energy": -0.03679,
				"method": "rhf"
			},
			{
				"type": "unocc",
				"energy": -0.02765,
				"method": "rhf"
			},
			{
				"type": "unocc",
				"energy": -0.02471,
				"method": "rhf"
			},
			{
				"type": "unocc",
				"energy": 0.00661,
				"method": "rhf"
			}
		],
		"cosmo_sigma_profile": { 
			"-0.025": 0.0,
			"-0.024": 0.0,
			"-0.023": 0.0,
			"-0.022": 0.0,
			"-0.021": 0.0,
			"-0.02": 0.0,
			"-0.019": 0.0,
			"-0.018": 0.0,
			"-0.017": 0.0,
			"-0.016": 0.0,
			"-0.015": 0.0,
			"-0.014": 0.0,
			"-0.013": 0.0,
			"-0.012": 0.0,
			"-0.011": 0.0,
			"-0.01": 0.0,
			"-0.009": 0.763153780719,
			"-0.008": 9.09493436188,
			"-0.007": 10.786589262,
			"-0.006": 9.89604079491,
			"-0.005": 10.4247777711,
			"-0.004": 10.495728381,
			"-0.003": 12.8200752047,
			"-0.002": 17.69288586,
			"-0.001": 19.8268409701,
			"0.0": 28.0072979071,
			"0.001": 40.6708558237,
			"0.002": 35.8995131873,
			"0.003": 32.0549225864,
			"0.004": 38.2391181298,
			"0.005": 8.01491431542,
			"0.006": 0.0,
			"0.007": 0.0,
			"0.008": 0.0,
			"0.009": 0.0,
			"0.01": 0.0,
			"0.011": 0.0,
			"0.012": 0.0,
			"0.013": 0.0,
			"0.014": 0.0,
			"0.015": 0.0,
			"0.016": 0.0,
			"0.017": 0.0,
			"0.018": 0.0,
			"0.019": 0.0,
			"0.02": 0.0,
			"0.021": 0.0,
			"0.022": 0.0,
			"0.023": 0.0,
			"0.024": 0.0,
			"0.025": 0.0
		}
	}
}
