{
	 "smiles": "CC1=NN2C(C)=NN=C2S1", 
	 "Tm": 366.15, 
	 "num_atms": 16, 
	 "gaussian": { 
		 "optdone": 1, 
		 "sigma_profile": "yes", 
		 "theory": "DFT", 
		 "functional": "B3LYP", 
		 "basiset": "6-31G**", 
		 "properties": { 
			 "R2extent": 2480.9633, 
			 "electric_dipole_moment_norm": 5.59377199124, 
			 "electric_quadrupole_moment_norm": 23.8092920716, 
			 "total_energy": -811.286447401, 
			 "HOMO_LUMO_gap": 0.19971, 
			 "cosmo_polarized_energy": -14.13, 
			 "cosmo_cavitation_energy": 22.13, 
			 "cosmo_dispersion_energy": -17.1, 
			 "cosmo_repulsion_energy": 1.34, 
			 "cosmo_total_nonelectrostatic_energy": 6.37, 
			 "SMD_solvation_energy": 0.86 
		},
		"coords": [
			{
				"x": -1.1546977523,
				"y": 0.2721622925,
				"z": -1.0337416107,
				"element": "C" 
			},
			{
				"x": 0.1622671271,
				"y": -0.1389240425,
				"z": -0.4612724372,
				"element": "C" 
			},
			{
				"x": 0.3070848603,
				"y": -0.5142443727,
				"z": 0.7695801775,
				"element": "N" 
			},
			{
				"x": 1.621042289,
				"y": -0.8235760599,
				"z": 0.9845549162,
				"element": "N" 
			},
			{
				"x": 2.3674411268,
				"y": -1.266718926,
				"z": 2.0523435176,
				"element": "C" 
			},
			{
				"x": 1.8265415049,
				"y": -1.5479987592,
				"z": 3.4092368866,
				"element": "C" 
			},
			{
				"x": 3.6175690906,
				"y": -1.390868085,
				"z": 1.6549132287,
				"element": "N" 
			},
			{
				"x": 3.7240421308,
				"y": -1.0312040586,
				"z": 0.3112693421,
				"element": "N" 
			},
			{
				"x": 2.5154884641,
				"y": -0.699413424,
				"z": -0.05336848,
				"element": "C" 
			},
			{
				"x": 1.6461393857,
				"y": -0.1351946642,
				"z": -1.467739954,
				"element": "S" 
			},
			{
				"x": -1.9167052735,
				"y": 0.1965783032,
				"z": -0.2560024812,
				"element": "H" 
			},
			{
				"x": -1.1196240853,
				"y": 1.303492003,
				"z": -1.399403889,
				"element": "H" 
			},
			{
				"x": -1.4367504863,
				"y": -0.371851532,
				"z": -1.8729478349,
				"element": "H" 
			},
			{
				"x": 1.0586092076,
				"y": -2.3281497907,
				"z": 3.3791303654,
				"element": "H" 
			},
			{
				"x": 1.3753733631,
				"y": -0.6539698642,
				"z": 3.8524309849,
				"element": "H" 
			},
			{
				"x": 2.6478790473,
				"y": -1.8829190198,
				"z": 4.0442172679,
				"element": "H" 
			}
		],
		 "valence_orbital": [ 
			{
				"type": "occ",
				"energy": -0.33426,
				"method": "rhf"
			},
			{
				"type": "occ",
				"energy": -0.30603,
				"method": "rhf"
			},
			{
				"type": "occ",
				"energy": -0.27305,
				"method": "rhf"
			},
			{
				"type": "occ",
				"energy": -0.25714,
				"method": "rhf"
			},
			{
				"type": "occ",
				"energy": -0.24131,
				"method": "rhf"
			},
			{
				"type": "unocc",
				"energy": -0.0416,
				"method": "rhf"
			},
			{
				"type": "unocc",
				"energy": -0.01449,
				"method": "rhf"
			},
			{
				"type": "unocc",
				"energy": 0.03119,
				"method": "rhf"
			},
			{
				"type": "unocc",
				"energy": 0.04127,
				"method": "rhf"
			},
			{
				"type": "unocc",
				"energy": 0.05357,
				"method": "rhf"
			}
		],
		"cosmo_sigma_profile": { 
			"-0.025": 0.0,
			"-0.024": 0.0,
			"-0.023": 0.0,
			"-0.022": 0.0,
			"-0.021": 0.0,
			"-0.02": 0.0,
			"-0.019": 0.0,
			"-0.018": 0.0,
			"-0.017": 0.0,
			"-0.016": 0.0,
			"-0.015": 0.0,
			"-0.014": 0.0,
			"-0.013": 0.0,
			"-0.012": 0.0,
			"-0.011": 0.0,
			"-0.01": 0.0,
			"-0.009": 0.0,
			"-0.008": 0.822020983437,
			"-0.007": 8.54992715948,
			"-0.006": 13.5239445584,
			"-0.005": 15.6609819389,
			"-0.004": 17.1244804864,
			"-0.003": 23.5738558051,
			"-0.002": 18.9366902362,
			"-0.001": 15.3673139661,
			"0.0": 9.95449504284,
			"0.001": 6.63819944491,
			"0.002": 7.89203967422,
			"0.003": 4.39121971306,
			"0.004": 2.64332108398,
			"0.005": 2.52295208511,
			"0.006": 3.21963565271,
			"0.007": 2.96037025822,
			"0.008": 1.99744198395,
			"0.009": 3.16863118799,
			"0.01": 3.02393478964,
			"0.011": 2.83483286032,
			"0.012": 2.58126719361,
			"0.013": 3.80286584464,
			"0.014": 3.29040028833,
			"0.015": 2.96116378982,
			"0.016": 1.95264688847,
			"0.017": 0.438601401266,
			"0.018": 0.0,
			"0.019": 0.0,
			"0.02": 0.0,
			"0.021": 0.0,
			"0.022": 0.0,
			"0.023": 0.0,
			"0.024": 0.0,
			"0.025": 0.0
		}
	}
}
