{
	 "smiles": "O=C1CCC2=C(C1)C=CC=C2", 
	 "Tm": 291.15, 
	 "num_atms": 21, 
	 "gaussian": { 
		 "optdone": 1, 
		 "sigma_profile": "yes", 
		 "theory": "DFT", 
		 "functional": "B3LYP", 
		 "basiset": "6-31G**", 
		 "properties": { 
			 "R2extent": 1730.1448, 
			 "electric_dipole_moment_norm": 2.67796164461, 
			 "electric_quadrupole_moment_norm": 12.6115337457, 
			 "total_energy": -462.323512178, 
			 "HOMO_LUMO_gap": 0.21503, 
			 "cosmo_polarized_energy": -8.33, 
			 "cosmo_cavitation_energy": 23.65, 
			 "cosmo_dispersion_energy": -17.69, 
			 "cosmo_repulsion_energy": 1.42, 
			 "cosmo_total_nonelectrostatic_energy": 7.38, 
			 "SMD_solvation_energy": 4.07 
		},
		"coords": [
			{
				"x": 0.6168817647,
				"y": -3.1714779265,
				"z": -1.0470548582,
				"element": "O" 
			},
			{
				"x": 0.5860953864,
				"y": -1.9877243145,
				"z": -0.7766324665,
				"element": "C" 
			},
			{
				"x": 1.7398031419,
				"y": -1.2867419292,
				"z": -0.0661632056,
				"element": "C" 
			},
			{
				"x": 1.7076963805,
				"y": 0.2432184752,
				"z": -0.2237347782,
				"element": "C" 
			},
			{
				"x": 0.3537677143,
				"y": 0.7937217406,
				"z": 0.167799296,
				"element": "C" 
			},
			{
				"x": -0.7920601838,
				"y": 0.1040271628,
				"z": -0.2693856778,
				"element": "C" 
			},
			{
				"x": -0.6154976826,
				"y": -1.1145667938,
				"z": -1.1475194392,
				"element": "C" 
			},
			{
				"x": -2.0585075351,
				"y": 0.5663249752,
				"z": 0.0999211492,
				"element": "C" 
			},
			{
				"x": -2.1963679937,
				"y": 1.7115120104,
				"z": 0.8859753287,
				"element": "C" 
			},
			{
				"x": -1.060797482,
				"y": 2.3993834691,
				"z": 1.3156528043,
				"element": "C" 
			},
			{
				"x": 0.2070278141,
				"y": 1.935292725,
				"z": 0.960754885,
				"element": "C" 
			},
			{
				"x": 1.6530663515,
				"y": -1.5463405131,
				"z": 0.9981032526,
				"element": "H" 
			},
			{
				"x": 2.6766426863,
				"y": -1.7266062807,
				"z": -0.4210231438,
				"element": "H" 
			},
			{
				"x": 1.9290847167,
				"y": 0.5024245158,
				"z": -1.2697113903,
				"element": "H" 
			},
			{
				"x": 2.4980623372,
				"y": 0.7021941816,
				"z": 0.3785118832,
				"element": "H" 
			},
			{
				"x": -1.5073688075,
				"y": -1.7463287625,
				"z": -1.1745236636,
				"element": "H" 
			},
			{
				"x": -0.4340573636,
				"y": -0.7978103001,
				"z": -2.188625599,
				"element": "H" 
			},
			{
				"x": -2.9419618534,
				"y": 0.0255691579,
				"z": -0.2307879087,
				"element": "H" 
			},
			{
				"x": -3.1860572217,
				"y": 2.0605898312,
				"z": 1.1660519756,
				"element": "H" 
			},
			{
				"x": -1.1602545322,
				"y": 3.2881831986,
				"z": 1.9320894316,
				"element": "H" 
			},
			{
				"x": 1.093602362,
				"y": 2.4622553769,
				"z": 1.3056021247,
				"element": "H" 
			}
		],
		 "valence_orbital": [ 
			{
				"type": "occ",
				"energy": -0.33659,
				"method": "rhf"
			},
			{
				"type": "occ",
				"energy": -0.32732,
				"method": "rhf"
			},
			{
				"type": "occ",
				"energy": -0.25529,
				"method": "rhf"
			},
			{
				"type": "occ",
				"energy": -0.24754,
				"method": "rhf"
			},
			{
				"type": "occ",
				"energy": -0.23269,
				"method": "rhf"
			},
			{
				"type": "unocc",
				"energy": -0.01766,
				"method": "rhf"
			},
			{
				"type": "unocc",
				"energy": -0.0044,
				"method": "rhf"
			},
			{
				"type": "unocc",
				"energy": -0.00051,
				"method": "rhf"
			},
			{
				"type": "unocc",
				"energy": 0.08888,
				"method": "rhf"
			},
			{
				"type": "unocc",
				"energy": 0.09869,
				"method": "rhf"
			}
		],
		"cosmo_sigma_profile": { 
			"-0.025": 0.0,
			"-0.024": 0.0,
			"-0.023": 0.0,
			"-0.022": 0.0,
			"-0.021": 0.0,
			"-0.02": 0.0,
			"-0.019": 0.0,
			"-0.018": 0.0,
			"-0.017": 0.0,
			"-0.016": 0.0,
			"-0.015": 0.0,
			"-0.014": 0.0,
			"-0.013": 0.0,
			"-0.012": 0.0,
			"-0.011": 0.0,
			"-0.01": 0.0,
			"-0.009": 0.0,
			"-0.008": 0.0216321396597,
			"-0.007": 2.92479829227,
			"-0.006": 8.27757937684,
			"-0.005": 20.6308075497,
			"-0.004": 21.5596569422,
			"-0.003": 23.0149999409,
			"-0.002": 17.3996956207,
			"-0.001": 16.2288683954,
			"0.0": 8.37252153687,
			"0.001": 6.93304199513,
			"0.002": 8.67666211334,
			"0.003": 8.27863620523,
			"0.004": 7.79151369939,
			"0.005": 8.86968525555,
			"0.006": 8.95821244219,
			"0.007": 3.105283293,
			"0.008": 1.62192837856,
			"0.009": 1.43993256319,
			"0.01": 2.40248743554,
			"0.011": 3.02414166805,
			"0.012": 4.41876111822,
			"0.013": 2.96413447953,
			"0.014": 0.297812714668,
			"0.015": 0.0,
			"0.016": 0.0,
			"0.017": 0.0,
			"0.018": 0.0,
			"0.019": 0.0,
			"0.02": 0.0,
			"0.021": 0.0,
			"0.022": 0.0,
			"0.023": 0.0,
			"0.024": 0.0,
			"0.025": 0.0
		}
	}
}
