{
	 "smiles": "C1CC1", 
	 "Tm": 146.15, 
	 "num_atms": 9, 
	 "gaussian": { 
		 "optdone": 1, 
		 "sigma_profile": "yes", 
		 "theory": "DFT", 
		 "functional": "B3LYP", 
		 "basiset": "6-31G**", 
		 "properties": { 
			 "R2extent": 272.5758, 
			 "electric_dipole_moment_norm": 0.0, 
			 "electric_quadrupole_moment_norm": 1.49240345416, 
			 "total_energy": -117.901935623, 
			 "HOMO_LUMO_gap": 0.39357, 
			 "cosmo_polarized_energy": -1.22, 
			 "cosmo_cavitation_energy": 11.39, 
			 "cosmo_dispersion_energy": -8.72, 
			 "cosmo_repulsion_energy": 0.83, 
			 "cosmo_total_nonelectrostatic_energy": 3.5, 
			 "SMD_solvation_energy": 1.87 
		},
		"coords": [
			{
				"x": 1.5592269188,
				"y": -0.3689219462,
				"z": -0.5020924862,
				"element": "C" 
			},
			{
				"x": 1.2931686613,
				"y": 1.0737295919,
				"z": -0.1519204736,
				"element": "C" 
			},
			{
				"x": 0.2026386202,
				"y": 0.2338937163,
				"z": -0.7684213894,
				"element": "C" 
			},
			{
				"x": 2.2016994641,
				"y": -0.5793387953,
				"z": -1.3519448674,
				"element": "H" 
			},
			{
				"x": 1.6511097122,
				"y": -1.0841972117,
				"z": 0.3098454092,
				"element": "H" 
			},
			{
				"x": 1.2044584034,
				"y": 1.3377209228,
				"z": 0.8977164155,
				"element": "H" 
			},
			{
				"x": 1.7550100911,
				"y": 1.8426861855,
				"z": -0.7640551229,
				"element": "H" 
			},
			{
				"x": -0.0757806844,
				"y": 0.4327193524,
				"z": -1.7990795411,
				"element": "H" 
			},
			{
				"x": -0.6264311865,
				"y": -0.0721918157,
				"z": -0.137347944,
				"element": "H" 
			}
		],
		 "valence_orbital": [ 
			{
				"type": "occ",
				"energy": -0.46004,
				"method": "rhf"
			},
			{
				"type": "occ",
				"energy": -0.35796,
				"method": "rhf"
			},
			{
				"type": "occ",
				"energy": -0.35796,
				"method": "rhf"
			},
			{
				"type": "occ",
				"energy": -0.28813,
				"method": "rhf"
			},
			{
				"type": "occ",
				"energy": -0.28813,
				"method": "rhf"
			},
			{
				"type": "unocc",
				"energy": 0.10544,
				"method": "rhf"
			},
			{
				"type": "unocc",
				"energy": 0.11028,
				"method": "rhf"
			},
			{
				"type": "unocc",
				"energy": 0.15427,
				"method": "rhf"
			},
			{
				"type": "unocc",
				"energy": 0.15668,
				"method": "rhf"
			},
			{
				"type": "unocc",
				"energy": 0.15669,
				"method": "rhf"
			}
		],
		"cosmo_sigma_profile": { 
			"-0.025": 0.0,
			"-0.024": 0.0,
			"-0.023": 0.0,
			"-0.022": 0.0,
			"-0.021": 0.0,
			"-0.02": 0.0,
			"-0.019": 0.0,
			"-0.018": 0.0,
			"-0.017": 0.0,
			"-0.016": 0.0,
			"-0.015": 0.0,
			"-0.014": 0.0,
			"-0.013": 0.0,
			"-0.012": 0.0,
			"-0.011": 0.0,
			"-0.01": 0.0,
			"-0.009": 0.0,
			"-0.008": 0.0,
			"-0.007": 0.0,
			"-0.006": 0.0,
			"-0.005": 0.723164408442,
			"-0.004": 8.41781749906,
			"-0.003": 12.0225237263,
			"-0.002": 12.270423862,
			"-0.001": 10.8807343157,
			"0.0": 9.29635757881,
			"0.001": 9.40564837733,
			"0.002": 6.9785696653,
			"0.003": 4.73052529954,
			"0.004": 5.75291456883,
			"0.005": 4.27016097095,
			"0.006": 4.0145922112,
			"0.007": 0.509171705552,
			"0.008": 0.0,
			"0.009": 0.0,
			"0.01": 0.0,
			"0.011": 0.0,
			"0.012": 0.0,
			"0.013": 0.0,
			"0.014": 0.0,
			"0.015": 0.0,
			"0.016": 0.0,
			"0.017": 0.0,
			"0.018": 0.0,
			"0.019": 0.0,
			"0.02": 0.0,
			"0.021": 0.0,
			"0.022": 0.0,
			"0.023": 0.0,
			"0.024": 0.0,
			"0.025": 0.0
		}
	}
}
