{
	 "smiles": "NC1=C(C=C(Br)C=C1Br)[N+]([O-])=O", 
	 "Tm": 403.15, 
	 "num_atms": 16, 
	 "gaussian": { 
		 "optdone": 1, 
		 "sigma_profile": "yes", 
		 "theory": "DFT", 
		 "functional": "B3LYP", 
		 "basiset": "6-31G**", 
		 "properties": { 
			 "R2extent": 4755.3182, 
			 "electric_dipole_moment_norm": 3.34328721769, 
			 "electric_quadrupole_moment_norm": 8.13187738656, 
			 "total_energy": -5633.71224081, 
			 "HOMO_LUMO_gap": 0.13346, 
			 "cosmo_polarized_energy": -8.63, 
			 "cosmo_cavitation_energy": 25.4, 
			 "cosmo_dispersion_energy": -20.05, 
			 "cosmo_repulsion_energy": 1.59, 
			 "cosmo_total_nonelectrostatic_energy": 6.95, 
			 "SMD_solvation_energy": 4.04 
		},
		"coords": [
			{
				"x": -1.6502283796,
				"y": 1.1237008485,
				"z": 1.2208340579,
				"element": "N" 
			},
			{
				"x": -0.5531653944,
				"y": 0.7185804108,
				"z": 0.5503756027,
				"element": "C" 
			},
			{
				"x": -0.4974882904,
				"y": 0.5567064235,
				"z": -0.8660780631,
				"element": "C" 
			},
			{
				"x": 0.6641045837,
				"y": 0.1328566075,
				"z": -1.5273698815,
				"element": "C" 
			},
			{
				"x": 1.8052051971,
				"y": -0.1432923704,
				"z": -0.8045599669,
				"element": "C" 
			},
			{
				"x": 3.3921417158,
				"y": -0.7203483737,
				"z": -1.6859439484,
				"element": "Br" 
			},
			{
				"x": 1.8057422096,
				"y": -0.000980339,
				"z": 0.5903240662,
				"element": "C" 
			},
			{
				"x": 0.6601147523,
				"y": 0.416445307,
				"z": 1.2365184897,
				"element": "C" 
			},
			{
				"x": 0.7061103681,
				"y": 0.5966182598,
				"z": 3.1398330096,
				"element": "Br" 
			},
			{
				"x": -1.6532100707,
				"y": 0.8251033485,
				"z": -1.7078405228,
				"element": "N" 
			},
			{
				"x": -1.5400151274,
				"y": 0.6651996294,
				"z": -2.9217671157,
				"element": "O" 
			},
			{
				"x": -2.710738484,
				"y": 1.2052650289,
				"z": -1.173282731,
				"element": "O" 
			},
			{
				"x": -1.6105446252,
				"y": 1.2135145652,
				"z": 2.2233240899,
				"element": "H" 
			},
			{
				"x": -2.484558375,
				"y": 1.3253953862,
				"z": 0.6886645463,
				"element": "H" 
			},
			{
				"x": 0.6312956551,
				"y": 0.0328495134,
				"z": -2.6033125105,
				"element": "H" 
			},
			{
				"x": 2.699534265,
				"y": -0.2167142456,
				"z": 1.1622808775,
				"element": "H" 
			}
		],
		 "valence_orbital": [ 
			{
				"type": "occ",
				"energy": -0.30301,
				"method": "rhf"
			},
			{
				"type": "occ",
				"energy": -0.30183,
				"method": "rhf"
			},
			{
				"type": "occ",
				"energy": -0.29833,
				"method": "rhf"
			},
			{
				"type": "occ",
				"energy": -0.28039,
				"method": "rhf"
			},
			{
				"type": "occ",
				"energy": -0.23198,
				"method": "rhf"
			},
			{
				"type": "unocc",
				"energy": -0.09852,
				"method": "rhf"
			},
			{
				"type": "unocc",
				"energy": -0.03328,
				"method": "rhf"
			},
			{
				"type": "unocc",
				"energy": -0.02809,
				"method": "rhf"
			},
			{
				"type": "unocc",
				"energy": -0.01257,
				"method": "rhf"
			},
			{
				"type": "unocc",
				"energy": 0.01001,
				"method": "rhf"
			}
		],
		"cosmo_sigma_profile": { 
			"-0.025": 0.0,
			"-0.024": 0.0,
			"-0.023": 0.0,
			"-0.022": 0.0,
			"-0.021": 0.0,
			"-0.02": 0.0,
			"-0.019": 0.0,
			"-0.018": 0.0,
			"-0.017": 0.0,
			"-0.016": 0.0,
			"-0.015": 0.0,
			"-0.014": 0.247468658726,
			"-0.013": 0.798175338256,
			"-0.012": 1.07101745467,
			"-0.011": 1.50717271223,
			"-0.01": 1.72038332115,
			"-0.009": 3.02102439227,
			"-0.008": 3.04394012387,
			"-0.007": 4.33139997874,
			"-0.006": 6.01115920869,
			"-0.005": 9.54731103384,
			"-0.004": 10.028784334,
			"-0.003": 12.4622188293,
			"-0.002": 18.5080751958,
			"-0.001": 23.0109703753,
			"0.0": 24.1629785306,
			"0.001": 17.8640082301,
			"0.002": 14.9544343955,
			"0.003": 18.2068628506,
			"0.004": 14.1633424952,
			"0.005": 4.78411133537,
			"0.006": 2.76027780902,
			"0.007": 5.21524548949,
			"0.008": 5.74540426307,
			"0.009": 3.94636299856,
			"0.01": 3.71981054949,
			"0.011": 0.452011657276,
			"0.012": 0.0,
			"0.013": 0.0,
			"0.014": 0.0,
			"0.015": 0.0,
			"0.016": 0.0,
			"0.017": 0.0,
			"0.018": 0.0,
			"0.019": 0.0,
			"0.02": 0.0,
			"0.021": 0.0,
			"0.022": 0.0,
			"0.023": 0.0,
			"0.024": 0.0,
			"0.025": 0.0
		}
	}
}
