{
	 "smiles": "FC(F)(F)C(=O)NC1=CC(C=O)=CC=C1", 
	 "Tm": 376.15, 
	 "num_atms": 21, 
	 "gaussian": { 
		 "optdone": 1, 
		 "sigma_profile": "yes", 
		 "theory": "DFT", 
		 "functional": "B3LYP", 
		 "basiset": "6-31G**", 
		 "properties": { 
			 "R2extent": 4867.3404, 
			 "electric_dipole_moment_norm": 0.373872197415, 
			 "electric_quadrupole_moment_norm": 21.2807132425, 
			 "total_energy": -851.283642085, 
			 "HOMO_LUMO_gap": 0.17157, 
			 "cosmo_polarized_energy": -13.53, 
			 "cosmo_cavitation_energy": 27.79, 
			 "cosmo_dispersion_energy": -19.76, 
			 "cosmo_repulsion_energy": 1.47, 
			 "cosmo_total_nonelectrostatic_energy": 9.51, 
			 "SMD_solvation_energy": 7.7 
		},
		"coords": [
			{
				"x": -2.1756781118,
				"y": 4.4825302746,
				"z": 1.6252884984,
				"element": "F" 
			},
			{
				"x": -1.5158491706,
				"y": 3.4282402434,
				"z": 1.1593679674,
				"element": "C" 
			},
			{
				"x": -2.3663800442,
				"y": 2.378080113,
				"z": 1.1227675779,
				"element": "F" 
			},
			{
				"x": -1.1293732105,
				"y": 3.696188958,
				"z": -0.1080687834,
				"element": "F" 
			},
			{
				"x": -0.2972759309,
				"y": 3.1251333393,
				"z": 2.0595415228,
				"element": "C" 
			},
			{
				"x": -0.094126591,
				"y": 3.8368170092,
				"z": 3.0263789488,
				"element": "O" 
			},
			{
				"x": 0.5379324817,
				"y": 2.072975831,
				"z": 1.7709318347,
				"element": "N" 
			},
			{
				"x": 0.6652479007,
				"y": 1.0481150051,
				"z": 0.8005588647,
				"element": "C" 
			},
			{
				"x": 1.760100973,
				"y": 0.1868134465,
				"z": 0.9762151149,
				"element": "C" 
			},
			{
				"x": 1.9999621624,
				"y": -0.8643619345,
				"z": 0.0907014566,
				"element": "C" 
			},
			{
				"x": 3.1684495525,
				"y": -1.750949077,
				"z": 0.3131473444,
				"element": "C" 
			},
			{
				"x": 3.4616166171,
				"y": -2.6902887029,
				"z": -0.3992109977,
				"element": "O" 
			},
			{
				"x": 1.1431106778,
				"y": -1.0775842468,
				"z": -0.9973817697,
				"element": "C" 
			},
			{
				"x": 0.0596106623,
				"y": -0.2265339612,
				"z": -1.1725763224,
				"element": "C" 
			},
			{
				"x": -0.1890329479,
				"y": 0.8297931501,
				"z": -0.2903089864,
				"element": "C" 
			},
			{
				"x": 1.2645775348,
				"y": 2.0518535386,
				"z": 2.4783321485,
				"element": "H" 
			},
			{
				"x": 2.4368480869,
				"y": 0.3368574141,
				"z": 1.8159126449,
				"element": "H" 
			},
			{
				"x": 3.7833950111,
				"y": -1.4946120636,
				"z": 1.2047964264,
				"element": "H" 
			},
			{
				"x": 1.3466939866,
				"y": -1.9000509104,
				"z": -1.6743002052,
				"element": "H" 
			},
			{
				"x": -0.6174151466,
				"y": -0.3730187473,
				"z": -2.0086861664,
				"element": "H" 
			},
			{
				"x": -1.0435144933,
				"y": 1.460901321,
				"z": -0.4712071193,
				"element": "H" 
			}
		],
		 "valence_orbital": [ 
			{
				"type": "occ",
				"energy": -0.33453,
				"method": "rhf"
			},
			{
				"type": "occ",
				"energy": -0.29692,
				"method": "rhf"
			},
			{
				"type": "occ",
				"energy": -0.28241,
				"method": "rhf"
			},
			{
				"type": "occ",
				"energy": -0.26777,
				"method": "rhf"
			},
			{
				"type": "occ",
				"energy": -0.2496,
				"method": "rhf"
			},
			{
				"type": "unocc",
				"energy": -0.07803,
				"method": "rhf"
			},
			{
				"type": "unocc",
				"energy": -0.04832,
				"method": "rhf"
			},
			{
				"type": "unocc",
				"energy": -0.01211,
				"method": "rhf"
			},
			{
				"type": "unocc",
				"energy": 0.03607,
				"method": "rhf"
			},
			{
				"type": "unocc",
				"energy": 0.05663,
				"method": "rhf"
			}
		],
		"cosmo_sigma_profile": { 
			"-0.025": 0.0,
			"-0.024": 0.0,
			"-0.023": 0.0,
			"-0.022": 0.0,
			"-0.021": 0.0,
			"-0.02": 0.0,
			"-0.019": 0.0,
			"-0.018": 0.0,
			"-0.017": 0.0991988043356,
			"-0.016": 0.969880726786,
			"-0.015": 1.4045224974,
			"-0.014": 1.08703479084,
			"-0.013": 1.20951377858,
			"-0.012": 0.805512989053,
			"-0.011": 1.46930769437,
			"-0.01": 0.897794830283,
			"-0.009": 2.65594333105,
			"-0.008": 4.01113162371,
			"-0.007": 6.67530501313,
			"-0.006": 10.7054760255,
			"-0.005": 11.4661451474,
			"-0.004": 11.6356541698,
			"-0.003": 12.9565541404,
			"-0.002": 14.4918650671,
			"-0.001": 15.7159013737,
			"0.0": 17.2979280135,
			"0.001": 30.6059658196,
			"0.002": 29.2960562637,
			"0.003": 9.89821732134,
			"0.004": 3.67927708562,
			"0.005": 3.30987747217,
			"0.006": 2.38128911955,
			"0.007": 2.32993811011,
			"0.008": 4.06476303869,
			"0.009": 3.93475643359,
			"0.01": 5.87076500548,
			"0.011": 9.31921199671,
			"0.012": 3.37784540767,
			"0.013": 0.323762857764,
			"0.014": 0.0,
			"0.015": 0.0,
			"0.016": 0.0,
			"0.017": 0.0,
			"0.018": 0.0,
			"0.019": 0.0,
			"0.02": 0.0,
			"0.021": 0.0,
			"0.022": 0.0,
			"0.023": 0.0,
			"0.024": 0.0,
			"0.025": 0.0
		}
	}
}
