{
	 "smiles": "CNC1(CCCC(=CC2=CC=CS2)C1=O)C1=C(Cl)C=CC=C1", 
	 "Tm": 403.15, 
	 "num_atms": 40, 
	 "gaussian": { 
		 "optdone": 1, 
		 "sigma_profile": "yes", 
		 "theory": "DFT", 
		 "functional": "B3LYP", 
		 "basiset": "6-31G**", 
		 "properties": { 
			 "R2extent": 7520.2911, 
			 "electric_dipole_moment_norm": 3.12559973925, 
			 "electric_quadrupole_moment_norm": 12.760350014, 
			 "total_energy": -1685.05730623, 
			 "HOMO_LUMO_gap": 0.15069, 
			 "cosmo_polarized_energy": -12.39, 
			 "cosmo_cavitation_energy": 44.25, 
			 "cosmo_dispersion_energy": -29.61, 
			 "cosmo_repulsion_energy": 2.22, 
			 "cosmo_total_nonelectrostatic_energy": 16.86, 
			 "SMD_solvation_energy": 7.2 
		},
		"coords": [
			{
				"x": -2.801516799,
				"y": -0.320293674,
				"z": 2.6451613681,
				"element": "C" 
			},
			{
				"x": -2.2396148525,
				"y": -0.933993763,
				"z": 1.4655814964,
				"element": "N" 
			},
			{
				"x": -0.9530669194,
				"y": -0.5152769651,
				"z": 0.9416199683,
				"element": "C" 
			},
			{
				"x": 0.1385195059,
				"y": -0.3476719832,
				"z": 2.053021997,
				"element": "C" 
			},
			{
				"x": 0.7476627008,
				"y": -1.7029795407,
				"z": 2.4227034231,
				"element": "C" 
			},
			{
				"x": 1.6663593067,
				"y": -2.1539761849,
				"z": 1.2682997774,
				"element": "C" 
			},
			{
				"x": 1.0461057179,
				"y": -1.8110556907,
				"z": -0.0826558543,
				"element": "C" 
			},
			{
				"x": 1.7835460031,
				"y": -1.6922851428,
				"z": -1.2058241639,
				"element": "C" 
			},
			{
				"x": 1.3577285795,
				"y": -1.4410025767,
				"z": -2.5740117745,
				"element": "C" 
			},
			{
				"x": 0.1632151859,
				"y": -1.6795124556,
				"z": -3.2232504492,
				"element": "C" 
			},
			{
				"x": 0.1786817011,
				"y": -1.2934343812,
				"z": -4.5924971913,
				"element": "C" 
			},
			{
				"x": 1.3810227912,
				"y": -0.7733236522,
				"z": -4.992655363,
				"element": "C" 
			},
			{
				"x": 2.5224618522,
				"y": -0.744329787,
				"z": -3.6935523397,
				"element": "S" 
			},
			{
				"x": -0.4428091488,
				"y": -1.6713245641,
				"z": 0.0124487038,
				"element": "C" 
			},
			{
				"x": -1.2054329814,
				"y": -2.4822169718,
				"z": -0.4802253031,
				"element": "O" 
			},
			{
				"x": -1.1447513194,
				"y": 0.7881826439,
				"z": 0.0992632118,
				"element": "C" 
			},
			{
				"x": -2.1128381277,
				"y": 0.9218613815,
				"z": -0.9241756291,
				"element": "C" 
			},
			{
				"x": -3.2026816918,
				"y": -0.3678119001,
				"z": -1.4192106503,
				"element": "Cl" 
			},
			{
				"x": -2.2785952846,
				"y": 2.1171245092,
				"z": -1.6299629983,
				"element": "C" 
			},
			{
				"x": -1.5002609602,
				"y": 3.2321117904,
				"z": -1.3369623402,
				"element": "C" 
			},
			{
				"x": -0.5523024363,
				"y": 3.1434096552,
				"z": -0.3232075937,
				"element": "C" 
			},
			{
				"x": -0.3887890896,
				"y": 1.9443802923,
				"z": 0.3679745415,
				"element": "C" 
			},
			{
				"x": -3.8441892549,
				"y": -0.6383484695,
				"z": 2.7438116324,
				"element": "H" 
			},
			{
				"x": -2.8077012474,
				"y": 0.7707688081,
				"z": 2.5349300533,
				"element": "H" 
			},
			{
				"x": -2.292169249,
				"y": -0.5542354085,
				"z": 3.5978330186,
				"element": "H" 
			},
			{
				"x": -2.4331523833,
				"y": -1.9151696081,
				"z": 1.3301843012,
				"element": "H" 
			},
			{
				"x": -0.2983711492,
				"y": 0.1599609364,
				"z": 2.9171750046,
				"element": "H" 
			},
			{
				"x": 0.9601074289,
				"y": 0.2792328294,
				"z": 1.7001561783,
				"element": "H" 
			},
			{
				"x": 1.3163525323,
				"y": -1.6402399821,
				"z": 3.3556600137,
				"element": "H" 
			},
			{
				"x": -0.0506372916,
				"y": -2.4376918651,
				"z": 2.5900767895,
				"element": "H" 
			},
			{
				"x": 1.8439613478,
				"y": -3.2360302464,
				"z": 1.3256167013,
				"element": "H" 
			},
			{
				"x": 2.646874943,
				"y": -1.6692897206,
				"z": 1.3548461886,
				"element": "H" 
			},
			{
				"x": 2.8635382417,
				"y": -1.7746844428,
				"z": -1.0733843045,
				"element": "H" 
			},
			{
				"x": -0.6823922543,
				"y": -2.1443320455,
				"z": -2.7342642349,
				"element": "H" 
			},
			{
				"x": -0.6701157138,
				"y": -1.4095751046,
				"z": -5.2568712617,
				"element": "H" 
			},
			{
				"x": 1.6627805971,
				"y": -0.4090580118,
				"z": -5.970881081,
				"element": "H" 
			},
			{
				"x": -3.0304019148,
				"y": 2.1579754901,
				"z": -2.4102415138,
				"element": "H" 
			},
			{
				"x": -1.6418830829,
				"y": 4.154069292,
				"z": -1.8927638682,
				"element": "H" 
			},
			{
				"x": 0.0617668035,
				"y": 3.9999793724,
				"z": -0.0619316079,
				"element": "H" 
			},
			{
				"x": 0.3500879132,
				"y": 1.9257871372,
				"z": 1.1570651537,
				"element": "H" 
			}
		],
		 "valence_orbital": [ 
			{
				"type": "occ",
				"energy": -0.24691,
				"method": "rhf"
			},
			{
				"type": "occ",
				"energy": -0.24496,
				"method": "rhf"
			},
			{
				"type": "occ",
				"energy": -0.23274,
				"method": "rhf"
			},
			{
				"type": "occ",
				"energy": -0.20964,
				"method": "rhf"
			},
			{
				"type": "occ",
				"energy": -0.20331,
				"method": "rhf"
			},
			{
				"type": "unocc",
				"energy": -0.05262,
				"method": "rhf"
			},
			{
				"type": "unocc",
				"energy": -0.02421,
				"method": "rhf"
			},
			{
				"type": "unocc",
				"energy": -0.00886,
				"method": "rhf"
			},
			{
				"type": "unocc",
				"energy": 0.00108,
				"method": "rhf"
			},
			{
				"type": "unocc",
				"energy": 0.02957,
				"method": "rhf"
			}
		],
		"cosmo_sigma_profile": { 
			"-0.025": 0.0,
			"-0.024": 0.0,
			"-0.023": 0.0,
			"-0.022": 0.0,
			"-0.021": 0.0,
			"-0.02": 0.0,
			"-0.019": 0.0,
			"-0.018": 0.0,
			"-0.017": 0.0,
			"-0.016": 0.0,
			"-0.015": 0.0,
			"-0.014": 0.0,
			"-0.013": 0.0,
			"-0.012": 0.0,
			"-0.011": 0.0,
			"-0.01": 0.0,
			"-0.009": 0.602128088946,
			"-0.008": 2.96473786598,
			"-0.007": 6.58515176823,
			"-0.006": 15.257961068,
			"-0.005": 19.1788600389,
			"-0.004": 28.4261195827,
			"-0.003": 32.8117560446,
			"-0.002": 34.6826960616,
			"-0.001": 32.6295760746,
			"0.0": 30.1480548214,
			"0.001": 20.398366649,
			"0.002": 26.8954545036,
			"0.003": 30.5687782276,
			"0.004": 31.8426254265,
			"0.005": 20.0977467015,
			"0.006": 5.85865286907,
			"0.007": 3.27841127381,
			"0.008": 2.63662966135,
			"0.009": 2.98411513048,
			"0.01": 3.83661444718,
			"0.011": 3.31968417754,
			"0.012": 0.383144328625,
			"0.013": 0.0,
			"0.014": 0.0,
			"0.015": 0.0,
			"0.016": 0.0,
			"0.017": 0.0,
			"0.018": 0.0,
			"0.019": 0.0,
			"0.02": 0.0,
			"0.021": 0.0,
			"0.022": 0.0,
			"0.023": 0.0,
			"0.024": 0.0,
			"0.025": 0.0
		}
	}
}
