{
	 "smiles": "CCN1CCN(CC2=CC=C(N)C=C2)CC1", 
	 "Tm": 346.15, 
	 "num_atms": 37, 
	 "gaussian": { 
		 "optdone": 1, 
		 "sigma_profile": "yes", 
		 "theory": "DFT", 
		 "functional": "B3LYP", 
		 "basiset": "6-31G**", 
		 "properties": { 
			 "R2extent": 5471.2217, 
			 "electric_dipole_moment_norm": 1.86681459711, 
			 "electric_quadrupole_moment_norm": 11.4377590371, 
			 "total_energy": -672.28588695, 
			 "HOMO_LUMO_gap": 0.19944, 
			 "cosmo_polarized_energy": -10.96, 
			 "cosmo_cavitation_energy": 36.96, 
			 "cosmo_dispersion_energy": -26.47, 
			 "cosmo_repulsion_energy": 2.07, 
			 "cosmo_total_nonelectrostatic_energy": 12.57, 
			 "SMD_solvation_energy": 0.86 
		},
		"coords": [
			{
				"x": 1.4116657323,
				"y": -3.1506911463,
				"z": 3.6597047353,
				"element": "C" 
			},
			{
				"x": 0.1176620407,
				"y": -2.4287220966,
				"z": 3.239422221,
				"element": "C" 
			},
			{
				"x": 0.1967743558,
				"y": -1.5111660759,
				"z": 2.1047002484,
				"element": "N" 
			},
			{
				"x": 0.5125183912,
				"y": -2.1447309905,
				"z": 0.8282771157,
				"element": "C" 
			},
			{
				"x": 0.3145268911,
				"y": -1.1434860066,
				"z": -0.3118803249,
				"element": "C" 
			},
			{
				"x": 1.154055916,
				"y": 0.0315798402,
				"z": -0.0913400519,
				"element": "N" 
			},
			{
				"x": 1.2100920598,
				"y": 0.9593575484,
				"z": -1.2306038288,
				"element": "C" 
			},
			{
				"x": -0.0806133618,
				"y": 1.6610497155,
				"z": -1.6288823181,
				"element": "C" 
			},
			{
				"x": -0.962701166,
				"y": 1.0946097924,
				"z": -2.5597566217,
				"element": "C" 
			},
			{
				"x": -2.159254413,
				"y": 1.7154893004,
				"z": -2.9078380945,
				"element": "C" 
			},
			{
				"x": -2.5195856891,
				"y": 2.9447324752,
				"z": -2.3306889065,
				"element": "C" 
			},
			{
				"x": -3.6903712748,
				"y": 3.603175201,
				"z": -2.7184009304,
				"element": "N" 
			},
			{
				"x": -1.6383760759,
				"y": 3.5271028848,
				"z": -1.4042358888,
				"element": "C" 
			},
			{
				"x": -0.4457020471,
				"y": 2.8927108988,
				"z": -1.067443822,
				"element": "C" 
			},
			{
				"x": 0.8378815436,
				"y": 0.6648808924,
				"z": 1.1866586487,
				"element": "C" 
			},
			{
				"x": 1.0355960499,
				"y": -0.3373985007,
				"z": 2.3259779149,
				"element": "C" 
			},
			{
				"x": 1.8102782503,
				"y": -3.7738606908,
				"z": 2.8528586471,
				"element": "H" 
			},
			{
				"x": 2.1937597502,
				"y": -2.4444615958,
				"z": 3.956003734,
				"element": "H" 
			},
			{
				"x": 1.2142312703,
				"y": -3.8044528865,
				"z": 4.5162297319,
				"element": "H" 
			},
			{
				"x": -0.6478122827,
				"y": -3.1784089721,
				"z": 2.9996367735,
				"element": "H" 
			},
			{
				"x": -0.26637224,
				"y": -1.8572700562,
				"z": 4.0946755734,
				"element": "H" 
			},
			{
				"x": -0.1601492086,
				"y": -2.999111446,
				"z": 0.6841023268,
				"element": "H" 
			},
			{
				"x": 1.5510632665,
				"y": -2.5232314613,
				"z": 0.7846174496,
				"element": "H" 
			},
			{
				"x": -0.7584234093,
				"y": -0.8892444495,
				"z": -0.3801645327,
				"element": "H" 
			},
			{
				"x": 0.6084596239,
				"y": -1.610239959,
				"z": -1.2603082824,
				"element": "H" 
			},
			{
				"x": 1.588870517,
				"y": 0.3882429937,
				"z": -2.0876622116,
				"element": "H" 
			},
			{
				"x": 1.9705325075,
				"y": 1.713018248,
				"z": -0.989955637,
				"element": "H" 
			},
			{
				"x": -0.7058234844,
				"y": 0.1485631516,
				"z": -3.0310575692,
				"element": "H" 
			},
			{
				"x": -2.8182421139,
				"y": 1.2541338378,
				"z": -3.6398773391,
				"element": "H" 
			},
			{
				"x": -4.0552841881,
				"y": 4.2570250293,
				"z": -2.0391618204,
				"element": "H" 
			},
			{
				"x": -4.4165115722,
				"y": 3.0008610365,
				"z": -3.0816979227,
				"element": "H" 
			},
			{
				"x": -1.8889207884,
				"y": 4.4864534276,
				"z": -0.9571654592,
				"element": "H" 
			},
			{
				"x": 0.2212411995,
				"y": 3.3730764767,
				"z": -0.3550267491,
				"element": "H" 
			},
			{
				"x": 1.5136474671,
				"y": 1.5170628444,
				"z": 1.3312621827,
				"element": "H" 
			},
			{
				"x": -0.1981290167,
				"y": 1.0467818933,
				"z": 1.2241237956,
				"element": "H" 
			},
			{
				"x": 0.7450873651,
				"y": 0.1282071647,
				"z": 3.2757412419,
				"element": "H" 
			},
			{
				"x": 2.1114281342,
				"y": -0.5870383189,
				"z": 2.3889559703,
				"element": "H" 
			}
		],
		 "valence_orbital": [ 
			{
				"type": "occ",
				"energy": -0.29623,
				"method": "rhf"
			},
			{
				"type": "occ",
				"energy": -0.24139,
				"method": "rhf"
			},
			{
				"type": "occ",
				"energy": -0.20466,
				"method": "rhf"
			},
			{
				"type": "occ",
				"energy": -0.19791,
				"method": "rhf"
			},
			{
				"type": "occ",
				"energy": -0.19333,
				"method": "rhf"
			},
			{
				"type": "unocc",
				"energy": 0.00611,
				"method": "rhf"
			},
			{
				"type": "unocc",
				"energy": 0.01891,
				"method": "rhf"
			},
			{
				"type": "unocc",
				"energy": 0.08292,
				"method": "rhf"
			},
			{
				"type": "unocc",
				"energy": 0.08927,
				"method": "rhf"
			},
			{
				"type": "unocc",
				"energy": 0.09941,
				"method": "rhf"
			}
		],
		"cosmo_sigma_profile": { 
			"-0.025": 0.0,
			"-0.024": 0.0,
			"-0.023": 0.0,
			"-0.022": 0.0,
			"-0.021": 0.0,
			"-0.02": 0.0,
			"-0.019": 0.0,
			"-0.018": 0.0,
			"-0.017": 0.0,
			"-0.016": 0.0,
			"-0.015": 0.0,
			"-0.014": 0.0,
			"-0.013": 0.0385078888575,
			"-0.012": 1.7398371036,
			"-0.011": 3.30833795869,
			"-0.01": 1.78611699324,
			"-0.009": 3.55763529246,
			"-0.008": 3.30257932931,
			"-0.007": 2.65422272851,
			"-0.006": 3.46590620813,
			"-0.005": 6.38853110923,
			"-0.004": 17.0576383569,
			"-0.003": 34.246848631,
			"-0.002": 33.5186613379,
			"-0.001": 38.2491690182,
			"0.0": 34.5027475974,
			"0.001": 22.6351047301,
			"0.002": 15.4696788266,
			"0.003": 9.96532383892,
			"0.004": 8.27037065098,
			"0.005": 9.73815007621,
			"0.006": 10.369807297,
			"0.007": 9.53861585989,
			"0.008": 3.70204612407,
			"0.009": 2.18105935272,
			"0.01": 2.29844904272,
			"0.011": 2.01408057146,
			"0.012": 1.40936351338,
			"0.013": 1.99751961934,
			"0.014": 0.985019698943,
			"0.015": 1.64937588765,
			"0.016": 0.508815193515,
			"0.017": 0.0,
			"0.018": 0.0,
			"0.019": 0.0,
			"0.02": 0.0,
			"0.021": 0.0,
			"0.022": 0.0,
			"0.023": 0.0,
			"0.024": 0.0,
			"0.025": 0.0
		}
	}
}
