{
	 "smiles": "O=C(OC(=O)C(C1=CC=CC=C1)C1=CC=CC=C1)C(C1=CC=CC=C1)C1=CC=CC=C1", 
	 "Tm": 371.15, 
	 "num_atms": 53, 
	 "gaussian": { 
		 "optdone": 1, 
		 "sigma_profile": "yes", 
		 "theory": "DFT", 
		 "functional": "B3LYP", 
		 "basiset": "6-31G**", 
		 "properties": { 
			 "R2extent": 13791.3641, 
			 "electric_dipole_moment_norm": 3.49830610725, 
			 "electric_quadrupole_moment_norm": 10.5924647854, 
			 "total_energy": -1305.92367738, 
			 "HOMO_LUMO_gap": 0.20376, 
			 "cosmo_polarized_energy": -16.95, 
			 "cosmo_cavitation_energy": 58.42, 
			 "cosmo_dispersion_energy": -36.21, 
			 "cosmo_repulsion_energy": 2.79, 
			 "cosmo_total_nonelectrostatic_energy": 24.99, 
			 "SMD_solvation_energy": 10.84 
		},
		"coords": [
			{
				"x": -2.8345151194,
				"y": -0.6278389163,
				"z": 1.6004307427,
				"element": "O" 
			},
			{
				"x": -1.9840947188,
				"y": -0.3454761596,
				"z": 0.8064505611,
				"element": "C" 
			},
			{
				"x": -0.6730620787,
				"y": -0.0274702473,
				"z": 1.1738447289,
				"element": "O" 
			},
			{
				"x": -0.0822575182,
				"y": -0.6163150429,
				"z": 2.2851723802,
				"element": "C" 
			},
			{
				"x": -0.4415324901,
				"y": -1.6655825852,
				"z": 2.7438279261,
				"element": "O" 
			},
			{
				"x": 1.1021905807,
				"y": 0.2080346829,
				"z": 2.7934176285,
				"element": "C" 
			},
			{
				"x": 2.3869890366,
				"y": -0.0838994276,
				"z": 2.0151375886,
				"element": "C" 
			},
			{
				"x": 2.4027207766,
				"y": -0.4149871331,
				"z": 0.6541208116,
				"element": "C" 
			},
			{
				"x": 3.6127253231,
				"y": -0.6555092289,
				"z": -0.0025808821,
				"element": "C" 
			},
			{
				"x": 4.8208253475,
				"y": -0.5654920939,
				"z": 0.6874344225,
				"element": "C" 
			},
			{
				"x": 4.8143886026,
				"y": -0.2356816389,
				"z": 2.0448000583,
				"element": "C" 
			},
			{
				"x": 3.607659854,
				"y": -0.0003508699,
				"z": 2.7007820464,
				"element": "C" 
			},
			{
				"x": 0.7538426044,
				"y": 1.693727404,
				"z": 2.9083240806,
				"element": "C" 
			},
			{
				"x": 1.0857716601,
				"y": 2.6199828539,
				"z": 1.9130236478,
				"element": "C" 
			},
			{
				"x": 0.729796442,
				"y": 3.9624092823,
				"z": 2.0485938463,
				"element": "C" 
			},
			{
				"x": 0.0362356384,
				"y": 4.3974468161,
				"z": 3.1794325156,
				"element": "C" 
			},
			{
				"x": -0.2986706736,
				"y": 3.4806376286,
				"z": 4.1771399775,
				"element": "C" 
			},
			{
				"x": 0.059874994,
				"y": 2.1392182144,
				"z": 4.0412631497,
				"element": "C" 
			},
			{
				"x": -2.1211244801,
				"y": -0.2422616081,
				"z": -0.7091662131,
				"element": "C" 
			},
			{
				"x": -1.4630734543,
				"y": -1.4561036438,
				"z": -1.3770375782,
				"element": "C" 
			},
			{
				"x": -1.3704064806,
				"y": -2.7006176754,
				"z": -0.7401917387,
				"element": "C" 
			},
			{
				"x": -0.7937670863,
				"y": -3.7899979844,
				"z": -1.3981545131,
				"element": "C" 
			},
			{
				"x": -0.3071039351,
				"y": -3.6512871303,
				"z": -2.6975268083,
				"element": "C" 
			},
			{
				"x": -0.393906907,
				"y": -2.4126201481,
				"z": -3.3379244414,
				"element": "C" 
			},
			{
				"x": -0.9648758376,
				"y": -1.3241504524,
				"z": -2.68063829,
				"element": "C" 
			},
			{
				"x": -3.5648574132,
				"y": -0.023703742,
				"z": -1.1432558461,
				"element": "C" 
			},
			{
				"x": -4.5315064176,
				"y": -1.0273941883,
				"z": -1.0000337864,
				"element": "C" 
			},
			{
				"x": -5.8460367327,
				"y": -0.8045966487,
				"z": -1.405979095,
				"element": "C" 
			},
			{
				"x": -6.2135343963,
				"y": 0.4222620715,
				"z": -1.9646784435,
				"element": "C" 
			},
			{
				"x": -5.2575315741,
				"y": 1.4266828299,
				"z": -2.1121570021,
				"element": "C" 
			},
			{
				"x": -3.941724502,
				"y": 1.2027436976,
				"z": -1.7012987164,
				"element": "C" 
			},
			{
				"x": 1.252180193,
				"y": -0.1782193729,
				"z": 3.8062302068,
				"element": "H" 
			},
			{
				"x": 1.4732730687,
				"y": -0.4935211323,
				"z": 0.100469597,
				"element": "H" 
			},
			{
				"x": 3.6045299925,
				"y": -0.9176249197,
				"z": -1.0567088376,
				"element": "H" 
			},
			{
				"x": 5.7596458411,
				"y": -0.7546474649,
				"z": 0.175082566,
				"element": "H" 
			},
			{
				"x": 5.7486658351,
				"y": -0.167435868,
				"z": 2.5948080326,
				"element": "H" 
			},
			{
				"x": 3.6093370618,
				"y": 0.2535191133,
				"z": 3.757793356,
				"element": "H" 
			},
			{
				"x": 1.6329370308,
				"y": 2.2916401764,
				"z": 1.0353032937,
				"element": "H" 
			},
			{
				"x": 0.9988569654,
				"y": 4.6705286976,
				"z": 1.2697356904,
				"element": "H" 
			},
			{
				"x": -0.2374509859,
				"y": 5.4433570817,
				"z": 3.2842457753,
				"element": "H" 
			},
			{
				"x": -0.835024849,
				"y": 3.8083306013,
				"z": 5.0630598915,
				"element": "H" 
			},
			{
				"x": -0.2030657986,
				"y": 1.4296919185,
				"z": 4.8224042903,
				"element": "H" 
			},
			{
				"x": -1.5393607699,
				"y": 0.6391148053,
				"z": -1.0010081165,
				"element": "H" 
			},
			{
				"x": -1.7300768186,
				"y": -2.8237596831,
				"z": 0.2774870252,
				"element": "H" 
			},
			{
				"x": -0.724093112,
				"y": -4.7463683922,
				"z": -0.8881387988,
				"element": "H" 
			},
			{
				"x": 0.1403879174,
				"y": -4.499521517,
				"z": -3.2072844415,
				"element": "H" 
			},
			{
				"x": -0.014674431,
				"y": -2.2930525111,
				"z": -4.3489017555,
				"element": "H" 
			},
			{
				"x": -1.034889202,
				"y": -0.3637822661,
				"z": -3.1852146724,
				"element": "H" 
			},
			{
				"x": -4.2541712265,
				"y": -1.9847242661,
				"z": -0.5713718728,
				"element": "H" 
			},
			{
				"x": -6.5857113183,
				"y": -1.5911067517,
				"z": -1.2866052419,
				"element": "H" 
			},
			{
				"x": -7.2381484664,
				"y": 0.5921044814,
				"z": -2.2828396584,
				"element": "H" 
			},
			{
				"x": -5.5321399898,
				"y": 2.3843375958,
				"z": -2.5452527174,
				"element": "H" 
			},
			{
				"x": -3.2013459823,
				"y": 1.9914307575,
				"z": -1.8140663703,
				"element": "H" 
			}
		],
		 "valence_orbital": [ 
			{
				"type": "occ",
				"energy": -0.2525,
				"method": "rhf"
			},
			{
				"type": "occ",
				"energy": -0.2495,
				"method": "rhf"
			},
			{
				"type": "occ",
				"energy": -0.24711,
				"method": "rhf"
			},
			{
				"type": "occ",
				"energy": -0.24197,
				"method": "rhf"
			},
			{
				"type": "occ",
				"energy": -0.23899,
				"method": "rhf"
			},
			{
				"type": "unocc",
				"energy": -0.03523,
				"method": "rhf"
			},
			{
				"type": "unocc",
				"energy": -0.01429,
				"method": "rhf"
			},
			{
				"type": "unocc",
				"energy": -0.01318,
				"method": "rhf"
			},
			{
				"type": "unocc",
				"energy": -0.01118,
				"method": "rhf"
			},
			{
				"type": "unocc",
				"energy": -0.0071,
				"method": "rhf"
			}
		],
		"cosmo_sigma_profile": { 
			"-0.025": 0.0,
			"-0.024": 0.0,
			"-0.023": 0.0,
			"-0.022": 0.0,
			"-0.021": 0.0,
			"-0.02": 0.0,
			"-0.019": 0.0,
			"-0.018": 0.0,
			"-0.017": 0.0,
			"-0.016": 0.0,
			"-0.015": 0.0,
			"-0.014": 0.0,
			"-0.013": 0.0,
			"-0.012": 0.0,
			"-0.011": 0.0,
			"-0.01": 0.0,
			"-0.009": 0.0,
			"-0.008": 2.23528446107,
			"-0.007": 9.02419913776,
			"-0.006": 28.1996306825,
			"-0.005": 39.6241521161,
			"-0.004": 45.6765602129,
			"-0.003": 39.4100645546,
			"-0.002": 33.0810055581,
			"-0.001": 33.0204500186,
			"0.0": 29.8038332064,
			"0.001": 30.5770185358,
			"0.002": 29.6250748223,
			"0.003": 33.5603205313,
			"0.004": 35.4095705102,
			"0.005": 37.300339308,
			"0.006": 15.4467939106,
			"0.007": 3.58695569595,
			"0.008": 3.91221141389,
			"0.009": 5.97181326571,
			"0.01": 9.05253659579,
			"0.011": 3.22246213993,
			"0.012": 0.121909178751,
			"0.013": 0.0,
			"0.014": 0.0,
			"0.015": 0.0,
			"0.016": 0.0,
			"0.017": 0.0,
			"0.018": 0.0,
			"0.019": 0.0,
			"0.02": 0.0,
			"0.021": 0.0,
			"0.022": 0.0,
			"0.023": 0.0,
			"0.024": 0.0,
			"0.025": 0.0
		}
	}
}
