{
	 "smiles": "CCOC(=O)C1=CC=C(C=C1)C(C)=O", 
	 "Tm": 329.15, 
	 "num_atms": 26, 
	 "gaussian": { 
		 "optdone": 1, 
		 "sigma_profile": "yes", 
		 "theory": "DFT", 
		 "functional": "B3LYP", 
		 "basiset": "6-31G**", 
		 "properties": { 
			 "R2extent": 4269.1163, 
			 "electric_dipole_moment_norm": 4.11901881642, 
			 "electric_quadrupole_moment_norm": 7.14932505695, 
			 "total_energy": -652.098471631, 
			 "HOMO_LUMO_gap": 0.17767, 
			 "cosmo_polarized_energy": -10.97, 
			 "cosmo_cavitation_energy": 30.52, 
			 "cosmo_dispersion_energy": -21.99, 
			 "cosmo_repulsion_energy": 1.74, 
			 "cosmo_total_nonelectrostatic_energy": 10.27, 
			 "SMD_solvation_energy": 7.08 
		},
		"coords": [
			{
				"x": -4.3251826537,
				"y": 0.6342404283,
				"z": 0.757654758,
				"element": "C" 
			},
			{
				"x": -3.5709946487,
				"y": 0.6514641207,
				"z": -0.5634028008,
				"element": "C" 
			},
			{
				"x": -2.245719892,
				"y": 0.0847157628,
				"z": -0.4210669215,
				"element": "O" 
			},
			{
				"x": -1.2732507973,
				"y": 0.9234498597,
				"z": -0.0000453664,
				"element": "C" 
			},
			{
				"x": -1.4557202682,
				"y": 2.0993281065,
				"z": 0.2511809557,
				"element": "O" 
			},
			{
				"x": 0.0514938794,
				"y": 0.2428336765,
				"z": 0.1162141883,
				"element": "C" 
			},
			{
				"x": 0.2245338187,
				"y": -1.1159907378,
				"z": -0.1772293045,
				"element": "C" 
			},
			{
				"x": 1.4832484057,
				"y": -1.6991482697,
				"z": -0.0513196462,
				"element": "C" 
			},
			{
				"x": 2.5835090617,
				"y": -0.9360929691,
				"z": 0.3680510757,
				"element": "C" 
			},
			{
				"x": 2.4009516325,
				"y": 0.4254044884,
				"z": 0.6603674527,
				"element": "C" 
			},
			{
				"x": 1.1480596553,
				"y": 1.0103609909,
				"z": 0.5365803767,
				"element": "C" 
			},
			{
				"x": 3.9626146749,
				"y": -1.5140301102,
				"z": 0.5206135109,
				"element": "C" 
			},
			{
				"x": 4.1818977556,
				"y": -2.9841434258,
				"z": 0.208478758,
				"element": "C" 
			},
			{
				"x": 4.8899342395,
				"y": -0.8101322498,
				"z": 0.8890917559,
				"element": "O" 
			},
			{
				"x": -4.377481015,
				"y": -0.3800058135,
				"z": 1.1642752625,
				"element": "H" 
			},
			{
				"x": -3.8367442804,
				"y": 1.2845839232,
				"z": 1.4871987836,
				"element": "H" 
			},
			{
				"x": -5.3472819624,
				"y": 0.996517737,
				"z": 0.6050334253,
				"element": "H" 
			},
			{
				"x": -4.0558314425,
				"y": 0.0192301009,
				"z": -1.3110094296,
				"element": "H" 
			},
			{
				"x": -3.4775851488,
				"y": 1.6683799849,
				"z": -0.9512811772,
				"element": "H" 
			},
			{
				"x": -0.6250427394,
				"y": -1.7055943574,
				"z": -0.5010113246,
				"element": "H" 
			},
			{
				"x": 1.6022240106,
				"y": -2.75260739,
				"z": -0.2821493738,
				"element": "H" 
			},
			{
				"x": 3.2624427751,
				"y": 0.999868956,
				"z": 0.9832354043,
				"element": "H" 
			},
			{
				"x": 0.9910837331,
				"y": 2.0603506427,
				"z": 0.7586779737,
				"element": "H" 
			},
			{
				"x": 5.2328377821,
				"y": -3.222442605,
				"z": 0.3736228208,
				"element": "H" 
			},
			{
				"x": 3.5599261776,
				"y": -3.6191769158,
				"z": 0.8490263998,
				"element": "H" 
			},
			{
				"x": 3.9167772466,
				"y": -3.2092639344,
				"z": -0.8304875573,
				"element": "H" 
			}
		],
		 "valence_orbital": [ 
			{
				"type": "occ",
				"energy": -0.3037,
				"method": "rhf"
			},
			{
				"type": "occ",
				"energy": -0.27878,
				"method": "rhf"
			},
			{
				"type": "occ",
				"energy": -0.26822,
				"method": "rhf"
			},
			{
				"type": "occ",
				"energy": -0.26592,
				"method": "rhf"
			},
			{
				"type": "occ",
				"energy": -0.25385,
				"method": "rhf"
			},
			{
				"type": "unocc",
				"energy": -0.07618,
				"method": "rhf"
			},
			{
				"type": "unocc",
				"energy": -0.0159,
				"method": "rhf"
			},
			{
				"type": "unocc",
				"energy": -0.00272,
				"method": "rhf"
			},
			{
				"type": "unocc",
				"energy": 0.07257,
				"method": "rhf"
			},
			{
				"type": "unocc",
				"energy": 0.08788,
				"method": "rhf"
			}
		],
		"cosmo_sigma_profile": { 
			"-0.025": 0.0,
			"-0.024": 0.0,
			"-0.023": 0.0,
			"-0.022": 0.0,
			"-0.021": 0.0,
			"-0.02": 0.0,
			"-0.019": 0.0,
			"-0.018": 0.0,
			"-0.017": 0.0,
			"-0.016": 0.0,
			"-0.015": 0.0,
			"-0.014": 0.0,
			"-0.013": 0.0,
			"-0.012": 0.0,
			"-0.011": 0.0,
			"-0.01": 0.0,
			"-0.009": 0.0,
			"-0.008": 0.189331293794,
			"-0.007": 4.32549177033,
			"-0.006": 15.1622322322,
			"-0.005": 17.1057766084,
			"-0.004": 21.2215878063,
			"-0.003": 23.9399605493,
			"-0.002": 23.275060393,
			"-0.001": 23.0758737102,
			"0.0": 21.5723874691,
			"0.001": 19.9829256997,
			"0.002": 19.9561085382,
			"0.003": 11.866870383,
			"0.004": 5.35983988725,
			"0.005": 5.38078356146,
			"0.006": 3.17058956402,
			"0.007": 3.27529452221,
			"0.008": 2.857256079,
			"0.009": 3.07592799099,
			"0.01": 4.24545232068,
			"0.011": 6.44001982194,
			"0.012": 6.18522576113,
			"0.013": 0.878664511559,
			"0.014": 0.0132520721927,
			"0.015": 0.0,
			"0.016": 0.0,
			"0.017": 0.0,
			"0.018": 0.0,
			"0.019": 0.0,
			"0.02": 0.0,
			"0.021": 0.0,
			"0.022": 0.0,
			"0.023": 0.0,
			"0.024": 0.0,
			"0.025": 0.0
		}
	}
}
