{
	 "smiles": "OC(=O)C1=C(Cl)C=C(OC2CCC2)C=C1", 
	 "Tm": 401.15, 
	 "num_atms": 26, 
	 "gaussian": { 
		 "optdone": 1, 
		 "sigma_profile": "yes", 
		 "theory": "DFT", 
		 "functional": "B3LYP", 
		 "basiset": "6-31G**", 
		 "properties": { 
			 "R2extent": 5704.227, 
			 "electric_dipole_moment_norm": 6.74297892774, 
			 "electric_quadrupole_moment_norm": 22.0892643173, 
			 "total_energy": -1111.64153874, 
			 "HOMO_LUMO_gap": 0.19613, 
			 "cosmo_polarized_energy": -12.15, 
			 "cosmo_cavitation_energy": 31.19, 
			 "cosmo_dispersion_energy": -23.15, 
			 "cosmo_repulsion_energy": 1.82, 
			 "cosmo_total_nonelectrostatic_energy": 9.85, 
			 "SMD_solvation_energy": 5.97 
		},
		"coords": [
			{
				"x": 2.2946686941,
				"y": -3.7441926233,
				"z": 3.4929131515,
				"element": "O" 
			},
			{
				"x": 2.8455130841,
				"y": -2.5755534792,
				"z": 3.1152463581,
				"element": "C" 
			},
			{
				"x": 3.9864154308,
				"y": -2.3231044092,
				"z": 3.4369010139,
				"element": "O" 
			},
			{
				"x": 2.0383526743,
				"y": -1.5954185456,
				"z": 2.2949630182,
				"element": "C" 
			},
			{
				"x": 0.7168319459,
				"y": -1.6823809583,
				"z": 1.8320280639,
				"element": "C" 
			},
			{
				"x": -0.3299096412,
				"y": -3.0808740275,
				"z": 2.1655254992,
				"element": "Cl" 
			},
			{
				"x": 0.111206548,
				"y": -0.6777499052,
				"z": 1.0771928077,
				"element": "C" 
			},
			{
				"x": 0.838191183,
				"y": 0.4737292679,
				"z": 0.7530958758,
				"element": "C" 
			},
			{
				"x": 0.3503329329,
				"y": 1.5047858725,
				"z": 0.0236245823,
				"element": "O" 
			},
			{
				"x": -0.9598981166,
				"y": 1.4230588953,
				"z": -0.5321219928,
				"element": "C" 
			},
			{
				"x": -1.335791295,
				"y": 2.6505825858,
				"z": -1.3788542938,
				"element": "C" 
			},
			{
				"x": -2.7649697755,
				"y": 2.5641372896,
				"z": -0.7740381907,
				"element": "C" 
			},
			{
				"x": -2.1809601713,
				"y": 1.7045979199,
				"z": 0.3813017158,
				"element": "C" 
			},
			{
				"x": 2.1632459269,
				"y": 0.5977604677,
				"z": 1.2017192279,
				"element": "C" 
			},
			{
				"x": 2.7314631473,
				"y": -0.4145539135,
				"z": 1.9489223578,
				"element": "C" 
			},
			{
				"x": 1.3808380378,
				"y": -3.829578894,
				"z": 3.1763345783,
				"element": "H" 
			},
			{
				"x": -0.9159085515,
				"y": -0.8018805286,
				"z": 0.7631065117,
				"element": "H" 
			},
			{
				"x": -1.0656965435,
				"y": 0.4852075568,
				"z": -1.091935473,
				"element": "H" 
			},
			{
				"x": -1.215095233,
				"y": 2.579072413,
				"z": -2.4624527983,
				"element": "H" 
			},
			{
				"x": -0.7975233734,
				"y": 3.5296963155,
				"z": -1.0133436447,
				"element": "H" 
			},
			{
				"x": -3.2510653143,
				"y": 3.50333012,
				"z": -0.501976449,
				"element": "H" 
			},
			{
				"x": -3.4459162365,
				"y": 1.9894979086,
				"z": -1.4082200349,
				"element": "H" 
			},
			{
				"x": -2.7661240371,
				"y": 0.8559686555,
				"z": 0.7459637336,
				"element": "H" 
			},
			{
				"x": -1.8774995945,
				"y": 2.3232282909,
				"z": 1.2309605632,
				"element": "H" 
			},
			{
				"x": 2.7196676103,
				"y": 1.4930097279,
				"z": 0.9471517248,
				"element": "H" 
			},
			{
				"x": 3.753430668,
				"y": -0.3359760026,
				"z": 2.3014920936,
				"element": "H" 
			}
		],
		 "valence_orbital": [ 
			{
				"type": "occ",
				"energy": -0.32076,
				"method": "rhf"
			},
			{
				"type": "occ",
				"energy": -0.30254,
				"method": "rhf"
			},
			{
				"type": "occ",
				"energy": -0.27011,
				"method": "rhf"
			},
			{
				"type": "occ",
				"energy": -0.26983,
				"method": "rhf"
			},
			{
				"type": "occ",
				"energy": -0.24469,
				"method": "rhf"
			},
			{
				"type": "unocc",
				"energy": -0.04856,
				"method": "rhf"
			},
			{
				"type": "unocc",
				"energy": -0.02677,
				"method": "rhf"
			},
			{
				"type": "unocc",
				"energy": -0.00125,
				"method": "rhf"
			},
			{
				"type": "unocc",
				"energy": 0.05631,
				"method": "rhf"
			},
			{
				"type": "unocc",
				"energy": 0.06902,
				"method": "rhf"
			}
		],
		"cosmo_sigma_profile": { 
			"-0.025": 0.0,
			"-0.024": 0.0,
			"-0.023": 0.0,
			"-0.022": 0.0,
			"-0.021": 0.0,
			"-0.02": 0.0,
			"-0.019": 0.0,
			"-0.018": 0.0,
			"-0.017": 0.0,
			"-0.016": 0.0,
			"-0.015": 0.0,
			"-0.014": 0.0,
			"-0.013": 0.0,
			"-0.012": 0.0457705684115,
			"-0.011": 0.629604799473,
			"-0.01": 0.824981011372,
			"-0.009": 1.35350137331,
			"-0.008": 4.09244426017,
			"-0.007": 6.46779266489,
			"-0.006": 8.5518661939,
			"-0.005": 11.7887310087,
			"-0.004": 19.1726228965,
			"-0.003": 23.2430729353,
			"-0.002": 23.2960065715,
			"-0.001": 24.4275498102,
			"0.0": 27.2880148755,
			"0.001": 30.6301875864,
			"0.002": 19.4153477388,
			"0.003": 9.68248485801,
			"0.004": 4.74563767658,
			"0.005": 3.51529564,
			"0.006": 3.8227916721,
			"0.007": 3.31633378933,
			"0.008": 4.50817567445,
			"0.009": 3.02440220432,
			"0.01": 4.12744529836,
			"0.011": 5.5546619994,
			"0.012": 4.48799691095,
			"0.013": 2.0207085611,
			"0.014": 0.289646622961,
			"0.015": 0.0,
			"0.016": 0.0,
			"0.017": 0.0,
			"0.018": 0.0,
			"0.019": 0.0,
			"0.02": 0.0,
			"0.021": 0.0,
			"0.022": 0.0,
			"0.023": 0.0,
			"0.024": 0.0,
			"0.025": 0.0
		}
	}
}
