{
	 "smiles": "O=C1NCCO1", 
	 "Tm": 360.15, 
	 "num_atms": 11, 
	 "gaussian": { 
		 "optdone": 1, 
		 "sigma_profile": "yes", 
		 "theory": "DFT", 
		 "functional": "B3LYP", 
		 "basiset": "6-31G**", 
		 "properties": { 
			 "R2extent": 704.658, 
			 "electric_dipole_moment_norm": 5.06132356109, 
			 "electric_quadrupole_moment_norm": 12.0364810352, 
			 "total_energy": -322.539843193, 
			 "HOMO_LUMO_gap": 0.31239, 
			 "cosmo_polarized_energy": -13.45, 
			 "cosmo_cavitation_energy": 14.47, 
			 "cosmo_dispersion_energy": -11.45, 
			 "cosmo_repulsion_energy": 1.02, 
			 "cosmo_total_nonelectrostatic_energy": 4.03, 
			 "SMD_solvation_energy": 3.0 
		},
		"coords": [
			{
				"x": 2.5408745734,
				"y": -0.9664299007,
				"z": -0.8393517488,
				"element": "O" 
			},
			{
				"x": 1.7216419049,
				"y": -0.4006571209,
				"z": -0.1601094489,
				"element": "C" 
			},
			{
				"x": 0.4290970706,
				"y": -0.8000727829,
				"z": 0.1292102672,
				"element": "N" 
			},
			{
				"x": -0.3401143017,
				"y": 0.2962584864,
				"z": 0.6922767781,
				"element": "C" 
			},
			{
				"x": 0.8121258037,
				"y": 1.1308604924,
				"z": 1.2830402231,
				"element": "C" 
			},
			{
				"x": 1.9546934646,
				"y": 0.7902846301,
				"z": 0.4831409922,
				"element": "O" 
			},
			{
				"x": 0.0174636023,
				"y": -1.4832333772,
				"z": -0.4889091081,
				"element": "H" 
			},
			{
				"x": -0.8980285049,
				"y": 0.8554185795,
				"z": -0.0726849371,
				"element": "H" 
			},
			{
				"x": -1.0423376601,
				"y": -0.0389443349,
				"z": 1.4611045859,
				"element": "H" 
			},
			{
				"x": 1.0126966392,
				"y": 0.854566722,
				"z": 2.3245951186,
				"element": "H" 
			},
			{
				"x": 0.6475874081,
				"y": 2.2080486064,
				"z": 1.2192872778,
				"element": "H" 
			}
		],
		 "valence_orbital": [ 
			{
				"type": "occ",
				"energy": -0.41016,
				"method": "rhf"
			},
			{
				"type": "occ",
				"energy": -0.36392,
				"method": "rhf"
			},
			{
				"type": "occ",
				"energy": -0.29198,
				"method": "rhf"
			},
			{
				"type": "occ",
				"energy": -0.27573,
				"method": "rhf"
			},
			{
				"type": "occ",
				"energy": -0.26357,
				"method": "rhf"
			},
			{
				"type": "unocc",
				"energy": 0.04882,
				"method": "rhf"
			},
			{
				"type": "unocc",
				"energy": 0.06968,
				"method": "rhf"
			},
			{
				"type": "unocc",
				"energy": 0.09732,
				"method": "rhf"
			},
			{
				"type": "unocc",
				"energy": 0.10947,
				"method": "rhf"
			},
			{
				"type": "unocc",
				"energy": 0.13188,
				"method": "rhf"
			}
		],
		"cosmo_sigma_profile": { 
			"-0.025": 0.0,
			"-0.024": 0.0,
			"-0.023": 0.0,
			"-0.022": 0.0,
			"-0.021": 0.0,
			"-0.02": 0.0,
			"-0.019": 0.0,
			"-0.018": 0.0,
			"-0.017": 0.0,
			"-0.016": 0.0,
			"-0.015": 0.565387121398,
			"-0.014": 1.43649625433,
			"-0.013": 1.07460745001,
			"-0.012": 1.33046016029,
			"-0.011": 1.12006107222,
			"-0.01": 0.405700270843,
			"-0.009": 0.749399726975,
			"-0.008": 1.22986748773,
			"-0.007": 4.98508452747,
			"-0.006": 13.9492181447,
			"-0.005": 16.4612889762,
			"-0.004": 11.4582775342,
			"-0.003": 5.98009746326,
			"-0.002": 3.27011060905,
			"-0.001": 3.1609253121,
			"0.0": 2.52117270988,
			"0.001": 2.58889923257,
			"0.002": 2.55963428042,
			"0.003": 2.68454283552,
			"0.004": 2.93835684583,
			"0.005": 3.0214755501,
			"0.006": 1.90934575243,
			"0.007": 2.8034503847,
			"0.008": 2.65783409696,
			"0.009": 2.8326307039,
			"0.01": 4.6435732518,
			"0.011": 3.46114474056,
			"0.012": 4.16107340385,
			"0.013": 6.75513197815,
			"0.014": 1.54767710949,
			"0.015": 0.0,
			"0.016": 0.0,
			"0.017": 0.0,
			"0.018": 0.0,
			"0.019": 0.0,
			"0.02": 0.0,
			"0.021": 0.0,
			"0.022": 0.0,
			"0.023": 0.0,
			"0.024": 0.0,
			"0.025": 0.0
		}
	}
}
