{
	 "smiles": "COC1=CC(C=CC(O)=O)=CC(OC)=C1OC", 
	 "Tm": 400.15, 
	 "num_atms": 31, 
	 "gaussian": { 
		 "optdone": 1, 
		 "sigma_profile": "yes", 
		 "theory": "DFT", 
		 "functional": "B3LYP", 
		 "basiset": "6-31G**", 
		 "properties": { 
			 "R2extent": 6122.4867, 
			 "electric_dipole_moment_norm": 6.27212448378, 
			 "electric_quadrupole_moment_norm": 20.8144192833, 
			 "total_energy": -841.775962331, 
			 "HOMO_LUMO_gap": 0.16147, 
			 "cosmo_polarized_energy": -18.7, 
			 "cosmo_cavitation_energy": 35.93, 
			 "cosmo_dispersion_energy": -25.01, 
			 "cosmo_repulsion_energy": 1.97, 
			 "cosmo_total_nonelectrostatic_energy": 12.9, 
			 "SMD_solvation_energy": 9.82 
		},
		"coords": [
			{
				"x": -0.0567299684,
				"y": -1.1613058627,
				"z": -3.5533203404,
				"element": "C" 
			},
			{
				"x": 1.0381204916,
				"y": -1.2756147056,
				"z": -2.6348962847,
				"element": "O" 
			},
			{
				"x": 0.9340046266,
				"y": -0.5082737806,
				"z": -1.4990575307,
				"element": "C" 
			},
			{
				"x": 0.7866621459,
				"y": -1.1438120955,
				"z": -0.2679690386,
				"element": "C" 
			},
			{
				"x": 0.7420782497,
				"y": -0.4051590785,
				"z": 0.926683717,
				"element": "C" 
			},
			{
				"x": 0.5966631336,
				"y": -1.1319097566,
				"z": 2.1859459417,
				"element": "C" 
			},
			{
				"x": 0.5529400329,
				"y": -0.6303202619,
				"z": 3.4342817465,
				"element": "C" 
			},
			{
				"x": 0.3997224402,
				"y": -1.5482862215,
				"z": 4.5904493429,
				"element": "C" 
			},
			{
				"x": 0.3791903815,
				"y": -0.9539571135,
				"z": 5.8180818774,
				"element": "O" 
			},
			{
				"x": 0.2951072275,
				"y": -2.7516949738,
				"z": 4.5070991979,
				"element": "O" 
			},
			{
				"x": 0.8235553842,
				"y": 0.9970561795,
				"z": 0.8532912283,
				"element": "C" 
			},
			{
				"x": 0.9784274435,
				"y": 1.6421652497,
				"z": -0.3701192241,
				"element": "C" 
			},
			{
				"x": 1.1411450258,
				"y": 3.0036509773,
				"z": -0.3743495108,
				"element": "O" 
			},
			{
				"x": 0.1219733761,
				"y": 3.7590261596,
				"z": -1.0396556044,
				"element": "C" 
			},
			{
				"x": 1.0461442692,
				"y": 0.8918209196,
				"z": -1.5621698304,
				"element": "C" 
			},
			{
				"x": 1.2095296031,
				"y": 1.5356632496,
				"z": -2.7649427717,
				"element": "O" 
			},
			{
				"x": 2.5364838896,
				"y": 1.4418012837,
				"z": -3.3082495038,
				"element": "C" 
			},
			{
				"x": 0.1756989574,
				"y": -1.8274334634,
				"z": -4.386326233,
				"element": "H" 
			},
			{
				"x": -0.16549351,
				"y": -0.1358505333,
				"z": -3.9185196562,
				"element": "H" 
			},
			{
				"x": -0.9927233229,
				"y": -1.4853542994,
				"z": -3.0816972516,
				"element": "H" 
			},
			{
				"x": 0.7187517304,
				"y": -2.2269534734,
				"z": -0.2534080911,
				"element": "H" 
			},
			{
				"x": 0.5155792928,
				"y": -2.2151160375,
				"z": 2.1090416422,
				"element": "H" 
			},
			{
				"x": 0.6295543446,
				"y": 0.4389766024,
				"z": 3.6207087816,
				"element": "H" 
			},
			{
				"x": 0.4771753135,
				"y": 0.0039611998,
				"z": 5.7287102716,
				"element": "H" 
			},
			{
				"x": 0.7889957967,
				"y": 1.6157597567,
				"z": 1.7431463515,
				"element": "H" 
			},
			{
				"x": 0.4009624306,
				"y": 4.8081022356,
				"z": -0.9233732687,
				"element": "H" 
			},
			{
				"x": 0.0666729734,
				"y": 3.5069062042,
				"z": -2.1018008304,
				"element": "H" 
			},
			{
				"x": -0.8550120331,
				"y": 3.5917343948,
				"z": -0.5683625218,
				"element": "H" 
			},
			{
				"x": 2.5168110525,
				"y": 1.9847197215,
				"z": -4.2550482954,
				"element": "H" 
			},
			{
				"x": 3.2619021272,
				"y": 1.9096480122,
				"z": -2.6333599856,
				"element": "H" 
			},
			{
				"x": 2.8114070943,
				"y": 0.3975495111,
				"z": -3.4854143254,
				"element": "H" 
			}
		],
		 "valence_orbital": [ 
			{
				"type": "occ",
				"energy": -0.27971,
				"method": "rhf"
			},
			{
				"type": "occ",
				"energy": -0.27251,
				"method": "rhf"
			},
			{
				"type": "occ",
				"energy": -0.26528,
				"method": "rhf"
			},
			{
				"type": "occ",
				"energy": -0.24281,
				"method": "rhf"
			},
			{
				"type": "occ",
				"energy": -0.23006,
				"method": "rhf"
			},
			{
				"type": "unocc",
				"energy": -0.06859,
				"method": "rhf"
			},
			{
				"type": "unocc",
				"energy": -0.00715,
				"method": "rhf"
			},
			{
				"type": "unocc",
				"energy": 0.01927,
				"method": "rhf"
			},
			{
				"type": "unocc",
				"energy": 0.06116,
				"method": "rhf"
			},
			{
				"type": "unocc",
				"energy": 0.06574,
				"method": "rhf"
			}
		],
		"cosmo_sigma_profile": { 
			"-0.025": 0.0,
			"-0.024": 0.0,
			"-0.023": 0.0,
			"-0.022": 0.0,
			"-0.021": 0.0,
			"-0.02": 0.0237215320473,
			"-0.019": 0.718274530839,
			"-0.018": 1.10729273378,
			"-0.017": 0.947758957947,
			"-0.016": 1.23130954914,
			"-0.015": 1.56350867868,
			"-0.014": 0.41981224604,
			"-0.013": 0.823569779897,
			"-0.012": 1.04256110083,
			"-0.011": 1.41196307918,
			"-0.01": 1.47859585052,
			"-0.009": 2.4780222302,
			"-0.008": 2.9165304323,
			"-0.007": 5.17720811911,
			"-0.006": 8.74438124111,
			"-0.005": 16.0720165213,
			"-0.004": 21.6147793885,
			"-0.003": 31.8157620537,
			"-0.002": 26.7400571494,
			"-0.001": 20.7551396533,
			"0.0": 17.6292711249,
			"0.001": 19.2043785682,
			"0.002": 21.3307894129,
			"0.003": 18.7125627732,
			"0.004": 9.47437837102,
			"0.005": 6.34382499146,
			"0.006": 6.10897287023,
			"0.007": 5.29859860406,
			"0.008": 4.34753315115,
			"0.009": 5.65522383459,
			"0.01": 5.98253208837,
			"0.011": 7.36843522138,
			"0.012": 6.70133573193,
			"0.013": 3.24885835329,
			"0.014": 0.760802509385,
			"0.015": 0.0,
			"0.016": 0.0,
			"0.017": 0.0,
			"0.018": 0.0,
			"0.019": 0.0,
			"0.02": 0.0,
			"0.021": 0.0,
			"0.022": 0.0,
			"0.023": 0.0,
			"0.024": 0.0,
			"0.025": 0.0
		}
	}
}
