{
	 "smiles": "CC(=O)C1C(CC2=CC=CC=C2C1=O)C1=CC=CC=C1", 
	 "Tm": 340.15, 
	 "num_atms": 36, 
	 "gaussian": { 
		 "optdone": 1, 
		 "sigma_profile": "yes", 
		 "theory": "DFT", 
		 "functional": "B3LYP", 
		 "basiset": "6-31G**", 
		 "properties": { 
			 "R2extent": 6169.2777, 
			 "electric_dipole_moment_norm": 5.00764623052, 
			 "electric_quadrupole_moment_norm": 14.8499826044, 
			 "total_energy": -846.018148509, 
			 "HOMO_LUMO_gap": 0.17373, 
			 "cosmo_polarized_energy": -14.4, 
			 "cosmo_cavitation_energy": 38.7, 
			 "cosmo_dispersion_energy": -26.59, 
			 "cosmo_repulsion_energy": 2.01, 
			 "cosmo_total_nonelectrostatic_energy": 14.12, 
			 "SMD_solvation_energy": 7.18 
		},
		"coords": [
			{
				"x": -1.8994481398,
				"y": 1.1865825366,
				"z": 1.5750081368,
				"element": "C" 
			},
			{
				"x": -2.3672725618,
				"y": 0.1396323901,
				"z": 0.5857693831,
				"element": "C" 
			},
			{
				"x": -3.5401683596,
				"y": -0.0080959764,
				"z": 0.3052374773,
				"element": "O" 
			},
			{
				"x": -1.3029547737,
				"y": -0.7425218454,
				"z": -0.088675052,
				"element": "C" 
			},
			{
				"x": -0.2150644461,
				"y": 0.0275043237,
				"z": -0.8824425333,
				"element": "C" 
			},
			{
				"x": 0.6539764992,
				"y": -1.0064488791,
				"z": -1.6317371043,
				"element": "C" 
			},
			{
				"x": 1.2312918618,
				"y": -2.0615435222,
				"z": -0.7145187503,
				"element": "C" 
			},
			{
				"x": 2.4080924409,
				"y": -2.7398439669,
				"z": -1.0547832314,
				"element": "C" 
			},
			{
				"x": 2.9399853284,
				"y": -3.7153480035,
				"z": -0.2133578619,
				"element": "C" 
			},
			{
				"x": 2.3079532399,
				"y": -4.0271715301,
				"z": 0.9962477278,
				"element": "C" 
			},
			{
				"x": 1.144975492,
				"y": -3.3569082063,
				"z": 1.3524149653,
				"element": "C" 
			},
			{
				"x": 0.5990107928,
				"y": -2.3801930616,
				"z": 0.5032634378,
				"element": "C" 
			},
			{
				"x": -0.6538359924,
				"y": -1.6926295913,
				"z": 0.9245552165,
				"element": "C" 
			},
			{
				"x": -1.1627349015,
				"y": -1.8897645644,
				"z": 2.0191174068,
				"element": "O" 
			},
			{
				"x": -0.7468139046,
				"y": 1.0891051667,
				"z": -1.8339641779,
				"element": "C" 
			},
			{
				"x": -0.0272095177,
				"y": 2.2814212443,
				"z": -2.0012445212,
				"element": "C" 
			},
			{
				"x": -0.4486591139,
				"y": 3.256536184,
				"z": -2.9055720165,
				"element": "C" 
			},
			{
				"x": -1.6052613761,
				"y": 3.0547442629,
				"z": -3.6603315361,
				"element": "C" 
			},
			{
				"x": -2.3336414682,
				"y": 1.87506267,
				"z": -3.5003903723,
				"element": "C" 
			},
			{
				"x": -1.9087361897,
				"y": 0.9003924105,
				"z": -2.596079717,
				"element": "C" 
			},
			{
				"x": -2.7679027369,
				"y": 1.6951485185,
				"z": 1.9954018774,
				"element": "H" 
			},
			{
				"x": -1.2571602926,
				"y": 1.9216371951,
				"z": 1.0763933965,
				"element": "H" 
			},
			{
				"x": -1.319895716,
				"y": 0.7171915636,
				"z": 2.3753628286,
				"element": "H" 
			},
			{
				"x": -1.8598951063,
				"y": -1.3860330624,
				"z": -0.7845694618,
				"element": "H" 
			},
			{
				"x": 0.4366256738,
				"y": 0.5322843088,
				"z": -0.1563346838,
				"element": "H" 
			},
			{
				"x": 1.4617638531,
				"y": -0.4939462272,
				"z": -2.1655506032,
				"element": "H" 
			},
			{
				"x": 0.0347872033,
				"y": -1.4840608137,
				"z": -2.4052392771,
				"element": "H" 
			},
			{
				"x": 2.9124406599,
				"y": -2.4958868802,
				"z": -1.986424779,
				"element": "H" 
			},
			{
				"x": 3.8538638986,
				"y": -4.2299640682,
				"z": -0.4968969407,
				"element": "H" 
			},
			{
				"x": 2.7259096475,
				"y": -4.7852873962,
				"z": 1.6516639541,
				"element": "H" 
			},
			{
				"x": 0.6293525029,
				"y": -3.5677423191,
				"z": 2.2835921527,
				"element": "H" 
			},
			{
				"x": 0.8745535055,
				"y": 2.4458168098,
				"z": -1.4152437714,
				"element": "H" 
			},
			{
				"x": 0.1229947755,
				"y": 4.1737028507,
				"z": -3.0159901578,
				"element": "H" 
			},
			{
				"x": -1.9400918314,
				"y": 3.8132821771,
				"z": -4.3618644059,
				"element": "H" 
			},
			{
				"x": -3.2407899704,
				"y": 1.7129853033,
				"z": -4.0753782032,
				"element": "H" 
			},
			{
				"x": -2.5027409762,
				"y": 0.0003599985,
				"z": -2.4725388027,
				"element": "H" 
			}
		],
		 "valence_orbital": [ 
			{
				"type": "occ",
				"energy": -0.26148,
				"method": "rhf"
			},
			{
				"type": "occ",
				"energy": -0.25828,
				"method": "rhf"
			},
			{
				"type": "occ",
				"energy": -0.25399,
				"method": "rhf"
			},
			{
				"type": "occ",
				"energy": -0.24763,
				"method": "rhf"
			},
			{
				"type": "occ",
				"energy": -0.23705,
				"method": "rhf"
			},
			{
				"type": "unocc",
				"energy": -0.06332,
				"method": "rhf"
			},
			{
				"type": "unocc",
				"energy": -0.01704,
				"method": "rhf"
			},
			{
				"type": "unocc",
				"energy": -0.01555,
				"method": "rhf"
			},
			{
				"type": "unocc",
				"energy": -0.00605,
				"method": "rhf"
			},
			{
				"type": "unocc",
				"energy": -0.00085,
				"method": "rhf"
			}
		],
		"cosmo_sigma_profile": { 
			"-0.025": 0.0,
			"-0.024": 0.0,
			"-0.023": 0.0,
			"-0.022": 0.0,
			"-0.021": 0.0,
			"-0.02": 0.0,
			"-0.019": 0.0,
			"-0.018": 0.0,
			"-0.017": 0.0,
			"-0.016": 0.0,
			"-0.015": 0.0,
			"-0.014": 0.0,
			"-0.013": 0.0,
			"-0.012": 0.0,
			"-0.011": 0.0,
			"-0.01": 0.0,
			"-0.009": 0.0,
			"-0.008": 0.416541400917,
			"-0.007": 6.13696197056,
			"-0.006": 17.4355578702,
			"-0.005": 32.3020626137,
			"-0.004": 33.2158745717,
			"-0.003": 27.0987015867,
			"-0.002": 24.9193720865,
			"-0.001": 21.5643485065,
			"0.0": 17.3275899461,
			"0.001": 17.4242595737,
			"0.002": 18.0039946015,
			"0.003": 20.5605818475,
			"0.004": 20.9319734844,
			"0.005": 12.6709629968,
			"0.006": 9.97431496215,
			"0.007": 2.88840501521,
			"0.008": 3.45220457947,
			"0.009": 3.50918450547,
			"0.01": 4.60006360137,
			"0.011": 6.66454941239,
			"0.012": 5.11713485732,
			"0.013": 1.22712513487,
			"0.014": 0.0,
			"0.015": 0.0,
			"0.016": 0.0,
			"0.017": 0.0,
			"0.018": 0.0,
			"0.019": 0.0,
			"0.02": 0.0,
			"0.021": 0.0,
			"0.022": 0.0,
			"0.023": 0.0,
			"0.024": 0.0,
			"0.025": 0.0
		}
	}
}
