{
	 "smiles": "NC1=NN(CCC2=CC=NC=C2)C=C1", 
	 "Tm": 414.15, 
	 "num_atms": 26, 
	 "gaussian": { 
		 "optdone": 1, 
		 "sigma_profile": "yes", 
		 "theory": "DFT", 
		 "functional": "B3LYP", 
		 "basiset": "6-31G**", 
		 "properties": { 
			 "R2extent": 3408.881, 
			 "electric_dipole_moment_norm": 1.21330986149, 
			 "electric_quadrupole_moment_norm": 22.0563439151, 
			 "total_energy": -607.280122233, 
			 "HOMO_LUMO_gap": 0.18104, 
			 "cosmo_polarized_energy": -14.88, 
			 "cosmo_cavitation_energy": 29.86, 
			 "cosmo_dispersion_energy": -20.99, 
			 "cosmo_repulsion_energy": 1.68, 
			 "cosmo_total_nonelectrostatic_energy": 10.55, 
			 "SMD_solvation_energy": 3.03 
		},
		"coords": [
			{
				"x": 0.2773429012,
				"y": 1.3863929603,
				"z": -3.0497566056,
				"element": "N" 
			},
			{
				"x": -0.2877679461,
				"y": 0.806183572,
				"z": -1.9138551068,
				"element": "C" 
			},
			{
				"x": -0.2925396541,
				"y": -0.5197180981,
				"z": -1.7573286102,
				"element": "N" 
			},
			{
				"x": -0.9920836399,
				"y": -0.7280926908,
				"z": -0.6045913198,
				"element": "N" 
			},
			{
				"x": -1.1929760154,
				"y": -2.0842009593,
				"z": -0.1318605152,
				"element": "C" 
			},
			{
				"x": 0.1273849813,
				"y": -2.8146586694,
				"z": 0.195780132,
				"element": "C" 
			},
			{
				"x": 0.8793937974,
				"y": -2.214917044,
				"z": 1.3600134114,
				"element": "C" 
			},
			{
				"x": 1.6699981448,
				"y": -1.0689918719,
				"z": 1.2058303348,
				"element": "C" 
			},
			{
				"x": 2.3212260812,
				"y": -0.5374209058,
				"z": 2.3185947492,
				"element": "C" 
			},
			{
				"x": 2.2442981535,
				"y": -1.0565176801,
				"z": 3.5514160056,
				"element": "N" 
			},
			{
				"x": 1.4885495222,
				"y": -2.1522518111,
				"z": 3.6941270452,
				"element": "C" 
			},
			{
				"x": 0.7956495155,
				"y": -2.7596982171,
				"z": 2.6464982252,
				"element": "C" 
			},
			{
				"x": -1.398296938,
				"y": 0.4354482267,
				"z": -0.0393860472,
				"element": "C" 
			},
			{
				"x": -0.9681843717,
				"y": 1.4632672748,
				"z": -0.8556351238,
				"element": "C" 
			},
			{
				"x": 0.7562236339,
				"y": 2.2584355435,
				"z": -2.8653862529,
				"element": "H" 
			},
			{
				"x": 0.8766921099,
				"y": 0.7384772122,
				"z": -3.5465501184,
				"element": "H" 
			},
			{
				"x": -1.7288891239,
				"y": -2.6472760168,
				"z": -0.9040494734,
				"element": "H" 
			},
			{
				"x": -1.8325431111,
				"y": -2.0283182911,
				"z": 0.7536674737,
				"element": "H" 
			},
			{
				"x": -0.1169054365,
				"y": -3.8616695372,
				"z": 0.4078654047,
				"element": "H" 
			},
			{
				"x": 0.7458352252,
				"y": -2.7968569865,
				"z": -0.7067169993,
				"element": "H" 
			},
			{
				"x": 1.7730494315,
				"y": -0.6010065393,
				"z": 0.2315423688,
				"element": "H" 
			},
			{
				"x": 2.9395082836,
				"y": 0.3528087657,
				"z": 2.2130036039,
				"element": "H" 
			},
			{
				"x": 1.4351803842,
				"y": -2.57061307,
				"z": 4.6982843087,
				"element": "H" 
			},
			{
				"x": 0.2039278869,
				"y": -3.6524478333,
				"z": 2.8329430871,
				"element": "H" 
			},
			{
				"x": -1.9581185413,
				"y": 0.4480109912,
				"z": 0.8849558889,
				"element": "H" 
			},
			{
				"x": -1.1328552742,
				"y": 2.5219316753,
				"z": -0.7231058667,
				"element": "H" 
			}
		],
		 "valence_orbital": [ 
			{
				"type": "occ",
				"energy": -0.27305,
				"method": "rhf"
			},
			{
				"type": "occ",
				"energy": -0.25765,
				"method": "rhf"
			},
			{
				"type": "occ",
				"energy": -0.24933,
				"method": "rhf"
			},
			{
				"type": "occ",
				"energy": -0.23764,
				"method": "rhf"
			},
			{
				"type": "occ",
				"energy": -0.20156,
				"method": "rhf"
			},
			{
				"type": "unocc",
				"energy": -0.02052,
				"method": "rhf"
			},
			{
				"type": "unocc",
				"energy": -0.00713,
				"method": "rhf"
			},
			{
				"type": "unocc",
				"energy": 0.02682,
				"method": "rhf"
			},
			{
				"type": "unocc",
				"energy": 0.078,
				"method": "rhf"
			},
			{
				"type": "unocc",
				"energy": 0.09455,
				"method": "rhf"
			}
		],
		"cosmo_sigma_profile": { 
			"-0.025": 0.0,
			"-0.024": 0.0,
			"-0.023": 0.0,
			"-0.022": 0.0,
			"-0.021": 0.0,
			"-0.02": 0.0,
			"-0.019": 0.0,
			"-0.018": 0.0,
			"-0.017": 0.0,
			"-0.016": 0.0,
			"-0.015": 0.0,
			"-0.014": 0.0,
			"-0.013": 0.123055675282,
			"-0.012": 1.5188287397,
			"-0.011": 2.40526131358,
			"-0.01": 2.02401736551,
			"-0.009": 3.11085824511,
			"-0.008": 5.91493368444,
			"-0.007": 5.50670897908,
			"-0.006": 15.6578751822,
			"-0.005": 20.8591057669,
			"-0.004": 19.9615569468,
			"-0.003": 17.4171745698,
			"-0.002": 15.7491605082,
			"-0.001": 12.5204488281,
			"0.0": 11.7765933549,
			"0.001": 11.8551948182,
			"0.002": 15.5588209435,
			"0.003": 19.3379118879,
			"0.004": 9.16528851722,
			"0.005": 8.51237223693,
			"0.006": 7.37300167314,
			"0.007": 5.55053772579,
			"0.008": 4.36497637627,
			"0.009": 3.22729593976,
			"0.01": 3.11816416334,
			"0.011": 2.54033327441,
			"0.012": 2.55703438048,
			"0.013": 2.4166653681,
			"0.014": 2.36100843533,
			"0.015": 2.30161023967,
			"0.016": 1.62491961977,
			"0.017": 0.625640118504,
			"0.018": 0.0614215561646,
			"0.019": 0.0,
			"0.02": 0.0,
			"0.021": 0.0,
			"0.022": 0.0,
			"0.023": 0.0,
			"0.024": 0.0,
			"0.025": 0.0
		}
	}
}
