{
	 "smiles": "NC1=CC=CC=C1C(=O)OCC1=CC=CC=C1", 
	 "Tm": 350.15, 
	 "num_atms": 30, 
	 "gaussian": { 
		 "optdone": 1, 
		 "sigma_profile": "yes", 
		 "theory": "DFT", 
		 "functional": "B3LYP", 
		 "basiset": "6-31G**", 
		 "properties": { 
			 "R2extent": 5539.4807, 
			 "electric_dipole_moment_norm": 3.57250770888, 
			 "electric_quadrupole_moment_norm": 10.0829209081, 
			 "total_energy": -746.54580061, 
			 "HOMO_LUMO_gap": 0.16947, 
			 "cosmo_polarized_energy": -11.86, 
			 "cosmo_cavitation_energy": 34.39, 
			 "cosmo_dispersion_energy": -24.59, 
			 "cosmo_repulsion_energy": 1.9, 
			 "cosmo_total_nonelectrostatic_energy": 11.7, 
			 "SMD_solvation_energy": 6.36 
		},
		"coords": [
			{
				"x": 0.4093212334,
				"y": 1.0028745511,
				"z": -1.4718152501,
				"element": "N" 
			},
			{
				"x": -0.1556252241,
				"y": 1.7664043627,
				"z": -0.4780596347,
				"element": "C" 
			},
			{
				"x": -0.2480812748,
				"y": 3.1648055549,
				"z": -0.6738643259,
				"element": "C" 
			},
			{
				"x": -0.7574179794,
				"y": 4.003892618,
				"z": 0.3023332029,
				"element": "C" 
			},
			{
				"x": -1.2011595951,
				"y": 3.4874405975,
				"z": 1.5282519403,
				"element": "C" 
			},
			{
				"x": -1.123065149,
				"y": 2.1215164421,
				"z": 1.7390375164,
				"element": "C" 
			},
			{
				"x": -0.6145732265,
				"y": 1.2395330187,
				"z": 0.7641620041,
				"element": "C" 
			},
			{
				"x": -0.6216116563,
				"y": -0.1915810228,
				"z": 1.1499170513,
				"element": "C" 
			},
			{
				"x": -0.9795617485,
				"y": -0.6179527512,
				"z": 2.2324630738,
				"element": "O" 
			},
			{
				"x": -0.1912915571,
				"y": -1.0350123357,
				"z": 0.1632917042,
				"element": "O" 
			},
			{
				"x": -0.1696047309,
				"y": -2.4419486426,
				"z": 0.5058674173,
				"element": "C" 
			},
			{
				"x": 0.4886978675,
				"y": -3.1906070416,
				"z": -0.6231881366,
				"element": "C" 
			},
			{
				"x": 1.7985896748,
				"y": -2.8764811194,
				"z": -1.0146414182,
				"element": "C" 
			},
			{
				"x": 2.4161765062,
				"y": -3.5800128144,
				"z": -2.0472366503,
				"element": "C" 
			},
			{
				"x": 1.7355857684,
				"y": -4.6138521603,
				"z": -2.6969506998,
				"element": "C" 
			},
			{
				"x": 0.4339080813,
				"y": -4.9348514417,
				"z": -2.3120535591,
				"element": "C" 
			},
			{
				"x": -0.1867201426,
				"y": -4.2222060062,
				"z": -1.2833350572,
				"element": "C" 
			},
			{
				"x": 0.4722618654,
				"y": 1.4179954268,
				"z": -2.3878650601,
				"element": "H" 
			},
			{
				"x": 0.2837300736,
				"y": 0.0034699755,
				"z": -1.4297547828,
				"element": "H" 
			},
			{
				"x": 0.1004808609,
				"y": 3.577692719,
				"z": -1.6175141654,
				"element": "H" 
			},
			{
				"x": -0.8103700611,
				"y": 5.0720032956,
				"z": 0.1087223516,
				"element": "H" 
			},
			{
				"x": -1.599512322,
				"y": 4.1431253665,
				"z": 2.2953053825,
				"element": "H" 
			},
			{
				"x": -1.4590333376,
				"y": 1.6801189996,
				"z": 2.6710346742,
				"element": "H" 
			},
			{
				"x": 0.3742880355,
				"y": -2.555348874,
				"z": 1.4488787588,
				"element": "H" 
			},
			{
				"x": -1.1941339752,
				"y": -2.7855774269,
				"z": 0.6757515045,
				"element": "H" 
			},
			{
				"x": 2.3284370708,
				"y": -2.0728744797,
				"z": -0.5103231651,
				"element": "H" 
			},
			{
				"x": 3.4304096215,
				"y": -3.3265068826,
				"z": -2.342439645,
				"element": "H" 
			},
			{
				"x": 2.218957534,
				"y": -5.1648371417,
				"z": -3.498585529,
				"element": "H" 
			},
			{
				"x": -0.1020183117,
				"y": -5.735102535,
				"z": -2.8142771335,
				"element": "H" 
			},
			{
				"x": -1.2039639013,
				"y": -4.4698202522,
				"z": -0.9906123693,
				"element": "H" 
			}
		],
		 "valence_orbital": [ 
			{
				"type": "occ",
				"energy": -0.27321,
				"method": "rhf"
			},
			{
				"type": "occ",
				"energy": -0.25797,
				"method": "rhf"
			},
			{
				"type": "occ",
				"energy": -0.25131,
				"method": "rhf"
			},
			{
				"type": "occ",
				"energy": -0.24905,
				"method": "rhf"
			},
			{
				"type": "occ",
				"energy": -0.20284,
				"method": "rhf"
			},
			{
				"type": "unocc",
				"energy": -0.03337,
				"method": "rhf"
			},
			{
				"type": "unocc",
				"energy": -0.01512,
				"method": "rhf"
			},
			{
				"type": "unocc",
				"energy": -0.00839,
				"method": "rhf"
			},
			{
				"type": "unocc",
				"energy": 0.01558,
				"method": "rhf"
			},
			{
				"type": "unocc",
				"energy": 0.06534,
				"method": "rhf"
			}
		],
		"cosmo_sigma_profile": { 
			"-0.025": 0.0,
			"-0.024": 0.0,
			"-0.023": 0.0,
			"-0.022": 0.0,
			"-0.021": 0.0,
			"-0.02": 0.0,
			"-0.019": 0.0,
			"-0.018": 0.0,
			"-0.017": 0.0,
			"-0.016": 0.0,
			"-0.015": 0.0,
			"-0.014": 0.0756640592629,
			"-0.013": 0.970629041659,
			"-0.012": 1.51853325505,
			"-0.011": 1.52275400647,
			"-0.01": 1.1757979964,
			"-0.009": 1.6761056507,
			"-0.008": 2.73144992373,
			"-0.007": 2.62630407883,
			"-0.006": 14.955601896,
			"-0.005": 23.470826811,
			"-0.004": 23.9096332068,
			"-0.003": 21.3407516763,
			"-0.002": 19.1349675213,
			"-0.001": 17.4701585407,
			"0.0": 17.1100212963,
			"0.001": 17.8651479933,
			"0.002": 19.6463184246,
			"0.003": 18.3942291043,
			"0.004": 20.6873323959,
			"0.005": 20.9638482433,
			"0.006": 10.2391549489,
			"0.007": 2.11822637705,
			"0.008": 2.03861831921,
			"0.009": 2.30251109447,
			"0.01": 2.23744174248,
			"0.011": 3.02144308748,
			"0.012": 4.44525041093,
			"0.013": 1.06412983963,
			"0.014": 0.0,
			"0.015": 0.0,
			"0.016": 0.0,
			"0.017": 0.0,
			"0.018": 0.0,
			"0.019": 0.0,
			"0.02": 0.0,
			"0.021": 0.0,
			"0.022": 0.0,
			"0.023": 0.0,
			"0.024": 0.0,
			"0.025": 0.0
		}
	}
}
