{
	 "smiles": "O=C(CCCC(=O)C1=CC=CC=C1)C1=CC=CC=C1", 
	 "Tm": 338.65, 
	 "num_atms": 35, 
	 "gaussian": { 
		 "optdone": 1, 
		 "sigma_profile": "yes", 
		 "theory": "DFT", 
		 "functional": "B3LYP", 
		 "basiset": "6-31G**", 
		 "properties": { 
			 "R2extent": 8482.5034, 
			 "electric_dipole_moment_norm": 2.71349462686, 
			 "electric_quadrupole_moment_norm": 22.649051881, 
			 "total_energy": -807.909870083, 
			 "HOMO_LUMO_gap": 0.18656, 
			 "cosmo_polarized_energy": -13.08, 
			 "cosmo_cavitation_energy": 38.96, 
			 "cosmo_dispersion_energy": -27.49, 
			 "cosmo_repulsion_energy": 2.1, 
			 "cosmo_total_nonelectrostatic_energy": 13.57, 
			 "SMD_solvation_energy": 7.03 
		},
		"coords": [
			{
				"x": 1.959554567,
				"y": -2.6530676285,
				"z": -1.6496825944,
				"element": "O" 
			},
			{
				"x": 2.2097640543,
				"y": -1.7432651901,
				"z": -0.8703348877,
				"element": "C" 
			},
			{
				"x": 1.2568161669,
				"y": -0.5604016422,
				"z": -0.7165345049,
				"element": "C" 
			},
			{
				"x": -0.0190832854,
				"y": -0.701846066,
				"z": -1.5535817259,
				"element": "C" 
			},
			{
				"x": -1.0383585171,
				"y": -1.7098737796,
				"z": -0.9643548302,
				"element": "C" 
			},
			{
				"x": -1.6320022206,
				"y": -1.2054837098,
				"z": 0.3417784207,
				"element": "C" 
			},
			{
				"x": -1.0478709539,
				"y": -1.4184438179,
				"z": 1.3986531723,
				"element": "O" 
			},
			{
				"x": -2.8999852254,
				"y": -0.4001209053,
				"z": 0.3353477059,
				"element": "C" 
			},
			{
				"x": -3.5844911096,
				"y": -0.0473419309,
				"z": -0.8383747604,
				"element": "C" 
			},
			{
				"x": -4.7513348333,
				"y": 0.7151025543,
				"z": -0.7740204013,
				"element": "C" 
			},
			{
				"x": -5.2501058561,
				"y": 1.1277510957,
				"z": 0.462479336,
				"element": "C" 
			},
			{
				"x": -4.5763077494,
				"y": 0.7807148131,
				"z": 1.6379954303,
				"element": "C" 
			},
			{
				"x": -3.4095379217,
				"y": 0.0263857741,
				"z": 1.5735362232,
				"element": "C" 
			},
			{
				"x": 3.4731481798,
				"y": -1.7629034455,
				"z": -0.0617910868,
				"element": "C" 
			},
			{
				"x": 4.3535896117,
				"y": -2.8419761345,
				"z": -0.2417208861,
				"element": "C" 
			},
			{
				"x": 5.5427700411,
				"y": -2.9112992403,
				"z": 0.4771434043,
				"element": "C" 
			},
			{
				"x": 5.8688104875,
				"y": -1.9011675359,
				"z": 1.3874579741,
				"element": "C" 
			},
			{
				"x": 5.0005656116,
				"y": -0.8240662543,
				"z": 1.574887863,
				"element": "C" 
			},
			{
				"x": 3.8081885763,
				"y": -0.7541749663,
				"z": 0.8545757161,
				"element": "C" 
			},
			{
				"x": 1.80318787,
				"y": 0.3470329547,
				"z": -1.0082047489,
				"element": "H" 
			},
			{
				"x": 1.012503573,
				"y": -0.4401094371,
				"z": 0.3454696263,
				"element": "H" 
			},
			{
				"x": -0.4928011333,
				"y": 0.2813070534,
				"z": -1.657594545,
				"element": "H" 
			},
			{
				"x": 0.2520128751,
				"y": -1.0421609906,
				"z": -2.5570836978,
				"element": "H" 
			},
			{
				"x": -1.816347268,
				"y": -1.9153512259,
				"z": -1.7046608232,
				"element": "H" 
			},
			{
				"x": -0.5251361087,
				"y": -2.6503862435,
				"z": -0.7522140221,
				"element": "H" 
			},
			{
				"x": -3.2112949446,
				"y": -0.359217181,
				"z": -1.8079768073,
				"element": "H" 
			},
			{
				"x": -5.2713589691,
				"y": 0.9844751343,
				"z": -1.6886747018,
				"element": "H" 
			},
			{
				"x": -6.1611594249,
				"y": 1.7175387605,
				"z": 0.5111179117,
				"element": "H" 
			},
			{
				"x": -4.9632681934,
				"y": 1.1008646658,
				"z": 2.6011438189,
				"element": "H" 
			},
			{
				"x": -2.866258986,
				"y": -0.2522836226,
				"z": 2.4702061755,
				"element": "H" 
			},
			{
				"x": 4.0777496003,
				"y": -3.6128980629,
				"z": -0.9533598334,
				"element": "H" 
			},
			{
				"x": 6.2169549255,
				"y": -3.7503788733,
				"z": 0.331371872,
				"element": "H" 
			},
			{
				"x": 6.7967157574,
				"y": -1.9544882087,
				"z": 1.9499654872,
				"element": "H" 
			},
			{
				"x": 5.2505703417,
				"y": -0.0396372352,
				"z": 2.2831775243,
				"element": "H" 
			},
			{
				"x": 3.1414004615,
				"y": 0.0865705218,
				"z": 1.0139571955,
				"element": "H" 
			}
		],
		 "valence_orbital": [ 
			{
				"type": "occ",
				"energy": -0.25833,
				"method": "rhf"
			},
			{
				"type": "occ",
				"energy": -0.25751,
				"method": "rhf"
			},
			{
				"type": "occ",
				"energy": -0.2551,
				"method": "rhf"
			},
			{
				"type": "occ",
				"energy": -0.2469,
				"method": "rhf"
			},
			{
				"type": "occ",
				"energy": -0.24271,
				"method": "rhf"
			},
			{
				"type": "unocc",
				"energy": -0.05615,
				"method": "rhf"
			},
			{
				"type": "unocc",
				"energy": -0.05237,
				"method": "rhf"
			},
			{
				"type": "unocc",
				"energy": -0.0099,
				"method": "rhf"
			},
			{
				"type": "unocc",
				"energy": -0.0064,
				"method": "rhf"
			},
			{
				"type": "unocc",
				"energy": 0.03929,
				"method": "rhf"
			}
		],
		"cosmo_sigma_profile": { 
			"-0.025": 0.0,
			"-0.024": 0.0,
			"-0.023": 0.0,
			"-0.022": 0.0,
			"-0.021": 0.0,
			"-0.02": 0.0,
			"-0.019": 0.0,
			"-0.018": 0.0,
			"-0.017": 0.0,
			"-0.016": 0.0,
			"-0.015": 0.0,
			"-0.014": 0.0,
			"-0.013": 0.0,
			"-0.012": 0.0,
			"-0.011": 0.0,
			"-0.01": 0.0,
			"-0.009": 0.0,
			"-0.008": 0.371155054777,
			"-0.007": 4.33688783832,
			"-0.006": 21.8242357666,
			"-0.005": 25.5179242641,
			"-0.004": 29.4308692929,
			"-0.003": 29.6891527474,
			"-0.002": 27.434061857,
			"-0.001": 21.2696584202,
			"0.0": 19.4746804472,
			"0.001": 18.8878539027,
			"0.002": 22.1317972731,
			"0.003": 24.0951388297,
			"0.004": 27.5267990275,
			"0.005": 9.08210139778,
			"0.006": 4.31906500234,
			"0.007": 2.96698223237,
			"0.008": 2.55383238918,
			"0.009": 3.30179417925,
			"0.01": 3.88164807263,
			"0.011": 4.50728759154,
			"0.012": 6.65807474268,
			"0.013": 1.42319708571,
			"0.014": 0.0131865769103,
			"0.015": 0.0,
			"0.016": 0.0,
			"0.017": 0.0,
			"0.018": 0.0,
			"0.019": 0.0,
			"0.02": 0.0,
			"0.021": 0.0,
			"0.022": 0.0,
			"0.023": 0.0,
			"0.024": 0.0,
			"0.025": 0.0
		}
	}
}
