{
	 "smiles": "OC(=O)C1=CC2=CC=CC=C2N=C1Cl", 
	 "Tm": 477.15, 
	 "num_atms": 20, 
	 "gaussian": { 
		 "optdone": 1, 
		 "sigma_profile": "yes", 
		 "theory": "DFT", 
		 "functional": "B3LYP", 
		 "basiset": "6-31G**", 
		 "properties": { 
			 "R2extent": 5133.2442, 
			 "electric_dipole_moment_norm": 6.56235075106, 
			 "electric_quadrupole_moment_norm": 23.0235160321, 
			 "total_energy": -1050.07871528, 
			 "HOMO_LUMO_gap": 0.17228, 
			 "cosmo_polarized_energy": -18.32, 
			 "cosmo_cavitation_energy": 26.96, 
			 "cosmo_dispersion_energy": -20.06, 
			 "cosmo_repulsion_energy": 1.57, 
			 "cosmo_total_nonelectrostatic_energy": 8.48, 
			 "SMD_solvation_energy": 3.84 
		},
		"coords": [
			{
				"x": 4.4592427917,
				"y": -0.5942433824,
				"z": 1.0936777553,
				"element": "O" 
			},
			{
				"x": 4.067148531,
				"y": 0.6460268818,
				"z": 1.4974044595,
				"element": "C" 
			},
			{
				"x": 4.8481391399,
				"y": 1.3972726002,
				"z": 2.0195043702,
				"element": "O" 
			},
			{
				"x": 2.6408308652,
				"y": 0.9949901179,
				"z": 1.1682040938,
				"element": "C" 
			},
			{
				"x": 2.1556574875,
				"y": 0.7505589863,
				"z": -0.1016589762,
				"element": "C" 
			},
			{
				"x": 0.8557733928,
				"y": 1.1667160222,
				"z": -0.4779353956,
				"element": "C" 
			},
			{
				"x": 0.309037629,
				"y": 0.9621765038,
				"z": -1.770601373,
				"element": "C" 
			},
			{
				"x": -0.9649185562,
				"y": 1.4000655847,
				"z": -2.0588612014,
				"element": "C" 
			},
			{
				"x": -1.737994914,
				"y": 2.0571199778,
				"z": -1.0697460602,
				"element": "C" 
			},
			{
				"x": -1.2329857974,
				"y": 2.2692843178,
				"z": 0.1951209877,
				"element": "C" 
			},
			{
				"x": 0.0744117651,
				"y": 1.8286652208,
				"z": 0.5182979464,
				"element": "C" 
			},
			{
				"x": 0.5498059259,
				"y": 2.0465516481,
				"z": 1.7803318292,
				"element": "N" 
			},
			{
				"x": 1.7557843227,
				"y": 1.6628304668,
				"z": 2.0770181631,
				"element": "C" 
			},
			{
				"x": 2.2726931333,
				"y": 1.9424440741,
				"z": 3.73069074,
				"element": "Cl" 
			},
			{
				"x": 3.685970109,
				"y": -1.1170009401,
				"z": 0.8377886553,
				"element": "H" 
			},
			{
				"x": 2.7889633939,
				"y": 0.2615636786,
				"z": -0.8385700797,
				"element": "H" 
			},
			{
				"x": 0.9077591629,
				"y": 0.4600749756,
				"z": -2.525888916,
				"element": "H" 
			},
			{
				"x": -1.3824414412,
				"y": 1.2435866104,
				"z": -3.0487272556,
				"element": "H" 
			},
			{
				"x": -2.7398974523,
				"y": 2.39629238,
				"z": -1.3154198626,
				"element": "H" 
			},
			{
				"x": -1.8067794888,
				"y": 2.7696242757,
				"z": 0.9676701199,
				"element": "H" 
			}
		],
		 "valence_orbital": [ 
			{
				"type": "occ",
				"energy": -0.3141,
				"method": "rhf"
			},
			{
				"type": "occ",
				"energy": -0.29032,
				"method": "rhf"
			},
			{
				"type": "occ",
				"energy": -0.27952,
				"method": "rhf"
			},
			{
				"type": "occ",
				"energy": -0.26632,
				"method": "rhf"
			},
			{
				"type": "occ",
				"energy": -0.25494,
				"method": "rhf"
			},
			{
				"type": "unocc",
				"energy": -0.08266,
				"method": "rhf"
			},
			{
				"type": "unocc",
				"energy": -0.05227,
				"method": "rhf"
			},
			{
				"type": "unocc",
				"energy": -0.00594,
				"method": "rhf"
			},
			{
				"type": "unocc",
				"energy": 0.00716,
				"method": "rhf"
			},
			{
				"type": "unocc",
				"energy": 0.03049,
				"method": "rhf"
			}
		],
		"cosmo_sigma_profile": { 
			"-0.025": 0.0,
			"-0.024": 0.0,
			"-0.023": 0.0,
			"-0.022": 0.0,
			"-0.021": 0.0,
			"-0.02": 0.0,
			"-0.019": 0.586237136752,
			"-0.018": 1.19392871811,
			"-0.017": 0.789047404899,
			"-0.016": 1.19027435568,
			"-0.015": 0.95158902813,
			"-0.014": 1.12443753763,
			"-0.013": 1.01558838504,
			"-0.012": 1.81694264375,
			"-0.011": 0.761048162325,
			"-0.01": 1.91616782373,
			"-0.009": 3.94517530172,
			"-0.008": 4.16888237727,
			"-0.007": 9.41955228764,
			"-0.006": 10.8578255329,
			"-0.005": 10.6485711787,
			"-0.004": 9.37198386049,
			"-0.003": 11.4196472266,
			"-0.002": 13.029689991,
			"-0.001": 14.5872367175,
			"0.0": 14.3041276117,
			"0.001": 17.1099328211,
			"0.002": 18.4112795956,
			"0.003": 16.806508795,
			"0.004": 9.89843562585,
			"0.005": 6.61725431893,
			"0.006": 4.79826634912,
			"0.007": 4.44828482277,
			"0.008": 4.96686321594,
			"0.009": 5.84866577003,
			"0.01": 7.09201516468,
			"0.011": 6.37023849258,
			"0.012": 3.44167641468,
			"0.013": 0.705819373244,
			"0.014": 0.0620968638988,
			"0.015": 0.0,
			"0.016": 0.0,
			"0.017": 0.0,
			"0.018": 0.0,
			"0.019": 0.0,
			"0.02": 0.0,
			"0.021": 0.0,
			"0.022": 0.0,
			"0.023": 0.0,
			"0.024": 0.0,
			"0.025": 0.0
		}
	}
}
