{
	 "smiles": "CC1=NNC2=C1C(C)=CC(=O)O2", 
	 "Tm": 525.15, 
	 "num_atms": 20, 
	 "gaussian": { 
		 "optdone": 1, 
		 "sigma_profile": "yes", 
		 "theory": "DFT", 
		 "functional": "B3LYP", 
		 "basiset": "6-31G**", 
		 "properties": { 
			 "R2extent": 2310.1331, 
			 "electric_dipole_moment_norm": 3.63998536536, 
			 "electric_quadrupole_moment_norm": 18.384991938, 
			 "total_energy": -569.611247332, 
			 "HOMO_LUMO_gap": 0.17506, 
			 "cosmo_polarized_energy": -14.09, 
			 "cosmo_cavitation_energy": 24.29, 
			 "cosmo_dispersion_energy": -18.07, 
			 "cosmo_repulsion_energy": 1.43, 
			 "cosmo_total_nonelectrostatic_energy": 7.65, 
			 "SMD_solvation_energy": 4.64 
		},
		"coords": [
			{
				"x": 1.5701039258,
				"y": -1.131538265,
				"z": 1.3632669806,
				"element": "C" 
			},
			{
				"x": 1.0413329945,
				"y": -0.0050438239,
				"z": 0.5300011617,
				"element": "C" 
			},
			{
				"x": 1.8788381952,
				"y": 0.7146035559,
				"z": -0.2067323342,
				"element": "N" 
			},
			{
				"x": 1.1021278635,
				"y": 1.6525571679,
				"z": -0.8419906737,
				"element": "N" 
			},
			{
				"x": -0.193698259,
				"y": 1.5228721956,
				"z": -0.5101551201,
				"element": "C" 
			},
			{
				"x": -0.3063392557,
				"y": 0.4618165599,
				"z": 0.3808636834,
				"element": "C" 
			},
			{
				"x": -1.6200645887,
				"y": 0.1475305545,
				"z": 0.8674701075,
				"element": "C" 
			},
			{
				"x": -1.8475391405,
				"y": -0.9810772636,
				"z": 1.8338274386,
				"element": "C" 
			},
			{
				"x": -2.6532183702,
				"y": 0.9206427815,
				"z": 0.4122355348,
				"element": "C" 
			},
			{
				"x": -2.5111210856,
				"y": 2.0252672001,
				"z": -0.51975793,
				"element": "C" 
			},
			{
				"x": -3.3760177848,
				"y": 2.7407164679,
				"z": -0.9569253509,
				"element": "O" 
			},
			{
				"x": -1.1724000753,
				"y": 2.2967240245,
				"z": -0.9754968748,
				"element": "O" 
			},
			{
				"x": 1.1256616957,
				"y": -2.0902235001,
				"z": 1.0744438838,
				"element": "H" 
			},
			{
				"x": 2.6518509838,
				"y": -1.1995715815,
				"z": 1.2315268228,
				"element": "H" 
			},
			{
				"x": 1.3602980916,
				"y": -0.979154692,
				"z": 2.4275881439,
				"element": "H" 
			},
			{
				"x": 1.5231735957,
				"y": 2.3230715225,
				"z": -1.4658172213,
				"element": "H" 
			},
			{
				"x": -1.5109485948,
				"y": -1.932338904,
				"z": 1.4067703731,
				"element": "H" 
			},
			{
				"x": -2.9038432889,
				"y": -1.074288598,
				"z": 2.0945544513,
				"element": "H" 
			},
			{
				"x": -1.2757623423,
				"y": -0.8250949563,
				"z": 2.7554074311,
				"element": "H" 
			},
			{
				"x": -3.67233456,
				"y": 0.7434295542,
				"z": 0.7350194924,
				"element": "H" 
			}
		],
		 "valence_orbital": [ 
			{
				"type": "occ",
				"energy": -0.3173,
				"method": "rhf"
			},
			{
				"type": "occ",
				"energy": -0.3055,
				"method": "rhf"
			},
			{
				"type": "occ",
				"energy": -0.27744,
				"method": "rhf"
			},
			{
				"type": "occ",
				"energy": -0.25728,
				"method": "rhf"
			},
			{
				"type": "occ",
				"energy": -0.22731,
				"method": "rhf"
			},
			{
				"type": "unocc",
				"energy": -0.05225,
				"method": "rhf"
			},
			{
				"type": "unocc",
				"energy": 0.01333,
				"method": "rhf"
			},
			{
				"type": "unocc",
				"energy": 0.04069,
				"method": "rhf"
			},
			{
				"type": "unocc",
				"energy": 0.07575,
				"method": "rhf"
			},
			{
				"type": "unocc",
				"energy": 0.0787,
				"method": "rhf"
			}
		],
		"cosmo_sigma_profile": { 
			"-0.025": 0.0,
			"-0.024": 0.0,
			"-0.023": 0.0,
			"-0.022": 0.0,
			"-0.021": 0.0,
			"-0.02": 0.0,
			"-0.019": 0.0,
			"-0.018": 0.25413694087,
			"-0.017": 1.87937459655,
			"-0.016": 1.04374224273,
			"-0.015": 0.851161954059,
			"-0.014": 1.78293401797,
			"-0.013": 0.690725409214,
			"-0.012": 0.469254341268,
			"-0.011": 1.03992250982,
			"-0.01": 0.876048612729,
			"-0.009": 0.543973509509,
			"-0.008": 0.866096925485,
			"-0.007": 2.63192164329,
			"-0.006": 6.81402880223,
			"-0.005": 16.038007302,
			"-0.004": 14.2157946466,
			"-0.003": 17.2798677102,
			"-0.002": 18.1169088418,
			"-0.001": 21.1646069359,
			"0.0": 15.567588333,
			"0.001": 13.3306711276,
			"0.002": 9.21809189177,
			"0.003": 5.02471606707,
			"0.004": 3.96006932372,
			"0.005": 3.790829573,
			"0.006": 4.26756137722,
			"0.007": 3.19867885441,
			"0.008": 3.84425171248,
			"0.009": 4.06452695979,
			"0.01": 3.76939270134,
			"0.011": 4.80282430684,
			"0.012": 7.91450607277,
			"0.013": 2.29783555524,
			"0.014": 0.908524752168,
			"0.015": 0.898788042913,
			"0.016": 0.123698891317,
			"0.017": 0.0,
			"0.018": 0.0,
			"0.019": 0.0,
			"0.02": 0.0,
			"0.021": 0.0,
			"0.022": 0.0,
			"0.023": 0.0,
			"0.024": 0.0,
			"0.025": 0.0
		}
	}
}
