{
	 "smiles": "OC(=O)CC12CC3CC(CC(Br)(C3)C1)C2", 
	 "Tm": 469.15, 
	 "num_atms": 32, 
	 "gaussian": { 
		 "optdone": 1, 
		 "sigma_profile": "yes", 
		 "theory": "DFT", 
		 "functional": "B3LYP", 
		 "basiset": "6-31G**", 
		 "properties": { 
			 "R2extent": 4631.7067, 
			 "electric_dipole_moment_norm": 4.24322203638, 
			 "electric_quadrupole_moment_norm": 18.7778244608, 
			 "total_energy": -3189.42283186, 
			 "HOMO_LUMO_gap": 0.25895, 
			 "cosmo_polarized_energy": -15.95, 
			 "cosmo_cavitation_energy": 32.16, 
			 "cosmo_dispersion_energy": -23.64, 
			 "cosmo_repulsion_energy": 1.8, 
			 "cosmo_total_nonelectrostatic_energy": 10.33, 
			 "SMD_solvation_energy": 3.89 
		},
		"coords": [
			{
				"x": 1.1500119435,
				"y": 2.1578913412,
				"z": 2.8207648382,
				"element": "O" 
			},
			{
				"x": 1.1610519495,
				"y": 2.4863117882,
				"z": 1.4980782654,
				"element": "C" 
			},
			{
				"x": 0.8879080429,
				"y": 3.6113640301,
				"z": 1.1594332922,
				"element": "O" 
			},
			{
				"x": 1.4899690688,
				"y": 1.3624795625,
				"z": 0.523567309,
				"element": "C" 
			},
			{
				"x": 0.2498367207,
				"y": 0.574707542,
				"z": 0.0212028792,
				"element": "C" 
			},
			{
				"x": -0.7648596907,
				"y": 1.5033410339,
				"z": -0.6889426352,
				"element": "C" 
			},
			{
				"x": -1.9641515198,
				"y": 0.6836251284,
				"z": -1.2061038228,
				"element": "C" 
			},
			{
				"x": -1.475813401,
				"y": -0.3792800276,
				"z": -2.2098354536,
				"element": "C" 
			},
			{
				"x": -0.4770127998,
				"y": -1.3194377514,
				"z": -1.5071502186,
				"element": "C" 
			},
			{
				"x": -1.1769657292,
				"y": -2.0221753503,
				"z": -0.3192206197,
				"element": "C" 
			},
			{
				"x": -1.6581608971,
				"y": -0.9471891924,
				"z": 0.6609235599,
				"element": "C" 
			},
			{
				"x": -2.5566129716,
				"y": -1.8552098768,
				"z": 2.2192713383,
				"element": "Br" 
			},
			{
				"x": -2.6676648534,
				"y": -0.0142005673,
				"z": -0.0164599939,
				"element": "C" 
			},
			{
				"x": -0.4699293558,
				"y": -0.140813983,
				"z": 1.1993173171,
				"element": "C" 
			},
			{
				"x": 0.7222003745,
				"y": -0.5031448839,
				"z": -0.9856737934,
				"element": "C" 
			},
			{
				"x": 1.3891715714,
				"y": 1.2283471504,
				"z": 2.9386989208,
				"element": "H" 
			},
			{
				"x": 1.9835543823,
				"y": 1.8281348516,
				"z": -0.3342330074,
				"element": "H" 
			},
			{
				"x": 2.2032690135,
				"y": 0.6580264726,
				"z": 0.9725944924,
				"element": "H" 
			},
			{
				"x": -1.1055637953,
				"y": 2.2865281865,
				"z": -0.0033439702,
				"element": "H" 
			},
			{
				"x": -0.2701556643,
				"y": 2.0157811492,
				"z": -1.523705647,
				"element": "H" 
			},
			{
				"x": -2.6799318008,
				"y": 1.356486574,
				"z": -1.6930689534,
				"element": "H" 
			},
			{
				"x": -0.9967097964,
				"y": 0.1059633005,
				"z": -3.0695089611,
				"element": "H" 
			},
			{
				"x": -2.3257886574,
				"y": -0.9537358868,
				"z": -2.5992102958,
				"element": "H" 
			},
			{
				"x": -0.120828339,
				"y": -2.0820935471,
				"z": -2.2102086442,
				"element": "H" 
			},
			{
				"x": -0.48630917,
				"y": -2.7077638074,
				"z": 0.1840175694,
				"element": "H" 
			},
			{
				"x": -2.0273739892,
				"y": -2.6157491623,
				"z": -0.6710846801,
				"element": "H" 
			},
			{
				"x": -3.5326034836,
				"y": -0.5889812945,
				"z": -0.3643474517,
				"element": "H" 
			},
			{
				"x": -3.034189461,
				"y": 0.7272467053,
				"z": 0.701458342,
				"element": "H" 
			},
			{
				"x": 0.2273908692,
				"y": -0.8161130573,
				"z": 1.712671899,
				"element": "H" 
			},
			{
				"x": -0.8252547561,
				"y": 0.5886724356,
				"z": 1.9344132111,
				"element": "H" 
			},
			{
				"x": 1.449669092,
				"y": -1.1699005873,
				"z": -0.5028816426,
				"element": "H" 
			},
			{
				"x": 1.240347103,
				"y": -0.0196182767,
				"z": -1.8239334433,
				"element": "H" 
			}
		],
		 "valence_orbital": [ 
			{
				"type": "occ",
				"energy": -0.30183,
				"method": "rhf"
			},
			{
				"type": "occ",
				"energy": -0.29783,
				"method": "rhf"
			},
			{
				"type": "occ",
				"energy": -0.26968,
				"method": "rhf"
			},
			{
				"type": "occ",
				"energy": -0.26868,
				"method": "rhf"
			},
			{
				"type": "occ",
				"energy": -0.26788,
				"method": "rhf"
			},
			{
				"type": "unocc",
				"energy": -0.00893,
				"method": "rhf"
			},
			{
				"type": "unocc",
				"energy": 0.00374,
				"method": "rhf"
			},
			{
				"type": "unocc",
				"energy": 0.04775,
				"method": "rhf"
			},
			{
				"type": "unocc",
				"energy": 0.07036,
				"method": "rhf"
			},
			{
				"type": "unocc",
				"energy": 0.10191,
				"method": "rhf"
			}
		],
		"cosmo_sigma_profile": { 
			"-0.025": 0.0,
			"-0.024": 0.0,
			"-0.023": 0.0,
			"-0.022": 0.0,
			"-0.021": 0.0,
			"-0.02": 0.0,
			"-0.019": 0.0,
			"-0.018": 0.474394126333,
			"-0.017": 1.03410698613,
			"-0.016": 1.18816086343,
			"-0.015": 1.18663344417,
			"-0.014": 0.900033287114,
			"-0.013": 1.05452168157,
			"-0.012": 1.3318195888,
			"-0.011": 0.958366334044,
			"-0.01": 1.21850953376,
			"-0.009": 1.38466318773,
			"-0.008": 1.259012804,
			"-0.007": 1.91437566678,
			"-0.006": 3.10523075554,
			"-0.005": 8.12196571735,
			"-0.004": 17.4076907683,
			"-0.003": 39.0197364244,
			"-0.002": 33.3808815504,
			"-0.001": 30.175038649,
			"0.0": 20.2535365204,
			"0.001": 11.3062627364,
			"0.002": 6.95715083201,
			"0.003": 7.15888273665,
			"0.004": 7.36286045859,
			"0.005": 8.07830044906,
			"0.006": 10.5379314602,
			"0.007": 10.6857563189,
			"0.008": 2.62376781792,
			"0.009": 3.14730474395,
			"0.01": 4.32594058194,
			"0.011": 4.73070790105,
			"0.012": 5.47544042876,
			"0.013": 2.98478321443,
			"0.014": 0.179261498803,
			"0.015": 0.0,
			"0.016": 0.0,
			"0.017": 0.0,
			"0.018": 0.0,
			"0.019": 0.0,
			"0.02": 0.0,
			"0.021": 0.0,
			"0.022": 0.0,
			"0.023": 0.0,
			"0.024": 0.0,
			"0.0": 0.0
		}
	}
}
