{
	 "smiles": "CC1=CC(=O)OC2=C1C=CC(N)=C2", 
	 "Tm": 500.15, 
	 "num_atms": 22, 
	 "gaussian": { 
		 "optdone": 1, 
		 "sigma_profile": "yes", 
		 "theory": "DFT", 
		 "functional": "B3LYP", 
		 "basiset": "6-31G**", 
		 "properties": { 
			 "R2extent": 2904.8109, 
			 "electric_dipole_moment_norm": 6.34754387618, 
			 "electric_quadrupole_moment_norm": 20.9006875148, 
			 "total_energy": -591.705910695, 
			 "HOMO_LUMO_gap": 0.15751, 
			 "cosmo_polarized_energy": -16.6, 
			 "cosmo_cavitation_energy": 26.05, 
			 "cosmo_dispersion_energy": -19.49, 
			 "cosmo_repulsion_energy": 1.52, 
			 "cosmo_total_nonelectrostatic_energy": 8.09, 
			 "SMD_solvation_energy": 5.57 
		},
		"coords": [
			{
				"x": -2.2297970148,
				"y": -0.8870384167,
				"z": -1.6781306349,
				"element": "C" 
			},
			{
				"x": -1.939577353,
				"y": -0.3129666625,
				"z": -0.3169204472,
				"element": "C" 
			},
			{
				"x": -2.8845841754,
				"y": 0.3922241759,
				"z": 0.3610693347,
				"element": "C" 
			},
			{
				"x": -2.6552396585,
				"y": 0.966023964,
				"z": 1.6751302021,
				"element": "C" 
			},
			{
				"x": -3.4462973581,
				"y": 1.6040299919,
				"z": 2.3313752269,
				"element": "O" 
			},
			{
				"x": -1.3850662765,
				"y": 0.7513267331,
				"z": 2.2250017514,
				"element": "O" 
			},
			{
				"x": -0.416811854,
				"y": 0.0491785201,
				"z": 1.5725147245,
				"element": "C" 
			},
			{
				"x": -0.640463791,
				"y": -0.5061051308,
				"z": 0.2936854508,
				"element": "C" 
			},
			{
				"x": 0.4296817448,
				"y": -1.2107260859,
				"z": -0.2940990337,
				"element": "C" 
			},
			{
				"x": 1.645840281,
				"y": -1.3544174264,
				"z": 0.3480890037,
				"element": "C" 
			},
			{
				"x": 1.84971481,
				"y": -0.7902253266,
				"z": 1.6291868036,
				"element": "C" 
			},
			{
				"x": 3.0502865481,
				"y": -0.9800686726,
				"z": 2.2937027972,
				"element": "N" 
			},
			{
				"x": 0.8009531342,
				"y": -0.0850317947,
				"z": 2.2333149759,
				"element": "C" 
			},
			{
				"x": -3.2487224414,
				"y": -0.6527669396,
				"z": -1.9930221088,
				"element": "H" 
			},
			{
				"x": -1.5387753954,
				"y": -0.4882336196,
				"z": -2.4296636811,
				"element": "H" 
			},
			{
				"x": -2.1128170691,
				"y": -1.976827679,
				"z": -1.6789928231,
				"element": "H" 
			},
			{
				"x": -3.8721968845,
				"y": 0.5651325433,
				"z": -0.0507646181,
				"element": "H" 
			},
			{
				"x": 0.2988688297,
				"y": -1.6516108196,
				"z": -1.2770362046,
				"element": "H" 
			},
			{
				"x": 2.4514757578,
				"y": -1.9078366978,
				"z": -0.1261932494,
				"element": "H" 
			},
			{
				"x": 3.2574655344,
				"y": -0.3384010488,
				"z": 3.0452365302,
				"element": "H" 
			},
			{
				"x": 3.8528301813,
				"y": -1.1979174865,
				"z": 1.7212936685,
				"element": "H" 
			},
			{
				"x": 0.9126324505,
				"y": 0.361257879,
				"z": 3.2162223315,
				"element": "H" 
			}
		],
		 "valence_orbital": [ 
			{
				"type": "occ",
				"energy": -0.32541,
				"method": "rhf"
			},
			{
				"type": "occ",
				"energy": -0.27408,
				"method": "rhf"
			},
			{
				"type": "occ",
				"energy": -0.26028,
				"method": "rhf"
			},
			{
				"type": "occ",
				"energy": -0.24191,
				"method": "rhf"
			},
			{
				"type": "occ",
				"energy": -0.20787,
				"method": "rhf"
			},
			{
				"type": "unocc",
				"energy": -0.05036,
				"method": "rhf"
			},
			{
				"type": "unocc",
				"energy": -0.00462,
				"method": "rhf"
			},
			{
				"type": "unocc",
				"energy": 0.01778,
				"method": "rhf"
			},
			{
				"type": "unocc",
				"energy": 0.06825,
				"method": "rhf"
			},
			{
				"type": "unocc",
				"energy": 0.08849,
				"method": "rhf"
			}
		],
		"cosmo_sigma_profile": { 
			"-0.025": 0.0,
			"-0.024": 0.0,
			"-0.023": 0.0,
			"-0.022": 0.0,
			"-0.021": 0.0,
			"-0.02": 0.0,
			"-0.019": 0.0,
			"-0.018": 0.0,
			"-0.017": 0.0,
			"-0.016": 0.0,
			"-0.015": 0.0,
			"-0.014": 0.364803856874,
			"-0.013": 2.51468528597,
			"-0.012": 3.09322358002,
			"-0.011": 2.74163350834,
			"-0.01": 3.10649304348,
			"-0.009": 2.90114433906,
			"-0.008": 3.20092806936,
			"-0.007": 4.96547929666,
			"-0.006": 10.8742944743,
			"-0.005": 15.8185073004,
			"-0.004": 11.7059342696,
			"-0.003": 12.5980690609,
			"-0.002": 13.6169853043,
			"-0.001": 14.5116875124,
			"0.0": 13.3228557321,
			"0.001": 14.3172246508,
			"0.002": 13.1256365055,
			"0.003": 14.7838802306,
			"0.004": 12.9053410736,
			"0.005": 5.39586585946,
			"0.006": 2.76903345628,
			"0.007": 3.59319021393,
			"0.008": 3.02364764144,
			"0.009": 2.69173454823,
			"0.01": 2.96388560644,
			"0.011": 3.75905384828,
			"0.012": 5.33104127269,
			"0.013": 6.13663259704,
			"0.014": 1.50454825596,
			"0.015": 0.0,
			"0.016": 0.0,
			"0.017": 0.0,
			"0.018": 0.0,
			"0.019": 0.0,
			"0.02": 0.0,
			"0.021": 0.0,
			"0.022": 0.0,
			"0.023": 0.0,
			"0.024": 0.0,
			"0.025": 0.0
		}
	}
}
