{
	 "smiles": "CC(C)N1C=CC(=O)N=C1S", 
	 "Tm": 528.15, 
	 "num_atms": 21, 
	 "gaussian": { 
		 "optdone": 1, 
		 "sigma_profile": "yes", 
		 "theory": "DFT", 
		 "functional": "B3LYP", 
		 "basiset": "6-31G**", 
		 "properties": { 
			 "R2extent": 2686.3718, 
			 "electric_dipole_moment_norm": 7.29126956915, 
			 "electric_quadrupole_moment_norm": 12.2420287498, 
			 "total_energy": -855.680096624, 
			 "HOMO_LUMO_gap": 0.2045, 
			 "cosmo_polarized_energy": -19.45, 
			 "cosmo_cavitation_energy": 25.78, 
			 "cosmo_dispersion_energy": -19.02, 
			 "cosmo_repulsion_energy": 1.49, 
			 "cosmo_total_nonelectrostatic_energy": 8.25, 
			 "SMD_solvation_energy": 4.04 
		},
		"coords": [
			{
				"x": -2.1765813956,
				"y": 1.8510715897,
				"z": -0.1695381692,
				"element": "C" 
			},
			{
				"x": -0.7912646765,
				"y": 2.3434482244,
				"z": 0.2661421764,
				"element": "C" 
			},
			{
				"x": -0.1932046134,
				"y": 3.3840449873,
				"z": -0.6882224875,
				"element": "C" 
			},
			{
				"x": 0.1422713181,
				"y": 1.2030816142,
				"z": 0.4663467102,
				"element": "N" 
			},
			{
				"x": 0.4807861419,
				"y": 0.4032380636,
				"z": -0.61534893,
				"element": "C" 
			},
			{
				"x": 1.3205250186,
				"y": -0.6443019511,
				"z": -0.4940214807,
				"element": "C" 
			},
			{
				"x": 1.9080262906,
				"y": -0.970867602,
				"z": 0.809006192,
				"element": "C" 
			},
			{
				"x": 2.6748776767,
				"y": -1.9037419324,
				"z": 0.9909154496,
				"element": "O" 
			},
			{
				"x": 1.5241333151,
				"y": -0.1190279618,
				"z": 1.8719540424,
				"element": "N" 
			},
			{
				"x": 0.7151335755,
				"y": 0.8642032411,
				"z": 1.6769332724,
				"element": "C" 
			},
			{
				"x": 0.2846950315,
				"y": 1.8936374108,
				"z": 3.0920820368,
				"element": "S" 
			},
			{
				"x": -2.1503730375,
				"y": 1.3837608686,
				"z": -1.1590807275,
				"element": "H" 
			},
			{
				"x": -2.5745324086,
				"y": 1.1245335068,
				"z": 0.5439154108,
				"element": "H" 
			},
			{
				"x": -2.8681279592,
				"y": 2.6971892902,
				"z": -0.2217551285,
				"element": "H" 
			},
			{
				"x": -0.8998692558,
				"y": 2.8152626946,
				"z": 1.244265983,
				"element": "H" 
			},
			{
				"x": -0.0773710254,
				"y": 2.9884316863,
				"z": -1.7022749292,
				"element": "H" 
			},
			{
				"x": 0.7856920321,
				"y": 3.7196754282,
				"z": -0.3355847186,
				"element": "H" 
			},
			{
				"x": -0.8551817109,
				"y": 4.2531170435,
				"z": -0.7462412009,
				"element": "H" 
			},
			{
				"x": 0.0240707156,
				"y": 0.6804225001,
				"z": -1.5577009591,
				"element": "H" 
			},
			{
				"x": 1.5739286044,
				"y": -1.2581606134,
				"z": -1.3497306402,
				"element": "H" 
			},
			{
				"x": 1.0615663629,
				"y": 1.1583819114,
				"z": 3.9073380975,
				"element": "H" 
			}
		],
		 "valence_orbital": [ 
			{
				"type": "occ",
				"energy": -0.33066,
				"method": "rhf"
			},
			{
				"type": "occ",
				"energy": -0.27372,
				"method": "rhf"
			},
			{
				"type": "occ",
				"energy": -0.26129,
				"method": "rhf"
			},
			{
				"type": "occ",
				"energy": -0.23509,
				"method": "rhf"
			},
			{
				"type": "occ",
				"energy": -0.23058,
				"method": "rhf"
			},
			{
				"type": "unocc",
				"energy": -0.02608,
				"method": "rhf"
			},
			{
				"type": "unocc",
				"energy": -0.017,
				"method": "rhf"
			},
			{
				"type": "unocc",
				"energy": -0.00202,
				"method": "rhf"
			},
			{
				"type": "unocc",
				"energy": 0.05369,
				"method": "rhf"
			},
			{
				"type": "unocc",
				"energy": 0.06282,
				"method": "rhf"
			}
		],
		"cosmo_sigma_profile": { 
			"-0.025": 0.0,
			"-0.024": 0.0,
			"-0.023": 0.0,
			"-0.022": 0.0,
			"-0.021": 0.0,
			"-0.02": 0.0,
			"-0.019": 0.0,
			"-0.018": 0.0,
			"-0.017": 0.0,
			"-0.016": 0.0,
			"-0.015": 0.0,
			"-0.014": 0.0,
			"-0.013": 0.0,
			"-0.012": 0.387093073564,
			"-0.011": 1.37123152328,
			"-0.01": 3.53114191574,
			"-0.009": 3.67107817781,
			"-0.008": 3.32985842035,
			"-0.007": 6.11008524434,
			"-0.006": 8.38143248115,
			"-0.005": 14.9206964979,
			"-0.004": 20.6039980628,
			"-0.003": 19.6732599009,
			"-0.002": 20.5220565906,
			"-0.001": 19.9760587493,
			"0.0": 14.9055434017,
			"0.001": 11.0044453591,
			"0.002": 9.33824355784,
			"0.003": 6.42481715305,
			"0.004": 4.73496193931,
			"0.005": 3.96102892239,
			"0.006": 3.39268469614,
			"0.007": 2.92074420417,
			"0.008": 2.21810834516,
			"0.009": 1.23871917376,
			"0.01": 1.96561146883,
			"0.011": 2.56196274858,
			"0.012": 2.27083659596,
			"0.013": 3.47658874545,
			"0.014": 6.63069290994,
			"0.015": 4.25036649134,
			"0.016": 2.58983301693,
			"0.017": 0.362871330648,
			"0.018": 0.0,
			"0.019": 0.0,
			"0.02": 0.0,
			"0.021": 0.0,
			"0.022": 0.0,
			"0.023": 0.0,
			"0.024": 0.0,
			"0.025": 0.0
		}
	}
}
