{
	 "smiles": "C1CCC(CC1)C1CCCCC1", 
	 "Tm": 276.65, 
	 "num_atms": 34, 
	 "gaussian": { 
		 "optdone": 1, 
		 "sigma_profile": "yes", 
		 "theory": "DFT", 
		 "functional": "B3LYP", 
		 "basiset": "6-31G**", 
		 "properties": { 
			 "R2extent": 2925.7608, 
			 "electric_dipole_moment_norm": 0.0428920738599, 
			 "electric_quadrupole_moment_norm": 0.346947128537, 
			 "total_energy": -470.564768021, 
			 "HOMO_LUMO_gap": 0.34805, 
			 "cosmo_polarized_energy": -0.65, 
			 "cosmo_cavitation_energy": 30.53, 
			 "cosmo_dispersion_energy": -22.55, 
			 "cosmo_repulsion_energy": 1.79, 
			 "cosmo_total_nonelectrostatic_energy": 9.77, 
			 "SMD_solvation_energy": 3.44 
		},
		"coords": [
			{
				"x": -2.4205757212,
				"y": -1.3268640559,
				"z": 3.184656422,
				"element": "C" 
			},
			{
				"x": -1.722840262,
				"y": -2.4669197395,
				"z": 2.4347430047,
				"element": "C" 
			},
			{
				"x": -0.5214979455,
				"y": -1.9426327716,
				"z": 1.6122655276,
				"element": "C" 
			},
			{
				"x": -0.7156172821,
				"y": -0.4917626684,
				"z": 1.0860895375,
				"element": "C" 
			},
			{
				"x": -2.2204438881,
				"y": -0.2456353521,
				"z": 0.8603009769,
				"element": "C" 
			},
			{
				"x": -3.0161872313,
				"y": -0.30709109,
				"z": 2.1858685104,
				"element": "C" 
			},
			{
				"x": 0.1454116123,
				"y": -0.2158707279,
				"z": -0.1778263175,
				"element": "C" 
			},
			{
				"x": 0.0754161533,
				"y": 1.2469488627,
				"z": -0.6808804346,
				"element": "C" 
			},
			{
				"x": 0.8159126379,
				"y": 2.2381854373,
				"z": 0.2335242399,
				"element": "C" 
			},
			{
				"x": 2.2816091458,
				"y": 1.8263166147,
				"z": 0.4393834354,
				"element": "C" 
			},
			{
				"x": 2.3930230904,
				"y": 0.3743642976,
				"z": 0.9294795861,
				"element": "C" 
			},
			{
				"x": 1.6381958184,
				"y": -0.5895294373,
				"z": -0.0013555588,
				"element": "C" 
			},
			{
				"x": -1.6895105271,
				"y": -0.8308902691,
				"z": 3.8366770613,
				"element": "H" 
			},
			{
				"x": -3.2036902386,
				"y": -1.7151275026,
				"z": 3.8457154619,
				"element": "H" 
			},
			{
				"x": -1.3874390526,
				"y": -3.2448381529,
				"z": 3.1301529008,
				"element": "H" 
			},
			{
				"x": -2.4504749426,
				"y": -2.9491850627,
				"z": 1.7688196061,
				"element": "H" 
			},
			{
				"x": -0.3483296763,
				"y": -2.6175914759,
				"z": 0.7635279936,
				"element": "H" 
			},
			{
				"x": 0.38520617,
				"y": -1.9868488228,
				"z": 2.2268683071,
				"element": "H" 
			},
			{
				"x": -0.3935344906,
				"y": 0.1969110525,
				"z": 1.8797717341,
				"element": "H" 
			},
			{
				"x": -2.4012919857,
				"y": 0.7198941175,
				"z": 0.3789528172,
				"element": "H" 
			},
			{
				"x": -2.5953217722,
				"y": -1.0061560184,
				"z": 0.1610109064,
				"element": "H" 
			},
			{
				"x": -3.0404895999,
				"y": 0.6868145559,
				"z": 2.6490987906,
				"element": "H" 
			},
			{
				"x": -4.0588463503,
				"y": -0.5661417539,
				"z": 1.9651412048,
				"element": "H" 
			},
			{
				"x": -0.2624139412,
				"y": -0.8598966677,
				"z": -0.972288984,
				"element": "H" 
			},
			{
				"x": -0.9621802071,
				"y": 1.5674213589,
				"z": -0.8206061292,
				"element": "H" 
			},
			{
				"x": 0.5370583328,
				"y": 1.2825693104,
				"z": -1.6778104777,
				"element": "H" 
			},
			{
				"x": 0.7632021492,
				"y": 3.2465835961,
				"z": -0.195068138,
				"element": "H" 
			},
			{
				"x": 0.3130191973,
				"y": 2.2948823635,
				"z": 1.2083487874,
				"element": "H" 
			},
			{
				"x": 2.7760948952,
				"y": 2.5080598095,
				"z": 1.1421981048,
				"element": "H" 
			},
			{
				"x": 2.8171567008,
				"y": 1.921663771,
				"z": -0.5163687168,
				"element": "H" 
			},
			{
				"x": 3.446956638,
				"y": 0.0774118246,
				"z": 0.9954301039,
				"element": "H" 
			},
			{
				"x": 1.9904615278,
				"y": 0.3013899,
				"z": 1.9491110443,
				"element": "H" 
			},
			{
				"x": 2.1143106396,
				"y": -0.5598857205,
				"z": -0.9916664803,
				"element": "H" 
			},
			{
				"x": 1.7442504053,
				"y": -1.6196495829,
				"z": 0.3533351721,
				"element": "H" 
			}
		],
		 "valence_orbital": [ 
			{
				"type": "occ",
				"energy": -0.30209,
				"method": "rhf"
			},
			{
				"type": "occ",
				"energy": -0.29293,
				"method": "rhf"
			},
			{
				"type": "occ",
				"energy": -0.28587,
				"method": "rhf"
			},
			{
				"type": "occ",
				"energy": -0.28196,
				"method": "rhf"
			},
			{
				"type": "occ",
				"energy": -0.27479,
				"method": "rhf"
			},
			{
				"type": "unocc",
				"energy": 0.07326,
				"method": "rhf"
			},
			{
				"type": "unocc",
				"energy": 0.09329,
				"method": "rhf"
			},
			{
				"type": "unocc",
				"energy": 0.09764,
				"method": "rhf"
			},
			{
				"type": "unocc",
				"energy": 0.11635,
				"method": "rhf"
			},
			{
				"type": "unocc",
				"energy": 0.12655,
				"method": "rhf"
			}
		],
		"cosmo_sigma_profile": { 
			"-0.025": 0.0,
			"-0.024": 0.0,
			"-0.023": 0.0,
			"-0.022": 0.0,
			"-0.021": 0.0,
			"-0.02": 0.0,
			"-0.019": 0.0,
			"-0.018": 0.0,
			"-0.017": 0.0,
			"-0.016": 0.0,
			"-0.015": 0.0,
			"-0.014": 0.0,
			"-0.013": 0.0,
			"-0.012": 0.0,
			"-0.011": 0.0,
			"-0.01": 0.0,
			"-0.009": 0.0,
			"-0.008": 0.0,
			"-0.007": 0.0,
			"-0.006": 0.0,
			"-0.005": 0.0,
			"-0.004": 0.000419891284049,
			"-0.003": 1.64433792694,
			"-0.002": 22.2730950186,
			"-0.001": 59.4164823291,
			"0.0": 68.1344153091,
			"0.001": 51.9423131608,
			"0.002": 28.697485964,
			"0.003": 0.287771700199,
			"0.004": 0.0,
			"0.005": 0.0,
			"0.006": 0.0,
			"0.007": 0.0,
			"0.008": 0.0,
			"0.009": 0.0,
			"0.01": 0.0,
			"0.011": 0.0,
			"0.012": 0.0,
			"0.013": 0.0,
			"0.014": 0.0,
			"0.015": 0.0,
			"0.016": 0.0,
			"0.017": 0.0,
			"0.018": 0.0,
			"0.019": 0.0,
			"0.02": 0.0,
			"0.021": 0.0,
			"0.022": 0.0,
			"0.023": 0.0,
			"0.024": 0.0,
			"0.025": 0.0
		}
	}
}
