{
	 "smiles": "CN(C)C1=CC=C(C=C2SC(=S)NC2=O)C=C1", 
	 "Tm": 559.15, 
	 "num_atms": 29, 
	 "gaussian": { 
		 "optdone": 1, 
		 "sigma_profile": "yes", 
		 "theory": "DFT", 
		 "functional": "B3LYP", 
		 "basiset": "6-31G**", 
		 "properties": { 
			 "R2extent": 9722.8074, 
			 "electric_dipole_moment_norm": 9.25905079206, 
			 "electric_quadrupole_moment_norm": 18.9383510663, 
			 "total_energy": -1445.61435446, 
			 "HOMO_LUMO_gap": 0.11285, 
			 "cosmo_polarized_energy": -16.17, 
			 "cosmo_cavitation_energy": 36.23, 
			 "cosmo_dispersion_energy": -27.62, 
			 "cosmo_repulsion_energy": 2.01, 
			 "cosmo_total_nonelectrostatic_energy": 10.62, 
			 "SMD_solvation_energy": 5.18 
		},
		"coords": [
			{
				"x": -0.8087390002,
				"y": 4.2958356839,
				"z": -0.8657854123,
				"element": "C" 
			},
			{
				"x": -1.3702846308,
				"y": 2.9593611454,
				"z": -0.7430950222,
				"element": "N" 
			},
			{
				"x": -2.8023580663,
				"y": 2.7644106102,
				"z": -0.9156795256,
				"element": "C" 
			},
			{
				"x": -0.5545160259,
				"y": 1.8893630869,
				"z": -0.4650994485,
				"element": "C" 
			},
			{
				"x": 0.8444412146,
				"y": 2.0521182097,
				"z": -0.291701258,
				"element": "C" 
			},
			{
				"x": 1.6489106819,
				"y": 0.9643799017,
				"z": -0.0126149426,
				"element": "C" 
			},
			{
				"x": 1.1364856773,
				"y": -0.3500361329,
				"z": 0.1144248936,
				"element": "C" 
			},
			{
				"x": 2.0913153709,
				"y": -1.3924047279,
				"z": 0.4080677043,
				"element": "C" 
			},
			{
				"x": 2.0254340953,
				"y": -2.7439738625,
				"z": 0.6042121596,
				"element": "C" 
			},
			{
				"x": 3.5292345899,
				"y": -3.6557690977,
				"z": 0.9561808741,
				"element": "S" 
			},
			{
				"x": 2.6862187004,
				"y": -5.2001043953,
				"z": 1.0718916127,
				"element": "C" 
			},
			{
				"x": 3.3863927329,
				"y": -6.6584769794,
				"z": 1.3932520396,
				"element": "S" 
			},
			{
				"x": 1.3550429209,
				"y": -4.9747788713,
				"z": 0.8489043326,
				"element": "N" 
			},
			{
				"x": 0.8853943365,
				"y": -3.6788017776,
				"z": 0.5848876901,
				"element": "C" 
			},
			{
				"x": -0.3020434591,
				"y": -3.4635649696,
				"z": 0.3836539468,
				"element": "O" 
			},
			{
				"x": -0.2599466671,
				"y": -0.5060510845,
				"z": -0.0596471689,
				"element": "C" 
			},
			{
				"x": -1.0753677688,
				"y": 0.5745282766,
				"z": -0.3392223944,
				"element": "C" 
			},
			{
				"x": -1.6089197229,
				"y": 5.0024246873,
				"z": -1.0865594187,
				"element": "H" 
			},
			{
				"x": -0.0719412664,
				"y": 4.3553627648,
				"z": -1.6776152961,
				"element": "H" 
			},
			{
				"x": -0.3190985423,
				"y": 4.6189943022,
				"z": 0.062294919,
				"element": "H" 
			},
			{
				"x": -3.2691043958,
				"y": 2.3522600618,
				"z": -0.0117036964,
				"element": "H" 
			},
			{
				"x": -3.0233430999,
				"y": 2.0877937833,
				"z": -1.7512661182,
				"element": "H" 
			},
			{
				"x": -3.2714626933,
				"y": 3.7252548987,
				"z": -1.1280489969,
				"element": "H" 
			},
			{
				"x": 1.2988564917,
				"y": 3.0312206379,
				"z": -0.3760285105,
				"element": "H" 
			},
			{
				"x": 2.7164886823,
				"y": 1.1281637347,
				"z": 0.1136886537,
				"element": "H" 
			},
			{
				"x": 3.10479598,
				"y": -0.9977324418,
				"z": 0.4916186283,
				"element": "H" 
			},
			{
				"x": 0.6990459402,
				"y": -5.7462532298,
				"z": 0.8733383344,
				"element": "H" 
			},
			{
				"x": -0.6931895499,
				"y": -1.4937849205,
				"z": 0.0290472525,
				"element": "H" 
			},
			{
				"x": -2.1365425261,
				"y": 0.3971607056,
				"z": -0.4625958321,
				"element": "H" 
			}
		],
		 "valence_orbital": [ 
			{
				"type": "occ",
				"energy": -0.26262,
				"method": "rhf"
			},
			{
				"type": "occ",
				"energy": -0.26128,
				"method": "rhf"
			},
			{
				"type": "occ",
				"energy": -0.23712,
				"method": "rhf"
			},
			{
				"type": "occ",
				"energy": -0.2216,
				"method": "rhf"
			},
			{
				"type": "occ",
				"energy": -0.19616,
				"method": "rhf"
			},
			{
				"type": "unocc",
				"energy": -0.08331,
				"method": "rhf"
			},
			{
				"type": "unocc",
				"energy": -0.02973,
				"method": "rhf"
			},
			{
				"type": "unocc",
				"energy": -0.00743,
				"method": "rhf"
			},
			{
				"type": "unocc",
				"energy": 0.00095,
				"method": "rhf"
			},
			{
				"type": "unocc",
				"energy": 0.02214,
				"method": "rhf"
			}
		],
		"cosmo_sigma_profile": { 
			"-0.025": 0.0,
			"-0.024": 0.0,
			"-0.023": 0.0,
			"-0.022": 0.0,
			"-0.021": 0.0,
			"-0.02": 0.0,
			"-0.019": 0.0,
			"-0.018": 0.0,
			"-0.017": 0.179006047176,
			"-0.016": 1.2089702258,
			"-0.015": 0.79930146501,
			"-0.014": 0.858246321471,
			"-0.013": 0.847529250196,
			"-0.012": 0.59376366348,
			"-0.011": 0.907088565036,
			"-0.01": 0.819531601869,
			"-0.009": 2.49241984472,
			"-0.008": 4.72474557953,
			"-0.007": 7.43977534397,
			"-0.006": 10.9820707007,
			"-0.005": 21.8559281232,
			"-0.004": 23.0978859414,
			"-0.003": 24.5918655218,
			"-0.002": 24.6195649994,
			"-0.001": 15.0061202922,
			"0.0": 16.9677054841,
			"0.001": 20.0834418829,
			"0.002": 24.2535474388,
			"0.003": 21.1237827457,
			"0.004": 19.4127019113,
			"0.005": 13.6162964827,
			"0.006": 7.17182713908,
			"0.007": 8.4660357105,
			"0.008": 7.21876342035,
			"0.009": 6.34215000616,
			"0.01": 4.55589105913,
			"0.011": 2.62217468495,
			"0.012": 1.92295673978,
			"0.013": 0.0894791165704,
			"0.014": 0.0,
			"0.015": 0.0,
			"0.016": 0.0,
			"0.017": 0.0,
			"0.018": 0.0,
			"0.019": 0.0,
			"0.02": 0.0,
			"0.021": 0.0,
			"0.022": 0.0,
			"0.023": 0.0,
			"0.024": 0.0,
			"0.025": 0.0
		}
	}
}
