{
	 "smiles": "O=C(COC(=O)C1=CC=CC=C1)N1CCCCCC1", 
	 "Tm": 381.15, 
	 "num_atms": 38, 
	 "gaussian": { 
		 "optdone": 1, 
		 "sigma_profile": "yes", 
		 "theory": "DFT", 
		 "functional": "B3LYP", 
		 "basiset": "6-31G**", 
		 "properties": { 
			 "R2extent": 7749.2675, 
			 "electric_dipole_moment_norm": 3.11076487861, 
			 "electric_quadrupole_moment_norm": 18.7885800123, 
			 "total_energy": -863.50149401, 
			 "HOMO_LUMO_gap": 0.19736, 
			 "cosmo_polarized_energy": -15.95, 
			 "cosmo_cavitation_energy": 39.64, 
			 "cosmo_dispersion_energy": -28.21, 
			 "cosmo_repulsion_energy": 2.17, 
			 "cosmo_total_nonelectrostatic_energy": 13.6, 
			 "SMD_solvation_energy": 6.9 
		},
		"coords": [
			{
				"x": 0.0931520587,
				"y": 0.1670971696,
				"z": 1.1252683845,
				"element": "O" 
			},
			{
				"x": -0.7274403445,
				"y": -0.7162271917,
				"z": 0.9112176471,
				"element": "C" 
			},
			{
				"x": -2.0932786955,
				"y": -0.3709949036,
				"z": 0.2836950801,
				"element": "C" 
			},
			{
				"x": -2.2066773566,
				"y": 1.0361978481,
				"z": 0.1231300944,
				"element": "O" 
			},
			{
				"x": -1.6119321657,
				"y": 1.5472286107,
				"z": -0.9886261062,
				"element": "C" 
			},
			{
				"x": -1.1389736838,
				"y": 0.8519727083,
				"z": -1.8654058989,
				"element": "O" 
			},
			{
				"x": -1.6546551827,
				"y": 3.0341244602,
				"z": -1.0176530776,
				"element": "C" 
			},
			{
				"x": -1.1748542942,
				"y": 3.678502688,
				"z": -2.166148939,
				"element": "C" 
			},
			{
				"x": -1.1926662384,
				"y": 5.0685754718,
				"z": -2.2452356866,
				"element": "C" 
			},
			{
				"x": -1.6868493909,
				"y": 5.8219932846,
				"z": -1.1767682801,
				"element": "C" 
			},
			{
				"x": -2.1616362293,
				"y": 5.182698785,
				"z": -0.0288351454,
				"element": "C" 
			},
			{
				"x": -2.1470224748,
				"y": 3.7913509185,
				"z": 0.0542539683,
				"element": "C" 
			},
			{
				"x": -0.4982177374,
				"y": -2.0327278233,
				"z": 1.2175481195,
				"element": "N" 
			},
			{
				"x": -1.4563058333,
				"y": -3.1091638581,
				"z": 0.9578010473,
				"element": "C" 
			},
			{
				"x": -0.8066997018,
				"y": -4.4276905653,
				"z": 0.4991964029,
				"element": "C" 
			},
			{
				"x": 0.3256327502,
				"y": -4.2757800987,
				"z": -0.5346171476,
				"element": "C" 
			},
			{
				"x": 1.7075118579,
				"y": -4.0243612616,
				"z": 0.0959518762,
				"element": "C" 
			},
			{
				"x": 1.8799091147,
				"y": -2.680567971,
				"z": 0.8187762768,
				"element": "C" 
			},
			{
				"x": 0.7884425262,
				"y": -2.3529267533,
				"z": 1.8491662719,
				"element": "C" 
			},
			{
				"x": -2.2048333567,
				"y": -0.8632101704,
				"z": -0.6868903676,
				"element": "H" 
			},
			{
				"x": -2.9165148852,
				"y": -0.6647709151,
				"z": 0.940120289,
				"element": "H" 
			},
			{
				"x": -0.793282153,
				"y": 3.0711472863,
				"z": -2.9798684759,
				"element": "H" 
			},
			{
				"x": -0.8210618119,
				"y": 5.5656915026,
				"z": -3.1364682944,
				"element": "H" 
			},
			{
				"x": -1.6994981783,
				"y": 6.906681643,
				"z": -1.2376907823,
				"element": "H" 
			},
			{
				"x": -2.5407002296,
				"y": 5.7692234675,
				"z": 0.8029485336,
				"element": "H" 
			},
			{
				"x": -2.5061220912,
				"y": 3.2865530014,
				"z": 0.9433430993,
				"element": "H" 
			},
			{
				"x": -2.0704951608,
				"y": -3.304706829,
				"z": 1.8506090965,
				"element": "H" 
			},
			{
				"x": -2.1381712567,
				"y": -2.7777684005,
				"z": 0.1720201292,
				"element": "H" 
			},
			{
				"x": -1.6143418772,
				"y": -5.0446757431,
				"z": 0.0869519585,
				"element": "H" 
			},
			{
				"x": -0.4269564805,
				"y": -4.9808500424,
				"z": 1.3669876903,
				"element": "H" 
			},
			{
				"x": 0.0814237898,
				"y": -3.4746772724,
				"z": -1.2450879808,
				"element": "H" 
			},
			{
				"x": 0.3836910904,
				"y": -5.1992329484,
				"z": -1.122908161,
				"element": "H" 
			},
			{
				"x": 2.474656491,
				"y": -4.1016843628,
				"z": -0.684362798,
				"element": "H" 
			},
			{
				"x": 1.9121539226,
				"y": -4.8419345076,
				"z": 0.8026548138,
				"element": "H" 
			},
			{
				"x": 1.9039832005,
				"y": -1.8573043727,
				"z": 0.0957665238,
				"element": "H" 
			},
			{
				"x": 2.8519884416,
				"y": -2.6739054515,
				"z": 1.3286548108,
				"element": "H" 
			},
			{
				"x": 1.0854991965,
				"y": -1.4767695411,
				"z": 2.4276739971,
				"element": "H" 
			},
			{
				"x": 0.6360423698,
				"y": -3.1849078616,
				"z": 2.5465310307,
				"element": "H" 
			}
		],
		 "valence_orbital": [ 
			{
				"type": "occ",
				"energy": -0.26993,
				"method": "rhf"
			},
			{
				"type": "occ",
				"energy": -0.25373,
				"method": "rhf"
			},
			{
				"type": "occ",
				"energy": -0.25177,
				"method": "rhf"
			},
			{
				"type": "occ",
				"energy": -0.24583,
				"method": "rhf"
			},
			{
				"type": "occ",
				"energy": -0.23613,
				"method": "rhf"
			},
			{
				"type": "unocc",
				"energy": -0.03877,
				"method": "rhf"
			},
			{
				"type": "unocc",
				"energy": -0.0011,
				"method": "rhf"
			},
			{
				"type": "unocc",
				"energy": 0.02976,
				"method": "rhf"
			},
			{
				"type": "unocc",
				"energy": 0.06505,
				"method": "rhf"
			},
			{
				"type": "unocc",
				"energy": 0.07393,
				"method": "rhf"
			}
		],
		"cosmo_sigma_profile": { 
			"-0.025": 0.0,
			"-0.024": 0.0,
			"-0.023": 0.0,
			"-0.022": 0.0,
			"-0.021": 0.0,
			"-0.02": 0.0,
			"-0.019": 0.0,
			"-0.018": 0.0,
			"-0.017": 0.0,
			"-0.016": 0.0,
			"-0.015": 0.0,
			"-0.014": 0.0,
			"-0.013": 0.0,
			"-0.012": 0.0,
			"-0.011": 0.0,
			"-0.01": 0.0,
			"-0.009": 0.179105981441,
			"-0.008": 3.52259111479,
			"-0.007": 6.67006429388,
			"-0.006": 13.1101493622,
			"-0.005": 18.046489845,
			"-0.004": 25.9107214778,
			"-0.003": 30.9374731455,
			"-0.002": 36.7945012036,
			"-0.001": 33.4851141109,
			"0.0": 30.8559983623,
			"0.001": 23.0222133693,
			"0.002": 15.4148613484,
			"0.003": 16.9819271172,
			"0.004": 15.6633402386,
			"0.005": 4.98163671975,
			"0.006": 3.86348564265,
			"0.007": 3.92733787533,
			"0.008": 3.09701068449,
			"0.009": 4.72086060235,
			"0.01": 4.02354078975,
			"0.011": 5.02215494526,
			"0.012": 5.19660644701,
			"0.013": 3.50494833089,
			"0.014": 2.63105541761,
			"0.015": 0.0,
			"0.016": 0.0,
			"0.017": 0.0,
			"0.018": 0.0,
			"0.019": 0.0,
			"0.02": 0.0,
			"0.021": 0.0,
			"0.022": 0.0,
			"0.023": 0.0,
			"0.024": 0.0,
			"0.025": 0.0
		}
	}
}
