{
	 "smiles": "OCC(F)(F)C(F)(F)C(F)(F)C(F)(F)C(F)(F)C(F)(F)C(F)(F)C(F)F", 
	 "Tm": 332.15, 
	 "num_atms": 30, 
	 "gaussian": { 
		 "optdone": 1, 
		 "sigma_profile": "yes", 
		 "theory": "DFT", 
		 "functional": "B3LYP", 
		 "basiset": "6-31G**", 
		 "properties": { 
			 "R2extent": 11927.6951, 
			 "electric_dipole_moment_norm": 1.972914395, 
			 "electric_quadrupole_moment_norm": 10.9802914643, 
			 "total_energy": -2017.94602835, 
			 "HOMO_LUMO_gap": 0.30635, 
			 "cosmo_polarized_energy": -9.36, 
			 "cosmo_cavitation_energy": 38.36, 
			 "cosmo_dispersion_energy": -25.5, 
			 "cosmo_repulsion_energy": 1.66, 
			 "cosmo_total_nonelectrostatic_energy": 14.52, 
			 "SMD_solvation_energy": 11.31 
		},
		"coords": [
			{
				"x": -1.5511195656,
				"y": -0.622624948,
				"z": 4.7781814371,
				"element": "O" 
			},
			{
				"x": -0.247225288,
				"y": -0.1144013414,
				"z": 4.8689377025,
				"element": "C" 
			},
			{
				"x": 0.5706262163,
				"y": -0.3109333741,
				"z": 3.5871679755,
				"element": "C" 
			},
			{
				"x": -0.185948653,
				"y": 0.0945191799,
				"z": 2.5191496016,
				"element": "F" 
			},
			{
				"x": 1.6696200203,
				"y": 0.4888280221,
				"z": 3.6618951321,
				"element": "F" 
			},
			{
				"x": 1.0410510118,
				"y": -1.7594710907,
				"z": 3.3267827779,
				"element": "C" 
			},
			{
				"x": -0.0434348966,
				"y": -2.5685591561,
				"z": 3.4239962503,
				"element": "F" 
			},
			{
				"x": 1.9156909058,
				"y": -2.0956804374,
				"z": 4.308477519,
				"element": "F" 
			},
			{
				"x": 1.6859817021,
				"y": -2.1286087535,
				"z": 1.9509812654,
				"element": "C" 
			},
			{
				"x": 0.75234439,
				"y": -1.9399860117,
				"z": 0.9851106481,
				"element": "F" 
			},
			{
				"x": 1.9493710546,
				"y": -3.4525333483,
				"z": 2.0332930974,
				"element": "F" 
			},
			{
				"x": 3.0176158699,
				"y": -1.4207128361,
				"z": 1.5205351549,
				"element": "C" 
			},
			{
				"x": 3.6345453133,
				"y": -0.9329038902,
				"z": 2.6240086003,
				"element": "F" 
			},
			{
				"x": 3.8330288579,
				"y": -2.3434473378,
				"z": 0.9673493054,
				"element": "F" 
			},
			{
				"x": 2.9097978501,
				"y": -0.2296294721,
				"z": 0.5114772584,
				"element": "C" 
			},
			{
				"x": 2.1425014177,
				"y": 0.7393789277,
				"z": 1.0534685265,
				"element": "F" 
			},
			{
				"x": 4.1793480618,
				"y": 0.2367828087,
				"z": 0.3981880631,
				"element": "F" 
			},
			{
				"x": 2.3620434885,
				"y": -0.5434574575,
				"z": -0.9290235934,
				"element": "C" 
			},
			{
				"x": 1.0459321503,
				"y": -0.2380172105,
				"z": -0.9677920271,
				"element": "F" 
			},
			{
				"x": 2.5162079164,
				"y": -1.8596338957,
				"z": -1.2026219328,
				"element": "F" 
			},
			{
				"x": 3.0651205199,
				"y": 0.2697151306,
				"z": -2.0484577619,
				"element": "C" 
			},
			{
				"x": 4.3220881568,
				"y": -0.2123296393,
				"z": -2.2152077501,
				"element": "F" 
			},
			{
				"x": 3.1316598279,
				"y": 1.572333848,
				"z": -1.6708716785,
				"element": "F" 
			},
			{
				"x": 2.3803949942,
				"y": 0.2289842734,
				"z": -3.4294550702,
				"element": "C" 
			},
			{
				"x": 2.1334771727,
				"y": -1.0572731371,
				"z": -3.7777771037,
				"element": "F" 
			},
			{
				"x": 1.214102896,
				"y": 0.9123367793,
				"z": -3.390576546,
				"element": "F" 
			},
			{
				"x": -1.9717609628,
				"y": -0.217068067,
				"z": 4.0078799591,
				"element": "H" 
			},
			{
				"x": 0.2551427649,
				"y": -0.6237671602,
				"z": 5.694818634,
				"element": "H" 
			},
			{
				"x": -0.2164989741,
				"y": 0.9683803255,
				"z": 5.0653153018,
				"element": "H" 
			},
			{
				"x": 3.050795781,
				"y": 0.6865792695,
				"z": -4.1671307468,
				"element": "H" 
			}
		],
		 "valence_orbital": [ 
			{
				"type": "occ",
				"energy": -0.37742,
				"method": "rhf"
			},
			{
				"type": "occ",
				"energy": -0.36256,
				"method": "rhf"
			},
			{
				"type": "occ",
				"energy": -0.34895,
				"method": "rhf"
			},
			{
				"type": "occ",
				"energy": -0.33493,
				"method": "rhf"
			},
			{
				"type": "occ",
				"energy": -0.29482,
				"method": "rhf"
			},
			{
				"type": "unocc",
				"energy": 0.01153,
				"method": "rhf"
			},
			{
				"type": "unocc",
				"energy": 0.01636,
				"method": "rhf"
			},
			{
				"type": "unocc",
				"energy": 0.04003,
				"method": "rhf"
			},
			{
				"type": "unocc",
				"energy": 0.04468,
				"method": "rhf"
			},
			{
				"type": "unocc",
				"energy": 0.06215,
				"method": "rhf"
			}
		],
		"cosmo_sigma_profile": { 
			"-0.025": 0.0,
			"-0.024": 0.0,
			"-0.023": 0.0,
			"-0.022": 0.0,
			"-0.021": 0.0,
			"-0.02": 0.0,
			"-0.019": 0.0,
			"-0.018": 0.0,
			"-0.017": 0.0,
			"-0.016": 0.447477808384,
			"-0.015": 0.63827247408,
			"-0.014": 1.11174489564,
			"-0.013": 1.21742389655,
			"-0.012": 1.77133453223,
			"-0.011": 3.80775584208,
			"-0.01": 3.28315830867,
			"-0.009": 2.53232703418,
			"-0.008": 4.04877472333,
			"-0.007": 6.98980555993,
			"-0.006": 7.12337778628,
			"-0.005": 8.13861089874,
			"-0.004": 6.84464924697,
			"-0.003": 6.82150395511,
			"-0.002": 9.64007029278,
			"-0.001": 15.0985547532,
			"0.0": 31.6646394579,
			"0.001": 83.3511240269,
			"0.002": 74.1897184319,
			"0.003": 23.0817903008,
			"0.004": 2.10951660244,
			"0.005": 1.62356007624,
			"0.006": 1.06014939099,
			"0.007": 1.34610220733,
			"0.008": 1.5427438573,
			"0.009": 1.10594971703,
			"0.01": 1.3879198595,
			"0.011": 1.44482818398,
			"0.012": 1.92367506197,
			"0.013": 0.832055982584,
			"0.014": 0.0,
			"0.015": 0.0,
			"0.016": 0.0,
			"0.017": 0.0,
			"0.018": 0.0,
			"0.019": 0.0,
			"0.02": 0.0,
			"0.021": 0.0,
			"0.022": 0.0,
			"0.023": 0.0,
			"0.024": 0.0,
			"0.025": 0.0
		}
	}
}
