{
	 "smiles": "COC1=CC=C(C=C1)C(C)(C)C1=CC=C(OC)C=C1", 
	 "Tm": 329.65, 
	 "num_atms": 39, 
	 "gaussian": { 
		 "optdone": 1, 
		 "sigma_profile": "yes", 
		 "theory": "DFT", 
		 "functional": "B3LYP", 
		 "basiset": "6-31G**", 
		 "properties": { 
			 "R2extent": 7277.3416, 
			 "electric_dipole_moment_norm": 0.736106860449, 
			 "electric_quadrupole_moment_norm": 21.1858860648, 
			 "total_energy": -810.29441765, 
			 "HOMO_LUMO_gap": 0.20304, 
			 "cosmo_polarized_energy": -9.51, 
			 "cosmo_cavitation_energy": 40.52, 
			 "cosmo_dispersion_energy": -28.43, 
			 "cosmo_repulsion_energy": 2.18, 
			 "cosmo_total_nonelectrostatic_energy": 14.27, 
			 "SMD_solvation_energy": 8.42 
		},
		"coords": [
			{
				"x": 1.5346857934,
				"y": 0.3058395071,
				"z": 5.4381068143,
				"element": "C" 
			},
			{
				"x": 1.2858652461,
				"y": 1.1788762477,
				"z": 4.3498949318,
				"element": "O" 
			},
			{
				"x": 0.4660481592,
				"y": 0.7398492138,
				"z": 3.348086645,
				"element": "C" 
			},
			{
				"x": -0.1530819392,
				"y": -0.5107021689,
				"z": 3.3104394517,
				"element": "C" 
			},
			{
				"x": -0.9747473018,
				"y": -0.8478705204,
				"z": 2.2262033603,
				"element": "C" 
			},
			{
				"x": -1.1984852373,
				"y": 0.0316802332,
				"z": 1.1651701089,
				"element": "C" 
			},
			{
				"x": -0.5573629569,
				"y": 1.2844258476,
				"z": 1.2257815319,
				"element": "C" 
			},
			{
				"x": 0.2564533146,
				"y": 1.6389959773,
				"z": 2.2908297893,
				"element": "C" 
			},
			{
				"x": -2.1378550284,
				"y": -0.2835450044,
				"z": -0.0160704529,
				"element": "C" 
			},
			{
				"x": -2.5890106385,
				"y": -1.7641272574,
				"z": -0.0262886769,
				"element": "C" 
			},
			{
				"x": -3.4077005554,
				"y": 0.5857336236,
				"z": 0.1495952009,
				"element": "C" 
			},
			{
				"x": -1.4117467454,
				"y": -0.0070919122,
				"z": -1.3477749309,
				"element": "C" 
			},
			{
				"x": -1.9613230418,
				"y": 0.7563414875,
				"z": -2.379607318,
				"element": "C" 
			},
			{
				"x": -1.2957058017,
				"y": 0.9478408926,
				"z": -3.5980582936,
				"element": "C" 
			},
			{
				"x": -0.0454784174,
				"y": 0.3621473837,
				"z": -3.8042449459,
				"element": "C" 
			},
			{
				"x": 0.6956914393,
				"y": 0.4783030571,
				"z": -4.9469019857,
				"element": "O" 
			},
			{
				"x": 0.1653671347,
				"y": 1.2518174738,
				"z": -6.0093347448,
				"element": "C" 
			},
			{
				"x": 0.5265066514,
				"y": -0.4079284325,
				"z": -2.7795560309,
				"element": "C" 
			},
			{
				"x": -0.1470856395,
				"y": -0.5821143781,
				"z": -1.5802666638,
				"element": "C" 
			},
			{
				"x": 2.2028636759,
				"y": 0.8443822545,
				"z": 6.1123126326,
				"element": "H" 
			},
			{
				"x": 0.6110740254,
				"y": 0.0510793297,
				"z": 5.9745863377,
				"element": "H" 
			},
			{
				"x": 2.0237250134,
				"y": -0.621581391,
				"z": 5.1118192722,
				"element": "H" 
			},
			{
				"x": -0.0092356984,
				"y": -1.2311926816,
				"z": 4.107202536,
				"element": "H" 
			},
			{
				"x": -1.4397949621,
				"y": -1.8275974627,
				"z": 2.2317243909,
				"element": "H" 
			},
			{
				"x": -0.6909852236,
				"y": 1.9898536694,
				"z": 0.4104502564,
				"element": "H" 
			},
			{
				"x": 0.7484573277,
				"y": 2.6057925204,
				"z": 2.3269354083,
				"element": "H" 
			},
			{
				"x": -1.7382341482,
				"y": -2.4494789337,
				"z": -0.0811561765,
				"element": "H" 
			},
			{
				"x": -3.2198466783,
				"y": -1.9476357957,
				"z": -0.9009852917,
				"element": "H" 
			},
			{
				"x": -3.174779185,
				"y": -2.0120293793,
				"z": 0.8654435618,
				"element": "H" 
			},
			{
				"x": -4.1520499371,
				"y": 0.3610468294,
				"z": -0.6218905791,
				"element": "H" 
			},
			{
				"x": -3.8646956881,
				"y": 0.3830008681,
				"z": 1.1226229815,
				"element": "H" 
			},
			{
				"x": -3.1787585602,
				"y": 1.6545076569,
				"z": 0.1067087388,
				"element": "H" 
			},
			{
				"x": -2.931044794,
				"y": 1.2259399892,
				"z": -2.2557954254,
				"element": "H" 
			},
			{
				"x": -1.7643648427,
				"y": 1.552616108,
				"z": -4.3656782902,
				"element": "H" 
			},
			{
				"x": 0.9056250295,
				"y": 1.2147138876,
				"z": -6.8103857996,
				"element": "H" 
			},
			{
				"x": -0.7839526271,
				"y": 0.840629761,
				"z": -6.3774257618,
				"element": "H" 
			},
			{
				"x": 0.0086736127,
				"y": 2.2972642037,
				"z": -5.7123242603,
				"element": "H" 
			},
			{
				"x": 1.5021308729,
				"y": -0.8527454925,
				"z": -2.947964042,
				"element": "H" 
			},
			{
				"x": 0.3229583519,
				"y": -1.1676372125,
				"z": -0.7951042801,
				"element": "H" 
			}
		],
		 "valence_orbital": [ 
			{
				"type": "occ",
				"energy": -0.30071,
				"method": "rhf"
			},
			{
				"type": "occ",
				"energy": -0.24489,
				"method": "rhf"
			},
			{
				"type": "occ",
				"energy": -0.24083,
				"method": "rhf"
			},
			{
				"type": "occ",
				"energy": -0.21441,
				"method": "rhf"
			},
			{
				"type": "occ",
				"energy": -0.2025,
				"method": "rhf"
			},
			{
				"type": "unocc",
				"energy": 0.00054,
				"method": "rhf"
			},
			{
				"type": "unocc",
				"energy": 0.00966,
				"method": "rhf"
			},
			{
				"type": "unocc",
				"energy": 0.01571,
				"method": "rhf"
			},
			{
				"type": "unocc",
				"energy": 0.02299,
				"method": "rhf"
			},
			{
				"type": "unocc",
				"energy": 0.0925,
				"method": "rhf"
			}
		],
		"cosmo_sigma_profile": { 
			"-0.025": 0.0,
			"-0.024": 0.0,
			"-0.023": 0.0,
			"-0.022": 0.0,
			"-0.021": 0.0,
			"-0.02": 0.0,
			"-0.019": 0.0,
			"-0.018": 0.0,
			"-0.017": 0.0,
			"-0.016": 0.0,
			"-0.015": 0.0,
			"-0.014": 0.0,
			"-0.013": 0.0,
			"-0.012": 0.0,
			"-0.011": 0.0,
			"-0.01": 0.0,
			"-0.009": 0.0,
			"-0.008": 0.0,
			"-0.007": 0.0,
			"-0.006": 6.9218665247,
			"-0.005": 26.9258940355,
			"-0.004": 32.3401860069,
			"-0.003": 43.2871817691,
			"-0.002": 33.6065678588,
			"-0.001": 24.7460572918,
			"0.0": 23.1972775232,
			"0.001": 22.4393850623,
			"0.002": 15.6468555993,
			"0.003": 16.5098692191,
			"0.004": 19.8735743618,
			"0.005": 20.805845941,
			"0.006": 17.8041430818,
			"0.007": 5.51742895185,
			"0.008": 2.4333057471,
			"0.009": 1.97868583999,
			"0.01": 3.66497599533,
			"0.011": 1.67777349438,
			"0.012": 0.0,
			"0.013": 0.0,
			"0.014": 0.0,
			"0.015": 0.0,
			"0.016": 0.0,
			"0.017": 0.0,
			"0.018": 0.0,
			"0.019": 0.0,
			"0.02": 0.0,
			"0.021": 0.0,
			"0.022": 0.0,
			"0.023": 0.0,
			"0.024": 0.0,
			"0.025": 0.0
		}
	}
}
