{
	 "smiles": "OC(=O)C1=C2C=CC=CC2=NC(=C1)C1=CC=CS1", 
	 "Tm": 473.15, 
	 "num_atms": 27, 
	 "gaussian": { 
		 "optdone": 1, 
		 "sigma_profile": "yes", 
		 "theory": "DFT", 
		 "functional": "B3LYP", 
		 "basiset": "6-31G**", 
		 "properties": { 
			 "R2extent": 6172.2707, 
			 "electric_dipole_moment_norm": 1.29046431179, 
			 "electric_quadrupole_moment_norm": 15.8972273954, 
			 "total_energy": -1142.31233662, 
			 "HOMO_LUMO_gap": 0.13434, 
			 "cosmo_polarized_energy": -11.49, 
			 "cosmo_cavitation_energy": 33.36, 
			 "cosmo_dispersion_energy": -25.2, 
			 "cosmo_repulsion_energy": 1.85, 
			 "cosmo_total_nonelectrostatic_energy": 10.01, 
			 "SMD_solvation_energy": 5.49 
		},
		"coords": [
			{
				"x": 2.3176006696,
				"y": -2.2529918951,
				"z": 0.8064157507,
				"element": "O" 
			},
			{
				"x": 2.1264893445,
				"y": -0.9884746628,
				"z": 1.2489634436,
				"element": "C" 
			},
			{
				"x": 2.9338206527,
				"y": -0.4517923243,
				"z": 1.9813061212,
				"element": "O" 
			},
			{
				"x": 0.8585262021,
				"y": -0.33013596,
				"z": 0.7874099292,
				"element": "C" 
			},
			{
				"x": -0.0747605719,
				"y": -0.8359903352,
				"z": -0.180413742,
				"element": "C" 
			},
			{
				"x": 0.0369185141,
				"y": -2.0555138956,
				"z": -0.9026755915,
				"element": "C" 
			},
			{
				"x": -0.9276984541,
				"y": -2.4284001306,
				"z": -1.8144847268,
				"element": "C" 
			},
			{
				"x": -2.055672655,
				"y": -1.6107960218,
				"z": -2.0584829233,
				"element": "C" 
			},
			{
				"x": -2.1972164576,
				"y": -0.4229756052,
				"z": -1.3826169067,
				"element": "C" 
			},
			{
				"x": -1.2216508086,
				"y": -0.0028453427,
				"z": -0.4366668951,
				"element": "C" 
			},
			{
				"x": -1.4416456469,
				"y": 1.1883109441,
				"z": 0.1770724482,
				"element": "N" 
			},
			{
				"x": -0.5577826389,
				"y": 1.6312115403,
				"z": 1.0610529781,
				"element": "C" 
			},
			{
				"x": 0.6095031238,
				"y": 0.8881891323,
				"z": 1.3842206075,
				"element": "C" 
			},
			{
				"x": -0.8454811786,
				"y": 2.9250833585,
				"z": 1.6893365362,
				"element": "C" 
			},
			{
				"x": -1.9373188908,
				"y": 3.7312800984,
				"z": 1.4550505821,
				"element": "C" 
			},
			{
				"x": -1.9306875001,
				"y": 4.9273351447,
				"z": 2.2227763827,
				"element": "C" 
			},
			{
				"x": -0.8342847188,
				"y": 5.0277218037,
				"z": 3.0386600816,
				"element": "C" 
			},
			{
				"x": 0.2103140833,
				"y": 3.6571648041,
				"z": 2.8804622972,
				"element": "S" 
			},
			{
				"x": 3.1638707736,
				"y": -2.5361786738,
				"z": 1.1924460255,
				"element": "H" 
			},
			{
				"x": 0.8892287855,
				"y": -2.6965204015,
				"z": -0.7322775317,
				"element": "H" 
			},
			{
				"x": -0.8175432831,
				"y": -3.3651503162,
				"z": -2.3530738684,
				"element": "H" 
			},
			{
				"x": -2.8046765521,
				"y": -1.9234846892,
				"z": -2.7801359631,
				"element": "H" 
			},
			{
				"x": -3.0450412331,
				"y": 0.2346284688,
				"z": -1.5424242558,
				"element": "H" 
			},
			{
				"x": 1.3277579479,
				"y": 1.2601999231,
				"z": 2.1060358688,
				"element": "H" 
			},
			{
				"x": -2.7071630851,
				"y": 3.4502884401,
				"z": 0.7477545272,
				"element": "H" 
			},
			{
				"x": -2.7065682337,
				"y": 5.6827190463,
				"z": 2.1726193494,
				"element": "H" 
			},
			{
				"x": -0.576038189,
				"y": 5.8237175494,
				"z": 3.7233694754,
				"element": "H" 
			}
		],
		 "valence_orbital": [ 
			{
				"type": "occ",
				"energy": -0.27309,
				"method": "rhf"
			},
			{
				"type": "occ",
				"energy": -0.26361,
				"method": "rhf"
			},
			{
				"type": "occ",
				"energy": -0.2548,
				"method": "rhf"
			},
			{
				"type": "occ",
				"energy": -0.24109,
				"method": "rhf"
			},
			{
				"type": "occ",
				"energy": -0.21647,
				"method": "rhf"
			},
			{
				"type": "unocc",
				"energy": -0.08213,
				"method": "rhf"
			},
			{
				"type": "unocc",
				"energy": -0.04328,
				"method": "rhf"
			},
			{
				"type": "unocc",
				"energy": -0.00867,
				"method": "rhf"
			},
			{
				"type": "unocc",
				"energy": 0.00723,
				"method": "rhf"
			},
			{
				"type": "unocc",
				"energy": 0.02818,
				"method": "rhf"
			}
		],
		"cosmo_sigma_profile": { 
			"-0.025": 0.0,
			"-0.024": 0.0,
			"-0.023": 0.0,
			"-0.022": 0.0,
			"-0.021": 0.0,
			"-0.02": 0.0,
			"-0.019": 0.404540754482,
			"-0.018": 0.830023337198,
			"-0.017": 1.00169890535,
			"-0.016": 0.82903874632,
			"-0.015": 0.639479119714,
			"-0.014": 0.174147613939,
			"-0.013": 0.540060940424,
			"-0.012": 1.23871196798,
			"-0.011": 1.24110101653,
			"-0.01": 0.379781448459,
			"-0.009": 1.97921202666,
			"-0.008": 2.99330301732,
			"-0.007": 4.57239450045,
			"-0.006": 11.7672580623,
			"-0.005": 14.8672781678,
			"-0.004": 17.9624627722,
			"-0.003": 16.5335722234,
			"-0.002": 15.9407855107,
			"-0.001": 20.5649894491,
			"0.0": 24.6871150698,
			"0.001": 22.0173999497,
			"0.002": 25.2244018079,
			"0.003": 29.8485385015,
			"0.004": 26.0485797809,
			"0.005": 6.71133246834,
			"0.006": 4.44907299789,
			"0.007": 3.02749149372,
			"0.008": 2.26413084808,
			"0.009": 4.26225964063,
			"0.01": 3.05809528728,
			"0.011": 4.8701804133,
			"0.012": 0.736143347716,
			"0.013": 0.0,
			"0.014": 0.0,
			"0.015": 0.0,
			"0.016": 0.0,
			"0.017": 0.0,
			"0.018": 0.0,
			"0.019": 0.0,
			"0.02": 0.0,
			"0.021": 0.0,
			"0.022": 0.0,
			"0.023": 0.0,
			"0.024": 0.0,
			"0.0": 0.0
		}
	}
}
