{
	 "smiles": "[O-][N+](=O)C1=C(F)C=C2CCC(=O)NC2=C1", 
	 "Tm": 428.15, 
	 "num_atms": 22, 
	 "gaussian": { 
		 "optdone": 1, 
		 "sigma_profile": "yes", 
		 "theory": "DFT", 
		 "functional": "B3LYP", 
		 "basiset": "6-31G**", 
		 "properties": { 
			 "R2extent": 3819.3414, 
			 "electric_dipole_moment_norm": 4.19346696064, 
			 "electric_quadrupole_moment_norm": 23.0918786364, 
			 "total_energy": -782.102568359, 
			 "HOMO_LUMO_gap": 0.14698, 
			 "cosmo_polarized_energy": -17.06, 
			 "cosmo_cavitation_energy": 27.3, 
			 "cosmo_dispersion_energy": -20.24, 
			 "cosmo_repulsion_energy": 1.55, 
			 "cosmo_total_nonelectrostatic_energy": 8.61, 
			 "SMD_solvation_energy": 7.56 
		},
		"coords": [
			{
				"x": 4.0289475369,
				"y": 1.7813256723,
				"z": -1.0403744589,
				"element": "O" 
			},
			{
				"x": 3.1627471954,
				"y": 1.1827884659,
				"z": -1.6708907931,
				"element": "N" 
			},
			{
				"x": 3.2926644541,
				"y": 0.7663750317,
				"z": -2.8238100953,
				"element": "O" 
			},
			{
				"x": 1.8724630821,
				"y": 0.9371617819,
				"z": -1.0143012156,
				"element": "C" 
			},
			{
				"x": 1.5855467811,
				"y": 1.3944223738,
				"z": 0.277951489,
				"element": "C" 
			},
			{
				"x": 2.4585714929,
				"y": 2.0918795483,
				"z": 1.0077703275,
				"element": "F" 
			},
			{
				"x": 0.3390732028,
				"y": 1.1255883021,
				"z": 0.839857121,
				"element": "C" 
			},
			{
				"x": -0.6299671448,
				"y": 0.4139965469,
				"z": 0.1407046287,
				"element": "C" 
			},
			{
				"x": -2.0135835649,
				"y": 0.1525741675,
				"z": 0.6832611962,
				"element": "C" 
			},
			{
				"x": -2.5456384151,
				"y": -1.2061178251,
				"z": 0.2032270822,
				"element": "C" 
			},
			{
				"x": -2.4150492631,
				"y": -1.3886419286,
				"z": -1.3021084253,
				"element": "C" 
			},
			{
				"x": -3.1886647577,
				"y": -2.0377061229,
				"z": -1.9829784999,
				"element": "O" 
			},
			{
				"x": -1.3019655765,
				"y": -0.7795878087,
				"z": -1.8600735484,
				"element": "N" 
			},
			{
				"x": -0.3275756227,
				"y": -0.0585067693,
				"z": -1.1549673652,
				"element": "C" 
			},
			{
				"x": 0.9147473597,
				"y": 0.2063261868,
				"z": -1.7226495492,
				"element": "C" 
			},
			{
				"x": 0.1413539976,
				"y": 1.4990356458,
				"z": 1.8394381068,
				"element": "H" 
			},
			{
				"x": -2.6851653126,
				"y": 0.9481356259,
				"z": 0.3293558602,
				"element": "H" 
			},
			{
				"x": -2.0168933381,
				"y": 0.205182205,
				"z": 1.7759001809,
				"element": "H" 
			},
			{
				"x": -1.9805098136,
				"y": -2.0199811968,
				"z": 0.6773061294,
				"element": "H" 
			},
			{
				"x": -3.5964972536,
				"y": -1.3483978548,
				"z": 0.4613769,
				"element": "H" 
			},
			{
				"x": -1.1558751069,
				"y": -0.9766240024,
				"z": -2.8422109841,
				"element": "H" 
			},
			{
				"x": 1.1753700671,
				"y": -0.1424280454,
				"z": -2.7146840869,
				"element": "H" 
			}
		],
		 "valence_orbital": [ 
			{
				"type": "occ",
				"energy": -0.31165,
				"method": "rhf"
			},
			{
				"type": "occ",
				"energy": -0.29433,
				"method": "rhf"
			},
			{
				"type": "occ",
				"energy": -0.29168,
				"method": "rhf"
			},
			{
				"type": "occ",
				"energy": -0.27158,
				"method": "rhf"
			},
			{
				"type": "occ",
				"energy": -0.24305,
				"method": "rhf"
			},
			{
				"type": "unocc",
				"energy": -0.09607,
				"method": "rhf"
			},
			{
				"type": "unocc",
				"energy": -0.03604,
				"method": "rhf"
			},
			{
				"type": "unocc",
				"energy": -0.01998,
				"method": "rhf"
			},
			{
				"type": "unocc",
				"energy": 0.01983,
				"method": "rhf"
			},
			{
				"type": "unocc",
				"energy": 0.05698,
				"method": "rhf"
			}
		],
		"cosmo_sigma_profile": { 
			"-0.025": 0.0,
			"-0.024": 0.0,
			"-0.023": 0.0,
			"-0.022": 0.0,
			"-0.021": 0.0,
			"-0.02": 0.0,
			"-0.019": 0.0,
			"-0.018": 0.0,
			"-0.017": 0.0,
			"-0.016": 0.301504290084,
			"-0.015": 1.26991542849,
			"-0.014": 1.67986267601,
			"-0.013": 1.33030633399,
			"-0.012": 0.820373743612,
			"-0.011": 0.98848361069,
			"-0.01": 1.48293781275,
			"-0.009": 2.05056261235,
			"-0.008": 3.61315848898,
			"-0.007": 7.28113135254,
			"-0.006": 14.9905834963,
			"-0.005": 16.7622650486,
			"-0.004": 15.3888546879,
			"-0.003": 16.1264671008,
			"-0.002": 16.5843310066,
			"-0.001": 17.5103839238,
			"0.0": 17.2421927369,
			"0.001": 8.75116278775,
			"0.002": 5.99910300176,
			"0.003": 9.17945701051,
			"0.004": 6.28118234993,
			"0.005": 4.60709951349,
			"0.006": 5.35884990812,
			"0.007": 9.50041401926,
			"0.008": 10.4859522809,
			"0.009": 6.06916827441,
			"0.01": 4.05913052918,
			"0.011": 1.95338187002,
			"0.012": 3.73291860243,
			"0.013": 5.24324463217,
			"0.014": 1.57243764351,
			"0.015": 0.0283731212139,
			"0.016": 0.0,
			"0.017": 0.0,
			"0.018": 0.0,
			"0.019": 0.0,
			"0.02": 0.0,
			"0.021": 0.0,
			"0.022": 0.0,
			"0.023": 0.0,
			"0.024": 0.0,
			"0.025": 0.0
		}
	}
}
