{
	 "smiles": "CC(=O)C1CC[C@@]2(C)[C@H](C1)CC(=O)C1C3CCC(=O)[C@@]3(C)CCC21", 
	 "Tm": 510.15, 
	 "num_atms": 54, 
	 "gaussian": { 
		 "optdone": 1, 
		 "sigma_profile": "yes", 
		 "theory": "DFT", 
		 "functional": "B3LYP", 
		 "basiset": "6-31G**", 
		 "properties": { 
			 "R2extent": 10408.2448, 
			 "electric_dipole_moment_norm": 2.55546074711, 
			 "electric_quadrupole_moment_norm": 31.136205083, 
			 "total_energy": -1044.0059151, 
			 "HOMO_LUMO_gap": 0.20977, 
			 "cosmo_polarized_energy": -18.86, 
			 "cosmo_cavitation_energy": 47.8, 
			 "cosmo_dispersion_energy": -32.91, 
			 "cosmo_repulsion_energy": 2.42, 
			 "cosmo_total_nonelectrostatic_energy": 17.31, 
			 "SMD_solvation_energy": 8.41 
		},
		"coords": [
			{
				"x": 4.4640860681,
				"y": -6.0645052528,
				"z": -0.0488676589,
				"element": "C" 
			},
			{
				"x": 3.1680984769,
				"y": -5.5706087881,
				"z": -0.664218847,
				"element": "C" 
			},
			{
				"x": 2.3352343472,
				"y": -6.3406771697,
				"z": -1.1071126656,
				"element": "O" 
			},
			{
				"x": 2.9359808359,
				"y": -4.0571614779,
				"z": -0.6803655264,
				"element": "C" 
			},
			{
				"x": 2.2221329056,
				"y": -3.6057229731,
				"z": -1.965317216,
				"element": "C" 
			},
			{
				"x": 1.8555602917,
				"y": -2.1143509603,
				"z": -1.9307343378,
				"element": "C" 
			},
			{
				"x": 1.0031631273,
				"y": -1.6991015284,
				"z": -0.7001789946,
				"element": "C" 
			},
			{
				"x": -0.3846590025,
				"y": -2.3722714126,
				"z": -0.7995110232,
				"element": "C" 
			},
			{
				"x": 1.7704394105,
				"y": -2.1632971814,
				"z": 0.5745878844,
				"element": "C" 
			},
			{
				"x": 2.109903179,
				"y": -3.6629703303,
				"z": 0.5693522612,
				"element": "C" 
			},
			{
				"x": 1.0420570201,
				"y": -1.7453696847,
				"z": 1.864891516,
				"element": "C" 
			},
			{
				"x": 0.8646436545,
				"y": -0.2389138778,
				"z": 1.9327617172,
				"element": "C" 
			},
			{
				"x": 1.1195971341,
				"y": 0.3828494169,
				"z": 2.950430887,
				"element": "O" 
			},
			{
				"x": 0.3742997961,
				"y": 0.4824744471,
				"z": 0.6746633568,
				"element": "C" 
			},
			{
				"x": -1.1661185344,
				"y": 0.7084777656,
				"z": 0.7205997439,
				"element": "C" 
			},
			{
				"x": -1.5941365603,
				"y": 1.5365535917,
				"z": 1.9816595417,
				"element": "C" 
			},
			{
				"x": -2.5899198871,
				"y": 2.6033482345,
				"z": 1.5010713336,
				"element": "C" 
			},
			{
				"x": -2.2373656053,
				"y": 2.8167918165,
				"z": 0.0354423789,
				"element": "C" 
			},
			{
				"x": -2.3803700723,
				"y": 3.8404968084,
				"z": -0.5987695597,
				"element": "O" 
			},
			{
				"x": -1.666737606,
				"y": 1.5048600296,
				"z": -0.5351817306,
				"element": "C" 
			},
			{
				"x": -2.8585965971,
				"y": 0.7865553716,
				"z": -1.2140943172,
				"element": "C" 
			},
			{
				"x": -0.5444869633,
				"y": 1.7846219235,
				"z": -1.5553235569,
				"element": "C" 
			},
			{
				"x": 0.2398861305,
				"y": 0.5102781656,
				"z": -1.8940706382,
				"element": "C" 
			},
			{
				"x": 0.9250013498,
				"y": -0.1339882148,
				"z": -0.6532148303,
				"element": "C" 
			},
			{
				"x": 4.4447911785,
				"y": -7.1509941538,
				"z": 0.0472000776,
				"element": "H" 
			},
			{
				"x": 4.6354365466,
				"y": -5.6032696923,
				"z": 0.9304200794,
				"element": "H" 
			},
			{
				"x": 5.3073162615,
				"y": -5.7716600271,
				"z": -0.6868700161,
				"element": "H" 
			},
			{
				"x": 3.9097048578,
				"y": -3.551263672,
				"z": -0.6081919407,
				"element": "H" 
			},
			{
				"x": 1.3352789576,
				"y": -4.231389548,
				"z": -2.1042121114,
				"element": "H" 
			},
			{
				"x": 2.8658263256,
				"y": -3.8001891446,
				"z": -2.8316531056,
				"element": "H" 
			},
			{
				"x": 1.3281500609,
				"y": -1.8514300255,
				"z": -2.8550413719,
				"element": "H" 
			},
			{
				"x": 2.7818595536,
				"y": -1.5218379313,
				"z": -1.9266157842,
				"element": "H" 
			},
			{
				"x": -0.3034181055,
				"y": -3.4615126071,
				"z": -0.8089267974,
				"element": "H" 
			},
			{
				"x": -0.893220455,
				"y": -2.091383822,
				"z": -1.7259465433,
				"element": "H" 
			},
			{
				"x": -1.0466058837,
				"y": -2.1076189305,
				"z": 0.027413851,
				"element": "H" 
			},
			{
				"x": 2.732828628,
				"y": -1.6263495768,
				"z": 0.5639736525,
				"element": "H" 
			},
			{
				"x": 1.195219716,
				"y": -4.2671401603,
				"z": 0.5977414211,
				"element": "H" 
			},
			{
				"x": 2.6689774474,
				"y": -3.9053920595,
				"z": 1.4821383524,
				"element": "H" 
			},
			{
				"x": 0.0540788159,
				"y": -2.2235930216,
				"z": 1.9121299956,
				"element": "H" 
			},
			{
				"x": 1.5914002662,
				"y": -2.0545038374,
				"z": 2.7591585126,
				"element": "H" 
			},
			{
				"x": 0.814249151,
				"y": 1.4826176969,
				"z": 0.76258129,
				"element": "H" 
			},
			{
				"x": -1.6728783016,
				"y": -0.2612124563,
				"z": 0.7456626117,
				"element": "H" 
			},
			{
				"x": -0.7139874971,
				"y": 2.0147887994,
				"z": 2.4196872973,
				"element": "H" 
			},
			{
				"x": -2.0107657238,
				"y": 0.8948767104,
				"z": 2.7622560501,
				"element": "H" 
			},
			{
				"x": -3.625355047,
				"y": 2.2370219584,
				"z": 1.5415183961,
				"element": "H" 
			},
			{
				"x": -2.5586098095,
				"y": 3.5438762032,
				"z": 2.055674109,
				"element": "H" 
			},
			{
				"x": -3.66297031,
				"y": 0.5837403933,
				"z": -0.4986596724,
				"element": "H" 
			},
			{
				"x": -2.5513370852,
				"y": -0.1741844384,
				"z": -1.6377049279,
				"element": "H" 
			},
			{
				"x": -3.2686306975,
				"y": 1.4042647937,
				"z": -2.0191858111,
				"element": "H" 
			},
			{
				"x": -0.9825752718,
				"y": 2.2179626184,
				"z": -2.4597458094,
				"element": "H" 
			},
			{
				"x": 0.133222774,
				"y": 2.5501018228,
				"z": -1.1589953887,
				"element": "H" 
			},
			{
				"x": 0.9951619112,
				"y": 0.7386119014,
				"z": -2.6532944959,
				"element": "H" 
			},
			{
				"x": -0.4438689878,
				"y": -0.2023411072,
				"z": -2.3656623739,
				"element": "H" 
			},
			{
				"x": 1.9767278249,
				"y": 0.1847345945,
				"z": -0.6758492648,
				"element": "H" 
			}
		],
		 "valence_orbital": [ 
			{
				"type": "occ",
				"energy": -0.29705,
				"method": "rhf"
			},
			{
				"type": "occ",
				"energy": -0.29442,
				"method": "rhf"
			},
			{
				"type": "occ",
				"energy": -0.2479,
				"method": "rhf"
			},
			{
				"type": "occ",
				"energy": -0.2396,
				"method": "rhf"
			},
			{
				"type": "occ",
				"energy": -0.23368,
				"method": "rhf"
			},
			{
				"type": "unocc",
				"energy": -0.02391,
				"method": "rhf"
			},
			{
				"type": "unocc",
				"energy": -0.01732,
				"method": "rhf"
			},
			{
				"type": "unocc",
				"energy": -0.01431,
				"method": "rhf"
			},
			{
				"type": "unocc",
				"energy": 0.05604,
				"method": "rhf"
			},
			{
				"type": "unocc",
				"energy": 0.06881,
				"method": "rhf"
			}
		],
		"cosmo_sigma_profile": { 
			"-0.025": 0.0,
			"-0.024": 0.0,
			"-0.023": 0.0,
			"-0.022": 0.0,
			"-0.021": 0.0,
			"-0.02": 0.0,
			"-0.019": 0.0,
			"-0.018": 0.0,
			"-0.017": 0.0,
			"-0.016": 0.0,
			"-0.015": 0.0,
			"-0.014": 0.0,
			"-0.013": 0.0,
			"-0.012": 0.0117481333239,
			"-0.011": 0.154176309739,
			"-0.01": 0.0256438359455,
			"-0.009": 0.279919906301,
			"-0.008": 0.607843579679,
			"-0.007": 1.75254960073,
			"-0.006": 9.38916041512,
			"-0.005": 21.8186348789,
			"-0.004": 34.4163343458,
			"-0.003": 60.190381631,
			"-0.002": 55.1446594229,
			"-0.001": 47.504604683,
			"0.0": 36.8859257506,
			"0.001": 19.0629825989,
			"0.002": 8.95452045106,
			"0.003": 6.06941445602,
			"0.004": 5.74526726135,
			"0.005": 5.32835159059,
			"0.006": 4.33750312564,
			"0.007": 4.42974287041,
			"0.008": 5.78085160286,
			"0.009": 4.50411321632,
			"0.01": 5.80513892766,
			"0.011": 7.6179524979,
			"0.012": 13.1180765769,
			"0.013": 8.18458301528,
			"0.014": 0.983329224105,
			"0.015": 0.0,
			"0.016": 0.0,
			"0.017": 0.0,
			"0.018": 0.0,
			"0.019": 0.0,
			"0.02": 0.0,
			"0.021": 0.0,
			"0.022": 0.0,
			"0.023": 0.0,
			"0.024": 0.0,
			"0.025": 0.0
		}
	}
}
