{
	 "smiles": "BrC1=CC=C2CCC3=C2C1=CC=C3", 
	 "Tm": 325.15, 
	 "num_atms": 22, 
	 "gaussian": { 
		 "optdone": 1, 
		 "sigma_profile": "yes", 
		 "theory": "DFT", 
		 "functional": "B3LYP", 
		 "basiset": "6-31G**", 
		 "properties": { 
			 "R2extent": 4858.6986, 
			 "electric_dipole_moment_norm": 2.74956355264, 
			 "electric_quadrupole_moment_norm": 8.37562208078, 
			 "total_energy": -3034.12263209, 
			 "HOMO_LUMO_gap": 0.16716, 
			 "cosmo_polarized_energy": -4.81, 
			 "cosmo_cavitation_energy": 26.78, 
			 "cosmo_dispersion_energy": -20.7, 
			 "cosmo_repulsion_energy": 1.61, 
			 "cosmo_total_nonelectrostatic_energy": 7.69, 
			 "SMD_solvation_energy": 2.6 
		},
		"coords": [
			{
				"x": -4.3792721662,
				"y": 0.4657444655,
				"z": -1.6977657606,
				"element": "Br" 
			},
			{
				"x": -2.5656066865,
				"y": -0.1416662047,
				"z": -1.8093593044,
				"element": "C" 
			},
			{
				"x": -2.1969183345,
				"y": -0.9386207907,
				"z": -2.8755574102,
				"element": "C" 
			},
			{
				"x": -0.869220283,
				"y": -1.423278378,
				"z": -3.0195311558,
				"element": "C" 
			},
			{
				"x": 0.0701714431,
				"y": -1.0878657189,
				"z": -2.0704924219,
				"element": "C" 
			},
			{
				"x": 1.5426625566,
				"y": -1.4276971204,
				"z": -1.9241858765,
				"element": "C" 
			},
			{
				"x": 1.9918898901,
				"y": -0.7084223568,
				"z": -0.6041662423,
				"element": "C" 
			},
			{
				"x": 0.742471296,
				"y": -0.0106091288,
				"z": -0.094167638,
				"element": "C" 
			},
			{
				"x": -0.3217292488,
				"y": -0.2725468513,
				"z": -0.9863541506,
				"element": "C" 
			},
			{
				"x": -1.6331370698,
				"y": 0.2333686899,
				"z": -0.8019805021,
				"element": "C" 
			},
			{
				"x": -1.8453736667,
				"y": 1.0384587245,
				"z": 0.3483100797,
				"element": "C" 
			},
			{
				"x": -0.8003474364,
				"y": 1.291606924,
				"z": 1.2180841232,
				"element": "C" 
			},
			{
				"x": 0.5075607923,
				"y": 0.7734471432,
				"z": 1.0130698822,
				"element": "C" 
			},
			{
				"x": -2.941108549,
				"y": -1.1995121093,
				"z": -3.6200412034,
				"element": "H" 
			},
			{
				"x": -0.6247247091,
				"y": -2.0472766058,
				"z": -3.8745670994,
				"element": "H" 
			},
			{
				"x": 2.1215751262,
				"y": -1.0790327864,
				"z": -2.7868739749,
				"element": "H" 
			},
			{
				"x": 1.6994622088,
				"y": -2.510576016,
				"z": -1.8631907833,
				"element": "H" 
			},
			{
				"x": 2.8002565509,
				"y": 0.0067708377,
				"z": -0.7937574702,
				"element": "H" 
			},
			{
				"x": 2.3778053707,
				"y": -1.4246518082,
				"z": 0.1299882428,
				"element": "H" 
			},
			{
				"x": -2.8301264172,
				"y": 1.451221269,
				"z": 0.5377352598,
				"element": "H" 
			},
			{
				"x": -0.9844971832,
				"y": 1.91020577,
				"z": 2.0922633439,
				"element": "H" 
			},
			{
				"x": 1.2948065157,
				"y": 1.0017320515,
				"z": 1.7264400619,
				"element": "H" 
			}
		],
		 "valence_orbital": [ 
			{
				"type": "occ",
				"energy": -0.30424,
				"method": "rhf"
			},
			{
				"type": "occ",
				"energy": -0.28145,
				"method": "rhf"
			},
			{
				"type": "occ",
				"energy": -0.26261,
				"method": "rhf"
			},
			{
				"type": "occ",
				"energy": -0.24785,
				"method": "rhf"
			},
			{
				"type": "occ",
				"energy": -0.20707,
				"method": "rhf"
			},
			{
				"type": "unocc",
				"energy": -0.03991,
				"method": "rhf"
			},
			{
				"type": "unocc",
				"energy": -0.01504,
				"method": "rhf"
			},
			{
				"type": "unocc",
				"energy": 0.01551,
				"method": "rhf"
			},
			{
				"type": "unocc",
				"energy": 0.02679,
				"method": "rhf"
			},
			{
				"type": "unocc",
				"energy": 0.09019,
				"method": "rhf"
			}
		],
		"cosmo_sigma_profile": { 
			"-0.025": 0.0,
			"-0.024": 0.0,
			"-0.023": 0.0,
			"-0.022": 0.0,
			"-0.021": 0.0,
			"-0.02": 0.0,
			"-0.019": 0.0,
			"-0.018": 0.0,
			"-0.017": 0.0,
			"-0.016": 0.0,
			"-0.015": 0.0,
			"-0.014": 0.0,
			"-0.013": 0.0,
			"-0.012": 0.0,
			"-0.011": 0.0,
			"-0.01": 0.0,
			"-0.009": 0.0,
			"-0.008": 0.0,
			"-0.007": 0.763264523833,
			"-0.006": 6.07338237172,
			"-0.005": 12.4369280651,
			"-0.004": 20.5527594286,
			"-0.003": 22.7437812062,
			"-0.002": 20.9302750622,
			"-0.001": 18.6919389853,
			"0.0": 14.7086058513,
			"0.001": 12.7272017243,
			"0.002": 19.0775457012,
			"0.003": 28.9163057965,
			"0.004": 23.5342548123,
			"0.005": 15.6195575373,
			"0.006": 0.823359528114,
			"0.007": 0.0,
			"0.008": 0.0,
			"0.009": 0.0,
			"0.01": 0.0,
			"0.011": 0.0,
			"0.012": 0.0,
			"0.013": 0.0,
			"0.014": 0.0,
			"0.015": 0.0,
			"0.016": 0.0,
			"0.017": 0.0,
			"0.018": 0.0,
			"0.019": 0.0,
			"0.02": 0.0,
			"0.021": 0.0,
			"0.022": 0.0,
			"0.023": 0.0,
			"0.024": 0.0,
			"0.025": 0.0
		}
	}
}
