{
	 "smiles": "CCC1(CCCCN(C)C1=O)C1=CC(O)=CC=C1", 
	 "Tm": 447.15, 
	 "num_atms": 39, 
	 "gaussian": { 
		 "optdone": 1, 
		 "sigma_profile": "yes", 
		 "theory": "DFT", 
		 "functional": "B3LYP", 
		 "basiset": "6-31G**", 
		 "properties": { 
			 "R2extent": 5326.3389, 
			 "electric_dipole_moment_norm": 3.73721652303, 
			 "electric_quadrupole_moment_norm": 11.0935123897, 
			 "total_energy": -789.463687485, 
			 "HOMO_LUMO_gap": 0.21395, 
			 "cosmo_polarized_energy": -14.51, 
			 "cosmo_cavitation_energy": 37.41, 
			 "cosmo_dispersion_energy": -26.29, 
			 "cosmo_repulsion_energy": 2.02, 
			 "cosmo_total_nonelectrostatic_energy": 13.14, 
			 "SMD_solvation_energy": 6.57 
		},
		"coords": [
			{
				"x": -1.047510965,
				"y": -0.0392404297,
				"z": -3.095129144,
				"element": "C" 
			},
			{
				"x": -1.6574603481,
				"y": 0.1086874295,
				"z": -1.6965699667,
				"element": "C" 
			},
			{
				"x": -1.0224385578,
				"y": -0.7651951198,
				"z": -0.5642945638,
				"element": "C" 
			},
			{
				"x": -1.1285000229,
				"y": -2.2815104235,
				"z": -0.9777345595,
				"element": "C" 
			},
			{
				"x": 0.1771882094,
				"y": -2.9742115664,
				"z": -1.4083315874,
				"element": "C" 
			},
			{
				"x": 1.013830335,
				"y": -3.4125329433,
				"z": -0.1933524112,
				"element": "C" 
			},
			{
				"x": 0.9914633881,
				"y": -2.3382127078,
				"z": 0.9028765994,
				"element": "C" 
			},
			{
				"x": 1.3149959778,
				"y": -1.0123765637,
				"z": 0.3839711634,
				"element": "N" 
			},
			{
				"x": 2.681621912,
				"y": -0.5376342119,
				"z": 0.5696602058,
				"element": "C" 
			},
			{
				"x": 0.4398062058,
				"y": -0.2514298312,
				"z": -0.349570978,
				"element": "C" 
			},
			{
				"x": 0.7739870414,
				"y": 0.8492869957,
				"z": -0.7892337716,
				"element": "O" 
			},
			{
				"x": -1.8271013608,
				"y": -0.455158099,
				"z": 0.7205928359,
				"element": "C" 
			},
			{
				"x": -3.0253190806,
				"y": -1.1344500387,
				"z": 0.9932566959,
				"element": "C" 
			},
			{
				"x": -3.7983667584,
				"y": -0.8161115324,
				"z": 2.1138928505,
				"element": "C" 
			},
			{
				"x": -4.968219023,
				"y": -1.4645821326,
				"z": 2.4012965179,
				"element": "O" 
			},
			{
				"x": -3.3896682086,
				"y": 0.193381822,
				"z": 2.9899103644,
				"element": "C" 
			},
			{
				"x": -2.2119657159,
				"y": 0.8807332257,
				"z": 2.7145168883,
				"element": "C" 
			},
			{
				"x": -1.4378548399,
				"y": 0.5717501668,
				"z": 1.5933452127,
				"element": "C" 
			},
			{
				"x": -1.1156364361,
				"y": -1.0632831488,
				"z": -3.4786617533,
				"element": "H" 
			},
			{
				"x": -1.5834520571,
				"y": 0.6041208705,
				"z": -3.8011873466,
				"element": "H" 
			},
			{
				"x": 0.0009785174,
				"y": 0.2658138742,
				"z": -3.0961547513,
				"element": "H" 
			},
			{
				"x": -2.7231306641,
				"y": -0.1498439903,
				"z": -1.7305739572,
				"element": "H" 
			},
			{
				"x": -1.5913119977,
				"y": 1.1547046798,
				"z": -1.3901331018,
				"element": "H" 
			},
			{
				"x": -1.8527641461,
				"y": -2.3532933656,
				"z": -1.7948935122,
				"element": "H" 
			},
			{
				"x": -1.5546085104,
				"y": -2.8642095528,
				"z": -0.1549153411,
				"element": "H" 
			},
			{
				"x": -0.0611947157,
				"y": -3.8513625892,
				"z": -2.0206180545,
				"element": "H" 
			},
			{
				"x": 0.764594297,
				"y": -2.3082876835,
				"z": -2.049856767,
				"element": "H" 
			},
			{
				"x": 0.6079598064,
				"y": -4.3413776741,
				"z": 0.2284586664,
				"element": "H" 
			},
			{
				"x": 2.0450221663,
				"y": -3.6272302927,
				"z": -0.4980856345,
				"element": "H" 
			},
			{
				"x": 1.7111203239,
				"y": -2.5714113585,
				"z": 1.693201401,
				"element": "H" 
			},
			{
				"x": 0.0093519315,
				"y": -2.3052674324,
				"z": 1.3841752379,
				"element": "H" 
			},
			{
				"x": 3.4018144833,
				"y": -1.2553108724,
				"z": 0.1579916524,
				"element": "H" 
			},
			{
				"x": 2.9001166625,
				"y": -0.4011783611,
				"z": 1.6358723528,
				"element": "H" 
			},
			{
				"x": 2.7860793426,
				"y": 0.4156166739,
				"z": 0.0548607777,
				"element": "H" 
			},
			{
				"x": -3.3797911965,
				"y": -1.9139243427,
				"z": 0.3230567023,
				"element": "H" 
			},
			{
				"x": -5.1393528258,
				"y": -2.1246689317,
				"z": 1.7172195291,
				"element": "H" 
			},
			{
				"x": -3.9998258656,
				"y": 0.4231240483,
				"z": 3.8568615339,
				"element": "H" 
			},
			{
				"x": -1.8896733074,
				"y": 1.6749852153,
				"z": 3.3821260296,
				"element": "H" 
			},
			{
				"x": -0.5395839969,
				"y": 1.1440901943,
				"z": 1.3916539842,
				"element": "H" 
			}
		],
		 "valence_orbital": [ 
			{
				"type": "occ",
				"energy": -0.3084,
				"method": "rhf"
			},
			{
				"type": "occ",
				"energy": -0.24532,
				"method": "rhf"
			},
			{
				"type": "occ",
				"energy": -0.23774,
				"method": "rhf"
			},
			{
				"type": "occ",
				"energy": -0.23357,
				"method": "rhf"
			},
			{
				"type": "occ",
				"energy": -0.21649,
				"method": "rhf"
			},
			{
				"type": "unocc",
				"energy": -0.00254,
				"method": "rhf"
			},
			{
				"type": "unocc",
				"energy": 0.01512,
				"method": "rhf"
			},
			{
				"type": "unocc",
				"energy": 0.02847,
				"method": "rhf"
			},
			{
				"type": "unocc",
				"energy": 0.06968,
				"method": "rhf"
			},
			{
				"type": "unocc",
				"energy": 0.07712,
				"method": "rhf"
			}
		],
		"cosmo_sigma_profile": { 
			"-0.025": 0.0,
			"-0.024": 0.0,
			"-0.023": 0.0,
			"-0.022": 0.0,
			"-0.021": 0.0,
			"-0.02": 0.0,
			"-0.019": 0.0,
			"-0.018": 0.084828206647,
			"-0.017": 0.934932067866,
			"-0.016": 1.43459163805,
			"-0.015": 0.663594634816,
			"-0.014": 1.59586090274,
			"-0.013": 0.771275730783,
			"-0.012": 0.685254612989,
			"-0.011": 1.18927912549,
			"-0.01": 0.665671854267,
			"-0.009": 1.21628957509,
			"-0.008": 1.13341788211,
			"-0.007": 1.19413859473,
			"-0.006": 3.29163075205,
			"-0.005": 10.1793062777,
			"-0.004": 19.9962688195,
			"-0.003": 36.2139899796,
			"-0.002": 36.8645199443,
			"-0.001": 36.6809379108,
			"0.0": 29.8176071447,
			"0.001": 21.3930284613,
			"0.002": 14.3841618723,
			"0.003": 12.9476750231,
			"0.004": 13.3881554917,
			"0.005": 11.8589036853,
			"0.006": 8.95833657033,
			"0.007": 3.36992094171,
			"0.008": 3.97004932986,
			"0.009": 2.24962130097,
			"0.01": 2.52459681956,
			"0.011": 3.89716095348,
			"0.012": 2.90871416305,
			"0.013": 1.35546784322,
			"0.014": 3.35272551187,
			"0.015": 0.630549972034,
			"0.016": 0.0,
			"0.017": 0.0,
			"0.018": 0.0,
			"0.019": 0.0,
			"0.02": 0.0,
			"0.021": 0.0,
			"0.022": 0.0,
			"0.023": 0.0,
			"0.024": 0.0,
			"0.025": 0.0
		}
	}
}
