{
	 "smiles": "COC1=C(C=CC=C1)C(NC(=O)OC(C)(C)C)C(O)=O", 
	 "Tm": 420.15, 
	 "num_atms": 39, 
	 "gaussian": { 
		 "optdone": 1, 
		 "sigma_profile": "yes", 
		 "theory": "DFT", 
		 "functional": "B3LYP", 
		 "basiset": "6-31G**", 
		 "properties": { 
			 "R2extent": 6828.0651, 
			 "electric_dipole_moment_norm": 3.49568773348, 
			 "electric_quadrupole_moment_norm": 32.1142769202, 
			 "total_energy": -975.849808773, 
			 "HOMO_LUMO_gap": 0.21683, 
			 "cosmo_polarized_energy": -18.76, 
			 "cosmo_cavitation_energy": 42.04, 
			 "cosmo_dispersion_energy": -27.48, 
			 "cosmo_repulsion_energy": 2.16, 
			 "cosmo_total_nonelectrostatic_energy": 16.73, 
			 "SMD_solvation_energy": 10.35 
		},
		"coords": [
			{
				"x": -0.8559157679,
				"y": -0.7481646894,
				"z": -4.6890676919,
				"element": "C" 
			},
			{
				"x": -0.1564784805,
				"y": -0.6049420593,
				"z": -3.4577826346,
				"element": "O" 
			},
			{
				"x": 0.668461117,
				"y": 0.479283532,
				"z": -3.2915891787,
				"element": "C" 
			},
			{
				"x": 1.4529079498,
				"y": 0.4572737613,
				"z": -2.1210748586,
				"element": "C" 
			},
			{
				"x": 2.3013509469,
				"y": 1.5320592038,
				"z": -1.8660807924,
				"element": "C" 
			},
			{
				"x": 2.3879779751,
				"y": 2.6130995665,
				"z": -2.7482675278,
				"element": "C" 
			},
			{
				"x": 1.6103390563,
				"y": 2.6156023055,
				"z": -3.9022246922,
				"element": "C" 
			},
			{
				"x": 0.7462694845,
				"y": 1.5515795539,
				"z": -4.1811333612,
				"element": "C" 
			},
			{
				"x": 1.36263834,
				"y": -0.7203219051,
				"z": -1.1723822903,
				"element": "C" 
			},
			{
				"x": 0.0141876531,
				"y": -0.935574021,
				"z": -0.6229639894,
				"element": "N" 
			},
			{
				"x": -0.4244615464,
				"y": -0.427949353,
				"z": 0.595775103,
				"element": "C" 
			},
			{
				"x": -1.6070603204,
				"y": -0.2959581641,
				"z": 0.8516335572,
				"element": "O" 
			},
			{
				"x": 0.6115614434,
				"y": -0.1733870844,
				"z": 1.4170638956,
				"element": "O" 
			},
			{
				"x": 0.3894611379,
				"y": 0.3211161008,
				"z": 2.7921415384,
				"element": "C" 
			},
			{
				"x": 1.816413247,
				"y": 0.4630420366,
				"z": 3.3261728806,
				"element": "C" 
			},
			{
				"x": -0.3947502518,
				"y": -0.7198570694,
				"z": 3.596451587,
				"element": "C" 
			},
			{
				"x": -0.3162962983,
				"y": 1.6796261771,
				"z": 2.7480479791,
				"element": "C" 
			},
			{
				"x": 1.8937268286,
				"y": -2.0264608229,
				"z": -1.8178797239,
				"element": "C" 
			},
			{
				"x": 1.2687623543,
				"y": -3.1447911731,
				"z": -1.4061593905,
				"element": "O" 
			},
			{
				"x": 2.8308444064,
				"y": -2.0472648046,
				"z": -2.5753833428,
				"element": "O" 
			},
			{
				"x": -0.1623097976,
				"y": -0.7584418859,
				"z": -5.5373412448,
				"element": "H" 
			},
			{
				"x": -1.5921994886,
				"y": 0.0528661348,
				"z": -4.8278499593,
				"element": "H" 
			},
			{
				"x": -1.3723965904,
				"y": -1.7069832512,
				"z": -4.6315578504,
				"element": "H" 
			},
			{
				"x": 2.9113826777,
				"y": 1.5167913689,
				"z": -0.9668536135,
				"element": "H" 
			},
			{
				"x": 3.0587701039,
				"y": 3.4389287455,
				"z": -2.5342075792,
				"element": "H" 
			},
			{
				"x": 1.6671276104,
				"y": 3.4473050527,
				"z": -4.5983733377,
				"element": "H" 
			},
			{
				"x": 0.1459082224,
				"y": 1.5690518065,
				"z": -5.082845116,
				"element": "H" 
			},
			{
				"x": 2.019263819,
				"y": -0.5324253609,
				"z": -0.3198191593,
				"element": "H" 
			},
			{
				"x": -0.722391471,
				"y": -0.9065922281,
				"z": -1.3199277244,
				"element": "H" 
			},
			{
				"x": 1.7947822254,
				"y": 0.8252289626,
				"z": 4.3581116933,
				"element": "H" 
			},
			{
				"x": 2.3347891857,
				"y": -0.4999940758,
				"z": 3.3085040682,
				"element": "H" 
			},
			{
				"x": 2.3872828843,
				"y": 1.1750349048,
				"z": 2.7228671143,
				"element": "H" 
			},
			{
				"x": -1.404301074,
				"y": -0.8399808936,
				"z": 3.2028606595,
				"element": "H" 
			},
			{
				"x": -0.4588613095,
				"y": -0.4004551356,
				"z": 4.6415487153,
				"element": "H" 
			},
			{
				"x": 0.116746517,
				"y": -1.687172607,
				"z": 3.5688488056,
				"element": "H" 
			},
			{
				"x": 0.2461972913,
				"y": 2.3807696095,
				"z": 2.1235291848,
				"element": "H" 
			},
			{
				"x": -1.3272480657,
				"y": 1.5841512582,
				"z": 2.3515706168,
				"element": "H" 
			},
			{
				"x": -0.3710299215,
				"y": 2.094680192,
				"z": 3.7595357708,
				"element": "H" 
			},
			{
				"x": 0.5339479059,
				"y": -2.8576736885,
				"z": -0.8294981102,
				"element": "H" 
			}
		],
		 "valence_orbital": [ 
			{
				"type": "occ",
				"energy": -0.29089,
				"method": "rhf"
			},
			{
				"type": "occ",
				"energy": -0.2794,
				"method": "rhf"
			},
			{
				"type": "occ",
				"energy": -0.25625,
				"method": "rhf"
			},
			{
				"type": "occ",
				"energy": -0.25017,
				"method": "rhf"
			},
			{
				"type": "occ",
				"energy": -0.23034,
				"method": "rhf"
			},
			{
				"type": "unocc",
				"energy": -0.01351,
				"method": "rhf"
			},
			{
				"type": "unocc",
				"energy": 0.00125,
				"method": "rhf"
			},
			{
				"type": "unocc",
				"energy": 0.02044,
				"method": "rhf"
			},
			{
				"type": "unocc",
				"energy": 0.03587,
				"method": "rhf"
			},
			{
				"type": "unocc",
				"energy": 0.0744,
				"method": "rhf"
			}
		],
		"cosmo_sigma_profile": { 
			"-0.025": 0.0,
			"-0.024": 0.0,
			"-0.023": 0.0,
			"-0.022": 0.0,
			"-0.021": 0.0,
			"-0.02": 0.0,
			"-0.019": 0.0,
			"-0.018": 0.0,
			"-0.017": 0.0,
			"-0.016": 0.0,
			"-0.015": 0.0,
			"-0.014": 0.278855077598,
			"-0.013": 0.713785959957,
			"-0.012": 1.03191231145,
			"-0.011": 0.709879580178,
			"-0.01": 1.26364335582,
			"-0.009": 3.21058358868,
			"-0.008": 3.84110487805,
			"-0.007": 5.91774977717,
			"-0.006": 18.0092598024,
			"-0.005": 20.7765313548,
			"-0.004": 31.2464511716,
			"-0.003": 32.8086526675,
			"-0.002": 27.6227725885,
			"-0.001": 27.9935698458,
			"0.0": 35.1064901742,
			"0.001": 21.6230098903,
			"0.002": 12.0727503462,
			"0.003": 13.0976736892,
			"0.004": 12.6075290286,
			"0.005": 12.5867639832,
			"0.006": 6.55095506076,
			"0.007": 4.94145657029,
			"0.008": 5.42972092837,
			"0.009": 4.72925904465,
			"0.01": 7.03414560499,
			"0.011": 6.4155399049,
			"0.012": 8.41009223788,
			"0.013": 4.83392376781,
			"0.014": 0.196163536231,
			"0.015": 0.0,
			"0.016": 0.0,
			"0.017": 0.0,
			"0.018": 0.0,
			"0.019": 0.0,
			"0.02": 0.0,
			"0.021": 0.0,
			"0.022": 0.0,
			"0.023": 0.0,
			"0.024": 0.0,
			"0.025": 0.0
		}
	}
}
