{
	 "smiles": "CC(=N/C1=C(O)C=CC(C)=C1)C1=C(O)C2=CC=CC=C2N(C2=CC=CC=C2)C1=O", 
	 "Tm": 525.15, 
	 "num_atms": 49, 
	 "gaussian": { 
		 "optdone": 1, 
		 "sigma_profile": "yes", 
		 "theory": "DFT", 
		 "functional": "B3LYP", 
		 "basiset": "6-31G**", 
		 "properties": { 
			 "R2extent": 14765.7894, 
			 "electric_dipole_moment_norm": 3.13346209487, 
			 "electric_quadrupole_moment_norm": 19.2464138654, 
			 "total_energy": -1261.82206731, 
			 "HOMO_LUMO_gap": 0.13441, 
			 "cosmo_polarized_energy": -15.58, 
			 "cosmo_cavitation_energy": 52.09, 
			 "cosmo_dispersion_energy": -36.31, 
			 "cosmo_repulsion_energy": 2.69, 
			 "cosmo_total_nonelectrostatic_energy": 18.47, 
			 "SMD_solvation_energy": 9.43 
		},
		"coords": [
			{
				"x": -1.383945127,
				"y": 0.555641529,
				"z": 1.8726015866,
				"element": "C" 
			},
			{
				"x": -1.2240168003,
				"y": 1.0499090919,
				"z": 0.4581628035,
				"element": "C" 
			},
			{
				"x": -2.0636942893,
				"y": 1.9031592714,
				"z": -0.0846128415,
				"element": "N" 
			},
			{
				"x": -3.2719529859,
				"y": 2.3589488237,
				"z": 0.4886026887,
				"element": "C" 
			},
			{
				"x": -3.4950923862,
				"y": 3.751121802,
				"z": 0.4679100773,
				"element": "C" 
			},
			{
				"x": -2.5420507496,
				"y": 4.6148967063,
				"z": 0.0187086778,
				"element": "O" 
			},
			{
				"x": -4.7053948957,
				"y": 4.2653725778,
				"z": 0.9340828623,
				"element": "C" 
			},
			{
				"x": -5.6975568243,
				"y": 3.4047680986,
				"z": 1.3971896908,
				"element": "C" 
			},
			{
				"x": -5.5128613129,
				"y": 2.0144383714,
				"z": 1.404313368,
				"element": "C" 
			},
			{
				"x": -6.6141280985,
				"y": 1.085052888,
				"z": 1.8610160597,
				"element": "C" 
			},
			{
				"x": -4.2924330475,
				"y": 1.5118725843,
				"z": 0.9438763776,
				"element": "C" 
			},
			{
				"x": -0.0875419954,
				"y": 0.6383024715,
				"z": -0.3709857099,
				"element": "C" 
			},
			{
				"x": 0.0645335373,
				"y": 1.1718150238,
				"z": -1.6628253563,
				"element": "C" 
			},
			{
				"x": -0.7904361209,
				"y": 2.0323784601,
				"z": -2.1716557455,
				"element": "O" 
			},
			{
				"x": 1.1830539531,
				"y": 0.7980991405,
				"z": -2.5013106796,
				"element": "C" 
			},
			{
				"x": 1.3365636325,
				"y": 1.3444130367,
				"z": -3.7901623386,
				"element": "C" 
			},
			{
				"x": 2.412605373,
				"y": 0.9888739659,
				"z": -4.5849285915,
				"element": "C" 
			},
			{
				"x": 3.3555871504,
				"y": 0.0738133019,
				"z": -4.0916222351,
				"element": "C" 
			},
			{
				"x": 3.2262269056,
				"y": -0.4791879564,
				"z": -2.825488364,
				"element": "C" 
			},
			{
				"x": 2.1336986428,
				"y": -0.1245972339,
				"z": -2.0090049013,
				"element": "C" 
			},
			{
				"x": 1.9645056349,
				"y": -0.6605975696,
				"z": -0.7353197659,
				"element": "N" 
			},
			{
				"x": 2.916649761,
				"y": -1.6198948695,
				"z": -0.2247749343,
				"element": "C" 
			},
			{
				"x": 4.0285104637,
				"y": -1.1766074385,
				"z": 0.4927570023,
				"element": "C" 
			},
			{
				"x": 4.95516331,
				"y": -2.1029135697,
				"z": 0.9725733213,
				"element": "C" 
			},
			{
				"x": 4.7697627981,
				"y": -3.4664643196,
				"z": 0.7357449576,
				"element": "C" 
			},
			{
				"x": 3.6542353217,
				"y": -3.9043025574,
				"z": 0.0188281767,
				"element": "C" 
			},
			{
				"x": 2.7250926098,
				"y": -2.9816916334,
				"z": -0.4628541867,
				"element": "C" 
			},
			{
				"x": 0.8827546843,
				"y": -0.344248738,
				"z": 0.1236539771,
				"element": "C" 
			},
			{
				"x": 0.8240864168,
				"y": -0.9082980401,
				"z": 1.214177281,
				"element": "O" 
			},
			{
				"x": -2.1696403055,
				"y": 1.1125798179,
				"z": 2.3824546909,
				"element": "H" 
			},
			{
				"x": -1.6202969221,
				"y": -0.5118824811,
				"z": 1.8910178735,
				"element": "H" 
			},
			{
				"x": -0.4378018312,
				"y": 0.6468175484,
				"z": 2.4067290605,
				"element": "H" 
			},
			{
				"x": -1.7709809056,
				"y": 4.0901211648,
				"z": -0.2455174643,
				"element": "H" 
			},
			{
				"x": -4.8492568652,
				"y": 5.3408708433,
				"z": 0.9254837926,
				"element": "H" 
			},
			{
				"x": -6.6351804947,
				"y": 3.8218198353,
				"z": 1.7559679952,
				"element": "H" 
			},
			{
				"x": -7.3627795637,
				"y": 0.9305280619,
				"z": 1.0736681126,
				"element": "H" 
			},
			{
				"x": -7.1414853617,
				"y": 1.4883758369,
				"z": 2.7317492271,
				"element": "H" 
			},
			{
				"x": -6.2210302889,
				"y": 0.1013610133,
				"z": 2.1342810375,
				"element": "H" 
			},
			{
				"x": -4.1282235042,
				"y": 0.4383504482,
				"z": 0.9145748574,
				"element": "H" 
			},
			{
				"x": -1.5317712819,
				"y": 2.1390299003,
				"z": -1.4224403489,
				"element": "H" 
			},
			{
				"x": 0.5888064857,
				"y": 2.0483774831,
				"z": -4.1367306933,
				"element": "H" 
			},
			{
				"x": 2.5263379974,
				"y": 1.4126518704,
				"z": -5.5773728466,
				"element": "H" 
			},
			{
				"x": 4.2046944198,
				"y": -0.212106102,
				"z": -4.7058963405,
				"element": "H" 
			},
			{
				"x": 3.9621360078,
				"y": -1.1843231173,
				"z": -2.4611971752,
				"element": "H" 
			},
			{
				"x": 4.1575295112,
				"y": -0.1142653748,
				"z": 0.6740137334,
				"element": "H" 
			},
			{
				"x": 5.8193859679,
				"y": -1.7589139372,
				"z": 1.5329563335,
				"element": "H" 
			},
			{
				"x": 5.4914298107,
				"y": -4.186179224,
				"z": 1.1107908063,
				"element": "H" 
			},
			{
				"x": 3.5045681786,
				"y": -4.9642690596,
				"z": -0.1637207409,
				"element": "H" 
			},
			{
				"x": 1.8507333841,
				"y": -3.3086177462,
				"z": -1.0165651689,
				"element": "H" 
			}
		],
		 "valence_orbital": [ 
			{
				"type": "occ",
				"energy": -0.24939,
				"method": "rhf"
			},
			{
				"type": "occ",
				"energy": -0.24526,
				"method": "rhf"
			},
			{
				"type": "occ",
				"energy": -0.23081,
				"method": "rhf"
			},
			{
				"type": "occ",
				"energy": -0.22202,
				"method": "rhf"
			},
			{
				"type": "occ",
				"energy": -0.20256,
				"method": "rhf"
			},
			{
				"type": "unocc",
				"energy": -0.06815,
				"method": "rhf"
			},
			{
				"type": "unocc",
				"energy": -0.02173,
				"method": "rhf"
			},
			{
				"type": "unocc",
				"energy": -0.01401,
				"method": "rhf"
			},
			{
				"type": "unocc",
				"energy": -0.0113,
				"method": "rhf"
			},
			{
				"type": "unocc",
				"energy": -0.00178,
				"method": "rhf"
			}
		],
		"cosmo_sigma_profile": { 
			"-0.025": 0.0,
			"-0.024": 0.0,
			"-0.023": 0.0,
			"-0.022": 0.0,
			"-0.021": 0.0,
			"-0.02": 0.0,
			"-0.019": 0.0,
			"-0.018": 0.0,
			"-0.017": 0.0,
			"-0.016": 0.0,
			"-0.015": 0.0,
			"-0.014": 0.0442275460249,
			"-0.013": 0.431060039128,
			"-0.012": 0.800864057105,
			"-0.011": 0.874721410023,
			"-0.01": 0.998702131164,
			"-0.009": 2.17519953106,
			"-0.008": 1.35423762159,
			"-0.007": 5.22840449888,
			"-0.006": 19.361611532,
			"-0.005": 27.7601246337,
			"-0.004": 36.855828214,
			"-0.003": 33.9991891479,
			"-0.002": 37.1960006861,
			"-0.001": 40.0593187164,
			"0.0": 39.9655757911,
			"0.001": 30.3782903802,
			"0.002": 28.4727782004,
			"0.003": 27.4728071162,
			"0.004": 28.0827272409,
			"0.005": 15.0196932407,
			"0.006": 9.7834709788,
			"0.007": 6.53472766372,
			"0.008": 4.80443364666,
			"0.009": 4.08269137284,
			"0.01": 2.90475589315,
			"0.011": 4.62166638644,
			"0.012": 2.78876441631,
			"0.013": 2.74190581787,
			"0.014": 2.20434858691,
			"0.015": 0.110610905937,
			"0.016": 0.0,
			"0.017": 0.0,
			"0.018": 0.0,
			"0.019": 0.0,
			"0.02": 0.0,
			"0.021": 0.0,
			"0.022": 0.0,
			"0.023": 0.0,
			"0.024": 0.0,
			"0.025": 0.0
		}
	}
}
