{
	 "smiles": "CC1=C(C=NN1C1=CC=CC=C1)C(Cl)=O", 
	 "Tm": 421.15, 
	 "num_atms": 24, 
	 "gaussian": { 
		 "optdone": 1, 
		 "sigma_profile": "yes", 
		 "theory": "DFT", 
		 "functional": "B3LYP", 
		 "basiset": "6-31G**", 
		 "properties": { 
			 "R2extent": 4717.4484, 
			 "electric_dipole_moment_norm": 5.75448323484, 
			 "electric_quadrupole_moment_norm": 11.498264596, 
			 "total_energy": -1069.50702699, 
			 "HOMO_LUMO_gap": 0.19644, 
			 "cosmo_polarized_energy": -10.21, 
			 "cosmo_cavitation_energy": 30.29, 
			 "cosmo_dispersion_energy": -21.92, 
			 "cosmo_repulsion_energy": 1.7, 
			 "cosmo_total_nonelectrostatic_energy": 10.07, 
			 "SMD_solvation_energy": 5.15 
		},
		"coords": [
			{
				"x": -0.0518953422,
				"y": -1.1944740967,
				"z": -1.8730536775,
				"element": "C" 
			},
			{
				"x": 0.6488322081,
				"y": 0.0417731558,
				"z": -1.4046721763,
				"element": "C" 
			},
			{
				"x": 1.8701800539,
				"y": 0.6261092194,
				"z": -1.7766484082,
				"element": "C" 
			},
			{
				"x": 2.0380451714,
				"y": 1.7279524386,
				"z": -0.8909928458,
				"element": "C" 
			},
			{
				"x": 1.0295298491,
				"y": 1.8456360224,
				"z": -0.0545374336,
				"element": "N" 
			},
			{
				"x": 0.1820247418,
				"y": 0.8160691742,
				"z": -0.3835542518,
				"element": "N" 
			},
			{
				"x": -1.0250296335,
				"y": 0.6824091665,
				"z": 0.3695193401,
				"element": "C" 
			},
			{
				"x": -0.9575787015,
				"y": 0.7645923907,
				"z": 1.7635479078,
				"element": "C" 
			},
			{
				"x": -2.1276921339,
				"y": 0.6587929983,
				"z": 2.5123294859,
				"element": "C" 
			},
			{
				"x": -3.3576900763,
				"y": 0.4673249313,
				"z": 1.877621624,
				"element": "C" 
			},
			{
				"x": -3.4173072749,
				"y": 0.3972837931,
				"z": 0.4852539334,
				"element": "C" 
			},
			{
				"x": -2.2534478128,
				"y": 0.515126434,
				"z": -0.2757590512,
				"element": "C" 
			},
			{
				"x": 2.8603957036,
				"y": 0.3219110501,
				"z": -2.7917535887,
				"element": "C" 
			},
			{
				"x": 2.4161740938,
				"y": -1.0431819799,
				"z": -3.9514448781,
				"element": "Cl" 
			},
			{
				"x": 3.905921559,
				"y": 0.8810749908,
				"z": -2.9489150183,
				"element": "O" 
			},
			{
				"x": 0.6702528174,
				"y": -1.9951409266,
				"z": -2.0364881054,
				"element": "H" 
			},
			{
				"x": -0.5633661029,
				"y": -1.0288746565,
				"z": -2.8271180105,
				"element": "H" 
			},
			{
				"x": -0.7889379609,
				"y": -1.5242183792,
				"z": -1.1393133111,
				"element": "H" 
			},
			{
				"x": 2.8647314218,
				"y": 2.424136652,
				"z": -0.8670639707,
				"element": "H" 
			},
			{
				"x": 0.0044025723,
				"y": 0.9193762968,
				"z": 2.2382390554,
				"element": "H" 
			},
			{
				"x": -2.0771618978,
				"y": 0.7223662612,
				"z": 3.5950058651,
				"element": "H" 
			},
			{
				"x": -4.2662094952,
				"y": 0.3814603562,
				"z": 2.4658352558,
				"element": "H" 
			},
			{
				"x": -4.3718841217,
				"y": 0.2668282193,
				"z": -0.0152316257,
				"element": "H" 
			},
			{
				"x": -2.3009896385,
				"y": 0.5006664883,
				"z": -1.3592061145,
				"element": "H" 
			}
		],
		 "valence_orbital": [ 
			{
				"type": "occ",
				"energy": -0.30062,
				"method": "rhf"
			},
			{
				"type": "occ",
				"energy": -0.28663,
				"method": "rhf"
			},
			{
				"type": "occ",
				"energy": -0.27346,
				"method": "rhf"
			},
			{
				"type": "occ",
				"energy": -0.26664,
				"method": "rhf"
			},
			{
				"type": "occ",
				"energy": -0.25451,
				"method": "rhf"
			},
			{
				"type": "unocc",
				"energy": -0.05807,
				"method": "rhf"
			},
			{
				"type": "unocc",
				"energy": -0.02793,
				"method": "rhf"
			},
			{
				"type": "unocc",
				"energy": -0.02419,
				"method": "rhf"
			},
			{
				"type": "unocc",
				"energy": 0.01081,
				"method": "rhf"
			},
			{
				"type": "unocc",
				"energy": 0.02237,
				"method": "rhf"
			}
		],
		"cosmo_sigma_profile": { 
			"-0.025": 0.0,
			"-0.024": 0.0,
			"-0.023": 0.0,
			"-0.022": 0.0,
			"-0.021": 0.0,
			"-0.02": 0.0,
			"-0.019": 0.0,
			"-0.018": 0.0,
			"-0.017": 0.0,
			"-0.016": 0.0,
			"-0.015": 0.0,
			"-0.014": 0.0,
			"-0.013": 0.0,
			"-0.012": 0.0,
			"-0.011": 0.0,
			"-0.01": 0.0,
			"-0.009": 0.594776173341,
			"-0.008": 2.14070723838,
			"-0.007": 7.36007376055,
			"-0.006": 14.1535787393,
			"-0.005": 18.1023167531,
			"-0.004": 19.5887293089,
			"-0.003": 20.5684135052,
			"-0.002": 20.860828622,
			"-0.001": 18.6161188125,
			"0.0": 17.2968250013,
			"0.001": 18.8773353277,
			"0.002": 14.8969105714,
			"0.003": 16.0637204123,
			"0.004": 19.2989884228,
			"0.005": 10.4355253534,
			"0.006": 5.90496513992,
			"0.007": 4.09073580051,
			"0.008": 4.62160492034,
			"0.009": 6.23265806701,
			"0.01": 2.68202259331,
			"0.011": 1.11897531797,
			"0.012": 1.18639295677,
			"0.013": 0.663583976181,
			"0.014": 0.339617576909,
			"0.015": 0.0,
			"0.016": 0.0,
			"0.017": 0.0,
			"0.018": 0.0,
			"0.019": 0.0,
			"0.02": 0.0,
			"0.021": 0.0,
			"0.022": 0.0,
			"0.023": 0.0,
			"0.024": 0.0,
			"0.025": 0.0
		}
	}
}
