{
	 "smiles": "OC(=O)C1=C(N(N=C1)C1=CC=C(C=C1)[N+]([O-])=O)C(F)(F)F", 
	 "Tm": 476.15, 
	 "num_atms": 27, 
	 "gaussian": { 
		 "optdone": 1, 
		 "sigma_profile": "yes", 
		 "theory": "DFT", 
		 "functional": "B3LYP", 
		 "basiset": "6-31G**", 
		 "properties": { 
			 "R2extent": 7278.0819, 
			 "electric_dipole_moment_norm": 1.50332283958, 
			 "electric_quadrupole_moment_norm": 47.4236579239, 
			 "total_energy": -1187.33550169, 
			 "HOMO_LUMO_gap": 0.17053, 
			 "cosmo_polarized_energy": -17.89, 
			 "cosmo_cavitation_energy": 34.49, 
			 "cosmo_dispersion_energy": -24.52, 
			 "cosmo_repulsion_energy": 1.78, 
			 "cosmo_total_nonelectrostatic_energy": 11.75, 
			 "SMD_solvation_energy": 9.64 
		},
		"coords": [
			{
				"x": 0.1181376104,
				"y": 4.6953250011,
				"z": -1.5917862191,
				"element": "O" 
			},
			{
				"x": 0.2725296948,
				"y": 4.4382404389,
				"z": -0.2806923999,
				"element": "C" 
			},
			{
				"x": 0.3226333834,
				"y": 5.3457712074,
				"z": 0.5185022402,
				"element": "O" 
			},
			{
				"x": 0.352696695,
				"y": 3.0228048678,
				"z": 0.2029825281,
				"element": "C" 
			},
			{
				"x": 0.2612591454,
				"y": 1.7432747975,
				"z": -0.3516858633,
				"element": "C" 
			},
			{
				"x": 0.356509931,
				"y": 0.8531906949,
				"z": 0.6921606424,
				"element": "N" 
			},
			{
				"x": 0.5348714788,
				"y": 1.490359446,
				"z": 1.8779048658,
				"element": "N" 
			},
			{
				"x": 0.5270489032,
				"y": 2.7782498127,
				"z": 1.5878995503,
				"element": "C" 
			},
			{
				"x": 0.2733733978,
				"y": -0.5737728367,
				"z": 0.7241209884,
				"element": "C" 
			},
			{
				"x": 1.1940452832,
				"y": -1.2657434365,
				"z": 1.5189056243,
				"element": "C" 
			},
			{
				"x": 1.1170689269,
				"y": -2.6505177389,
				"z": 1.6107002241,
				"element": "C" 
			},
			{
				"x": 0.1185660752,
				"y": -3.3165569409,
				"z": 0.9026391812,
				"element": "C" 
			},
			{
				"x": -0.8106491725,
				"y": -2.6383746537,
				"z": 0.1179455929,
				"element": "C" 
			},
			{
				"x": -0.7383153573,
				"y": -1.2515740803,
				"z": 0.036267587,
				"element": "C" 
			},
			{
				"x": 0.037992354,
				"y": -4.7847511134,
				"z": 0.9926223474,
				"element": "N" 
			},
			{
				"x": 0.8673559666,
				"y": -5.3559454902,
				"z": 1.6980185849,
				"element": "O" 
			},
			{
				"x": -0.8528241225,
				"y": -5.3440985676,
				"z": 0.3556376621,
				"element": "O" 
			},
			{
				"x": 0.1180341496,
				"y": 1.2827716339,
				"z": -1.7714726427,
				"element": "C" 
			},
			{
				"x": 0.8074753619,
				"y": 0.1596929982,
				"z": -2.016703694,
				"element": "F" 
			},
			{
				"x": -1.168921666,
				"y": 1.0630496496,
				"z": -2.1161346046,
				"element": "F" 
			},
			{
				"x": 0.5922757749,
				"y": 2.2219088056,
				"z": -2.6402045886,
				"element": "F" 
			},
			{
				"x": 0.1809553307,
				"y": 3.8922380297,
				"z": -2.1273321719,
				"element": "H" 
			},
			{
				"x": 0.6385696458,
				"y": 3.5281235065,
				"z": 2.3572288593,
				"element": "H" 
			},
			{
				"x": 1.9517666598,
				"y": -0.7122934261,
				"z": 2.0597805674,
				"element": "H" 
			},
			{
				"x": 1.8152058888,
				"y": -3.2187038443,
				"z": 2.2121032825,
				"element": "H" 
			},
			{
				"x": -1.5800137746,
				"y": -3.1960910783,
				"z": -0.4005556333,
				"element": "H" 
			},
			{
				"x": -1.4676475643,
				"y": -0.704877683,
				"z": -0.5480525111,
				"element": "H" 
			}
		],
		 "valence_orbital": [ 
			{
				"type": "occ",
				"energy": -0.3057,
				"method": "rhf"
			},
			{
				"type": "occ",
				"energy": -0.30514,
				"method": "rhf"
			},
			{
				"type": "occ",
				"energy": -0.3008,
				"method": "rhf"
			},
			{
				"type": "occ",
				"energy": -0.28978,
				"method": "rhf"
			},
			{
				"type": "occ",
				"energy": -0.28029,
				"method": "rhf"
			},
			{
				"type": "unocc",
				"energy": -0.10976,
				"method": "rhf"
			},
			{
				"type": "unocc",
				"energy": -0.0697,
				"method": "rhf"
			},
			{
				"type": "unocc",
				"energy": -0.05036,
				"method": "rhf"
			},
			{
				"type": "unocc",
				"energy": -0.02555,
				"method": "rhf"
			},
			{
				"type": "unocc",
				"energy": -0.00958,
				"method": "rhf"
			}
		],
		"cosmo_sigma_profile": { 
			"-0.025": 0.0,
			"-0.024": 0.0,
			"-0.023": 0.0,
			"-0.022": 0.0,
			"-0.021": 0.0,
			"-0.02": 0.0,
			"-0.019": 0.0,
			"-0.018": 0.0029416315653,
			"-0.017": 0.104063924247,
			"-0.016": 0.0949019221875,
			"-0.015": 0.319727731005,
			"-0.014": 0.272346342989,
			"-0.013": 0.386510638683,
			"-0.012": 1.4601719787,
			"-0.011": 1.2196734185,
			"-0.01": 1.39716885196,
			"-0.009": 4.31740261253,
			"-0.008": 10.9219832991,
			"-0.007": 12.1231117685,
			"-0.006": 13.0674826453,
			"-0.005": 13.4517291956,
			"-0.004": 15.1099148628,
			"-0.003": 17.1678305062,
			"-0.002": 22.3450216763,
			"-0.001": 27.2887023624,
			"0.0": 29.1786996239,
			"0.001": 24.6884383474,
			"0.002": 9.39668392487,
			"0.003": 5.50272882746,
			"0.004": 5.62134384256,
			"0.005": 8.04330829345,
			"0.006": 7.80596971195,
			"0.007": 11.898024396,
			"0.008": 10.2487103181,
			"0.009": 8.29551731336,
			"0.01": 6.9306739259,
			"0.011": 6.51263745762,
			"0.012": 3.43654646097,
			"0.013": 0.748671156962,
			"0.014": 0.0,
			"0.015": 0.0,
			"0.016": 0.0,
			"0.017": 0.0,
			"0.018": 0.0,
			"0.019": 0.0,
			"0.02": 0.0,
			"0.021": 0.0,
			"0.022": 0.0,
			"0.023": 0.0,
			"0.024": 0.0,
			"0.025": 0.0
		}
	}
}
