{
	 "smiles": "CCN(CC)C(=O)SCC1=CC=CC=C1Cl", 
	 "Tm": 282.15, 
	 "num_atms": 32, 
	 "gaussian": { 
		 "optdone": 1, 
		 "sigma_profile": "yes", 
		 "theory": "DFT", 
		 "functional": "B3LYP", 
		 "basiset": "6-31G**", 
		 "properties": { 
			 "R2extent": 6052.4008, 
			 "electric_dipole_moment_norm": 2.86652414781, 
			 "electric_quadrupole_moment_norm": 11.7643070319, 
			 "total_energy": -1455.30684764, 
			 "HOMO_LUMO_gap": 0.21689, 
			 "cosmo_polarized_energy": -8.87, 
			 "cosmo_cavitation_energy": 37.65, 
			 "cosmo_dispersion_energy": -26.66, 
			 "cosmo_repulsion_energy": 2.07, 
			 "cosmo_total_nonelectrostatic_energy": 13.07, 
			 "SMD_solvation_energy": 6.4 
		},
		"coords": [
			{
				"x": -4.006431671,
				"y": 1.5521127197,
				"z": 1.3746514365,
				"element": "C" 
			},
			{
				"x": -3.3083185984,
				"y": 0.3796304389,
				"z": 0.6818581058,
				"element": "C" 
			},
			{
				"x": -2.037727997,
				"y": 0.0097663587,
				"z": 1.3241338839,
				"element": "N" 
			},
			{
				"x": -2.0673048114,
				"y": -1.0278526306,
				"z": 2.3584922056,
				"element": "C" 
			},
			{
				"x": -1.9631933645,
				"y": -2.4500197139,
				"z": 1.7993969306,
				"element": "C" 
			},
			{
				"x": -0.9174441459,
				"y": 0.6705352725,
				"z": 0.9208804926,
				"element": "C" 
			},
			{
				"x": -0.9264175152,
				"y": 1.5528737799,
				"z": 0.0706724734,
				"element": "O" 
			},
			{
				"x": 0.6322949704,
				"y": 0.1453339479,
				"z": 1.7449712766,
				"element": "S" 
			},
			{
				"x": 1.7965667015,
				"y": 1.266202547,
				"z": 0.8506107712,
				"element": "C" 
			},
			{
				"x": 2.4373916703,
				"y": 0.645684979,
				"z": -0.3621356476,
				"element": "C" 
			},
			{
				"x": 1.8342193591,
				"y": 0.7957376028,
				"z": -1.6215729162,
				"element": "C" 
			},
			{
				"x": 2.4016106028,
				"y": 0.2485148458,
				"z": -2.7699079576,
				"element": "C" 
			},
			{
				"x": 3.5965115313,
				"y": -0.4677895353,
				"z": -2.683337491,
				"element": "C" 
			},
			{
				"x": 4.2164435475,
				"y": -0.6376436133,
				"z": -1.4464504824,
				"element": "C" 
			},
			{
				"x": 3.6331476319,
				"y": -0.085790312,
				"z": -0.3059528907,
				"element": "C" 
			},
			{
				"x": 4.4511113342,
				"y": -0.3390152738,
				"z": 1.2383536989,
				"element": "Cl" 
			},
			{
				"x": -4.9584894106,
				"y": 1.772895457,
				"z": 0.8804535252,
				"element": "H" 
			},
			{
				"x": -3.3783056466,
				"y": 2.4451114309,
				"z": 1.3257929062,
				"element": "H" 
			},
			{
				"x": -4.2153181962,
				"y": 1.3306707905,
				"z": 2.4266353549,
				"element": "H" 
			},
			{
				"x": -3.0951406816,
				"y": 0.6327592426,
				"z": -0.3584504465,
				"element": "H" 
			},
			{
				"x": -3.947311553,
				"y": -0.5096315814,
				"z": 0.6866325149,
				"element": "H" 
			},
			{
				"x": -1.2630525934,
				"y": -0.8399646508,
				"z": 3.0750558515,
				"element": "H" 
			},
			{
				"x": -3.0036717894,
				"y": -0.9044964196,
				"z": 2.9144136556,
				"element": "H" 
			},
			{
				"x": -2.0257575937,
				"y": -3.1812416945,
				"z": 2.6120558329,
				"element": "H" 
			},
			{
				"x": -1.0113915286,
				"y": -2.5924362133,
				"z": 1.2808914126,
				"element": "H" 
			},
			{
				"x": -2.7738178411,
				"y": -2.6597610956,
				"z": 1.094101727,
				"element": "H" 
			},
			{
				"x": 1.1987355496,
				"y": 2.1329965949,
				"z": 0.5665302227,
				"element": "H" 
			},
			{
				"x": 2.5364293426,
				"y": 1.5588139665,
				"z": 1.5958839214,
				"element": "H" 
			},
			{
				"x": 0.8980338044,
				"y": 1.3426670052,
				"z": -1.67416597,
				"element": "H" 
			},
			{
				"x": 1.9129628432,
				"y": 0.38276201,
				"z": -3.7302831872,
				"element": "H" 
			},
			{
				"x": 4.0492976819,
				"y": -0.8958107482,
				"z": -3.5727765404,
				"element": "H" 
			},
			{
				"x": 5.1441383668,
				"y": -1.1922155073,
				"z": -1.3584346702,
				"element": "H" 
			}
		],
		 "valence_orbital": [ 
			{
				"type": "occ",
				"energy": -0.26047,
				"method": "rhf"
			},
			{
				"type": "occ",
				"energy": -0.25467,
				"method": "rhf"
			},
			{
				"type": "occ",
				"energy": -0.24983,
				"method": "rhf"
			},
			{
				"type": "occ",
				"energy": -0.24186,
				"method": "rhf"
			},
			{
				"type": "occ",
				"energy": -0.23421,
				"method": "rhf"
			},
			{
				"type": "unocc",
				"energy": -0.01732,
				"method": "rhf"
			},
			{
				"type": "unocc",
				"energy": -0.00742,
				"method": "rhf"
			},
			{
				"type": "unocc",
				"energy": 0.02589,
				"method": "rhf"
			},
			{
				"type": "unocc",
				"energy": 0.03589,
				"method": "rhf"
			},
			{
				"type": "unocc",
				"energy": 0.03885,
				"method": "rhf"
			}
		],
		"cosmo_sigma_profile": { 
			"-0.025": 0.0,
			"-0.024": 0.0,
			"-0.023": 0.0,
			"-0.022": 0.0,
			"-0.021": 0.0,
			"-0.02": 0.0,
			"-0.019": 0.0,
			"-0.018": 0.0,
			"-0.017": 0.0,
			"-0.016": 0.0,
			"-0.015": 0.0,
			"-0.014": 0.0,
			"-0.013": 0.0,
			"-0.012": 0.0,
			"-0.011": 0.0,
			"-0.01": 0.0,
			"-0.009": 0.0,
			"-0.008": 0.0384715786958,
			"-0.007": 2.43904199988,
			"-0.006": 8.40525080069,
			"-0.005": 19.2399374334,
			"-0.004": 25.569950801,
			"-0.003": 30.4780297706,
			"-0.002": 29.4205056454,
			"-0.001": 27.8874358488,
			"0.0": 31.5484587478,
			"0.001": 28.202984921,
			"0.002": 22.0387144143,
			"0.003": 22.5264260579,
			"0.004": 24.2512786914,
			"0.005": 12.9081303324,
			"0.006": 4.60619477522,
			"0.007": 2.8309160507,
			"0.008": 2.03688505714,
			"0.009": 1.90543084515,
			"0.01": 1.29152060432,
			"0.011": 1.20516266427,
			"0.012": 2.11241882619,
			"0.013": 0.647612967922,
			"0.014": 0.0,
			"0.015": 0.0,
			"0.016": 0.0,
			"0.017": 0.0,
			"0.018": 0.0,
			"0.019": 0.0,
			"0.02": 0.0,
			"0.021": 0.0,
			"0.022": 0.0,
			"0.023": 0.0,
			"0.024": 0.0,
			"0.025": 0.0
		}
	}
}
