{
	 "smiles": "COCCCOC1=C(C=CC(C)=C1)C#N", 
	 "Tm": 341.15, 
	 "num_atms": 30, 
	 "gaussian": { 
		 "optdone": 1, 
		 "sigma_profile": "yes", 
		 "theory": "DFT", 
		 "functional": "B3LYP", 
		 "basiset": "6-31G**", 
		 "properties": { 
			 "R2extent": 4980.6213, 
			 "electric_dipole_moment_norm": 6.89647034431, 
			 "electric_quadrupole_moment_norm": 17.6118548773, 
			 "total_energy": -671.484663567, 
			 "HOMO_LUMO_gap": 0.19204, 
			 "cosmo_polarized_energy": -15.27, 
			 "cosmo_cavitation_energy": 34.58, 
			 "cosmo_dispersion_energy": -23.85, 
			 "cosmo_repulsion_energy": 1.91, 
			 "cosmo_total_nonelectrostatic_energy": 12.64, 
			 "SMD_solvation_energy": 7.88 
		},
		"coords": [
			{
				"x": 1.913268845,
				"y": 2.8172288899,
				"z": 3.5524713821,
				"element": "C" 
			},
			{
				"x": 0.7648251262,
				"y": 2.0014990467,
				"z": 3.4570299038,
				"element": "O" 
			},
			{
				"x": 0.7849166387,
				"y": 1.0839004985,
				"z": 2.3777302829,
				"element": "C" 
			},
			{
				"x": 0.4463526404,
				"y": 1.7375096328,
				"z": 1.0304530681,
				"element": "C" 
			},
			{
				"x": 0.4764835379,
				"y": 0.7562489171,
				"z": -0.1322721893,
				"element": "C" 
			},
			{
				"x": -0.5090170604,
				"y": -0.2513758832,
				"z": 0.1187924827,
				"element": "O" 
			},
			{
				"x": -0.6755283859,
				"y": -1.2591148474,
				"z": -0.7700924193,
				"element": "C" 
			},
			{
				"x": -1.6469083866,
				"y": -2.229751473,
				"z": -0.4261886079,
				"element": "C" 
			},
			{
				"x": -1.8856730863,
				"y": -3.3004345476,
				"z": -1.2985301259,
				"element": "C" 
			},
			{
				"x": -1.1786332412,
				"y": -3.4166370288,
				"z": -2.4907510017,
				"element": "C" 
			},
			{
				"x": -0.2118015806,
				"y": -2.4641965207,
				"z": -2.8365998811,
				"element": "C" 
			},
			{
				"x": 0.5856706229,
				"y": -2.6010874124,
				"z": -4.1113822211,
				"element": "C" 
			},
			{
				"x": 0.029380595,
				"y": -1.38853424,
				"z": -1.9702604351,
				"element": "C" 
			},
			{
				"x": -2.3744891215,
				"y": -2.1158774991,
				"z": 0.7998640298,
				"element": "C" 
			},
			{
				"x": -2.9778703123,
				"y": -2.0487998337,
				"z": 1.7926735198,
				"element": "N" 
			},
			{
				"x": 2.0218335422,
				"y": 3.5086266731,
				"z": 2.7028882078,
				"element": "H" 
			},
			{
				"x": 2.8338836909,
				"y": 2.2160894386,
				"z": 3.6256828518,
				"element": "H" 
			},
			{
				"x": 1.8088006038,
				"y": 3.4104452169,
				"z": 4.4643202943,
				"element": "H" 
			},
			{
				"x": 1.7666657892,
				"y": 0.5818678789,
				"z": 2.3164500958,
				"element": "H" 
			},
			{
				"x": 0.0358233632,
				"y": 0.3230776499,
				"z": 2.6109782479,
				"element": "H" 
			},
			{
				"x": 1.1615876516,
				"y": 2.5370117612,
				"z": 0.8025083625,
				"element": "H" 
			},
			{
				"x": -0.5450416815,
				"y": 2.1981220519,
				"z": 1.0962319954,
				"element": "H" 
			},
			{
				"x": 1.4660768717,
				"y": 0.2856302546,
				"z": -0.2253299474,
				"element": "H" 
			},
			{
				"x": 0.2515790513,
				"y": 1.2677012589,
				"z": -1.0775369218,
				"element": "H" 
			},
			{
				"x": -2.6351120641,
				"y": -4.0369409691,
				"z": -1.0280927507,
				"element": "H" 
			},
			{
				"x": -1.3781656795,
				"y": -4.2507413928,
				"z": -3.1565464465,
				"element": "H" 
			},
			{
				"x": 0.0278839976,
				"y": -3.1531030691,
				"z": -4.8729109081,
				"element": "H" 
			},
			{
				"x": 1.5202691359,
				"y": -3.1466743423,
				"z": -3.9307371894,
				"element": "H" 
			},
			{
				"x": 0.853736926,
				"y": -1.6244132271,
				"z": -4.5251420761,
				"element": "H" 
			},
			{
				"x": 0.7736019701,
				"y": -0.6499768826,
				"z": -2.2446016034,
				"element": "H" 
			}
		],
		 "valence_orbital": [ 
			{
				"type": "occ",
				"energy": -0.31789,
				"method": "rhf"
			},
			{
				"type": "occ",
				"energy": -0.30687,
				"method": "rhf"
			},
			{
				"type": "occ",
				"energy": -0.25946,
				"method": "rhf"
			},
			{
				"type": "occ",
				"energy": -0.25249,
				"method": "rhf"
			},
			{
				"type": "occ",
				"energy": -0.23459,
				"method": "rhf"
			},
			{
				"type": "unocc",
				"energy": -0.04255,
				"method": "rhf"
			},
			{
				"type": "unocc",
				"energy": -0.00746,
				"method": "rhf"
			},
			{
				"type": "unocc",
				"energy": 0.04559,
				"method": "rhf"
			},
			{
				"type": "unocc",
				"energy": 0.07789,
				"method": "rhf"
			},
			{
				"type": "unocc",
				"energy": 0.08045,
				"method": "rhf"
			}
		],
		"cosmo_sigma_profile": { 
			"-0.025": 0.0,
			"-0.024": 0.0,
			"-0.023": 0.0,
			"-0.022": 0.0,
			"-0.021": 0.0,
			"-0.02": 0.0,
			"-0.019": 0.0,
			"-0.018": 0.0,
			"-0.017": 0.0,
			"-0.016": 0.0,
			"-0.015": 0.0,
			"-0.014": 0.0,
			"-0.013": 0.0,
			"-0.012": 0.0,
			"-0.011": 0.0,
			"-0.01": 0.0,
			"-0.009": 0.0,
			"-0.008": 0.713415262193,
			"-0.007": 4.65699466591,
			"-0.006": 11.0138577919,
			"-0.005": 24.7241637303,
			"-0.004": 30.8640264829,
			"-0.003": 29.1220310007,
			"-0.002": 26.5909055587,
			"-0.001": 26.4112504891,
			"0.0": 21.4017558099,
			"0.001": 16.2072123299,
			"0.002": 13.8599402611,
			"0.003": 15.6437165713,
			"0.004": 8.56696183333,
			"0.005": 5.0370462506,
			"0.006": 5.48011453959,
			"0.007": 5.49761447972,
			"0.008": 4.82217934029,
			"0.009": 4.71035669267,
			"0.01": 4.44493980711,
			"0.011": 4.53860303522,
			"0.012": 3.97932179486,
			"0.013": 4.05092733274,
			"0.014": 1.31994150299,
			"0.015": 0.0,
			"0.016": 0.0,
			"0.017": 0.0,
			"0.018": 0.0,
			"0.019": 0.0,
			"0.02": 0.0,
			"0.021": 0.0,
			"0.022": 0.0,
			"0.023": 0.0,
			"0.024": 0.0,
			"0.025": 0.0
		}
	}
}
