{
	 "smiles": "CNC1=NC(=CS1)C(O)=O", 
	 "Tm": 478.15, 
	 "num_atms": 16, 
	 "gaussian": { 
		 "optdone": 1, 
		 "sigma_profile": "yes", 
		 "theory": "DFT", 
		 "functional": "B3LYP", 
		 "basiset": "6-31G**", 
		 "properties": { 
			 "R2extent": 2720.1428, 
			 "electric_dipole_moment_norm": 7.38964004062, 
			 "electric_quadrupole_moment_norm": 18.8539399538, 
			 "total_energy": -852.291108701, 
			 "HOMO_LUMO_gap": 0.18518, 
			 "cosmo_polarized_energy": -14.87, 
			 "cosmo_cavitation_energy": 22.29, 
			 "cosmo_dispersion_energy": -17.34, 
			 "cosmo_repulsion_energy": 1.37, 
			 "cosmo_total_nonelectrostatic_energy": 6.32, 
			 "SMD_solvation_energy": 3.63 
		},
		"coords": [
			{
				"x": -1.9451134297,
				"y": 0.6366895575,
				"z": 1.6038617408,
				"element": "C" 
			},
			{
				"x": -1.1015669033,
				"y": -0.0713714302,
				"z": 0.6590252746,
				"element": "N" 
			},
			{
				"x": -0.6338787716,
				"y": 0.4869078168,
				"z": -0.4896556133,
				"element": "C" 
			},
			{
				"x": 0.2927693805,
				"y": -0.0452862638,
				"z": -1.2437916325,
				"element": "N" 
			},
			{
				"x": 0.520850746,
				"y": 0.7374613725,
				"z": -2.3609378317,
				"element": "C" 
			},
			{
				"x": -0.2165599125,
				"y": 1.8754311208,
				"z": -2.4754078473,
				"element": "C" 
			},
			{
				"x": -1.2863847465,
				"y": 2.0192795813,
				"z": -1.1085263406,
				"element": "S" 
			},
			{
				"x": 1.5458554071,
				"y": 0.2896894868,
				"z": -3.3482840078,
				"element": "C" 
			},
			{
				"x": 2.14092453,
				"y": -0.8747145336,
				"z": -3.0134603236,
				"element": "O" 
			},
			{
				"x": 1.8265565686,
				"y": 0.8999953136,
				"z": -4.3543081833,
				"element": "O" 
			},
			{
				"x": -2.2175497603,
				"y": -0.0465376023,
				"z": 2.4097879799,
				"element": "H" 
			},
			{
				"x": -1.4521037744,
				"y": 1.5169127354,
				"z": 2.0400454735,
				"element": "H" 
			},
			{
				"x": -2.8708816724,
				"y": 0.9634211058,
				"z": 1.1173061033,
				"element": "H" 
			},
			{
				"x": -0.5472397712,
				"y": -0.8466910362,
				"z": 0.9934832333,
				"element": "H" 
			},
			{
				"x": -0.1846317367,
				"y": 2.6120597355,
				"z": -3.2635205216,
				"element": "H" 
			},
			{
				"x": 1.7457538464,
				"y": -1.1667469599,
				"z": -2.1700175038,
				"element": "H" 
			}
		],
		 "valence_orbital": [ 
			{
				"type": "occ",
				"energy": -0.30381,
				"method": "rhf"
			},
			{
				"type": "occ",
				"energy": -0.30055,
				"method": "rhf"
			},
			{
				"type": "occ",
				"energy": -0.29266,
				"method": "rhf"
			},
			{
				"type": "occ",
				"energy": -0.26247,
				"method": "rhf"
			},
			{
				"type": "occ",
				"energy": -0.22425,
				"method": "rhf"
			},
			{
				"type": "unocc",
				"energy": -0.03907,
				"method": "rhf"
			},
			{
				"type": "unocc",
				"energy": -0.00174,
				"method": "rhf"
			},
			{
				"type": "unocc",
				"energy": 0.00628,
				"method": "rhf"
			},
			{
				"type": "unocc",
				"energy": 0.04833,
				"method": "rhf"
			},
			{
				"type": "unocc",
				"energy": 0.09216,
				"method": "rhf"
			}
		],
		"cosmo_sigma_profile": { 
			"-0.025": 0.0,
			"-0.024": 0.0,
			"-0.023": 0.0,
			"-0.022": 0.0,
			"-0.021": 0.0,
			"-0.02": 0.0,
			"-0.019": 0.0,
			"-0.018": 0.0,
			"-0.017": 0.0,
			"-0.016": 0.0,
			"-0.015": 0.660312594056,
			"-0.014": 1.41656910817,
			"-0.013": 1.8558839639,
			"-0.012": 0.80713558318,
			"-0.011": 1.63755004602,
			"-0.01": 2.33150761075,
			"-0.009": 3.43906100172,
			"-0.008": 3.27138218262,
			"-0.007": 5.67591003633,
			"-0.006": 5.79429729684,
			"-0.005": 10.582281437,
			"-0.004": 13.3462535823,
			"-0.003": 15.9807259297,
			"-0.002": 11.6654945723,
			"-0.001": 10.9629669498,
			"0.0": 11.9785711033,
			"0.001": 13.1937403914,
			"0.002": 14.0573631353,
			"0.003": 8.65302706092,
			"0.004": 5.21122842427,
			"0.005": 5.24477874315,
			"0.006": 4.18318986443,
			"0.007": 3.45305924456,
			"0.008": 3.68407935791,
			"0.009": 3.06790578475,
			"0.01": 4.91989104765,
			"0.011": 4.83331861384,
			"0.012": 5.69906423966,
			"0.013": 2.10510315386,
			"0.014": 0.288609126333,
			"0.015": 0.0,
			"0.016": 0.0,
			"0.017": 0.0,
			"0.018": 0.0,
			"0.019": 0.0,
			"0.02": 0.0,
			"0.021": 0.0,
			"0.022": 0.0,
			"0.023": 0.0,
			"0.024": 0.0,
			"0.025": 0.0
		}
	}
}
