{
	 "smiles": "OC(=O)C=CC1=NC=CS1", 
	 "Tm": 456.15, 
	 "num_atms": 15, 
	 "gaussian": { 
		 "optdone": 1, 
		 "sigma_profile": "yes", 
		 "theory": "DFT", 
		 "functional": "B3LYP", 
		 "basiset": "6-31G**", 
		 "properties": { 
			 "R2extent": 2498.3857, 
			 "electric_dipole_moment_norm": 5.2715113478, 
			 "electric_quadrupole_moment_norm": 10.9334524758, 
			 "total_energy": -835.01267905, 
			 "HOMO_LUMO_gap": 0.15837, 
			 "cosmo_polarized_energy": -15.8, 
			 "cosmo_cavitation_energy": 22.22, 
			 "cosmo_dispersion_energy": -16.93, 
			 "cosmo_repulsion_energy": 1.32, 
			 "cosmo_total_nonelectrostatic_energy": 6.62, 
			 "SMD_solvation_energy": 3.81 
		},
		"coords": [
			{
				"x": 0.76541111,
				"y": 0.375623016,
				"z": -2.9980738765,
				"element": "O" 
			},
			{
				"x": 0.4318860004,
				"y": -0.7995811274,
				"z": -2.3984525671,
				"element": "C" 
			},
			{
				"x": 0.6328526163,
				"y": -1.8504085795,
				"z": -2.9615385587,
				"element": "O" 
			},
			{
				"x": -0.1943699839,
				"y": -0.7338209257,
				"z": -1.0518002119,
				"element": "C" 
			},
			{
				"x": -0.8375363551,
				"y": 0.3376899688,
				"z": -0.552412047,
				"element": "C" 
			},
			{
				"x": -1.5131163259,
				"y": 0.4301976034,
				"z": 0.7287635029,
				"element": "C" 
			},
			{
				"x": -2.1089188009,
				"y": 1.5308827112,
				"z": 1.1255958978,
				"element": "N" 
			},
			{
				"x": -2.6665267571,
				"y": 1.3752544458,
				"z": 2.3643273843,
				"element": "C" 
			},
			{
				"x": -2.5072374569,
				"y": 0.1445642634,
				"z": 2.9430375509,
				"element": "C" 
			},
			{
				"x": -1.6104682072,
				"y": -0.8935051529,
				"z": 1.8923973283,
				"element": "S" 
			},
			{
				"x": 0.706772898,
				"y": 1.1051658898,
				"z": -2.3657751106,
				"element": "H" 
			},
			{
				"x": -0.1626913525,
				"y": -1.6779664814,
				"z": -0.5155482969,
				"element": "H" 
			},
			{
				"x": -0.9205403978,
				"y": 1.2611846525,
				"z": -1.1234416555,
				"element": "H" 
			},
			{
				"x": -3.1934794572,
				"y": 2.206381353,
				"z": 2.81798038,
				"element": "H" 
			},
			{
				"x": -2.8606375302,
				"y": -0.1998616369,
				"z": 3.9045402799,
				"element": "H" 
			}
		],
		 "valence_orbital": [ 
			{
				"type": "occ",
				"energy": -0.31698,
				"method": "rhf"
			},
			{
				"type": "occ",
				"energy": -0.30317,
				"method": "rhf"
			},
			{
				"type": "occ",
				"energy": -0.29675,
				"method": "rhf"
			},
			{
				"type": "occ",
				"energy": -0.2772,
				"method": "rhf"
			},
			{
				"type": "occ",
				"energy": -0.25066,
				"method": "rhf"
			},
			{
				"type": "unocc",
				"energy": -0.09229,
				"method": "rhf"
			},
			{
				"type": "unocc",
				"energy": -0.00864,
				"method": "rhf"
			},
			{
				"type": "unocc",
				"energy": 0.00061,
				"method": "rhf"
			},
			{
				"type": "unocc",
				"energy": 0.037,
				"method": "rhf"
			},
			{
				"type": "unocc",
				"energy": 0.05034,
				"method": "rhf"
			}
		],
		"cosmo_sigma_profile": { 
			"-0.025": 0.0,
			"-0.024": 0.0,
			"-0.023": 0.0,
			"-0.022": 0.0,
			"-0.021": 0.0,
			"-0.02": 0.0713216178761,
			"-0.019": 0.632217790845,
			"-0.018": 1.00025730371,
			"-0.017": 1.19342755153,
			"-0.016": 1.04287119193,
			"-0.015": 0.448084354507,
			"-0.014": 0.933341506204,
			"-0.013": 1.20692156855,
			"-0.012": 1.4020299083,
			"-0.011": 1.28491731687,
			"-0.01": 2.75466428559,
			"-0.009": 3.01928883531,
			"-0.008": 6.75758788479,
			"-0.007": 7.00729012766,
			"-0.006": 7.4491634474,
			"-0.005": 8.06786425934,
			"-0.004": 6.73918866577,
			"-0.003": 9.48244804872,
			"-0.002": 9.64860231459,
			"-0.001": 14.3038990065,
			"0.0": 16.6015299311,
			"0.001": 16.4171063449,
			"0.002": 12.7600369153,
			"0.003": 6.48100526239,
			"0.004": 3.77199691872,
			"0.005": 3.89724831345,
			"0.006": 3.34069724335,
			"0.007": 2.8521645304,
			"0.008": 4.03955595081,
			"0.009": 4.47685634035,
			"0.01": 5.80066194388,
			"0.011": 5.91942173375,
			"0.012": 6.86470817952,
			"0.013": 2.85438414957,
			"0.014": 0.588760349531,
			"0.015": 0.129267618957,
			"0.016": 0.0,
			"0.017": 0.0,
			"0.018": 0.0,
			"0.019": 0.0,
			"0.02": 0.0,
			"0.021": 0.0,
			"0.022": 0.0,
			"0.023": 0.0,
			"0.024": 0.0,
			"0.025": 0.0
		}
	}
}
