{
	 "smiles": "OC(=O)C1=C(F)C=C(O)C=C1", 
	 "Tm": 476.15, 
	 "num_atms": 16, 
	 "gaussian": { 
		 "optdone": 1, 
		 "sigma_profile": "yes", 
		 "theory": "DFT", 
		 "functional": "B3LYP", 
		 "basiset": "6-31G**", 
		 "properties": { 
			 "R2extent": 2850.2051, 
			 "electric_dipole_moment_norm": 5.23988098815, 
			 "electric_quadrupole_moment_norm": 24.5841335613, 
			 "total_energy": -595.27254768, 
			 "HOMO_LUMO_gap": 0.20457, 
			 "cosmo_polarized_energy": -15.64, 
			 "cosmo_cavitation_energy": 21.22, 
			 "cosmo_dispersion_energy": -16.02, 
			 "cosmo_repulsion_energy": 1.25, 
			 "cosmo_total_nonelectrostatic_energy": 6.45, 
			 "SMD_solvation_energy": 5.69 
		},
		"coords": [
			{
				"x": 1.9680357961,
				"y": -1.6035190827,
				"z": 3.0936567258,
				"element": "O" 
			},
			{
				"x": 2.216490768,
				"y": -2.3030722279,
				"z": 1.9660264338,
				"element": "C" 
			},
			{
				"x": 2.9372346479,
				"y": -3.2756120081,
				"z": 1.9958914337,
				"element": "O" 
			},
			{
				"x": 1.5734702037,
				"y": -1.834345391,
				"z": 0.6932398881,
				"element": "C" 
			},
			{
				"x": 0.7273702134,
				"y": -0.7291433734,
				"z": 0.5460981421,
				"element": "C" 
			},
			{
				"x": 0.4222077183,
				"y": 0.0356308003,
				"z": 1.6373474655,
				"element": "F" 
			},
			{
				"x": 0.1629762,
				"y": -0.3451168096,
				"z": -0.6562238361,
				"element": "C" 
			},
			{
				"x": 0.4513482352,
				"y": -1.1027664046,
				"z": -1.7970946035,
				"element": "C" 
			},
			{
				"x": -0.1161501901,
				"y": -0.7026558983,
				"z": -2.9622960996,
				"element": "O" 
			},
			{
				"x": 1.2945374265,
				"y": -2.220516787,
				"z": -1.7017725928,
				"element": "C" 
			},
			{
				"x": 1.8385147271,
				"y": -2.5686260663,
				"z": -0.4739659666,
				"element": "C" 
			},
			{
				"x": 1.3768887899,
				"y": -0.8575481697,
				"z": 2.9076405237,
				"element": "H" 
			},
			{
				"x": -0.4857427342,
				"y": 0.5203644586,
				"z": -0.7126280072,
				"element": "H" 
			},
			{
				"x": 0.1532952265,
				"y": -1.2975678003,
				"z": -3.6747914231,
				"element": "H" 
			},
			{
				"x": 1.5194678806,
				"y": -2.8100078717,
				"z": -2.58698043,
				"element": "H" 
			},
			{
				"x": 2.4926550911,
				"y": -3.4280973681,
				"z": -0.3757476539,
				"element": "H" 
			}
		],
		 "valence_orbital": [ 
			{
				"type": "occ",
				"energy": -0.3549,
				"method": "rhf"
			},
			{
				"type": "occ",
				"energy": -0.30783,
				"method": "rhf"
			},
			{
				"type": "occ",
				"energy": -0.27599,
				"method": "rhf"
			},
			{
				"type": "occ",
				"energy": -0.27212,
				"method": "rhf"
			},
			{
				"type": "occ",
				"energy": -0.25213,
				"method": "rhf"
			},
			{
				"type": "unocc",
				"energy": -0.04756,
				"method": "rhf"
			},
			{
				"type": "unocc",
				"energy": -0.02485,
				"method": "rhf"
			},
			{
				"type": "unocc",
				"energy": 0.04774,
				"method": "rhf"
			},
			{
				"type": "unocc",
				"energy": 0.05575,
				"method": "rhf"
			},
			{
				"type": "unocc",
				"energy": 0.07036,
				"method": "rhf"
			}
		],
		"cosmo_sigma_profile": { 
			"-0.025": 0.0,
			"-0.024": 0.0,
			"-0.023": 0.0,
			"-0.022": 0.0,
			"-0.021": 0.0,
			"-0.02": 0.0,
			"-0.019": 0.586394108358,
			"-0.018": 1.62201904074,
			"-0.017": 0.582859768927,
			"-0.016": 1.34222219394,
			"-0.015": 0.966708299164,
			"-0.014": 1.54870999676,
			"-0.013": 1.23111262655,
			"-0.012": 1.27163912072,
			"-0.011": 1.6569840953,
			"-0.01": 2.48070700431,
			"-0.009": 3.2563410037,
			"-0.008": 4.76048327312,
			"-0.007": 5.87567778492,
			"-0.006": 7.02964386593,
			"-0.005": 5.737394456,
			"-0.004": 6.70045525384,
			"-0.003": 7.61524433045,
			"-0.002": 7.72749790331,
			"-0.001": 11.6061030352,
			"0.0": 12.91102736,
			"0.001": 19.7877390011,
			"0.002": 14.8828870963,
			"0.003": 8.20330392091,
			"0.004": 3.33560767292,
			"0.005": 3.99625952539,
			"0.006": 3.16920387807,
			"0.007": 3.16380117933,
			"0.008": 4.27949916599,
			"0.009": 4.59482381565,
			"0.01": 5.81734001217,
			"0.011": 5.09089168412,
			"0.012": 5.24912660494,
			"0.013": 2.20341971757,
			"0.014": 0.281133088237,
			"0.015": 0.0,
			"0.016": 0.0,
			"0.017": 0.0,
			"0.018": 0.0,
			"0.019": 0.0,
			"0.02": 0.0,
			"0.021": 0.0,
			"0.022": 0.0,
			"0.023": 0.0,
			"0.024": 0.0,
			"0.025": 0.0
		}
	}
}
