{
	 "smiles": "CON=CC1=CC=C(C=C1)C(O)=O", 
	 "Tm": 457.15, 
	 "num_atms": 22, 
	 "gaussian": { 
		 "optdone": 1, 
		 "sigma_profile": "yes", 
		 "theory": "DFT", 
		 "functional": "B3LYP", 
		 "basiset": "6-31G**", 
		 "properties": { 
			 "R2extent": 4686.693, 
			 "electric_dipole_moment_norm": 5.0408757999, 
			 "electric_quadrupole_moment_norm": 13.3714355067, 
			 "total_energy": -628.748818034, 
			 "HOMO_LUMO_gap": 0.16411, 
			 "cosmo_polarized_energy": -15.55, 
			 "cosmo_cavitation_energy": 27.61, 
			 "cosmo_dispersion_energy": -20.24, 
			 "cosmo_repulsion_energy": 1.62, 
			 "cosmo_total_nonelectrostatic_energy": 8.98, 
			 "SMD_solvation_energy": 6.86 
		},
		"coords": [
			{
				"x": 3.1654991236,
				"y": 0.2572224812,
				"z": -4.7439898029,
				"element": "C" 
			},
			{
				"x": 3.4371796637,
				"y": -0.5776415714,
				"z": -3.6201810601,
				"element": "O" 
			},
			{
				"x": 2.3480316405,
				"y": -0.5666568773,
				"z": -2.7618808222,
				"element": "N" 
			},
			{
				"x": 2.5588508563,
				"y": -1.3083635349,
				"z": -1.73561013,
				"element": "C" 
			},
			{
				"x": 1.5472442607,
				"y": -1.4540147821,
				"z": -0.6863519996,
				"element": "C" 
			},
			{
				"x": 0.3114161487,
				"y": -0.7839686222,
				"z": -0.7438456387,
				"element": "C" 
			},
			{
				"x": -0.6252597891,
				"y": -0.9538569096,
				"z": 0.2667633615,
				"element": "C" 
			},
			{
				"x": -0.3562766843,
				"y": -1.7931297964,
				"z": 1.3617903192,
				"element": "C" 
			},
			{
				"x": 0.883017482,
				"y": -2.4416895065,
				"z": 1.4323668416,
				"element": "C" 
			},
			{
				"x": 1.8186705961,
				"y": -2.2809292162,
				"z": 0.4169797333,
				"element": "C" 
			},
			{
				"x": -1.3193384944,
				"y": -2.0082694914,
				"z": 2.4892647338,
				"element": "C" 
			},
			{
				"x": -2.6262660844,
				"y": -1.719020809,
				"z": 2.2439529868,
				"element": "O" 
			},
			{
				"x": -0.9868614779,
				"y": -2.4189087153,
				"z": 3.5765058035,
				"element": "O" 
			},
			{
				"x": 2.2954598117,
				"y": -0.1043251003,
				"z": -5.3026102351,
				"element": "H" 
			},
			{
				"x": 2.9947630934,
				"y": 1.2935243095,
				"z": -4.433170124,
				"element": "H" 
			},
			{
				"x": 4.0579923735,
				"y": 0.2001807925,
				"z": -5.3701271382,
				"element": "H" 
			},
			{
				"x": 3.5031170628,
				"y": -1.8471645849,
				"z": -1.6272665124,
				"element": "H" 
			},
			{
				"x": 0.1066392014,
				"y": -0.1291947649,
				"z": -1.5835692995,
				"element": "H" 
			},
			{
				"x": -1.5550267379,
				"y": -0.3920504007,
				"z": 0.2128965229,
				"element": "H" 
			},
			{
				"x": 1.0897595114,
				"y": -3.0687862267,
				"z": 2.2927145609,
				"element": "H" 
			},
			{
				"x": 2.7729836411,
				"y": -2.7973419238,
				"z": 0.4757227161,
				"element": "H" 
			},
			{
				"x": -2.7630951987,
				"y": -1.5630147495,
				"z": 1.2994451833,
				"element": "H" 
			}
		],
		 "valence_orbital": [ 
			{
				"type": "occ",
				"energy": -0.29761,
				"method": "rhf"
			},
			{
				"type": "occ",
				"energy": -0.2895,
				"method": "rhf"
			},
			{
				"type": "occ",
				"energy": -0.27608,
				"method": "rhf"
			},
			{
				"type": "occ",
				"energy": -0.27197,
				"method": "rhf"
			},
			{
				"type": "occ",
				"energy": -0.23742,
				"method": "rhf"
			},
			{
				"type": "unocc",
				"energy": -0.07331,
				"method": "rhf"
			},
			{
				"type": "unocc",
				"energy": -0.02548,
				"method": "rhf"
			},
			{
				"type": "unocc",
				"energy": 0.00174,
				"method": "rhf"
			},
			{
				"type": "unocc",
				"energy": 0.05829,
				"method": "rhf"
			},
			{
				"type": "unocc",
				"energy": 0.0708,
				"method": "rhf"
			}
		],
		"cosmo_sigma_profile": { 
			"-0.025": 0.0,
			"-0.024": 0.0,
			"-0.023": 0.0,
			"-0.022": 0.0,
			"-0.021": 0.0,
			"-0.02": 0.0,
			"-0.019": 0.371165395688,
			"-0.018": 0.812235839164,
			"-0.017": 0.986062839184,
			"-0.016": 0.849146820693,
			"-0.015": 1.08702552706,
			"-0.014": 0.718752171069,
			"-0.013": 0.825571559386,
			"-0.012": 1.320573679,
			"-0.011": 1.46078594445,
			"-0.01": 1.18968148342,
			"-0.009": 1.74073526037,
			"-0.008": 4.61901335207,
			"-0.007": 6.99145184584,
			"-0.006": 10.8480080261,
			"-0.005": 14.6761942077,
			"-0.004": 14.4789321786,
			"-0.003": 16.2807238213,
			"-0.002": 14.4224174965,
			"-0.001": 11.1252253049,
			"0.0": 12.4124191087,
			"0.001": 15.8732169972,
			"0.002": 20.7740398298,
			"0.003": 14.7594438504,
			"0.004": 6.94761535306,
			"0.005": 6.03229506204,
			"0.006": 5.89035693697,
			"0.007": 4.41957400832,
			"0.008": 5.0119660507,
			"0.009": 6.56585454122,
			"0.01": 5.72820636898,
			"0.011": 5.21217619198,
			"0.012": 4.84224865842,
			"0.013": 1.44986423588,
			"0.014": 0.0261750950841,
			"0.015": 0.0,
			"0.016": 0.0,
			"0.017": 0.0,
			"0.018": 0.0,
			"0.019": 0.0,
			"0.02": 0.0,
			"0.021": 0.0,
			"0.022": 0.0,
			"0.023": 0.0,
			"0.024": 0.0,
			"0.025": 0.0
		}
	}
}
