{
	 "smiles": "CCOC(=O)C1=C(CC)NC2=C(C=CC=C2)N=C1N", 
	 "Tm": 426.15, 
	 "num_atms": 36, 
	 "gaussian": { 
		 "optdone": 1, 
		 "sigma_profile": "yes", 
		 "theory": "DFT", 
		 "functional": "B3LYP", 
		 "basiset": "6-31G**", 
		 "properties": { 
			 "R2extent": 5700.7233, 
			 "electric_dipole_moment_norm": 4.3404358606, 
			 "electric_quadrupole_moment_norm": 8.75780929, 
			 "total_energy": -858.451764718, 
			 "HOMO_LUMO_gap": 0.13834, 
			 "cosmo_polarized_energy": -16.21, 
			 "cosmo_cavitation_energy": 38.43, 
			 "cosmo_dispersion_energy": -27.06, 
			 "cosmo_repulsion_energy": 2.08, 
			 "cosmo_total_nonelectrostatic_energy": 13.46, 
			 "SMD_solvation_energy": 5.58 
		},
		"coords": [
			{
				"x": 3.0550405053,
				"y": 3.4020674089,
				"z": 0.0194241997,
				"element": "C" 
			},
			{
				"x": 1.7774211033,
				"y": 3.3356275066,
				"z": 0.8351363171,
				"element": "C" 
			},
			{
				"x": 1.3090886049,
				"y": 1.967756013,
				"z": 0.8051879785,
				"element": "O" 
			},
			{
				"x": 0.1453829447,
				"y": 1.7314155294,
				"z": 1.4676644491,
				"element": "C" 
			},
			{
				"x": -0.4658985062,
				"y": 2.6557592293,
				"z": 1.9972266028,
				"element": "O" 
			},
			{
				"x": -0.2947823668,
				"y": 0.3267517058,
				"z": 1.4051906247,
				"element": "C" 
			},
			{
				"x": 0.5995339013,
				"y": -0.7196035684,
				"z": 1.2968551399,
				"element": "C" 
			},
			{
				"x": 2.0930637962,
				"y": -0.6285438999,
				"z": 1.5570112066,
				"element": "C" 
			},
			{
				"x": 2.9469231046,
				"y": -0.7480112926,
				"z": 0.2828869406,
				"element": "C" 
			},
			{
				"x": 0.200938966,
				"y": -2.0013342815,
				"z": 1.0227028452,
				"element": "N" 
			},
			{
				"x": -0.8264309973,
				"y": -2.380722943,
				"z": 0.1082596776,
				"element": "C" 
			},
			{
				"x": -2.0951968763,
				"y": -1.7696396971,
				"z": 0.1499259543,
				"element": "C" 
			},
			{
				"x": -3.0492689588,
				"y": -2.207569354,
				"z": -0.7883122798,
				"element": "C" 
			},
			{
				"x": -2.7666738313,
				"y": -3.204264678,
				"z": -1.7177929124,
				"element": "C" 
			},
			{
				"x": -1.5096388553,
				"y": -3.8116914793,
				"z": -1.7288689467,
				"element": "C" 
			},
			{
				"x": -0.5442322032,
				"y": -3.3903477117,
				"z": -0.8153073652,
				"element": "C" 
			},
			{
				"x": -2.5098037769,
				"y": -0.8541163783,
				"z": 1.1061356689,
				"element": "N" 
			},
			{
				"x": -1.7548033205,
				"y": 0.0411956497,
				"z": 1.6569358691,
				"element": "C" 
			},
			{
				"x": -2.3144641512,
				"y": 0.798235178,
				"z": 2.6487009004,
				"element": "N" 
			},
			{
				"x": 3.8296295432,
				"y": 2.7549043601,
				"z": 0.4415048721,
				"element": "H" 
			},
			{
				"x": 2.8753363252,
				"y": 3.0962300596,
				"z": -1.0153628814,
				"element": "H" 
			},
			{
				"x": 3.4346961928,
				"y": 4.4286128507,
				"z": 0.011857835,
				"element": "H" 
			},
			{
				"x": 0.9965703422,
				"y": 3.9828721869,
				"z": 0.4254479314,
				"element": "H" 
			},
			{
				"x": 1.9379944196,
				"y": 3.6372445848,
				"z": 1.8753187493,
				"element": "H" 
			},
			{
				"x": 2.3310545416,
				"y": 0.2948359333,
				"z": 2.0804210012,
				"element": "H" 
			},
			{
				"x": 2.3401954007,
				"y": -1.4531866582,
				"z": 2.2414266951,
				"element": "H" 
			},
			{
				"x": 2.7438830447,
				"y": 0.0891118515,
				"z": -0.3877979265,
				"element": "H" 
			},
			{
				"x": 4.0111130801,
				"y": -0.7385536512,
				"z": 0.5381175252,
				"element": "H" 
			},
			{
				"x": 2.7420881376,
				"y": -1.6769428994,
				"z": -0.2592814948,
				"element": "H" 
			},
			{
				"x": 0.9378214036,
				"y": -2.6895380376,
				"z": 1.0978387283,
				"element": "H" 
			},
			{
				"x": -4.0314988908,
				"y": -1.7484273196,
				"z": -0.7411670684,
				"element": "H" 
			},
			{
				"x": -3.5320216284,
				"y": -3.5178271811,
				"z": -2.4218311886,
				"element": "H" 
			},
			{
				"x": -1.2783943151,
				"y": -4.6012190546,
				"z": -2.4370103123,
				"element": "H" 
			},
			{
				"x": 0.4440119225,
				"y": -3.8466950039,
				"z": -0.8174412819,
				"element": "H" 
			},
			{
				"x": -1.899115926,
				"y": 1.7092227463,
				"z": 2.8108860114,
				"element": "H" 
			},
			{
				"x": -3.3183626761,
				"y": 0.7068922956,
				"z": 2.7178099345,
				"element": "H" 
			}
		],
		 "valence_orbital": [ 
			{
				"type": "occ",
				"energy": -0.27626,
				"method": "rhf"
			},
			{
				"type": "occ",
				"energy": -0.25246,
				"method": "rhf"
			},
			{
				"type": "occ",
				"energy": -0.23087,
				"method": "rhf"
			},
			{
				"type": "occ",
				"energy": -0.21859,
				"method": "rhf"
			},
			{
				"type": "occ",
				"energy": -0.18173,
				"method": "rhf"
			},
			{
				"type": "unocc",
				"energy": -0.04339,
				"method": "rhf"
			},
			{
				"type": "unocc",
				"energy": -0.00101,
				"method": "rhf"
			},
			{
				"type": "unocc",
				"energy": 0.01218,
				"method": "rhf"
			},
			{
				"type": "unocc",
				"energy": 0.05035,
				"method": "rhf"
			},
			{
				"type": "unocc",
				"energy": 0.06263,
				"method": "rhf"
			}
		],
		"cosmo_sigma_profile": { 
			"-0.025": 0.0,
			"-0.024": 0.0,
			"-0.023": 0.0,
			"-0.022": 0.0,
			"-0.021": 0.0,
			"-0.02": 0.0,
			"-0.019": 0.0,
			"-0.018": 0.0,
			"-0.017": 0.0,
			"-0.016": 0.0,
			"-0.015": 0.205213601702,
			"-0.014": 0.933896614768,
			"-0.013": 1.47629162717,
			"-0.012": 2.58685129801,
			"-0.011": 2.09876115701,
			"-0.01": 2.83301588461,
			"-0.009": 2.47305913983,
			"-0.008": 3.70552335128,
			"-0.007": 4.78248515744,
			"-0.006": 5.32541248303,
			"-0.005": 14.4029860204,
			"-0.004": 25.5716942166,
			"-0.003": 30.0131113191,
			"-0.002": 28.2845168097,
			"-0.001": 27.5670193143,
			"0.0": 29.0320918231,
			"0.001": 20.095065374,
			"0.002": 15.7325155006,
			"0.003": 14.5002374526,
			"0.004": 14.9315995716,
			"0.005": 16.2890191974,
			"0.006": 13.6549821839,
			"0.007": 6.28134151016,
			"0.008": 3.98842097058,
			"0.009": 3.74899726339,
			"0.01": 3.85746162935,
			"0.011": 3.49581510983,
			"0.012": 3.24059223452,
			"0.013": 0.953740781078,
			"0.014": 1.07517940043,
			"0.015": 0.559530374634,
			"0.016": 0.0993239468923,
			"0.017": 0.0,
			"0.018": 0.0,
			"0.019": 0.0,
			"0.02": 0.0,
			"0.021": 0.0,
			"0.022": 0.0,
			"0.023": 0.0,
			"0.024": 0.0,
			"0.025": 0.0
		}
	}
}
