{
	 "smiles": "[O-][N+](=O)C1=CC=CC=C1Br", 
	 "Tm": 315.65, 
	 "num_atms": 14, 
	 "gaussian": { 
		 "optdone": 1, 
		 "sigma_profile": "yes", 
		 "theory": "DFT", 
		 "functional": "B3LYP", 
		 "basiset": "6-31G**", 
		 "properties": { 
			 "R2extent": 2457.3783, 
			 "electric_dipole_moment_norm": 4.77884947869, 
			 "electric_quadrupole_moment_norm": 7.31803407959, 
			 "total_energy": -3007.5374136, 
			 "HOMO_LUMO_gap": 0.17458, 
			 "cosmo_polarized_energy": -8.56, 
			 "cosmo_cavitation_energy": 21.28, 
			 "cosmo_dispersion_energy": -16.22, 
			 "cosmo_repulsion_energy": 1.31, 
			 "cosmo_total_nonelectrostatic_energy": 6.36, 
			 "SMD_solvation_energy": 4.91 
		},
		"coords": [
			{
				"x": 1.8645352976,
				"y": -0.4287094181,
				"z": 2.7543526928,
				"element": "O" 
			},
			{
				"x": 1.276016729,
				"y": -1.1265074261,
				"z": 1.9281454014,
				"element": "N" 
			},
			{
				"x": 1.271474162,
				"y": -2.3524979728,
				"z": 1.9147691976,
				"element": "O" 
			},
			{
				"x": 0.5552095414,
				"y": -0.4149584421,
				"z": 0.8558792609,
				"element": "C" 
			},
			{
				"x": 1.1023912672,
				"y": 0.8081933706,
				"z": 0.4593124826,
				"element": "C" 
			},
			{
				"x": 0.517916971,
				"y": 1.5356373871,
				"z": -0.5705111855,
				"element": "C" 
			},
			{
				"x": -0.6334796045,
				"y": 1.0461091897,
				"z": -1.189986147,
				"element": "C" 
			},
			{
				"x": -1.1940718069,
				"y": -0.1611791245,
				"z": -0.7784124907,
				"element": "C" 
			},
			{
				"x": -0.6038420803,
				"y": -0.9114410757,
				"z": 0.2427717173,
				"element": "C" 
			},
			{
				"x": -1.489257619,
				"y": -2.510908965,
				"z": 0.7569820233,
				"element": "Br" 
			},
			{
				"x": 1.9867533848,
				"y": 1.1625317184,
				"z": 0.9746236548,
				"element": "H" 
			},
			{
				"x": 0.9560793222,
				"y": 2.4775508662,
				"z": -0.8831948804,
				"element": "H" 
			},
			{
				"x": -1.1053031614,
				"y": 1.6052394737,
				"z": -1.9920681701,
				"element": "H" 
			},
			{
				"x": -2.0994224031,
				"y": -0.5341595814,
				"z": -1.242763557,
				"element": "H" 
			}
		],
		 "valence_orbital": [ 
			{
				"type": "occ",
				"energy": -0.31163,
				"method": "rhf"
			},
			{
				"type": "occ",
				"energy": -0.30915,
				"method": "rhf"
			},
			{
				"type": "occ",
				"energy": -0.28941,
				"method": "rhf"
			},
			{
				"type": "occ",
				"energy": -0.27823,
				"method": "rhf"
			},
			{
				"type": "occ",
				"energy": -0.26543,
				"method": "rhf"
			},
			{
				"type": "unocc",
				"energy": -0.09085,
				"method": "rhf"
			},
			{
				"type": "unocc",
				"energy": -0.03908,
				"method": "rhf"
			},
			{
				"type": "unocc",
				"energy": -0.01801,
				"method": "rhf"
			},
			{
				"type": "unocc",
				"energy": -0.01135,
				"method": "rhf"
			},
			{
				"type": "unocc",
				"energy": 0.08593,
				"method": "rhf"
			}
		],
		"cosmo_sigma_profile": { 
			"-0.025": 0.0,
			"-0.024": 0.0,
			"-0.023": 0.0,
			"-0.022": 0.0,
			"-0.021": 0.0,
			"-0.02": 0.0,
			"-0.019": 0.0,
			"-0.018": 0.0,
			"-0.017": 0.0,
			"-0.016": 0.0,
			"-0.015": 0.0,
			"-0.014": 0.0,
			"-0.013": 0.0,
			"-0.012": 0.0,
			"-0.011": 0.0,
			"-0.01": 0.0,
			"-0.009": 0.230519640524,
			"-0.008": 6.16547278252,
			"-0.007": 10.8977379225,
			"-0.006": 11.3130307118,
			"-0.005": 9.42532498635,
			"-0.004": 7.91676723446,
			"-0.003": 8.56382990261,
			"-0.002": 10.2614880949,
			"-0.001": 13.4931381943,
			"0.0": 17.3510459663,
			"0.001": 17.7921603719,
			"0.002": 12.1023740729,
			"0.003": 10.2881258496,
			"0.004": 6.33308698663,
			"0.005": 4.31425434026,
			"0.006": 4.89702420408,
			"0.007": 9.23200563895,
			"0.008": 8.96974641749,
			"0.009": 4.01232056291,
			"0.01": 1.18153297402,
			"0.011": 0.0,
			"0.012": 0.0,
			"0.013": 0.0,
			"0.014": 0.0,
			"0.015": 0.0,
			"0.016": 0.0,
			"0.017": 0.0,
			"0.018": 0.0,
			"0.019": 0.0,
			"0.02": 0.0,
			"0.021": 0.0,
			"0.022": 0.0,
			"0.023": 0.0,
			"0.024": 0.0,
			"0.025": 0.0
		}
	}
}
