{
	 "smiles": "CCN1CCN(CC1)S(=O)(=O)C1=CC(C(O)=O)=C(Cl)C=C1", 
	 "Tm": 463.15, 
	 "num_atms": 38, 
	 "gaussian": { 
		 "optdone": 1, 
		 "sigma_profile": "yes", 
		 "theory": "DFT", 
		 "functional": "B3LYP", 
		 "basiset": "6-31G**", 
		 "properties": { 
			 "R2extent": 8385.5414, 
			 "electric_dipole_moment_norm": 4.5603867961, 
			 "electric_quadrupole_moment_norm": 24.69449326, 
			 "total_energy": -1774.32981678, 
			 "HOMO_LUMO_gap": 0.13096, 
			 "cosmo_polarized_energy": -19.65, 
			 "cosmo_cavitation_energy": 42.89, 
			 "cosmo_dispersion_energy": -29.91, 
			 "cosmo_repulsion_energy": 2.24, 
			 "cosmo_total_nonelectrostatic_energy": 15.22, 
			 "SMD_solvation_energy": 4.48 
		},
		"coords": [
			{
				"x": -0.4445171635,
				"y": -5.2449404557,
				"z": -0.4662817332,
				"element": "C" 
			},
			{
				"x": 0.8793983682,
				"y": -4.5896139062,
				"z": -0.027442259,
				"element": "C" 
			},
			{
				"x": 0.9365175114,
				"y": -3.1413853485,
				"z": 0.1307786627,
				"element": "N" 
			},
			{
				"x": 0.2506895013,
				"y": -2.5336887749,
				"z": 1.262899816,
				"element": "C" 
			},
			{
				"x": -1.1680888366,
				"y": -2.0243793526,
				"z": 0.9422276453,
				"element": "C" 
			},
			{
				"x": -1.1555586663,
				"y": -1.188317551,
				"z": -0.2672849068,
				"element": "N" 
			},
			{
				"x": -0.4969216446,
				"y": -1.7901802949,
				"z": -1.4365592643,
				"element": "C" 
			},
			{
				"x": 0.9063530608,
				"y": -2.3053966422,
				"z": -1.0618829337,
				"element": "C" 
			},
			{
				"x": -1.4955944321,
				"y": 0.4389848886,
				"z": -0.2030599529,
				"element": "S" 
			},
			{
				"x": -2.4592420391,
				"y": 0.6211734397,
				"z": 0.8852159007,
				"element": "O" 
			},
			{
				"x": -1.7632244515,
				"y": 0.8640208861,
				"z": -1.578559627,
				"element": "O" 
			},
			{
				"x": 0.0016934299,
				"y": 1.3060155555,
				"z": 0.3111574957,
				"element": "C" 
			},
			{
				"x": 0.9173995237,
				"y": 1.7261767578,
				"z": -0.6470915274,
				"element": "C" 
			},
			{
				"x": 2.1040292051,
				"y": 2.3811933093,
				"z": -0.2762201525,
				"element": "C" 
			},
			{
				"x": 3.038175811,
				"y": 2.8364181445,
				"z": -1.3521715669,
				"element": "C" 
			},
			{
				"x": 2.7073496547,
				"y": 2.3067943554,
				"z": -2.5590933737,
				"element": "O" 
			},
			{
				"x": 3.9790287328,
				"y": 3.586575376,
				"z": -1.2196392603,
				"element": "O" 
			},
			{
				"x": 2.3398783998,
				"y": 2.6004262775,
				"z": 1.0972552316,
				"element": "C" 
			},
			{
				"x": 3.7813067362,
				"y": 3.3715384255,
				"z": 1.7050125618,
				"element": "Cl" 
			},
			{
				"x": 1.4056601614,
				"y": 2.1874466822,
				"z": 2.0531353303,
				"element": "C" 
			},
			{
				"x": 0.2338889263,
				"y": 1.5462247453,
				"z": 1.6672229144,
				"element": "C" 
			},
			{
				"x": -0.7712871532,
				"y": -4.887868533,
				"z": -1.4482069835,
				"element": "H" 
			},
			{
				"x": -0.3156614674,
				"y": -6.3313227097,
				"z": -0.5372655485,
				"element": "H" 
			},
			{
				"x": -1.2511740896,
				"y": -5.0557626162,
				"z": 0.2492800429,
				"element": "H" 
			},
			{
				"x": 1.185893917,
				"y": -5.0292953172,
				"z": 0.9307125296,
				"element": "H" 
			},
			{
				"x": 1.6606092765,
				"y": -4.8643892005,
				"z": -0.7482011826,
				"element": "H" 
			},
			{
				"x": 0.2066683615,
				"y": -3.255778256,
				"z": 2.085566205,
				"element": "H" 
			},
			{
				"x": 0.8466397632,
				"y": -1.6764937761,
				"z": 1.6129344142,
				"element": "H" 
			},
			{
				"x": -1.849656235,
				"y": -2.8645267905,
				"z": 0.7570297416,
				"element": "H" 
			},
			{
				"x": -1.5846185912,
				"y": -1.4443339963,
				"z": 1.7677524716,
				"element": "H" 
			},
			{
				"x": -0.4535637253,
				"y": -1.0497017418,
				"z": -2.2372617194,
				"element": "H" 
			},
			{
				"x": -1.1328406243,
				"y": -2.6133801192,
				"z": -1.7868304746,
				"element": "H" 
			},
			{
				"x": 1.553490352,
				"y": -1.4311005685,
				"z": -0.8923266809,
				"element": "H" 
			},
			{
				"x": 1.3308389582,
				"y": -2.8645158358,
				"z": -1.9028073537,
				"element": "H" 
			},
			{
				"x": 0.7055079596,
				"y": 1.5739906375,
				"z": -1.6975297226,
				"element": "H" 
			},
			{
				"x": 3.3419999977,
				"y": 2.6826360463,
				"z": -3.1909615041,
				"element": "H" 
			},
			{
				"x": 1.6055008283,
				"y": 2.3823968607,
				"z": 3.1005842922,
				"element": "H" 
			},
			{
				"x": -0.5056693171,
				"y": 1.2546593989,
				"z": 2.4048124717,
				"element": "H" 
			}
		],
		 "valence_orbital": [ 
			{
				"type": "occ",
				"energy": -0.29112,
				"method": "rhf"
			},
			{
				"type": "occ",
				"energy": -0.28325,
				"method": "rhf"
			},
			{
				"type": "occ",
				"energy": -0.27959,
				"method": "rhf"
			},
			{
				"type": "occ",
				"energy": -0.25837,
				"method": "rhf"
			},
			{
				"type": "occ",
				"energy": -0.20418,
				"method": "rhf"
			},
			{
				"type": "unocc",
				"energy": -0.07322,
				"method": "rhf"
			},
			{
				"type": "unocc",
				"energy": -0.04879,
				"method": "rhf"
			},
			{
				"type": "unocc",
				"energy": 0.01797,
				"method": "rhf"
			},
			{
				"type": "unocc",
				"energy": 0.0248,
				"method": "rhf"
			},
			{
				"type": "unocc",
				"energy": 0.05457,
				"method": "rhf"
			}
		],
		"cosmo_sigma_profile": { 
			"-0.025": 0.0,
			"-0.024": 0.0,
			"-0.023": 0.0,
			"-0.022": 0.0,
			"-0.021": 0.0,
			"-0.02": 0.0,
			"-0.019": 0.155293982691,
			"-0.018": 1.03704271164,
			"-0.017": 1.10148970184,
			"-0.016": 0.469622486216,
			"-0.015": 0.93965490908,
			"-0.014": 0.67920057573,
			"-0.013": 0.729855905731,
			"-0.012": 0.970506428225,
			"-0.011": 0.636043425781,
			"-0.01": 0.344596373548,
			"-0.009": 1.22499667157,
			"-0.008": 4.55815279378,
			"-0.007": 5.46598580202,
			"-0.006": 7.33011930469,
			"-0.005": 17.0123254942,
			"-0.004": 32.3423924331,
			"-0.003": 39.6184951636,
			"-0.002": 36.288426961,
			"-0.001": 38.3186215379,
			"0.0": 30.3456674884,
			"0.001": 19.1455218499,
			"0.002": 14.1808672771,
			"0.003": 13.5323315799,
			"0.004": 12.0461584159,
			"0.005": 7.82990577453,
			"0.006": 7.57505766704,
			"0.007": 6.32610001216,
			"0.008": 5.69590716315,
			"0.009": 6.74299424768,
			"0.01": 9.79684034225,
			"0.011": 13.6032306769,
			"0.012": 4.15818705329,
			"0.013": 0.382028038714,
			"0.014": 0.305359974728,
			"0.015": 0.0,
			"0.016": 0.0,
			"0.017": 0.0,
			"0.018": 0.0,
			"0.019": 0.0,
			"0.02": 0.0,
			"0.021": 0.0,
			"0.022": 0.0,
			"0.023": 0.0,
			"0.024": 0.0,
			"0.0": 0.0
		}
	}
}
