{
	 "smiles": "CN1C=C(C=O)N=N1", 
	 "Tm": 377.15, 
	 "num_atms": 13, 
	 "gaussian": { 
		 "optdone": 1, 
		 "sigma_profile": "yes", 
		 "theory": "DFT", 
		 "functional": "B3LYP", 
		 "basiset": "6-31G**", 
		 "properties": { 
			 "R2extent": 1408.6176, 
			 "electric_dipole_moment_norm": 7.29037597727, 
			 "electric_quadrupole_moment_norm": 13.1575954806, 
			 "total_energy": -394.855094661, 
			 "HOMO_LUMO_gap": 0.20315, 
			 "cosmo_polarized_energy": -19.44, 
			 "cosmo_cavitation_energy": 18.25, 
			 "cosmo_dispersion_energy": -13.34, 
			 "cosmo_repulsion_energy": 1.12, 
			 "cosmo_total_nonelectrostatic_energy": 6.03, 
			 "SMD_solvation_energy": 3.49 
		},
		"coords": [
			{
				"x": -2.5893268894,
				"y": 0.8539264141,
				"z": 0.1171759294,
				"element": "C" 
			},
			{
				"x": -1.5680628251,
				"y": -0.1028902511,
				"z": 0.5148680111,
				"element": "N" 
			},
			{
				"x": -0.5274884491,
				"y": -0.5969861627,
				"z": -0.1849060167,
				"element": "C" 
			},
			{
				"x": 0.1028008921,
				"y": -1.463608993,
				"z": 0.6949719724,
				"element": "C" 
			},
			{
				"x": 1.3016501223,
				"y": -2.272968608,
				"z": 0.4405511469,
				"element": "C" 
			},
			{
				"x": 1.8248298644,
				"y": -3.0218562474,
				"z": 1.2391120711,
				"element": "O" 
			},
			{
				"x": -0.5902178785,
				"y": -1.4466704337,
				"z": 1.8787588141,
				"element": "N" 
			},
			{
				"x": -1.591481277,
				"y": -0.6323656702,
				"z": 1.7726654267,
				"element": "N" 
			},
			{
				"x": -2.4060096584,
				"y": 1.161349066,
				"z": -0.9127472978,
				"element": "H" 
			},
			{
				"x": -2.5512268827,
				"y": 1.726832837,
				"z": 0.7721403636,
				"element": "H" 
			},
			{
				"x": -3.5758702083,
				"y": 0.3917156853,
				"z": 0.1912493254,
				"element": "H" 
			},
			{
				"x": -0.317142161,
				"y": -0.3144452735,
				"z": -1.2052127069,
				"element": "H" 
			},
			{
				"x": 1.7143453509,
				"y": -2.1431323627,
				"z": -0.5859270392,
				"element": "H" 
			}
		],
		 "valence_orbital": [ 
			{
				"type": "occ",
				"energy": -0.34732,
				"method": "rhf"
			},
			{
				"type": "occ",
				"energy": -0.31066,
				"method": "rhf"
			},
			{
				"type": "occ",
				"energy": -0.27978,
				"method": "rhf"
			},
			{
				"type": "occ",
				"energy": -0.27501,
				"method": "rhf"
			},
			{
				"type": "occ",
				"energy": -0.25431,
				"method": "rhf"
			},
			{
				"type": "unocc",
				"energy": -0.05116,
				"method": "rhf"
			},
			{
				"type": "unocc",
				"energy": -0.02034,
				"method": "rhf"
			},
			{
				"type": "unocc",
				"energy": 0.07203,
				"method": "rhf"
			},
			{
				"type": "unocc",
				"energy": 0.09204,
				"method": "rhf"
			},
			{
				"type": "unocc",
				"energy": 0.09712,
				"method": "rhf"
			}
		],
		"cosmo_sigma_profile": { 
			"-0.025": 0.0,
			"-0.024": 0.0,
			"-0.023": 0.0,
			"-0.022": 0.0,
			"-0.021": 0.0,
			"-0.02": 0.0,
			"-0.019": 0.0,
			"-0.018": 0.0,
			"-0.017": 0.0,
			"-0.016": 0.0,
			"-0.015": 0.0,
			"-0.014": 0.0,
			"-0.013": 0.0,
			"-0.012": 1.50336692795,
			"-0.011": 3.70082019402,
			"-0.01": 3.05362301972,
			"-0.009": 3.74630198533,
			"-0.008": 6.05967115176,
			"-0.007": 11.5445408929,
			"-0.006": 10.1179176419,
			"-0.005": 11.9772497231,
			"-0.004": 13.5668743594,
			"-0.003": 6.57029761567,
			"-0.002": 7.54693847197,
			"-0.001": 6.86643050677,
			"0.0": 4.67045164799,
			"0.001": 2.96120163553,
			"0.002": 2.20527820875,
			"0.003": 2.40568490859,
			"0.004": 3.39619783801,
			"0.005": 3.31968681864,
			"0.006": 2.47639809101,
			"0.007": 3.36296941467,
			"0.008": 3.79952413999,
			"0.009": 5.56047912405,
			"0.01": 6.65659931312,
			"0.011": 6.99295670048,
			"0.012": 6.5772088307,
			"0.013": 3.49742491547,
			"0.014": 1.68576762303,
			"0.015": 0.733312509828,
			"0.016": 0.0248010736279,
			"0.017": 0.0,
			"0.018": 0.0,
			"0.019": 0.0,
			"0.02": 0.0,
			"0.021": 0.0,
			"0.022": 0.0,
			"0.023": 0.0,
			"0.024": 0.0,
			"0.025": 0.0
		}
	}
}
