{
	 "smiles": "NC(=O)C(O)C1CCOC1", 
	 "Tm": 358.15, 
	 "num_atms": 21, 
	 "gaussian": { 
		 "optdone": 1, 
		 "sigma_profile": "yes", 
		 "theory": "DFT", 
		 "functional": "B3LYP", 
		 "basiset": "6-31G**", 
		 "properties": { 
			 "R2extent": 1767.9293, 
			 "electric_dipole_moment_norm": 4.16443094192, 
			 "electric_quadrupole_moment_norm": 9.41544168268, 
			 "total_energy": -515.685691335, 
			 "HOMO_LUMO_gap": 0.26293, 
			 "cosmo_polarized_energy": -16.35, 
			 "cosmo_cavitation_energy": 23.13, 
			 "cosmo_dispersion_energy": -17.38, 
			 "cosmo_repulsion_energy": 1.44, 
			 "cosmo_total_nonelectrostatic_energy": 7.19, 
			 "SMD_solvation_energy": 4.64 
		},
		"coords": [
			{
				"x": -0.0435731906,
				"y": 2.2826441956,
				"z": 0.3252291563,
				"element": "N" 
			},
			{
				"x": 0.5879528096,
				"y": 1.2370653572,
				"z": -0.2724056406,
				"element": "C" 
			},
			{
				"x": 1.4731680155,
				"y": 1.3619972082,
				"z": -1.1101552248,
				"element": "O" 
			},
			{
				"x": 0.0742385081,
				"y": -0.1443251143,
				"z": 0.1755977006,
				"element": "C" 
			},
			{
				"x": -0.6621235526,
				"y": -0.0583506906,
				"z": 1.4011226779,
				"element": "O" 
			},
			{
				"x": -0.8554570276,
				"y": -0.7602887394,
				"z": -0.8881682687,
				"element": "C" 
			},
			{
				"x": -1.4388769688,
				"y": -2.1271021354,
				"z": -0.4241854514,
				"element": "C" 
			},
			{
				"x": -0.8705382887,
				"y": -3.1344370982,
				"z": -1.4473116869,
				"element": "C" 
			},
			{
				"x": 0.275246733,
				"y": -2.5053487921,
				"z": -2.0076050149,
				"element": "O" 
			},
			{
				"x": -0.0892491764,
				"y": -1.1408737348,
				"z": -2.1786822628,
				"element": "C" 
			},
			{
				"x": 0.1851998958,
				"y": 3.2207328108,
				"z": 0.0358962921,
				"element": "H" 
			},
			{
				"x": -0.7910967858,
				"y": 2.1054655595,
				"z": 0.9781074781,
				"element": "H" 
			},
			{
				"x": 0.9523400864,
				"y": -0.7944158691,
				"z": 0.2857070102,
				"element": "H" 
			},
			{
				"x": -0.0278889268,
				"y": 0.0261316944,
				"z": 2.1248354304,
				"element": "H" 
			},
			{
				"x": -1.652394627,
				"y": -0.0388515053,
				"z": -1.0988371812,
				"element": "H" 
			},
			{
				"x": -2.5320926578,
				"y": -2.1227813674,
				"z": -0.4148531931,
				"element": "H" 
			},
			{
				"x": -1.1101073869,
				"y": -2.3543083123,
				"z": 0.5923992583,
				"element": "H" 
			},
			{
				"x": -1.6120597873,
				"y": -3.3507289732,
				"z": -2.2347183266,
				"element": "H" 
			},
			{
				"x": -0.5538336888,
				"y": -4.0830277528,
				"z": -1.0051937607,
				"element": "H" 
			},
			{
				"x": 0.8170174413,
				"y": -0.5551345616,
				"z": -2.3366177502,
				"element": "H" 
			},
			{
				"x": -0.7505714244,
				"y": -1.0245621791,
				"z": -3.0533612419,
				"element": "H" 
			}
		],
		 "valence_orbital": [ 
			{
				"type": "occ",
				"energy": -0.31417,
				"method": "rhf"
			},
			{
				"type": "occ",
				"energy": -0.30672,
				"method": "rhf"
			},
			{
				"type": "occ",
				"energy": -0.26956,
				"method": "rhf"
			},
			{
				"type": "occ",
				"energy": -0.24739,
				"method": "rhf"
			},
			{
				"type": "occ",
				"energy": -0.24047,
				"method": "rhf"
			},
			{
				"type": "unocc",
				"energy": 0.02246,
				"method": "rhf"
			},
			{
				"type": "unocc",
				"energy": 0.05717,
				"method": "rhf"
			},
			{
				"type": "unocc",
				"energy": 0.08752,
				"method": "rhf"
			},
			{
				"type": "unocc",
				"energy": 0.10042,
				"method": "rhf"
			},
			{
				"type": "unocc",
				"energy": 0.11908,
				"method": "rhf"
			}
		],
		"cosmo_sigma_profile": { 
			"-0.025": 0.0,
			"-0.024": 0.0,
			"-0.023": 0.0,
			"-0.022": 0.0,
			"-0.021": 0.0,
			"-0.02": 0.0,
			"-0.019": 0.0,
			"-0.018": 0.0,
			"-0.017": 0.450472039582,
			"-0.016": 1.10642425839,
			"-0.015": 0.88608019449,
			"-0.014": 1.9464150173,
			"-0.013": 2.40800281806,
			"-0.012": 2.65017007887,
			"-0.011": 2.07316941255,
			"-0.01": 2.45577966762,
			"-0.009": 3.72391264276,
			"-0.008": 3.16486637566,
			"-0.007": 2.91409584303,
			"-0.006": 4.15249031164,
			"-0.005": 4.43783998209,
			"-0.004": 11.2750915115,
			"-0.003": 24.5076293986,
			"-0.002": 21.7542180169,
			"-0.001": 12.5785637532,
			"0.0": 9.49393930817,
			"0.001": 7.31153616382,
			"0.002": 6.83360794358,
			"0.003": 5.58065627967,
			"0.004": 5.47022522067,
			"0.005": 5.1125796103,
			"0.006": 4.0840092613,
			"0.007": 2.37114003193,
			"0.008": 3.82351538382,
			"0.009": 4.24744155397,
			"0.01": 3.21959586188,
			"0.011": 3.56881592643,
			"0.012": 3.51319826874,
			"0.013": 5.56315169864,
			"0.014": 5.94465008936,
			"0.015": 0.953971799499,
			"0.016": 0.0,
			"0.017": 0.0,
			"0.018": 0.0,
			"0.019": 0.0,
			"0.02": 0.0,
			"0.021": 0.0,
			"0.022": 0.0,
			"0.023": 0.0,
			"0.024": 0.0,
			"0.025": 0.0
		}
	}
}
