{
	 "smiles": "[O-][N+](=O)C1=CC2=C(C=C1)C(=CN2)S(Cl)(=O)=O", 
	 "Tm": 447.15, 
	 "num_atms": 21, 
	 "gaussian": { 
		 "optdone": 1, 
		 "sigma_profile": "yes", 
		 "theory": "DFT", 
		 "functional": "B3LYP", 
		 "basiset": "6-31G**", 
		 "properties": { 
			 "R2extent": 5754.378, 
			 "electric_dipole_moment_norm": 5.20779864242, 
			 "electric_quadrupole_moment_norm": 37.5914301589, 
			 "total_energy": -1576.47725079, 
			 "HOMO_LUMO_gap": 0.16422, 
			 "cosmo_polarized_energy": -21.03, 
			 "cosmo_cavitation_energy": 30.38, 
			 "cosmo_dispersion_energy": -22.64, 
			 "cosmo_repulsion_energy": 1.7, 
			 "cosmo_total_nonelectrostatic_energy": 9.44, 
			 "SMD_solvation_energy": 6.06 
		},
		"coords": [
			{
				"x": 0.7524545003,
				"y": 3.8153938788,
				"z": -1.7873253554,
				"element": "O" 
			},
			{
				"x": -0.3346377504,
				"y": 3.3143691242,
				"z": -1.5062906069,
				"element": "N" 
			},
			{
				"x": -1.4248681483,
				"y": 3.7426484006,
				"z": -1.8873142277,
				"element": "O" 
			},
			{
				"x": -0.3346322749,
				"y": 2.1168060469,
				"z": -0.6519621005,
				"element": "C" 
			},
			{
				"x": -1.5604040971,
				"y": 1.548379108,
				"z": -0.3308986046,
				"element": "C" 
			},
			{
				"x": -1.510902695,
				"y": 0.419026587,
				"z": 0.4809504872,
				"element": "C" 
			},
			{
				"x": -0.287601804,
				"y": -0.1298539607,
				"z": 0.9548189533,
				"element": "C" 
			},
			{
				"x": 0.9290182465,
				"y": 0.4763137267,
				"z": 0.5980077986,
				"element": "C" 
			},
			{
				"x": 0.8972916631,
				"y": 1.6047461084,
				"z": -0.2056448337,
				"element": "C" 
			},
			{
				"x": -0.6629043641,
				"y": -1.2770625196,
				"z": 1.7352565534,
				"element": "C" 
			},
			{
				"x": -2.0390832034,
				"y": -1.3825568666,
				"z": 1.724394694,
				"element": "C" 
			},
			{
				"x": -2.5454664896,
				"y": -0.3687239271,
				"z": 0.969887867,
				"element": "N" 
			},
			{
				"x": 0.3762400942,
				"y": -2.3722830077,
				"z": 2.6047349478,
				"element": "S" 
			},
			{
				"x": 0.7585673266,
				"y": -1.2947218246,
				"z": 4.4109434406,
				"element": "Cl" 
			},
			{
				"x": -0.3944462363,
				"y": -3.5472245656,
				"z": 2.9934309984,
				"element": "O" 
			},
			{
				"x": 1.6628608243,
				"y": -2.4601785897,
				"z": 1.9255697769,
				"element": "O" 
			},
			{
				"x": -2.4795378906,
				"y": 1.9815511771,
				"z": -0.7050542753,
				"element": "H" 
			},
			{
				"x": 1.8699117355,
				"y": 0.062306066,
				"z": 0.9410140885,
				"element": "H" 
			},
			{
				"x": 1.806862011,
				"y": 2.1079168011,
				"z": -0.5068986899,
				"element": "H" 
			},
			{
				"x": -2.6680517235,
				"y": -2.1189667191,
				"z": 2.2021417188,
				"element": "H" 
			},
			{
				"x": -3.5257697243,
				"y": -0.2267850439,
				"z": 0.7782373695,
				"element": "H" 
			}
		],
		 "valence_orbital": [ 
			{
				"type": "occ",
				"energy": -0.31732,
				"method": "rhf"
			},
			{
				"type": "occ",
				"energy": -0.31675,
				"method": "rhf"
			},
			{
				"type": "occ",
				"energy": -0.2999,
				"method": "rhf"
			},
			{
				"type": "occ",
				"energy": -0.28013,
				"method": "rhf"
			},
			{
				"type": "occ",
				"energy": -0.26528,
				"method": "rhf"
			},
			{
				"type": "unocc",
				"energy": -0.10106,
				"method": "rhf"
			},
			{
				"type": "unocc",
				"energy": -0.0922,
				"method": "rhf"
			},
			{
				"type": "unocc",
				"energy": -0.04899,
				"method": "rhf"
			},
			{
				"type": "unocc",
				"energy": -0.01416,
				"method": "rhf"
			},
			{
				"type": "unocc",
				"energy": 0.00067,
				"method": "rhf"
			}
		],
		"cosmo_sigma_profile": { 
			"-0.025": 0.0,
			"-0.024": 0.0,
			"-0.023": 0.0,
			"-0.022": 0.0,
			"-0.021": 0.0,
			"-0.02": 0.0,
			"-0.019": 0.428101105389,
			"-0.018": 2.40563964476,
			"-0.017": 1.36371876118,
			"-0.016": 1.99316990777,
			"-0.015": 1.53962155149,
			"-0.014": 1.26426347169,
			"-0.013": 1.57129156506,
			"-0.012": 2.74650814414,
			"-0.011": 2.98978246197,
			"-0.01": 2.81331457063,
			"-0.009": 2.87183010335,
			"-0.008": 3.1209648423,
			"-0.007": 5.28851070837,
			"-0.006": 7.70972311875,
			"-0.005": 8.38095404302,
			"-0.004": 10.4881589159,
			"-0.003": 11.6112408199,
			"-0.002": 18.4561167489,
			"-0.001": 21.3680945011,
			"0.0": 21.7779475222,
			"0.001": 16.9562599252,
			"0.002": 13.5813621291,
			"0.003": 14.3605266782,
			"0.004": 15.4401058867,
			"0.005": 7.47911652568,
			"0.006": 7.89648850129,
			"0.007": 12.7327453599,
			"0.008": 16.4347023924,
			"0.009": 9.8364922815,
			"0.01": 2.79560231754,
			"0.011": 0.163323701497,
			"0.012": 0.0,
			"0.013": 0.0,
			"0.014": 0.0,
			"0.015": 0.0,
			"0.016": 0.0,
			"0.017": 0.0,
			"0.018": 0.0,
			"0.019": 0.0,
			"0.02": 0.0,
			"0.021": 0.0,
			"0.022": 0.0,
			"0.023": 0.0,
			"0.024": 0.0,
			"0.025": 0.0
		}
	}
}
