{
	 "smiles": "CC1=NC(N2CCCC2)=C(C=C1)C#N", 
	 "Tm": 348.15, 
	 "num_atms": 27, 
	 "gaussian": { 
		 "optdone": 1, 
		 "sigma_profile": "yes", 
		 "theory": "DFT", 
		 "functional": "B3LYP", 
		 "basiset": "6-31G**", 
		 "properties": { 
			 "R2extent": 3172.4415, 
			 "electric_dipole_moment_norm": 3.6465439926, 
			 "electric_quadrupole_moment_norm": 14.9747569062, 
			 "total_energy": -591.25806124, 
			 "HOMO_LUMO_gap": 0.16565, 
			 "cosmo_polarized_energy": -9.67, 
			 "cosmo_cavitation_energy": 29.99, 
			 "cosmo_dispersion_energy": -21.53, 
			 "cosmo_repulsion_energy": 1.71, 
			 "cosmo_total_nonelectrostatic_energy": 10.17, 
			 "SMD_solvation_energy": 4.13 
		},
		"coords": [
			{
				"x": -4.2254583486,
				"y": 1.4679875773,
				"z": -0.3413275555,
				"element": "C" 
			},
			{
				"x": -2.8410149496,
				"y": 1.2515753627,
				"z": -0.9006071815,
				"element": "C" 
			},
			{
				"x": -1.9263105901,
				"y": 0.7661498508,
				"z": -0.0610073092,
				"element": "N" 
			},
			{
				"x": -0.6577339148,
				"y": 0.5449307918,
				"z": -0.4769267673,
				"element": "C" 
			},
			{
				"x": 0.1708577338,
				"y": 0.0161035308,
				"z": 0.4648419908,
				"element": "N" 
			},
			{
				"x": -0.3022270437,
				"y": -0.210570238,
				"z": 1.8419640111,
				"element": "C" 
			},
			{
				"x": 0.9593564871,
				"y": -0.6769391652,
				"z": 2.5773635935,
				"element": "C" 
			},
			{
				"x": 1.7425169137,
				"y": -1.4227707065,
				"z": 1.4871048246,
				"element": "C" 
			},
			{
				"x": 1.5020552819,
				"y": -0.5680715035,
				"z": 0.2330470538,
				"element": "C" 
			},
			{
				"x": -0.2635933325,
				"y": 0.8725068961,
				"z": -1.8155406328,
				"element": "C" 
			},
			{
				"x": -1.2536825863,
				"y": 1.3637391165,
				"z": -2.6832750419,
				"element": "C" 
			},
			{
				"x": -2.5528877309,
				"y": 1.548452968,
				"z": -2.2430262424,
				"element": "C" 
			},
			{
				"x": 1.0717160683,
				"y": 0.7997674124,
				"z": -2.3140535291,
				"element": "C" 
			},
			{
				"x": 2.1445061081,
				"y": 0.7813562043,
				"z": -2.7697133866,
				"element": "N" 
			},
			{
				"x": -4.9629713765,
				"y": 0.8597149228,
				"z": -0.8774771846,
				"element": "H" 
			},
			{
				"x": -4.2470390376,
				"y": 1.1979822849,
				"z": 0.7152436624,
				"element": "H" 
			},
			{
				"x": -4.5325028205,
				"y": 2.5144736113,
				"z": -0.4483361107,
				"element": "H" 
			},
			{
				"x": -0.7376876418,
				"y": 0.7036570139,
				"z": 2.2522530933,
				"element": "H" 
			},
			{
				"x": -1.0897650615,
				"y": -0.9753959949,
				"z": 1.8552075045,
				"element": "H" 
			},
			{
				"x": 0.7254588019,
				"y": -1.2996616921,
				"z": 3.4448804574,
				"element": "H" 
			},
			{
				"x": 1.5325502606,
				"y": 0.1882769758,
				"z": 2.9297390185,
				"element": "H" 
			},
			{
				"x": 1.3239902917,
				"y": -2.425207731,
				"z": 1.3422071297,
				"element": "H" 
			},
			{
				"x": 2.8068164245,
				"y": -1.5330666472,
				"z": 1.7102512943,
				"element": "H" 
			},
			{
				"x": 1.5160033108,
				"y": -1.1611573147,
				"z": -0.685016442,
				"element": "H" 
			},
			{
				"x": 2.2641240416,
				"y": 0.2136896811,
				"z": 0.1314441622,
				"element": "H" 
			},
			{
				"x": -0.9718388404,
				"y": 1.6094209654,
				"z": -3.7024601593,
				"element": "H" 
			},
			{
				"x": -3.3218384493,
				"y": 1.9292558274,
				"z": -2.9061802532,
				"element": "H" 
			}
		],
		 "valence_orbital": [ 
			{
				"type": "occ",
				"energy": -0.31908,
				"method": "rhf"
			},
			{
				"type": "occ",
				"energy": -0.29992,
				"method": "rhf"
			},
			{
				"type": "occ",
				"energy": -0.27244,
				"method": "rhf"
			},
			{
				"type": "occ",
				"energy": -0.26125,
				"method": "rhf"
			},
			{
				"type": "occ",
				"energy": -0.20616,
				"method": "rhf"
			},
			{
				"type": "unocc",
				"energy": -0.04051,
				"method": "rhf"
			},
			{
				"type": "unocc",
				"energy": -0.00748,
				"method": "rhf"
			},
			{
				"type": "unocc",
				"energy": 0.0396,
				"method": "rhf"
			},
			{
				"type": "unocc",
				"energy": 0.07838,
				"method": "rhf"
			},
			{
				"type": "unocc",
				"energy": 0.08162,
				"method": "rhf"
			}
		],
		"cosmo_sigma_profile": { 
			"-0.025": 0.0,
			"-0.024": 0.0,
			"-0.023": 0.0,
			"-0.022": 0.0,
			"-0.021": 0.0,
			"-0.02": 0.0,
			"-0.019": 0.0,
			"-0.018": 0.0,
			"-0.017": 0.0,
			"-0.016": 0.0,
			"-0.015": 0.0,
			"-0.014": 0.0,
			"-0.013": 0.0,
			"-0.012": 0.0,
			"-0.011": 0.0,
			"-0.01": 0.0,
			"-0.009": 0.00132225934683,
			"-0.008": 1.36475808667,
			"-0.007": 2.31839246163,
			"-0.006": 4.55699308917,
			"-0.005": 9.52174488172,
			"-0.004": 25.0413906957,
			"-0.003": 33.8009071997,
			"-0.002": 31.3197393749,
			"-0.001": 27.1492075718,
			"0.0": 24.3498671141,
			"0.001": 15.9625355597,
			"0.002": 14.117736237,
			"0.003": 8.10312986442,
			"0.004": 5.71254406668,
			"0.005": 3.98242152302,
			"0.006": 4.56308109858,
			"0.007": 3.61579821975,
			"0.008": 3.65671479316,
			"0.009": 3.96307192073,
			"0.01": 4.4891284262,
			"0.011": 3.48671178466,
			"0.012": 2.89330268607,
			"0.013": 2.48043104387,
			"0.014": 1.13737407233,
			"0.015": 0.0,
			"0.016": 0.0,
			"0.017": 0.0,
			"0.018": 0.0,
			"0.019": 0.0,
			"0.02": 0.0,
			"0.021": 0.0,
			"0.022": 0.0,
			"0.023": 0.0,
			"0.024": 0.0,
			"0.025": 0.0
		}
	}
}
