{
	 "smiles": "NC(=NO)C1=C2N=CC=CN2N=C1", 
	 "Tm": 451.15, 
	 "num_atms": 20, 
	 "gaussian": { 
		 "optdone": 1, 
		 "sigma_profile": "yes", 
		 "theory": "DFT", 
		 "functional": "B3LYP", 
		 "basiset": "6-31G**", 
		 "properties": { 
			 "R2extent": 2524.2282, 
			 "electric_dipole_moment_norm": 3.8179218025, 
			 "electric_quadrupole_moment_norm": 14.6631883484, 
			 "total_energy": -619.858746826, 
			 "HOMO_LUMO_gap": 0.12415, 
			 "cosmo_polarized_energy": -15.66, 
			 "cosmo_cavitation_energy": 24.49, 
			 "cosmo_dispersion_energy": -18.82, 
			 "cosmo_repulsion_energy": 1.47, 
			 "cosmo_total_nonelectrostatic_energy": 7.14, 
			 "SMD_solvation_energy": 2.73 
		},
		"coords": [
			{
				"x": 2.275537234,
				"y": -0.8104223558,
				"z": -0.4708712085,
				"element": "N" 
			},
			{
				"x": 1.4368121478,
				"y": -0.9938910964,
				"z": 0.6225495005,
				"element": "C" 
			},
			{
				"x": 2.0055200023,
				"y": -1.3500482238,
				"z": 1.730665237,
				"element": "N" 
			},
			{
				"x": 1.0890275391,
				"y": -1.4095164393,
				"z": 2.8135828262,
				"element": "O" 
			},
			{
				"x": 0.0126967229,
				"y": -0.7196036094,
				"z": 0.3961198179,
				"element": "C" 
			},
			{
				"x": -0.6058364013,
				"y": -0.5876670365,
				"z": -0.8577806992,
				"element": "C" 
			},
			{
				"x": -0.1514589415,
				"y": -0.6759547682,
				"z": -2.1268562335,
				"element": "N" 
			},
			{
				"x": -1.0266750874,
				"y": -0.5071816927,
				"z": -3.0993150699,
				"element": "C" 
			},
			{
				"x": -2.4066197775,
				"y": -0.24258816,
				"z": -2.8803233472,
				"element": "C" 
			},
			{
				"x": -2.8603495742,
				"y": -0.1620354041,
				"z": -1.5898659243,
				"element": "C" 
			},
			{
				"x": -1.9610099252,
				"y": -0.3358628529,
				"z": -0.588014379,
				"element": "N" 
			},
			{
				"x": -2.2319193484,
				"y": -0.3005735016,
				"z": 0.7348356552,
				"element": "N" 
			},
			{
				"x": -1.0490044553,
				"y": -0.5352987469,
				"z": 1.3143250227,
				"element": "C" 
			},
			{
				"x": 1.8530894162,
				"y": -0.9683927501,
				"z": -1.3781424417,
				"element": "H" 
			},
			{
				"x": 3.1911434126,
				"y": -1.219763291,
				"z": -0.3440283698,
				"element": "H" 
			},
			{
				"x": 1.6638044993,
				"y": -1.7047810941,
				"z": 3.5296480414,
				"element": "H" 
			},
			{
				"x": -0.6454899882,
				"y": -0.5811782015,
				"z": -4.1153486371,
				"element": "H" 
			},
			{
				"x": -3.0878603251,
				"y": -0.1101076,
				"z": -3.711378248,
				"element": "H" 
			},
			{
				"x": -3.8823001229,
				"y": 0.0277185771,
				"z": -1.284810151,
				"element": "H" 
			},
			{
				"x": -0.9812070271,
				"y": -0.5617517529,
				"z": 2.3892086082,
				"element": "H" 
			}
		],
		 "valence_orbital": [ 
			{
				"type": "occ",
				"energy": -0.28203,
				"method": "rhf"
			},
			{
				"type": "occ",
				"energy": -0.27002,
				"method": "rhf"
			},
			{
				"type": "occ",
				"energy": -0.2578,
				"method": "rhf"
			},
			{
				"type": "occ",
				"energy": -0.23459,
				"method": "rhf"
			},
			{
				"type": "occ",
				"energy": -0.19039,
				"method": "rhf"
			},
			{
				"type": "unocc",
				"energy": -0.06624,
				"method": "rhf"
			},
			{
				"type": "unocc",
				"energy": -0.02469,
				"method": "rhf"
			},
			{
				"type": "unocc",
				"energy": 0.01733,
				"method": "rhf"
			},
			{
				"type": "unocc",
				"energy": 0.07912,
				"method": "rhf"
			},
			{
				"type": "unocc",
				"energy": 0.0861,
				"method": "rhf"
			}
		],
		"cosmo_sigma_profile": { 
			"-0.025": 0.0,
			"-0.024": 0.0,
			"-0.023": 0.0,
			"-0.022": 0.0,
			"-0.021": 0.0,
			"-0.02": 0.0,
			"-0.019": 0.0,
			"-0.018": 0.0,
			"-0.017": 0.145130175252,
			"-0.016": 0.986944297051,
			"-0.015": 0.973665328637,
			"-0.014": 0.732157642347,
			"-0.013": 0.643732120964,
			"-0.012": 1.65117230581,
			"-0.011": 2.62647168353,
			"-0.01": 3.34725772569,
			"-0.009": 5.3189980975,
			"-0.008": 9.83955681369,
			"-0.007": 8.98986169807,
			"-0.006": 6.80349131978,
			"-0.005": 8.28317302064,
			"-0.004": 8.97538735873,
			"-0.003": 11.2035305,
			"-0.002": 12.0101281715,
			"-0.001": 12.3697979511,
			"0.0": 13.0621552661,
			"0.001": 9.81532856124,
			"0.002": 11.7262141158,
			"0.003": 10.7758508771,
			"0.004": 8.02682602856,
			"0.005": 7.73950726082,
			"0.006": 7.7055331989,
			"0.007": 5.71187014893,
			"0.008": 5.18101657809,
			"0.009": 5.33349195842,
			"0.01": 5.03279188887,
			"0.011": 3.72996942658,
			"0.012": 2.60584444805,
			"0.013": 2.91585083832,
			"0.014": 1.97218180158,
			"0.015": 0.609725586411,
			"0.016": 0.0,
			"0.017": 0.0,
			"0.018": 0.0,
			"0.019": 0.0,
			"0.02": 0.0,
			"0.021": 0.0,
			"0.022": 0.0,
			"0.023": 0.0,
			"0.024": 0.0,
			"0.025": 0.0
		}
	}
}
