{
	 "smiles": "CCC(C)N1N=CC2=C1N=C(C)C=C2C(O)=O", 
	 "Tm": 422.15, 
	 "num_atms": 32, 
	 "gaussian": { 
		 "optdone": 1, 
		 "sigma_profile": "yes", 
		 "theory": "DFT", 
		 "functional": "B3LYP", 
		 "basiset": "6-31G**", 
		 "properties": { 
			 "R2extent": 5200.1507, 
			 "electric_dipole_moment_norm": 4.7647600842, 
			 "electric_quadrupole_moment_norm": 19.8845886684, 
			 "total_energy": -781.037858556, 
			 "HOMO_LUMO_gap": 0.16366, 
			 "cosmo_polarized_energy": -16.25, 
			 "cosmo_cavitation_energy": 35.55, 
			 "cosmo_dispersion_energy": -24.66, 
			 "cosmo_repulsion_energy": 1.94, 
			 "cosmo_total_nonelectrostatic_energy": 12.83, 
			 "SMD_solvation_energy": 5.57 
		},
		"coords": [
			{
				"x": 0.1434188856,
				"y": 0.9090275726,
				"z": -2.6936483462,
				"element": "C" 
			},
			{
				"x": 0.0424318267,
				"y": -0.6165148113,
				"z": -2.616548079,
				"element": "C" 
			},
			{
				"x": 0.8000327943,
				"y": -1.2374853359,
				"z": -1.4306579963,
				"element": "C" 
			},
			{
				"x": 0.7527967515,
				"y": -2.7696522266,
				"z": -1.4437050882,
				"element": "C" 
			},
			{
				"x": 0.2825543763,
				"y": -0.7260836259,
				"z": -0.1551487409,
				"element": "N" 
			},
			{
				"x": -1.0162414738,
				"y": -0.9201897422,
				"z": 0.2006980027,
				"element": "N" 
			},
			{
				"x": -1.1822893276,
				"y": -0.3725294703,
				"z": 1.3953060094,
				"element": "C" 
			},
			{
				"x": 0.0332936133,
				"y": 0.2019056758,
				"z": 1.8599287029,
				"element": "C" 
			},
			{
				"x": 0.9629603213,
				"y": -0.0548772269,
				"z": 0.8185484516,
				"element": "C" 
			},
			{
				"x": 2.2583585924,
				"y": 0.2870420349,
				"z": 0.7911610783,
				"element": "N" 
			},
			{
				"x": 2.6992970447,
				"y": 0.9364732586,
				"z": 1.8686909962,
				"element": "C" 
			},
			{
				"x": 4.1572475196,
				"y": 1.3221904298,
				"z": 1.8937224929,
				"element": "C" 
			},
			{
				"x": 1.8579186359,
				"y": 1.2637073836,
				"z": 2.9677496226,
				"element": "C" 
			},
			{
				"x": 0.5113885596,
				"y": 0.9122556116,
				"z": 2.9774923581,
				"element": "C" 
			},
			{
				"x": -0.4169464137,
				"y": 1.2216387212,
				"z": 4.1149038156,
				"element": "C" 
			},
			{
				"x": -0.0616347162,
				"y": 2.2489845651,
				"z": 4.9283572384,
				"element": "O" 
			},
			{
				"x": -1.4349280347,
				"y": 0.6042716547,
				"z": 4.3198441517,
				"element": "O" 
			},
			{
				"x": -0.3004545754,
				"y": 1.3814435267,
				"z": -1.8119942279,
				"element": "H" 
			},
			{
				"x": -0.3848727512,
				"y": 1.2887167345,
				"z": -3.5736739169,
				"element": "H" 
			},
			{
				"x": 1.1863805028,
				"y": 1.2383588893,
				"z": -2.7615799147,
				"element": "H" 
			},
			{
				"x": 0.4471616892,
				"y": -1.0628557335,
				"z": -3.5332075208,
				"element": "H" 
			},
			{
				"x": -1.00820318,
				"y": -0.9215946224,
				"z": -2.553160959,
				"element": "H" 
			},
			{
				"x": 1.8422880675,
				"y": -0.9019013769,
				"z": -1.4495553571,
				"element": "H" 
			},
			{
				"x": 1.3243207186,
				"y": -3.1848168492,
				"z": -0.6085469031,
				"element": "H" 
			},
			{
				"x": -0.2795911511,
				"y": -3.1208719801,
				"z": -1.3630477278,
				"element": "H" 
			},
			{
				"x": 1.1795152932,
				"y": -3.1520301392,
				"z": -2.3760501976,
				"element": "H" 
			},
			{
				"x": -2.1398119443,
				"y": -0.4098049133,
				"z": 1.8927118973,
				"element": "H" 
			},
			{
				"x": 4.676405768,
				"y": 0.8496544244,
				"z": 2.7355586884,
				"element": "H" 
			},
			{
				"x": 4.2807577731,
				"y": 2.4056226771,
				"z": 2.0042631427,
				"element": "H" 
			},
			{
				"x": 4.637009901,
				"y": 1.0074518478,
				"z": 0.9660624905,
				"element": "H" 
			},
			{
				"x": 2.3107839806,
				"y": 1.7612721826,
				"z": 3.8214921565,
				"element": "H" 
			},
			{
				"x": 0.6850509529,
				"y": 2.7316908636,
				"z": 4.5466336796,
				"element": "H" 
			}
		],
		 "valence_orbital": [ 
			{
				"type": "occ",
				"energy": -0.29713,
				"method": "rhf"
			},
			{
				"type": "occ",
				"energy": -0.28732,
				"method": "rhf"
			},
			{
				"type": "occ",
				"energy": -0.27291,
				"method": "rhf"
			},
			{
				"type": "occ",
				"energy": -0.2532,
				"method": "rhf"
			},
			{
				"type": "occ",
				"energy": -0.2394,
				"method": "rhf"
			},
			{
				"type": "unocc",
				"energy": -0.07574,
				"method": "rhf"
			},
			{
				"type": "unocc",
				"energy": -0.01396,
				"method": "rhf"
			},
			{
				"type": "unocc",
				"energy": 0.02977,
				"method": "rhf"
			},
			{
				"type": "unocc",
				"energy": 0.04899,
				"method": "rhf"
			},
			{
				"type": "unocc",
				"energy": 0.06035,
				"method": "rhf"
			}
		],
		"cosmo_sigma_profile": { 
			"-0.025": 0.0,
			"-0.024": 0.0,
			"-0.023": 0.0,
			"-0.022": 0.0,
			"-0.021": 0.0,
			"-0.02": 0.0,
			"-0.019": 0.303341140459,
			"-0.018": 1.22536408462,
			"-0.017": 0.685030196107,
			"-0.016": 1.23064446906,
			"-0.015": 0.816980349001,
			"-0.014": 1.48688368636,
			"-0.013": 0.944573874882,
			"-0.012": 1.13039606731,
			"-0.011": 0.873964393481,
			"-0.01": 1.10760123398,
			"-0.009": 1.81608069025,
			"-0.008": 2.02402120959,
			"-0.007": 2.97884075377,
			"-0.006": 4.10370946923,
			"-0.005": 10.0956991825,
			"-0.004": 19.191774645,
			"-0.003": 25.700439577,
			"-0.002": 29.2496173238,
			"-0.001": 33.5791633053,
			"0.0": 39.5697711648,
			"0.001": 25.3613471669,
			"0.002": 13.2665889558,
			"0.003": 8.39864788795,
			"0.004": 8.4168361084,
			"0.005": 6.3528908214,
			"0.006": 5.78522581351,
			"0.007": 6.1134877105,
			"0.008": 5.18065333351,
			"0.009": 5.75873653275,
			"0.01": 7.45187406125,
			"0.011": 6.29575761668,
			"0.012": 3.12530671585,
			"0.013": 0.989781385436,
			"0.014": 0.335984455647,
			"0.015": 0.0,
			"0.016": 0.0,
			"0.017": 0.0,
			"0.018": 0.0,
			"0.019": 0.0,
			"0.02": 0.0,
			"0.021": 0.0,
			"0.022": 0.0,
			"0.023": 0.0,
			"0.024": 0.0,
			"0.025": 0.0
		}
	}
}
