{
	 "smiles": "OC1CC(O)C(O)C(O)C1O", 
	 "Tm": 509.15, 
	 "num_atms": 23, 
	 "gaussian": { 
		 "optdone": 1, 
		 "sigma_profile": "yes", 
		 "theory": "DFT", 
		 "functional": "B3LYP", 
		 "basiset": "6-31G**", 
		 "properties": { 
			 "R2extent": 1923.4215, 
			 "electric_dipole_moment_norm": 3.24141537912, 
			 "electric_quadrupole_moment_norm": 11.0758091009, 
			 "total_energy": -611.966011398, 
			 "HOMO_LUMO_gap": 0.29258, 
			 "cosmo_polarized_energy": -17.06, 
			 "cosmo_cavitation_energy": 23.56, 
			 "cosmo_dispersion_energy": -18.13, 
			 "cosmo_repulsion_energy": 1.46, 
			 "cosmo_total_nonelectrostatic_energy": 6.88, 
			 "SMD_solvation_energy": 3.41 
		},
		"coords": [
			{
				"x": 3.0360755418,
				"y": 1.8896580214,
				"z": -1.2212109411,
				"element": "O" 
			},
			{
				"x": 2.0475986702,
				"y": 0.8778246894,
				"z": -1.1413012409,
				"element": "C" 
			},
			{
				"x": 2.4069116037,
				"y": -0.1670425677,
				"z": -0.0710517034,
				"element": "C" 
			},
			{
				"x": 1.3134820657,
				"y": -1.2192730051,
				"z": 0.1074687107,
				"element": "C" 
			},
			{
				"x": 1.6708459356,
				"y": -2.0115921572,
				"z": 1.2528261094,
				"element": "O" 
			},
			{
				"x": -0.0591484143,
				"y": -0.5758278675,
				"z": 0.3770596571,
				"element": "C" 
			},
			{
				"x": -0.0294647656,
				"y": 0.0818303655,
				"z": 1.6471305861,
				"element": "O" 
			},
			{
				"x": -0.4321988551,
				"y": 0.4672267598,
				"z": -0.6824288376,
				"element": "C" 
			},
			{
				"x": -0.6392841237,
				"y": -0.2712015651,
				"z": -1.8843911145,
				"element": "O" 
			},
			{
				"x": 0.6769471474,
				"y": 1.5210450659,
				"z": -0.8535579868,
				"element": "C" 
			},
			{
				"x": 0.7715904478,
				"y": 2.3727464629,
				"z": 0.2863014038,
				"element": "O" 
			},
			{
				"x": 2.8275821165,
				"y": 2.4960905952,
				"z": -0.4918806799,
				"element": "H" 
			},
			{
				"x": 2.0061748715,
				"y": 0.3949467184,
				"z": -2.124457717,
				"element": "H" 
			},
			{
				"x": 2.5581721448,
				"y": 0.3471660966,
				"z": 0.8851486689,
				"element": "H" 
			},
			{
				"x": 3.3543709377,
				"y": -0.6501937666,
				"z": -0.324665216,
				"element": "H" 
			},
			{
				"x": 1.2385371415,
				"y": -1.8441269144,
				"z": -0.7913000094,
				"element": "H" 
			},
			{
				"x": 1.1591631942,
				"y": -2.8315284754,
				"z": 1.2248043085,
				"element": "H" 
			},
			{
				"x": -0.8334076405,
				"y": -1.3592215074,
				"z": 0.3765230583,
				"element": "H" 
			},
			{
				"x": 0.5195206956,
				"y": -0.4912981152,
				"z": 2.2093780469,
				"element": "H" 
			},
			{
				"x": -1.3525156288,
				"y": 0.9755025996,
				"z": -0.3577797564,
				"element": "H" 
			},
			{
				"x": -0.9122653403,
				"y": 0.3473263805,
				"z": -2.5739896249,
				"element": "H" 
			},
			{
				"x": 0.4234235683,
				"y": 2.1743271951,
				"z": -1.7000686942,
				"element": "H" 
			},
			{
				"x": 0.6019886859,
				"y": 1.8116149914,
				"z": 1.0647429725,
				"element": "H" 
			}
		],
		 "valence_orbital": [ 
			{
				"type": "occ",
				"energy": -0.29445,
				"method": "rhf"
			},
			{
				"type": "occ",
				"energy": -0.29366,
				"method": "rhf"
			},
			{
				"type": "occ",
				"energy": -0.27992,
				"method": "rhf"
			},
			{
				"type": "occ",
				"energy": -0.26927,
				"method": "rhf"
			},
			{
				"type": "occ",
				"energy": -0.24959,
				"method": "rhf"
			},
			{
				"type": "unocc",
				"energy": 0.04299,
				"method": "rhf"
			},
			{
				"type": "unocc",
				"energy": 0.05898,
				"method": "rhf"
			},
			{
				"type": "unocc",
				"energy": 0.08883,
				"method": "rhf"
			},
			{
				"type": "unocc",
				"energy": 0.1121,
				"method": "rhf"
			},
			{
				"type": "unocc",
				"energy": 0.11825,
				"method": "rhf"
			}
		],
		"cosmo_sigma_profile": { 
			"-0.025": 0.0,
			"-0.024": 0.0,
			"-0.023": 0.0,
			"-0.022": 0.0,
			"-0.021": 0.0,
			"-0.02": 0.0,
			"-0.019": 0.0,
			"-0.018": 0.0,
			"-0.017": 0.200174287006,
			"-0.016": 1.6868282335,
			"-0.015": 2.684264371,
			"-0.014": 2.04163925424,
			"-0.013": 1.33478630019,
			"-0.012": 2.5174189423,
			"-0.011": 3.61274678111,
			"-0.01": 3.27609645977,
			"-0.009": 3.35426694799,
			"-0.008": 3.15372827501,
			"-0.007": 4.93781945525,
			"-0.006": 5.52851977418,
			"-0.005": 8.9793963227,
			"-0.004": 17.2607487683,
			"-0.003": 15.191764261,
			"-0.002": 11.546917958,
			"-0.001": 8.69492944408,
			"0.0": 9.16217239137,
			"0.001": 7.40904036997,
			"0.002": 6.396719763,
			"0.003": 5.7615382526,
			"0.004": 6.72620202509,
			"0.005": 5.46438028366,
			"0.006": 4.36846016768,
			"0.007": 4.55660028959,
			"0.008": 5.84157049677,
			"0.009": 4.50231969005,
			"0.01": 4.65354997318,
			"0.011": 4.92317049897,
			"0.012": 4.94515590134,
			"0.013": 5.51040116394,
			"0.014": 3.1603694165,
			"0.015": 1.3146517987,
			"0.016": 0.0,
			"0.017": 0.0,
			"0.018": 0.0,
			"0.019": 0.0,
			"0.02": 0.0,
			"0.021": 0.0,
			"0.022": 0.0,
			"0.023": 0.0,
			"0.024": 0.0,
			"0.025": 0.0
		}
	}
}
