{
	 "smiles": "OC(=O)C1=C(N(N=N1)C1=CC(Br)=CC=C1)C(F)(F)F", 
	 "Tm": 428.15, 
	 "num_atms": 24, 
	 "gaussian": { 
		 "optdone": 1, 
		 "sigma_profile": "yes", 
		 "theory": "DFT", 
		 "functional": "B3LYP", 
		 "basiset": "6-31G**", 
		 "properties": { 
			 "R2extent": 8370.3195, 
			 "electric_dipole_moment_norm": 6.89263900549, 
			 "electric_quadrupole_moment_norm": 16.1818670786, 
			 "total_energy": -3569.65499193, 
			 "HOMO_LUMO_gap": 0.1917, 
			 "cosmo_polarized_energy": -19.15, 
			 "cosmo_cavitation_energy": 33.4, 
			 "cosmo_dispersion_energy": -23.88, 
			 "cosmo_repulsion_energy": 1.78, 
			 "cosmo_total_nonelectrostatic_energy": 11.29, 
			 "SMD_solvation_energy": 5.4 
		},
		"coords": [
			{
				"x": -0.6962431647,
				"y": 0.7396879297,
				"z": -3.442412312,
				"element": "O" 
			},
			{
				"x": -0.7188002847,
				"y": -0.4901580456,
				"z": -2.8918807455,
				"element": "C" 
			},
			{
				"x": -1.105165619,
				"y": -1.4446511876,
				"z": -3.5148067568,
				"element": "O" 
			},
			{
				"x": -0.239006409,
				"y": -0.6416404842,
				"z": -1.4715782386,
				"element": "C" 
			},
			{
				"x": -0.166419463,
				"y": 0.184926594,
				"z": -0.3527359126,
				"element": "C" 
			},
			{
				"x": 0.2746885833,
				"y": -0.6341209041,
				"z": 0.6511008533,
				"element": "N" 
			},
			{
				"x": 0.4906493751,
				"y": -1.8847791985,
				"z": 0.1612777607,
				"element": "N" 
			},
			{
				"x": 0.1805552764,
				"y": -1.886474711,
				"z": -1.092114889,
				"element": "N" 
			},
			{
				"x": 0.5057018522,
				"y": -0.4054145496,
				"z": 2.047460115,
				"element": "C" 
			},
			{
				"x": -0.4794900532,
				"y": 0.1968351405,
				"z": 2.8323230946,
				"element": "C" 
			},
			{
				"x": -0.228920973,
				"y": 0.3641991253,
				"z": 4.1919625573,
				"element": "C" 
			},
			{
				"x": -1.5545539862,
				"y": 1.1941381818,
				"z": 5.281016179,
				"element": "Br" 
			},
			{
				"x": 0.9620567527,
				"y": -0.0738438787,
				"z": 4.7707120016,
				"element": "C" 
			},
			{
				"x": 1.9213156547,
				"y": -0.690418465,
				"z": 3.9663491039,
				"element": "C" 
			},
			{
				"x": 1.7044484051,
				"y": -0.8588805603,
				"z": 2.6001014164,
				"element": "C" 
			},
			{
				"x": -0.4815370817,
				"y": 1.6316162868,
				"z": -0.1188906366,
				"element": "C" 
			},
			{
				"x": -1.7346002724,
				"y": 1.8090841297,
				"z": 0.3422431891,
				"element": "F" 
			},
			{
				"x": -0.382789271,
				"y": 2.3539299745,
				"z": -1.2685411668,
				"element": "F" 
			},
			{
				"x": 0.3653708096,
				"y": 2.1917324532,
				"z": 0.7579772444,
				"element": "F" 
			},
			{
				"x": -0.3301178815,
				"y": 1.397574285,
				"z": -2.8353893432,
				"element": "H" 
			},
			{
				"x": -1.4164330756,
				"y": 0.5230437783,
				"z": 2.4002226186,
				"element": "H" 
			},
			{
				"x": 1.132739681,
				"y": 0.0625228862,
				"z": 5.8321407232,
				"element": "H" 
			},
			{
				"x": 2.8488437006,
				"y": -1.0379820947,
				"z": 4.4097427062,
				"element": "H" 
			},
			{
				"x": 2.4405074443,
				"y": -1.3380266857,
				"z": 1.965820438,
				"element": "H" 
			}
		],
		 "valence_orbital": [ 
			{
				"type": "occ",
				"energy": -0.30938,
				"method": "rhf"
			},
			{
				"type": "occ",
				"energy": -0.30323,
				"method": "rhf"
			},
			{
				"type": "occ",
				"energy": -0.2885,
				"method": "rhf"
			},
			{
				"type": "occ",
				"energy": -0.28117,
				"method": "rhf"
			},
			{
				"type": "occ",
				"energy": -0.26945,
				"method": "rhf"
			},
			{
				"type": "unocc",
				"energy": -0.07775,
				"method": "rhf"
			},
			{
				"type": "unocc",
				"energy": -0.04587,
				"method": "rhf"
			},
			{
				"type": "unocc",
				"energy": -0.04304,
				"method": "rhf"
			},
			{
				"type": "unocc",
				"energy": -0.02902,
				"method": "rhf"
			},
			{
				"type": "unocc",
				"energy": -0.0156,
				"method": "rhf"
			}
		],
		"cosmo_sigma_profile": { 
			"-0.025": 0.0,
			"-0.024": 0.0,
			"-0.023": 0.0,
			"-0.022": 0.0,
			"-0.021": 0.0,
			"-0.02": 0.0,
			"-0.019": 0.0,
			"-0.018": 0.0,
			"-0.017": 0.0241305477535,
			"-0.016": 0.380697735793,
			"-0.015": 0.578869399344,
			"-0.014": 1.31675531197,
			"-0.013": 1.06603088945,
			"-0.012": 1.49244941694,
			"-0.011": 1.6853702904,
			"-0.01": 1.48060892258,
			"-0.009": 2.79108736979,
			"-0.008": 9.21942185771,
			"-0.007": 13.5080309205,
			"-0.006": 14.2329929696,
			"-0.005": 14.2658230029,
			"-0.004": 12.8099289994,
			"-0.003": 11.8551188264,
			"-0.002": 15.7199576285,
			"-0.001": 18.5511877917,
			"0.0": 28.894694124,
			"0.001": 36.3624516918,
			"0.002": 15.7677113749,
			"0.003": 11.2976590468,
			"0.004": 12.3011837693,
			"0.005": 4.93042420914,
			"0.006": 4.17056561078,
			"0.007": 5.75600528561,
			"0.008": 5.88123333389,
			"0.009": 6.8655063698,
			"0.01": 6.71100995061,
			"0.011": 7.15393171833,
			"0.012": 3.96107179726,
			"0.013": 1.82065373634,
			"0.014": 1.11306650772,
			"0.015": 0.00970207923748,
			"0.016": 0.0,
			"0.017": 0.0,
			"0.018": 0.0,
			"0.019": 0.0,
			"0.02": 0.0,
			"0.021": 0.0,
			"0.022": 0.0,
			"0.023": 0.0,
			"0.024": 0.0,
			"0.025": 0.0
		}
	}
}
