{
	 "smiles": "OC(=O)C1=C(F)C(Cl)=CC=C1", 
	 "Tm": 450.15, 
	 "num_atms": 15, 
	 "gaussian": { 
		 "optdone": 1, 
		 "sigma_profile": "yes", 
		 "theory": "DFT", 
		 "functional": "B3LYP", 
		 "basiset": "6-31G**", 
		 "properties": { 
			 "R2extent": 2075.1772, 
			 "electric_dipole_moment_norm": 5.56254236209, 
			 "electric_quadrupole_moment_norm": 11.8291244837, 
			 "total_energy": -979.626612617, 
			 "HOMO_LUMO_gap": 0.20438, 
			 "cosmo_polarized_energy": -15.04, 
			 "cosmo_cavitation_energy": 22.34, 
			 "cosmo_dispersion_energy": -16.56, 
			 "cosmo_repulsion_energy": 1.32, 
			 "cosmo_total_nonelectrostatic_energy": 7.1, 
			 "SMD_solvation_energy": 5.21 
		},
		"coords": [
			{
				"x": -2.4775146922,
				"y": -0.7728518125,
				"z": 1.8228606211,
				"element": "O" 
			},
			{
				"x": -1.1523996101,
				"y": -0.5001466405,
				"z": 1.6671694763,
				"element": "C" 
			},
			{
				"x": -0.3485501038,
				"y": -0.8822520346,
				"z": 2.4775847605,
				"element": "O" 
			},
			{
				"x": -0.8106845732,
				"y": 0.3251685279,
				"z": 0.4577432193,
				"element": "C" 
			},
			{
				"x": 0.3864061549,
				"y": 0.0995587051,
				"z": -0.2336530467,
				"element": "C" 
			},
			{
				"x": 1.1923072033,
				"y": -0.8970120244,
				"z": 0.1307226719,
				"element": "F" 
			},
			{
				"x": 0.7372453978,
				"y": 0.8889466386,
				"z": -1.3321345426,
				"element": "C" 
			},
			{
				"x": 2.2216572328,
				"y": 0.5576006989,
				"z": -2.1829629108,
				"element": "Cl" 
			},
			{
				"x": -0.0984617483,
				"y": 1.9287789698,
				"z": -1.7393013837,
				"element": "C" 
			},
			{
				"x": -1.2870152137,
				"y": 2.1723050443,
				"z": -1.0515501317,
				"element": "C" 
			},
			{
				"x": -1.6414291677,
				"y": 1.3732383952,
				"z": 0.0330196536,
				"element": "C" 
			},
			{
				"x": -2.9616142207,
				"y": -0.5407132241,
				"z": 1.0177509637,
				"element": "H" 
			},
			{
				"x": 0.190874399,
				"y": 2.536865113,
				"z": -2.5892197548,
				"element": "H" 
			},
			{
				"x": -1.9305644472,
				"y": 2.9890154757,
				"z": -1.3610326961,
				"element": "H" 
			},
			{
				"x": -2.553056611,
				"y": 1.5861981677,
				"z": 0.5838031,
				"element": "H" 
			}
		],
		 "valence_orbital": [ 
			{
				"type": "occ",
				"energy": -0.33079,
				"method": "rhf"
			},
			{
				"type": "occ",
				"energy": -0.3258,
				"method": "rhf"
			},
			{
				"type": "occ",
				"energy": -0.2898,
				"method": "rhf"
			},
			{
				"type": "occ",
				"energy": -0.27613,
				"method": "rhf"
			},
			{
				"type": "occ",
				"energy": -0.26728,
				"method": "rhf"
			},
			{
				"type": "unocc",
				"energy": -0.0629,
				"method": "rhf"
			},
			{
				"type": "unocc",
				"energy": -0.03554,
				"method": "rhf"
			},
			{
				"type": "unocc",
				"energy": 0.00762,
				"method": "rhf"
			},
			{
				"type": "unocc",
				"energy": 0.02529,
				"method": "rhf"
			},
			{
				"type": "unocc",
				"energy": 0.06152,
				"method": "rhf"
			}
		],
		"cosmo_sigma_profile": { 
			"-0.025": 0.0,
			"-0.024": 0.0,
			"-0.023": 0.0,
			"-0.022": 0.0,
			"-0.021": 0.0,
			"-0.02": 0.0,
			"-0.019": 0.25573959039,
			"-0.018": 1.02616099114,
			"-0.017": 1.03466593528,
			"-0.016": 1.03090290229,
			"-0.015": 0.979147469938,
			"-0.014": 0.875143626257,
			"-0.013": 1.00036745601,
			"-0.012": 1.34474475431,
			"-0.011": 1.18546594109,
			"-0.01": 1.23995093889,
			"-0.009": 2.54644226641,
			"-0.008": 5.92183130779,
			"-0.007": 8.32586037107,
			"-0.006": 7.01305229845,
			"-0.005": 5.88668648048,
			"-0.004": 6.14549540533,
			"-0.003": 7.44736124611,
			"-0.002": 12.5597927239,
			"-0.001": 13.1882197657,
			"0.0": 15.4632983383,
			"0.001": 13.6778601204,
			"0.002": 14.0336989267,
			"0.003": 15.4318894122,
			"0.004": 12.5525436665,
			"0.005": 3.75441894446,
			"0.006": 3.28745550927,
			"0.007": 2.617705604,
			"0.008": 2.9717551541,
			"0.009": 4.81716740107,
			"0.01": 5.62333290836,
			"0.011": 5.99811908661,
			"0.012": 2.83670034131,
			"0.013": 0.25884213689,
			"0.014": 0.0,
			"0.015": 0.0,
			"0.016": 0.0,
			"0.017": 0.0,
			"0.018": 0.0,
			"0.019": 0.0,
			"0.02": 0.0,
			"0.021": 0.0,
			"0.022": 0.0,
			"0.023": 0.0,
			"0.024": 0.0,
			"0.025": 0.0
		}
	}
}
