{
	 "smiles": "O=C1N(N(C2=CC=CC=C2N=NC2=CC=CC=C2)C1(C1=CC=CC=C1)C1=CC=CC=C1)C1=CC=CC=C1", 
	 "Tm": 436.15, 
	 "num_atms": 61, 
	 "gaussian": { 
		 "optdone": 1, 
		 "sigma_profile": "yes", 
		 "theory": "DFT", 
		 "functional": "B3LYP", 
		 "basiset": "6-31G**", 
		 "properties": { 
			 "R2extent": 15213.6922, 
			 "electric_dipole_moment_norm": 2.67601651153, 
			 "electric_quadrupole_moment_norm": 10.8438879315, 
			 "total_energy": -1528.00283509, 
			 "HOMO_LUMO_gap": 0.11285, 
			 "cosmo_polarized_energy": -15.32, 
			 "cosmo_cavitation_energy": 64.51, 
			 "cosmo_dispersion_energy": -39.4, 
			 "cosmo_repulsion_energy": 2.98, 
			 "cosmo_total_nonelectrostatic_energy": 28.09, 
			 "SMD_solvation_energy": 10.33 
		},
		"coords": [
			{
				"x": 0.4278822306,
				"y": 2.0811560782,
				"z": -1.4636117083,
				"element": "O" 
			},
			{
				"x": -0.1366835655,
				"y": 1.0180140833,
				"z": -1.3096219446,
				"element": "C" 
			},
			{
				"x": -1.4178750275,
				"y": 0.6900147897,
				"z": -0.9551443957,
				"element": "N" 
			},
			{
				"x": -1.2440461324,
				"y": -0.7439293153,
				"z": -1.0637004961,
				"element": "N" 
			},
			{
				"x": -1.5040441426,
				"y": -1.5237560753,
				"z": 0.120893341,
				"element": "C" 
			},
			{
				"x": -1.973158713,
				"y": -2.8176811617,
				"z": -0.1457953096,
				"element": "C" 
			},
			{
				"x": -2.2887663512,
				"y": -3.7011370454,
				"z": 0.881709146,
				"element": "C" 
			},
			{
				"x": -2.1669627471,
				"y": -3.2874760296,
				"z": 2.2124678899,
				"element": "C" 
			},
			{
				"x": -1.7130527906,
				"y": -2.0076179692,
				"z": 2.4964137498,
				"element": "C" 
			},
			{
				"x": -1.3572225902,
				"y": -1.1137525188,
				"z": 1.4690668647,
				"element": "C" 
			},
			{
				"x": -0.8247777343,
				"y": 0.1767507062,
				"z": 1.7288400705,
				"element": "N" 
			},
			{
				"x": -0.7754155655,
				"y": 0.4851219398,
				"z": 2.950184812,
				"element": "N" 
			},
			{
				"x": -0.2323157335,
				"y": 1.7621217525,
				"z": 3.2310759426,
				"element": "C" 
			},
			{
				"x": -0.1140116321,
				"y": 2.0666598346,
				"z": 4.5951083839,
				"element": "C" 
			},
			{
				"x": 0.4107069102,
				"y": 3.2925132313,
				"z": 4.9994875218,
				"element": "C" 
			},
			{
				"x": 0.8161181506,
				"y": 4.2230954872,
				"z": 4.0408547526,
				"element": "C" 
			},
			{
				"x": 0.6936832995,
				"y": 3.9241072324,
				"z": 2.67772875,
				"element": "C" 
			},
			{
				"x": 0.1723319407,
				"y": 2.7027349191,
				"z": 2.2657142587,
				"element": "C" 
			},
			{
				"x": 0.2168104338,
				"y": -0.4825563343,
				"z": -1.5025840059,
				"element": "C" 
			},
			{
				"x": 1.3077513855,
				"y": -1.0651793967,
				"z": -0.6274642287,
				"element": "C" 
			},
			{
				"x": 1.5852652134,
				"y": -2.4393371331,
				"z": -0.694810389,
				"element": "C" 
			},
			{
				"x": 2.5789607171,
				"y": -3.0018784139,
				"z": 0.1030044356,
				"element": "C" 
			},
			{
				"x": 3.3255752446,
				"y": -2.1946024181,
				"z": 0.9654054951,
				"element": "C" 
			},
			{
				"x": 3.0696111258,
				"y": -0.8252700846,
				"z": 1.0239206709,
				"element": "C" 
			},
			{
				"x": 2.0633412638,
				"y": -0.2618166495,
				"z": 0.2354435662,
				"element": "C" 
			},
			{
				"x": 0.4142770665,
				"y": -0.7930582651,
				"z": -2.9845412544,
				"element": "C" 
			},
			{
				"x": 1.6560617089,
				"y": -0.5008527301,
				"z": -3.5690791426,
				"element": "C" 
			},
			{
				"x": 1.8686421788,
				"y": -0.7292720598,
				"z": -4.9270229788,
				"element": "C" 
			},
			{
				"x": 0.8463543252,
				"y": -1.2561192183,
				"z": -5.7203343773,
				"element": "C" 
			},
			{
				"x": -0.3914990079,
				"y": -1.5423150472,
				"z": -5.1455472571,
				"element": "C" 
			},
			{
				"x": -0.6108877252,
				"y": -1.3056742847,
				"z": -3.7863424244,
				"element": "C" 
			},
			{
				"x": -2.6328910564,
				"y": 1.380101975,
				"z": -0.8942388575,
				"element": "C" 
			},
			{
				"x": -3.8443197813,
				"y": 0.6806731972,
				"z": -0.8062661956,
				"element": "C" 
			},
			{
				"x": -5.0423019152,
				"y": 1.3920097841,
				"z": -0.7476425634,
				"element": "C" 
			},
			{
				"x": -5.046228389,
				"y": 2.7870526664,
				"z": -0.775346112,
				"element": "C" 
			},
			{
				"x": -3.8323913065,
				"y": 3.4738410104,
				"z": -0.8662901098,
				"element": "C" 
			},
			{
				"x": -2.6237453556,
				"y": 2.7854736696,
				"z": -0.9233732162,
				"element": "C" 
			},
			{
				"x": -2.0948427803,
				"y": -3.1077946006,
				"z": -1.1843211665,
				"element": "H" 
			},
			{
				"x": -2.645750048,
				"y": -4.6993508663,
				"z": 0.6462082337,
				"element": "H" 
			},
			{
				"x": -2.4250222676,
				"y": -3.9634605132,
				"z": 3.0223540826,
				"element": "H" 
			},
			{
				"x": -1.5988713335,
				"y": -1.664571786,
				"z": 3.5178975881,
				"element": "H" 
			},
			{
				"x": -0.4388941809,
				"y": 1.3225709925,
				"z": 5.3154273193,
				"element": "H" 
			},
			{
				"x": 0.5017707001,
				"y": 3.5218621407,
				"z": 6.0570475251,
				"element": "H" 
			},
			{
				"x": 1.2239714071,
				"y": 5.1809581173,
				"z": 4.3509936623,
				"element": "H" 
			},
			{
				"x": 1.0058530734,
				"y": 4.6512374514,
				"z": 1.9336019862,
				"element": "H" 
			},
			{
				"x": 0.0702113058,
				"y": 2.4706933002,
				"z": 1.212578704,
				"element": "H" 
			},
			{
				"x": 1.0225140831,
				"y": -3.066451708,
				"z": -1.3795728513,
				"element": "H" 
			},
			{
				"x": 2.7767654362,
				"y": -4.0684084116,
				"z": 0.0456043025,
				"element": "H" 
			},
			{
				"x": 4.1060978914,
				"y": -2.6314088668,
				"z": 1.5818638676,
				"element": "H" 
			},
			{
				"x": 3.6511658077,
				"y": -0.1886803125,
				"z": 1.6843554249,
				"element": "H" 
			},
			{
				"x": 1.8778392094,
				"y": 0.804923401,
				"z": 0.279952768,
				"element": "H" 
			},
			{
				"x": 2.4546859174,
				"y": -0.0939525821,
				"z": -2.9568501649,
				"element": "H" 
			},
			{
				"x": 2.8348227411,
				"y": -0.4965825494,
				"z": -5.3655683166,
				"element": "H" 
			},
			{
				"x": 1.0144275344,
				"y": -1.4387824931,
				"z": -6.7778568147,
				"element": "H" 
			},
			{
				"x": -1.1946437143,
				"y": -1.9477954331,
				"z": -5.7546565093,
				"element": "H" 
			},
			{
				"x": -1.576743004,
				"y": -1.5086522872,
				"z": -3.3389444751,
				"element": "H" 
			},
			{
				"x": -3.8443726197,
				"y": -0.4025605819,
				"z": -0.7893212722,
				"element": "H" 
			},
			{
				"x": -5.9788209695,
				"y": 0.8457201031,
				"z": -0.680099337,
				"element": "H" 
			},
			{
				"x": -5.9829294123,
				"y": 3.3336955928,
				"z": -0.7265728858,
				"element": "H" 
			},
			{
				"x": -3.8226565789,
				"y": 4.5597557028,
				"z": -0.8927775382,
				"element": "H" 
			},
			{
				"x": -1.6797541305,
				"y": 3.3107759838,
				"z": -1.0034068172,
				"element": "H" 
			}
		],
		 "valence_orbital": [ 
			{
				"type": "occ",
				"energy": -0.24468,
				"method": "rhf"
			},
			{
				"type": "occ",
				"energy": -0.2354,
				"method": "rhf"
			},
			{
				"type": "occ",
				"energy": -0.22885,
				"method": "rhf"
			},
			{
				"type": "occ",
				"energy": -0.22743,
				"method": "rhf"
			},
			{
				"type": "occ",
				"energy": -0.19824,
				"method": "rhf"
			},
			{
				"type": "unocc",
				"energy": -0.08539,
				"method": "rhf"
			},
			{
				"type": "unocc",
				"energy": -0.02034,
				"method": "rhf"
			},
			{
				"type": "unocc",
				"energy": -0.01597,
				"method": "rhf"
			},
			{
				"type": "unocc",
				"energy": -0.01289,
				"method": "rhf"
			},
			{
				"type": "unocc",
				"energy": -0.0052,
				"method": "rhf"
			}
		],
		"cosmo_sigma_profile": { 
			"-0.025": 0.0,
			"-0.024": 0.0,
			"-0.023": 0.0,
			"-0.022": 0.0,
			"-0.021": 0.0,
			"-0.02": 0.0,
			"-0.019": 0.0,
			"-0.018": 0.0,
			"-0.017": 0.0,
			"-0.016": 0.0,
			"-0.015": 0.0,
			"-0.014": 0.0,
			"-0.013": 0.0,
			"-0.012": 0.0,
			"-0.011": 0.0,
			"-0.01": 0.0,
			"-0.009": 0.0,
			"-0.008": 0.0,
			"-0.007": 3.38770104523,
			"-0.006": 28.7077732454,
			"-0.005": 41.251582866,
			"-0.004": 49.3245276736,
			"-0.003": 40.2087446189,
			"-0.002": 36.4019888778,
			"-0.001": 38.6629823163,
			"0.0": 34.0941841408,
			"0.001": 41.3484350542,
			"0.002": 51.2814474958,
			"0.003": 51.8910372093,
			"0.004": 49.7257788884,
			"0.005": 31.757014801,
			"0.006": 8.65995299233,
			"0.007": 1.96628192687,
			"0.008": 1.7104126178,
			"0.009": 1.25121656226,
			"0.01": 1.81470942381,
			"0.011": 3.05362464188,
			"0.012": 2.3829980366,
			"0.013": 0.141624944574,
			"0.014": 0.0,
			"0.015": 0.0,
			"0.016": 0.0,
			"0.017": 0.0,
			"0.018": 0.0,
			"0.019": 0.0,
			"0.02": 0.0,
			"0.021": 0.0,
			"0.022": 0.0,
			"0.023": 0.0,
			"0.024": 0.0,
			"0.025": 0.0
		}
	}
}
