{
	 "smiles": "CC(C)C1OC(N)=NC1=O", 
	 "Tm": 493.15, 
	 "num_atms": 20, 
	 "gaussian": { 
		 "optdone": 1, 
		 "sigma_profile": "yes", 
		 "theory": "DFT", 
		 "functional": "B3LYP", 
		 "basiset": "6-31G**", 
		 "properties": { 
			 "R2extent": 2745.4839, 
			 "electric_dipole_moment_norm": 5.47428300054, 
			 "electric_quadrupole_moment_norm": 28.3229559974, 
			 "total_energy": -494.638594952, 
			 "HOMO_LUMO_gap": 0.2285, 
			 "cosmo_polarized_energy": -17.8, 
			 "cosmo_cavitation_energy": 23.2, 
			 "cosmo_dispersion_energy": -17.09, 
			 "cosmo_repulsion_energy": 1.41, 
			 "cosmo_total_nonelectrostatic_energy": 7.53, 
			 "SMD_solvation_energy": 3.3 
		},
		"coords": [
			{
				"x": -0.8057920367,
				"y": -0.9458234993,
				"z": 1.4372815896,
				"element": "C" 
			},
			{
				"x": -0.8310453537,
				"y": -1.1681031785,
				"z": -0.0821177997,
				"element": "C" 
			},
			{
				"x": -2.260433303,
				"y": -1.4226200391,
				"z": -0.58555308,
				"element": "C" 
			},
			{
				"x": 0.0852682231,
				"y": -2.3324246614,
				"z": -0.487224086,
				"element": "C" 
			},
			{
				"x": 1.4213473087,
				"y": -2.1565058534,
				"z": 0.065983056,
				"element": "O" 
			},
			{
				"x": 2.2516862311,
				"y": -2.1710044261,
				"z": -0.9987340685,
				"element": "C" 
			},
			{
				"x": 3.5517343804,
				"y": -2.0031754395,
				"z": -0.711838957,
				"element": "N" 
			},
			{
				"x": 1.7551546303,
				"y": -2.3319782098,
				"z": -2.1934587985,
				"element": "N" 
			},
			{
				"x": 0.3797432504,
				"y": -2.4541596525,
				"z": -2.0054526999,
				"element": "C" 
			},
			{
				"x": -0.4616171712,
				"y": -2.6242857351,
				"z": -2.8646010423,
				"element": "O" 
			},
			{
				"x": -1.44634629,
				"y": -0.0997634203,
				"z": 1.706678942,
				"element": "H" 
			},
			{
				"x": 0.2045937748,
				"y": -0.7387290612,
				"z": 1.7989345322,
				"element": "H" 
			},
			{
				"x": -1.1820229006,
				"y": -1.8290699833,
				"z": 1.9675974098,
				"element": "H" 
			},
			{
				"x": -0.4421095475,
				"y": -0.264612471,
				"z": -0.5725233285,
				"element": "H" 
			},
			{
				"x": -2.278517112,
				"y": -1.6052332569,
				"z": -1.6613272609,
				"element": "H" 
			},
			{
				"x": -2.6962946628,
				"y": -2.2963409522,
				"z": -0.0856668697,
				"element": "H" 
			},
			{
				"x": -2.8955950371,
				"y": -0.5604737134,
				"z": -0.3589176661,
				"element": "H" 
			},
			{
				"x": -0.3035582132,
				"y": -3.2802481483,
				"z": -0.0959924988,
				"element": "H" 
			},
			{
				"x": 4.2211541522,
				"y": -2.0691289609,
				"z": -1.4602253282,
				"element": "H" 
			},
			{
				"x": 3.8581496767,
				"y": -1.9611193376,
				"z": 0.2458579545,
				"element": "H" 
			}
		],
		 "valence_orbital": [ 
			{
				"type": "occ",
				"energy": -0.33982,
				"method": "rhf"
			},
			{
				"type": "occ",
				"energy": -0.30451,
				"method": "rhf"
			},
			{
				"type": "occ",
				"energy": -0.29178,
				"method": "rhf"
			},
			{
				"type": "occ",
				"energy": -0.25647,
				"method": "rhf"
			},
			{
				"type": "occ",
				"energy": -0.23977,
				"method": "rhf"
			},
			{
				"type": "unocc",
				"energy": -0.01127,
				"method": "rhf"
			},
			{
				"type": "unocc",
				"energy": 0.0578,
				"method": "rhf"
			},
			{
				"type": "unocc",
				"energy": 0.0725,
				"method": "rhf"
			},
			{
				"type": "unocc",
				"energy": 0.09737,
				"method": "rhf"
			},
			{
				"type": "unocc",
				"energy": 0.10201,
				"method": "rhf"
			}
		],
		"cosmo_sigma_profile": { 
			"-0.025": 0.0,
			"-0.024": 0.0,
			"-0.023": 0.0,
			"-0.022": 0.0,
			"-0.021": 0.0,
			"-0.02": 0.0,
			"-0.019": 0.0,
			"-0.018": 0.0,
			"-0.017": 0.0840246438341,
			"-0.016": 1.70599550851,
			"-0.015": 2.60330385147,
			"-0.014": 2.26958163023,
			"-0.013": 2.36577420485,
			"-0.012": 1.98357605858,
			"-0.011": 1.66249565393,
			"-0.01": 2.05625672638,
			"-0.009": 1.63362337355,
			"-0.008": 1.9562482983,
			"-0.007": 4.48217758888,
			"-0.006": 5.4952836459,
			"-0.005": 6.13829034037,
			"-0.004": 9.35396518537,
			"-0.003": 15.4338468314,
			"-0.002": 16.0331612039,
			"-0.001": 16.5791443613,
			"0.0": 16.670435307,
			"0.001": 19.1965139029,
			"0.002": 8.24466852001,
			"0.003": 4.79275641623,
			"0.004": 4.12097031455,
			"0.005": 3.55446420636,
			"0.006": 3.23754910511,
			"0.007": 3.13541709185,
			"0.008": 1.98417641382,
			"0.009": 2.51407967287,
			"0.01": 2.51945093381,
			"0.011": 2.92712974912,
			"0.012": 4.36607924155,
			"0.013": 6.16850645283,
			"0.014": 3.61753237549,
			"0.015": 2.01515153161,
			"0.016": 0.840788746931,
			"0.017": 0.0503065341659,
			"0.018": 0.0,
			"0.019": 0.0,
			"0.02": 0.0,
			"0.021": 0.0,
			"0.022": 0.0,
			"0.023": 0.0,
			"0.024": 0.0,
			"0.025": 0.0
		}
	}
}
