{
	 "smiles": "FS(=O)(=O)C1=CC2=C(NN=C2)C=C1", 
	 "Tm": 449.15, 
	 "num_atms": 18, 
	 "gaussian": { 
		 "optdone": 1, 
		 "sigma_profile": "yes", 
		 "theory": "DFT", 
		 "functional": "B3LYP", 
		 "basiset": "6-31G**", 
		 "properties": { 
			 "R2extent": 3123.7577, 
			 "electric_dipole_moment_norm": 5.40486625921, 
			 "electric_quadrupole_moment_norm": 16.2928613488, 
			 "total_energy": -1027.65548628, 
			 "HOMO_LUMO_gap": 0.19151, 
			 "cosmo_polarized_energy": -14.55, 
			 "cosmo_cavitation_energy": 24.79, 
			 "cosmo_dispersion_energy": -19.14, 
			 "cosmo_repulsion_energy": 1.42, 
			 "cosmo_total_nonelectrostatic_energy": 7.07, 
			 "SMD_solvation_energy": 2.81 
		},
		"coords": [
			{
				"x": 1.8148118569,
				"y": -2.1074835612,
				"z": -2.6202575213,
				"element": "F" 
			},
			{
				"x": 2.2632662207,
				"y": -0.6123217651,
				"z": -2.1673848138,
				"element": "S" 
			},
			{
				"x": 2.0151367056,
				"y": 0.2356450393,
				"z": -3.3191128105,
				"element": "O" 
			},
			{
				"x": 3.5816439868,
				"y": -0.7664316564,
				"z": -1.5793426567,
				"element": "O" 
			},
			{
				"x": 1.0605681883,
				"y": -0.303826936,
				"z": -0.9052056982,
				"element": "C" 
			},
			{
				"x": -0.0953965873,
				"y": 0.383938598,
				"z": -1.2477657034,
				"element": "C" 
			},
			{
				"x": -1.030853334,
				"y": 0.6091117709,
				"z": -0.228884616,
				"element": "C" 
			},
			{
				"x": -0.7690763012,
				"y": 0.1364543741,
				"z": 1.0862525004,
				"element": "C" 
			},
			{
				"x": -1.8489069381,
				"y": 0.5098898008,
				"z": 1.8275066331,
				"element": "N" 
			},
			{
				"x": -2.7827387031,
				"y": 1.1831739474,
				"z": 1.0991664715,
				"element": "N" 
			},
			{
				"x": -2.3062100719,
				"y": 1.2498796702,
				"z": -0.1284106331,
				"element": "C" 
			},
			{
				"x": 0.409555799,
				"y": -0.5543359445,
				"z": 1.4199123548,
				"element": "C" 
			},
			{
				"x": 1.3248129736,
				"y": -0.7689615309,
				"z": 0.4065453161,
				"element": "C" 
			},
			{
				"x": -0.2500563894,
				"y": 0.7337407892,
				"z": -2.2624114699,
				"element": "H" 
			},
			{
				"x": -2.0212503658,
				"y": 0.3510217439,
				"z": 2.8076775586,
				"element": "H" 
			},
			{
				"x": -2.8754680566,
				"y": 1.744791023,
				"z": -0.9033579985,
				"element": "H" 
			},
			{
				"x": 0.6028281777,
				"y": -0.9013336065,
				"z": 2.4295309782,
				"element": "H" 
			},
			{
				"x": 2.2589328388,
				"y": -1.281351756,
				"z": 0.6064421087,
				"element": "H" 
			}
		],
		 "valence_orbital": [ 
			{
				"type": "occ",
				"energy": -0.32449,
				"method": "rhf"
			},
			{
				"type": "occ",
				"energy": -0.32274,
				"method": "rhf"
			},
			{
				"type": "occ",
				"energy": -0.31682,
				"method": "rhf"
			},
			{
				"type": "occ",
				"energy": -0.27695,
				"method": "rhf"
			},
			{
				"type": "occ",
				"energy": -0.25607,
				"method": "rhf"
			},
			{
				"type": "unocc",
				"energy": -0.06456,
				"method": "rhf"
			},
			{
				"type": "unocc",
				"energy": -0.04173,
				"method": "rhf"
			},
			{
				"type": "unocc",
				"energy": 0.02602,
				"method": "rhf"
			},
			{
				"type": "unocc",
				"energy": 0.03193,
				"method": "rhf"
			},
			{
				"type": "unocc",
				"energy": 0.06121,
				"method": "rhf"
			}
		],
		"cosmo_sigma_profile": { 
			"-0.025": 0.0,
			"-0.024": 0.0,
			"-0.023": 0.0,
			"-0.022": 0.0,
			"-0.021": 0.0,
			"-0.02": 0.0,
			"-0.019": 0.0,
			"-0.018": 0.108041905147,
			"-0.017": 1.32265919845,
			"-0.016": 1.95998940708,
			"-0.015": 0.966986757843,
			"-0.014": 1.37860492994,
			"-0.013": 0.833573796636,
			"-0.012": 1.37548690435,
			"-0.011": 1.16564419676,
			"-0.01": 0.905672444917,
			"-0.009": 3.3145566549,
			"-0.008": 8.17733819142,
			"-0.007": 8.96579581991,
			"-0.006": 7.05551403321,
			"-0.005": 7.79221469883,
			"-0.004": 7.06132107589,
			"-0.003": 8.65790876765,
			"-0.002": 8.79987248402,
			"-0.001": 11.5723166623,
			"0.0": 20.4556520372,
			"0.001": 21.2566859086,
			"0.002": 16.0094159742,
			"0.003": 13.4546266361,
			"0.004": 6.84428133219,
			"0.005": 4.35747321426,
			"0.006": 4.62535833304,
			"0.007": 4.44698719648,
			"0.008": 10.0779090938,
			"0.009": 10.6108553794,
			"0.01": 2.82651964081,
			"0.011": 1.08395041585,
			"0.012": 0.748116104931,
			"0.013": 1.07133767403,
			"0.014": 1.11671134469,
			"0.015": 0.118414089161,
			"0.016": 0.0,
			"0.017": 0.0,
			"0.018": 0.0,
			"0.019": 0.0,
			"0.02": 0.0,
			"0.021": 0.0,
			"0.022": 0.0,
			"0.023": 0.0,
			"0.024": 0.0,
			"0.025": 0.0
		}
	}
}
