{
	 "smiles": "NCC1=NC(N)=CC=C1", 
	 "Tm": 367.15, 
	 "num_atms": 18, 
	 "gaussian": { 
		 "optdone": 1, 
		 "sigma_profile": "yes", 
		 "theory": "DFT", 
		 "functional": "B3LYP", 
		 "basiset": "6-31G**", 
		 "properties": { 
			 "R2extent": 2140.5255, 
			 "electric_dipole_moment_norm": 3.07020609895, 
			 "electric_quadrupole_moment_norm": 10.7007526203, 
			 "total_energy": -398.322612004, 
			 "HOMO_LUMO_gap": 0.19783, 
			 "cosmo_polarized_energy": -11.21, 
			 "cosmo_cavitation_energy": 21.47, 
			 "cosmo_dispersion_energy": -16.1, 
			 "cosmo_repulsion_energy": 1.36, 
			 "cosmo_total_nonelectrostatic_energy": 6.73, 
			 "SMD_solvation_energy": 1.2 
		},
		"coords": [
			{
				"x": -2.2374792298,
				"y": 1.2221614538,
				"z": -3.6871918639,
				"element": "N" 
			},
			{
				"x": -2.7993009715,
				"y": 0.6689775781,
				"z": -2.4537316709,
				"element": "C" 
			},
			{
				"x": -2.0414383337,
				"y": 1.006639804,
				"z": -1.1759198163,
				"element": "C" 
			},
			{
				"x": -0.7024706426,
				"y": 0.9435236659,
				"z": -1.2671670146,
				"element": "N" 
			},
			{
				"x": 0.0330618454,
				"y": 1.213273656,
				"z": -0.1804125109,
				"element": "C" 
			},
			{
				"x": 1.4064728536,
				"y": 1.1868882004,
				"z": -0.3492724906,
				"element": "N" 
			},
			{
				"x": -0.5441307314,
				"y": 1.5521866285,
				"z": 1.0616812225,
				"element": "C" 
			},
			{
				"x": -1.9266607139,
				"y": 1.6080292236,
				"z": 1.1427872385,
				"element": "C" 
			},
			{
				"x": -2.7001242507,
				"y": 1.3368428361,
				"z": 0.0088729843,
				"element": "C" 
			},
			{
				"x": -2.2722899963,
				"y": 2.2390883475,
				"z": -3.6335737272,
				"element": "H" 
			},
			{
				"x": -1.2442128311,
				"y": 0.9943920924,
				"z": -3.6924230872,
				"element": "H" 
			},
			{
				"x": -3.8418751742,
				"y": 0.9914816343,
				"z": -2.3582535708,
				"element": "H" 
			},
			{
				"x": -2.8233328321,
				"y": -0.4246555553,
				"z": -2.5585529343,
				"element": "H" 
			},
			{
				"x": 1.7062297978,
				"y": 0.7066409677,
				"z": -1.1862063606,
				"element": "H" 
			},
			{
				"x": 1.9671310795,
				"y": 0.9990671862,
				"z": 0.4684077781,
				"element": "H" 
			},
			{
				"x": 0.0832988619,
				"y": 1.7712868642,
				"z": 1.9203583595,
				"element": "H" 
			},
			{
				"x": -2.4039612666,
				"y": 1.8691872648,
				"z": 2.0836040991,
				"element": "H" 
			},
			{
				"x": -3.7839174643,
				"y": 1.3792881519,
				"z": 0.0439933653,
				"element": "H" 
			}
		],
		 "valence_orbital": [ 
			{
				"type": "occ",
				"energy": -0.30992,
				"method": "rhf"
			},
			{
				"type": "occ",
				"energy": -0.27303,
				"method": "rhf"
			},
			{
				"type": "occ",
				"energy": -0.25699,
				"method": "rhf"
			},
			{
				"type": "occ",
				"energy": -0.22689,
				"method": "rhf"
			},
			{
				"type": "occ",
				"energy": -0.2117,
				"method": "rhf"
			},
			{
				"type": "unocc",
				"energy": -0.01387,
				"method": "rhf"
			},
			{
				"type": "unocc",
				"energy": 0.01219,
				"method": "rhf"
			},
			{
				"type": "unocc",
				"energy": 0.08437,
				"method": "rhf"
			},
			{
				"type": "unocc",
				"energy": 0.10357,
				"method": "rhf"
			},
			{
				"type": "unocc",
				"energy": 0.11364,
				"method": "rhf"
			}
		],
		"cosmo_sigma_profile": { 
			"-0.025": 0.0,
			"-0.024": 0.0,
			"-0.023": 0.0,
			"-0.022": 0.0,
			"-0.021": 0.0,
			"-0.02": 0.0,
			"-0.019": 0.0,
			"-0.018": 0.0,
			"-0.017": 0.0,
			"-0.016": 0.0,
			"-0.015": 0.0,
			"-0.014": 0.0182486333012,
			"-0.013": 0.903527902881,
			"-0.012": 2.43512161239,
			"-0.011": 1.90145527167,
			"-0.01": 3.1037968727,
			"-0.009": 4.13482478339,
			"-0.008": 3.32097000869,
			"-0.007": 4.3111545123,
			"-0.006": 8.90796191439,
			"-0.005": 10.0002987562,
			"-0.004": 13.5921957884,
			"-0.003": 12.4643994674,
			"-0.002": 10.5237821028,
			"-0.001": 10.1279795995,
			"0.0": 9.85422002487,
			"0.001": 7.00714544579,
			"0.002": 7.74877972932,
			"0.003": 10.0326930649,
			"0.004": 13.6398928156,
			"0.005": 9.56783689049,
			"0.006": 3.23478300658,
			"0.007": 4.22986154546,
			"0.008": 3.58078965897,
			"0.009": 3.08946574781,
			"0.01": 2.0271134155,
			"0.011": 1.92813690157,
			"0.012": 1.41660644514,
			"0.013": 1.27855791614,
			"0.014": 0.606660320759,
			"0.015": 1.03446227174,
			"0.016": 0.665241773745,
			"0.017": 0.710128194573,
			"0.018": 0.475174960524,
			"0.019": 0.785131699613,
			"0.02": 0.365799920949,
			"0.021": 0.0,
			"0.022": 0.0,
			"0.023": 0.0,
			"0.024": 0.0,
			"0.025": 0.0
		}
	}
}
