{
	 "smiles": "FCC(F)(F)C(F)F", 
	 "Tm": 191.15, 
	 "num_atms": 11, 
	 "gaussian": { 
		 "optdone": 1, 
		 "sigma_profile": "yes", 
		 "theory": "DFT", 
		 "functional": "B3LYP", 
		 "basiset": "6-31G**", 
		 "properties": { 
			 "R2extent": 959.2843, 
			 "electric_dipole_moment_norm": 2.62377546486, 
			 "electric_quadrupole_moment_norm": 6.65263111558, 
			 "total_energy": -615.298220189, 
			 "HOMO_LUMO_gap": 0.37897, 
			 "cosmo_polarized_energy": -6.82, 
			 "cosmo_cavitation_energy": 16.98, 
			 "cosmo_dispersion_energy": -11.83, 
			 "cosmo_repulsion_energy": 0.92, 
			 "cosmo_total_nonelectrostatic_energy": 6.07, 
			 "SMD_solvation_energy": 5.13 
		},
		"coords": [
			{
				"x": 1.5025409615,
				"y": -0.9772860623,
				"z": 1.5301212239,
				"element": "F" 
			},
			{
				"x": 1.3821691094,
				"y": -1.2933873838,
				"z": 0.1962065633,
				"element": "C" 
			},
			{
				"x": 0.5185538593,
				"y": -0.2658745499,
				"z": -0.5232511141,
				"element": "C" 
			},
			{
				"x": -0.7270863384,
				"y": -0.2544921399,
				"z": 0.0157531774,
				"element": "F" 
			},
			{
				"x": 0.4230897544,
				"y": -0.6799336142,
				"z": -1.8273195739,
				"element": "F" 
			},
			{
				"x": 1.059427291,
				"y": 1.1693298586,
				"z": -0.5507522878,
				"element": "C" 
			},
			{
				"x": 0.1633677538,
				"y": 1.9593531817,
				"z": -1.1923707836,
				"element": "F" 
			},
			{
				"x": 1.2143793573,
				"y": 1.621271627,
				"z": 0.7189141605,
				"element": "F" 
			},
			{
				"x": 2.3746876627,
				"y": -1.3308967823,
				"z": -0.2674714588,
				"element": "H" 
			},
			{
				"x": 0.8947489091,
				"y": -2.268235062,
				"z": 0.0859720382,
				"element": "H" 
			},
			{
				"x": 2.0216216798,
				"y": 1.2189509272,
				"z": -1.0752019453,
				"element": "H" 
			}
		],
		 "valence_orbital": [ 
			{
				"type": "occ",
				"energy": -0.40959,
				"method": "rhf"
			},
			{
				"type": "occ",
				"energy": -0.4069,
				"method": "rhf"
			},
			{
				"type": "occ",
				"energy": -0.37388,
				"method": "rhf"
			},
			{
				"type": "occ",
				"energy": -0.36305,
				"method": "rhf"
			},
			{
				"type": "occ",
				"energy": -0.33053,
				"method": "rhf"
			},
			{
				"type": "unocc",
				"energy": 0.04844,
				"method": "rhf"
			},
			{
				"type": "unocc",
				"energy": 0.08123,
				"method": "rhf"
			},
			{
				"type": "unocc",
				"energy": 0.09475,
				"method": "rhf"
			},
			{
				"type": "unocc",
				"energy": 0.13278,
				"method": "rhf"
			},
			{
				"type": "unocc",
				"energy": 0.14675,
				"method": "rhf"
			}
		],
		"cosmo_sigma_profile": { 
			"-0.025": 0.0,
			"-0.024": 0.0,
			"-0.023": 0.0,
			"-0.022": 0.0,
			"-0.021": 0.0,
			"-0.02": 0.0,
			"-0.019": 0.0,
			"-0.018": 0.0,
			"-0.017": 0.0,
			"-0.016": 0.0,
			"-0.015": 0.0,
			"-0.014": 0.0558034072531,
			"-0.013": 0.738039456705,
			"-0.012": 1.04727716995,
			"-0.011": 2.06793294667,
			"-0.01": 3.5574508224,
			"-0.009": 4.12289466333,
			"-0.008": 6.05695701763,
			"-0.007": 5.7617001016,
			"-0.006": 4.69122524528,
			"-0.005": 3.54931585358,
			"-0.004": 3.20129704647,
			"-0.003": 3.28744014341,
			"-0.002": 3.06052273708,
			"-0.001": 3.60171405409,
			"0.0": 3.28557956292,
			"0.001": 4.85615815517,
			"0.002": 12.2574858765,
			"0.003": 38.8365288191,
			"0.004": 18.9272286498,
			"0.005": 10.2058254803,
			"0.006": 1.9105328318,
			"0.007": 0.0,
			"0.008": 0.0,
			"0.009": 0.0,
			"0.01": 0.0,
			"0.011": 0.0,
			"0.012": 0.0,
			"0.013": 0.0,
			"0.014": 0.0,
			"0.015": 0.0,
			"0.016": 0.0,
			"0.017": 0.0,
			"0.018": 0.0,
			"0.019": 0.0,
			"0.02": 0.0,
			"0.021": 0.0,
			"0.022": 0.0,
			"0.023": 0.0,
			"0.024": 0.0,
			"0.025": 0.0
		}
	}
}
