{
	 "smiles": "NC(=O)C1=C(O)C=CC(Cl)=C1", 
	 "Tm": 497.65, 
	 "num_atms": 17, 
	 "gaussian": { 
		 "optdone": 1, 
		 "sigma_profile": "yes", 
		 "theory": "DFT", 
		 "functional": "B3LYP", 
		 "basiset": "6-31G**", 
		 "properties": { 
			 "R2extent": 2597.2619, 
			 "electric_dipole_moment_norm": 3.68082474182, 
			 "electric_quadrupole_moment_norm": 11.8449880494, 
			 "total_energy": -935.769050095, 
			 "HOMO_LUMO_gap": 0.17864, 
			 "cosmo_polarized_energy": -13.44, 
			 "cosmo_cavitation_energy": 23.27, 
			 "cosmo_dispersion_energy": -17.61, 
			 "cosmo_repulsion_energy": 1.42, 
			 "cosmo_total_nonelectrostatic_energy": 7.07, 
			 "SMD_solvation_energy": 4.96 
		},
		"coords": [
			{
				"x": -2.4779546519,
				"y": 0.634445331,
				"z": -0.1911941587,
				"element": "N" 
			},
			{
				"x": -1.4805932579,
				"y": 1.2980386645,
				"z": 0.5445770791,
				"element": "C" 
			},
			{
				"x": -1.7601728767,
				"y": 2.2037609661,
				"z": 1.3110047274,
				"element": "O" 
			},
			{
				"x": -0.0921622151,
				"y": 0.7799924127,
				"z": 0.3590568618,
				"element": "C" 
			},
			{
				"x": 0.2057715062,
				"y": -0.5451460298,
				"z": -0.0308849219,
				"element": "C" 
			},
			{
				"x": -0.7339773666,
				"y": -1.4939299395,
				"z": -0.278998573,
				"element": "O" 
			},
			{
				"x": 1.5458540604,
				"y": -0.9386373734,
				"z": -0.1608096038,
				"element": "C" 
			},
			{
				"x": 2.5757167972,
				"y": -0.043765897,
				"z": 0.0942782069,
				"element": "C" 
			},
			{
				"x": 2.275294801,
				"y": 1.2602077187,
				"z": 0.505221209,
				"element": "C" 
			},
			{
				"x": 3.5827953494,
				"y": 2.3852426722,
				"z": 0.8436483332,
				"element": "Cl" 
			},
			{
				"x": 0.958715604,
				"y": 1.6659059052,
				"z": 0.6494535693,
				"element": "C" 
			},
			{
				"x": -2.2500651216,
				"y": 0.4321539348,
				"z": -1.1596598563,
				"element": "H" 
			},
			{
				"x": -3.3814325487,
				"y": 1.0836425589,
				"z": -0.0841138868,
				"element": "H" 
			},
			{
				"x": -1.6106509519,
				"y": -1.1455871938,
				"z": -0.0322081131,
				"element": "H" 
			},
			{
				"x": 1.7550000974,
				"y": -1.9609707088,
				"z": -0.4566902805,
				"element": "H" 
			},
			{
				"x": 3.6096238664,
				"y": -0.3532688599,
				"z": -0.0130812595,
				"element": "H" 
			},
			{
				"x": 0.7107369083,
				"y": 2.6669158381,
				"z": 0.9830006669,
				"element": "H" 
			}
		],
		 "valence_orbital": [ 
			{
				"type": "occ",
				"energy": -0.31394,
				"method": "rhf"
			},
			{
				"type": "occ",
				"energy": -0.30605,
				"method": "rhf"
			},
			{
				"type": "occ",
				"energy": -0.2795,
				"method": "rhf"
			},
			{
				"type": "occ",
				"energy": -0.26734,
				"method": "rhf"
			},
			{
				"type": "occ",
				"energy": -0.23178,
				"method": "rhf"
			},
			{
				"type": "unocc",
				"energy": -0.05314,
				"method": "rhf"
			},
			{
				"type": "unocc",
				"energy": -0.01011,
				"method": "rhf"
			},
			{
				"type": "unocc",
				"energy": 0.02578,
				"method": "rhf"
			},
			{
				"type": "unocc",
				"energy": 0.03418,
				"method": "rhf"
			},
			{
				"type": "unocc",
				"energy": 0.06781,
				"method": "rhf"
			}
		],
		"cosmo_sigma_profile": { 
			"-0.025": 0.0,
			"-0.024": 0.0,
			"-0.023": 0.0,
			"-0.022": 0.0,
			"-0.021": 0.0,
			"-0.02": 0.0,
			"-0.019": 0.0,
			"-0.018": 0.0,
			"-0.017": 0.0,
			"-0.016": 0.0,
			"-0.015": 0.666768235665,
			"-0.014": 2.11437565645,
			"-0.013": 2.61179968387,
			"-0.012": 2.61393312386,
			"-0.011": 3.45828006262,
			"-0.01": 3.64570377834,
			"-0.009": 3.54862622516,
			"-0.008": 4.45234096316,
			"-0.007": 5.62105773323,
			"-0.006": 7.20393802845,
			"-0.005": 7.77735526131,
			"-0.004": 7.60406213159,
			"-0.003": 6.41215002552,
			"-0.002": 9.55034443237,
			"-0.001": 9.51690691705,
			"0.0": 11.6843951288,
			"0.001": 16.4483113557,
			"0.002": 22.5698511565,
			"0.003": 14.6089431782,
			"0.004": 10.7841492782,
			"0.005": 11.0651329783,
			"0.006": 3.08422376531,
			"0.007": 1.65333753897,
			"0.008": 2.20017367055,
			"0.009": 3.47922923894,
			"0.01": 3.22488638052,
			"0.011": 3.40700127406,
			"0.012": 4.98094067807,
			"0.013": 2.33591642806,
			"0.014": 0.00856280504171,
			"0.015": 0.0,
			"0.016": 0.0,
			"0.017": 0.0,
			"0.018": 0.0,
			"0.019": 0.0,
			"0.02": 0.0,
			"0.021": 0.0,
			"0.022": 0.0,
			"0.023": 0.0,
			"0.024": 0.0,
			"0.025": 0.0
		}
	}
}
