{
	 "smiles": "OC(=O)CCC1=NC(=C(O1)C1=CC=CC=C1)C1=CC=CC=C1", 
	 "Tm": 433.15, 
	 "num_atms": 37, 
	 "gaussian": { 
		 "optdone": 1, 
		 "sigma_profile": "yes", 
		 "theory": "DFT", 
		 "functional": "B3LYP", 
		 "basiset": "6-31G**", 
		 "properties": { 
			 "R2extent": 7846.8094, 
			 "electric_dipole_moment_norm": 1.85950838127, 
			 "electric_quadrupole_moment_norm": 12.7720379682, 
			 "total_energy": -975.40294756, 
			 "HOMO_LUMO_gap": 0.16168, 
			 "cosmo_polarized_energy": -15.08, 
			 "cosmo_cavitation_energy": 41.95, 
			 "cosmo_dispersion_energy": -28.98, 
			 "cosmo_repulsion_energy": 2.24, 
			 "cosmo_total_nonelectrostatic_energy": 15.21, 
			 "SMD_solvation_energy": 6.51 
		},
		"coords": [
			{
				"x": -0.5789251554,
				"y": 3.3037656901,
				"z": -4.0325615817,
				"element": "O" 
			},
			{
				"x": -0.455815517,
				"y": 3.7006647878,
				"z": -2.7453431367,
				"element": "C" 
			},
			{
				"x": -1.3748336999,
				"y": 4.1724209,
				"z": -2.1130066224,
				"element": "O" 
			},
			{
				"x": 0.9652709399,
				"y": 3.5264404827,
				"z": -2.2443464175,
				"element": "C" 
			},
			{
				"x": 1.0525820477,
				"y": 3.4529355935,
				"z": -0.7118775668,
				"element": "C" 
			},
			{
				"x": 0.664395863,
				"y": 2.1259563251,
				"z": -0.1477958876,
				"element": "C" 
			},
			{
				"x": 1.2882105172,
				"y": 1.4156678254,
				"z": 0.7383293386,
				"element": "N" 
			},
			{
				"x": 0.4872697848,
				"y": 0.2894667301,
				"z": 0.9447919208,
				"element": "C" 
			},
			{
				"x": -0.6057938147,
				"y": 0.3677112167,
				"z": 0.1093381377,
				"element": "C" 
			},
			{
				"x": -0.4922923212,
				"y": 1.5616964648,
				"z": -0.5790513728,
				"element": "O" 
			},
			{
				"x": -1.7601364646,
				"y": -0.4549330921,
				"z": -0.2485550744,
				"element": "C" 
			},
			{
				"x": -2.9212470659,
				"y": 0.1578081568,
				"z": -0.7569649577,
				"element": "C" 
			},
			{
				"x": -4.0225895156,
				"y": -0.6115395575,
				"z": -1.1252576836,
				"element": "C" 
			},
			{
				"x": -3.9882131982,
				"y": -2.0016372064,
				"z": -0.996335511,
				"element": "C" 
			},
			{
				"x": -2.8356728055,
				"y": -2.6188897887,
				"z": -0.5043683277,
				"element": "C" 
			},
			{
				"x": -1.7283698109,
				"y": -1.8569221874,
				"z": -0.1390078984,
				"element": "C" 
			},
			{
				"x": 0.8800877034,
				"y": -0.7020941917,
				"z": 1.9598871571,
				"element": "C" 
			},
			{
				"x": 2.2446891163,
				"y": -0.8920635522,
				"z": 2.2372989057,
				"element": "C" 
			},
			{
				"x": 2.6514849354,
				"y": -1.8043619903,
				"z": 3.2087438483,
				"element": "C" 
			},
			{
				"x": 1.7046730914,
				"y": -2.5368892697,
				"z": 3.9280952823,
				"element": "C" 
			},
			{
				"x": 0.3453938316,
				"y": -2.3413902193,
				"z": 3.6739673915,
				"element": "C" 
			},
			{
				"x": -0.0651620818,
				"y": -1.4292662458,
				"z": 2.7030800851,
				"element": "C" 
			},
			{
				"x": -1.5009854856,
				"y": 3.4813387899,
				"z": -4.2844966052,
				"element": "H" 
			},
			{
				"x": 1.4150952037,
				"y": 2.6534950881,
				"z": -2.7251901475,
				"element": "H" 
			},
			{
				"x": 1.5267354307,
				"y": 4.3998473354,
				"z": -2.6000044045,
				"element": "H" 
			},
			{
				"x": 2.0726486868,
				"y": 3.6508991953,
				"z": -0.3765531417,
				"element": "H" 
			},
			{
				"x": 0.4036708394,
				"y": 4.2314438124,
				"z": -0.2931814927,
				"element": "H" 
			},
			{
				"x": -2.949298935,
				"y": 1.2374812723,
				"z": -0.8607356677,
				"element": "H" 
			},
			{
				"x": -4.912293819,
				"y": -0.1221935212,
				"z": -1.5113262284,
				"element": "H" 
			},
			{
				"x": -4.8491221286,
				"y": -2.5991776659,
				"z": -1.2815221842,
				"element": "H" 
			},
			{
				"x": -2.7928848068,
				"y": -3.7006474615,
				"z": -0.415256927,
				"element": "H" 
			},
			{
				"x": -0.8310690133,
				"y": -2.347230782,
				"z": 0.221919976,
				"element": "H" 
			},
			{
				"x": 2.9752282534,
				"y": -0.3100511693,
				"z": 1.6858154272,
				"element": "H" 
			},
			{
				"x": 3.7109110447,
				"y": -1.9422400791,
				"z": 3.4061555079,
				"element": "H" 
			},
			{
				"x": 2.0224458964,
				"y": -3.2470963177,
				"z": 4.6860729534,
				"element": "H" 
			},
			{
				"x": -0.3997502453,
				"y": -2.8914091133,
				"z": 4.2418871784,
				"element": "H" 
			},
			{
				"x": -1.1241373017,
				"y": -1.2675062553,
				"z": 2.5311557274,
				"element": "H" 
			}
		],
		 "valence_orbital": [ 
			{
				"type": "occ",
				"energy": -0.27956,
				"method": "rhf"
			},
			{
				"type": "occ",
				"energy": -0.25491,
				"method": "rhf"
			},
			{
				"type": "occ",
				"energy": -0.25097,
				"method": "rhf"
			},
			{
				"type": "occ",
				"energy": -0.24584,
				"method": "rhf"
			},
			{
				"type": "occ",
				"energy": -0.20378,
				"method": "rhf"
			},
			{
				"type": "unocc",
				"energy": -0.0421,
				"method": "rhf"
			},
			{
				"type": "unocc",
				"energy": -0.0055,
				"method": "rhf"
			},
			{
				"type": "unocc",
				"energy": -0.0001,
				"method": "rhf"
			},
			{
				"type": "unocc",
				"energy": 0.00539,
				"method": "rhf"
			},
			{
				"type": "unocc",
				"energy": 0.00661,
				"method": "rhf"
			}
		],
		"cosmo_sigma_profile": { 
			"-0.025": 0.0,
			"-0.024": 0.0,
			"-0.023": 0.0,
			"-0.022": 0.0,
			"-0.021": 0.0,
			"-0.02": 0.0,
			"-0.019": 0.0626547257222,
			"-0.018": 0.592360884312,
			"-0.017": 0.917212742691,
			"-0.016": 1.35658788308,
			"-0.015": 0.628442268745,
			"-0.014": 0.290992808633,
			"-0.013": 0.516457631044,
			"-0.012": 0.693930125718,
			"-0.011": 1.20985327386,
			"-0.01": 0.613426117222,
			"-0.009": 0.874752161576,
			"-0.008": 1.55888076245,
			"-0.007": 5.49971837478,
			"-0.006": 17.8336456535,
			"-0.005": 25.6394211596,
			"-0.004": 32.7955205511,
			"-0.003": 27.0228883167,
			"-0.002": 22.8457402621,
			"-0.001": 19.501743999,
			"0.0": 21.6023663358,
			"0.001": 24.2398325318,
			"0.002": 23.8257636827,
			"0.003": 23.0160958802,
			"0.004": 22.5449133287,
			"0.005": 23.9962449509,
			"0.006": 8.30492244153,
			"0.007": 4.92546557855,
			"0.008": 4.09069014659,
			"0.009": 4.99377871151,
			"0.01": 3.2440478,
			"0.011": 4.18083274873,
			"0.012": 4.18834584445,
			"0.013": 0.85170235518,
			"0.014": 0.88566063758,
			"0.015": 0.215677462958,
			"0.016": 0.0,
			"0.017": 0.0,
			"0.018": 0.0,
			"0.019": 0.0,
			"0.02": 0.0,
			"0.021": 0.0,
			"0.022": 0.0,
			"0.023": 0.0,
			"0.024": 0.0,
			"0.025": 0.0
		}
	}
}
