{
	 "smiles": "OC1(O)C2=C(C=CC=C2)C(=O)C1(O)C1(O)C(=O)C2=C(C=CC=C2)C1(O)O", 
	 "Tm": 513.15, 
	 "num_atms": 40, 
	 "gaussian": { 
		 "optdone": 1, 
		 "sigma_profile": "yes", 
		 "theory": "DFT", 
		 "functional": "B3LYP", 
		 "basiset": "6-31G**", 
		 "properties": { 
			 "R2extent": 8031.8859, 
			 "electric_dipole_moment_norm": 3.63219697015, 
			 "electric_quadrupole_moment_norm": 22.7333021484, 
			 "total_energy": -1296.13611568, 
			 "HOMO_LUMO_gap": 0.17107, 
			 "cosmo_polarized_energy": -16.67, 
			 "cosmo_cavitation_energy": 41.19, 
			 "cosmo_dispersion_energy": -29.68, 
			 "cosmo_repulsion_energy": 2.15, 
			 "cosmo_total_nonelectrostatic_energy": 13.66, 
			 "SMD_solvation_energy": 6.99 
		},
		"coords": [
			{
				"x": -3.6019977074,
				"y": -0.0410603658,
				"z": -1.9761534694,
				"element": "O" 
			},
			{
				"x": -2.6047792867,
				"y": 0.4665164617,
				"z": -1.1607252202,
				"element": "C" 
			},
			{
				"x": -1.9336981566,
				"y": 1.4471989445,
				"z": -1.9419222793,
				"element": "O" 
			},
			{
				"x": -3.1509306173,
				"y": 1.0887156182,
				"z": 0.1180845886,
				"element": "C" 
			},
			{
				"x": -2.535745926,
				"y": 0.5799655186,
				"z": 1.2650229575,
				"element": "C" 
			},
			{
				"x": -2.8785927402,
				"y": 1.0328699378,
				"z": 2.5463633822,
				"element": "C" 
			},
			{
				"x": -3.8622685384,
				"y": 2.0088664242,
				"z": 2.6502210399,
				"element": "C" 
			},
			{
				"x": -4.4855022967,
				"y": 2.5188192751,
				"z": 1.4957367234,
				"element": "C" 
			},
			{
				"x": -4.1372429919,
				"y": 2.0675957969,
				"z": 0.222371043,
				"element": "C" 
			},
			{
				"x": -1.5461778473,
				"y": -0.4346101118,
				"z": 0.9005706565,
				"element": "C" 
			},
			{
				"x": -0.7886007461,
				"y": -1.0312958277,
				"z": 1.6618011081,
				"element": "O" 
			},
			{
				"x": -1.6309436877,
				"y": -0.6860345641,
				"z": -0.6328190252,
				"element": "C" 
			},
			{
				"x": -2.3312723972,
				"y": -1.9020718776,
				"z": -0.8494870631,
				"element": "O" 
			},
			{
				"x": -0.2384588483,
				"y": -0.7071765186,
				"z": -1.3285213562,
				"element": "C" 
			},
			{
				"x": -0.3632814935,
				"y": -0.5315545595,
				"z": -2.7320019807,
				"element": "O" 
			},
			{
				"x": 0.735938436,
				"y": 0.3764978453,
				"z": -0.7828043152,
				"element": "C" 
			},
			{
				"x": 0.4439514151,
				"y": 1.5601050544,
				"z": -0.6301241686,
				"element": "O" 
			},
			{
				"x": 2.037450002,
				"y": -0.2448227806,
				"z": -0.53499274,
				"element": "C" 
			},
			{
				"x": 1.9617960606,
				"y": -1.6244586303,
				"z": -0.743918555,
				"element": "C" 
			},
			{
				"x": 3.0885774576,
				"y": -2.4262573055,
				"z": -0.5725361929,
				"element": "C" 
			},
			{
				"x": 4.2813448559,
				"y": -1.8128775166,
				"z": -0.1885686273,
				"element": "C" 
			},
			{
				"x": 4.3555975266,
				"y": -0.4236808242,
				"z": 0.0257278391,
				"element": "C" 
			},
			{
				"x": 3.2320122448,
				"y": 0.3759485987,
				"z": -0.1449093209,
				"element": "C" 
			},
			{
				"x": 0.5623847986,
				"y": -2.0778633127,
				"z": -1.1400758965,
				"element": "C" 
			},
			{
				"x": 0.00711961,
				"y": -2.9123403394,
				"z": -0.1313202727,
				"element": "O" 
			},
			{
				"x": 0.5544938535,
				"y": -2.8373521426,
				"z": -2.297749339,
				"element": "O" 
			},
			{
				"x": -3.5498726277,
				"y": -1.0108842977,
				"z": -1.8988620194,
				"element": "H" 
			},
			{
				"x": -1.1952797357,
				"y": 1.8121691498,
				"z": -1.4049187136,
				"element": "H" 
			},
			{
				"x": -2.3843580884,
				"y": 0.6210294842,
				"z": 3.4204769485,
				"element": "H" 
			},
			{
				"x": -4.1570325695,
				"y": 2.382986437,
				"z": 3.6259559798,
				"element": "H" 
			},
			{
				"x": -5.2535252481,
				"y": 3.2798754769,
				"z": 1.6018933512,
				"element": "H" 
			},
			{
				"x": -4.6186851117,
				"y": 2.4614100357,
				"z": -0.666561503,
				"element": "H" 
			},
			{
				"x": -1.7057922055,
				"y": -2.6285921606,
				"z": -0.6329960787,
				"element": "H" 
			},
			{
				"x": -0.9466379122,
				"y": 0.2478773535,
				"z": -2.866571156,
				"element": "H" 
			},
			{
				"x": 3.0329912649,
				"y": -3.4971160424,
				"z": -0.7376138199,
				"element": "H" 
			},
			{
				"x": 5.1734977719,
				"y": -2.4174568425,
				"z": -0.0511475976,
				"element": "H" 
			},
			{
				"x": 5.2999305154,
				"y": 0.0210465914,
				"z": 0.3246649037,
				"element": "H" 
			},
			{
				"x": 3.262728844,
				"y": 1.4495671054,
				"z": 0.0111558443,
				"element": "H" 
			},
			{
				"x": -0.0322754174,
				"y": -2.3958892703,
				"z": 0.7045008693,
				"element": "H" 
			},
			{
				"x": 0.1875375409,
				"y": -2.265665819,
				"z": -2.9961465245,
				"element": "H" 
			}
		],
		 "valence_orbital": [ 
			{
				"type": "occ",
				"energy": -0.27133,
				"method": "rhf"
			},
			{
				"type": "occ",
				"energy": -0.27041,
				"method": "rhf"
			},
			{
				"type": "occ",
				"energy": -0.2673,
				"method": "rhf"
			},
			{
				"type": "occ",
				"energy": -0.26652,
				"method": "rhf"
			},
			{
				"type": "occ",
				"energy": -0.25315,
				"method": "rhf"
			},
			{
				"type": "unocc",
				"energy": -0.08208,
				"method": "rhf"
			},
			{
				"type": "unocc",
				"energy": -0.08168,
				"method": "rhf"
			},
			{
				"type": "unocc",
				"energy": -0.02994,
				"method": "rhf"
			},
			{
				"type": "unocc",
				"energy": -0.02832,
				"method": "rhf"
			},
			{
				"type": "unocc",
				"energy": 0.01661,
				"method": "rhf"
			}
		],
		"cosmo_sigma_profile": { 
			"-0.025": 0.0,
			"-0.024": 0.0,
			"-0.023": 0.0,
			"-0.022": 0.0,
			"-0.021": 0.0,
			"-0.02": 0.0,
			"-0.019": 0.0,
			"-0.018": 0.0,
			"-0.017": 0.0,
			"-0.016": 0.0,
			"-0.015": 0.0,
			"-0.014": 0.0,
			"-0.013": 0.0,
			"-0.012": 0.0107057009423,
			"-0.011": 0.735734971299,
			"-0.01": 0.571070971745,
			"-0.009": 1.71424907851,
			"-0.008": 4.7063114359,
			"-0.007": 18.2731528192,
			"-0.006": 24.2360817054,
			"-0.005": 23.9966261902,
			"-0.004": 17.0675304545,
			"-0.003": 15.3391469108,
			"-0.002": 22.0293892708,
			"-0.001": 29.6033718973,
			"0.0": 27.0855474383,
			"0.001": 30.8166775682,
			"0.002": 30.6382721589,
			"0.003": 18.1053915564,
			"0.004": 7.86773299566,
			"0.005": 8.9130527421,
			"0.006": 7.1133081934,
			"0.007": 6.26636244415,
			"0.008": 6.80552548435,
			"0.009": 7.73212221344,
			"0.01": 6.31899345335,
			"0.011": 5.12650597716,
			"0.012": 5.83177596154,
			"0.013": 2.23984572102,
			"0.014": 0.0145836205505,
			"0.015": 0.0,
			"0.016": 0.0,
			"0.017": 0.0,
			"0.018": 0.0,
			"0.019": 0.0,
			"0.02": 0.0,
			"0.021": 0.0,
			"0.022": 0.0,
			"0.023": 0.0,
			"0.024": 0.0,
			"0.025": 0.0
		}
	}
}
