{
	 "smiles": "[O-][N+](=O)C1=CC=CN=C1OC1=C(F)C=C(F)C=C1", 
	 "Tm": 337.15, 
	 "num_atms": 24, 
	 "gaussian": { 
		 "optdone": 1, 
		 "sigma_profile": "yes", 
		 "theory": "DFT", 
		 "functional": "B3LYP", 
		 "basiset": "6-31G**", 
		 "properties": { 
			 "R2extent": 5597.1169, 
			 "electric_dipole_moment_norm": 4.06132008219, 
			 "electric_quadrupole_moment_norm": 17.0137566287, 
			 "total_energy": -957.501922798, 
			 "HOMO_LUMO_gap": 0.15261, 
			 "cosmo_polarized_energy": -11.76, 
			 "cosmo_cavitation_energy": 31.55, 
			 "cosmo_dispersion_energy": -22.16, 
			 "cosmo_repulsion_energy": 1.67, 
			 "cosmo_total_nonelectrostatic_energy": 11.05, 
			 "SMD_solvation_energy": 8.25 
		},
		"coords": [
			{
				"x": 2.0265246491,
				"y": -3.8074895372,
				"z": 1.6132343773,
				"element": "O" 
			},
			{
				"x": 2.0194312944,
				"y": -2.7668733576,
				"z": 0.9510608045,
				"element": "N" 
			},
			{
				"x": 2.975109036,
				"y": -2.3310187785,
				"z": 0.3177110514,
				"element": "O" 
			},
			{
				"x": 0.7557256974,
				"y": -2.0206618561,
				"z": 0.9107425673,
				"element": "C" 
			},
			{
				"x": -0.4058474819,
				"y": -2.6958650602,
				"z": 1.2749668507,
				"element": "C" 
			},
			{
				"x": -1.6266658024,
				"y": -2.0318750068,
				"z": 1.2199823294,
				"element": "C" 
			},
			{
				"x": -1.6205027379,
				"y": -0.7018218541,
				"z": 0.8031693244,
				"element": "C" 
			},
			{
				"x": -0.5101983006,
				"y": -0.0374545613,
				"z": 0.4703789032,
				"element": "N" 
			},
			{
				"x": 0.6578719375,
				"y": -0.6645225636,
				"z": 0.5207921371,
				"element": "C" 
			},
			{
				"x": 1.7794465358,
				"y": 0.0174652426,
				"z": 0.2017845555,
				"element": "O" 
			},
			{
				"x": 1.7032656223,
				"y": 1.3851582197,
				"z": -0.0338020261,
				"element": "C" 
			},
			{
				"x": 1.3962028586,
				"y": 2.2768899548,
				"z": 0.9959037521,
				"element": "C" 
			},
			{
				"x": 1.07391968,
				"y": 1.7895196255,
				"z": 2.2048246335,
				"element": "F" 
			},
			{
				"x": 1.4194036008,
				"y": 3.6488213087,
				"z": 0.7925826474,
				"element": "C" 
			},
			{
				"x": 1.7736548254,
				"y": 4.1131191272,
				"z": -0.4713610691,
				"element": "C" 
			},
			{
				"x": 1.8041756183,
				"y": 5.4429494897,
				"z": -0.6806248864,
				"element": "F" 
			},
			{
				"x": 2.0978701458,
				"y": 3.2540823014,
				"z": -1.5145802541,
				"element": "C" 
			},
			{
				"x": 2.0584118348,
				"y": 1.8776431881,
				"z": -1.2843639149,
				"element": "C" 
			},
			{
				"x": -0.3205489032,
				"y": -3.7281950853,
				"z": 1.5917376177,
				"element": "H" 
			},
			{
				"x": -2.5516213185,
				"y": -2.5292619332,
				"z": 1.4878367954,
				"element": "H" 
			},
			{
				"x": -2.5476910815,
				"y": -0.1372103314,
				"z": 0.7318789972,
				"element": "H" 
			},
			{
				"x": 1.1752157318,
				"y": 4.3324305554,
				"z": 1.5964211994,
				"element": "H" 
			},
			{
				"x": 2.3734559887,
				"y": 3.6594453547,
				"z": -2.4809775561,
				"element": "H" 
			},
			{
				"x": 2.3093905693,
				"y": 1.1719255575,
				"z": -2.0684988369,
				"element": "H" 
			}
		],
		 "valence_orbital": [ 
			{
				"type": "occ",
				"energy": -0.29535,
				"method": "rhf"
			},
			{
				"type": "occ",
				"energy": -0.28852,
				"method": "rhf"
			},
			{
				"type": "occ",
				"energy": -0.27471,
				"method": "rhf"
			},
			{
				"type": "occ",
				"energy": -0.26986,
				"method": "rhf"
			},
			{
				"type": "occ",
				"energy": -0.24569,
				"method": "rhf"
			},
			{
				"type": "unocc",
				"energy": -0.09308,
				"method": "rhf"
			},
			{
				"type": "unocc",
				"energy": -0.04135,
				"method": "rhf"
			},
			{
				"type": "unocc",
				"energy": -0.02317,
				"method": "rhf"
			},
			{
				"type": "unocc",
				"energy": -0.01288,
				"method": "rhf"
			},
			{
				"type": "unocc",
				"energy": -0.0066,
				"method": "rhf"
			}
		],
		"cosmo_sigma_profile": { 
			"-0.025": 0.0,
			"-0.024": 0.0,
			"-0.023": 0.0,
			"-0.022": 0.0,
			"-0.021": 0.0,
			"-0.02": 0.0,
			"-0.019": 0.0,
			"-0.018": 0.0,
			"-0.017": 0.0,
			"-0.016": 0.0,
			"-0.015": 0.0,
			"-0.014": 0.0,
			"-0.013": 0.0,
			"-0.012": 0.0,
			"-0.011": 0.0,
			"-0.01": 0.0606447771694,
			"-0.009": 3.03318543468,
			"-0.008": 11.7749226752,
			"-0.007": 12.3737234991,
			"-0.006": 14.2360388657,
			"-0.005": 9.74310044697,
			"-0.004": 11.8136985449,
			"-0.003": 15.9956756792,
			"-0.002": 15.7992705588,
			"-0.001": 20.5415832695,
			"0.0": 26.0680039616,
			"0.001": 21.5777775264,
			"0.002": 15.009043747,
			"0.003": 18.563334672,
			"0.004": 17.1318133912,
			"0.005": 5.3542125376,
			"0.006": 5.89731762516,
			"0.007": 8.29901086299,
			"0.008": 10.068781684,
			"0.009": 7.16941425615,
			"0.01": 4.12917626684,
			"0.011": 0.823947867025,
			"0.012": 0.0633161347687,
			"0.013": 0.0,
			"0.014": 0.0,
			"0.015": 0.0,
			"0.016": 0.0,
			"0.017": 0.0,
			"0.018": 0.0,
			"0.019": 0.0,
			"0.02": 0.0,
			"0.021": 0.0,
			"0.022": 0.0,
			"0.023": 0.0,
			"0.024": 0.0,
			"0.025": 0.0
		}
	}
}
