{
	 "smiles": "NC[C@H](O)C1=CC=C(O)C(O)=C1", 
	 "Tm": 490.15, 
	 "num_atms": 23, 
	 "gaussian": { 
		 "optdone": 1, 
		 "sigma_profile": "yes", 
		 "theory": "DFT", 
		 "functional": "B3LYP", 
		 "basiset": "6-31G**", 
		 "properties": { 
			 "R2extent": 3178.5606, 
			 "electric_dipole_moment_norm": 3.00185599588, 
			 "electric_quadrupole_moment_norm": 22.0324090437, 
			 "total_energy": -591.879127083, 
			 "HOMO_LUMO_gap": 0.21274, 
			 "cosmo_polarized_energy": -19.95, 
			 "cosmo_cavitation_energy": 26.29, 
			 "cosmo_dispersion_energy": -19.41, 
			 "cosmo_repulsion_energy": 1.58, 
			 "cosmo_total_nonelectrostatic_energy": 8.45, 
			 "SMD_solvation_energy": 3.98 
		},
		"coords": [
			{
				"x": 0.5541487535,
				"y": 2.2483718597,
				"z": 4.0145895789,
				"element": "N" 
			},
			{
				"x": 0.1337767289,
				"y": 0.9201130577,
				"z": 4.4394358254,
				"element": "C" 
			},
			{
				"x": 0.7767742571,
				"y": -0.1636199389,
				"z": 3.5518932385,
				"element": "C" 
			},
			{
				"x": 2.2018908693,
				"y": -0.0789813576,
				"z": 3.6442933856,
				"element": "O" 
			},
			{
				"x": 0.3791399857,
				"y": -0.0614726142,
				"z": 2.0911580039,
				"element": "C" 
			},
			{
				"x": -0.8888262087,
				"y": -0.4946129214,
				"z": 1.6931568663,
				"element": "C" 
			},
			{
				"x": -1.288973366,
				"y": -0.3888761641,
				"z": 0.3583696586,
				"element": "C" 
			},
			{
				"x": -0.4165836064,
				"y": 0.1434648074,
				"z": -0.5839788569,
				"element": "C" 
			},
			{
				"x": -0.7016006247,
				"y": 0.2878933318,
				"z": -1.9259233093,
				"element": "O" 
			},
			{
				"x": 0.8638369756,
				"y": 0.571558573,
				"z": -0.1960596401,
				"element": "C" 
			},
			{
				"x": 1.7254949349,
				"y": 1.0861780629,
				"z": -1.1203084741,
				"element": "O" 
			},
			{
				"x": 1.2534610481,
				"y": 0.4671407568,
				"z": 1.1358856995,
				"element": "C" 
			},
			{
				"x": 1.5699499766,
				"y": 2.2772058521,
				"z": 3.984943865,
				"element": "H" 
			},
			{
				"x": 0.2465509722,
				"y": 2.9522451055,
				"z": 4.6787073208,
				"element": "H" 
			},
			{
				"x": 0.3884945393,
				"y": 0.6713803748,
				"z": 5.4908386609,
				"element": "H" 
			},
			{
				"x": -0.9574730335,
				"y": 0.8421167092,
				"z": 4.3592707825,
				"element": "H" 
			},
			{
				"x": 0.4342644829,
				"y": -1.1401028105,
				"z": 3.9316363387,
				"element": "H" 
			},
			{
				"x": 2.4444772768,
				"y": -0.2599009065,
				"z": 4.5614572646,
				"element": "H" 
			},
			{
				"x": -1.5742842172,
				"y": -0.9216313039,
				"z": 2.4205819516,
				"element": "H" 
			},
			{
				"x": -2.2758486807,
				"y": -0.7292705302,
				"z": 0.051161115,
				"element": "H" 
			},
			{
				"x": -1.6013416584,
				"y": -0.0128115043,
				"z": -2.1007274192,
				"element": "H" 
			},
			{
				"x": 1.2694664496,
				"y": 1.0794055141,
				"z": -1.9748912984,
				"element": "H" 
			},
			{
				"x": 2.2460041453,
				"y": 0.7948060465,
				"z": 1.4184094421,
				"element": "H" 
			}
		],
		 "valence_orbital": [ 
			{
				"type": "occ",
				"energy": -0.31157,
				"method": "rhf"
			},
			{
				"type": "occ",
				"energy": -0.27332,
				"method": "rhf"
			},
			{
				"type": "occ",
				"energy": -0.2294,
				"method": "rhf"
			},
			{
				"type": "occ",
				"energy": -0.22183,
				"method": "rhf"
			},
			{
				"type": "occ",
				"energy": -0.19631,
				"method": "rhf"
			},
			{
				"type": "unocc",
				"energy": 0.01643,
				"method": "rhf"
			},
			{
				"type": "unocc",
				"energy": 0.02455,
				"method": "rhf"
			},
			{
				"type": "unocc",
				"energy": 0.06078,
				"method": "rhf"
			},
			{
				"type": "unocc",
				"energy": 0.06487,
				"method": "rhf"
			},
			{
				"type": "unocc",
				"energy": 0.10337,
				"method": "rhf"
			}
		],
		"cosmo_sigma_profile": { 
			"-0.025": 0.0,
			"-0.024": 0.0,
			"-0.023": 0.0,
			"-0.022": 0.0,
			"-0.021": 0.0,
			"-0.02": 0.0,
			"-0.019": 0.0,
			"-0.018": 0.641369663538,
			"-0.017": 1.2413461568,
			"-0.016": 1.01728429228,
			"-0.015": 2.54200055114,
			"-0.014": 2.38264343383,
			"-0.013": 2.16523670167,
			"-0.012": 2.61034707826,
			"-0.011": 2.22049876504,
			"-0.01": 3.00617360365,
			"-0.009": 4.71660522919,
			"-0.008": 3.84820438221,
			"-0.007": 5.9445255648,
			"-0.006": 6.264014228,
			"-0.005": 11.4013869426,
			"-0.004": 13.2424364435,
			"-0.003": 15.0624334095,
			"-0.002": 12.6415550237,
			"-0.001": 12.1556000257,
			"0.0": 7.89550526219,
			"0.001": 6.74464152753,
			"0.002": 7.95846164734,
			"0.003": 10.6378629748,
			"0.004": 11.8701913304,
			"0.005": 12.1179604291,
			"0.006": 11.4897714763,
			"0.007": 7.12772494032,
			"0.008": 5.65296490675,
			"0.009": 3.83948604886,
			"0.01": 3.74680416294,
			"0.011": 3.66226176901,
			"0.012": 3.31644834495,
			"0.013": 1.87237303866,
			"0.014": 1.065128835,
			"0.015": 0.911533291637,
			"0.016": 0.742890855309,
			"0.017": 0.582997467435,
			"0.018": 0.390060943911,
			"0.019": 0.857041424094,
			"0.02": 0.0545409028951,
			"0.021": 0.0,
			"0.022": 0.0,
			"0.023": 0.0,
			"0.024": 0.0,
			"0.025": 0.0
		}
	}
}
