{
	 "smiles": "OC(=O)C1=CC(F)=C(I)C=C1", 
	 "Tm": 507.15, 
	 "num_atms": 15, 
	 "gaussian": { 
		 "optdone": 1, 
		 "sigma_profile": "yes", 
		 "theory": "DFT", 
		 "functional": "B3LYP", 
		 "basiset": "6-31G**", 
		 "properties": { 
			 "R2extent": 2113.2599, 
			 "electric_dipole_moment_norm": 0.747782816064, 
			 "electric_quadrupole_moment_norm": 11.3112839559, 
			 "total_energy": -530.837481083, 
			 "HOMO_LUMO_gap": 0.18603, 
			 "cosmo_polarized_energy": -8.67, 
			 "cosmo_cavitation_energy": 23.85, 
			 "cosmo_dispersion_energy": -18.94, 
			 "cosmo_repulsion_energy": 1.46, 
			 "cosmo_total_nonelectrostatic_energy": 6.37, 
			 "SMD_solvation_energy": 5.01 
		},
		"coords": [
			{
				"x": -2.6759694186,
				"y": 0.6337245001,
				"z": 2.600974279,
				"element": "O" 
			},
			{
				"x": -2.6832361408,
				"y": -0.0744675706,
				"z": 1.4461613784,
				"element": "C" 
			},
			{
				"x": -3.6903030625,
				"y": -0.5879998076,
				"z": 1.0028598988,
				"element": "O" 
			},
			{
				"x": -1.3437241945,
				"y": -0.1458705284,
				"z": 0.8005419852,
				"element": "C" 
			},
			{
				"x": -0.2194905047,
				"y": 0.4689025335,
				"z": 1.3626744429,
				"element": "C" 
			},
			{
				"x": 1.0034473393,
				"y": 0.3666554233,
				"z": 0.7128347987,
				"element": "C" 
			},
			{
				"x": 2.0743461255,
				"y": 0.960570506,
				"z": 1.261988476,
				"element": "F" 
			},
			{
				"x": 1.1316065576,
				"y": -0.3360176855,
				"z": -0.4872968048,
				"element": "C" 
			},
			{
				"x": 3.0064303713,
				"y": -0.4626760583,
				"z": -1.4336648437,
				"element": "I" 
			},
			{
				"x": 0.0038099548,
				"y": -0.9482017642,
				"z": -1.0439409355,
				"element": "C" 
			},
			{
				"x": -1.2277943641,
				"y": -0.8533174935,
				"z": -0.4026938192,
				"element": "C" 
			},
			{
				"x": -3.5888376404,
				"y": 0.6161821137,
				"z": 2.9321868818,
				"element": "H" 
			},
			{
				"x": -0.2824585585,
				"y": 1.0217228766,
				"z": 2.2920061754,
				"element": "H" 
			},
			{
				"x": 0.0944825759,
				"y": -1.49556109,
				"z": -1.9752709473,
				"element": "H" 
			},
			{
				"x": -2.1111090402,
				"y": -1.3222459553,
				"z": -0.8212609658,
				"element": "H" 
			}
		],
		 "valence_orbital": [ 
			{
				"type": "occ",
				"energy": -0.31143,
				"method": "rhf"
			},
			{
				"type": "occ",
				"energy": -0.2895,
				"method": "rhf"
			},
			{
				"type": "occ",
				"energy": -0.27833,
				"method": "rhf"
			},
			{
				"type": "occ",
				"energy": -0.27268,
				"method": "rhf"
			},
			{
				"type": "occ",
				"energy": -0.25343,
				"method": "rhf"
			},
			{
				"type": "unocc",
				"energy": -0.0674,
				"method": "rhf"
			},
			{
				"type": "unocc",
				"energy": -0.04938,
				"method": "rhf"
			},
			{
				"type": "unocc",
				"energy": -0.02406,
				"method": "rhf"
			},
			{
				"type": "unocc",
				"energy": 0.03736,
				"method": "rhf"
			},
			{
				"type": "unocc",
				"energy": 0.04096,
				"method": "rhf"
			}
		],
		"cosmo_sigma_profile": { 
			"-0.025": 0.0,
			"-0.024": 0.0,
			"-0.023": 0.0,
			"-0.022": 0.0,
			"-0.021": 0.0,
			"-0.02": 0.0,
			"-0.019": 0.168170288195,
			"-0.018": 0.92142832442,
			"-0.017": 1.18360865323,
			"-0.016": 0.683319823024,
			"-0.015": 0.450286172344,
			"-0.014": 1.22771875648,
			"-0.013": 0.589936190409,
			"-0.012": 0.405778993488,
			"-0.011": 0.65357534685,
			"-0.01": 0.786043721733,
			"-0.009": 0.745765949016,
			"-0.008": 3.89190041855,
			"-0.007": 6.05834651279,
			"-0.006": 7.25571911328,
			"-0.005": 6.23817224694,
			"-0.004": 7.31080776997,
			"-0.003": 10.1720655671,
			"-0.002": 11.7565153187,
			"-0.001": 19.5581243802,
			"0.0": 23.3923295604,
			"0.001": 19.9327996231,
			"0.002": 15.8859891977,
			"0.003": 18.849294911,
			"0.004": 17.2730034764,
			"0.005": 3.72675002024,
			"0.006": 3.47948566902,
			"0.007": 2.74565607217,
			"0.008": 1.0575313943,
			"0.009": 1.50736904075,
			"0.01": 2.66087343628,
			"0.011": 4.35689347549,
			"0.012": 2.15178347448,
			"0.013": 0.0,
			"0.014": 0.0,
			"0.015": 0.0,
			"0.016": 0.0,
			"0.017": 0.0,
			"0.018": 0.0,
			"0.019": 0.0,
			"0.02": 0.0,
			"0.021": 0.0,
			"0.022": 0.0,
			"0.023": 0.0,
			"0.024": 0.0,
			"0.025": 0.0
		}
	}
}
