{
	 "smiles": "NC(=S)NC1=C(F)C=C(F)C=C1", 
	 "Tm": 439.15, 
	 "num_atms": 18, 
	 "gaussian": { 
		 "optdone": 1, 
		 "sigma_profile": "yes", 
		 "theory": "DFT", 
		 "functional": "B3LYP", 
		 "basiset": "6-31G**", 
		 "properties": { 
			 "R2extent": 2928.4961, 
			 "electric_dipole_moment_norm": 4.05881725383, 
			 "electric_quadrupole_moment_norm": 14.7750790434, 
			 "total_energy": -977.72961701, 
			 "HOMO_LUMO_gap": 0.18074, 
			 "cosmo_polarized_energy": -16.12, 
			 "cosmo_cavitation_energy": 25.03, 
			 "cosmo_dispersion_energy": -18.89, 
			 "cosmo_repulsion_energy": 1.42, 
			 "cosmo_total_nonelectrostatic_energy": 7.55, 
			 "SMD_solvation_energy": 4.47 
		},
		"coords": [
			{
				"x": 3.0645758023,
				"y": -0.031847739,
				"z": 2.1923522043,
				"element": "N" 
			},
			{
				"x": 2.059965789,
				"y": 0.3341852321,
				"z": 1.3307340109,
				"element": "C" 
			},
			{
				"x": 2.1617817263,
				"y": 1.7719396296,
				"z": 0.4741508186,
				"element": "S" 
			},
			{
				"x": 1.0718668095,
				"y": -0.6092060226,
				"z": 1.260013585,
				"element": "N" 
			},
			{
				"x": -0.1398693854,
				"y": -0.6638685997,
				"z": 0.546750429,
				"element": "C" 
			},
			{
				"x": -0.8565101958,
				"y": -1.8664173599,
				"z": 0.6657697609,
				"element": "C" 
			},
			{
				"x": -0.3117049221,
				"y": -2.8467939216,
				"z": 1.4361306727,
				"element": "F" 
			},
			{
				"x": -2.0724618253,
				"y": -2.0955211472,
				"z": 0.0496345005,
				"element": "C" 
			},
			{
				"x": -2.5971821007,
				"y": -1.0659482847,
				"z": -0.7265511109,
				"element": "C" 
			},
			{
				"x": -3.7802811786,
				"y": -1.2594615987,
				"z": -1.3416703265,
				"element": "F" 
			},
			{
				"x": -1.9324504106,
				"y": 0.1428986942,
				"z": -0.8779731685,
				"element": "C" 
			},
			{
				"x": -0.7053936108,
				"y": 0.3459873547,
				"z": -0.2428944994,
				"element": "C" 
			},
			{
				"x": 3.7552714998,
				"y": 0.6831683872,
				"z": 2.3634891822,
				"element": "H" 
			},
			{
				"x": 2.8707190235,
				"y": -0.6561347888,
				"z": 2.9644611059,
				"element": "H" 
			},
			{
				"x": 1.2543736482,
				"y": -1.4746672866,
				"z": 1.752501577,
				"element": "H" 
			},
			{
				"x": -2.5884079666,
				"y": -3.0399446272,
				"z": 0.1700117404,
				"element": "H" 
			},
			{
				"x": -2.3715817101,
				"y": 0.9214283207,
				"z": -1.4913127181,
				"element": "H" 
			},
			{
				"x": -0.1730109927,
				"y": 1.2794037574,
				"z": -0.358897764,
				"element": "H" 
			}
		],
		 "valence_orbital": [ 
			{
				"type": "occ",
				"energy": -0.31621,
				"method": "rhf"
			},
			{
				"type": "occ",
				"energy": -0.26706,
				"method": "rhf"
			},
			{
				"type": "occ",
				"energy": -0.24191,
				"method": "rhf"
			},
			{
				"type": "occ",
				"energy": -0.2198,
				"method": "rhf"
			},
			{
				"type": "occ",
				"energy": -0.21412,
				"method": "rhf"
			},
			{
				"type": "unocc",
				"energy": -0.03338,
				"method": "rhf"
			},
			{
				"type": "unocc",
				"energy": -0.01653,
				"method": "rhf"
			},
			{
				"type": "unocc",
				"energy": 0.02027,
				"method": "rhf"
			},
			{
				"type": "unocc",
				"energy": 0.04913,
				"method": "rhf"
			},
			{
				"type": "unocc",
				"energy": 0.0716,
				"method": "rhf"
			}
		],
		"cosmo_sigma_profile": { 
			"-0.025": 0.0,
			"-0.024": 0.0,
			"-0.023": 0.0,
			"-0.022": 0.0,
			"-0.021": 0.0,
			"-0.02": 0.0,
			"-0.019": 0.109954057691,
			"-0.018": 1.106024713,
			"-0.017": 0.913969247445,
			"-0.016": 1.40739407722,
			"-0.015": 1.6364700164,
			"-0.014": 2.63839258634,
			"-0.013": 2.30907120258,
			"-0.012": 2.91175026083,
			"-0.011": 2.48424537462,
			"-0.01": 2.83720358004,
			"-0.009": 2.98791372957,
			"-0.008": 4.93020168259,
			"-0.007": 5.17365303868,
			"-0.006": 5.46506893872,
			"-0.005": 5.62505050614,
			"-0.004": 5.93670210598,
			"-0.003": 6.81267163973,
			"-0.002": 8.53776692545,
			"-0.001": 10.7432650211,
			"0.0": 16.4533842094,
			"0.001": 23.3554325775,
			"0.002": 16.4910192026,
			"0.003": 18.6136124587,
			"0.004": 17.6434313423,
			"0.005": 6.69478377977,
			"0.006": 5.10582696236,
			"0.007": 4.68452629257,
			"0.008": 4.62193724066,
			"0.009": 4.90130606033,
			"0.01": 6.44371031375,
			"0.011": 3.44486159514,
			"0.012": 0.797756883907,
			"0.013": 0.0,
			"0.014": 0.0,
			"0.015": 0.0,
			"0.016": 0.0,
			"0.017": 0.0,
			"0.018": 0.0,
			"0.019": 0.0,
			"0.02": 0.0,
			"0.021": 0.0,
			"0.022": 0.0,
			"0.023": 0.0,
			"0.024": 0.0,
			"0.025": 0.0
		}
	}
}
