{
	 "smiles": "NNC(=O)CCOC1=CC=CC=C1", 
	 "Tm": 343.15, 
	 "num_atms": 25, 
	 "gaussian": { 
		 "optdone": 1, 
		 "sigma_profile": "yes", 
		 "theory": "DFT", 
		 "functional": "B3LYP", 
		 "basiset": "6-31G**", 
		 "properties": { 
			 "R2extent": 3973.5777, 
			 "electric_dipole_moment_norm": 4.73421641457, 
			 "electric_quadrupole_moment_norm": 22.1518593071, 
			 "total_energy": -610.108942326, 
			 "HOMO_LUMO_gap": 0.21521, 
			 "cosmo_polarized_energy": -16.41, 
			 "cosmo_cavitation_energy": 29.09, 
			 "cosmo_dispersion_energy": -21.2, 
			 "cosmo_repulsion_energy": 1.74, 
			 "cosmo_total_nonelectrostatic_energy": 9.63, 
			 "SMD_solvation_energy": 6.48 
		},
		"coords": [
			{
				"x": 3.3903229844,
				"y": 2.4850387443,
				"z": -0.5042644882,
				"element": "N" 
			},
			{
				"x": 3.5942640782,
				"y": 1.873826629,
				"z": 0.7362356877,
				"element": "N" 
			},
			{
				"x": 2.5636167815,
				"y": 1.5070360449,
				"z": 1.5669236831,
				"element": "C" 
			},
			{
				"x": 2.8025193091,
				"y": 0.9649345562,
				"z": 2.6395847859,
				"element": "O" 
			},
			{
				"x": 1.1548250624,
				"y": 1.8076346111,
				"z": 1.0832981945,
				"element": "C" 
			},
			{
				"x": 0.1224992244,
				"y": 1.4147274112,
				"z": 2.1410614872,
				"element": "C" 
			},
			{
				"x": -1.2057032927,
				"y": 1.7265733546,
				"z": 1.717476079,
				"element": "O" 
			},
			{
				"x": -1.8638592874,
				"y": 0.8866113929,
				"z": 0.8636708739,
				"element": "C" 
			},
			{
				"x": -3.1402577785,
				"y": 1.3159066467,
				"z": 0.467029113,
				"element": "C" 
			},
			{
				"x": -3.9079710594,
				"y": 0.5325281562,
				"z": -0.3874352545,
				"element": "C" 
			},
			{
				"x": -3.4202038488,
				"y": -0.6895294246,
				"z": -0.8632579981,
				"element": "C" 
			},
			{
				"x": -2.1528651156,
				"y": -1.112007371,
				"z": -0.4684438299,
				"element": "C" 
			},
			{
				"x": -1.3677585158,
				"y": -0.3352348726,
				"z": 0.3897915649,
				"element": "C" 
			},
			{
				"x": 3.8428711344,
				"y": 3.395320658,
				"z": -0.5300425843,
				"element": "H" 
			},
			{
				"x": 3.7686107327,
				"y": 1.9083823647,
				"z": -1.2516693625,
				"element": "H" 
			},
			{
				"x": 4.5253860924,
				"y": 1.6579405137,
				"z": 1.0792944946,
				"element": "H" 
			},
			{
				"x": 1.0619488798,
				"y": 2.8715188576,
				"z": 0.842554048,
				"element": "H" 
			},
			{
				"x": 0.9741838828,
				"y": 1.2815373128,
				"z": 0.1398280379,
				"element": "H" 
			},
			{
				"x": 0.2764077701,
				"y": 1.9968205811,
				"z": 3.0516819853,
				"element": "H" 
			},
			{
				"x": 0.2149060703,
				"y": 0.3599186269,
				"z": 2.4170589711,
				"element": "H" 
			},
			{
				"x": -3.5047240166,
				"y": 2.2647520429,
				"z": 0.8473374376,
				"element": "H" 
			},
			{
				"x": -4.894738167,
				"y": 0.8777910478,
				"z": -0.6836372768,
				"element": "H" 
			},
			{
				"x": -4.0206046991,
				"y": -1.2996529858,
				"z": -1.5308903211,
				"element": "H" 
			},
			{
				"x": -1.7584768432,
				"y": -2.0584884656,
				"z": -0.8283578921,
				"element": "H" 
			},
			{
				"x": -0.3864993782,
				"y": -0.6916864329,
				"z": 0.6799725638,
				"element": "H" 
			}
		],
		 "valence_orbital": [ 
			{
				"type": "occ",
				"energy": -0.29015,
				"method": "rhf"
			},
			{
				"type": "occ",
				"energy": -0.26143,
				"method": "rhf"
			},
			{
				"type": "occ",
				"energy": -0.25168,
				"method": "rhf"
			},
			{
				"type": "occ",
				"energy": -0.24312,
				"method": "rhf"
			},
			{
				"type": "occ",
				"energy": -0.21012,
				"method": "rhf"
			},
			{
				"type": "unocc",
				"energy": 0.00509,
				"method": "rhf"
			},
			{
				"type": "unocc",
				"energy": 0.02041,
				"method": "rhf"
			},
			{
				"type": "unocc",
				"energy": 0.0283,
				"method": "rhf"
			},
			{
				"type": "unocc",
				"energy": 0.05837,
				"method": "rhf"
			},
			{
				"type": "unocc",
				"energy": 0.09286,
				"method": "rhf"
			}
		],
		"cosmo_sigma_profile": { 
			"-0.025": 0.0,
			"-0.024": 0.0,
			"-0.023": 0.0,
			"-0.022": 0.0,
			"-0.021": 0.0,
			"-0.02": 0.0,
			"-0.019": 0.0,
			"-0.018": 0.0,
			"-0.017": 0.0,
			"-0.016": 0.0,
			"-0.015": 0.0,
			"-0.014": 0.070436592359,
			"-0.013": 1.35520445299,
			"-0.012": 3.20224903217,
			"-0.011": 5.00022222289,
			"-0.01": 5.28974213098,
			"-0.009": 4.2606522051,
			"-0.008": 3.78014103047,
			"-0.007": 5.00034858162,
			"-0.006": 7.3522815793,
			"-0.005": 15.7721726224,
			"-0.004": 18.4989480638,
			"-0.003": 18.0292601731,
			"-0.002": 15.4267695606,
			"-0.001": 12.4004449169,
			"0.0": 11.8567047696,
			"0.001": 11.3471307132,
			"0.002": 12.6010575063,
			"0.003": 11.4825829544,
			"0.004": 12.9673559451,
			"0.005": 12.5843695811,
			"0.006": 12.5586401876,
			"0.007": 4.70633024823,
			"0.008": 2.76117541074,
			"0.009": 3.70018893963,
			"0.01": 3.62559107864,
			"0.011": 1.85515369753,
			"0.012": 2.58092869798,
			"0.013": 3.8692250374,
			"0.014": 4.88837416025,
			"0.015": 0.538912561726,
			"0.016": 0.0,
			"0.017": 0.0,
			"0.018": 0.0,
			"0.019": 0.0,
			"0.02": 0.0,
			"0.021": 0.0,
			"0.022": 0.0,
			"0.023": 0.0,
			"0.024": 0.0,
			"0.025": 0.0
		}
	}
}
