{
	 "smiles": "CC(C)(C)OC(=O)NC(CC1=C2C=CC=CC2=CC=C1)C(O)=O", 
	 "Tm": 419.15, 
	 "num_atms": 44, 
	 "gaussian": { 
		 "optdone": 1, 
		 "sigma_profile": "yes", 
		 "theory": "DFT", 
		 "functional": "B3LYP", 
		 "basiset": "6-31G**", 
		 "properties": { 
			 "R2extent": 6178.1182, 
			 "electric_dipole_moment_norm": 3.28317654262, 
			 "electric_quadrupole_moment_norm": 16.8156192494, 
			 "total_energy": -1054.27536989, 
			 "HOMO_LUMO_gap": 0.17273, 
			 "cosmo_polarized_energy": -19.16, 
			 "cosmo_cavitation_energy": 44.85, 
			 "cosmo_dispersion_energy": -28.57, 
			 "cosmo_repulsion_energy": 2.14, 
			 "cosmo_total_nonelectrostatic_energy": 18.43, 
			 "SMD_solvation_energy": 8.71 
		},
		"coords": [
			{
				"x": 0.8649304484,
				"y": -3.3569622331,
				"z": -1.097053398,
				"element": "C" 
			},
			{
				"x": 0.1108713371,
				"y": -2.4374444925,
				"z": -0.1301620922,
				"element": "C" 
			},
			{
				"x": -0.1450732898,
				"y": -3.0971033883,
				"z": 1.228194974,
				"element": "C" 
			},
			{
				"x": -1.1963141917,
				"y": -1.9512435151,
				"z": -0.7596230272,
				"element": "C" 
			},
			{
				"x": 0.8662184871,
				"y": -1.1826575143,
				"z": 0.062411815,
				"element": "O" 
			},
			{
				"x": 2.1352660691,
				"y": -1.21100815,
				"z": 0.5005065778,
				"element": "C" 
			},
			{
				"x": 2.7415105887,
				"y": -2.1772612385,
				"z": 0.9324175632,
				"element": "O" 
			},
			{
				"x": 2.723646612,
				"y": 0.0383762786,
				"z": 0.441211893,
				"element": "N" 
			},
			{
				"x": 2.2491332208,
				"y": 1.2224791035,
				"z": -0.2449275502,
				"element": "C" 
			},
			{
				"x": 1.3448504982,
				"y": 2.1616795565,
				"z": 0.6217101797,
				"element": "C" 
			},
			{
				"x": 0.2071842442,
				"y": 1.5484949518,
				"z": 1.4161357136,
				"element": "C" 
			},
			{
				"x": -1.1563295193,
				"y": 1.5604505285,
				"z": 0.9672972401,
				"element": "C" 
			},
			{
				"x": -1.5667953726,
				"y": 2.114356744,
				"z": -0.2783884025,
				"element": "C" 
			},
			{
				"x": -2.8906445132,
				"y": 2.1168712646,
				"z": -0.6606646202,
				"element": "C" 
			},
			{
				"x": -3.8852562514,
				"y": 1.5639004583,
				"z": 0.1790765002,
				"element": "C" 
			},
			{
				"x": -3.5280687557,
				"y": 1.0184178627,
				"z": 1.3902919218,
				"element": "C" 
			},
			{
				"x": -2.1721748613,
				"y": 1.0001109903,
				"z": 1.8173772525,
				"element": "C" 
			},
			{
				"x": -1.8104387336,
				"y": 0.4392447055,
				"z": 3.071044506,
				"element": "C" 
			},
			{
				"x": -0.4989650404,
				"y": 0.4437696136,
				"z": 3.4822811801,
				"element": "C" 
			},
			{
				"x": 0.498240334,
				"y": 1.0086529817,
				"z": 2.6561745733,
				"element": "C" 
			},
			{
				"x": 1.7790685326,
				"y": 0.9169596702,
				"z": -1.6747695449,
				"element": "C" 
			},
			{
				"x": 1.1119250749,
				"y": 1.9675985451,
				"z": -2.2169644048,
				"element": "O" 
			},
			{
				"x": 2.0542166981,
				"y": -0.0699359255,
				"z": -2.3132279314,
				"element": "O" 
			},
			{
				"x": 1.1028589001,
				"y": -2.8184500895,
				"z": -2.0188336416,
				"element": "H" 
			},
			{
				"x": 1.7914144383,
				"y": -3.7213523499,
				"z": -0.6529809433,
				"element": "H" 
			},
			{
				"x": 0.2323916484,
				"y": -4.214715003,
				"z": -1.3485637331,
				"element": "H" 
			},
			{
				"x": -0.6434024031,
				"y": -2.3945031638,
				"z": 1.9027737963,
				"element": "H" 
			},
			{
				"x": -0.796623475,
				"y": -3.9674204623,
				"z": 1.0954432592,
				"element": "H" 
			},
			{
				"x": 0.7911789355,
				"y": -3.4227666766,
				"z": 1.6824743953,
				"element": "H" 
			},
			{
				"x": -1.7183305573,
				"y": -1.2596506432,
				"z": -0.0940996565,
				"element": "H" 
			},
			{
				"x": -0.9989957786,
				"y": -1.4398942891,
				"z": -1.7061023869,
				"element": "H" 
			},
			{
				"x": -1.8511614766,
				"y": -2.8053140165,
				"z": -0.9578746908,
				"element": "H" 
			},
			{
				"x": 3.7057229004,
				"y": -0.0108349044,
				"z": 0.6642288035,
				"element": "H" 
			},
			{
				"x": 3.1470888983,
				"y": 1.8268953261,
				"z": -0.4377071752,
				"element": "H" 
			},
			{
				"x": 2.0275339008,
				"y": 2.6188825342,
				"z": 1.3454634469,
				"element": "H" 
			},
			{
				"x": 0.9960124099,
				"y": 2.9744934862,
				"z": -0.0179448883,
				"element": "H" 
			},
			{
				"x": -0.8236700605,
				"y": 2.5283897043,
				"z": -0.9483173875,
				"element": "H" 
			},
			{
				"x": -3.174269356,
				"y": 2.5470131209,
				"z": -1.6172446408,
				"element": "H" 
			},
			{
				"x": -4.9254598905,
				"y": 1.5724369516,
				"z": -0.133490417,
				"element": "H" 
			},
			{
				"x": -4.2825221808,
				"y": 0.5911540378,
				"z": 2.0462128802,
				"element": "H" 
			},
			{
				"x": -2.5897495087,
				"y": 0.0184835949,
				"z": 3.7012848942,
				"element": "H" 
			},
			{
				"x": -0.2221111221,
				"y": 0.0247305959,
				"z": 4.4452632324,
				"element": "H" 
			},
			{
				"x": 1.526831529,
				"y": 1.0159385627,
				"z": 3.0051896299,
				"element": "H" 
			},
			{
				"x": 0.9216606325,
				"y": 1.7143368863,
				"z": -3.1360256961,
				"element": "H" 
			}
		],
		 "valence_orbital": [ 
			{
				"type": "occ",
				"energy": -0.27346,
				"method": "rhf"
			},
			{
				"type": "occ",
				"energy": -0.25789,
				"method": "rhf"
			},
			{
				"type": "occ",
				"energy": -0.25171,
				"method": "rhf"
			},
			{
				"type": "occ",
				"energy": -0.24059,
				"method": "rhf"
			},
			{
				"type": "occ",
				"energy": -0.21087,
				"method": "rhf"
			},
			{
				"type": "unocc",
				"energy": -0.03814,
				"method": "rhf"
			},
			{
				"type": "unocc",
				"energy": -0.00841,
				"method": "rhf"
			},
			{
				"type": "unocc",
				"energy": -0.00171,
				"method": "rhf"
			},
			{
				"type": "unocc",
				"energy": 0.02919,
				"method": "rhf"
			},
			{
				"type": "unocc",
				"energy": 0.05457,
				"method": "rhf"
			}
		],
		"cosmo_sigma_profile": { 
			"-0.025": 0.0,
			"-0.024": 0.0,
			"-0.023": 0.0,
			"-0.022": 0.0,
			"-0.021": 0.0,
			"-0.02": 0.0,
			"-0.019": 0.320050105219,
			"-0.018": 0.726287444564,
			"-0.017": 0.995906939387,
			"-0.016": 0.798787905677,
			"-0.015": 1.20836856328,
			"-0.014": 1.60383214997,
			"-0.013": 1.85583196851,
			"-0.012": 2.00647216684,
			"-0.011": 1.77033632136,
			"-0.01": 2.50774900828,
			"-0.009": 4.46792172486,
			"-0.008": 2.99260311204,
			"-0.007": 3.97504145808,
			"-0.006": 8.65935559566,
			"-0.005": 17.7130597954,
			"-0.004": 26.4663469889,
			"-0.003": 27.3919737981,
			"-0.002": 24.8836188406,
			"-0.001": 25.9203053794,
			"0.0": 33.4891578645,
			"0.001": 35.8468254794,
			"0.002": 26.3444779006,
			"0.003": 22.3881298774,
			"0.004": 23.4769802533,
			"0.005": 18.652197208,
			"0.006": 8.89074927198,
			"0.007": 5.58311248726,
			"0.008": 3.81744669938,
			"0.009": 2.4917979198,
			"0.01": 4.02299703517,
			"0.011": 4.07553775758,
			"0.012": 2.71663253516,
			"0.013": 3.01433882863,
			"0.014": 2.15848089951,
			"0.015": 0.00492052936201,
			"0.016": 0.0,
			"0.017": 0.0,
			"0.018": 0.0,
			"0.019": 0.0,
			"0.02": 0.0,
			"0.021": 0.0,
			"0.022": 0.0,
			"0.023": 0.0,
			"0.024": 0.0,
			"0.025": 0.0
		}
	}
}
