{
	 "smiles": "COC(=O)C1=CC(N)=C(C=C1)N1C=C(C)C=N1", 
	 "Tm": 410.15, 
	 "num_atms": 30, 
	 "gaussian": { 
		 "optdone": 1, 
		 "sigma_profile": "yes", 
		 "theory": "DFT", 
		 "functional": "B3LYP", 
		 "basiset": "6-31G**", 
		 "properties": { 
			 "R2extent": 6177.6561, 
			 "electric_dipole_moment_norm": 2.57621411377, 
			 "electric_quadrupole_moment_norm": 13.5644269337, 
			 "total_energy": -779.815662514, 
			 "HOMO_LUMO_gap": 0.15595, 
			 "cosmo_polarized_energy": -12.59, 
			 "cosmo_cavitation_energy": 34.36, 
			 "cosmo_dispersion_energy": -25.21, 
			 "cosmo_repulsion_energy": 1.95, 
			 "cosmo_total_nonelectrostatic_energy": 11.1, 
			 "SMD_solvation_energy": 7.31 
		},
		"coords": [
			{
				"x": -6.1733269339,
				"y": 0.2966365604,
				"z": -0.0861489911,
				"element": "C" 
			},
			{
				"x": -4.7900605781,
				"y": 0.3668928868,
				"z": -0.4600417045,
				"element": "O" 
			},
			{
				"x": -3.9198907741,
				"y": 0.4682351474,
				"z": 0.5726217684,
				"element": "C" 
			},
			{
				"x": -4.276536329,
				"y": 0.4965417424,
				"z": 1.7353500824,
				"element": "O" 
			},
			{
				"x": -2.5033374059,
				"y": 0.5380747037,
				"z": 0.1179314398,
				"element": "C" 
			},
			{
				"x": -1.518483527,
				"y": 0.6371174716,
				"z": 1.1011818718,
				"element": "C" 
			},
			{
				"x": -0.1527541385,
				"y": 0.7058764455,
				"z": 0.7828852852,
				"element": "C" 
			},
			{
				"x": 0.8050091976,
				"y": 0.7398809798,
				"z": 1.7780370753,
				"element": "N" 
			},
			{
				"x": 0.1947718203,
				"y": 0.6727417687,
				"z": -0.5934928863,
				"element": "C" 
			},
			{
				"x": -0.7996899581,
				"y": 0.5988851466,
				"z": -1.574640101,
				"element": "C" 
			},
			{
				"x": -2.1452630956,
				"y": 0.5195441512,
				"z": -1.23684161,
				"element": "C" 
			},
			{
				"x": 1.5573308846,
				"y": 0.688466921,
				"z": -1.0023006331,
				"element": "N" 
			},
			{
				"x": 2.1010045684,
				"y": 0.0574643551,
				"z": -2.0877254621,
				"element": "C" 
			},
			{
				"x": 3.4388332712,
				"y": 0.3958883717,
				"z": -2.1463669499,
				"element": "C" 
			},
			{
				"x": 4.4615967168,
				"y": -0.0509385499,
				"z": -3.1484212953,
				"element": "C" 
			},
			{
				"x": 3.6166122988,
				"y": 1.2491198169,
				"z": -1.0293823725,
				"element": "C" 
			},
			{
				"x": 2.4906696861,
				"y": 1.4278455865,
				"z": -0.3446694799,
				"element": "N" 
			},
			{
				"x": -6.3593895818,
				"y": -0.577909136,
				"z": 0.5425889596,
				"element": "H" 
			},
			{
				"x": -6.4706303314,
				"y": 1.1928887946,
				"z": 0.4644204549,
				"element": "H" 
			},
			{
				"x": -6.7279253775,
				"y": 0.2205108284,
				"z": -1.0215679346,
				"element": "H" 
			},
			{
				"x": -1.8286240915,
				"y": 0.649607319,
				"z": 2.141526979,
				"element": "H" 
			},
			{
				"x": 0.4673103124,
				"y": 1.0039866822,
				"z": 2.6918706676,
				"element": "H" 
			},
			{
				"x": 1.6854295162,
				"y": 1.1621030921,
				"z": 1.5043951828,
				"element": "H" 
			},
			{
				"x": -0.5052824338,
				"y": 0.6235517,
				"z": -2.6186930518,
				"element": "H" 
			},
			{
				"x": -2.9061683311,
				"y": 0.4632005665,
				"z": -2.0046758515,
				"element": "H" 
			},
			{
				"x": 1.5105504697,
				"y": -0.5966608516,
				"z": -2.7112372156,
				"element": "H" 
			},
			{
				"x": 4.8697821723,
				"y": 0.7951526592,
				"z": -3.7131096004,
				"element": "H" 
			},
			{
				"x": 5.3059740004,
				"y": -0.5554919531,
				"z": -2.665715516,
				"element": "H" 
			},
			{
				"x": 4.0282932071,
				"y": -0.7496664803,
				"z": -3.869494854,
				"element": "H" 
			},
			{
				"x": 4.5248947653,
				"y": 1.7350532736,
				"z": -0.6959842572,
				"element": "H" 
			}
		],
		 "valence_orbital": [ 
			{
				"type": "occ",
				"energy": -0.28295,
				"method": "rhf"
			},
			{
				"type": "occ",
				"energy": -0.26895,
				"method": "rhf"
			},
			{
				"type": "occ",
				"energy": -0.24983,
				"method": "rhf"
			},
			{
				"type": "occ",
				"energy": -0.23439,
				"method": "rhf"
			},
			{
				"type": "occ",
				"energy": -0.20083,
				"method": "rhf"
			},
			{
				"type": "unocc",
				"energy": -0.04488,
				"method": "rhf"
			},
			{
				"type": "unocc",
				"energy": 0.00501,
				"method": "rhf"
			},
			{
				"type": "unocc",
				"energy": 0.01322,
				"method": "rhf"
			},
			{
				"type": "unocc",
				"energy": 0.05975,
				"method": "rhf"
			},
			{
				"type": "unocc",
				"energy": 0.07291,
				"method": "rhf"
			}
		],
		"cosmo_sigma_profile": { 
			"-0.025": 0.0,
			"-0.024": 0.0,
			"-0.023": 0.0,
			"-0.022": 0.0,
			"-0.021": 0.0,
			"-0.02": 0.0,
			"-0.019": 0.0,
			"-0.018": 0.0,
			"-0.017": 0.0,
			"-0.016": 0.0,
			"-0.015": 0.0,
			"-0.014": 0.0,
			"-0.013": 0.600409271504,
			"-0.012": 1.45201828126,
			"-0.011": 1.26493835043,
			"-0.01": 1.93444295962,
			"-0.009": 2.3774135572,
			"-0.008": 5.04774294343,
			"-0.007": 8.58780206932,
			"-0.006": 10.4390238699,
			"-0.005": 16.6966018257,
			"-0.004": 20.8772402421,
			"-0.003": 22.7344438838,
			"-0.002": 20.9567892236,
			"-0.001": 20.0280222847,
			"0.0": 17.9525917019,
			"0.001": 16.834460443,
			"0.002": 21.0568331159,
			"0.003": 23.810032177,
			"0.004": 22.368189871,
			"0.005": 9.62941185984,
			"0.006": 5.83799038602,
			"0.007": 3.00729390511,
			"0.008": 2.31483434382,
			"0.009": 3.81160820454,
			"0.01": 3.82407609773,
			"0.011": 3.96488551595,
			"0.012": 5.62075900459,
			"0.013": 0.879943280588,
			"0.014": 0.0590075515202,
			"0.015": 0.0,
			"0.016": 0.0,
			"0.017": 0.0,
			"0.018": 0.0,
			"0.019": 0.0,
			"0.02": 0.0,
			"0.021": 0.0,
			"0.022": 0.0,
			"0.023": 0.0,
			"0.024": 0.0,
			"0.025": 0.0
		}
	}
}
