{
	 "smiles": "CCCCCCCCOC1=CC=C(C=C1)C(O)=O", 
	 "Tm": 375.15, 
	 "num_atms": 40, 
	 "gaussian": { 
		 "optdone": 1, 
		 "sigma_profile": "yes", 
		 "theory": "DFT", 
		 "functional": "B3LYP", 
		 "basiset": "6-31G**", 
		 "properties": { 
			 "R2extent": 8391.1169, 
			 "electric_dipole_moment_norm": 2.63690518032, 
			 "electric_quadrupole_moment_norm": 13.4163110884, 
			 "total_energy": -810.564557121, 
			 "HOMO_LUMO_gap": 0.19248, 
			 "cosmo_polarized_energy": -10.87, 
			 "cosmo_cavitation_energy": 42.49, 
			 "cosmo_dispersion_energy": -29.19, 
			 "cosmo_repulsion_energy": 2.35, 
			 "cosmo_total_nonelectrostatic_energy": 15.65, 
			 "SMD_solvation_energy": 7.88 
		},
		"coords": [
			{
				"x": 0.9531882436,
				"y": -4.3688475166,
				"z": 2.1447699,
				"element": "C" 
			},
			{
				"x": 1.2649913455,
				"y": -2.9266301777,
				"z": 2.5581402118,
				"element": "C" 
			},
			{
				"x": 0.1923355771,
				"y": -2.3229854048,
				"z": 3.475477335,
				"element": "C" 
			},
			{
				"x": 0.508409736,
				"y": -0.9079159952,
				"z": 3.9913823068,
				"element": "C" 
			},
			{
				"x": 0.6160777446,
				"y": 0.1926281856,
				"z": 2.9208224848,
				"element": "C" 
			},
			{
				"x": -0.6828744551,
				"y": 0.4559954006,
				"z": 2.14730885,
				"element": "C" 
			},
			{
				"x": -0.5572261092,
				"y": 1.6141952667,
				"z": 1.1489766292,
				"element": "C" 
			},
			{
				"x": -1.8398081909,
				"y": 1.8810616693,
				"z": 0.3606004197,
				"element": "C" 
			},
			{
				"x": -2.2618661952,
				"y": 0.7538129278,
				"z": -0.4198081268,
				"element": "O" 
			},
			{
				"x": -1.705450751,
				"y": 0.5123707597,
				"z": -1.6359830081,
				"element": "C" 
			},
			{
				"x": -2.1898059202,
				"y": -0.6296741047,
				"z": -2.2989952651,
				"element": "C" 
			},
			{
				"x": -1.7093921125,
				"y": -0.9678309219,
				"z": -3.5538988658,
				"element": "C" 
			},
			{
				"x": -0.731755663,
				"y": -0.1738077536,
				"z": -4.1784505839,
				"element": "C" 
			},
			{
				"x": -0.2524674706,
				"y": 0.9603605174,
				"z": -3.5130733713,
				"element": "C" 
			},
			{
				"x": -0.7263299583,
				"y": 1.309056408,
				"z": -2.2518875311,
				"element": "C" 
			},
			{
				"x": -0.1820626134,
				"y": -0.4869115537,
				"z": -5.5153538902,
				"element": "C" 
			},
			{
				"x": -0.720561786,
				"y": -1.6079990981,
				"z": -6.0658175347,
				"element": "O" 
			},
			{
				"x": 0.6650204163,
				"y": 0.1658646273,
				"z": -6.0967315074,
				"element": "O" 
			},
			{
				"x": 0.0018510409,
				"y": -4.4287247616,
				"z": 1.6036822081,
				"element": "H" 
			},
			{
				"x": 1.7319743457,
				"y": -4.776492869,
				"z": 1.4919475232,
				"element": "H" 
			},
			{
				"x": 0.8755470148,
				"y": -5.0240506351,
				"z": 3.0200841508,
				"element": "H" 
			},
			{
				"x": 1.3764902332,
				"y": -2.3109786886,
				"z": 1.6565681229,
				"element": "H" 
			},
			{
				"x": 2.2368426227,
				"y": -2.893719172,
				"z": 3.0701398372,
				"element": "H" 
			},
			{
				"x": 0.0606226588,
				"y": -2.9834259567,
				"z": 4.3435054518,
				"element": "H" 
			},
			{
				"x": -0.7736751215,
				"y": -2.3257781099,
				"z": 2.9526449563,
				"element": "H" 
			},
			{
				"x": -0.263599579,
				"y": -0.6169569197,
				"z": 4.7169725026,
				"element": "H" 
			},
			{
				"x": 1.4521379228,
				"y": -0.9417347005,
				"z": 4.5526834399,
				"element": "H" 
			},
			{
				"x": 0.9306606503,
				"y": 1.1232092866,
				"z": 3.4131487496,
				"element": "H" 
			},
			{
				"x": 1.4167383808,
				"y": -0.0530832363,
				"z": 2.210593833,
				"element": "H" 
			},
			{
				"x": -1.4917993073,
				"y": 0.6779665233,
				"z": 2.8586438578,
				"element": "H" 
			},
			{
				"x": -0.9921727579,
				"y": -0.4442100621,
				"z": 1.6046848001,
				"element": "H" 
			},
			{
				"x": -0.297972593,
				"y": 2.5405386581,
				"z": 1.6803736375,
				"element": "H" 
			},
			{
				"x": 0.2683385909,
				"y": 1.4160098289,
				"z": 0.4542864086,
				"element": "H" 
			},
			{
				"x": -1.7438697529,
				"y": 2.7671822215,
				"z": -0.2782609199,
				"element": "H" 
			},
			{
				"x": -2.6741007757,
				"y": 2.0578530847,
				"z": 1.0464828038,
				"element": "H" 
			},
			{
				"x": -2.9467399708,
				"y": -1.2287100098,
				"z": -1.8038239839,
				"element": "H" 
			},
			{
				"x": -2.0879965996,
				"y": -1.8483207473,
				"z": -4.0606048113,
				"element": "H" 
			},
			{
				"x": 0.5037449464,
				"y": 1.5653205679,
				"z": -4.0022962459,
				"element": "H" 
			},
			{
				"x": -0.3295521734,
				"y": 2.1891279199,
				"z": -1.7611845325,
				"element": "H" 
			},
			{
				"x": -0.2861916136,
				"y": -1.7059654585,
				"z": -6.9286502423,
				"element": "H" 
			}
		],
		 "valence_orbital": [ 
			{
				"type": "occ",
				"energy": -0.30879,
				"method": "rhf"
			},
			{
				"type": "occ",
				"energy": -0.30605,
				"method": "rhf"
			},
			{
				"type": "occ",
				"energy": -0.26854,
				"method": "rhf"
			},
			{
				"type": "occ",
				"energy": -0.25966,
				"method": "rhf"
			},
			{
				"type": "occ",
				"energy": -0.22774,
				"method": "rhf"
			},
			{
				"type": "unocc",
				"energy": -0.03526,
				"method": "rhf"
			},
			{
				"type": "unocc",
				"energy": -0.00807,
				"method": "rhf"
			},
			{
				"type": "unocc",
				"energy": 0.06823,
				"method": "rhf"
			},
			{
				"type": "unocc",
				"energy": 0.07931,
				"method": "rhf"
			},
			{
				"type": "unocc",
				"energy": 0.08139,
				"method": "rhf"
			}
		],
		"cosmo_sigma_profile": { 
			"-0.025": 0.0,
			"-0.024": 0.0,
			"-0.023": 0.0,
			"-0.022": 0.0,
			"-0.021": 0.0,
			"-0.02": 0.0,
			"-0.019": 0.0,
			"-0.018": 0.37017466776,
			"-0.017": 1.21163071975,
			"-0.016": 0.437287416682,
			"-0.015": 0.82893127408,
			"-0.014": 0.831315668549,
			"-0.013": 0.699176426416,
			"-0.012": 0.278938707309,
			"-0.011": 1.01233736846,
			"-0.01": 0.946645580074,
			"-0.009": 0.55705798616,
			"-0.008": 0.759555593622,
			"-0.007": 3.59729396969,
			"-0.006": 8.1073470883,
			"-0.005": 12.5563803513,
			"-0.004": 13.4035902387,
			"-0.003": 18.897290125,
			"-0.002": 38.127014164,
			"-0.001": 46.2285124832,
			"0.0": 48.5726611094,
			"0.001": 44.4057005941,
			"0.002": 27.308848544,
			"0.003": 17.6107806122,
			"0.004": 14.1687803618,
			"0.005": 4.68424508164,
			"0.006": 3.53978609896,
			"0.007": 4.28482454296,
			"0.008": 4.19521489021,
			"0.009": 2.81293768271,
			"0.01": 2.01842043302,
			"0.011": 2.8591649461,
			"0.012": 5.12791131637,
			"0.013": 1.19799524545,
			"0.014": 0.0,
			"0.015": 0.0,
			"0.016": 0.0,
			"0.017": 0.0,
			"0.018": 0.0,
			"0.019": 0.0,
			"0.02": 0.0,
			"0.021": 0.0,
			"0.022": 0.0,
			"0.023": 0.0,
			"0.024": 0.0,
			"0.025": 0.0
		}
	}
}
