{
	 "smiles": "COC1=C2OCCOC2=CC(=C1)C(O)=O", 
	 "Tm": 477.15, 
	 "num_atms": 25, 
	 "gaussian": { 
		 "optdone": 1, 
		 "sigma_profile": "yes", 
		 "theory": "DFT", 
		 "functional": "B3LYP", 
		 "basiset": "6-31G**", 
		 "properties": { 
			 "R2extent": 3932.03, 
			 "electric_dipole_moment_norm": 5.59545788475, 
			 "electric_quadrupole_moment_norm": 10.3989815857, 
			 "total_energy": -763.182568336, 
			 "HOMO_LUMO_gap": 0.18184, 
			 "cosmo_polarized_energy": -18.33, 
			 "cosmo_cavitation_energy": 28.9, 
			 "cosmo_dispersion_energy": -21.78, 
			 "cosmo_repulsion_energy": 1.71, 
			 "cosmo_total_nonelectrostatic_energy": 8.83, 
			 "SMD_solvation_energy": 7.23 
		},
		"coords": [
			{
				"x": -0.7648692118,
				"y": 1.7299631772,
				"z": -3.8700512736,
				"element": "C" 
			},
			{
				"x": 0.3103307165,
				"y": 1.7735712324,
				"z": -2.9412043721,
				"element": "O" 
			},
			{
				"x": 0.3455703576,
				"y": 0.8254704911,
				"z": -1.9695686248,
				"element": "C" 
			},
			{
				"x": 1.4306242766,
				"y": 0.9290298656,
				"z": -1.0685798789,
				"element": "C" 
			},
			{
				"x": 2.3266873511,
				"y": 1.9429219246,
				"z": -1.2593158594,
				"element": "O" 
			},
			{
				"x": 3.5373083981,
				"y": 1.7923095352,
				"z": -0.5164128646,
				"element": "C" 
			},
			{
				"x": 3.2266969407,
				"y": 1.3674502608,
				"z": 0.9090231953,
				"element": "C" 
			},
			{
				"x": 2.558126406,
				"y": 0.1048542418,
				"z": 0.9060283925,
				"element": "O" 
			},
			{
				"x": 1.5460574885,
				"y": 0.0121916205,
				"z": -0.0163233857,
				"element": "C" 
			},
			{
				"x": 0.6236423021,
				"y": -1.0267684081,
				"z": 0.1263072305,
				"element": "C" 
			},
			{
				"x": -0.4294573304,
				"y": -1.1433276349,
				"z": -0.7828160623,
				"element": "C" 
			},
			{
				"x": -0.5787367694,
				"y": -0.2038639134,
				"z": -1.8160765073,
				"element": "C" 
			},
			{
				"x": -1.4611761631,
				"y": -2.2223258626,
				"z": -0.6920556289,
				"element": "C" 
			},
			{
				"x": -1.1332450558,
				"y": -3.3219287695,
				"z": 0.0403424867,
				"element": "O" 
			},
			{
				"x": -2.5422159465,
				"y": -2.1608523687,
				"z": -1.2323363624,
				"element": "O" 
			},
			{
				"x": -0.7644028549,
				"y": 0.7944101903,
				"z": -4.4430542596,
				"element": "H" 
			},
			{
				"x": -1.7342266744,
				"y": 1.8437616609,
				"z": -3.3695245472,
				"element": "H" 
			},
			{
				"x": -0.606216242,
				"y": 2.5694697413,
				"z": -4.5480601417,
				"element": "H" 
			},
			{
				"x": 4.0383327022,
				"y": 2.7628729611,
				"z": -0.5447254074,
				"element": "H" 
			},
			{
				"x": 4.1783280114,
				"y": 1.0426603743,
				"z": -0.9994566966,
				"element": "H" 
			},
			{
				"x": 4.1400201835,
				"y": 1.2327192563,
				"z": 1.4934800781,
				"element": "H" 
			},
			{
				"x": 2.5958375052,
				"y": 2.1224844152,
				"z": 1.3970536642,
				"element": "H" 
			},
			{
				"x": 0.7366111589,
				"y": -1.678757458,
				"z": 0.9870892815,
				"element": "H" 
			},
			{
				"x": -1.4246180259,
				"y": -0.3150685222,
				"z": -2.4812046767,
				"element": "H" 
			},
			{
				"x": -0.1920095245,
				"y": -3.2996480111,
				"z": 0.2618422204,
				"element": "H" 
			}
		],
		 "valence_orbital": [ 
			{
				"type": "occ",
				"energy": -0.31112,
				"method": "rhf"
			},
			{
				"type": "occ",
				"energy": -0.30165,
				"method": "rhf"
			},
			{
				"type": "occ",
				"energy": -0.26556,
				"method": "rhf"
			},
			{
				"type": "occ",
				"energy": -0.23006,
				"method": "rhf"
			},
			{
				"type": "occ",
				"energy": -0.22009,
				"method": "rhf"
			},
			{
				"type": "unocc",
				"energy": -0.03825,
				"method": "rhf"
			},
			{
				"type": "unocc",
				"energy": 0.00169,
				"method": "rhf"
			},
			{
				"type": "unocc",
				"energy": 0.05724,
				"method": "rhf"
			},
			{
				"type": "unocc",
				"energy": 0.06712,
				"method": "rhf"
			},
			{
				"type": "unocc",
				"energy": 0.08111,
				"method": "rhf"
			}
		],
		"cosmo_sigma_profile": { 
			"-0.025": 0.0,
			"-0.024": 0.0,
			"-0.023": 0.0,
			"-0.022": 0.0,
			"-0.021": 0.0,
			"-0.02": 0.0,
			"-0.019": 0.0407543308441,
			"-0.018": 0.6761250953,
			"-0.017": 0.991359702585,
			"-0.016": 0.941911741149,
			"-0.015": 0.700833215409,
			"-0.014": 0.943936966548,
			"-0.013": 1.42384072015,
			"-0.012": 1.12792915818,
			"-0.011": 1.14319770398,
			"-0.01": 0.621107691774,
			"-0.009": 1.15989606864,
			"-0.008": 2.80722547696,
			"-0.007": 10.6846384915,
			"-0.006": 20.5154493411,
			"-0.005": 21.6683203975,
			"-0.004": 17.164667217,
			"-0.003": 15.5137090668,
			"-0.002": 10.3419129092,
			"-0.001": 8.98296948325,
			"0.0": 10.5370764838,
			"0.001": 12.8321106332,
			"0.002": 14.7216085306,
			"0.003": 13.0003557797,
			"0.004": 7.55183638248,
			"0.005": 5.06137186034,
			"0.006": 5.42697001937,
			"0.007": 6.21640613511,
			"0.008": 6.35460728371,
			"0.009": 5.23366376944,
			"0.01": 7.3133056215,
			"0.011": 6.92387906102,
			"0.012": 7.24670995748,
			"0.013": 3.51930189684,
			"0.014": 0.477227057428,
			"0.015": 0.0,
			"0.016": 0.0,
			"0.017": 0.0,
			"0.018": 0.0,
			"0.019": 0.0,
			"0.02": 0.0,
			"0.021": 0.0,
			"0.022": 0.0,
			"0.023": 0.0,
			"0.024": 0.0,
			"0.025": 0.0
		}
	}
}
