{
	 "smiles": "COC(=O)C1=C(N)N=C(SC)S1", 
	 "Tm": 377.15, 
	 "num_atms": 20, 
	 "gaussian": { 
		 "optdone": 1, 
		 "sigma_profile": "yes", 
		 "theory": "DFT", 
		 "functional": "B3LYP", 
		 "basiset": "6-31G**", 
		 "properties": { 
			 "R2extent": 3833.7604, 
			 "electric_dipole_moment_norm": 4.3894246115, 
			 "electric_quadrupole_moment_norm": 13.656888672, 
			 "total_energy": -1289.79527898, 
			 "HOMO_LUMO_gap": 0.16013, 
			 "cosmo_polarized_energy": -12.35, 
			 "cosmo_cavitation_energy": 27.77, 
			 "cosmo_dispersion_energy": -21.47, 
			 "cosmo_repulsion_energy": 1.65, 
			 "cosmo_total_nonelectrostatic_energy": 7.94, 
			 "SMD_solvation_energy": 4.9 
		},
		"coords": [
			{
				"x": -0.9116500965,
				"y": -2.5303017294,
				"z": 2.4765333278,
				"element": "C" 
			},
			{
				"x": -0.6170388272,
				"y": -1.51174267,
				"z": 1.5081875262,
				"element": "O" 
			},
			{
				"x": 0.7141170768,
				"y": -1.1930616023,
				"z": 1.3983985833,
				"element": "C" 
			},
			{
				"x": 1.5748283369,
				"y": -1.7380670128,
				"z": 2.0678637984,
				"element": "O" 
			},
			{
				"x": 0.9443296364,
				"y": -0.1641112358,
				"z": 0.4098559461,
				"element": "C" 
			},
			{
				"x": 0.0617532183,
				"y": 0.5275975335,
				"z": -0.4149851003,
				"element": "C" 
			},
			{
				"x": -1.297079535,
				"y": 0.4289171368,
				"z": -0.4201611657,
				"element": "N" 
			},
			{
				"x": 0.640657751,
				"y": 1.4261473502,
				"z": -1.2834480892,
				"element": "N" 
			},
			{
				"x": 1.9395999,
				"y": 1.4438174606,
				"z": -1.1317580545,
				"element": "C" 
			},
			{
				"x": 3.0239847618,
				"y": 2.4673626421,
				"z": -2.0647028593,
				"element": "S" 
			},
			{
				"x": 1.8107612698,
				"y": 3.3625230809,
				"z": -3.0941643762,
				"element": "C" 
			},
			{
				"x": 2.5901988525,
				"y": 0.3684540883,
				"z": 0.0854948598,
				"element": "S" 
			},
			{
				"x": -1.9944636847,
				"y": -2.6565885524,
				"z": 2.4518540817,
				"element": "H" 
			},
			{
				"x": -0.4110562255,
				"y": -3.4666997004,
				"z": 2.2178593262,
				"element": "H" 
			},
			{
				"x": -0.5852889957,
				"y": -2.2214681174,
				"z": 3.4724888273,
				"element": "H" 
			},
			{
				"x": -1.7013696655,
				"y": -0.3546856757,
				"z": 0.0697232617,
				"element": "H" 
			},
			{
				"x": -1.7689694902,
				"y": 0.7889409159,
				"z": -1.2345610146,
				"element": "H" 
			},
			{
				"x": 1.122130275,
				"y": 3.9267040586,
				"z": -2.4650648041,
				"element": "H" 
			},
			{
				"x": 1.2533197639,
				"y": 2.6643517978,
				"z": -3.7186051042,
				"element": "H" 
			},
			{
				"x": 2.3971356778,
				"y": 4.0412102315,
				"z": -3.7166089705,
				"element": "H" 
			}
		],
		 "valence_orbital": [ 
			{
				"type": "occ",
				"energy": -0.29691,
				"method": "rhf"
			},
			{
				"type": "occ",
				"energy": -0.28427,
				"method": "rhf"
			},
			{
				"type": "occ",
				"energy": -0.26418,
				"method": "rhf"
			},
			{
				"type": "occ",
				"energy": -0.25546,
				"method": "rhf"
			},
			{
				"type": "occ",
				"energy": -0.2037,
				"method": "rhf"
			},
			{
				"type": "unocc",
				"energy": -0.04357,
				"method": "rhf"
			},
			{
				"type": "unocc",
				"energy": 0.00057,
				"method": "rhf"
			},
			{
				"type": "unocc",
				"energy": 0.0243,
				"method": "rhf"
			},
			{
				"type": "unocc",
				"energy": 0.03432,
				"method": "rhf"
			},
			{
				"type": "unocc",
				"energy": 0.05539,
				"method": "rhf"
			}
		],
		"cosmo_sigma_profile": { 
			"-0.025": 0.0,
			"-0.024": 0.0,
			"-0.023": 0.0,
			"-0.022": 0.0,
			"-0.021": 0.0,
			"-0.02": 0.0,
			"-0.019": 0.0,
			"-0.018": 0.0,
			"-0.017": 0.0,
			"-0.016": 0.0,
			"-0.015": 0.0355664843005,
			"-0.014": 0.814183044982,
			"-0.013": 1.12347067333,
			"-0.012": 1.33451891939,
			"-0.011": 1.42151508077,
			"-0.01": 1.90045033128,
			"-0.009": 2.00141856384,
			"-0.008": 2.65258700799,
			"-0.007": 5.06380061464,
			"-0.006": 9.78938668859,
			"-0.005": 14.1364326933,
			"-0.004": 14.9154749978,
			"-0.003": 19.2153132097,
			"-0.002": 16.1228470492,
			"-0.001": 14.7481098491,
			"0.0": 17.0894492391,
			"0.001": 19.9011165849,
			"0.002": 19.8003255562,
			"0.003": 17.5548541286,
			"0.004": 9.61039121654,
			"0.005": 8.15772384645,
			"0.006": 6.15780089057,
			"0.007": 3.50427652158,
			"0.008": 3.37904528009,
			"0.009": 3.61599143088,
			"0.01": 2.10298746832,
			"0.011": 1.91122508802,
			"0.012": 4.30712912549,
			"0.013": 2.90176561518,
			"0.014": 0.0,
			"0.015": 0.0,
			"0.016": 0.0,
			"0.017": 0.0,
			"0.018": 0.0,
			"0.019": 0.0,
			"0.02": 0.0,
			"0.021": 0.0,
			"0.022": 0.0,
			"0.023": 0.0,
			"0.024": 0.0,
			"0.025": 0.0
		}
	}
}
