{
	 "smiles": "ClS(=O)(=O)C1=CC=C(C=C1)S(=O)(=O)N1CCCC1", 
	 "Tm": 407.15, 
	 "num_atms": 30, 
	 "gaussian": { 
		 "optdone": 1, 
		 "sigma_profile": "yes", 
		 "theory": "DFT", 
		 "functional": "B3LYP", 
		 "basiset": "6-31G**", 
		 "properties": { 
			 "R2extent": 10133.8752, 
			 "electric_dipole_moment_norm": 5.44253250427, 
			 "electric_quadrupole_moment_norm": 21.2734884058, 
			 "total_energy": -2000.36710926, 
			 "HOMO_LUMO_gap": 0.16175, 
			 "cosmo_polarized_energy": -17.53, 
			 "cosmo_cavitation_energy": 37.76, 
			 "cosmo_dispersion_energy": -27.65, 
			 "cosmo_repulsion_energy": 2.08, 
			 "cosmo_total_nonelectrostatic_energy": 12.19, 
			 "SMD_solvation_energy": 3.06 
		},
		"coords": [
			{
				"x": 2.9487483394,
				"y": 3.9647106173,
				"z": 2.5241220686,
				"element": "Cl" 
			},
			{
				"x": 1.258243152,
				"y": 3.9504636851,
				"z": 3.8266043485,
				"element": "S" 
			},
			{
				"x": 0.7425933691,
				"y": 5.3127629864,
				"z": 3.8400100478,
				"element": "O" 
			},
			{
				"x": 1.6820351639,
				"y": 3.2592570047,
				"z": 5.0368265226,
				"element": "O" 
			},
			{
				"x": 0.1349960795,
				"y": 2.9010053431,
				"z": 2.9079148377,
				"element": "C" 
			},
			{
				"x": -0.7443444889,
				"y": 3.494376039,
				"z": 2.0015634667,
				"element": "C" 
			},
			{
				"x": -1.6227713875,
				"y": 2.6745421416,
				"z": 1.2948763607,
				"element": "C" 
			},
			{
				"x": -1.5959727187,
				"y": 1.2929817294,
				"z": 1.5087218191,
				"element": "C" 
			},
			{
				"x": -0.7249240447,
				"y": 0.7141989918,
				"z": 2.4375718074,
				"element": "C" 
			},
			{
				"x": 0.1569221903,
				"y": 1.526271755,
				"z": 3.1479773039,
				"element": "C" 
			},
			{
				"x": -2.6860954245,
				"y": 0.2267407567,
				"z": 0.537301388,
				"element": "S" 
			},
			{
				"x": -2.9098484335,
				"y": -0.9788763222,
				"z": 1.3356007334,
				"element": "O" 
			},
			{
				"x": -3.7736961732,
				"y": 1.0761552663,
				"z": 0.0517545443,
				"element": "O" 
			},
			{
				"x": -1.8051761642,
				"y": -0.2296472402,
				"z": -0.7855704603,
				"element": "N" 
			},
			{
				"x": -0.7818045885,
				"y": -1.2902881102,
				"z": -0.7098615114,
				"element": "C" 
			},
			{
				"x": -0.2979896274,
				"y": -1.3582462013,
				"z": -2.1625297338,
				"element": "C" 
			},
			{
				"x": -0.3294101167,
				"y": 0.1141357648,
				"z": -2.610812247,
				"element": "C" 
			},
			{
				"x": -1.5780367271,
				"y": 0.6980259101,
				"z": -1.920135373,
				"element": "C" 
			},
			{
				"x": -0.7497194123,
				"y": 4.5702924441,
				"z": 1.8681542065,
				"element": "H" 
			},
			{
				"x": -2.3457848503,
				"y": 3.0974738365,
				"z": 0.6064790625,
				"element": "H" 
			},
			{
				"x": -0.7635181321,
				"y": -0.353892156,
				"z": 2.6199335731,
				"element": "H" 
			},
			{
				"x": 0.8351869723,
				"y": 1.1098720711,
				"z": 3.8841609603,
				"element": "H" 
			},
			{
				"x": -1.2291829485,
				"y": -2.2168747319,
				"z": -0.3476163172,
				"element": "H" 
			},
			{
				"x": 0.043155417,
				"y": -1.0108137879,
				"z": -0.0362979797,
				"element": "H" 
			},
			{
				"x": 0.6932858103,
				"y": -1.8108213754,
				"z": -2.2477081744,
				"element": "H" 
			},
			{
				"x": -0.9983920384,
				"y": -1.9550337577,
				"z": -2.7560631888,
				"element": "H" 
			},
			{
				"x": -0.3705848035,
				"y": 0.23139096,
				"z": -3.6965518468,
				"element": "H" 
			},
			{
				"x": 0.56891717,
				"y": 0.630168042,
				"z": -2.2549067312,
				"element": "H" 
			},
			{
				"x": -1.4115954486,
				"y": 1.7258390454,
				"z": -1.5789502344,
				"element": "H" 
			},
			{
				"x": -2.4584361349,
				"y": 0.6982292925,
				"z": -2.5690692531,
				"element": "H" 
			}
		],
		 "valence_orbital": [ 
			{
				"type": "occ",
				"energy": -0.32226,
				"method": "rhf"
			},
			{
				"type": "occ",
				"energy": -0.31434,
				"method": "rhf"
			},
			{
				"type": "occ",
				"energy": -0.30343,
				"method": "rhf"
			},
			{
				"type": "occ",
				"energy": -0.30242,
				"method": "rhf"
			},
			{
				"type": "occ",
				"energy": -0.26469,
				"method": "rhf"
			},
			{
				"type": "unocc",
				"energy": -0.10294,
				"method": "rhf"
			},
			{
				"type": "unocc",
				"energy": -0.0639,
				"method": "rhf"
			},
			{
				"type": "unocc",
				"energy": -0.0538,
				"method": "rhf"
			},
			{
				"type": "unocc",
				"energy": 0.03155,
				"method": "rhf"
			},
			{
				"type": "unocc",
				"energy": 0.05019,
				"method": "rhf"
			}
		],
		"cosmo_sigma_profile": { 
			"-0.025": 0.0,
			"-0.024": 0.0,
			"-0.023": 0.0,
			"-0.022": 0.0,
			"-0.021": 0.0,
			"-0.02": 0.0,
			"-0.019": 0.0,
			"-0.018": 0.0,
			"-0.017": 0.0,
			"-0.016": 0.0,
			"-0.015": 0.0,
			"-0.014": 0.0,
			"-0.013": 0.0,
			"-0.012": 0.0,
			"-0.011": 0.0,
			"-0.01": 0.39924720039,
			"-0.009": 3.69325115636,
			"-0.008": 7.66316758561,
			"-0.007": 7.1417056985,
			"-0.006": 9.39921233091,
			"-0.005": 17.3123997428,
			"-0.004": 34.9099993723,
			"-0.003": 32.0325670705,
			"-0.002": 29.0368663962,
			"-0.001": 30.9312415218,
			"0.0": 19.1173366295,
			"0.001": 10.1069592933,
			"0.002": 12.4806962193,
			"0.003": 18.5870756045,
			"0.004": 10.9676600263,
			"0.005": 6.23869140581,
			"0.006": 7.09510045501,
			"0.007": 11.3498259358,
			"0.008": 12.1350539729,
			"0.009": 5.27955401392,
			"0.01": 8.08992363727,
			"0.011": 7.51154063628,
			"0.012": 1.66484654686,
			"0.013": 0.0,
			"0.014": 0.0,
			"0.015": 0.0,
			"0.016": 0.0,
			"0.017": 0.0,
			"0.018": 0.0,
			"0.019": 0.0,
			"0.02": 0.0,
			"0.021": 0.0,
			"0.022": 0.0,
			"0.023": 0.0,
			"0.024": 0.0,
			"0.025": 0.0
		}
	}
}
