{
	 "smiles": "NC(=O)CN1C=CC(=O)C2=C1C=CC=C2", 
	 "Tm": 568.15, 
	 "num_atms": 25, 
	 "gaussian": { 
		 "optdone": 1, 
		 "sigma_profile": "yes", 
		 "theory": "DFT", 
		 "functional": "B3LYP", 
		 "basiset": "6-31G**", 
		 "properties": { 
			 "R2extent": 3330.2622, 
			 "electric_dipole_moment_norm": 2.5221660889, 
			 "electric_quadrupole_moment_norm": 28.3618016466, 
			 "total_energy": -685.167535825, 
			 "HOMO_LUMO_gap": 0.17026, 
			 "cosmo_polarized_energy": -22.85, 
			 "cosmo_cavitation_energy": 28.84, 
			 "cosmo_dispersion_energy": -20.86, 
			 "cosmo_repulsion_energy": 1.62, 
			 "cosmo_total_nonelectrostatic_energy": 9.59, 
			 "SMD_solvation_energy": 6.33 
		},
		"coords": [
			{
				"x": -2.3349789582,
				"y": -1.2625877393,
				"z": 0.5673678369,
				"element": "N" 
			},
			{
				"x": -1.2209812775,
				"y": -2.0433009493,
				"z": 0.5987619919,
				"element": "C" 
			},
			{
				"x": -1.0015381126,
				"y": -2.8915028798,
				"z": 1.4484829781,
				"element": "O" 
			},
			{
				"x": -0.242382467,
				"y": -1.8674579916,
				"z": -0.5779252695,
				"element": "C" 
			},
			{
				"x": -0.2841747568,
				"y": -0.5819571759,
				"z": -1.2665089919,
				"element": "N" 
			},
			{
				"x": -0.8309313305,
				"y": -0.5019979299,
				"z": -2.5281298872,
				"element": "C" 
			},
			{
				"x": -0.9033951852,
				"y": 0.6434449124,
				"z": -3.2507445368,
				"element": "C" 
			},
			{
				"x": -0.3792143934,
				"y": 1.8986266647,
				"z": -2.7342342046,
				"element": "C" 
			},
			{
				"x": -0.4238368126,
				"y": 2.9637400635,
				"z": -3.3542899712,
				"element": "O" 
			},
			{
				"x": 0.2226815319,
				"y": 1.7930837221,
				"z": -1.3786625704,
				"element": "C" 
			},
			{
				"x": 0.258388954,
				"y": 0.567162183,
				"z": -0.6717483728,
				"element": "C" 
			},
			{
				"x": 0.8281215836,
				"y": 0.5257491254,
				"z": 0.6177373995,
				"element": "C" 
			},
			{
				"x": 1.3593565387,
				"y": 1.6805757027,
				"z": 1.1756787488,
				"element": "C" 
			},
			{
				"x": 1.3351745674,
				"y": 2.8969776018,
				"z": 0.4776139333,
				"element": "C" 
			},
			{
				"x": 0.7677250823,
				"y": 2.9427026266,
				"z": -0.7855716051,
				"element": "C" 
			},
			{
				"x": -2.4149186569,
				"y": -0.4778611619,
				"z": -0.0598335086,
				"element": "H" 
			},
			{
				"x": -2.967831961,
				"y": -1.3224097399,
				"z": 1.3510636134,
				"element": "H" 
			},
			{
				"x": -0.4696869537,
				"y": -2.6509376832,
				"z": -1.305834414,
				"element": "H" 
			},
			{
				"x": 0.7598215589,
				"y": -2.0733734467,
				"z": -0.1956937987,
				"element": "H" 
			},
			{
				"x": -1.2118131256,
				"y": -1.4421807181,
				"z": -2.9140096885,
				"element": "H" 
			},
			{
				"x": -1.3488564275,
				"y": 0.636235992,
				"z": -4.2383696735,
				"element": "H" 
			},
			{
				"x": 0.8515944215,
				"y": -0.3953259635,
				"z": 1.1879708617,
				"element": "H" 
			},
			{
				"x": 1.7958281117,
				"y": 1.6321815148,
				"z": 2.1690366527,
				"element": "H" 
			},
			{
				"x": 1.7543454037,
				"y": 3.7920178645,
				"z": 0.9265501667,
				"element": "H" 
			},
			{
				"x": 0.7207026648,
				"y": 3.8595954056,
				"z": -1.3642076903,
				"element": "H" 
			}
		],
		 "valence_orbital": [ 
			{
				"type": "occ",
				"energy": -0.275,
				"method": "rhf"
			},
			{
				"type": "occ",
				"energy": -0.27087,
				"method": "rhf"
			},
			{
				"type": "occ",
				"energy": -0.26135,
				"method": "rhf"
			},
			{
				"type": "occ",
				"energy": -0.23253,
				"method": "rhf"
			},
			{
				"type": "occ",
				"energy": -0.21992,
				"method": "rhf"
			},
			{
				"type": "unocc",
				"energy": -0.04966,
				"method": "rhf"
			},
			{
				"type": "unocc",
				"energy": -0.02329,
				"method": "rhf"
			},
			{
				"type": "unocc",
				"energy": 0.00051,
				"method": "rhf"
			},
			{
				"type": "unocc",
				"energy": 0.01316,
				"method": "rhf"
			},
			{
				"type": "unocc",
				"energy": 0.06512,
				"method": "rhf"
			}
		],
		"cosmo_sigma_profile": { 
			"-0.025": 0.0,
			"-0.024": 0.0,
			"-0.023": 0.0,
			"-0.022": 0.0,
			"-0.021": 0.0,
			"-0.02": 0.0,
			"-0.019": 0.0,
			"-0.018": 0.0,
			"-0.017": 0.0,
			"-0.016": 0.0,
			"-0.015": 0.197141908414,
			"-0.014": 1.77841868673,
			"-0.013": 1.97849755157,
			"-0.012": 2.61394567586,
			"-0.011": 4.59873859488,
			"-0.01": 5.88313605216,
			"-0.009": 4.85284111212,
			"-0.008": 6.89421859568,
			"-0.007": 9.75274998027,
			"-0.006": 13.8319159969,
			"-0.005": 15.2106488388,
			"-0.004": 13.1949634664,
			"-0.003": 11.8897571318,
			"-0.002": 10.9963054307,
			"-0.001": 10.5377091283,
			"0.0": 12.1505351484,
			"0.001": 12.8924537126,
			"0.002": 15.1149776466,
			"0.003": 18.1264789654,
			"0.004": 13.2212344118,
			"0.005": 4.51081914402,
			"0.006": 2.76697655364,
			"0.007": 2.59114931178,
			"0.008": 1.95194893117,
			"0.009": 2.83558705787,
			"0.01": 2.2005850527,
			"0.011": 3.60113546083,
			"0.012": 4.17614239225,
			"0.013": 7.70224940403,
			"0.014": 8.62293856612,
			"0.015": 3.09253173703,
			"0.016": 0.621204172058,
			"0.017": 0.0,
			"0.018": 0.0,
			"0.019": 0.0,
			"0.02": 0.0,
			"0.021": 0.0,
			"0.022": 0.0,
			"0.023": 0.0,
			"0.024": 0.0,
			"0.025": 0.0
		}
	}
}
