{
	 "smiles": "C1=NC2=CC=C3N=CC=NC3=C2N=C1", 
	 "Tm": 523.15, 
	 "num_atms": 20, 
	 "gaussian": { 
		 "optdone": 1, 
		 "sigma_profile": "yes", 
		 "theory": "DFT", 
		 "functional": "B3LYP", 
		 "basiset": "6-31G**", 
		 "properties": { 
			 "R2extent": 3042.6201, 
			 "electric_dipole_moment_norm": 0.0903117932498, 
			 "electric_quadrupole_moment_norm": 8.03335922513, 
			 "total_energy": -603.67486511, 
			 "HOMO_LUMO_gap": 0.1726, 
			 "cosmo_polarized_energy": -11.6, 
			 "cosmo_cavitation_energy": 24.82, 
			 "cosmo_dispersion_energy": -18.98, 
			 "cosmo_repulsion_energy": 1.44, 
			 "cosmo_total_nonelectrostatic_energy": 7.28, 
			 "SMD_solvation_energy": -1.45 
		},
		"coords": [
			{
				"x": -2.0711954274,
				"y": 0.9327273591,
				"z": 3.2280806061,
				"element": "C" 
			},
			{
				"x": -1.3287036168,
				"y": 1.4574821194,
				"z": 2.268403205,
				"element": "N" 
			},
			{
				"x": -0.9137702281,
				"y": 0.6095499301,
				"z": 1.2929813807,
				"element": "C" 
			},
			{
				"x": -0.1044953645,
				"y": 1.1342988872,
				"z": 0.2287468801,
				"element": "C" 
			},
			{
				"x": 0.3367682336,
				"y": 0.3252626399,
				"z": -0.7729306779,
				"element": "C" 
			},
			{
				"x": 0.0031989687,
				"y": -1.0716511894,
				"z": -0.7885221605,
				"element": "C" 
			},
			{
				"x": 0.4677431699,
				"y": -1.8361684265,
				"z": -1.8094635205,
				"element": "N" 
			},
			{
				"x": 0.1370641297,
				"y": -3.1158796356,
				"z": -1.7844499853,
				"element": "C" 
			},
			{
				"x": -0.6568530559,
				"y": -3.669560932,
				"z": -0.755365172,
				"element": "C" 
			},
			{
				"x": -1.1207174195,
				"y": -2.9454008891,
				"z": 0.2489609743,
				"element": "N" 
			},
			{
				"x": -0.7965985616,
				"y": -1.633132143,
				"z": 0.2467661114,
				"element": "C" 
			},
			{
				"x": -1.2678377944,
				"y": -0.7691528345,
				"z": 1.316456784,
				"element": "C" 
			},
			{
				"x": -2.0285770522,
				"y": -1.280978162,
				"z": 2.3096510053,
				"element": "N" 
			},
			{
				"x": -2.4205884194,
				"y": -0.4359980066,
				"z": 3.2480411534,
				"element": "C" 
			},
			{
				"x": -2.4119804436,
				"y": 1.6000425055,
				"z": 4.0180101586,
				"element": "H" 
			},
			{
				"x": 0.133705821,
				"y": 2.1923271396,
				"z": 0.2631542056,
				"element": "H" 
			},
			{
				"x": 0.9490820974,
				"y": 0.6973827461,
				"z": -1.5877571233,
				"element": "H" 
			},
			{
				"x": 0.5020389189,
				"y": -3.7425226875,
				"z": -2.5965735158,
				"element": "H" 
			},
			{
				"x": -0.9104853891,
				"y": -4.7282829392,
				"z": -0.7658978818,
				"element": "H" 
			},
			{
				"x": -3.0339985667,
				"y": -0.8351454816,
				"z": 4.0541075727,
				"element": "H" 
			}
		],
		 "valence_orbital": [ 
			{
				"type": "occ",
				"energy": -0.30652,
				"method": "rhf"
			},
			{
				"type": "occ",
				"energy": -0.26404,
				"method": "rhf"
			},
			{
				"type": "occ",
				"energy": -0.255,
				"method": "rhf"
			},
			{
				"type": "occ",
				"energy": -0.25309,
				"method": "rhf"
			},
			{
				"type": "occ",
				"energy": -0.25022,
				"method": "rhf"
			},
			{
				"type": "unocc",
				"energy": -0.07762,
				"method": "rhf"
			},
			{
				"type": "unocc",
				"energy": -0.07602,
				"method": "rhf"
			},
			{
				"type": "unocc",
				"energy": -0.02644,
				"method": "rhf"
			},
			{
				"type": "unocc",
				"energy": -0.00286,
				"method": "rhf"
			},
			{
				"type": "unocc",
				"energy": 0.05083,
				"method": "rhf"
			}
		],
		"cosmo_sigma_profile": { 
			"-0.025": 0.0,
			"-0.024": 0.0,
			"-0.023": 0.0,
			"-0.022": 0.0,
			"-0.021": 0.0,
			"-0.02": 0.0,
			"-0.019": 0.0,
			"-0.018": 0.0,
			"-0.017": 0.0,
			"-0.016": 0.0,
			"-0.015": 0.0,
			"-0.014": 0.0,
			"-0.013": 0.0,
			"-0.012": 0.0,
			"-0.011": 0.0,
			"-0.01": 0.0,
			"-0.009": 0.15035306372,
			"-0.008": 9.75833695638,
			"-0.007": 12.7155603961,
			"-0.006": 10.957928279,
			"-0.005": 10.6741208553,
			"-0.004": 8.9154744754,
			"-0.003": 15.7500518891,
			"-0.002": 21.93588898,
			"-0.001": 20.9060738916,
			"0.0": 17.4612505025,
			"0.001": 14.5288241683,
			"0.002": 10.163127137,
			"0.003": 6.5019283415,
			"0.004": 4.11466073771,
			"0.005": 5.06755890842,
			"0.006": 4.69987539326,
			"0.007": 3.64443541958,
			"0.008": 2.81566545692,
			"0.009": 3.23561820185,
			"0.01": 3.30130318491,
			"0.011": 2.86942406963,
			"0.012": 2.64626244568,
			"0.013": 2.69339434973,
			"0.014": 1.73385425811,
			"0.015": 1.76381041321,
			"0.016": 0.890282964957,
			"0.017": 1.04074622661,
			"0.018": 0.7905759075,
			"0.019": 0.319836333146,
			"0.02": 0.0,
			"0.021": 0.0,
			"0.022": 0.0,
			"0.023": 0.0,
			"0.024": 0.0,
			"0.025": 0.0
		}
	}
}
