{
	 "smiles": "NC1=C(C=CC=C1)N1C=CC(=N1)C(O)=O", 
	 "Tm": 410.15, 
	 "num_atms": 24, 
	 "gaussian": { 
		 "optdone": 1, 
		 "sigma_profile": "yes", 
		 "theory": "DFT", 
		 "functional": "B3LYP", 
		 "basiset": "6-31G**", 
		 "properties": { 
			 "R2extent": 3700.2036, 
			 "electric_dipole_moment_norm": 7.05219589135, 
			 "electric_quadrupole_moment_norm": 22.1388588909, 
			 "total_energy": -701.184620118, 
			 "HOMO_LUMO_gap": 0.18119, 
			 "cosmo_polarized_energy": -16.86, 
			 "cosmo_cavitation_energy": 29.0, 
			 "cosmo_dispersion_energy": -21.22, 
			 "cosmo_repulsion_energy": 1.66, 
			 "cosmo_total_nonelectrostatic_energy": 9.44, 
			 "SMD_solvation_energy": 6.02 
		},
		"coords": [
			{
				"x": -1.5984854181,
				"y": 0.0698362089,
				"z": -2.1958808699,
				"element": "N" 
			},
			{
				"x": -1.6864487458,
				"y": 0.9876300091,
				"z": -1.1471361089,
				"element": "C" 
			},
			{
				"x": -0.9138701238,
				"y": 0.8533027078,
				"z": 0.0262469457,
				"element": "C" 
			},
			{
				"x": -1.0259159904,
				"y": 1.7728096312,
				"z": 1.0710677035,
				"element": "C" 
			},
			{
				"x": -1.9188948222,
				"y": 2.8363107682,
				"z": 0.9835585913,
				"element": "C" 
			},
			{
				"x": -2.710877638,
				"y": 2.966757284,
				"z": -0.1601574103,
				"element": "C" 
			},
			{
				"x": -2.5948292272,
				"y": 2.0586440868,
				"z": -1.2072434956,
				"element": "C" 
			},
			{
				"x": 0.0150980692,
				"y": -0.2257079346,
				"z": 0.1559796619,
				"element": "N" 
			},
			{
				"x": -0.2143762054,
				"y": -1.5640070848,
				"z": -0.0535665234,
				"element": "C" 
			},
			{
				"x": 0.939444516,
				"y": -2.2332146956,
				"z": 0.2888563652,
				"element": "C" 
			},
			{
				"x": 1.8214356273,
				"y": -1.2149854142,
				"z": 0.7113767098,
				"element": "C" 
			},
			{
				"x": 1.2574365413,
				"y": -0.0056207985,
				"z": 0.6315813356,
				"element": "N" 
			},
			{
				"x": 3.2209092238,
				"y": -1.3456558593,
				"z": 1.1910937577,
				"element": "C" 
			},
			{
				"x": 3.8107645778,
				"y": -0.1735948859,
				"z": 1.5168860132,
				"element": "O" 
			},
			{
				"x": 3.7956277171,
				"y": -2.4053638217,
				"z": 1.2864186217,
				"element": "O" 
			},
			{
				"x": -1.9687937902,
				"y": 0.4123031389,
				"z": -3.0724232166,
				"element": "H" 
			},
			{
				"x": -0.6892345776,
				"y": -0.3579331509,
				"z": -2.3182409166,
				"element": "H" 
			},
			{
				"x": -0.3994527869,
				"y": 1.6350206906,
				"z": 1.9453488247,
				"element": "H" 
			},
			{
				"x": -2.0016982149,
				"y": 3.5462605565,
				"z": 1.7995107926,
				"element": "H" 
			},
			{
				"x": -3.4188499762,
				"y": 3.7860178867,
				"z": -0.2433667823,
				"element": "H" 
			},
			{
				"x": -3.2042050127,
				"y": 2.1756743861,
				"z": -2.0998044045,
				"element": "H" 
			},
			{
				"x": -1.1705799281,
				"y": -1.9090376133,
				"z": -0.416564343,
				"element": "H" 
			},
			{
				"x": 1.1349542715,
				"y": -3.293294508,
				"z": 0.2524719676,
				"element": "H" 
			},
			{
				"x": 3.1691419135,
				"y": 0.5414484119,
				"z": 1.3568867803,
				"element": "H" 
			}
		],
		 "valence_orbital": [ 
			{
				"type": "occ",
				"energy": -0.29275,
				"method": "rhf"
			},
			{
				"type": "occ",
				"energy": -0.27177,
				"method": "rhf"
			},
			{
				"type": "occ",
				"energy": -0.26593,
				"method": "rhf"
			},
			{
				"type": "occ",
				"energy": -0.25347,
				"method": "rhf"
			},
			{
				"type": "occ",
				"energy": -0.2236,
				"method": "rhf"
			},
			{
				"type": "unocc",
				"energy": -0.04241,
				"method": "rhf"
			},
			{
				"type": "unocc",
				"energy": -0.01465,
				"method": "rhf"
			},
			{
				"type": "unocc",
				"energy": -0.00349,
				"method": "rhf"
			},
			{
				"type": "unocc",
				"energy": 0.01792,
				"method": "rhf"
			},
			{
				"type": "unocc",
				"energy": 0.07054,
				"method": "rhf"
			}
		],
		"cosmo_sigma_profile": { 
			"-0.025": 0.0,
			"-0.024": 0.0,
			"-0.023": 0.0,
			"-0.022": 0.0,
			"-0.021": 0.0,
			"-0.02": 0.0,
			"-0.019": 0.0,
			"-0.018": 0.0,
			"-0.017": 0.0,
			"-0.016": 0.0,
			"-0.015": 0.12887991822,
			"-0.014": 0.596410586721,
			"-0.013": 1.64865370379,
			"-0.012": 2.82044767828,
			"-0.011": 3.72047564379,
			"-0.01": 3.91710977456,
			"-0.009": 4.48557044681,
			"-0.008": 5.52798377712,
			"-0.007": 6.56591175815,
			"-0.006": 11.0763359838,
			"-0.005": 14.2502707239,
			"-0.004": 14.5698700193,
			"-0.003": 15.1342139963,
			"-0.002": 11.9918205195,
			"-0.001": 14.0923727936,
			"0.0": 13.2384304124,
			"0.001": 14.7357940057,
			"0.002": 15.1610220912,
			"0.003": 14.8567361256,
			"0.004": 13.3640445966,
			"0.005": 13.7240243105,
			"0.006": 6.02982658438,
			"0.007": 3.50917759823,
			"0.008": 3.85468324739,
			"0.009": 5.11201587699,
			"0.01": 5.39946902086,
			"0.011": 5.5255189631,
			"0.012": 5.60588786687,
			"0.013": 1.73087628493,
			"0.014": 0.0795156213178,
			"0.015": 0.0,
			"0.016": 0.0,
			"0.017": 0.0,
			"0.018": 0.0,
			"0.019": 0.0,
			"0.02": 0.0,
			"0.021": 0.0,
			"0.022": 0.0,
			"0.023": 0.0,
			"0.024": 0.0,
			"0.025": 0.0
		}
	}
}
