{
	 "smiles": "OC(=O)CNC(=O)CCC1CCCC1", 
	 "Tm": 386.15, 
	 "num_atms": 31, 
	 "gaussian": { 
		 "optdone": 1, 
		 "sigma_profile": "yes", 
		 "theory": "DFT", 
		 "functional": "B3LYP", 
		 "basiset": "6-31G**", 
		 "properties": { 
			 "R2extent": 5598.1135, 
			 "electric_dipole_moment_norm": 2.44539699231, 
			 "electric_quadrupole_moment_norm": 16.5808798226, 
			 "total_energy": -671.776517628, 
			 "HOMO_LUMO_gap": 0.23662, 
			 "cosmo_polarized_energy": -14.58, 
			 "cosmo_cavitation_energy": 33.25, 
			 "cosmo_dispersion_energy": -24.21, 
			 "cosmo_repulsion_energy": 1.97, 
			 "cosmo_total_nonelectrostatic_energy": 11.01, 
			 "SMD_solvation_energy": 5.88 
		},
		"coords": [
			{
				"x": -4.7300072601,
				"y": 3.1809972396,
				"z": -2.6022821391,
				"element": "O" 
			},
			{
				"x": -3.8462341001,
				"y": 2.1726582339,
				"z": -2.47891441,
				"element": "C" 
			},
			{
				"x": -3.804374445,
				"y": 1.2230287517,
				"z": -3.2325211236,
				"element": "O" 
			},
			{
				"x": -2.9291611807,
				"y": 2.3793674474,
				"z": -1.2944722001,
				"element": "C" 
			},
			{
				"x": -2.0064307448,
				"y": 1.274381929,
				"z": -1.2079487645,
				"element": "N" 
			},
			{
				"x": -1.0435839,
				"y": 1.2363231506,
				"z": -0.2417734144,
				"element": "C" 
			},
			{
				"x": -0.9448851138,
				"y": 2.1241918019,
				"z": 0.5995601174,
				"element": "O" 
			},
			{
				"x": -0.0983576839,
				"y": 0.0391411762,
				"z": -0.3027529251,
				"element": "C" 
			},
			{
				"x": 0.2348321783,
				"y": -0.4866757415,
				"z": 1.1016564525,
				"element": "C" 
			},
			{
				"x": 1.3784238375,
				"y": -1.5116110057,
				"z": 1.1828427953,
				"element": "C" 
			},
			{
				"x": 2.7911938878,
				"y": -0.9748381127,
				"z": 0.8319864319,
				"element": "C" 
			},
			{
				"x": 3.6141278764,
				"y": -2.2073280285,
				"z": 0.3519368169,
				"element": "C" 
			},
			{
				"x": 2.641005415,
				"y": -3.4124612594,
				"z": 0.4066297,
				"element": "C" 
			},
			{
				"x": 1.2458980289,
				"y": -2.7759091025,
				"z": 0.3105180472,
				"element": "C" 
			},
			{
				"x": -5.2792026262,
				"y": 2.9774606737,
				"z": -3.3780958538,
				"element": "H" 
			},
			{
				"x": -3.5352373634,
				"y": 2.4761499602,
				"z": -0.384227699,
				"element": "H" 
			},
			{
				"x": -2.4061582033,
				"y": 3.3380182803,
				"z": -1.4065094396,
				"element": "H" 
			},
			{
				"x": -2.0975605789,
				"y": 0.5528334494,
				"z": -1.9101030205,
				"element": "H" 
			},
			{
				"x": -0.5197689437,
				"y": -0.7499260616,
				"z": -0.9356222985,
				"element": "H" 
			},
			{
				"x": 0.8147937151,
				"y": 0.3880444238,
				"z": -0.8027404185,
				"element": "H" 
			},
			{
				"x": -0.6727299014,
				"y": -0.9315039384,
				"z": 1.5306821164,
				"element": "H" 
			},
			{
				"x": 0.4722047321,
				"y": 0.378632308,
				"z": 1.7297353057,
				"element": "H" 
			},
			{
				"x": 1.4112447005,
				"y": -1.8534497068,
				"z": 2.2277964558,
				"element": "H" 
			},
			{
				"x": 2.733049979,
				"y": -0.226275908,
				"z": 0.0337258735,
				"element": "H" 
			},
			{
				"x": 3.2485526076,
				"y": -0.4731121216,
				"z": 1.6906284213,
				"element": "H" 
			},
			{
				"x": 4.5038235465,
				"y": -2.3772387775,
				"z": 0.9660918558,
				"element": "H" 
			},
			{
				"x": 3.9685623835,
				"y": -2.0517670977,
				"z": -0.6727871627,
				"element": "H" 
			},
			{
				"x": 2.7379008996,
				"y": -3.9320253437,
				"z": 1.3680588655,
				"element": "H" 
			},
			{
				"x": 2.8359410774,
				"y": -4.1509345022,
				"z": -0.377614023,
				"element": "H" 
			},
			{
				"x": 0.4405573374,
				"y": -3.4411532822,
				"z": 0.6417871956,
				"element": "H" 
			},
			{
				"x": 1.035279843,
				"y": -2.5014188358,
				"z": -0.7319715581,
				"element": "H" 
			}
		],
		 "valence_orbital": [ 
			{
				"type": "occ",
				"energy": -0.30417,
				"method": "rhf"
			},
			{
				"type": "occ",
				"energy": -0.30147,
				"method": "rhf"
			},
			{
				"type": "occ",
				"energy": -0.30053,
				"method": "rhf"
			},
			{
				"type": "occ",
				"energy": -0.25498,
				"method": "rhf"
			},
			{
				"type": "occ",
				"energy": -0.24463,
				"method": "rhf"
			},
			{
				"type": "unocc",
				"energy": -0.00801,
				"method": "rhf"
			},
			{
				"type": "unocc",
				"energy": 0.03136,
				"method": "rhf"
			},
			{
				"type": "unocc",
				"energy": 0.06308,
				"method": "rhf"
			},
			{
				"type": "unocc",
				"energy": 0.08184,
				"method": "rhf"
			},
			{
				"type": "unocc",
				"energy": 0.08837,
				"method": "rhf"
			}
		],
		"cosmo_sigma_profile": { 
			"-0.025": 0.0,
			"-0.024": 0.0,
			"-0.023": 0.0,
			"-0.022": 0.0,
			"-0.021": 0.0,
			"-0.02": 0.0,
			"-0.019": 0.432009931419,
			"-0.018": 1.08264169261,
			"-0.017": 0.747817176412,
			"-0.016": 0.65752694338,
			"-0.015": 1.52477945146,
			"-0.014": 0.431633855335,
			"-0.013": 0.348138799239,
			"-0.012": 1.12061632369,
			"-0.011": 2.36203832943,
			"-0.01": 1.26262330542,
			"-0.009": 1.67299582313,
			"-0.008": 2.83278489214,
			"-0.007": 6.6750897486,
			"-0.006": 5.82433131911,
			"-0.005": 8.82834244646,
			"-0.004": 9.0669972674,
			"-0.003": 15.7939603349,
			"-0.002": 31.5195172657,
			"-0.001": 36.5120004526,
			"0.0": 38.9010123593,
			"0.001": 25.087398647,
			"0.002": 16.1312995198,
			"0.003": 4.21067365248,
			"0.004": 3.64198345883,
			"0.005": 3.46957285621,
			"0.006": 5.07693661395,
			"0.007": 3.75693293496,
			"0.008": 4.37947179465,
			"0.009": 4.11525116823,
			"0.01": 4.87248731589,
			"0.011": 4.24372487517,
			"0.012": 2.23206114927,
			"0.013": 2.87340357139,
			"0.014": 5.07403604089,
			"0.015": 1.33111662852,
			"0.016": 0.0,
			"0.017": 0.0,
			"0.018": 0.0,
			"0.019": 0.0,
			"0.02": 0.0,
			"0.021": 0.0,
			"0.022": 0.0,
			"0.023": 0.0,
			"0.024": 0.0,
			"0.025": 0.0
		}
	}
}
