{
	 "smiles": "OC(=O)C1=C(F)C=CC(O)=C1", 
	 "Tm": 478.15, 
	 "num_atms": 16, 
	 "gaussian": { 
		 "optdone": 1, 
		 "sigma_profile": "yes", 
		 "theory": "DFT", 
		 "functional": "B3LYP", 
		 "basiset": "6-31G**", 
		 "properties": { 
			 "R2extent": 2195.0408, 
			 "electric_dipole_moment_norm": 0.813187506053, 
			 "electric_quadrupole_moment_norm": 3.62947605447, 
			 "total_energy": -595.271492817, 
			 "HOMO_LUMO_gap": 0.17612, 
			 "cosmo_polarized_energy": -12.88, 
			 "cosmo_cavitation_energy": 21.56, 
			 "cosmo_dispersion_energy": -16.05, 
			 "cosmo_repulsion_energy": 1.27, 
			 "cosmo_total_nonelectrostatic_energy": 6.78, 
			 "SMD_solvation_energy": 5.85 
		},
		"coords": [
			{
				"x": -3.0868497198,
				"y": -1.1790980233,
				"z": 0.1453333613,
				"element": "O" 
			},
			{
				"x": -2.5934532057,
				"y": -0.6650872817,
				"z": -1.0005492552,
				"element": "C" 
			},
			{
				"x": -3.161168335,
				"y": -0.8031358944,
				"z": -2.0682407555,
				"element": "O" 
			},
			{
				"x": -1.3107299075,
				"y": 0.0754314908,
				"z": -0.8432554164,
				"element": "C" 
			},
			{
				"x": -0.6187570642,
				"y": 0.261783167,
				"z": 0.3592444068,
				"element": "C" 
			},
			{
				"x": -1.08283538,
				"y": -0.2379700918,
				"z": 1.5175446481,
				"element": "F" 
			},
			{
				"x": 0.5784725177,
				"y": 0.9738178998,
				"z": 0.3967751544,
				"element": "C" 
			},
			{
				"x": 1.1051929324,
				"y": 1.5127703346,
				"z": -0.7702510584,
				"element": "C" 
			},
			{
				"x": 0.4300248211,
				"y": 1.3392828471,
				"z": -1.9872848333,
				"element": "C" 
			},
			{
				"x": 0.9951456361,
				"y": 1.8912926099,
				"z": -3.1010836272,
				"element": "O" 
			},
			{
				"x": -0.7645051231,
				"y": 0.6270161985,
				"z": -2.0151077633,
				"element": "C" 
			},
			{
				"x": -3.9118815162,
				"y": -1.6264582567,
				"z": -0.1078604731,
				"element": "H" 
			},
			{
				"x": 1.0817632519,
				"y": 1.0943772193,
				"z": 1.3497977305,
				"element": "H" 
			},
			{
				"x": 2.0360125011,
				"y": 2.0697009058,
				"z": -0.758894684,
				"element": "H" 
			},
			{
				"x": 0.4386436222,
				"y": 1.7022413298,
				"z": -3.867756407,
				"element": "H" 
			},
			{
				"x": -1.3128750309,
				"y": 0.4740355452,
				"z": -2.9402110274,
				"element": "H" 
			}
		],
		 "valence_orbital": [ 
			{
				"type": "occ",
				"energy": -0.33978,
				"method": "rhf"
			},
			{
				"type": "occ",
				"energy": -0.31942,
				"method": "rhf"
			},
			{
				"type": "occ",
				"energy": -0.28315,
				"method": "rhf"
			},
			{
				"type": "occ",
				"energy": -0.27267,
				"method": "rhf"
			},
			{
				"type": "occ",
				"energy": -0.23095,
				"method": "rhf"
			},
			{
				"type": "unocc",
				"energy": -0.05483,
				"method": "rhf"
			},
			{
				"type": "unocc",
				"energy": -0.00115,
				"method": "rhf"
			},
			{
				"type": "unocc",
				"energy": 0.05519,
				"method": "rhf"
			},
			{
				"type": "unocc",
				"energy": 0.0628,
				"method": "rhf"
			},
			{
				"type": "unocc",
				"energy": 0.07792,
				"method": "rhf"
			}
		],
		"cosmo_sigma_profile": { 
			"-0.025": 0.0,
			"-0.024": 0.0,
			"-0.023": 0.0,
			"-0.022": 0.0,
			"-0.021": 0.0,
			"-0.02": 0.0,
			"-0.019": 0.126336810125,
			"-0.018": 1.59557427343,
			"-0.017": 2.27406867878,
			"-0.016": 1.72995482107,
			"-0.015": 2.06380216541,
			"-0.014": 2.01236253426,
			"-0.013": 1.70613888436,
			"-0.012": 1.26223732658,
			"-0.011": 1.5584126044,
			"-0.01": 1.76316786994,
			"-0.009": 1.42887441747,
			"-0.008": 2.80339832343,
			"-0.007": 6.52054313517,
			"-0.006": 5.75875038039,
			"-0.005": 6.14237876878,
			"-0.004": 4.57433846833,
			"-0.003": 6.42791216039,
			"-0.002": 7.43246827427,
			"-0.001": 10.0460198167,
			"0.0": 12.5156002073,
			"0.001": 16.5210897957,
			"0.002": 18.5781585492,
			"0.003": 10.8041189822,
			"0.004": 9.43627640443,
			"0.005": 5.68840523593,
			"0.006": 4.79569937487,
			"0.007": 4.62783774297,
			"0.008": 4.59731046397,
			"0.009": 4.88749426793,
			"0.01": 4.34821153228,
			"0.011": 5.68181049531,
			"0.012": 2.9725940856,
			"0.013": 0.0164627209261,
			"0.014": 0.0,
			"0.015": 0.0,
			"0.016": 0.0,
			"0.017": 0.0,
			"0.018": 0.0,
			"0.019": 0.0,
			"0.02": 0.0,
			"0.021": 0.0,
			"0.022": 0.0,
			"0.023": 0.0,
			"0.024": 0.0,
			"0.025": 0.0
		}
	}
}
