{
	 "smiles": "ClC1=CC=C(C=C1)C1=CC2=C(S1)C(=O)NC=N2", 
	 "Tm": 601.15, 
	 "num_atms": 24, 
	 "gaussian": { 
		 "optdone": 1, 
		 "sigma_profile": "yes", 
		 "theory": "DFT", 
		 "functional": "B3LYP", 
		 "basiset": "6-31G**", 
		 "properties": { 
			 "R2extent": 7659.0225, 
			 "electric_dipole_moment_norm": 2.79234170903, 
			 "electric_quadrupole_moment_norm": 19.2403799825, 
			 "total_energy": -1504.62150749, 
			 "HOMO_LUMO_gap": 0.15868, 
			 "cosmo_polarized_energy": -15.8, 
			 "cosmo_cavitation_energy": 32.66, 
			 "cosmo_dispersion_energy": -24.86, 
			 "cosmo_repulsion_energy": 1.84, 
			 "cosmo_total_nonelectrostatic_energy": 9.65, 
			 "SMD_solvation_energy": 4.07 
		},
		"coords": [
			{
				"x": -0.8900804566,
				"y": 0.6132527572,
				"z": -6.0083422699,
				"element": "Cl" 
			},
			{
				"x": -0.7539181521,
				"y": 0.1532449734,
				"z": -4.3203627438,
				"element": "C" 
			},
			{
				"x": -1.0084769463,
				"y": -1.164963255,
				"z": -3.9431546884,
				"element": "C" 
			},
			{
				"x": -0.9017920703,
				"y": -1.522122322,
				"z": -2.6017400287,
				"element": "C" 
			},
			{
				"x": -0.5369244721,
				"y": -0.580072405,
				"z": -1.6240665733,
				"element": "C" 
			},
			{
				"x": -0.2779249668,
				"y": 0.7395783264,
				"z": -2.0370053674,
				"element": "C" 
			},
			{
				"x": -0.3891801448,
				"y": 1.1109793709,
				"z": -3.3734159783,
				"element": "C" 
			},
			{
				"x": -0.4287186785,
				"y": -0.9454409111,
				"z": -0.205712977,
				"element": "C" 
			},
			{
				"x": -0.6002051048,
				"y": -0.129988625,
				"z": 0.88811327,
				"element": "C" 
			},
			{
				"x": -0.418430408,
				"y": -0.8133987536,
				"z": 2.1267515649,
				"element": "C" 
			},
			{
				"x": -0.1073905155,
				"y": -2.1616981309,
				"z": 1.9423650695,
				"element": "C" 
			},
			{
				"x": -0.0249907822,
				"y": -2.5929812259,
				"z": 0.2670771045,
				"element": "S" 
			},
			{
				"x": 0.1170091259,
				"y": -3.0575449046,
				"z": 3.0492072585,
				"element": "C" 
			},
			{
				"x": 0.3949479034,
				"y": -4.2481242013,
				"z": 3.0307367438,
				"element": "O" 
			},
			{
				"x": -0.0303746631,
				"y": -2.3540819893,
				"z": 4.2709135537,
				"element": "N" 
			},
			{
				"x": -0.3418557949,
				"y": -1.0248164847,
				"z": 4.3755336182,
				"element": "C" 
			},
			{
				"x": -0.5417419779,
				"y": -0.2291103485,
				"z": 3.3722797578,
				"element": "N" 
			},
			{
				"x": -1.2951963436,
				"y": -1.898725095,
				"z": -4.6880722316,
				"element": "H" 
			},
			{
				"x": -1.1260621006,
				"y": -2.5439514456,
				"z": -2.3106854128,
				"element": "H" 
			},
			{
				"x": 0.0349920045,
				"y": 1.4790117967,
				"z": -1.3070598704,
				"element": "H" 
			},
			{
				"x": -0.1837068146,
				"y": 2.1299762973,
				"z": -3.6818182009,
				"element": "H" 
			},
			{
				"x": -0.8782217658,
				"y": 0.9150499169,
				"z": 0.8322223504,
				"element": "H" 
			},
			{
				"x": 0.1116483393,
				"y": -2.9113952673,
				"z": 5.1050762496,
				"element": "H" 
			},
			{
				"x": -0.4194052149,
				"y": -0.6405780738,
				"z": 5.3902598018,
				"element": "H" 
			}
		],
		 "valence_orbital": [ 
			{
				"type": "occ",
				"energy": -0.27749,
				"method": "rhf"
			},
			{
				"type": "occ",
				"energy": -0.27497,
				"method": "rhf"
			},
			{
				"type": "occ",
				"energy": -0.27041,
				"method": "rhf"
			},
			{
				"type": "occ",
				"energy": -0.24528,
				"method": "rhf"
			},
			{
				"type": "occ",
				"energy": -0.22784,
				"method": "rhf"
			},
			{
				"type": "unocc",
				"energy": -0.06916,
				"method": "rhf"
			},
			{
				"type": "unocc",
				"energy": -0.03118,
				"method": "rhf"
			},
			{
				"type": "unocc",
				"energy": -0.0257,
				"method": "rhf"
			},
			{
				"type": "unocc",
				"energy": -0.00308,
				"method": "rhf"
			},
			{
				"type": "unocc",
				"energy": 0.01691,
				"method": "rhf"
			}
		],
		"cosmo_sigma_profile": { 
			"-0.025": 0.0,
			"-0.024": 0.0,
			"-0.023": 0.0,
			"-0.022": 0.0,
			"-0.021": 0.0,
			"-0.02": 0.0,
			"-0.019": 0.0,
			"-0.018": 0.0,
			"-0.017": 1.04774590528,
			"-0.016": 1.84001935931,
			"-0.015": 0.975308897707,
			"-0.014": 1.59947827114,
			"-0.013": 0.778065833355,
			"-0.012": 1.70844501875,
			"-0.011": 1.45501926314,
			"-0.01": 2.78973012293,
			"-0.009": 2.92517508425,
			"-0.008": 5.52630283686,
			"-0.007": 11.4092828712,
			"-0.006": 10.4603877166,
			"-0.005": 10.8555140501,
			"-0.004": 10.5014286173,
			"-0.003": 12.5268086854,
			"-0.002": 17.0709468987,
			"-0.001": 15.7933165083,
			"0.0": 21.6269720542,
			"0.001": 34.1698211051,
			"0.002": 31.8202825696,
			"0.003": 23.050595496,
			"0.004": 13.7574373326,
			"0.005": 6.34810744902,
			"0.006": 3.53278330116,
			"0.007": 2.19646353761,
			"0.008": 1.75356601666,
			"0.009": 2.5338274116,
			"0.01": 2.26829435476,
			"0.011": 2.75271275378,
			"0.012": 4.64725673916,
			"0.013": 6.63070502707,
			"0.014": 1.30116641356,
			"0.015": 0.647114456944,
			"0.016": 0.0379875758787,
			"0.017": 0.0,
			"0.018": 0.0,
			"0.019": 0.0,
			"0.02": 0.0,
			"0.021": 0.0,
			"0.022": 0.0,
			"0.023": 0.0,
			"0.024": 0.0,
			"0.025": 0.0
		}
	}
}
