{
	 "smiles": "C1=CC2=C(C=C1)C1=C3C(C=CC4=C3C(C=C1)=CC1=C4C=CC=C1)=C2", 
	 "Tm": 590.15, 
	 "num_atms": 38, 
	 "gaussian": { 
		 "optdone": 1, 
		 "sigma_profile": "yes", 
		 "theory": "DFT", 
		 "functional": "B3LYP", 
		 "basiset": "6-31G**", 
		 "properties": { 
			 "R2extent": 9373.8941, 
			 "electric_dipole_moment_norm": 0.0, 
			 "electric_quadrupole_moment_norm": 19.7173514263, 
			 "total_energy": -923.054628351, 
			 "HOMO_LUMO_gap": 0.10589, 
			 "cosmo_polarized_energy": -8.77, 
			 "cosmo_cavitation_energy": 39.81, 
			 "cosmo_dispersion_energy": -30.07, 
			 "cosmo_repulsion_energy": 2.11, 
			 "cosmo_total_nonelectrostatic_energy": 11.84, 
			 "SMD_solvation_energy": 5.09 
		},
		"coords": [
			{
				"x": 4.9788147619,
				"y": -2.4257039301,
				"z": -1.9403643509,
				"element": "C" 
			},
			{
				"x": 3.8191293781,
				"y": -3.0414806341,
				"z": -1.5399926103,
				"element": "C" 
			},
			{
				"x": 2.6054915602,
				"y": -2.3074287751,
				"z": -1.3998062487,
				"element": "C" 
			},
			{
				"x": 2.5955258014,
				"y": -0.897741869,
				"z": -1.6825541884,
				"element": "C" 
			},
			{
				"x": 3.8197861238,
				"y": -0.2995990611,
				"z": -2.0947338062,
				"element": "C" 
			},
			{
				"x": 4.9754888213,
				"y": -1.0367839313,
				"z": -2.2204994046,
				"element": "C" 
			},
			{
				"x": 1.3679371685,
				"y": -0.1625981924,
				"z": -1.5392725235,
				"element": "C" 
			},
			{
				"x": 0.1878905287,
				"y": -0.8343516021,
				"z": -1.1227227973,
				"element": "C" 
			},
			{
				"x": 0.2259785509,
				"y": -2.246296181,
				"z": -0.8462023452,
				"element": "C" 
			},
			{
				"x": -0.9832075395,
				"y": -2.8940850787,
				"z": -0.4275691062,
				"element": "C" 
			},
			{
				"x": -2.148256638,
				"y": -2.2058624864,
				"z": -0.2896486452,
				"element": "C" 
			},
			{
				"x": -2.2310261766,
				"y": -0.7951334121,
				"z": -0.5553216549,
				"element": "C" 
			},
			{
				"x": -1.0509798452,
				"y": -0.1233803598,
				"z": -0.9718708049,
				"element": "C" 
			},
			{
				"x": -1.0890676565,
				"y": 1.2885644081,
				"z": -1.248390857,
				"element": "C" 
			},
			{
				"x": 0.120118789,
				"y": 1.9363539182,
				"z": -1.6670232598,
				"element": "C" 
			},
			{
				"x": 1.2851674958,
				"y": 1.2481311899,
				"z": -1.8049441921,
				"element": "C" 
			},
			{
				"x": -2.2812193087,
				"y": 1.9862872061,
				"z": -1.1059525411,
				"element": "C" 
			},
			{
				"x": -3.4685807833,
				"y": 1.3496970327,
				"z": -0.6947880616,
				"element": "C" 
			},
			{
				"x": -3.4586159279,
				"y": -0.0599897948,
				"z": -0.4120409466,
				"element": "C" 
			},
			{
				"x": -4.6828762424,
				"y": -0.6581323185,
				"z": 0.0001366882,
				"element": "C" 
			},
			{
				"x": -5.8385794069,
				"y": 0.0790523851,
				"z": 0.1259015011,
				"element": "C" 
			},
			{
				"x": -5.8419046477,
				"y": 1.4679725894,
				"z": -0.1542324701,
				"element": "C" 
			},
			{
				"x": -4.6822181386,
				"y": 2.0837488972,
				"z": -0.5546023342,
				"element": "C" 
			},
			{
				"x": 1.4181309389,
				"y": -2.9440183072,
				"z": -0.988640864,
				"element": "C" 
			},
			{
				"x": 5.8969160333,
				"y": -2.9967058646,
				"z": -2.0432336531,
				"element": "H" 
			},
			{
				"x": 3.8053697815,
				"y": -4.1062090396,
				"z": -1.3213600068,
				"element": "H" 
			},
			{
				"x": 3.8547197308,
				"y": 0.7604984233,
				"z": -2.317497481,
				"element": "H" 
			},
			{
				"x": 5.8931840047,
				"y": -0.5497824189,
				"z": -2.5372710481,
				"element": "H" 
			},
			{
				"x": -0.9496680833,
				"y": -3.9604191891,
				"z": -0.2198794439,
				"element": "H" 
			},
			{
				"x": -3.0342802197,
				"y": -2.7416162225,
				"z": 0.0294786841,
				"element": "H" 
			},
			{
				"x": 0.0865784464,
				"y": 3.0026881234,
				"z": -1.8747110722,
				"element": "H" 
			},
			{
				"x": 2.1711917838,
				"y": 1.7838845937,
				"z": -2.1240703585,
				"element": "H" 
			},
			{
				"x": -2.3020839103,
				"y": 3.0530377828,
				"z": -1.3167386632,
				"element": "H" 
			},
			{
				"x": -4.7178107795,
				"y": -1.7182302894,
				"z": 0.2228993102,
				"element": "H" 
			},
			{
				"x": -6.7562744273,
				"y": -0.4079505018,
				"z": 0.4426715533,
				"element": "H" 
			},
			{
				"x": -6.7600062849,
				"y": 2.0389742975,
				"z": -0.051363935,
				"element": "H" 
			},
			{
				"x": -4.6684590161,
				"y": 3.1484774617,
				"z": -0.7732339313,
				"element": "H" 
			},
			{
				"x": 1.4389953336,
				"y": -4.0107688495,
				"z": -0.7778541314,
				"element": "H" 
			}
		],
		 "valence_orbital": [ 
			{
				"type": "occ",
				"energy": -0.2656,
				"method": "rhf"
			},
			{
				"type": "occ",
				"energy": -0.2527,
				"method": "rhf"
			},
			{
				"type": "occ",
				"energy": -0.23019,
				"method": "rhf"
			},
			{
				"type": "occ",
				"energy": -0.2233,
				"method": "rhf"
			},
			{
				"type": "occ",
				"energy": -0.17977,
				"method": "rhf"
			},
			{
				"type": "unocc",
				"energy": -0.07388,
				"method": "rhf"
			},
			{
				"type": "unocc",
				"energy": -0.03153,
				"method": "rhf"
			},
			{
				"type": "unocc",
				"energy": -0.02478,
				"method": "rhf"
			},
			{
				"type": "unocc",
				"energy": -0.00301,
				"method": "rhf"
			},
			{
				"type": "unocc",
				"energy": 0.01483,
				"method": "rhf"
			}
		],
		"cosmo_sigma_profile": { 
			"-0.025": 0.0,
			"-0.024": 0.0,
			"-0.023": 0.0,
			"-0.022": 0.0,
			"-0.021": 0.0,
			"-0.02": 0.0,
			"-0.019": 0.0,
			"-0.018": 0.0,
			"-0.017": 0.0,
			"-0.016": 0.0,
			"-0.015": 0.0,
			"-0.014": 0.0,
			"-0.013": 0.0,
			"-0.012": 0.0,
			"-0.011": 0.0,
			"-0.01": 0.0,
			"-0.009": 0.43055013117,
			"-0.008": 2.74668004731,
			"-0.007": 4.09841301389,
			"-0.006": 24.2511403462,
			"-0.005": 25.7443785143,
			"-0.004": 26.2422893925,
			"-0.003": 21.1957116229,
			"-0.002": 16.4593610043,
			"-0.001": 17.0424416081,
			"0.0": 13.3488898477,
			"0.001": 16.6765247183,
			"0.002": 26.9945466593,
			"0.003": 58.8105997766,
			"0.004": 45.2700690828,
			"0.005": 21.023627202,
			"0.006": 1.66602530368,
			"0.007": 0.0,
			"0.008": 0.0,
			"0.009": 0.0,
			"0.01": 0.0,
			"0.011": 0.0,
			"0.012": 0.0,
			"0.013": 0.0,
			"0.014": 0.0,
			"0.015": 0.0,
			"0.016": 0.0,
			"0.017": 0.0,
			"0.018": 0.0,
			"0.019": 0.0,
			"0.02": 0.0,
			"0.021": 0.0,
			"0.022": 0.0,
			"0.023": 0.0,
			"0.024": 0.0,
			"0.025": 0.0
		}
	}
}
