{
	 "smiles": "OC1=C(C=C(Cl)C=C1Cl)[N+]([O-])=O", 
	 "Tm": 395.15, 
	 "num_atms": 15, 
	 "gaussian": { 
		 "optdone": 1, 
		 "sigma_profile": "yes", 
		 "theory": "DFT", 
		 "functional": "B3LYP", 
		 "basiset": "6-31G**", 
		 "properties": { 
			 "R2extent": 3184.0875, 
			 "electric_dipole_moment_norm": 1.60544422824, 
			 "electric_quadrupole_moment_norm": 6.32321125932, 
			 "total_energy": -1431.15006729, 
			 "HOMO_LUMO_gap": 0.13773, 
			 "cosmo_polarized_energy": -7.58, 
			 "cosmo_cavitation_energy": 23.93, 
			 "cosmo_dispersion_energy": -18.36, 
			 "cosmo_repulsion_energy": 1.46, 
			 "cosmo_total_nonelectrostatic_energy": 7.03, 
			 "SMD_solvation_energy": 6.05 
		},
		"coords": [
			{
				"x": 2.7129145377,
				"y": 0.7392424867,
				"z": 0.7315141115,
				"element": "O" 
			},
			{
				"x": 1.605882059,
				"y": 0.0629732476,
				"z": 0.4463838928,
				"element": "C" 
			},
			{
				"x": 1.577966316,
				"y": -1.2914016815,
				"z": 0.0323420066,
				"element": "C" 
			},
			{
				"x": 0.3839413252,
				"y": -1.9656612511,
				"z": -0.2582735374,
				"element": "C" 
			},
			{
				"x": -0.8109836826,
				"y": -1.2839502155,
				"z": -0.1364465013,
				"element": "C" 
			},
			{
				"x": -2.3221136907,
				"y": -2.0922050376,
				"z": -0.4904647544,
				"element": "Cl" 
			},
			{
				"x": -0.8324528433,
				"y": 0.0588736873,
				"z": 0.27044491,
				"element": "C" 
			},
			{
				"x": 0.3542548028,
				"y": 0.7149846121,
				"z": 0.5550057449,
				"element": "C" 
			},
			{
				"x": 0.3252252965,
				"y": 2.3808471273,
				"z": 1.0596116356,
				"element": "Cl" 
			},
			{
				"x": 2.8165827477,
				"y": -2.0359932514,
				"z": -0.1055480355,
				"element": "N" 
			},
			{
				"x": 3.8910696623,
				"y": -1.4460370814,
				"z": 0.1511330776,
				"element": "O" 
			},
			{
				"x": 2.7706626736,
				"y": -3.2042734104,
				"z": -0.4645498822,
				"element": "O" 
			},
			{
				"x": 3.463541269,
				"y": 0.1093212525,
				"z": 0.5939013932,
				"element": "H" 
			},
			{
				"x": 0.4264397106,
				"y": -3.0005189957,
				"z": -0.5700592526,
				"element": "H" 
			},
			{
				"x": -1.7736301837,
				"y": 0.587398511,
				"z": 0.3638051912,
				"element": "H" 
			}
		],
		 "valence_orbital": [ 
			{
				"type": "occ",
				"energy": -0.33548,
				"method": "rhf"
			},
			{
				"type": "occ",
				"energy": -0.33392,
				"method": "rhf"
			},
			{
				"type": "occ",
				"energy": -0.32195,
				"method": "rhf"
			},
			{
				"type": "occ",
				"energy": -0.2928,
				"method": "rhf"
			},
			{
				"type": "occ",
				"energy": -0.25587,
				"method": "rhf"
			},
			{
				"type": "unocc",
				"energy": -0.11814,
				"method": "rhf"
			},
			{
				"type": "unocc",
				"energy": -0.04029,
				"method": "rhf"
			},
			{
				"type": "unocc",
				"energy": -0.02556,
				"method": "rhf"
			},
			{
				"type": "unocc",
				"energy": -0.01312,
				"method": "rhf"
			},
			{
				"type": "unocc",
				"energy": 0.03175,
				"method": "rhf"
			}
		],
		"cosmo_sigma_profile": { 
			"-0.025": 0.0,
			"-0.024": 0.0,
			"-0.023": 0.0,
			"-0.022": 0.0,
			"-0.021": 0.0,
			"-0.02": 0.0,
			"-0.019": 0.0,
			"-0.018": 0.0,
			"-0.017": 0.0,
			"-0.016": 0.0,
			"-0.015": 0.0,
			"-0.014": 0.0,
			"-0.013": 0.0,
			"-0.012": 0.0,
			"-0.011": 0.496648553466,
			"-0.01": 1.33108091796,
			"-0.009": 4.53124424862,
			"-0.008": 6.08981470409,
			"-0.007": 6.71455096565,
			"-0.006": 6.98655322805,
			"-0.005": 6.24809505628,
			"-0.004": 8.46481436105,
			"-0.003": 16.0170567903,
			"-0.002": 17.4502208248,
			"-0.001": 20.4981288926,
			"0.0": 13.8736648603,
			"0.001": 12.4311241843,
			"0.002": 11.9637712173,
			"0.003": 20.3296649543,
			"0.004": 13.934035873,
			"0.005": 6.28711802851,
			"0.006": 7.0308935498,
			"0.007": 7.03411166061,
			"0.008": 6.11954448889,
			"0.009": 3.90896371699,
			"0.01": 0.205387833115,
			"0.011": 0.0,
			"0.012": 0.0,
			"0.013": 0.0,
			"0.014": 0.0,
			"0.015": 0.0,
			"0.016": 0.0,
			"0.017": 0.0,
			"0.018": 0.0,
			"0.019": 0.0,
			"0.02": 0.0,
			"0.021": 0.0,
			"0.022": 0.0,
			"0.023": 0.0,
			"0.024": 0.0,
			"0.025": 0.0
		}
	}
}
