{
	 "smiles": "OC(=O)C1=CC2=NON=C2C=C1", 
	 "Tm": 431.15, 
	 "num_atms": 16, 
	 "gaussian": { 
		 "optdone": 1, 
		 "sigma_profile": "yes", 
		 "theory": "DFT", 
		 "functional": "B3LYP", 
		 "basiset": "6-31G**", 
		 "properties": { 
			 "R2extent": 3015.2332, 
			 "electric_dipole_moment_norm": 1.32460080779, 
			 "electric_quadrupole_moment_norm": 17.7565904289, 
			 "total_energy": -604.234240162, 
			 "HOMO_LUMO_gap": 0.15871, 
			 "cosmo_polarized_energy": -15.95, 
			 "cosmo_cavitation_energy": 21.8, 
			 "cosmo_dispersion_energy": -16.42, 
			 "cosmo_repulsion_energy": 1.28, 
			 "cosmo_total_nonelectrostatic_energy": 6.66, 
			 "SMD_solvation_energy": 4.19 
		},
		"coords": [
			{
				"x": -2.1130173931,
				"y": -2.1644253906,
				"z": -1.4643210258,
				"element": "O" 
			},
			{
				"x": -1.8446916487,
				"y": -1.1269458788,
				"z": -0.6338226432,
				"element": "C" 
			},
			{
				"x": -2.4161376821,
				"y": -1.0261804014,
				"z": 0.4251917914,
				"element": "O" 
			},
			{
				"x": -0.8254369902,
				"y": -0.123567095,
				"z": -1.1001423009,
				"element": "C" 
			},
			{
				"x": -0.5435976195,
				"y": 0.0677621067,
				"z": -2.4315227597,
				"element": "C" 
			},
			{
				"x": 0.4107516345,
				"y": 1.0742250371,
				"z": -2.752986521,
				"element": "C" 
			},
			{
				"x": 0.8717322981,
				"y": 1.4650097786,
				"z": -3.9298620297,
				"element": "N" 
			},
			{
				"x": 1.7649373153,
				"y": 2.4533686268,
				"z": -3.6353149848,
				"element": "O" 
			},
			{
				"x": 1.8805578981,
				"y": 2.7016639655,
				"z": -2.2939484478,
				"element": "N" 
			},
			{
				"x": 1.0425911703,
				"y": 1.8514164861,
				"z": -1.725630498,
				"element": "C" 
			},
			{
				"x": 0.7181653947,
				"y": 1.6450839991,
				"z": -0.3511705147,
				"element": "C" 
			},
			{
				"x": -0.2056660669,
				"y": 0.680045592,
				"z": -0.0699942842,
				"element": "C" 
			},
			{
				"x": -1.4594909173,
				"y": -2.2094026093,
				"z": -2.1760381284,
				"element": "H" 
			},
			{
				"x": -1.0359764058,
				"y": -0.4791413101,
				"z": -3.2291193718,
				"element": "H" 
			},
			{
				"x": 1.1864657967,
				"y": 2.2410586991,
				"z": 0.4235060036,
				"element": "H" 
			},
			{
				"x": -0.5139867842,
				"y": 0.483128394,
				"z": 0.9504757151,
				"element": "H" 
			}
		],
		 "valence_orbital": [ 
			{
				"type": "occ",
				"energy": -0.33823,
				"method": "rhf"
			},
			{
				"type": "occ",
				"energy": -0.33702,
				"method": "rhf"
			},
			{
				"type": "occ",
				"energy": -0.31252,
				"method": "rhf"
			},
			{
				"type": "occ",
				"energy": -0.29343,
				"method": "rhf"
			},
			{
				"type": "occ",
				"energy": -0.27309,
				"method": "rhf"
			},
			{
				"type": "unocc",
				"energy": -0.11438,
				"method": "rhf"
			},
			{
				"type": "unocc",
				"energy": -0.04814,
				"method": "rhf"
			},
			{
				"type": "unocc",
				"energy": -0.01588,
				"method": "rhf"
			},
			{
				"type": "unocc",
				"energy": 0.03544,
				"method": "rhf"
			},
			{
				"type": "unocc",
				"energy": 0.04632,
				"method": "rhf"
			}
		],
		"cosmo_sigma_profile": { 
			"-0.025": 0.0,
			"-0.024": 0.0,
			"-0.023": 0.0,
			"-0.022": 0.0,
			"-0.021": 0.0,
			"-0.02": 0.397058316907,
			"-0.019": 0.970451525042,
			"-0.018": 1.33193368434,
			"-0.017": 1.02377532903,
			"-0.016": 0.642625908995,
			"-0.015": 0.613106572105,
			"-0.014": 1.27292024166,
			"-0.013": 1.62459113483,
			"-0.012": 1.65832059388,
			"-0.011": 1.74019392809,
			"-0.01": 1.52704995684,
			"-0.009": 3.18088745414,
			"-0.008": 5.2102788749,
			"-0.007": 5.53535001896,
			"-0.006": 6.09606724231,
			"-0.005": 7.39043263365,
			"-0.004": 10.4751927107,
			"-0.003": 12.0549613005,
			"-0.002": 14.6683470089,
			"-0.001": 10.7499832937,
			"0.0": 9.53179055126,
			"0.001": 8.91891616598,
			"0.002": 4.85164640783,
			"0.003": 6.57496439652,
			"0.004": 9.77569479332,
			"0.005": 8.94767655909,
			"0.006": 5.76906720942,
			"0.007": 5.20676245658,
			"0.008": 5.67807330514,
			"0.009": 6.8889565029,
			"0.01": 7.49719843721,
			"0.011": 6.63837931121,
			"0.012": 2.12815130285,
			"0.013": 0.202920685259,
			"0.014": 0.0,
			"0.015": 0.0,
			"0.016": 0.0,
			"0.017": 0.0,
			"0.018": 0.0,
			"0.019": 0.0,
			"0.02": 0.0,
			"0.021": 0.0,
			"0.022": 0.0,
			"0.023": 0.0,
			"0.024": 0.0,
			"0.025": 0.0
		}
	}
}
