{
	 "smiles": "OC1=CC=CC(CN2CCCCC2)=C1", 
	 "Tm": 413.15, 
	 "num_atms": 31, 
	 "gaussian": { 
		 "optdone": 1, 
		 "sigma_profile": "yes", 
		 "theory": "DFT", 
		 "functional": "B3LYP", 
		 "basiset": "6-31G**", 
		 "properties": { 
			 "R2extent": 3454.235, 
			 "electric_dipole_moment_norm": 1.88411041343, 
			 "electric_quadrupole_moment_norm": 8.03390582033, 
			 "total_energy": -597.49116921, 
			 "HOMO_LUMO_gap": 0.18438, 
			 "cosmo_polarized_energy": -8.71, 
			 "cosmo_cavitation_energy": 31.07, 
			 "cosmo_dispersion_energy": -22.35, 
			 "cosmo_repulsion_energy": 1.76, 
			 "cosmo_total_nonelectrostatic_energy": 10.48, 
			 "SMD_solvation_energy": 2.74 
		},
		"coords": [
			{
				"x": -2.1256738814,
				"y": -2.8547135025,
				"z": 1.540348418,
				"element": "O" 
			},
			{
				"x": -1.4955067725,
				"y": -2.4842655879,
				"z": 0.3847591371,
				"element": "C" 
			},
			{
				"x": -2.191010638,
				"y": -2.1847074067,
				"z": -0.7912002091,
				"element": "C" 
			},
			{
				"x": -1.4763447294,
				"y": -1.8304621324,
				"z": -1.9363601151,
				"element": "C" 
			},
			{
				"x": -0.0837519155,
				"y": -1.7660028087,
				"z": -1.912719775,
				"element": "C" 
			},
			{
				"x": 0.619567826,
				"y": -2.0488838311,
				"z": -0.7315416125,
				"element": "C" 
			},
			{
				"x": 2.1468024028,
				"y": -1.9691746236,
				"z": -0.6904259454,
				"element": "C" 
			},
			{
				"x": 2.7919172368,
				"y": -0.7062371843,
				"z": -0.3447012057,
				"element": "N" 
			},
			{
				"x": 2.7623286954,
				"y": 0.3804694114,
				"z": -1.3195756108,
				"element": "C" 
			},
			{
				"x": 1.6059217084,
				"y": 1.3828127455,
				"z": -1.1343884459,
				"element": "C" 
			},
			{
				"x": 1.583463045,
				"y": 1.9081832743,
				"z": 0.3096079678,
				"element": "C" 
			},
			{
				"x": 1.543065007,
				"y": 0.7418204001,
				"z": 1.3093400247,
				"element": "C" 
			},
			{
				"x": 2.7021407546,
				"y": -0.2368588833,
				"z": 1.0353801867,
				"element": "C" 
			},
			{
				"x": -0.0980281007,
				"y": -2.420192733,
				"z": 0.4089473197,
				"element": "C" 
			},
			{
				"x": -3.0794051326,
				"y": -2.8707466386,
				"z": 1.3882381028,
				"element": "H" 
			},
			{
				"x": -3.2775705238,
				"y": -2.2386915892,
				"z": -0.8130679543,
				"element": "H" 
			},
			{
				"x": -2.0153224466,
				"y": -1.6120303111,
				"z": -2.8541499832,
				"element": "H" 
			},
			{
				"x": 0.4617507234,
				"y": -1.5039694934,
				"z": -2.8153174011,
				"element": "H" 
			},
			{
				"x": 2.5086974399,
				"y": -2.7198278399,
				"z": 0.02375854,
				"element": "H" 
			},
			{
				"x": 2.5304759196,
				"y": -2.264654574,
				"z": -1.6752639916,
				"element": "H" 
			},
			{
				"x": 2.7456360819,
				"y": -0.0528922819,
				"z": -2.3259563029,
				"element": "H" 
			},
			{
				"x": 3.7111541432,
				"y": 0.9358012137,
				"z": -1.2318914097,
				"element": "H" 
			},
			{
				"x": 1.7237481442,
				"y": 2.2119366738,
				"z": -1.8441826814,
				"element": "H" 
			},
			{
				"x": 0.6522613234,
				"y": 0.8933327055,
				"z": -1.3627626408,
				"element": "H" 
			},
			{
				"x": 0.7298510375,
				"y": 2.5786828691,
				"z": 0.4635333647,
				"element": "H" 
			},
			{
				"x": 2.488636225,
				"y": 2.5074466217,
				"z": 0.4898670311,
				"element": "H" 
			},
			{
				"x": 1.615328782,
				"y": 1.1145758902,
				"z": 2.3392478419,
				"element": "H" 
			},
			{
				"x": 0.5860924968,
				"y": 0.2148778504,
				"z": 1.2222973007,
				"element": "H" 
			},
			{
				"x": 3.6471435632,
				"y": 0.2778584908,
				"z": 1.276899098,
				"element": "H" 
			},
			{
				"x": 2.6419804781,
				"y": -1.1075527915,
				"z": 1.6978506418,
				"element": "H" 
			},
			{
				"x": 0.4141511062,
				"y": -2.6733339332,
				"z": 1.3329303093,
				"element": "H" 
			}
		],
		 "valence_orbital": [ 
			{
				"type": "occ",
				"energy": -0.30766,
				"method": "rhf"
			},
			{
				"type": "occ",
				"energy": -0.30571,
				"method": "rhf"
			},
			{
				"type": "occ",
				"energy": -0.24557,
				"method": "rhf"
			},
			{
				"type": "occ",
				"energy": -0.21982,
				"method": "rhf"
			},
			{
				"type": "occ",
				"energy": -0.18744,
				"method": "rhf"
			},
			{
				"type": "unocc",
				"energy": -0.00306,
				"method": "rhf"
			},
			{
				"type": "unocc",
				"energy": 0.01213,
				"method": "rhf"
			},
			{
				"type": "unocc",
				"energy": 0.07053,
				"method": "rhf"
			},
			{
				"type": "unocc",
				"energy": 0.08302,
				"method": "rhf"
			},
			{
				"type": "unocc",
				"energy": 0.10388,
				"method": "rhf"
			}
		],
		"cosmo_sigma_profile": { 
			"-0.025": 0.0,
			"-0.024": 0.0,
			"-0.023": 0.0,
			"-0.022": 0.0,
			"-0.021": 0.0,
			"-0.02": 0.0,
			"-0.019": 0.0,
			"-0.018": 0.136935142682,
			"-0.017": 1.06714815451,
			"-0.016": 0.915900842809,
			"-0.015": 0.724271343673,
			"-0.014": 1.36497503168,
			"-0.013": 1.13082456483,
			"-0.012": 0.933439484472,
			"-0.011": 1.04442225827,
			"-0.01": 0.863514027851,
			"-0.009": 1.29249091504,
			"-0.008": 0.919596870587,
			"-0.007": 1.02685003758,
			"-0.006": 2.79515409348,
			"-0.005": 7.03557846716,
			"-0.004": 16.0863624719,
			"-0.003": 17.2274533045,
			"-0.002": 23.4984590558,
			"-0.001": 31.5901036696,
			"0.0": 32.7384401886,
			"0.001": 28.8778424964,
			"0.002": 15.9624651007,
			"0.003": 11.4604288838,
			"0.004": 10.0368595422,
			"0.005": 9.2107489941,
			"0.006": 8.88353098549,
			"0.007": 3.02337392754,
			"0.008": 2.2524810886,
			"0.009": 1.97141351335,
			"0.01": 2.4029885195,
			"0.011": 2.4875353639,
			"0.012": 1.76358972431,
			"0.013": 0.327453571805,
			"0.014": 0.76550709008,
			"0.015": 0.0967617683305,
			"0.016": 0.0,
			"0.017": 0.0,
			"0.018": 0.0,
			"0.019": 0.0,
			"0.02": 0.0,
			"0.021": 0.0,
			"0.022": 0.0,
			"0.023": 0.0,
			"0.024": 0.0,
			"0.025": 0.0
		}
	}
}
