{
	 "smiles": "NCC1=CC(F)=C(C=C1)N1CCC(O)CC1", 
	 "Tm": 378.15, 
	 "num_atms": 33, 
	 "gaussian": { 
		 "optdone": 1, 
		 "sigma_profile": "yes", 
		 "theory": "DFT", 
		 "functional": "B3LYP", 
		 "basiset": "6-31G**", 
		 "properties": { 
			 "R2extent": 5587.2128, 
			 "electric_dipole_moment_norm": 1.29838637547, 
			 "electric_quadrupole_moment_norm": 17.8214264322, 
			 "total_energy": -752.06440041, 
			 "HOMO_LUMO_gap": 0.19281, 
			 "cosmo_polarized_energy": -12.54, 
			 "cosmo_cavitation_energy": 34.48, 
			 "cosmo_dispersion_energy": -24.89, 
			 "cosmo_repulsion_energy": 1.93, 
			 "cosmo_total_nonelectrostatic_energy": 11.52, 
			 "SMD_solvation_energy": 3.46 
		},
		"coords": [
			{
				"x": 0.8540755777,
				"y": 5.1780234797,
				"z": 3.3590543809,
				"element": "N" 
			},
			{
				"x": 1.7809996199,
				"y": 4.7089858198,
				"z": 2.3136181034,
				"element": "C" 
			},
			{
				"x": 1.321683316,
				"y": 3.5037574975,
				"z": 1.5136674562,
				"element": "C" 
			},
			{
				"x": 0.4922127318,
				"y": 3.6556658971,
				"z": 0.3921983391,
				"element": "C" 
			},
			{
				"x": 0.01942437,
				"y": 2.5495135771,
				"z": -0.2884886358,
				"element": "C" 
			},
			{
				"x": -0.8199924744,
				"y": 2.7639075857,
				"z": -1.3380260919,
				"element": "F" 
			},
			{
				"x": 0.3588266624,
				"y": 1.2230641535,
				"z": 0.0572064513,
				"element": "C" 
			},
			{
				"x": 1.1891599649,
				"y": 1.0900748341,
				"z": 1.1870733521,
				"element": "C" 
			},
			{
				"x": 1.6513518431,
				"y": 2.2008507496,
				"z": 1.8952965339,
				"element": "C" 
			},
			{
				"x": -0.1658482706,
				"y": 0.1289342792,
				"z": -0.6369715206,
				"element": "N" 
			},
			{
				"x": -0.1667051217,
				"y": 0.095508577,
				"z": -2.1059424027,
				"element": "C" 
			},
			{
				"x": -1.4641043209,
				"y": -0.5680292497,
				"z": -2.6077832182,
				"element": "C" 
			},
			{
				"x": -1.9663884147,
				"y": -1.636535961,
				"z": -1.6105954756,
				"element": "C" 
			},
			{
				"x": -2.6708605062,
				"y": -2.6932646129,
				"z": -2.2567947582,
				"element": "O" 
			},
			{
				"x": -0.7764463537,
				"y": -2.2557949153,
				"z": -0.8837842087,
				"element": "C" 
			},
			{
				"x": -0.0384711232,
				"y": -1.1992438091,
				"z": -0.0357826748,
				"element": "C" 
			},
			{
				"x": -0.0411071306,
				"y": 5.4080298883,
				"z": 2.9308896573,
				"element": "H" 
			},
			{
				"x": 0.6574084978,
				"y": 4.407392625,
				"z": 3.9955183263,
				"element": "H" 
			},
			{
				"x": 2.736514633,
				"y": 4.4805950801,
				"z": 2.7995813622,
				"element": "H" 
			},
			{
				"x": 1.9676297781,
				"y": 5.5523896719,
				"z": 1.638674503,
				"element": "H" 
			},
			{
				"x": 0.1855771506,
				"y": 4.6383146777,
				"z": 0.0439049308,
				"element": "H" 
			},
			{
				"x": 1.4906147881,
				"y": 0.1010458,
				"z": 1.5106553485,
				"element": "H" 
			},
			{
				"x": 2.2970831718,
				"y": 2.0422566505,
				"z": 2.7561362704,
				"element": "H" 
			},
			{
				"x": -0.0740439444,
				"y": 1.1060109815,
				"z": -2.4942978006,
				"element": "H" 
			},
			{
				"x": 0.7114991716,
				"y": -0.4675475154,
				"z": -2.4629388683,
				"element": "H" 
			},
			{
				"x": -1.2776346615,
				"y": -1.0615280415,
				"z": -3.5687074332,
				"element": "H" 
			},
			{
				"x": -2.2378152718,
				"y": 0.1924241346,
				"z": -2.7650538066,
				"element": "H" 
			},
			{
				"x": -2.6152297386,
				"y": -1.1525805801,
				"z": -0.8640255491,
				"element": "H" 
			},
			{
				"x": -3.428964268,
				"y": -2.3069867507,
				"z": -2.7142506433,
				"element": "H" 
			},
			{
				"x": -0.1066030939,
				"y": -2.6955602587,
				"z": -1.6319781087,
				"element": "H" 
			},
			{
				"x": -1.1144164095,
				"y": -3.0761239375,
				"z": -0.2440231195,
				"element": "H" 
			},
			{
				"x": 1.0169347263,
				"y": -1.5038186681,
				"z": 0.0781718375,
				"element": "H" 
			},
			{
				"x": -0.4690648993,
				"y": -1.1541316599,
				"z": 0.9715974626,
				"element": "H" 
			}
		],
		 "valence_orbital": [ 
			{
				"type": "occ",
				"energy": -0.27828,
				"method": "rhf"
			},
			{
				"type": "occ",
				"energy": -0.26403,
				"method": "rhf"
			},
			{
				"type": "occ",
				"energy": -0.24466,
				"method": "rhf"
			},
			{
				"type": "occ",
				"energy": -0.23528,
				"method": "rhf"
			},
			{
				"type": "occ",
				"energy": -0.19249,
				"method": "rhf"
			},
			{
				"type": "unocc",
				"energy": 0.00032,
				"method": "rhf"
			},
			{
				"type": "unocc",
				"energy": 0.00595,
				"method": "rhf"
			},
			{
				"type": "unocc",
				"energy": 0.07385,
				"method": "rhf"
			},
			{
				"type": "unocc",
				"energy": 0.08265,
				"method": "rhf"
			},
			{
				"type": "unocc",
				"energy": 0.08797,
				"method": "rhf"
			}
		],
		"cosmo_sigma_profile": { 
			"-0.025": 0.0,
			"-0.024": 0.0,
			"-0.023": 0.0,
			"-0.022": 0.0,
			"-0.021": 0.0,
			"-0.02": 0.0,
			"-0.019": 0.0,
			"-0.018": 0.0,
			"-0.017": 0.0,
			"-0.016": 0.0,
			"-0.015": 1.20357880119,
			"-0.014": 0.608428298536,
			"-0.013": 0.690559652008,
			"-0.012": 0.967916300831,
			"-0.011": 0.908414584801,
			"-0.01": 1.05102665876,
			"-0.009": 2.92796444717,
			"-0.008": 3.40302436298,
			"-0.007": 3.99799754708,
			"-0.006": 7.22782477321,
			"-0.005": 11.0575651581,
			"-0.004": 21.759429004,
			"-0.003": 35.9115650737,
			"-0.002": 33.1908030864,
			"-0.001": 24.5062562766,
			"0.0": 18.5511564215,
			"0.001": 12.6742786472,
			"0.002": 11.8073891179,
			"0.003": 14.5888043061,
			"0.004": 15.3231399193,
			"0.005": 15.8572290925,
			"0.006": 7.53182501333,
			"0.007": 4.21773895033,
			"0.008": 1.88878868401,
			"0.009": 1.54218228447,
			"0.01": 1.37565576267,
			"0.011": 2.47115492352,
			"0.012": 2.12989298698,
			"0.013": 2.35727759356,
			"0.014": 3.13369943966,
			"0.015": 0.970456671984,
			"0.016": 0.609963901712,
			"0.017": 0.377748040572,
			"0.018": 0.962269561932,
			"0.019": 0.582168126219,
			"0.02": 0.4095229022,
			"0.021": 0.0,
			"0.022": 0.0,
			"0.023": 0.0,
			"0.024": 0.0,
			"0.025": 0.0
		}
	}
}
