{
	 "smiles": "OC1=CC=COC1=O", 
	 "Tm": 366.95, 
	 "num_atms": 12, 
	 "gaussian": { 
		 "optdone": 1, 
		 "sigma_profile": "yes", 
		 "theory": "DFT", 
		 "functional": "B3LYP", 
		 "basiset": "6-31G**", 
		 "properties": { 
			 "R2extent": 1082.3351, 
			 "electric_dipole_moment_norm": 3.26847023698, 
			 "electric_quadrupole_moment_norm": 6.20919095535, 
			 "total_energy": -418.591802848, 
			 "HOMO_LUMO_gap": 0.16996, 
			 "cosmo_polarized_energy": -9.23, 
			 "cosmo_cavitation_energy": 16.57, 
			 "cosmo_dispersion_energy": -12.81, 
			 "cosmo_repulsion_energy": 1.06, 
			 "cosmo_total_nonelectrostatic_energy": 4.82, 
			 "SMD_solvation_energy": 5.15 
		},
		"coords": [
			{
				"x": -0.4818890629,
				"y": 0.8883938691,
				"z": 2.7306582147,
				"element": "O" 
			},
			{
				"x": -0.0552969221,
				"y": 0.2425630941,
				"z": 1.6278557716,
				"element": "C" 
			},
			{
				"x": -0.8508903134,
				"y": -0.5215885602,
				"z": 0.8302569492,
				"element": "C" 
			},
			{
				"x": -0.2685915788,
				"y": -1.155734294,
				"z": -0.3160064682,
				"element": "C" 
			},
			{
				"x": 1.044301902,
				"y": -0.9837108161,
				"z": -0.5778392619,
				"element": "C" 
			},
			{
				"x": 1.848458551,
				"y": -0.2198255159,
				"z": 0.2163027782,
				"element": "O" 
			},
			{
				"x": 1.3657843008,
				"y": 0.41827503,
				"z": 1.3278751644,
				"element": "C" 
			},
			{
				"x": 2.1032743764,
				"y": 1.0948059346,
				"z": 2.0252944188,
				"element": "O" 
			},
			{
				"x": 0.3058137183,
				"y": 1.3446946902,
				"z": 3.0844835986,
				"element": "H" 
			},
			{
				"x": -1.9029434858,
				"y": -0.6427237088,
				"z": 1.0648155692,
				"element": "H" 
			},
			{
				"x": -0.8677223368,
				"y": -1.7717902496,
				"z": -0.9755925002,
				"element": "H" 
			},
			{
				"x": 1.5915008512,
				"y": -1.4097594733,
				"z": -1.4083042344,
				"element": "H" 
			}
		],
		 "valence_orbital": [ 
			{
				"type": "occ",
				"energy": -0.36534,
				"method": "rhf"
			},
			{
				"type": "occ",
				"energy": -0.35924,
				"method": "rhf"
			},
			{
				"type": "occ",
				"energy": -0.30985,
				"method": "rhf"
			},
			{
				"type": "occ",
				"energy": -0.29248,
				"method": "rhf"
			},
			{
				"type": "occ",
				"energy": -0.22426,
				"method": "rhf"
			},
			{
				"type": "unocc",
				"energy": -0.0543,
				"method": "rhf"
			},
			{
				"type": "unocc",
				"energy": 0.00175,
				"method": "rhf"
			},
			{
				"type": "unocc",
				"energy": 0.08474,
				"method": "rhf"
			},
			{
				"type": "unocc",
				"energy": 0.09838,
				"method": "rhf"
			},
			{
				"type": "unocc",
				"energy": 0.12755,
				"method": "rhf"
			}
		],
		"cosmo_sigma_profile": { 
			"-0.025": 0.0,
			"-0.024": 0.0,
			"-0.023": 0.0,
			"-0.022": 0.0,
			"-0.021": 0.0,
			"-0.02": 0.0,
			"-0.019": 0.0,
			"-0.018": 0.0,
			"-0.017": 0.0,
			"-0.016": 0.0,
			"-0.015": 0.0698262127803,
			"-0.014": 0.550076390808,
			"-0.013": 0.527284170418,
			"-0.012": 0.67102301613,
			"-0.011": 0.701982192863,
			"-0.01": 1.2815111505,
			"-0.009": 3.4371320669,
			"-0.008": 5.88994588242,
			"-0.007": 8.23494459456,
			"-0.006": 5.17857679734,
			"-0.005": 7.2977796138,
			"-0.004": 8.33647991176,
			"-0.003": 9.32609830848,
			"-0.002": 6.87956135478,
			"-0.001": 7.21629704873,
			"0.0": 9.77762188624,
			"0.001": 10.3371260536,
			"0.002": 9.221615183,
			"0.003": 3.7741868724,
			"0.004": 3.40804778156,
			"0.005": 3.23643757882,
			"0.006": 4.15765503976,
			"0.007": 3.10793166005,
			"0.008": 3.90522631727,
			"0.009": 3.32626221757,
			"0.01": 4.77670203663,
			"0.011": 4.30387987788,
			"0.012": 3.17275659235,
			"0.013": 1.26479843744,
			"0.014": 0.00405845311601,
			"0.015": 0.0,
			"0.016": 0.0,
			"0.017": 0.0,
			"0.018": 0.0,
			"0.019": 0.0,
			"0.02": 0.0,
			"0.021": 0.0,
			"0.022": 0.0,
			"0.023": 0.0,
			"0.024": 0.0,
			"0.025": 0.0
		}
	}
}
