{
	 "smiles": "COC1=C(Cl)C=C(C=C1Cl)[N+]([O-])=O", 
	 "Tm": 371.65, 
	 "num_atms": 18, 
	 "gaussian": { 
		 "optdone": 1, 
		 "sigma_profile": "yes", 
		 "theory": "DFT", 
		 "functional": "B3LYP", 
		 "basiset": "6-31G**", 
		 "properties": { 
			 "R2extent": 3838.726, 
			 "electric_dipole_moment_norm": 3.73569006343, 
			 "electric_quadrupole_moment_norm": 10.9526263312, 
			 "total_energy": -1470.4402074, 
			 "HOMO_LUMO_gap": 0.17391, 
			 "cosmo_polarized_energy": -8.28, 
			 "cosmo_cavitation_energy": 26.96, 
			 "cosmo_dispersion_energy": -19.71, 
			 "cosmo_repulsion_energy": 1.56, 
			 "cosmo_total_nonelectrostatic_energy": 8.81, 
			 "SMD_solvation_energy": 7.28 
		},
		"coords": [
			{
				"x": 2.1685178112,
				"y": 0.1074193965,
				"z": -1.3778990792,
				"element": "C" 
			},
			{
				"x": 2.0557632582,
				"y": 0.2431626835,
				"z": 0.0507123985,
				"element": "O" 
			},
			{
				"x": 0.8153476105,
				"y": 0.5035512645,
				"z": 0.5278842509,
				"element": "C" 
			},
			{
				"x": -0.0485532207,
				"y": -0.5411839687,
				"z": 0.9126971232,
				"element": "C" 
			},
			{
				"x": 0.472584465,
				"y": -2.1930846851,
				"z": 0.7000387563,
				"element": "Cl" 
			},
			{
				"x": -1.2970651617,
				"y": -0.2866207072,
				"z": 1.4691360932,
				"element": "C" 
			},
			{
				"x": -1.6823838464,
				"y": 1.0397632648,
				"z": 1.6361149436,
				"element": "C" 
			},
			{
				"x": -0.8686962457,
				"y": 2.1090984115,
				"z": 1.2754358954,
				"element": "C" 
			},
			{
				"x": 0.375121434,
				"y": 1.8282119405,
				"z": 0.7211448815,
				"element": "C" 
			},
			{
				"x": 1.4271128971,
				"y": 3.1450637708,
				"z": 0.2686094586,
				"element": "Cl" 
			},
			{
				"x": -3.0034931286,
				"y": 1.3233715747,
				"z": 2.2223452798,
				"element": "N" 
			},
			{
				"x": -3.7033734324,
				"y": 0.3618242233,
				"z": 2.5338154569,
				"element": "O" 
			},
			{
				"x": -3.3205848327,
				"y": 2.5031062188,
				"z": 2.3605356665,
				"element": "O" 
			},
			{
				"x": 1.5588331323,
				"y": -0.7269853274,
				"z": -1.7390737921,
				"element": "H" 
			},
			{
				"x": 1.8744190742,
				"y": 1.033876901,
				"z": -1.8814631595,
				"element": "H" 
			},
			{
				"x": 3.2213353398,
				"y": -0.0970695343,
				"z": -1.5732376382,
				"element": "H" 
			},
			{
				"x": -1.9593534433,
				"y": -1.0879459883,
				"z": 1.7682886936,
				"element": "H" 
			},
			{
				"x": -1.2059317108,
				"y": 3.1256405613,
				"z": 1.427614771,
				"element": "H" 
			}
		],
		 "valence_orbital": [ 
			{
				"type": "occ",
				"energy": -0.31919,
				"method": "rhf"
			},
			{
				"type": "occ",
				"energy": -0.31007,
				"method": "rhf"
			},
			{
				"type": "occ",
				"energy": -0.30231,
				"method": "rhf"
			},
			{
				"type": "occ",
				"energy": -0.27812,
				"method": "rhf"
			},
			{
				"type": "occ",
				"energy": -0.27665,
				"method": "rhf"
			},
			{
				"type": "unocc",
				"energy": -0.10274,
				"method": "rhf"
			},
			{
				"type": "unocc",
				"energy": -0.04998,
				"method": "rhf"
			},
			{
				"type": "unocc",
				"energy": -0.01729,
				"method": "rhf"
			},
			{
				"type": "unocc",
				"energy": -0.01305,
				"method": "rhf"
			},
			{
				"type": "unocc",
				"energy": 0.03299,
				"method": "rhf"
			}
		],
		"cosmo_sigma_profile": { 
			"-0.025": 0.0,
			"-0.024": 0.0,
			"-0.023": 0.0,
			"-0.022": 0.0,
			"-0.021": 0.0,
			"-0.02": 0.0,
			"-0.019": 0.0,
			"-0.018": 0.0,
			"-0.017": 0.0,
			"-0.016": 0.0,
			"-0.015": 0.0,
			"-0.014": 0.0,
			"-0.013": 0.0,
			"-0.012": 0.0,
			"-0.011": 0.0,
			"-0.01": 0.0,
			"-0.009": 1.27795908574,
			"-0.008": 2.22465683325,
			"-0.007": 5.68412633485,
			"-0.006": 8.43150027581,
			"-0.005": 15.0531598394,
			"-0.004": 17.8303980655,
			"-0.003": 20.7484820663,
			"-0.002": 24.4645332373,
			"-0.001": 20.8697691699,
			"0.0": 11.9883897459,
			"0.001": 12.7550318906,
			"0.002": 15.2212863337,
			"0.003": 17.215552188,
			"0.004": 9.84394127182,
			"0.005": 6.17624430742,
			"0.006": 7.50302553934,
			"0.007": 10.5096575487,
			"0.008": 6.70448136971,
			"0.009": 5.32236869361,
			"0.01": 1.28017418097,
			"0.011": 0.0,
			"0.012": 0.0,
			"0.013": 0.0,
			"0.014": 0.0,
			"0.015": 0.0,
			"0.016": 0.0,
			"0.017": 0.0,
			"0.018": 0.0,
			"0.019": 0.0,
			"0.02": 0.0,
			"0.021": 0.0,
			"0.022": 0.0,
			"0.023": 0.0,
			"0.024": 0.0,
			"0.025": 0.0
		}
	}
}
