{
	 "smiles": "CCOC(=O)CCC1=NN=C(O1)C1=CC=C(Cl)C=C1", 
	 "Tm": 374.15, 
	 "num_atms": 32, 
	 "gaussian": { 
		 "optdone": 1, 
		 "sigma_profile": "yes", 
		 "theory": "DFT", 
		 "functional": "B3LYP", 
		 "basiset": "6-31G**", 
		 "properties": { 
			 "R2extent": 10903.1321, 
			 "electric_dipole_moment_norm": 4.05839659348, 
			 "electric_quadrupole_moment_norm": 16.2732447686, 
			 "total_energy": -1298.58626044, 
			 "HOMO_LUMO_gap": 0.18203, 
			 "cosmo_polarized_energy": -14.94, 
			 "cosmo_cavitation_energy": 39.82, 
			 "cosmo_dispersion_energy": -28.7, 
			 "cosmo_repulsion_energy": 2.25, 
			 "cosmo_total_nonelectrostatic_energy": 13.37, 
			 "SMD_solvation_energy": 5.69 
		},
		"coords": [
			{
				"x": -2.3204074151,
				"y": -5.560350463,
				"z": -2.5860045406,
				"element": "C" 
			},
			{
				"x": -3.205880893,
				"y": -5.0537290629,
				"z": -1.4580509146,
				"element": "C" 
			},
			{
				"x": -2.5547012127,
				"y": -3.9934689987,
				"z": -0.7122377377,
				"element": "O" 
			},
			{
				"x": -2.6850364739,
				"y": -2.7431359364,
				"z": -1.1992932157,
				"element": "C" 
			},
			{
				"x": -3.3130683057,
				"y": -2.4557023259,
				"z": -2.1966076589,
				"element": "O" 
			},
			{
				"x": -1.9304523141,
				"y": -1.7510099204,
				"z": -0.3333332542,
				"element": "C" 
			},
			{
				"x": -2.2354359933,
				"y": -0.2992134247,
				"z": -0.7342749494,
				"element": "C" 
			},
			{
				"x": -1.4251257125,
				"y": 0.6896783481,
				"z": 0.0256742762,
				"element": "C" 
			},
			{
				"x": -1.8210231395,
				"y": 1.595915072,
				"z": 0.8635022045,
				"element": "N" 
			},
			{
				"x": -0.6775069053,
				"y": 2.2604379335,
				"z": 1.303281165,
				"element": "N" 
			},
			{
				"x": 0.3309799989,
				"y": 1.7042688996,
				"z": 0.6998228902,
				"element": "C" 
			},
			{
				"x": -0.0655061699,
				"y": 0.6929352226,
				"z": -0.1319572148,
				"element": "O" 
			},
			{
				"x": 1.7471864896,
				"y": 2.030162033,
				"z": 0.8126181819,
				"element": "C" 
			},
			{
				"x": 2.1450269255,
				"y": 3.0644303144,
				"z": 1.6757419139,
				"element": "C" 
			},
			{
				"x": 3.489061409,
				"y": 3.3961522088,
				"z": 1.8028687952,
				"element": "C" 
			},
			{
				"x": 4.4401624772,
				"y": 2.689646274,
				"z": 1.0627409178,
				"element": "C" 
			},
			{
				"x": 6.1371969868,
				"y": 3.1051898293,
				"z": 1.2208696503,
				"element": "Cl" 
			},
			{
				"x": 4.0647216657,
				"y": 1.6597514986,
				"z": 0.2000468876,
				"element": "C" 
			},
			{
				"x": 2.7166914138,
				"y": 1.3325061274,
				"z": 0.0773485913,
				"element": "C" 
			},
			{
				"x": -1.3510007047,
				"y": -5.8919673302,
				"z": -2.2025232623,
				"element": "H" 
			},
			{
				"x": -2.80186772,
				"y": -6.409530648,
				"z": -3.0821355436,
				"element": "H" 
			},
			{
				"x": -2.1591447644,
				"y": -4.7768590112,
				"z": -3.3305972189,
				"element": "H" 
			},
			{
				"x": -3.3925071074,
				"y": -5.8310673712,
				"z": -0.713619669,
				"element": "H" 
			},
			{
				"x": -4.1584282497,
				"y": -4.6796910265,
				"z": -1.8403801061,
				"element": "H" 
			},
			{
				"x": -2.1801327184,
				"y": -1.9361123548,
				"z": 0.7165317487,
				"element": "H" 
			},
			{
				"x": -0.8597419106,
				"y": -1.9661357844,
				"z": -0.433096233,
				"element": "H" 
			},
			{
				"x": -3.286582536,
				"y": -0.0648912379,
				"z": -0.5535831802,
				"element": "H" 
			},
			{
				"x": -2.0607198104,
				"y": -0.1784326403,
				"z": -1.8085086601,
				"element": "H" 
			},
			{
				"x": 1.3899256393,
				"y": 3.6000331577,
				"z": 2.2408063083,
				"element": "H" 
			},
			{
				"x": 3.8010846541,
				"y": 4.1936223112,
				"z": 2.467724422,
				"element": "H" 
			},
			{
				"x": 4.8175394167,
				"y": 1.1235739578,
				"z": -0.3665899358,
				"element": "H" 
			},
			{
				"x": 2.41579298,
				"y": 0.5338943487,
				"z": -0.5919846577,
				"element": "H" 
			}
		],
		 "valence_orbital": [ 
			{
				"type": "occ",
				"energy": -0.29623,
				"method": "rhf"
			},
			{
				"type": "occ",
				"energy": -0.28279,
				"method": "rhf"
			},
			{
				"type": "occ",
				"energy": -0.27924,
				"method": "rhf"
			},
			{
				"type": "occ",
				"energy": -0.27709,
				"method": "rhf"
			},
			{
				"type": "occ",
				"energy": -0.24082,
				"method": "rhf"
			},
			{
				"type": "unocc",
				"energy": -0.05879,
				"method": "rhf"
			},
			{
				"type": "unocc",
				"energy": -0.026,
				"method": "rhf"
			},
			{
				"type": "unocc",
				"energy": 0.00058,
				"method": "rhf"
			},
			{
				"type": "unocc",
				"energy": 0.01028,
				"method": "rhf"
			},
			{
				"type": "unocc",
				"energy": 0.02171,
				"method": "rhf"
			}
		],
		"cosmo_sigma_profile": { 
			"-0.025": 0.0,
			"-0.024": 0.0,
			"-0.023": 0.0,
			"-0.022": 0.0,
			"-0.021": 0.0,
			"-0.02": 0.0,
			"-0.019": 0.0,
			"-0.018": 0.0,
			"-0.017": 0.0,
			"-0.016": 0.0,
			"-0.015": 0.0,
			"-0.014": 0.0,
			"-0.013": 0.0,
			"-0.012": 0.0,
			"-0.011": 0.0,
			"-0.01": 0.0,
			"-0.009": 0.0,
			"-0.008": 2.50396683256,
			"-0.007": 12.8614990254,
			"-0.006": 19.7564819876,
			"-0.005": 21.403575387,
			"-0.004": 26.5857894842,
			"-0.003": 27.3969024152,
			"-0.002": 28.7595848549,
			"-0.001": 24.2646820429,
			"0.0": 28.280492079,
			"0.001": 26.9855793312,
			"0.002": 26.1499719051,
			"0.003": 13.8227043682,
			"0.004": 15.6135995756,
			"0.005": 5.6063595475,
			"0.006": 3.33032818751,
			"0.007": 5.86103414258,
			"0.008": 4.05382281012,
			"0.009": 4.66100079037,
			"0.01": 4.37755603603,
			"0.011": 6.16431444776,
			"0.012": 5.76876178605,
			"0.013": 2.84550477389,
			"0.014": 1.77922475951,
			"0.015": 1.04271116117,
			"0.016": 0.0162353904869,
			"0.017": 0.0,
			"0.018": 0.0,
			"0.019": 0.0,
			"0.02": 0.0,
			"0.021": 0.0,
			"0.022": 0.0,
			"0.023": 0.0,
			"0.024": 0.0,
			"0.025": 0.0
		}
	}
}
