{
	 "smiles": "COC1=C(NC(=O)CCl)C=C(C)C(Cl)=C1", 
	 "Tm": 441.15, 
	 "num_atms": 26, 
	 "gaussian": { 
		 "optdone": 1, 
		 "sigma_profile": "yes", 
		 "theory": "DFT", 
		 "functional": "B3LYP", 
		 "basiset": "6-31G**", 
		 "properties": { 
			 "R2extent": 5365.9279, 
			 "electric_dipole_moment_norm": 1.43732381181, 
			 "electric_quadrupole_moment_norm": 15.5856831101, 
			 "total_energy": -1513.28587855, 
			 "HOMO_LUMO_gap": 0.19893, 
			 "cosmo_polarized_energy": -13.6, 
			 "cosmo_cavitation_energy": 33.66, 
			 "cosmo_dispersion_energy": -24.07, 
			 "cosmo_repulsion_energy": 1.93, 
			 "cosmo_total_nonelectrostatic_energy": 11.53, 
			 "SMD_solvation_energy": 6.68 
		},
		"coords": [
			{
				"x": 3.2492301306,
				"y": 1.0317373787,
				"z": -0.8346821122,
				"element": "C" 
			},
			{
				"x": 2.0537418724,
				"y": 0.3826238098,
				"z": -0.4258220598,
				"element": "O" 
			},
			{
				"x": 0.9801923561,
				"y": 1.1453917932,
				"z": -0.1064534982,
				"element": "C" 
			},
			{
				"x": -0.2279969032,
				"y": 0.4664186841,
				"z": 0.1571023413,
				"element": "C" 
			},
			{
				"x": -0.2958009377,
				"y": -0.9497065689,
				"z": 0.058761227,
				"element": "N" 
			},
			{
				"x": -0.0592330384,
				"y": -1.639164378,
				"z": -1.0930030851,
				"element": "C" 
			},
			{
				"x": 0.2260127339,
				"y": -1.1430380896,
				"z": -2.1699503235,
				"element": "O" 
			},
			{
				"x": -0.1371368131,
				"y": -3.1680259311,
				"z": -1.0249557545,
				"element": "C" 
			},
			{
				"x": -0.7506031901,
				"y": -3.8981635851,
				"z": 0.5248620986,
				"element": "Cl" 
			},
			{
				"x": -1.3490355012,
				"y": 1.1890767634,
				"z": 0.55557139,
				"element": "C" 
			},
			{
				"x": -1.3448977747,
				"y": 2.5831033638,
				"z": 0.7007395884,
				"element": "C" 
			},
			{
				"x": -2.5820380496,
				"y": 3.3264095264,
				"z": 1.1345643289,
				"element": "C" 
			},
			{
				"x": -0.139426457,
				"y": 3.2261996972,
				"z": 0.4016465242,
				"element": "C" 
			},
			{
				"x": -0.0316960117,
				"y": 4.9810937551,
				"z": 0.5318971837,
				"element": "Cl" 
			},
			{
				"x": 1.0071587323,
				"y": 2.538891953,
				"z": 0.0021980767,
				"element": "C" 
			},
			{
				"x": 3.945874378,
				"y": 0.2350386822,
				"z": -1.0977105807,
				"element": "H" 
			},
			{
				"x": 3.0782828901,
				"y": 1.6677088295,
				"z": -1.7114167585,
				"element": "H" 
			},
			{
				"x": 3.6799730915,
				"y": 1.6348133888,
				"z": -0.0250738613,
				"element": "H" 
			},
			{
				"x": -0.603033145,
				"y": -1.4753088046,
				"z": 0.8661756602,
				"element": "H" 
			},
			{
				"x": 0.8626400879,
				"y": -3.5716219227,
				"z": -1.1896185334,
				"element": "H" 
			},
			{
				"x": -0.7941109768,
				"y": -3.5107356843,
				"z": -1.8234294246,
				"element": "H" 
			},
			{
				"x": -2.26867714,
				"y": 0.6430696531,
				"z": 0.7479242082,
				"element": "H" 
			},
			{
				"x": -3.4071344842,
				"y": 2.6317120344,
				"z": 1.310690951,
				"element": "H" 
			},
			{
				"x": -2.4080362754,
				"y": 3.8904650381,
				"z": 2.0572893862,
				"element": "H" 
			},
			{
				"x": -2.9014533423,
				"y": 4.0495985357,
				"z": 0.3765527281,
				"element": "H" 
			},
			{
				"x": 1.9111037678,
				"y": 3.0971120777,
				"z": -0.2009597008,
				"element": "H" 
			}
		],
		 "valence_orbital": [ 
			{
				"type": "occ",
				"energy": -0.31042,
				"method": "rhf"
			},
			{
				"type": "occ",
				"energy": -0.28086,
				"method": "rhf"
			},
			{
				"type": "occ",
				"energy": -0.25876,
				"method": "rhf"
			},
			{
				"type": "occ",
				"energy": -0.24787,
				"method": "rhf"
			},
			{
				"type": "occ",
				"energy": -0.22173,
				"method": "rhf"
			},
			{
				"type": "unocc",
				"energy": -0.0228,
				"method": "rhf"
			},
			{
				"type": "unocc",
				"energy": -0.00064,
				"method": "rhf"
			},
			{
				"type": "unocc",
				"energy": 0.01229,
				"method": "rhf"
			},
			{
				"type": "unocc",
				"energy": 0.02367,
				"method": "rhf"
			},
			{
				"type": "unocc",
				"energy": 0.02934,
				"method": "rhf"
			}
		],
		"cosmo_sigma_profile": { 
			"-0.025": 0.0,
			"-0.024": 0.0,
			"-0.023": 0.0,
			"-0.022": 0.0,
			"-0.021": 0.0,
			"-0.02": 0.0,
			"-0.019": 0.0,
			"-0.018": 0.0,
			"-0.017": 0.0,
			"-0.016": 0.0,
			"-0.015": 0.0,
			"-0.014": 0.0,
			"-0.013": 0.484018363817,
			"-0.012": 0.657058322747,
			"-0.011": 0.986138739316,
			"-0.01": 1.2548697878,
			"-0.009": 4.22081656964,
			"-0.008": 5.68979765504,
			"-0.007": 9.09255680815,
			"-0.006": 16.0175960384,
			"-0.005": 17.0045454098,
			"-0.004": 20.7515706649,
			"-0.003": 18.1593810353,
			"-0.002": 15.6162628202,
			"-0.001": 18.8719721118,
			"0.0": 21.1147249787,
			"0.001": 17.3087104659,
			"0.002": 19.7464264813,
			"0.003": 23.3722433737,
			"0.004": 17.5635910514,
			"0.005": 15.1533104419,
			"0.006": 5.30485247341,
			"0.007": 3.55319702047,
			"0.008": 2.46820195659,
			"0.009": 2.44217239487,
			"0.01": 2.23107457585,
			"0.011": 2.48367151088,
			"0.012": 3.61664752715,
			"0.013": 5.80773902742,
			"0.014": 0.8291984567,
			"0.015": 0.0,
			"0.016": 0.0,
			"0.017": 0.0,
			"0.018": 0.0,
			"0.019": 0.0,
			"0.02": 0.0,
			"0.021": 0.0,
			"0.022": 0.0,
			"0.023": 0.0,
			"0.024": 0.0,
			"0.025": 0.0
		}
	}
}
