{
	 "smiles": "FC(F)(F)C1N=NC(N=CC2=CC=C(Cl)C=C2)=N1", 
	 "Tm": 507.15, 
	 "num_atms": 24, 
	 "gaussian": { 
		 "optdone": 1, 
		 "sigma_profile": "yes", 
		 "theory": "DFT", 
		 "functional": "B3LYP", 
		 "basiset": "6-31G**", 
		 "properties": { 
			 "R2extent": 7841.522, 
			 "electric_dipole_moment_norm": 4.30318380969, 
			 "electric_quadrupole_moment_norm": 13.9893535119, 
			 "total_energy": -1363.32276185, 
			 "HOMO_LUMO_gap": 0.17295, 
			 "cosmo_polarized_energy": -12.37, 
			 "cosmo_cavitation_energy": 33.66, 
			 "cosmo_dispersion_energy": -23.55, 
			 "cosmo_repulsion_energy": 1.75, 
			 "cosmo_total_nonelectrostatic_energy": 11.86, 
			 "SMD_solvation_energy": -0.84 
		},
		"coords": [
			{
				"x": -1.7677053902,
				"y": 4.6092672709,
				"z": -2.20125344,
				"element": "F" 
			},
			{
				"x": -1.9233471961,
				"y": 4.6162988388,
				"z": -0.8685168483,
				"element": "C" 
			},
			{
				"x": -3.1207760301,
				"y": 5.1563662854,
				"z": -0.5823507663,
				"element": "F" 
			},
			{
				"x": -0.9725330236,
				"y": 5.4010712039,
				"z": -0.334518509,
				"element": "F" 
			},
			{
				"x": -1.8294604864,
				"y": 3.1981980893,
				"z": -0.2903614305,
				"element": "C" 
			},
			{
				"x": -2.9067326464,
				"y": 2.3479131805,
				"z": -0.8756934202,
				"element": "N" 
			},
			{
				"x": -2.3712143326,
				"y": 1.3675839419,
				"z": -1.4275459027,
				"element": "N" 
			},
			{
				"x": -0.9066249212,
				"y": 1.511464412,
				"z": -1.2456955679,
				"element": "C" 
			},
			{
				"x": -0.1241994582,
				"y": 0.6355963707,
				"z": -1.9284272043,
				"element": "N" 
			},
			{
				"x": 0.5977486416,
				"y": -0.3370405549,
				"z": -1.5234140733,
				"element": "C" 
			},
			{
				"x": 0.8495913018,
				"y": -0.8635444099,
				"z": -0.1726871533,
				"element": "C" 
			},
			{
				"x": 1.3700181513,
				"y": -2.1671039693,
				"z": -0.0832332577,
				"element": "C" 
			},
			{
				"x": 1.6215751463,
				"y": -2.7600522162,
				"z": 1.1493900754,
				"element": "C" 
			},
			{
				"x": 1.3691152094,
				"y": -2.0291791843,
				"z": 2.311300427,
				"element": "C" 
			},
			{
				"x": 1.6903411443,
				"y": -2.7563331884,
				"z": 3.8706725805,
				"element": "Cl" 
			},
			{
				"x": 0.8778354251,
				"y": -0.7224073317,
				"z": 2.2521976014,
				"element": "C" 
			},
			{
				"x": 0.6184626434,
				"y": -0.1431093045,
				"z": 1.0146758759,
				"element": "C" 
			},
			{
				"x": -0.5761248267,
				"y": 2.5622053345,
				"z": -0.5794293047,
				"element": "N" 
			},
			{
				"x": -2.0146685078,
				"y": 3.2782132846,
				"z": 0.7886321427,
				"element": "H" 
			},
			{
				"x": 1.0986821675,
				"y": -0.8966605522,
				"z": -2.3192756972,
				"element": "H" 
			},
			{
				"x": 1.5680062457,
				"y": -2.7275388801,
				"z": -0.9929258697,
				"element": "H" 
			},
			{
				"x": 2.0116682484,
				"y": -3.7693678361,
				"z": 1.2138483932,
				"element": "H" 
			},
			{
				"x": 0.7113461287,
				"y": -0.1656565169,
				"z": 3.1674532742,
				"element": "H" 
			},
			{
				"x": 0.2715963659,
				"y": 0.881715732,
				"z": 0.9687580749,
				"element": "H" 
			}
		],
		 "valence_orbital": [ 
			{
				"type": "occ",
				"energy": -0.31259,
				"method": "rhf"
			},
			{
				"type": "occ",
				"energy": -0.29051,
				"method": "rhf"
			},
			{
				"type": "occ",
				"energy": -0.2799,
				"method": "rhf"
			},
			{
				"type": "occ",
				"energy": -0.27545,
				"method": "rhf"
			},
			{
				"type": "occ",
				"energy": -0.26557,
				"method": "rhf"
			},
			{
				"type": "unocc",
				"energy": -0.09262,
				"method": "rhf"
			},
			{
				"type": "unocc",
				"energy": -0.08537,
				"method": "rhf"
			},
			{
				"type": "unocc",
				"energy": -0.03944,
				"method": "rhf"
			},
			{
				"type": "unocc",
				"energy": 0.00218,
				"method": "rhf"
			},
			{
				"type": "unocc",
				"energy": 0.01079,
				"method": "rhf"
			}
		],
		"cosmo_sigma_profile": { 
			"-0.025": 0.0,
			"-0.024": 0.0,
			"-0.023": 0.0,
			"-0.022": 0.0,
			"-0.021": 0.0,
			"-0.02": 0.0,
			"-0.019": 0.0,
			"-0.018": 0.0,
			"-0.017": 0.0,
			"-0.016": 0.0,
			"-0.015": 0.0,
			"-0.014": 0.0,
			"-0.013": 0.0,
			"-0.012": 1.05067649232,
			"-0.011": 2.43451632127,
			"-0.01": 3.12706895337,
			"-0.009": 5.32343040358,
			"-0.008": 9.59966191936,
			"-0.007": 9.23797652191,
			"-0.006": 10.8357917302,
			"-0.005": 9.55319235426,
			"-0.004": 10.9881060662,
			"-0.003": 12.3141841882,
			"-0.002": 14.0619310115,
			"-0.001": 18.3008411751,
			"0.0": 21.4637519786,
			"0.001": 36.2747656341,
			"0.002": 44.9114416399,
			"0.003": 17.2738968069,
			"0.004": 15.0393483722,
			"0.005": 6.04549529005,
			"0.006": 4.84318806833,
			"0.007": 4.85517550111,
			"0.008": 4.84983191805,
			"0.009": 4.28365980271,
			"0.01": 3.25586988256,
			"0.011": 2.91848680965,
			"0.012": 1.3623215853,
			"0.013": 0.35368970231,
			"0.014": 0.0,
			"0.015": 0.0,
			"0.016": 0.0,
			"0.017": 0.0,
			"0.018": 0.0,
			"0.019": 0.0,
			"0.02": 0.0,
			"0.021": 0.0,
			"0.022": 0.0,
			"0.023": 0.0,
			"0.024": 0.0,
			"0.025": 0.0
		}
	}
}
