{
	 "smiles": "O=C1CCCCC1=O", 
	 "Tm": 311.65, 
	 "num_atms": 16, 
	 "gaussian": { 
		 "optdone": 1, 
		 "sigma_profile": "yes", 
		 "theory": "DFT", 
		 "functional": "B3LYP", 
		 "basiset": "6-31G**", 
		 "properties": { 
			 "R2extent": 1027.2932, 
			 "electric_dipole_moment_norm": 4.7931466606, 
			 "electric_quadrupole_moment_norm": 10.6829890929, 
			 "total_energy": -383.89258518, 
			 "HOMO_LUMO_gap": 0.16062, 
			 "cosmo_polarized_energy": -11.75, 
			 "cosmo_cavitation_energy": 19.05, 
			 "cosmo_dispersion_energy": -14.25, 
			 "cosmo_repulsion_energy": 1.21, 
			 "cosmo_total_nonelectrostatic_energy": 6.01, 
			 "SMD_solvation_energy": 4.19 
		},
		"coords": [
			{
				"x": -2.3007852449,
				"y": 1.3129025388,
				"z": 0.4096894255,
				"element": "O" 
			},
			{
				"x": -1.4618213753,
				"y": 0.4386067247,
				"z": 0.3866589524,
				"element": "C" 
			},
			{
				"x": -0.502433228,
				"y": 0.1565821193,
				"z": 1.5320010887,
				"element": "C" 
			},
			{
				"x": 0.9176505588,
				"y": -0.1989430679,
				"z": 1.0533614745,
				"element": "C" 
			},
			{
				"x": 0.8927038643,
				"y": -1.3427859939,
				"z": 0.0311426936,
				"element": "C" 
			},
			{
				"x": 0.0579471103,
				"y": -0.9693901933,
				"z": -1.2081515318,
				"element": "C" 
			},
			{
				"x": -1.3416973562,
				"y": -0.4893025411,
				"z": -0.8585009525,
				"element": "C" 
			},
			{
				"x": -2.3312460309,
				"y": -0.7730471389,
				"z": -1.4980819883,
				"element": "O" 
			},
			{
				"x": -0.9176401802,
				"y": -0.7044100762,
				"z": 2.079268937,
				"element": "H" 
			},
			{
				"x": -0.5192546808,
				"y": 1.0104021135,
				"z": 2.2155269142,
				"element": "H" 
			},
			{
				"x": 1.3853561627,
				"y": 0.6863484791,
				"z": 0.6024266917,
				"element": "H" 
			},
			{
				"x": 1.5347500269,
				"y": -0.4713515347,
				"z": 1.9162118685,
				"element": "H" 
			},
			{
				"x": 0.4733392631,
				"y": -2.2437062602,
				"z": 0.4983644981,
				"element": "H" 
			},
			{
				"x": 1.9110745212,
				"y": -1.5990086638,
				"z": -0.2799992964,
				"element": "H" 
			},
			{
				"x": 0.5513830473,
				"y": -0.1335038695,
				"z": -1.7287388583,
				"element": "H" 
			},
			{
				"x": -0.0271264583,
				"y": -1.790092636,
				"z": -1.9262799169,
				"element": "H" 
			}
		],
		 "valence_orbital": [ 
			{
				"type": "occ",
				"energy": -0.35991,
				"method": "rhf"
			},
			{
				"type": "occ",
				"energy": -0.35309,
				"method": "rhf"
			},
			{
				"type": "occ",
				"energy": -0.34611,
				"method": "rhf"
			},
			{
				"type": "occ",
				"energy": -0.28934,
				"method": "rhf"
			},
			{
				"type": "occ",
				"energy": -0.23584,
				"method": "rhf"
			},
			{
				"type": "unocc",
				"energy": -0.07522,
				"method": "rhf"
			},
			{
				"type": "unocc",
				"energy": 0.01486,
				"method": "rhf"
			},
			{
				"type": "unocc",
				"energy": 0.08832,
				"method": "rhf"
			},
			{
				"type": "unocc",
				"energy": 0.10247,
				"method": "rhf"
			},
			{
				"type": "unocc",
				"energy": 0.12024,
				"method": "rhf"
			}
		],
		"cosmo_sigma_profile": { 
			"-0.025": 0.0,
			"-0.024": 0.0,
			"-0.023": 0.0,
			"-0.022": 0.0,
			"-0.021": 0.0,
			"-0.02": 0.0,
			"-0.019": 0.0,
			"-0.018": 0.0,
			"-0.017": 0.0,
			"-0.016": 0.0,
			"-0.015": 0.0,
			"-0.014": 0.0,
			"-0.013": 0.0,
			"-0.012": 0.0,
			"-0.011": 0.0,
			"-0.01": 0.128891459386,
			"-0.009": 2.18938678992,
			"-0.008": 2.97047066686,
			"-0.007": 5.34008513282,
			"-0.006": 7.40541789301,
			"-0.005": 11.493219447,
			"-0.004": 18.1943228132,
			"-0.003": 21.1505103253,
			"-0.002": 18.6477249217,
			"-0.001": 10.5049686688,
			"0.0": 5.7688097016,
			"0.001": 1.65793217137,
			"0.002": 2.3561332485,
			"0.003": 2.16664696263,
			"0.004": 2.43723757343,
			"0.005": 2.24434273887,
			"0.006": 2.6697906847,
			"0.007": 3.22021298423,
			"0.008": 3.21398512977,
			"0.009": 4.78214375789,
			"0.01": 7.44662624923,
			"0.011": 8.247005707,
			"0.012": 4.30654096859,
			"0.013": 0.808192383234,
			"0.014": 0.0,
			"0.015": 0.0,
			"0.016": 0.0,
			"0.017": 0.0,
			"0.018": 0.0,
			"0.019": 0.0,
			"0.02": 0.0,
			"0.021": 0.0,
			"0.022": 0.0,
			"0.023": 0.0,
			"0.024": 0.0,
			"0.025": 0.0
		}
	}
}
