{
	 "smiles": "CCS(=O)(=O)C1=CC(O)=C(NC(=O)CCl)C=C1", 
	 "Tm": 481.15, 
	 "num_atms": 29, 
	 "gaussian": { 
		 "optdone": 1, 
		 "sigma_profile": "yes", 
		 "theory": "DFT", 
		 "functional": "B3LYP", 
		 "basiset": "6-31G**", 
		 "properties": { 
			 "R2extent": 6945.7384, 
			 "electric_dipole_moment_norm": 1.8588678974, 
			 "electric_quadrupole_moment_norm": 39.1545674398, 
			 "total_energy": -1602.26874466, 
			 "HOMO_LUMO_gap": 0.19869, 
			 "cosmo_polarized_energy": -27.36, 
			 "cosmo_cavitation_energy": 36.48, 
			 "cosmo_dispersion_energy": -25.79, 
			 "cosmo_repulsion_energy": 2.0, 
			 "cosmo_total_nonelectrostatic_energy": 12.7, 
			 "SMD_solvation_energy": 6.56 
		},
		"coords": [
			{
				"x": -3.3569064429,
				"y": -0.3687572307,
				"z": 2.3290399374,
				"element": "C" 
			},
			{
				"x": -2.429086791,
				"y": -1.5618025563,
				"z": 2.5260264066,
				"element": "C" 
			},
			{
				"x": -2.173121944,
				"y": -2.5569142853,
				"z": 1.0199300234,
				"element": "S" 
			},
			{
				"x": -3.4837282596,
				"y": -2.7640697488,
				"z": 0.3821963338,
				"element": "O" 
			},
			{
				"x": -1.3151444438,
				"y": -3.691245605,
				"z": 1.3983602719,
				"element": "O" 
			},
			{
				"x": -1.2008093928,
				"y": -1.4870696198,
				"z": -0.0671285548,
				"element": "C" 
			},
			{
				"x": -1.8640474174,
				"y": -0.7264712338,
				"z": -1.0252636561,
				"element": "C" 
			},
			{
				"x": -1.1112144357,
				"y": 0.0895244944,
				"z": -1.8760705665,
				"element": "C" 
			},
			{
				"x": -1.7543912928,
				"y": 0.8277752648,
				"z": -2.8127366718,
				"element": "O" 
			},
			{
				"x": 0.2901223582,
				"y": 0.1398915566,
				"z": -1.7413288959,
				"element": "C" 
			},
			{
				"x": 1.0199650006,
				"y": 0.97905963,
				"z": -2.6453243989,
				"element": "N" 
			},
			{
				"x": 1.367762683,
				"y": 2.3138977893,
				"z": -2.4215452019,
				"element": "C" 
			},
			{
				"x": 2.2115020584,
				"y": 2.8636544347,
				"z": -3.0943384765,
				"element": "O" 
			},
			{
				"x": 0.5633817678,
				"y": 2.9868943849,
				"z": -1.3035911125,
				"element": "C" 
			},
			{
				"x": 0.9458671595,
				"y": 4.7234754296,
				"z": -1.141682843,
				"element": "Cl" 
			},
			{
				"x": 0.9303282955,
				"y": -0.6502393516,
				"z": -0.7805874102,
				"element": "C" 
			},
			{
				"x": 0.1911797329,
				"y": -1.4749891003,
				"z": 0.0637500437,
				"element": "C" 
			},
			{
				"x": -3.5111400225,
				"y": 0.1364860232,
				"z": 3.287092095,
				"element": "H" 
			},
			{
				"x": -4.3275104504,
				"y": -0.694527843,
				"z": 1.948480902,
				"element": "H" 
			},
			{
				"x": -2.9355293939,
				"y": 0.3589293679,
				"z": 1.6296519595,
				"element": "H" 
			},
			{
				"x": -1.431958819,
				"y": -1.2793120242,
				"z": 2.8753958421,
				"element": "H" 
			},
			{
				"x": -2.8404653324,
				"y": -2.2917610076,
				"z": 3.2307747853,
				"element": "H" 
			},
			{
				"x": -2.9398475211,
				"y": -0.7883107294,
				"z": -1.1420323851,
				"element": "H" 
			},
			{
				"x": -1.0773945423,
				"y": 1.2029846763,
				"z": -3.4012,
				"element": "H" 
			},
			{
				"x": 1.6672304615,
				"y": 0.5274003578,
				"z": -3.283816134,
				"element": "H" 
			},
			{
				"x": 0.7767274251,
				"y": 2.5013900562,
				"z": -0.3487042378,
				"element": "H" 
			},
			{
				"x": -0.5068294017,
				"y": 2.8900737058,
				"z": -1.5001854898,
				"element": "H" 
			},
			{
				"x": 2.0135076688,
				"y": -0.6151053166,
				"z": -0.7078244811,
				"element": "H" 
			},
			{
				"x": 0.6761512918,
				"y": -2.1155615188,
				"z": 0.7913619152,
				"element": "H" 
			}
		],
		 "valence_orbital": [ 
			{
				"type": "occ",
				"energy": -0.3043,
				"method": "rhf"
			},
			{
				"type": "occ",
				"energy": -0.29782,
				"method": "rhf"
			},
			{
				"type": "occ",
				"energy": -0.29104,
				"method": "rhf"
			},
			{
				"type": "occ",
				"energy": -0.28094,
				"method": "rhf"
			},
			{
				"type": "occ",
				"energy": -0.25996,
				"method": "rhf"
			},
			{
				"type": "unocc",
				"energy": -0.06127,
				"method": "rhf"
			},
			{
				"type": "unocc",
				"energy": -0.03281,
				"method": "rhf"
			},
			{
				"type": "unocc",
				"energy": -0.01126,
				"method": "rhf"
			},
			{
				"type": "unocc",
				"energy": 0.01278,
				"method": "rhf"
			},
			{
				"type": "unocc",
				"energy": 0.04862,
				"method": "rhf"
			}
		],
		"cosmo_sigma_profile": { 
			"-0.025": 0.0,
			"-0.024": 0.0,
			"-0.023": 0.0,
			"-0.022": 0.0,
			"-0.021": 0.0,
			"-0.02": 0.0,
			"-0.019": 0.0,
			"-0.018": 0.0,
			"-0.017": 0.0,
			"-0.016": 0.307613943489,
			"-0.015": 1.51869523056,
			"-0.014": 2.86378771918,
			"-0.013": 2.05555195242,
			"-0.012": 2.00070452541,
			"-0.011": 2.41930054326,
			"-0.01": 2.62183533549,
			"-0.009": 4.05548965845,
			"-0.008": 12.2878115203,
			"-0.007": 15.6792311023,
			"-0.006": 17.5170415441,
			"-0.005": 16.3071655093,
			"-0.004": 19.9533546551,
			"-0.003": 18.32435223,
			"-0.002": 16.1945848186,
			"-0.001": 18.9365682563,
			"0.0": 16.1272785427,
			"0.001": 14.7750801952,
			"0.002": 12.4297200874,
			"0.003": 9.10049581617,
			"0.004": 8.76306455593,
			"0.005": 11.9200935401,
			"0.006": 10.1865593175,
			"0.007": 5.44139172201,
			"0.008": 5.90594490422,
			"0.009": 6.96627123827,
			"0.01": 8.59865545779,
			"0.011": 12.1192207376,
			"0.012": 13.5054932494,
			"0.013": 2.64375223724,
			"0.014": 0.226904926242,
			"0.015": 0.0,
			"0.016": 0.0,
			"0.017": 0.0,
			"0.018": 0.0,
			"0.019": 0.0,
			"0.02": 0.0,
			"0.021": 0.0,
			"0.022": 0.0,
			"0.023": 0.0,
			"0.024": 0.0,
			"0.025": 0.0
		}
	}
}
