{
	 "smiles": "C=CCC1CCCC1", 
	 "Tm": 162.15, 
	 "num_atms": 22, 
	 "gaussian": { 
		 "optdone": 1, 
		 "sigma_profile": "yes", 
		 "theory": "DFT", 
		 "functional": "B3LYP", 
		 "basiset": "6-31G**", 
		 "properties": { 
			 "R2extent": 1242.1204, 
			 "electric_dipole_moment_norm": 0.357670197249, 
			 "electric_quadrupole_moment_norm": 1.59461090865, 
			 "total_energy": -313.274968639, 
			 "HOMO_LUMO_gap": 0.27562, 
			 "cosmo_polarized_energy": -1.62, 
			 "cosmo_cavitation_energy": 22.79, 
			 "cosmo_dispersion_energy": -16.73, 
			 "cosmo_repulsion_energy": 1.4, 
			 "cosmo_total_nonelectrostatic_energy": 7.46, 
			 "SMD_solvation_energy": 3.79 
		},
		"coords": [
			{
				"x": 2.8466870006,
				"y": 0.3601872422,
				"z": 0.9828416096,
				"element": "C" 
			},
			{
				"x": 1.8821914467,
				"y": -0.2875645417,
				"z": 1.6377984592,
				"element": "C" 
			},
			{
				"x": 0.524701648,
				"y": -0.6893860569,
				"z": 1.1150970992,
				"element": "C" 
			},
			{
				"x": 0.1181869069,
				"y": -0.1726503111,
				"z": -0.2683954849,
				"element": "C" 
			},
			{
				"x": -1.183682935,
				"y": -0.808511886,
				"z": -0.7987309451,
				"element": "C" 
			},
			{
				"x": -1.6586346752,
				"y": 0.1230917272,
				"z": -1.9409401187,
				"element": "C" 
			},
			{
				"x": -0.9524363928,
				"y": 1.491003802,
				"z": -1.6920822959,
				"element": "C" 
			},
			{
				"x": -0.2025310341,
				"y": 1.3332198087,
				"z": -0.3524571551,
				"element": "C" 
			},
			{
				"x": 2.7329467166,
				"y": 0.694570163,
				"z": -0.0440335861,
				"element": "H" 
			},
			{
				"x": 3.7982561982,
				"y": 0.5796717389,
				"z": 1.458010995,
				"element": "H" 
			},
			{
				"x": 2.076233814,
				"y": -0.5933370774,
				"z": 2.667084356,
				"element": "H" 
			},
			{
				"x": -0.237807096,
				"y": -0.3798848658,
				"z": 1.8468413981,
				"element": "H" 
			},
			{
				"x": 0.4804349427,
				"y": -1.7901747682,
				"z": 1.1162830964,
				"element": "H" 
			},
			{
				"x": 0.9235802582,
				"y": -0.3989886348,
				"z": -0.9831730445,
				"element": "H" 
			},
			{
				"x": -1.9263243653,
				"y": -0.8231776589,
				"z": 0.0105972418,
				"element": "H" 
			},
			{
				"x": -1.0462244025,
				"y": -1.8456055936,
				"z": -1.1229545398,
				"element": "H" 
			},
			{
				"x": -1.3733420033,
				"y": -0.2830315287,
				"z": -2.9169996923,
				"element": "H" 
			},
			{
				"x": -2.7487269536,
				"y": 0.2193111982,
				"z": -1.9507969535,
				"element": "H" 
			},
			{
				"x": -1.656258015,
				"y": 2.3288664232,
				"z": -1.6741577656,
				"element": "H" 
			},
			{
				"x": -0.2394293806,
				"y": 1.6986634691,
				"z": -2.4978615033,
				"element": "H" 
			},
			{
				"x": -0.8618265373,
				"y": 1.599043118,
				"z": 0.4856486208,
				"element": "H" 
			},
			{
				"x": 0.6797048587,
				"y": 1.9748842324,
				"z": -0.2793197912,
				"element": "H" 
			}
		],
		 "valence_orbital": [ 
			{
				"type": "occ",
				"energy": -0.31564,
				"method": "rhf"
			},
			{
				"type": "occ",
				"energy": -0.31332,
				"method": "rhf"
			},
			{
				"type": "occ",
				"energy": -0.30949,
				"method": "rhf"
			},
			{
				"type": "occ",
				"energy": -0.30717,
				"method": "rhf"
			},
			{
				"type": "occ",
				"energy": -0.24783,
				"method": "rhf"
			},
			{
				"type": "unocc",
				"energy": 0.02779,
				"method": "rhf"
			},
			{
				"type": "unocc",
				"energy": 0.08328,
				"method": "rhf"
			},
			{
				"type": "unocc",
				"energy": 0.09899,
				"method": "rhf"
			},
			{
				"type": "unocc",
				"energy": 0.11316,
				"method": "rhf"
			},
			{
				"type": "unocc",
				"energy": 0.13329,
				"method": "rhf"
			}
		],
		"cosmo_sigma_profile": { 
			"-0.025": 0.0,
			"-0.024": 0.0,
			"-0.023": 0.0,
			"-0.022": 0.0,
			"-0.021": 0.0,
			"-0.02": 0.0,
			"-0.019": 0.0,
			"-0.018": 0.0,
			"-0.017": 0.0,
			"-0.016": 0.0,
			"-0.015": 0.0,
			"-0.014": 0.0,
			"-0.013": 0.0,
			"-0.012": 0.0,
			"-0.011": 0.0,
			"-0.01": 0.0,
			"-0.009": 0.0,
			"-0.008": 0.0,
			"-0.007": 0.0,
			"-0.006": 0.0,
			"-0.005": 0.677021623007,
			"-0.004": 4.43592642525,
			"-0.003": 10.4767385359,
			"-0.002": 29.802723766,
			"-0.001": 36.8354513197,
			"0.0": 35.3262572466,
			"0.001": 22.877265251,
			"0.002": 16.7865374326,
			"0.003": 5.01097174604,
			"0.004": 3.49281249133,
			"0.005": 3.93930658693,
			"0.006": 2.49916123733,
			"0.007": 2.75159128878,
			"0.008": 1.27777177741,
			"0.009": 0.0142481151316,
			"0.01": 0.0,
			"0.011": 0.0,
			"0.012": 0.0,
			"0.013": 0.0,
			"0.014": 0.0,
			"0.015": 0.0,
			"0.016": 0.0,
			"0.017": 0.0,
			"0.018": 0.0,
			"0.019": 0.0,
			"0.02": 0.0,
			"0.021": 0.0,
			"0.022": 0.0,
			"0.023": 0.0,
			"0.024": 0.0,
			"0.025": 0.0
		}
	}
}
