{
	 "smiles": "[O-][N+](=O)C1=C(Cl)C=CC(=C1)S(=O)(=O)C(F)(F)F", 
	 "Tm": 331.15, 
	 "num_atms": 20, 
	 "gaussian": { 
		 "optdone": 1, 
		 "sigma_profile": "yes", 
		 "theory": "DFT", 
		 "functional": "B3LYP", 
		 "basiset": "6-31G**", 
		 "properties": { 
			 "R2extent": 6084.2007, 
			 "electric_dipole_moment_norm": 4.0674239747, 
			 "electric_quadrupole_moment_norm": 13.1150419835, 
			 "total_energy": -1781.893467, 
			 "HOMO_LUMO_gap": 0.18852, 
			 "cosmo_polarized_energy": -13.03, 
			 "cosmo_cavitation_energy": 31.0, 
			 "cosmo_dispersion_energy": -21.96, 
			 "cosmo_repulsion_energy": 1.6, 
			 "cosmo_total_nonelectrostatic_energy": 10.64, 
			 "SMD_solvation_energy": 7.76 
		},
		"coords": [
			{
				"x": 1.4571003572,
				"y": 2.4076637932,
				"z": 1.3166780589,
				"element": "O" 
			},
			{
				"x": 0.3160360822,
				"y": 2.0044025414,
				"z": 1.1298283803,
				"element": "N" 
			},
			{
				"x": -0.6994196291,
				"y": 2.6969423424,
				"z": 1.1251341008,
				"element": "O" 
			},
			{
				"x": 0.1278677357,
				"y": 0.5665000927,
				"z": 0.8463366745,
				"element": "C" 
			},
			{
				"x": 0.9379908836,
				"y": -0.4406857517,
				"z": 1.3982279764,
				"element": "C" 
			},
			{
				"x": 2.1963503477,
				"y": -0.131426938,
				"z": 2.5508411804,
				"element": "Cl" 
			},
			{
				"x": 0.6978777651,
				"y": -1.7752630497,
				"z": 1.0462958389,
				"element": "C" 
			},
			{
				"x": -0.3196497314,
				"y": -2.1043735192,
				"z": 0.1582476995,
				"element": "C" 
			},
			{
				"x": -1.118535611,
				"y": -1.0854086481,
				"z": -0.3660178068,
				"element": "C" 
			},
			{
				"x": -0.9118020122,
				"y": 0.2461332016,
				"z": -0.024442286,
				"element": "C" 
			},
			{
				"x": -2.4294735769,
				"y": -1.4972836221,
				"z": -1.5192565718,
				"element": "S" 
			},
			{
				"x": -2.7284962762,
				"y": -0.3203441669,
				"z": -2.3354946542,
				"element": "O" 
			},
			{
				"x": -2.1494733131,
				"y": -2.8169668532,
				"z": -2.0878316162,
				"element": "O" 
			},
			{
				"x": -3.8945474722,
				"y": -1.7231313742,
				"z": -0.3645977632,
				"element": "C" 
			},
			{
				"x": -3.6236323409,
				"y": -2.6956690501,
				"z": 0.5107543834,
				"element": "F" 
			},
			{
				"x": -4.9610565787,
				"y": -2.0493236096,
				"z": -1.0856351099,
				"element": "F" 
			},
			{
				"x": -4.1215684672,
				"y": -0.5851570747,
				"z": 0.2950688661,
				"element": "F" 
			},
			{
				"x": 1.321969581,
				"y": -2.5486907513,
				"z": 1.4787547334,
				"element": "H" 
			},
			{
				"x": -0.4901304381,
				"y": -3.1344981987,
				"z": -0.1345107658,
				"element": "H" 
			},
			{
				"x": -1.5286073055,
				"y": 1.0380806362,
				"z": -0.4319813186,
				"element": "H" 
			}
		],
		 "valence_orbital": [ 
			{
				"type": "occ",
				"energy": -0.33191,
				"method": "rhf"
			},
			{
				"type": "occ",
				"energy": -0.32806,
				"method": "rhf"
			},
			{
				"type": "occ",
				"energy": -0.32096,
				"method": "rhf"
			},
			{
				"type": "occ",
				"energy": -0.30612,
				"method": "rhf"
			},
			{
				"type": "occ",
				"energy": -0.30278,
				"method": "rhf"
			},
			{
				"type": "unocc",
				"energy": -0.11426,
				"method": "rhf"
			},
			{
				"type": "unocc",
				"energy": -0.0861,
				"method": "rhf"
			},
			{
				"type": "unocc",
				"energy": -0.04808,
				"method": "rhf"
			},
			{
				"type": "unocc",
				"energy": -0.01213,
				"method": "rhf"
			},
			{
				"type": "unocc",
				"energy": 0.02526,
				"method": "rhf"
			}
		],
		"cosmo_sigma_profile": { 
			"-0.025": 0.0,
			"-0.024": 0.0,
			"-0.023": 0.0,
			"-0.022": 0.0,
			"-0.021": 0.0,
			"-0.02": 0.0,
			"-0.019": 0.0,
			"-0.018": 0.0,
			"-0.017": 0.0,
			"-0.016": 0.0,
			"-0.015": 0.0,
			"-0.014": 0.0,
			"-0.013": 0.0,
			"-0.012": 0.0,
			"-0.011": 0.0905470749668,
			"-0.01": 3.59703674367,
			"-0.009": 5.53871687621,
			"-0.008": 6.18336362247,
			"-0.007": 6.37761111957,
			"-0.006": 8.14665790012,
			"-0.005": 10.8096585195,
			"-0.004": 16.5183892857,
			"-0.003": 22.3149168322,
			"-0.002": 23.6355391066,
			"-0.001": 18.7608869579,
			"0.0": 30.8231013369,
			"0.001": 20.4715248637,
			"0.002": 11.9744823161,
			"0.003": 7.28933772071,
			"0.004": 5.9398015789,
			"0.005": 7.34959405168,
			"0.006": 11.072418249,
			"0.007": 12.5333629436,
			"0.008": 11.7307568903,
			"0.009": 9.7478437486,
			"0.01": 1.89412235568,
			"0.011": 0.0,
			"0.012": 0.0,
			"0.013": 0.0,
			"0.014": 0.0,
			"0.015": 0.0,
			"0.016": 0.0,
			"0.017": 0.0,
			"0.018": 0.0,
			"0.019": 0.0,
			"0.02": 0.0,
			"0.021": 0.0,
			"0.022": 0.0,
			"0.023": 0.0,
			"0.024": 0.0,
			"0.025": 0.0
		}
	}
}
