{
	 "smiles": "CS(=O)(=O)C1=C(F)C=C(N)C=C1", 
	 "Tm": 390.15, 
	 "num_atms": 20, 
	 "gaussian": { 
		 "optdone": 1, 
		 "sigma_profile": "yes", 
		 "theory": "DFT", 
		 "functional": "B3LYP", 
		 "basiset": "6-31G**", 
		 "properties": { 
			 "R2extent": 2786.197, 
			 "electric_dipole_moment_norm": 7.43319252744, 
			 "electric_quadrupole_moment_norm": 17.5577773491, 
			 "total_energy": -974.726054379, 
			 "HOMO_LUMO_gap": 0.20552, 
			 "cosmo_polarized_energy": -20.07, 
			 "cosmo_cavitation_energy": 25.61, 
			 "cosmo_dispersion_energy": -19.33, 
			 "cosmo_repulsion_energy": 1.47, 
			 "cosmo_total_nonelectrostatic_energy": 7.75, 
			 "SMD_solvation_energy": 4.61 
		},
		"coords": [
			{
				"x": -0.4328420333,
				"y": 0.3611746966,
				"z": 2.097028986,
				"element": "C" 
			},
			{
				"x": 0.6945845614,
				"y": 0.1296190429,
				"z": 0.7055827107,
				"element": "S" 
			},
			{
				"x": 0.9234581878,
				"y": 1.4465636375,
				"z": 0.0960692134,
				"element": "O" 
			},
			{
				"x": 1.8313512912,
				"y": -0.6807490676,
				"z": 1.174348978,
				"element": "O" 
			},
			{
				"x": -0.2303184367,
				"y": -0.9004587027,
				"z": -0.4313828259,
				"element": "C" 
			},
			{
				"x": -1.4279225312,
				"y": -0.4862217484,
				"z": -1.0183756557,
				"element": "C" 
			},
			{
				"x": -1.9699758373,
				"y": 0.6951967065,
				"z": -0.6580737444,
				"element": "F" 
			},
			{
				"x": -2.1067472639,
				"y": -1.2603374435,
				"z": -1.9421259345,
				"element": "C" 
			},
			{
				"x": -1.5725330243,
				"y": -2.5059277904,
				"z": -2.3249915965,
				"element": "C" 
			},
			{
				"x": -2.2026534053,
				"y": -3.2699026189,
				"z": -3.2860411665,
				"element": "N" 
			},
			{
				"x": -0.3624719209,
				"y": -2.9365043305,
				"z": -1.7410397536,
				"element": "C" 
			},
			{
				"x": 0.2920558371,
				"y": -2.1420198498,
				"z": -0.8114874453,
				"element": "C" 
			},
			{
				"x": -1.3442298334,
				"y": 0.8344352695,
				"z": 1.7316448218,
				"element": "H" 
			},
			{
				"x": 0.0825230014,
				"y": 1.0160486773,
				"z": 2.8024525501,
				"element": "H" 
			},
			{
				"x": -0.6384167466,
				"y": -0.6075885504,
				"z": 2.5542354897,
				"element": "H" 
			},
			{
				"x": -3.0350403069,
				"y": -0.8873569603,
				"z": -2.36219568,
				"element": "H" 
			},
			{
				"x": -1.9568548724,
				"y": -4.246985105,
				"z": -3.3345222792,
				"element": "H" 
			},
			{
				"x": -3.1753376837,
				"y": -3.0786586005,
				"z": -3.4722339178,
				"element": "H" 
			},
			{
				"x": 0.0604716722,
				"y": -3.8943843449,
				"z": -2.0293993779,
				"element": "H" 
			},
			{
				"x": 1.2240993446,
				"y": -2.4646429173,
				"z": -0.3597933724,
				"element": "H" 
			}
		],
		 "valence_orbital": [ 
			{
				"type": "occ",
				"energy": -0.30216,
				"method": "rhf"
			},
			{
				"type": "occ",
				"energy": -0.28548,
				"method": "rhf"
			},
			{
				"type": "occ",
				"energy": -0.28241,
				"method": "rhf"
			},
			{
				"type": "occ",
				"energy": -0.26556,
				"method": "rhf"
			},
			{
				"type": "occ",
				"energy": -0.22971,
				"method": "rhf"
			},
			{
				"type": "unocc",
				"energy": -0.02419,
				"method": "rhf"
			},
			{
				"type": "unocc",
				"energy": -0.01558,
				"method": "rhf"
			},
			{
				"type": "unocc",
				"energy": 0.05258,
				"method": "rhf"
			},
			{
				"type": "unocc",
				"energy": 0.06769,
				"method": "rhf"
			},
			{
				"type": "unocc",
				"energy": 0.08682,
				"method": "rhf"
			}
		],
		"cosmo_sigma_profile": { 
			"-0.025": 0.0,
			"-0.024": 0.0,
			"-0.023": 0.0,
			"-0.022": 0.0,
			"-0.021": 0.0,
			"-0.02": 0.0,
			"-0.019": 0.0,
			"-0.018": 0.0,
			"-0.017": 0.0,
			"-0.016": 0.0,
			"-0.015": 0.0,
			"-0.014": 1.32678733114,
			"-0.013": 2.79596069037,
			"-0.012": 3.6055151759,
			"-0.011": 3.00769524766,
			"-0.01": 3.09553366134,
			"-0.009": 4.65369800088,
			"-0.008": 8.26307019684,
			"-0.007": 8.76811844453,
			"-0.006": 10.6914781804,
			"-0.005": 11.7038974615,
			"-0.004": 12.8618562571,
			"-0.003": 9.054268952,
			"-0.002": 7.24243819309,
			"-0.001": 8.77761844641,
			"0.0": 11.0603527489,
			"0.001": 12.4217731547,
			"0.002": 15.4225300679,
			"0.003": 15.6704011623,
			"0.004": 9.13328421638,
			"0.005": 3.75056918589,
			"0.006": 3.91009884029,
			"0.007": 2.7656842218,
			"0.008": 3.73972466541,
			"0.009": 3.90856856419,
			"0.01": 5.19670741185,
			"0.011": 9.9650137741,
			"0.012": 9.81455319635,
			"0.013": 1.57139522184,
			"0.014": 0.0,
			"0.015": 0.0,
			"0.016": 0.0,
			"0.017": 0.0,
			"0.018": 0.0,
			"0.019": 0.0,
			"0.02": 0.0,
			"0.021": 0.0,
			"0.022": 0.0,
			"0.023": 0.0,
			"0.024": 0.0,
			"0.025": 0.0
		}
	}
}
