{
	 "smiles": "CCCOC1=C(N)C=C(C=C1)C(O)=O", 
	 "Tm": 396.15, 
	 "num_atms": 27, 
	 "gaussian": { 
		 "optdone": 1, 
		 "sigma_profile": "yes", 
		 "theory": "DFT", 
		 "functional": "B3LYP", 
		 "basiset": "6-31G**", 
		 "properties": { 
			 "R2extent": 4472.0137, 
			 "electric_dipole_moment_norm": 7.08729040607, 
			 "electric_quadrupole_moment_norm": 26.5066779718, 
			 "total_energy": -669.335964518, 
			 "HOMO_LUMO_gap": 0.17311, 
			 "cosmo_polarized_energy": -18.77, 
			 "cosmo_cavitation_energy": 30.85, 
			 "cosmo_dispersion_energy": -22.57, 
			 "cosmo_repulsion_energy": 1.81, 
			 "cosmo_total_nonelectrostatic_energy": 10.09, 
			 "SMD_solvation_energy": 6.44 
		},
		"coords": [
			{
				"x": 0.8559709116,
				"y": 4.6521261542,
				"z": 0.1378755714,
				"element": "C" 
			},
			{
				"x": 0.0128578093,
				"y": 3.5009613126,
				"z": -0.4194974385,
				"element": "C" 
			},
			{
				"x": 0.4422794057,
				"y": 2.1528691817,
				"z": 0.1422781952,
				"element": "C" 
			},
			{
				"x": -0.3982531697,
				"y": 1.149850385,
				"z": -0.4307579695,
				"element": "O" 
			},
			{
				"x": -0.2114448311,
				"y": -0.1553362954,
				"z": -0.0721381251,
				"element": "C" 
			},
			{
				"x": -1.1112124288,
				"y": -1.0630743974,
				"z": -0.6894692308,
				"element": "C" 
			},
			{
				"x": -2.1218387573,
				"y": -0.561353183,
				"z": -1.5023224816,
				"element": "N" 
			},
			{
				"x": -0.9807892414,
				"y": -2.4221557933,
				"z": -0.4016166743,
				"element": "C" 
			},
			{
				"x": 0.0070913279,
				"y": -2.8902122998,
				"z": 0.4836742064,
				"element": "C" 
			},
			{
				"x": 0.8634436764,
				"y": -1.977900047,
				"z": 1.1013362413,
				"element": "C" 
			},
			{
				"x": 0.7593987878,
				"y": -0.6151957405,
				"z": 0.8161309512,
				"element": "C" 
			},
			{
				"x": 0.171831902,
				"y": -4.3372634177,
				"z": 0.8171814839,
				"element": "C" 
			},
			{
				"x": -0.3537521951,
				"y": -5.2317822518,
				"z": -0.069503435,
				"element": "O" 
			},
			{
				"x": 0.7393603546,
				"y": -4.7405107134,
				"z": 1.8063124894,
				"element": "O" 
			},
			{
				"x": 0.7713387628,
				"y": 4.7192699906,
				"z": 1.2281423901,
				"element": "H" 
			},
			{
				"x": 0.5306223396,
				"y": 5.6096274433,
				"z": -0.2785564925,
				"element": "H" 
			},
			{
				"x": 1.9166720348,
				"y": 4.5276076772,
				"z": -0.1068997536,
				"element": "H" 
			},
			{
				"x": -1.0462852521,
				"y": 3.6563950664,
				"z": -0.1839260626,
				"element": "H" 
			},
			{
				"x": 0.0925785959,
				"y": 3.4666833405,
				"z": -1.5124374404,
				"element": "H" 
			},
			{
				"x": 1.4931415156,
				"y": 1.9438990624,
				"z": -0.1048854175,
				"element": "H" 
			},
			{
				"x": 0.3436156385,
				"y": 2.1373935077,
				"z": 1.2369015216,
				"element": "H" 
			},
			{
				"x": -2.4738982861,
				"y": -1.194228023,
				"z": -2.2058366904,
				"element": "H" 
			},
			{
				"x": -1.9497834148,
				"y": 0.3716277903,
				"z": -1.8492530222,
				"element": "H" 
			},
			{
				"x": -1.708049738,
				"y": -3.1048450544,
				"z": -0.8367879924,
				"element": "H" 
			},
			{
				"x": 1.6089904492,
				"y": -2.346662373,
				"z": 1.7960739623,
				"element": "H" 
			},
			{
				"x": 1.4408709399,
				"y": 0.0822566122,
				"z": 1.2884627598,
				"element": "H" 
			},
			{
				"x": -0.609157137,
				"y": -4.7719479344,
				"z": -0.8808815461,
				"element": "H" 
			}
		],
		 "valence_orbital": [ 
			{
				"type": "occ",
				"energy": -0.31966,
				"method": "rhf"
			},
			{
				"type": "occ",
				"energy": -0.29971,
				"method": "rhf"
			},
			{
				"type": "occ",
				"energy": -0.26053,
				"method": "rhf"
			},
			{
				"type": "occ",
				"energy": -0.24553,
				"method": "rhf"
			},
			{
				"type": "occ",
				"energy": -0.2041,
				"method": "rhf"
			},
			{
				"type": "unocc",
				"energy": -0.03099,
				"method": "rhf"
			},
			{
				"type": "unocc",
				"energy": -0.00065,
				"method": "rhf"
			},
			{
				"type": "unocc",
				"energy": 0.06492,
				"method": "rhf"
			},
			{
				"type": "unocc",
				"energy": 0.07111,
				"method": "rhf"
			},
			{
				"type": "unocc",
				"energy": 0.07798,
				"method": "rhf"
			}
		],
		"cosmo_sigma_profile": { 
			"-0.025": 0.0,
			"-0.024": 0.0,
			"-0.023": 0.0,
			"-0.022": 0.0,
			"-0.021": 0.0,
			"-0.02": 0.0,
			"-0.019": 0.0,
			"-0.018": 0.361419716191,
			"-0.017": 0.439980836178,
			"-0.016": 1.13225217018,
			"-0.015": 1.18336806339,
			"-0.014": 0.998371604963,
			"-0.013": 1.06343581585,
			"-0.012": 2.72922243579,
			"-0.011": 3.37095560503,
			"-0.01": 4.03882354969,
			"-0.009": 3.12173700359,
			"-0.008": 4.91183567117,
			"-0.007": 3.84661029391,
			"-0.006": 6.13666639057,
			"-0.005": 10.8520162793,
			"-0.004": 14.81796656,
			"-0.003": 22.1870012654,
			"-0.002": 20.1120177361,
			"-0.001": 19.5124096601,
			"0.0": 19.7184767836,
			"0.001": 17.0933689267,
			"0.002": 11.2694612668,
			"0.003": 10.9899004829,
			"0.004": 14.8012011942,
			"0.005": 11.2285679127,
			"0.006": 4.37934566047,
			"0.007": 3.48126917069,
			"0.008": 3.15847259578,
			"0.009": 4.19837658455,
			"0.01": 4.39998763498,
			"0.011": 6.02254831412,
			"0.012": 6.77763826189,
			"0.013": 3.69506635734,
			"0.014": 1.06283838542,
			"0.015": 0.000155275541944,
			"0.016": 0.0,
			"0.017": 0.0,
			"0.018": 0.0,
			"0.019": 0.0,
			"0.02": 0.0,
			"0.021": 0.0,
			"0.022": 0.0,
			"0.023": 0.0,
			"0.024": 0.0,
			"0.025": 0.0
		}
	}
}
