{
	 "smiles": "CC(=C)C=CC(C)=C", 
	 "Tm": 264.15, 
	 "num_atms": 20, 
	 "gaussian": { 
		 "optdone": 1, 
		 "sigma_profile": "yes", 
		 "theory": "DFT", 
		 "functional": "B3LYP", 
		 "basiset": "6-31G**", 
		 "properties": { 
			 "R2extent": 1612.6571, 
			 "electric_dipole_moment_norm": 0.615621766997, 
			 "electric_quadrupole_moment_norm": 3.48337503005, 
			 "total_energy": -312.040539083, 
			 "HOMO_LUMO_gap": 0.1707, 
			 "cosmo_polarized_energy": -3.19, 
			 "cosmo_cavitation_energy": 23.53, 
			 "cosmo_dispersion_energy": -16.33, 
			 "cosmo_repulsion_energy": 1.35, 
			 "cosmo_total_nonelectrostatic_energy": 8.55, 
			 "SMD_solvation_energy": 5.59 
		},
		"coords": [
			{
				"x": -0.4599451621,
				"y": 2.258331294,
				"z": 1.6106822867,
				"element": "C" 
			},
			{
				"x": -1.0215715071,
				"y": 0.9422837208,
				"z": 2.0943581022,
				"element": "C" 
			},
			{
				"x": -1.8401696827,
				"y": 0.8835847207,
				"z": 3.1614876973,
				"element": "C" 
			},
			{
				"x": -0.6669500051,
				"y": -0.2863914745,
				"z": 1.3833724313,
				"element": "C" 
			},
			{
				"x": 0.1450227117,
				"y": -0.3742363492,
				"z": 0.3096693068,
				"element": "C" 
			},
			{
				"x": 0.4846418047,
				"y": -1.6116034551,
				"z": -0.4141969093,
				"element": "C" 
			},
			{
				"x": 1.8394465818,
				"y": -1.6239401306,
				"z": -1.0867918323,
				"element": "C" 
			},
			{
				"x": -0.350409538,
				"y": -2.6605765216,
				"z": -0.5004739827,
				"element": "C" 
			},
			{
				"x": 0.6362982363,
				"y": 2.2544476166,
				"z": 1.635244465,
				"element": "H" 
			},
			{
				"x": -0.8094375268,
				"y": 3.0873298826,
				"z": 2.2306372739,
				"element": "H" 
			},
			{
				"x": -0.7554303286,
				"y": 2.4585285536,
				"z": 0.5740800979,
				"element": "H" 
			},
			{
				"x": -2.2466524897,
				"y": -0.0606500513,
				"z": 3.5129191853,
				"element": "H" 
			},
			{
				"x": -2.1282977428,
				"y": 1.774662452,
				"z": 3.7106453993,
				"element": "H" 
			},
			{
				"x": -1.1002999523,
				"y": -1.2016897953,
				"z": 1.7842980687,
				"element": "H" 
			},
			{
				"x": 0.630211283,
				"y": 0.5297849527,
				"z": -0.0571250577,
				"element": "H" 
			},
			{
				"x": 2.6462477945,
				"y": -1.4934993054,
				"z": -0.355164582,
				"element": "H" 
			},
			{
				"x": 2.0138366349,
				"y": -2.5581516436,
				"z": -1.6264752934,
				"element": "H" 
			},
			{
				"x": 1.9270711813,
				"y": -0.7963946009,
				"z": -1.8024383787,
				"element": "H" 
			},
			{
				"x": -1.345161223,
				"y": -2.6384817172,
				"z": -0.0665867052,
				"element": "H" 
			},
			{
				"x": -0.0640510699,
				"y": -3.5688381484,
				"z": -1.0222415733,
				"element": "H" 
			}
		],
		 "valence_orbital": [ 
			{
				"type": "occ",
				"energy": -0.34668,
				"method": "rhf"
			},
			{
				"type": "occ",
				"energy": -0.33282,
				"method": "rhf"
			},
			{
				"type": "occ",
				"energy": -0.30954,
				"method": "rhf"
			},
			{
				"type": "occ",
				"energy": -0.26353,
				"method": "rhf"
			},
			{
				"type": "occ",
				"energy": -0.20784,
				"method": "rhf"
			},
			{
				"type": "unocc",
				"energy": -0.03714,
				"method": "rhf"
			},
			{
				"type": "unocc",
				"energy": 0.04051,
				"method": "rhf"
			},
			{
				"type": "unocc",
				"energy": 0.09526,
				"method": "rhf"
			},
			{
				"type": "unocc",
				"energy": 0.10472,
				"method": "rhf"
			},
			{
				"type": "unocc",
				"energy": 0.11529,
				"method": "rhf"
			}
		],
		"cosmo_sigma_profile": { 
			"-0.025": 0.0,
			"-0.024": 0.0,
			"-0.023": 0.0,
			"-0.022": 0.0,
			"-0.021": 0.0,
			"-0.02": 0.0,
			"-0.019": 0.0,
			"-0.018": 0.0,
			"-0.017": 0.0,
			"-0.016": 0.0,
			"-0.015": 0.0,
			"-0.014": 0.0,
			"-0.013": 0.0,
			"-0.012": 0.0,
			"-0.011": 0.0,
			"-0.01": 0.0,
			"-0.009": 0.0,
			"-0.008": 0.0,
			"-0.007": 0.0,
			"-0.006": 0.0,
			"-0.005": 4.82456541718,
			"-0.004": 21.9450151246,
			"-0.003": 23.0501475181,
			"-0.002": 20.2406952165,
			"-0.001": 20.7358176159,
			"0.0": 22.9050411201,
			"0.001": 16.6238195373,
			"0.002": 11.6541954976,
			"0.003": 9.98167467774,
			"0.004": 10.4384104328,
			"0.005": 10.8147099638,
			"0.006": 9.63526430197,
			"0.007": 2.28097388239,
			"0.008": 0.0413286871084,
			"0.009": 0.0,
			"0.01": 0.0,
			"0.011": 0.0,
			"0.012": 0.0,
			"0.013": 0.0,
			"0.014": 0.0,
			"0.015": 0.0,
			"0.016": 0.0,
			"0.017": 0.0,
			"0.018": 0.0,
			"0.019": 0.0,
			"0.02": 0.0,
			"0.021": 0.0,
			"0.022": 0.0,
			"0.023": 0.0,
			"0.024": 0.0,
			"0.025": 0.0
		}
	}
}
