{
	 "smiles": "CC1(NC(=O)NC1=O)C1=CC=C(C=C1)S(N)(=O)=O", 
	 "Tm": 523.15, 
	 "num_atms": 29, 
	 "gaussian": { 
		 "optdone": 1, 
		 "sigma_profile": "yes", 
		 "theory": "DFT", 
		 "functional": "B3LYP", 
		 "basiset": "6-31G**", 
		 "properties": { 
			 "R2extent": 6430.1543, 
			 "electric_dipole_moment_norm": 1.64196816961, 
			 "electric_quadrupole_moment_norm": 28.849118517, 
			 "total_energy": -1251.00552098, 
			 "HOMO_LUMO_gap": 0.21639, 
			 "cosmo_polarized_energy": -27.26, 
			 "cosmo_cavitation_energy": 34.99, 
			 "cosmo_dispersion_energy": -25.49, 
			 "cosmo_repulsion_energy": 1.94, 
			 "cosmo_total_nonelectrostatic_energy": 11.43, 
			 "SMD_solvation_energy": 7.28 
		},
		"coords": [
			{
				"x": -2.5600490277,
				"y": 1.5552960572,
				"z": -1.9956177253,
				"element": "C" 
			},
			{
				"x": -1.1767500016,
				"y": 0.8732326671,
				"z": -1.9334399538,
				"element": "C" 
			},
			{
				"x": -0.1268557901,
				"y": 1.739780273,
				"z": -2.4654305706,
				"element": "N" 
			},
			{
				"x": 0.3989796035,
				"y": 1.3026234155,
				"z": -3.6600605521,
				"element": "C" 
			},
			{
				"x": 1.1898706296,
				"y": 1.8637452193,
				"z": -4.3861263897,
				"element": "O" 
			},
			{
				"x": -0.1799986137,
				"y": 0.0358291073,
				"z": -3.8825804133,
				"element": "N" 
			},
			{
				"x": -1.1400735309,
				"y": -0.2985372051,
				"z": -2.9562342545,
				"element": "C" 
			},
			{
				"x": -1.8372704355,
				"y": -1.2902468897,
				"z": -2.9443281584,
				"element": "O" 
			},
			{
				"x": -0.8720658312,
				"y": 0.3587809536,
				"z": -0.5213656967,
				"element": "C" 
			},
			{
				"x": 0.2205183338,
				"y": 0.8428385623,
				"z": 0.2064378913,
				"element": "C" 
			},
			{
				"x": 0.4674965571,
				"y": 0.3948840908,
				"z": 1.504189111,
				"element": "C" 
			},
			{
				"x": -0.3815355237,
				"y": -0.5549047177,
				"z": 2.0680192963,
				"element": "C" 
			},
			{
				"x": -1.4739035671,
				"y": -1.0565234297,
				"z": 1.3585502232,
				"element": "C" 
			},
			{
				"x": -1.7151749723,
				"y": -0.5975915622,
				"z": 0.06665549,
				"element": "C" 
			},
			{
				"x": -0.0712613511,
				"y": -1.1339028935,
				"z": 3.7358312314,
				"element": "S" 
			},
			{
				"x": 0.9010825539,
				"y": -2.502850589,
				"z": 3.5040656208,
				"element": "N" 
			},
			{
				"x": -1.3459583248,
				"y": -1.6018693528,
				"z": 4.2880794804,
				"element": "O" 
			},
			{
				"x": 0.7553389303,
				"y": -0.1269873915,
				"z": 4.4083654673,
				"element": "O" 
			},
			{
				"x": -2.5929291051,
				"y": 2.3998981883,
				"z": -1.3007319586,
				"element": "H" 
			},
			{
				"x": -3.3464741399,
				"y": 0.8505703307,
				"z": -1.7194117006,
				"element": "H" 
			},
			{
				"x": -2.7598952819,
				"y": 1.9203295698,
				"z": -3.0073983355,
				"element": "H" 
			},
			{
				"x": -0.0608657555,
				"y": 2.7221096446,
				"z": -2.2429656742,
				"element": "H" 
			},
			{
				"x": 0.0493761842,
				"y": -0.5266320531,
				"z": -4.6898104955,
				"element": "H" 
			},
			{
				"x": 0.8881269325,
				"y": 1.5691239915,
				"z": -0.2429533789,
				"element": "H" 
			},
			{
				"x": 1.2999603954,
				"y": 0.7861036614,
				"z": 2.0784867115,
				"element": "H" 
			},
			{
				"x": -2.1321326953,
				"y": -1.7843877416,
				"z": 1.8198780175,
				"element": "H" 
			},
			{
				"x": -2.5462006119,
				"y": -1.0039567998,
				"z": -0.4982332913,
				"element": "H" 
			},
			{
				"x": 1.8015787244,
				"y": -2.3553070156,
				"z": 3.9522413672,
				"element": "H" 
			},
			{
				"x": 0.4272657148,
				"y": -3.3189480909,
				"z": 3.8822886409,
				"element": "H" 
			}
		],
		 "valence_orbital": [ 
			{
				"type": "occ",
				"energy": -0.30009,
				"method": "rhf"
			},
			{
				"type": "occ",
				"energy": -0.28511,
				"method": "rhf"
			},
			{
				"type": "occ",
				"energy": -0.27776,
				"method": "rhf"
			},
			{
				"type": "occ",
				"energy": -0.27367,
				"method": "rhf"
			},
			{
				"type": "occ",
				"energy": -0.26443,
				"method": "rhf"
			},
			{
				"type": "unocc",
				"energy": -0.04804,
				"method": "rhf"
			},
			{
				"type": "unocc",
				"energy": -0.02622,
				"method": "rhf"
			},
			{
				"type": "unocc",
				"energy": -0.01719,
				"method": "rhf"
			},
			{
				"type": "unocc",
				"energy": 0.04548,
				"method": "rhf"
			},
			{
				"type": "unocc",
				"energy": 0.05044,
				"method": "rhf"
			}
		],
		"cosmo_sigma_profile": { 
			"-0.025": 0.0,
			"-0.024": 0.0,
			"-0.023": 0.0,
			"-0.022": 0.0,
			"-0.021": 0.0,
			"-0.02": 0.0,
			"-0.019": 0.0,
			"-0.018": 0.0,
			"-0.017": 0.708301054151,
			"-0.016": 1.76319282485,
			"-0.015": 3.13167822846,
			"-0.014": 4.17084835443,
			"-0.013": 5.3604935211,
			"-0.012": 3.29816825112,
			"-0.011": 4.16917032985,
			"-0.01": 5.06031487881,
			"-0.009": 3.72726834098,
			"-0.008": 4.63642683845,
			"-0.007": 8.18129054726,
			"-0.006": 15.3945851103,
			"-0.005": 16.6929306467,
			"-0.004": 17.0186354017,
			"-0.003": 14.5031612472,
			"-0.002": 17.6266176491,
			"-0.001": 16.4078694828,
			"0.0": 12.6811647314,
			"0.001": 13.0747353265,
			"0.002": 18.0282791982,
			"0.003": 12.1869563223,
			"0.004": 7.1411424415,
			"0.005": 4.17011649578,
			"0.006": 5.87425772731,
			"0.007": 5.75381419049,
			"0.008": 6.96351675163,
			"0.009": 7.47134742912,
			"0.01": 10.6879016182,
			"0.011": 16.0488445212,
			"0.012": 11.3558589782,
			"0.013": 4.65319630599,
			"0.014": 0.188538090775,
			"0.015": 0.0,
			"0.016": 0.0,
			"0.017": 0.0,
			"0.018": 0.0,
			"0.019": 0.0,
			"0.02": 0.0,
			"0.021": 0.0,
			"0.022": 0.0,
			"0.023": 0.0,
			"0.024": 0.0,
			"0.025": 0.0
		}
	}
}
