{
	 "smiles": "OC1=CC(=CC=C1)C(=O)NCC1=CC=CC=C1", 
	 "Tm": 414.15, 
	 "num_atms": 30, 
	 "gaussian": { 
		 "optdone": 1, 
		 "sigma_profile": "yes", 
		 "theory": "DFT", 
		 "functional": "B3LYP", 
		 "basiset": "6-31G**", 
		 "properties": { 
			 "R2extent": 5901.3165, 
			 "electric_dipole_moment_norm": 3.77273077889, 
			 "electric_quadrupole_moment_norm": 11.626325078, 
			 "total_energy": -746.540595494, 
			 "HOMO_LUMO_gap": 0.19305, 
			 "cosmo_polarized_energy": -17.79, 
			 "cosmo_cavitation_energy": 34.82, 
			 "cosmo_dispersion_energy": -24.86, 
			 "cosmo_repulsion_energy": 1.93, 
			 "cosmo_total_nonelectrostatic_energy": 11.9, 
			 "SMD_solvation_energy": 6.52 
		},
		"coords": [
			{
				"x": -1.2775345595,
				"y": 2.9423977959,
				"z": 2.7510422839,
				"element": "O" 
			},
			{
				"x": -2.0294387571,
				"y": 1.994179032,
				"z": 2.117019397,
				"element": "C" 
			},
			{
				"x": -1.4750782125,
				"y": 1.0474971437,
				"z": 1.2510395368,
				"element": "C" 
			},
			{
				"x": -2.2956803101,
				"y": 0.0881615964,
				"z": 0.6396757951,
				"element": "C" 
			},
			{
				"x": -3.6673322195,
				"y": 0.0726197269,
				"z": 0.9116674154,
				"element": "C" 
			},
			{
				"x": -4.2130505389,
				"y": 1.0283578043,
				"z": 1.7690253372,
				"element": "C" 
			},
			{
				"x": -3.4059593026,
				"y": 1.9906969575,
				"z": 2.3713346818,
				"element": "C" 
			},
			{
				"x": -1.7611379502,
				"y": -0.9615735665,
				"z": -0.2962590051,
				"element": "C" 
			},
			{
				"x": -2.3416829993,
				"y": -2.0294576797,
				"z": -0.4688211457,
				"element": "O" 
			},
			{
				"x": -0.5888613647,
				"y": -0.6498662974,
				"z": -0.9380094011,
				"element": "N" 
			},
			{
				"x": 0.0258569066,
				"y": -1.5527074739,
				"z": -1.9026482053,
				"element": "C" 
			},
			{
				"x": 1.5376607422,
				"y": -1.5668698859,
				"z": -1.794723953,
				"element": "C" 
			},
			{
				"x": 2.3340017832,
				"y": -1.3578861043,
				"z": -2.9257322705,
				"element": "C" 
			},
			{
				"x": 3.7277236214,
				"y": -1.3943566956,
				"z": -2.8354668747,
				"element": "C" 
			},
			{
				"x": 4.341725251,
				"y": -1.6354414312,
				"z": -1.6066125992,
				"element": "C" 
			},
			{
				"x": 3.5550511079,
				"y": -1.841669803,
				"z": -0.4696057676,
				"element": "C" 
			},
			{
				"x": 2.1646966192,
				"y": -1.8080165411,
				"z": -0.5635862932,
				"element": "C" 
			},
			{
				"x": -0.3500166672,
				"y": 2.8327011301,
				"z": 2.5047142625,
				"element": "H" 
			},
			{
				"x": -0.3983439682,
				"y": 1.0350368834,
				"z": 1.0941347993,
				"element": "H" 
			},
			{
				"x": -4.2797425216,
				"y": -0.6913890264,
				"z": 0.4470088763,
				"element": "H" 
			},
			{
				"x": -5.2795643114,
				"y": 1.023776657,
				"z": 1.9743310882,
				"element": "H" 
			},
			{
				"x": -3.8151050606,
				"y": 2.7360122612,
				"z": 3.0452972803,
				"element": "H" 
			},
			{
				"x": -0.2678110498,
				"y": 0.306480428,
				"z": -0.9222857123,
				"element": "H" 
			},
			{
				"x": -0.2695676165,
				"y": -1.2874120315,
				"z": -2.9269775639,
				"element": "H" 
			},
			{
				"x": -0.3998790785,
				"y": -2.539600122,
				"z": -1.6980521998,
				"element": "H" 
			},
			{
				"x": 1.8596576978,
				"y": -1.1663133709,
				"z": -3.8854095504,
				"element": "H" 
			},
			{
				"x": 4.3307915918,
				"y": -1.2300766727,
				"z": -3.7240105801,
				"element": "H" 
			},
			{
				"x": 5.4251075822,
				"y": -1.6622691389,
				"z": -1.5329005572,
				"element": "H" 
			},
			{
				"x": 4.0267840079,
				"y": -2.0330848366,
				"z": 0.4902605127,
				"element": "H" 
			},
			{
				"x": 1.5545295771,
				"y": -1.9681267387,
				"z": 0.3212504125,
				"element": "H" 
			}
		],
		 "valence_orbital": [ 
			{
				"type": "occ",
				"energy": -0.26238,
				"method": "rhf"
			},
			{
				"type": "occ",
				"energy": -0.25593,
				"method": "rhf"
			},
			{
				"type": "occ",
				"energy": -0.25337,
				"method": "rhf"
			},
			{
				"type": "occ",
				"energy": -0.23845,
				"method": "rhf"
			},
			{
				"type": "occ",
				"energy": -0.22778,
				"method": "rhf"
			},
			{
				"type": "unocc",
				"energy": -0.03473,
				"method": "rhf"
			},
			{
				"type": "unocc",
				"energy": -0.00947,
				"method": "rhf"
			},
			{
				"type": "unocc",
				"energy": -0.00515,
				"method": "rhf"
			},
			{
				"type": "unocc",
				"energy": 0.0031,
				"method": "rhf"
			},
			{
				"type": "unocc",
				"energy": 0.06167,
				"method": "rhf"
			}
		],
		"cosmo_sigma_profile": { 
			"-0.025": 0.0,
			"-0.024": 0.0,
			"-0.023": 0.0,
			"-0.022": 0.0,
			"-0.021": 0.0,
			"-0.02": 0.0,
			"-0.019": 0.0522992072371,
			"-0.018": 0.806807186097,
			"-0.017": 0.977067882673,
			"-0.016": 1.12982471269,
			"-0.015": 1.16141999067,
			"-0.014": 1.34664311396,
			"-0.013": 2.32023407347,
			"-0.012": 1.76131876371,
			"-0.011": 1.52304335105,
			"-0.01": 3.3980158937,
			"-0.009": 3.03071482908,
			"-0.008": 1.81092058711,
			"-0.007": 2.41654618305,
			"-0.006": 11.044925854,
			"-0.005": 19.9831261441,
			"-0.004": 22.7989358245,
			"-0.003": 21.8704775337,
			"-0.002": 17.8028831154,
			"-0.001": 17.064438975,
			"0.0": 17.1800537804,
			"0.001": 17.1210637057,
			"0.002": 16.7137909862,
			"0.003": 19.6275660692,
			"0.004": 20.7798523779,
			"0.005": 17.4704313487,
			"0.006": 10.5428738775,
			"0.007": 3.29398866464,
			"0.008": 2.70656449311,
			"0.009": 3.27244879179,
			"0.01": 3.41483144891,
			"0.011": 3.15202563266,
			"0.012": 2.48620442557,
			"0.013": 3.72299519591,
			"0.014": 3.80015399411,
			"0.015": 0.193614912459,
			"0.016": 0.0,
			"0.017": 0.0,
			"0.018": 0.0,
			"0.019": 0.0,
			"0.02": 0.0,
			"0.021": 0.0,
			"0.022": 0.0,
			"0.023": 0.0,
			"0.024": 0.0,
			"0.025": 0.0
		}
	}
}
