{
	 "smiles": "ClC(=O)C1=C(OC2=CC=C(Cl)C=C2)N=CC=C1", 
	 "Tm": 352.65, 
	 "num_atms": 24, 
	 "gaussian": { 
		 "optdone": 1, 
		 "sigma_profile": "yes", 
		 "theory": "DFT", 
		 "functional": "B3LYP", 
		 "basiset": "6-31G**", 
		 "properties": { 
			 "R2extent": 7318.3893, 
			 "electric_dipole_moment_norm": 4.01784129353, 
			 "electric_quadrupole_moment_norm": 21.269874576, 
			 "total_energy": -1587.07224984, 
			 "HOMO_LUMO_gap": 0.15786, 
			 "cosmo_polarized_energy": -11.2, 
			 "cosmo_cavitation_energy": 33.72, 
			 "cosmo_dispersion_energy": -24.36, 
			 "cosmo_repulsion_energy": 1.91, 
			 "cosmo_total_nonelectrostatic_energy": 11.27, 
			 "SMD_solvation_energy": 5.47 
		},
		"coords": [
			{
				"x": -1.6893721111,
				"y": 2.6123950848,
				"z": -4.1023693303,
				"element": "Cl" 
			},
			{
				"x": -0.7944907002,
				"y": 1.297587394,
				"z": -3.1472922134,
				"element": "C" 
			},
			{
				"x": 0.014844496,
				"y": 0.646184457,
				"z": -3.7274481821,
				"element": "O" 
			},
			{
				"x": -1.1983625429,
				"y": 1.2002029986,
				"z": -1.7289255752,
				"element": "C" 
			},
			{
				"x": -0.6143785261,
				"y": 0.2166330536,
				"z": -0.8769836603,
				"element": "C" 
			},
			{
				"x": 0.3144263758,
				"y": -0.6082192321,
				"z": -1.402065177,
				"element": "O" 
			},
			{
				"x": 0.871772656,
				"y": -1.6260933211,
				"z": -0.6238142992,
				"element": "C" 
			},
			{
				"x": 0.1441228919,
				"y": -2.7794035396,
				"z": -0.3406382771,
				"element": "C" 
			},
			{
				"x": 0.7589376558,
				"y": -3.8234224654,
				"z": 0.3475561622,
				"element": "C" 
			},
			{
				"x": 2.0938716397,
				"y": -3.696279283,
				"z": 0.7349245868,
				"element": "C" 
			},
			{
				"x": 2.8692804585,
				"y": -5.0143508303,
				"z": 1.6006608056,
				"element": "Cl" 
			},
			{
				"x": 2.8237490574,
				"y": -2.5450871983,
				"z": 0.4424118477,
				"element": "C" 
			},
			{
				"x": 2.2038681169,
				"y": -1.5005516928,
				"z": -0.2441307771,
				"element": "C" 
			},
			{
				"x": -0.9337797065,
				"y": 0.0804930781,
				"z": 0.4038332298,
				"element": "N" 
			},
			{
				"x": -1.8474876027,
				"y": 0.9045158925,
				"z": 0.9257379248,
				"element": "C" 
			},
			{
				"x": -2.488090366,
				"y": 1.9037997862,
				"z": 0.1967264093,
				"element": "C" 
			},
			{
				"x": -2.1520633763,
				"y": 2.0442252585,
				"z": -1.1452213823,
				"element": "C" 
			},
			{
				"x": -0.8900267824,
				"y": -2.8596100145,
				"z": -0.6564893749,
				"element": "H" 
			},
			{
				"x": 0.2096616428,
				"y": -4.7291278278,
				"z": 0.5783708146,
				"element": "H" 
			},
			{
				"x": 3.8617525281,
				"y": -2.4660656412,
				"z": 0.7448977926,
				"element": "H" 
			},
			{
				"x": 2.74835883,
				"y": -0.5961317692,
				"z": -0.4926755686,
				"element": "H" 
			},
			{
				"x": -2.0721406054,
				"y": 0.7534154634,
				"z": 1.9798091518,
				"element": "H" 
			},
			{
				"x": -3.2232800449,
				"y": 2.5492235458,
				"z": 0.6633181147,
				"element": "H" 
			},
			{
				"x": -2.6212739844,
				"y": 2.8057668026,
				"z": -1.7551930224,
				"element": "H" 
			}
		],
		 "valence_orbital": [ 
			{
				"type": "occ",
				"energy": -0.29851,
				"method": "rhf"
			},
			{
				"type": "occ",
				"energy": -0.28884,
				"method": "rhf"
			},
			{
				"type": "occ",
				"energy": -0.27356,
				"method": "rhf"
			},
			{
				"type": "occ",
				"energy": -0.26896,
				"method": "rhf"
			},
			{
				"type": "occ",
				"energy": -0.2454,
				"method": "rhf"
			},
			{
				"type": "unocc",
				"energy": -0.08754,
				"method": "rhf"
			},
			{
				"type": "unocc",
				"energy": -0.03697,
				"method": "rhf"
			},
			{
				"type": "unocc",
				"energy": -0.02295,
				"method": "rhf"
			},
			{
				"type": "unocc",
				"energy": -0.01626,
				"method": "rhf"
			},
			{
				"type": "unocc",
				"energy": 0.01111,
				"method": "rhf"
			}
		],
		"cosmo_sigma_profile": { 
			"-0.025": 0.0,
			"-0.024": 0.0,
			"-0.023": 0.0,
			"-0.022": 0.0,
			"-0.021": 0.0,
			"-0.02": 0.0,
			"-0.019": 0.0,
			"-0.018": 0.0,
			"-0.017": 0.0,
			"-0.016": 0.0,
			"-0.015": 0.0,
			"-0.014": 0.0,
			"-0.013": 0.0,
			"-0.012": 0.0,
			"-0.011": 0.0,
			"-0.01": 0.0,
			"-0.009": 0.207203791892,
			"-0.008": 9.17079689767,
			"-0.007": 15.0639118462,
			"-0.006": 14.0381480007,
			"-0.005": 12.1650107501,
			"-0.004": 15.3330098875,
			"-0.003": 19.6429796242,
			"-0.002": 18.8308879006,
			"-0.001": 19.7606874207,
			"0.0": 21.8000688793,
			"0.001": 24.0200986315,
			"0.002": 25.312666894,
			"0.003": 21.0332657985,
			"0.004": 18.6627797956,
			"0.005": 15.820418286,
			"0.006": 5.99462716197,
			"0.007": 4.44183695447,
			"0.008": 5.48739995008,
			"0.009": 5.63954786105,
			"0.01": 2.68276043376,
			"0.011": 1.47764092755,
			"0.012": 0.666412800125,
			"0.013": 0.0623053794447,
			"0.014": 0.0,
			"0.015": 0.0,
			"0.016": 0.0,
			"0.017": 0.0,
			"0.018": 0.0,
			"0.019": 0.0,
			"0.02": 0.0,
			"0.021": 0.0,
			"0.022": 0.0,
			"0.023": 0.0,
			"0.024": 0.0,
			"0.025": 0.0
		}
	}
}
