{
	 "smiles": "CSC1=NN2C(S1)=NN=C(C)C2=O", 
	 "Tm": 469.15, 
	 "num_atms": 19, 
	 "gaussian": { 
		 "optdone": 1, 
		 "sigma_profile": "yes", 
		 "theory": "DFT", 
		 "functional": "B3LYP", 
		 "basiset": "6-31G**", 
		 "properties": { 
			 "R2extent": 3405.4093, 
			 "electric_dipole_moment_norm": 3.90083522595, 
			 "electric_quadrupole_moment_norm": 10.524359533, 
			 "total_energy": -1322.7920347, 
			 "HOMO_LUMO_gap": 0.16912, 
			 "cosmo_polarized_energy": -14.09, 
			 "cosmo_cavitation_energy": 27.44, 
			 "cosmo_dispersion_energy": -21.23, 
			 "cosmo_repulsion_energy": 1.58, 
			 "cosmo_total_nonelectrostatic_energy": 7.8, 
			 "SMD_solvation_energy": 2.93 
		},
		"coords": [
			{
				"x": -2.132516117,
				"y": -2.9564339373,
				"z": 1.4049627486,
				"element": "C" 
			},
			{
				"x": -1.834172583,
				"y": -1.6774123265,
				"z": 2.6779560175,
				"element": "S" 
			},
			{
				"x": -0.9746550431,
				"y": -0.493206342,
				"z": 1.7146321279,
				"element": "C" 
			},
			{
				"x": -0.7062981668,
				"y": -0.6404439357,
				"z": 0.4577592649,
				"element": "N" 
			},
			{
				"x": -0.025112964,
				"y": 0.4607700798,
				"z": -0.0048495002,
				"element": "N" 
			},
			{
				"x": 0.2396478122,
				"y": 1.4722197741,
				"z": 0.8943472724,
				"element": "C" 
			},
			{
				"x": -0.4193364879,
				"y": 1.0175893179,
				"z": 2.4709635952,
				"element": "S" 
			},
			{
				"x": 0.8661136154,
				"y": 2.5765361634,
				"z": 0.6387754035,
				"element": "N" 
			},
			{
				"x": 1.3082867396,
				"y": 2.7551786647,
				"z": -0.6520475757,
				"element": "N" 
			},
			{
				"x": 1.1012602812,
				"y": 1.8478639979,
				"z": -1.5703001141,
				"element": "C" 
			},
			{
				"x": 1.6077645076,
				"y": 2.1015447693,
				"z": -2.9582944518,
				"element": "C" 
			},
			{
				"x": 0.3968660848,
				"y": 0.5683594669,
				"z": -1.3535407434,
				"element": "C" 
			},
			{
				"x": 0.1878347057,
				"y": -0.2950501737,
				"z": -2.1830412711,
				"element": "O" 
			},
			{
				"x": -2.6738685055,
				"y": -3.7534862099,
				"z": 1.917476006,
				"element": "H" 
			},
			{
				"x": -1.1855994974,
				"y": -3.3299620843,
				"z": 1.0154098447,
				"element": "H" 
			},
			{
				"x": -2.7353076525,
				"y": -2.5486524748,
				"z": 0.5936132882,
				"element": "H" 
			},
			{
				"x": 2.1063146056,
				"y": 3.0705532864,
				"z": -2.9938172197,
				"element": "H" 
			},
			{
				"x": 2.3050138923,
				"y": 1.3135918558,
				"z": -3.2626234528,
				"element": "H" 
			},
			{
				"x": 0.7822647728,
				"y": 2.0818401081,
				"z": -3.6778812402,
				"element": "H" 
			}
		],
		 "valence_orbital": [ 
			{
				"type": "occ",
				"energy": -0.32561,
				"method": "rhf"
			},
			{
				"type": "occ",
				"energy": -0.28844,
				"method": "rhf"
			},
			{
				"type": "occ",
				"energy": -0.26996,
				"method": "rhf"
			},
			{
				"type": "occ",
				"energy": -0.25073,
				"method": "rhf"
			},
			{
				"type": "occ",
				"energy": -0.24213,
				"method": "rhf"
			},
			{
				"type": "unocc",
				"energy": -0.07301,
				"method": "rhf"
			},
			{
				"type": "unocc",
				"energy": -0.03686,
				"method": "rhf"
			},
			{
				"type": "unocc",
				"energy": -0.02847,
				"method": "rhf"
			},
			{
				"type": "unocc",
				"energy": -0.02195,
				"method": "rhf"
			},
			{
				"type": "unocc",
				"energy": -0.00244,
				"method": "rhf"
			}
		],
		"cosmo_sigma_profile": { 
			"-0.025": 0.0,
			"-0.024": 0.0,
			"-0.023": 0.0,
			"-0.022": 0.0,
			"-0.021": 0.0,
			"-0.02": 0.0,
			"-0.019": 0.0,
			"-0.018": 0.0,
			"-0.017": 0.0,
			"-0.016": 0.0,
			"-0.015": 0.0,
			"-0.014": 0.0,
			"-0.013": 0.0,
			"-0.012": 0.0,
			"-0.011": 0.0,
			"-0.01": 0.0,
			"-0.009": 1.51834324874,
			"-0.008": 5.87000075027,
			"-0.007": 9.51503675526,
			"-0.006": 12.856893711,
			"-0.005": 16.8696634009,
			"-0.004": 20.5458905917,
			"-0.003": 24.4160448658,
			"-0.002": 22.4695294756,
			"-0.001": 19.7888851229,
			"0.0": 13.200762976,
			"0.001": 11.1300736402,
			"0.002": 6.90247287117,
			"0.003": 7.28473786828,
			"0.004": 6.963816872,
			"0.005": 5.56706360584,
			"0.006": 4.0140971051,
			"0.007": 3.59895956854,
			"0.008": 3.4607371938,
			"0.009": 4.15909882234,
			"0.01": 4.2602769644,
			"0.011": 7.50395358783,
			"0.012": 7.09461661436,
			"0.013": 3.68328841236,
			"0.014": 2.05461174347,
			"0.015": 0.196520302176,
			"0.016": 0.0,
			"0.017": 0.0,
			"0.018": 0.0,
			"0.019": 0.0,
			"0.02": 0.0,
			"0.021": 0.0,
			"0.022": 0.0,
			"0.023": 0.0,
			"0.024": 0.0,
			"0.025": 0.0
		}
	}
}
