{
	 "smiles": "OC1CCC(CC1)N1C(=O)C2=C(C=CC=C2)C1=O", 
	 "Tm": 448.15, 
	 "num_atms": 33, 
	 "gaussian": { 
		 "optdone": 1, 
		 "sigma_profile": "yes", 
		 "theory": "DFT", 
		 "functional": "B3LYP", 
		 "basiset": "6-31G**", 
		 "properties": { 
			 "R2extent": 5917.8237, 
			 "electric_dipole_moment_norm": 4.07446562263, 
			 "electric_quadrupole_moment_norm": 18.3377110336, 
			 "total_energy": -822.988342118, 
			 "HOMO_LUMO_gap": 0.16849, 
			 "cosmo_polarized_energy": -13.67, 
			 "cosmo_cavitation_energy": 34.25, 
			 "cosmo_dispersion_energy": -25.02, 
			 "cosmo_repulsion_energy": 1.89, 
			 "cosmo_total_nonelectrostatic_energy": 11.12, 
			 "SMD_solvation_energy": 5.99 
		},
		"coords": [
			{
				"x": -2.8747812372,
				"y": -0.1218818662,
				"z": -1.9605799416,
				"element": "O" 
			},
			{
				"x": -1.6168891185,
				"y": 0.5406672335,
				"z": -1.7837448591,
				"element": "C" 
			},
			{
				"x": -0.4349481005,
				"y": -0.3357473317,
				"z": -2.2297367687,
				"element": "C" 
			},
			{
				"x": -0.2003822794,
				"y": -1.5200939388,
				"z": -1.2767621465,
				"element": "C" 
			},
			{
				"x": -0.1003147458,
				"y": -1.1499424854,
				"z": 0.2214831587,
				"element": "C" 
			},
			{
				"x": -1.1943878117,
				"y": -0.1398352712,
				"z": 0.6393621433,
				"element": "C" 
			},
			{
				"x": -1.4179992025,
				"y": 1.0263726802,
				"z": -0.3386617109,
				"element": "C" 
			},
			{
				"x": 1.2631753774,
				"y": -0.7758671885,
				"z": 0.6589203875,
				"element": "N" 
			},
			{
				"x": 2.0550804583,
				"y": 0.3224285057,
				"z": 0.2803433513,
				"element": "C" 
			},
			{
				"x": 1.7602348163,
				"y": 1.2041484382,
				"z": -0.5056317147,
				"element": "O" 
			},
			{
				"x": 3.3357554265,
				"y": 0.1913459345,
				"z": 1.0367751885,
				"element": "C" 
			},
			{
				"x": 3.2691686084,
				"y": -0.9551185458,
				"z": 1.8252104638,
				"element": "C" 
			},
			{
				"x": 4.3216679026,
				"y": -1.3382656063,
				"z": 2.6444706097,
				"element": "C" 
			},
			{
				"x": 5.4609985011,
				"y": -0.5228184363,
				"z": 2.6483845643,
				"element": "C" 
			},
			{
				"x": 5.5281892583,
				"y": 0.6306929152,
				"z": 1.8552533507,
				"element": "C" 
			},
			{
				"x": 4.4583701874,
				"y": 1.0066369811,
				"z": 1.0321719935,
				"element": "C" 
			},
			{
				"x": 1.9431521127,
				"y": -1.5915682068,
				"z": 1.5961949827,
				"element": "C" 
			},
			{
				"x": 1.4979089201,
				"y": -2.6066763316,
				"z": 2.0943949797,
				"element": "O" 
			},
			{
				"x": -2.8872273296,
				"y": -0.9068827803,
				"z": -1.3989369455,
				"element": "H" 
			},
			{
				"x": -1.6821699696,
				"y": 1.4114013,
				"z": -2.4448078081,
				"element": "H" 
			},
			{
				"x": -0.6333047743,
				"y": -0.7143163146,
				"z": -3.2386520302,
				"element": "H" 
			},
			{
				"x": 0.4611897479,
				"y": 0.2886875605,
				"z": -2.2737785798,
				"element": "H" 
			},
			{
				"x": 0.6876351235,
				"y": -2.0883238694,
				"z": -1.5732204446,
				"element": "H" 
			},
			{
				"x": -1.0417184704,
				"y": -2.2217951065,
				"z": -1.3676925745,
				"element": "H" 
			},
			{
				"x": -0.2649085284,
				"y": -2.0655739383,
				"z": 0.7956277612,
				"element": "H" 
			},
			{
				"x": -0.9826386021,
				"y": 0.2327196302,
				"z": 1.6471852534,
				"element": "H" 
			},
			{
				"x": -2.1281370745,
				"y": -0.713141593,
				"z": 0.7286434144,
				"element": "H" 
			},
			{
				"x": -2.3016542281,
				"y": 1.595823704,
				"z": -0.0296844628,
				"element": "H" 
			},
			{
				"x": -0.5575251501,
				"y": 1.7000662979,
				"z": -0.3158500981,
				"element": "H" 
			},
			{
				"x": 4.2575398226,
				"y": -2.2337551215,
				"z": 3.253982827,
				"element": "H" 
			},
			{
				"x": 6.3072640215,
				"y": -0.7868921276,
				"z": 3.2754914508,
				"element": "H" 
			},
			{
				"x": 6.4255182941,
				"y": 1.2417404936,
				"z": 1.8807501336,
				"element": "H" 
			},
			{
				"x": 4.4980380438,
				"y": 1.8972643851,
				"z": 0.413494071,
				"element": "H" 
			}
		],
		 "valence_orbital": [ 
			{
				"type": "occ",
				"energy": -0.2855,
				"method": "rhf"
			},
			{
				"type": "occ",
				"energy": -0.28027,
				"method": "rhf"
			},
			{
				"type": "occ",
				"energy": -0.27083,
				"method": "rhf"
			},
			{
				"type": "occ",
				"energy": -0.26658,
				"method": "rhf"
			},
			{
				"type": "occ",
				"energy": -0.25327,
				"method": "rhf"
			},
			{
				"type": "unocc",
				"energy": -0.08478,
				"method": "rhf"
			},
			{
				"type": "unocc",
				"energy": -0.0439,
				"method": "rhf"
			},
			{
				"type": "unocc",
				"energy": 0.02485,
				"method": "rhf"
			},
			{
				"type": "unocc",
				"energy": 0.05752,
				"method": "rhf"
			},
			{
				"type": "unocc",
				"energy": 0.06992,
				"method": "rhf"
			}
		],
		"cosmo_sigma_profile": { 
			"-0.025": 0.0,
			"-0.024": 0.0,
			"-0.023": 0.0,
			"-0.022": 0.0,
			"-0.021": 0.0,
			"-0.02": 0.0,
			"-0.019": 0.0,
			"-0.018": 0.0,
			"-0.017": 0.0,
			"-0.016": 0.0,
			"-0.015": 0.0,
			"-0.014": 0.240433728149,
			"-0.013": 1.41368444004,
			"-0.012": 1.1558649836,
			"-0.011": 1.13916888076,
			"-0.01": 1.01063591759,
			"-0.009": 0.769659942585,
			"-0.008": 2.44913017826,
			"-0.007": 9.71019099459,
			"-0.006": 10.934661896,
			"-0.005": 13.854673984,
			"-0.004": 18.3036433721,
			"-0.003": 26.6073642515,
			"-0.002": 23.8458581201,
			"-0.001": 30.4961731233,
			"0.0": 30.9425247884,
			"0.001": 21.687127081,
			"0.002": 18.1924696575,
			"0.003": 8.69322917647,
			"0.004": 4.84441831837,
			"0.005": 4.80010252315,
			"0.006": 4.36773264066,
			"0.007": 3.55687096872,
			"0.008": 4.20521844599,
			"0.009": 4.71986618406,
			"0.01": 6.06834490389,
			"0.011": 7.47750541578,
			"0.012": 3.60974221249,
			"0.013": 1.49061548296,
			"0.014": 2.1842018768,
			"0.015": 1.78171636028,
			"0.016": 0.0105082609736,
			"0.017": 0.0,
			"0.018": 0.0,
			"0.019": 0.0,
			"0.02": 0.0,
			"0.021": 0.0,
			"0.022": 0.0,
			"0.023": 0.0,
			"0.024": 0.0,
			"0.025": 0.0
		}
	}
}
