{
	 "smiles": "O[C@H]1[C@@H]2O[C@H]3O[C@@H]([C@@H]2O)[C@H](OC(=O)C2=CC=CC=C2)[C@@H]1O3", 
	 "Tm": 482.0, 
	 "num_atms": 35, 
	 "gaussian": { 
		 "optdone": 1, 
		 "sigma_profile": "yes", 
		 "theory": "DFT", 
		 "functional": "B3LYP", 
		 "basiset": "6-31G**", 
		 "properties": { 
			 "R2extent": 7109.889, 
			 "electric_dipole_moment_norm": 2.32861815247, 
			 "electric_quadrupole_moment_norm": 13.9726246618, 
			 "total_energy": -1068.47290126, 
			 "HOMO_LUMO_gap": 0.19952, 
			 "cosmo_polarized_energy": -17.52, 
			 "cosmo_cavitation_energy": 36.46, 
			 "cosmo_dispersion_energy": -27.22, 
			 "cosmo_repulsion_energy": 2.04, 
			 "cosmo_total_nonelectrostatic_energy": 11.29, 
			 "SMD_solvation_energy": 6.11 
		},
		"coords": [
			{
				"x": 3.4243773589,
				"y": 0.9426541583,
				"z": -2.1685780395,
				"element": "O" 
			},
			{
				"x": 3.3395688222,
				"y": 0.5973540781,
				"z": -0.7844382594,
				"element": "C" 
			},
			{
				"x": 3.039412878,
				"y": 1.8791660747,
				"z": 0.0165951047,
				"element": "C" 
			},
			{
				"x": 2.981665485,
				"y": 1.5042354213,
				"z": 1.4044831555,
				"element": "O" 
			},
			{
				"x": 1.9522183305,
				"y": 0.5667934744,
				"z": 1.6361172829,
				"element": "C" 
			},
			{
				"x": 0.6916961342,
				"y": 1.0953278996,
				"z": 1.323668888,
				"element": "O" 
			},
			{
				"x": 0.6032610705,
				"y": 1.4362072827,
				"z": -0.0742581052,
				"element": "C" 
			},
			{
				"x": 1.6823277428,
				"y": 2.5046307233,
				"z": -0.3718643307,
				"element": "C" 
			},
			{
				"x": 1.6300206835,
				"y": 2.9873959516,
				"z": -1.6974865228,
				"element": "O" 
			},
			{
				"x": 0.8554524289,
				"y": 0.1918041409,
				"z": -0.924020365,
				"element": "C" 
			},
			{
				"x": -0.2212126366,
				"y": -0.7332123407,
				"z": -0.7062045217,
				"element": "O" 
			},
			{
				"x": -0.3640028709,
				"y": -1.7078271723,
				"z": -1.6380493144,
				"element": "C" 
			},
			{
				"x": 0.3778822318,
				"y": -1.8193261339,
				"z": -2.5986448072,
				"element": "O" 
			},
			{
				"x": -1.5145982114,
				"y": -2.6044088479,
				"z": -1.3492387036,
				"element": "C" 
			},
			{
				"x": -2.3076668369,
				"y": -2.4545791106,
				"z": -0.2022664841,
				"element": "C" 
			},
			{
				"x": -3.3732043282,
				"y": -3.3249573132,
				"z": 0.0200511299,
				"element": "C" 
			},
			{
				"x": -3.6514824008,
				"y": -4.3419789829,
				"z": -0.8967679474,
				"element": "C" 
			},
			{
				"x": -2.8615219339,
				"y": -4.4925665655,
				"z": -2.0400335039,
				"element": "C" 
			},
			{
				"x": -1.7944377262,
				"y": -3.627297718,
				"z": -2.2662463812,
				"element": "C" 
			},
			{
				"x": 2.2024298647,
				"y": -0.4011405202,
				"z": -0.4816198298,
				"element": "C" 
			},
			{
				"x": 2.1961627775,
				"y": -0.6317449641,
				"z": 0.9338218622,
				"element": "O" 
			},
			{
				"x": 3.4825184465,
				"y": 0.1340455533,
				"z": -2.6959161946,
				"element": "H" 
			},
			{
				"x": 4.2845145122,
				"y": 0.1710265081,
				"z": -0.4245990309,
				"element": "H" 
			},
			{
				"x": 3.849542982,
				"y": 2.6050807547,
				"z": -0.0894848357,
				"element": "H" 
			},
			{
				"x": 1.9611518599,
				"y": 0.3304970949,
				"z": 2.6990800379,
				"element": "H" 
			},
			{
				"x": -0.4021805013,
				"y": 1.8287417762,
				"z": -0.2390599936,
				"element": "H" 
			},
			{
				"x": 1.4988173408,
				"y": 3.3496968161,
				"z": 0.2995526586,
				"element": "H" 
			},
			{
				"x": 2.1821851188,
				"y": 2.4052300564,
				"z": -2.2445688476,
				"element": "H" 
			},
			{
				"x": 0.8906803711,
				"y": 0.4520940842,
				"z": -1.9832592383,
				"element": "H" 
			},
			{
				"x": -2.0815971102,
				"y": -1.6642962633,
				"z": 0.5042662122,
				"element": "H" 
			},
			{
				"x": -3.9867355038,
				"y": -3.2107835808,
				"z": 0.908726589,
				"element": "H" 
			},
			{
				"x": -4.4834930425,
				"y": -5.0177690311,
				"z": -0.7200064827,
				"element": "H" 
			},
			{
				"x": -3.0784018268,
				"y": -5.2835603413,
				"z": -2.7517384843,
				"element": "H" 
			},
			{
				"x": -1.165860705,
				"y": -3.7239051502,
				"z": -3.1450056156,
				"element": "H" 
			},
			{
				"x": 2.3758091946,
				"y": -1.3704278126,
				"z": -0.9557070818,
				"element": "H" 
			}
		],
		 "valence_orbital": [ 
			{
				"type": "occ",
				"energy": -0.27759,
				"method": "rhf"
			},
			{
				"type": "occ",
				"energy": -0.27183,
				"method": "rhf"
			},
			{
				"type": "occ",
				"energy": -0.263,
				"method": "rhf"
			},
			{
				"type": "occ",
				"energy": -0.26203,
				"method": "rhf"
			},
			{
				"type": "occ",
				"energy": -0.25133,
				"method": "rhf"
			},
			{
				"type": "unocc",
				"energy": -0.05181,
				"method": "rhf"
			},
			{
				"type": "unocc",
				"energy": -0.01117,
				"method": "rhf"
			},
			{
				"type": "unocc",
				"energy": 0.03748,
				"method": "rhf"
			},
			{
				"type": "unocc",
				"energy": 0.05191,
				"method": "rhf"
			},
			{
				"type": "unocc",
				"energy": 0.08115,
				"method": "rhf"
			}
		],
		"cosmo_sigma_profile": { 
			"-0.025": 0.0,
			"-0.024": 0.0,
			"-0.023": 0.0,
			"-0.022": 0.0,
			"-0.021": 0.0,
			"-0.02": 0.0,
			"-0.019": 0.0,
			"-0.018": 0.486188284363,
			"-0.017": 1.04724935172,
			"-0.016": 1.10731565138,
			"-0.015": 0.61274652199,
			"-0.014": 1.13075681368,
			"-0.013": 0.94797536585,
			"-0.012": 0.614721601598,
			"-0.011": 1.31847332081,
			"-0.01": 1.45031320892,
			"-0.009": 2.50369143938,
			"-0.008": 4.19280480506,
			"-0.007": 9.73719295129,
			"-0.006": 23.3359826781,
			"-0.005": 24.527812096,
			"-0.004": 21.7715156067,
			"-0.003": 16.7773696267,
			"-0.002": 15.8626554119,
			"-0.001": 14.5927440466,
			"0.0": 15.3538992019,
			"0.001": 19.0648768512,
			"0.002": 16.2735715552,
			"0.003": 18.2308189882,
			"0.004": 17.8683772335,
			"0.005": 7.14260509539,
			"0.006": 6.21653277884,
			"0.007": 8.13672477591,
			"0.008": 7.01768089848,
			"0.009": 9.56031645853,
			"0.01": 7.26034841911,
			"0.011": 8.27264353863,
			"0.012": 2.89595795591,
			"0.013": 1.81983764061,
			"0.014": 1.18311450451,
			"0.015": 0.0,
			"0.016": 0.0,
			"0.017": 0.0,
			"0.018": 0.0,
			"0.019": 0.0,
			"0.02": 0.0,
			"0.021": 0.0,
			"0.022": 0.0,
			"0.023": 0.0,
			"0.024": 0.0,
			"0.025": 0.0
		}
	}
}
