{
	 "smiles": "ClC1=CC=C(C=C1)C(Cl)(Cl)Cl", 
	 "Tm": 278.95, 
	 "num_atms": 15, 
	 "gaussian": { 
		 "optdone": 1, 
		 "sigma_profile": "yes", 
		 "theory": "DFT", 
		 "functional": "B3LYP", 
		 "basiset": "6-31G**", 
		 "properties": { 
			 "R2extent": 3651.2147, 
			 "electric_dipole_moment_norm": 0.923550540036, 
			 "electric_quadrupole_moment_norm": 7.87309926395, 
			 "total_energy": -2109.90741695, 
			 "HOMO_LUMO_gap": 0.20475, 
			 "cosmo_polarized_energy": -4.23, 
			 "cosmo_cavitation_energy": 26.11, 
			 "cosmo_dispersion_energy": -19.57, 
			 "cosmo_repulsion_energy": 1.57, 
			 "cosmo_total_nonelectrostatic_energy": 8.11, 
			 "SMD_solvation_energy": 3.18 
		},
		"coords": [
			{
				"x": 3.1511899478,
				"y": -0.0845416029,
				"z": 2.9486507863,
				"element": "Cl" 
			},
			{
				"x": 2.0587320723,
				"y": 0.0309227717,
				"z": 1.5832402712,
				"element": "C" 
			},
			{
				"x": 2.4812904811,
				"y": 0.6536351879,
				"z": 0.4130774892,
				"element": "C" 
			},
			{
				"x": 1.60738869,
				"y": 0.7426802347,
				"z": -0.6719144311,
				"element": "C" 
			},
			{
				"x": 0.3172850092,
				"y": 0.2127350066,
				"z": -0.5912767961,
				"element": "C" 
			},
			{
				"x": -0.0896005549,
				"y": -0.4110485337,
				"z": 0.599353964,
				"element": "C" 
			},
			{
				"x": 0.7725374412,
				"y": -0.5046963947,
				"z": 1.6846131624,
				"element": "C" 
			},
			{
				"x": -0.675442085,
				"y": 0.2847607844,
				"z": -1.739931223,
				"element": "C" 
			},
			{
				"x": -0.0152723233,
				"y": 1.0887747514,
				"z": -3.2096167584,
				"element": "Cl" 
			},
			{
				"x": -2.1545304328,
				"y": 1.2063334025,
				"z": -1.2244334239,
				"element": "Cl" 
			},
			{
				"x": -1.1985577657,
				"y": -1.3889240139,
				"z": -2.2163529551,
				"element": "Cl" 
			},
			{
				"x": 3.4813390035,
				"y": 1.0662956762,
				"z": 0.3444542861,
				"element": "H" 
			},
			{
				"x": 1.9444109355,
				"y": 1.228904699,
				"z": -1.5782358411,
				"element": "H" 
			},
			{
				"x": -1.0879013935,
				"y": -0.8272534641,
				"z": 0.6792142378,
				"element": "H" 
			},
			{
				"x": 0.4535309746,
				"y": -0.9876785052,
				"z": 2.6011572316,
				"element": "H" 
			}
		],
		 "valence_orbital": [ 
			{
				"type": "occ",
				"energy": -0.32174,
				"method": "rhf"
			},
			{
				"type": "occ",
				"energy": -0.32091,
				"method": "rhf"
			},
			{
				"type": "occ",
				"energy": -0.31042,
				"method": "rhf"
			},
			{
				"type": "occ",
				"energy": -0.28219,
				"method": "rhf"
			},
			{
				"type": "occ",
				"energy": -0.26252,
				"method": "rhf"
			},
			{
				"type": "unocc",
				"energy": -0.05777,
				"method": "rhf"
			},
			{
				"type": "unocc",
				"energy": -0.04818,
				"method": "rhf"
			},
			{
				"type": "unocc",
				"energy": -0.03128,
				"method": "rhf"
			},
			{
				"type": "unocc",
				"energy": -0.00871,
				"method": "rhf"
			},
			{
				"type": "unocc",
				"energy": 0.0177,
				"method": "rhf"
			}
		],
		"cosmo_sigma_profile": { 
			"-0.025": 0.0,
			"-0.024": 0.0,
			"-0.023": 0.0,
			"-0.022": 0.0,
			"-0.021": 0.0,
			"-0.02": 0.0,
			"-0.019": 0.0,
			"-0.018": 0.0,
			"-0.017": 0.0,
			"-0.016": 0.0,
			"-0.015": 0.0,
			"-0.014": 0.0,
			"-0.013": 0.0,
			"-0.012": 0.0,
			"-0.011": 0.0,
			"-0.01": 0.0,
			"-0.009": 0.0701494844066,
			"-0.008": 4.18385146977,
			"-0.007": 7.33051642933,
			"-0.006": 6.727176633,
			"-0.005": 6.50766030898,
			"-0.004": 9.18978960915,
			"-0.003": 12.5922040079,
			"-0.002": 15.1473674334,
			"-0.001": 17.5987206788,
			"0.0": 21.4522935865,
			"0.001": 28.8326542857,
			"0.002": 36.2878960692,
			"0.003": 34.4773315814,
			"0.004": 16.9631068724,
			"0.005": 1.39399133708,
			"0.006": 0.0,
			"0.007": 0.0,
			"0.008": 0.0,
			"0.009": 0.0,
			"0.01": 0.0,
			"0.011": 0.0,
			"0.012": 0.0,
			"0.013": 0.0,
			"0.014": 0.0,
			"0.015": 0.0,
			"0.016": 0.0,
			"0.017": 0.0,
			"0.018": 0.0,
			"0.019": 0.0,
			"0.02": 0.0,
			"0.021": 0.0,
			"0.022": 0.0,
			"0.023": 0.0,
			"0.024": 0.0,
			"0.025": 0.0
		}
	}
}
