{
	 "smiles": "COC1=CC=C(C=C1)C1=NC2=C(S1)C(=O)CCC2", 
	 "Tm": 386.15, 
	 "num_atms": 31, 
	 "gaussian": { 
		 "optdone": 1, 
		 "sigma_profile": "yes", 
		 "theory": "DFT", 
		 "functional": "B3LYP", 
		 "basiset": "6-31G**", 
		 "properties": { 
			 "R2extent": 7437.3833, 
			 "electric_dipole_moment_norm": 3.43807861748, 
			 "electric_quadrupole_moment_norm": 25.7949042627, 
			 "total_energy": -1144.7179086, 
			 "HOMO_LUMO_gap": 0.14256, 
			 "cosmo_polarized_energy": -12.75, 
			 "cosmo_cavitation_energy": 35.94, 
			 "cosmo_dispersion_energy": -27.19, 
			 "cosmo_repulsion_energy": 2.04, 
			 "cosmo_total_nonelectrostatic_energy": 10.8, 
			 "SMD_solvation_energy": 5.13 
		},
		"coords": [
			{
				"x": -1.1309882855,
				"y": -5.699617489,
				"z": -1.9712022033,
				"element": "C" 
			},
			{
				"x": -1.5718199186,
				"y": -5.1049229962,
				"z": -0.7581457851,
				"element": "O" 
			},
			{
				"x": -1.2784885347,
				"y": -3.7975300122,
				"z": -0.5317738936,
				"element": "C" 
			},
			{
				"x": -1.7423874214,
				"y": -3.2696346,
				"z": 0.6858926328,
				"element": "C" 
			},
			{
				"x": -1.4964796379,
				"y": -1.9481091515,
				"z": 1.0126229035,
				"element": "C" 
			},
			{
				"x": -0.7789162751,
				"y": -1.1070906998,
				"z": 0.1355647097,
				"element": "C" 
			},
			{
				"x": -0.3224296094,
				"y": -1.6467270513,
				"z": -1.0753726471,
				"element": "C" 
			},
			{
				"x": -0.5640863588,
				"y": -2.9758925714,
				"z": -1.4149414257,
				"element": "C" 
			},
			{
				"x": -0.537723833,
				"y": 0.2840623378,
				"z": 0.5168400938,
				"element": "C" 
			},
			{
				"x": -0.9648872661,
				"y": 0.8045557518,
				"z": 1.6512637392,
				"element": "N" 
			},
			{
				"x": -0.6123043325,
				"y": 2.1167926866,
				"z": 1.7599567909,
				"element": "C" 
			},
			{
				"x": 0.1052705735,
				"y": 2.6377914357,
				"z": 0.701044121,
				"element": "C" 
			},
			{
				"x": 0.3481173466,
				"y": 1.4107321975,
				"z": -0.5113522688,
				"element": "S" 
			},
			{
				"x": 0.6119978119,
				"y": 4.0052198321,
				"z": 0.6164633446,
				"element": "C" 
			},
			{
				"x": 1.2375535224,
				"y": 4.4338865954,
				"z": -0.3441959095,
				"element": "O" 
			},
			{
				"x": 0.3299867032,
				"y": 4.8511197814,
				"z": 1.8607423944,
				"element": "C" 
			},
			{
				"x": -0.957407031,
				"y": 4.4457344145,
				"z": 2.5984968936,
				"element": "C" 
			},
			{
				"x": -0.9731393464,
				"y": 2.9496205902,
				"z": 2.9576611068,
				"element": "C" 
			},
			{
				"x": -1.4723217073,
				"y": -6.7350242538,
				"z": -1.9387691562,
				"element": "H" 
			},
			{
				"x": -0.0371734461,
				"y": -5.681829831,
				"z": -2.0545949985,
				"element": "H" 
			},
			{
				"x": -1.5678068896,
				"y": -5.2020600393,
				"z": -2.846040973,
				"element": "H" 
			},
			{
				"x": -2.293266678,
				"y": -3.9222849148,
				"z": 1.3550119839,
				"element": "H" 
			},
			{
				"x": -1.8520431607,
				"y": -1.5360484208,
				"z": 1.9501911098,
				"element": "H" 
			},
			{
				"x": 0.2329131696,
				"y": -1.0266761406,
				"z": -1.7736398545,
				"element": "H" 
			},
			{
				"x": -0.1957101464,
				"y": -3.3572552359,
				"z": -2.3594090746,
				"element": "H" 
			},
			{
				"x": 1.1964648543,
				"y": 4.733022623,
				"z": 2.5284135512,
				"element": "H" 
			},
			{
				"x": 0.3116224449,
				"y": 5.8997823786,
				"z": 1.5511122504,
				"element": "H" 
			},
			{
				"x": -1.820812216,
				"y": 4.6659151617,
				"z": 1.9584853796,
				"element": "H" 
			},
			{
				"x": -1.0734735881,
				"y": 5.0497534435,
				"z": 3.5043951971,
				"element": "H" 
			},
			{
				"x": -0.2548009458,
				"y": 2.7456865993,
				"z": 3.7653841627,
				"element": "H" 
			},
			{
				"x": -1.9536597979,
				"y": 2.6397275785,
				"z": 3.3329958249,
				"element": "H" 
			}
		],
		 "valence_orbital": [ 
			{
				"type": "occ",
				"energy": -0.28053,
				"method": "rhf"
			},
			{
				"type": "occ",
				"energy": -0.2638,
				"method": "rhf"
			},
			{
				"type": "occ",
				"energy": -0.26176,
				"method": "rhf"
			},
			{
				"type": "occ",
				"energy": -0.23951,
				"method": "rhf"
			},
			{
				"type": "occ",
				"energy": -0.21349,
				"method": "rhf"
			},
			{
				"type": "unocc",
				"energy": -0.07093,
				"method": "rhf"
			},
			{
				"type": "unocc",
				"energy": -0.01345,
				"method": "rhf"
			},
			{
				"type": "unocc",
				"energy": -0.01044,
				"method": "rhf"
			},
			{
				"type": "unocc",
				"energy": 0.02268,
				"method": "rhf"
			},
			{
				"type": "unocc",
				"energy": 0.0478,
				"method": "rhf"
			}
		],
		"cosmo_sigma_profile": { 
			"-0.025": 0.0,
			"-0.024": 0.0,
			"-0.023": 0.0,
			"-0.022": 0.0,
			"-0.021": 0.0,
			"-0.02": 0.0,
			"-0.019": 0.0,
			"-0.018": 0.0,
			"-0.017": 0.0,
			"-0.016": 0.0,
			"-0.015": 0.0,
			"-0.014": 0.0,
			"-0.013": 0.0,
			"-0.012": 0.0,
			"-0.011": 0.0,
			"-0.01": 0.0,
			"-0.009": 0.0,
			"-0.008": 0.233944585141,
			"-0.007": 4.52306510318,
			"-0.006": 15.75764894,
			"-0.005": 24.8592704708,
			"-0.004": 29.6590634954,
			"-0.003": 29.2510603265,
			"-0.002": 23.8423800024,
			"-0.001": 22.2187064353,
			"0.0": 19.4659304927,
			"0.001": 20.8456641599,
			"0.002": 23.3902908978,
			"0.003": 22.4662640487,
			"0.004": 13.6570766069,
			"0.005": 5.05893288476,
			"0.006": 4.8654381302,
			"0.007": 4.04632464096,
			"0.008": 4.34506503983,
			"0.009": 3.83133627743,
			"0.01": 4.05314823244,
			"0.011": 3.70277889331,
			"0.012": 4.60529159219,
			"0.013": 3.0273059974,
			"0.014": 0.652363753728,
			"0.015": 0.0,
			"0.016": 0.0,
			"0.017": 0.0,
			"0.018": 0.0,
			"0.019": 0.0,
			"0.02": 0.0,
			"0.021": 0.0,
			"0.022": 0.0,
			"0.023": 0.0,
			"0.024": 0.0,
			"0.025": 0.0
		}
	}
}
