{
	 "smiles": "COC1=CC=C(OC2=CC=C(C=O)C=C2)C=C1", 
	 "Tm": 339.15, 
	 "num_atms": 29, 
	 "gaussian": { 
		 "optdone": 1, 
		 "sigma_profile": "yes", 
		 "theory": "DFT", 
		 "functional": "B3LYP", 
		 "basiset": "6-31G**", 
		 "properties": { 
			 "R2extent": 6630.6752, 
			 "electric_dipole_moment_norm": 5.85983459579, 
			 "electric_quadrupole_moment_norm": 15.6214639218, 
			 "total_energy": -766.364582651, 
			 "HOMO_LUMO_gap": 0.17549, 
			 "cosmo_polarized_energy": -11.76, 
			 "cosmo_cavitation_energy": 34.31, 
			 "cosmo_dispersion_energy": -24.52, 
			 "cosmo_repulsion_energy": 1.89, 
			 "cosmo_total_nonelectrostatic_energy": 11.68, 
			 "SMD_solvation_energy": 7.87 
		},
		"coords": [
			{
				"x": 5.0319596065,
				"y": 2.4483977205,
				"z": 1.8003660307,
				"element": "C" 
			},
			{
				"x": 4.5741442529,
				"y": 1.128585128,
				"z": 2.0499739776,
				"element": "O" 
			},
			{
				"x": 3.290866831,
				"y": 0.8147599689,
				"z": 1.7111341237,
				"element": "C" 
			},
			{
				"x": 2.38151234,
				"y": 1.7029212092,
				"z": 1.1237955728,
				"element": "C" 
			},
			{
				"x": 1.0874879766,
				"y": 1.2697652437,
				"z": 0.8180505191,
				"element": "C" 
			},
			{
				"x": 0.7059620947,
				"y": -0.0370082161,
				"z": 1.0983375939,
				"element": "C" 
			},
			{
				"x": -0.6104267711,
				"y": -0.4302904086,
				"z": 0.8661818618,
				"element": "O" 
			},
			{
				"x": -0.9279666865,
				"y": -1.1178457501,
				"z": -0.2738688254,
				"element": "C" 
			},
			{
				"x": -2.2678826553,
				"y": -1.5320797086,
				"z": -0.3749335417,
				"element": "C" 
			},
			{
				"x": -2.6883942414,
				"y": -2.2271867098,
				"z": -1.4952328711,
				"element": "C" 
			},
			{
				"x": -1.7845919672,
				"y": -2.5222493047,
				"z": -2.5324538634,
				"element": "C" 
			},
			{
				"x": -2.2292496931,
				"y": -3.2628587857,
				"z": -3.7259276388,
				"element": "C" 
			},
			{
				"x": -3.3632792654,
				"y": -3.6666304912,
				"z": -3.9139691544,
				"element": "O" 
			},
			{
				"x": -0.4538961052,
				"y": -2.1021190105,
				"z": -2.4171534192,
				"element": "C" 
			},
			{
				"x": -0.0144692059,
				"y": -1.4010912043,
				"z": -1.296926021,
				"element": "C" 
			},
			{
				"x": 1.6068181671,
				"y": -0.9276621176,
				"z": 1.6893764763,
				"element": "C" 
			},
			{
				"x": 2.8940636986,
				"y": -0.5028262427,
				"z": 1.9920850113,
				"element": "C" 
			},
			{
				"x": 6.0666448487,
				"y": 2.4784606147,
				"z": 2.1447528967,
				"element": "H" 
			},
			{
				"x": 5.0010775578,
				"y": 2.6925052801,
				"z": 0.730572679,
				"element": "H" 
			},
			{
				"x": 4.4455700141,
				"y": 3.1921808411,
				"z": 2.3551261609,
				"element": "H" 
			},
			{
				"x": 2.6618720882,
				"y": 2.7256642057,
				"z": 0.9029982596,
				"element": "H" 
			},
			{
				"x": 0.3700593095,
				"y": 1.949445989,
				"z": 0.3698461678,
				"element": "H" 
			},
			{
				"x": -2.9461496488,
				"y": -1.2935721866,
				"z": 0.4376214349,
				"element": "H" 
			},
			{
				"x": -3.7171470797,
				"y": -2.5582019981,
				"z": -1.5966589813,
				"element": "H" 
			},
			{
				"x": -1.4301878262,
				"y": -3.4400881897,
				"z": -4.4816425565,
				"element": "H" 
			},
			{
				"x": 0.2484460792,
				"y": -2.3263287363,
				"z": -3.2171046334,
				"element": "H" 
			},
			{
				"x": 1.0158597242,
				"y": -1.0768909664,
				"z": -1.2138593126,
				"element": "H" 
			},
			{
				"x": 1.2891728986,
				"y": -1.9408223013,
				"z": 1.9135747634,
				"element": "H" 
			},
			{
				"x": 3.6120236579,
				"y": -1.1722338726,
				"z": 2.4539372892,
				"element": "H" 
			}
		],
		 "valence_orbital": [ 
			{
				"type": "occ",
				"energy": -0.26824,
				"method": "rhf"
			},
			{
				"type": "occ",
				"energy": -0.26347,
				"method": "rhf"
			},
			{
				"type": "occ",
				"energy": -0.24622,
				"method": "rhf"
			},
			{
				"type": "occ",
				"energy": -0.2351,
				"method": "rhf"
			},
			{
				"type": "occ",
				"energy": -0.22649,
				"method": "rhf"
			},
			{
				"type": "unocc",
				"energy": -0.051,
				"method": "rhf"
			},
			{
				"type": "unocc",
				"energy": -0.02085,
				"method": "rhf"
			},
			{
				"type": "unocc",
				"energy": -0.00807,
				"method": "rhf"
			},
			{
				"type": "unocc",
				"energy": 0.00101,
				"method": "rhf"
			},
			{
				"type": "unocc",
				"energy": 0.05171,
				"method": "rhf"
			}
		],
		"cosmo_sigma_profile": { 
			"-0.025": 0.0,
			"-0.024": 0.0,
			"-0.023": 0.0,
			"-0.022": 0.0,
			"-0.021": 0.0,
			"-0.02": 0.0,
			"-0.019": 0.0,
			"-0.018": 0.0,
			"-0.017": 0.0,
			"-0.016": 0.0,
			"-0.015": 0.0,
			"-0.014": 0.0,
			"-0.013": 0.0,
			"-0.012": 0.0,
			"-0.011": 0.0,
			"-0.01": 0.0,
			"-0.009": 0.0,
			"-0.008": 0.735855084694,
			"-0.007": 9.48860956939,
			"-0.006": 20.1463419961,
			"-0.005": 26.338903515,
			"-0.004": 21.64122852,
			"-0.003": 21.3711584823,
			"-0.002": 17.7041053485,
			"-0.001": 16.6046842549,
			"0.0": 16.8704321223,
			"0.001": 19.4202387426,
			"0.002": 22.1011899318,
			"0.003": 29.7299810918,
			"0.004": 16.4680637565,
			"0.005": 6.31970273052,
			"0.006": 3.99275504886,
			"0.007": 4.16563298603,
			"0.008": 4.58023840797,
			"0.009": 3.97515254967,
			"0.01": 3.59077013916,
			"0.011": 3.72470978162,
			"0.012": 4.19896741222,
			"0.013": 1.56512445049,
			"0.014": 0.166325648457,
			"0.015": 0.0,
			"0.016": 0.0,
			"0.017": 0.0,
			"0.018": 0.0,
			"0.019": 0.0,
			"0.02": 0.0,
			"0.021": 0.0,
			"0.022": 0.0,
			"0.023": 0.0,
			"0.024": 0.0,
			"0.025": 0.0
		}
	}
}
