{
	 "smiles": "NC(=NO)C(C1=CC=CC=C1)C1=CC=CC=C1", 
	 "Tm": 398.15, 
	 "num_atms": 31, 
	 "gaussian": { 
		 "optdone": 1, 
		 "sigma_profile": "yes", 
		 "theory": "DFT", 
		 "functional": "B3LYP", 
		 "basiset": "6-31G**", 
		 "properties": { 
			 "R2extent": 4181.8768, 
			 "electric_dipole_moment_norm": 1.51369982824, 
			 "electric_quadrupole_moment_norm": 4.0297013599, 
			 "total_energy": -726.594212722, 
			 "HOMO_LUMO_gap": 0.20432, 
			 "cosmo_polarized_energy": -14.21, 
			 "cosmo_cavitation_energy": 34.26, 
			 "cosmo_dispersion_energy": -23.81, 
			 "cosmo_repulsion_energy": 1.88, 
			 "cosmo_total_nonelectrostatic_energy": 12.33, 
			 "SMD_solvation_energy": 5.48 
		},
		"coords": [
			{
				"x": 2.5201965596,
				"y": 1.0075742671,
				"z": 0.5696021025,
				"element": "N" 
			},
			{
				"x": 1.5222441031,
				"y": 0.8964910118,
				"z": -0.4035749669,
				"element": "C" 
			},
			{
				"x": 1.5451331727,
				"y": 1.7660777241,
				"z": -1.3497144226,
				"element": "N" 
			},
			{
				"x": 0.5576190511,
				"y": 1.5199452472,
				"z": -2.3371277606,
				"element": "O" 
			},
			{
				"x": 0.5750254176,
				"y": -0.2907104826,
				"z": -0.1977670087,
				"element": "C" 
			},
			{
				"x": -0.7050857236,
				"y": 0.1431321581,
				"z": 0.5142489737,
				"element": "C" 
			},
			{
				"x": -1.4902448396,
				"y": 1.2104827781,
				"z": 0.0506645701,
				"element": "C" 
			},
			{
				"x": -2.6491063527,
				"y": 1.582455775,
				"z": 0.7329065785,
				"element": "C" 
			},
			{
				"x": -3.0438028839,
				"y": 0.8994538674,
				"z": 1.8857661446,
				"element": "C" 
			},
			{
				"x": -2.2708958759,
				"y": -0.1633627721,
				"z": 2.3536695266,
				"element": "C" 
			},
			{
				"x": -1.1106053052,
				"y": -0.535125749,
				"z": 1.6716167812,
				"element": "C" 
			},
			{
				"x": 0.3827204043,
				"y": -1.1562709662,
				"z": -1.4514337124,
				"element": "C" 
			},
			{
				"x": 1.5201755801,
				"y": -1.6377972733,
				"z": -2.1155634066,
				"element": "C" 
			},
			{
				"x": 1.4005610526,
				"y": -2.4840335896,
				"z": -3.2157123499,
				"element": "C" 
			},
			{
				"x": 0.1369548426,
				"y": -2.8716538334,
				"z": -3.6690129904,
				"element": "C" 
			},
			{
				"x": -0.9985624867,
				"y": -2.4038785554,
				"z": -3.0094308424,
				"element": "C" 
			},
			{
				"x": -0.8769352715,
				"y": -1.5536032574,
				"z": -1.9070986691,
				"element": "C" 
			},
			{
				"x": 2.1893422718,
				"y": 0.8312347187,
				"z": 1.5113907521,
				"element": "H" 
			},
			{
				"x": 3.017651006,
				"y": 1.8891986959,
				"z": 0.5081835117,
				"element": "H" 
			},
			{
				"x": 0.7625568266,
				"y": 2.2018450381,
				"z": -2.9892105239,
				"element": "H" 
			},
			{
				"x": 1.1111660673,
				"y": -0.9366682954,
				"z": 0.5090391211,
				"element": "H" 
			},
			{
				"x": -1.1880994693,
				"y": 1.7362649747,
				"z": -0.8487117349,
				"element": "H" 
			},
			{
				"x": -3.245979591,
				"y": 2.4113330449,
				"z": 0.3622507578,
				"element": "H" 
			},
			{
				"x": -3.945878258,
				"y": 1.1939984917,
				"z": 2.4145341915,
				"element": "H" 
			},
			{
				"x": -2.5666490309,
				"y": -0.7023500715,
				"z": 3.2494289798,
				"element": "H" 
			},
			{
				"x": -0.514251704,
				"y": -1.3665813469,
				"z": 2.0406358764,
				"element": "H" 
			},
			{
				"x": 2.5072747756,
				"y": -1.3413125529,
				"z": -1.769448859,
				"element": "H" 
			},
			{
				"x": 2.2945330464,
				"y": -2.8431075449,
				"z": -3.7183886827,
				"element": "H" 
			},
			{
				"x": 0.0411342582,
				"y": -3.532910378,
				"z": -4.5255735593,
				"element": "H" 
			},
			{
				"x": -1.987192222,
				"y": -2.6996473174,
				"z": -3.3500220363,
				"element": "H" 
			},
			{
				"x": -1.7691994214,
				"y": -1.1967738069,
				"z": -1.4043463418,
				"element": "H" 
			}
		],
		 "valence_orbital": [ 
			{
				"type": "occ",
				"energy": -0.24943,
				"method": "rhf"
			},
			{
				"type": "occ",
				"energy": -0.24361,
				"method": "rhf"
			},
			{
				"type": "occ",
				"energy": -0.2383,
				"method": "rhf"
			},
			{
				"type": "occ",
				"energy": -0.22732,
				"method": "rhf"
			},
			{
				"type": "occ",
				"energy": -0.21104,
				"method": "rhf"
			},
			{
				"type": "unocc",
				"energy": -0.00672,
				"method": "rhf"
			},
			{
				"type": "unocc",
				"energy": -0.00445,
				"method": "rhf"
			},
			{
				"type": "unocc",
				"energy": 0.00967,
				"method": "rhf"
			},
			{
				"type": "unocc",
				"energy": 0.01192,
				"method": "rhf"
			},
			{
				"type": "unocc",
				"energy": 0.03589,
				"method": "rhf"
			}
		],
		"cosmo_sigma_profile": { 
			"-0.025": 0.0,
			"-0.024": 0.0,
			"-0.023": 0.0,
			"-0.022": 0.0,
			"-0.021": 0.0,
			"-0.02": 0.0,
			"-0.019": 0.0,
			"-0.018": 0.0,
			"-0.017": 0.102950901604,
			"-0.016": 1.17586547706,
			"-0.015": 0.623366814476,
			"-0.014": 0.920241554352,
			"-0.013": 1.20700559395,
			"-0.012": 2.75207682566,
			"-0.011": 2.97010353521,
			"-0.01": 2.92923519395,
			"-0.009": 3.50982520733,
			"-0.008": 3.72264059542,
			"-0.007": 3.97198163022,
			"-0.006": 9.90765920501,
			"-0.005": 18.7123907844,
			"-0.004": 20.9067881383,
			"-0.003": 23.5364339,
			"-0.002": 16.3519766922,
			"-0.001": 16.2814010594,
			"0.0": 15.0012122251,
			"0.001": 14.3163196697,
			"0.002": 17.9721538739,
			"0.003": 18.2515896611,
			"0.004": 18.2797492176,
			"0.005": 18.0759134405,
			"0.006": 15.0714668275,
			"0.007": 6.62859863365,
			"0.008": 4.12589022119,
			"0.009": 3.70941572662,
			"0.01": 3.68425529826,
			"0.011": 3.19154350235,
			"0.012": 1.96564373799,
			"0.013": 1.2229427508,
			"0.014": 1.06820901189,
			"0.015": 0.000339858449508,
			"0.016": 0.0,
			"0.017": 0.0,
			"0.018": 0.0,
			"0.019": 0.0,
			"0.02": 0.0,
			"0.021": 0.0,
			"0.022": 0.0,
			"0.023": 0.0,
			"0.024": 0.0,
			"0.025": 0.0
		}
	}
}
