{
	 "smiles": "CC(C)C1CCC(C)CC1NC(=O)C1=CC(F)=NC=C1", 
	 "Tm": 353.15, 
	 "num_atms": 43, 
	 "gaussian": { 
		 "optdone": 1, 
		 "sigma_profile": "yes", 
		 "theory": "DFT", 
		 "functional": "B3LYP", 
		 "basiset": "6-31G**", 
		 "properties": { 
			 "R2extent": 8698.0413, 
			 "electric_dipole_moment_norm": 4.6166791983, 
			 "electric_quadrupole_moment_norm": 21.2718173525, 
			 "total_energy": -908.161815131, 
			 "HOMO_LUMO_gap": 0.19755, 
			 "cosmo_polarized_energy": -13.49, 
			 "cosmo_cavitation_energy": 42.3, 
			 "cosmo_dispersion_energy": -29.68, 
			 "cosmo_repulsion_energy": 2.24, 
			 "cosmo_total_nonelectrostatic_energy": 14.87, 
			 "SMD_solvation_energy": 5.74 
		},
		"coords": [
			{
				"x": -0.8052901107,
				"y": 2.1227281781,
				"z": -2.4175003976,
				"element": "C" 
			},
			{
				"x": 0.2143937655,
				"y": 1.9686034771,
				"z": -1.2778329418,
				"element": "C" 
			},
			{
				"x": 1.6071372574,
				"y": 2.4174555901,
				"z": -1.7507848812,
				"element": "C" 
			},
			{
				"x": 0.2621589131,
				"y": 0.5611065799,
				"z": -0.6037768209,
				"element": "C" 
			},
			{
				"x": 0.6354804744,
				"y": -0.6091659393,
				"z": -1.5535817928,
				"element": "C" 
			},
			{
				"x": -0.5435198659,
				"y": -1.344452107,
				"z": -2.2106195792,
				"element": "C" 
			},
			{
				"x": -1.5694809603,
				"y": -1.8212136836,
				"z": -1.1733294342,
				"element": "C" 
			},
			{
				"x": -2.7218076996,
				"y": -2.5967912759,
				"z": -1.8214352903,
				"element": "C" 
			},
			{
				"x": -2.098137703,
				"y": -0.5990437677,
				"z": -0.4075268407,
				"element": "C" 
			},
			{
				"x": -1.0249664076,
				"y": 0.2994314179,
				"z": 0.2534496093,
				"element": "C" 
			},
			{
				"x": -0.7213444519,
				"y": -0.1245659464,
				"z": 1.6422123857,
				"element": "N" 
			},
			{
				"x": 0.0199794937,
				"y": -1.1915867259,
				"z": 2.0434940666,
				"element": "C" 
			},
			{
				"x": 0.5748462104,
				"y": -1.9838524571,
				"z": 1.2855786979,
				"element": "O" 
			},
			{
				"x": 0.1508215379,
				"y": -1.3593865175,
				"z": 3.5432996064,
				"element": "C" 
			},
			{
				"x": 1.2589750515,
				"y": -2.0623807641,
				"z": 4.0127426168,
				"element": "C" 
			},
			{
				"x": 1.3773169092,
				"y": -2.2208950268,
				"z": 5.3917260564,
				"element": "C" 
			},
			{
				"x": 2.4462685041,
				"y": -2.878564765,
				"z": 5.8630404961,
				"element": "F" 
			},
			{
				"x": 0.5253510742,
				"y": -1.7795182949,
				"z": 6.2943578951,
				"element": "N" 
			},
			{
				"x": -0.5493287758,
				"y": -1.1247734911,
				"z": 5.8310073682,
				"element": "C" 
			},
			{
				"x": -0.782496279,
				"y": -0.8863268656,
				"z": 4.4790200575,
				"element": "C" 
			},
			{
				"x": -0.8242037151,
				"y": 3.1593184764,
				"z": -2.7719019494,
				"element": "H" 
			},
			{
				"x": -1.8229399732,
				"y": 1.8659130484,
				"z": -2.1068477314,
				"element": "H" 
			},
			{
				"x": -0.5472359838,
				"y": 1.4907201468,
				"z": -3.2734949421,
				"element": "H" 
			},
			{
				"x": -0.0826839504,
				"y": 2.6682911708,
				"z": -0.4809132093,
				"element": "H" 
			},
			{
				"x": 1.5795298691,
				"y": 3.4571651872,
				"z": -2.094530486,
				"element": "H" 
			},
			{
				"x": 1.9712055645,
				"y": 1.8099691823,
				"z": -2.5862046344,
				"element": "H" 
			},
			{
				"x": 2.3451738692,
				"y": 2.350900397,
				"z": -0.9439255781,
				"element": "H" 
			},
			{
				"x": 1.0791018471,
				"y": 0.6383549493,
				"z": 0.1229814699,
				"element": "H" 
			},
			{
				"x": 1.3180460591,
				"y": -0.2431740898,
				"z": -2.3289166713,
				"element": "H" 
			},
			{
				"x": 1.1921310005,
				"y": -1.3421410395,
				"z": -0.965148901,
				"element": "H" 
			},
			{
				"x": -1.0522309076,
				"y": -0.7040168763,
				"z": -2.9446560711,
				"element": "H" 
			},
			{
				"x": -0.1545480222,
				"y": -2.2036347192,
				"z": -2.7717539762,
				"element": "H" 
			},
			{
				"x": -1.0538077281,
				"y": -2.4802964494,
				"z": -0.4657808424,
				"element": "H" 
			},
			{
				"x": -2.3516525558,
				"y": -3.4772282522,
				"z": -2.3579476872,
				"element": "H" 
			},
			{
				"x": -3.2638061521,
				"y": -1.9725194903,
				"z": -2.5432831446,
				"element": "H" 
			},
			{
				"x": -3.4443996448,
				"y": -2.9422202702,
				"z": -1.0731995101,
				"element": "H" 
			},
			{
				"x": -2.6599515961,
				"y": 0.0234900458,
				"z": -1.1180110699,
				"element": "H" 
			},
			{
				"x": -2.814869976,
				"y": -0.9033665559,
				"z": 0.3648678276,
				"element": "H" 
			},
			{
				"x": -1.4990284043,
				"y": 1.2746938932,
				"z": 0.4105899681,
				"element": "H" 
			},
			{
				"x": -1.0183990841,
				"y": 0.5113060657,
				"z": 2.3660049463,
				"element": "H" 
			},
			{
				"x": 1.9892345749,
				"y": -2.4705888493,
				"z": 3.3253115164,
				"element": "H" 
			},
			{
				"x": -1.2573356084,
				"y": -0.7804406738,
				"z": 6.5816041898,
				"element": "H" 
			},
			{
				"x": -1.6919864203,
				"y": -0.3791029125,
				"z": 4.1743156091,
				"element": "H" 
			}
		],
		 "valence_orbital": [ 
			{
				"type": "occ",
				"energy": -0.29101,
				"method": "rhf"
			},
			{
				"type": "occ",
				"energy": -0.28554,
				"method": "rhf"
			},
			{
				"type": "occ",
				"energy": -0.26802,
				"method": "rhf"
			},
			{
				"type": "occ",
				"energy": -0.26095,
				"method": "rhf"
			},
			{
				"type": "occ",
				"energy": -0.25681,
				"method": "rhf"
			},
			{
				"type": "unocc",
				"energy": -0.05926,
				"method": "rhf"
			},
			{
				"type": "unocc",
				"energy": -0.02189,
				"method": "rhf"
			},
			{
				"type": "unocc",
				"energy": 0.04456,
				"method": "rhf"
			},
			{
				"type": "unocc",
				"energy": 0.05288,
				"method": "rhf"
			},
			{
				"type": "unocc",
				"energy": 0.07614,
				"method": "rhf"
			}
		],
		"cosmo_sigma_profile": { 
			"-0.025": 0.0,
			"-0.024": 0.0,
			"-0.023": 0.0,
			"-0.022": 0.0,
			"-0.021": 0.0,
			"-0.02": 0.0,
			"-0.019": 0.0,
			"-0.018": 0.0,
			"-0.017": 0.0,
			"-0.016": 0.0,
			"-0.015": 0.328211474158,
			"-0.014": 1.25389557937,
			"-0.013": 1.34276068417,
			"-0.012": 1.37518440983,
			"-0.011": 1.25597822373,
			"-0.01": 1.67081424495,
			"-0.009": 2.17983208767,
			"-0.008": 2.63258384271,
			"-0.007": 6.92892877611,
			"-0.006": 6.45133898043,
			"-0.005": 6.04685427509,
			"-0.004": 9.13562722042,
			"-0.003": 15.9757444598,
			"-0.002": 42.2450072488,
			"-0.001": 51.5046738559,
			"0.0": 47.130330673,
			"0.001": 49.1267385595,
			"0.002": 29.899469055,
			"0.003": 11.0214271383,
			"0.004": 11.2191504962,
			"0.005": 5.15741203763,
			"0.006": 3.78416322191,
			"0.007": 3.92348664757,
			"0.008": 3.45933236854,
			"0.009": 2.71768032991,
			"0.01": 2.72182920571,
			"0.011": 2.85317388022,
			"0.012": 2.55015101105,
			"0.013": 2.54115653646,
			"0.014": 1.71429519195,
			"0.015": 0.113543197849,
			"0.016": 0.0,
			"0.017": 0.0,
			"0.018": 0.0,
			"0.019": 0.0,
			"0.02": 0.0,
			"0.021": 0.0,
			"0.022": 0.0,
			"0.023": 0.0,
			"0.024": 0.0,
			"0.025": 0.0
		}
	}
}
