{
	 "smiles": "ClC1=CC=C(NN=C(C#N)C2=NC(=CS2)C2=CC=C(Cl)C=C2)C=C1", 
	 "Tm": 513.15, 
	 "num_atms": 34, 
	 "gaussian": { 
		 "optdone": 1, 
		 "sigma_profile": "yes", 
		 "theory": "DFT", 
		 "functional": "B3LYP", 
		 "basiset": "6-31G**", 
		 "properties": { 
			 "R2extent": 14473.7116, 
			 "electric_dipole_moment_norm": 4.11366015733, 
			 "electric_quadrupole_moment_norm": 23.6486241133, 
			 "total_energy": -2191.36945824, 
			 "HOMO_LUMO_gap": 0.12531, 
			 "cosmo_polarized_energy": -14.79, 
			 "cosmo_cavitation_energy": 46.87, 
			 "cosmo_dispersion_energy": -33.08, 
			 "cosmo_repulsion_energy": 2.44, 
			 "cosmo_total_nonelectrostatic_energy": 16.24, 
			 "SMD_solvation_energy": 7.08 
		},
		"coords": [
			{
				"x": 2.0831073799,
				"y": 4.0479376543,
				"z": 5.5863656097,
				"element": "Cl" 
			},
			{
				"x": 1.3716102577,
				"y": 3.4473916938,
				"z": 4.0980748213,
				"element": "C" 
			},
			{
				"x": 0.4833700527,
				"y": 4.2534536895,
				"z": 3.3827924133,
				"element": "C" 
			},
			{
				"x": -0.0841506008,
				"y": 3.7827823675,
				"z": 2.2032385902,
				"element": "C" 
			},
			{
				"x": 0.2403511981,
				"y": 2.5004182148,
				"z": 1.7395298338,
				"element": "C" 
			},
			{
				"x": -0.3076599812,
				"y": 1.978635747,
				"z": 0.5588266461,
				"element": "N" 
			},
			{
				"x": -1.1186217282,
				"y": 2.6964649966,
				"z": -0.1830191329,
				"element": "N" 
			},
			{
				"x": -1.6134412824,
				"y": 2.1949152626,
				"z": -1.2958035881,
				"element": "C" 
			},
			{
				"x": -2.4805751566,
				"y": 3.0628363017,
				"z": -2.0371482589,
				"element": "C" 
			},
			{
				"x": -3.1895980864,
				"y": 3.7283251267,
				"z": -2.6768089327,
				"element": "N" 
			},
			{
				"x": -1.353897526,
				"y": 0.8655601728,
				"z": -1.8314490922,
				"element": "C" 
			},
			{
				"x": -0.6107841571,
				"y": -0.0380987457,
				"z": -1.2270263702,
				"element": "N" 
			},
			{
				"x": -0.5055778176,
				"y": -1.2026745235,
				"z": -1.9599558077,
				"element": "C" 
			},
			{
				"x": -1.1943711572,
				"y": -1.178193122,
				"z": -3.1496527333,
				"element": "C" 
			},
			{
				"x": -1.9959238134,
				"y": 0.3331136486,
				"z": -3.3812217307,
				"element": "S" 
			},
			{
				"x": 0.2791633663,
				"y": -2.3341650158,
				"z": -1.4321666163,
				"element": "C" 
			},
			{
				"x": 0.4837405126,
				"y": -2.4724739234,
				"z": -0.050125157,
				"element": "C" 
			},
			{
				"x": 1.2092870603,
				"y": -3.5434574711,
				"z": 0.4654487996,
				"element": "C" 
			},
			{
				"x": 1.7406281986,
				"y": -4.4913183656,
				"z": -0.4090269082,
				"element": "C" 
			},
			{
				"x": 2.6581472857,
				"y": -5.8429641888,
				"z": 0.2317587847,
				"element": "Cl" 
			},
			{
				"x": 1.5562680934,
				"y": -4.3767200007,
				"z": -1.7871986107,
				"element": "C" 
			},
			{
				"x": 0.8309595889,
				"y": -3.2996361067,
				"z": -2.2893373525,
				"element": "C" 
			},
			{
				"x": 1.1339031679,
				"y": 1.6986271777,
				"z": 2.4626965137,
				"element": "C" 
			},
			{
				"x": 1.700568754,
				"y": 2.1707353379,
				"z": 3.6432970695,
				"element": "C" 
			},
			{
				"x": 0.2370705053,
				"y": 5.244137724,
				"z": 3.7483332011,
				"element": "H" 
			},
			{
				"x": -0.7752256507,
				"y": 4.3955025669,
				"z": 1.6374573201,
				"element": "H" 
			},
			{
				"x": -0.0734213384,
				"y": 1.02829335,
				"z": 0.2457370616,
				"element": "H" 
			},
			{
				"x": -1.3002404656,
				"y": -1.9719048904,
				"z": -3.8744150406,
				"element": "H" 
			},
			{
				"x": 0.0524798025,
				"y": -1.7422510936,
				"z": 0.6260656103,
				"element": "H" 
			},
			{
				"x": 1.3568271199,
				"y": -3.6481592992,
				"z": 1.5346203914,
				"element": "H" 
			},
			{
				"x": 1.9847431475,
				"y": -5.1145165158,
				"z": -2.4562544634,
				"element": "H" 
			},
			{
				"x": 0.7151263106,
				"y": -3.1993930965,
				"z": -3.3641629056,
				"element": "H" 
			},
			{
				"x": 1.3908895023,
				"y": 0.7070109538,
				"z": 2.10017267,
				"element": "H" 
			},
			{
				"x": 2.3930474576,
				"y": 1.5536843727,
				"z": 4.2045573645,
				"element": "H" 
			}
		],
		 "valence_orbital": [ 
			{
				"type": "occ",
				"energy": -0.28052,
				"method": "rhf"
			},
			{
				"type": "occ",
				"energy": -0.27888,
				"method": "rhf"
			},
			{
				"type": "occ",
				"energy": -0.27685,
				"method": "rhf"
			},
			{
				"type": "occ",
				"energy": -0.24659,
				"method": "rhf"
			},
			{
				"type": "occ",
				"energy": -0.21807,
				"method": "rhf"
			},
			{
				"type": "unocc",
				"energy": -0.09276,
				"method": "rhf"
			},
			{
				"type": "unocc",
				"energy": -0.05513,
				"method": "rhf"
			},
			{
				"type": "unocc",
				"energy": -0.03101,
				"method": "rhf"
			},
			{
				"type": "unocc",
				"energy": -0.0271,
				"method": "rhf"
			},
			{
				"type": "unocc",
				"energy": -0.01775,
				"method": "rhf"
			}
		],
		"cosmo_sigma_profile": { 
			"-0.025": 0.0,
			"-0.024": 0.0,
			"-0.023": 0.0,
			"-0.022": 0.0,
			"-0.021": 0.0,
			"-0.02": 0.0,
			"-0.019": 0.0,
			"-0.018": 0.0,
			"-0.017": 0.0,
			"-0.016": 0.0,
			"-0.015": 0.0,
			"-0.014": 0.0,
			"-0.013": 0.0,
			"-0.012": 0.0156249994302,
			"-0.011": 0.479860308735,
			"-0.01": 3.1581680533,
			"-0.009": 3.94132536797,
			"-0.008": 6.17274489669,
			"-0.007": 16.1345887394,
			"-0.006": 17.2061809963,
			"-0.005": 17.1728379846,
			"-0.004": 16.3318224184,
			"-0.003": 20.36552851,
			"-0.002": 23.8020094925,
			"-0.001": 30.8568906999,
			"0.0": 38.7182044352,
			"0.001": 45.1324451032,
			"0.002": 43.0609734227,
			"0.003": 43.1100448135,
			"0.004": 25.8340440585,
			"0.005": 15.4638799152,
			"0.006": 2.96986810769,
			"0.007": 2.14093010898,
			"0.008": 3.47106333996,
			"0.009": 2.93073860612,
			"0.01": 3.2218846626,
			"0.011": 2.23206867005,
			"0.012": 2.42344731326,
			"0.013": 0.608249594012,
			"0.014": 0.0,
			"0.015": 0.0,
			"0.016": 0.0,
			"0.017": 0.0,
			"0.018": 0.0,
			"0.019": 0.0,
			"0.02": 0.0,
			"0.021": 0.0,
			"0.022": 0.0,
			"0.023": 0.0,
			"0.024": 0.0,
			"0.025": 0.0
		}
	}
}
