{
	 "smiles": "CC1=C2CC(=O)C2=C(C)C2=C1CC2=O", 
	 "Tm": 461.15, 
	 "num_atms": 24, 
	 "gaussian": { 
		 "optdone": 1, 
		 "sigma_profile": "yes", 
		 "theory": "DFT", 
		 "functional": "B3LYP", 
		 "basiset": "6-31G**", 
		 "properties": { 
			 "R2extent": 2771.9754, 
			 "electric_dipole_moment_norm": 3.92446308812, 
			 "electric_quadrupole_moment_norm": 13.5660745922, 
			 "total_energy": -613.690500456, 
			 "HOMO_LUMO_gap": 0.17594, 
			 "cosmo_polarized_energy": -11.41, 
			 "cosmo_cavitation_energy": 28.91, 
			 "cosmo_dispersion_energy": -20.17, 
			 "cosmo_repulsion_energy": 1.63, 
			 "cosmo_total_nonelectrostatic_energy": 10.36, 
			 "SMD_solvation_energy": 5.8 
		},
		"coords": [
			{
				"x": -2.3477306477,
				"y": 2.3363957632,
				"z": -0.6097970952,
				"element": "C" 
			},
			{
				"x": -1.2935184962,
				"y": 1.2841941491,
				"z": -0.3858640342,
				"element": "C" 
			},
			{
				"x": -0.0611980723,
				"y": 1.2388592448,
				"z": -1.0456600047,
				"element": "C" 
			},
			{
				"x": 0.7576408231,
				"y": 2.015981352,
				"z": -2.0744644847,
				"element": "C" 
			},
			{
				"x": 1.8385545142,
				"y": 0.8992948266,
				"z": -1.8229267829,
				"element": "C" 
			},
			{
				"x": 2.944758367,
				"y": 0.6927650293,
				"z": -2.2560683617,
				"element": "O" 
			},
			{
				"x": 0.9215280333,
				"y": 0.2444814559,
				"z": -0.8412642135,
				"element": "C" 
			},
			{
				"x": 0.8064435692,
				"y": -0.8344463778,
				"z": 0.0452958437,
				"element": "C" 
			},
			{
				"x": 1.8454015897,
				"y": -1.8988139055,
				"z": 0.247932859,
				"element": "C" 
			},
			{
				"x": -0.4288121978,
				"y": -0.7794028953,
				"z": 0.7044011324,
				"element": "C" 
			},
			{
				"x": -1.4151465857,
				"y": 0.2122454076,
				"z": 0.5041557684,
				"element": "C" 
			},
			{
				"x": -2.388647203,
				"y": -0.369640283,
				"z": 1.5271853369,
				"element": "C" 
			},
			{
				"x": -1.2704988971,
				"y": -1.4580960394,
				"z": 1.7360545273,
				"element": "C" 
			},
			{
				"x": -1.1661795212,
				"y": -2.4242666655,
				"z": 2.4499101994,
				"element": "O" 
			},
			{
				"x": -3.0388085657,
				"y": 2.0409661603,
				"z": -1.4089103253,
				"element": "H" 
			},
			{
				"x": -2.9441567968,
				"y": 2.4994469691,
				"z": 0.2923786542,
				"element": "H" 
			},
			{
				"x": -1.9006772362,
				"y": 3.290686658,
				"z": -0.9025432992,
				"element": "H" 
			},
			{
				"x": 0.3622788348,
				"y": 2.0437091363,
				"z": -3.0960503904,
				"element": "H" 
			},
			{
				"x": 1.0722388778,
				"y": 3.0261976596,
				"z": -1.7889055783,
				"element": "H" 
			},
			{
				"x": 1.7957494315,
				"y": -2.3087115681,
				"z": 1.2596420748,
				"element": "H" 
			},
			{
				"x": 2.8484580061,
				"y": -1.5104077174,
				"z": 0.0554285369,
				"element": "H" 
			},
			{
				"x": 1.6780093686,
				"y": -2.7293310313,
				"z": -0.4489954855,
				"element": "H" 
			},
			{
				"x": -2.596402451,
				"y": 0.2444686563,
				"z": 2.4107948898,
				"element": "H" 
			},
			{
				"x": -3.3351847445,
				"y": -0.7597759846,
				"z": 1.136570233,
				"element": "H" 
			}
		],
		 "valence_orbital": [ 
			{
				"type": "occ",
				"energy": -0.34151,
				"method": "rhf"
			},
			{
				"type": "occ",
				"energy": -0.26229,
				"method": "rhf"
			},
			{
				"type": "occ",
				"energy": -0.26206,
				"method": "rhf"
			},
			{
				"type": "occ",
				"energy": -0.26036,
				"method": "rhf"
			},
			{
				"type": "occ",
				"energy": -0.24539,
				"method": "rhf"
			},
			{
				"type": "unocc",
				"energy": -0.06945,
				"method": "rhf"
			},
			{
				"type": "unocc",
				"energy": -0.05734,
				"method": "rhf"
			},
			{
				"type": "unocc",
				"energy": 0.02706,
				"method": "rhf"
			},
			{
				"type": "unocc",
				"energy": 0.04687,
				"method": "rhf"
			},
			{
				"type": "unocc",
				"energy": 0.0834,
				"method": "rhf"
			}
		],
		"cosmo_sigma_profile": { 
			"-0.025": 0.0,
			"-0.024": 0.0,
			"-0.023": 0.0,
			"-0.022": 0.0,
			"-0.021": 0.0,
			"-0.02": 0.0,
			"-0.019": 0.0,
			"-0.018": 0.0,
			"-0.017": 0.0,
			"-0.016": 0.0,
			"-0.015": 0.0,
			"-0.014": 0.0,
			"-0.013": 0.0,
			"-0.012": 0.0,
			"-0.011": 0.0,
			"-0.01": 0.0,
			"-0.009": 0.0,
			"-0.008": 0.0,
			"-0.007": 1.47931370454,
			"-0.006": 10.2017862524,
			"-0.005": 17.5280056735,
			"-0.004": 24.3997482467,
			"-0.003": 26.316012123,
			"-0.002": 30.3685589041,
			"-0.001": 31.3870536441,
			"0.0": 18.4568642066,
			"0.001": 15.1553714347,
			"0.002": 8.68524879153,
			"0.003": 4.23133260495,
			"0.004": 2.42370735285,
			"0.005": 3.20637862083,
			"0.006": 3.06397013719,
			"0.007": 3.29866139668,
			"0.008": 4.15498501767,
			"0.009": 3.74389314491,
			"0.01": 6.0272764629,
			"0.011": 9.74590268005,
			"0.012": 6.14963485458,
			"0.013": 0.672479743148,
			"0.014": 0.0,
			"0.015": 0.0,
			"0.016": 0.0,
			"0.017": 0.0,
			"0.018": 0.0,
			"0.019": 0.0,
			"0.02": 0.0,
			"0.021": 0.0,
			"0.022": 0.0,
			"0.023": 0.0,
			"0.024": 0.0,
			"0.025": 0.0
		}
	}
}
