{
	 "smiles": "ClCC1=NC(=NO1)C1=CC=C(Cl)C=C1", 
	 "Tm": 333.65, 
	 "num_atms": 20, 
	 "gaussian": { 
		 "optdone": 1, 
		 "sigma_profile": "yes", 
		 "theory": "DFT", 
		 "functional": "B3LYP", 
		 "basiset": "6-31G**", 
		 "properties": { 
			 "R2extent": 5817.2131, 
			 "electric_dipole_moment_norm": 2.06285734117, 
			 "electric_quadrupole_moment_norm": 10.1272670627, 
			 "total_energy": -1451.64997743, 
			 "HOMO_LUMO_gap": 0.18179, 
			 "cosmo_polarized_energy": -8.96, 
			 "cosmo_cavitation_energy": 29.34, 
			 "cosmo_dispersion_energy": -21.95, 
			 "cosmo_repulsion_energy": 1.74, 
			 "cosmo_total_nonelectrostatic_energy": 9.14, 
			 "SMD_solvation_energy": 2.81 
		},
		"coords": [
			{
				"x": 0.3788903014,
				"y": 1.1130132986,
				"z": 4.2128911576,
				"element": "Cl" 
			},
			{
				"x": 1.581003527,
				"y": 0.9458002119,
				"z": 2.8622541695,
				"element": "C" 
			},
			{
				"x": 1.0349234018,
				"y": 0.1394016489,
				"z": 1.7392780197,
				"element": "C" 
			},
			{
				"x": 0.542610065,
				"y": 0.5671156199,
				"z": 0.6165049983,
				"element": "N" 
			},
			{
				"x": 0.1996234726,
				"y": -0.6101635427,
				"z": -0.0232685787,
				"element": "C" 
			},
			{
				"x": 0.4700701156,
				"y": -1.6957471651,
				"z": 0.6715283343,
				"element": "N" 
			},
			{
				"x": 1.0321978973,
				"y": -1.1983898249,
				"z": 1.8526065143,
				"element": "O" 
			},
			{
				"x": -0.4088874116,
				"y": -0.6467858911,
				"z": -1.357966111,
				"element": "C" 
			},
			{
				"x": -0.6734049296,
				"y": 0.5517059922,
				"z": -2.0346749202,
				"element": "C" 
			},
			{
				"x": -1.2507048355,
				"y": 0.5343896838,
				"z": -3.3020787828,
				"element": "C" 
			},
			{
				"x": -1.5630921763,
				"y": -0.6910417638,
				"z": -3.8904551941,
				"element": "C" 
			},
			{
				"x": -2.2902387957,
				"y": -0.7206139825,
				"z": -5.4869777147,
				"element": "Cl" 
			},
			{
				"x": -1.3078724156,
				"y": -1.8962593105,
				"z": -3.2319833802,
				"element": "C" 
			},
			{
				"x": -0.7311160329,
				"y": -1.8698615284,
				"z": -1.9667586505,
				"element": "C" 
			},
			{
				"x": 2.4674297274,
				"y": 0.4746582001,
				"z": 3.286623281,
				"element": "H" 
			},
			{
				"x": 1.8117620298,
				"y": 1.9476608298,
				"z": 2.505501127,
				"element": "H" 
			},
			{
				"x": -0.4245704708,
				"y": 1.494645137,
				"z": -1.560513488,
				"element": "H" 
			},
			{
				"x": -1.4573468633,
				"y": 1.4591180038,
				"z": -3.8288986121,
				"element": "H" 
			},
			{
				"x": -1.5586701213,
				"y": -2.8382420259,
				"z": -3.7064316807,
				"element": "H" 
			},
			{
				"x": -0.5278064855,
				"y": -2.7984035911,
				"z": -1.4439804887,
				"element": "H" 
			}
		],
		 "valence_orbital": [ 
			{
				"type": "occ",
				"energy": -0.31806,
				"method": "rhf"
			},
			{
				"type": "occ",
				"energy": -0.31164,
				"method": "rhf"
			},
			{
				"type": "occ",
				"energy": -0.30662,
				"method": "rhf"
			},
			{
				"type": "occ",
				"energy": -0.27498,
				"method": "rhf"
			},
			{
				"type": "occ",
				"energy": -0.2494,
				"method": "rhf"
			},
			{
				"type": "unocc",
				"energy": -0.06761,
				"method": "rhf"
			},
			{
				"type": "unocc",
				"energy": -0.04408,
				"method": "rhf"
			},
			{
				"type": "unocc",
				"energy": -0.02295,
				"method": "rhf"
			},
			{
				"type": "unocc",
				"energy": 0.02274,
				"method": "rhf"
			},
			{
				"type": "unocc",
				"energy": 0.02847,
				"method": "rhf"
			}
		],
		"cosmo_sigma_profile": { 
			"-0.025": 0.0,
			"-0.024": 0.0,
			"-0.023": 0.0,
			"-0.022": 0.0,
			"-0.021": 0.0,
			"-0.02": 0.0,
			"-0.019": 0.0,
			"-0.018": 0.0,
			"-0.017": 0.0,
			"-0.016": 0.0,
			"-0.015": 0.0,
			"-0.014": 0.0,
			"-0.013": 0.0,
			"-0.012": 0.0,
			"-0.011": 0.283247385024,
			"-0.01": 4.53536258978,
			"-0.009": 4.16750570312,
			"-0.008": 6.31658074,
			"-0.007": 10.663045741,
			"-0.006": 10.2887782669,
			"-0.005": 9.59303921851,
			"-0.004": 9.13008357232,
			"-0.003": 10.5990197647,
			"-0.002": 12.1264171065,
			"-0.001": 16.5632901255,
			"0.0": 24.5013956189,
			"0.001": 23.3611287936,
			"0.002": 27.7220460956,
			"0.003": 18.9027794646,
			"0.004": 19.8417526399,
			"0.005": 16.8932890358,
			"0.006": 4.78916140996,
			"0.007": 2.46264482557,
			"0.008": 2.97249561256,
			"0.009": 1.81495779745,
			"0.01": 2.27070127468,
			"0.011": 1.30811027723,
			"0.012": 0.289383290837,
			"0.013": 0.0,
			"0.014": 0.0,
			"0.015": 0.0,
			"0.016": 0.0,
			"0.017": 0.0,
			"0.018": 0.0,
			"0.019": 0.0,
			"0.02": 0.0,
			"0.021": 0.0,
			"0.022": 0.0,
			"0.023": 0.0,
			"0.024": 0.0,
			"0.025": 0.0
		}
	}
}
