{
	 "smiles": "OC(=O)C1=CC=C(OC2=CC(F)=CC=C2)C=C1", 
	 "Tm": 420.15, 
	 "num_atms": 26, 
	 "gaussian": { 
		 "optdone": 1, 
		 "sigma_profile": "yes", 
		 "theory": "DFT", 
		 "functional": "B3LYP", 
		 "basiset": "6-31G**", 
		 "properties": { 
			 "R2extent": 5725.6262, 
			 "electric_dipole_moment_norm": 4.80715410404, 
			 "electric_quadrupole_moment_norm": 24.4694255903, 
			 "total_energy": -826.311780561, 
			 "HOMO_LUMO_gap": 0.19124, 
			 "cosmo_polarized_energy": -15.7, 
			 "cosmo_cavitation_energy": 32.09, 
			 "cosmo_dispersion_energy": -23.06, 
			 "cosmo_repulsion_energy": 1.75, 
			 "cosmo_total_nonelectrostatic_energy": 10.78, 
			 "SMD_solvation_energy": 7.36 
		},
		"coords": [
			{
				"x": 2.59798724,
				"y": 0.1042074287,
				"z": -4.8775877223,
				"element": "O" 
			},
			{
				"x": 2.6940992737,
				"y": -0.3893869397,
				"z": -3.61194442,
				"element": "C" 
			},
			{
				"x": 3.7470828588,
				"y": -0.8373498749,
				"z": -3.221200987,
				"element": "O" 
			},
			{
				"x": 1.4580056625,
				"y": -0.3403809615,
				"z": -2.7711350016,
				"element": "C" 
			},
			{
				"x": 0.1648133202,
				"y": -0.2026391209,
				"z": -3.2991436703,
				"element": "C" 
			},
			{
				"x": -0.9458198359,
				"y": -0.1748806905,
				"z": -2.4634791579,
				"element": "C" 
			},
			{
				"x": -0.773344844,
				"y": -0.2894573662,
				"z": -1.0797547796,
				"element": "C" 
			},
			{
				"x": -1.9250522051,
				"y": -0.3047156362,
				"z": -0.3323533205,
				"element": "O" 
			},
			{
				"x": -1.9170986385,
				"y": 0.0446373582,
				"z": 1.0068044032,
				"element": "C" 
			},
			{
				"x": -1.3595815679,
				"y": 1.2505423748,
				"z": 1.4399126351,
				"element": "C" 
			},
			{
				"x": -1.4673482401,
				"y": 1.567705275,
				"z": 2.7886990628,
				"element": "C" 
			},
			{
				"x": -0.9322698333,
				"y": 2.7278424289,
				"z": 3.2180331644,
				"element": "F" 
			},
			{
				"x": -2.1116036986,
				"y": 0.7421234395,
				"z": 3.7045328938,
				"element": "C" 
			},
			{
				"x": -2.6675587958,
				"y": -0.4502675412,
				"z": 3.2394895643,
				"element": "C" 
			},
			{
				"x": -2.5724173933,
				"y": -0.8097145266,
				"z": 1.8942271218,
				"element": "C" 
			},
			{
				"x": 0.5072806921,
				"y": -0.4504904463,
				"z": -0.5354172073,
				"element": "C" 
			},
			{
				"x": 1.6076817449,
				"y": -0.4806330517,
				"z": -1.3842759595,
				"element": "C" 
			},
			{
				"x": 1.7628092441,
				"y": 0.5782390321,
				"z": -4.9894855286,
				"element": "H" 
			},
			{
				"x": 0.0022879809,
				"y": -0.1500251373,
				"z": -4.3730784921,
				"element": "H" 
			},
			{
				"x": -1.9505772507,
				"y": -0.0772734919,
				"z": -2.8599115959,
				"element": "H" 
			},
			{
				"x": -0.8620143277,
				"y": 1.9283479624,
				"z": 0.756663965,
				"element": "H" 
			},
			{
				"x": -2.1700987557,
				"y": 1.037294069,
				"z": 4.745868856,
				"element": "H" 
			},
			{
				"x": -3.1767548601,
				"y": -1.1101581037,
				"z": 3.934877962,
				"element": "H" 
			},
			{
				"x": -2.9994280466,
				"y": -1.7333064118,
				"z": 1.5201663057,
				"element": "H" 
			},
			{
				"x": 0.6359967419,
				"y": -0.5592891625,
				"z": 0.5351976049,
				"element": "H" 
			},
			{
				"x": 2.6074235344,
				"y": -0.6194709057,
				"z": -0.9871056963,
				"element": "H" 
			}
		],
		 "valence_orbital": [ 
			{
				"type": "occ",
				"energy": -0.27934,
				"method": "rhf"
			},
			{
				"type": "occ",
				"energy": -0.2758,
				"method": "rhf"
			},
			{
				"type": "occ",
				"energy": -0.26815,
				"method": "rhf"
			},
			{
				"type": "occ",
				"energy": -0.25897,
				"method": "rhf"
			},
			{
				"type": "occ",
				"energy": -0.2402,
				"method": "rhf"
			},
			{
				"type": "unocc",
				"energy": -0.04896,
				"method": "rhf"
			},
			{
				"type": "unocc",
				"energy": -0.03009,
				"method": "rhf"
			},
			{
				"type": "unocc",
				"energy": -0.01976,
				"method": "rhf"
			},
			{
				"type": "unocc",
				"energy": -0.00913,
				"method": "rhf"
			},
			{
				"type": "unocc",
				"energy": 0.04971,
				"method": "rhf"
			}
		],
		"cosmo_sigma_profile": { 
			"-0.025": 0.0,
			"-0.024": 0.0,
			"-0.023": 0.0,
			"-0.022": 0.0,
			"-0.021": 0.0,
			"-0.02": 0.0,
			"-0.019": 0.249432189359,
			"-0.018": 0.955694051172,
			"-0.017": 0.805009500658,
			"-0.016": 1.06712669395,
			"-0.015": 1.11479758793,
			"-0.014": 0.596556907083,
			"-0.013": 1.16912452108,
			"-0.012": 1.2114071699,
			"-0.011": 1.28204933004,
			"-0.01": 1.11300326477,
			"-0.009": 1.16846339336,
			"-0.008": 3.31811305404,
			"-0.007": 11.0381883267,
			"-0.006": 15.1763894434,
			"-0.005": 14.2837416781,
			"-0.004": 13.4747048693,
			"-0.003": 14.2171843363,
			"-0.002": 13.2951187445,
			"-0.001": 14.6449674086,
			"0.0": 19.7603565758,
			"0.001": 24.072260939,
			"0.002": 26.4905014193,
			"0.003": 23.1177151096,
			"0.004": 18.5208670717,
			"0.005": 5.39195532493,
			"0.006": 4.16456463218,
			"0.007": 3.01701900343,
			"0.008": 3.03164432197,
			"0.009": 3.7426522885,
			"0.01": 4.14077041123,
			"0.011": 5.33348175138,
			"0.012": 5.34938078519,
			"0.013": 1.94128002945,
			"0.014": 0.141322143964,
			"0.015": 0.0,
			"0.016": 0.0,
			"0.017": 0.0,
			"0.018": 0.0,
			"0.019": 0.0,
			"0.02": 0.0,
			"0.021": 0.0,
			"0.022": 0.0,
			"0.023": 0.0,
			"0.024": 0.0,
			"0.025": 0.0
		}
	}
}
