{
	 "smiles": "NCC1=CC=C(C=C1)N1C=NC2=C1C=CC=C2", 
	 "Tm": 346.15, 
	 "num_atms": 30, 
	 "gaussian": { 
		 "optdone": 1, 
		 "sigma_profile": "yes", 
		 "theory": "DFT", 
		 "functional": "B3LYP", 
		 "basiset": "6-31G**", 
		 "properties": { 
			 "R2extent": 5701.6925, 
			 "electric_dipole_moment_norm": 2.54913332331, 
			 "electric_quadrupole_moment_norm": 21.4719235291, 
			 "total_energy": -705.584245971, 
			 "HOMO_LUMO_gap": 0.19048, 
			 "cosmo_polarized_energy": -14.21, 
			 "cosmo_cavitation_energy": 33.89, 
			 "cosmo_dispersion_energy": -24.42, 
			 "cosmo_repulsion_energy": 1.88, 
			 "cosmo_total_nonelectrostatic_energy": 11.34, 
			 "SMD_solvation_energy": 2.44 
		},
		"coords": [
			{
				"x": -0.3889176859,
				"y": -3.7109272695,
				"z": -2.417927528,
				"element": "N" 
			},
			{
				"x": 0.2935693922,
				"y": -2.5095935747,
				"z": -2.9245398425,
				"element": "C" 
			},
			{
				"x": 0.0956827523,
				"y": -1.2477552733,
				"z": -2.1016858566,
				"element": "C" 
			},
			{
				"x": -0.9682436394,
				"y": -0.3742629009,
				"z": -2.3633682424,
				"element": "C" 
			},
			{
				"x": -1.1981983818,
				"y": 0.7465932849,
				"z": -1.5678165795,
				"element": "C" 
			},
			{
				"x": -0.3406261273,
				"y": 1.0297228137,
				"z": -0.4984437887,
				"element": "C" 
			},
			{
				"x": 0.7382205832,
				"y": 0.177729356,
				"z": -0.23153029,
				"element": "C" 
			},
			{
				"x": 0.9411027884,
				"y": -0.9501008085,
				"z": -1.0235603569,
				"element": "C" 
			},
			{
				"x": -0.5531926173,
				"y": 2.1909435842,
				"z": 0.2901522946,
				"element": "N" 
			},
			{
				"x": -0.8272533658,
				"y": 3.4627528489,
				"z": -0.1908611238,
				"element": "C" 
			},
			{
				"x": -0.9687864982,
				"y": 4.3693298437,
				"z": 0.736952859,
				"element": "N" 
			},
			{
				"x": -0.785591314,
				"y": 3.6813325871,
				"z": 1.9304378414,
				"element": "C" 
			},
			{
				"x": -0.5197080947,
				"y": 2.3133849856,
				"z": 1.6796434384,
				"element": "C" 
			},
			{
				"x": -0.3286171779,
				"y": 1.3893946293,
				"z": 2.710525449,
				"element": "C" 
			},
			{
				"x": -0.3900939527,
				"y": 1.8797968741,
				"z": 4.012641253,
				"element": "C" 
			},
			{
				"x": -0.6388568969,
				"y": 3.2413007516,
				"z": 4.2786966926,
				"element": "C" 
			},
			{
				"x": -0.842260952,
				"y": 4.152604848,
				"z": 3.2479739836,
				"element": "C" 
			},
			{
				"x": -1.3879416739,
				"y": -3.527088355,
				"z": -2.3470740882,
				"element": "H" 
			},
			{
				"x": -0.0769852602,
				"y": -3.9012663269,
				"z": -1.467510869,
				"element": "H" 
			},
			{
				"x": 1.3628679607,
				"y": -2.7402269724,
				"z": -2.9916193068,
				"element": "H" 
			},
			{
				"x": -0.0547830627,
				"y": -2.3378658389,
				"z": -3.9492511911,
				"element": "H" 
			},
			{
				"x": -1.6358970491,
				"y": -0.5780964658,
				"z": -3.1973799052,
				"element": "H" 
			},
			{
				"x": -2.0450056283,
				"y": 1.3967853963,
				"z": -1.7641654414,
				"element": "H" 
			},
			{
				"x": 1.4232268694,
				"y": 0.4154017253,
				"z": 0.5753964803,
				"element": "H" 
			},
			{
				"x": 1.7865838266,
				"y": -1.6006829683,
				"z": -0.8113185337,
				"element": "H" 
			},
			{
				"x": -0.8822079746,
				"y": 3.6424918424,
				"z": -1.2569146984,
				"element": "H" 
			},
			{
				"x": -0.1487509442,
				"y": 0.3381992625,
				"z": 2.5127295338,
				"element": "H" 
			},
			{
				"x": -0.2451322007,
				"y": 1.1944345337,
				"z": 4.8425685838,
				"element": "H" 
			},
			{
				"x": -0.6765043303,
				"y": 3.5799525125,
				"z": 5.309811939,
				"element": "H" 
			},
			{
				"x": -1.0449993449,
				"y": 5.2008150745,
				"z": 3.4421372936,
				"element": "H" 
			}
		],
		 "valence_orbital": [ 
			{
				"type": "occ",
				"energy": -0.26983,
				"method": "rhf"
			},
			{
				"type": "occ",
				"energy": -0.26416,
				"method": "rhf"
			},
			{
				"type": "occ",
				"energy": -0.24239,
				"method": "rhf"
			},
			{
				"type": "occ",
				"energy": -0.22681,
				"method": "rhf"
			},
			{
				"type": "occ",
				"energy": -0.21833,
				"method": "rhf"
			},
			{
				"type": "unocc",
				"energy": -0.02785,
				"method": "rhf"
			},
			{
				"type": "unocc",
				"energy": -0.0225,
				"method": "rhf"
			},
			{
				"type": "unocc",
				"energy": -0.01317,
				"method": "rhf"
			},
			{
				"type": "unocc",
				"energy": 0.02463,
				"method": "rhf"
			},
			{
				"type": "unocc",
				"energy": 0.05264,
				"method": "rhf"
			}
		],
		"cosmo_sigma_profile": { 
			"-0.025": 0.0,
			"-0.024": 0.0,
			"-0.023": 0.0,
			"-0.022": 0.0,
			"-0.021": 0.0,
			"-0.02": 0.0,
			"-0.019": 0.0,
			"-0.018": 0.0,
			"-0.017": 0.0,
			"-0.016": 0.0,
			"-0.015": 0.0,
			"-0.014": 0.0,
			"-0.013": 0.0,
			"-0.012": 0.0,
			"-0.011": 0.0,
			"-0.01": 0.780532553777,
			"-0.009": 3.74129643446,
			"-0.008": 4.76383385123,
			"-0.007": 7.7102147078,
			"-0.006": 17.3115388659,
			"-0.005": 25.0643698529,
			"-0.004": 23.1616513252,
			"-0.003": 21.7491014762,
			"-0.002": 16.8293886636,
			"-0.001": 18.9457115717,
			"0.0": 17.7847502521,
			"0.001": 15.350919736,
			"0.002": 15.2830446308,
			"0.003": 16.341521932,
			"0.004": 21.0000803211,
			"0.005": 14.3675407381,
			"0.006": 7.55006250536,
			"0.007": 2.29175775817,
			"0.008": 2.95742564536,
			"0.009": 2.0381918614,
			"0.01": 1.54832514542,
			"0.011": 2.05661511181,
			"0.012": 2.442267992,
			"0.013": 0.885494032808,
			"0.014": 1.55744236006,
			"0.015": 2.0366148238,
			"0.016": 2.20052935211,
			"0.017": 1.15454748299,
			"0.018": 0.905478262698,
			"0.019": 0.458100864309,
			"0.02": 0.268367470787,
			"0.021": 0.0,
			"0.022": 0.0,
			"0.023": 0.0,
			"0.024": 0.0,
			"0.025": 0.0
		}
	}
}
