{
	 "smiles": "CN(N)C1=CC=C(C=N1)C(F)(F)F", 
	 "Tm": 326.65, 
	 "num_atms": 21, 
	 "gaussian": { 
		 "optdone": 1, 
		 "sigma_profile": "yes", 
		 "theory": "DFT", 
		 "functional": "B3LYP", 
		 "basiset": "6-31G**", 
		 "properties": { 
			 "R2extent": 4186.9495, 
			 "electric_dipole_moment_norm": 3.03250633305, 
			 "electric_quadrupole_moment_norm": 15.5849072214, 
			 "total_energy": -735.314899209, 
			 "HOMO_LUMO_gap": 0.1878, 
			 "cosmo_polarized_energy": -7.59, 
			 "cosmo_cavitation_energy": 26.37, 
			 "cosmo_dispersion_energy": -18.96, 
			 "cosmo_repulsion_energy": 1.45, 
			 "cosmo_total_nonelectrostatic_energy": 8.85, 
			 "SMD_solvation_energy": 5.22 
		},
		"coords": [
			{
				"x": 2.148109882,
				"y": -2.0015527735,
				"z": 0.5322420344,
				"element": "C" 
			},
			{
				"x": 1.328959204,
				"y": -0.8982513785,
				"z": 0.0651525686,
				"element": "N" 
			},
			{
				"x": 2.0071589935,
				"y": 0.1594091475,
				"z": -0.5795915663,
				"element": "N" 
			},
			{
				"x": -0.0254505592,
				"y": -0.8378674012,
				"z": 0.266380949,
				"element": "C" 
			},
			{
				"x": -0.7252297258,
				"y": -1.8774153265,
				"z": 0.9357833489,
				"element": "C" 
			},
			{
				"x": -2.0905851368,
				"y": -1.7509820857,
				"z": 1.096753421,
				"element": "C" 
			},
			{
				"x": -2.7471970906,
				"y": -0.6121121534,
				"z": 0.6047073717,
				"element": "C" 
			},
			{
				"x": -1.9724908009,
				"y": 0.3544349362,
				"z": -0.0325664746,
				"element": "C" 
			},
			{
				"x": -0.6522649651,
				"y": 0.2604352709,
				"z": -0.20281453,
				"element": "N" 
			},
			{
				"x": -4.2310665165,
				"y": -0.4747481378,
				"z": 0.7254620255,
				"element": "C" 
			},
			{
				"x": -4.6380181829,
				"y": 0.804096512,
				"z": 0.5632901884,
				"element": "F" 
			},
			{
				"x": -4.8915755652,
				"y": -1.216682389,
				"z": -0.1982195881,
				"element": "F" 
			},
			{
				"x": -4.6745895865,
				"y": -0.8944571002,
				"z": 1.93529776,
				"element": "F" 
			},
			{
				"x": 3.1714805393,
				"y": -1.7886712308,
				"z": 0.2287948507,
				"element": "H" 
			},
			{
				"x": 2.1168309954,
				"y": -2.1039891211,
				"z": 1.6256525131,
				"element": "H" 
			},
			{
				"x": 1.8380684812,
				"y": -2.9561728972,
				"z": 0.0871454845,
				"element": "H" 
			},
			{
				"x": 1.5757443872,
				"y": 0.2876130802,
				"z": -1.495661095,
				"element": "H" 
			},
			{
				"x": 1.7887804464,
				"y": 1.0194150105,
				"z": -0.0746404695,
				"element": "H" 
			},
			{
				"x": -0.2059924011,
				"y": -2.7476701092,
				"z": 1.3166166156,
				"element": "H" 
			},
			{
				"x": -2.6536131098,
				"y": -2.5244283463,
				"z": 1.6100070746,
				"element": "H" 
			},
			{
				"x": -2.4399592884,
				"y": 1.2564964933,
				"z": -0.4199924827,
				"element": "H" 
			}
		],
		 "valence_orbital": [ 
			{
				"type": "occ",
				"energy": -0.3109,
				"method": "rhf"
			},
			{
				"type": "occ",
				"energy": -0.29178,
				"method": "rhf"
			},
			{
				"type": "occ",
				"energy": -0.28394,
				"method": "rhf"
			},
			{
				"type": "occ",
				"energy": -0.26408,
				"method": "rhf"
			},
			{
				"type": "occ",
				"energy": -0.21694,
				"method": "rhf"
			},
			{
				"type": "unocc",
				"energy": -0.02914,
				"method": "rhf"
			},
			{
				"type": "unocc",
				"energy": -0.01329,
				"method": "rhf"
			},
			{
				"type": "unocc",
				"energy": 0.07712,
				"method": "rhf"
			},
			{
				"type": "unocc",
				"energy": 0.1027,
				"method": "rhf"
			},
			{
				"type": "unocc",
				"energy": 0.11803,
				"method": "rhf"
			}
		],
		"cosmo_sigma_profile": { 
			"-0.025": 0.0,
			"-0.024": 0.0,
			"-0.023": 0.0,
			"-0.022": 0.0,
			"-0.021": 0.0,
			"-0.02": 0.0,
			"-0.019": 0.0,
			"-0.018": 0.0,
			"-0.017": 0.0,
			"-0.016": 0.0,
			"-0.015": 0.0,
			"-0.014": 0.0,
			"-0.013": 0.0,
			"-0.012": 0.0,
			"-0.011": 0.455540121299,
			"-0.01": 1.98561211654,
			"-0.009": 2.47337182744,
			"-0.008": 2.72344424104,
			"-0.007": 5.63619245879,
			"-0.006": 8.54094491214,
			"-0.005": 13.2679229845,
			"-0.004": 12.7017000091,
			"-0.003": 13.6275029565,
			"-0.002": 14.6247675251,
			"-0.001": 12.2940550232,
			"0.0": 15.066643009,
			"0.001": 19.5041288091,
			"0.002": 24.2934352662,
			"0.003": 35.9252546943,
			"0.004": 10.408151206,
			"0.005": 2.49897315736,
			"0.006": 2.17493912917,
			"0.007": 1.57620411705,
			"0.008": 2.77283483769,
			"0.009": 1.5082840433,
			"0.01": 1.56404263758,
			"0.011": 1.00457557144,
			"0.012": 1.07846522179,
			"0.013": 0.612863324648,
			"0.014": 0.824402397427,
			"0.015": 0.561759026231,
			"0.016": 0.0728999350055,
			"0.017": 0.0,
			"0.018": 0.0,
			"0.019": 0.0,
			"0.02": 0.0,
			"0.021": 0.0,
			"0.022": 0.0,
			"0.023": 0.0,
			"0.024": 0.0,
			"0.025": 0.0
		}
	}
}
