{
	 "smiles": "CC(C)(C)OC(=O)N1CCC2=C(C1)C=C(N)C=C2", 
	 "Tm": 367.15, 
	 "num_atms": 38, 
	 "gaussian": { 
		 "optdone": 1, 
		 "sigma_profile": "yes", 
		 "theory": "DFT", 
		 "functional": "B3LYP", 
		 "basiset": "6-31G**", 
		 "properties": { 
			 "R2extent": 6732.1044, 
			 "electric_dipole_moment_norm": 2.68485993303, 
			 "electric_quadrupole_moment_norm": 22.2544691633, 
			 "total_energy": -805.54331251, 
			 "HOMO_LUMO_gap": 0.19819, 
			 "cosmo_polarized_energy": -13.09, 
			 "cosmo_cavitation_energy": 38.9, 
			 "cosmo_dispersion_energy": -27.57, 
			 "cosmo_repulsion_energy": 2.14, 
			 "cosmo_total_nonelectrostatic_energy": 13.47, 
			 "SMD_solvation_energy": 6.56 
		},
		"coords": [
			{
				"x": -1.5595142706,
				"y": 4.7470921217,
				"z": -0.3242070099,
				"element": "C" 
			},
			{
				"x": -1.2615917735,
				"y": 4.0121191202,
				"z": 0.9873810687,
				"element": "C" 
			},
			{
				"x": -2.5267971798,
				"y": 3.7693134341,
				"z": 1.8177061813,
				"element": "C" 
			},
			{
				"x": -0.2145926441,
				"y": 4.7719660265,
				"z": 1.8070542102,
				"element": "C" 
			},
			{
				"x": -0.5847399397,
				"y": 2.7369211146,
				"z": 0.7116895215,
				"element": "O" 
			},
			{
				"x": -1.1976941512,
				"y": 1.7681346264,
				"z": -0.0156466208,
				"element": "C" 
			},
			{
				"x": -2.3263148252,
				"y": 1.8453440382,
				"z": -0.4846484089,
				"element": "O" 
			},
			{
				"x": -0.3884672493,
				"y": 0.6732245971,
				"z": -0.166295738,
				"element": "N" 
			},
			{
				"x": 0.9615997288,
				"y": 0.5386442939,
				"z": 0.3722777582,
				"element": "C" 
			},
			{
				"x": 0.9984804845,
				"y": -0.6079655787,
				"z": 1.3869601923,
				"element": "C" 
			},
			{
				"x": 0.3786241516,
				"y": -1.8673020538,
				"z": 0.8158082182,
				"element": "C" 
			},
			{
				"x": -0.5275516496,
				"y": -1.7996907839,
				"z": -0.2540452444,
				"element": "C" 
			},
			{
				"x": -0.8973201874,
				"y": -0.476292658,
				"z": -0.9031099798,
				"element": "C" 
			},
			{
				"x": -1.0923045349,
				"y": -2.9692896201,
				"z": -0.771762903,
				"element": "C" 
			},
			{
				"x": -0.7836972176,
				"y": -4.2281837437,
				"z": -0.2403691587,
				"element": "C" 
			},
			{
				"x": -1.4049054225,
				"y": -5.3841233952,
				"z": -0.7228629003,
				"element": "N" 
			},
			{
				"x": 0.1230953478,
				"y": -4.2935160577,
				"z": 0.8327194771,
				"element": "C" 
			},
			{
				"x": 0.6867747657,
				"y": -3.129834448,
				"z": 1.3403429002,
				"element": "C" 
			},
			{
				"x": -0.6413293603,
				"y": 4.8681369596,
				"z": -0.908070934,
				"element": "H" 
			},
			{
				"x": -2.2888235284,
				"y": 4.1989757348,
				"z": -0.920567832,
				"element": "H" 
			},
			{
				"x": -1.9560600717,
				"y": 5.7439374228,
				"z": -0.1049483755,
				"element": "H" 
			},
			{
				"x": -3.2661861771,
				"y": 3.2095443223,
				"z": 1.2451004267,
				"element": "H" 
			},
			{
				"x": -2.960079001,
				"y": 4.7293358656,
				"z": 2.1172498983,
				"element": "H" 
			},
			{
				"x": -2.2822942569,
				"y": 3.2091784979,
				"z": 2.7259897386,
				"element": "H" 
			},
			{
				"x": 0.0309205178,
				"y": 4.2251043999,
				"z": 2.7222498266,
				"element": "H" 
			},
			{
				"x": -0.5979801728,
				"y": 5.7581126292,
				"z": 2.0855542479,
				"element": "H" 
			},
			{
				"x": 0.7043308618,
				"y": 4.9085835569,
				"z": 1.2291826939,
				"element": "H" 
			},
			{
				"x": 1.6510193249,
				"y": 0.3245528118,
				"z": -0.4575781495,
				"element": "H" 
			},
			{
				"x": 1.2592069768,
				"y": 1.4823180255,
				"z": 0.823508324,
				"element": "H" 
			},
			{
				"x": 2.0348903422,
				"y": -0.7988847378,
				"z": 1.6921035151,
				"element": "H" 
			},
			{
				"x": 0.458206781,
				"y": -0.2912747403,
				"z": 2.290153258,
				"element": "H" 
			},
			{
				"x": -1.9810574933,
				"y": -0.3654592537,
				"z": -0.9734818847,
				"element": "H" 
			},
			{
				"x": -0.5092347686,
				"y": -0.4598093764,
				"z": -1.9351632832,
				"element": "H" 
			},
			{
				"x": -1.794842251,
				"y": -2.9001148937,
				"z": -1.600875543,
				"element": "H" 
			},
			{
				"x": -0.8910699494,
				"y": -6.2403435863,
				"z": -0.5656277107,
				"element": "H" 
			},
			{
				"x": -1.7427836057,
				"y": -5.3217487526,
				"z": -1.6736010874,
				"element": "H" 
			},
			{
				"x": 0.380029009,
				"y": -5.2583594591,
				"z": 1.2631909845,
				"element": "H" 
			},
			{
				"x": 1.3916533896,
				"y": -3.2008464598,
				"z": 2.1660403225,
				"element": "H" 
			}
		],
		 "valence_orbital": [ 
			{
				"type": "occ",
				"energy": -0.28057,
				"method": "rhf"
			},
			{
				"type": "occ",
				"energy": -0.25355,
				"method": "rhf"
			},
			{
				"type": "occ",
				"energy": -0.24014,
				"method": "rhf"
			},
			{
				"type": "occ",
				"energy": -0.22669,
				"method": "rhf"
			},
			{
				"type": "occ",
				"energy": -0.196,
				"method": "rhf"
			},
			{
				"type": "unocc",
				"energy": 0.00219,
				"method": "rhf"
			},
			{
				"type": "unocc",
				"energy": 0.02115,
				"method": "rhf"
			},
			{
				"type": "unocc",
				"energy": 0.06239,
				"method": "rhf"
			},
			{
				"type": "unocc",
				"energy": 0.08285,
				"method": "rhf"
			},
			{
				"type": "unocc",
				"energy": 0.08776,
				"method": "rhf"
			}
		],
		"cosmo_sigma_profile": { 
			"-0.025": 0.0,
			"-0.024": 0.0,
			"-0.023": 0.0,
			"-0.022": 0.0,
			"-0.021": 0.0,
			"-0.02": 0.0,
			"-0.019": 0.0,
			"-0.018": 0.0,
			"-0.017": 0.0,
			"-0.016": 0.0,
			"-0.015": 0.0,
			"-0.014": 0.0,
			"-0.013": 0.0875006382689,
			"-0.012": 1.73979765346,
			"-0.011": 2.86169082235,
			"-0.01": 3.0028918695,
			"-0.009": 2.75762906424,
			"-0.008": 2.59159445085,
			"-0.007": 3.35257300628,
			"-0.006": 3.69042713127,
			"-0.005": 8.21505975631,
			"-0.004": 28.2582286033,
			"-0.003": 34.7567079049,
			"-0.002": 31.8616516966,
			"-0.001": 31.1235249149,
			"0.0": 33.3535625597,
			"0.001": 30.6732910211,
			"0.002": 13.7714224318,
			"0.003": 10.3054289231,
			"0.004": 11.4881987362,
			"0.005": 10.9223291146,
			"0.006": 10.5311719343,
			"0.007": 9.88583031532,
			"0.008": 4.22836731342,
			"0.009": 1.22433456022,
			"0.01": 2.28833976662,
			"0.011": 2.56992451732,
			"0.012": 2.45817472871,
			"0.013": 3.49385638904,
			"0.014": 1.98918446109,
			"0.015": 0.480458802378,
			"0.016": 0.0,
			"0.017": 0.0,
			"0.018": 0.0,
			"0.019": 0.0,
			"0.02": 0.0,
			"0.021": 0.0,
			"0.022": 0.0,
			"0.023": 0.0,
			"0.024": 0.0,
			"0.025": 0.0
		}
	}
}
