{
	 "smiles": "ClCCCNC(=O)C1CCCC1", 
	 "Tm": 340.15, 
	 "num_atms": 28, 
	 "gaussian": { 
		 "optdone": 1, 
		 "sigma_profile": "yes", 
		 "theory": "DFT", 
		 "functional": "B3LYP", 
		 "basiset": "6-31G**", 
		 "properties": { 
			 "R2extent": 4676.2766, 
			 "electric_dipole_moment_norm": 3.12326534416, 
			 "electric_quadrupole_moment_norm": 15.9123197705, 
			 "total_energy": -942.796831622, 
			 "HOMO_LUMO_gap": 0.25983, 
			 "cosmo_polarized_energy": -13.9, 
			 "cosmo_cavitation_energy": 30.96, 
			 "cosmo_dispersion_energy": -22.22, 
			 "cosmo_repulsion_energy": 1.82, 
			 "cosmo_total_nonelectrostatic_energy": 10.56, 
			 "SMD_solvation_energy": 4.24 
		},
		"coords": [
			{
				"x": -4.9361293755,
				"y": -2.6686634271,
				"z": 2.0942902677,
				"element": "Cl" 
			},
			{
				"x": -3.2277424853,
				"y": -2.931485266,
				"z": 1.5369001325,
				"element": "C" 
			},
			{
				"x": -2.3186912964,
				"y": -1.7861258131,
				"z": 1.9635691601,
				"element": "C" 
			},
			{
				"x": -0.8544431719,
				"y": -2.0038597778,
				"z": 1.5315307475,
				"element": "C" 
			},
			{
				"x": -0.6458917015,
				"y": -2.0685767026,
				"z": 0.093168658,
				"element": "N" 
			},
			{
				"x": -0.244294179,
				"y": -1.0982131329,
				"z": -0.7979793857,
				"element": "C" 
			},
			{
				"x": -0.216340101,
				"y": -1.3547585206,
				"z": -1.997071589,
				"element": "O" 
			},
			{
				"x": 0.1303623336,
				"y": 0.2815612152,
				"z": -0.2600002826,
				"element": "C" 
			},
			{
				"x": 1.1387966052,
				"y": 1.017186,
				"z": -1.1949902482,
				"element": "C" 
			},
			{
				"x": 0.3949407549,
				"y": 2.2583084824,
				"z": -1.7299042826,
				"element": "C" 
			},
			{
				"x": -0.6109875037,
				"y": 2.5953805286,
				"z": -0.6202148606,
				"element": "C" 
			},
			{
				"x": -1.1259550869,
				"y": 1.2118126314,
				"z": -0.1908901995,
				"element": "C" 
			},
			{
				"x": -2.9096386664,
				"y": -3.8839709072,
				"z": 1.9674396863,
				"element": "H" 
			},
			{
				"x": -3.275777955,
				"y": -3.0283182211,
				"z": 0.4510895372,
				"element": "H" 
			},
			{
				"x": -2.6920867307,
				"y": -0.8484732202,
				"z": 1.5400776172,
				"element": "H" 
			},
			{
				"x": -2.3497122177,
				"y": -1.6878082047,
				"z": 3.0547661989,
				"element": "H" 
			},
			{
				"x": -0.2445128829,
				"y": -1.1978307295,
				"z": 1.9444762823,
				"element": "H" 
			},
			{
				"x": -0.4752042687,
				"y": -2.9337840095,
				"z": 1.9749366828,
				"element": "H" 
			},
			{
				"x": -0.8825731046,
				"y": -2.9321111418,
				"z": -0.3790486743,
				"element": "H" 
			},
			{
				"x": 0.5646744314,
				"y": 0.189666473,
				"z": 0.7401677775,
				"element": "H" 
			},
			{
				"x": 1.4755956557,
				"y": 0.3608938853,
				"z": -1.9988541774,
				"element": "H" 
			},
			{
				"x": 2.0156673678,
				"y": 1.3222027338,
				"z": -0.6135501954,
				"element": "H" 
			},
			{
				"x": -0.1460638985,
				"y": 1.996775988,
				"z": -2.6470377948,
				"element": "H" 
			},
			{
				"x": 1.0693727907,
				"y": 3.0863229785,
				"z": -1.9699546102,
				"element": "H" 
			},
			{
				"x": -1.4163303617,
				"y": 3.2616086659,
				"z": -0.9464553753,
				"element": "H" 
			},
			{
				"x": -0.0987981649,
				"y": 3.0846182808,
				"z": 0.2188287834,
				"element": "H" 
			},
			{
				"x": -1.5942789557,
				"y": 1.2125440172,
				"z": 0.7984265295,
				"element": "H" 
			},
			{
				"x": -1.8768578311,
				"y": 0.8660971941,
				"z": -0.911016385,
				"element": "H" 
			}
		],
		 "valence_orbital": [ 
			{
				"type": "occ",
				"energy": -0.31689,
				"method": "rhf"
			},
			{
				"type": "occ",
				"energy": -0.30095,
				"method": "rhf"
			},
			{
				"type": "occ",
				"energy": -0.29934,
				"method": "rhf"
			},
			{
				"type": "occ",
				"energy": -0.25213,
				"method": "rhf"
			},
			{
				"type": "occ",
				"energy": -0.24586,
				"method": "rhf"
			},
			{
				"type": "unocc",
				"energy": 0.01397,
				"method": "rhf"
			},
			{
				"type": "unocc",
				"energy": 0.0268,
				"method": "rhf"
			},
			{
				"type": "unocc",
				"energy": 0.06918,
				"method": "rhf"
			},
			{
				"type": "unocc",
				"energy": 0.07783,
				"method": "rhf"
			},
			{
				"type": "unocc",
				"energy": 0.09687,
				"method": "rhf"
			}
		],
		"cosmo_sigma_profile": { 
			"-0.025": 0.0,
			"-0.024": 0.0,
			"-0.023": 0.0,
			"-0.022": 0.0,
			"-0.021": 0.0,
			"-0.02": 0.0,
			"-0.019": 0.0,
			"-0.018": 0.0,
			"-0.017": 0.0,
			"-0.016": 0.0,
			"-0.015": 0.0,
			"-0.014": 0.0,
			"-0.013": 0.332152424109,
			"-0.012": 1.17716951641,
			"-0.011": 1.28659092627,
			"-0.01": 1.70940571786,
			"-0.009": 1.46754246373,
			"-0.008": 1.90445968473,
			"-0.007": 7.14235757837,
			"-0.006": 9.80133587066,
			"-0.005": 11.2749289653,
			"-0.004": 17.4647416915,
			"-0.003": 21.6799833487,
			"-0.002": 27.6721909672,
			"-0.001": 26.9082449968,
			"0.0": 23.5679372095,
			"0.001": 22.1380080402,
			"0.002": 11.229264649,
			"0.003": 6.61806764698,
			"0.004": 5.78924314099,
			"0.005": 7.81739797993,
			"0.006": 9.32873757266,
			"0.007": 8.9352811319,
			"0.008": 1.81475948557,
			"0.009": 1.51169699901,
			"0.01": 1.13862216723,
			"0.011": 1.04522658991,
			"0.012": 1.90015234728,
			"0.013": 2.10144778795,
			"0.014": 5.02343095974,
			"0.015": 2.8722743001,
			"0.016": 0.00186914546946,
			"0.017": 0.0,
			"0.018": 0.0,
			"0.019": 0.0,
			"0.02": 0.0,
			"0.021": 0.0,
			"0.022": 0.0,
			"0.023": 0.0,
			"0.024": 0.0,
			"0.025": 0.0
		}
	}
}
