{
	 "smiles": "CCNC1=NCC(S1)C1=CC=CC=C1", 
	 "Tm": 373.15, 
	 "num_atms": 28, 
	 "gaussian": { 
		 "optdone": 1, 
		 "sigma_profile": "yes", 
		 "theory": "DFT", 
		 "functional": "B3LYP", 
		 "basiset": "6-31G**", 
		 "properties": { 
			 "R2extent": 4532.9927, 
			 "electric_dipole_moment_norm": 0.797522783374, 
			 "electric_quadrupole_moment_norm": 8.82108896055, 
			 "total_energy": -935.302663194, 
			 "HOMO_LUMO_gap": 0.19843, 
			 "cosmo_polarized_energy": -10.31, 
			 "cosmo_cavitation_energy": 32.06, 
			 "cosmo_dispersion_energy": -23.46, 
			 "cosmo_repulsion_energy": 1.84, 
			 "cosmo_total_nonelectrostatic_energy": 10.44, 
			 "SMD_solvation_energy": 1.8 
		},
		"coords": [
			{
				"x": -3.7658796756,
				"y": -2.7106393876,
				"z": -0.1133853182,
				"element": "C" 
			},
			{
				"x": -2.8549350723,
				"y": -1.7093764387,
				"z": -0.8300660338,
				"element": "C" 
			},
			{
				"x": -1.4287205848,
				"y": -1.9582949132,
				"z": -0.6330499558,
				"element": "N" 
			},
			{
				"x": -0.8003149585,
				"y": -1.6072740663,
				"z": 0.5253261283,
				"element": "C" 
			},
			{
				"x": -1.2893321296,
				"y": -0.8339275354,
				"z": 1.42004863,
				"element": "N" 
			},
			{
				"x": -0.4043753041,
				"y": -0.6886094277,
				"z": 2.5614602446,
				"element": "C" 
			},
			{
				"x": 1.0731000755,
				"y": -1.0469318369,
				"z": 2.1919157625,
				"element": "C" 
			},
			{
				"x": 0.8700487719,
				"y": -2.2574900761,
				"z": 0.7920411683,
				"element": "S" 
			},
			{
				"x": 1.9479585787,
				"y": 0.1306706999,
				"z": 1.8241164271,
				"element": "C" 
			},
			{
				"x": 1.4780354123,
				"y": 1.1607742608,
				"z": 0.9942350411,
				"element": "C" 
			},
			{
				"x": 2.2974238774,
				"y": 2.2415294946,
				"z": 0.6737936129,
				"element": "C" 
			},
			{
				"x": 3.6004199314,
				"y": 2.3123937705,
				"z": 1.1743239955,
				"element": "C" 
			},
			{
				"x": 4.0768505429,
				"y": 1.2947329389,
				"z": 2.0005982685,
				"element": "C" 
			},
			{
				"x": 3.2539434697,
				"y": 0.2135754426,
				"z": 2.3224984838,
				"element": "C" 
			},
			{
				"x": -3.5914860448,
				"y": -2.6745173948,
				"z": 0.9651412996,
				"element": "H" 
			},
			{
				"x": -3.5851159549,
				"y": -3.7334340398,
				"z": -0.4614205221,
				"element": "H" 
			},
			{
				"x": -4.8183208975,
				"y": -2.4704495423,
				"z": -0.299234308,
				"element": "H" 
			},
			{
				"x": -3.0408891099,
				"y": -1.7204596246,
				"z": -1.9094572506,
				"element": "H" 
			},
			{
				"x": -3.0555742042,
				"y": -0.6969595638,
				"z": -0.4709404218,
				"element": "H" 
			},
			{
				"x": -0.9908001888,
				"y": -2.6704962955,
				"z": -1.1963146804,
				"element": "H" 
			},
			{
				"x": -0.442734519,
				"y": 0.3364976445,
				"z": 2.9455474134,
				"element": "H" 
			},
			{
				"x": -0.7446005017,
				"y": -1.3501831962,
				"z": 3.3715165853,
				"element": "H" 
			},
			{
				"x": 1.5398972337,
				"y": -1.5992159057,
				"z": 3.0107028355,
				"element": "H" 
			},
			{
				"x": 0.4664977704,
				"y": 1.1116358701,
				"z": 0.6015007047,
				"element": "H" 
			},
			{
				"x": 1.9181586127,
				"y": 3.0317665239,
				"z": 0.0318624396,
				"element": "H" 
			},
			{
				"x": 4.2369941181,
				"y": 3.1560064949,
				"z": 0.9232673517,
				"element": "H" 
			},
			{
				"x": 5.0869748851,
				"y": 1.3413057976,
				"z": 2.3978199148,
				"element": "H" 
			},
			{
				"x": 3.630575866,
				"y": -0.5757296938,
				"z": 2.9690521833,
				"element": "H" 
			}
		],
		 "valence_orbital": [ 
			{
				"type": "occ",
				"energy": -0.25431,
				"method": "rhf"
			},
			{
				"type": "occ",
				"energy": -0.24942,
				"method": "rhf"
			},
			{
				"type": "occ",
				"energy": -0.2466,
				"method": "rhf"
			},
			{
				"type": "occ",
				"energy": -0.22932,
				"method": "rhf"
			},
			{
				"type": "occ",
				"energy": -0.21427,
				"method": "rhf"
			},
			{
				"type": "unocc",
				"energy": -0.01584,
				"method": "rhf"
			},
			{
				"type": "unocc",
				"energy": 0.00042,
				"method": "rhf"
			},
			{
				"type": "unocc",
				"energy": 0.02087,
				"method": "rhf"
			},
			{
				"type": "unocc",
				"energy": 0.04169,
				"method": "rhf"
			},
			{
				"type": "unocc",
				"energy": 0.08876,
				"method": "rhf"
			}
		],
		"cosmo_sigma_profile": { 
			"-0.025": 0.0,
			"-0.024": 0.0,
			"-0.023": 0.0,
			"-0.022": 0.0,
			"-0.021": 0.0,
			"-0.02": 0.0,
			"-0.019": 0.0,
			"-0.018": 0.0,
			"-0.017": 0.0,
			"-0.016": 0.0,
			"-0.015": 0.048457602978,
			"-0.014": 0.857257356059,
			"-0.013": 1.53632114717,
			"-0.012": 0.796448691888,
			"-0.011": 0.888889764298,
			"-0.01": 1.09174645222,
			"-0.009": 1.60027533398,
			"-0.008": 1.3086555173,
			"-0.007": 2.65660885922,
			"-0.006": 9.24305270301,
			"-0.005": 15.4175186364,
			"-0.004": 21.26889137,
			"-0.003": 25.2042571228,
			"-0.002": 23.3010133996,
			"-0.001": 23.0417371388,
			"0.0": 18.8568700956,
			"0.001": 19.7172435711,
			"0.002": 14.0025628148,
			"0.003": 13.2390537582,
			"0.004": 15.3233505612,
			"0.005": 14.6757911406,
			"0.006": 13.3070694635,
			"0.007": 5.74278505169,
			"0.008": 4.22859225415,
			"0.009": 2.44246848996,
			"0.01": 1.31991494541,
			"0.011": 0.720410766348,
			"0.012": 0.623045888832,
			"0.013": 1.03355748517,
			"0.014": 0.84878638685,
			"0.015": 0.634949042967,
			"0.016": 0.371650587953,
			"0.017": 0.0,
			"0.018": 0.0,
			"0.019": 0.0,
			"0.02": 0.0,
			"0.021": 0.0,
			"0.022": 0.0,
			"0.023": 0.0,
			"0.024": 0.0,
			"0.025": 0.0
		}
	}
}
