{
	 "smiles": "COC(=O)C1=CNNC1=O", 
	 "Tm": 483.15, 
	 "num_atms": 16, 
	 "gaussian": { 
		 "optdone": 1, 
		 "sigma_profile": "yes", 
		 "theory": "DFT", 
		 "functional": "B3LYP", 
		 "basiset": "6-31G**", 
		 "properties": { 
			 "R2extent": 1743.965, 
			 "electric_dipole_moment_norm": 6.71517296948, 
			 "electric_quadrupole_moment_norm": 15.6614985305, 
			 "total_energy": -529.290285335, 
			 "HOMO_LUMO_gap": 0.18928, 
			 "cosmo_polarized_energy": -25.15, 
			 "cosmo_cavitation_energy": 21.37, 
			 "cosmo_dispersion_energy": -15.84, 
			 "cosmo_repulsion_energy": 1.31, 
			 "cosmo_total_nonelectrostatic_energy": 6.84, 
			 "SMD_solvation_energy": 6.36 
		},
		"coords": [
			{
				"x": -2.2185338583,
				"y": -0.5508912799,
				"z": 2.8476552276,
				"element": "C" 
			},
			{
				"x": -1.6727941875,
				"y": 0.0758839718,
				"z": 1.6779029019,
				"element": "O" 
			},
			{
				"x": -1.2776682188,
				"y": -0.7877608151,
				"z": 0.6981221773,
				"element": "C" 
			},
			{
				"x": -1.369952758,
				"y": -1.991675509,
				"z": 0.7948739815,
				"element": "O" 
			},
			{
				"x": -0.7514323628,
				"y": -0.0531877229,
				"z": -0.4588458154,
				"element": "C" 
			},
			{
				"x": -0.6810130305,
				"y": 1.3013107963,
				"z": -0.5999423711,
				"element": "C" 
			},
			{
				"x": -0.0490400667,
				"y": 1.6513482388,
				"z": -1.7642222561,
				"element": "N" 
			},
			{
				"x": 0.0928788443,
				"y": 0.4697540155,
				"z": -2.5187466596,
				"element": "N" 
			},
			{
				"x": -0.1675072544,
				"y": -0.6523372917,
				"z": -1.6740125063,
				"element": "C" 
			},
			{
				"x": 0.0978841647,
				"y": -1.7951710123,
				"z": -1.9869587136,
				"element": "O" 
			},
			{
				"x": -2.4794654947,
				"y": 0.2633222895,
				"z": 3.5242654571,
				"element": "H" 
			},
			{
				"x": -3.1054004766,
				"y": -1.1379963559,
				"z": 2.5950986865,
				"element": "H" 
			},
			{
				"x": -1.4823708544,
				"y": -1.2126534472,
				"z": 3.311199586,
				"element": "H" 
			},
			{
				"x": -1.0473358512,
				"y": 2.0712220997,
				"z": 0.0653769356,
				"element": "H" 
			},
			{
				"x": -0.417648812,
				"y": 2.4379193529,
				"z": -2.2909170461,
				"element": "H" 
			},
			{
				"x": 0.9439002168,
				"y": 0.4228126693,
				"z": -3.0686495852,
				"element": "H" 
			}
		],
		 "valence_orbital": [ 
			{
				"type": "occ",
				"energy": -0.29742,
				"method": "rhf"
			},
			{
				"type": "occ",
				"energy": -0.29649,
				"method": "rhf"
			},
			{
				"type": "occ",
				"energy": -0.27115,
				"method": "rhf"
			},
			{
				"type": "occ",
				"energy": -0.24965,
				"method": "rhf"
			},
			{
				"type": "occ",
				"energy": -0.23482,
				"method": "rhf"
			},
			{
				"type": "unocc",
				"energy": -0.04554,
				"method": "rhf"
			},
			{
				"type": "unocc",
				"energy": 0.01327,
				"method": "rhf"
			},
			{
				"type": "unocc",
				"energy": 0.05865,
				"method": "rhf"
			},
			{
				"type": "unocc",
				"energy": 0.08488,
				"method": "rhf"
			},
			{
				"type": "unocc",
				"energy": 0.11426,
				"method": "rhf"
			}
		],
		"cosmo_sigma_profile": { 
			"-0.025": 0.0,
			"-0.024": 0.0,
			"-0.023": 0.0,
			"-0.022": 0.0,
			"-0.021": 0.0,
			"-0.02": 0.0,
			"-0.019": 0.0,
			"-0.018": 0.0225623807735,
			"-0.017": 1.69753684965,
			"-0.016": 2.556678532,
			"-0.015": 2.89545867308,
			"-0.014": 2.79327407139,
			"-0.013": 2.1862989496,
			"-0.012": 2.85864478702,
			"-0.011": 3.66433092676,
			"-0.01": 3.43117056087,
			"-0.009": 2.89276147351,
			"-0.008": 2.12278405062,
			"-0.007": 2.94949421979,
			"-0.006": 6.11112020746,
			"-0.005": 8.79179438446,
			"-0.004": 10.6977223396,
			"-0.003": 12.3672023019,
			"-0.002": 9.1502443258,
			"-0.001": 10.3985312094,
			"0.0": 10.9175109409,
			"0.001": 8.381648489,
			"0.002": 5.45726400322,
			"0.003": 5.66202191985,
			"0.004": 4.64338039049,
			"0.005": 4.84794437748,
			"0.006": 5.3453554145,
			"0.007": 2.75231482484,
			"0.008": 2.90110655599,
			"0.009": 2.25323482232,
			"0.01": 3.22930309587,
			"0.011": 3.61285365365,
			"0.012": 7.11868101804,
			"0.013": 7.49993975113,
			"0.014": 4.6908117926,
			"0.015": 2.15597755285,
			"0.016": 1.05170669452,
			"0.017": 0.0,
			"0.018": 0.0,
			"0.019": 0.0,
			"0.02": 0.0,
			"0.021": 0.0,
			"0.022": 0.0,
			"0.023": 0.0,
			"0.024": 0.0,
			"0.025": 0.0
		}
	}
}
