{
	 "smiles": "CC(C)(C)OC(=O)N1CC2CNCC2C1", 
	 "Tm": 303.15, 
	 "num_atms": 35, 
	 "gaussian": { 
		 "optdone": 1, 
		 "sigma_profile": "yes", 
		 "theory": "DFT", 
		 "functional": "B3LYP", 
		 "basiset": "6-31G**", 
		 "properties": { 
			 "R2extent": 4129.362, 
			 "electric_dipole_moment_norm": 2.31308128046, 
			 "electric_quadrupole_moment_norm": 12.5470156117, 
			 "total_energy": -691.203001117, 
			 "HOMO_LUMO_gap": 0.26378, 
			 "cosmo_polarized_energy": -10.72, 
			 "cosmo_cavitation_energy": 34.55, 
			 "cosmo_dispersion_energy": -24.37, 
			 "cosmo_repulsion_energy": 1.93, 
			 "cosmo_total_nonelectrostatic_energy": 12.1, 
			 "SMD_solvation_energy": 3.05 
		},
		"coords": [
			{
				"x": -3.5292772014,
				"y": 1.1741146009,
				"z": 0.7885694064,
				"element": "C" 
			},
			{
				"x": -2.1567243169,
				"y": 1.8433144686,
				"z": 0.6558714525,
				"element": "C" 
			},
			{
				"x": -1.7391925993,
				"y": 2.5696123587,
				"z": 1.9393043613,
				"element": "C" 
			},
			{
				"x": -2.1331439262,
				"y": 2.7990096031,
				"z": -0.5402419663,
				"element": "C" 
			},
			{
				"x": -1.1427528126,
				"y": 0.844703272,
				"z": 0.2865302896,
				"element": "O" 
			},
			{
				"x": -0.8522825597,
				"y": -0.1902025641,
				"z": 1.1161156765,
				"element": "C" 
			},
			{
				"x": -1.3841925401,
				"y": -0.4205297335,
				"z": 2.1932967596,
				"element": "O" 
			},
			{
				"x": 0.1580111013,
				"y": -0.9516360817,
				"z": 0.5947849784,
				"element": "N" 
			},
			{
				"x": 0.4947528614,
				"y": -2.2427028318,
				"z": 1.1910556456,
				"element": "C" 
			},
			{
				"x": 1.8447486718,
				"y": -2.6164697257,
				"z": 0.5437799345,
				"element": "C" 
			},
			{
				"x": 3.088221366,
				"y": -2.1937819862,
				"z": 1.379442231,
				"element": "C" 
			},
			{
				"x": 3.4928142546,
				"y": -0.8561759563,
				"z": 0.9293873869,
				"element": "N" 
			},
			{
				"x": 3.2452784452,
				"y": -0.8975962254,
				"z": -0.5167338997,
				"element": "C" 
			},
			{
				"x": 1.9503518593,
				"y": -1.7289696848,
				"z": -0.7496214581,
				"element": "C" 
			},
			{
				"x": 0.6577188652,
				"y": -0.8833727248,
				"z": -0.7779887416,
				"element": "C" 
			},
			{
				"x": -4.2968936653,
				"y": 1.93775207,
				"z": 0.9515250826,
				"element": "H" 
			},
			{
				"x": -3.542096146,
				"y": 0.4749944886,
				"z": 1.6247939913,
				"element": "H" 
			},
			{
				"x": -3.7780178318,
				"y": 0.633872777,
				"z": -0.1305738656,
				"element": "H" 
			},
			{
				"x": -2.4387744041,
				"y": 3.3867059143,
				"z": 2.1439393091,
				"element": "H" 
			},
			{
				"x": -0.7394865364,
				"y": 3.000642254,
				"z": 1.8234250917,
				"element": "H" 
			},
			{
				"x": -1.7345364809,
				"y": 1.8868390466,
				"z": 2.7891154914,
				"element": "H" 
			},
			{
				"x": -2.8597550341,
				"y": 3.6036984414,
				"z": -0.3934933815,
				"element": "H" 
			},
			{
				"x": -1.1414515277,
				"y": 3.2455023904,
				"z": -0.6589442957,
				"element": "H" 
			},
			{
				"x": -2.3852702686,
				"y": 2.2686015932,
				"z": -1.4632160156,
				"element": "H" 
			},
			{
				"x": -0.277310609,
				"y": -2.9919418666,
				"z": 0.9583578031,
				"element": "H" 
			},
			{
				"x": 0.5378455447,
				"y": -2.1483843523,
				"z": 2.2783717096,
				"element": "H" 
			},
			{
				"x": 1.8710192669,
				"y": -3.6865688735,
				"z": 0.3199861438,
				"element": "H" 
			},
			{
				"x": 2.904787812,
				"y": -2.2030967999,
				"z": 2.4579000176,
				"element": "H" 
			},
			{
				"x": 3.9147804943,
				"y": -2.8884694663,
				"z": 1.1800344237,
				"element": "H" 
			},
			{
				"x": 2.8583345611,
				"y": -0.1749136676,
				"z": 1.3434331107,
				"element": "H" 
			},
			{
				"x": 3.1889966207,
				"y": 0.1131362995,
				"z": -0.9321949571,
				"element": "H" 
			},
			{
				"x": 4.0935924461,
				"y": -1.4031301524,
				"z": -0.9967496838,
				"element": "H" 
			},
			{
				"x": 2.0285073781,
				"y": -2.3256420544,
				"z": -1.6628592572,
				"element": "H" 
			},
			{
				"x": -0.073905223,
				"y": -1.3065927602,
				"z": -1.4833215377,
				"element": "H" 
			},
			{
				"x": 0.8287021342,
				"y": 0.1554779291,
				"z": -1.0677812373,
				"element": "H" 
			}
		],
		 "valence_orbital": [ 
			{
				"type": "occ",
				"energy": -0.32525,
				"method": "rhf"
			},
			{
				"type": "occ",
				"energy": -0.28372,
				"method": "rhf"
			},
			{
				"type": "occ",
				"energy": -0.25725,
				"method": "rhf"
			},
			{
				"type": "occ",
				"energy": -0.24499,
				"method": "rhf"
			},
			{
				"type": "occ",
				"energy": -0.21866,
				"method": "rhf"
			},
			{
				"type": "unocc",
				"energy": 0.04512,
				"method": "rhf"
			},
			{
				"type": "unocc",
				"energy": 0.07715,
				"method": "rhf"
			},
			{
				"type": "unocc",
				"energy": 0.08974,
				"method": "rhf"
			},
			{
				"type": "unocc",
				"energy": 0.09035,
				"method": "rhf"
			},
			{
				"type": "unocc",
				"energy": 0.10392,
				"method": "rhf"
			}
		],
		"cosmo_sigma_profile": { 
			"-0.025": 0.0,
			"-0.024": 0.0,
			"-0.023": 0.0,
			"-0.022": 0.0,
			"-0.021": 0.0,
			"-0.02": 0.0,
			"-0.019": 0.0,
			"-0.018": 0.0,
			"-0.017": 0.0,
			"-0.016": 0.0,
			"-0.015": 0.0,
			"-0.014": 0.0,
			"-0.013": 0.0,
			"-0.012": 0.0,
			"-0.011": 0.0,
			"-0.01": 0.0,
			"-0.009": 0.240037862136,
			"-0.008": 1.04255239263,
			"-0.007": 1.0723574486,
			"-0.006": 1.64711889036,
			"-0.005": 5.34097002319,
			"-0.004": 27.4708542717,
			"-0.003": 45.3618183045,
			"-0.002": 42.2776900154,
			"-0.001": 31.7803233661,
			"0.0": 30.5790833269,
			"0.001": 24.5371000775,
			"0.002": 8.99113897864,
			"0.003": 5.99794820947,
			"0.004": 5.77813465336,
			"0.005": 5.02945114323,
			"0.006": 4.51622644965,
			"0.007": 3.40653573555,
			"0.008": 3.47536550601,
			"0.009": 2.30748256689,
			"0.01": 2.03003216516,
			"0.011": 1.98770024647,
			"0.012": 2.5308644522,
			"0.013": 3.47214326598,
			"0.014": 2.96225326931,
			"0.015": 0.947276156792,
			"0.016": 0.548250879385,
			"0.017": 0.568163879076,
			"0.018": 0.701182674717,
			"0.019": 0.397760384982,
			"0.02": 0.0287969471125,
			"0.021": 0.0,
			"0.022": 0.0,
			"0.023": 0.0,
			"0.024": 0.0,
			"0.025": 0.0
		}
	}
}
