{
	 "smiles": "COC1=NC(Cl)=C(Cl)C=N1", 
	 "Tm": 317.15, 
	 "num_atms": 14, 
	 "gaussian": { 
		 "optdone": 1, 
		 "sigma_profile": "yes", 
		 "theory": "DFT", 
		 "functional": "B3LYP", 
		 "basiset": "6-31G**", 
		 "properties": { 
			 "R2extent": 2286.9649, 
			 "electric_dipole_moment_norm": 1.04977565699, 
			 "electric_quadrupole_moment_norm": 10.9594351114, 
			 "total_energy": -1298.03887512, 
			 "HOMO_LUMO_gap": 0.19598, 
			 "cosmo_polarized_energy": -6.7, 
			 "cosmo_cavitation_energy": 22.47, 
			 "cosmo_dispersion_energy": -17.12, 
			 "cosmo_repulsion_energy": 1.41, 
			 "cosmo_total_nonelectrostatic_energy": 6.75, 
			 "SMD_solvation_energy": 1.94 
		},
		"coords": [
			{
				"x": 3.2169261107,
				"y": -0.0735304379,
				"z": -1.2710476704,
				"element": "C" 
			},
			{
				"x": 1.8766139949,
				"y": -0.4205805634,
				"z": -1.6437434672,
				"element": "O" 
			},
			{
				"x": 0.9282567348,
				"y": -0.32180163,
				"z": -0.7104650257,
				"element": "C" 
			},
			{
				"x": 1.2657463832,
				"y": 0.0914994217,
				"z": 0.5160107301,
				"element": "N" 
			},
			{
				"x": 0.2954804567,
				"y": 0.1756537312,
				"z": 1.4115872995,
				"element": "C" 
			},
			{
				"x": 0.7451937769,
				"y": 0.7151324373,
				"z": 3.0075355509,
				"element": "Cl" 
			},
			{
				"x": -1.0287380893,
				"y": -0.1498328239,
				"z": 1.1033880113,
				"element": "C" 
			},
			{
				"x": -2.3401831117,
				"y": -0.0578733539,
				"z": 2.2383906586,
				"element": "Cl" 
			},
			{
				"x": -1.2582988604,
				"y": -0.569707265,
				"z": -0.2134644815,
				"element": "C" 
			},
			{
				"x": -0.2998411724,
				"y": -0.6612190433,
				"z": -1.127159438,
				"element": "N" 
			},
			{
				"x": 3.2751865709,
				"y": 0.9688846311,
				"z": -0.9467253686,
				"element": "H" 
			},
			{
				"x": 3.5764104801,
				"y": -0.7150576608,
				"z": -0.4620902672,
				"element": "H" 
			},
			{
				"x": 3.8110609424,
				"y": -0.2264702541,
				"z": -2.1718131044,
				"element": "H" 
			},
			{
				"x": -2.2665142166,
				"y": -0.8384971888,
				"z": -0.5211034275,
				"element": "H" 
			}
		],
		 "valence_orbital": [ 
			{
				"type": "occ",
				"energy": -0.33205,
				"method": "rhf"
			},
			{
				"type": "occ",
				"energy": -0.32702,
				"method": "rhf"
			},
			{
				"type": "occ",
				"energy": -0.31578,
				"method": "rhf"
			},
			{
				"type": "occ",
				"energy": -0.27628,
				"method": "rhf"
			},
			{
				"type": "occ",
				"energy": -0.2568,
				"method": "rhf"
			},
			{
				"type": "unocc",
				"energy": -0.06082,
				"method": "rhf"
			},
			{
				"type": "unocc",
				"energy": -0.03278,
				"method": "rhf"
			},
			{
				"type": "unocc",
				"energy": -0.00191,
				"method": "rhf"
			},
			{
				"type": "unocc",
				"energy": 0.0459,
				"method": "rhf"
			},
			{
				"type": "unocc",
				"energy": 0.10785,
				"method": "rhf"
			}
		],
		"cosmo_sigma_profile": { 
			"-0.025": 0.0,
			"-0.024": 0.0,
			"-0.023": 0.0,
			"-0.022": 0.0,
			"-0.021": 0.0,
			"-0.02": 0.0,
			"-0.019": 0.0,
			"-0.018": 0.0,
			"-0.017": 0.0,
			"-0.016": 0.0,
			"-0.015": 0.0,
			"-0.014": 0.0,
			"-0.013": 0.0,
			"-0.012": 0.0,
			"-0.011": 0.0,
			"-0.01": 0.489062203084,
			"-0.009": 1.92822190853,
			"-0.008": 1.8373585422,
			"-0.007": 2.92741338779,
			"-0.006": 7.97793538087,
			"-0.005": 11.3606252723,
			"-0.004": 17.6560750478,
			"-0.003": 20.7831432536,
			"-0.002": 15.4969181246,
			"-0.001": 12.3204795805,
			"0.0": 11.3649614184,
			"0.001": 12.5709875928,
			"0.002": 14.5661078883,
			"0.003": 20.541237888,
			"0.004": 10.3969351884,
			"0.005": 3.55445856711,
			"0.006": 3.01505108,
			"0.007": 3.46244334215,
			"0.008": 3.0892751096,
			"0.009": 2.71457944179,
			"0.01": 2.41752635436,
			"0.011": 1.81644540257,
			"0.012": 1.35141236587,
			"0.013": 1.12637138351,
			"0.014": 0.656021740936,
			"0.015": 0.0,
			"0.016": 0.0,
			"0.017": 0.0,
			"0.018": 0.0,
			"0.019": 0.0,
			"0.02": 0.0,
			"0.021": 0.0,
			"0.022": 0.0,
			"0.023": 0.0,
			"0.024": 0.0,
			"0.025": 0.0
		}
	}
}
