{
	 "smiles": "OC(=O)C1=CC=C(C=C1)N1C=CC=C1", 
	 "Tm": 563.15, 
	 "num_atms": 23, 
	 "gaussian": { 
		 "optdone": 1, 
		 "sigma_profile": "yes", 
		 "theory": "DFT", 
		 "functional": "B3LYP", 
		 "basiset": "6-31G**", 
		 "properties": { 
			 "R2extent": 3996.6503, 
			 "electric_dipole_moment_norm": 1.63370903468, 
			 "electric_quadrupole_moment_norm": 11.2279308699, 
			 "total_energy": -629.797386472, 
			 "HOMO_LUMO_gap": 0.16725, 
			 "cosmo_polarized_energy": -11.6, 
			 "cosmo_cavitation_energy": 27.54, 
			 "cosmo_dispersion_energy": -20.55, 
			 "cosmo_repulsion_energy": 1.56, 
			 "cosmo_total_nonelectrostatic_energy": 8.55, 
			 "SMD_solvation_energy": 6.64 
		},
		"coords": [
			{
				"x": -0.6343552072,
				"y": -5.0476942096,
				"z": -0.2163131889,
				"element": "O" 
			},
			{
				"x": 0.5440423543,
				"y": -4.3757833254,
				"z": -0.2951399188,
				"element": "C" 
			},
			{
				"x": 1.6137721332,
				"y": -4.9541779553,
				"z": -0.311270019,
				"element": "O" 
			},
			{
				"x": 0.3712921505,
				"y": -2.9061836629,
				"z": -0.354735444,
				"element": "C" 
			},
			{
				"x": -0.8855255782,
				"y": -2.2876755191,
				"z": -0.332365793,
				"element": "C" 
			},
			{
				"x": -0.9956721536,
				"y": -0.9042791677,
				"z": -0.3904782036,
				"element": "C" 
			},
			{
				"x": 0.1526400176,
				"y": -0.0961391785,
				"z": -0.4728971312,
				"element": "C" 
			},
			{
				"x": 1.4136225278,
				"y": -0.7205965025,
				"z": -0.4952566909,
				"element": "C" 
			},
			{
				"x": 1.5159293741,
				"y": -2.1027911958,
				"z": -0.4369146233,
				"element": "C" 
			},
			{
				"x": 0.042787853,
				"y": 1.3096962373,
				"z": -0.5318209233,
				"element": "N" 
			},
			{
				"x": 1.0989089485,
				"y": 2.2125322332,
				"z": -0.6126379049,
				"element": "C" 
			},
			{
				"x": 0.5893295146,
				"y": 3.4834174431,
				"z": -0.6500914939,
				"element": "C" 
			},
			{
				"x": -0.8337303388,
				"y": 3.3751342988,
				"z": -0.5908380955,
				"element": "C" 
			},
			{
				"x": -1.1406295265,
				"y": 2.0421048147,
				"z": -0.5194045947,
				"element": "C" 
			},
			{
				"x": -0.3962944258,
				"y": -5.9885754799,
				"z": -0.1826566052,
				"element": "H" 
			},
			{
				"x": -1.780972666,
				"y": -2.8954556814,
				"z": -0.2689834812,
				"element": "H" 
			},
			{
				"x": -1.9821868449,
				"y": -0.4591815804,
				"z": -0.3709922,
				"element": "H" 
			},
			{
				"x": 2.3196560848,
				"y": -0.1316781899,
				"z": -0.5583543462,
				"element": "H" 
			},
			{
				"x": 2.4877564031,
				"y": -2.5845682174,
				"z": -0.4541468572,
				"element": "H" 
			},
			{
				"x": 2.1231397729,
				"y": 1.8814739561,
				"z": -0.6367302889,
				"element": "H" 
			},
			{
				"x": 1.1707984986,
				"y": 4.3923686027,
				"z": -0.7129940168,
				"element": "H" 
			},
			{
				"x": -1.5490064114,
				"y": 4.1854293063,
				"z": -0.5998328059,
				"element": "H" 
			},
			{
				"x": -2.1016024805,
				"y": 1.5600229734,
				"z": -0.4612453736,
				"element": "H" 
			}
		],
		 "valence_orbital": [ 
			{
				"type": "occ",
				"energy": -0.29106,
				"method": "rhf"
			},
			{
				"type": "occ",
				"energy": -0.27629,
				"method": "rhf"
			},
			{
				"type": "occ",
				"energy": -0.26894,
				"method": "rhf"
			},
			{
				"type": "occ",
				"energy": -0.22577,
				"method": "rhf"
			},
			{
				"type": "occ",
				"energy": -0.22091,
				"method": "rhf"
			},
			{
				"type": "unocc",
				"energy": -0.05366,
				"method": "rhf"
			},
			{
				"type": "unocc",
				"energy": -0.01665,
				"method": "rhf"
			},
			{
				"type": "unocc",
				"energy": 0.01966,
				"method": "rhf"
			},
			{
				"type": "unocc",
				"energy": 0.07436,
				"method": "rhf"
			},
			{
				"type": "unocc",
				"energy": 0.07749,
				"method": "rhf"
			}
		],
		"cosmo_sigma_profile": { 
			"-0.025": 0.0,
			"-0.024": 0.0,
			"-0.023": 0.0,
			"-0.022": 0.0,
			"-0.021": 0.0,
			"-0.02": 0.0,
			"-0.019": 0.0115341022906,
			"-0.018": 0.619114486388,
			"-0.017": 1.09949274665,
			"-0.016": 0.557475103802,
			"-0.015": 0.729931115262,
			"-0.014": 0.73425245794,
			"-0.013": 0.885242783588,
			"-0.012": 0.561136472943,
			"-0.011": 1.17402504059,
			"-0.01": 2.69492523688,
			"-0.009": 3.87235306513,
			"-0.008": 4.93776852214,
			"-0.007": 6.16108484452,
			"-0.006": 10.2786826373,
			"-0.005": 11.8624059988,
			"-0.004": 10.5480812029,
			"-0.003": 10.5788505325,
			"-0.002": 13.5362392277,
			"-0.001": 15.6123058587,
			"0.0": 16.2377183683,
			"0.001": 19.3083895611,
			"0.002": 18.9605343609,
			"0.003": 19.8142544382,
			"0.004": 9.44743871254,
			"0.005": 9.39400913809,
			"0.006": 7.8010691129,
			"0.007": 9.04384542074,
			"0.008": 3.48938428875,
			"0.009": 1.5454211169,
			"0.01": 1.98362595949,
			"0.011": 2.93911645913,
			"0.012": 5.01951683763,
			"0.013": 0.336559118321,
			"0.014": 0.0,
			"0.015": 0.0,
			"0.016": 0.0,
			"0.017": 0.0,
			"0.018": 0.0,
			"0.019": 0.0,
			"0.02": 0.0,
			"0.021": 0.0,
			"0.022": 0.0,
			"0.023": 0.0,
			"0.024": 0.0,
			"0.025": 0.0
		}
	}
}
