{
	 "smiles": "ClC(Cl)=CBr", 
	 "Tm": 184.65, 
	 "num_atms": 6, 
	 "gaussian": { 
		 "optdone": 1, 
		 "sigma_profile": "yes", 
		 "theory": "DFT", 
		 "functional": "B3LYP", 
		 "basiset": "6-31G**", 
		 "properties": { 
			 "R2extent": 2551.0284, 
			 "electric_dipole_moment_norm": 0.896896610541, 
			 "electric_quadrupole_moment_norm": 3.82612597022, 
			 "total_energy": -3568.56609736, 
			 "HOMO_LUMO_gap": 0.22684, 
			 "cosmo_polarized_energy": -2.51, 
			 "cosmo_cavitation_energy": 16.34, 
			 "cosmo_dispersion_energy": -12.95, 
			 "cosmo_repulsion_energy": 1.15, 
			 "cosmo_total_nonelectrostatic_energy": 4.54, 
			 "SMD_solvation_energy": 1.83 
		},
		"coords": [
			{
				"x": -1.501102296,
				"y": 1.0741719162,
				"z": 4.1790559688,
				"element": "Cl" 
			},
			{
				"x": -1.2066885291,
				"y": 1.1248012916,
				"z": 2.4612791112,
				"element": "C" 
			},
			{
				"x": -2.6213018316,
				"y": 1.2575316262,
				"z": 1.475356223,
				"element": "Cl" 
			},
			{
				"x": 0.0441396632,
				"y": 1.0616187066,
				"z": 1.9981375626,
				"element": "C" 
			},
			{
				"x": 0.5100694691,
				"y": 1.1050225786,
				"z": 0.1733208212,
				"element": "Br" 
			},
			{
				"x": 0.8835835244,
				"y": 0.9790538808,
				"z": 2.6750503132,
				"element": "H" 
			}
		],
		 "valence_orbital": [ 
			{
				"type": "occ",
				"energy": -0.34427,
				"method": "rhf"
			},
			{
				"type": "occ",
				"energy": -0.33755,
				"method": "rhf"
			},
			{
				"type": "occ",
				"energy": -0.32957,
				"method": "rhf"
			},
			{
				"type": "occ",
				"energy": -0.30243,
				"method": "rhf"
			},
			{
				"type": "occ",
				"energy": -0.25722,
				"method": "rhf"
			},
			{
				"type": "unocc",
				"energy": -0.03038,
				"method": "rhf"
			},
			{
				"type": "unocc",
				"energy": -0.02477,
				"method": "rhf"
			},
			{
				"type": "unocc",
				"energy": -0.00968,
				"method": "rhf"
			},
			{
				"type": "unocc",
				"energy": 0.05434,
				"method": "rhf"
			},
			{
				"type": "unocc",
				"energy": 0.16295,
				"method": "rhf"
			}
		],
		"cosmo_sigma_profile": { 
			"-0.025": 0.0,
			"-0.024": 0.0,
			"-0.023": 0.0,
			"-0.022": 0.0,
			"-0.021": 0.0,
			"-0.02": 0.0,
			"-0.019": 0.0,
			"-0.018": 0.0,
			"-0.017": 0.0,
			"-0.016": 0.0,
			"-0.015": 0.0,
			"-0.014": 0.0,
			"-0.013": 0.0,
			"-0.012": 0.0,
			"-0.011": 0.954662524537,
			"-0.01": 2.0689621045,
			"-0.009": 1.26680265501,
			"-0.008": 1.27719444904,
			"-0.007": 1.47424648799,
			"-0.006": 2.40955090654,
			"-0.005": 3.50038923854,
			"-0.004": 5.8957996073,
			"-0.003": 5.99600789941,
			"-0.002": 9.83683646419,
			"-0.001": 13.5859026142,
			"0.0": 17.8291241945,
			"0.001": 17.5702929887,
			"0.002": 23.1309991919,
			"0.003": 26.6202043076,
			"0.004": 6.00514925029,
			"0.005": 0.129401846817,
			"0.006": 0.0,
			"0.007": 0.0,
			"0.008": 0.0,
			"0.009": 0.0,
			"0.01": 0.0,
			"0.011": 0.0,
			"0.012": 0.0,
			"0.013": 0.0,
			"0.014": 0.0,
			"0.015": 0.0,
			"0.016": 0.0,
			"0.017": 0.0,
			"0.018": 0.0,
			"0.019": 0.0,
			"0.02": 0.0,
			"0.021": 0.0,
			"0.022": 0.0,
			"0.023": 0.0,
			"0.024": 0.0,
			"0.025": 0.0
		}
	}
}
