{
	 "smiles": "OC(=O)CCSCCCSCCC(O)=O", 
	 "Tm": 381.15, 
	 "num_atms": 31, 
	 "gaussian": { 
		 "optdone": 1, 
		 "sigma_profile": "yes", 
		 "theory": "DFT", 
		 "functional": "B3LYP", 
		 "basiset": "6-31G**", 
		 "properties": { 
			 "R2extent": 8536.5612, 
			 "electric_dipole_moment_norm": 6.34678909449, 
			 "electric_quadrupole_moment_norm": 48.9317455466, 
			 "total_energy": -1449.8976699, 
			 "HOMO_LUMO_gap": 0.25393, 
			 "cosmo_polarized_energy": -26.78, 
			 "cosmo_cavitation_energy": 37.31, 
			 "cosmo_dispersion_energy": -27.03, 
			 "cosmo_repulsion_energy": 2.1, 
			 "cosmo_total_nonelectrostatic_energy": 12.38, 
			 "SMD_solvation_energy": 7.54 
		},
		"coords": [
			{
				"x": -2.8067556417,
				"y": 1.9072466492,
				"z": -1.2360489951,
				"element": "O" 
			},
			{
				"x": -4.0185746376,
				"y": 1.8600654252,
				"z": -0.6420017794,
				"element": "C" 
			},
			{
				"x": -4.6098403245,
				"y": 2.8734659433,
				"z": -0.3589730173,
				"element": "O" 
			},
			{
				"x": -4.605916138,
				"y": 0.4709525004,
				"z": -0.3675561118,
				"element": "C" 
			},
			{
				"x": -3.6352757055,
				"y": -0.5774281611,
				"z": 0.2000633498,
				"element": "C" 
			},
			{
				"x": -2.5144054951,
				"y": -1.2320457266,
				"z": -1.113013444,
				"element": "S" 
			},
			{
				"x": -1.0796421009,
				"y": -1.7784225779,
				"z": -0.1025230667,
				"element": "C" 
			},
			{
				"x": 0.0495742245,
				"y": -2.2593917636,
				"z": -1.0174734043,
				"element": "C" 
			},
			{
				"x": 1.2772044498,
				"y": -2.7646301491,
				"z": -0.2470827108,
				"element": "C" 
			},
			{
				"x": 2.1510517236,
				"y": -1.4927889417,
				"z": 0.7577285942,
				"element": "S" 
			},
			{
				"x": 3.0775645471,
				"y": -0.5546422686,
				"z": -0.5326978149,
				"element": "C" 
			},
			{
				"x": 4.2787124172,
				"y": -1.2818183393,
				"z": -1.1587979465,
				"element": "C" 
			},
			{
				"x": 5.4927504148,
				"y": -1.509651662,
				"z": -0.2522519901,
				"element": "C" 
			},
			{
				"x": 5.252223773,
				"y": -2.0313567883,
				"z": 0.9693278257,
				"element": "O" 
			},
			{
				"x": 6.6188507836,
				"y": -1.2666568823,
				"z": -0.6119594924,
				"element": "O" 
			},
			{
				"x": -2.4736583015,
				"y": 1.0038155987,
				"z": -1.418750238,
				"element": "H" 
			},
			{
				"x": -5.0606031754,
				"y": 0.0984293461,
				"z": -1.2954091966,
				"element": "H" 
			},
			{
				"x": -5.4235618708,
				"y": 0.6270942364,
				"z": 0.3397730267,
				"element": "H" 
			},
			{
				"x": -4.1978891558,
				"y": -1.4114215934,
				"z": 0.6267019841,
				"element": "H" 
			},
			{
				"x": -3.017552675,
				"y": -0.1426649166,
				"z": 0.9922456207,
				"element": "H" 
			},
			{
				"x": -1.4066362317,
				"y": -2.5888809284,
				"z": 0.5576953911,
				"element": "H" 
			},
			{
				"x": -0.742928095,
				"y": -0.9420566298,
				"z": 0.5164078425,
				"element": "H" 
			},
			{
				"x": 0.3395114912,
				"y": -1.453693785,
				"z": -1.701917411,
				"element": "H" 
			},
			{
				"x": -0.312030849,
				"y": -3.0833566084,
				"z": -1.6456354375,
				"element": "H" 
			},
			{
				"x": 0.9895123163,
				"y": -3.5338780852,
				"z": 0.4767636454,
				"element": "H" 
			},
			{
				"x": 1.9924374828,
				"y": -3.2269769492,
				"z": -0.9336238848,
				"element": "H" 
			},
			{
				"x": 2.3735943083,
				"y": -0.2538418716,
				"z": -1.3130450878,
				"element": "H" 
			},
			{
				"x": 3.3973123311,
				"y": 0.3603154666,
				"z": -0.0253382527,
				"element": "H" 
			},
			{
				"x": 4.6447347716,
				"y": -0.6986199125,
				"z": -2.0077305819,
				"element": "H" 
			},
			{
				"x": 3.9650807939,
				"y": -2.2552750649,
				"z": -1.5581310843,
				"element": "H" 
			},
			{
				"x": 4.2911545687,
				"y": -2.1508855606,
				"z": 1.1135536678,
				"element": "H" 
			}
		],
		 "valence_orbital": [ 
			{
				"type": "occ",
				"energy": -0.30819,
				"method": "rhf"
			},
			{
				"type": "occ",
				"energy": -0.26946,
				"method": "rhf"
			},
			{
				"type": "occ",
				"energy": -0.26609,
				"method": "rhf"
			},
			{
				"type": "occ",
				"energy": -0.26581,
				"method": "rhf"
			},
			{
				"type": "occ",
				"energy": -0.2598,
				"method": "rhf"
			},
			{
				"type": "unocc",
				"energy": -0.00587,
				"method": "rhf"
			},
			{
				"type": "unocc",
				"energy": 0.00532,
				"method": "rhf"
			},
			{
				"type": "unocc",
				"energy": 0.00742,
				"method": "rhf"
			},
			{
				"type": "unocc",
				"energy": 0.01436,
				"method": "rhf"
			},
			{
				"type": "unocc",
				"energy": 0.03379,
				"method": "rhf"
			}
		],
		"cosmo_sigma_profile": { 
			"-0.025": 0.0,
			"-0.024": 0.0,
			"-0.023": 0.0,
			"-0.022": 0.0,
			"-0.021": 0.0,
			"-0.02": 0.0,
			"-0.019": 0.0,
			"-0.018": 0.0,
			"-0.017": 0.0,
			"-0.016": 0.0,
			"-0.015": 0.0,
			"-0.014": 0.0,
			"-0.013": 0.0,
			"-0.012": 0.0,
			"-0.011": 0.0,
			"-0.01": 0.0,
			"-0.009": 1.47777826157,
			"-0.008": 6.5868818535,
			"-0.007": 18.3076157334,
			"-0.006": 30.8892567896,
			"-0.005": 32.8571357929,
			"-0.004": 33.1334719255,
			"-0.003": 26.1024796005,
			"-0.002": 17.5315570456,
			"-0.001": 11.4918413202,
			"0.0": 8.6238719941,
			"0.001": 9.03326138821,
			"0.002": 7.56500907683,
			"0.003": 7.89963965798,
			"0.004": 8.90697232866,
			"0.005": 8.26333018618,
			"0.006": 6.72907845966,
			"0.007": 6.61679222286,
			"0.008": 6.43065945285,
			"0.009": 7.60976649042,
			"0.01": 7.4280355426,
			"0.011": 11.1365445909,
			"0.012": 12.8859606304,
			"0.013": 7.2846694081,
			"0.014": 1.20590317041,
			"0.015": 0.0,
			"0.016": 0.0,
			"0.017": 0.0,
			"0.018": 0.0,
			"0.019": 0.0,
			"0.02": 0.0,
			"0.021": 0.0,
			"0.022": 0.0,
			"0.023": 0.0,
			"0.024": 0.0,
			"0.025": 0.0
		}
	}
}
