{
	 "smiles": "CC(C)C1=NC(=NN1C1=CC(F)=CC=C1)C(O)=O", 
	 "Tm": 367.15, 
	 "num_atms": 30, 
	 "gaussian": { 
		 "optdone": 1, 
		 "sigma_profile": "yes", 
		 "theory": "DFT", 
		 "functional": "B3LYP", 
		 "basiset": "6-31G**", 
		 "properties": { 
			 "R2extent": 6321.9435, 
			 "electric_dipole_moment_norm": 7.00764534633, 
			 "electric_quadrupole_moment_norm": 31.7211124453, 
			 "total_energy": -879.056549964, 
			 "HOMO_LUMO_gap": 0.207, 
			 "cosmo_polarized_energy": -16.59, 
			 "cosmo_cavitation_energy": 35.23, 
			 "cosmo_dispersion_energy": -24.42, 
			 "cosmo_repulsion_energy": 1.9, 
			 "cosmo_total_nonelectrostatic_energy": 12.7, 
			 "SMD_solvation_energy": 6.15 
		},
		"coords": [
			{
				"x": 0.4616764142,
				"y": 1.8785911706,
				"z": -1.2034754337,
				"element": "C" 
			},
			{
				"x": 0.2833236645,
				"y": 0.8421953475,
				"z": -0.0753504834,
				"element": "C" 
			},
			{
				"x": 0.8323937246,
				"y": 1.3771081583,
				"z": 1.2605166423,
				"element": "C" 
			},
			{
				"x": 0.9641146293,
				"y": -0.452204329,
				"z": -0.4332890361,
				"element": "C" 
			},
			{
				"x": 2.2744874126,
				"y": -0.6400813233,
				"z": -0.4461865333,
				"element": "N" 
			},
			{
				"x": 2.4169243749,
				"y": -1.9576005076,
				"z": -0.7731636938,
				"element": "C" 
			},
			{
				"x": 1.2833464783,
				"y": -2.6079082301,
				"z": -0.9674773734,
				"element": "N" 
			},
			{
				"x": 0.3517645179,
				"y": -1.6375372526,
				"z": -0.7606032243,
				"element": "N" 
			},
			{
				"x": -1.0323563829,
				"y": -1.9777053689,
				"z": -0.8501990073,
				"element": "C" 
			},
			{
				"x": -1.9191993145,
				"y": -1.1432542625,
				"z": -1.5347127141,
				"element": "C" 
			},
			{
				"x": -3.2574347065,
				"y": -1.5172723708,
				"z": -1.5913491027,
				"element": "C" 
			},
			{
				"x": -4.1175947791,
				"y": -0.7143556644,
				"z": -2.2457788045,
				"element": "F" 
			},
			{
				"x": -3.7280790311,
				"y": -2.6910402011,
				"z": -1.0156482199,
				"element": "C" 
			},
			{
				"x": -2.8158334793,
				"y": -3.5188260627,
				"z": -0.3583638589,
				"element": "C" 
			},
			{
				"x": -1.4694020728,
				"y": -3.1705194629,
				"z": -0.2662755693,
				"element": "C" 
			},
			{
				"x": 3.7718741696,
				"y": -2.5792486155,
				"z": -0.8875054139,
				"element": "C" 
			},
			{
				"x": 4.7644650248,
				"y": -1.6957575529,
				"z": -0.646480672,
				"element": "O" 
			},
			{
				"x": 3.9749052594,
				"y": -3.7355419451,
				"z": -1.1604403272,
				"element": "O" 
			},
			{
				"x": -0.0433122966,
				"y": 2.8130755863,
				"z": -0.9406551517,
				"element": "H" 
			},
			{
				"x": 1.5233175783,
				"y": 2.0916234345,
				"z": -1.3595628867,
				"element": "H" 
			},
			{
				"x": 0.0490409391,
				"y": 1.5254277753,
				"z": -2.1541374037,
				"element": "H" 
			},
			{
				"x": -0.785229883,
				"y": 0.6390108516,
				"z": 0.0483247699,
				"element": "H" 
			},
			{
				"x": 0.6696301373,
				"y": 0.6630896442,
				"z": 2.0732180479,
				"element": "H" 
			},
			{
				"x": 0.3306249451,
				"y": 2.3135908713,
				"z": 1.5225944202,
				"element": "H" 
			},
			{
				"x": 1.9063997086,
				"y": 1.5670104351,
				"z": 1.1866948568,
				"element": "H" 
			},
			{
				"x": -1.5912534144,
				"y": -0.2436118373,
				"z": -2.0402261968,
				"element": "H" 
			},
			{
				"x": -4.7796797705,
				"y": -2.9428200151,
				"z": -1.0937136481,
				"element": "H" 
			},
			{
				"x": -3.1604664946,
				"y": -4.44435544,
				"z": 0.0914547815,
				"element": "H" 
			},
			{
				"x": -0.7533745745,
				"y": -3.8090241067,
				"z": 0.2364840422,
				"element": "H" 
			},
			{
				"x": 4.3551272213,
				"y": -0.8334587262,
				"z": -0.4462928059,
				"element": "H" 
			}
		],
		 "valence_orbital": [ 
			{
				"type": "occ",
				"energy": -0.30458,
				"method": "rhf"
			},
			{
				"type": "occ",
				"energy": -0.28771,
				"method": "rhf"
			},
			{
				"type": "occ",
				"energy": -0.27589,
				"method": "rhf"
			},
			{
				"type": "occ",
				"energy": -0.2685,
				"method": "rhf"
			},
			{
				"type": "occ",
				"energy": -0.26175,
				"method": "rhf"
			},
			{
				"type": "unocc",
				"energy": -0.05475,
				"method": "rhf"
			},
			{
				"type": "unocc",
				"energy": -0.02993,
				"method": "rhf"
			},
			{
				"type": "unocc",
				"energy": -0.02498,
				"method": "rhf"
			},
			{
				"type": "unocc",
				"energy": 0.00374,
				"method": "rhf"
			},
			{
				"type": "unocc",
				"energy": 0.05753,
				"method": "rhf"
			}
		],
		"cosmo_sigma_profile": { 
			"-0.025": 0.0,
			"-0.024": 0.0,
			"-0.023": 0.0,
			"-0.022": 0.0,
			"-0.021": 0.0,
			"-0.02": 0.0,
			"-0.019": 0.0,
			"-0.018": 0.0,
			"-0.017": 0.0,
			"-0.016": 0.0,
			"-0.015": 0.05570429235,
			"-0.014": 0.30414460298,
			"-0.013": 0.319765833428,
			"-0.012": 0.900255183268,
			"-0.011": 0.732707932971,
			"-0.01": 0.862225003025,
			"-0.009": 1.19818886914,
			"-0.008": 5.26931083977,
			"-0.007": 8.39859215851,
			"-0.006": 11.9016368235,
			"-0.005": 16.4738520035,
			"-0.004": 24.4314912532,
			"-0.003": 23.6100542485,
			"-0.002": 22.8962664925,
			"-0.001": 24.8410070356,
			"0.0": 30.2820915333,
			"0.001": 20.6289605735,
			"0.002": 15.0155699348,
			"0.003": 14.3338463618,
			"0.004": 15.0492880569,
			"0.005": 5.03573318262,
			"0.006": 4.66037528251,
			"0.007": 4.52045495051,
			"0.008": 3.81308044991,
			"0.009": 5.25879355027,
			"0.01": 6.03993566294,
			"0.011": 7.23546895007,
			"0.012": 5.940096966,
			"0.013": 1.17115988483,
			"0.014": 0.0,
			"0.015": 0.0,
			"0.016": 0.0,
			"0.017": 0.0,
			"0.018": 0.0,
			"0.019": 0.0,
			"0.02": 0.0,
			"0.021": 0.0,
			"0.022": 0.0,
			"0.023": 0.0,
			"0.024": 0.0,
			"0.025": 0.0
		}
	}
}
