{
	 "smiles": "COC(=O)C1=C(C=CS1)C1=CC=C(O1)C=O", 
	 "Tm": 391.15, 
	 "num_atms": 24, 
	 "gaussian": { 
		 "optdone": 1, 
		 "sigma_profile": "yes", 
		 "theory": "DFT", 
		 "functional": "B3LYP", 
		 "basiset": "6-31G**", 
		 "properties": { 
			 "R2extent": 4710.9842, 
			 "electric_dipole_moment_norm": 3.20459774855, 
			 "electric_quadrupole_moment_norm": 29.5360972994, 
			 "total_energy": -1123.03562848, 
			 "HOMO_LUMO_gap": 0.14321, 
			 "cosmo_polarized_energy": -14.18, 
			 "cosmo_cavitation_energy": 31.51, 
			 "cosmo_dispersion_energy": -22.99, 
			 "cosmo_repulsion_energy": 1.72, 
			 "cosmo_total_nonelectrostatic_energy": 10.24, 
			 "SMD_solvation_energy": 8.55 
		},
		"coords": [
			{
				"x": -1.5698676377,
				"y": -0.0933389386,
				"z": -3.4915363867,
				"element": "C" 
			},
			{
				"x": -0.9768406001,
				"y": 0.2300077314,
				"z": -2.2203753835,
				"element": "O" 
			},
			{
				"x": 0.3408369554,
				"y": 0.5224950346,
				"z": -2.2672476437,
				"element": "C" 
			},
			{
				"x": 0.9777914209,
				"y": 0.5346108011,
				"z": -3.3060762405,
				"element": "O" 
			},
			{
				"x": 0.9491249777,
				"y": 0.8040565436,
				"z": -0.9567968407,
				"element": "C" 
			},
			{
				"x": 0.4939724855,
				"y": 0.852004519,
				"z": 0.3637843442,
				"element": "C" 
			},
			{
				"x": 1.5726227254,
				"y": 1.1046211086,
				"z": 1.2780422176,
				"element": "C" 
			},
			{
				"x": 2.7816797986,
				"y": 1.2504042458,
				"z": 0.6616485062,
				"element": "C" 
			},
			{
				"x": 2.6704096763,
				"y": 1.0829488001,
				"z": -1.0469422047,
				"element": "S" 
			},
			{
				"x": -0.8545536678,
				"y": 0.7061727737,
				"z": 0.8955373196,
				"element": "C" 
			},
			{
				"x": -2.1424650881,
				"y": 0.7599071174,
				"z": 0.3977940765,
				"element": "C" 
			},
			{
				"x": -3.0115839628,
				"y": 0.6074801065,
				"z": 1.5038460311,
				"element": "C" 
			},
			{
				"x": -2.2152326653,
				"y": 0.4693304867,
				"z": 2.6180418543,
				"element": "C" 
			},
			{
				"x": -0.903850932,
				"y": 0.532017839,
				"z": 2.2509360476,
				"element": "O" 
			},
			{
				"x": -2.5513230627,
				"y": 0.2837251008,
				"z": 4.0208253635,
				"element": "C" 
			},
			{
				"x": -1.7449792446,
				"y": 0.181491734,
				"z": 4.9285326991,
				"element": "O" 
			},
			{
				"x": -1.0801117808,
				"y": -0.9654007234,
				"z": -3.9304436742,
				"element": "H" 
			},
			{
				"x": -1.4804542889,
				"y": 0.748101078,
				"z": -4.1823410038,
				"element": "H" 
			},
			{
				"x": -2.616893106,
				"y": -0.3083781736,
				"z": -3.2782791131,
				"element": "H" 
			},
			{
				"x": 1.4251566993,
				"y": 1.1768334541,
				"z": 2.3474104932,
				"element": "H" 
			},
			{
				"x": 3.7360732967,
				"y": 1.4538498445,
				"z": 1.1282690931,
				"element": "H" 
			},
			{
				"x": -2.4094893945,
				"y": 0.9005209431,
				"z": -0.6343749568,
				"element": "H" 
			},
			{
				"x": -4.0927221446,
				"y": 0.6017364065,
				"z": 1.4905135034,
				"element": "H" 
			},
			{
				"x": -3.6476004601,
				"y": 0.2439021669,
				"z": 4.1999318985,
				"element": "H" 
			}
		],
		 "valence_orbital": [ 
			{
				"type": "occ",
				"energy": -0.29337,
				"method": "rhf"
			},
			{
				"type": "occ",
				"energy": -0.28681,
				"method": "rhf"
			},
			{
				"type": "occ",
				"energy": -0.25773,
				"method": "rhf"
			},
			{
				"type": "occ",
				"energy": -0.25766,
				"method": "rhf"
			},
			{
				"type": "occ",
				"energy": -0.22845,
				"method": "rhf"
			},
			{
				"type": "unocc",
				"energy": -0.08524,
				"method": "rhf"
			},
			{
				"type": "unocc",
				"energy": -0.04694,
				"method": "rhf"
			},
			{
				"type": "unocc",
				"energy": 0.01281,
				"method": "rhf"
			},
			{
				"type": "unocc",
				"energy": 0.02071,
				"method": "rhf"
			},
			{
				"type": "unocc",
				"energy": 0.03932,
				"method": "rhf"
			}
		],
		"cosmo_sigma_profile": { 
			"-0.025": 0.0,
			"-0.024": 0.0,
			"-0.023": 0.0,
			"-0.022": 0.0,
			"-0.021": 0.0,
			"-0.02": 0.0,
			"-0.019": 0.0,
			"-0.018": 0.0,
			"-0.017": 0.0,
			"-0.016": 0.0,
			"-0.015": 0.0,
			"-0.014": 0.0,
			"-0.013": 0.0,
			"-0.012": 0.0,
			"-0.011": 0.0,
			"-0.01": 1.04742253238,
			"-0.009": 4.44591084407,
			"-0.008": 5.17182647491,
			"-0.007": 9.68759486459,
			"-0.006": 15.5771195512,
			"-0.005": 16.278209144,
			"-0.004": 17.3534049948,
			"-0.003": 19.0299059447,
			"-0.002": 17.0420998764,
			"-0.001": 20.6642324568,
			"0.0": 21.4720971475,
			"0.001": 26.1175775349,
			"0.002": 21.4208445466,
			"0.003": 13.0844000888,
			"0.004": 5.40491854663,
			"0.005": 5.80987680274,
			"0.006": 3.11320226789,
			"0.007": 3.5854998417,
			"0.008": 3.97910757064,
			"0.009": 4.19383814321,
			"0.01": 4.8445838833,
			"0.011": 8.12741490422,
			"0.012": 7.09249080322,
			"0.013": 1.66823333604,
			"0.014": 0.03810522576,
			"0.015": 0.0,
			"0.016": 0.0,
			"0.017": 0.0,
			"0.018": 0.0,
			"0.019": 0.0,
			"0.02": 0.0,
			"0.021": 0.0,
			"0.022": 0.0,
			"0.023": 0.0,
			"0.024": 0.0,
			"0.025": 0.0
		}
	}
}
