{
	 "smiles": "O=CC1=CC=CN1S(=O)(=O)C1=CC=CC=C1", 
	 "Tm": 349.65, 
	 "num_atms": 25, 
	 "gaussian": { 
		 "optdone": 1, 
		 "sigma_profile": "yes", 
		 "theory": "DFT", 
		 "functional": "B3LYP", 
		 "basiset": "6-31G**", 
		 "properties": { 
			 "R2extent": 4130.4092, 
			 "electric_dipole_moment_norm": 4.56241515538, 
			 "electric_quadrupole_moment_norm": 17.3007431213, 
			 "total_energy": -1103.1024733, 
			 "HOMO_LUMO_gap": 0.18296, 
			 "cosmo_polarized_energy": -14.0, 
			 "cosmo_cavitation_energy": 30.67, 
			 "cosmo_dispersion_energy": -22.27, 
			 "cosmo_repulsion_energy": 1.66, 
			 "cosmo_total_nonelectrostatic_energy": 10.06, 
			 "SMD_solvation_energy": 5.85 
		},
		"coords": [
			{
				"x": 0.3801282818,
				"y": -2.9381895444,
				"z": -1.1120323177,
				"element": "O" 
			},
			{
				"x": 1.3794665058,
				"y": -2.4632520791,
				"z": -1.6280902728,
				"element": "C" 
			},
			{
				"x": 1.5305976152,
				"y": -1.1369752765,
				"z": -2.1934948173,
				"element": "C" 
			},
			{
				"x": 2.7210681902,
				"y": -0.591712762,
				"z": -2.6569871666,
				"element": "C" 
			},
			{
				"x": 2.4751943891,
				"y": 0.7357239203,
				"z": -3.072304188,
				"element": "C" 
			},
			{
				"x": 1.1357704362,
				"y": 0.9864790385,
				"z": -2.8618274508,
				"element": "C" 
			},
			{
				"x": 0.5521800282,
				"y": -0.1383432628,
				"z": -2.3181032712,
				"element": "N" 
			},
			{
				"x": -1.1919001859,
				"y": -0.2157547652,
				"z": -2.0847655218,
				"element": "S" 
			},
			{
				"x": -1.6318956713,
				"y": 1.0997971459,
				"z": -2.5486494389,
				"element": "O" 
			},
			{
				"x": -1.6684357772,
				"y": -1.4445447974,
				"z": -2.6984287356,
				"element": "O" 
			},
			{
				"x": -1.3998731289,
				"y": -0.2767433654,
				"z": -0.3111217941,
				"element": "C" 
			},
			{
				"x": -1.7682585765,
				"y": -1.4779487672,
				"z": 0.295537316,
				"element": "C" 
			},
			{
				"x": -1.9880576226,
				"y": -1.4845660132,
				"z": 1.6736600535,
				"element": "C" 
			},
			{
				"x": -1.8363174318,
				"y": -0.3129328536,
				"z": 2.4172912555,
				"element": "C" 
			},
			{
				"x": -1.4722821676,
				"y": 0.8824706959,
				"z": 1.7901747021,
				"element": "C" 
			},
			{
				"x": -1.2576961969,
				"y": 0.9103359243,
				"z": 0.4140701045,
				"element": "C" 
			},
			{
				"x": 2.3201645261,
				"y": -3.0503791277,
				"z": -1.6967793191,
				"element": "H" 
			},
			{
				"x": 3.6667492529,
				"y": -1.117590197,
				"z": -2.6732250323,
				"element": "H" 
			},
			{
				"x": 3.1876819094,
				"y": 1.4357098296,
				"z": -3.4846205102,
				"element": "H" 
			},
			{
				"x": 0.5336170773,
				"y": 1.856985916,
				"z": -3.0683720149,
				"element": "H" 
			},
			{
				"x": -1.8619544536,
				"y": -2.375961279,
				"z": -0.3000942915,
				"element": "H" 
			},
			{
				"x": -2.2758908176,
				"y": -2.4091255226,
				"z": 2.1640407605,
				"element": "H" 
			},
			{
				"x": -2.0070899628,
				"y": -0.3281509933,
				"z": 3.489750771,
				"element": "H" 
			},
			{
				"x": -1.3649690958,
				"y": 1.7937989803,
				"z": 2.3701350403,
				"element": "H" 
			},
			{
				"x": -1.0010971237,
				"y": 1.8340691554,
				"z": -0.0924638607,
				"element": "H" 
			}
		],
		 "valence_orbital": [ 
			{
				"type": "occ",
				"energy": -0.28976,
				"method": "rhf"
			},
			{
				"type": "occ",
				"energy": -0.27462,
				"method": "rhf"
			},
			{
				"type": "occ",
				"energy": -0.26867,
				"method": "rhf"
			},
			{
				"type": "occ",
				"energy": -0.25529,
				"method": "rhf"
			},
			{
				"type": "occ",
				"energy": -0.24275,
				"method": "rhf"
			},
			{
				"type": "unocc",
				"energy": -0.05979,
				"method": "rhf"
			},
			{
				"type": "unocc",
				"energy": -0.04794,
				"method": "rhf"
			},
			{
				"type": "unocc",
				"energy": -0.02269,
				"method": "rhf"
			},
			{
				"type": "unocc",
				"energy": 0.0263,
				"method": "rhf"
			},
			{
				"type": "unocc",
				"energy": 0.03937,
				"method": "rhf"
			}
		],
		"cosmo_sigma_profile": { 
			"-0.025": 0.0,
			"-0.024": 0.0,
			"-0.023": 0.0,
			"-0.022": 0.0,
			"-0.021": 0.0,
			"-0.02": 0.0,
			"-0.019": 0.0,
			"-0.018": 0.0,
			"-0.017": 0.0,
			"-0.016": 0.0,
			"-0.015": 0.0,
			"-0.014": 0.0,
			"-0.013": 0.0,
			"-0.012": 0.0,
			"-0.011": 0.0,
			"-0.01": 0.0,
			"-0.009": 0.737092008177,
			"-0.008": 6.05055790564,
			"-0.007": 16.204612734,
			"-0.006": 19.3091713935,
			"-0.005": 16.7878539114,
			"-0.004": 15.3698164509,
			"-0.003": 13.8607260185,
			"-0.002": 14.7498465323,
			"-0.001": 17.0621029107,
			"0.0": 17.0208080964,
			"0.001": 18.9045324927,
			"0.002": 21.7688880201,
			"0.003": 17.200658491,
			"0.004": 8.24540815798,
			"0.005": 4.40223465372,
			"0.006": 5.37328819884,
			"0.007": 4.46346102219,
			"0.008": 6.64626168599,
			"0.009": 9.96706539863,
			"0.01": 7.74408344371,
			"0.011": 3.11106864227,
			"0.012": 1.4461342065,
			"0.013": 0.993128021947,
			"0.014": 0.110391676931,
			"0.015": 0.0,
			"0.016": 0.0,
			"0.017": 0.0,
			"0.018": 0.0,
			"0.019": 0.0,
			"0.02": 0.0,
			"0.021": 0.0,
			"0.022": 0.0,
			"0.023": 0.0,
			"0.024": 0.0,
			"0.025": 0.0
		}
	}
}
