{
	 "smiles": "CCOC(=O)C1=CC=NN1", 
	 "Tm": 433.15, 
	 "num_atms": 18, 
	 "gaussian": { 
		 "optdone": 1, 
		 "sigma_profile": "yes", 
		 "theory": "DFT", 
		 "functional": "B3LYP", 
		 "basiset": "6-31G**", 
		 "properties": { 
			 "R2extent": 2814.9815, 
			 "electric_dipole_moment_norm": 2.69406862756, 
			 "electric_quadrupole_moment_norm": 5.97098865181, 
			 "total_energy": -493.404144349, 
			 "HOMO_LUMO_gap": 0.21664, 
			 "cosmo_polarized_energy": -9.5, 
			 "cosmo_cavitation_energy": 22.84, 
			 "cosmo_dispersion_energy": -16.8, 
			 "cosmo_repulsion_energy": 1.4, 
			 "cosmo_total_nonelectrostatic_energy": 7.43, 
			 "SMD_solvation_energy": 4.47 
		},
		"coords": [
			{
				"x": 3.2593089274,
				"y": 0.9537401757,
				"z": 0.4927407815,
				"element": "C" 
			},
			{
				"x": 2.1187480953,
				"y": 1.5128208831,
				"z": 1.3208208641,
				"element": "C" 
			},
			{
				"x": 1.1142532718,
				"y": 0.475451852,
				"z": 1.4316305575,
				"element": "O" 
			},
			{
				"x": 0.0175819698,
				"y": 0.7982607868,
				"z": 2.1398249229,
				"element": "C" 
			},
			{
				"x": -0.1704283285,
				"y": 1.8778483819,
				"z": 2.6743343165,
				"element": "O" 
			},
			{
				"x": -0.9474665845,
				"y": -0.3057859494,
				"z": 2.2028715026,
				"element": "C" 
			},
			{
				"x": -0.9860659933,
				"y": -1.5998849478,
				"z": 1.7012622368,
				"element": "C" 
			},
			{
				"x": -2.220633267,
				"y": -2.1102236503,
				"z": 2.1457961333,
				"element": "C" 
			},
			{
				"x": -2.9028158302,
				"y": -1.2109021951,
				"z": 2.867677026,
				"element": "N" 
			},
			{
				"x": -2.1128151003,
				"y": -0.1324869967,
				"z": 2.886530434,
				"element": "N" 
			},
			{
				"x": 2.9155720478,
				"y": 0.6697783377,
				"z": -0.5059682255,
				"element": "H" 
			},
			{
				"x": 3.6954566451,
				"y": 0.07237589,
				"z": 0.9714731254,
				"element": "H" 
			},
			{
				"x": 4.0428062271,
				"y": 1.7100930384,
				"z": 0.3849927751,
				"element": "H" 
			},
			{
				"x": 2.4401963174,
				"y": 1.7990452545,
				"z": 2.3270944888,
				"element": "H" 
			},
			{
				"x": 1.6640560881,
				"y": 2.3935425435,
				"z": 0.8566960443,
				"element": "H" 
			},
			{
				"x": -0.2283439359,
				"y": -2.0853971423,
				"z": 1.106339002,
				"element": "H" 
			},
			{
				"x": -2.6463709716,
				"y": -3.0895489781,
				"z": 1.9751202129,
				"element": "H" 
			},
			{
				"x": -2.3874395786,
				"y": 0.710272716,
				"z": 3.3710638017,
				"element": "H" 
			}
		],
		 "valence_orbital": [ 
			{
				"type": "occ",
				"energy": -0.30813,
				"method": "rhf"
			},
			{
				"type": "occ",
				"energy": -0.29687,
				"method": "rhf"
			},
			{
				"type": "occ",
				"energy": -0.28547,
				"method": "rhf"
			},
			{
				"type": "occ",
				"energy": -0.26665,
				"method": "rhf"
			},
			{
				"type": "occ",
				"energy": -0.25799,
				"method": "rhf"
			},
			{
				"type": "unocc",
				"energy": -0.04135,
				"method": "rhf"
			},
			{
				"type": "unocc",
				"energy": 0.04382,
				"method": "rhf"
			},
			{
				"type": "unocc",
				"energy": 0.08976,
				"method": "rhf"
			},
			{
				"type": "unocc",
				"energy": 0.09826,
				"method": "rhf"
			},
			{
				"type": "unocc",
				"energy": 0.10683,
				"method": "rhf"
			}
		],
		"cosmo_sigma_profile": { 
			"-0.025": 0.0,
			"-0.024": 0.0,
			"-0.023": 0.0,
			"-0.022": 0.0,
			"-0.021": 0.0,
			"-0.02": 0.0,
			"-0.019": 0.0,
			"-0.018": 0.0,
			"-0.017": 0.219050935441,
			"-0.016": 0.925378690968,
			"-0.015": 0.853732264729,
			"-0.014": 1.01105260089,
			"-0.013": 0.268719320988,
			"-0.012": 0.460715349557,
			"-0.011": 1.41445145824,
			"-0.01": 0.57628602675,
			"-0.009": 0.347895912568,
			"-0.008": 2.2303334804,
			"-0.007": 3.82399642571,
			"-0.006": 5.8267024383,
			"-0.005": 10.8731722502,
			"-0.004": 17.4553583216,
			"-0.003": 18.2787244912,
			"-0.002": 16.8206702766,
			"-0.001": 13.6830024637,
			"0.0": 14.2789388778,
			"0.001": 10.3525665516,
			"0.002": 10.1436631343,
			"0.003": 10.7843761127,
			"0.004": 7.97282607348,
			"0.005": 5.16189997623,
			"0.006": 4.59689657629,
			"0.007": 3.06422675699,
			"0.008": 3.10641126849,
			"0.009": 2.54051239441,
			"0.01": 3.03750148017,
			"0.011": 5.07511893816,
			"0.012": 3.35195447867,
			"0.013": 1.13825330248,
			"0.014": 1.07304578084,
			"0.015": 0.721648099815,
			"0.016": 0.0358821217694,
			"0.017": 0.0,
			"0.018": 0.0,
			"0.019": 0.0,
			"0.02": 0.0,
			"0.021": 0.0,
			"0.022": 0.0,
			"0.023": 0.0,
			"0.024": 0.0,
			"0.025": 0.0
		}
	}
}
