{
	 "smiles": "OC(=O)CCSC1=CC=C(Br)C=C1", 
	 "Tm": 384.15, 
	 "num_atms": 22, 
	 "gaussian": { 
		 "optdone": 1, 
		 "sigma_profile": "yes", 
		 "theory": "DFT", 
		 "functional": "B3LYP", 
		 "basiset": "6-31G**", 
		 "properties": { 
			 "R2extent": 7216.9394, 
			 "electric_dipole_moment_norm": 1.55466825722, 
			 "electric_quadrupole_moment_norm": 6.83272652314, 
			 "total_energy": -3468.43716657, 
			 "HOMO_LUMO_gap": 0.1962, 
			 "cosmo_polarized_energy": -11.64, 
			 "cosmo_cavitation_energy": 30.99, 
			 "cosmo_dispersion_energy": -22.65, 
			 "cosmo_repulsion_energy": 1.79, 
			 "cosmo_total_nonelectrostatic_energy": 10.12, 
			 "SMD_solvation_energy": 4.72 
		},
		"coords": [
			{
				"x": 3.1599597715,
				"y": -4.1604247398,
				"z": 0.2566076576,
				"element": "O" 
			},
			{
				"x": 2.4445598197,
				"y": -3.7525091311,
				"z": 1.3313252137,
				"element": "C" 
			},
			{
				"x": 2.6747079585,
				"y": -4.1379852399,
				"z": 2.456823977,
				"element": "O" 
			},
			{
				"x": 1.3556879434,
				"y": -2.7779576047,
				"z": 0.9341884625,
				"element": "C" 
			},
			{
				"x": 0.5058081815,
				"y": -2.3515041217,
				"z": 2.1281197285,
				"element": "C" 
			},
			{
				"x": -0.8347490411,
				"y": -1.1691427562,
				"z": 1.6920130565,
				"element": "S" 
			},
			{
				"x": 0.1036196374,
				"y": 0.3028258444,
				"z": 1.2764724461,
				"element": "C" 
			},
			{
				"x": 0.8643303601,
				"y": 0.9770868372,
				"z": 2.2428702957,
				"element": "C" 
			},
			{
				"x": 1.5575532925,
				"y": 2.1413218093,
				"z": 1.9164196459,
				"element": "C" 
			},
			{
				"x": 1.4672425954,
				"y": 2.6474070895,
				"z": 0.6193086042,
				"element": "C" 
			},
			{
				"x": 2.4051512213,
				"y": 4.2498679546,
				"z": 0.1705826883,
				"element": "Br" 
			},
			{
				"x": 0.7028192262,
				"y": 2.0047772055,
				"z": -0.3518718913,
				"element": "C" 
			},
			{
				"x": 0.0293059222,
				"y": 0.827726921,
				"z": -0.0202074187,
				"element": "C" 
			},
			{
				"x": 3.8331729425,
				"y": -4.7743958768,
				"z": 0.5957319544,
				"element": "H" 
			},
			{
				"x": 0.7404313937,
				"y": -3.2415580282,
				"z": 0.1551794333,
				"element": "H" 
			},
			{
				"x": 1.8330317577,
				"y": -1.9110999508,
				"z": 0.4622373637,
				"element": "H" 
			},
			{
				"x": 1.1290033415,
				"y": -1.9264964961,
				"z": 2.9177257567,
				"element": "H" 
			},
			{
				"x": -0.0124582327,
				"y": -3.2108059495,
				"z": 2.5619509355,
				"element": "H" 
			},
			{
				"x": 0.9088329517,
				"y": 0.5971529329,
				"z": 3.2589354892,
				"element": "H" 
			},
			{
				"x": 2.1485937839,
				"y": 2.6582605815,
				"z": 2.6639249738,
				"element": "H" 
			},
			{
				"x": 0.6413846168,
				"y": 2.4096779613,
				"z": -1.3556236531,
				"element": "H" 
			},
			{
				"x": -0.5573894438,
				"y": 0.3125747575,
				"z": -0.7740147194,
				"element": "H" 
			}
		],
		 "valence_orbital": [ 
			{
				"type": "occ",
				"energy": -0.29277,
				"method": "rhf"
			},
			{
				"type": "occ",
				"energy": -0.28472,
				"method": "rhf"
			},
			{
				"type": "occ",
				"energy": -0.2729,
				"method": "rhf"
			},
			{
				"type": "occ",
				"energy": -0.2585,
				"method": "rhf"
			},
			{
				"type": "occ",
				"energy": -0.22927,
				"method": "rhf"
			},
			{
				"type": "unocc",
				"energy": -0.03307,
				"method": "rhf"
			},
			{
				"type": "unocc",
				"energy": -0.02379,
				"method": "rhf"
			},
			{
				"type": "unocc",
				"energy": 0.0007,
				"method": "rhf"
			},
			{
				"type": "unocc",
				"energy": 0.00304,
				"method": "rhf"
			},
			{
				"type": "unocc",
				"energy": 0.04113,
				"method": "rhf"
			}
		],
		"cosmo_sigma_profile": { 
			"-0.025": 0.0,
			"-0.024": 0.0,
			"-0.023": 0.0,
			"-0.022": 0.0,
			"-0.021": 0.0,
			"-0.02": 0.0,
			"-0.019": 0.00416220558604,
			"-0.018": 0.798302712333,
			"-0.017": 0.884405243672,
			"-0.016": 0.605843729594,
			"-0.015": 1.02764764358,
			"-0.014": 0.764440920013,
			"-0.013": 0.823102749396,
			"-0.012": 0.478371539085,
			"-0.011": 0.535653776875,
			"-0.01": 0.725127178854,
			"-0.009": 0.548706072112,
			"-0.008": 1.06225671862,
			"-0.007": 9.13409281415,
			"-0.006": 18.4999743852,
			"-0.005": 16.5113980752,
			"-0.004": 16.1654028153,
			"-0.003": 14.8685069487,
			"-0.002": 15.424582938,
			"-0.001": 15.4447806211,
			"0.0": 15.64070781,
			"0.001": 17.7246591023,
			"0.002": 23.3663663495,
			"0.003": 22.913773666,
			"0.004": 17.8896049537,
			"0.005": 9.98207505398,
			"0.006": 4.27099723915,
			"0.007": 5.4645929156,
			"0.008": 5.146874059,
			"0.009": 4.17506713959,
			"0.01": 2.9286356041,
			"0.011": 4.06358117937,
			"0.012": 3.74788479213,
			"0.013": 0.147798756041,
			"0.014": 0.0,
			"0.015": 0.0,
			"0.016": 0.0,
			"0.017": 0.0,
			"0.018": 0.0,
			"0.019": 0.0,
			"0.02": 0.0,
			"0.021": 0.0,
			"0.022": 0.0,
			"0.023": 0.0,
			"0.024": 0.0,
			"0.025": 0.0
		}
	}
}
