{
	 "smiles": "CSC(=S)NN=C(C)C1=CC=CC=C1", 
	 "Tm": 423.15, 
	 "num_atms": 26, 
	 "gaussian": { 
		 "optdone": 1, 
		 "sigma_profile": "yes", 
		 "theory": "DFT", 
		 "functional": "B3LYP", 
		 "basiset": "6-31G**", 
		 "properties": { 
			 "R2extent": 4786.0319, 
			 "electric_dipole_moment_norm": 6.45729542378, 
			 "electric_quadrupole_moment_norm": 19.747816713, 
			 "total_energy": -1294.14414042, 
			 "HOMO_LUMO_gap": 0.14149, 
			 "cosmo_polarized_energy": -15.33, 
			 "cosmo_cavitation_energy": 33.25, 
			 "cosmo_dispersion_energy": -24.19, 
			 "cosmo_repulsion_energy": 1.83, 
			 "cosmo_total_nonelectrostatic_energy": 10.89, 
			 "SMD_solvation_energy": 4.66 
		},
		"coords": [
			{
				"x": 2.0600156558,
				"y": -1.7346171542,
				"z": -1.02840424,
				"element": "C" 
			},
			{
				"x": 3.2781742842,
				"y": -0.3598808539,
				"z": -0.9776074569,
				"element": "S" 
			},
			{
				"x": 2.814465178,
				"y": 0.7558947879,
				"z": 0.309581015,
				"element": "C" 
			},
			{
				"x": 3.9920789578,
				"y": 1.6982698299,
				"z": 1.0168142816,
				"element": "S" 
			},
			{
				"x": 1.514400279,
				"y": 0.8762006073,
				"z": 0.717418798,
				"element": "N" 
			},
			{
				"x": 0.445179679,
				"y": 0.4668760638,
				"z": -0.0175983017,
				"element": "N" 
			},
			{
				"x": -0.740575081,
				"y": 0.7195136679,
				"z": 0.4389070531,
				"element": "C" 
			},
			{
				"x": -0.9893671704,
				"y": 1.4278926187,
				"z": 1.7525762853,
				"element": "C" 
			},
			{
				"x": -1.8741846535,
				"y": 0.29032326,
				"z": -0.4154545103,
				"element": "C" 
			},
			{
				"x": -1.6976680231,
				"y": 0.1531386874,
				"z": -1.8055122335,
				"element": "C" 
			},
			{
				"x": -2.7455971144,
				"y": -0.2698251159,
				"z": -2.6172921022,
				"element": "C" 
			},
			{
				"x": -3.9936589954,
				"y": -0.5658794021,
				"z": -2.0613957603,
				"element": "C" 
			},
			{
				"x": -4.1825425458,
				"y": -0.4334651002,
				"z": -0.6856697082,
				"element": "C" 
			},
			{
				"x": -3.1350497542,
				"y": -0.0051816648,
				"z": 0.1299670669,
				"element": "C" 
			},
			{
				"x": 2.5674216171,
				"y": -2.5151936894,
				"z": -1.6013445749,
				"element": "H" 
			},
			{
				"x": 1.1303863106,
				"y": -1.4448063808,
				"z": -1.5108450023,
				"element": "H" 
			},
			{
				"x": 1.861253843,
				"y": -2.1073305627,
				"z": -0.022718356,
				"element": "H" 
			},
			{
				"x": 1.3948137393,
				"y": 1.5179170997,
				"z": 1.4987898953,
				"element": "H" 
			},
			{
				"x": -0.5885567077,
				"y": 0.8581241676,
				"z": 2.6000195421,
				"element": "H" 
			},
			{
				"x": -2.0502316104,
				"y": 1.5998797363,
				"z": 1.9263226724,
				"element": "H" 
			},
			{
				"x": -0.5047336126,
				"y": 2.4131999342,
				"z": 1.7592671211,
				"element": "H" 
			},
			{
				"x": -0.7336185892,
				"y": 0.4008783617,
				"z": -2.236038507,
				"element": "H" 
			},
			{
				"x": -2.5923203201,
				"y": -0.3593235272,
				"z": -3.6888978195,
				"element": "H" 
			},
			{
				"x": -4.8120184851,
				"y": -0.8917769947,
				"z": -2.6965944796,
				"element": "H" 
			},
			{
				"x": -5.1464593768,
				"y": -0.6659749074,
				"z": -0.2424861147,
				"element": "H" 
			},
			{
				"x": -3.3003075043,
				"y": 0.0710465311,
				"z": 1.199995436,
				"element": "H" 
			}
		],
		 "valence_orbital": [ 
			{
				"type": "occ",
				"energy": -0.27704,
				"method": "rhf"
			},
			{
				"type": "occ",
				"energy": -0.2641,
				"method": "rhf"
			},
			{
				"type": "occ",
				"energy": -0.23868,
				"method": "rhf"
			},
			{
				"type": "occ",
				"energy": -0.22297,
				"method": "rhf"
			},
			{
				"type": "occ",
				"energy": -0.20962,
				"method": "rhf"
			},
			{
				"type": "unocc",
				"energy": -0.06813,
				"method": "rhf"
			},
			{
				"type": "unocc",
				"energy": -0.02387,
				"method": "rhf"
			},
			{
				"type": "unocc",
				"energy": -0.01513,
				"method": "rhf"
			},
			{
				"type": "unocc",
				"energy": 0.0302,
				"method": "rhf"
			},
			{
				"type": "unocc",
				"energy": 0.04213,
				"method": "rhf"
			}
		],
		"cosmo_sigma_profile": { 
			"-0.025": 0.0,
			"-0.024": 0.0,
			"-0.023": 0.0,
			"-0.022": 0.0,
			"-0.021": 0.0,
			"-0.02": 0.0,
			"-0.019": 0.0,
			"-0.018": 0.0,
			"-0.017": 0.0,
			"-0.016": 0.0,
			"-0.015": 0.0,
			"-0.014": 0.0987562728651,
			"-0.013": 0.999672245756,
			"-0.012": 1.77996967543,
			"-0.011": 1.05091843665,
			"-0.01": 1.50132966179,
			"-0.009": 1.57292987503,
			"-0.008": 2.78702804833,
			"-0.007": 7.57415411423,
			"-0.006": 17.3966924403,
			"-0.005": 17.4105080503,
			"-0.004": 22.3158327498,
			"-0.003": 22.6035068031,
			"-0.002": 23.9242037895,
			"-0.001": 14.9634469543,
			"0.0": 14.7083098742,
			"0.001": 14.5431974104,
			"0.002": 14.1335486812,
			"0.003": 16.9889951411,
			"0.004": 19.1583301284,
			"0.005": 17.3431878889,
			"0.006": 7.99357072553,
			"0.007": 6.92572849618,
			"0.008": 7.90382166132,
			"0.009": 7.0188444544,
			"0.01": 4.19083408971,
			"0.011": 2.48769446481,
			"0.012": 0.602471703481,
			"0.013": 0.0,
			"0.014": 0.0,
			"0.015": 0.0,
			"0.016": 0.0,
			"0.017": 0.0,
			"0.018": 0.0,
			"0.019": 0.0,
			"0.02": 0.0,
			"0.021": 0.0,
			"0.022": 0.0,
			"0.023": 0.0,
			"0.024": 0.0,
			"0.025": 0.0
		}
	}
}
