{
	 "smiles": "ClC1=C(Cl)N=C2NC=NC2=C1", 
	 "Tm": 393.15, 
	 "num_atms": 14, 
	 "gaussian": { 
		 "optdone": 1, 
		 "sigma_profile": "yes", 
		 "theory": "DFT", 
		 "functional": "B3LYP", 
		 "basiset": "6-31G**", 
		 "properties": { 
			 "R2extent": 4762.44, 
			 "electric_dipole_moment_norm": 3.88635742695, 
			 "electric_quadrupole_moment_norm": 17.7634991575, 
			 "total_energy": -1315.08529916, 
			 "HOMO_LUMO_gap": 0.18919, 
			 "cosmo_polarized_energy": -12.62, 
			 "cosmo_cavitation_energy": 22.43, 
			 "cosmo_dispersion_energy": -17.48, 
			 "cosmo_repulsion_energy": 1.39, 
			 "cosmo_total_nonelectrostatic_energy": 6.34, 
			 "SMD_solvation_energy": -0.03 
		},
		"coords": [
			{
				"x": 0.0779883261,
				"y": 3.220712365,
				"z": -3.7571538195,
				"element": "Cl" 
			},
			{
				"x": 0.3155957867,
				"y": 1.6988529016,
				"z": -2.9328497918,
				"element": "C" 
			},
			{
				"x": 0.8485810782,
				"y": 0.5695519812,
				"z": -3.6070624218,
				"element": "C" 
			},
			{
				"x": 1.2847654232,
				"y": 0.6760868355,
				"z": -5.2977839964,
				"element": "Cl" 
			},
			{
				"x": 1.0487928309,
				"y": -0.6058226579,
				"z": -3.0305397577,
				"element": "N" 
			},
			{
				"x": 0.7117574769,
				"y": -0.665923957,
				"z": -1.7490009869,
				"element": "C" 
			},
			{
				"x": 0.8054483512,
				"y": -1.7446561411,
				"z": -0.8952701582,
				"element": "N" 
			},
			{
				"x": 0.334200391,
				"y": -1.3114438164,
				"z": 0.3251658672,
				"element": "C" 
			},
			{
				"x": -0.0521406828,
				"y": -0.0590415108,
				"z": 0.3346281906,
				"element": "N" 
			},
			{
				"x": 0.1737005012,
				"y": 0.3761003149,
				"z": -0.9602149472,
				"element": "C" 
			},
			{
				"x": -0.0298568124,
				"y": 1.6065463139,
				"z": -1.5854530924,
				"element": "C" 
			},
			{
				"x": 1.1523606869,
				"y": -2.6619457036,
				"z": -1.1328493632,
				"element": "H" 
			},
			{
				"x": 0.3001723812,
				"y": -1.9743680506,
				"z": 1.1800364797,
				"element": "H" 
			},
			{
				"x": -0.4380657383,
				"y": 2.4595511251,
				"z": -1.0559522024,
				"element": "H" 
			}
		],
		 "valence_orbital": [ 
			{
				"type": "occ",
				"energy": -0.32723,
				"method": "rhf"
			},
			{
				"type": "occ",
				"energy": -0.30775,
				"method": "rhf"
			},
			{
				"type": "occ",
				"energy": -0.27847,
				"method": "rhf"
			},
			{
				"type": "occ",
				"energy": -0.26534,
				"method": "rhf"
			},
			{
				"type": "occ",
				"energy": -0.24553,
				"method": "rhf"
			},
			{
				"type": "unocc",
				"energy": -0.05634,
				"method": "rhf"
			},
			{
				"type": "unocc",
				"energy": -0.01382,
				"method": "rhf"
			},
			{
				"type": "unocc",
				"energy": 0.00688,
				"method": "rhf"
			},
			{
				"type": "unocc",
				"energy": 0.02387,
				"method": "rhf"
			},
			{
				"type": "unocc",
				"energy": 0.05348,
				"method": "rhf"
			}
		],
		"cosmo_sigma_profile": { 
			"-0.025": 0.0,
			"-0.024": 0.0,
			"-0.023": 0.0,
			"-0.022": 0.0,
			"-0.021": 0.0,
			"-0.02": 0.0,
			"-0.019": 0.0,
			"-0.018": 0.595274266964,
			"-0.017": 2.04077252016,
			"-0.016": 1.40822222958,
			"-0.015": 1.25628131486,
			"-0.014": 1.1428281178,
			"-0.013": 1.26181324152,
			"-0.012": 0.743007384472,
			"-0.011": 2.1073312642,
			"-0.01": 3.74550928177,
			"-0.009": 4.22968946568,
			"-0.008": 3.49206807484,
			"-0.007": 3.50388453698,
			"-0.006": 3.05493543508,
			"-0.005": 3.40574343869,
			"-0.004": 4.13181908858,
			"-0.003": 6.60944451844,
			"-0.002": 16.9374294845,
			"-0.001": 20.1119178089,
			"0.0": 18.1562480478,
			"0.001": 13.3966114054,
			"0.002": 10.3835140232,
			"0.003": 16.7972857634,
			"0.004": 19.0284845994,
			"0.005": 7.70468108588,
			"0.006": 3.63405909527,
			"0.007": 3.07637950807,
			"0.008": 2.0621555731,
			"0.009": 2.01235002626,
			"0.01": 2.20862745363,
			"0.011": 2.25004373936,
			"0.012": 1.73409889134,
			"0.013": 0.71080688452,
			"0.014": 1.41664853726,
			"0.015": 0.996706548621,
			"0.016": 0.712842955291,
			"0.017": 0.169183582108,
			"0.018": 0.0,
			"0.019": 0.0,
			"0.02": 0.0,
			"0.021": 0.0,
			"0.022": 0.0,
			"0.023": 0.0,
			"0.024": 0.0,
			"0.025": 0.0
		}
	}
}
