{
	 "smiles": "CCCC(=O)C1=CC=C(Cl)C=C1", 
	 "Tm": 310.65, 
	 "num_atms": 23, 
	 "gaussian": { 
		 "optdone": 1, 
		 "sigma_profile": "yes", 
		 "theory": "DFT", 
		 "functional": "B3LYP", 
		 "basiset": "6-31G**", 
		 "properties": { 
			 "R2extent": 3785.4964, 
			 "electric_dipole_moment_norm": 2.27263915526, 
			 "electric_quadrupole_moment_norm": 9.18924032061, 
			 "total_energy": -923.120753776, 
			 "HOMO_LUMO_gap": 0.18529, 
			 "cosmo_polarized_energy": -7.73, 
			 "cosmo_cavitation_energy": 28.23, 
			 "cosmo_dispersion_energy": -20.39, 
			 "cosmo_repulsion_energy": 1.64, 
			 "cosmo_total_nonelectrostatic_energy": 9.48, 
			 "SMD_solvation_energy": 4.9 
		},
		"coords": [
			{
				"x": 0.756373678,
				"y": -2.8529656944,
				"z": 1.1822454569,
				"element": "C" 
			},
			{
				"x": 0.104882191,
				"y": -1.6585565401,
				"z": 1.8864213621,
				"element": "C" 
			},
			{
				"x": 0.8668785634,
				"y": -0.3266479841,
				"z": 1.6793753859,
				"element": "C" 
			},
			{
				"x": 0.8826088999,
				"y": 0.1173495178,
				"z": 0.2232430506,
				"element": "C" 
			},
			{
				"x": 1.8478961344,
				"y": -0.130068014,
				"z": -0.4868508484,
				"element": "O" 
			},
			{
				"x": -0.3101178215,
				"y": 0.826085768,
				"z": -0.3535052206,
				"element": "C" 
			},
			{
				"x": -0.2808951276,
				"y": 1.1501338987,
				"z": -1.7197867774,
				"element": "C" 
			},
			{
				"x": -1.3453000396,
				"y": 1.8076510534,
				"z": -2.3247747506,
				"element": "C" 
			},
			{
				"x": -2.4587589091,
				"y": 2.1465101983,
				"z": -1.5515033195,
				"element": "C" 
			},
			{
				"x": -3.8090292011,
				"y": 2.9763664207,
				"z": -2.3036809644,
				"element": "Cl" 
			},
			{
				"x": -2.5171065949,
				"y": 1.8381051661,
				"z": -0.1927422997,
				"element": "C" 
			},
			{
				"x": -1.440348905,
				"y": 1.1792495365,
				"z": 0.3990155254,
				"element": "C" 
			},
			{
				"x": 0.8170623196,
				"y": -2.7016433281,
				"z": 0.1004873567,
				"element": "H" 
			},
			{
				"x": 0.1850888332,
				"y": -3.7689459525,
				"z": 1.3638023596,
				"element": "H" 
			},
			{
				"x": 1.7766576108,
				"y": -3.0147027431,
				"z": 1.5462435255,
				"element": "H" 
			},
			{
				"x": 0.052849574,
				"y": -1.8513664898,
				"z": 2.964692594,
				"element": "H" 
			},
			{
				"x": -0.9313861433,
				"y": -1.5463891014,
				"z": 1.5442866303,
				"element": "H" 
			},
			{
				"x": 0.4300963928,
				"y": 0.4507379357,
				"z": 2.3158404713,
				"element": "H" 
			},
			{
				"x": 1.9119732268,
				"y": -0.4536711401,
				"z": 1.9767161081,
				"element": "H" 
			},
			{
				"x": 0.5988033494,
				"y": 0.8735463422,
				"z": -2.2910756553,
				"element": "H" 
			},
			{
				"x": -1.3207821178,
				"y": 2.0575423793,
				"z": -3.3796925876,
				"element": "H" 
			},
			{
				"x": -3.3899203953,
				"y": 2.1110711478,
				"z": 0.3896698357,
				"element": "H" 
			},
			{
				"x": -1.4947255182,
				"y": 0.945207623,
				"z": 1.4566727613,
				"element": "H" 
			}
		],
		 "valence_orbital": [ 
			{
				"type": "occ",
				"energy": -0.33091,
				"method": "rhf"
			},
			{
				"type": "occ",
				"energy": -0.3208,
				"method": "rhf"
			},
			{
				"type": "occ",
				"energy": -0.2741,
				"method": "rhf"
			},
			{
				"type": "occ",
				"energy": -0.25632,
				"method": "rhf"
			},
			{
				"type": "occ",
				"energy": -0.24965,
				"method": "rhf"
			},
			{
				"type": "unocc",
				"energy": -0.06436,
				"method": "rhf"
			},
			{
				"type": "unocc",
				"energy": -0.02348,
				"method": "rhf"
			},
			{
				"type": "unocc",
				"energy": 0.02224,
				"method": "rhf"
			},
			{
				"type": "unocc",
				"energy": 0.02774,
				"method": "rhf"
			},
			{
				"type": "unocc",
				"energy": 0.08884,
				"method": "rhf"
			}
		],
		"cosmo_sigma_profile": { 
			"-0.025": 0.0,
			"-0.024": 0.0,
			"-0.023": 0.0,
			"-0.022": 0.0,
			"-0.021": 0.0,
			"-0.02": 0.0,
			"-0.019": 0.0,
			"-0.018": 0.0,
			"-0.017": 0.0,
			"-0.016": 0.0,
			"-0.015": 0.0,
			"-0.014": 0.0,
			"-0.013": 0.0,
			"-0.012": 0.0,
			"-0.011": 0.0,
			"-0.01": 0.0,
			"-0.009": 0.0,
			"-0.008": 2.61776170578,
			"-0.007": 6.46841284765,
			"-0.006": 8.55008879347,
			"-0.005": 9.08885822272,
			"-0.004": 11.3001761863,
			"-0.003": 21.0402122636,
			"-0.002": 24.8106110139,
			"-0.001": 24.9467568382,
			"0.0": 21.9024094996,
			"0.001": 25.1185658294,
			"0.002": 23.1654987226,
			"0.003": 14.8457633854,
			"0.004": 11.3839046329,
			"0.005": 4.73202741818,
			"0.006": 1.66271246611,
			"0.007": 1.35464934975,
			"0.008": 1.7897021092,
			"0.009": 1.99498736222,
			"0.01": 1.55197230295,
			"0.011": 2.75674910766,
			"0.012": 3.55568292607,
			"0.013": 1.34863910078,
			"0.014": 0.112358885594,
			"0.015": 0.0,
			"0.016": 0.0,
			"0.017": 0.0,
			"0.018": 0.0,
			"0.019": 0.0,
			"0.02": 0.0,
			"0.021": 0.0,
			"0.022": 0.0,
			"0.023": 0.0,
			"0.024": 0.0,
			"0.025": 0.0
		}
	}
}
