{
	 "smiles": "NC1=NC(=CN1N=CC1=CC=CC=C1)C1=CC=CC=C1", 
	 "Tm": 476.15, 
	 "num_atms": 34, 
	 "gaussian": { 
		 "optdone": 1, 
		 "sigma_profile": "yes", 
		 "theory": "DFT", 
		 "functional": "B3LYP", 
		 "basiset": "6-31G**", 
		 "properties": { 
			 "R2extent": 9759.8703, 
			 "electric_dipole_moment_norm": 3.91730316034, 
			 "electric_quadrupole_moment_norm": 16.0067123436, 
			 "total_energy": -837.120213647, 
			 "HOMO_LUMO_gap": 0.12235, 
			 "cosmo_polarized_energy": -15.88, 
			 "cosmo_cavitation_energy": 39.17, 
			 "cosmo_dispersion_energy": -28.59, 
			 "cosmo_repulsion_energy": 2.16, 
			 "cosmo_total_nonelectrostatic_energy": 12.74, 
			 "SMD_solvation_energy": 5.0 
		},
		"coords": [
			{
				"x": 2.9651272003,
				"y": 1.2390004227,
				"z": 0.1858980989,
				"element": "N" 
			},
			{
				"x": 1.7226875852,
				"y": 1.8174774198,
				"z": 0.1315596888,
				"element": "C" 
			},
			{
				"x": 1.425615969,
				"y": 3.0668066222,
				"z": 0.3836283788,
				"element": "N" 
			},
			{
				"x": 0.0594385622,
				"y": 3.1862568105,
				"z": 0.124067702,
				"element": "C" 
			},
			{
				"x": -0.4647566821,
				"y": 1.9872452559,
				"z": -0.2897009383,
				"element": "C" 
			},
			{
				"x": 0.6153096347,
				"y": 1.0934250387,
				"z": -0.2832757126,
				"element": "N" 
			},
			{
				"x": 0.7146263404,
				"y": -0.2371335863,
				"z": -0.5431516154,
				"element": "N" 
			},
			{
				"x": -0.3256408158,
				"y": -0.879397598,
				"z": -0.9486638844,
				"element": "C" 
			},
			{
				"x": -0.2797845999,
				"y": -2.3128882565,
				"z": -1.2382531409,
				"element": "C" 
			},
			{
				"x": 0.8993239659,
				"y": -3.0699169224,
				"z": -1.1069439182,
				"element": "C" 
			},
			{
				"x": 0.8954421314,
				"y": -4.4300474567,
				"z": -1.3943868805,
				"element": "C" 
			},
			{
				"x": -0.2804918607,
				"y": -5.0610629175,
				"z": -1.816822858,
				"element": "C" 
			},
			{
				"x": -1.4550905683,
				"y": -4.3195764397,
				"z": -1.9508148252,
				"element": "C" 
			},
			{
				"x": -1.4543937576,
				"y": -2.9554354549,
				"z": -1.6638778178,
				"element": "C" 
			},
			{
				"x": -0.6240599649,
				"y": 4.4716122579,
				"z": 0.3037769642,
				"element": "C" 
			},
			{
				"x": -2.0019491869,
				"y": 4.6189580517,
				"z": 0.0647016248,
				"element": "C" 
			},
			{
				"x": -2.6281159022,
				"y": 5.8496504528,
				"z": 0.2429733577,
				"element": "C" 
			},
			{
				"x": -1.891859089,
				"y": 6.9603784414,
				"z": 0.6646051268,
				"element": "C" 
			},
			{
				"x": -0.5230629529,
				"y": 6.8251823078,
				"z": 0.9051602366,
				"element": "C" 
			},
			{
				"x": 0.1064505814,
				"y": 5.5947347043,
				"z": 0.7271928851,
				"element": "C" 
			},
			{
				"x": 2.9587980151,
				"y": 0.2318933224,
				"z": 0.2684832086,
				"element": "H" 
			},
			{
				"x": 3.6104798101,
				"y": 1.7232074248,
				"z": 0.7926306685,
				"element": "H" 
			},
			{
				"x": -1.4603411932,
				"y": 1.6896604752,
				"z": -0.5677351839,
				"element": "H" 
			},
			{
				"x": -1.2892874766,
				"y": -0.3863075741,
				"z": -1.0985503384,
				"element": "H" 
			},
			{
				"x": 1.8079243568,
				"y": -2.5752311279,
				"z": -0.7813693505,
				"element": "H" 
			},
			{
				"x": 1.8113791709,
				"y": -5.0047074487,
				"z": -1.2907202833,
				"element": "H" 
			},
			{
				"x": -0.2781006844,
				"y": -6.1239054248,
				"z": -2.0400614783,
				"element": "H" 
			},
			{
				"x": -2.3710579336,
				"y": -4.8022140957,
				"z": -2.2786855416,
				"element": "H" 
			},
			{
				"x": -2.3703432773,
				"y": -2.3790592496,
				"z": -1.7692954764,
				"element": "H" 
			},
			{
				"x": -2.589687419,
				"y": 3.7659117982,
				"z": -0.2630678844,
				"element": "H" 
			},
			{
				"x": -3.6938297471,
				"y": 5.9431723461,
				"z": 0.0527965082,
				"element": "H" 
			},
			{
				"x": -2.3814238136,
				"y": 7.9200856393,
				"z": 0.8033527669,
				"element": "H" 
			},
			{
				"x": 0.0582286718,
				"y": 7.6828653837,
				"z": 1.2327241201,
				"element": "H" 
			},
			{
				"x": 1.1689449297,
				"y": 5.4792593773,
				"z": 0.910225792,
				"element": "H" 
			}
		],
		 "valence_orbital": [ 
			{
				"type": "occ",
				"energy": -0.26234,
				"method": "rhf"
			},
			{
				"type": "occ",
				"energy": -0.24521,
				"method": "rhf"
			},
			{
				"type": "occ",
				"energy": -0.24015,
				"method": "rhf"
			},
			{
				"type": "occ",
				"energy": -0.22854,
				"method": "rhf"
			},
			{
				"type": "occ",
				"energy": -0.18563,
				"method": "rhf"
			},
			{
				"type": "unocc",
				"energy": -0.06328,
				"method": "rhf"
			},
			{
				"type": "unocc",
				"energy": -0.01129,
				"method": "rhf"
			},
			{
				"type": "unocc",
				"energy": -0.00769,
				"method": "rhf"
			},
			{
				"type": "unocc",
				"energy": 0.0109,
				"method": "rhf"
			},
			{
				"type": "unocc",
				"energy": 0.03262,
				"method": "rhf"
			}
		],
		"cosmo_sigma_profile": { 
			"-0.025": 0.0,
			"-0.024": 0.0,
			"-0.023": 0.0,
			"-0.022": 0.0,
			"-0.021": 0.0,
			"-0.02": 0.0,
			"-0.019": 0.0,
			"-0.018": 0.0,
			"-0.017": 0.0,
			"-0.016": 0.0,
			"-0.015": 0.0,
			"-0.014": 0.431675210222,
			"-0.013": 1.1947255999,
			"-0.012": 2.13765511527,
			"-0.011": 1.81019783349,
			"-0.01": 3.62109689357,
			"-0.009": 5.71513264933,
			"-0.008": 5.91869669927,
			"-0.007": 6.04230177945,
			"-0.006": 14.6649197047,
			"-0.005": 20.3375444239,
			"-0.004": 22.2913008146,
			"-0.003": 22.6753431403,
			"-0.002": 18.354883035,
			"-0.001": 18.874024342,
			"0.0": 16.5632357689,
			"0.001": 20.8026858212,
			"0.002": 21.3974299243,
			"0.003": 24.2795476172,
			"0.004": 28.9959350627,
			"0.005": 26.6039077408,
			"0.006": 13.8854780239,
			"0.007": 4.54512452093,
			"0.008": 2.65109570102,
			"0.009": 1.85529652732,
			"0.01": 2.97449002978,
			"0.011": 1.18219704736,
			"0.012": 1.71127860332,
			"0.013": 1.41546882525,
			"0.014": 1.37667549709,
			"0.015": 0.365640989821,
			"0.016": 0.0,
			"0.017": 0.0,
			"0.018": 0.0,
			"0.019": 0.0,
			"0.02": 0.0,
			"0.021": 0.0,
			"0.022": 0.0,
			"0.023": 0.0,
			"0.024": 0.0,
			"0.025": 0.0
		}
	}
}
