{
	 "smiles": "COC1=CC(OC)=C(C=C1)N1C(=O)C=CC1=O", 
	 "Tm": 399.15, 
	 "num_atms": 28, 
	 "gaussian": { 
		 "optdone": 1, 
		 "sigma_profile": "yes", 
		 "theory": "DFT", 
		 "functional": "B3LYP", 
		 "basiset": "6-31G**", 
		 "properties": { 
			 "R2extent": 4640.7499, 
			 "electric_dipole_moment_norm": 0.846221419015, 
			 "electric_quadrupole_moment_norm": 20.6484998428, 
			 "total_energy": -819.52315098, 
			 "HOMO_LUMO_gap": 0.12891, 
			 "cosmo_polarized_energy": -15.9, 
			 "cosmo_cavitation_energy": 33.47, 
			 "cosmo_dispersion_energy": -23.19, 
			 "cosmo_repulsion_energy": 1.82, 
			 "cosmo_total_nonelectrostatic_energy": 12.1, 
			 "SMD_solvation_energy": 9.24 
		},
		"coords": [
			{
				"x": -2.7509291235,
				"y": -2.2546624171,
				"z": 2.1152926442,
				"element": "C" 
			},
			{
				"x": -2.018154902,
				"y": -2.2098490417,
				"z": 0.90017786,
				"element": "O" 
			},
			{
				"x": -1.2847086225,
				"y": -1.0931570217,
				"z": 0.6302338921,
				"element": "C" 
			},
			{
				"x": -0.5917727235,
				"y": -1.1247115456,
				"z": -0.5910667003,
				"element": "C" 
			},
			{
				"x": 0.1874348337,
				"y": -0.0388201307,
				"z": -0.9803551283,
				"element": "C" 
			},
			{
				"x": 0.8723558832,
				"y": 0.0367926181,
				"z": -2.1505992701,
				"element": "O" 
			},
			{
				"x": 0.8490779727,
				"y": -1.0870737232,
				"z": -3.0191513718,
				"element": "C" 
			},
			{
				"x": 0.2929269626,
				"y": 1.084495955,
				"z": -0.1287361245,
				"element": "C" 
			},
			{
				"x": -0.3994485398,
				"y": 1.0980297457,
				"z": 1.0737471064,
				"element": "C" 
			},
			{
				"x": -1.1981421829,
				"y": 0.0216475884,
				"z": 1.468760603,
				"element": "C" 
			},
			{
				"x": 1.0930470607,
				"y": 2.1926174777,
				"z": -0.5252156223,
				"element": "N" 
			},
			{
				"x": 0.5892949636,
				"y": 3.409916312,
				"z": -1.0201905287,
				"element": "C" 
			},
			{
				"x": -0.5784835299,
				"y": 3.7252550344,
				"z": -1.0945861139,
				"element": "O" 
			},
			{
				"x": 1.789550629,
				"y": 4.2201157281,
				"z": -1.4177687441,
				"element": "C" 
			},
			{
				"x": 2.8925167322,
				"y": 3.5023949086,
				"z": -1.1878800202,
				"element": "C" 
			},
			{
				"x": 2.4978519578,
				"y": 2.170801715,
				"z": -0.6169088895,
				"element": "C" 
			},
			{
				"x": 3.2231227088,
				"y": 1.259223891,
				"z": -0.2852055095,
				"element": "O" 
			},
			{
				"x": -3.2565955804,
				"y": -3.2213543137,
				"z": 2.125836599,
				"element": "H" 
			},
			{
				"x": -3.5001172644,
				"y": -1.4544292315,
				"z": 2.1650554311,
				"element": "H" 
			},
			{
				"x": -2.0901600208,
				"y": -2.1830846577,
				"z": 2.9884614427,
				"element": "H" 
			},
			{
				"x": -0.6946954697,
				"y": -2.0078309913,
				"z": -1.2080101649,
				"element": "H" 
			},
			{
				"x": 1.4729181603,
				"y": -0.8183775238,
				"z": -3.8725554022,
				"element": "H" 
			},
			{
				"x": 1.2639630437,
				"y": -1.9777490017,
				"z": -2.5319988793,
				"element": "H" 
			},
			{
				"x": -0.1681104679,
				"y": -1.3049784503,
				"z": -3.3677105818,
				"element": "H" 
			},
			{
				"x": -0.3124029918,
				"y": 1.9700612178,
				"z": 1.7136470792,
				"element": "H" 
			},
			{
				"x": -1.7279885948,
				"y": 0.064705307,
				"z": 2.4114097993,
				"element": "H" 
			},
			{
				"x": 1.690950087,
				"y": 5.2203878432,
				"z": -1.8189414039,
				"element": "H" 
			},
			{
				"x": 3.9296990186,
				"y": 3.764532708,
				"z": -1.3513420016,
				"element": "H" 
			}
		],
		 "valence_orbital": [ 
			{
				"type": "occ",
				"energy": -0.28748,
				"method": "rhf"
			},
			{
				"type": "occ",
				"energy": -0.27522,
				"method": "rhf"
			},
			{
				"type": "occ",
				"energy": -0.26116,
				"method": "rhf"
			},
			{
				"type": "occ",
				"energy": -0.23521,
				"method": "rhf"
			},
			{
				"type": "occ",
				"energy": -0.21552,
				"method": "rhf"
			},
			{
				"type": "unocc",
				"energy": -0.08661,
				"method": "rhf"
			},
			{
				"type": "unocc",
				"energy": -0.00228,
				"method": "rhf"
			},
			{
				"type": "unocc",
				"energy": 0.01199,
				"method": "rhf"
			},
			{
				"type": "unocc",
				"energy": 0.06472,
				"method": "rhf"
			},
			{
				"type": "unocc",
				"energy": 0.07563,
				"method": "rhf"
			}
		],
		"cosmo_sigma_profile": { 
			"-0.025": 0.0,
			"-0.024": 0.0,
			"-0.023": 0.0,
			"-0.022": 0.0,
			"-0.021": 0.0,
			"-0.02": 0.0,
			"-0.019": 0.0,
			"-0.018": 0.0,
			"-0.017": 0.0,
			"-0.016": 0.0,
			"-0.015": 0.0,
			"-0.014": 0.0,
			"-0.013": 0.0,
			"-0.012": 0.0,
			"-0.011": 0.0,
			"-0.01": 1.41770892658,
			"-0.009": 3.83690389504,
			"-0.008": 2.80396746104,
			"-0.007": 7.74434887924,
			"-0.006": 19.7785882569,
			"-0.005": 27.1927922156,
			"-0.004": 27.3965818628,
			"-0.003": 27.0366582088,
			"-0.002": 17.1077656147,
			"-0.001": 13.0504166393,
			"0.0": 11.0774147091,
			"0.001": 10.8231278385,
			"0.002": 10.6339925759,
			"0.003": 14.6617334754,
			"0.004": 14.7164047119,
			"0.005": 10.344198969,
			"0.006": 6.32349625348,
			"0.007": 6.47707060348,
			"0.008": 7.16902184806,
			"0.009": 6.6192866114,
			"0.01": 8.56010899245,
			"0.011": 10.2384958521,
			"0.012": 2.78499318001,
			"0.013": 0.0,
			"0.014": 0.0,
			"0.015": 0.0,
			"0.016": 0.0,
			"0.017": 0.0,
			"0.018": 0.0,
			"0.019": 0.0,
			"0.02": 0.0,
			"0.021": 0.0,
			"0.022": 0.0,
			"0.023": 0.0,
			"0.024": 0.0,
			"0.025": 0.0
		}
	}
}
