{
	 "smiles": "O=C1CC(CN1)C1=CC=CC=C1", 
	 "Tm": 344.15, 
	 "num_atms": 23, 
	 "gaussian": { 
		 "optdone": 1, 
		 "sigma_profile": "yes", 
		 "theory": "DFT", 
		 "functional": "B3LYP", 
		 "basiset": "6-31G**", 
		 "properties": { 
			 "R2extent": 2394.8544, 
			 "electric_dipole_moment_norm": 3.72636464399, 
			 "electric_quadrupole_moment_norm": 16.2110764266, 
			 "total_energy": -517.68678196, 
			 "HOMO_LUMO_gap": 0.23074, 
			 "cosmo_polarized_energy": -12.55, 
			 "cosmo_cavitation_energy": 25.77, 
			 "cosmo_dispersion_energy": -18.99, 
			 "cosmo_repulsion_energy": 1.54, 
			 "cosmo_total_nonelectrostatic_energy": 8.31, 
			 "SMD_solvation_energy": 4.39 
		},
		"coords": [
			{
				"x": 1.2539875525,
				"y": -0.7573235254,
				"z": -3.2524980788,
				"element": "O" 
			},
			{
				"x": 1.1518173548,
				"y": -0.9472601579,
				"z": -2.053606301,
				"element": "C" 
			},
			{
				"x": 1.1766506509,
				"y": 0.1040717542,
				"z": -0.9414110279,
				"element": "C" 
			},
			{
				"x": 0.7777947555,
				"y": -0.6444355649,
				"z": 0.3589052031,
				"element": "C" 
			},
			{
				"x": 1.0606496507,
				"y": -2.1407873221,
				"z": 0.011552589,
				"element": "C" 
			},
			{
				"x": 1.005853144,
				"y": -2.1674422589,
				"z": -1.4410169372,
				"element": "N" 
			},
			{
				"x": -0.6594696187,
				"y": -0.3864880209,
				"z": 0.7804686041,
				"element": "C" 
			},
			{
				"x": -0.9264665541,
				"y": 0.3125484505,
				"z": 1.9643885799,
				"element": "C" 
			},
			{
				"x": -2.2378025964,
				"y": 0.5768201674,
				"z": 2.3651120252,
				"element": "C" 
			},
			{
				"x": -3.3083707841,
				"y": 0.1423769331,
				"z": 1.5836673087,
				"element": "C" 
			},
			{
				"x": -3.0565303092,
				"y": -0.5571878797,
				"z": 0.4011884776,
				"element": "C" 
			},
			{
				"x": -1.7457278485,
				"y": -0.8186877428,
				"z": 0.002735488,
				"element": "C" 
			},
			{
				"x": 0.5119303188,
				"y": 0.9343331937,
				"z": -1.1880561255,
				"element": "H" 
			},
			{
				"x": 2.1953144999,
				"y": 0.5049837164,
				"z": -0.8855731764,
				"element": "H" 
			},
			{
				"x": 1.4266616386,
				"y": -0.3429537568,
				"z": 1.1855623647,
				"element": "H" 
			},
			{
				"x": 2.0485452529,
				"y": -2.4490139769,
				"z": 0.3834483052,
				"element": "H" 
			},
			{
				"x": 0.3115866364,
				"y": -2.8054978015,
				"z": 0.452791554,
				"element": "H" 
			},
			{
				"x": 1.1065950895,
				"y": -3.0132057827,
				"z": -1.9840140598,
				"element": "H" 
			},
			{
				"x": -0.0976945999,
				"y": 0.6537695968,
				"z": 2.5804965572,
				"element": "H" 
			},
			{
				"x": -2.4204240756,
				"y": 1.1200276366,
				"z": 3.2881303573,
				"element": "H" 
			},
			{
				"x": -4.3297571156,
				"y": 0.3455421798,
				"z": 1.8922552163,
				"element": "H" 
			},
			{
				"x": -3.8833520711,
				"y": -0.900035496,
				"z": -0.2146392749,
				"element": "H" 
			},
			{
				"x": -1.5650909712,
				"y": -1.3642543419,
				"z": -0.9192876487,
				"element": "H" 
			}
		],
		 "valence_orbital": [ 
			{
				"type": "occ",
				"energy": -0.32611,
				"method": "rhf"
			},
			{
				"type": "occ",
				"energy": -0.25681,
				"method": "rhf"
			},
			{
				"type": "occ",
				"energy": -0.25223,
				"method": "rhf"
			},
			{
				"type": "occ",
				"energy": -0.24372,
				"method": "rhf"
			},
			{
				"type": "occ",
				"energy": -0.23756,
				"method": "rhf"
			},
			{
				"type": "unocc",
				"energy": -0.00682,
				"method": "rhf"
			},
			{
				"type": "unocc",
				"energy": -0.00237,
				"method": "rhf"
			},
			{
				"type": "unocc",
				"energy": 0.03444,
				"method": "rhf"
			},
			{
				"type": "unocc",
				"energy": 0.07758,
				"method": "rhf"
			},
			{
				"type": "unocc",
				"energy": 0.09397,
				"method": "rhf"
			}
		],
		"cosmo_sigma_profile": { 
			"-0.025": 0.0,
			"-0.024": 0.0,
			"-0.023": 0.0,
			"-0.022": 0.0,
			"-0.021": 0.0,
			"-0.02": 0.0,
			"-0.019": 0.0,
			"-0.018": 0.0,
			"-0.017": 0.0,
			"-0.016": 0.0,
			"-0.015": 0.0484178100171,
			"-0.014": 0.854121840165,
			"-0.013": 1.33256759559,
			"-0.012": 1.16090942084,
			"-0.011": 0.784155796999,
			"-0.01": 0.764178771739,
			"-0.009": 1.3610074484,
			"-0.008": 0.891958699178,
			"-0.007": 1.07753849942,
			"-0.006": 5.02566848161,
			"-0.005": 20.8774164532,
			"-0.004": 26.3073679293,
			"-0.003": 23.1548673141,
			"-0.002": 18.495685664,
			"-0.001": 15.8081296959,
			"0.0": 10.4225213904,
			"0.001": 9.06873725782,
			"0.002": 10.0589807391,
			"0.003": 8.04788603921,
			"0.004": 8.16394715801,
			"0.005": 9.08898037797,
			"0.006": 9.01527690454,
			"0.007": 2.35793978547,
			"0.008": 1.37011425484,
			"0.009": 1.48877859901,
			"0.01": 1.2453451719,
			"0.011": 1.39402304038,
			"0.012": 2.04393905629,
			"0.013": 3.08559947912,
			"0.014": 6.38926461041,
			"0.015": 2.5896116558,
			"0.016": 0.0562362371677,
			"0.017": 0.0,
			"0.018": 0.0,
			"0.019": 0.0,
			"0.02": 0.0,
			"0.021": 0.0,
			"0.022": 0.0,
			"0.023": 0.0,
			"0.024": 0.0,
			"0.025": 0.0
		}
	}
}
