{
	 "smiles": "CC(C)(C)CC(C)(C)S", 
	 "Tm": 199.15, 
	 "num_atms": 27, 
	 "gaussian": { 
		 "optdone": 1, 
		 "sigma_profile": "yes", 
		 "theory": "DFT", 
		 "functional": "B3LYP", 
		 "basiset": "6-31G**", 
		 "properties": { 
			 "R2extent": 2537.2976, 
			 "electric_dipole_moment_norm": 1.69816571924, 
			 "electric_quadrupole_moment_norm": 6.8986584319, 
			 "total_energy": -713.903326631, 
			 "HOMO_LUMO_gap": 0.2557, 
			 "cosmo_polarized_energy": -4.3, 
			 "cosmo_cavitation_energy": 27.52, 
			 "cosmo_dispersion_energy": -19.68, 
			 "cosmo_repulsion_energy": 1.53, 
			 "cosmo_total_nonelectrostatic_energy": 9.36, 
			 "SMD_solvation_energy": 4.39 
		},
		"coords": [
			{
				"x": 1.1997234688,
				"y": -1.7797707803,
				"z": -0.674654385,
				"element": "C" 
			},
			{
				"x": 0.3645790416,
				"y": -0.7249604886,
				"z": 0.0882506718,
				"element": "C" 
			},
			{
				"x": 0.7569545351,
				"y": 0.6627223812,
				"z": -0.4635864635,
				"element": "C" 
			},
			{
				"x": -1.125031188,
				"y": -0.9898188034,
				"z": -0.1991371566,
				"element": "C" 
			},
			{
				"x": 0.745706341,
				"y": -0.8913329551,
				"z": 1.5926809756,
				"element": "C" 
			},
			{
				"x": 0.0089281944,
				"y": -0.2031323069,
				"z": 2.7796409621,
				"element": "C" 
			},
			{
				"x": 0.8636217927,
				"y": -0.4429235452,
				"z": 4.0390589592,
				"element": "C" 
			},
			{
				"x": -0.2252764512,
				"y": 1.304473771,
				"z": 2.6079035789,
				"element": "C" 
			},
			{
				"x": -1.6422398892,
				"y": -1.0687777013,
				"z": 3.0352094102,
				"element": "S" 
			},
			{
				"x": 0.9357968514,
				"y": -2.7968916262,
				"z": -0.364308829,
				"element": "H" 
			},
			{
				"x": 1.0270060656,
				"y": -1.7036381785,
				"z": -1.7537766214,
				"element": "H" 
			},
			{
				"x": 2.2732479218,
				"y": -1.6435275831,
				"z": -0.4988908622,
				"element": "H" 
			},
			{
				"x": 0.6220244648,
				"y": 0.6860759956,
				"z": -1.5509188082,
				"element": "H" 
			},
			{
				"x": 1.8099545766,
				"y": 0.8882176941,
				"z": -0.2576923281,
				"element": "H" 
			},
			{
				"x": 0.1527468185,
				"y": 1.4701407782,
				"z": -0.0452458849,
				"element": "H" 
			},
			{
				"x": -1.4336616348,
				"y": -1.9773180755,
				"z": 0.1603853209,
				"element": "H" 
			},
			{
				"x": -1.3090206913,
				"y": -0.9588708844,
				"z": -1.2794609799,
				"element": "H" 
			},
			{
				"x": -1.776170622,
				"y": -0.2482810814,
				"z": 0.2708672665,
				"element": "H" 
			},
			{
				"x": 1.7956685256,
				"y": -0.5769548684,
				"z": 1.6787935922,
				"element": "H" 
			},
			{
				"x": 0.7427430197,
				"y": -1.9652947514,
				"z": 1.8173426336,
				"element": "H" 
			},
			{
				"x": 1.0464981836,
				"y": -1.5087869011,
				"z": 4.1997545602,
				"element": "H" 
			},
			{
				"x": 1.8323712526,
				"y": 0.0619091017,
				"z": 3.9367059131,
				"element": "H" 
			},
			{
				"x": 0.3736552609,
				"y": -0.0424757737,
				"z": 4.9326117109,
				"element": "H" 
			},
			{
				"x": -0.9323508391,
				"y": 1.5221995136,
				"z": 1.8063158911,
				"element": "H" 
			},
			{
				"x": 0.7195030409,
				"y": 1.8170443025,
				"z": 2.3896007029,
				"element": "H" 
			},
			{
				"x": -0.6301880408,
				"y": 1.732857205,
				"z": 3.5308925675,
				"element": "H" 
			},
			{
				"x": -1.8851899994,
				"y": -0.5449844385,
				"z": 4.2539576024,
				"element": "H" 
			}
		],
		 "valence_orbital": [ 
			{
				"type": "occ",
				"energy": -0.31705,
				"method": "rhf"
			},
			{
				"type": "occ",
				"energy": -0.31361,
				"method": "rhf"
			},
			{
				"type": "occ",
				"energy": -0.30543,
				"method": "rhf"
			},
			{
				"type": "occ",
				"energy": -0.29903,
				"method": "rhf"
			},
			{
				"type": "occ",
				"energy": -0.22902,
				"method": "rhf"
			},
			{
				"type": "unocc",
				"energy": 0.02668,
				"method": "rhf"
			},
			{
				"type": "unocc",
				"energy": 0.06015,
				"method": "rhf"
			},
			{
				"type": "unocc",
				"energy": 0.08501,
				"method": "rhf"
			},
			{
				"type": "unocc",
				"energy": 0.10963,
				"method": "rhf"
			},
			{
				"type": "unocc",
				"energy": 0.12216,
				"method": "rhf"
			}
		],
		"cosmo_sigma_profile": { 
			"-0.025": 0.0,
			"-0.024": 0.0,
			"-0.023": 0.0,
			"-0.022": 0.0,
			"-0.021": 0.0,
			"-0.02": 0.0,
			"-0.019": 0.0,
			"-0.018": 0.0,
			"-0.017": 0.0,
			"-0.016": 0.0,
			"-0.015": 0.0,
			"-0.014": 0.0,
			"-0.013": 0.0,
			"-0.012": 0.0,
			"-0.011": 0.0,
			"-0.01": 0.0,
			"-0.009": 0.0,
			"-0.008": 0.965679463734,
			"-0.007": 2.38920154932,
			"-0.006": 2.56789641425,
			"-0.005": 2.55757037925,
			"-0.004": 5.74192745791,
			"-0.003": 19.2835622413,
			"-0.002": 36.6453321268,
			"-0.001": 32.6272761421,
			"0.0": 31.9370579935,
			"0.001": 30.726559244,
			"0.002": 20.0897753357,
			"0.003": 4.58746191126,
			"0.004": 3.72883753153,
			"0.005": 3.52366640585,
			"0.006": 4.15707219942,
			"0.007": 2.55784019852,
			"0.008": 2.52137687883,
			"0.009": 2.27353278917,
			"0.01": 1.98801088205,
			"0.011": 1.36035837423,
			"0.012": 0.343353270286,
			"0.013": 0.0,
			"0.014": 0.0,
			"0.015": 0.0,
			"0.016": 0.0,
			"0.017": 0.0,
			"0.018": 0.0,
			"0.019": 0.0,
			"0.02": 0.0,
			"0.021": 0.0,
			"0.022": 0.0,
			"0.023": 0.0,
			"0.024": 0.0,
			"0.025": 0.0
		}
	}
}
