{
	 "smiles": "C1CCC(CC1)P(C1CCCCC1)C1=CC=CC=C1", 
	 "Tm": 332.65, 
	 "num_atms": 46, 
	 "gaussian": { 
		 "optdone": 1, 
		 "sigma_profile": "yes", 
		 "theory": "DFT", 
		 "functional": "B3LYP", 
		 "basiset": "6-31G**", 
		 "properties": { 
			 "R2extent": 6330.8599, 
			 "electric_dipole_moment_norm": 1.27249099014, 
			 "electric_quadrupole_moment_norm": 5.17263026902, 
			 "total_energy": -1043.55043631, 
			 "HOMO_LUMO_gap": 0.20035, 
			 "cosmo_polarized_energy": -5.18, 
			 "cosmo_cavitation_energy": 43.94, 
			 "cosmo_dispersion_energy": -30.35, 
			 "cosmo_repulsion_energy": 2.37, 
			 "cosmo_total_nonelectrostatic_energy": 15.96, 
			 "SMD_solvation_energy": 5.53 
		},
		"coords": [
			{
				"x": -0.8708086242,
				"y": 0.8862549024,
				"z": 3.9297010191,
				"element": "C" 
			},
			{
				"x": -1.9843841773,
				"y": 1.1399229265,
				"z": 2.8847873636,
				"element": "C" 
			},
			{
				"x": -2.0905572939,
				"y": -0.0052319822,
				"z": 1.8549014426,
				"element": "C" 
			},
			{
				"x": -0.7212916514,
				"y": -0.5921076494,
				"z": 1.4421507769,
				"element": "C" 
			},
			{
				"x": 0.0020433758,
				"y": -1.1591719615,
				"z": 2.7111408095,
				"element": "C" 
			},
			{
				"x": -0.556737398,
				"y": -0.6103819457,
				"z": 4.0411853855,
				"element": "C" 
			},
			{
				"x": 0.3690497493,
				"y": 0.6786473249,
				"z": 0.5311927413,
				"element": "P" 
			},
			{
				"x": -0.2774532199,
				"y": 0.6140310048,
				"z": -1.2531533127,
				"element": "C" 
			},
			{
				"x": -1.7174140521,
				"y": 1.181355354,
				"z": -1.3809874775,
				"element": "C" 
			},
			{
				"x": -1.984607986,
				"y": 1.7306959957,
				"z": -2.7910048343,
				"element": "C" 
			},
			{
				"x": -1.0822456484,
				"y": 2.9471705904,
				"z": -3.0996067996,
				"element": "C" 
			},
			{
				"x": 0.2801006688,
				"y": 2.8470619927,
				"z": -2.3746486513,
				"element": "C" 
			},
			{
				"x": 0.7031454502,
				"y": 1.3839910536,
				"z": -2.1883539427,
				"element": "C" 
			},
			{
				"x": 1.9267521268,
				"y": -0.3170132918,
				"z": 0.3103343691,
				"element": "C" 
			},
			{
				"x": 3.1434369674,
				"y": 0.2691054304,
				"z": 0.6926621609,
				"element": "C" 
			},
			{
				"x": 4.353157727,
				"y": -0.4151192964,
				"z": 0.5442122756,
				"element": "C" 
			},
			{
				"x": 4.3645048175,
				"y": -1.7036430426,
				"z": 0.0110405584,
				"element": "C" 
			},
			{
				"x": 3.1621669434,
				"y": -2.3039059797,
				"z": -0.3730335742,
				"element": "C" 
			},
			{
				"x": 1.9578325781,
				"y": -1.6163478639,
				"z": -0.2251957,
				"element": "C" 
			},
			{
				"x": 0.0434354415,
				"y": 1.4131692727,
				"z": 3.6289842793,
				"element": "H" 
			},
			{
				"x": -1.1595266379,
				"y": 1.2969758653,
				"z": 4.9038614905,
				"element": "H" 
			},
			{
				"x": -1.7952959543,
				"y": 2.0886869173,
				"z": 2.3710268609,
				"element": "H" 
			},
			{
				"x": -2.9552054297,
				"y": 1.2465124114,
				"z": 3.3838470652,
				"element": "H" 
			},
			{
				"x": -2.674592278,
				"y": -0.8272631669,
				"z": 2.2902304689,
				"element": "H" 
			},
			{
				"x": -2.6599554448,
				"y": 0.3304534489,
				"z": 0.985054632,
				"element": "H" 
			},
			{
				"x": -0.9030538718,
				"y": -1.4190258234,
				"z": 0.7437510613,
				"element": "H" 
			},
			{
				"x": -0.0759722323,
				"y": -2.2527999502,
				"z": 2.7066129059,
				"element": "H" 
			},
			{
				"x": 1.07380825,
				"y": -0.9412721638,
				"z": 2.6671917116,
				"element": "H" 
			},
			{
				"x": 0.1692393226,
				"y": -0.7953079047,
				"z": 4.8413957243,
				"element": "H" 
			},
			{
				"x": -1.4674873029,
				"y": -1.1535046752,
				"z": 4.3259812422,
				"element": "H" 
			},
			{
				"x": -0.2948600659,
				"y": -0.4377888376,
				"z": -1.5671002272,
				"element": "H" 
			},
			{
				"x": -1.8771677696,
				"y": 1.9895850589,
				"z": -0.6540892383,
				"element": "H" 
			},
			{
				"x": -2.4461845165,
				"y": 0.4008949358,
				"z": -1.140650453,
				"element": "H" 
			},
			{
				"x": -3.0409091396,
				"y": 2.0031375774,
				"z": -2.8971954064,
				"element": "H" 
			},
			{
				"x": -1.8017901794,
				"y": 0.9323186264,
				"z": -3.5218922627,
				"element": "H" 
			},
			{
				"x": -1.5883549923,
				"y": 3.8729334706,
				"z": -2.8005541233,
				"element": "H" 
			},
			{
				"x": -0.9271681238,
				"y": 3.0185352357,
				"z": -4.1829497072,
				"element": "H" 
			},
			{
				"x": 0.2170406219,
				"y": 3.322453663,
				"z": -1.3879446274,
				"element": "H" 
			},
			{
				"x": 1.0474013663,
				"y": 3.3979279652,
				"z": -2.9300765696,
				"element": "H" 
			},
			{
				"x": 0.7221763237,
				"y": 0.8893616676,
				"z": -3.1685698678,
				"element": "H" 
			},
			{
				"x": 1.7280978544,
				"y": 1.3270038696,
				"z": -1.8086644661,
				"element": "H" 
			},
			{
				"x": 3.1391566631,
				"y": 1.2722031553,
				"z": 1.1110044622,
				"element": "H" 
			},
			{
				"x": 5.2832021524,
				"y": 0.0587772684,
				"z": 0.8459919797,
				"element": "H" 
			},
			{
				"x": 5.3026035857,
				"y": -2.239242329,
				"z": -0.1049740629,
				"element": "H" 
			},
			{
				"x": 3.1642932716,
				"y": -3.3083754986,
				"z": -0.7879534429,
				"element": "H" 
			},
			{
				"x": 1.0338787325,
				"y": -2.1017636219,
				"z": -0.5285440394,
				"element": "H" 
			}
		],
		 "valence_orbital": [ 
			{
				"type": "occ",
				"energy": -0.28648,
				"method": "rhf"
			},
			{
				"type": "occ",
				"energy": -0.2709,
				"method": "rhf"
			},
			{
				"type": "occ",
				"energy": -0.24974,
				"method": "rhf"
			},
			{
				"type": "occ",
				"energy": -0.24487,
				"method": "rhf"
			},
			{
				"type": "occ",
				"energy": -0.21391,
				"method": "rhf"
			},
			{
				"type": "unocc",
				"energy": -0.01356,
				"method": "rhf"
			},
			{
				"type": "unocc",
				"energy": -0.0021,
				"method": "rhf"
			},
			{
				"type": "unocc",
				"energy": 0.05249,
				"method": "rhf"
			},
			{
				"type": "unocc",
				"energy": 0.06328,
				"method": "rhf"
			},
			{
				"type": "unocc",
				"energy": 0.07337,
				"method": "rhf"
			}
		],
		"cosmo_sigma_profile": { 
			"-0.025": 0.0,
			"-0.024": 0.0,
			"-0.023": 0.0,
			"-0.022": 0.0,
			"-0.021": 0.0,
			"-0.02": 0.0,
			"-0.019": 0.0,
			"-0.018": 0.0,
			"-0.017": 0.0,
			"-0.016": 0.0,
			"-0.015": 0.0,
			"-0.014": 0.0,
			"-0.013": 0.0,
			"-0.012": 0.0,
			"-0.011": 0.0,
			"-0.01": 0.0,
			"-0.009": 0.0,
			"-0.008": 0.0,
			"-0.007": 0.00501343810587,
			"-0.006": 3.15868154269,
			"-0.005": 11.4082598019,
			"-0.004": 11.5939782952,
			"-0.003": 17.9667767844,
			"-0.002": 43.6032123373,
			"-0.001": 61.5803353729,
			"0.0": 65.2606453287,
			"0.001": 52.8255055114,
			"0.002": 26.9962645592,
			"0.003": 12.5542693362,
			"0.004": 9.83858744084,
			"0.005": 9.44297911562,
			"0.006": 6.88837382685,
			"0.007": 0.766782014829,
			"0.008": 1.21829811458,
			"0.009": 0.269348384478,
			"0.01": 0.350356867585,
			"0.011": 0.752509656668,
			"0.012": 0.705394703056,
			"0.013": 0.389232010675,
			"0.014": 0.393339274349,
			"0.015": 0.2669653225,
			"0.016": 0.189184302023,
			"0.017": 0.0,
			"0.018": 0.0,
			"0.019": 0.0,
			"0.02": 0.0,
			"0.021": 0.0,
			"0.022": 0.0,
			"0.023": 0.0,
			"0.024": 0.0,
			"0.025": 0.0
		}
	}
}
