{
	 "smiles": "CC(=O)O[C@H]1CCC2C3CC[C@H]4CC(=CC[C@]4(C)C3CC[C@]12C)C(C)=O", 
	 "Tm": 401.15, 
	 "num_atms": 60, 
	 "gaussian": { 
		 "optdone": 1, 
		 "sigma_profile": "yes", 
		 "theory": "DFT", 
		 "functional": "B3LYP", 
		 "basiset": "6-31G**", 
		 "properties": { 
			 "R2extent": 13954.1974, 
			 "electric_dipole_moment_norm": 3.51843625067, 
			 "electric_quadrupole_moment_norm": 24.5604056276, 
			 "total_energy": -1122.65292846, 
			 "HOMO_LUMO_gap": 0.19619, 
			 "cosmo_polarized_energy": -13.73, 
			 "cosmo_cavitation_energy": 53.25, 
			 "cosmo_dispersion_energy": -36.44, 
			 "cosmo_repulsion_energy": 2.7, 
			 "cosmo_total_nonelectrostatic_energy": 19.51, 
			 "SMD_solvation_energy": 9.28 
		},
		"coords": [
			{
				"x": -6.0881428594,
				"y": 3.4673561802,
				"z": -2.3386558653,
				"element": "C" 
			},
			{
				"x": -4.6536723314,
				"y": 3.4734768709,
				"z": -2.8156954733,
				"element": "C" 
			},
			{
				"x": -4.2314190863,
				"y": 4.1166533169,
				"z": -3.7524295617,
				"element": "O" 
			},
			{
				"x": -3.8936311742,
				"y": 2.6519673612,
				"z": -2.0554198469,
				"element": "O" 
			},
			{
				"x": -2.4855935339,
				"y": 2.5416836208,
				"z": -2.4098632257,
				"element": "C" 
			},
			{
				"x": -1.6864599933,
				"y": 3.649243453,
				"z": -1.6972730158,
				"element": "C" 
			},
			{
				"x": -1.1771551488,
				"y": 3.0288832685,
				"z": -0.3673682827,
				"element": "C" 
			},
			{
				"x": -1.7086470391,
				"y": 1.5675684045,
				"z": -0.3372861936,
				"element": "C" 
			},
			{
				"x": -0.8380435356,
				"y": 0.5435872799,
				"z": 0.4289255928,
				"element": "C" 
			},
			{
				"x": -0.5909067263,
				"y": 0.9970616421,
				"z": 1.8782947324,
				"element": "C" 
			},
			{
				"x": 0.2732276053,
				"y": 0.0021505343,
				"z": 2.6577779055,
				"element": "C" 
			},
			{
				"x": 1.5953031395,
				"y": -0.2823729223,
				"z": 1.930846873,
				"element": "C" 
			},
			{
				"x": 2.5084512536,
				"y": -1.1986626824,
				"z": 2.7653011765,
				"element": "C" 
			},
			{
				"x": 3.7546099521,
				"y": -1.6222921489,
				"z": 2.020225489,
				"element": "C" 
			},
			{
				"x": 3.855006038,
				"y": -1.4633055829,
				"z": 0.6888740394,
				"element": "C" 
			},
			{
				"x": 2.7826336317,
				"y": -0.8854568388,
				"z": -0.1877289503,
				"element": "C" 
			},
			{
				"x": 1.3832147795,
				"y": -0.8084301678,
				"z": 0.4779636371,
				"element": "C" 
			},
			{
				"x": 0.7681421113,
				"y": -2.226594471,
				"z": 0.4817696398,
				"element": "C" 
			},
			{
				"x": 0.4908605331,
				"y": 0.2202123273,
				"z": -0.3001469069,
				"element": "C" 
			},
			{
				"x": 0.212174998,
				"y": -0.1767636413,
				"z": -1.764626943,
				"element": "C" 
			},
			{
				"x": -0.5995137811,
				"y": 0.8900693354,
				"z": -2.5140166167,
				"element": "C" 
			},
			{
				"x": -1.9549097804,
				"y": 1.2101985555,
				"z": -1.8322430688,
				"element": "C" 
			},
			{
				"x": -2.9416237714,
				"y": 0.0496656145,
				"z": -2.029931359,
				"element": "C" 
			},
			{
				"x": 4.9158044154,
				"y": -2.2423450197,
				"z": 2.7437085036,
				"element": "C" 
			},
			{
				"x": 4.7978089602,
				"y": -2.4456260377,
				"z": 4.2461644868,
				"element": "C" 
			},
			{
				"x": 5.93413571,
				"y": -2.5790145345,
				"z": 2.1557604711,
				"element": "O" 
			},
			{
				"x": -6.6711724297,
				"y": 4.1695938055,
				"z": -2.9336739378,
				"element": "H" 
			},
			{
				"x": -6.5094310564,
				"y": 2.4619023438,
				"z": -2.4340820549,
				"element": "H" 
			},
			{
				"x": -6.1361548144,
				"y": 3.7411606415,
				"z": -1.2807478684,
				"element": "H" 
			},
			{
				"x": -2.4138674145,
				"y": 2.5994702693,
				"z": -3.498631461,
				"element": "H" 
			},
			{
				"x": -0.8555939709,
				"y": 3.9750788074,
				"z": -2.3301460324,
				"element": "H" 
			},
			{
				"x": -2.3177242896,
				"y": 4.5272874226,
				"z": -1.5438705099,
				"element": "H" 
			},
			{
				"x": -1.5253624508,
				"y": 3.5925891573,
				"z": 0.5025522987,
				"element": "H" 
			},
			{
				"x": -0.0832663031,
				"y": 3.0547431013,
				"z": -0.3323729111,
				"element": "H" 
			},
			{
				"x": -2.6909159954,
				"y": 1.5873658232,
				"z": 0.1542629955,
				"element": "H" 
			},
			{
				"x": -1.4210972023,
				"y": -0.3884936764,
				"z": 0.4741549594,
				"element": "H" 
			},
			{
				"x": -1.551709959,
				"y": 1.1501807588,
				"z": 2.3866444402,
				"element": "H" 
			},
			{
				"x": -0.0863028594,
				"y": 1.9725747195,
				"z": 1.871822849,
				"element": "H" 
			},
			{
				"x": 0.4862944326,
				"y": 0.3946665869,
				"z": 3.6606089868,
				"element": "H" 
			},
			{
				"x": -0.2785692372,
				"y": -0.9351772566,
				"z": 2.8101990947,
				"element": "H" 
			},
			{
				"x": 2.1214693658,
				"y": 0.6803823542,
				"z": 1.8284582876,
				"element": "H" 
			},
			{
				"x": 1.9468566139,
				"y": -2.0848263751,
				"z": 3.0983312123,
				"element": "H" 
			},
			{
				"x": 2.7791816276,
				"y": -0.6683444164,
				"z": 3.6873346968,
				"element": "H" 
			},
			{
				"x": 4.7853268591,
				"y": -1.7737853804,
				"z": 0.2174764147,
				"element": "H" 
			},
			{
				"x": 2.7354175686,
				"y": -1.4716801941,
				"z": -1.1145793544,
				"element": "H" 
			},
			{
				"x": 3.10240301,
				"y": 0.1209882992,
				"z": -0.5035109755,
				"element": "H" 
			},
			{
				"x": 1.4207188802,
				"y": -2.9340789431,
				"z": 1.0008534758,
				"element": "H" 
			},
			{
				"x": 0.6433267046,
				"y": -2.6029207831,
				"z": -0.5374479327,
				"element": "H" 
			},
			{
				"x": -0.2110215194,
				"y": -2.2606252078,
				"z": 0.9670501201,
				"element": "H" 
			},
			{
				"x": 1.0793018884,
				"y": 1.1517250649,
				"z": -0.3276625348,
				"element": "H" 
			},
			{
				"x": -0.3271966482,
				"y": -1.1301432227,
				"z": -1.795318832,
				"element": "H" 
			},
			{
				"x": 1.1534666883,
				"y": -0.3425884471,
				"z": -2.3003750053,
				"element": "H" 
			},
			{
				"x": -0.7820831619,
				"y": 0.5634172533,
				"z": -3.5457047419,
				"element": "H" 
			},
			{
				"x": 0.007720316,
				"y": 1.8010346591,
				"z": -2.5874605907,
				"element": "H" 
			},
			{
				"x": -3.8959461847,
				"y": 0.2590081092,
				"z": -1.5420276617,
				"element": "H" 
			},
			{
				"x": -3.1381581821,
				"y": -0.1168714141,
				"z": -3.0955135259,
				"element": "H" 
			},
			{
				"x": -2.5510019125,
				"y": -0.885658776,
				"z": -1.6191898694,
				"element": "H" 
			},
			{
				"x": 3.8893004742,
				"y": -3.0005618883,
				"z": 4.5052814484,
				"element": "H" 
			},
			{
				"x": 4.7399449478,
				"y": -1.4806786888,
				"z": 4.7637455209,
				"element": "H" 
			},
			{
				"x": 5.6752918481,
				"y": -2.9881482246,
				"z": 4.5994117615,
				"element": "H" 
			}
		],
		 "valence_orbital": [ 
			{
				"type": "occ",
				"energy": -0.27691,
				"method": "rhf"
			},
			{
				"type": "occ",
				"energy": -0.27637,
				"method": "rhf"
			},
			{
				"type": "occ",
				"energy": -0.26652,
				"method": "rhf"
			},
			{
				"type": "occ",
				"energy": -0.24747,
				"method": "rhf"
			},
			{
				"type": "occ",
				"energy": -0.23778,
				"method": "rhf"
			},
			{
				"type": "unocc",
				"energy": -0.04159,
				"method": "rhf"
			},
			{
				"type": "unocc",
				"energy": 0.01528,
				"method": "rhf"
			},
			{
				"type": "unocc",
				"energy": 0.06703,
				"method": "rhf"
			},
			{
				"type": "unocc",
				"energy": 0.07171,
				"method": "rhf"
			},
			{
				"type": "unocc",
				"energy": 0.0725,
				"method": "rhf"
			}
		],
		"cosmo_sigma_profile": { 
			"-0.025": 0.0,
			"-0.024": 0.0,
			"-0.023": 0.0,
			"-0.022": 0.0,
			"-0.021": 0.0,
			"-0.02": 0.0,
			"-0.019": 0.0,
			"-0.018": 0.0,
			"-0.017": 0.0,
			"-0.016": 0.0,
			"-0.015": 0.0,
			"-0.014": 0.0,
			"-0.013": 0.0,
			"-0.012": 0.0,
			"-0.011": 0.0,
			"-0.01": 0.0,
			"-0.009": 0.0,
			"-0.008": 0.0,
			"-0.007": 0.350272320563,
			"-0.006": 5.83411361678,
			"-0.005": 13.1009474534,
			"-0.004": 20.3684755123,
			"-0.003": 46.9152520588,
			"-0.002": 77.0161856231,
			"-0.001": 73.0896483565,
			"0.0": 55.2384913277,
			"0.001": 37.5678718032,
			"0.002": 19.7487501437,
			"0.003": 8.57491590553,
			"0.004": 8.44340621677,
			"0.005": 4.80933580608,
			"0.006": 4.2235318461,
			"0.007": 5.39815589135,
			"0.008": 2.50919302102,
			"0.009": 2.292731692,
			"0.01": 4.28072564641,
			"0.011": 4.48034932043,
			"0.012": 8.56653520982,
			"0.013": 6.08705738753,
			"0.014": 1.22581282518,
			"0.015": 0.0166072608144,
			"0.016": 0.0,
			"0.017": 0.0,
			"0.018": 0.0,
			"0.019": 0.0,
			"0.02": 0.0,
			"0.021": 0.0,
			"0.022": 0.0,
			"0.023": 0.0,
			"0.024": 0.0,
			"0.025": 0.0
		}
	}
}
