{
	 "smiles": "CC1=CC2=C(S1)N=C(N)S2", 
	 "Tm": 391.15, 
	 "num_atms": 16, 
	 "gaussian": { 
		 "optdone": 1, 
		 "sigma_profile": "yes", 
		 "theory": "DFT", 
		 "functional": "B3LYP", 
		 "basiset": "6-31G**", 
		 "properties": { 
			 "R2extent": 3830.3079, 
			 "electric_dipole_moment_norm": 1.87428702978, 
			 "electric_quadrupole_moment_norm": 19.139221888, 
			 "total_energy": -1138.1235004, 
			 "HOMO_LUMO_gap": 0.17694, 
			 "cosmo_polarized_energy": -10.48, 
			 "cosmo_cavitation_energy": 23.27, 
			 "cosmo_dispersion_energy": -18.68, 
			 "cosmo_repulsion_energy": 1.42, 
			 "cosmo_total_nonelectrostatic_energy": 6.02, 
			 "SMD_solvation_energy": 1.43 
		},
		"coords": [
			{
				"x": 2.4992534792,
				"y": 2.0374316221,
				"z": -1.1584029308,
				"element": "C" 
			},
			{
				"x": 1.1224045354,
				"y": 1.5471798912,
				"z": -1.4923572332,
				"element": "C" 
			},
			{
				"x": 0.1858646485,
				"y": 1.0240351228,
				"z": -0.638673565,
				"element": "C" 
			},
			{
				"x": -1.0165769329,
				"y": 0.6739845775,
				"z": -1.317907576,
				"element": "C" 
			},
			{
				"x": -0.9934339791,
				"y": 0.9236805723,
				"z": -2.6764588052,
				"element": "C" 
			},
			{
				"x": 0.5354653326,
				"y": 1.6126664062,
				"z": -3.1578741475,
				"element": "S" 
			},
			{
				"x": -2.0891655802,
				"y": 0.5973189267,
				"z": -3.4302927103,
				"element": "N" 
			},
			{
				"x": -3.0018276126,
				"y": 0.0923724371,
				"z": -2.6496469277,
				"element": "C" 
			},
			{
				"x": -4.2606109678,
				"y": -0.2705592587,
				"z": -3.071827488,
				"element": "N" 
			},
			{
				"x": -2.5768252272,
				"y": -0.0196122261,
				"z": -0.9129333482,
				"element": "S" 
			},
			{
				"x": 3.2760290492,
				"y": 1.4813800772,
				"z": -1.6963497394,
				"element": "H" 
			},
			{
				"x": 2.6831745331,
				"y": 1.9154830306,
				"z": -0.0871362775,
				"element": "H" 
			},
			{
				"x": 2.6284662423,
				"y": 3.0987816603,
				"z": -1.40090755,
				"element": "H" 
			},
			{
				"x": 0.3606535215,
				"y": 0.9047015281,
				"z": 0.4242727551,
				"element": "H" 
			},
			{
				"x": -4.3336289662,
				"y": -0.3285607481,
				"z": -4.0796121787,
				"element": "H" 
			},
			{
				"x": -4.6964420757,
				"y": -1.0429836192,
				"z": -2.5876922779,
				"element": "H" 
			}
		],
		 "valence_orbital": [ 
			{
				"type": "occ",
				"energy": -0.29495,
				"method": "rhf"
			},
			{
				"type": "occ",
				"energy": -0.28788,
				"method": "rhf"
			},
			{
				"type": "occ",
				"energy": -0.28082,
				"method": "rhf"
			},
			{
				"type": "occ",
				"energy": -0.23141,
				"method": "rhf"
			},
			{
				"type": "occ",
				"energy": -0.19287,
				"method": "rhf"
			},
			{
				"type": "unocc",
				"energy": -0.01593,
				"method": "rhf"
			},
			{
				"type": "unocc",
				"energy": 0.00477,
				"method": "rhf"
			},
			{
				"type": "unocc",
				"energy": 0.03271,
				"method": "rhf"
			},
			{
				"type": "unocc",
				"energy": 0.03605,
				"method": "rhf"
			},
			{
				"type": "unocc",
				"energy": 0.06593,
				"method": "rhf"
			}
		],
		"cosmo_sigma_profile": { 
			"-0.025": 0.0,
			"-0.024": 0.0,
			"-0.023": 0.0,
			"-0.022": 0.0,
			"-0.021": 0.0,
			"-0.02": 0.0,
			"-0.019": 0.0,
			"-0.018": 0.0,
			"-0.017": 0.0,
			"-0.016": 0.0,
			"-0.015": 0.574774304436,
			"-0.014": 2.31840198918,
			"-0.013": 2.7426949706,
			"-0.012": 2.02049571781,
			"-0.011": 3.13025512058,
			"-0.01": 2.90213399942,
			"-0.009": 1.516031381,
			"-0.008": 1.81744135141,
			"-0.007": 3.28614505939,
			"-0.006": 4.34362106628,
			"-0.005": 9.23812388154,
			"-0.004": 10.0788643165,
			"-0.003": 12.2626738256,
			"-0.002": 11.3322225247,
			"-0.001": 13.0250928973,
			"0.0": 12.1335441872,
			"0.001": 13.2993078776,
			"0.002": 16.04346039,
			"0.003": 17.9535214874,
			"0.004": 20.4194090904,
			"0.005": 14.0807400571,
			"0.006": 3.72906315202,
			"0.007": 1.80022643461,
			"0.008": 2.09154079843,
			"0.009": 2.07869764637,
			"0.01": 1.80884261422,
			"0.011": 1.4700081758,
			"0.012": 1.09906051268,
			"0.013": 0.642340254975,
			"0.014": 1.07545246252,
			"0.015": 0.150501687001,
			"0.016": 0.0,
			"0.017": 0.0,
			"0.018": 0.0,
			"0.019": 0.0,
			"0.02": 0.0,
			"0.021": 0.0,
			"0.022": 0.0,
			"0.023": 0.0,
			"0.024": 0.0,
			"0.025": 0.0
		}
	}
}
