{
	 "smiles": "COC1=C(OC)C=C(C(C2=CC=C(C)O2)C2=CC=C(C)O2)C(=C1)N=C=S", 
	 "Tm": 364.15, 
	 "num_atms": 45, 
	 "gaussian": { 
		 "optdone": 1, 
		 "sigma_profile": "yes", 
		 "theory": "DFT", 
		 "functional": "B3LYP", 
		 "basiset": "6-31G**", 
		 "properties": { 
			 "R2extent": 10786.7107, 
			 "electric_dipole_moment_norm": 5.70836193492, 
			 "electric_quadrupole_moment_norm": 12.8169664515, 
			 "total_energy": -1527.3469293, 
			 "HOMO_LUMO_gap": 0.17074, 
			 "cosmo_polarized_energy": -12.77, 
			 "cosmo_cavitation_energy": 52.96, 
			 "cosmo_dispersion_energy": -33.97, 
			 "cosmo_repulsion_energy": 2.64, 
			 "cosmo_total_nonelectrostatic_energy": 21.63, 
			 "SMD_solvation_energy": 11.94 
		},
		"coords": [
			{
				"x": -3.2559303189,
				"y": -4.3494596969,
				"z": 0.9246814797,
				"element": "C" 
			},
			{
				"x": -1.9257818887,
				"y": -4.1275546526,
				"z": 1.4039691457,
				"element": "O" 
			},
			{
				"x": -1.2440775548,
				"y": -3.0853990784,
				"z": 0.832661324,
				"element": "C" 
			},
			{
				"x": -1.6213607187,
				"y": -1.7362757522,
				"z": 1.0419245492,
				"element": "C" 
			},
			{
				"x": -2.7309864184,
				"y": -1.5359196831,
				"z": 1.8074862462,
				"element": "O" 
			},
			{
				"x": -3.1234686052,
				"y": -0.1979379386,
				"z": 2.0818580445,
				"element": "C" 
			},
			{
				"x": -0.8548027188,
				"y": -0.7144527062,
				"z": 0.4816027074,
				"element": "C" 
			},
			{
				"x": 0.2939030681,
				"y": -0.984481535,
				"z": -0.2738705344,
				"element": "C" 
			},
			{
				"x": 1.1271501608,
				"y": 0.1525314509,
				"z": -0.8750942656,
				"element": "C" 
			},
			{
				"x": 0.3762287843,
				"y": 0.9330558972,
				"z": -1.9214272529,
				"element": "C" 
			},
			{
				"x": 0.5581293878,
				"y": 1.0686826799,
				"z": -3.2650661911,
				"element": "C" 
			},
			{
				"x": -0.4802739912,
				"y": 1.9413376542,
				"z": -3.7321908644,
				"element": "C" 
			},
			{
				"x": -1.2267211177,
				"y": 2.2797012988,
				"z": -2.6431690472,
				"element": "C" 
			},
			{
				"x": -2.4236902127,
				"y": 3.1405836054,
				"z": -2.4406119849,
				"element": "C" 
			},
			{
				"x": -0.7117880472,
				"y": 1.668135979,
				"z": -1.5280689164,
				"element": "O" 
			},
			{
				"x": 1.7692070573,
				"y": 1.0218121886,
				"z": 0.1736978339,
				"element": "C" 
			},
			{
				"x": 3.0719265423,
				"y": 1.2280079444,
				"z": 0.5159265084,
				"element": "C" 
			},
			{
				"x": 3.0659596673,
				"y": 2.1663691537,
				"z": 1.6009735647,
				"element": "C" 
			},
			{
				"x": 1.760639605,
				"y": 2.469923351,
				"z": 1.8490105327,
				"element": "C" 
			},
			{
				"x": 1.0770211239,
				"y": 3.3628638611,
				"z": 2.823754671,
				"element": "C" 
			},
			{
				"x": 0.9567262129,
				"y": 1.7751659799,
				"z": 0.9807493726,
				"element": "O" 
			},
			{
				"x": 0.6650692534,
				"y": -2.325308301,
				"z": -0.4620475257,
				"element": "C" 
			},
			{
				"x": -0.1098493387,
				"y": -3.3635737439,
				"z": 0.0864687745,
				"element": "C" 
			},
			{
				"x": 1.7977777087,
				"y": -2.6375506061,
				"z": -1.1994208637,
				"element": "N" 
			},
			{
				"x": 2.5666656927,
				"y": -3.4173035021,
				"z": -1.6805867487,
				"element": "C" 
			},
			{
				"x": 3.6468899815,
				"y": -4.36484848,
				"z": -2.3632240722,
				"element": "S" 
			},
			{
				"x": -3.9083218829,
				"y": -3.4991166382,
				"z": 1.1413483461,
				"element": "H" 
			},
			{
				"x": -3.2532943993,
				"y": -4.5460121878,
				"z": -0.1551715408,
				"element": "H" 
			},
			{
				"x": -3.6210079764,
				"y": -5.2342819248,
				"z": 1.449689701,
				"element": "H" 
			},
			{
				"x": -4.0059862949,
				"y": -0.2702916022,
				"z": 2.7189569883,
				"element": "H" 
			},
			{
				"x": -3.3807882594,
				"y": 0.3442590235,
				"z": 1.1634157522,
				"element": "H" 
			},
			{
				"x": -2.3352331162,
				"y": 0.3498616315,
				"z": 2.6124269579,
				"element": "H" 
			},
			{
				"x": -1.1321811399,
				"y": 0.3196084352,
				"z": 0.6319661493,
				"element": "H" 
			},
			{
				"x": 1.9604676831,
				"y": -0.3113715142,
				"z": -1.4093770714,
				"element": "H" 
			},
			{
				"x": 1.3366214498,
				"y": 0.6030009868,
				"z": -3.8526847607,
				"element": "H" 
			},
			{
				"x": -0.64802612,
				"y": 2.2741850052,
				"z": -4.7467354572,
				"element": "H" 
			},
			{
				"x": -2.7346236016,
				"y": 3.5718563148,
				"z": -3.3949838802,
				"element": "H" 
			},
			{
				"x": -3.2672869367,
				"y": 2.5706846982,
				"z": -2.0331701218,
				"element": "H" 
			},
			{
				"x": -2.2159375036,
				"y": 3.9623868057,
				"z": -1.7453298436,
				"element": "H" 
			},
			{
				"x": 3.9328192887,
				"y": 0.7665821964,
				"z": 0.0531799646,
				"element": "H" 
			},
			{
				"x": 3.9224537135,
				"y": 2.5634144521,
				"z": 2.1272522413,
				"element": "H" 
			},
			{
				"x": 0.3984239798,
				"y": 2.8026699861,
				"z": 3.4780819333,
				"element": "H" 
			},
			{
				"x": 1.8190723518,
				"y": 3.8614698639,
				"z": 3.4516361136,
				"element": "H" 
			},
			{
				"x": 0.483982283,
				"y": 4.133441716,
				"z": 2.3173313296,
				"element": "H" 
			},
			{
				"x": 0.1767831662,
				"y": -4.3991526165,
				"z": -0.058519289,
				"element": "H" 
			}
		],
		 "valence_orbital": [ 
			{
				"type": "occ",
				"energy": -0.25449,
				"method": "rhf"
			},
			{
				"type": "occ",
				"energy": -0.24474,
				"method": "rhf"
			},
			{
				"type": "occ",
				"energy": -0.21787,
				"method": "rhf"
			},
			{
				"type": "occ",
				"energy": -0.21151,
				"method": "rhf"
			},
			{
				"type": "occ",
				"energy": -0.20304,
				"method": "rhf"
			},
			{
				"type": "unocc",
				"energy": -0.0323,
				"method": "rhf"
			},
			{
				"type": "unocc",
				"energy": -0.01412,
				"method": "rhf"
			},
			{
				"type": "unocc",
				"energy": -0.01136,
				"method": "rhf"
			},
			{
				"type": "unocc",
				"energy": 0.00821,
				"method": "rhf"
			},
			{
				"type": "unocc",
				"energy": 0.03275,
				"method": "rhf"
			}
		],
		"cosmo_sigma_profile": { 
			"-0.025": 0.0,
			"-0.024": 0.0,
			"-0.023": 0.0,
			"-0.022": 0.0,
			"-0.021": 0.0,
			"-0.02": 0.0,
			"-0.019": 0.0,
			"-0.018": 0.0,
			"-0.017": 0.0,
			"-0.016": 0.0,
			"-0.015": 0.0,
			"-0.014": 0.0,
			"-0.013": 0.0,
			"-0.012": 0.0,
			"-0.011": 0.0,
			"-0.01": 0.0,
			"-0.009": 0.0,
			"-0.008": 0.440793794839,
			"-0.007": 4.45943827708,
			"-0.006": 17.488540262,
			"-0.005": 33.2775977202,
			"-0.004": 40.1163641024,
			"-0.003": 38.4680541135,
			"-0.002": 35.6870529291,
			"-0.001": 39.1468552465,
			"0.0": 34.4691497579,
			"0.001": 28.7539062195,
			"0.002": 31.390261939,
			"0.003": 33.4803476741,
			"0.004": 27.101364954,
			"0.005": 25.8800625805,
			"0.006": 20.0829451458,
			"0.007": 4.88653266306,
			"0.008": 2.83777555178,
			"0.009": 3.26823815571,
			"0.01": 2.90616772633,
			"0.011": 2.09622494673,
			"0.012": 0.303681847997,
			"0.013": 0.0,
			"0.014": 0.0,
			"0.015": 0.0,
			"0.016": 0.0,
			"0.017": 0.0,
			"0.018": 0.0,
			"0.019": 0.0,
			"0.02": 0.0,
			"0.021": 0.0,
			"0.022": 0.0,
			"0.023": 0.0,
			"0.024": 0.0,
			"0.025": 0.0
		}
	}
}
