{
	 "smiles": "NC(CS(=O)CC=C)C(O)=O", 
	 "Tm": 438.15, 
	 "num_atms": 22, 
	 "gaussian": { 
		 "optdone": 1, 
		 "sigma_profile": "yes", 
		 "theory": "DFT", 
		 "functional": "B3LYP", 
		 "basiset": "6-31G**", 
		 "properties": { 
			 "R2extent": 2280.5834, 
			 "electric_dipole_moment_norm": 2.89568646611, 
			 "electric_quadrupole_moment_norm": 17.9425076213, 
			 "total_energy": -913.818246441, 
			 "HOMO_LUMO_gap": 0.21756, 
			 "cosmo_polarized_energy": -18.73, 
			 "cosmo_cavitation_energy": 26.59, 
			 "cosmo_dispersion_energy": -19.07, 
			 "cosmo_repulsion_energy": 1.49, 
			 "cosmo_total_nonelectrostatic_energy": 9.02, 
			 "SMD_solvation_energy": 5.08 
		},
		"coords": [
			{
				"x": -1.2296488113,
				"y": -0.9276184149,
				"z": -1.5419311656,
				"element": "N" 
			},
			{
				"x": 0.0128002033,
				"y": -0.3442538992,
				"z": -1.0240306697,
				"element": "C" 
			},
			{
				"x": 0.2816325677,
				"y": -0.5511561481,
				"z": 0.4702862971,
				"element": "C" 
			},
			{
				"x": -0.6808647378,
				"y": 0.6859635548,
				"z": 1.4819620461,
				"element": "S" 
			},
			{
				"x": -1.7636700802,
				"y": 1.2320803599,
				"z": 0.5653247616,
				"element": "O" 
			},
			{
				"x": 0.656343749,
				"y": 2.0002179883,
				"z": 1.6263635965,
				"element": "C" 
			},
			{
				"x": 1.2179296763,
				"y": 2.4737156836,
				"z": 0.3272094327,
				"element": "C" 
			},
			{
				"x": 0.7419422186,
				"y": 3.5311154113,
				"z": -0.337055645,
				"element": "C" 
			},
			{
				"x": 1.2110007304,
				"y": -0.8221137371,
				"z": -1.870299695,
				"element": "C" 
			},
			{
				"x": 0.8472750009,
				"y": -1.3310330159,
				"z": -3.0507707981,
				"element": "O" 
			},
			{
				"x": 2.3635863748,
				"y": -0.6985503414,
				"z": -1.5170675887,
				"element": "O" 
			},
			{
				"x": -1.4146478225,
				"y": -1.8310319082,
				"z": -1.1100785425,
				"element": "H" 
			},
			{
				"x": -2.0011468611,
				"y": -0.3124757607,
				"z": -1.2924409038,
				"element": "H" 
			},
			{
				"x": -0.0605924925,
				"y": 0.7328115824,
				"z": -1.2134876286,
				"element": "H" 
			},
			{
				"x": 1.3461974082,
				"y": -0.4575983944,
				"z": 0.6960635036,
				"element": "H" 
			},
			{
				"x": -0.0564137177,
				"y": -1.5403933304,
				"z": 0.7954458737,
				"element": "H" 
			},
			{
				"x": 1.4086655009,
				"y": 1.5593186222,
				"z": 2.2895798237,
				"element": "H" 
			},
			{
				"x": 0.1427824368,
				"y": 2.8027332246,
				"z": 2.1635969318,
				"element": "H" 
			},
			{
				"x": 2.0245415796,
				"y": 1.883522384,
				"z": -0.1047894271,
				"element": "H" 
			},
			{
				"x": 1.1568294754,
				"y": 3.8305420934,
				"z": -1.2947420057,
				"element": "H" 
			},
			{
				"x": -0.0720417124,
				"y": 4.1343249317,
				"z": 0.0558200061,
				"element": "H" 
			},
			{
				"x": -0.1417006863,
				"y": -1.3090208858,
				"z": -3.0361582029,
				"element": "H" 
			}
		],
		 "valence_orbital": [ 
			{
				"type": "occ",
				"energy": -0.29995,
				"method": "rhf"
			},
			{
				"type": "occ",
				"energy": -0.28938,
				"method": "rhf"
			},
			{
				"type": "occ",
				"energy": -0.26919,
				"method": "rhf"
			},
			{
				"type": "occ",
				"energy": -0.2554,
				"method": "rhf"
			},
			{
				"type": "occ",
				"energy": -0.23666,
				"method": "rhf"
			},
			{
				"type": "unocc",
				"energy": -0.0191,
				"method": "rhf"
			},
			{
				"type": "unocc",
				"energy": 0.00868,
				"method": "rhf"
			},
			{
				"type": "unocc",
				"energy": 0.0262,
				"method": "rhf"
			},
			{
				"type": "unocc",
				"energy": 0.03967,
				"method": "rhf"
			},
			{
				"type": "unocc",
				"energy": 0.07152,
				"method": "rhf"
			}
		],
		"cosmo_sigma_profile": { 
			"-0.025": 0.0,
			"-0.024": 0.0,
			"-0.023": 0.0,
			"-0.022": 0.0,
			"-0.021": 0.0,
			"-0.02": 0.0,
			"-0.019": 0.0,
			"-0.018": 0.0,
			"-0.017": 0.0,
			"-0.016": 0.0,
			"-0.015": 0.0,
			"-0.014": 0.0,
			"-0.013": 0.0,
			"-0.012": 1.8183289628,
			"-0.011": 3.06367980352,
			"-0.01": 3.45539269291,
			"-0.009": 5.28341287773,
			"-0.008": 7.71021360929,
			"-0.007": 11.5907833686,
			"-0.006": 13.4450249952,
			"-0.005": 13.6881195628,
			"-0.004": 16.4279412418,
			"-0.003": 14.1899363189,
			"-0.002": 12.9118539229,
			"-0.001": 11.2324449841,
			"0.0": 9.13186082388,
			"0.001": 11.1739691242,
			"0.002": 8.69655822993,
			"0.003": 8.8377433025,
			"0.004": 5.53372734492,
			"0.005": 6.20258893545,
			"0.006": 4.27485385382,
			"0.007": 4.47396546751,
			"0.008": 5.32138659126,
			"0.009": 4.61750847181,
			"0.01": 6.08174633847,
			"0.011": 5.58655106907,
			"0.012": 5.98171181802,
			"0.013": 4.0210902118,
			"0.014": 2.69353776216,
			"0.015": 2.13169583623,
			"0.016": 0.636326835251,
			"0.017": 0.0,
			"0.018": 0.0,
			"0.019": 0.0,
			"0.02": 0.0,
			"0.021": 0.0,
			"0.022": 0.0,
			"0.023": 0.0,
			"0.024": 0.0,
			"0.025": 0.0
		}
	}
}
