{
	 "smiles": "O=C(C1=CC=CC=C1)C1=CC2=C(OCCCO2)C=C1", 
	 "Tm": 346.65, 
	 "num_atms": 33, 
	 "gaussian": { 
		 "optdone": 1, 
		 "sigma_profile": "yes", 
		 "theory": "DFT", 
		 "functional": "B3LYP", 
		 "basiset": "6-31G**", 
		 "properties": { 
			 "R2extent": 6572.3174, 
			 "electric_dipole_moment_norm": 4.51674119803, 
			 "electric_quadrupole_moment_norm": 11.0245343874, 
			 "total_energy": -843.792230817, 
			 "HOMO_LUMO_gap": 0.16262, 
			 "cosmo_polarized_energy": -11.81, 
			 "cosmo_cavitation_energy": 36.03, 
			 "cosmo_dispersion_energy": -26.56, 
			 "cosmo_repulsion_energy": 2.03, 
			 "cosmo_total_nonelectrostatic_energy": 11.51, 
			 "SMD_solvation_energy": 6.53 
		},
		"coords": [
			{
				"x": 3.0254924633,
				"y": -1.1274225702,
				"z": -1.1300266642,
				"element": "O" 
			},
			{
				"x": 2.3823903877,
				"y": -0.6559515074,
				"z": -0.1965424679,
				"element": "C" 
			},
			{
				"x": 3.0959051622,
				"y": -0.2606849127,
				"z": 1.0650019861,
				"element": "C" 
			},
			{
				"x": 4.2868030677,
				"y": -0.936037916,
				"z": 1.3777402958,
				"element": "C" 
			},
			{
				"x": 5.0222040312,
				"y": -0.5870166095,
				"z": 2.506424147,
				"element": "C" 
			},
			{
				"x": 4.5915519275,
				"y": 0.4617208414,
				"z": 3.3251695041,
				"element": "C" 
			},
			{
				"x": 3.4241327215,
				"y": 1.1576986708,
				"z": 3.008307282,
				"element": "C" 
			},
			{
				"x": 2.6753504343,
				"y": 0.7960912983,
				"z": 1.8872787152,
				"element": "C" 
			},
			{
				"x": 0.9022295118,
				"y": -0.4804594898,
				"z": -0.3259445212,
				"element": "C" 
			},
			{
				"x": 0.0291718374,
				"y": -0.4948533989,
				"z": 0.7705150459,
				"element": "C" 
			},
			{
				"x": -1.3516555866,
				"y": -0.3961235988,
				"z": 0.5983680014,
				"element": "C" 
			},
			{
				"x": -1.8795596996,
				"y": -0.2462401018,
				"z": -0.7022333948,
				"element": "C" 
			},
			{
				"x": -3.2142724661,
				"y": -0.1067839423,
				"z": -0.9776578049,
				"element": "O" 
			},
			{
				"x": -4.0041567861,
				"y": 0.6172968077,
				"z": -0.0208407042,
				"element": "C" 
			},
			{
				"x": -4.4945112164,
				"y": -0.2809828442,
				"z": 1.1145249645,
				"element": "C" 
			},
			{
				"x": -3.358989131,
				"y": -1.1698233129,
				"z": 1.6281099759,
				"element": "C" 
			},
			{
				"x": -2.1264488142,
				"y": -0.4429141364,
				"z": 1.7359326202,
				"element": "O" 
			},
			{
				"x": -1.0082742137,
				"y": -0.2656997269,
				"z": -1.7993835355,
				"element": "C" 
			},
			{
				"x": 0.3604518597,
				"y": -0.3975977119,
				"z": -1.619724783,
				"element": "C" 
			},
			{
				"x": 4.6168105453,
				"y": -1.7304995772,
				"z": 0.7166551362,
				"element": "H" 
			},
			{
				"x": 5.9344214944,
				"y": -1.1254914288,
				"z": 2.7469026213,
				"element": "H" 
			},
			{
				"x": 5.1686119755,
				"y": 0.7390470678,
				"z": 4.2028761142,
				"element": "H" 
			},
			{
				"x": 3.0966345729,
				"y": 1.9849437226,
				"z": 3.6313793284,
				"element": "H" 
			},
			{
				"x": 1.778181034,
				"y": 1.352345237,
				"z": 1.6376377645,
				"element": "H" 
			},
			{
				"x": 0.3954736634,
				"y": -0.6244005647,
				"z": 1.7824892426,
				"element": "H" 
			},
			{
				"x": -3.415981814,
				"y": 1.452205764,
				"z": 0.3757789687,
				"element": "H" 
			},
			{
				"x": -4.8432816293,
				"y": 1.0298878672,
				"z": -0.5872188793,
				"element": "H" 
			},
			{
				"x": -4.8826364729,
				"y": 0.3571461944,
				"z": 1.917247299,
				"element": "H" 
			},
			{
				"x": -5.3186007056,
				"y": -0.9201139844,
				"z": 0.7766918657,
				"element": "H" 
			},
			{
				"x": -3.2154881987,
				"y": -2.0328629798,
				"z": 0.9679065991,
				"element": "H" 
			},
			{
				"x": -3.5744998719,
				"y": -1.543661248,
				"z": 2.6329003095,
				"element": "H" 
			},
			{
				"x": -1.4424406345,
				"y": -0.161344731,
				"z": -2.7885253443,
				"element": "H" 
			},
			{
				"x": 1.034980551,
				"y": -0.4234171777,
				"z": -2.4681396879,
				"element": "H" 
			}
		],
		 "valence_orbital": [ 
			{
				"type": "occ",
				"energy": -0.25613,
				"method": "rhf"
			},
			{
				"type": "occ",
				"energy": -0.25513,
				"method": "rhf"
			},
			{
				"type": "occ",
				"energy": -0.24473,
				"method": "rhf"
			},
			{
				"type": "occ",
				"energy": -0.23941,
				"method": "rhf"
			},
			{
				"type": "occ",
				"energy": -0.21903,
				"method": "rhf"
			},
			{
				"type": "unocc",
				"energy": -0.05641,
				"method": "rhf"
			},
			{
				"type": "unocc",
				"energy": -0.01028,
				"method": "rhf"
			},
			{
				"type": "unocc",
				"energy": -0.00273,
				"method": "rhf"
			},
			{
				"type": "unocc",
				"energy": 0.00219,
				"method": "rhf"
			},
			{
				"type": "unocc",
				"energy": 0.064,
				"method": "rhf"
			}
		],
		"cosmo_sigma_profile": { 
			"-0.025": 0.0,
			"-0.024": 0.0,
			"-0.023": 0.0,
			"-0.022": 0.0,
			"-0.021": 0.0,
			"-0.02": 0.0,
			"-0.019": 0.0,
			"-0.018": 0.0,
			"-0.017": 0.0,
			"-0.016": 0.0,
			"-0.015": 0.0,
			"-0.014": 0.0,
			"-0.013": 0.0,
			"-0.012": 0.0,
			"-0.011": 0.0,
			"-0.01": 0.0,
			"-0.009": 0.0,
			"-0.008": 0.0,
			"-0.007": 1.31650455473,
			"-0.006": 14.3480019713,
			"-0.005": 29.219219683,
			"-0.004": 36.1552658754,
			"-0.003": 27.312173172,
			"-0.002": 22.9897292427,
			"-0.001": 18.6942464146,
			"0.0": 17.0777015003,
			"0.001": 16.5553734807,
			"0.002": 22.3588111873,
			"0.003": 20.4602589738,
			"0.004": 21.9167058075,
			"0.005": 8.98917687947,
			"0.006": 4.63632609013,
			"0.007": 3.87062455574,
			"0.008": 3.03821659145,
			"0.009": 4.51331616902,
			"0.01": 4.27394740839,
			"0.011": 3.83354233478,
			"0.012": 4.13227370346,
			"0.013": 1.6974093552,
			"0.014": 0.0,
			"0.015": 0.0,
			"0.016": 0.0,
			"0.017": 0.0,
			"0.018": 0.0,
			"0.019": 0.0,
			"0.02": 0.0,
			"0.021": 0.0,
			"0.022": 0.0,
			"0.023": 0.0,
			"0.024": 0.0,
			"0.025": 0.0
		}
	}
}
