{
	 "smiles": "OC1=C(Br)C=C(Br)C=C1Br", 
	 "Tm": 368.65, 
	 "num_atms": 13, 
	 "gaussian": { 
		 "optdone": 1, 
		 "sigma_profile": "yes", 
		 "theory": "DFT", 
		 "functional": "B3LYP", 
		 "basiset": "6-31G**", 
		 "properties": { 
			 "R2extent": 6045.6596, 
			 "electric_dipole_moment_norm": 1.46865869759, 
			 "electric_quadrupole_moment_norm": 8.08929095719, 
			 "total_energy": -8019.87400868, 
			 "HOMO_LUMO_gap": 0.19432, 
			 "cosmo_polarized_energy": -6.13, 
			 "cosmo_cavitation_energy": 24.44, 
			 "cosmo_dispersion_energy": -19.56, 
			 "cosmo_repulsion_energy": 1.59, 
			 "cosmo_total_nonelectrostatic_energy": 6.47, 
			 "SMD_solvation_energy": 1.23 
		},
		"coords": [
			{
				"x": 2.2055659346,
				"y": -0.1695714883,
				"z": -0.8186781735,
				"element": "O" 
			},
			{
				"x": 1.4312373133,
				"y": 0.3963844069,
				"z": 0.1273238764,
				"element": "C" 
			},
			{
				"x": 0.0618100162,
				"y": 0.0821261966,
				"z": 0.1716903776,
				"element": "C" 
			},
			{
				"x": -0.6509841015,
				"y": -1.1310415124,
				"z": -1.1051157737,
				"element": "Br" 
			},
			{
				"x": -0.7811786765,
				"y": 0.6391794914,
				"z": 1.1285578291,
				"element": "C" 
			},
			{
				"x": -0.2595581755,
				"y": 1.5290302178,
				"z": 2.0655408189,
				"element": "C" 
			},
			{
				"x": -1.4111965277,
				"y": 2.294540116,
				"z": 3.3786154035,
				"element": "Br" 
			},
			{
				"x": 1.0902663107,
				"y": 1.8679904915,
				"z": 2.0578940311,
				"element": "C" 
			},
			{
				"x": 1.9123807825,
				"y": 1.2978751244,
				"z": 1.0914221485,
				"element": "C" 
			},
			{
				"x": 3.7742426751,
				"y": 1.743480411,
				"z": 1.053620866,
				"element": "Br" 
			},
			{
				"x": 3.1156560357,
				"y": 0.1517050165,
				"z": -0.7086585555,
				"element": "H" 
			},
			{
				"x": -1.8314598659,
				"y": 0.3781158865,
				"z": 1.1378450807,
				"element": "H" 
			},
			{
				"x": 1.4967182792,
				"y": 2.5588856421,
				"z": 2.784942071,
				"element": "H" 
			}
		],
		 "valence_orbital": [ 
			{
				"type": "occ",
				"energy": -0.3003,
				"method": "rhf"
			},
			{
				"type": "occ",
				"energy": -0.29462,
				"method": "rhf"
			},
			{
				"type": "occ",
				"energy": -0.29282,
				"method": "rhf"
			},
			{
				"type": "occ",
				"energy": -0.26038,
				"method": "rhf"
			},
			{
				"type": "occ",
				"energy": -0.2374,
				"method": "rhf"
			},
			{
				"type": "unocc",
				"energy": -0.04308,
				"method": "rhf"
			},
			{
				"type": "unocc",
				"energy": -0.03929,
				"method": "rhf"
			},
			{
				"type": "unocc",
				"energy": -0.02285,
				"method": "rhf"
			},
			{
				"type": "unocc",
				"energy": 0.01035,
				"method": "rhf"
			},
			{
				"type": "unocc",
				"energy": 0.01891,
				"method": "rhf"
			}
		],
		"cosmo_sigma_profile": { 
			"-0.025": 0.0,
			"-0.024": 0.0,
			"-0.023": 0.0,
			"-0.022": 0.0,
			"-0.021": 0.0,
			"-0.02": 0.0,
			"-0.019": 0.0,
			"-0.018": 0.0,
			"-0.017": 0.0,
			"-0.016": 0.132305265108,
			"-0.015": 0.54899277278,
			"-0.014": 0.736402814622,
			"-0.013": 0.242936824074,
			"-0.012": 0.774571941984,
			"-0.011": 1.31431429178,
			"-0.01": 0.811222575153,
			"-0.009": 1.57984355714,
			"-0.008": 3.94080524042,
			"-0.007": 3.92767730708,
			"-0.006": 5.46536219576,
			"-0.005": 8.01259371177,
			"-0.004": 10.8758062553,
			"-0.003": 8.44438224766,
			"-0.002": 12.1960065622,
			"-0.001": 18.633714896,
			"0.0": 24.5497705843,
			"0.001": 30.0129270844,
			"0.002": 18.8954233748,
			"0.003": 21.4441728449,
			"0.004": 20.3688791628,
			"0.005": 4.24317711448,
			"0.006": 2.17194471282,
			"0.007": 2.30182578788,
			"0.008": 1.92014491359,
			"0.009": 2.13531919312,
			"0.01": 1.16420520608,
			"0.011": 0.0,
			"0.012": 0.0,
			"0.013": 0.0,
			"0.014": 0.0,
			"0.015": 0.0,
			"0.016": 0.0,
			"0.017": 0.0,
			"0.018": 0.0,
			"0.019": 0.0,
			"0.02": 0.0,
			"0.021": 0.0,
			"0.022": 0.0,
			"0.023": 0.0,
			"0.024": 0.0,
			"0.025": 0.0
		}
	}
}
