{
	 "smiles": "CCOC1=C(OC)C(=CC(=C1)C(O)=O)C1=CC=CC=C1", 
	 "Tm": 435.15, 
	 "num_atms": 36, 
	 "gaussian": { 
		 "optdone": 1, 
		 "sigma_profile": "yes", 
		 "theory": "DFT", 
		 "functional": "B3LYP", 
		 "basiset": "6-31G**", 
		 "properties": { 
			 "R2extent": 6776.6944, 
			 "electric_dipole_moment_norm": 5.5702345965, 
			 "electric_quadrupole_moment_norm": 24.6721479825, 
			 "total_energy": -920.231984447, 
			 "HOMO_LUMO_gap": 0.18439, 
			 "cosmo_polarized_energy": -16.22, 
			 "cosmo_cavitation_energy": 40.07, 
			 "cosmo_dispersion_energy": -27.56, 
			 "cosmo_repulsion_energy": 2.15, 
			 "cosmo_total_nonelectrostatic_energy": 14.66, 
			 "SMD_solvation_energy": 8.82 
		},
		"coords": [
			{
				"x": 0.1603528289,
				"y": 3.9070933282,
				"z": -3.4689363867,
				"element": "C" 
			},
			{
				"x": 0.6662464332,
				"y": 2.627302332,
				"z": -2.8300932083,
				"element": "C" 
			},
			{
				"x": -0.4754573747,
				"y": 1.7714966838,
				"z": -2.6023137981,
				"element": "O" 
			},
			{
				"x": -0.1986944336,
				"y": 0.5496743957,
				"z": -2.0388494099,
				"element": "C" 
			},
			{
				"x": 0.1893431398,
				"y": 0.4429315842,
				"z": -0.6883758263,
				"element": "C" 
			},
			{
				"x": 0.3325692556,
				"y": 1.5847792587,
				"z": 0.0621643759,
				"element": "O" 
			},
			{
				"x": -0.9009818848,
				"y": 2.1990239894,
				"z": 0.464576896,
				"element": "C" 
			},
			{
				"x": 0.4544744767,
				"y": -0.8204861617,
				"z": -0.1176431694,
				"element": "C" 
			},
			{
				"x": 0.3047267654,
				"y": -1.9539754387,
				"z": -0.929553262,
				"element": "C" 
			},
			{
				"x": -0.1212520109,
				"y": -1.8591950566,
				"z": -2.2567485441,
				"element": "C" 
			},
			{
				"x": -0.3570016784,
				"y": -0.5958637461,
				"z": -2.8144825451,
				"element": "C" 
			},
			{
				"x": -0.258031763,
				"y": -3.1305562062,
				"z": -3.0375896521,
				"element": "C" 
			},
			{
				"x": -1.0314366474,
				"y": -3.0777169898,
				"z": -4.1566535933,
				"element": "O" 
			},
			{
				"x": 0.2715999741,
				"y": -4.1696323071,
				"z": -2.720019154,
				"element": "O" 
			},
			{
				"x": 0.8596306612,
				"y": -0.9795160969,
				"z": 1.3058831403,
				"element": "C" 
			},
			{
				"x": 0.301561483,
				"y": -2.0134711883,
				"z": 2.0770391356,
				"element": "C" 
			},
			{
				"x": 0.6897762767,
				"y": -2.2091681239,
				"z": 3.4018843136,
				"element": "C" 
			},
			{
				"x": 1.6464051216,
				"y": -1.3749091511,
				"z": 3.9818797602,
				"element": "C" 
			},
			{
				"x": 2.2085482866,
				"y": -0.3435111617,
				"z": 3.2267494378,
				"element": "C" 
			},
			{
				"x": 1.818991926,
				"y": -0.1438894201,
				"z": 1.9032828484,
				"element": "C" 
			},
			{
				"x": -0.5379574327,
				"y": 4.4237110597,
				"z": -2.8040249981,
				"element": "H" 
			},
			{
				"x": 0.9991992242,
				"y": 4.578630905,
				"z": -3.6767764635,
				"element": "H" 
			},
			{
				"x": -0.3546784137,
				"y": 3.6940717308,
				"z": -4.4100524994,
				"element": "H" 
			},
			{
				"x": 1.3712288303,
				"y": 2.1078938978,
				"z": -3.493395276,
				"element": "H" 
			},
			{
				"x": 1.1704383743,
				"y": 2.8265991812,
				"z": -1.8787496611,
				"element": "H" 
			},
			{
				"x": -1.5010634467,
				"y": 2.4798486923,
				"z": -0.4061831324,
				"element": "H" 
			},
			{
				"x": -1.4739139284,
				"y": 1.5242506308,
				"z": 1.1109980713,
				"element": "H" 
			},
			{
				"x": -0.6259633349,
				"y": 3.0921336234,
				"z": 1.028429075,
				"element": "H" 
			},
			{
				"x": 0.5271929657,
				"y": -2.9388050543,
				"z": -0.5346457345,
				"element": "H" 
			},
			{
				"x": -0.6249385287,
				"y": -0.4561904576,
				"z": -3.8581414495,
				"element": "H" 
			},
			{
				"x": -1.5123424448,
				"y": -2.2391687725,
				"z": -4.1882623322,
				"element": "H" 
			},
			{
				"x": -0.4539494055,
				"y": -2.6583656565,
				"z": 1.6379170896,
				"element": "H" 
			},
			{
				"x": 0.2412193646,
				"y": -3.011523154,
				"z": 3.9806362408,
				"element": "H" 
			},
			{
				"x": 1.9509112784,
				"y": -1.5262446315,
				"z": 5.0134868304,
				"element": "H" 
			},
			{
				"x": 2.9580022325,
				"y": 0.3074292116,
				"z": 3.66818044,
				"element": "H" 
			},
			{
				"x": 2.2617438293,
				"y": 0.6584182701,
				"z": 1.3251824411,
				"element": "H" 
			}
		],
		 "valence_orbital": [ 
			{
				"type": "occ",
				"energy": -0.27772,
				"method": "rhf"
			},
			{
				"type": "occ",
				"energy": -0.26531,
				"method": "rhf"
			},
			{
				"type": "occ",
				"energy": -0.25129,
				"method": "rhf"
			},
			{
				"type": "occ",
				"energy": -0.24494,
				"method": "rhf"
			},
			{
				"type": "occ",
				"energy": -0.23379,
				"method": "rhf"
			},
			{
				"type": "unocc",
				"energy": -0.0494,
				"method": "rhf"
			},
			{
				"type": "unocc",
				"energy": -0.03077,
				"method": "rhf"
			},
			{
				"type": "unocc",
				"energy": -0.00221,
				"method": "rhf"
			},
			{
				"type": "unocc",
				"energy": 0.01136,
				"method": "rhf"
			},
			{
				"type": "unocc",
				"energy": 0.05346,
				"method": "rhf"
			}
		],
		"cosmo_sigma_profile": { 
			"-0.025": 0.0,
			"-0.024": 0.0,
			"-0.023": 0.0,
			"-0.022": 0.0,
			"-0.021": 0.0,
			"-0.02": 0.0,
			"-0.019": 0.245525044817,
			"-0.018": 0.890795511216,
			"-0.017": 0.70128187918,
			"-0.016": 1.10509716148,
			"-0.015": 0.886877219237,
			"-0.014": 0.956753313478,
			"-0.013": 0.754199500023,
			"-0.012": 1.48726040868,
			"-0.011": 1.25783051139,
			"-0.01": 1.31686701594,
			"-0.009": 0.573065158151,
			"-0.008": 1.58670400145,
			"-0.007": 1.52469164101,
			"-0.006": 8.0497414874,
			"-0.005": 18.220485347,
			"-0.004": 27.5700606115,
			"-0.003": 37.202786567,
			"-0.002": 31.658121787,
			"-0.001": 26.6438982149,
			"0.0": 25.3853454548,
			"0.001": 23.7116174652,
			"0.002": 21.0308123565,
			"0.003": 16.2181003336,
			"0.004": 13.4655927163,
			"0.005": 15.7135955998,
			"0.006": 9.91441877393,
			"0.007": 4.18734449104,
			"0.008": 3.79942131002,
			"0.009": 4.06224601801,
			"0.01": 5.78222603258,
			"0.011": 5.97442549822,
			"0.012": 5.25630311592,
			"0.013": 1.53293646538,
			"0.014": 0.0460646187598,
			"0.015": 0.0,
			"0.016": 0.0,
			"0.017": 0.0,
			"0.018": 0.0,
			"0.019": 0.0,
			"0.02": 0.0,
			"0.021": 0.0,
			"0.022": 0.0,
			"0.023": 0.0,
			"0.024": 0.0,
			"0.025": 0.0
		}
	}
}
