{
	 "smiles": "CCOC(=O)C1=C(N)SC=C1C1=CC=C(C)O1", 
	 "Tm": 367.15, 
	 "num_atms": 30, 
	 "gaussian": { 
		 "optdone": 1, 
		 "sigma_profile": "yes", 
		 "theory": "DFT", 
		 "functional": "B3LYP", 
		 "basiset": "6-31G**", 
		 "properties": { 
			 "R2extent": 5017.3342, 
			 "electric_dipole_moment_norm": 2.63553245664, 
			 "electric_quadrupole_moment_norm": 16.2855932867, 
			 "total_energy": -1143.71308026, 
			 "HOMO_LUMO_gap": 0.17065, 
			 "cosmo_polarized_energy": -14.79, 
			 "cosmo_cavitation_energy": 35.84, 
			 "cosmo_dispersion_energy": -25.78, 
			 "cosmo_repulsion_energy": 2.0, 
			 "cosmo_total_nonelectrostatic_energy": 12.06, 
			 "SMD_solvation_energy": 7.3 
		},
		"coords": [
			{
				"x": 1.4575050416,
				"y": -2.5333383474,
				"z": 3.4140765148,
				"element": "C" 
			},
			{
				"x": 0.0956000008,
				"y": -2.4713034835,
				"z": 2.7383573737,
				"element": "C" 
			},
			{
				"x": 0.2191040308,
				"y": -2.3496422677,
				"z": 1.3018909009,
				"element": "O" 
			},
			{
				"x": 0.3981055599,
				"y": -1.0732455538,
				"z": 0.8153422398,
				"element": "C" 
			},
			{
				"x": 0.4137736024,
				"y": -0.1053266226,
				"z": 1.5487792151,
				"element": "O" 
			},
			{
				"x": 0.572475401,
				"y": -1.0529312188,
				"z": -0.6424299375,
				"element": "C" 
			},
			{
				"x": 0.8679112984,
				"y": -2.1686801971,
				"z": -1.4221189963,
				"element": "C" 
			},
			{
				"x": 1.0283146157,
				"y": -3.4734647625,
				"z": -1.0403380934,
				"element": "N" 
			},
			{
				"x": 1.1913768416,
				"y": -1.7228824637,
				"z": -3.0848124907,
				"element": "S" 
			},
			{
				"x": 0.8827940665,
				"y": -0.0387744267,
				"z": -2.7391457069,
				"element": "C" 
			},
			{
				"x": 0.577796275,
				"y": 0.1747094449,
				"z": -1.4268354092,
				"element": "C" 
			},
			{
				"x": 0.2728684384,
				"y": 1.5207980619,
				"z": -0.9452271977,
				"element": "C" 
			},
			{
				"x": 0.9013359346,
				"y": 2.7211916796,
				"z": -1.1287804742,
				"element": "C" 
			},
			{
				"x": 0.0949256692,
				"y": 3.7063571161,
				"z": -0.4747091109,
				"element": "C" 
			},
			{
				"x": -0.9725128691,
				"y": 3.0435054513,
				"z": 0.0598571513,
				"element": "C" 
			},
			{
				"x": -2.1517149047,
				"y": 3.4714933633,
				"z": 0.8604838178,
				"element": "C" 
			},
			{
				"x": -0.8799291549,
				"y": 1.7122289652,
				"z": -0.2290832735,
				"element": "O" 
			},
			{
				"x": 2.0587848185,
				"y": -3.3543872455,
				"z": 3.0116121505,
				"element": "H" 
			},
			{
				"x": 1.9977338584,
				"y": -1.5951076562,
				"z": 3.268652454,
				"element": "H" 
			},
			{
				"x": 1.3319956343,
				"y": -2.6953469714,
				"z": 4.4900480312,
				"element": "H" 
			},
			{
				"x": -0.4686211413,
				"y": -3.3960019176,
				"z": 2.8860361666,
				"element": "H" 
			},
			{
				"x": -0.4892550738,
				"y": -1.6275947703,
				"z": 3.1102646793,
				"element": "H" 
			},
			{
				"x": 0.9213406525,
				"y": -4.1844107984,
				"z": -1.7478756108,
				"element": "H" 
			},
			{
				"x": 0.6541914318,
				"y": -3.6878427847,
				"z": -0.1255966003,
				"element": "H" 
			},
			{
				"x": 0.8904322293,
				"y": 0.6854697923,
				"z": -3.5398739747,
				"element": "H" 
			},
			{
				"x": 1.8402268251,
				"y": 2.8727271335,
				"z": -1.6415305581,
				"element": "H" 
			},
			{
				"x": 0.2885874015,
				"y": 4.7670779816,
				"z": -0.3993937191,
				"element": "H" 
			},
			{
				"x": -2.1714833926,
				"y": 2.9719682297,
				"z": 1.8358367263,
				"element": "H" 
			},
			{
				"x": -3.0929662502,
				"y": 3.2340770822,
				"z": 0.350674667,
				"element": "H" 
			},
			{
				"x": -2.1160968411,
				"y": 4.5506771864,
				"z": 1.027339065,
				"element": "H" 
			}
		],
		 "valence_orbital": [ 
			{
				"type": "occ",
				"energy": -0.26654,
				"method": "rhf"
			},
			{
				"type": "occ",
				"energy": -0.26125,
				"method": "rhf"
			},
			{
				"type": "occ",
				"energy": -0.25376,
				"method": "rhf"
			},
			{
				"type": "occ",
				"energy": -0.21102,
				"method": "rhf"
			},
			{
				"type": "occ",
				"energy": -0.18859,
				"method": "rhf"
			},
			{
				"type": "unocc",
				"energy": -0.01794,
				"method": "rhf"
			},
			{
				"type": "unocc",
				"energy": -0.00347,
				"method": "rhf"
			},
			{
				"type": "unocc",
				"energy": 0.00886,
				"method": "rhf"
			},
			{
				"type": "unocc",
				"energy": 0.04993,
				"method": "rhf"
			},
			{
				"type": "unocc",
				"energy": 0.0827,
				"method": "rhf"
			}
		],
		"cosmo_sigma_profile": { 
			"-0.025": 0.0,
			"-0.024": 0.0,
			"-0.023": 0.0,
			"-0.022": 0.0,
			"-0.021": 0.0,
			"-0.02": 0.0,
			"-0.019": 0.0,
			"-0.018": 0.0,
			"-0.017": 0.0,
			"-0.016": 0.0,
			"-0.015": 0.562164200448,
			"-0.014": 1.30141082868,
			"-0.013": 1.628266892,
			"-0.012": 1.20358312898,
			"-0.011": 1.83719738956,
			"-0.01": 2.55123291477,
			"-0.009": 2.01190532896,
			"-0.008": 3.33865395812,
			"-0.007": 4.67875191858,
			"-0.006": 7.36774280061,
			"-0.005": 13.6845170654,
			"-0.004": 23.1979573523,
			"-0.003": 25.8021786199,
			"-0.002": 23.1370207588,
			"-0.001": 26.6556632792,
			"0.0": 25.5571559355,
			"0.001": 19.2052314663,
			"0.002": 18.4208135806,
			"0.003": 22.5669391143,
			"0.004": 18.9637895803,
			"0.005": 10.1765816067,
			"0.006": 7.79694578674,
			"0.007": 5.90230402658,
			"0.008": 4.24880487187,
			"0.009": 3.20748659499,
			"0.01": 2.8635516888,
			"0.011": 4.32151716023,
			"0.012": 3.55068120808,
			"0.013": 1.58777065673,
			"0.014": 0.0,
			"0.015": 0.0,
			"0.016": 0.0,
			"0.017": 0.0,
			"0.018": 0.0,
			"0.019": 0.0,
			"0.02": 0.0,
			"0.021": 0.0,
			"0.022": 0.0,
			"0.023": 0.0,
			"0.024": 0.0,
			"0.025": 0.0
		}
	}
}
