{
	 "smiles": "CC(C)(C)C1=CC=C2CC3=CC=C(C=C3C2=C1)C(C)(C)C", 
	 "Tm": 354.15, 
	 "num_atms": 47, 
	 "gaussian": { 
		 "optdone": 1, 
		 "sigma_profile": "yes", 
		 "theory": "DFT", 
		 "functional": "B3LYP", 
		 "basiset": "6-31G**", 
		 "properties": { 
			 "R2extent": 8757.5442, 
			 "electric_dipole_moment_norm": 0.0536346902667, 
			 "electric_quadrupole_moment_norm": 7.33889158252, 
			 "total_energy": -815.953112139, 
			 "HOMO_LUMO_gap": 0.18407, 
			 "cosmo_polarized_energy": -5.76, 
			 "cosmo_cavitation_energy": 45.85, 
			 "cosmo_dispersion_energy": -31.69, 
			 "cosmo_repulsion_energy": 2.41, 
			 "cosmo_total_nonelectrostatic_energy": 16.57, 
			 "SMD_solvation_energy": 7.16 
		},
		"coords": [
			{
				"x": 0.9246077128,
				"y": -4.0558281708,
				"z": 1.3744055196,
				"element": "C" 
			},
			{
				"x": 0.678452844,
				"y": -2.9648077288,
				"z": 2.443766159,
				"element": "C" 
			},
			{
				"x": -0.7591150493,
				"y": -3.1071185215,
				"z": 2.9983903108,
				"element": "C" 
			},
			{
				"x": 1.6633058331,
				"y": -3.203014558,
				"z": 3.6043092345,
				"element": "C" 
			},
			{
				"x": 0.8467277111,
				"y": -1.5723866185,
				"z": 1.8044621345,
				"element": "C" 
			},
			{
				"x": 1.803381769,
				"y": -0.6459274836,
				"z": 2.2512263851,
				"element": "C" 
			},
			{
				"x": 1.9451893679,
				"y": 0.6165449491,
				"z": 1.6601251527,
				"element": "C" 
			},
			{
				"x": 1.1209637192,
				"y": 0.9704639459,
				"z": 0.6023812781,
				"element": "C" 
			},
			{
				"x": 1.0617491136,
				"y": 2.2511349622,
				"z": -0.2063058571,
				"element": "C" 
			},
			{
				"x": -0.0542039432,
				"y": 1.9679020068,
				"z": -1.1922095992,
				"element": "C" 
			},
			{
				"x": -0.5821495357,
				"y": 2.7616739751,
				"z": -2.1994877198,
				"element": "C" 
			},
			{
				"x": -1.6282718128,
				"y": 2.2667680888,
				"z": -2.9894562714,
				"element": "C" 
			},
			{
				"x": -2.1642632083,
				"y": 0.9832257252,
				"z": -2.793652816,
				"element": "C" 
			},
			{
				"x": -1.617682483,
				"y": 0.1910287454,
				"z": -1.7683843614,
				"element": "C" 
			},
			{
				"x": -0.5773346667,
				"y": 0.6757459514,
				"z": -0.9781805622,
				"element": "C" 
			},
			{
				"x": 0.1534307057,
				"y": 0.0555004487,
				"z": 0.1377435337,
				"element": "C" 
			},
			{
				"x": 0.019032303,
				"y": -1.1981555115,
				"z": 0.731001782,
				"element": "C" 
			},
			{
				"x": -3.314577764,
				"y": 0.4243304477,
				"z": -3.6539884945,
				"element": "C" 
			},
			{
				"x": -2.8410747113,
				"y": -0.8599114572,
				"z": -4.3758085133,
				"element": "C" 
			},
			{
				"x": -4.5203273854,
				"y": 0.0853225122,
				"z": -2.7452993317,
				"element": "C" 
			},
			{
				"x": -3.7901204014,
				"y": 1.4255575521,
				"z": -4.723977078,
				"element": "C" 
			},
			{
				"x": 0.8025919059,
				"y": -5.0537780824,
				"z": 1.8109872737,
				"element": "H" 
			},
			{
				"x": 0.2250574296,
				"y": -3.9710643132,
				"z": 0.5375830261,
				"element": "H" 
			},
			{
				"x": 1.9391817201,
				"y": -3.9839944032,
				"z": 0.9688382263,
				"element": "H" 
			},
			{
				"x": -1.512050427,
				"y": -2.9929505226,
				"z": 2.2129758512,
				"element": "H" 
			},
			{
				"x": -0.9594355313,
				"y": -2.3505754338,
				"z": 3.7642337072,
				"element": "H" 
			},
			{
				"x": -0.897925419,
				"y": -4.0953170539,
				"z": 3.4517857924,
				"element": "H" 
			},
			{
				"x": 1.5220575189,
				"y": -2.4796327251,
				"z": 4.4140810113,
				"element": "H" 
			},
			{
				"x": 2.7054556745,
				"y": -3.1471410912,
				"z": 3.2730045366,
				"element": "H" 
			},
			{
				"x": 1.5039961381,
				"y": -4.20196403,
				"z": 4.0233747362,
				"element": "H" 
			},
			{
				"x": 2.458016283,
				"y": -0.9008534812,
				"z": 3.0763780335,
				"element": "H" 
			},
			{
				"x": 2.6984379775,
				"y": 1.3049041031,
				"z": 2.035916486,
				"element": "H" 
			},
			{
				"x": 2.0136561263,
				"y": 2.4632948085,
				"z": -0.7117443987,
				"element": "H" 
			},
			{
				"x": 0.8439208465,
				"y": 3.1252937499,
				"z": 0.4221768054,
				"element": "H" 
			},
			{
				"x": -0.1955300003,
				"y": 3.7612027718,
				"z": -2.3836317239,
				"element": "H" 
			},
			{
				"x": -2.0252179034,
				"y": 2.9045883864,
				"z": -3.7704937905,
				"element": "H" 
			},
			{
				"x": -2.006447832,
				"y": -0.8072506294,
				"z": -1.5873485408,
				"element": "H" 
			},
			{
				"x": -0.7324722298,
				"y": -1.8885931243,
				"z": 0.3581871623,
				"element": "H" 
			},
			{
				"x": -1.9913778535,
				"y": -0.6482655655,
				"z": -5.0332479999,
				"element": "H" 
			},
			{
				"x": -2.529358277,
				"y": -1.6336223909,
				"z": -3.6679592864,
				"element": "H" 
			},
			{
				"x": -3.6499745108,
				"y": -1.274793083,
				"z": -4.9881402859,
				"element": "H" 
			},
			{
				"x": -4.88222316,
				"y": 0.9789061536,
				"z": -2.2261200317,
				"element": "H" 
			},
			{
				"x": -4.2618720279,
				"y": -0.6587442198,
				"z": -1.986102215,
				"element": "H" 
			},
			{
				"x": -5.3461998261,
				"y": -0.3198504119,
				"z": -3.34124677,
				"element": "H" 
			},
			{
				"x": -4.6051768714,
				"y": 0.9831225258,
				"z": -5.3060607517,
				"element": "H" 
			},
			{
				"x": -4.1687695527,
				"y": 2.3507332096,
				"z": -4.2771642764,
				"element": "H" 
			},
			{
				"x": -2.9891603164,
				"y": 1.6858955926,
				"z": -5.4237234625,
				"element": "H" 
			}
		],
		 "valence_orbital": [ 
			{
				"type": "occ",
				"energy": -0.30711,
				"method": "rhf"
			},
			{
				"type": "occ",
				"energy": -0.27102,
				"method": "rhf"
			},
			{
				"type": "occ",
				"energy": -0.23638,
				"method": "rhf"
			},
			{
				"type": "occ",
				"energy": -0.2287,
				"method": "rhf"
			},
			{
				"type": "occ",
				"energy": -0.20722,
				"method": "rhf"
			},
			{
				"type": "unocc",
				"energy": -0.02315,
				"method": "rhf"
			},
			{
				"type": "unocc",
				"energy": -0.0044,
				"method": "rhf"
			},
			{
				"type": "unocc",
				"energy": 0.01442,
				"method": "rhf"
			},
			{
				"type": "unocc",
				"energy": 0.04797,
				"method": "rhf"
			},
			{
				"type": "unocc",
				"energy": 0.08139,
				"method": "rhf"
			}
		],
		"cosmo_sigma_profile": { 
			"-0.025": 0.0,
			"-0.024": 0.0,
			"-0.023": 0.0,
			"-0.022": 0.0,
			"-0.021": 0.0,
			"-0.02": 0.0,
			"-0.019": 0.0,
			"-0.018": 0.0,
			"-0.017": 0.0,
			"-0.016": 0.0,
			"-0.015": 0.0,
			"-0.014": 0.0,
			"-0.013": 0.0,
			"-0.012": 0.0,
			"-0.011": 0.0,
			"-0.01": 0.0,
			"-0.009": 0.0,
			"-0.008": 0.0,
			"-0.007": 0.0,
			"-0.006": 1.00333578048,
			"-0.005": 14.1003410557,
			"-0.004": 17.7211762207,
			"-0.003": 38.3842805623,
			"-0.002": 57.2183325761,
			"-0.001": 44.6916129342,
			"0.0": 38.0062163846,
			"0.001": 50.2978836837,
			"0.002": 32.2538101289,
			"0.003": 12.8414408173,
			"0.004": 16.4127427446,
			"0.005": 14.7358269169,
			"0.006": 15.3921396398,
			"0.007": 5.02606842381,
			"0.008": 0.0,
			"0.009": 0.0,
			"0.01": 0.0,
			"0.011": 0.0,
			"0.012": 0.0,
			"0.013": 0.0,
			"0.014": 0.0,
			"0.015": 0.0,
			"0.016": 0.0,
			"0.017": 0.0,
			"0.018": 0.0,
			"0.019": 0.0,
			"0.02": 0.0,
			"0.021": 0.0,
			"0.022": 0.0,
			"0.023": 0.0,
			"0.024": 0.0,
			"0.025": 0.0
		}
	}
}
