{
	 "smiles": "CC1CCC(C)(C(=O)CN2C(=O)C3=C(C=CC=C3)C2=O)C1(C)C", 
	 "Tm": 372.15, 
	 "num_atms": 46, 
	 "gaussian": { 
		 "optdone": 1, 
		 "sigma_profile": "yes", 
		 "theory": "DFT", 
		 "functional": "B3LYP", 
		 "basiset": "6-31G**", 
		 "properties": { 
			 "R2extent": 8410.3643, 
			 "electric_dipole_moment_norm": 1.27046580828, 
			 "electric_quadrupole_moment_norm": 23.2920776632, 
			 "total_energy": -1018.34519954, 
			 "HOMO_LUMO_gap": 0.16308, 
			 "cosmo_polarized_energy": -14.19, 
			 "cosmo_cavitation_energy": 44.93, 
			 "cosmo_dispersion_energy": -30.53, 
			 "cosmo_repulsion_energy": 2.24, 
			 "cosmo_total_nonelectrostatic_energy": 16.64, 
			 "SMD_solvation_energy": 8.42 
		},
		"coords": [
			{
				"x": -2.856619314,
				"y": 0.6817247859,
				"z": -0.5552666531,
				"element": "C" 
			},
			{
				"x": -2.3006391979,
				"y": 1.3028541704,
				"z": -1.846374753,
				"element": "C" 
			},
			{
				"x": -1.5119867424,
				"y": 2.6177041111,
				"z": -1.5573259421,
				"element": "C" 
			},
			{
				"x": -0.0744756949,
				"y": 2.4050417262,
				"z": -2.0796528561,
				"element": "C" 
			},
			{
				"x": 0.1242087633,
				"y": 0.8741152123,
				"z": -2.2081126807,
				"element": "C" 
			},
			{
				"x": 1.2653092493,
				"y": 0.525802627,
				"z": -3.1933667379,
				"element": "C" 
			},
			{
				"x": 0.5653094959,
				"y": 0.2001702556,
				"z": -0.8891438872,
				"element": "C" 
			},
			{
				"x": 0.7019346916,
				"y": -1.0042394354,
				"z": -0.8043531943,
				"element": "O" 
			},
			{
				"x": 0.9676199816,
				"y": 1.0778544322,
				"z": 0.3182158977,
				"element": "C" 
			},
			{
				"x": 1.385073175,
				"y": 0.2744699889,
				"z": 1.4386162124,
				"element": "N" 
			},
			{
				"x": 0.4906377806,
				"y": -0.378719846,
				"z": 2.2991698089,
				"element": "C" 
			},
			{
				"x": -0.7150315371,
				"y": -0.2215840859,
				"z": 2.307215308,
				"element": "O" 
			},
			{
				"x": 1.3356751564,
				"y": -1.2472542618,
				"z": 3.1704329133,
				"element": "C" 
			},
			{
				"x": 2.6656635052,
				"y": -1.1139671583,
				"z": 2.7637759358,
				"element": "C" 
			},
			{
				"x": 3.6891651842,
				"y": -1.808840253,
				"z": 3.3911819006,
				"element": "C" 
			},
			{
				"x": 3.3382031799,
				"y": -2.6547513686,
				"z": 4.4518857547,
				"element": "C" 
			},
			{
				"x": 2.0046871933,
				"y": -2.7883907731,
				"z": 4.8595814626,
				"element": "C" 
			},
			{
				"x": 0.9781175747,
				"y": -2.0805960027,
				"z": 4.2200264088,
				"element": "C" 
			},
			{
				"x": 2.7112570513,
				"y": -0.154639521,
				"z": 1.6215849392,
				"element": "C" 
			},
			{
				"x": 3.6624743428,
				"y": 0.2244516966,
				"z": 0.9682530309,
				"element": "O" 
			},
			{
				"x": -1.3214460629,
				"y": 0.3970133758,
				"z": -2.6811719508,
				"element": "C" 
			},
			{
				"x": -1.6034663225,
				"y": -1.1078854011,
				"z": -2.5391611217,
				"element": "C" 
			},
			{
				"x": -1.5198332046,
				"y": 0.7438247457,
				"z": -4.1782198341,
				"element": "C" 
			},
			{
				"x": -3.5022782658,
				"y": 1.408227916,
				"z": -0.0487319894,
				"element": "H" 
			},
			{
				"x": -2.0775243968,
				"y": 0.3946155031,
				"z": 0.1587913943,
				"element": "H" 
			},
			{
				"x": -3.4631030291,
				"y": -0.2057206759,
				"z": -0.7587352268,
				"element": "H" 
			},
			{
				"x": -3.1648153283,
				"y": 1.5295469652,
				"z": -2.4824582867,
				"element": "H" 
			},
			{
				"x": -1.9786707246,
				"y": 3.4878624695,
				"z": -2.0293596771,
				"element": "H" 
			},
			{
				"x": -1.5129060738,
				"y": 2.823403783,
				"z": -0.4807413526,
				"element": "H" 
			},
			{
				"x": 0.6818460115,
				"y": 2.8921441437,
				"z": -1.4577536123,
				"element": "H" 
			},
			{
				"x": 0.0378508123,
				"y": 2.8479793314,
				"z": -3.0739126906,
				"element": "H" 
			},
			{
				"x": 1.3280125746,
				"y": -0.5535450323,
				"z": -3.351614196,
				"element": "H" 
			},
			{
				"x": 1.1177527574,
				"y": 1.021615955,
				"z": -4.155353255,
				"element": "H" 
			},
			{
				"x": 2.2327241314,
				"y": 0.8566645034,
				"z": -2.7985172771,
				"element": "H" 
			},
			{
				"x": 0.1384072205,
				"y": 1.7200167258,
				"z": 0.623935095,
				"element": "H" 
			},
			{
				"x": 1.8119038854,
				"y": 1.71328346,
				"z": 0.0341668684,
				"element": "H" 
			},
			{
				"x": 4.7185569033,
				"y": -1.6986417929,
				"z": 3.0658934686,
				"element": "H" 
			},
			{
				"x": 4.1108662881,
				"y": -3.2179320291,
				"z": 4.966719083,
				"element": "H" 
			},
			{
				"x": 1.7645563159,
				"y": -3.4530678241,
				"z": 5.6840712371,
				"element": "H" 
			},
			{
				"x": -0.058398562,
				"y": -2.1775229431,
				"z": 4.5263471153,
				"element": "H" 
			},
			{
				"x": -1.5404209478,
				"y": -1.4655714692,
				"z": -1.5128103583,
				"element": "H" 
			},
			{
				"x": -2.6095844915,
				"y": -1.3256011381,
				"z": -2.9166994378,
				"element": "H" 
			},
			{
				"x": -0.895765697,
				"y": -1.6955861819,
				"z": -3.131936609,
				"element": "H" 
			},
			{
				"x": -2.5514618026,
				"y": 0.5141120731,
				"z": -4.4644696259,
				"element": "H" 
			},
			{
				"x": -0.8652448155,
				"y": 0.1523282794,
				"z": -4.8247943914,
				"element": "H" 
			},
			{
				"x": -1.3505410147,
				"y": 1.8018289572,
				"z": -4.4007262374,
				"element": "H" 
			}
		],
		 "valence_orbital": [ 
			{
				"type": "occ",
				"energy": -0.28453,
				"method": "rhf"
			},
			{
				"type": "occ",
				"energy": -0.27554,
				"method": "rhf"
			},
			{
				"type": "occ",
				"energy": -0.27047,
				"method": "rhf"
			},
			{
				"type": "occ",
				"energy": -0.26663,
				"method": "rhf"
			},
			{
				"type": "occ",
				"energy": -0.24225,
				"method": "rhf"
			},
			{
				"type": "unocc",
				"energy": -0.07917,
				"method": "rhf"
			},
			{
				"type": "unocc",
				"energy": -0.03877,
				"method": "rhf"
			},
			{
				"type": "unocc",
				"energy": -0.02072,
				"method": "rhf"
			},
			{
				"type": "unocc",
				"energy": 0.03075,
				"method": "rhf"
			},
			{
				"type": "unocc",
				"energy": 0.06775,
				"method": "rhf"
			}
		],
		"cosmo_sigma_profile": { 
			"-0.025": 0.0,
			"-0.024": 0.0,
			"-0.023": 0.0,
			"-0.022": 0.0,
			"-0.021": 0.0,
			"-0.02": 0.0,
			"-0.019": 0.0,
			"-0.018": 0.0,
			"-0.017": 0.0,
			"-0.016": 0.0,
			"-0.015": 0.0,
			"-0.014": 0.0,
			"-0.013": 0.0,
			"-0.012": 0.0,
			"-0.011": 0.0,
			"-0.01": 0.0,
			"-0.009": 0.0313461898024,
			"-0.008": 3.98392044405,
			"-0.007": 12.0440309671,
			"-0.006": 14.3899491049,
			"-0.005": 14.3800212427,
			"-0.004": 16.1394958485,
			"-0.003": 26.6637371203,
			"-0.002": 43.4869286365,
			"-0.001": 46.5882371185,
			"0.0": 44.4113021209,
			"0.001": 38.8212493717,
			"0.002": 27.1190472267,
			"0.003": 9.55591029716,
			"0.004": 7.94534480541,
			"0.005": 6.61263313078,
			"0.006": 4.96514335963,
			"0.007": 5.11092211438,
			"0.008": 5.45391019629,
			"0.009": 4.76083616656,
			"0.01": 7.19188430956,
			"0.011": 9.4236137924,
			"0.012": 3.43063698042,
			"0.013": 0.00776391278088,
			"0.014": 0.0,
			"0.015": 0.0,
			"0.016": 0.0,
			"0.017": 0.0,
			"0.018": 0.0,
			"0.019": 0.0,
			"0.02": 0.0,
			"0.021": 0.0,
			"0.022": 0.0,
			"0.023": 0.0,
			"0.024": 0.0,
			"0.025": 0.0
		}
	}
}
