{
	 "smiles": "NC1=CC(CS(=O)C2=CC=CC=C2)=CC=C1", 
	 "Tm": 407.15, 
	 "num_atms": 29, 
	 "gaussian": { 
		 "optdone": 1, 
		 "sigma_profile": "yes", 
		 "theory": "DFT", 
		 "functional": "B3LYP", 
		 "basiset": "6-31G**", 
		 "properties": { 
			 "R2extent": 4641.3106, 
			 "electric_dipole_moment_norm": 5.49612327009, 
			 "electric_quadrupole_moment_norm": 15.0118918122, 
			 "total_energy": -1031.33641641, 
			 "HOMO_LUMO_gap": 0.18361, 
			 "cosmo_polarized_energy": -16.65, 
			 "cosmo_cavitation_energy": 34.13, 
			 "cosmo_dispersion_energy": -23.78, 
			 "cosmo_repulsion_energy": 1.82, 
			 "cosmo_total_nonelectrostatic_energy": 12.17, 
			 "SMD_solvation_energy": 4.87 
		},
		"coords": [
			{
				"x": -2.9896945594,
				"y": 1.7100776669,
				"z": -1.4972984183,
				"element": "N" 
			},
			{
				"x": -1.9620789081,
				"y": 0.8792179519,
				"z": -1.9435556128,
				"element": "C" 
			},
			{
				"x": -1.7991327476,
				"y": -0.406852388,
				"z": -1.4014553123,
				"element": "C" 
			},
			{
				"x": -0.8165807973,
				"y": -1.2777570263,
				"z": -1.8825099173,
				"element": "C" 
			},
			{
				"x": -0.6496828806,
				"y": -2.637057118,
				"z": -1.2741566999,
				"element": "C" 
			},
			{
				"x": 0.8827241988,
				"y": -2.8209811245,
				"z": -0.1960880254,
				"element": "S" 
			},
			{
				"x": 0.8323047448,
				"y": -4.2452186272,
				"z": 0.316376638,
				"element": "O" 
			},
			{
				"x": 0.3585801171,
				"y": -1.7505004112,
				"z": 1.1834001938,
				"element": "C" 
			},
			{
				"x": 0.5480335705,
				"y": -0.3675833421,
				"z": 1.1306639104,
				"element": "C" 
			},
			{
				"x": 0.1826510429,
				"y": 0.4082600137,
				"z": 2.2327437106,
				"element": "C" 
			},
			{
				"x": -0.3510015536,
				"y": -0.198149974,
				"z": 3.3729850846,
				"element": "C" 
			},
			{
				"x": -0.517533244,
				"y": -1.5848741746,
				"z": 3.4184224736,
				"element": "C" 
			},
			{
				"x": -0.1568916284,
				"y": -2.3691658805,
				"z": 2.3218104057,
				"element": "C" 
			},
			{
				"x": 0.0313790071,
				"y": -0.8555681265,
				"z": -2.918690865,
				"element": "C" 
			},
			{
				"x": -0.121580162,
				"y": 0.4221247588,
				"z": -3.4562634687,
				"element": "C" 
			},
			{
				"x": -1.1047714854,
				"y": 1.2865410882,
				"z": -2.9802029143,
				"element": "C" 
			},
			{
				"x": -2.8506168858,
				"y": 2.69733986,
				"z": -1.6615937101,
				"element": "H" 
			},
			{
				"x": -3.3214348834,
				"y": 1.5235886781,
				"z": -0.5611153518,
				"element": "H" 
			},
			{
				"x": -2.4555283168,
				"y": -0.7320690935,
				"z": -0.5979448643,
				"element": "H" 
			},
			{
				"x": -0.4808052433,
				"y": -3.4116253698,
				"z": -2.028219008,
				"element": "H" 
			},
			{
				"x": -1.4892276024,
				"y": -2.9401775321,
				"z": -0.6439637848,
				"element": "H" 
			},
			{
				"x": 0.9743751503,
				"y": 0.0973477842,
				"z": 0.2468621729,
				"element": "H" 
			},
			{
				"x": 0.3243892339,
				"y": 1.4849383627,
				"z": 2.2040497716,
				"element": "H" 
			},
			{
				"x": -0.6247057556,
				"y": 0.4093375606,
				"z": 4.2309833439,
				"element": "H" 
			},
			{
				"x": -0.9201180688,
				"y": -2.0554608153,
				"z": 4.3109879331,
				"element": "H" 
			},
			{
				"x": -0.2471959943,
				"y": -3.4517080539,
				"z": 2.3300439386,
				"element": "H" 
			},
			{
				"x": 0.7972424598,
				"y": -1.5239250271,
				"z": -3.3012724126,
				"element": "H" 
			},
			{
				"x": 0.531785035,
				"y": 0.7512865859,
				"z": -4.2594710512,
				"element": "H" 
			},
			{
				"x": -1.2193838436,
				"y": 2.2768137739,
				"z": -3.4140281598,
				"element": "H" 
			}
		],
		 "valence_orbital": [ 
			{
				"type": "occ",
				"energy": -0.26445,
				"method": "rhf"
			},
			{
				"type": "occ",
				"energy": -0.25822,
				"method": "rhf"
			},
			{
				"type": "occ",
				"energy": -0.24487,
				"method": "rhf"
			},
			{
				"type": "occ",
				"energy": -0.21805,
				"method": "rhf"
			},
			{
				"type": "occ",
				"energy": -0.20865,
				"method": "rhf"
			},
			{
				"type": "unocc",
				"energy": -0.02504,
				"method": "rhf"
			},
			{
				"type": "unocc",
				"energy": -0.0116,
				"method": "rhf"
			},
			{
				"type": "unocc",
				"energy": -0.00967,
				"method": "rhf"
			},
			{
				"type": "unocc",
				"energy": 0.0068,
				"method": "rhf"
			},
			{
				"type": "unocc",
				"energy": 0.04574,
				"method": "rhf"
			}
		],
		"cosmo_sigma_profile": { 
			"-0.025": 0.0,
			"-0.024": 0.0,
			"-0.023": 0.0,
			"-0.022": 0.0,
			"-0.021": 0.0,
			"-0.02": 0.0,
			"-0.019": 0.0,
			"-0.018": 0.0,
			"-0.017": 0.0,
			"-0.016": 0.0,
			"-0.015": 0.0,
			"-0.014": 0.0,
			"-0.013": 0.313894548956,
			"-0.012": 2.40432000129,
			"-0.011": 2.75377221804,
			"-0.01": 2.42188452487,
			"-0.009": 3.59757452622,
			"-0.008": 3.70336860939,
			"-0.007": 6.64645751087,
			"-0.006": 17.3706211715,
			"-0.005": 22.1951462859,
			"-0.004": 22.2732527729,
			"-0.003": 18.2779696565,
			"-0.002": 18.3421734618,
			"-0.001": 15.5837253469,
			"0.0": 16.3221919028,
			"0.001": 15.8421091706,
			"0.002": 17.2656162862,
			"0.003": 18.4724738042,
			"0.004": 20.4331144285,
			"0.005": 14.6895805819,
			"0.006": 8.06990358798,
			"0.007": 3.2313691307,
			"0.008": 1.92549471404,
			"0.009": 2.05263902176,
			"0.01": 1.74061127194,
			"0.011": 1.97774122872,
			"0.012": 2.05115632754,
			"0.013": 3.14495625751,
			"0.014": 4.52950666622,
			"0.015": 4.10420390147,
			"0.016": 0.695164328802,
			"0.017": 0.0,
			"0.018": 0.0,
			"0.019": 0.0,
			"0.02": 0.0,
			"0.021": 0.0,
			"0.022": 0.0,
			"0.023": 0.0,
			"0.024": 0.0,
			"0.025": 0.0
		}
	}
}
