{
	 "smiles": "CCOC(=O)C1=C(C)N(C)C2=C1C=C(O)C=C2", 
	 "Tm": 485.15, 
	 "num_atms": 32, 
	 "gaussian": { 
		 "optdone": 1, 
		 "sigma_profile": "yes", 
		 "theory": "DFT", 
		 "functional": "B3LYP", 
		 "basiset": "6-31G**", 
		 "properties": { 
			 "R2extent": 4999.8921, 
			 "electric_dipole_moment_norm": 4.34396059835, 
			 "electric_quadrupole_moment_norm": 9.23066175688, 
			 "total_energy": -784.878411559, 
			 "HOMO_LUMO_gap": 0.17501, 
			 "cosmo_polarized_energy": -15.42, 
			 "cosmo_cavitation_energy": 35.07, 
			 "cosmo_dispersion_energy": -25.24, 
			 "cosmo_repulsion_energy": 1.95, 
			 "cosmo_total_nonelectrostatic_energy": 11.78, 
			 "SMD_solvation_energy": 7.08 
		},
		"coords": [
			{
				"x": 0.4585042786,
				"y": 0.9564575782,
				"z": -5.2889071383,
				"element": "C" 
			},
			{
				"x": -0.2985727,
				"y": 1.5085999075,
				"z": -4.0950113353,
				"element": "C" 
			},
			{
				"x": -0.0272492888,
				"y": 0.64694346,
				"z": -2.9704252802,
				"element": "O" 
			},
			{
				"x": -0.6362284791,
				"y": 1.0003331952,
				"z": -1.8020132204,
				"element": "C" 
			},
			{
				"x": -1.3589398916,
				"y": 1.9830989274,
				"z": -1.730776546,
				"element": "O" 
			},
			{
				"x": -0.3478475821,
				"y": 0.1142382651,
				"z": -0.6768986531,
				"element": "C" 
			},
			{
				"x": 0.448367936,
				"y": -1.0316292186,
				"z": -0.6092716187,
				"element": "C" 
			},
			{
				"x": 1.2586103786,
				"y": -1.716835816,
				"z": -1.6643751467,
				"element": "C" 
			},
			{
				"x": 0.4070883696,
				"y": -1.5238055311,
				"z": 0.6763323153,
				"element": "N" 
			},
			{
				"x": 1.0870595065,
				"y": -2.6977178469,
				"z": 1.1888173074,
				"element": "C" 
			},
			{
				"x": -0.4104403567,
				"y": -0.712684614,
				"z": 1.4601079427,
				"element": "C" 
			},
			{
				"x": -0.9022057724,
				"y": 0.3275151108,
				"z": 0.641610717,
				"element": "C" 
			},
			{
				"x": -1.7584892864,
				"y": 1.2928600408,
				"z": 1.1924361911,
				"element": "C" 
			},
			{
				"x": -2.0953954891,
				"y": 1.1886883238,
				"z": 2.5392960921,
				"element": "C" 
			},
			{
				"x": -2.9255590987,
				"y": 2.0886035621,
				"z": 3.1572636461,
				"element": "O" 
			},
			{
				"x": -1.5965334644,
				"y": 0.1437887193,
				"z": 3.3452170201,
				"element": "C" 
			},
			{
				"x": -0.7478104874,
				"y": -0.818474967,
				"z": 2.8121134295,
				"element": "C" 
			},
			{
				"x": 0.27850291,
				"y": 1.5851461562,
				"z": -6.1666776515,
				"element": "H" 
			},
			{
				"x": 0.1323219742,
				"y": -0.0610854859,
				"z": -5.5243764454,
				"element": "H" 
			},
			{
				"x": 1.5354879678,
				"y": 0.9379311464,
				"z": -5.0965666469,
				"element": "H" 
			},
			{
				"x": 0.0149780009,
				"y": 2.5279576113,
				"z": -3.8481022713,
				"element": "H" 
			},
			{
				"x": -1.378438448,
				"y": 1.5352661543,
				"z": -4.2725616522,
				"element": "H" 
			},
			{
				"x": 2.3211285818,
				"y": -1.7521995427,
				"z": -1.3939448382,
				"element": "H" 
			},
			{
				"x": 0.9240011582,
				"y": -2.7500185918,
				"z": -1.8188588489,
				"element": "H" 
			},
			{
				"x": 1.1624605058,
				"y": -1.1814588686,
				"z": -2.6051807657,
				"element": "H" 
			},
			{
				"x": 1.6690881475,
				"y": -3.1678333046,
				"z": 0.3976159236,
				"element": "H" 
			},
			{
				"x": 0.3633063549,
				"y": -3.4272449534,
				"z": 1.5690922284,
				"element": "H" 
			},
			{
				"x": 1.7655985697,
				"y": -2.4242699516,
				"z": 2.004505981,
				"element": "H" 
			},
			{
				"x": -2.1387741331,
				"y": 2.0940518772,
				"z": 0.5673125204,
				"element": "H" 
			},
			{
				"x": -3.1981813999,
				"y": 2.7496421775,
				"z": 2.5078036016,
				"element": "H" 
			},
			{
				"x": -1.8921133161,
				"y": 0.1116956219,
				"z": 4.3883327072,
				"element": "H" 
			},
			{
				"x": -0.3662254463,
				"y": -1.6209591428,
				"z": 3.4357904353,
				"element": "H" 
			}
		],
		 "valence_orbital": [ 
			{
				"type": "occ",
				"energy": -0.28709,
				"method": "rhf"
			},
			{
				"type": "occ",
				"energy": -0.26588,
				"method": "rhf"
			},
			{
				"type": "occ",
				"energy": -0.25736,
				"method": "rhf"
			},
			{
				"type": "occ",
				"energy": -0.20433,
				"method": "rhf"
			},
			{
				"type": "occ",
				"energy": -0.19554,
				"method": "rhf"
			},
			{
				"type": "unocc",
				"energy": -0.02053,
				"method": "rhf"
			},
			{
				"type": "unocc",
				"energy": 0.01113,
				"method": "rhf"
			},
			{
				"type": "unocc",
				"energy": 0.0403,
				"method": "rhf"
			},
			{
				"type": "unocc",
				"energy": 0.08103,
				"method": "rhf"
			},
			{
				"type": "unocc",
				"energy": 0.08803,
				"method": "rhf"
			}
		],
		"cosmo_sigma_profile": { 
			"-0.025": 0.0,
			"-0.024": 0.0,
			"-0.023": 0.0,
			"-0.022": 0.0,
			"-0.021": 0.0,
			"-0.02": 0.0,
			"-0.019": 0.0,
			"-0.018": 0.0,
			"-0.017": 0.645170689649,
			"-0.016": 1.21133617512,
			"-0.015": 0.790716930461,
			"-0.014": 1.0134833677,
			"-0.013": 0.918555916554,
			"-0.012": 1.17669753512,
			"-0.011": 1.14175943097,
			"-0.01": 0.842304454771,
			"-0.009": 0.557777087885,
			"-0.008": 0.73782589747,
			"-0.007": 2.19134531202,
			"-0.006": 14.0184313868,
			"-0.005": 20.9101199197,
			"-0.004": 25.699009823,
			"-0.003": 27.2526141154,
			"-0.002": 22.4692567744,
			"-0.001": 19.7644570076,
			"0.0": 21.4985392878,
			"0.001": 15.4702529128,
			"0.002": 13.4481402959,
			"0.003": 12.9798449488,
			"0.004": 16.1410976276,
			"0.005": 18.9995536261,
			"0.006": 12.7452412691,
			"0.007": 4.29062715254,
			"0.008": 3.50877020783,
			"0.009": 2.76596205148,
			"0.01": 3.00143652722,
			"0.011": 4.02497660815,
			"0.012": 4.32484149638,
			"0.013": 2.77657505584,
			"0.014": 0.29441269485,
			"0.015": 0.0,
			"0.016": 0.0,
			"0.017": 0.0,
			"0.018": 0.0,
			"0.019": 0.0,
			"0.02": 0.0,
			"0.021": 0.0,
			"0.022": 0.0,
			"0.023": 0.0,
			"0.024": 0.0,
			"0.025": 0.0
		}
	}
}
