{
	 "smiles": "CCC1=C2NC=C(C3CCNCC3)C2=CC=C1", 
	 "Tm": 457.15, 
	 "num_atms": 37, 
	 "gaussian": { 
		 "optdone": 1, 
		 "sigma_profile": "yes", 
		 "theory": "DFT", 
		 "functional": "B3LYP", 
		 "basiset": "6-31G**", 
		 "properties": { 
			 "R2extent": 6007.5542, 
			 "electric_dipole_moment_norm": 1.18718806429, 
			 "electric_quadrupole_moment_norm": 15.079184905, 
			 "total_energy": -693.160454529, 
			 "HOMO_LUMO_gap": 0.19063, 
			 "cosmo_polarized_energy": -10.9, 
			 "cosmo_cavitation_energy": 37.16, 
			 "cosmo_dispersion_energy": -26.61, 
			 "cosmo_repulsion_energy": 2.07, 
			 "cosmo_total_nonelectrostatic_energy": 12.61, 
			 "SMD_solvation_energy": 2.87 
		},
		"coords": [
			{
				"x": 5.2366795091,
				"y": -2.7076807166,
				"z": -0.4457781435,
				"element": "C" 
			},
			{
				"x": 5.1428217828,
				"y": -1.172682062,
				"z": -0.3530216476,
				"element": "C" 
			},
			{
				"x": 3.7766059275,
				"y": -0.6302472724,
				"z": -0.7095016286,
				"element": "C" 
			},
			{
				"x": 2.6979147109,
				"y": -0.689627736,
				"z": 0.1903313691,
				"element": "C" 
			},
			{
				"x": 2.6493124617,
				"y": -1.1759766153,
				"z": 1.4820497685,
				"element": "N" 
			},
			{
				"x": 1.3671006688,
				"y": -1.0203987451,
				"z": 1.9813166584,
				"element": "C" 
			},
			{
				"x": 0.5589962475,
				"y": -0.4347483724,
				"z": 1.0373096633,
				"element": "C" 
			},
			{
				"x": -0.8975521299,
				"y": -0.0566763457,
				"z": 1.1418931483,
				"element": "C" 
			},
			{
				"x": -1.6293210683,
				"y": -0.7722583113,
				"z": 2.3048025027,
				"element": "C" 
			},
			{
				"x": -2.9042636614,
				"y": -0.0244642164,
				"z": 2.6968915162,
				"element": "C" 
			},
			{
				"x": -2.5516942866,
				"y": 1.2743834099,
				"z": 3.2964867327,
				"element": "N" 
			},
			{
				"x": -1.3500416331,
				"y": 1.8986003484,
				"z": 2.7107990645,
				"element": "C" 
			},
			{
				"x": -1.1045598885,
				"y": 1.4912416055,
				"z": 1.2530895501,
				"element": "C" 
			},
			{
				"x": 1.3958707982,
				"y": -0.2146859612,
				"z": -0.12192317,
				"element": "C" 
			},
			{
				"x": 1.1629359374,
				"y": 0.3370368949,
				"z": -1.3946016889,
				"element": "C" 
			},
			{
				"x": 2.2158759117,
				"y": 0.4034862601,
				"z": -2.2972034103,
				"element": "C" 
			},
			{
				"x": 3.4987847368,
				"y": -0.0701592721,
				"z": -1.9553973648,
				"element": "C" 
			},
			{
				"x": 6.2355199751,
				"y": -3.0591090693,
				"z": -0.165772648,
				"element": "H" 
			},
			{
				"x": 5.0292078296,
				"y": -3.0460001207,
				"z": -1.4655142868,
				"element": "H" 
			},
			{
				"x": 4.5094509424,
				"y": -3.1948655726,
				"z": 0.2125019043,
				"element": "H" 
			},
			{
				"x": 5.8893473373,
				"y": -0.7257928485,
				"z": -1.0189462206,
				"element": "H" 
			},
			{
				"x": 5.4174747495,
				"y": -0.8531879668,
				"z": 0.6625611036,
				"element": "H" 
			},
			{
				"x": 3.4196377032,
				"y": -1.5828546561,
				"z": 1.9849324057,
				"element": "H" 
			},
			{
				"x": 1.1376656858,
				"y": -1.3539737229,
				"z": 2.9826489376,
				"element": "H" 
			},
			{
				"x": -1.3813938628,
				"y": -0.376809497,
				"z": 0.2083189079,
				"element": "H" 
			},
			{
				"x": -1.8595354795,
				"y": -1.8058506615,
				"z": 2.0267469687,
				"element": "H" 
			},
			{
				"x": -0.989379845,
				"y": -0.8183611136,
				"z": 3.1935382858,
				"element": "H" 
			},
			{
				"x": -3.5438968449,
				"y": 0.0722009152,
				"z": 1.8003180986,
				"element": "H" 
			},
			{
				"x": -3.4784279052,
				"y": -0.6084077846,
				"z": 3.4275092554,
				"element": "H" 
			},
			{
				"x": -3.3390388654,
				"y": 1.9082975677,
				"z": 3.2084064205,
				"element": "H" 
			},
			{
				"x": -0.4690204923,
				"y": 1.6211501613,
				"z": 3.3069991839,
				"element": "H" 
			},
			{
				"x": -1.4467543647,
				"y": 2.9856648521,
				"z": 2.8015630687,
				"element": "H" 
			},
			{
				"x": -1.9705940538,
				"y": 1.7929763199,
				"z": 0.6499600704,
				"element": "H" 
			},
			{
				"x": -0.235741367,
				"y": 2.0190814817,
				"z": 0.8470296081,
				"element": "H" 
			},
			{
				"x": 0.1784701478,
				"y": 0.7072283333,
				"z": -1.666734387,
				"element": "H" 
			},
			{
				"x": 2.0554364853,
				"y": 0.8300115782,
				"z": -3.2832848069,
				"element": "H" 
			},
			{
				"x": 4.3021062,
				"y": 0.0032589124,
				"z": -2.6848247899,
				"element": "H" 
			}
		],
		 "valence_orbital": [ 
			{
				"type": "occ",
				"energy": -0.30226,
				"method": "rhf"
			},
			{
				"type": "occ",
				"energy": -0.25478,
				"method": "rhf"
			},
			{
				"type": "occ",
				"energy": -0.21224,
				"method": "rhf"
			},
			{
				"type": "occ",
				"energy": -0.20326,
				"method": "rhf"
			},
			{
				"type": "occ",
				"energy": -0.19214,
				"method": "rhf"
			},
			{
				"type": "unocc",
				"energy": -0.00151,
				"method": "rhf"
			},
			{
				"type": "unocc",
				"energy": 0.03276,
				"method": "rhf"
			},
			{
				"type": "unocc",
				"energy": 0.06423,
				"method": "rhf"
			},
			{
				"type": "unocc",
				"energy": 0.073,
				"method": "rhf"
			},
			{
				"type": "unocc",
				"energy": 0.08406,
				"method": "rhf"
			}
		],
		"cosmo_sigma_profile": { 
			"-0.025": 0.0,
			"-0.024": 0.0,
			"-0.023": 0.0,
			"-0.022": 0.0,
			"-0.021": 0.0,
			"-0.02": 0.0,
			"-0.019": 0.0,
			"-0.018": 0.0,
			"-0.017": 0.0,
			"-0.016": 0.0,
			"-0.015": 0.246599979072,
			"-0.014": 1.02133690921,
			"-0.013": 1.10559128418,
			"-0.012": 0.957937926258,
			"-0.011": 0.786820995017,
			"-0.01": 1.67530909593,
			"-0.009": 3.48769646306,
			"-0.008": 3.05923245209,
			"-0.007": 4.92795681165,
			"-0.006": 4.25585455958,
			"-0.005": 7.38615963578,
			"-0.004": 12.8478821197,
			"-0.003": 23.1395396705,
			"-0.002": 37.9773791372,
			"-0.001": 43.2347452264,
			"0.0": 37.3241505725,
			"0.001": 27.0291750788,
			"0.002": 13.0802054697,
			"0.003": 10.4261415182,
			"0.004": 9.49827395004,
			"0.005": 11.141982469,
			"0.006": 13.4439483537,
			"0.007": 10.1704208639,
			"0.008": 5.25800935444,
			"0.009": 0.793525201496,
			"0.01": 0.567127491014,
			"0.011": 0.569334372735,
			"0.012": 0.433798661497,
			"0.013": 0.666943851653,
			"0.014": 0.702004967163,
			"0.015": 0.544334351647,
			"0.016": 0.402588231051,
			"0.017": 0.759218586755,
			"0.018": 0.454131917225,
			"0.019": 0.447883344848,
			"0.02": 0.047816612082,
			"0.021": 0.0,
			"0.022": 0.0,
			"0.023": 0.0,
			"0.024": 0.0,
			"0.025": 0.0
		}
	}
}
