{
	 "smiles": "COC1=CC=C(C=C1)N1C(N)=NC2=C1C=CC=C2", 
	 "Tm": 455.15, 
	 "num_atms": 31, 
	 "gaussian": { 
		 "optdone": 1, 
		 "sigma_profile": "yes", 
		 "theory": "DFT", 
		 "functional": "B3LYP", 
		 "basiset": "6-31G**", 
		 "properties": { 
			 "R2extent": 6003.5201, 
			 "electric_dipole_moment_norm": 5.3963584249, 
			 "electric_quadrupole_moment_norm": 11.4329335264, 
			 "total_energy": -780.80917133, 
			 "HOMO_LUMO_gap": 0.17509, 
			 "cosmo_polarized_energy": -15.43, 
			 "cosmo_cavitation_energy": 34.8, 
			 "cosmo_dispersion_energy": -25.32, 
			 "cosmo_repulsion_energy": 1.94, 
			 "cosmo_total_nonelectrostatic_energy": 11.42, 
			 "SMD_solvation_energy": 4.57 
		},
		"coords": [
			{
				"x": 2.2962492619,
				"y": 0.8775836125,
				"z": -5.2581319589,
				"element": "C" 
			},
			{
				"x": 1.1917017549,
				"y": 0.1600084431,
				"z": -4.7281180592,
				"element": "O" 
			},
			{
				"x": 0.7476497851,
				"y": 0.4842514033,
				"z": -3.4816326536,
				"element": "C" 
			},
			{
				"x": -0.3398351655,
				"y": -0.2667355793,
				"z": -3.0079559118,
				"element": "C" 
			},
			{
				"x": -0.8632202684,
				"y": -0.0262873856,
				"z": -1.7450511933,
				"element": "C" 
			},
			{
				"x": -0.3246921162,
				"y": 0.9887667498,
				"z": -0.9378486579,
				"element": "C" 
			},
			{
				"x": 0.7506607898,
				"y": 1.7423181903,
				"z": -1.4149059953,
				"element": "C" 
			},
			{
				"x": 1.2961752911,
				"y": 1.4895178841,
				"z": -2.6753294381,
				"element": "C" 
			},
			{
				"x": -0.8606145848,
				"y": 1.2434978567,
				"z": 0.3554316685,
				"element": "N" 
			},
			{
				"x": -2.1823169627,
				"y": 1.5392079585,
				"z": 0.6757387618,
				"element": "C" 
			},
			{
				"x": -3.16919166,
				"y": 1.5322458878,
				"z": -0.2889511985,
				"element": "N" 
			},
			{
				"x": -2.3892321136,
				"y": 1.7622919713,
				"z": 1.9498594672,
				"element": "N" 
			},
			{
				"x": -1.1412004797,
				"y": 1.6090450819,
				"z": 2.5421643598,
				"element": "C" 
			},
			{
				"x": -0.1617400622,
				"y": 1.2943118616,
				"z": 1.5707013206,
				"element": "C" 
			},
			{
				"x": 1.1747748004,
				"y": 1.078193319,
				"z": 1.8926827827,
				"element": "C" 
			},
			{
				"x": 1.5268667976,
				"y": 1.196080037,
				"z": 3.2401287518,
				"element": "C" 
			},
			{
				"x": 0.5704605445,
				"y": 1.5155090031,
				"z": 4.2182305535,
				"element": "C" 
			},
			{
				"x": -0.7685192926,
				"y": 1.7222516832,
				"z": 3.8843582345,
				"element": "C" 
			},
			{
				"x": 2.4831441359,
				"y": 0.4549029344,
				"z": -6.2462201508,
				"element": "H" 
			},
			{
				"x": 2.0727687691,
				"y": 1.9473135706,
				"z": -5.3599608506,
				"element": "H" 
			},
			{
				"x": 3.1932059962,
				"y": 0.7552834944,
				"z": -4.6376978579,
				"element": "H" 
			},
			{
				"x": -0.7470089369,
				"y": -1.0457745701,
				"z": -3.643804293,
				"element": "H" 
			},
			{
				"x": -1.691525899,
				"y": -0.620291679,
				"z": -1.3737962051,
				"element": "H" 
			},
			{
				"x": 1.1631056176,
				"y": 2.5333642373,
				"z": -0.7970251336,
				"element": "H" 
			},
			{
				"x": 2.1334706184,
				"y": 2.0858837002,
				"z": -3.0171363187,
				"element": "H" 
			},
			{
				"x": -2.8863334434,
				"y": 1.8516356028,
				"z": -1.206491051,
				"element": "H" 
			},
			{
				"x": -4.0164247878,
				"y": 1.9714715808,
				"z": 0.0460442628,
				"element": "H" 
			},
			{
				"x": 1.9105567051,
				"y": 0.8228283748,
				"z": 1.1369235594,
				"element": "H" 
			},
			{
				"x": 2.5598173972,
				"y": 1.034346525,
				"z": 3.5339100021,
				"element": "H" 
			},
			{
				"x": 0.8809438923,
				"y": 1.5997919605,
				"z": 5.2557558102,
				"element": "H" 
			},
			{
				"x": -1.5122963842,
				"y": 1.9619862901,
				"z": 4.6375273924,
				"element": "H" 
			}
		],
		 "valence_orbital": [ 
			{
				"type": "occ",
				"energy": -0.26774,
				"method": "rhf"
			},
			{
				"type": "occ",
				"energy": -0.26299,
				"method": "rhf"
			},
			{
				"type": "occ",
				"energy": -0.23609,
				"method": "rhf"
			},
			{
				"type": "occ",
				"energy": -0.20647,
				"method": "rhf"
			},
			{
				"type": "occ",
				"energy": -0.19392,
				"method": "rhf"
			},
			{
				"type": "unocc",
				"energy": -0.01883,
				"method": "rhf"
			},
			{
				"type": "unocc",
				"energy": -0.00921,
				"method": "rhf"
			},
			{
				"type": "unocc",
				"energy": 0.00826,
				"method": "rhf"
			},
			{
				"type": "unocc",
				"energy": 0.03653,
				"method": "rhf"
			},
			{
				"type": "unocc",
				"energy": 0.07598,
				"method": "rhf"
			}
		],
		"cosmo_sigma_profile": { 
			"-0.025": 0.0,
			"-0.024": 0.0,
			"-0.023": 0.0,
			"-0.022": 0.0,
			"-0.021": 0.0,
			"-0.02": 0.0,
			"-0.019": 0.0,
			"-0.018": 0.0,
			"-0.017": 0.0,
			"-0.016": 0.0,
			"-0.015": 0.0,
			"-0.014": 0.435845771423,
			"-0.013": 1.77972884409,
			"-0.012": 2.49821315434,
			"-0.011": 1.80844232622,
			"-0.01": 2.58552924286,
			"-0.009": 2.15894999228,
			"-0.008": 1.97344838811,
			"-0.007": 4.38603395128,
			"-0.006": 14.1960817185,
			"-0.005": 24.3151993615,
			"-0.004": 23.4959545098,
			"-0.003": 24.3160141706,
			"-0.002": 18.4578927328,
			"-0.001": 15.418789867,
			"0.0": 16.7327237129,
			"0.001": 15.6093395616,
			"0.002": 15.8922057523,
			"0.003": 19.944423847,
			"0.004": 18.4353342876,
			"0.005": 12.6874459928,
			"0.006": 13.0874005123,
			"0.007": 9.79063861864,
			"0.008": 3.14431611068,
			"0.009": 4.26004176152,
			"0.01": 2.50046626357,
			"0.011": 1.15934010877,
			"0.012": 1.44033763322,
			"0.013": 1.17129783948,
			"0.014": 1.20110135266,
			"0.015": 0.834619016606,
			"0.016": 1.1346724173,
			"0.017": 0.729477744067,
			"0.018": 0.439379807081,
			"0.019": 0.0,
			"0.02": 0.0,
			"0.021": 0.0,
			"0.022": 0.0,
			"0.023": 0.0,
			"0.024": 0.0,
			"0.025": 0.0
		}
	}
}
