{
	 "smiles": "OC(=O)C(=CC1=CC=C(Cl)C=C1)C#N", 
	 "Tm": 475.15, 
	 "num_atms": 20, 
	 "gaussian": { 
		 "optdone": 1, 
		 "sigma_profile": "yes", 
		 "theory": "DFT", 
		 "functional": "B3LYP", 
		 "basiset": "6-31G**", 
		 "properties": { 
			 "R2extent": 4745.6797, 
			 "electric_dipole_moment_norm": 2.81766263594, 
			 "electric_quadrupole_moment_norm": 25.0672210025, 
			 "total_energy": -1050.04830709, 
			 "HOMO_LUMO_gap": 0.1485, 
			 "cosmo_polarized_energy": -14.37, 
			 "cosmo_cavitation_energy": 28.4, 
			 "cosmo_dispersion_energy": -20.41, 
			 "cosmo_repulsion_energy": 1.6, 
			 "cosmo_total_nonelectrostatic_energy": 9.59, 
			 "SMD_solvation_energy": 7.13 
		},
		"coords": [
			{
				"x": -0.2776103065,
				"y": -3.4362626058,
				"z": -1.7423311434,
				"element": "O" 
			},
			{
				"x": -0.1690813244,
				"y": -2.5490137764,
				"z": -0.7316197774,
				"element": "C" 
			},
			{
				"x": 0.1510802837,
				"y": -2.8917016327,
				"z": 0.3911444253,
				"element": "O" 
			},
			{
				"x": -0.4866551879,
				"y": -1.1700588035,
				"z": -1.1929164822,
				"element": "C" 
			},
			{
				"x": -0.4899165796,
				"y": -0.003983803,
				"z": -0.4715613908,
				"element": "C" 
			},
			{
				"x": -0.2234700239,
				"y": 0.4032834402,
				"z": 0.9003252831,
				"element": "C" 
			},
			{
				"x": 0.1585962098,
				"y": -0.4285136953,
				"z": 1.9763246003,
				"element": "C" 
			},
			{
				"x": 0.3808679044,
				"y": 0.1037512651,
				"z": 3.2409597839,
				"element": "C" 
			},
			{
				"x": 0.2262853485,
				"y": 1.4750205792,
				"z": 3.4559943238,
				"element": "C" 
			},
			{
				"x": 0.5081692923,
				"y": 2.1362800876,
				"z": 5.0510714628,
				"element": "Cl" 
			},
			{
				"x": -0.1502666154,
				"y": 2.3275772368,
				"z": 2.4163776156,
				"element": "C" 
			},
			{
				"x": -0.3701993014,
				"y": 1.7877228055,
				"z": 1.1568831226,
				"element": "C" 
			},
			{
				"x": -0.8375658136,
				"y": -1.0404666635,
				"z": -2.5812314737,
				"element": "C" 
			},
			{
				"x": -1.1265503535,
				"y": -0.8919592931,
				"z": -3.6984823992,
				"element": "N" 
			},
			{
				"x": -0.0573273664,
				"y": -4.3052145412,
				"z": -1.3676754498,
				"element": "H" 
			},
			{
				"x": -0.7657376404,
				"y": 0.8490431896,
				"z": -1.0889014515,
				"element": "H" 
			},
			{
				"x": 0.2781554879,
				"y": -1.4893961488,
				"z": 1.8093234742,
				"element": "H" 
			},
			{
				"x": 0.6739126957,
				"y": -0.5419101934,
				"z": 4.0612732877,
				"element": "H" 
			},
			{
				"x": -0.267199027,
				"y": 3.3902944274,
				"z": 2.5951306978,
				"element": "H" 
			},
			{
				"x": -0.6632876825,
				"y": 2.4506081253,
				"z": 0.3475114911,
				"element": "H" 
			}
		],
		 "valence_orbital": [ 
			{
				"type": "occ",
				"energy": -0.32977,
				"method": "rhf"
			},
			{
				"type": "occ",
				"energy": -0.30594,
				"method": "rhf"
			},
			{
				"type": "occ",
				"energy": -0.2964,
				"method": "rhf"
			},
			{
				"type": "occ",
				"energy": -0.28442,
				"method": "rhf"
			},
			{
				"type": "occ",
				"energy": -0.25302,
				"method": "rhf"
			},
			{
				"type": "unocc",
				"energy": -0.10452,
				"method": "rhf"
			},
			{
				"type": "unocc",
				"energy": -0.03207,
				"method": "rhf"
			},
			{
				"type": "unocc",
				"energy": -0.01228,
				"method": "rhf"
			},
			{
				"type": "unocc",
				"energy": 0.0142,
				"method": "rhf"
			},
			{
				"type": "unocc",
				"energy": 0.0211,
				"method": "rhf"
			}
		],
		"cosmo_sigma_profile": { 
			"-0.025": 0.0,
			"-0.024": 0.0,
			"-0.023": 0.0,
			"-0.022": 0.0,
			"-0.021": 0.0,
			"-0.02": 0.0170515936489,
			"-0.019": 1.02299947213,
			"-0.018": 0.574636962437,
			"-0.017": 0.864053433709,
			"-0.016": 0.917216528813,
			"-0.015": 0.937819922275,
			"-0.014": 0.0805692593702,
			"-0.013": 0.90322153536,
			"-0.012": 0.742791635757,
			"-0.011": 1.27455510864,
			"-0.01": 2.79258272466,
			"-0.009": 3.48865312809,
			"-0.008": 7.15256320985,
			"-0.007": 8.05108036318,
			"-0.006": 7.50571478495,
			"-0.005": 7.66521168028,
			"-0.004": 11.2570546051,
			"-0.003": 13.2968033927,
			"-0.002": 17.178698763,
			"-0.001": 16.2935829524,
			"0.0": 20.0343103941,
			"0.001": 26.2915254852,
			"0.002": 17.841495262,
			"0.003": 12.3470006915,
			"0.004": 12.4165211035,
			"0.005": 4.02303400086,
			"0.006": 5.61333620089,
			"0.007": 5.61200198567,
			"0.008": 7.25014594438,
			"0.009": 6.02745335988,
			"0.01": 4.8925594743,
			"0.011": 4.07402232666,
			"0.012": 2.44214006366,
			"0.013": 1.53118060644,
			"0.014": 0.0329388666122,
			"0.015": 0.0,
			"0.016": 0.0,
			"0.017": 0.0,
			"0.018": 0.0,
			"0.019": 0.0,
			"0.02": 0.0,
			"0.021": 0.0,
			"0.022": 0.0,
			"0.023": 0.0,
			"0.024": 0.0,
			"0.0": 0.0
		}
	}
}
