{
	 "smiles": "CCSC1=NN=C(CCN2C(C)=NC3=CC=CC=C23)N1C1=CC=CC=C1", 
	 "Tm": 383.15, 
	 "num_atms": 47, 
	 "gaussian": { 
		 "optdone": 1, 
		 "sigma_profile": "yes", 
		 "theory": "DFT", 
		 "functional": "B3LYP", 
		 "basiset": "6-31G**", 
		 "properties": { 
			 "R2extent": 12900.8456, 
			 "electric_dipole_moment_norm": 5.24712743318, 
			 "electric_quadrupole_moment_norm": 19.1943296127, 
			 "total_energy": -1446.73951233, 
			 "HOMO_LUMO_gap": 0.1797, 
			 "cosmo_polarized_energy": -21.96, 
			 "cosmo_cavitation_energy": 52.46, 
			 "cosmo_dispersion_energy": -35.7, 
			 "cosmo_repulsion_energy": 2.71, 
			 "cosmo_total_nonelectrostatic_energy": 19.47, 
			 "SMD_solvation_energy": 4.59 
		},
		"coords": [
			{
				"x": 5.9115872821,
				"y": 0.4922162355,
				"z": -1.1931455121,
				"element": "C" 
			},
			{
				"x": 5.6261244742,
				"y": -0.8706584864,
				"z": -0.5705621203,
				"element": "C" 
			},
			{
				"x": 4.4309622226,
				"y": -0.827656114,
				"z": 0.8342994586,
				"element": "S" 
			},
			{
				"x": 2.931876038,
				"y": -0.6403921875,
				"z": -0.0741558289,
				"element": "C" 
			},
			{
				"x": 2.7897094258,
				"y": -0.6441344227,
				"z": -1.3785142488,
				"element": "N" 
			},
			{
				"x": 1.4410661628,
				"y": -0.4705150603,
				"z": -1.6445603417,
				"element": "N" 
			},
			{
				"x": 0.811435419,
				"y": -0.3630588411,
				"z": -0.5022141449,
				"element": "C" 
			},
			{
				"x": -0.6651871206,
				"y": -0.1906562102,
				"z": -0.3334844719,
				"element": "C" 
			},
			{
				"x": -1.38517565,
				"y": -0.168472921,
				"z": -1.6934542444,
				"element": "C" 
			},
			{
				"x": -2.8189893714,
				"y": 0.0246521088,
				"z": -1.5475141674,
				"element": "N" 
			},
			{
				"x": -3.8084631834,
				"y": -0.9488277544,
				"z": -1.5111724697,
				"element": "C" 
			},
			{
				"x": -3.5165089222,
				"y": -2.4006927294,
				"z": -1.7136365218,
				"element": "C" 
			},
			{
				"x": -5.00807879,
				"y": -0.459026224,
				"z": -1.2988550293,
				"element": "N" 
			},
			{
				"x": -4.8264855481,
				"y": 0.9108816926,
				"z": -1.1786622778,
				"element": "C" 
			},
			{
				"x": -5.763431105,
				"y": 1.925826239,
				"z": -0.9504742302,
				"element": "C" 
			},
			{
				"x": -5.3047101417,
				"y": 3.2383031535,
				"z": -0.8771991156,
				"element": "C" 
			},
			{
				"x": -3.9386377413,
				"y": 3.5467044999,
				"z": -1.0299860092,
				"element": "C" 
			},
			{
				"x": -2.9889137204,
				"y": 2.5519143652,
				"z": -1.2581135373,
				"element": "C" 
			},
			{
				"x": -3.4579928935,
				"y": 1.2380314345,
				"z": -1.3281191305,
				"element": "C" 
			},
			{
				"x": 1.7112124431,
				"y": -0.4615332747,
				"z": 0.5474489463,
				"element": "N" 
			},
			{
				"x": 1.4339717515,
				"y": -0.4054329668,
				"z": 1.9515346467,
				"element": "C" 
			},
			{
				"x": 1.093980414,
				"y": 0.8156155885,
				"z": 2.54142024,
				"element": "C" 
			},
			{
				"x": 0.8062534317,
				"y": 0.8633167699,
				"z": 3.9053433755,
				"element": "C" 
			},
			{
				"x": 0.8700441239,
				"y": -0.2990887599,
				"z": 4.6767228839,
				"element": "C" 
			},
			{
				"x": 1.2193903409,
				"y": -1.5139027471,
				"z": 4.0833325621,
				"element": "C" 
			},
			{
				"x": 1.4972118911,
				"y": -1.5733597454,
				"z": 2.7175817921,
				"element": "C" 
			},
			{
				"x": 6.6617211261,
				"y": 0.3824204207,
				"z": -1.9848187824,
				"element": "H" 
			},
			{
				"x": 5.004774418,
				"y": 0.9035749167,
				"z": -1.6408100198,
				"element": "H" 
			},
			{
				"x": 6.2965623893,
				"y": 1.1981730611,
				"z": -0.4518069177,
				"element": "H" 
			},
			{
				"x": 5.2283494579,
				"y": -1.5706674463,
				"z": -1.3075729606,
				"element": "H" 
			},
			{
				"x": 6.523100114,
				"y": -1.3088356462,
				"z": -0.1230195031,
				"element": "H" 
			},
			{
				"x": -0.8857741429,
				"y": 0.7363859245,
				"z": 0.2093122952,
				"element": "H" 
			},
			{
				"x": -1.0689522006,
				"y": -1.002679153,
				"z": 0.2850667887,
				"element": "H" 
			},
			{
				"x": -0.980503242,
				"y": 0.6317306783,
				"z": -2.3183945289,
				"element": "H" 
			},
			{
				"x": -1.2020359811,
				"y": -1.1000517563,
				"z": -2.2311865682,
				"element": "H" 
			},
			{
				"x": -4.4558919839,
				"y": -2.9489830912,
				"z": -1.6381587825,
				"element": "H" 
			},
			{
				"x": -2.8223660707,
				"y": -2.7923208922,
				"z": -0.9608908395,
				"element": "H" 
			},
			{
				"x": -3.0777748786,
				"y": -2.5951912236,
				"z": -2.6992596863,
				"element": "H" 
			},
			{
				"x": -6.814997356,
				"y": 1.6819531185,
				"z": -0.8374366477,
				"element": "H" 
			},
			{
				"x": -6.0114013155,
				"y": 4.0440207779,
				"z": -0.7010162513,
				"element": "H" 
			},
			{
				"x": -3.6174209663,
				"y": 4.5825596921,
				"z": -0.970504497,
				"element": "H" 
			},
			{
				"x": -1.9381180585,
				"y": 2.7977072234,
				"z": -1.3810512891,
				"element": "H" 
			},
			{
				"x": 1.0669497502,
				"y": 1.7147750904,
				"z": 1.9341182747,
				"element": "H" 
			},
			{
				"x": 0.5394062159,
				"y": 1.8098066968,
				"z": 4.3652432459,
				"element": "H" 
			},
			{
				"x": 0.6493064791,
				"y": -0.2577981477,
				"z": 5.7390058063,
				"element": "H" 
			},
			{
				"x": 1.2705090248,
				"y": -2.418604661,
				"z": 4.6812622844,
				"element": "H" 
			},
			{
				"x": 1.7624059874,
				"y": -2.5118292251,
				"z": 2.2416580752,
				"element": "H" 
			}
		],
		 "valence_orbital": [ 
			{
				"type": "occ",
				"energy": -0.26016,
				"method": "rhf"
			},
			{
				"type": "occ",
				"energy": -0.25335,
				"method": "rhf"
			},
			{
				"type": "occ",
				"energy": -0.22249,
				"method": "rhf"
			},
			{
				"type": "occ",
				"energy": -0.21708,
				"method": "rhf"
			},
			{
				"type": "occ",
				"energy": -0.21395,
				"method": "rhf"
			},
			{
				"type": "unocc",
				"energy": -0.03425,
				"method": "rhf"
			},
			{
				"type": "unocc",
				"energy": -0.02866,
				"method": "rhf"
			},
			{
				"type": "unocc",
				"energy": -0.00796,
				"method": "rhf"
			},
			{
				"type": "unocc",
				"energy": 0.01591,
				"method": "rhf"
			},
			{
				"type": "unocc",
				"energy": 0.02449,
				"method": "rhf"
			}
		],
		"cosmo_sigma_profile": { 
			"-0.025": 0.0,
			"-0.024": 0.0,
			"-0.023": 0.0,
			"-0.022": 0.0,
			"-0.021": 0.0,
			"-0.02": 0.0,
			"-0.019": 0.0,
			"-0.018": 0.0,
			"-0.017": 0.0,
			"-0.016": 0.0,
			"-0.015": 0.0,
			"-0.014": 0.0,
			"-0.013": 0.0,
			"-0.012": 0.0,
			"-0.011": 0.0,
			"-0.01": 0.0,
			"-0.009": 0.0,
			"-0.008": 0.355426580448,
			"-0.007": 14.0800267918,
			"-0.006": 33.1361009181,
			"-0.005": 36.0374482319,
			"-0.004": 36.8619007838,
			"-0.003": 37.8778621846,
			"-0.002": 36.6199063561,
			"-0.001": 29.0661560762,
			"0.0": 27.5242339017,
			"0.001": 24.9015305832,
			"0.002": 23.5210057589,
			"0.003": 26.4191193137,
			"0.004": 23.062394922,
			"0.005": 15.9942999292,
			"0.006": 14.6540384676,
			"0.007": 8.3487931327,
			"0.008": 3.87798241913,
			"0.009": 3.73261579381,
			"0.01": 3.02126175617,
			"0.011": 3.45945593614,
			"0.012": 2.89742736255,
			"0.013": 3.98477344187,
			"0.014": 3.85529240651,
			"0.015": 3.10893342326,
			"0.016": 1.74860476927,
			"0.017": 0.686589021627,
			"0.018": 0.600842125408,
			"0.019": 0.00883511530488,
			"0.02": 0.0,
			"0.021": 0.0,
			"0.022": 0.0,
			"0.023": 0.0,
			"0.024": 0.0,
			"0.025": 0.0
		}
	}
}
