{
	 "smiles": "NC1=CC(F)=C(N2C=CN=C2)C(F)=C1", 
	 "Tm": 433.15, 
	 "num_atms": 21, 
	 "gaussian": { 
		 "optdone": 1, 
		 "sigma_profile": "yes", 
		 "theory": "DFT", 
		 "functional": "B3LYP", 
		 "basiset": "6-31G**", 
		 "properties": { 
			 "R2extent": 3396.1406, 
			 "electric_dipole_moment_norm": 6.97491452062, 
			 "electric_quadrupole_moment_norm": 14.4277212906, 
			 "total_energy": -711.083065129, 
			 "HOMO_LUMO_gap": 0.19945, 
			 "cosmo_polarized_energy": -14.99, 
			 "cosmo_cavitation_energy": 26.46, 
			 "cosmo_dispersion_energy": -19.24, 
			 "cosmo_repulsion_energy": 1.45, 
			 "cosmo_total_nonelectrostatic_energy": 8.67, 
			 "SMD_solvation_energy": 4.5 
		},
		"coords": [
			{
				"x": 4.2731275331,
				"y": 1.6731380576,
				"z": 1.8069585434,
				"element": "N" 
			},
			{
				"x": 2.9701118482,
				"y": 1.5359461336,
				"z": 1.3545629694,
				"element": "C" 
			},
			{
				"x": 1.8946688036,
				"y": 2.0432580146,
				"z": 2.1047897202,
				"element": "C" 
			},
			{
				"x": 0.5980733307,
				"y": 1.8527864856,
				"z": 1.6572033264,
				"element": "C" 
			},
			{
				"x": -0.4104951861,
				"y": 2.3603851155,
				"z": 2.3906562894,
				"element": "F" 
			},
			{
				"x": 0.2830432839,
				"y": 1.1538923344,
				"z": 0.484246038,
				"element": "C" 
			},
			{
				"x": -1.050270424,
				"y": 0.9655626926,
				"z": 0.053895082,
				"element": "N" 
			},
			{
				"x": -1.5437405013,
				"y": 1.1222014935,
				"z": -1.2362609218,
				"element": "C" 
			},
			{
				"x": -2.8789281649,
				"y": 0.8335250098,
				"z": -1.1553224262,
				"element": "C" 
			},
			{
				"x": -3.2332472147,
				"y": 0.5020405782,
				"z": 0.136672578,
				"element": "N" 
			},
			{
				"x": -2.1257072306,
				"y": 0.5894033962,
				"z": 0.8319331142,
				"element": "C" 
			},
			{
				"x": 1.3799741059,
				"y": 0.6573977569,
				"z": -0.2321262288,
				"element": "C" 
			},
			{
				"x": 1.1461459252,
				"y": -0.0177261193,
				"z": -1.3734262196,
				"element": "F" 
			},
			{
				"x": 2.6941847432,
				"y": 0.8391937656,
				"z": 0.1648586261,
				"element": "C" 
			},
			{
				"x": 4.4445760101,
				"y": 2.4235513521,
				"z": 2.4600544222,
				"element": "H" 
			},
			{
				"x": 5.0010308397,
				"y": 1.5763418912,
				"z": 1.1143538282,
				"element": "H" 
			},
			{
				"x": 2.0533291612,
				"y": 2.5863391392,
				"z": 3.0299376549,
				"element": "H" 
			},
			{
				"x": -0.90338876,
				"y": 1.4080843936,
				"z": -2.0542995169,
				"element": "H" 
			},
			{
				"x": -3.6076947679,
				"y": 0.8446040071,
				"z": -1.9539531485,
				"element": "H" 
			},
			{
				"x": -2.018915674,
				"y": 0.4037149626,
				"z": 1.8904930195,
				"element": "H" 
			},
			{
				"x": 3.4869223388,
				"y": 0.4228595393,
				"z": -0.4469267501,
				"element": "H" 
			}
		],
		 "valence_orbital": [ 
			{
				"type": "occ",
				"energy": -0.27671,
				"method": "rhf"
			},
			{
				"type": "occ",
				"energy": -0.25997,
				"method": "rhf"
			},
			{
				"type": "occ",
				"energy": -0.25882,
				"method": "rhf"
			},
			{
				"type": "occ",
				"energy": -0.22577,
				"method": "rhf"
			},
			{
				"type": "occ",
				"energy": -0.21388,
				"method": "rhf"
			},
			{
				"type": "unocc",
				"energy": -0.01443,
				"method": "rhf"
			},
			{
				"type": "unocc",
				"energy": -0.01301,
				"method": "rhf"
			},
			{
				"type": "unocc",
				"energy": 0.04085,
				"method": "rhf"
			},
			{
				"type": "unocc",
				"energy": 0.05852,
				"method": "rhf"
			},
			{
				"type": "unocc",
				"energy": 0.07127,
				"method": "rhf"
			}
		],
		"cosmo_sigma_profile": { 
			"-0.025": 0.0,
			"-0.024": 0.0,
			"-0.023": 0.0,
			"-0.022": 0.0,
			"-0.021": 0.0,
			"-0.02": 0.0,
			"-0.019": 0.0,
			"-0.018": 0.0,
			"-0.017": 0.0,
			"-0.016": 0.0,
			"-0.015": 0.0,
			"-0.014": 0.485880998352,
			"-0.013": 3.2249653543,
			"-0.012": 2.78237411318,
			"-0.011": 3.38172567815,
			"-0.01": 3.32431605051,
			"-0.009": 4.12039755784,
			"-0.008": 6.951132325,
			"-0.007": 7.21458916898,
			"-0.006": 8.97371343282,
			"-0.005": 9.35106473916,
			"-0.004": 7.60013935687,
			"-0.003": 8.46272983073,
			"-0.002": 8.25224493401,
			"-0.001": 12.3767879579,
			"0.0": 16.3678663827,
			"0.001": 19.0286589739,
			"0.002": 18.5452080078,
			"0.003": 25.5947388689,
			"0.004": 16.3721115428,
			"0.005": 6.51035558606,
			"0.006": 4.41627863501,
			"0.007": 2.10707171449,
			"0.008": 2.43619881642,
			"0.009": 3.10856984545,
			"0.01": 1.67801900699,
			"0.011": 1.85083758561,
			"0.012": 1.94805072644,
			"0.013": 1.05490437192,
			"0.014": 1.43192395991,
			"0.015": 1.33328051744,
			"0.016": 0.868780981674,
			"0.017": 1.23708782956,
			"0.018": 0.475168064113,
			"0.019": 0.0,
			"0.02": 0.0,
			"0.021": 0.0,
			"0.022": 0.0,
			"0.023": 0.0,
			"0.024": 0.0,
			"0.025": 0.0
		}
	}
}
