{
	 "smiles": "CC1=C(SC=C1)C(=O)C1=C(F)C=C(Cl)C=C1", 
	 "Tm": 313.15, 
	 "num_atms": 24, 
	 "gaussian": { 
		 "optdone": 1, 
		 "sigma_profile": "yes", 
		 "theory": "DFT", 
		 "functional": "B3LYP", 
		 "basiset": "6-31G**", 
		 "properties": { 
			 "R2extent": 6101.798, 
			 "electric_dipole_moment_norm": 4.33996816924, 
			 "electric_quadrupole_moment_norm": 10.9813216896, 
			 "total_energy": -1495.52165808, 
			 "HOMO_LUMO_gap": 0.17151, 
			 "cosmo_polarized_energy": -11.33, 
			 "cosmo_cavitation_energy": 32.43, 
			 "cosmo_dispersion_energy": -23.38, 
			 "cosmo_repulsion_energy": 1.75, 
			 "cosmo_total_nonelectrostatic_energy": 10.81, 
			 "SMD_solvation_energy": 6.13 
		},
		"coords": [
			{
				"x": -0.9737642208,
				"y": 0.6837556666,
				"z": 0.1022551928,
				"element": "C" 
			},
			{
				"x": -0.695598969,
				"y": 0.1406429277,
				"z": -1.2772841171,
				"element": "C" 
			},
			{
				"x": 0.394125665,
				"y": -0.6240846518,
				"z": -1.6800187586,
				"element": "C" 
			},
			{
				"x": 0.3562817731,
				"y": -0.941342804,
				"z": -3.4047124041,
				"element": "S" 
			},
			{
				"x": -1.1336081167,
				"y": -0.096456296,
				"z": -3.5647212574,
				"element": "C" 
			},
			{
				"x": -1.5628566107,
				"y": 0.4285245957,
				"z": -2.3739996974,
				"element": "C" 
			},
			{
				"x": 1.579385802,
				"y": -1.1358648422,
				"z": -0.9704083208,
				"element": "C" 
			},
			{
				"x": 2.5910848216,
				"y": -1.4554030701,
				"z": -1.5848348595,
				"element": "O" 
			},
			{
				"x": 1.5181686427,
				"y": -1.3412586326,
				"z": 0.5187468347,
				"element": "C" 
			},
			{
				"x": 2.5719392974,
				"y": -0.93630021,
				"z": 1.3464333784,
				"element": "C" 
			},
			{
				"x": 3.5871892425,
				"y": -0.2284864017,
				"z": 0.8297283695,
				"element": "F" 
			},
			{
				"x": 2.5964758019,
				"y": -1.2064477693,
				"z": 2.7097989231,
				"element": "C" 
			},
			{
				"x": 1.53996994,
				"y": -1.9322371295,
				"z": 3.2575840251,
				"element": "C" 
			},
			{
				"x": 1.5558007495,
				"y": -2.2956554757,
				"z": 4.9721069046,
				"element": "Cl" 
			},
			{
				"x": 0.4741829786,
				"y": -2.370845212,
				"z": 2.4707189605,
				"element": "C" 
			},
			{
				"x": 0.4729441707,
				"y": -2.0628503163,
				"z": 1.1118109252,
				"element": "C" 
			},
			{
				"x": -0.0595332239,
				"y": 0.8872241726,
				"z": 0.6615483356,
				"element": "H" 
			},
			{
				"x": -1.5719837947,
				"y": -0.013779799,
				"z": 0.6995434454,
				"element": "H" 
			},
			{
				"x": -1.5407989913,
				"y": 1.6159760306,
				"z": 0.0254262946,
				"element": "H" 
			},
			{
				"x": -1.6154560337,
				"y": -0.0204135848,
				"z": -4.5304496118,
				"element": "H" 
			},
			{
				"x": -2.4680534538,
				"y": 1.0174621269,
				"z": -2.2709929352,
				"element": "H" 
			},
			{
				"x": 3.4248665918,
				"y": -0.8575620912,
				"z": 3.3140352767,
				"element": "H" 
			},
			{
				"x": -0.3324907678,
				"y": -2.9427860597,
				"z": 2.9139541847,
				"element": "H" 
			},
			{
				"x": -0.3472712944,
				"y": -2.403111174,
				"z": 0.4872309112,
				"element": "H" 
			}
		],
		 "valence_orbital": [ 
			{
				"type": "occ",
				"energy": -0.27285,
				"method": "rhf"
			},
			{
				"type": "occ",
				"energy": -0.26587,
				"method": "rhf"
			},
			{
				"type": "occ",
				"energy": -0.2576,
				"method": "rhf"
			},
			{
				"type": "occ",
				"energy": -0.2531,
				"method": "rhf"
			},
			{
				"type": "occ",
				"energy": -0.24584,
				"method": "rhf"
			},
			{
				"type": "unocc",
				"energy": -0.07433,
				"method": "rhf"
			},
			{
				"type": "unocc",
				"energy": -0.03076,
				"method": "rhf"
			},
			{
				"type": "unocc",
				"energy": -0.02325,
				"method": "rhf"
			},
			{
				"type": "unocc",
				"energy": 0.0151,
				"method": "rhf"
			},
			{
				"type": "unocc",
				"energy": 0.02139,
				"method": "rhf"
			}
		],
		"cosmo_sigma_profile": { 
			"-0.025": 0.0,
			"-0.024": 0.0,
			"-0.023": 0.0,
			"-0.022": 0.0,
			"-0.021": 0.0,
			"-0.02": 0.0,
			"-0.019": 0.0,
			"-0.018": 0.0,
			"-0.017": 0.0,
			"-0.016": 0.0,
			"-0.015": 0.0,
			"-0.014": 0.0,
			"-0.013": 0.0,
			"-0.012": 0.0,
			"-0.011": 0.0,
			"-0.01": 0.183856533155,
			"-0.009": 3.0459065485,
			"-0.008": 5.45642684215,
			"-0.007": 8.94444755298,
			"-0.006": 11.5754808209,
			"-0.005": 14.6091320577,
			"-0.004": 17.5816526215,
			"-0.003": 14.8067128862,
			"-0.002": 17.8661664629,
			"-0.001": 23.2726158721,
			"0.0": 25.7396324162,
			"0.001": 24.8046962588,
			"0.002": 24.1358297408,
			"0.003": 27.7925567414,
			"0.004": 21.0241678374,
			"0.005": 4.08790636946,
			"0.006": 2.86165702636,
			"0.007": 2.16992078293,
			"0.008": 2.05681361425,
			"0.009": 2.52036288286,
			"0.01": 2.91832307979,
			"0.011": 3.76429813017,
			"0.012": 3.65885201277,
			"0.013": 0.213402869675,
			"0.014": 0.0,
			"0.015": 0.0,
			"0.016": 0.0,
			"0.017": 0.0,
			"0.018": 0.0,
			"0.019": 0.0,
			"0.02": 0.0,
			"0.021": 0.0,
			"0.022": 0.0,
			"0.023": 0.0,
			"0.024": 0.0,
			"0.025": 0.0
		}
	}
}
