{
	 "smiles": "CCOCCOCCOCCO", 
	 "Tm": 254.45, 
	 "num_atms": 30, 
	 "gaussian": { 
		 "optdone": 1, 
		 "sigma_profile": "yes", 
		 "theory": "DFT", 
		 "functional": "B3LYP", 
		 "basiset": "6-31G**", 
		 "properties": { 
			 "R2extent": 5527.3088, 
			 "electric_dipole_moment_norm": 1.39016471326, 
			 "electric_quadrupole_moment_norm": 23.4543372965, 
			 "total_energy": -616.53560279, 
			 "HOMO_LUMO_gap": 0.31965, 
			 "cosmo_polarized_energy": -14.07, 
			 "cosmo_cavitation_energy": 32.76, 
			 "cosmo_dispersion_energy": -23.7, 
			 "cosmo_repulsion_energy": 2.0, 
			 "cosmo_total_nonelectrostatic_energy": 11.06, 
			 "SMD_solvation_energy": 5.76 
		},
		"coords": [
			{
				"x": -3.5907573265,
				"y": -3.5774419976,
				"z": 1.0558916107,
				"element": "C" 
			},
			{
				"x": -2.7380349105,
				"y": -3.1956464616,
				"z": -0.1516866927,
				"element": "C" 
			},
			{
				"x": -1.3553098987,
				"y": -3.0862163568,
				"z": 0.1747671509,
				"element": "O" 
			},
			{
				"x": -0.9586051863,
				"y": -1.8245749326,
				"z": 0.6881883477,
				"element": "C" 
			},
			{
				"x": -0.4737922093,
				"y": -0.909828765,
				"z": -0.4358887519,
				"element": "C" 
			},
			{
				"x": -0.0725566613,
				"y": 0.3132531065,
				"z": 0.1577184649,
				"element": "O" 
			},
			{
				"x": 0.2977536618,
				"y": 1.3299670909,
				"z": -0.7575940752,
				"element": "C" 
			},
			{
				"x": 1.7345950263,
				"y": 1.1712649566,
				"z": -1.2578955382,
				"element": "C" 
			},
			{
				"x": 2.0019614741,
				"y": 2.2837245806,
				"z": -2.0896048824,
				"element": "O" 
			},
			{
				"x": 3.2468412615,
				"y": 2.2449518924,
				"z": -2.761989741,
				"element": "C" 
			},
			{
				"x": 4.4540580379,
				"y": 2.5582732819,
				"z": -1.886031313,
				"element": "C" 
			},
			{
				"x": 4.3600627324,
				"y": 3.906323106,
				"z": -1.4577327621,
				"element": "O" 
			},
			{
				"x": -3.2364355951,
				"y": -4.517854636,
				"z": 1.488040734,
				"element": "H" 
			},
			{
				"x": -4.6389324188,
				"y": -3.7026791966,
				"z": 0.762281907,
				"element": "H" 
			},
			{
				"x": -3.5503009554,
				"y": -2.8083204286,
				"z": 1.8340944892,
				"element": "H" 
			},
			{
				"x": -2.8029316865,
				"y": -3.9745129693,
				"z": -0.9194548589,
				"element": "H" 
			},
			{
				"x": -3.1079525228,
				"y": -2.2628739411,
				"z": -0.6040669803,
				"element": "H" 
			},
			{
				"x": -1.7677875014,
				"y": -1.3276349927,
				"z": 1.2408246991,
				"element": "H" 
			},
			{
				"x": -0.1382302856,
				"y": -1.9971856932,
				"z": 1.3928111403,
				"element": "H" 
			},
			{
				"x": 0.3506502476,
				"y": -1.4053998888,
				"z": -0.9697818666,
				"element": "H" 
			},
			{
				"x": -1.2825010203,
				"y": -0.7389286828,
				"z": -1.1658313738,
				"element": "H" 
			},
			{
				"x": -0.3896914748,
				"y": 1.3648064312,
				"z": -1.6161259092,
				"element": "H" 
			},
			{
				"x": 0.2158953411,
				"y": 2.2818745765,
				"z": -0.2240887117,
				"element": "H" 
			},
			{
				"x": 1.8547426665,
				"y": 0.2302129504,
				"z": -1.8208152507,
				"element": "H" 
			},
			{
				"x": 2.4091161467,
				"y": 1.1258414521,
				"z": -0.3896540383,
				"element": "H" 
			},
			{
				"x": 3.1852413052,
				"y": 3.0025253343,
				"z": -3.5499785502,
				"element": "H" 
			},
			{
				"x": 3.4017926775,
				"y": 1.2619646476,
				"z": -3.2385166007,
				"element": "H" 
			},
			{
				"x": 4.4951323707,
				"y": 1.8619188062,
				"z": -1.0335218825,
				"element": "H" 
			},
			{
				"x": 5.3596850595,
				"y": 2.3814161001,
				"z": -2.4917872967,
				"element": "H" 
			},
			{
				"x": 5.0832916446,
				"y": 4.0789806294,
				"z": -0.8430714678,
				"element": "H" 
			}
		],
		 "valence_orbital": [ 
			{
				"type": "occ",
				"energy": -0.30269,
				"method": "rhf"
			},
			{
				"type": "occ",
				"energy": -0.26818,
				"method": "rhf"
			},
			{
				"type": "occ",
				"energy": -0.25433,
				"method": "rhf"
			},
			{
				"type": "occ",
				"energy": -0.25266,
				"method": "rhf"
			},
			{
				"type": "occ",
				"energy": -0.24956,
				"method": "rhf"
			},
			{
				"type": "unocc",
				"energy": 0.07009,
				"method": "rhf"
			},
			{
				"type": "unocc",
				"energy": 0.08415,
				"method": "rhf"
			},
			{
				"type": "unocc",
				"energy": 0.08784,
				"method": "rhf"
			},
			{
				"type": "unocc",
				"energy": 0.10386,
				"method": "rhf"
			},
			{
				"type": "unocc",
				"energy": 0.1161,
				"method": "rhf"
			}
		],
		"cosmo_sigma_profile": { 
			"-0.025": 0.0,
			"-0.024": 0.0,
			"-0.023": 0.0,
			"-0.022": 0.0,
			"-0.021": 0.0,
			"-0.02": 0.0,
			"-0.019": 0.0,
			"-0.018": 0.0,
			"-0.017": 0.0,
			"-0.016": 0.399676460278,
			"-0.015": 1.26887405568,
			"-0.014": 0.812122704611,
			"-0.013": 0.828316652112,
			"-0.012": 0.851199352319,
			"-0.011": 0.788781022186,
			"-0.01": 0.879405580452,
			"-0.009": 0.779365812277,
			"-0.008": 1.12047851664,
			"-0.007": 0.781166696611,
			"-0.006": 1.1067245703,
			"-0.005": 6.35263495237,
			"-0.004": 45.8412818545,
			"-0.003": 39.2819297057,
			"-0.002": 33.2278089313,
			"-0.001": 23.3821831647,
			"0.0": 15.8285574361,
			"0.001": 13.0838561647,
			"0.002": 7.27679006301,
			"0.003": 5.59291381616,
			"0.004": 6.45257872345,
			"0.005": 4.26070306466,
			"0.006": 4.71847306359,
			"0.007": 5.27183288414,
			"0.008": 3.98819938193,
			"0.009": 5.32700939031,
			"0.01": 3.97765348566,
			"0.011": 4.37991896053,
			"0.012": 5.31149405508,
			"0.013": 4.39262935053,
			"0.014": 3.50713424639,
			"0.015": 1.65629735276,
			"0.016": 0.275241577191,
			"0.017": 0.0,
			"0.018": 0.0,
			"0.019": 0.0,
			"0.02": 0.0,
			"0.021": 0.0,
			"0.022": 0.0,
			"0.023": 0.0,
			"0.024": 0.0,
			"0.025": 0.0
		}
	}
}
