{
	 "smiles": "COC1=C2C3C4=C(C=CC=C4)C(C2=C(OC)C=C1)C1=C3C(C=CC1=C(C#N)C#N)=C(C#N)C#N", 
	 "Tm": 273.18, 
	 "num_atms": 50, 
	 "gaussian": { 
		 "optdone": 1, 
		 "sigma_profile": "yes", 
		 "theory": "DFT", 
		 "functional": "B3LYP", 
		 "basiset": "6-31G**", 
		 "properties": { 
			 "R2extent": 12895.8893, 
			 "electric_dipole_moment_norm": 6.09418731333, 
			 "electric_quadrupole_moment_norm": 33.7903362076, 
			 "total_energy": -1445.92514059, 
			 "HOMO_LUMO_gap": 0.05076, 
			 "cosmo_polarized_energy": -21.9, 
			 "cosmo_cavitation_energy": 57.73, 
			 "cosmo_dispersion_energy": -35.28, 
			 "cosmo_repulsion_energy": 2.6, 
			 "cosmo_total_nonelectrostatic_energy": 25.06, 
			 "SMD_solvation_energy": 15.16 
		},
		"coords": [
			{
				"x": 2.4750536407,
				"y": -2.0476417339,
				"z": -3.7161116817,
				"element": "C" 
			},
			{
				"x": 1.5512765116,
				"y": -1.5264285785,
				"z": -2.7733714978,
				"element": "O" 
			},
			{
				"x": 2.0426285239,
				"y": -0.9920869638,
				"z": -1.6150729035,
				"element": "C" 
			},
			{
				"x": 1.1004036897,
				"y": -0.518569101,
				"z": -0.6941125208,
				"element": "C" 
			},
			{
				"x": -0.4196795012,
				"y": -0.5636775302,
				"z": -0.8601577673,
				"element": "C" 
			},
			{
				"x": -0.9696413405,
				"y": -1.3163846693,
				"z": 0.3541616476,
				"element": "C" 
			},
			{
				"x": -0.5715513886,
				"y": -0.7426386899,
				"z": 1.5680162239,
				"element": "C" 
			},
			{
				"x": -0.9740135218,
				"y": -1.2924248078,
				"z": 2.7788223399,
				"element": "C" 
			},
			{
				"x": -1.7846027187,
				"y": -2.4364212423,
				"z": 2.7633733747,
				"element": "C" 
			},
			{
				"x": -2.1812656219,
				"y": -3.0079206583,
				"z": 1.5541539873,
				"element": "C" 
			},
			{
				"x": -1.7758344374,
				"y": -2.4477367446,
				"z": 0.3343807328,
				"element": "C" 
			},
			{
				"x": 0.3125359383,
				"y": 0.4917896467,
				"z": 1.3727917508,
				"element": "C" 
			},
			{
				"x": 1.4946692819,
				"y": 0.0496472534,
				"z": 0.5083218786,
				"element": "C" 
			},
			{
				"x": 2.8487292761,
				"y": 0.1693672309,
				"z": 0.8435065036,
				"element": "C" 
			},
			{
				"x": 3.132069903,
				"y": 0.7509107007,
				"z": 2.0476976392,
				"element": "O" 
			},
			{
				"x": 4.492568803,
				"y": 0.85945923,
				"z": 2.4362533223,
				"element": "C" 
			},
			{
				"x": 3.79609663,
				"y": -0.3073490083,
				"z": -0.0694486348,
				"element": "C" 
			},
			{
				"x": 3.3978047871,
				"y": -0.8812053823,
				"z": -1.2842970188,
				"element": "C" 
			},
			{
				"x": -0.4945592443,
				"y": 1.4558735787,
				"z": 0.4906127073,
				"element": "C" 
			},
			{
				"x": -0.886217456,
				"y": 0.8912596339,
				"z": -0.7038036545,
				"element": "C" 
			},
			{
				"x": -1.6110225012,
				"y": 1.6606560185,
				"z": -1.6957827468,
				"element": "C" 
			},
			{
				"x": -1.7321768814,
				"y": 3.0877053616,
				"z": -1.4484704968,
				"element": "C" 
			},
			{
				"x": -1.3485332617,
				"y": 3.640725575,
				"z": -0.2786734116,
				"element": "C" 
			},
			{
				"x": -0.7925366761,
				"y": 2.8404375294,
				"z": 0.799644284,
				"element": "C" 
			},
			{
				"x": -0.613910552,
				"y": 3.4589948269,
				"z": 2.0369865326,
				"element": "C" 
			},
			{
				"x": -0.8859131683,
				"y": 4.8544116157,
				"z": 2.2009946164,
				"element": "C" 
			},
			{
				"x": -1.0965729352,
				"y": 5.9907682618,
				"z": 2.3462812878,
				"element": "N" 
			},
			{
				"x": -0.2323053408,
				"y": 2.8228534808,
				"z": 3.2559353169,
				"element": "C" 
			},
			{
				"x": 0.0419961049,
				"y": 2.370313039,
				"z": 4.2941064986,
				"element": "N" 
			},
			{
				"x": -2.2155102425,
				"y": 1.1506998169,
				"z": -2.844709077,
				"element": "C" 
			},
			{
				"x": -2.8496599326,
				"y": 2.0241786733,
				"z": -3.784362002,
				"element": "C" 
			},
			{
				"x": -3.3627266515,
				"y": 2.724640654,
				"z": -4.5608322078,
				"element": "N" 
			},
			{
				"x": -2.3485513748,
				"y": -0.2267019629,
				"z": -3.1928664374,
				"element": "C" 
			},
			{
				"x": -2.5248107621,
				"y": -1.3287458375,
				"z": -3.5279247537,
				"element": "N" 
			},
			{
				"x": 1.8767246411,
				"y": -2.43058868,
				"z": -4.5438182128,
				"element": "H" 
			},
			{
				"x": 3.1533618806,
				"y": -1.2695870776,
				"z": -4.0898472712,
				"element": "H" 
			},
			{
				"x": 3.0682727733,
				"y": -2.8662841544,
				"z": -3.2888103489,
				"element": "H" 
			},
			{
				"x": -0.6988087646,
				"y": -1.0235311845,
				"z": -1.8003917295,
				"element": "H" 
			},
			{
				"x": -0.6685502278,
				"y": -0.8412365151,
				"z": 3.7186887218,
				"element": "H" 
			},
			{
				"x": -2.1076756893,
				"y": -2.8773591368,
				"z": 3.7018503341,
				"element": "H" 
			},
			{
				"x": -2.8119760669,
				"y": -3.8920834383,
				"z": 1.554815511,
				"element": "H" 
			},
			{
				"x": -2.0881281221,
				"y": -2.8866743606,
				"z": -0.6090323305,
				"element": "H" 
			},
			{
				"x": 0.6489165929,
				"y": 0.9191920075,
				"z": 2.3095830265,
				"element": "H" 
			},
			{
				"x": 5.0638497251,
				"y": 1.4840787828,
				"z": 1.7372247364,
				"element": "H" 
			},
			{
				"x": 4.9703761294,
				"y": -0.1258862802,
				"z": 2.5102683473,
				"element": "H" 
			},
			{
				"x": 4.4880669304,
				"y": 1.3321005543,
				"z": 3.4192755171,
				"element": "H" 
			},
			{
				"x": 4.8553367615,
				"y": -0.2369679186,
				"z": 0.1475766021,
				"element": "H" 
			},
			{
				"x": 4.1625671174,
				"y": -1.2350666851,
				"z": -1.9654469293,
				"element": "H" 
			},
			{
				"x": -2.1880742438,
				"y": 3.7080527854,
				"z": -2.2117879016,
				"element": "H" 
			},
			{
				"x": -1.4990970166,
				"y": 4.7011820844,
				"z": -0.1110919048,
				"element": "H" 
			}
		],
		 "valence_orbital": [ 
			{
				"type": "occ",
				"energy": -0.26756,
				"method": "rhf"
			},
			{
				"type": "occ",
				"energy": -0.2574,
				"method": "rhf"
			},
			{
				"type": "occ",
				"energy": -0.25687,
				"method": "rhf"
			},
			{
				"type": "occ",
				"energy": -0.23479,
				"method": "rhf"
			},
			{
				"type": "occ",
				"energy": -0.21417,
				"method": "rhf"
			},
			{
				"type": "unocc",
				"energy": -0.16341,
				"method": "rhf"
			},
			{
				"type": "unocc",
				"energy": -0.05275,
				"method": "rhf"
			},
			{
				"type": "unocc",
				"energy": -0.04886,
				"method": "rhf"
			},
			{
				"type": "unocc",
				"energy": -0.02729,
				"method": "rhf"
			},
			{
				"type": "unocc",
				"energy": -0.0269,
				"method": "rhf"
			}
		],
		"cosmo_sigma_profile": { 
			"-0.025": 0.0,
			"-0.024": 0.0,
			"-0.023": 0.0,
			"-0.022": 0.0,
			"-0.021": 0.0,
			"-0.02": 0.0,
			"-0.019": 0.0,
			"-0.018": 0.0,
			"-0.017": 0.0,
			"-0.016": 0.0,
			"-0.015": 0.0,
			"-0.014": 0.0,
			"-0.013": 0.0,
			"-0.012": 0.0,
			"-0.011": 0.0,
			"-0.01": 0.244520441118,
			"-0.009": 2.80642116933,
			"-0.008": 2.99421084747,
			"-0.007": 5.69556961528,
			"-0.006": 30.6493564079,
			"-0.005": 53.358638749,
			"-0.004": 50.5345944366,
			"-0.003": 43.8090951275,
			"-0.002": 30.6619649031,
			"-0.001": 27.5043823952,
			"0.0": 22.6831531037,
			"0.001": 22.6674573981,
			"0.002": 23.9648922926,
			"0.003": 28.7048986749,
			"0.004": 28.5581209365,
			"0.005": 25.2335242689,
			"0.006": 16.5144861707,
			"0.007": 13.7096300775,
			"0.008": 11.2700880843,
			"0.009": 9.27185117685,
			"0.01": 9.46359346211,
			"0.011": 7.76657415674,
			"0.012": 1.22132713164,
			"0.013": 0.0,
			"0.014": 0.0,
			"0.015": 0.0,
			"0.016": 0.0,
			"0.017": 0.0,
			"0.018": 0.0,
			"0.019": 0.0,
			"0.02": 0.0,
			"0.021": 0.0,
			"0.022": 0.0,
			"0.023": 0.0,
			"0.024": 0.0,
			"0.025": 0.0
		}
	}
}
