{
	 "smiles": "OC1OC(C2COC3(CCCCC3)O2)C2OC3(CCCCC3)OC12", 
	 "Tm": 395.15, 
	 "num_atms": 52, 
	 "gaussian": { 
		 "optdone": 1, 
		 "sigma_profile": "yes", 
		 "theory": "DFT", 
		 "functional": "B3LYP", 
		 "basiset": "6-31G**", 
		 "properties": { 
			 "R2extent": 8816.3104, 
			 "electric_dipole_moment_norm": 0.246943029867, 
			 "electric_quadrupole_moment_norm": 8.33759867648, 
			 "total_energy": -1154.11992659, 
			 "HOMO_LUMO_gap": 0.30846, 
			 "cosmo_polarized_energy": -14.18, 
			 "cosmo_cavitation_energy": 47.95, 
			 "cosmo_dispersion_energy": -32.59, 
			 "cosmo_repulsion_energy": 2.48, 
			 "cosmo_total_nonelectrostatic_energy": 17.84, 
			 "SMD_solvation_energy": 5.66 
		},
		"coords": [
			{
				"x": 1.0214098313,
				"y": 4.8972955911,
				"z": -0.4972293366,
				"element": "O" 
			},
			{
				"x": 0.9704796486,
				"y": 3.5042198601,
				"z": -0.4297406799,
				"element": "C" 
			},
			{
				"x": 1.9145703777,
				"y": 2.9509832265,
				"z": -1.354649432,
				"element": "O" 
			},
			{
				"x": 2.5297187195,
				"y": 1.7822964344,
				"z": -0.8149849821,
				"element": "C" 
			},
			{
				"x": 1.8765145914,
				"y": 0.4980669402,
				"z": -1.3335140435,
				"element": "C" 
			},
			{
				"x": 1.9922374438,
				"y": 0.3336297623,
				"z": -2.8513249567,
				"element": "C" 
			},
			{
				"x": 0.8680956111,
				"y": -0.4760387071,
				"z": -3.1648962881,
				"element": "O" 
			},
			{
				"x": -0.1796120172,
				"y": -0.1142692994,
				"z": -2.2649331798,
				"element": "C" 
			},
			{
				"x": -1.1460214717,
				"y": 0.9069295364,
				"z": -2.8936738858,
				"element": "C" 
			},
			{
				"x": -2.2413046979,
				"y": 0.2017274332,
				"z": -3.7024547713,
				"element": "C" 
			},
			{
				"x": -3.1416090481,
				"y": -0.6645817489,
				"z": -2.7860081995,
				"element": "C" 
			},
			{
				"x": -2.379560602,
				"y": -1.1744570102,
				"z": -1.5388460908,
				"element": "C" 
			},
			{
				"x": -0.8982720641,
				"y": -1.4131325913,
				"z": -1.8543430629,
				"element": "C" 
			},
			{
				"x": 0.4628372059,
				"y": 0.5150537602,
				"z": -1.1388418597,
				"element": "O" 
			},
			{
				"x": 2.5001015573,
				"y": 1.9755330156,
				"z": 0.7268222353,
				"element": "C" 
			},
			{
				"x": 2.0726819093,
				"y": 0.8353573803,
				"z": 1.4510972307,
				"element": "O" 
			},
			{
				"x": 0.9613548287,
				"y": 1.2080859147,
				"z": 2.2792132999,
				"element": "C" 
			},
			{
				"x": -0.067121548,
				"y": 0.0813873111,
				"z": 2.2835060764,
				"element": "C" 
			},
			{
				"x": -1.2424302867,
				"y": 0.3924908622,
				"z": 3.2238664062,
				"element": "C" 
			},
			{
				"x": -0.759275363,
				"y": 0.7199425454,
				"z": 4.6454204009,
				"element": "C" 
			},
			{
				"x": 0.2678578935,
				"y": 1.8627414075,
				"z": 4.6339735794,
				"element": "C" 
			},
			{
				"x": 1.445642708,
				"y": 1.545634687,
				"z": 3.6989654115,
				"element": "C" 
			},
			{
				"x": 0.3844942039,
				"y": 2.3561250237,
				"z": 1.6545296806,
				"element": "O" 
			},
			{
				"x": 1.414516032,
				"y": 3.0456858136,
				"z": 0.9662058775,
				"element": "C" 
			},
			{
				"x": 0.7620478321,
				"y": 5.160532433,
				"z": -1.390077672,
				"element": "H" 
			},
			{
				"x": -0.030554333,
				"y": 3.1150494246,
				"z": -0.654672885,
				"element": "H" 
			},
			{
				"x": 3.5673073949,
				"y": 1.776188425,
				"z": -1.1750655429,
				"element": "H" 
			},
			{
				"x": 2.3229477409,
				"y": -0.3597775667,
				"z": -0.8115841755,
				"element": "H" 
			},
			{
				"x": 2.8957638128,
				"y": -0.1929310288,
				"z": -3.1701330083,
				"element": "H" 
			},
			{
				"x": 1.9425827598,
				"y": 1.3122226144,
				"z": -3.3489967395,
				"element": "H" 
			},
			{
				"x": -1.5953499859,
				"y": 1.4932177946,
				"z": -2.0836971253,
				"element": "H" 
			},
			{
				"x": -0.567150418,
				"y": 1.6008907534,
				"z": -3.5117287464,
				"element": "H" 
			},
			{
				"x": -2.8453420973,
				"y": 0.9338039369,
				"z": -4.2490045735,
				"element": "H" 
			},
			{
				"x": -1.7601886891,
				"y": -0.4263581079,
				"z": -4.4619525232,
				"element": "H" 
			},
			{
				"x": -3.5299113325,
				"y": -1.5149892662,
				"z": -3.3586891503,
				"element": "H" 
			},
			{
				"x": -4.0160078358,
				"y": -0.0870055122,
				"z": -2.4639324962,
				"element": "H" 
			},
			{
				"x": -2.4569322168,
				"y": -0.4408421165,
				"z": -0.7268348217,
				"element": "H" 
			},
			{
				"x": -2.8398736052,
				"y": -2.0939778949,
				"z": -1.1616390437,
				"element": "H" 
			},
			{
				"x": -0.364327051,
				"y": -1.8453895015,
				"z": -1.0027245022,
				"element": "H" 
			},
			{
				"x": -0.8037127036,
				"y": -2.1180723447,
				"z": -2.688283393,
				"element": "H" 
			},
			{
				"x": 3.4850677741,
				"y": 2.3000688353,
				"z": 1.0815127366,
				"element": "H" 
			},
			{
				"x": -0.396174558,
				"y": -0.0687781442,
				"z": 1.252552714,
				"element": "H" 
			},
			{
				"x": 0.4459642848,
				"y": -0.8318564679,
				"z": 2.6097409071,
				"element": "H" 
			},
			{
				"x": -1.8001295717,
				"y": 1.2478246603,
				"z": 2.8227233536,
				"element": "H" 
			},
			{
				"x": -1.9351739988,
				"y": -0.4569586271,
				"z": 3.2411349529,
				"element": "H" 
			},
			{
				"x": -0.301077527,
				"y": -0.1757214776,
				"z": 5.0894688584,
				"element": "H" 
			},
			{
				"x": -1.6109604678,
				"y": 0.9838385011,
				"z": 5.2835536317,
				"element": "H" 
			},
			{
				"x": 0.6382229238,
				"y": 2.0572032939,
				"z": 5.6472596134,
				"element": "H" 
			},
			{
				"x": -0.2178189076,
				"y": 2.7842251934,
				"z": 4.2896969721,
				"element": "H" 
			},
			{
				"x": 2.0074193599,
				"y": 0.6810920932,
				"z": 4.0736135878,
				"element": "H" 
			},
			{
				"x": 2.1471189884,
				"y": 2.3872827583,
				"z": 3.6542367503,
				"element": "H" 
			},
			{
				"x": 1.7742369642,
				"y": 3.9113101903,
				"z": 1.5344628907,
				"element": "H" 
			}
		],
		 "valence_orbital": [ 
			{
				"type": "occ",
				"energy": -0.26985,
				"method": "rhf"
			},
			{
				"type": "occ",
				"energy": -0.26778,
				"method": "rhf"
			},
			{
				"type": "occ",
				"energy": -0.26132,
				"method": "rhf"
			},
			{
				"type": "occ",
				"energy": -0.24551,
				"method": "rhf"
			},
			{
				"type": "occ",
				"energy": -0.24209,
				"method": "rhf"
			},
			{
				"type": "unocc",
				"energy": 0.06637,
				"method": "rhf"
			},
			{
				"type": "unocc",
				"energy": 0.07175,
				"method": "rhf"
			},
			{
				"type": "unocc",
				"energy": 0.08397,
				"method": "rhf"
			},
			{
				"type": "unocc",
				"energy": 0.08799,
				"method": "rhf"
			},
			{
				"type": "unocc",
				"energy": 0.09823,
				"method": "rhf"
			}
		],
		"cosmo_sigma_profile": { 
			"-0.025": 0.0,
			"-0.024": 0.0,
			"-0.023": 0.0,
			"-0.022": 0.0,
			"-0.021": 0.0,
			"-0.02": 0.0,
			"-0.019": 0.0,
			"-0.018": 0.0,
			"-0.017": 0.351274936651,
			"-0.016": 1.0536105419,
			"-0.015": 0.736749001128,
			"-0.014": 1.01589942283,
			"-0.013": 0.896021270367,
			"-0.012": 0.559772186141,
			"-0.011": 1.03801983258,
			"-0.01": 1.12758429744,
			"-0.009": 0.562865192046,
			"-0.008": 0.302201291817,
			"-0.007": 3.0922609042,
			"-0.006": 14.3784637603,
			"-0.005": 13.861492469,
			"-0.004": 13.8983587061,
			"-0.003": 31.9661550559,
			"-0.002": 49.9131530298,
			"-0.001": 55.9962417231,
			"0.0": 55.156696454,
			"0.001": 35.6876198756,
			"0.002": 14.5570662572,
			"0.003": 9.97677910407,
			"0.004": 8.09000926358,
			"0.005": 10.3478242043,
			"0.006": 6.6526645528,
			"0.007": 5.79633808566,
			"0.008": 6.12729470686,
			"0.009": 6.97984920729,
			"0.01": 6.45120307575,
			"0.011": 6.14326549389,
			"0.012": 5.37721239511,
			"0.013": 0.739555979634,
			"0.014": 0.0,
			"0.015": 0.0,
			"0.016": 0.0,
			"0.017": 0.0,
			"0.018": 0.0,
			"0.019": 0.0,
			"0.02": 0.0,
			"0.021": 0.0,
			"0.022": 0.0,
			"0.023": 0.0,
			"0.024": 0.0,
			"0.025": 0.0
		}
	}
}
