{
	 "smiles": "CC(CC1=C(C(=O)C2=C3[C@H]4OC(=O)C[C@H]4OC3=C3C=CC=CC3=C2O1)[Si](C)(C)C)O[Si](C)(C)C(C)(C)C", 
	 "Tm": 463.15, 
	 "num_atms": 75, 
	 "gaussian": { 
		 "optdone": 1, 
		 "sigma_profile": "yes", 
		 "theory": "DFT", 
		 "functional": "B3LYP", 
		 "basiset": "6-31G**", 
		 "properties": { 
			 "R2extent": 21125.0283, 
			 "electric_dipole_moment_norm": 6.34145678768, 
			 "electric_quadrupole_moment_norm": 27.4897528874, 
			 "total_energy": -2158.47407077, 
			 "HOMO_LUMO_gap": 0.15211, 
			 "cosmo_polarized_energy": -21.76, 
			 "cosmo_cavitation_energy": 76.75, 
			 "cosmo_dispersion_energy": -42.67, 
			 "cosmo_repulsion_energy": 3.31, 
			 "cosmo_total_nonelectrostatic_energy": 37.39, 
			 "SMD_solvation_energy": 15.43 
		},
		"coords": [
			{
				"x": 2.6528249738,
				"y": 1.2291545793,
				"z": -3.0599507056,
				"element": "C" 
			},
			{
				"x": 1.6641447716,
				"y": 0.7788732734,
				"z": -1.9832487857,
				"element": "C" 
			},
			{
				"x": 2.4113664225,
				"y": 0.1581255497,
				"z": -0.7838981728,
				"element": "C" 
			},
			{
				"x": 1.5204819303,
				"y": -0.4313314998,
				"z": 0.2718858201,
				"element": "C" 
			},
			{
				"x": 1.4012938017,
				"y": -0.0880237068,
				"z": 1.5860002357,
				"element": "C" 
			},
			{
				"x": 0.5154752908,
				"y": -0.8997060557,
				"z": 2.4409476867,
				"element": "C" 
			},
			{
				"x": 0.4491184937,
				"y": -0.7411467731,
				"z": 3.6673610431,
				"element": "O" 
			},
			{
				"x": -0.2899219933,
				"y": -1.9357196999,
				"z": 1.7693273497,
				"element": "C" 
			},
			{
				"x": -1.2485691252,
				"y": -2.7333835105,
				"z": 2.449776004,
				"element": "C" 
			},
			{
				"x": -1.7883852526,
				"y": -2.6567165008,
				"z": 3.8485543842,
				"element": "C" 
			},
			{
				"x": -2.7284909414,
				"y": -1.5558132604,
				"z": 3.9852138776,
				"element": "O" 
			},
			{
				"x": -3.9752989053,
				"y": -1.9833657579,
				"z": 4.3264758451,
				"element": "C" 
			},
			{
				"x": -4.9055176949,
				"y": -1.233329479,
				"z": 4.4621146101,
				"element": "O" 
			},
			{
				"x": -3.9628696716,
				"y": -3.4989416071,
				"z": 4.5266015084,
				"element": "C" 
			},
			{
				"x": -2.6405449482,
				"y": -3.9518294619,
				"z": 3.9376357882,
				"element": "C" 
			},
			{
				"x": -2.815390148,
				"y": -4.4142741222,
				"z": 2.5680479346,
				"element": "O" 
			},
			{
				"x": -1.9277137475,
				"y": -3.7254655671,
				"z": 1.7925285719,
				"element": "C" 
			},
			{
				"x": -1.7274816342,
				"y": -4.0241918628,
				"z": 0.4153226928,
				"element": "C" 
			},
			{
				"x": -2.4234294755,
				"y": -5.0502630619,
				"z": -0.2642554427,
				"element": "C" 
			},
			{
				"x": -2.1842310382,
				"y": -5.2806116167,
				"z": -1.6036688642,
				"element": "C" 
			},
			{
				"x": -1.2414722615,
				"y": -4.4958296166,
				"z": -2.3042557168,
				"element": "C" 
			},
			{
				"x": -0.5483150745,
				"y": -3.4886997997,
				"z": -1.6631002475,
				"element": "C" 
			},
			{
				"x": -0.7737288598,
				"y": -3.2238180499,
				"z": -0.2902028171,
				"element": "C" 
			},
			{
				"x": -0.0787091238,
				"y": -2.1939599238,
				"z": 0.4253937404,
				"element": "C" 
			},
			{
				"x": 0.8247352411,
				"y": -1.4698969286,
				"z": -0.2947942535,
				"element": "O" 
			},
			{
				"x": 2.2748777501,
				"y": 1.3250829446,
				"z": 2.5497938922,
				"element": "Si" 
			},
			{
				"x": 0.9525949076,
				"y": 2.3672895958,
				"z": 3.4063289515,
				"element": "C" 
			},
			{
				"x": 3.2808379036,
				"y": 2.5096669693,
				"z": 1.4587824377,
				"element": "C" 
			},
			{
				"x": 3.4584786121,
				"y": 0.5464023089,
				"z": 3.802792326,
				"element": "C" 
			},
			{
				"x": 0.9040094991,
				"y": 1.8957053535,
				"z": -1.5309549929,
				"element": "O" 
			},
			{
				"x": -0.6932041548,
				"y": 2.2359810042,
				"z": -1.962095189,
				"element": "Si" 
			},
			{
				"x": -1.8586323327,
				"y": 1.0640068175,
				"z": -1.049825887,
				"element": "C" 
			},
			{
				"x": -0.9298715381,
				"y": 1.987286183,
				"z": -3.8243238151,
				"element": "C" 
			},
			{
				"x": -0.9644361604,
				"y": 4.0615230576,
				"z": -1.464694101,
				"element": "C" 
			},
			{
				"x": 0.049311099,
				"y": 4.9621647621,
				"z": -2.2030441632,
				"element": "C" 
			},
			{
				"x": -0.7709919382,
				"y": 4.2335248497,
				"z": 0.0571030019,
				"element": "C" 
			},
			{
				"x": -2.3982611074,
				"y": 4.4955608531,
				"z": -1.8425509748,
				"element": "C" 
			},
			{
				"x": 3.2562150258,
				"y": 0.3889755649,
				"z": -3.4204479505,
				"element": "H" 
			},
			{
				"x": 2.1193669894,
				"y": 1.6587020285,
				"z": -3.9119056966,
				"element": "H" 
			},
			{
				"x": 3.3251051425,
				"y": 1.9944149262,
				"z": -2.6588986427,
				"element": "H" 
			},
			{
				"x": 1.0014875231,
				"y": 0.0097336316,
				"z": -2.4059343568,
				"element": "H" 
			},
			{
				"x": 3.060072947,
				"y": 0.9118672563,
				"z": -0.3454665615,
				"element": "H" 
			},
			{
				"x": 3.0500823841,
				"y": -0.6488476022,
				"z": -1.1666759724,
				"element": "H" 
			},
			{
				"x": -1.0325362168,
				"y": -2.5400717803,
				"z": 4.6233733203,
				"element": "H" 
			},
			{
				"x": -4.0188674508,
				"y": -3.7032598151,
				"z": 5.601337874,
				"element": "H" 
			},
			{
				"x": -4.8278213707,
				"y": -3.9629766302,
				"z": 4.050181775,
				"element": "H" 
			},
			{
				"x": -2.1438403868,
				"y": -4.7529353242,
				"z": 4.4916056096,
				"element": "H" 
			},
			{
				"x": -3.143467408,
				"y": -5.6451462344,
				"z": 0.2872853122,
				"element": "H" 
			},
			{
				"x": -2.7205137192,
				"y": -6.0690843151,
				"z": -2.1230048232,
				"element": "H" 
			},
			{
				"x": -1.0598184807,
				"y": -4.6882778798,
				"z": -3.3574766815,
				"element": "H" 
			},
			{
				"x": 0.1790423342,
				"y": -2.8911347761,
				"z": -2.2005123073,
				"element": "H" 
			},
			{
				"x": 0.3451265343,
				"y": 1.7544089206,
				"z": 4.074825057,
				"element": "H" 
			},
			{
				"x": 0.2893739274,
				"y": 2.8460089385,
				"z": 2.678108798,
				"element": "H" 
			},
			{
				"x": 1.4248684901,
				"y": 3.1629556795,
				"z": 3.9946009683,
				"element": "H" 
			},
			{
				"x": 4.2004098322,
				"y": 2.0656107123,
				"z": 1.0624816673,
				"element": "H" 
			},
			{
				"x": 3.5839296925,
				"y": 3.3576481887,
				"z": 2.0852533584,
				"element": "H" 
			},
			{
				"x": 2.7005628877,
				"y": 2.9107372199,
				"z": 0.6220387548,
				"element": "H" 
			},
			{
				"x": 3.9518929713,
				"y": 1.322838804,
				"z": 4.3990003417,
				"element": "H" 
			},
			{
				"x": 4.2420976394,
				"y": -0.0372662904,
				"z": 3.3066377841,
				"element": "H" 
			},
			{
				"x": 2.9134636428,
				"y": -0.1151252649,
				"z": 4.4802622814,
				"element": "H" 
			},
			{
				"x": -1.7281721725,
				"y": 1.124609569,
				"z": 0.0350250293,
				"element": "H" 
			},
			{
				"x": -1.6775414194,
				"y": 0.0245687641,
				"z": -1.3455991635,
				"element": "H" 
			},
			{
				"x": -2.9077827434,
				"y": 1.285905495,
				"z": -1.2747324275,
				"element": "H" 
			},
			{
				"x": -0.3062312378,
				"y": 2.6646287559,
				"z": -4.416468499,
				"element": "H" 
			},
			{
				"x": -0.6863715728,
				"y": 0.9620824445,
				"z": -4.1254039786,
				"element": "H" 
			},
			{
				"x": -1.9736383171,
				"y": 2.1634639034,
				"z": -4.1072971232,
				"element": "H" 
			},
			{
				"x": -0.0721526939,
				"y": 4.9104372871,
				"z": -3.2911501731,
				"element": "H" 
			},
			{
				"x": 1.0812062947,
				"y": 4.6836368647,
				"z": -1.9667515402,
				"element": "H" 
			},
			{
				"x": -0.0896598473,
				"y": 6.011964048,
				"z": -1.9104129977,
				"element": "H" 
			},
			{
				"x": 0.239310637,
				"y": 3.9507122778,
				"z": 0.3692054895,
				"element": "H" 
			},
			{
				"x": -1.4826660157,
				"y": 3.630669944,
				"z": 0.6322306133,
				"element": "H" 
			},
			{
				"x": -0.9255864637,
				"y": 5.2825347282,
				"z": 0.3449235011,
				"element": "H" 
			},
			{
				"x": -2.5639260158,
				"y": 5.5440637531,
				"z": -1.5602844428,
				"element": "H" 
			},
			{
				"x": -2.5829775812,
				"y": 4.4179247228,
				"z": -2.9202034815,
				"element": "H" 
			},
			{
				"x": -3.1593273518,
				"y": 3.8985912446,
				"z": -1.3272742888,
				"element": "H" 
			}
		],
		 "valence_orbital": [ 
			{
				"type": "occ",
				"energy": -0.26014,
				"method": "rhf"
			},
			{
				"type": "occ",
				"energy": -0.25886,
				"method": "rhf"
			},
			{
				"type": "occ",
				"energy": -0.2483,
				"method": "rhf"
			},
			{
				"type": "occ",
				"energy": -0.23933,
				"method": "rhf"
			},
			{
				"type": "occ",
				"energy": -0.21211,
				"method": "rhf"
			},
			{
				"type": "unocc",
				"energy": -0.06,
				"method": "rhf"
			},
			{
				"type": "unocc",
				"energy": -0.051,
				"method": "rhf"
			},
			{
				"type": "unocc",
				"energy": -0.01982,
				"method": "rhf"
			},
			{
				"type": "unocc",
				"energy": 0.0133,
				"method": "rhf"
			},
			{
				"type": "unocc",
				"energy": 0.01982,
				"method": "rhf"
			}
		],
		"cosmo_sigma_profile": { 
			"-0.025": 0.0,
			"-0.024": 0.0,
			"-0.023": 0.0,
			"-0.022": 0.0,
			"-0.021": 0.0,
			"-0.02": 0.0,
			"-0.019": 0.0,
			"-0.018": 0.0,
			"-0.017": 0.0,
			"-0.016": 0.0,
			"-0.015": 0.0,
			"-0.014": 0.0,
			"-0.013": 0.0,
			"-0.012": 0.0,
			"-0.011": 0.0,
			"-0.01": 0.0,
			"-0.009": 2.42187740412,
			"-0.008": 9.99488990047,
			"-0.007": 11.5143545638,
			"-0.006": 14.8138137748,
			"-0.005": 19.974930249,
			"-0.004": 30.4182342172,
			"-0.003": 46.1888155608,
			"-0.002": 65.7577211792,
			"-0.001": 82.1331892613,
			"0.0": 73.5960185412,
			"0.001": 74.8907344031,
			"0.002": 57.0473710634,
			"0.003": 29.6647098052,
			"0.004": 15.732328211,
			"0.005": 9.18383150948,
			"0.006": 9.39570561236,
			"0.007": 7.05112053416,
			"0.008": 6.21589344813,
			"0.009": 5.65202767942,
			"0.01": 7.41929568193,
			"0.011": 7.19958547431,
			"0.012": 6.27684911546,
			"0.013": 1.69802999511,
			"0.014": 0.0,
			"0.015": 0.0,
			"0.016": 0.0,
			"0.017": 0.0,
			"0.018": 0.0,
			"0.019": 0.0,
			"0.02": 0.0,
			"0.021": 0.0,
			"0.022": 0.0,
			"0.023": 0.0,
			"0.024": 0.0,
			"0.025": 0.0
		}
	}
}
