{
	 "smiles": "OC(=O)C1=CC=CC=C1", 
	 "Tm": 395.15, 
	 "num_atms": 15, 
	 "gaussian": { 
		 "optdone": 1, 
		 "sigma_profile": "yes", 
		 "theory": "DFT", 
		 "functional": "B3LYP", 
		 "basiset": "6-31G**", 
		 "properties": { 
			 "R2extent": 1960.8545, 
			 "electric_dipole_moment_norm": 4.73528135806, 
			 "electric_quadrupole_moment_norm": 19.6707463216, 
			 "total_energy": -420.815870441, 
			 "HOMO_LUMO_gap": 0.21366, 
			 "cosmo_polarized_energy": -13.13, 
			 "cosmo_cavitation_energy": 19.38, 
			 "cosmo_dispersion_energy": -14.55, 
			 "cosmo_repulsion_energy": 1.19, 
			 "cosmo_total_nonelectrostatic_energy": 6.02, 
			 "SMD_solvation_energy": 4.58 
		},
		"coords": [
			{
				"x": -0.4239534039,
				"y": 2.9385042209,
				"z": 2.3490359199,
				"element": "O" 
			},
			{
				"x": 0.3002060092,
				"y": 1.8551636849,
				"z": 2.742544334,
				"element": "C" 
			},
			{
				"x": 1.0234039856,
				"y": 1.9322866409,
				"z": 3.7075480912,
				"element": "O" 
			},
			{
				"x": 0.1459215057,
				"y": 0.6069980431,
				"z": 1.9253523993,
				"element": "C" 
			},
			{
				"x": 1.1546260701,
				"y": -0.3613208344,
				"z": 2.0240230622,
				"element": "C" 
			},
			{
				"x": 1.0679803087,
				"y": -1.541704329,
				"z": 1.290686829,
				"element": "C" 
			},
			{
				"x": -0.0361803618,
				"y": -1.7744681428,
				"z": 0.4657755172,
				"element": "C" 
			},
			{
				"x": -1.0563268612,
				"y": -0.8253774069,
				"z": 0.3800082402,
				"element": "C" 
			},
			{
				"x": -0.9657869994,
				"y": 0.3620347624,
				"z": 1.1061447378,
				"element": "C" 
			},
			{
				"x": -0.8170341365,
				"y": 2.7784689924,
				"z": 1.4800708389,
				"element": "H" 
			},
			{
				"x": 1.9954552155,
				"y": -0.1642264273,
				"z": 2.6802698528,
				"element": "H" 
			},
			{
				"x": 1.8581753582,
				"y": -2.2829585943,
				"z": 1.3635330235,
				"element": "H" 
			},
			{
				"x": -0.105280483,
				"y": -2.6971899062,
				"z": -0.1029124586,
				"element": "H" 
			},
			{
				"x": -1.9246938702,
				"y": -1.0119986921,
				"z": -0.2445543616,
				"element": "H" 
			},
			{
				"x": -1.7884123371,
				"y": 1.0718879885,
				"z": 1.0578739743,
				"element": "H" 
			}
		],
		 "valence_orbital": [ 
			{
				"type": "occ",
				"energy": -0.36198,
				"method": "rhf"
			},
			{
				"type": "occ",
				"energy": -0.31621,
				"method": "rhf"
			},
			{
				"type": "occ",
				"energy": -0.27768,
				"method": "rhf"
			},
			{
				"type": "occ",
				"energy": -0.27249,
				"method": "rhf"
			},
			{
				"type": "occ",
				"energy": -0.26508,
				"method": "rhf"
			},
			{
				"type": "unocc",
				"energy": -0.05142,
				"method": "rhf"
			},
			{
				"type": "unocc",
				"energy": -0.02258,
				"method": "rhf"
			},
			{
				"type": "unocc",
				"energy": 0.04724,
				"method": "rhf"
			},
			{
				"type": "unocc",
				"energy": 0.06065,
				"method": "rhf"
			},
			{
				"type": "unocc",
				"energy": 0.09302,
				"method": "rhf"
			}
		],
		"cosmo_sigma_profile": { 
			"-0.025": 0.0,
			"-0.024": 0.0,
			"-0.023": 0.0,
			"-0.022": 0.0,
			"-0.021": 0.0,
			"-0.02": 0.0,
			"-0.019": 0.0331033277429,
			"-0.018": 0.790626753463,
			"-0.017": 0.961486413684,
			"-0.016": 1.20469421916,
			"-0.015": 0.891721235055,
			"-0.014": 0.714707917296,
			"-0.013": 0.948433282916,
			"-0.012": 1.51902925668,
			"-0.011": 0.86666756935,
			"-0.01": 1.18721126553,
			"-0.009": 1.55426572423,
			"-0.008": 1.45267435904,
			"-0.007": 4.35816677962,
			"-0.006": 11.2359778599,
			"-0.005": 11.2024993336,
			"-0.004": 9.96992635606,
			"-0.003": 7.97879802721,
			"-0.002": 9.39262883964,
			"-0.001": 8.30043469261,
			"0.0": 8.01952566857,
			"0.001": 8.97967855461,
			"0.002": 10.0376610029,
			"0.003": 14.027448645,
			"0.004": 10.1389965841,
			"0.005": 1.99212032812,
			"0.006": 2.4377202605,
			"0.007": 2.59781583109,
			"0.008": 2.77961393247,
			"0.009": 3.12347802403,
			"0.01": 4.73109823598,
			"0.011": 5.33716236082,
			"0.012": 4.9548087594,
			"0.013": 1.72858881907,
			"0.014": 0.0960982366244,
			"0.015": 0.0,
			"0.016": 0.0,
			"0.017": 0.0,
			"0.018": 0.0,
			"0.019": 0.0,
			"0.02": 0.0,
			"0.021": 0.0,
			"0.022": 0.0,
			"0.023": 0.0,
			"0.024": 0.0,
			"0.025": 0.0
		}
	}
}
