{
	 "smiles": "OCC1=CN=C(C=C1)N1CCCCC1", 
	 "Tm": 343.65, 
	 "num_atms": 30, 
	 "gaussian": { 
		 "optdone": 1, 
		 "sigma_profile": "yes", 
		 "theory": "DFT", 
		 "functional": "B3LYP", 
		 "basiset": "6-31G**", 
		 "properties": { 
			 "R2extent": 4056.6633, 
			 "electric_dipole_moment_norm": 2.42058330573, 
			 "electric_quadrupole_moment_norm": 6.85009083662, 
			 "total_energy": -613.54039177, 
			 "HOMO_LUMO_gap": 0.18276, 
			 "cosmo_polarized_energy": -9.48, 
			 "cosmo_cavitation_energy": 31.01, 
			 "cosmo_dispersion_energy": -23.25, 
			 "cosmo_repulsion_energy": 1.85, 
			 "cosmo_total_nonelectrostatic_energy": 9.6, 
			 "SMD_solvation_energy": 2.95 
		},
		"coords": [
			{
				"x": 0.1182424735,
				"y": 0.6317645897,
				"z": -5.278612509,
				"element": "O" 
			},
			{
				"x": 1.2382057668,
				"y": 0.6966857984,
				"z": -4.398096562,
				"element": "C" 
			},
			{
				"x": 0.8699382348,
				"y": 0.4835290406,
				"z": -2.9503224528,
				"element": "C" 
			},
			{
				"x": 1.5801459175,
				"y": -0.3804990492,
				"z": -2.1183842285,
				"element": "C" 
			},
			{
				"x": 1.3095437908,
				"y": -0.5946068483,
				"z": -0.82911367,
				"element": "N" 
			},
			{
				"x": 0.2779206082,
				"y": 0.0581851546,
				"z": -0.2604473243,
				"element": "C" 
			},
			{
				"x": -0.5391270977,
				"y": 0.9264304721,
				"z": -1.0314215008,
				"element": "C" 
			},
			{
				"x": -0.227481361,
				"y": 1.1328247215,
				"z": -2.3643544897,
				"element": "C" 
			},
			{
				"x": 0.0826811306,
				"y": -0.1539512202,
				"z": 1.0976302315,
				"element": "N" 
			},
			{
				"x": 0.6744922553,
				"y": -1.3412569357,
				"z": 1.7274325806,
				"element": "C" 
			},
			{
				"x": 1.0307204666,
				"y": -1.0805145665,
				"z": 3.1929917992,
				"element": "C" 
			},
			{
				"x": -0.1869182437,
				"y": -0.5705241404,
				"z": 3.9723995723,
				"element": "C" 
			},
			{
				"x": -0.7681827429,
				"y": 0.6631925401,
				"z": 3.2739656028,
				"element": "C" 
			},
			{
				"x": -1.079254204,
				"y": 0.389873881,
				"z": 1.7951459934,
				"element": "C" 
			},
			{
				"x": -0.3193866807,
				"y": -0.215392654,
				"z": -5.1196146294,
				"element": "H" 
			},
			{
				"x": 2.0237398812,
				"y": -0.0201052369,
				"z": -4.6868968601,
				"element": "H" 
			},
			{
				"x": 1.6536286119,
				"y": 1.6998909408,
				"z": -4.551522668,
				"element": "H" 
			},
			{
				"x": 2.4252420486,
				"y": -0.9432092017,
				"z": -2.5184820363,
				"element": "H" 
			},
			{
				"x": -1.4071713825,
				"y": 1.4155288897,
				"z": -0.6093128341,
				"element": "H" 
			},
			{
				"x": -0.8489016092,
				"y": 1.7851633376,
				"z": -2.9721803814,
				"element": "H" 
			},
			{
				"x": 1.5523325748,
				"y": -1.6190802529,
				"z": 1.1476708057,
				"element": "H" 
			},
			{
				"x": -0.0405854664,
				"y": -2.181770194,
				"z": 1.6702149457,
				"element": "H" 
			},
			{
				"x": 1.4176086196,
				"y": -2.0064147919,
				"z": 3.6345948316,
				"element": "H" 
			},
			{
				"x": 1.83699812,
				"y": -0.3373911336,
				"z": 3.2387969306,
				"element": "H" 
			},
			{
				"x": -0.9497640862,
				"y": -1.3611442217,
				"z": 4.0157820744,
				"element": "H" 
			},
			{
				"x": 0.0816063196,
				"y": -0.3339706846,
				"z": 5.0083052018,
				"element": "H" 
			},
			{
				"x": -0.0471236466,
				"y": 1.488394517,
				"z": 3.3320779519,
				"element": "H" 
			},
			{
				"x": -1.6862613843,
				"y": 0.9998041944,
				"z": 3.769867516,
				"element": "H" 
			},
			{
				"x": -1.3781845829,
				"y": 1.3283807045,
				"z": 1.3276213964,
				"element": "H" 
			},
			{
				"x": -1.9373043318,
				"y": -0.3024176505,
				"z": 1.7179647125,
				"element": "H" 
			}
		],
		 "valence_orbital": [ 
			{
				"type": "occ",
				"energy": -0.28989,
				"method": "rhf"
			},
			{
				"type": "occ",
				"energy": -0.27279,
				"method": "rhf"
			},
			{
				"type": "occ",
				"energy": -0.26473,
				"method": "rhf"
			},
			{
				"type": "occ",
				"energy": -0.24442,
				"method": "rhf"
			},
			{
				"type": "occ",
				"energy": -0.19523,
				"method": "rhf"
			},
			{
				"type": "unocc",
				"energy": -0.01247,
				"method": "rhf"
			},
			{
				"type": "unocc",
				"energy": 0.00781,
				"method": "rhf"
			},
			{
				"type": "unocc",
				"energy": 0.08519,
				"method": "rhf"
			},
			{
				"type": "unocc",
				"energy": 0.09426,
				"method": "rhf"
			},
			{
				"type": "unocc",
				"energy": 0.11148,
				"method": "rhf"
			}
		],
		"cosmo_sigma_profile": { 
			"-0.025": 0.0,
			"-0.024": 0.0,
			"-0.023": 0.0,
			"-0.022": 0.0,
			"-0.021": 0.0,
			"-0.02": 0.0,
			"-0.019": 0.0,
			"-0.018": 0.0,
			"-0.017": 0.0,
			"-0.016": 0.04545363194,
			"-0.015": 0.608898007951,
			"-0.014": 0.803949555807,
			"-0.013": 0.965776081072,
			"-0.012": 1.08664408375,
			"-0.011": 0.734861224667,
			"-0.01": 0.544200518782,
			"-0.009": 0.825652149598,
			"-0.008": 0.88431895177,
			"-0.007": 2.3404789401,
			"-0.006": 4.53816913199,
			"-0.005": 9.85856815305,
			"-0.004": 13.1474990353,
			"-0.003": 23.3173793571,
			"-0.002": 41.535696678,
			"-0.001": 33.2578390672,
			"0.0": 25.2322105011,
			"0.001": 16.63740865,
			"0.002": 8.84603432286,
			"0.003": 11.0566957299,
			"0.004": 12.4131915492,
			"0.005": 6.05806319447,
			"0.006": 5.01844640819,
			"0.007": 4.25913956836,
			"0.008": 3.51036834864,
			"0.009": 2.92825933535,
			"0.01": 2.37137987217,
			"0.011": 1.71299341976,
			"0.012": 3.32107386734,
			"0.013": 1.96582034944,
			"0.014": 1.89210289813,
			"0.015": 0.645165177995,
			"0.016": 0.0,
			"0.017": 0.0,
			"0.018": 0.0,
			"0.019": 0.0,
			"0.02": 0.0,
			"0.021": 0.0,
			"0.022": 0.0,
			"0.023": 0.0,
			"0.024": 0.0,
			"0.025": 0.0
		}
	}
}
