{
	 "smiles": "COC1=CC=C(C=C1NC(=O)C(C(F)(F)F)C(F)(F)F)C1=CC=CC=C1", 
	 "Tm": 484.15, 
	 "num_atms": 39, 
	 "gaussian": { 
		 "optdone": 1, 
		 "sigma_profile": "yes", 
		 "theory": "DFT", 
		 "functional": "B3LYP", 
		 "basiset": "6-31G**", 
		 "properties": { 
			 "R2extent": 11639.1215, 
			 "electric_dipole_moment_norm": 3.15967922897, 
			 "electric_quadrupole_moment_norm": 13.0975689645, 
			 "total_energy": -1459.89648186, 
			 "HOMO_LUMO_gap": 0.19245, 
			 "cosmo_polarized_energy": -15.59, 
			 "cosmo_cavitation_energy": 45.71, 
			 "cosmo_dispersion_energy": -30.3, 
			 "cosmo_repulsion_energy": 2.16, 
			 "cosmo_total_nonelectrostatic_energy": 17.57, 
			 "SMD_solvation_energy": 10.71 
		},
		"coords": [
			{
				"x": 0.1783016905,
				"y": 2.7364548428,
				"z": -1.6190246923,
				"element": "C" 
			},
			{
				"x": 0.6383839185,
				"y": 1.4798138392,
				"z": -2.1208368669,
				"element": "O" 
			},
			{
				"x": -0.1388445734,
				"y": 0.4021113398,
				"z": -1.7800224089,
				"element": "C" 
			},
			{
				"x": -1.09383482,
				"y": -0.079189597,
				"z": -2.6772949126,
				"element": "C" 
			},
			{
				"x": -1.8867562381,
				"y": -1.176097233,
				"z": -2.3501230259,
				"element": "C" 
			},
			{
				"x": -1.7485272882,
				"y": -1.8266755644,
				"z": -1.1126872546,
				"element": "C" 
			},
			{
				"x": -0.7699027537,
				"y": -1.3499720319,
				"z": -0.2269472393,
				"element": "C" 
			},
			{
				"x": 0.0308532756,
				"y": -0.2544277421,
				"z": -0.548622898,
				"element": "C" 
			},
			{
				"x": 0.9869466213,
				"y": 0.227314814,
				"z": 0.3928258003,
				"element": "N" 
			},
			{
				"x": 2.334491481,
				"y": 0.252340053,
				"z": 0.1524680016,
				"element": "C" 
			},
			{
				"x": 2.8774057537,
				"y": -0.1624742597,
				"z": -0.8506103974,
				"element": "O" 
			},
			{
				"x": 3.1801846416,
				"y": 0.8965041339,
				"z": 1.2865091565,
				"element": "C" 
			},
			{
				"x": 2.8881431053,
				"y": 2.3896120565,
				"z": 1.4405595885,
				"element": "C" 
			},
			{
				"x": 1.6453654635,
				"y": 2.6232435565,
				"z": 1.9253041328,
				"element": "F" 
			},
			{
				"x": 3.7610194879,
				"y": 2.9832148691,
				"z": 2.2720861569,
				"element": "F" 
			},
			{
				"x": 2.9751763669,
				"y": 2.9998040174,
				"z": 0.2439896956,
				"element": "F" 
			},
			{
				"x": 3.0855455808,
				"y": 0.133707272,
				"z": 2.6066534886,
				"element": "C" 
			},
			{
				"x": 3.9687860203,
				"y": 0.5877155035,
				"z": 3.5102713929,
				"element": "F" 
			},
			{
				"x": 1.8525826707,
				"y": 0.2293293986,
				"z": 3.1667351302,
				"element": "F" 
			},
			{
				"x": 3.333399973,
				"y": -1.171737212,
				"z": 2.4011228905,
				"element": "F" 
			},
			{
				"x": -2.5968349069,
				"y": -2.9925451957,
				"z": -0.7562725601,
				"element": "C" 
			},
			{
				"x": -2.0655483488,
				"y": -4.0862653605,
				"z": -0.0516181899,
				"element": "C" 
			},
			{
				"x": -2.864869131,
				"y": -5.1782260196,
				"z": 0.2838547732,
				"element": "C" 
			},
			{
				"x": -4.2124414543,
				"y": -5.2021636909,
				"z": -0.080423867,
				"element": "C" 
			},
			{
				"x": -4.7535767932,
				"y": -4.1237389345,
				"z": -0.7828564552,
				"element": "C" 
			},
			{
				"x": -3.9548581888,
				"y": -3.0306760947,
				"z": -1.115962166,
				"element": "C" 
			},
			{
				"x": 0.1675819126,
				"y": 2.7550185412,
				"z": -0.5230469065,
				"element": "H" 
			},
			{
				"x": -0.8269225488,
				"y": 2.9686323844,
				"z": -1.9939851397,
				"element": "H" 
			},
			{
				"x": 0.883331833,
				"y": 3.4871090893,
				"z": -1.9801147226,
				"element": "H" 
			},
			{
				"x": -1.194561216,
				"y": 0.4180356154,
				"z": -3.636802245,
				"element": "H" 
			},
			{
				"x": -2.6072246808,
				"y": -1.5477541066,
				"z": -3.0721100985,
				"element": "H" 
			},
			{
				"x": -0.6320516334,
				"y": -1.8290713186,
				"z": 0.7378369763,
				"element": "H" 
			},
			{
				"x": 0.6622947873,
				"y": 0.480225552,
				"z": 1.3154925843,
				"element": "H" 
			},
			{
				"x": 4.2146060891,
				"y": 0.8113357481,
				"z": 0.9484870157,
				"element": "H" 
			},
			{
				"x": -1.0114633068,
				"y": -4.0922366626,
				"z": 0.2101004836,
				"element": "H" 
			},
			{
				"x": -2.4309727361,
				"y": -6.0164656738,
				"z": 0.8216682999,
				"element": "H" 
			},
			{
				"x": -4.8346566379,
				"y": -6.0534760846,
				"z": 0.1797315494,
				"element": "H" 
			},
			{
				"x": -5.8027458208,
				"y": -4.1285231027,
				"z": -1.064728613,
				"element": "H" 
			},
			{
				"x": -4.3923075955,
				"y": -2.1853067418,
				"z": -1.6391064576,
				"element": "H" 
			}
		],
		 "valence_orbital": [ 
			{
				"type": "occ",
				"energy": -0.27157,
				"method": "rhf"
			},
			{
				"type": "occ",
				"energy": -0.26932,
				"method": "rhf"
			},
			{
				"type": "occ",
				"energy": -0.25447,
				"method": "rhf"
			},
			{
				"type": "occ",
				"energy": -0.25147,
				"method": "rhf"
			},
			{
				"type": "occ",
				"energy": -0.22499,
				"method": "rhf"
			},
			{
				"type": "unocc",
				"energy": -0.03254,
				"method": "rhf"
			},
			{
				"type": "unocc",
				"energy": -0.0229,
				"method": "rhf"
			},
			{
				"type": "unocc",
				"energy": -0.00592,
				"method": "rhf"
			},
			{
				"type": "unocc",
				"energy": 0.00602,
				"method": "rhf"
			},
			{
				"type": "unocc",
				"energy": 0.02402,
				"method": "rhf"
			}
		],
		"cosmo_sigma_profile": { 
			"-0.025": 0.0,
			"-0.024": 0.0,
			"-0.023": 0.0,
			"-0.022": 0.0,
			"-0.021": 0.0,
			"-0.02": 0.0,
			"-0.019": 0.0,
			"-0.018": 0.0,
			"-0.017": 0.0,
			"-0.016": 0.0,
			"-0.015": 0.0306528318613,
			"-0.014": 0.402706424271,
			"-0.013": 0.553630839596,
			"-0.012": 1.63194059567,
			"-0.011": 3.54781042361,
			"-0.01": 2.11925025623,
			"-0.009": 2.18239986247,
			"-0.008": 2.12861786909,
			"-0.007": 5.08335422316,
			"-0.006": 15.1064232767,
			"-0.005": 23.4625849238,
			"-0.004": 27.0433363397,
			"-0.003": 28.8913330525,
			"-0.002": 24.1099357641,
			"-0.001": 23.4811768774,
			"0.0": 26.7210678606,
			"0.001": 43.3771667414,
			"0.002": 53.3336561541,
			"0.003": 21.3579123021,
			"0.004": 17.8850436313,
			"0.005": 12.0456179505,
			"0.006": 7.60123959295,
			"0.007": 2.62516760057,
			"0.008": 1.85340537293,
			"0.009": 2.47319649905,
			"0.01": 2.6899698903,
			"0.011": 4.56782823036,
			"0.012": 7.27125723811,
			"0.013": 2.04110423013,
			"0.014": 0.0876627924855,
			"0.015": 0.0,
			"0.016": 0.0,
			"0.017": 0.0,
			"0.018": 0.0,
			"0.019": 0.0,
			"0.02": 0.0,
			"0.021": 0.0,
			"0.022": 0.0,
			"0.023": 0.0,
			"0.024": 0.0,
			"0.025": 0.0
		}
	}
}
