{
	 "smiles": "CCC1N(O)C(C)(C)C(C(O)=O)=[N+]1[O-]", 
	 "Tm": 372.05, 
	 "num_atms": 28, 
	 "gaussian": { 
		 "optdone": 1, 
		 "sigma_profile": "yes", 
		 "theory": "DFT", 
		 "functional": "B3LYP", 
		 "basiset": "6-31G**", 
		 "properties": { 
			 "R2extent": 2901.3982, 
			 "electric_dipole_moment_norm": 2.93071972901, 
			 "electric_quadrupole_moment_norm": 7.96324521474, 
			 "total_energy": -723.578777998, 
			 "HOMO_LUMO_gap": 0.17093, 
			 "cosmo_polarized_energy": -16.56, 
			 "cosmo_cavitation_energy": 30.03, 
			 "cosmo_dispersion_energy": -21.32, 
			 "cosmo_repulsion_energy": 1.68, 
			 "cosmo_total_nonelectrostatic_energy": 10.39, 
			 "SMD_solvation_energy": 5.82 
		},
		"coords": [
			{
				"x": -1.4491086761,
				"y": 2.5159139231,
				"z": 2.3649390302,
				"element": "C" 
			},
			{
				"x": -1.8787685506,
				"y": 1.2280176617,
				"z": 1.6535831008,
				"element": "C" 
			},
			{
				"x": -0.7404741778,
				"y": 0.5469348273,
				"z": 0.9026232269,
				"element": "C" 
			},
			{
				"x": -0.8920726352,
				"y": -0.8743846249,
				"z": 0.6348793466,
				"element": "N" 
			},
			{
				"x": -2.2770563703,
				"y": -1.0606372561,
				"z": 0.2463684523,
				"element": "O" 
			},
			{
				"x": -0.0238584412,
				"y": -1.130864512,
				"z": -0.5744380713,
				"element": "C" 
			},
			{
				"x": -0.5508383433,
				"y": -2.3062814536,
				"z": -1.4015190662,
				"element": "C" 
			},
			{
				"x": 1.4019329315,
				"y": -1.4484806072,
				"z": -0.075167886,
				"element": "C" 
			},
			{
				"x": -0.0620137442,
				"y": 0.2092315715,
				"z": -1.3014799433,
				"element": "C" 
			},
			{
				"x": 0.4464339187,
				"y": 0.4212159707,
				"z": -2.6555550989,
				"element": "C" 
			},
			{
				"x": 0.2080017117,
				"y": 1.6454550235,
				"z": -3.1670351067,
				"element": "O" 
			},
			{
				"x": 1.0468687531,
				"y": -0.4445138852,
				"z": -3.2768012203,
				"element": "O" 
			},
			{
				"x": -0.4856602051,
				"y": 1.1630112181,
				"z": -0.4835415474,
				"element": "N" 
			},
			{
				"x": -0.6273772098,
				"y": 2.3916457267,
				"z": -0.6624146408,
				"element": "O" 
			},
			{
				"x": -2.2979214475,
				"y": 2.9576269815,
				"z": 2.8957639797,
				"element": "H" 
			},
			{
				"x": -1.0730173879,
				"y": 3.2454830395,
				"z": 1.6457950041,
				"element": "H" 
			},
			{
				"x": -0.6628358372,
				"y": 2.3185096177,
				"z": 3.1031489293,
				"element": "H" 
			},
			{
				"x": -2.6963003149,
				"y": 1.4237321875,
				"z": 0.9560776875,
				"element": "H" 
			},
			{
				"x": -2.2529159002,
				"y": 0.5009417983,
				"z": 2.3818491026,
				"element": "H" 
			},
			{
				"x": 0.2068145719,
				"y": 0.6864233511,
				"z": 1.4358268911,
				"element": "H" 
			},
			{
				"x": -2.544049062,
				"y": -1.7986542289,
				"z": 0.809883334,
				"element": "H" 
			},
			{
				"x": -0.6196536708,
				"y": -3.1977667484,
				"z": -0.7695720026,
				"element": "H" 
			},
			{
				"x": 0.1427619747,
				"y": -2.5046127125,
				"z": -2.2192938286,
				"element": "H" 
			},
			{
				"x": -1.5361249848,
				"y": -2.0940401776,
				"z": -1.8157635313,
				"element": "H" 
			},
			{
				"x": 1.8013013175,
				"y": -0.6613868143,
				"z": 0.5712322867,
				"element": "H" 
			},
			{
				"x": 2.065864786,
				"y": -1.5458362709,
				"z": -0.9375516498,
				"element": "H" 
			},
			{
				"x": 1.4030059732,
				"y": -2.3872811384,
				"z": 0.4856230202,
				"element": "H" 
			},
			{
				"x": 0.6096610206,
				"y": 1.6340975316,
				"z": -4.0525597988,
				"element": "H" 
			}
		],
		 "valence_orbital": [ 
			{
				"type": "occ",
				"energy": -0.30392,
				"method": "rhf"
			},
			{
				"type": "occ",
				"energy": -0.28428,
				"method": "rhf"
			},
			{
				"type": "occ",
				"energy": -0.27845,
				"method": "rhf"
			},
			{
				"type": "occ",
				"energy": -0.24143,
				"method": "rhf"
			},
			{
				"type": "occ",
				"energy": -0.23402,
				"method": "rhf"
			},
			{
				"type": "unocc",
				"energy": -0.06309,
				"method": "rhf"
			},
			{
				"type": "unocc",
				"energy": 0.04792,
				"method": "rhf"
			},
			{
				"type": "unocc",
				"energy": 0.06643,
				"method": "rhf"
			},
			{
				"type": "unocc",
				"energy": 0.08348,
				"method": "rhf"
			},
			{
				"type": "unocc",
				"energy": 0.09276,
				"method": "rhf"
			}
		],
		"cosmo_sigma_profile": { 
			"-0.025": 0.0,
			"-0.024": 0.0,
			"-0.023": 0.0,
			"-0.022": 0.0,
			"-0.021": 0.0,
			"-0.02": 0.0,
			"-0.019": 0.0964729135009,
			"-0.018": 1.0893387078,
			"-0.017": 0.91753622538,
			"-0.016": 1.54746358993,
			"-0.015": 1.9653910735,
			"-0.014": 1.39680150242,
			"-0.013": 1.23602510967,
			"-0.012": 1.70081048021,
			"-0.011": 1.13439442658,
			"-0.01": 1.21122198,
			"-0.009": 2.66113214152,
			"-0.008": 4.04553369034,
			"-0.007": 4.85250674836,
			"-0.006": 4.37347866047,
			"-0.005": 5.42566198217,
			"-0.004": 15.321770243,
			"-0.003": 23.0669357348,
			"-0.002": 21.7841469058,
			"-0.001": 26.4912140429,
			"0.0": 25.2866642909,
			"0.001": 18.2504497102,
			"0.002": 7.98944423925,
			"0.003": 5.7460930361,
			"0.004": 6.80319241835,
			"0.005": 5.39427988415,
			"0.006": 6.24226642466,
			"0.007": 6.20106754021,
			"0.008": 4.63294978722,
			"0.009": 3.97869929933,
			"0.01": 7.31575384161,
			"0.011": 7.29092344358,
			"0.012": 4.42408515917,
			"0.013": 1.64113109123,
			"0.014": 1.59381014518,
			"0.015": 0.683834720477,
			"0.016": 0.0,
			"0.017": 0.0,
			"0.018": 0.0,
			"0.019": 0.0,
			"0.02": 0.0,
			"0.021": 0.0,
			"0.022": 0.0,
			"0.023": 0.0,
			"0.024": 0.0,
			"0.025": 0.0
		}
	}
}
