{
	 "smiles": "O=C(CC1=NCCNC1=O)C1=CC=CC=C1", 
	 "Tm": 290.15, 
	 "num_atms": 28, 
	 "gaussian": { 
		 "optdone": 1, 
		 "sigma_profile": "yes", 
		 "theory": "DFT", 
		 "functional": "B3LYP", 
		 "basiset": "6-31G**", 
		 "properties": { 
			 "R2extent": 4261.4116, 
			 "electric_dipole_moment_norm": 5.02542422886, 
			 "electric_quadrupole_moment_norm": 18.776086082, 
			 "total_energy": -724.454948049, 
			 "HOMO_LUMO_gap": 0.17844, 
			 "cosmo_polarized_energy": -17.76, 
			 "cosmo_cavitation_energy": 32.05, 
			 "cosmo_dispersion_energy": -22.88, 
			 "cosmo_repulsion_energy": 1.8, 
			 "cosmo_total_nonelectrostatic_energy": 10.97, 
			 "SMD_solvation_energy": 3.57 
		},
		"coords": [
			{
				"x": 1.3887971061,
				"y": 1.3236838411,
				"z": 1.4562958629,
				"element": "O" 
			},
			{
				"x": 1.0453382647,
				"y": 1.3995538531,
				"z": 0.2880054759,
				"element": "C" 
			},
			{
				"x": -0.2512134406,
				"y": 2.1480895298,
				"z": -0.0769790527,
				"element": "C" 
			},
			{
				"x": -1.4476594633,
				"y": 1.2212043462,
				"z": -0.0575182472,
				"element": "C" 
			},
			{
				"x": -1.7698965032,
				"y": 0.5548192832,
				"z": -1.099903185,
				"element": "N" 
			},
			{
				"x": -2.9230486605,
				"y": -0.3417513042,
				"z": -1.0197403524,
				"element": "C" 
			},
			{
				"x": -3.1362768551,
				"y": -0.9291012232,
				"z": 0.3733157217,
				"element": "C" 
			},
			{
				"x": -3.1336907306,
				"y": 0.1655384145,
				"z": 1.3361045004,
				"element": "N" 
			},
			{
				"x": -2.2337576574,
				"y": 1.1879143156,
				"z": 1.2507696904,
				"element": "C" 
			},
			{
				"x": -2.0994144753,
				"y": 2.0472809255,
				"z": 2.1110639752,
				"element": "O" 
			},
			{
				"x": 1.8714949146,
				"y": 0.7832720353,
				"z": -0.7991534824,
				"element": "C" 
			},
			{
				"x": 3.1506928542,
				"y": 0.3141354396,
				"z": -0.4543193878,
				"element": "C" 
			},
			{
				"x": 3.9741972736,
				"y": -0.2611936482,
				"z": -1.4161407071,
				"element": "C" 
			},
			{
				"x": 3.5244095808,
				"y": -0.387708363,
				"z": -2.7346337554,
				"element": "C" 
			},
			{
				"x": 2.2493081923,
				"y": 0.0606740361,
				"z": -3.0829404257,
				"element": "C" 
			},
			{
				"x": 1.424741894,
				"y": 0.6495060698,
				"z": -2.123212894,
				"element": "C" 
			},
			{
				"x": -0.1733891176,
				"y": 2.6080171584,
				"z": -1.0634049159,
				"element": "H" 
			},
			{
				"x": -0.3941128509,
				"y": 2.9120688352,
				"z": 0.6886263991,
				"element": "H" 
			},
			{
				"x": -3.812546306,
				"y": 0.2214202082,
				"z": -1.3350484426,
				"element": "H" 
			},
			{
				"x": -2.7803248753,
				"y": -1.1470955581,
				"z": -1.7472959669,
				"element": "H" 
			},
			{
				"x": -4.0951913722,
				"y": -1.4530493716,
				"z": 0.4263680745,
				"element": "H" 
			},
			{
				"x": -2.344048989,
				"y": -1.6594121891,
				"z": 0.5972644175,
				"element": "H" 
			},
			{
				"x": -3.591716212,
				"y": 0.0646303208,
				"z": 2.2322919677,
				"element": "H" 
			},
			{
				"x": 3.4736696627,
				"y": 0.4180697134,
				"z": 0.5761522025,
				"element": "H" 
			},
			{
				"x": 4.9653069167,
				"y": -0.6119501978,
				"z": -1.1430556263,
				"element": "H" 
			},
			{
				"x": 4.16646673,
				"y": -0.8374458587,
				"z": -3.4869913307,
				"element": "H" 
			},
			{
				"x": 1.8944718268,
				"y": -0.0481024703,
				"z": -4.1037603068,
				"element": "H" 
			},
			{
				"x": 0.4228922926,
				"y": 0.9627318585,
				"z": -2.3955602089,
				"element": "H" 
			}
		],
		 "valence_orbital": [ 
			{
				"type": "occ",
				"energy": -0.26346,
				"method": "rhf"
			},
			{
				"type": "occ",
				"energy": -0.25639,
				"method": "rhf"
			},
			{
				"type": "occ",
				"energy": -0.25431,
				"method": "rhf"
			},
			{
				"type": "occ",
				"energy": -0.2434,
				"method": "rhf"
			},
			{
				"type": "occ",
				"energy": -0.24018,
				"method": "rhf"
			},
			{
				"type": "unocc",
				"energy": -0.06174,
				"method": "rhf"
			},
			{
				"type": "unocc",
				"energy": -0.04762,
				"method": "rhf"
			},
			{
				"type": "unocc",
				"energy": -0.00475,
				"method": "rhf"
			},
			{
				"type": "unocc",
				"energy": 0.03968,
				"method": "rhf"
			},
			{
				"type": "unocc",
				"energy": 0.06962,
				"method": "rhf"
			}
		],
		"cosmo_sigma_profile": { 
			"-0.025": 0.0,
			"-0.024": 0.0,
			"-0.023": 0.0,
			"-0.022": 0.0,
			"-0.021": 0.0,
			"-0.02": 0.0,
			"-0.019": 0.0,
			"-0.018": 0.0,
			"-0.017": 0.0,
			"-0.016": 0.0,
			"-0.015": 0.324291214753,
			"-0.014": 1.50425621718,
			"-0.013": 0.913393327418,
			"-0.012": 1.14341870709,
			"-0.011": 1.14519400583,
			"-0.01": 0.930489023756,
			"-0.009": 1.42135168361,
			"-0.008": 1.55051288157,
			"-0.007": 4.09029102721,
			"-0.006": 15.9910417878,
			"-0.005": 27.5002117842,
			"-0.004": 28.6327579307,
			"-0.003": 22.8767296747,
			"-0.002": 16.8045744919,
			"-0.001": 10.9693996844,
			"0.0": 11.6716768604,
			"0.001": 13.7095391774,
			"0.002": 13.9175267799,
			"0.003": 15.3835542268,
			"0.004": 17.9975958842,
			"0.005": 6.88164040346,
			"0.006": 3.78558501616,
			"0.007": 4.3802846029,
			"0.008": 3.84501221217,
			"0.009": 4.44327464699,
			"0.01": 4.00791631113,
			"0.011": 6.71208397257,
			"0.012": 6.27602956185,
			"0.013": 5.62142036264,
			"0.014": 0.775460166208,
			"0.015": 0.0,
			"0.016": 0.0,
			"0.017": 0.0,
			"0.018": 0.0,
			"0.019": 0.0,
			"0.02": 0.0,
			"0.021": 0.0,
			"0.022": 0.0,
			"0.023": 0.0,
			"0.024": 0.0,
			"0.025": 0.0
		}
	}
}
