{
	 "smiles": "COC1=C(SC=C1)C(N)=O", 
	 "Tm": 421.15, 
	 "num_atms": 17, 
	 "gaussian": { 
		 "optdone": 1, 
		 "sigma_profile": "yes", 
		 "theory": "DFT", 
		 "functional": "B3LYP", 
		 "basiset": "6-31G**", 
		 "properties": { 
			 "R2extent": 1827.8078, 
			 "electric_dipole_moment_norm": 5.90389907519, 
			 "electric_quadrupole_moment_norm": 12.5605116154, 
			 "total_energy": -836.232623866, 
			 "HOMO_LUMO_gap": 0.18732, 
			 "cosmo_polarized_energy": -15.08, 
			 "cosmo_cavitation_energy": 22.56, 
			 "cosmo_dispersion_energy": -17.51, 
			 "cosmo_repulsion_energy": 1.38, 
			 "cosmo_total_nonelectrostatic_energy": 6.43, 
			 "SMD_solvation_energy": 5.47 
		},
		"coords": [
			{
				"x": -1.4241967835,
				"y": 2.1026839098,
				"z": 0.4563360207,
				"element": "C" 
			},
			{
				"x": -0.5209937238,
				"y": 1.0040014029,
				"z": 0.525394951,
				"element": "O" 
			},
			{
				"x": -0.4839082234,
				"y": 0.1468526832,
				"z": -0.5374494235,
				"element": "C" 
			},
			{
				"x": 0.3712334891,
				"y": -0.9428904399,
				"z": -0.5370280764,
				"element": "C" 
			},
			{
				"x": 0.2049501882,
				"y": -1.8540849931,
				"z": -2.0110665065,
				"element": "S" 
			},
			{
				"x": -0.9974958321,
				"y": -0.770815373,
				"z": -2.6005842855,
				"element": "C" 
			},
			{
				"x": -1.2722584465,
				"y": 0.2472348584,
				"z": -1.7244493963,
				"element": "C" 
			},
			{
				"x": 1.3512404106,
				"y": -1.4353877633,
				"z": 0.4561030286,
				"element": "C" 
			},
			{
				"x": 1.4624454248,
				"y": -0.704127476,
				"z": 1.6025490105,
				"element": "N" 
			},
			{
				"x": 2.0171540985,
				"y": -2.4471273192,
				"z": 0.2426735321,
				"element": "O" 
			},
			{
				"x": -1.3006489113,
				"y": 2.6555423778,
				"z": 1.388267823,
				"element": "H" 
			},
			{
				"x": -2.4622951983,
				"y": 1.7597716967,
				"z": 0.3730224829,
				"element": "H" 
			},
			{
				"x": -1.1877834491,
				"y": 2.7596095992,
				"z": -0.3890811813,
				"element": "H" 
			},
			{
				"x": -1.4485241767,
				"y": -0.934564976,
				"z": -3.5697778365,
				"element": "H" 
			},
			{
				"x": -1.9990706101,
				"y": 1.0250945794,
				"z": -1.919447722,
				"element": "H" 
			},
			{
				"x": 0.9066413676,
				"y": 0.1226152383,
				"z": 1.7579244193,
				"element": "H" 
			},
			{
				"x": 2.1244103762,
				"y": -1.023008005,
				"z": 2.2919131598,
				"element": "H" 
			}
		],
		 "valence_orbital": [ 
			{
				"type": "occ",
				"energy": -0.33734,
				"method": "rhf"
			},
			{
				"type": "occ",
				"energy": -0.255,
				"method": "rhf"
			},
			{
				"type": "occ",
				"energy": -0.24696,
				"method": "rhf"
			},
			{
				"type": "occ",
				"energy": -0.24321,
				"method": "rhf"
			},
			{
				"type": "occ",
				"energy": -0.22327,
				"method": "rhf"
			},
			{
				"type": "unocc",
				"energy": -0.03595,
				"method": "rhf"
			},
			{
				"type": "unocc",
				"energy": 0.03099,
				"method": "rhf"
			},
			{
				"type": "unocc",
				"energy": 0.04497,
				"method": "rhf"
			},
			{
				"type": "unocc",
				"energy": 0.08412,
				"method": "rhf"
			},
			{
				"type": "unocc",
				"energy": 0.09049,
				"method": "rhf"
			}
		],
		"cosmo_sigma_profile": { 
			"-0.025": 0.0,
			"-0.024": 0.0,
			"-0.023": 0.0,
			"-0.022": 0.0,
			"-0.021": 0.0,
			"-0.02": 0.0,
			"-0.019": 0.0,
			"-0.018": 0.0,
			"-0.017": 0.0,
			"-0.016": 0.0,
			"-0.015": 0.0,
			"-0.014": 0.561646140838,
			"-0.013": 1.23166325029,
			"-0.012": 0.537872957874,
			"-0.011": 1.37960649506,
			"-0.01": 1.66744001798,
			"-0.009": 3.63766653454,
			"-0.008": 5.26655156213,
			"-0.007": 7.56846026831,
			"-0.006": 13.3250860082,
			"-0.005": 12.5708624283,
			"-0.004": 12.9249605054,
			"-0.003": 10.3052598814,
			"-0.002": 7.24078263901,
			"-0.001": 7.14418099024,
			"0.0": 7.45169307778,
			"0.001": 10.9856011448,
			"0.002": 17.3712294371,
			"0.003": 19.0948049171,
			"0.004": 14.8713728519,
			"0.005": 4.44900768462,
			"0.006": 2.4489207074,
			"0.007": 1.15423731243,
			"0.008": 1.69982107534,
			"0.009": 1.68189179418,
			"0.01": 1.86460970937,
			"0.011": 1.07758680786,
			"0.012": 2.04837086892,
			"0.013": 2.40569851281,
			"0.014": 6.25313754294,
			"0.015": 1.73435451059,
			"0.016": 0.00157981135877,
			"0.017": 0.0,
			"0.018": 0.0,
			"0.019": 0.0,
			"0.02": 0.0,
			"0.021": 0.0,
			"0.022": 0.0,
			"0.023": 0.0,
			"0.024": 0.0,
			"0.025": 0.0
		}
	}
}
