{
	 "smiles": "CC(=O)OC1CCC2(C)C3CCC4(C)C(CCC4=O)C3C(=O)C[C@@]2(C)C1", 
	 "Tm": 428.15, 
	 "num_atms": 58, 
	 "gaussian": { 
		 "optdone": 1, 
		 "sigma_profile": "yes", 
		 "theory": "DFT", 
		 "functional": "B3LYP", 
		 "basiset": "6-31G**", 
		 "properties": { 
			 "R2extent": 10469.128, 
			 "electric_dipole_moment_norm": 3.35573376477, 
			 "electric_quadrupole_moment_norm": 17.5001796388, 
			 "total_energy": -1158.54173762, 
			 "HOMO_LUMO_gap": 0.21387, 
			 "cosmo_polarized_energy": -17.75, 
			 "cosmo_cavitation_energy": 49.99, 
			 "cosmo_dispersion_energy": -34.15, 
			 "cosmo_repulsion_energy": 2.5, 
			 "cosmo_total_nonelectrostatic_energy": 18.33, 
			 "SMD_solvation_energy": 9.33 
		},
		"coords": [
			{
				"x": 0.6728782627,
				"y": -3.514075496,
				"z": -5.5393360641,
				"element": "C" 
			},
			{
				"x": 0.7440733716,
				"y": -2.0618612439,
				"z": -5.1276971344,
				"element": "C" 
			},
			{
				"x": 1.1622439727,
				"y": -1.1587593328,
				"z": -5.8193477717,
				"element": "O" 
			},
			{
				"x": 0.2728851114,
				"y": -1.8969765162,
				"z": -3.8677260036,
				"element": "O" 
			},
			{
				"x": 0.2724254395,
				"y": -0.5380722514,
				"z": -3.3375463995,
				"element": "C" 
			},
			{
				"x": 1.6322263107,
				"y": -0.2089965249,
				"z": -2.7214590056,
				"element": "C" 
			},
			{
				"x": 1.8585667107,
				"y": -0.9242976641,
				"z": -1.3818135712,
				"element": "C" 
			},
			{
				"x": 0.7235246678,
				"y": -0.8762459168,
				"z": -0.3079489536,
				"element": "C" 
			},
			{
				"x": 1.0979525904,
				"y": -1.9979049623,
				"z": 0.7045930904,
				"element": "C" 
			},
			{
				"x": 0.748580538,
				"y": 0.4708941937,
				"z": 0.5169114412,
				"element": "C" 
			},
			{
				"x": 0.5889384626,
				"y": 1.8451456827,
				"z": -0.2177992456,
				"element": "C" 
			},
			{
				"x": -0.6956587056,
				"y": 2.6243626515,
				"z": 0.100972212,
				"element": "C" 
			},
			{
				"x": -0.8843928307,
				"y": 2.8984130093,
				"z": 1.606082898,
				"element": "C" 
			},
			{
				"x": -2.3501831091,
				"y": 3.2952757944,
				"z": 1.8870794831,
				"element": "C" 
			},
			{
				"x": -0.4079370658,
				"y": 1.7082586681,
				"z": 2.4968674867,
				"element": "C" 
			},
			{
				"x": 0.8864095447,
				"y": 2.1867676618,
				"z": 3.2156817533,
				"element": "C" 
			},
			{
				"x": 0.7460386603,
				"y": 3.7107192416,
				"z": 3.3229462295,
				"element": "C" 
			},
			{
				"x": 0.0021719839,
				"y": 4.0863687471,
				"z": 2.0465688002,
				"element": "C" 
			},
			{
				"x": 0.0837766017,
				"y": 5.1412201879,
				"z": 1.4538367602,
				"element": "O" 
			},
			{
				"x": -0.215678908,
				"y": 0.3796646355,
				"z": 1.7290416949,
				"element": "C" 
			},
			{
				"x": -1.5695132765,
				"y": -0.2582465994,
				"z": 1.3919338248,
				"element": "C" 
			},
			{
				"x": -2.427597485,
				"y": -0.3664722806,
				"z": 2.2519160282,
				"element": "O" 
			},
			{
				"x": -1.8603122235,
				"y": -0.7307565145,
				"z": -0.0282618175,
				"element": "C" 
			},
			{
				"x": -0.6856787639,
				"y": -1.1790635493,
				"z": -0.9631718425,
				"element": "C" 
			},
			{
				"x": -0.8766982527,
				"y": -2.6953767053,
				"z": -1.2246267743,
				"element": "C" 
			},
			{
				"x": -0.8579303957,
				"y": -0.4206916876,
				"z": -2.3161718266,
				"element": "C" 
			},
			{
				"x": 1.0093293373,
				"y": -3.6150306349,
				"z": -6.5706588228,
				"element": "H" 
			},
			{
				"x": 1.3052040932,
				"y": -4.1198925248,
				"z": -4.8830243432,
				"element": "H" 
			},
			{
				"x": -0.3507853589,
				"y": -3.8859041819,
				"z": -5.4392326131,
				"element": "H" 
			},
			{
				"x": 0.080720432,
				"y": 0.1292607358,
				"z": -4.1818641552,
				"element": "H" 
			},
			{
				"x": 2.4199482817,
				"y": -0.4868250577,
				"z": -3.4289850631,
				"element": "H" 
			},
			{
				"x": 1.7026083686,
				"y": 0.8774361971,
				"z": -2.6171122586,
				"element": "H" 
			},
			{
				"x": 2.7851511346,
				"y": -0.5565867947,
				"z": -0.9228650595,
				"element": "H" 
			},
			{
				"x": 2.0444493381,
				"y": -1.9795868342,
				"z": -1.612352015,
				"element": "H" 
			},
			{
				"x": 0.3118898223,
				"y": -2.2121315787,
				"z": 1.433112499,
				"element": "H" 
			},
			{
				"x": 1.9977096232,
				"y": -1.7151414534,
				"z": 1.2629971258,
				"element": "H" 
			},
			{
				"x": 1.3187182625,
				"y": -2.9353280674,
				"z": 0.1903448475,
				"element": "H" 
			},
			{
				"x": 1.7620299113,
				"y": 0.4840647184,
				"z": 0.9356803917,
				"element": "H" 
			},
			{
				"x": 1.4385131987,
				"y": 2.4797131834,
				"z": 0.0644619136,
				"element": "H" 
			},
			{
				"x": 0.6683274345,
				"y": 1.7360204634,
				"z": -1.2970876726,
				"element": "H" 
			},
			{
				"x": -0.6765492187,
				"y": 3.5887893854,
				"z": -0.418851825,
				"element": "H" 
			},
			{
				"x": -1.574492873,
				"y": 2.0893953767,
				"z": -0.2769343585,
				"element": "H" 
			},
			{
				"x": -3.0197792993,
				"y": 2.456683754,
				"z": 1.6722548271,
				"element": "H" 
			},
			{
				"x": -2.4975480673,
				"y": 3.572540664,
				"z": 2.9366831239,
				"element": "H" 
			},
			{
				"x": -2.6391210462,
				"y": 4.1495820014,
				"z": 1.2669347686,
				"element": "H" 
			},
			{
				"x": -1.1695594906,
				"y": 1.5113144165,
				"z": 3.2579977499,
				"element": "H" 
			},
			{
				"x": 1.773595542,
				"y": 1.9487836783,
				"z": 2.617166964,
				"element": "H" 
			},
			{
				"x": 1.0144358875,
				"y": 1.6947620402,
				"z": 4.1843900189,
				"element": "H" 
			},
			{
				"x": 1.6811593428,
				"y": 4.2671148052,
				"z": 3.4193968378,
				"element": "H" 
			},
			{
				"x": 0.107050026,
				"y": 3.9848984602,
				"z": 4.1746365537,
				"element": "H" 
			},
			{
				"x": 0.2165647406,
				"y": -0.3159164248,
				"z": 2.4590261218,
				"element": "H" 
			},
			{
				"x": -2.6171170846,
				"y": -1.5151344687,
				"z": 0.0631535289,
				"element": "H" 
			},
			{
				"x": -2.3892073789,
				"y": 0.1154002591,
				"z": -0.4881563849,
				"element": "H" 
			},
			{
				"x": -0.0649174989,
				"y": -3.125736286,
				"z": -1.812531163,
				"element": "H" 
			},
			{
				"x": -0.9677437729,
				"y": -3.2545530369,
				"z": -0.2899196966,
				"element": "H" 
			},
			{
				"x": -1.8014355889,
				"y": -2.8533388939,
				"z": -1.7898093568,
				"element": "H" 
			},
			{
				"x": -1.7949162619,
				"y": -0.7475624151,
				"z": -2.7831335953,
				"element": "H" 
			},
			{
				"x": -0.9778430492,
				"y": 0.6500152858,
				"z": -2.1198441815,
				"element": "H" 
			}
		],
		 "valence_orbital": [ 
			{
				"type": "occ",
				"energy": -0.29174,
				"method": "rhf"
			},
			{
				"type": "occ",
				"energy": -0.29051,
				"method": "rhf"
			},
			{
				"type": "occ",
				"energy": -0.27201,
				"method": "rhf"
			},
			{
				"type": "occ",
				"energy": -0.23958,
				"method": "rhf"
			},
			{
				"type": "occ",
				"energy": -0.23736,
				"method": "rhf"
			},
			{
				"type": "unocc",
				"energy": -0.02349,
				"method": "rhf"
			},
			{
				"type": "unocc",
				"energy": -0.0185,
				"method": "rhf"
			},
			{
				"type": "unocc",
				"energy": 0.00951,
				"method": "rhf"
			},
			{
				"type": "unocc",
				"energy": 0.05667,
				"method": "rhf"
			},
			{
				"type": "unocc",
				"energy": 0.07394,
				"method": "rhf"
			}
		],
		"cosmo_sigma_profile": { 
			"-0.025": 0.0,
			"-0.024": 0.0,
			"-0.023": 0.0,
			"-0.022": 0.0,
			"-0.021": 0.0,
			"-0.02": 0.0,
			"-0.019": 0.0,
			"-0.018": 0.0,
			"-0.017": 0.0,
			"-0.016": 0.0,
			"-0.015": 0.0,
			"-0.014": 0.0,
			"-0.013": 0.0,
			"-0.012": 0.0,
			"-0.011": 0.0,
			"-0.01": 0.00258542424499,
			"-0.009": 0.0128040467918,
			"-0.008": 0.262195873698,
			"-0.007": 2.16648637135,
			"-0.006": 11.230816055,
			"-0.005": 21.7348475974,
			"-0.004": 32.5238335058,
			"-0.003": 58.9810806245,
			"-0.002": 57.3640874639,
			"-0.001": 50.1114032466,
			"0.0": 39.0695971962,
			"0.001": 25.3218618713,
			"0.002": 12.2239991455,
			"0.003": 8.45838506185,
			"0.004": 7.00776742745,
			"0.005": 6.26249292973,
			"0.006": 5.68790181744,
			"0.007": 4.54122398967,
			"0.008": 4.85982081362,
			"0.009": 4.67374905649,
			"0.01": 5.04255003741,
			"0.011": 7.36643015368,
			"0.012": 12.6829874668,
			"0.013": 7.18186647818,
			"0.014": 0.779287878325,
			"0.015": 0.0,
			"0.016": 0.0,
			"0.017": 0.0,
			"0.018": 0.0,
			"0.019": 0.0,
			"0.02": 0.0,
			"0.021": 0.0,
			"0.022": 0.0,
			"0.023": 0.0,
			"0.024": 0.0,
			"0.025": 0.0
		}
	}
}
