{
	 "smiles": "OC(=O)C1CCN(C1=O)C1=CC2=C(OCCO2)C=C1", 
	 "Tm": 396.15, 
	 "num_atms": 32, 
	 "gaussian": { 
		 "optdone": 1, 
		 "sigma_profile": "yes", 
		 "theory": "DFT", 
		 "functional": "B3LYP", 
		 "basiset": "6-31G**", 
		 "properties": { 
			 "R2extent": 7143.3503, 
			 "electric_dipole_moment_norm": 7.63806493688, 
			 "electric_quadrupole_moment_norm": 14.9417224328, 
			 "total_energy": -934.105160644, 
			 "HOMO_LUMO_gap": 0.18564, 
			 "cosmo_polarized_energy": -18.69, 
			 "cosmo_cavitation_energy": 34.66, 
			 "cosmo_dispersion_energy": -26.36, 
			 "cosmo_repulsion_energy": 2.0, 
			 "cosmo_total_nonelectrostatic_energy": 10.31, 
			 "SMD_solvation_energy": 7.13 
		},
		"coords": [
			{
				"x": -1.018189586,
				"y": -1.9884090602,
				"z": 3.9969774246,
				"element": "O" 
			},
			{
				"x": -0.1123774179,
				"y": -1.0473000677,
				"z": 4.282969306,
				"element": "C" 
			},
			{
				"x": 0.5845702103,
				"y": -1.0809046568,
				"z": 5.2699393734,
				"element": "O" 
			},
			{
				"x": -0.0573890715,
				"y": 0.128406148,
				"z": 3.294670228,
				"element": "C" 
			},
			{
				"x": 1.2682518733,
				"y": 0.8916511132,
				"z": 3.2694558806,
				"element": "C" 
			},
			{
				"x": 1.3592851028,
				"y": 1.4098418178,
				"z": 1.8238940101,
				"element": "C" 
			},
			{
				"x": 0.5403902291,
				"y": 0.4648218403,
				"z": 1.0424576898,
				"element": "N" 
			},
			{
				"x": -0.2905007075,
				"y": -0.2692659577,
				"z": 1.8392156985,
				"element": "C" 
			},
			{
				"x": -1.118314461,
				"y": -1.1151090445,
				"z": 1.4845162025,
				"element": "O" 
			},
			{
				"x": 0.570699741,
				"y": 0.4564152983,
				"z": -0.3807313378,
				"element": "C" 
			},
			{
				"x": 1.1990830414,
				"y": 1.5152980619,
				"z": -1.0494342936,
				"element": "C" 
			},
			{
				"x": 1.268009361,
				"y": 1.5304447687,
				"z": -2.4416998555,
				"element": "C" 
			},
			{
				"x": 0.7138215103,
				"y": 0.4793359821,
				"z": -3.1875563174,
				"element": "C" 
			},
			{
				"x": 0.7749025092,
				"y": 0.4484305596,
				"z": -4.5590220213,
				"element": "O" 
			},
			{
				"x": 1.7320654003,
				"y": 1.3531027877,
				"z": -5.1099315082,
				"element": "C" 
			},
			{
				"x": 1.6164778844,
				"y": 2.7123189933,
				"z": -4.4383366125,
				"element": "C" 
			},
			{
				"x": 1.8915152755,
				"y": 2.59716927,
				"z": -3.040629063,
				"element": "O" 
			},
			{
				"x": 0.0766852765,
				"y": -0.5637903676,
				"z": -2.5164359578,
				"element": "C" 
			},
			{
				"x": -0.0033462615,
				"y": -0.5872762915,
				"z": -1.1279467603,
				"element": "C" 
			},
			{
				"x": -1.3490694606,
				"y": -1.8417753844,
				"z": 3.075740542,
				"element": "H" 
			},
			{
				"x": -0.8940527669,
				"y": 0.7888992885,
				"z": 3.5691412414,
				"element": "H" 
			},
			{
				"x": 1.3148911287,
				"y": 1.6994845691,
				"z": 4.0008214813,
				"element": "H" 
			},
			{
				"x": 2.0865123883,
				"y": 0.2012271301,
				"z": 3.4891247224,
				"element": "H" 
			},
			{
				"x": 0.9534254118,
				"y": 2.4252608159,
				"z": 1.7267029673,
				"element": "H" 
			},
			{
				"x": 2.3834016887,
				"y": 1.4173160263,
				"z": 1.4418259507,
				"element": "H" 
			},
			{
				"x": 1.6342761187,
				"y": 2.3561151884,
				"z": -0.5240719686,
				"element": "H" 
			},
			{
				"x": 2.7463736427,
				"y": 0.9538184231,
				"z": -4.9724978881,
				"element": "H" 
			},
			{
				"x": 1.5173101954,
				"y": 1.4195792075,
				"z": -6.1793878396,
				"element": "H" 
			},
			{
				"x": 0.6067633785,
				"y": 3.1183931057,
				"z": -4.5871127439,
				"element": "H" 
			},
			{
				"x": 2.3477114498,
				"y": 3.4180697697,
				"z": -4.840110371,
				"element": "H" 
			},
			{
				"x": -0.3504406815,
				"y": -1.3683652832,
				"z": -3.1061658058,
				"element": "H" 
			},
			{
				"x": -0.5041424032,
				"y": -1.4006040515,
				"z": -0.6246823741,
				"element": "H" 
			}
		],
		 "valence_orbital": [ 
			{
				"type": "occ",
				"energy": -0.28697,
				"method": "rhf"
			},
			{
				"type": "occ",
				"energy": -0.28215,
				"method": "rhf"
			},
			{
				"type": "occ",
				"energy": -0.26408,
				"method": "rhf"
			},
			{
				"type": "occ",
				"energy": -0.24264,
				"method": "rhf"
			},
			{
				"type": "occ",
				"energy": -0.21171,
				"method": "rhf"
			},
			{
				"type": "unocc",
				"energy": -0.02607,
				"method": "rhf"
			},
			{
				"type": "unocc",
				"energy": -0.00644,
				"method": "rhf"
			},
			{
				"type": "unocc",
				"energy": 0.01671,
				"method": "rhf"
			},
			{
				"type": "unocc",
				"energy": 0.03311,
				"method": "rhf"
			},
			{
				"type": "unocc",
				"energy": 0.0738,
				"method": "rhf"
			}
		],
		"cosmo_sigma_profile": { 
			"-0.025": 0.0,
			"-0.024": 0.0,
			"-0.023": 0.0,
			"-0.022": 0.0,
			"-0.021": 0.0,
			"-0.02": 0.0,
			"-0.019": 0.0,
			"-0.018": 0.0,
			"-0.017": 0.0,
			"-0.016": 0.0,
			"-0.015": 0.0,
			"-0.014": 0.0,
			"-0.013": 0.0,
			"-0.012": 0.0,
			"-0.011": 0.0,
			"-0.01": 0.492164554273,
			"-0.009": 4.48408725668,
			"-0.008": 5.05731143153,
			"-0.007": 15.0512036145,
			"-0.006": 28.5581712376,
			"-0.005": 28.6521733825,
			"-0.004": 22.6247950701,
			"-0.003": 15.1940690894,
			"-0.002": 13.4143262937,
			"-0.001": 11.2516503929,
			"0.0": 12.0374394059,
			"0.001": 11.0936839114,
			"0.002": 11.807558141,
			"0.003": 16.9344091356,
			"0.004": 16.7261075625,
			"0.005": 10.1474699158,
			"0.006": 7.65208492422,
			"0.007": 5.72368937713,
			"0.008": 7.06632577934,
			"0.009": 7.6432262294,
			"0.01": 9.38365606138,
			"0.011": 6.75326316981,
			"0.012": 5.58710151301,
			"0.013": 1.96043223968,
			"0.014": 0.0946989356867,
			"0.015": 0.0,
			"0.016": 0.0,
			"0.017": 0.0,
			"0.018": 0.0,
			"0.019": 0.0,
			"0.02": 0.0,
			"0.021": 0.0,
			"0.022": 0.0,
			"0.023": 0.0,
			"0.024": 0.0,
			"0.025": 0.0
		}
	}
}
