{
	 "smiles": "OC(=O)C1=C2C=C(Br)C=CC2=NC(C=CC2=CC=C(Br)C=C2)=C1", 
	 "Tm": 583.15, 
	 "num_atms": 34, 
	 "gaussian": { 
		 "optdone": 1, 
		 "sigma_profile": "yes", 
		 "theory": "DFT", 
		 "functional": "B3LYP", 
		 "basiset": "6-31G**", 
		 "properties": { 
			 "R2extent": 24124.86, 
			 "electric_dipole_moment_norm": 0.922539934095, 
			 "electric_quadrupole_moment_norm": 11.6618601471, 
			 "total_energy": -6040.57060183, 
			 "HOMO_LUMO_gap": 0.1216, 
			 "cosmo_polarized_energy": -13.1, 
			 "cosmo_cavitation_energy": 44.86, 
			 "cosmo_dispersion_energy": -33.33, 
			 "cosmo_repulsion_energy": 2.5, 
			 "cosmo_total_nonelectrostatic_energy": 14.03, 
			 "SMD_solvation_energy": 5.02 
		},
		"coords": [
			{
				"x": -0.6243765513,
				"y": 6.3145218651,
				"z": -1.0639382597,
				"element": "O" 
			},
			{
				"x": -0.36228203,
				"y": 5.1223186374,
				"z": -1.6460188845,
				"element": "C" 
			},
			{
				"x": -0.0936924678,
				"y": 5.0438960523,
				"z": -2.8281018853,
				"element": "O" 
			},
			{
				"x": -0.428092228,
				"y": 3.9334791507,
				"z": -0.7313918237,
				"element": "C" 
			},
			{
				"x": -0.7457254228,
				"y": 3.9335761081,
				"z": 0.6698665131,
				"element": "C" 
			},
			{
				"x": -1.0608353611,
				"y": 5.0761100703,
				"z": 1.4537959512,
				"element": "C" 
			},
			{
				"x": -1.3478884503,
				"y": 4.9349908978,
				"z": 2.7922905047,
				"element": "C" 
			},
			{
				"x": -1.7691164969,
				"y": 6.4845048181,
				"z": 3.8271941018,
				"element": "Br" 
			},
			{
				"x": -1.3434675229,
				"y": 3.6777447093,
				"z": 3.4375841824,
				"element": "C" 
			},
			{
				"x": -1.0425203579,
				"y": 2.5583883329,
				"z": 2.7029649862,
				"element": "C" 
			},
			{
				"x": -0.7380517845,
				"y": 2.6448408574,
				"z": 1.3151846464,
				"element": "C" 
			},
			{
				"x": -0.4550884951,
				"y": 1.4822590909,
				"z": 0.6798601721,
				"element": "N" 
			},
			{
				"x": -0.1651180055,
				"y": 1.5101008753,
				"z": -0.6163115557,
				"element": "C" 
			},
			{
				"x": 0.1418539456,
				"y": 0.2566397067,
				"z": -1.3107687457,
				"element": "C" 
			},
			{
				"x": 0.1496829236,
				"y": -0.9496820856,
				"z": -0.7076645443,
				"element": "C" 
			},
			{
				"x": 0.4427725703,
				"y": -2.2450783481,
				"z": -1.3178666016,
				"element": "C" 
			},
			{
				"x": 0.7697046835,
				"y": -2.4106350138,
				"z": -2.6788629151,
				"element": "C" 
			},
			{
				"x": 1.0402700984,
				"y": -3.6665672372,
				"z": -3.2089939792,
				"element": "C" 
			},
			{
				"x": 0.9875108238,
				"y": -4.7879176262,
				"z": -2.377648332,
				"element": "C" 
			},
			{
				"x": 1.3591148702,
				"y": -6.5135418595,
				"z": -3.1041535864,
				"element": "Br" 
			},
			{
				"x": 0.6677080941,
				"y": -4.6626951994,
				"z": -1.0274185079,
				"element": "C" 
			},
			{
				"x": 0.3991153358,
				"y": -3.3975990335,
				"z": -0.5109794794,
				"element": "C" 
			},
			{
				"x": -0.1460763668,
				"y": 2.7303170658,
				"z": -1.3445357204,
				"element": "C" 
			},
			{
				"x": -0.5437165052,
				"y": 6.9758797602,
				"z": -1.7720374851,
				"element": "H" 
			},
			{
				"x": -1.0751937158,
				"y": 6.0545603438,
				"z": 1.0003485283,
				"element": "H" 
			},
			{
				"x": -1.5752856894,
				"y": 3.6107771741,
				"z": 4.4942282337,
				"element": "H" 
			},
			{
				"x": -1.0266494184,
				"y": 1.5719295155,
				"z": 3.1536348821,
				"element": "H" 
			},
			{
				"x": 0.3698583386,
				"y": 0.3532017024,
				"z": -2.3694120934,
				"element": "H" 
			},
			{
				"x": -0.0885023399,
				"y": -0.965722817,
				"z": 0.3539602804,
				"element": "H" 
			},
			{
				"x": 0.8145980973,
				"y": -1.5488803108,
				"z": -3.3371303315,
				"element": "H" 
			},
			{
				"x": 1.2904417303,
				"y": -3.7794244492,
				"z": -4.2577556342,
				"element": "H" 
			},
			{
				"x": 0.6294424709,
				"y": -5.5393596323,
				"z": -0.3910006287,
				"element": "H" 
			},
			{
				"x": 0.149494167,
				"y": -3.2972855343,
				"z": 0.541806627,
				"element": "H" 
			},
			{
				"x": 0.09281106,
				"y": 2.7322524129,
				"z": -2.4021286153,
				"element": "H" 
			}
		],
		 "valence_orbital": [ 
			{
				"type": "occ",
				"energy": -0.27115,
				"method": "rhf"
			},
			{
				"type": "occ",
				"energy": -0.27022,
				"method": "rhf"
			},
			{
				"type": "occ",
				"energy": -0.26193,
				"method": "rhf"
			},
			{
				"type": "occ",
				"energy": -0.24741,
				"method": "rhf"
			},
			{
				"type": "occ",
				"energy": -0.21711,
				"method": "rhf"
			},
			{
				"type": "unocc",
				"energy": -0.09551,
				"method": "rhf"
			},
			{
				"type": "unocc",
				"energy": -0.05903,
				"method": "rhf"
			},
			{
				"type": "unocc",
				"energy": -0.02269,
				"method": "rhf"
			},
			{
				"type": "unocc",
				"energy": -0.01879,
				"method": "rhf"
			},
			{
				"type": "unocc",
				"energy": -0.01401,
				"method": "rhf"
			}
		],
		"cosmo_sigma_profile": { 
			"-0.025": 0.0,
			"-0.024": 0.0,
			"-0.023": 0.0,
			"-0.022": 0.0,
			"-0.021": 0.0,
			"-0.02": 0.0,
			"-0.019": 0.37826573081,
			"-0.018": 0.912255189535,
			"-0.017": 0.936571994215,
			"-0.016": 1.27619879698,
			"-0.015": 0.434373450573,
			"-0.014": 0.309657886414,
			"-0.013": 0.470631576674,
			"-0.012": 1.57058982449,
			"-0.011": 0.711472375505,
			"-0.01": 0.255850585192,
			"-0.009": 1.144950272,
			"-0.008": 5.65447304013,
			"-0.007": 13.7628357974,
			"-0.006": 14.713378206,
			"-0.005": 15.2744687418,
			"-0.004": 16.8151313285,
			"-0.003": 21.1726750788,
			"-0.002": 20.9659583065,
			"-0.001": 26.9049190657,
			"0.0": 36.4735789573,
			"0.001": 39.5067919238,
			"0.002": 44.1124979714,
			"0.003": 40.2428065776,
			"0.004": 33.1983232376,
			"0.005": 10.2669447234,
			"0.006": 3.67573833871,
			"0.007": 3.28199803906,
			"0.008": 1.84416071837,
			"0.009": 4.2134691528,
			"0.01": 3.19869315548,
			"0.011": 4.55707397608,
			"0.012": 0.488643844366,
			"0.013": 0.0,
			"0.014": 0.0,
			"0.015": 0.0,
			"0.016": 0.0,
			"0.017": 0.0,
			"0.018": 0.0,
			"0.019": 0.0,
			"0.02": 0.0,
			"0.021": 0.0,
			"0.022": 0.0,
			"0.023": 0.0,
			"0.024": 0.0,
			"0.025": 0.0
		}
	}
}
