{
	 "smiles": "OC(=O)CSC1=CC(F)=C(F)C=C1", 
	 "Tm": 336.15, 
	 "num_atms": 19, 
	 "gaussian": { 
		 "optdone": 1, 
		 "sigma_profile": "yes", 
		 "theory": "DFT", 
		 "functional": "B3LYP", 
		 "basiset": "6-31G**", 
		 "properties": { 
			 "R2extent": 3774.2507, 
			 "electric_dipole_moment_norm": 5.21816211419, 
			 "electric_quadrupole_moment_norm": 13.2943249317, 
			 "total_energy": -1056.76047522, 
			 "HOMO_LUMO_gap": 0.2088, 
			 "cosmo_polarized_energy": -17.19, 
			 "cosmo_cavitation_energy": 26.68, 
			 "cosmo_dispersion_energy": -19.38, 
			 "cosmo_repulsion_energy": 1.46, 
			 "cosmo_total_nonelectrostatic_energy": 8.76, 
			 "SMD_solvation_energy": 6.33 
		},
		"coords": [
			{
				"x": -3.5021859642,
				"y": -0.4760625333,
				"z": 2.7296343301,
				"element": "O" 
			},
			{
				"x": -2.4473200513,
				"y": 0.2142098961,
				"z": 2.2206458788,
				"element": "C" 
			},
			{
				"x": -2.5300004408,
				"y": 1.401472925,
				"z": 2.0477318007,
				"element": "O" 
			},
			{
				"x": -1.2301715754,
				"y": -0.6616411643,
				"z": 1.9056139811,
				"element": "C" 
			},
			{
				"x": 0.2857652819,
				"y": 0.216124457,
				"z": 1.3863541827,
				"element": "S" 
			},
			{
				"x": -0.0438312462,
				"y": 0.5645869197,
				"z": -0.3435724331,
				"element": "C" 
			},
			{
				"x": -0.9521137245,
				"y": 1.567784673,
				"z": -0.7174867299,
				"element": "C" 
			},
			{
				"x": -1.1383284658,
				"y": 1.8413921329,
				"z": -2.063873118,
				"element": "C" 
			},
			{
				"x": -2.0074810944,
				"y": 2.7880824735,
				"z": -2.4525852392,
				"element": "F" 
			},
			{
				"x": -0.4178624023,
				"y": 1.1496831771,
				"z": -3.0399148364,
				"element": "C" 
			},
			{
				"x": -0.619629802,
				"y": 1.4493074851,
				"z": -4.3325772883,
				"element": "F" 
			},
			{
				"x": 0.4926897269,
				"y": 0.1680616784,
				"z": -2.6764131067,
				"element": "C" 
			},
			{
				"x": 0.6770766661,
				"y": -0.128843677,
				"z": -1.3240178875,
				"element": "C" 
			},
			{
				"x": -3.2895413259,
				"y": -1.41665558,
				"z": 2.8169062155,
				"element": "H" 
			},
			{
				"x": -0.9505525144,
				"y": -1.2152515609,
				"z": 2.8101664497,
				"element": "H" 
			},
			{
				"x": -1.5077846114,
				"y": -1.4035697133,
				"z": 1.1480932203,
				"element": "H" 
			},
			{
				"x": -1.5133163194,
				"y": 2.1181943834,
				"z": 0.0284809576,
				"element": "H" 
			},
			{
				"x": 1.0408073937,
				"y": -0.353914867,
				"z": -3.4533343688,
				"element": "H" 
			},
			{
				"x": 1.3828804693,
				"y": -0.8979611053,
				"z": -1.0301520084,
				"element": "H" 
			}
		],
		 "valence_orbital": [ 
			{
				"type": "occ",
				"energy": -0.33106,
				"method": "rhf"
			},
			{
				"type": "occ",
				"energy": -0.29026,
				"method": "rhf"
			},
			{
				"type": "occ",
				"energy": -0.27031,
				"method": "rhf"
			},
			{
				"type": "occ",
				"energy": -0.25819,
				"method": "rhf"
			},
			{
				"type": "occ",
				"energy": -0.24026,
				"method": "rhf"
			},
			{
				"type": "unocc",
				"energy": -0.03146,
				"method": "rhf"
			},
			{
				"type": "unocc",
				"energy": -0.01777,
				"method": "rhf"
			},
			{
				"type": "unocc",
				"energy": -0.00554,
				"method": "rhf"
			},
			{
				"type": "unocc",
				"energy": 0.02979,
				"method": "rhf"
			},
			{
				"type": "unocc",
				"energy": 0.03661,
				"method": "rhf"
			}
		],
		"cosmo_sigma_profile": { 
			"-0.025": 0.0,
			"-0.024": 0.0,
			"-0.023": 0.0,
			"-0.022": 0.0,
			"-0.021": 0.0,
			"-0.02": 0.266141065314,
			"-0.019": 1.30106688354,
			"-0.018": 1.34684420692,
			"-0.017": 1.10112686411,
			"-0.016": 1.03530382682,
			"-0.015": 1.73722580862,
			"-0.014": 1.49930667597,
			"-0.013": 0.887909460032,
			"-0.012": 1.2585584179,
			"-0.011": 1.93610698756,
			"-0.01": 2.9024573815,
			"-0.009": 3.61228510781,
			"-0.008": 5.97005928472,
			"-0.007": 6.5394059034,
			"-0.006": 6.88794070077,
			"-0.005": 6.6872915002,
			"-0.004": 7.72219163616,
			"-0.003": 6.80685150058,
			"-0.002": 9.50906828074,
			"-0.001": 16.5486619849,
			"0.0": 18.7843887697,
			"0.001": 18.0187897604,
			"0.002": 15.947554881,
			"0.003": 22.1082306834,
			"0.004": 18.8848613557,
			"0.005": 5.20083055073,
			"0.006": 4.02588202987,
			"0.007": 5.03471926069,
			"0.008": 4.50146309576,
			"0.009": 4.85320629855,
			"0.01": 5.82374622154,
			"0.011": 4.88502457663,
			"0.012": 2.14216230338,
			"0.013": 0.23877016918,
			"0.014": 0.0,
			"0.015": 0.0,
			"0.016": 0.0,
			"0.017": 0.0,
			"0.018": 0.0,
			"0.019": 0.0,
			"0.02": 0.0,
			"0.021": 0.0,
			"0.022": 0.0,
			"0.023": 0.0,
			"0.024": 0.0,
			"0.025": 0.0
		}
	}
}
