{
	 "smiles": "COC1=CC=C(OC)C(=C1)C(=O)CCCCC(O)=O", 
	 "Tm": 349.15, 
	 "num_atms": 37, 
	 "gaussian": { 
		 "optdone": 1, 
		 "sigma_profile": "yes", 
		 "theory": "DFT", 
		 "functional": "B3LYP", 
		 "basiset": "6-31G**", 
		 "properties": { 
			 "R2extent": 8211.4437, 
			 "electric_dipole_moment_norm": 3.91818417893, 
			 "electric_quadrupole_moment_norm": 14.77612202, 
			 "total_energy": -920.447687556, 
			 "HOMO_LUMO_gap": 0.17389, 
			 "cosmo_polarized_energy": -18.88, 
			 "cosmo_cavitation_energy": 41.11, 
			 "cosmo_dispersion_energy": -27.99, 
			 "cosmo_repulsion_energy": 2.23, 
			 "cosmo_total_nonelectrostatic_energy": 15.35, 
			 "SMD_solvation_energy": 9.67 
		},
		"coords": [
			{
				"x": -4.9123337897,
				"y": 0.3486551356,
				"z": 1.9044336333,
				"element": "C" 
			},
			{
				"x": -4.394567684,
				"y": -0.9263912377,
				"z": 1.5641359747,
				"element": "O" 
			},
			{
				"x": -3.1531019571,
				"y": -0.99080749,
				"z": 0.9969570946,
				"element": "C" 
			},
			{
				"x": -2.6924528717,
				"y": -2.2779576763,
				"z": 0.6834528413,
				"element": "C" 
			},
			{
				"x": -1.4438557061,
				"y": -2.4434292049,
				"z": 0.1018525804,
				"element": "C" 
			},
			{
				"x": -0.6323826527,
				"y": -1.3411005486,
				"z": -0.1978113744,
				"element": "C" 
			},
			{
				"x": 0.6277561815,
				"y": -1.564548425,
				"z": -0.6944008075,
				"element": "O" 
			},
			{
				"x": 0.7120392238,
				"y": -1.6963544516,
				"z": -2.1173900597,
				"element": "C" 
			},
			{
				"x": -1.0842926309,
				"y": -0.0450194007,
				"z": 0.1137151214,
				"element": "C" 
			},
			{
				"x": -2.3416484842,
				"y": 0.1130301966,
				"z": 0.7288696969,
				"element": "C" 
			},
			{
				"x": -0.2496133167,
				"y": 1.1639506237,
				"z": -0.2131666958,
				"element": "C" 
			},
			{
				"x": 0.3820267413,
				"y": 1.2354952979,
				"z": -1.2550239353,
				"element": "O" 
			},
			{
				"x": -0.1794918806,
				"y": 2.2928934099,
				"z": 0.81019243,
				"element": "C" 
			},
			{
				"x": 0.5796835437,
				"y": 1.8760909677,
				"z": 2.0857028401,
				"element": "C" 
			},
			{
				"x": 0.6584491338,
				"y": 3.012503215,
				"z": 3.113911793,
				"element": "C" 
			},
			{
				"x": 1.4059389126,
				"y": 2.6249629795,
				"z": 4.3935027389,
				"element": "C" 
			},
			{
				"x": 2.8999860701,
				"y": 2.4712003023,
				"z": 4.1937343412,
				"element": "C" 
			},
			{
				"x": 3.4892456747,
				"y": 1.901581365,
				"z": 5.2733214319,
				"element": "O" 
			},
			{
				"x": 3.5292603891,
				"y": 2.8213613476,
				"z": 3.2191818508,
				"element": "O" 
			},
			{
				"x": -5.9000177056,
				"y": 0.1694770263,
				"z": 2.3319708288,
				"element": "H" 
			},
			{
				"x": -4.2852548973,
				"y": 0.8565519425,
				"z": 2.6492714699,
				"element": "H" 
			},
			{
				"x": -5.0139718893,
				"y": 0.9945008144,
				"z": 1.0223126242,
				"element": "H" 
			},
			{
				"x": -3.3262571155,
				"y": -3.1281832797,
				"z": 0.9134557346,
				"element": "H" 
			},
			{
				"x": -1.0647640673,
				"y": -3.4366322178,
				"z": -0.1182449959,
				"element": "H" 
			},
			{
				"x": 0.4407706132,
				"y": -0.7551605336,
				"z": -2.6028567434,
				"element": "H" 
			},
			{
				"x": 1.7535991526,
				"y": -1.9380502791,
				"z": -2.3390111307,
				"element": "H" 
			},
			{
				"x": 0.068271007,
				"y": -2.5098064709,
				"z": -2.4781285605,
				"element": "H" 
			},
			{
				"x": -2.6869670454,
				"y": 1.1107499915,
				"z": 0.9684738776,
				"element": "H" 
			},
			{
				"x": -1.1883824454,
				"y": 2.6282660514,
				"z": 1.0835800651,
				"element": "H" 
			},
			{
				"x": 0.3279853331,
				"y": 3.1288580507,
				"z": 0.3205760345,
				"element": "H" 
			},
			{
				"x": 1.5928843416,
				"y": 1.564235693,
				"z": 1.810530338,
				"element": "H" 
			},
			{
				"x": 0.0862705564,
				"y": 1.0056485164,
				"z": 2.5366585311,
				"element": "H" 
			},
			{
				"x": 1.1546841709,
				"y": 3.8793440921,
				"z": 2.663830834,
				"element": "H" 
			},
			{
				"x": -0.3562936387,
				"y": 3.3297023262,
				"z": 3.3861463173,
				"element": "H" 
			},
			{
				"x": 1.2716027256,
				"y": 3.3901861123,
				"z": 5.1693938396,
				"element": "H" 
			},
			{
				"x": 1.018375111,
				"y": 1.6949447863,
				"z": 4.8256910691,
				"element": "H" 
			},
			{
				"x": 4.4395208961,
				"y": 1.8624509722,
				"z": 5.071978371,
				"element": "H" 
			}
		],
		 "valence_orbital": [ 
			{
				"type": "occ",
				"energy": -0.27638,
				"method": "rhf"
			},
			{
				"type": "occ",
				"energy": -0.2636,
				"method": "rhf"
			},
			{
				"type": "occ",
				"energy": -0.25925,
				"method": "rhf"
			},
			{
				"type": "occ",
				"energy": -0.2394,
				"method": "rhf"
			},
			{
				"type": "occ",
				"energy": -0.21764,
				"method": "rhf"
			},
			{
				"type": "unocc",
				"energy": -0.04375,
				"method": "rhf"
			},
			{
				"type": "unocc",
				"energy": 0.00313,
				"method": "rhf"
			},
			{
				"type": "unocc",
				"energy": 0.00857,
				"method": "rhf"
			},
			{
				"type": "unocc",
				"energy": 0.02988,
				"method": "rhf"
			},
			{
				"type": "unocc",
				"energy": 0.07565,
				"method": "rhf"
			}
		],
		"cosmo_sigma_profile": { 
			"-0.025": 0.0,
			"-0.024": 0.0,
			"-0.023": 0.0,
			"-0.022": 0.0,
			"-0.021": 0.0,
			"-0.02": 0.0,
			"-0.019": 0.0,
			"-0.018": 0.542571961805,
			"-0.017": 0.940695701877,
			"-0.016": 0.733798197446,
			"-0.015": 0.746509694139,
			"-0.014": 1.03828440856,
			"-0.013": 0.713605990942,
			"-0.012": 0.577230065328,
			"-0.011": 0.428823139337,
			"-0.01": 0.766322733368,
			"-0.009": 0.759305194911,
			"-0.008": 2.49862202273,
			"-0.007": 5.83746323006,
			"-0.006": 15.3654881585,
			"-0.005": 22.0060056472,
			"-0.004": 30.3161400166,
			"-0.003": 38.345591061,
			"-0.002": 35.745852412,
			"-0.001": 25.7315278752,
			"0.0": 18.3634005928,
			"0.001": 11.6980585371,
			"0.002": 15.1177229112,
			"0.003": 19.7789062286,
			"0.004": 13.3627269569,
			"0.005": 7.06528898469,
			"0.006": 7.4221589763,
			"0.007": 6.91086539171,
			"0.008": 8.76938391062,
			"0.009": 7.14823162652,
			"0.01": 7.52353518671,
			"0.011": 7.87504339408,
			"0.012": 7.40218122176,
			"0.013": 1.82816253669,
			"0.014": 0.0477631192616,
			"0.015": 0.0,
			"0.016": 0.0,
			"0.017": 0.0,
			"0.018": 0.0,
			"0.019": 0.0,
			"0.02": 0.0,
			"0.021": 0.0,
			"0.022": 0.0,
			"0.023": 0.0,
			"0.024": 0.0,
			"0.025": 0.0
		}
	}
}
