{
	 "smiles": "CC1=NN=C2C=CC(Cl)=NN12", 
	 "Tm": 377.15, 
	 "num_atms": 16, 
	 "gaussian": { 
		 "optdone": 1, 
		 "sigma_profile": "yes", 
		 "theory": "DFT", 
		 "functional": "B3LYP", 
		 "basiset": "6-31G**", 
		 "properties": { 
			 "R2extent": 3156.192, 
			 "electric_dipole_moment_norm": 3.06080419825, 
			 "electric_quadrupole_moment_norm": 12.4735605005, 
			 "total_energy": -910.794938903, 
			 "HOMO_LUMO_gap": 0.16397, 
			 "cosmo_polarized_energy": -13.0, 
			 "cosmo_cavitation_energy": 22.68, 
			 "cosmo_dispersion_energy": -17.17, 
			 "cosmo_repulsion_energy": 1.38, 
			 "cosmo_total_nonelectrostatic_energy": 6.88, 
			 "SMD_solvation_energy": 0.95 
		},
		"coords": [
			{
				"x": -1.5547245855,
				"y": 1.6693025903,
				"z": 1.0741684053,
				"element": "C" 
			},
			{
				"x": -0.4386183546,
				"y": 0.8856416684,
				"z": 0.4832186833,
				"element": "C" 
			},
			{
				"x": 0.2028431542,
				"y": -0.1336576502,
				"z": 1.0344380624,
				"element": "N" 
			},
			{
				"x": 1.1674173916,
				"y": -0.5897960972,
				"z": 0.1772895113,
				"element": "N" 
			},
			{
				"x": 1.1068656342,
				"y": 0.1653300077,
				"z": -0.9067074636,
				"element": "C" 
			},
			{
				"x": 1.8326080496,
				"y": 0.1862640929,
				"z": -2.1219884482,
				"element": "C" 
			},
			{
				"x": 1.4957968958,
				"y": 1.1307616963,
				"z": -3.0525428408,
				"element": "C" 
			},
			{
				"x": 0.4318451551,
				"y": 2.0437600652,
				"z": -2.7490228493,
				"element": "C" 
			},
			{
				"x": 0.0115121099,
				"y": 3.2449866518,
				"z": -3.9461544623,
				"element": "Cl" 
			},
			{
				"x": -0.2659206136,
				"y": 2.0680016544,
				"z": -1.6501300408,
				"element": "N" 
			},
			{
				"x": 0.0969835907,
				"y": 1.1191759512,
				"z": -0.7551748391,
				"element": "N" 
			},
			{
				"x": -1.2903233004,
				"y": 2.7278494746,
				"z": 1.1667490251,
				"element": "H" 
			},
			{
				"x": -1.7754137044,
				"y": 1.2669330848,
				"z": 2.0635110462,
				"element": "H" 
			},
			{
				"x": -2.453956772,
				"y": 1.6092957805,
				"z": 0.4522515671,
				"element": "H" 
			},
			{
				"x": 2.6247853818,
				"y": -0.5360995933,
				"z": -2.281331581,
				"element": "H" 
			},
			{
				"x": 2.0045999676,
				"y": 1.2093506228,
				"z": -4.0046737756,
				"element": "H" 
			}
		],
		 "valence_orbital": [ 
			{
				"type": "occ",
				"energy": -0.34126,
				"method": "rhf"
			},
			{
				"type": "occ",
				"energy": -0.31702,
				"method": "rhf"
			},
			{
				"type": "occ",
				"energy": -0.28401,
				"method": "rhf"
			},
			{
				"type": "occ",
				"energy": -0.26054,
				"method": "rhf"
			},
			{
				"type": "occ",
				"energy": -0.24833,
				"method": "rhf"
			},
			{
				"type": "unocc",
				"energy": -0.08436,
				"method": "rhf"
			},
			{
				"type": "unocc",
				"energy": -0.02595,
				"method": "rhf"
			},
			{
				"type": "unocc",
				"energy": 0.00711,
				"method": "rhf"
			},
			{
				"type": "unocc",
				"energy": 0.03584,
				"method": "rhf"
			},
			{
				"type": "unocc",
				"energy": 0.09166,
				"method": "rhf"
			}
		],
		"cosmo_sigma_profile": { 
			"-0.025": 0.0,
			"-0.024": 0.0,
			"-0.023": 0.0,
			"-0.022": 0.0,
			"-0.021": 0.0,
			"-0.02": 0.0,
			"-0.019": 0.0,
			"-0.018": 0.0,
			"-0.017": 0.0,
			"-0.016": 0.0,
			"-0.015": 0.0,
			"-0.014": 0.0,
			"-0.013": 0.0,
			"-0.012": 0.0,
			"-0.011": 0.131183059114,
			"-0.01": 2.95727796445,
			"-0.009": 4.00509950789,
			"-0.008": 4.65556164124,
			"-0.007": 4.01856470811,
			"-0.006": 10.1508098205,
			"-0.005": 11.8567701899,
			"-0.004": 15.6830262636,
			"-0.003": 19.3431875371,
			"-0.002": 20.8822762181,
			"-0.001": 13.9268073736,
			"0.0": 7.87232209741,
			"0.001": 9.17901877817,
			"0.002": 10.2586408863,
			"0.003": 11.7867780984,
			"0.004": 5.10145644464,
			"0.005": 3.63873787333,
			"0.006": 2.83853968418,
			"0.007": 3.43291173587,
			"0.008": 2.46747816679,
			"0.009": 2.86534451018,
			"0.01": 2.47668828291,
			"0.011": 2.36830218683,
			"0.012": 2.61665817615,
			"0.013": 3.99468241656,
			"0.014": 2.54903075963,
			"0.015": 2.49804678759,
			"0.016": 1.67648494682,
			"0.017": 0.145417028667,
			"0.018": 0.0,
			"0.019": 0.0,
			"0.02": 0.0,
			"0.021": 0.0,
			"0.022": 0.0,
			"0.023": 0.0,
			"0.024": 0.0,
			"0.025": 0.0
		}
	}
}
