{
	 "smiles": "O=C1CSC(=S)N1C1=CC=CC=C1", 
	 "Tm": 467.15, 
	 "num_atms": 20, 
	 "gaussian": { 
		 "optdone": 1, 
		 "sigma_profile": "yes", 
		 "theory": "DFT", 
		 "functional": "B3LYP", 
		 "basiset": "6-31G**", 
		 "properties": { 
			 "R2extent": 3466.8698, 
			 "electric_dipole_moment_norm": 1.93205939091, 
			 "electric_quadrupole_moment_norm": 20.6364887595, 
			 "total_energy": -1273.53445407, 
			 "HOMO_LUMO_gap": 0.16033, 
			 "cosmo_polarized_energy": -13.67, 
			 "cosmo_cavitation_energy": 28.06, 
			 "cosmo_dispersion_energy": -20.67, 
			 "cosmo_repulsion_energy": 1.57, 
			 "cosmo_total_nonelectrostatic_energy": 8.96, 
			 "SMD_solvation_energy": 4.41 
		},
		"coords": [
			{
				"x": 0.6538888344,
				"y": 2.3363056623,
				"z": -0.5499195772,
				"element": "O" 
			},
			{
				"x": -0.0510581643,
				"y": 1.5655174036,
				"z": -1.1583630528,
				"element": "C" 
			},
			{
				"x": -0.1234667666,
				"y": 1.4731631715,
				"z": -2.6767606583,
				"element": "C" 
			},
			{
				"x": -1.336372722,
				"y": 0.1692043836,
				"z": -3.0807902246,
				"element": "S" 
			},
			{
				"x": -1.6777438537,
				"y": -0.1820993472,
				"z": -1.3772726481,
				"element": "C" 
			},
			{
				"x": -2.7607570257,
				"y": -1.3232960012,
				"z": -0.9071864052,
				"element": "S" 
			},
			{
				"x": -0.914015813,
				"y": 0.634136123,
				"z": -0.5518597952,
				"element": "N" 
			},
			{
				"x": -0.9838858794,
				"y": 0.561238583,
				"z": 0.8877742628,
				"element": "C" 
			},
			{
				"x": -1.7500753542,
				"y": 1.495753091,
				"z": 1.5827203361,
				"element": "C" 
			},
			{
				"x": -1.7958382788,
				"y": 1.4396334424,
				"z": 2.9755197717,
				"element": "C" 
			},
			{
				"x": -1.0809659474,
				"y": 0.4554379222,
				"z": 3.6605894932,
				"element": "C" 
			},
			{
				"x": -0.3160534036,
				"y": -0.4748622293,
				"z": 2.9538758581,
				"element": "C" 
			},
			{
				"x": -0.2627311271,
				"y": -0.4237275661,
				"z": 1.5615155684,
				"element": "C" 
			},
			{
				"x": -0.4300138913,
				"y": 2.4405525235,
				"z": -3.0822883998,
				"element": "H" 
			},
			{
				"x": 0.8672136605,
				"y": 1.2302593183,
				"z": -3.069048076,
				"element": "H" 
			},
			{
				"x": -2.3017893671,
				"y": 2.2539191507,
				"z": 1.0368220685,
				"element": "H" 
			},
			{
				"x": -2.390046914,
				"y": 2.164446594,
				"z": 3.5233536352,
				"element": "H" 
			},
			{
				"x": -1.1193887072,
				"y": 0.4135378007,
				"z": 4.7450102177,
				"element": "H" 
			},
			{
				"x": 0.2407455582,
				"y": -1.2405683321,
				"z": 3.485129448,
				"element": "H" 
			},
			{
				"x": 0.3263551623,
				"y": -1.1403516939,
				"z": 0.9989781777,
				"element": "H" 
			}
		],
		 "valence_orbital": [ 
			{
				"type": "occ",
				"energy": -0.28152,
				"method": "rhf"
			},
			{
				"type": "occ",
				"energy": -0.26569,
				"method": "rhf"
			},
			{
				"type": "occ",
				"energy": -0.2648,
				"method": "rhf"
			},
			{
				"type": "occ",
				"energy": -0.24663,
				"method": "rhf"
			},
			{
				"type": "occ",
				"energy": -0.22861,
				"method": "rhf"
			},
			{
				"type": "unocc",
				"energy": -0.06828,
				"method": "rhf"
			},
			{
				"type": "unocc",
				"energy": -0.02563,
				"method": "rhf"
			},
			{
				"type": "unocc",
				"energy": -0.01456,
				"method": "rhf"
			},
			{
				"type": "unocc",
				"energy": -0.00011,
				"method": "rhf"
			},
			{
				"type": "unocc",
				"energy": 0.00519,
				"method": "rhf"
			}
		],
		"cosmo_sigma_profile": { 
			"-0.025": 0.0,
			"-0.024": 0.0,
			"-0.023": 0.0,
			"-0.022": 0.0,
			"-0.021": 0.0,
			"-0.02": 0.0,
			"-0.019": 0.0,
			"-0.018": 0.0,
			"-0.017": 0.0,
			"-0.016": 0.0,
			"-0.015": 0.0,
			"-0.014": 0.0,
			"-0.013": 0.0,
			"-0.012": 0.0,
			"-0.011": 0.0,
			"-0.01": 3.39534119534,
			"-0.009": 6.92346799009,
			"-0.008": 6.82954723229,
			"-0.007": 13.9418372658,
			"-0.006": 18.5963721209,
			"-0.005": 15.5500209,
			"-0.004": 12.293494747,
			"-0.003": 8.80658022858,
			"-0.002": 9.56452531401,
			"-0.001": 9.10090861843,
			"0.0": 9.5131301507,
			"0.001": 14.6017589335,
			"0.002": 15.1214782038,
			"0.003": 17.1438311811,
			"0.004": 17.8888909067,
			"0.005": 11.6712629139,
			"0.006": 10.8629379357,
			"0.007": 7.23422774839,
			"0.008": 6.43129764127,
			"0.009": 5.75927554996,
			"0.01": 4.98952773135,
			"0.011": 3.95182449825,
			"0.012": 0.332054461871,
			"0.013": 0.0,
			"0.014": 0.0,
			"0.015": 0.0,
			"0.016": 0.0,
			"0.017": 0.0,
			"0.018": 0.0,
			"0.019": 0.0,
			"0.02": 0.0,
			"0.021": 0.0,
			"0.022": 0.0,
			"0.023": 0.0,
			"0.024": 0.0,
			"0.025": 0.0
		}
	}
}
