{
	 "smiles": "CCOC(=O)CC#N", 
	 "Tm": 250.65, 
	 "num_atms": 15, 
	 "gaussian": { 
		 "optdone": 1, 
		 "sigma_profile": "yes", 
		 "theory": "DFT", 
		 "functional": "B3LYP", 
		 "basiset": "6-31G**", 
		 "properties": { 
			 "R2extent": 1979.152, 
			 "electric_dipole_moment_norm": 2.3546246771, 
			 "electric_quadrupole_moment_norm": 16.910107963, 
			 "total_energy": -399.94033913, 
			 "HOMO_LUMO_gap": 0.28124, 
			 "cosmo_polarized_energy": -12.27, 
			 "cosmo_cavitation_energy": 20.48, 
			 "cosmo_dispersion_energy": -14.18, 
			 "cosmo_repulsion_energy": 1.24, 
			 "cosmo_total_nonelectrostatic_energy": 7.54, 
			 "SMD_solvation_energy": 6.44 
		},
		"coords": [
			{
				"x": -0.1420245958,
				"y": -0.9448136026,
				"z": -0.3545903382,
				"element": "C" 
			},
			{
				"x": -0.0654307108,
				"y": 0.5613406278,
				"z": -0.5047959243,
				"element": "C" 
			},
			{
				"x": -0.2689397093,
				"y": 1.139112275,
				"z": 0.8132050663,
				"element": "O" 
			},
			{
				"x": -0.2310890384,
				"y": 2.4723605118,
				"z": 0.8822122157,
				"element": "C" 
			},
			{
				"x": -0.0462550968,
				"y": 3.2209783117,
				"z": -0.0496460499,
				"element": "O" 
			},
			{
				"x": -0.4614971629,
				"y": 2.9955509181,
				"z": 2.304778189,
				"element": "C" 
			},
			{
				"x": -0.5974828889,
				"y": 1.9875019585,
				"z": 3.3541049256,
				"element": "C" 
			},
			{
				"x": -0.7073356782,
				"y": 1.2099901802,
				"z": 4.2077036333,
				"element": "N" 
			},
			{
				"x": 0.0073967762,
				"y": -1.418782445,
				"z": -1.3295528617,
				"element": "H" 
			},
			{
				"x": 0.6294352651,
				"y": -1.3096263337,
				"z": 0.3289260386,
				"element": "H" 
			},
			{
				"x": -1.1179250907,
				"y": -1.2505573352,
				"z": 0.0322214416,
				"element": "H" 
			},
			{
				"x": -0.835177383,
				"y": 0.9536366584,
				"z": -1.176068032,
				"element": "H" 
			},
			{
				"x": 0.9063351273,
				"y": 0.8944398753,
				"z": -0.8811192755,
				"element": "H" 
			},
			{
				"x": 0.370817119,
				"y": 3.6669099256,
				"z": 2.5418192785,
				"element": "H" 
			},
			{
				"x": -1.3610269328,
				"y": 3.6210584741,
				"z": 2.2778016929,
				"element": "H" 
			}
		],
		 "valence_orbital": [ 
			{
				"type": "occ",
				"energy": -0.36283,
				"method": "rhf"
			},
			{
				"type": "occ",
				"energy": -0.3413,
				"method": "rhf"
			},
			{
				"type": "occ",
				"energy": -0.33188,
				"method": "rhf"
			},
			{
				"type": "occ",
				"energy": -0.31785,
				"method": "rhf"
			},
			{
				"type": "occ",
				"energy": -0.29051,
				"method": "rhf"
			},
			{
				"type": "unocc",
				"energy": -0.00927,
				"method": "rhf"
			},
			{
				"type": "unocc",
				"energy": 0.02585,
				"method": "rhf"
			},
			{
				"type": "unocc",
				"energy": 0.0334,
				"method": "rhf"
			},
			{
				"type": "unocc",
				"energy": 0.08155,
				"method": "rhf"
			},
			{
				"type": "unocc",
				"energy": 0.09634,
				"method": "rhf"
			}
		],
		"cosmo_sigma_profile": { 
			"-0.025": 0.0,
			"-0.024": 0.0,
			"-0.023": 0.0,
			"-0.022": 0.0,
			"-0.021": 0.0,
			"-0.02": 0.0,
			"-0.019": 0.0,
			"-0.018": 0.0,
			"-0.017": 0.0,
			"-0.016": 0.0,
			"-0.015": 0.0,
			"-0.014": 0.0,
			"-0.013": 0.0,
			"-0.012": 0.0,
			"-0.011": 2.96760119079,
			"-0.01": 6.2391349285,
			"-0.009": 4.13296364955,
			"-0.008": 4.32856383684,
			"-0.007": 4.95996484122,
			"-0.006": 6.67847932156,
			"-0.005": 10.7672937968,
			"-0.004": 16.8003735924,
			"-0.003": 12.9066694028,
			"-0.002": 10.3567557002,
			"-0.001": 11.1022221518,
			"0.0": 8.9315511472,
			"0.001": 4.86145994933,
			"0.002": 4.54758718372,
			"0.003": 4.65018219207,
			"0.004": 3.70383988415,
			"0.005": 4.467946981,
			"0.006": 4.55119990881,
			"0.007": 6.602285199,
			"0.008": 5.69505408995,
			"0.009": 5.38548702554,
			"0.01": 5.56611819871,
			"0.011": 7.74952787668,
			"0.012": 3.60078867546,
			"0.013": 1.29543187826,
			"0.014": 0.0233711776982,
			"0.015": 0.0,
			"0.016": 0.0,
			"0.017": 0.0,
			"0.018": 0.0,
			"0.019": 0.0,
			"0.02": 0.0,
			"0.021": 0.0,
			"0.022": 0.0,
			"0.023": 0.0,
			"0.024": 0.0,
			"0.025": 0.0
		}
	}
}
