{
	 "smiles": "CC1=C(Cl)C=CC(=C1)C(N)C(O)=O", 
	 "Tm": 492.15, 
	 "num_atms": 23, 
	 "gaussian": { 
		 "optdone": 1, 
		 "sigma_profile": "yes", 
		 "theory": "DFT", 
		 "functional": "B3LYP", 
		 "basiset": "6-31G**", 
		 "properties": { 
			 "R2extent": 3425.9785, 
			 "electric_dipole_moment_norm": 1.38948335003, 
			 "electric_quadrupole_moment_norm": 12.0278101914, 
			 "total_energy": -1014.39258421, 
			 "HOMO_LUMO_gap": 0.21811, 
			 "cosmo_polarized_energy": -12.98, 
			 "cosmo_cavitation_energy": 28.9, 
			 "cosmo_dispersion_energy": -20.68, 
			 "cosmo_repulsion_energy": 1.66, 
			 "cosmo_total_nonelectrostatic_energy": 9.88, 
			 "SMD_solvation_energy": 4.68 
		},
		"coords": [
			{
				"x": 0.6962835399,
				"y": 0.653078704,
				"z": 2.4655150067,
				"element": "C" 
			},
			{
				"x": 0.0329557998,
				"y": 0.1853182955,
				"z": 1.1959824933,
				"element": "C" 
			},
			{
				"x": -1.309601442,
				"y": -0.2265592986,
				"z": 1.1599556846,
				"element": "C" 
			},
			{
				"x": -2.2702011634,
				"y": -0.2086050041,
				"z": 2.6378786452,
				"element": "Cl" 
			},
			{
				"x": -1.9170197083,
				"y": -0.6568235918,
				"z": -0.0161166982,
				"element": "C" 
			},
			{
				"x": -1.1812530602,
				"y": -0.6849750961,
				"z": -1.2011802713,
				"element": "C" 
			},
			{
				"x": 0.1563750709,
				"y": -0.2892454536,
				"z": -1.2090720036,
				"element": "C" 
			},
			{
				"x": 0.7394542232,
				"y": 0.1415706711,
				"z": -0.0108525877,
				"element": "C" 
			},
			{
				"x": 1.0033261477,
				"y": -0.3122543979,
				"z": -2.4956071293,
				"element": "C" 
			},
			{
				"x": 0.4533044825,
				"y": -0.9993259284,
				"z": -3.6558875542,
				"element": "N" 
			},
			{
				"x": 1.348659726,
				"y": 1.1323833396,
				"z": -2.8569742365,
				"element": "C" 
			},
			{
				"x": 0.4130778378,
				"y": 1.6945849663,
				"z": -3.6556143372,
				"element": "O" 
			},
			{
				"x": 2.3132726884,
				"y": 1.736424714,
				"z": -2.445651029,
				"element": "O" 
			},
			{
				"x": 0.1783725108,
				"y": 1.5207047245,
				"z": 2.8880054572,
				"element": "H" 
			},
			{
				"x": 0.6815611074,
				"y": -0.1277730256,
				"z": 3.233471547,
				"element": "H" 
			},
			{
				"x": 1.7358503123,
				"y": 0.9316550614,
				"z": 2.2778441737,
				"element": "H" 
			},
			{
				"x": -2.9563789266,
				"y": -0.9662685687,
				"z": -0.002277508,
				"element": "H" 
			},
			{
				"x": -1.657174389,
				"y": -1.0240521268,
				"z": -2.1157582643,
				"element": "H" 
			},
			{
				"x": 1.777668359,
				"y": 0.4640857263,
				"z": -0.0169682517,
				"element": "H" 
			},
			{
				"x": 1.9650108538,
				"y": -0.7751972992,
				"z": -2.2510375212,
				"element": "H" 
			},
			{
				"x": 0.1884755854,
				"y": -1.9488980657,
				"z": -3.41013263,
				"element": "H" 
			},
			{
				"x": -0.3735773182,
				"y": -0.5195530253,
				"z": -3.9991205101,
				"element": "H" 
			},
			{
				"x": 0.6977577628,
				"y": 2.611224679,
				"z": -3.8084024754,
				"element": "H" 
			}
		],
		 "valence_orbital": [ 
			{
				"type": "occ",
				"energy": -0.31171,
				"method": "rhf"
			},
			{
				"type": "occ",
				"energy": -0.28653,
				"method": "rhf"
			},
			{
				"type": "occ",
				"energy": -0.25769,
				"method": "rhf"
			},
			{
				"type": "occ",
				"energy": -0.25116,
				"method": "rhf"
			},
			{
				"type": "occ",
				"energy": -0.2414,
				"method": "rhf"
			},
			{
				"type": "unocc",
				"energy": -0.02329,
				"method": "rhf"
			},
			{
				"type": "unocc",
				"energy": -0.01397,
				"method": "rhf"
			},
			{
				"type": "unocc",
				"energy": 0.01429,
				"method": "rhf"
			},
			{
				"type": "unocc",
				"energy": 0.03139,
				"method": "rhf"
			},
			{
				"type": "unocc",
				"energy": 0.06379,
				"method": "rhf"
			}
		],
		"cosmo_sigma_profile": { 
			"-0.025": 0.0,
			"-0.024": 0.0,
			"-0.023": 0.0,
			"-0.022": 0.0,
			"-0.021": 0.0,
			"-0.02": 0.0,
			"-0.019": 0.384332748275,
			"-0.018": 0.803761078605,
			"-0.017": 1.09735041632,
			"-0.016": 0.919268437456,
			"-0.015": 0.629634937541,
			"-0.014": 0.701063039865,
			"-0.013": 0.174414238395,
			"-0.012": 0.568225388658,
			"-0.011": 1.79219225131,
			"-0.01": 2.04557216251,
			"-0.009": 3.11803387096,
			"-0.008": 4.67613344624,
			"-0.007": 8.21708278889,
			"-0.006": 9.44035124123,
			"-0.005": 11.7569939663,
			"-0.004": 13.0312730426,
			"-0.003": 12.1695537383,
			"-0.002": 15.0928503076,
			"-0.001": 16.5176932466,
			"0.0": 18.1929238921,
			"0.001": 16.5352126862,
			"0.002": 17.0936038069,
			"0.003": 18.851053264,
			"0.004": 20.5058449112,
			"0.005": 9.79466778112,
			"0.006": 5.09395660388,
			"0.007": 2.71311289313,
			"0.008": 2.23516514621,
			"0.009": 2.14694990068,
			"0.01": 2.93578238693,
			"0.011": 4.54371112031,
			"0.012": 3.69891374447,
			"0.013": 0.63216065322,
			"0.014": 0.72412843184,
			"0.015": 0.392755316025,
			"0.016": 0.690492209741,
			"0.017": 0.478033350241,
			"0.018": 0.140298902171,
			"0.019": 0.0,
			"0.02": 0.0,
			"0.021": 0.0,
			"0.022": 0.0,
			"0.023": 0.0,
			"0.024": 0.0,
			"0.025": 0.0
		}
	}
}
