{
	 "smiles": "CC1=CC(C)=C(C)C(O)=C1C", 
	 "Tm": 391.15, 
	 "num_atms": 25, 
	 "gaussian": { 
		 "optdone": 1, 
		 "sigma_profile": "yes", 
		 "theory": "DFT", 
		 "functional": "B3LYP", 
		 "basiset": "6-31G**", 
		 "properties": { 
			 "R2extent": 2016.9126, 
			 "electric_dipole_moment_norm": 1.37551865854, 
			 "electric_quadrupole_moment_norm": 8.0905324318, 
			 "total_energy": -464.747689024, 
			 "HOMO_LUMO_gap": 0.21404, 
			 "cosmo_polarized_energy": -6.85, 
			 "cosmo_cavitation_energy": 26.45, 
			 "cosmo_dispersion_energy": -19.54, 
			 "cosmo_repulsion_energy": 1.55, 
			 "cosmo_total_nonelectrostatic_energy": 8.46, 
			 "SMD_solvation_energy": 4.76 
		},
		"coords": [
			{
				"x": 2.184712442,
				"y": 0.6895240611,
				"z": 1.4932526611,
				"element": "C" 
			},
			{
				"x": 0.8797123555,
				"y": 0.3646002686,
				"z": 0.8057095945,
				"element": "C" 
			},
			{
				"x": 0.8458036516,
				"y": -0.5880186808,
				"z": -0.2166254076,
				"element": "C" 
			},
			{
				"x": -0.335829367,
				"y": -0.9244713739,
				"z": -0.8840977685,
				"element": "C" 
			},
			{
				"x": -0.297008051,
				"y": -1.9657544981,
				"z": -1.9815937093,
				"element": "C" 
			},
			{
				"x": -1.5315042797,
				"y": -0.2832317074,
				"z": -0.515460914,
				"element": "C" 
			},
			{
				"x": -2.8577546741,
				"y": -0.5813677772,
				"z": -1.1810172805,
				"element": "C" 
			},
			{
				"x": -1.4906469159,
				"y": 0.6748892257,
				"z": 0.5145808775,
				"element": "C" 
			},
			{
				"x": -2.63422724,
				"y": 1.3279727866,
				"z": 0.9091300565,
				"element": "O" 
			},
			{
				"x": -0.3062671697,
				"y": 1.0151023115,
				"z": 1.1872587561,
				"element": "C" 
			},
			{
				"x": -0.3170227733,
				"y": 2.0508197363,
				"z": 2.286255691,
				"element": "C" 
			},
			{
				"x": 2.1381928349,
				"y": 0.4848834733,
				"z": 2.5699411025,
				"element": "H" 
			},
			{
				"x": 2.4462874543,
				"y": 1.7495475141,
				"z": 1.3875851008,
				"element": "H" 
			},
			{
				"x": 3.0058816266,
				"y": 0.1001257429,
				"z": 1.0768759058,
				"element": "H" 
			},
			{
				"x": 1.769843734,
				"y": -1.0845639962,
				"z": -0.5028005137,
				"element": "H" 
			},
			{
				"x": -0.6248750517,
				"y": -1.5609227548,
				"z": -2.9465969868,
				"element": "H" 
			},
			{
				"x": 0.7194978569,
				"y": -2.3449481586,
				"z": -2.1152123733,
				"element": "H" 
			},
			{
				"x": -0.9403848674,
				"y": -2.825235961,
				"z": -1.758247964,
				"element": "H" 
			},
			{
				"x": -2.7618379022,
				"y": -1.3369607234,
				"z": -1.9608275531,
				"element": "H" 
			},
			{
				"x": -3.2880249363,
				"y": 0.3103994064,
				"z": -1.6593390511,
				"element": "H" 
			},
			{
				"x": -3.6013389648,
				"y": -0.9616203053,
				"z": -0.4656559722,
				"element": "H" 
			},
			{
				"x": -3.3777575953,
				"y": 1.0135712887,
				"z": 0.3818329655,
				"element": "H" 
			},
			{
				"x": 0.3405601086,
				"y": 2.8952855677,
				"z": 2.0453518135,
				"element": "H" 
			},
			{
				"x": -1.3208229868,
				"y": 2.4416081261,
				"z": 2.4508898057,
				"element": "H" 
			},
			{
				"x": 0.0436107106,
				"y": 1.6312664278,
				"z": 3.2335111636,
				"element": "H" 
			}
		],
		 "valence_orbital": [ 
			{
				"type": "occ",
				"energy": -0.33,
				"method": "rhf"
			},
			{
				"type": "occ",
				"energy": -0.31707,
				"method": "rhf"
			},
			{
				"type": "occ",
				"energy": -0.30456,
				"method": "rhf"
			},
			{
				"type": "occ",
				"energy": -0.21758,
				"method": "rhf"
			},
			{
				"type": "occ",
				"energy": -0.20425,
				"method": "rhf"
			},
			{
				"type": "unocc",
				"energy": 0.00979,
				"method": "rhf"
			},
			{
				"type": "unocc",
				"energy": 0.02813,
				"method": "rhf"
			},
			{
				"type": "unocc",
				"energy": 0.07053,
				"method": "rhf"
			},
			{
				"type": "unocc",
				"energy": 0.10533,
				"method": "rhf"
			},
			{
				"type": "unocc",
				"energy": 0.11501,
				"method": "rhf"
			}
		],
		"cosmo_sigma_profile": { 
			"-0.025": 0.0,
			"-0.024": 0.0,
			"-0.023": 0.0,
			"-0.022": 0.0,
			"-0.021": 0.0,
			"-0.02": 0.0,
			"-0.019": 0.0,
			"-0.018": 0.0,
			"-0.017": 0.0,
			"-0.016": 0.0,
			"-0.015": 0.380320869496,
			"-0.014": 0.873713858917,
			"-0.013": 0.668025879778,
			"-0.012": 1.18899321909,
			"-0.011": 1.23436202534,
			"-0.01": 0.880738173099,
			"-0.009": 1.19176370458,
			"-0.008": 1.70792503989,
			"-0.007": 0.812473707409,
			"-0.006": 1.86543666666,
			"-0.005": 2.79266099727,
			"-0.004": 14.6158354813,
			"-0.003": 26.2840169402,
			"-0.002": 21.4941473538,
			"-0.001": 23.7993266247,
			"0.0": 26.7579460804,
			"0.001": 22.0890068036,
			"0.002": 8.81846445691,
			"0.003": 7.87163477108,
			"0.004": 8.61165608515,
			"0.005": 9.04654152146,
			"0.006": 8.33103141774,
			"0.007": 8.05187260672,
			"0.008": 2.60453002139,
			"0.009": 2.05870305383,
			"0.01": 2.43428583239,
			"0.011": 0.493034240747,
			"0.012": 0.0,
			"0.013": 0.0,
			"0.014": 0.0,
			"0.015": 0.0,
			"0.016": 0.0,
			"0.017": 0.0,
			"0.018": 0.0,
			"0.019": 0.0,
			"0.02": 0.0,
			"0.021": 0.0,
			"0.022": 0.0,
			"0.023": 0.0,
			"0.024": 0.0,
			"0.025": 0.0
		}
	}
}
