{
	 "smiles": "NC(=O)CSCC(N)=O", 
	 "Tm": 447.15, 
	 "num_atms": 17, 
	 "gaussian": { 
		 "optdone": 1, 
		 "sigma_profile": "yes", 
		 "theory": "DFT", 
		 "functional": "B3LYP", 
		 "basiset": "6-31G**", 
		 "properties": { 
			 "R2extent": 1789.8914, 
			 "electric_dipole_moment_norm": 5.47023320252, 
			 "electric_quadrupole_moment_norm": 19.6947080928, 
			 "total_energy": -815.41791961, 
			 "HOMO_LUMO_gap": 0.20979, 
			 "cosmo_polarized_energy": -20.29, 
			 "cosmo_cavitation_energy": 22.43, 
			 "cosmo_dispersion_energy": -16.75, 
			 "cosmo_repulsion_energy": 1.36, 
			 "cosmo_total_nonelectrostatic_energy": 7.04, 
			 "SMD_solvation_energy": 4.75 
		},
		"coords": [
			{
				"x": 0.7147495137,
				"y": -0.0647047776,
				"z": 2.3988216086,
				"element": "N" 
			},
			{
				"x": -0.5672820901,
				"y": -0.201287208,
				"z": 1.9620576674,
				"element": "C" 
			},
			{
				"x": -1.5452404084,
				"y": -0.1656192234,
				"z": 2.6958841186,
				"element": "O" 
			},
			{
				"x": -0.7171016015,
				"y": -0.434141747,
				"z": 0.4555447379,
				"element": "C" 
			},
			{
				"x": -0.9689012368,
				"y": 1.1367707352,
				"z": -0.4890206535,
				"element": "S" 
			},
			{
				"x": 0.6204532688,
				"y": 1.2845030924,
				"z": -1.4041966799,
				"element": "C" 
			},
			{
				"x": 1.7947422186,
				"y": 1.607900631,
				"z": -0.4931949728,
				"element": "C" 
			},
			{
				"x": 2.1367626166,
				"y": 2.9200475221,
				"z": -0.40400098,
				"element": "N" 
			},
			{
				"x": 2.3930416527,
				"y": 0.7276502453,
				"z": 0.1245550425,
				"element": "O" 
			},
			{
				"x": 1.4819109175,
				"y": 0.0652176484,
				"z": 1.7479909977,
				"element": "H" 
			},
			{
				"x": 0.8406251654,
				"y": 0.1853216931,
				"z": 3.3684317033,
				"element": "H" 
			},
			{
				"x": 0.1419852471,
				"y": -0.9548523935,
				"z": 0.0268116214,
				"element": "H" 
			},
			{
				"x": -1.6192051833,
				"y": -1.0289871531,
				"z": 0.3079352037,
				"element": "H" 
			},
			{
				"x": 0.8347346775,
				"y": 0.3493840346,
				"z": -1.9258882541,
				"element": "H" 
			},
			{
				"x": 0.4471474755,
				"y": 2.066619468,
				"z": -2.1490526648,
				"element": "H" 
			},
			{
				"x": 1.5564586038,
				"y": 3.6465811969,
				"z": -0.7924021206,
				"element": "H" 
			},
			{
				"x": 2.8287191629,
				"y": 3.1788962357,
				"z": 0.2843236246,
				"element": "H" 
			}
		],
		 "valence_orbital": [ 
			{
				"type": "occ",
				"energy": -0.2959,
				"method": "rhf"
			},
			{
				"type": "occ",
				"energy": -0.28094,
				"method": "rhf"
			},
			{
				"type": "occ",
				"energy": -0.25533,
				"method": "rhf"
			},
			{
				"type": "occ",
				"energy": -0.2486,
				"method": "rhf"
			},
			{
				"type": "occ",
				"energy": -0.22755,
				"method": "rhf"
			},
			{
				"type": "unocc",
				"energy": -0.01776,
				"method": "rhf"
			},
			{
				"type": "unocc",
				"energy": 0.01013,
				"method": "rhf"
			},
			{
				"type": "unocc",
				"energy": 0.0448,
				"method": "rhf"
			},
			{
				"type": "unocc",
				"energy": 0.05991,
				"method": "rhf"
			},
			{
				"type": "unocc",
				"energy": 0.08383,
				"method": "rhf"
			}
		],
		"cosmo_sigma_profile": { 
			"-0.025": 0.0,
			"-0.024": 0.0,
			"-0.023": 0.0,
			"-0.022": 0.0,
			"-0.021": 0.0,
			"-0.02": 0.0,
			"-0.019": 0.0,
			"-0.018": 0.0,
			"-0.017": 0.0,
			"-0.016": 0.0159066164093,
			"-0.015": 1.49525163308,
			"-0.014": 2.9910865238,
			"-0.013": 4.39820387505,
			"-0.012": 3.3389706035,
			"-0.011": 3.28463962674,
			"-0.01": 3.96233329139,
			"-0.009": 3.60928714364,
			"-0.008": 4.75395157483,
			"-0.007": 8.06246078467,
			"-0.006": 9.52150243446,
			"-0.005": 8.60128006052,
			"-0.004": 10.6480679345,
			"-0.003": 9.92092578964,
			"-0.002": 6.5621914056,
			"-0.001": 7.29907074701,
			"0.0": 6.62911053353,
			"0.001": 8.32374664407,
			"0.002": 8.2997558084,
			"0.003": 7.92347516242,
			"0.004": 7.96507997076,
			"0.005": 7.96574124466,
			"0.006": 6.59659428341,
			"0.007": 4.69132300162,
			"0.008": 4.27850983022,
			"0.009": 3.9780217656,
			"0.01": 2.66948463678,
			"0.011": 3.20276611564,
			"0.012": 3.85616659293,
			"0.013": 5.80572204264,
			"0.014": 5.84565415051,
			"0.015": 1.73065668203,
			"0.016": 0.0,
			"0.017": 0.0,
			"0.018": 0.0,
			"0.019": 0.0,
			"0.02": 0.0,
			"0.021": 0.0,
			"0.022": 0.0,
			"0.023": 0.0,
			"0.024": 0.0,
			"0.025": 0.0
		}
	}
}
