{
	 "smiles": "CC1=CC(Cl)=CC=C1N", 
	 "Tm": 303.45, 
	 "num_atms": 17, 
	 "gaussian": { 
		 "optdone": 1, 
		 "sigma_profile": "yes", 
		 "theory": "DFT", 
		 "functional": "B3LYP", 
		 "basiset": "6-31G**", 
		 "properties": { 
			 "R2extent": 2346.1807, 
			 "electric_dipole_moment_norm": 3.73358400736, 
			 "electric_quadrupole_moment_norm": 12.2554959443, 
			 "total_energy": -786.521645107, 
			 "HOMO_LUMO_gap": 0.19922, 
			 "cosmo_polarized_energy": -8.62, 
			 "cosmo_cavitation_energy": 22.06, 
			 "cosmo_dispersion_energy": -16.65, 
			 "cosmo_repulsion_energy": 1.37, 
			 "cosmo_total_nonelectrostatic_energy": 6.77, 
			 "SMD_solvation_energy": 3.44 
		},
		"coords": [
			{
				"x": -0.288070332,
				"y": 0.756394755,
				"z": 0.8331163407,
				"element": "C" 
			},
			{
				"x": 0.2697009694,
				"y": -0.1626923482,
				"z": -0.2250121106,
				"element": "C" 
			},
			{
				"x": 0.7928986601,
				"y": 0.3490652231,
				"z": -1.4142999967,
				"element": "C" 
			},
			{
				"x": 1.3235300089,
				"y": -0.4978475573,
				"z": -2.3857636277,
				"element": "C" 
			},
			{
				"x": 1.9756421564,
				"y": 0.1852951675,
				"z": -3.8741262388,
				"element": "Cl" 
			},
			{
				"x": 1.3428069063,
				"y": -1.8754842628,
				"z": -2.1886774255,
				"element": "C" 
			},
			{
				"x": 0.8182013619,
				"y": -2.3979271973,
				"z": -1.0092161216,
				"element": "C" 
			},
			{
				"x": 0.279307352,
				"y": -1.5620748931,
				"z": -0.0191486723,
				"element": "C" 
			},
			{
				"x": -0.1860857717,
				"y": -2.0991168866,
				"z": 1.1849228955,
				"element": "N" 
			},
			{
				"x": -0.1680987492,
				"y": 1.8043453709,
				"z": 0.5484546943,
				"element": "H" 
			},
			{
				"x": -1.3615093157,
				"y": 0.5873144512,
				"z": 1.0006746811,
				"element": "H" 
			},
			{
				"x": 0.2150674723,
				"y": 0.6072064017,
				"z": 1.7964220205,
				"element": "H" 
			},
			{
				"x": 0.7886728961,
				"y": 1.4213810806,
				"z": -1.5822280019,
				"element": "H" 
			},
			{
				"x": 1.75616977,
				"y": -2.5325041053,
				"z": -2.9459010926,
				"element": "H" 
			},
			{
				"x": 0.8294358065,
				"y": -3.4735729331,
				"z": -0.8505789391,
				"element": "H" 
			},
			{
				"x": -0.3962693177,
				"y": -3.0873680324,
				"z": 1.1531465247,
				"element": "H" 
			},
			{
				"x": -0.9224998736,
				"y": -1.577014234,
				"z": 1.63911507,
				"element": "H" 
			}
		],
		 "valence_orbital": [ 
			{
				"type": "occ",
				"energy": -0.3441,
				"method": "rhf"
			},
			{
				"type": "occ",
				"energy": -0.30068,
				"method": "rhf"
			},
			{
				"type": "occ",
				"energy": -0.28908,
				"method": "rhf"
			},
			{
				"type": "occ",
				"energy": -0.24868,
				"method": "rhf"
			},
			{
				"type": "occ",
				"energy": -0.20177,
				"method": "rhf"
			},
			{
				"type": "unocc",
				"energy": -0.00255,
				"method": "rhf"
			},
			{
				"type": "unocc",
				"energy": 0.01038,
				"method": "rhf"
			},
			{
				"type": "unocc",
				"energy": 0.03994,
				"method": "rhf"
			},
			{
				"type": "unocc",
				"energy": 0.07113,
				"method": "rhf"
			},
			{
				"type": "unocc",
				"energy": 0.10607,
				"method": "rhf"
			}
		],
		"cosmo_sigma_profile": { 
			"-0.025": 0.0,
			"-0.024": 0.0,
			"-0.023": 0.0,
			"-0.022": 0.0,
			"-0.021": 0.0,
			"-0.02": 0.0,
			"-0.019": 0.0,
			"-0.018": 0.0,
			"-0.017": 0.0,
			"-0.016": 0.0,
			"-0.015": 0.0,
			"-0.014": 0.0,
			"-0.013": 0.268311894461,
			"-0.012": 1.67266245793,
			"-0.011": 2.87640356689,
			"-0.01": 3.30640737519,
			"-0.009": 2.8303739952,
			"-0.008": 3.04134378405,
			"-0.007": 3.83717106878,
			"-0.006": 7.53600295991,
			"-0.005": 8.76802566579,
			"-0.004": 11.1971592125,
			"-0.003": 9.35087868164,
			"-0.002": 10.5982017535,
			"-0.001": 13.0413478584,
			"0.0": 11.9104190739,
			"0.001": 10.6137434772,
			"0.002": 10.363622668,
			"0.003": 12.9789137906,
			"0.004": 16.1845571551,
			"0.005": 21.1250838423,
			"0.006": 9.77542269609,
			"0.007": 1.1544814389,
			"0.008": 1.02415012164,
			"0.009": 0.742393580382,
			"0.01": 0.536682547477,
			"0.011": 0.348622948679,
			"0.012": 0.57522473194,
			"0.013": 0.90965068117,
			"0.014": 0.437874349292,
			"0.015": 0.0628585860337,
			"0.016": 0.0,
			"0.017": 0.0,
			"0.018": 0.0,
			"0.019": 0.0,
			"0.02": 0.0,
			"0.021": 0.0,
			"0.022": 0.0,
			"0.023": 0.0,
			"0.024": 0.0,
			"0.025": 0.0
		}
	}
}
