{
	 "smiles": "COC1=C(OC)C(Cl)=C(C=CC(Cl)=O)C=C1", 
	 "Tm": 360.15, 
	 "num_atms": 26, 
	 "gaussian": { 
		 "optdone": 1, 
		 "sigma_profile": "yes", 
		 "theory": "DFT", 
		 "functional": "B3LYP", 
		 "basiset": "6-31G**", 
		 "properties": { 
			 "R2extent": 7285.2904, 
			 "electric_dipole_moment_norm": 6.81494275324, 
			 "electric_quadrupole_moment_norm": 23.375321177, 
			 "total_energy": -1571.21074845, 
			 "HOMO_LUMO_gap": 0.1507, 
			 "cosmo_polarized_energy": -10.5, 
			 "cosmo_cavitation_energy": 34.62, 
			 "cosmo_dispersion_energy": -24.58, 
			 "cosmo_repulsion_energy": 1.94, 
			 "cosmo_total_nonelectrostatic_energy": 11.98, 
			 "SMD_solvation_energy": 7.91 
		},
		"coords": [
			{
				"x": 2.66306994,
				"y": 0.3035696657,
				"z": -2.5564687585,
				"element": "C" 
			},
			{
				"x": 1.6750609055,
				"y": -0.7188851752,
				"z": -2.3400841344,
				"element": "O" 
			},
			{
				"x": 1.0477414076,
				"y": -0.7069958983,
				"z": -1.1263791239,
				"element": "C" 
			},
			{
				"x": 0.2006894728,
				"y": 0.3537372919,
				"z": -0.7477192021,
				"element": "C" 
			},
			{
				"x": 0.0309148412,
				"y": 1.4345002494,
				"z": -1.5683706785,
				"element": "O" 
			},
			{
				"x": -0.8396087491,
				"y": 1.2053054217,
				"z": -2.6894285443,
				"element": "C" 
			},
			{
				"x": -0.4405686383,
				"y": 0.303280216,
				"z": 0.4975596312,
				"element": "C" 
			},
			{
				"x": -1.4835449889,
				"y": 1.6475634308,
				"z": 0.911729885,
				"element": "Cl" 
			},
			{
				"x": -0.2745068036,
				"y": -0.7910474112,
				"z": 1.379835134,
				"element": "C" 
			},
			{
				"x": -0.9399646148,
				"y": -0.8227649806,
				"z": 2.6762864656,
				"element": "C" 
			},
			{
				"x": -0.9860260428,
				"y": -1.8647931558,
				"z": 3.5362304268,
				"element": "C" 
			},
			{
				"x": -1.6936532893,
				"y": -1.7053673533,
				"z": 4.8082910917,
				"element": "C" 
			},
			{
				"x": -1.6356967845,
				"y": -3.2473705026,
				"z": 5.8096225993,
				"element": "Cl" 
			},
			{
				"x": -2.2649413341,
				"y": -0.7448179087,
				"z": 5.2319352693,
				"element": "O" 
			},
			{
				"x": 0.5611915687,
				"y": -1.8409955883,
				"z": 0.9479193846,
				"element": "C" 
			},
			{
				"x": 1.2112430679,
				"y": -1.8037036592,
				"z": -0.2749798666,
				"element": "C" 
			},
			{
				"x": 2.227833447,
				"y": 1.3023875181,
				"z": -2.4759024897,
				"element": "H" 
			},
			{
				"x": 3.4833418411,
				"y": 0.1977107239,
				"z": -1.8369034241,
				"element": "H" 
			},
			{
				"x": 3.0438000135,
				"y": 0.1405796287,
				"z": -3.5657985038,
				"element": "H" 
			},
			{
				"x": -1.8506509312,
				"y": 0.9576189947,
				"z": -2.3480328248,
				"element": "H" 
			},
			{
				"x": -0.8649072062,
				"y": 2.1426208003,
				"z": -3.2471933867,
				"element": "H" 
			},
			{
				"x": -0.4544591521,
				"y": 0.403298594,
				"z": -3.3268781554,
				"element": "H" 
			},
			{
				"x": -1.4547956992,
				"y": 0.0834339223,
				"z": 2.9805657404,
				"element": "H" 
			},
			{
				"x": -0.5349312737,
				"y": -2.828989938,
				"z": 3.3405674924,
				"element": "H" 
			},
			{
				"x": 0.721465928,
				"y": -2.6905751842,
				"z": 1.6022418125,
				"element": "H" 
			},
			{
				"x": 1.8623030747,
				"y": -2.6105997022,
				"z": -0.59334584,
				"element": "H" 
			}
		],
		 "valence_orbital": [ 
			{
				"type": "occ",
				"energy": -0.3063,
				"method": "rhf"
			},
			{
				"type": "occ",
				"energy": -0.2879,
				"method": "rhf"
			},
			{
				"type": "occ",
				"energy": -0.28622,
				"method": "rhf"
			},
			{
				"type": "occ",
				"energy": -0.2607,
				"method": "rhf"
			},
			{
				"type": "occ",
				"energy": -0.24455,
				"method": "rhf"
			},
			{
				"type": "unocc",
				"energy": -0.09385,
				"method": "rhf"
			},
			{
				"type": "unocc",
				"energy": -0.0294,
				"method": "rhf"
			},
			{
				"type": "unocc",
				"energy": -0.00647,
				"method": "rhf"
			},
			{
				"type": "unocc",
				"energy": 0.01396,
				"method": "rhf"
			},
			{
				"type": "unocc",
				"energy": 0.02627,
				"method": "rhf"
			}
		],
		"cosmo_sigma_profile": { 
			"-0.025": 0.0,
			"-0.024": 0.0,
			"-0.023": 0.0,
			"-0.022": 0.0,
			"-0.021": 0.0,
			"-0.02": 0.0,
			"-0.019": 0.0,
			"-0.018": 0.0,
			"-0.017": 0.0,
			"-0.016": 0.0,
			"-0.015": 0.0,
			"-0.014": 0.0,
			"-0.013": 0.0,
			"-0.012": 0.0,
			"-0.011": 0.168277610128,
			"-0.01": 1.2740340747,
			"-0.009": 1.92327569286,
			"-0.008": 2.67566188031,
			"-0.007": 4.44189832156,
			"-0.006": 8.85575888278,
			"-0.005": 14.3874599609,
			"-0.004": 20.9766839445,
			"-0.003": 30.5001396391,
			"-0.002": 25.4002686923,
			"-0.001": 26.8281517849,
			"0.0": 30.064482459,
			"0.001": 23.0065914031,
			"0.002": 18.704062326,
			"0.003": 15.1919371077,
			"0.004": 15.4880044889,
			"0.005": 13.9119592512,
			"0.006": 6.67630129648,
			"0.007": 4.45155534614,
			"0.008": 5.11188145983,
			"0.009": 7.38674781851,
			"0.01": 3.2201259497,
			"0.011": 1.05157414348,
			"0.012": 0.0,
			"0.013": 0.0,
			"0.014": 0.0,
			"0.015": 0.0,
			"0.016": 0.0,
			"0.017": 0.0,
			"0.018": 0.0,
			"0.019": 0.0,
			"0.02": 0.0,
			"0.021": 0.0,
			"0.022": 0.0,
			"0.023": 0.0,
			"0.024": 0.0,
			"0.025": 0.0
		}
	}
}
