{
	 "smiles": "CCOC(=O)CNC(=O)CC", 
	 "Tm": 324.15, 
	 "num_atms": 24, 
	 "gaussian": { 
		 "optdone": 1, 
		 "sigma_profile": "yes", 
		 "theory": "DFT", 
		 "functional": "B3LYP", 
		 "basiset": "6-31G**", 
		 "properties": { 
			 "R2extent": 2954.9401, 
			 "electric_dipole_moment_norm": 4.66502599778, 
			 "electric_quadrupole_moment_norm": 4.89841119038, 
			 "total_energy": -555.038056702, 
			 "HOMO_LUMO_gap": 0.25452, 
			 "cosmo_polarized_energy": -13.92, 
			 "cosmo_cavitation_energy": 27.88, 
			 "cosmo_dispersion_energy": -19.94, 
			 "cosmo_repulsion_energy": 1.69, 
			 "cosmo_total_nonelectrostatic_energy": 9.63, 
			 "SMD_solvation_energy": 6.2 
		},
		"coords": [
			{
				"x": 1.2197554969,
				"y": 0.760201796,
				"z": 4.0252374074,
				"element": "C" 
			},
			{
				"x": 1.0253901861,
				"y": -0.5096210323,
				"z": 3.2115364564,
				"element": "C" 
			},
			{
				"x": 0.2952364721,
				"y": -0.2428337187,
				"z": 1.9857537424,
				"element": "O" 
			},
			{
				"x": 1.0283045129,
				"y": 0.161568889,
				"z": 0.9256233607,
				"element": "C" 
			},
			{
				"x": 2.2283548459,
				"y": 0.3213371972,
				"z": 0.9407787958,
				"element": "O" 
			},
			{
				"x": 0.1731977507,
				"y": 0.4399937225,
				"z": -0.3023474997,
				"element": "C" 
			},
			{
				"x": -1.2225245379,
				"y": 0.0858525361,
				"z": -0.1771672699,
				"element": "N" 
			},
			{
				"x": -1.8482883202,
				"y": -0.7033661271,
				"z": -1.1084005838,
				"element": "C" 
			},
			{
				"x": -1.2923025654,
				"y": -1.0747055613,
				"z": -2.1351142324,
				"element": "O" 
			},
			{
				"x": -3.305489248,
				"y": -1.038149085,
				"z": -0.7952982709,
				"element": "C" 
			},
			{
				"x": -3.7195846217,
				"y": -2.3938453119,
				"z": -1.3706783032,
				"element": "C" 
			},
			{
				"x": 0.2594222547,
				"y": 1.2370400054,
				"z": 4.2433481955,
				"element": "H" 
			},
			{
				"x": 1.705886493,
				"y": 0.519138579,
				"z": 4.976299072,
				"element": "H" 
			},
			{
				"x": 1.854441218,
				"y": 1.4680436944,
				"z": 3.486730706,
				"element": "H" 
			},
			{
				"x": 0.4073402147,
				"y": -1.2382346182,
				"z": 3.7412174714,
				"element": "H" 
			},
			{
				"x": 1.9841042811,
				"y": -0.96409213,
				"z": 2.9525297663,
				"element": "H" 
			},
			{
				"x": 0.5818126124,
				"y": -0.123505062,
				"z": -1.1457039829,
				"element": "H" 
			},
			{
				"x": 0.3087157476,
				"y": 1.5042920179,
				"z": -0.5402652183,
				"element": "H" 
			},
			{
				"x": -1.6719635098,
				"y": 0.2516896901,
				"z": 0.7101528369,
				"element": "H" 
			},
			{
				"x": -3.4848588917,
				"y": -0.9959039556,
				"z": 0.2861709891,
				"element": "H" 
			},
			{
				"x": -3.9178588059,
				"y": -0.2422039578,
				"z": -1.2402887393,
				"element": "H" 
			},
			{
				"x": -3.4785111742,
				"y": -2.4366383971,
				"z": -2.4348272293,
				"element": "H" 
			},
			{
				"x": -3.1862808617,
				"y": -3.2119241843,
				"z": -0.8766351556,
				"element": "H" 
			},
			{
				"x": -4.7930995494,
				"y": -2.5596349862,
				"z": -1.2418523147,
				"element": "H" 
			}
		],
		 "valence_orbital": [ 
			{
				"type": "occ",
				"energy": -0.34077,
				"method": "rhf"
			},
			{
				"type": "occ",
				"energy": -0.30851,
				"method": "rhf"
			},
			{
				"type": "occ",
				"energy": -0.28872,
				"method": "rhf"
			},
			{
				"type": "occ",
				"energy": -0.25128,
				"method": "rhf"
			},
			{
				"type": "occ",
				"energy": -0.24907,
				"method": "rhf"
			},
			{
				"type": "unocc",
				"energy": 0.00545,
				"method": "rhf"
			},
			{
				"type": "unocc",
				"energy": 0.0277,
				"method": "rhf"
			},
			{
				"type": "unocc",
				"energy": 0.07683,
				"method": "rhf"
			},
			{
				"type": "unocc",
				"energy": 0.10156,
				"method": "rhf"
			},
			{
				"type": "unocc",
				"energy": 0.11134,
				"method": "rhf"
			}
		],
		"cosmo_sigma_profile": { 
			"-0.025": 0.0,
			"-0.024": 0.0,
			"-0.023": 0.0,
			"-0.022": 0.0,
			"-0.021": 0.0,
			"-0.02": 0.0,
			"-0.019": 0.0,
			"-0.018": 0.0,
			"-0.017": 0.0,
			"-0.016": 0.0,
			"-0.015": 0.0,
			"-0.014": 0.0,
			"-0.013": 0.354779929467,
			"-0.012": 1.20548196432,
			"-0.011": 1.40721868275,
			"-0.01": 1.18536178292,
			"-0.009": 0.865830213026,
			"-0.008": 2.06377879932,
			"-0.007": 5.00119432757,
			"-0.006": 6.89497920749,
			"-0.005": 14.6858183576,
			"-0.004": 20.1852139664,
			"-0.003": 25.0329022639,
			"-0.002": 25.3707910664,
			"-0.001": 21.2616782845,
			"0.0": 21.4012637273,
			"0.001": 13.8593190066,
			"0.002": 7.94996830573,
			"0.003": 6.03691468351,
			"0.004": 4.47452069521,
			"0.005": 4.02750915823,
			"0.006": 3.64302232558,
			"0.007": 2.7813315688,
			"0.008": 2.90320234103,
			"0.009": 3.60205797586,
			"0.01": 3.1383528402,
			"0.011": 4.88870282706,
			"0.012": 5.74822031261,
			"0.013": 3.98516527792,
			"0.014": 4.08611292239,
			"0.015": 0.18888244833,
			"0.016": 0.0,
			"0.017": 0.0,
			"0.018": 0.0,
			"0.019": 0.0,
			"0.02": 0.0,
			"0.021": 0.0,
			"0.022": 0.0,
			"0.023": 0.0,
			"0.024": 0.0,
			"0.025": 0.0
		}
	}
}
