{
	 "smiles": "OC(=O)C1=CC(=C(F)C=C1)S(=O)(=O)CC1=NOC=N1", 
	 "Tm": 443.15, 
	 "num_atms": 26, 
	 "gaussian": { 
		 "optdone": 1, 
		 "sigma_profile": "yes", 
		 "theory": "DFT", 
		 "functional": "B3LYP", 
		 "basiset": "6-31G**", 
		 "properties": { 
			 "R2extent": 5512.7551, 
			 "electric_dipole_moment_norm": 3.54562888639, 
			 "electric_quadrupole_moment_norm": 20.8389915481, 
			 "total_energy": -1368.8205902, 
			 "HOMO_LUMO_gap": 0.21058, 
			 "cosmo_polarized_energy": -21.95, 
			 "cosmo_cavitation_energy": 34.46, 
			 "cosmo_dispersion_energy": -24.13, 
			 "cosmo_repulsion_energy": 1.79, 
			 "cosmo_total_nonelectrostatic_energy": 12.12, 
			 "SMD_solvation_energy": 5.7 
		},
		"coords": [
			{
				"x": 4.3444300491,
				"y": 1.4656484483,
				"z": -1.0266365691,
				"element": "O" 
			},
			{
				"x": 3.4394636441,
				"y": 2.3753099881,
				"z": -1.4548003346,
				"element": "C" 
			},
			{
				"x": 3.7461631788,
				"y": 3.5051212652,
				"z": -1.7776127427,
				"element": "O" 
			},
			{
				"x": 2.0508661323,
				"y": 1.8402163509,
				"z": -1.483514467,
				"element": "C" 
			},
			{
				"x": 1.751057101,
				"y": 0.5274468587,
				"z": -1.1027547764,
				"element": "C" 
			},
			{
				"x": 0.4329828557,
				"y": 0.078963591,
				"z": -1.1521832359,
				"element": "C" 
			},
			{
				"x": -0.5729664696,
				"y": 0.949320827,
				"z": -1.5774925913,
				"element": "C" 
			},
			{
				"x": -1.8474495052,
				"y": 0.5233453396,
				"z": -1.6068382485,
				"element": "F" 
			},
			{
				"x": -0.2931391195,
				"y": 2.2578789808,
				"z": -1.9525270313,
				"element": "C" 
			},
			{
				"x": 1.0255660972,
				"y": 2.6976721478,
				"z": -1.907079163,
				"element": "C" 
			},
			{
				"x": 0.0898652139,
				"y": -1.6452597906,
				"z": -0.7455512315,
				"element": "S" 
			},
			{
				"x": 1.3459217153,
				"y": -2.2145624133,
				"z": -0.2419051732,
				"element": "O" 
			},
			{
				"x": -0.6333113301,
				"y": -2.2644361348,
				"z": -1.8612906789,
				"element": "O" 
			},
			{
				"x": -1.1091069783,
				"y": -1.5493243041,
				"z": 0.6476335732,
				"element": "C" 
			},
			{
				"x": -0.5183710311,
				"y": -1.0176403141,
				"z": 1.9046995435,
				"element": "C" 
			},
			{
				"x": -0.4486699842,
				"y": 0.2704524338,
				"z": 2.1465600657,
				"element": "N" 
			},
			{
				"x": 0.1823237976,
				"y": 0.3281511666,
				"z": 3.3944260881,
				"element": "O" 
			},
			{
				"x": 0.4129057562,
				"y": -0.9416365914,
				"z": 3.7555120969,
				"element": "C" 
			},
			{
				"x": 0.0102304136,
				"y": -1.8214132321,
				"z": 2.8936362807,
				"element": "N" 
			},
			{
				"x": 5.207707309,
				"y": 1.9103239314,
				"z": -1.0488185188,
				"element": "H" 
			},
			{
				"x": 2.5269795234,
				"y": -0.1520959922,
				"z": -0.7705450682,
				"element": "H" 
			},
			{
				"x": -1.104546659,
				"y": 2.9026966108,
				"z": -2.2707959136,
				"element": "H" 
			},
			{
				"x": 1.2839570584,
				"y": 3.7110723197,
				"z": -2.1942101534,
				"element": "H" 
			},
			{
				"x": -1.9387713867,
				"y": -0.9399069854,
				"z": 0.2877823514,
				"element": "H" 
			},
			{
				"x": -1.4335156555,
				"y": -2.5835801099,
				"z": 0.7801367052,
				"element": "H" 
			},
			{
				"x": 0.8971282736,
				"y": -1.1049643916,
				"z": 4.7083691927,
				"element": "H" 
			}
		],
		 "valence_orbital": [ 
			{
				"type": "occ",
				"energy": -0.31382,
				"method": "rhf"
			},
			{
				"type": "occ",
				"energy": -0.29855,
				"method": "rhf"
			},
			{
				"type": "occ",
				"energy": -0.29341,
				"method": "rhf"
			},
			{
				"type": "occ",
				"energy": -0.2892,
				"method": "rhf"
			},
			{
				"type": "occ",
				"energy": -0.28045,
				"method": "rhf"
			},
			{
				"type": "unocc",
				"energy": -0.06987,
				"method": "rhf"
			},
			{
				"type": "unocc",
				"energy": -0.05558,
				"method": "rhf"
			},
			{
				"type": "unocc",
				"energy": -0.04901,
				"method": "rhf"
			},
			{
				"type": "unocc",
				"energy": -0.00032,
				"method": "rhf"
			},
			{
				"type": "unocc",
				"energy": 0.02663,
				"method": "rhf"
			}
		],
		"cosmo_sigma_profile": { 
			"-0.025": 0.0,
			"-0.024": 0.0,
			"-0.023": 0.0,
			"-0.022": 0.0,
			"-0.021": 0.0,
			"-0.02": 0.0,
			"-0.019": 0.396674799364,
			"-0.018": 0.971851066349,
			"-0.017": 1.03422041679,
			"-0.016": 0.811625134948,
			"-0.015": 0.515271454981,
			"-0.014": 0.712036184216,
			"-0.013": 2.85991803341,
			"-0.012": 3.14321551981,
			"-0.011": 3.97740125385,
			"-0.01": 3.97450889693,
			"-0.009": 7.36972603765,
			"-0.008": 8.0031562157,
			"-0.007": 10.0495350785,
			"-0.006": 9.75968716979,
			"-0.005": 11.4677773845,
			"-0.004": 14.3231085529,
			"-0.003": 18.5962802695,
			"-0.002": 21.2311477982,
			"-0.001": 21.6870987655,
			"0.0": 17.5156829404,
			"0.001": 12.9949796125,
			"0.002": 12.0460286076,
			"0.003": 10.9262155706,
			"0.004": 9.39138399365,
			"0.005": 10.4780807579,
			"0.006": 10.5591346464,
			"0.007": 7.31513813478,
			"0.008": 7.95955807467,
			"0.009": 9.3284206724,
			"0.01": 14.2610919105,
			"0.011": 11.3591282642,
			"0.012": 2.37550612068,
			"0.013": 0.696334693055,
			"0.014": 0.0359254858506,
			"0.015": 0.0,
			"0.016": 0.0,
			"0.017": 0.0,
			"0.018": 0.0,
			"0.019": 0.0,
			"0.02": 0.0,
			"0.021": 0.0,
			"0.022": 0.0,
			"0.023": 0.0,
			"0.024": 0.0,
			"0.025": 0.0
		}
	}
}
