{
	 "smiles": "CC1=NN(C(C)=C1CC(O)=O)C1=NC(C)=CC(C)=N1", 
	 "Tm": 523.15, 
	 "num_atms": 35, 
	 "gaussian": { 
		 "optdone": 1, 
		 "sigma_profile": "yes", 
		 "theory": "DFT", 
		 "functional": "B3LYP", 
		 "basiset": "6-31G**", 
		 "properties": { 
			 "R2extent": 7041.7004, 
			 "electric_dipole_moment_norm": 7.28472832918, 
			 "electric_quadrupole_moment_norm": 27.7026496494, 
			 "total_energy": -874.503736329, 
			 "HOMO_LUMO_gap": 0.19006, 
			 "cosmo_polarized_energy": -20.99, 
			 "cosmo_cavitation_energy": 39.22, 
			 "cosmo_dispersion_energy": -27.11, 
			 "cosmo_repulsion_energy": 2.12, 
			 "cosmo_total_nonelectrostatic_energy": 14.23, 
			 "SMD_solvation_energy": 5.43 
		},
		"coords": [
			{
				"x": 3.6488377133,
				"y": 0.4246686445,
				"z": 0.7630078859,
				"element": "C" 
			},
			{
				"x": 2.2950020948,
				"y": 0.7451285035,
				"z": 0.2089328436,
				"element": "C" 
			},
			{
				"x": 1.2143872388,
				"y": 0.1521677046,
				"z": 0.6811890071,
				"element": "N" 
			},
			{
				"x": 0.1711280982,
				"y": 0.6811018408,
				"z": -0.0290507141,
				"element": "N" 
			},
			{
				"x": 0.5920536451,
				"y": 1.6161257168,
				"z": -0.9594420142,
				"element": "C" 
			},
			{
				"x": -0.2890765098,
				"y": 2.3459900429,
				"z": -1.9231573347,
				"element": "C" 
			},
			{
				"x": 1.971257712,
				"y": 1.6774268812,
				"z": -0.8298649072,
				"element": "C" 
			},
			{
				"x": 2.9430988441,
				"y": 2.5121973012,
				"z": -1.6096724946,
				"element": "C" 
			},
			{
				"x": 3.4872047233,
				"y": 3.766319058,
				"z": -0.9001091352,
				"element": "C" 
			},
			{
				"x": 2.904218485,
				"y": 4.0870935497,
				"z": 0.2770343911,
				"element": "O" 
			},
			{
				"x": 4.3756902536,
				"y": 4.4375503668,
				"z": -1.3625754697,
				"element": "O" 
			},
			{
				"x": -1.1436834459,
				"y": 0.2439444026,
				"z": 0.2658940514,
				"element": "C" 
			},
			{
				"x": -1.2481806341,
				"y": -0.899592705,
				"z": 0.9401823413,
				"element": "N" 
			},
			{
				"x": -2.4928583219,
				"y": -1.2978683506,
				"z": 1.236988799,
				"element": "C" 
			},
			{
				"x": -2.6179643699,
				"y": -2.5818113573,
				"z": 2.0112040759,
				"element": "C" 
			},
			{
				"x": -3.6083257494,
				"y": -0.5539742964,
				"z": 0.8362873566,
				"element": "C" 
			},
			{
				"x": -3.3819684031,
				"y": 0.6212949068,
				"z": 0.1188909335,
				"element": "C" 
			},
			{
				"x": -4.5032547581,
				"y": 1.498094436,
				"z": -0.3696363611,
				"element": "C" 
			},
			{
				"x": -2.1333931107,
				"y": 1.0298120041,
				"z": -0.1612210493,
				"element": "N" 
			},
			{
				"x": 4.1287510175,
				"y": 1.3155673931,
				"z": 1.1839655768,
				"element": "H" 
			},
			{
				"x": 3.5565311431,
				"y": -0.3262840647,
				"z": 1.5498120384,
				"element": "H" 
			},
			{
				"x": 4.3157232824,
				"y": 0.0335451292,
				"z": -0.0141830448,
				"element": "H" 
			},
			{
				"x": -0.9287545041,
				"y": 1.658974537,
				"z": -2.4832856484,
				"element": "H" 
			},
			{
				"x": -0.9545995624,
				"y": 3.0481037626,
				"z": -1.4160643474,
				"element": "H" 
			},
			{
				"x": 0.3317051858,
				"y": 2.898015345,
				"z": -2.6332959237,
				"element": "H" 
			},
			{
				"x": 3.8234934469,
				"y": 1.9279743319,
				"z": -1.8978983672,
				"element": "H" 
			},
			{
				"x": 2.5039308124,
				"y": 2.863944362,
				"z": -2.5492864455,
				"element": "H" 
			},
			{
				"x": 2.2131591267,
				"y": 3.4292117411,
				"z": 0.4677903676,
				"element": "H" 
			},
			{
				"x": -2.1077306236,
				"y": -2.4866803993,
				"z": 2.975038853,
				"element": "H" 
			},
			{
				"x": -2.1237815935,
				"y": -3.3942402182,
				"z": 1.4694851119,
				"element": "H" 
			},
			{
				"x": -3.6617997659,
				"y": -2.8520560111,
				"z": 2.1867052264,
				"element": "H" 
			},
			{
				"x": -4.6148588701,
				"y": -0.8808197232,
				"z": 1.0726927766,
				"element": "H" 
			},
			{
				"x": -5.4803162422,
				"y": 1.1040497651,
				"z": -0.0813090548,
				"element": "H" 
			},
			{
				"x": -4.3952485958,
				"y": 2.5089605177,
				"z": 0.0362371522,
				"element": "H" 
			},
			{
				"x": -4.4663777622,
				"y": 1.5854648816,
				"z": -1.4604864764,
				"element": "H" 
			}
		],
		 "valence_orbital": [ 
			{
				"type": "occ",
				"energy": -0.28809,
				"method": "rhf"
			},
			{
				"type": "occ",
				"energy": -0.27118,
				"method": "rhf"
			},
			{
				"type": "occ",
				"energy": -0.25655,
				"method": "rhf"
			},
			{
				"type": "occ",
				"energy": -0.2463,
				"method": "rhf"
			},
			{
				"type": "occ",
				"energy": -0.23671,
				"method": "rhf"
			},
			{
				"type": "unocc",
				"energy": -0.04665,
				"method": "rhf"
			},
			{
				"type": "unocc",
				"energy": -0.04179,
				"method": "rhf"
			},
			{
				"type": "unocc",
				"energy": 0.01823,
				"method": "rhf"
			},
			{
				"type": "unocc",
				"energy": 0.02919,
				"method": "rhf"
			},
			{
				"type": "unocc",
				"energy": 0.04987,
				"method": "rhf"
			}
		],
		"cosmo_sigma_profile": { 
			"-0.025": 0.0,
			"-0.024": 0.0,
			"-0.023": 0.0,
			"-0.022": 0.0,
			"-0.021": 0.0,
			"-0.02": 0.0,
			"-0.019": 0.0,
			"-0.018": 0.0,
			"-0.017": 0.0,
			"-0.016": 0.0,
			"-0.015": 0.0,
			"-0.014": 0.338103686177,
			"-0.013": 0.783028152449,
			"-0.012": 0.386744771617,
			"-0.011": 1.08613991937,
			"-0.01": 1.16862911166,
			"-0.009": 1.48134530355,
			"-0.008": 3.51209172886,
			"-0.007": 8.87618983358,
			"-0.006": 14.6536984245,
			"-0.005": 24.0342107778,
			"-0.004": 28.4086093539,
			"-0.003": 28.7423828851,
			"-0.002": 32.5358085105,
			"-0.001": 40.7683680326,
			"0.0": 27.2370377894,
			"0.001": 14.5656782883,
			"0.002": 10.1513142719,
			"0.003": 7.86319284225,
			"0.004": 6.30330877401,
			"0.005": 6.03541311965,
			"0.006": 5.8157332901,
			"0.007": 6.49824922102,
			"0.008": 3.73097803428,
			"0.009": 4.64506367424,
			"0.01": 5.97266339384,
			"0.011": 6.4019760342,
			"0.012": 7.10197645236,
			"0.013": 4.76419877113,
			"0.014": 1.30777868219,
			"0.015": 1.03791515649,
			"0.016": 1.18580572287,
			"0.017": 0.70163328395,
			"0.018": 0.523094102554,
			"0.019": 1.38523347447,
			"0.02": 0.526280776822,
			"0.021": 0.213784604252,
			"0.022": 0.0,
			"0.023": 0.0,
			"0.024": 0.0,
			"0.025": 0.0
		}
	}
}
