{
	 "smiles": "CC(=O)CCC(O)=O", 
	 "Tm": 304.15, 
	 "num_atms": 16, 
	 "gaussian": { 
		 "optdone": 1, 
		 "sigma_profile": "yes", 
		 "theory": "DFT", 
		 "functional": "B3LYP", 
		 "basiset": "6-31G**", 
		 "properties": { 
			 "R2extent": 1119.5003, 
			 "electric_dipole_moment_norm": 4.14737748945, 
			 "electric_quadrupole_moment_norm": 5.03585581704, 
			 "total_energy": -421.042883989, 
			 "HOMO_LUMO_gap": 0.23519, 
			 "cosmo_polarized_energy": -14.19, 
			 "cosmo_cavitation_energy": 20.18, 
			 "cosmo_dispersion_energy": -14.48, 
			 "cosmo_repulsion_energy": 1.25, 
			 "cosmo_total_nonelectrostatic_energy": 6.95, 
			 "SMD_solvation_energy": 5.38 
		},
		"coords": [
			{
				"x": 1.8230151056,
				"y": -2.6506299156,
				"z": 0.1820115425,
				"element": "C" 
			},
			{
				"x": 0.992869569,
				"y": -1.4318218602,
				"z": -0.1748424179,
				"element": "C" 
			},
			{
				"x": 1.361482412,
				"y": -0.6218821577,
				"z": -1.0042443888,
				"element": "O" 
			},
			{
				"x": -0.3314634447,
				"y": -1.2646263319,
				"z": 0.5636185054,
				"element": "C" 
			},
			{
				"x": -1.073317251,
				"y": 0.0134011266,
				"z": 0.1737899752,
				"element": "C" 
			},
			{
				"x": -0.357391346,
				"y": 1.3094026163,
				"z": 0.5003668258,
				"element": "C" 
			},
			{
				"x": 0.4866362497,
				"y": 1.1868051314,
				"z": 1.557975291,
				"element": "O" 
			},
			{
				"x": -0.5407638479,
				"y": 2.3634085005,
				"z": -0.0630011735,
				"element": "O" 
			},
			{
				"x": 2.6953716859,
				"y": -2.7071854522,
				"z": -0.4702769265,
				"element": "H" 
			},
			{
				"x": 1.231473087,
				"y": -3.5688003296,
				"z": 0.0939189848,
				"element": "H" 
			},
			{
				"x": 2.1539211765,
				"y": -2.5827763041,
				"z": 1.2252352928,
				"element": "H" 
			},
			{
				"x": -0.9558230295,
				"y": -2.1427394716,
				"z": 0.349625325,
				"element": "H" 
			},
			{
				"x": -0.1345326142,
				"y": -1.2931726101,
				"z": 1.6417522023,
				"element": "H" 
			},
			{
				"x": -1.2816437156,
				"y": 0.0391905885,
				"z": -0.897557818,
				"element": "H" 
			},
			{
				"x": -2.04034281,
				"y": 0.0490692908,
				"z": 0.6910616474,
				"element": "H" 
			},
			{
				"x": 0.8781087731,
				"y": 2.0671571791,
				"z": 1.6853671324,
				"element": "H" 
			}
		],
		 "valence_orbital": [ 
			{
				"type": "occ",
				"energy": -0.37045,
				"method": "rhf"
			},
			{
				"type": "occ",
				"energy": -0.3533,
				"method": "rhf"
			},
			{
				"type": "occ",
				"energy": -0.31239,
				"method": "rhf"
			},
			{
				"type": "occ",
				"energy": -0.26817,
				"method": "rhf"
			},
			{
				"type": "occ",
				"energy": -0.25276,
				"method": "rhf"
			},
			{
				"type": "unocc",
				"energy": -0.01757,
				"method": "rhf"
			},
			{
				"type": "unocc",
				"energy": 0.01707,
				"method": "rhf"
			},
			{
				"type": "unocc",
				"energy": 0.07171,
				"method": "rhf"
			},
			{
				"type": "unocc",
				"energy": 0.094,
				"method": "rhf"
			},
			{
				"type": "unocc",
				"energy": 0.11991,
				"method": "rhf"
			}
		],
		"cosmo_sigma_profile": { 
			"-0.025": 0.0,
			"-0.024": 0.0,
			"-0.023": 0.0,
			"-0.022": 0.0,
			"-0.021": 0.0,
			"-0.02": 0.0,
			"-0.019": 0.0,
			"-0.018": 0.38637606599,
			"-0.017": 1.21626624971,
			"-0.016": 0.868965119718,
			"-0.015": 0.572731151386,
			"-0.014": 0.833855558603,
			"-0.013": 0.406137550454,
			"-0.012": 0.560727642765,
			"-0.011": 0.897762073158,
			"-0.01": 0.892353508909,
			"-0.009": 0.656867928692,
			"-0.008": 0.76228312989,
			"-0.007": 5.85999517696,
			"-0.006": 13.6097981341,
			"-0.005": 14.584310278,
			"-0.004": 15.4582135424,
			"-0.003": 14.4258154061,
			"-0.002": 12.4670204728,
			"-0.001": 8.56462340669,
			"0.0": 4.64712068404,
			"0.001": 4.77006728693,
			"0.002": 4.28101931754,
			"0.003": 3.60342544631,
			"0.004": 4.3900811173,
			"0.005": 4.74003563154,
			"0.006": 4.6736203092,
			"0.007": 4.50079941053,
			"0.008": 4.07969618459,
			"0.009": 3.98438194382,
			"0.01": 3.75703475068,
			"0.011": 6.49575486309,
			"0.012": 8.25700518475,
			"0.013": 2.79671475996,
			"0.014": 0.0277376402819,
			"0.015": 0.0,
			"0.016": 0.0,
			"0.017": 0.0,
			"0.018": 0.0,
			"0.019": 0.0,
			"0.02": 0.0,
			"0.021": 0.0,
			"0.022": 0.0,
			"0.023": 0.0,
			"0.024": 0.0,
			"0.025": 0.0
		}
	}
}
