{
	 "smiles": "CC1=CSC(N1)=C(N=O)C#N", 
	 "Tm": 454.15, 
	 "num_atms": 16, 
	 "gaussian": { 
		 "optdone": 1, 
		 "sigma_profile": "yes", 
		 "theory": "DFT", 
		 "functional": "B3LYP", 
		 "basiset": "6-31G**", 
		 "properties": { 
			 "R2extent": 2525.6522, 
			 "electric_dipole_moment_norm": 9.51842768844, 
			 "electric_quadrupole_moment_norm": 12.6041618916, 
			 "total_energy": -869.205977027, 
			 "HOMO_LUMO_gap": 0.12762, 
			 "cosmo_polarized_energy": -23.25, 
			 "cosmo_cavitation_energy": 24.03, 
			 "cosmo_dispersion_energy": -17.46, 
			 "cosmo_repulsion_energy": 1.38, 
			 "cosmo_total_nonelectrostatic_energy": 7.96, 
			 "SMD_solvation_energy": 5.92 
		},
		"coords": [
			{
				"x": -0.514379743,
				"y": -2.8390441714,
				"z": 0.5700760912,
				"element": "C" 
			},
			{
				"x": -1.0028368123,
				"y": -1.4345890284,
				"z": 0.4128254892,
				"element": "C" 
			},
			{
				"x": -2.0259067377,
				"y": -0.8099725293,
				"z": 1.0321225436,
				"element": "C" 
			},
			{
				"x": -2.2118263891,
				"y": 0.8626364478,
				"z": 0.5063381577,
				"element": "S" 
			},
			{
				"x": -0.8560654251,
				"y": 0.6790155354,
				"z": -0.5783342756,
				"element": "C" 
			},
			{
				"x": -0.3598494004,
				"y": -0.578975645,
				"z": -0.4874906766,
				"element": "N" 
			},
			{
				"x": -0.3654972114,
				"y": 1.6876933186,
				"z": -1.4113054133,
				"element": "C" 
			},
			{
				"x": -1.0390161766,
				"y": 2.9004650452,
				"z": -1.3316499203,
				"element": "N" 
			},
			{
				"x": -0.6331081175,
				"y": 3.8130476258,
				"z": -2.0532297634,
				"element": "O" 
			},
			{
				"x": 0.74793781,
				"y": 1.4183994165,
				"z": -2.253968586,
				"element": "C" 
			},
			{
				"x": 1.661982488,
				"y": 1.1136151943,
				"z": -2.9112803962,
				"element": "N" 
			},
			{
				"x": 0.5280146999,
				"y": -2.861541262,
				"z": 0.9080602082,
				"element": "H" 
			},
			{
				"x": -0.5715549866,
				"y": -3.3878354637,
				"z": -0.3769630082,
				"element": "H" 
			},
			{
				"x": -1.1211879275,
				"y": -3.3685775936,
				"z": 1.3061852677,
				"element": "H" 
			},
			{
				"x": -2.6922514377,
				"y": -1.2261905416,
				"z": 1.7725055666,
				"element": "H" 
			},
			{
				"x": 0.4341453669,
				"y": -0.8557463486,
				"z": -1.0535912845,
				"element": "H" 
			}
		],
		 "valence_orbital": [ 
			{
				"type": "occ",
				"energy": -0.33784,
				"method": "rhf"
			},
			{
				"type": "occ",
				"energy": -0.33301,
				"method": "rhf"
			},
			{
				"type": "occ",
				"energy": -0.30527,
				"method": "rhf"
			},
			{
				"type": "occ",
				"energy": -0.223,
				"method": "rhf"
			},
			{
				"type": "occ",
				"energy": -0.20424,
				"method": "rhf"
			},
			{
				"type": "unocc",
				"energy": -0.07662,
				"method": "rhf"
			},
			{
				"type": "unocc",
				"energy": -0.01964,
				"method": "rhf"
			},
			{
				"type": "unocc",
				"energy": -0.01202,
				"method": "rhf"
			},
			{
				"type": "unocc",
				"energy": -0.01083,
				"method": "rhf"
			},
			{
				"type": "unocc",
				"energy": 0.01504,
				"method": "rhf"
			}
		],
		"cosmo_sigma_profile": { 
			"-0.025": 0.0,
			"-0.024": 0.0,
			"-0.023": 0.0,
			"-0.022": 0.0,
			"-0.021": 0.0,
			"-0.02": 0.0,
			"-0.019": 0.0,
			"-0.018": 0.22150571609,
			"-0.017": 1.02649038201,
			"-0.016": 0.370955173096,
			"-0.015": 1.31980094106,
			"-0.014": 1.67394762915,
			"-0.013": 0.945932445673,
			"-0.012": 1.79004675216,
			"-0.011": 1.76270125575,
			"-0.01": 3.87222982881,
			"-0.009": 4.09729597146,
			"-0.008": 4.65017069787,
			"-0.007": 8.26331406969,
			"-0.006": 9.01314454435,
			"-0.005": 8.92575410351,
			"-0.004": 12.2261756301,
			"-0.003": 14.1142709968,
			"-0.002": 14.6196335833,
			"-0.001": 14.217471525,
			"0.0": 12.5196406832,
			"0.001": 12.0943071134,
			"0.002": 7.67776290894,
			"0.003": 3.66207112563,
			"0.004": 4.61013761881,
			"0.005": 4.10980863189,
			"0.006": 6.67381458054,
			"0.007": 4.47480195126,
			"0.008": 6.67852344099,
			"0.009": 7.42914298726,
			"0.01": 9.03763599793,
			"0.011": 6.94554365633,
			"0.012": 4.32837457671,
			"0.013": 2.49435366525,
			"0.014": 0.299717162938,
			"0.015": 0.0,
			"0.016": 0.0,
			"0.017": 0.0,
			"0.018": 0.0,
			"0.019": 0.0,
			"0.02": 0.0,
			"0.021": 0.0,
			"0.022": 0.0,
			"0.023": 0.0,
			"0.024": 0.0,
			"0.025": 0.0
		}
	}
}
