{
	 "smiles": "CC1CCC(=O)N1", 
	 "Tm": 316.15, 
	 "num_atms": 16, 
	 "gaussian": { 
		 "optdone": 1, 
		 "sigma_profile": "yes", 
		 "theory": "DFT", 
		 "functional": "B3LYP", 
		 "basiset": "6-31G**", 
		 "properties": { 
			 "R2extent": 1081.6422, 
			 "electric_dipole_moment_norm": 3.96661340945, 
			 "electric_quadrupole_moment_norm": 15.3465783691, 
			 "total_energy": -325.955684711, 
			 "HOMO_LUMO_gap": 0.27265, 
			 "cosmo_polarized_energy": -10.67, 
			 "cosmo_cavitation_energy": 18.42, 
			 "cosmo_dispersion_energy": -13.89, 
			 "cosmo_repulsion_energy": 1.2, 
			 "cosmo_total_nonelectrostatic_energy": 5.72, 
			 "SMD_solvation_energy": 3.21 
		},
		"coords": [
			{
				"x": 0.4087209495,
				"y": 0.8936656859,
				"z": 1.5322948341,
				"element": "C" 
			},
			{
				"x": 0.1730386519,
				"y": 1.5236814217,
				"z": 0.1536480039,
				"element": "C" 
			},
			{
				"x": 0.4626912446,
				"y": 0.5594246787,
				"z": -1.0313014075,
				"element": "C" 
			},
			{
				"x": -0.9075355226,
				"y": -0.0349801252,
				"z": -1.3994255154,
				"element": "C" 
			},
			{
				"x": -1.9242626058,
				"y": 0.9873477924,
				"z": -0.8798673,
				"element": "C" 
			},
			{
				"x": -3.1205356399,
				"y": 1.0248228851,
				"z": -1.109192529,
				"element": "O" 
			},
			{
				"x": -1.2293372624,
				"y": 1.8587249406,
				"z": -0.0786273063,
				"element": "N" 
			},
			{
				"x": 1.4725212405,
				"y": 0.6783066884,
				"z": 1.6802046179,
				"element": "H" 
			},
			{
				"x": 0.0888348254,
				"y": 1.5685279552,
				"z": 2.3335621981,
				"element": "H" 
			},
			{
				"x": -0.1509400867,
				"y": -0.0419276693,
				"z": 1.6372140664,
				"element": "H" 
			},
			{
				"x": 0.7880116381,
				"y": 2.4282588521,
				"z": 0.0689822232,
				"element": "H" 
			},
			{
				"x": 0.860346501,
				"y": 1.1313559015,
				"z": -1.8751929372,
				"element": "H" 
			},
			{
				"x": 1.2073839579,
				"y": -0.1944432335,
				"z": -0.7627359113,
				"element": "H" 
			},
			{
				"x": -1.103651576,
				"y": -0.9885591313,
				"z": -0.8956186385,
				"element": "H" 
			},
			{
				"x": -1.05015498,
				"y": -0.2013640733,
				"z": -2.4693533782,
				"element": "H" 
			},
			{
				"x": -1.7332313353,
				"y": 2.538757431,
				"z": 0.4732089798,
				"element": "H" 
			}
		],
		 "valence_orbital": [ 
			{
				"type": "occ",
				"energy": -0.37503,
				"method": "rhf"
			},
			{
				"type": "occ",
				"energy": -0.34338,
				"method": "rhf"
			},
			{
				"type": "occ",
				"energy": -0.32849,
				"method": "rhf"
			},
			{
				"type": "occ",
				"energy": -0.24825,
				"method": "rhf"
			},
			{
				"type": "occ",
				"energy": -0.23602,
				"method": "rhf"
			},
			{
				"type": "unocc",
				"energy": 0.03663,
				"method": "rhf"
			},
			{
				"type": "unocc",
				"energy": 0.07334,
				"method": "rhf"
			},
			{
				"type": "unocc",
				"energy": 0.11111,
				"method": "rhf"
			},
			{
				"type": "unocc",
				"energy": 0.11338,
				"method": "rhf"
			},
			{
				"type": "unocc",
				"energy": 0.13053,
				"method": "rhf"
			}
		],
		"cosmo_sigma_profile": { 
			"-0.025": 0.0,
			"-0.024": 0.0,
			"-0.023": 0.0,
			"-0.022": 0.0,
			"-0.021": 0.0,
			"-0.02": 0.0,
			"-0.019": 0.0,
			"-0.018": 0.0,
			"-0.017": 0.0,
			"-0.016": 0.0,
			"-0.015": 0.0,
			"-0.014": 0.188836450411,
			"-0.013": 1.2663634872,
			"-0.012": 1.17683148456,
			"-0.011": 0.789783959321,
			"-0.01": 1.10223749578,
			"-0.009": 1.31094351323,
			"-0.008": 0.775192636885,
			"-0.007": 0.819303984177,
			"-0.006": 1.7586478434,
			"-0.005": 5.85182479932,
			"-0.004": 16.9311445067,
			"-0.003": 24.505124952,
			"-0.002": 18.5738218955,
			"-0.001": 15.0122753695,
			"0.0": 13.6419612793,
			"0.001": 8.08668700197,
			"0.002": 2.75627670908,
			"0.003": 2.01193291254,
			"0.004": 1.91509722042,
			"0.005": 1.95348041242,
			"0.006": 2.2399764476,
			"0.007": 0.911175374598,
			"0.008": 1.15428658796,
			"0.009": 1.81226502698,
			"0.01": 0.802136516039,
			"0.011": 1.16714818405,
			"0.012": 1.50664352802,
			"0.013": 3.00531611918,
			"0.014": 6.38179746086,
			"0.015": 3.51693169147,
			"0.016": 0.431247308469,
			"0.017": 0.0,
			"0.018": 0.0,
			"0.019": 0.0,
			"0.02": 0.0,
			"0.021": 0.0,
			"0.022": 0.0,
			"0.023": 0.0,
			"0.024": 0.0,
			"0.025": 0.0
		}
	}
}
