{
	 "smiles": "COC1=C(OC)C(C=CC)=CC(=C1)C(O)=O", 
	 "Tm": 416.15, 
	 "num_atms": 30, 
	 "gaussian": { 
		 "optdone": 1, 
		 "sigma_profile": "yes", 
		 "theory": "DFT", 
		 "functional": "B3LYP", 
		 "basiset": "6-31G**", 
		 "properties": { 
			 "R2extent": 4442.7515, 
			 "electric_dipole_moment_norm": 2.30373082412, 
			 "electric_quadrupole_moment_norm": 12.8629979293, 
			 "total_energy": -766.582605679, 
			 "HOMO_LUMO_gap": 0.17891, 
			 "cosmo_polarized_energy": -11.38, 
			 "cosmo_cavitation_energy": 33.9, 
			 "cosmo_dispersion_energy": -23.65, 
			 "cosmo_repulsion_energy": 1.88, 
			 "cosmo_total_nonelectrostatic_energy": 12.12, 
			 "SMD_solvation_energy": 8.58 
		},
		"coords": [
			{
				"x": -1.5835560932,
				"y": -2.4548179126,
				"z": -0.8503417535,
				"element": "C" 
			},
			{
				"x": -0.2129559563,
				"y": -2.5646888317,
				"z": -0.4461771484,
				"element": "O" 
			},
			{
				"x": 0.4448964114,
				"y": -1.3594100773,
				"z": -0.3260318866,
				"element": "C" 
			},
			{
				"x": 0.1725069653,
				"y": -0.4888953166,
				"z": 0.7487788203,
				"element": "C" 
			},
			{
				"x": -0.7762559644,
				"y": -0.8030107374,
				"z": 1.6896423315,
				"element": "O" 
			},
			{
				"x": -0.5057703569,
				"y": -1.9642982219,
				"z": 2.4911222281,
				"element": "C" 
			},
			{
				"x": 0.8278723546,
				"y": 0.7596670235,
				"z": 0.8481754041,
				"element": "C" 
			},
			{
				"x": 0.5075254383,
				"y": 1.6469461888,
				"z": 1.9810582467,
				"element": "C" 
			},
			{
				"x": 0.4868188105,
				"y": 2.9904370138,
				"z": 2.0050129548,
				"element": "C" 
			},
			{
				"x": 0.7146697593,
				"y": 3.9556863622,
				"z": 0.8763453306,
				"element": "C" 
			},
			{
				"x": 1.8030833724,
				"y": 1.0713091136,
				"z": -0.1122358916,
				"element": "C" 
			},
			{
				"x": 2.0998931583,
				"y": 0.190124398,
				"z": -1.1570663172,
				"element": "C" 
			},
			{
				"x": 1.4077034936,
				"y": -1.0218760659,
				"z": -1.2690521413,
				"element": "C" 
			},
			{
				"x": 3.1351027388,
				"y": 0.4920796263,
				"z": -2.1768876131,
				"element": "C" 
			},
			{
				"x": 3.7432242908,
				"y": 1.6916189474,
				"z": -1.9836166016,
				"element": "O" 
			},
			{
				"x": 3.4333064046,
				"y": -0.2349072695,
				"z": -3.104919797,
				"element": "O" 
			},
			{
				"x": -1.6595561448,
				"y": -1.982823118,
				"z": -1.8376049923,
				"element": "H" 
			},
			{
				"x": -1.9681914868,
				"y": -3.4749948369,
				"z": -0.907822687,
				"element": "H" 
			},
			{
				"x": -2.1688085767,
				"y": -1.8795184798,
				"z": -0.1254684101,
				"element": "H" 
			},
			{
				"x": -0.4205053062,
				"y": -2.8632218709,
				"z": 1.8759804582,
				"element": "H" 
			},
			{
				"x": -1.349717107,
				"y": -2.0575527923,
				"z": 3.1770057052,
				"element": "H" 
			},
			{
				"x": 0.4165668386,
				"y": -1.8258477647,
				"z": 3.0678939541,
				"element": "H" 
			},
			{
				"x": 0.2219129955,
				"y": 1.1301025016,
				"z": 2.8932033558,
				"element": "H" 
			},
			{
				"x": 0.2427064068,
				"y": 3.451257824,
				"z": 2.961747278,
				"element": "H" 
			},
			{
				"x": 1.7064357436,
				"y": 4.4242073093,
				"z": 0.9393759381,
				"element": "H" 
			},
			{
				"x": -0.0164628805,
				"y": 4.7707941547,
				"z": 0.9249989772,
				"element": "H" 
			},
			{
				"x": 0.6322833139,
				"y": 3.4815495665,
				"z": -0.104316377,
				"element": "H" 
			},
			{
				"x": 2.3679279523,
				"y": 1.9894904151,
				"z": -0.0217453379,
				"element": "H" 
			},
			{
				"x": 1.6233326263,
				"y": -1.6992071714,
				"z": -2.0874972487,
				"element": "H" 
			},
			{
				"x": 4.391910798,
				"y": 1.772100022,
				"z": -2.7017567793,
				"element": "H" 
			}
		],
		 "valence_orbital": [ 
			{
				"type": "occ",
				"energy": -0.28391,
				"method": "rhf"
			},
			{
				"type": "occ",
				"energy": -0.27258,
				"method": "rhf"
			},
			{
				"type": "occ",
				"energy": -0.2668,
				"method": "rhf"
			},
			{
				"type": "occ",
				"energy": -0.2382,
				"method": "rhf"
			},
			{
				"type": "occ",
				"energy": -0.22331,
				"method": "rhf"
			},
			{
				"type": "unocc",
				"energy": -0.0444,
				"method": "rhf"
			},
			{
				"type": "unocc",
				"energy": -0.02356,
				"method": "rhf"
			},
			{
				"type": "unocc",
				"energy": 0.03652,
				"method": "rhf"
			},
			{
				"type": "unocc",
				"energy": 0.07112,
				"method": "rhf"
			},
			{
				"type": "unocc",
				"energy": 0.07759,
				"method": "rhf"
			}
		],
		"cosmo_sigma_profile": { 
			"-0.025": 0.0,
			"-0.024": 0.0,
			"-0.023": 0.0,
			"-0.022": 0.0,
			"-0.021": 0.0,
			"-0.02": 0.0,
			"-0.019": 0.0629186033614,
			"-0.018": 0.717849033404,
			"-0.017": 1.05737404505,
			"-0.016": 0.58895355108,
			"-0.015": 1.0292028926,
			"-0.014": 0.605128324145,
			"-0.013": 0.245350726968,
			"-0.012": 0.452422243776,
			"-0.011": 1.10803083661,
			"-0.01": 0.355910059185,
			"-0.009": 0.616975742664,
			"-0.008": 0.946280050804,
			"-0.007": 0.96101360031,
			"-0.006": 3.90637961166,
			"-0.005": 13.2473731848,
			"-0.004": 23.4404867207,
			"-0.003": 32.7762911633,
			"-0.002": 32.7266300162,
			"-0.001": 25.0946526761,
			"0.0": 22.1193022916,
			"0.001": 20.095347211,
			"0.002": 20.2070777277,
			"0.003": 15.4482919525,
			"0.004": 8.55634093728,
			"0.005": 8.23292047421,
			"0.006": 6.54385159911,
			"0.007": 6.47869217772,
			"0.008": 3.88607913113,
			"0.009": 3.39228978389,
			"0.01": 3.78060647954,
			"0.011": 4.96533209933,
			"0.012": 4.8931978628,
			"0.013": 0.112354683429,
			"0.014": 0.0,
			"0.015": 0.0,
			"0.016": 0.0,
			"0.017": 0.0,
			"0.018": 0.0,
			"0.019": 0.0,
			"0.02": 0.0,
			"0.021": 0.0,
			"0.022": 0.0,
			"0.023": 0.0,
			"0.024": 0.0,
			"0.025": 0.0
		}
	}
}
