{
	 "smiles": "CC(C)(C)OC(=O)C1=CC(=CC=C1)C(O)=O", 
	 "Tm": 421.15, 
	 "num_atms": 30, 
	 "gaussian": { 
		 "optdone": 1, 
		 "sigma_profile": "yes", 
		 "theory": "DFT", 
		 "functional": "B3LYP", 
		 "basiset": "6-31G**", 
		 "properties": { 
			 "R2extent": 5577.1291, 
			 "electric_dipole_moment_norm": 5.87293954336, 
			 "electric_quadrupole_moment_norm": 17.3554674636, 
			 "total_energy": -766.651622326, 
			 "HOMO_LUMO_gap": 0.20602, 
			 "cosmo_polarized_energy": -15.0, 
			 "cosmo_cavitation_energy": 33.79, 
			 "cosmo_dispersion_energy": -23.84, 
			 "cosmo_repulsion_energy": 1.85, 
			 "cosmo_total_nonelectrostatic_energy": 11.8, 
			 "SMD_solvation_energy": 7.97 
		},
		"coords": [
			{
				"x": 1.7562520762,
				"y": 1.4231946593,
				"z": -2.5341591007,
				"element": "C" 
			},
			{
				"x": 1.3679662039,
				"y": 0.0035175001,
				"z": -2.958660073,
				"element": "C" 
			},
			{
				"x": 0.208445566,
				"y": -0.0117666179,
				"z": -3.9595693201,
				"element": "C" 
			},
			{
				"x": 2.5781051432,
				"y": -0.7513317582,
				"z": -3.5129833356,
				"element": "C" 
			},
			{
				"x": 1.010915716,
				"y": -0.7956125065,
				"z": -1.7660664885,
				"element": "O" 
			},
			{
				"x": -0.022792338,
				"y": -0.4654927939,
				"z": -0.9752113807,
				"element": "C" 
			},
			{
				"x": -0.7623837954,
				"y": 0.4895735512,
				"z": -1.1357493857,
				"element": "O" 
			},
			{
				"x": -0.1805882488,
				"y": -1.4265595575,
				"z": 0.1631089095,
				"element": "C" 
			},
			{
				"x": -1.2191311885,
				"y": -1.1848955522,
				"z": 1.0695498515,
				"element": "C" 
			},
			{
				"x": -1.4261274666,
				"y": -2.0375396697,
				"z": 2.1566931309,
				"element": "C" 
			},
			{
				"x": -0.5670694656,
				"y": -3.1313031129,
				"z": 2.3442997007,
				"element": "C" 
			},
			{
				"x": 0.4630548537,
				"y": -3.3788503194,
				"z": 1.4410099329,
				"element": "C" 
			},
			{
				"x": 0.659254591,
				"y": -2.5313500447,
				"z": 0.3491862132,
				"element": "C" 
			},
			{
				"x": -2.512236755,
				"y": -1.8288687699,
				"z": 3.1727739596,
				"element": "C" 
			},
			{
				"x": -3.5248018102,
				"y": -0.9916083857,
				"z": 2.8325750896,
				"element": "O" 
			},
			{
				"x": -2.5131750568,
				"y": -2.3706993505,
				"z": 4.2534657157,
				"element": "O" 
			},
			{
				"x": 2.1357847297,
				"y": 1.9707084039,
				"z": -3.402835522,
				"element": "H" 
			},
			{
				"x": 0.9007012964,
				"y": 1.9623090562,
				"z": -2.126935293,
				"element": "H" 
			},
			{
				"x": 2.5491905262,
				"y": 1.392269168,
				"z": -1.7804448626,
				"element": "H" 
			},
			{
				"x": -0.6609133143,
				"y": 0.5151065444,
				"z": -3.5658015806,
				"element": "H" 
			},
			{
				"x": -0.0764184959,
				"y": -1.0414391684,
				"z": -4.1973155032,
				"element": "H" 
			},
			{
				"x": 0.5238558106,
				"y": 0.4752134134,
				"z": -4.8878839215,
				"element": "H" 
			},
			{
				"x": 3.3871190164,
				"y": -0.7795414266,
				"z": -2.7773104567,
				"element": "H" 
			},
			{
				"x": 2.94810366,
				"y": -0.2546021884,
				"z": -4.4146445492,
				"element": "H" 
			},
			{
				"x": 2.3083540211,
				"y": -1.7795675861,
				"z": -3.7709613577,
				"element": "H" 
			},
			{
				"x": -1.8211847994,
				"y": -0.2966552556,
				"z": 0.8979824368,
				"element": "H" 
			},
			{
				"x": -0.7298924185,
				"y": -3.7700998447,
				"z": 3.2056401601,
				"element": "H" 
			},
			{
				"x": 1.118304924,
				"y": -4.2319788436,
				"z": 1.5876592698,
				"element": "H" 
			},
			{
				"x": 1.4601881799,
				"y": -2.7150021587,
				"z": -0.3572875573,
				"element": "H" 
			},
			{
				"x": -3.4586811614,
				"y": -0.7359273855,
				"z": 1.9021753175,
				"element": "H" 
			}
		],
		 "valence_orbital": [ 
			{
				"type": "occ",
				"energy": -0.30672,
				"method": "rhf"
			},
			{
				"type": "occ",
				"energy": -0.28134,
				"method": "rhf"
			},
			{
				"type": "occ",
				"energy": -0.27817,
				"method": "rhf"
			},
			{
				"type": "occ",
				"energy": -0.27625,
				"method": "rhf"
			},
			{
				"type": "occ",
				"energy": -0.26975,
				"method": "rhf"
			},
			{
				"type": "unocc",
				"energy": -0.06373,
				"method": "rhf"
			},
			{
				"type": "unocc",
				"energy": -0.04907,
				"method": "rhf"
			},
			{
				"type": "unocc",
				"energy": 0.0231,
				"method": "rhf"
			},
			{
				"type": "unocc",
				"energy": 0.05854,
				"method": "rhf"
			},
			{
				"type": "unocc",
				"energy": 0.07263,
				"method": "rhf"
			}
		],
		"cosmo_sigma_profile": { 
			"-0.025": 0.0,
			"-0.024": 0.0,
			"-0.023": 0.0,
			"-0.022": 0.0,
			"-0.021": 0.0,
			"-0.02": 0.0,
			"-0.019": 0.645529890588,
			"-0.018": 0.845890889974,
			"-0.017": 1.14635174191,
			"-0.016": 0.637541107547,
			"-0.015": 0.764284594306,
			"-0.014": 1.06999627158,
			"-0.013": 1.21475383055,
			"-0.012": 0.914609855072,
			"-0.011": 0.923025599725,
			"-0.01": 0.73577076003,
			"-0.009": 1.0123739282,
			"-0.008": 1.29314714398,
			"-0.007": 5.11886068226,
			"-0.006": 7.07315413709,
			"-0.005": 9.24375553602,
			"-0.004": 20.0459469619,
			"-0.003": 22.8665472394,
			"-0.002": 25.6338173425,
			"-0.001": 27.2668517909,
			"0.0": 36.8563712944,
			"0.001": 26.4738767493,
			"0.002": 18.7635723617,
			"0.003": 7.77065310572,
			"0.004": 6.71816322095,
			"0.005": 4.52258500298,
			"0.006": 3.23444703373,
			"0.007": 4.09644889182,
			"0.008": 4.50101102752,
			"0.009": 5.0875160455,
			"0.01": 6.39381110596,
			"0.011": 7.72394940367,
			"0.012": 5.67425637196,
			"0.013": 1.16542430326,
			"0.014": 0.0,
			"0.015": 0.0,
			"0.016": 0.0,
			"0.017": 0.0,
			"0.018": 0.0,
			"0.019": 0.0,
			"0.02": 0.0,
			"0.021": 0.0,
			"0.022": 0.0,
			"0.023": 0.0,
			"0.024": 0.0,
			"0.025": 0.0
		}
	}
}
