{
	 "smiles": "CC1=CC=C(C=C1)C(=O)CCl", 
	 "Tm": 328.15, 
	 "num_atms": 20, 
	 "gaussian": { 
		 "optdone": 1, 
		 "sigma_profile": "yes", 
		 "theory": "DFT", 
		 "functional": "B3LYP", 
		 "basiset": "6-31G**", 
		 "properties": { 
			 "R2extent": 3720.4707, 
			 "electric_dipole_moment_norm": 3.58157378257, 
			 "electric_quadrupole_moment_norm": 12.4937102384, 
			 "total_energy": -883.804164631, 
			 "HOMO_LUMO_gap": 0.18548, 
			 "cosmo_polarized_energy": -8.53, 
			 "cosmo_cavitation_energy": 25.65, 
			 "cosmo_dispersion_energy": -18.75, 
			 "cosmo_repulsion_energy": 1.51, 
			 "cosmo_total_nonelectrostatic_energy": 8.42, 
			 "SMD_solvation_energy": 4.75 
		},
		"coords": [
			{
				"x": 3.2565774235,
				"y": 0.6721425798,
				"z": 1.1928791275,
				"element": "C" 
			},
			{
				"x": 1.9508780557,
				"y": 0.9679705064,
				"z": 0.4970098712,
				"element": "C" 
			},
			{
				"x": 1.8020140287,
				"y": 0.766099992,
				"z": -0.8810722788,
				"element": "C" 
			},
			{
				"x": 0.5905434644,
				"y": 1.0225631278,
				"z": -1.5200734605,
				"element": "C" 
			},
			{
				"x": -0.5112224043,
				"y": 1.4905902861,
				"z": -0.7889359337,
				"element": "C" 
			},
			{
				"x": -0.366008281,
				"y": 1.6966648801,
				"z": 0.5941891776,
				"element": "C" 
			},
			{
				"x": 0.8444209599,
				"y": 1.4412414062,
				"z": 1.2229660665,
				"element": "C" 
			},
			{
				"x": -1.8429881919,
				"y": 1.7593610017,
				"z": -1.3966165519,
				"element": "C" 
			},
			{
				"x": -2.8020418288,
				"y": 2.1078111744,
				"z": -0.7255894129,
				"element": "O" 
			},
			{
				"x": -2.0527038704,
				"y": 1.5575513739,
				"z": -2.9017446795,
				"element": "C" 
			},
			{
				"x": -1.1932572997,
				"y": 2.8221070451,
				"z": -3.8825468104,
				"element": "Cl" 
			},
			{
				"x": 4.0734985495,
				"y": 0.5438143679,
				"z": 0.4778694768,
				"element": "H" 
			},
			{
				"x": 3.1855866781,
				"y": -0.2488259248,
				"z": 1.7846114474,
				"element": "H" 
			},
			{
				"x": 3.5306289261,
				"y": 1.4764975723,
				"z": 1.8833648294,
				"element": "H" 
			},
			{
				"x": 2.6472435758,
				"y": 0.4076081196,
				"z": -1.4624745182,
				"element": "H" 
			},
			{
				"x": 0.5185671682,
				"y": 0.8714494156,
				"z": -2.5917728388,
				"element": "H" 
			},
			{
				"x": -1.2228240836,
				"y": 2.0592000227,
				"z": 1.1521591508,
				"element": "H" 
			},
			{
				"x": 0.9406097805,
				"y": 1.609668592,
				"z": 2.2927237264,
				"element": "H" 
			},
			{
				"x": -1.6895287109,
				"y": 0.5870404613,
				"z": -3.2449456019,
				"element": "H" 
			},
			{
				"x": -3.1162939399,
				"y": 1.6600439999,
				"z": -3.107800787,
				"element": "H" 
			}
		],
		 "valence_orbital": [ 
			{
				"type": "occ",
				"energy": -0.31537,
				"method": "rhf"
			},
			{
				"type": "occ",
				"energy": -0.30452,
				"method": "rhf"
			},
			{
				"type": "occ",
				"energy": -0.26323,
				"method": "rhf"
			},
			{
				"type": "occ",
				"energy": -0.25871,
				"method": "rhf"
			},
			{
				"type": "occ",
				"energy": -0.25468,
				"method": "rhf"
			},
			{
				"type": "unocc",
				"energy": -0.0692,
				"method": "rhf"
			},
			{
				"type": "unocc",
				"energy": -0.0133,
				"method": "rhf"
			},
			{
				"type": "unocc",
				"energy": 0.00386,
				"method": "rhf"
			},
			{
				"type": "unocc",
				"energy": 0.05247,
				"method": "rhf"
			},
			{
				"type": "unocc",
				"energy": 0.09057,
				"method": "rhf"
			}
		],
		"cosmo_sigma_profile": { 
			"-0.025": 0.0,
			"-0.024": 0.0,
			"-0.023": 0.0,
			"-0.022": 0.0,
			"-0.021": 0.0,
			"-0.02": 0.0,
			"-0.019": 0.0,
			"-0.018": 0.0,
			"-0.017": 0.0,
			"-0.016": 0.0,
			"-0.015": 0.0,
			"-0.014": 0.0,
			"-0.013": 0.0,
			"-0.012": 0.0,
			"-0.011": 0.0,
			"-0.01": 0.0679274294324,
			"-0.009": 2.89123475472,
			"-0.008": 4.4055690727,
			"-0.007": 4.7859350598,
			"-0.006": 9.16797750015,
			"-0.005": 14.6128566231,
			"-0.004": 17.7512497845,
			"-0.003": 13.5689634293,
			"-0.002": 13.8939988427,
			"-0.001": 17.4223577743,
			"0.0": 16.5059195591,
			"0.001": 13.4754780776,
			"0.002": 14.2079833413,
			"0.003": 16.1643750942,
			"0.004": 19.1435769798,
			"0.005": 10.1094145635,
			"0.006": 4.48127634377,
			"0.007": 2.0411997723,
			"0.008": 1.83042780951,
			"0.009": 1.38367956466,
			"0.01": 2.87726824944,
			"0.011": 4.11904411605,
			"0.012": 1.54767998865,
			"0.013": 0.0231991773935,
			"0.014": 0.0,
			"0.015": 0.0,
			"0.016": 0.0,
			"0.017": 0.0,
			"0.018": 0.0,
			"0.019": 0.0,
			"0.02": 0.0,
			"0.021": 0.0,
			"0.022": 0.0,
			"0.023": 0.0,
			"0.024": 0.0,
			"0.025": 0.0
		}
	}
}
