{
	 "smiles": "OC(=O)CNC(=O)C1=CC2=C(C=CC=C2)C=C1", 
	 "Tm": 446.15, 
	 "num_atms": 28, 
	 "gaussian": { 
		 "optdone": 1, 
		 "sigma_profile": "yes", 
		 "theory": "DFT", 
		 "functional": "B3LYP", 
		 "basiset": "6-31G**", 
		 "properties": { 
			 "R2extent": 4660.0152, 
			 "electric_dipole_moment_norm": 5.18517891398, 
			 "electric_quadrupole_moment_norm": 18.8656521114, 
			 "total_energy": -782.460961797, 
			 "HOMO_LUMO_gap": 0.17114, 
			 "cosmo_polarized_energy": -24.84, 
			 "cosmo_cavitation_energy": 32.8, 
			 "cosmo_dispersion_energy": -23.23, 
			 "cosmo_repulsion_energy": 1.8, 
			 "cosmo_total_nonelectrostatic_energy": 11.36, 
			 "SMD_solvation_energy": 6.82 
		},
		"coords": [
			{
				"x": -4.4115798546,
				"y": -0.2770268451,
				"z": -1.1353829616,
				"element": "O" 
			},
			{
				"x": -3.1763467158,
				"y": -0.8370655088,
				"z": -1.2056122319,
				"element": "C" 
			},
			{
				"x": -2.5672333885,
				"y": -0.8548674541,
				"z": -2.2424939961,
				"element": "O" 
			},
			{
				"x": -2.6489486839,
				"y": -1.3834451826,
				"z": 0.1307964801,
				"element": "C" 
			},
			{
				"x": -1.4843896957,
				"y": -2.2194992286,
				"z": 0.0064987259,
				"element": "N" 
			},
			{
				"x": -0.2110034458,
				"y": -1.9927245545,
				"z": 0.4949840995,
				"element": "C" 
			},
			{
				"x": 0.5526524789,
				"y": -2.9317321435,
				"z": 0.6830053279,
				"element": "O" 
			},
			{
				"x": 0.2127991719,
				"y": -0.5783657689,
				"z": 0.7575220957,
				"element": "C" 
			},
			{
				"x": -0.0778798453,
				"y": 0.4563875739,
				"z": -0.11287872,
				"element": "C" 
			},
			{
				"x": 0.4230435136,
				"y": 1.7656055308,
				"z": 0.1173234652,
				"element": "C" 
			},
			{
				"x": 1.2321830299,
				"y": 2.0075661753,
				"z": 1.2750367363,
				"element": "C" 
			},
			{
				"x": 1.7198714497,
				"y": 3.3207325208,
				"z": 1.5078006917,
				"element": "C" 
			},
			{
				"x": 1.426033002,
				"y": 4.3457889033,
				"z": 0.6358212703,
				"element": "C" 
			},
			{
				"x": 0.6315644732,
				"y": 4.1051359262,
				"z": -0.5122551993,
				"element": "C" 
			},
			{
				"x": 0.1427836651,
				"y": 2.8432372527,
				"z": -0.7661486652,
				"element": "C" 
			},
			{
				"x": 1.5286604444,
				"y": 0.9186614635,
				"z": 2.1418144183,
				"element": "C" 
			},
			{
				"x": 1.048320374,
				"y": -0.3415748204,
				"z": 1.8844750537,
				"element": "C" 
			},
			{
				"x": -4.7740710917,
				"y": -0.3515566143,
				"z": -0.2402834193,
				"element": "H" 
			},
			{
				"x": -3.4588602534,
				"y": -1.9345017784,
				"z": 0.6317584796,
				"element": "H" 
			},
			{
				"x": -2.4145825906,
				"y": -0.5238230974,
				"z": 0.7676038219,
				"element": "H" 
			},
			{
				"x": -1.6367149613,
				"y": -3.1945334756,
				"z": -0.2169001316,
				"element": "H" 
			},
			{
				"x": -0.6634284026,
				"y": 0.2694182272,
				"z": -1.0088863591,
				"element": "H" 
			},
			{
				"x": 2.3334226717,
				"y": 3.503413596,
				"z": 2.3862456053,
				"element": "H" 
			},
			{
				"x": 1.8064091281,
				"y": 5.3455793133,
				"z": 0.8243623142,
				"element": "H" 
			},
			{
				"x": 0.4105388521,
				"y": 4.9219203763,
				"z": -1.193047792,
				"element": "H" 
			},
			{
				"x": -0.4657045295,
				"y": 2.6529411284,
				"z": -1.6464020102,
				"element": "H" 
			},
			{
				"x": 2.1563970695,
				"y": 1.0981981196,
				"z": 3.0108447148,
				"element": "H" 
			},
			{
				"x": 1.2991641345,
				"y": -1.1797696352,
				"z": 2.5257981857,
				"element": "H" 
			}
		],
		 "valence_orbital": [ 
			{
				"type": "occ",
				"energy": -0.29099,
				"method": "rhf"
			},
			{
				"type": "occ",
				"energy": -0.26651,
				"method": "rhf"
			},
			{
				"type": "occ",
				"energy": -0.25801,
				"method": "rhf"
			},
			{
				"type": "occ",
				"energy": -0.24331,
				"method": "rhf"
			},
			{
				"type": "occ",
				"energy": -0.22326,
				"method": "rhf"
			},
			{
				"type": "unocc",
				"energy": -0.05212,
				"method": "rhf"
			},
			{
				"type": "unocc",
				"energy": -0.02662,
				"method": "rhf"
			},
			{
				"type": "unocc",
				"energy": -0.00626,
				"method": "rhf"
			},
			{
				"type": "unocc",
				"energy": 0.01952,
				"method": "rhf"
			},
			{
				"type": "unocc",
				"energy": 0.0316,
				"method": "rhf"
			}
		],
		"cosmo_sigma_profile": { 
			"-0.025": 0.0,
			"-0.024": 0.0,
			"-0.023": 0.0,
			"-0.022": 0.0,
			"-0.021": 0.0,
			"-0.02": 0.420286218854,
			"-0.019": 1.39257481816,
			"-0.018": 1.35165850811,
			"-0.017": 1.1131161222,
			"-0.016": 1.17811987295,
			"-0.015": 1.33506134596,
			"-0.014": 2.38694215226,
			"-0.013": 2.27044271985,
			"-0.012": 2.23270670279,
			"-0.011": 3.23096825464,
			"-0.01": 3.76513442057,
			"-0.009": 3.73519127568,
			"-0.008": 4.89437538124,
			"-0.007": 4.98354516465,
			"-0.006": 16.5469174241,
			"-0.005": 16.3384545695,
			"-0.004": 17.5835597867,
			"-0.003": 12.8567984991,
			"-0.002": 12.3611661277,
			"-0.001": 12.5798981449,
			"0.0": 11.8774777542,
			"0.001": 13.5499419023,
			"0.002": 14.5888075462,
			"0.003": 23.3222195631,
			"0.004": 20.4495293543,
			"0.005": 9.66876716607,
			"0.006": 3.62628671878,
			"0.007": 3.98123703333,
			"0.008": 4.38578442654,
			"0.009": 5.23474548101,
			"0.01": 6.85568853518,
			"0.011": 6.92305578024,
			"0.012": 6.28856070101,
			"0.013": 5.81743788696,
			"0.014": 2.85737264379,
			"0.015": 0.0446632493241,
			"0.016": 0.0,
			"0.017": 0.0,
			"0.018": 0.0,
			"0.019": 0.0,
			"0.02": 0.0,
			"0.021": 0.0,
			"0.022": 0.0,
			"0.023": 0.0,
			"0.024": 0.0,
			"0.025": 0.0
		}
	}
}
