{
	 "smiles": "CC1=NC(Cl)=C(N)C=C1", 
	 "Tm": 362.65, 
	 "num_atms": 16, 
	 "gaussian": { 
		 "optdone": 1, 
		 "sigma_profile": "yes", 
		 "theory": "DFT", 
		 "functional": "B3LYP", 
		 "basiset": "6-31G**", 
		 "properties": { 
			 "R2extent": 2116.8777, 
			 "electric_dipole_moment_norm": 3.61973566162, 
			 "electric_quadrupole_moment_norm": 14.4164938584, 
			 "total_energy": -802.562452413, 
			 "HOMO_LUMO_gap": 0.1885, 
			 "cosmo_polarized_energy": -10.11, 
			 "cosmo_cavitation_energy": 21.47, 
			 "cosmo_dispersion_energy": -16.38, 
			 "cosmo_repulsion_energy": 1.36, 
			 "cosmo_total_nonelectrostatic_energy": 6.46, 
			 "SMD_solvation_energy": 2.18 
		},
		"coords": [
			{
				"x": 0.3175738504,
				"y": 1.7803876287,
				"z": -0.9174312056,
				"element": "C" 
			},
			{
				"x": -0.1126147153,
				"y": 0.3480117703,
				"z": -0.73078426,
				"element": "C" 
			},
			{
				"x": -1.3441999018,
				"y": 0.1430743997,
				"z": -0.2291757847,
				"element": "N" 
			},
			{
				"x": -1.7707297512,
				"y": -1.0823862638,
				"z": -0.0484346745,
				"element": "C" 
			},
			{
				"x": -3.4045015591,
				"y": -1.2652998049,
				"z": 0.6305725113,
				"element": "Cl" 
			},
			{
				"x": -1.04263483,
				"y": -2.2569391568,
				"z": -0.3387953954,
				"element": "C" 
			},
			{
				"x": -1.5709617502,
				"y": -3.5264177218,
				"z": -0.1805043238,
				"element": "N" 
			},
			{
				"x": 0.2422366533,
				"y": -2.0355693115,
				"z": -0.8557401082,
				"element": "C" 
			},
			{
				"x": 0.7064528394,
				"y": -0.7382484283,
				"z": -1.0518523063,
				"element": "C" 
			},
			{
				"x": 0.279275952,
				"y": 2.3227710849,
				"z": 0.0330672556,
				"element": "H" 
			},
			{
				"x": -0.3541915206,
				"y": 2.299100463,
				"z": -1.6096126761,
				"element": "H" 
			},
			{
				"x": 1.3352793308,
				"y": 1.8432349483,
				"z": -1.3117231646,
				"element": "H" 
			},
			{
				"x": -0.8987992003,
				"y": -4.2713461602,
				"z": -0.0671798562,
				"element": "H" 
			},
			{
				"x": -2.3629518985,
				"y": -3.5945090648,
				"z": 0.4430748049,
				"element": "H" 
			},
			{
				"x": 0.8681960243,
				"y": -2.8882137974,
				"z": -1.1069000705,
				"element": "H" 
			},
			{
				"x": 1.7016704766,
				"y": -0.5722505852,
				"z": -1.452380746,
				"element": "H" 
			}
		],
		 "valence_orbital": [ 
			{
				"type": "occ",
				"energy": -0.32333,
				"method": "rhf"
			},
			{
				"type": "occ",
				"energy": -0.31271,
				"method": "rhf"
			},
			{
				"type": "occ",
				"energy": -0.27141,
				"method": "rhf"
			},
			{
				"type": "occ",
				"energy": -0.26406,
				"method": "rhf"
			},
			{
				"type": "occ",
				"energy": -0.2126,
				"method": "rhf"
			},
			{
				"type": "unocc",
				"energy": -0.0241,
				"method": "rhf"
			},
			{
				"type": "unocc",
				"energy": 0.00202,
				"method": "rhf"
			},
			{
				"type": "unocc",
				"energy": 0.03824,
				"method": "rhf"
			},
			{
				"type": "unocc",
				"energy": 0.07933,
				"method": "rhf"
			},
			{
				"type": "unocc",
				"energy": 0.10187,
				"method": "rhf"
			}
		],
		"cosmo_sigma_profile": { 
			"-0.025": 0.0,
			"-0.024": 0.0,
			"-0.023": 0.0,
			"-0.022": 0.0,
			"-0.021": 0.0,
			"-0.02": 0.0,
			"-0.019": 0.0,
			"-0.018": 0.0,
			"-0.017": 0.0,
			"-0.016": 0.0,
			"-0.015": 0.0,
			"-0.014": 0.121283304671,
			"-0.013": 1.52890266111,
			"-0.012": 2.15711922293,
			"-0.011": 2.27033224855,
			"-0.01": 3.21526506529,
			"-0.009": 2.59014754941,
			"-0.008": 2.57127459391,
			"-0.007": 4.34601541103,
			"-0.006": 5.38130253877,
			"-0.005": 8.36739062429,
			"-0.004": 9.98526157115,
			"-0.003": 8.71675127415,
			"-0.002": 10.732637292,
			"-0.001": 12.5027928113,
			"0.0": 15.6822304334,
			"0.001": 14.4162239753,
			"0.002": 15.3963549062,
			"0.003": 14.6781895972,
			"0.004": 9.50927837573,
			"0.005": 8.91796934725,
			"0.006": 4.7166216119,
			"0.007": 3.15108140372,
			"0.008": 2.57784665881,
			"0.009": 2.00390203083,
			"0.01": 1.58474508725,
			"0.011": 1.70715680529,
			"0.012": 1.81237482552,
			"0.013": 1.26503951229,
			"0.014": 0.632834978609,
			"0.015": 0.489523003997,
			"0.016": 0.0,
			"0.017": 0.0,
			"0.018": 0.0,
			"0.019": 0.0,
			"0.02": 0.0,
			"0.021": 0.0,
			"0.022": 0.0,
			"0.023": 0.0,
			"0.024": 0.0,
			"0.025": 0.0
		}
	}
}
