{
	 "smiles": "OC(=O)C1CCCCN1C(=O)C1CCCO1", 
	 "Tm": 390.15, 
	 "num_atms": 33, 
	 "gaussian": { 
		 "optdone": 1, 
		 "sigma_profile": "yes", 
		 "theory": "DFT", 
		 "functional": "B3LYP", 
		 "basiset": "6-31G**", 
		 "properties": { 
			 "R2extent": 4064.9451, 
			 "electric_dipole_moment_norm": 3.48875391795, 
			 "electric_quadrupole_moment_norm": 19.1089729512, 
			 "total_energy": -785.079443029, 
			 "HOMO_LUMO_gap": 0.24271, 
			 "cosmo_polarized_energy": -15.46, 
			 "cosmo_cavitation_energy": 33.35, 
			 "cosmo_dispersion_energy": -24.05, 
			 "cosmo_repulsion_energy": 1.91, 
			 "cosmo_total_nonelectrostatic_energy": 11.21, 
			 "SMD_solvation_energy": 6.0 
		},
		"coords": [
			{
				"x": -0.7802860865,
				"y": -1.9510209634,
				"z": 2.2075015745,
				"element": "O" 
			},
			{
				"x": 0.2694053231,
				"y": -2.6568532499,
				"z": 1.7299822836,
				"element": "C" 
			},
			{
				"x": 0.4342884426,
				"y": -3.8315305171,
				"z": 1.9734284902,
				"element": "O" 
			},
			{
				"x": 1.2636376031,
				"y": -1.8335214534,
				"z": 0.9045794041,
				"element": "C" 
			},
			{
				"x": 2.5627397822,
				"y": -1.6154328939,
				"z": 1.7012433865,
				"element": "C" 
			},
			{
				"x": 2.3787141632,
				"y": -0.6508114871,
				"z": 2.8885503202,
				"element": "C" 
			},
			{
				"x": 1.4218537787,
				"y": 0.5166971905,
				"z": 2.534322481,
				"element": "C" 
			},
			{
				"x": 1.2544927496,
				"y": 0.6832759559,
				"z": 1.0202903357,
				"element": "C" 
			},
			{
				"x": 0.7317795739,
				"y": -0.5556679719,
				"z": 0.4254566762,
				"element": "N" 
			},
			{
				"x": -0.195362933,
				"y": -0.6354128554,
				"z": -0.5771439519,
				"element": "C" 
			},
			{
				"x": -0.5818200322,
				"y": -1.7286996714,
				"z": -0.9922626438,
				"element": "O" 
			},
			{
				"x": -0.7392105094,
				"y": 0.6844080474,
				"z": -1.1656171974,
				"element": "C" 
			},
			{
				"x": -1.6306695409,
				"y": 0.4411199202,
				"z": -2.3895586977,
				"element": "C" 
			},
			{
				"x": -0.6250476968,
				"y": 0.542918018,
				"z": -3.5456394956,
				"element": "C" 
			},
			{
				"x": 0.3119156901,
				"y": 1.6422041555,
				"z": -3.0434556129,
				"element": "C" 
			},
			{
				"x": 0.3590532706,
				"y": 1.5012944784,
				"z": -1.6146641379,
				"element": "O" 
			},
			{
				"x": -1.3230200683,
				"y": -2.5911360739,
				"z": 2.6983700836,
				"element": "H" 
			},
			{
				"x": 1.4723208831,
				"y": -2.4679141341,
				"z": 0.0384969403,
				"element": "H" 
			},
			{
				"x": 3.3110133008,
				"y": -1.2186126011,
				"z": 1.0064431524,
				"element": "H" 
			},
			{
				"x": 2.926053396,
				"y": -2.5905224882,
				"z": 2.0364010949,
				"element": "H" 
			},
			{
				"x": 1.9866034744,
				"y": -1.1962547888,
				"z": 3.7538120277,
				"element": "H" 
			},
			{
				"x": 3.3611144786,
				"y": -0.2693371331,
				"z": 3.1867566493,
				"element": "H" 
			},
			{
				"x": 1.7857307724,
				"y": 1.4597196714,
				"z": 2.9559581639,
				"element": "H" 
			},
			{
				"x": 0.4332028283,
				"y": 0.3315817877,
				"z": 2.9649526615,
				"element": "H" 
			},
			{
				"x": 2.208712106,
				"y": 0.9545554073,
				"z": 0.5496163727,
				"element": "H" 
			},
			{
				"x": 0.5674836336,
				"y": 1.4996396782,
				"z": 0.803097164,
				"element": "H" 
			},
			{
				"x": -1.2767487807,
				"y": 1.2279776129,
				"z": -0.3762600444,
				"element": "H" 
			},
			{
				"x": -2.3849291235,
				"y": 1.2318165469,
				"z": -2.4616594617,
				"element": "H" 
			},
			{
				"x": -2.1261636048,
				"y": -0.5279199191,
				"z": -2.3334078945,
				"element": "H" 
			},
			{
				"x": -0.0870111464,
				"y": -0.4044495654,
				"z": -3.6512514525,
				"element": "H" 
			},
			{
				"x": -1.0882770292,
				"y": 0.7870613405,
				"z": -4.5055790816,
				"element": "H" 
			},
			{
				"x": -0.0747305976,
				"y": 2.6405402058,
				"z": -3.2984434868,
				"element": "H" 
			},
			{
				"x": 1.333761899,
				"y": 1.5620877506,
				"z": -3.4287161037,
				"element": "H" 
			}
		],
		 "valence_orbital": [ 
			{
				"type": "occ",
				"energy": -0.31209,
				"method": "rhf"
			},
			{
				"type": "occ",
				"energy": -0.28041,
				"method": "rhf"
			},
			{
				"type": "occ",
				"energy": -0.27563,
				"method": "rhf"
			},
			{
				"type": "occ",
				"energy": -0.23479,
				"method": "rhf"
			},
			{
				"type": "occ",
				"energy": -0.23097,
				"method": "rhf"
			},
			{
				"type": "unocc",
				"energy": 0.01174,
				"method": "rhf"
			},
			{
				"type": "unocc",
				"energy": 0.02026,
				"method": "rhf"
			},
			{
				"type": "unocc",
				"energy": 0.06943,
				"method": "rhf"
			},
			{
				"type": "unocc",
				"energy": 0.08995,
				"method": "rhf"
			},
			{
				"type": "unocc",
				"energy": 0.09481,
				"method": "rhf"
			}
		],
		"cosmo_sigma_profile": { 
			"-0.025": 0.0,
			"-0.024": 0.0,
			"-0.023": 0.0,
			"-0.022": 0.0,
			"-0.021": 0.0,
			"-0.02": 0.0,
			"-0.019": 0.00348833903676,
			"-0.018": 0.921953278965,
			"-0.017": 0.858177068941,
			"-0.016": 1.02256225497,
			"-0.015": 0.798474243063,
			"-0.014": 0.338648757985,
			"-0.013": 0.380398777893,
			"-0.012": 0.835453795914,
			"-0.011": 1.31092057086,
			"-0.01": 0.816968122487,
			"-0.009": 0.235411075119,
			"-0.008": 0.734727058666,
			"-0.007": 2.01557500061,
			"-0.006": 5.15685568181,
			"-0.005": 9.21590451386,
			"-0.004": 26.2102031611,
			"-0.003": 41.0763490823,
			"-0.002": 35.8526282793,
			"-0.001": 27.4902778592,
			"0.0": 23.0262688196,
			"0.001": 9.39976716392,
			"0.002": 6.20078402524,
			"0.003": 6.91009286724,
			"0.004": 6.09705088043,
			"0.005": 6.58439492361,
			"0.006": 6.31947799677,
			"0.007": 5.84463994091,
			"0.008": 5.99959141532,
			"0.009": 5.2316980787,
			"0.01": 3.81604881,
			"0.011": 6.26957408797,
			"0.012": 6.87932786882,
			"0.013": 3.64280013235,
			"0.014": 1.46928472203,
			"0.015": 0.0,
			"0.016": 0.0,
			"0.017": 0.0,
			"0.018": 0.0,
			"0.019": 0.0,
			"0.02": 0.0,
			"0.021": 0.0,
			"0.022": 0.0,
			"0.023": 0.0,
			"0.024": 0.0,
			"0.025": 0.0
		}
	}
}
