{
	 "smiles": "COCCN1C(=O)C(=O)C2=C1C=C(Br)C=C2", 
	 "Tm": 413.15, 
	 "num_atms": 26, 
	 "gaussian": { 
		 "optdone": 1, 
		 "sigma_profile": "yes", 
		 "theory": "DFT", 
		 "functional": "B3LYP", 
		 "basiset": "6-31G**", 
		 "properties": { 
			 "R2extent": 6785.3634, 
			 "electric_dipole_moment_norm": 4.53663911503, 
			 "electric_quadrupole_moment_norm": 18.4963864133, 
			 "total_energy": -3277.01199345, 
			 "HOMO_LUMO_gap": 0.13749, 
			 "cosmo_polarized_energy": -12.97, 
			 "cosmo_cavitation_energy": 33.1, 
			 "cosmo_dispersion_energy": -23.45, 
			 "cosmo_repulsion_energy": 1.84, 
			 "cosmo_total_nonelectrostatic_energy": 11.49, 
			 "SMD_solvation_energy": 6.29 
		},
		"coords": [
			{
				"x": -2.4083687096,
				"y": 2.8166645538,
				"z": -2.0479046593,
				"element": "C" 
			},
			{
				"x": -1.6865055536,
				"y": 1.6104757377,
				"z": -2.2096761589,
				"element": "O" 
			},
			{
				"x": -0.307191676,
				"y": 1.8149816855,
				"z": -2.4403087441,
				"element": "C" 
			},
			{
				"x": 0.38589453,
				"y": 0.4613187791,
				"z": -2.53904664,
				"element": "C" 
			},
			{
				"x": 0.4771686929,
				"y": -0.2631814879,
				"z": -1.2783201723,
				"element": "N" 
			},
			{
				"x": 1.6657600644,
				"y": -0.3321432187,
				"z": -0.5572477187,
				"element": "C" 
			},
			{
				"x": 2.6998237931,
				"y": 0.2405704259,
				"z": -0.8271780971,
				"element": "O" 
			},
			{
				"x": 1.3910576704,
				"y": -1.3068896931,
				"z": 0.634080892,
				"element": "C" 
			},
			{
				"x": 2.2021167096,
				"y": -1.5981067435,
				"z": 1.486742656,
				"element": "O" 
			},
			{
				"x": 0.0019650238,
				"y": -1.7404357612,
				"z": 0.4453034325,
				"element": "C" 
			},
			{
				"x": -0.5048832348,
				"y": -1.0883778839,
				"z": -0.6988108571,
				"element": "C" 
			},
			{
				"x": -1.811104035,
				"y": -1.3004485233,
				"z": -1.1249930254,
				"element": "C" 
			},
			{
				"x": -2.579863858,
				"y": -2.1972380888,
				"z": -0.3735884346,
				"element": "C" 
			},
			{
				"x": -4.3779351543,
				"y": -2.5186552046,
				"z": -0.9236464187,
				"element": "Br" 
			},
			{
				"x": -2.0999675594,
				"y": -2.8599486316,
				"z": 0.7614722232,
				"element": "C" 
			},
			{
				"x": -0.7895897782,
				"y": -2.6201225618,
				"z": 1.1767329472,
				"element": "C" 
			},
			{
				"x": -3.4522945025,
				"y": 2.5480371731,
				"z": -1.8732190871,
				"element": "H" 
			},
			{
				"x": -2.3473716232,
				"y": 3.4491299466,
				"z": -2.9468244632,
				"element": "H" 
			},
			{
				"x": -2.0397247592,
				"y": 3.3973874942,
				"z": -1.1890396843,
				"element": "H" 
			},
			{
				"x": 0.1454741004,
				"y": 2.4074875394,
				"z": -1.6294048658,
				"element": "H" 
			},
			{
				"x": -0.1469930024,
				"y": 2.3641748019,
				"z": -3.3839491963,
				"element": "H" 
			},
			{
				"x": -0.1295330969,
				"y": -0.1628893388,
				"z": -3.2770774341,
				"element": "H" 
			},
			{
				"x": 1.4161890778,
				"y": 0.6159960629,
				"z": -2.8713548695,
				"element": "H" 
			},
			{
				"x": -2.2299449251,
				"y": -0.7683624109,
				"z": -1.9679106281,
				"element": "H" 
			},
			{
				"x": -2.7436544203,
				"y": -3.5407983239,
				"z": 1.3046587263,
				"element": "H" 
			},
			{
				"x": -0.3818237738,
				"y": -3.111326328,
				"z": 2.0549102772,
				"element": "H" 
			}
		],
		 "valence_orbital": [ 
			{
				"type": "occ",
				"energy": -0.29966,
				"method": "rhf"
			},
			{
				"type": "occ",
				"energy": -0.27686,
				"method": "rhf"
			},
			{
				"type": "occ",
				"energy": -0.26412,
				"method": "rhf"
			},
			{
				"type": "occ",
				"energy": -0.24867,
				"method": "rhf"
			},
			{
				"type": "occ",
				"energy": -0.23683,
				"method": "rhf"
			},
			{
				"type": "unocc",
				"energy": -0.09934,
				"method": "rhf"
			},
			{
				"type": "unocc",
				"energy": -0.02583,
				"method": "rhf"
			},
			{
				"type": "unocc",
				"energy": -0.00537,
				"method": "rhf"
			},
			{
				"type": "unocc",
				"energy": -1e-05,
				"method": "rhf"
			},
			{
				"type": "unocc",
				"energy": 0.07146,
				"method": "rhf"
			}
		],
		"cosmo_sigma_profile": { 
			"-0.025": 0.0,
			"-0.024": 0.0,
			"-0.023": 0.0,
			"-0.022": 0.0,
			"-0.021": 0.0,
			"-0.02": 0.0,
			"-0.019": 0.0,
			"-0.018": 0.0,
			"-0.017": 0.0,
			"-0.016": 0.0,
			"-0.015": 0.0,
			"-0.014": 0.0,
			"-0.013": 0.0,
			"-0.012": 0.0,
			"-0.011": 0.0,
			"-0.01": 0.0,
			"-0.009": 0.0706349641647,
			"-0.008": 2.87760010327,
			"-0.007": 7.8755241567,
			"-0.006": 12.3600485733,
			"-0.005": 18.4985106319,
			"-0.004": 31.9680271936,
			"-0.003": 26.4081430215,
			"-0.002": 22.8026983096,
			"-0.001": 15.1566086289,
			"0.0": 21.9776425294,
			"0.001": 23.3568680729,
			"0.002": 14.6536681367,
			"0.003": 14.8689295923,
			"0.004": 13.6615836397,
			"0.005": 3.31705634386,
			"0.006": 4.67456560524,
			"0.007": 4.94122304453,
			"0.008": 3.79836708936,
			"0.009": 5.67384480763,
			"0.01": 7.82129109973,
			"0.011": 8.30224048469,
			"0.012": 2.36642212618,
			"0.013": 0.187610595814,
			"0.014": 0.0,
			"0.015": 0.0,
			"0.016": 0.0,
			"0.017": 0.0,
			"0.018": 0.0,
			"0.019": 0.0,
			"0.02": 0.0,
			"0.021": 0.0,
			"0.022": 0.0,
			"0.023": 0.0,
			"0.024": 0.0,
			"0.025": 0.0
		}
	}
}
