{
	 "smiles": "CC1=C(Br)C(=CC=C1)S(Cl)(=O)=O", 
	 "Tm": 330.15, 
	 "num_atms": 18, 
	 "gaussian": { 
		 "optdone": 1, 
		 "sigma_profile": "yes", 
		 "theory": "DFT", 
		 "functional": "B3LYP", 
		 "basiset": "6-31G**", 
		 "properties": { 
			 "R2extent": 4284.7995, 
			 "electric_dipole_moment_norm": 5.89222812355, 
			 "electric_quadrupole_moment_norm": 11.3242746717, 
			 "total_energy": -3850.519766, 
			 "HOMO_LUMO_gap": 0.17765, 
			 "cosmo_polarized_energy": -9.24, 
			 "cosmo_cavitation_energy": 27.06, 
			 "cosmo_dispersion_energy": -20.76, 
			 "cosmo_repulsion_energy": 1.58, 
			 "cosmo_total_nonelectrostatic_energy": 7.88, 
			 "SMD_solvation_energy": 2.56 
		},
		"coords": [
			{
				"x": -0.211727613,
				"y": -2.7258413573,
				"z": 0.4658097127,
				"element": "C" 
			},
			{
				"x": 0.7400388079,
				"y": -1.5751784793,
				"z": 0.2609442562,
				"element": "C" 
			},
			{
				"x": 0.5211472617,
				"y": -0.5914460578,
				"z": -0.7210366995,
				"element": "C" 
			},
			{
				"x": -1.0194976751,
				"y": -0.7541222043,
				"z": -1.8252257136,
				"element": "Br" 
			},
			{
				"x": 1.4374539812,
				"y": 0.4611565964,
				"z": -0.8738876818,
				"element": "C" 
			},
			{
				"x": 2.5772426205,
				"y": 0.5486871396,
				"z": -0.0694892312,
				"element": "C" 
			},
			{
				"x": 2.7963367013,
				"y": -0.4197985254,
				"z": 0.9039407909,
				"element": "C" 
			},
			{
				"x": 1.8859375116,
				"y": -1.4611966299,
				"z": 1.0602252193,
				"element": "C" 
			},
			{
				"x": 1.2440295525,
				"y": 1.8170266279,
				"z": -2.0492160066,
				"element": "S" 
			},
			{
				"x": 1.5917998802,
				"y": 0.837564352,
				"z": -3.9041535223,
				"element": "Cl" 
			},
			{
				"x": -0.1273794841,
				"y": 2.3028477125,
				"z": -2.0679948572,
				"element": "O" 
			},
			{
				"x": 2.3668391566,
				"y": 2.7296431239,
				"z": -1.8694897576,
				"element": "O" 
			},
			{
				"x": -1.2170552898,
				"y": -2.3705441377,
				"z": 0.7137205861,
				"element": "H" 
			},
			{
				"x": 0.136156531,
				"y": -3.3702621705,
				"z": 1.2762830359,
				"element": "H" 
			},
			{
				"x": -0.3044489715,
				"y": -3.3308220037,
				"z": -0.4417872834,
				"element": "H" 
			},
			{
				"x": 3.267327679,
				"y": 1.3702537783,
				"z": -0.2156501372,
				"element": "H" 
			},
			{
				"x": 3.6752156754,
				"y": -0.3603728652,
				"z": 1.5374250338,
				"element": "H" 
			},
			{
				"x": 2.0607836745,
				"y": -2.2164948997,
				"z": 1.8209822556,
				"element": "H" 
			}
		],
		 "valence_orbital": [ 
			{
				"type": "occ",
				"energy": -0.32921,
				"method": "rhf"
			},
			{
				"type": "occ",
				"energy": -0.31179,
				"method": "rhf"
			},
			{
				"type": "occ",
				"energy": -0.29708,
				"method": "rhf"
			},
			{
				"type": "occ",
				"energy": -0.28856,
				"method": "rhf"
			},
			{
				"type": "occ",
				"energy": -0.26686,
				"method": "rhf"
			},
			{
				"type": "unocc",
				"energy": -0.08921,
				"method": "rhf"
			},
			{
				"type": "unocc",
				"energy": -0.052,
				"method": "rhf"
			},
			{
				"type": "unocc",
				"energy": -0.04026,
				"method": "rhf"
			},
			{
				"type": "unocc",
				"energy": -0.0116,
				"method": "rhf"
			},
			{
				"type": "unocc",
				"energy": 0.05607,
				"method": "rhf"
			}
		],
		"cosmo_sigma_profile": { 
			"-0.025": 0.0,
			"-0.024": 0.0,
			"-0.023": 0.0,
			"-0.022": 0.0,
			"-0.021": 0.0,
			"-0.02": 0.0,
			"-0.019": 0.0,
			"-0.018": 0.0,
			"-0.017": 0.0,
			"-0.016": 0.0,
			"-0.015": 0.0,
			"-0.014": 0.0,
			"-0.013": 0.0,
			"-0.012": 0.0,
			"-0.011": 0.0,
			"-0.01": 0.0,
			"-0.009": 0.00783807797595,
			"-0.008": 4.37714572029,
			"-0.007": 7.9208702598,
			"-0.006": 8.97445888228,
			"-0.005": 11.3557765875,
			"-0.004": 12.4907719517,
			"-0.003": 15.9583921767,
			"-0.002": 17.8498799977,
			"-0.001": 25.9985891764,
			"0.0": 22.2998273078,
			"0.001": 19.4892928787,
			"0.002": 17.1858028433,
			"0.003": 19.5256210023,
			"0.004": 9.81929898351,
			"0.005": 4.33293327431,
			"0.006": 3.48281541193,
			"0.007": 6.76446314049,
			"0.008": 10.8143792721,
			"0.009": 3.67534344507,
			"0.01": 0.0,
			"0.011": 0.0,
			"0.012": 0.0,
			"0.013": 0.0,
			"0.014": 0.0,
			"0.015": 0.0,
			"0.016": 0.0,
			"0.017": 0.0,
			"0.018": 0.0,
			"0.019": 0.0,
			"0.02": 0.0,
			"0.021": 0.0,
			"0.022": 0.0,
			"0.023": 0.0,
			"0.024": 0.0,
			"0.025": 0.0
		}
	}
}
