{
	 "smiles": "FC(F)(F)COC(=O)NC1=CC=C(Cl)C=C1", 
	 "Tm": 343.15, 
	 "num_atms": 23, 
	 "gaussian": { 
		 "optdone": 1, 
		 "sigma_profile": "yes", 
		 "theory": "DFT", 
		 "functional": "B3LYP", 
		 "basiset": "6-31G**", 
		 "properties": { 
			 "R2extent": 7114.4523, 
			 "electric_dipole_moment_norm": 2.91967626288, 
			 "electric_quadrupole_moment_norm": 11.6552985676, 
			 "total_energy": -1312.11754976, 
			 "HOMO_LUMO_gap": 0.20792, 
			 "cosmo_polarized_energy": -11.08, 
			 "cosmo_cavitation_energy": 31.72, 
			 "cosmo_dispersion_energy": -22.82, 
			 "cosmo_repulsion_energy": 1.73, 
			 "cosmo_total_nonelectrostatic_energy": 10.63, 
			 "SMD_solvation_energy": 7.22 
		},
		"coords": [
			{
				"x": 1.4498645229,
				"y": -0.5990267067,
				"z": -5.2474987087,
				"element": "F" 
			},
			{
				"x": 2.3306044291,
				"y": -0.7711874343,
				"z": -4.2432427582,
				"element": "C" 
			},
			{
				"x": 2.5359149583,
				"y": 0.4278398964,
				"z": -3.6682790249,
				"element": "F" 
			},
			{
				"x": 3.4953232171,
				"y": -1.191775562,
				"z": -4.7786080671,
				"element": "F" 
			},
			{
				"x": 1.8408365766,
				"y": -1.7952115461,
				"z": -3.2328925842,
				"element": "C" 
			},
			{
				"x": 0.6235499194,
				"y": -1.3459866195,
				"z": -2.6515747227,
				"element": "O" 
			},
			{
				"x": 0.7169533427,
				"y": -0.8459574211,
				"z": -1.3729582496,
				"element": "C" 
			},
			{
				"x": 1.7239254128,
				"y": -0.8764690773,
				"z": -0.6964824749,
				"element": "O" 
			},
			{
				"x": -0.5070587565,
				"y": -0.3499455721,
				"z": -1.0268187294,
				"element": "N" 
			},
			{
				"x": -0.8941264866,
				"y": 0.2292575798,
				"z": 0.1989296624,
				"element": "C" 
			},
			{
				"x": -2.2242256077,
				"y": 0.6591958787,
				"z": 0.3151576009,
				"element": "C" 
			},
			{
				"x": -2.6834901374,
				"y": 1.240999885,
				"z": 1.4926546994,
				"element": "C" 
			},
			{
				"x": -1.8061938828,
				"y": 1.3948723864,
				"z": 2.5650486634,
				"element": "C" 
			},
			{
				"x": -2.3773186184,
				"y": 2.1280742679,
				"z": 4.0569584363,
				"element": "Cl" 
			},
			{
				"x": -0.4822789091,
				"y": 0.9726036381,
				"z": 2.4627859203,
				"element": "C" 
			},
			{
				"x": -0.0201175006,
				"y": 0.3898054246,
				"z": 1.2836772311,
				"element": "C" 
			},
			{
				"x": 2.6049825214,
				"y": -1.9350081369,
				"z": -2.466317493,
				"element": "H" 
			},
			{
				"x": 1.6401938823,
				"y": -2.7349011569,
				"z": -3.7513087308,
				"element": "H" 
			},
			{
				"x": -1.2122153137,
				"y": -0.410739234,
				"z": -1.747637275,
				"element": "H" 
			},
			{
				"x": -2.9080516931,
				"y": 0.5388098557,
				"z": -0.5214871618,
				"element": "H" 
			},
			{
				"x": -3.7127757371,
				"y": 1.5712760146,
				"z": 1.5758368021,
				"element": "H" 
			},
			{
				"x": 0.1924380562,
				"y": 1.097716228,
				"z": 3.3024530281,
				"element": "H" 
			},
			{
				"x": 1.0066658043,
				"y": 0.0622574116,
				"z": 1.1996039362,
				"element": "H" 
			}
		],
		 "valence_orbital": [ 
			{
				"type": "occ",
				"energy": -0.3143,
				"method": "rhf"
			},
			{
				"type": "occ",
				"energy": -0.30735,
				"method": "rhf"
			},
			{
				"type": "occ",
				"energy": -0.30068,
				"method": "rhf"
			},
			{
				"type": "occ",
				"energy": -0.27012,
				"method": "rhf"
			},
			{
				"type": "occ",
				"energy": -0.2297,
				"method": "rhf"
			},
			{
				"type": "unocc",
				"energy": -0.02178,
				"method": "rhf"
			},
			{
				"type": "unocc",
				"energy": -0.02019,
				"method": "rhf"
			},
			{
				"type": "unocc",
				"energy": 0.02761,
				"method": "rhf"
			},
			{
				"type": "unocc",
				"energy": 0.04249,
				"method": "rhf"
			},
			{
				"type": "unocc",
				"energy": 0.07022,
				"method": "rhf"
			}
		],
		"cosmo_sigma_profile": { 
			"-0.025": 0.0,
			"-0.024": 0.0,
			"-0.023": 0.0,
			"-0.022": 0.0,
			"-0.021": 0.0,
			"-0.02": 0.0,
			"-0.019": 0.0,
			"-0.018": 0.0,
			"-0.017": 0.0,
			"-0.016": 0.487908190164,
			"-0.015": 1.22984625101,
			"-0.014": 1.60232208435,
			"-0.013": 1.38566549593,
			"-0.012": 0.675737270679,
			"-0.011": 1.14159198916,
			"-0.01": 1.77975607882,
			"-0.009": 3.89780534086,
			"-0.008": 5.39399619167,
			"-0.007": 9.31089865657,
			"-0.006": 10.735970866,
			"-0.005": 10.2105490198,
			"-0.004": 8.00438833914,
			"-0.003": 10.7193087124,
			"-0.002": 11.0441741844,
			"-0.001": 14.7448846818,
			"0.0": 18.3316450853,
			"0.001": 21.8805937445,
			"0.002": 41.5451988709,
			"0.003": 41.3674976382,
			"0.004": 18.756608094,
			"0.005": 10.658083356,
			"0.006": 2.17586286487,
			"0.007": 1.41894704203,
			"0.008": 1.83116710034,
			"0.009": 1.45394621369,
			"0.01": 2.17679498451,
			"0.011": 2.70180832261,
			"0.012": 0.151224472438,
			"0.013": 0.0,
			"0.014": 0.0,
			"0.015": 0.0,
			"0.016": 0.0,
			"0.017": 0.0,
			"0.018": 0.0,
			"0.019": 0.0,
			"0.02": 0.0,
			"0.021": 0.0,
			"0.022": 0.0,
			"0.023": 0.0,
			"0.024": 0.0,
			"0.025": 0.0
		}
	}
}
