{
	 "smiles": "O=N(=O)C1=CC=CC=C1C1=CC=CC=C1N(=O)=O", 
	 "Tm": 399.15, 
	 "num_atms": 26, 
	 "gaussian": { 
		 "optdone": 1, 
		 "sigma_profile": "yes", 
		 "theory": "DFT", 
		 "functional": "B3LYP", 
		 "basiset": "6-31G**", 
		 "properties": { 
			 "R2extent": 3933.3302, 
			 "electric_dipole_moment_norm": 5.86390644025, 
			 "electric_quadrupole_moment_norm": 19.9185414182, 
			 "total_energy": -872.287287812, 
			 "HOMO_LUMO_gap": 0.17477, 
			 "cosmo_polarized_energy": -14.33, 
			 "cosmo_cavitation_energy": 31.79, 
			 "cosmo_dispersion_energy": -22.14, 
			 "cosmo_repulsion_energy": 1.7, 
			 "cosmo_total_nonelectrostatic_energy": 11.36, 
			 "SMD_solvation_energy": 9.42 
		},
		"coords": [
			{
				"x": 0.9555004294,
				"y": -1.4325765906,
				"z": 2.5976375395,
				"element": "O" 
			},
			{
				"x": 0.5724974957,
				"y": -0.8005659776,
				"z": 1.6132831634,
				"element": "N" 
			},
			{
				"x": 1.2502453177,
				"y": 0.0373587057,
				"z": 1.0207374306,
				"element": "O" 
			},
			{
				"x": -0.7886683518,
				"y": -1.0695618751,
				"z": 1.1181098944,
				"element": "C" 
			},
			{
				"x": -1.4449218969,
				"y": -2.1762269039,
				"z": 1.656516162,
				"element": "C" 
			},
			{
				"x": -2.7255417659,
				"y": -2.49929529,
				"z": 1.2203985294,
				"element": "C" 
			},
			{
				"x": -3.3435342017,
				"y": -1.7026938727,
				"z": 0.2562056296,
				"element": "C" 
			},
			{
				"x": -2.6801954168,
				"y": -0.5930419898,
				"z": -0.2663003318,
				"element": "C" 
			},
			{
				"x": -1.3808804574,
				"y": -0.2557359346,
				"z": 0.1372329884,
				"element": "C" 
			},
			{
				"x": -0.7939470988,
				"y": 1.007421676,
				"z": -0.4157262292,
				"element": "C" 
			},
			{
				"x": -1.1446290987,
				"y": 2.2099990608,
				"z": 0.2132926951,
				"element": "C" 
			},
			{
				"x": -0.7173062415,
				"y": 3.4435500492,
				"z": -0.2767358303,
				"element": "C" 
			},
			{
				"x": 0.0625494111,
				"y": 3.5072373754,
				"z": -1.4316808918,
				"element": "C" 
			},
			{
				"x": 0.40778022,
				"y": 2.3316031865,
				"z": -2.0899166069,
				"element": "C" 
			},
			{
				"x": -0.0176513718,
				"y": 1.1037603611,
				"z": -1.5833031206,
				"element": "C" 
			},
			{
				"x": 0.4030869023,
				"y": -0.0995877518,
				"z": -2.3217662562,
				"element": "N" 
			},
			{
				"x": 0.2175986688,
				"y": -1.1964399678,
				"z": -1.7972792669,
				"element": "O" 
			},
			{
				"x": 0.9182793347,
				"y": 0.0623037326,
				"z": -3.4278577062,
				"element": "O" 
			},
			{
				"x": -0.9330486213,
				"y": -2.7640833238,
				"z": 2.4075309778,
				"element": "H" 
			},
			{
				"x": -3.2349060278,
				"y": -3.3642578551,
				"z": 1.6324590136,
				"element": "H" 
			},
			{
				"x": -4.3450738876,
				"y": -1.9399766006,
				"z": -0.0896301411,
				"element": "H" 
			},
			{
				"x": -3.1689167583,
				"y": 0.0285837875,
				"z": -1.0097612651,
				"element": "H" 
			},
			{
				"x": -1.7585794105,
				"y": 2.1665230441,
				"z": 1.1072609113,
				"element": "H" 
			},
			{
				"x": -0.9987131107,
				"y": 4.3536047125,
				"z": 0.2444135231,
				"element": "H" 
			},
			{
				"x": 0.3988531716,
				"y": 4.4630424595,
				"z": -1.8199374998,
				"element": "H" 
			},
			{
				"x": 1.0055227662,
				"y": 2.3377557824,
				"z": -2.9922833122,
				"element": "H" 
			}
		],
		 "valence_orbital": [ 
			{
				"type": "occ",
				"energy": -0.29368,
				"method": "rhf"
			},
			{
				"type": "occ",
				"energy": -0.28318,
				"method": "rhf"
			},
			{
				"type": "occ",
				"energy": -0.28215,
				"method": "rhf"
			},
			{
				"type": "occ",
				"energy": -0.26959,
				"method": "rhf"
			},
			{
				"type": "occ",
				"energy": -0.26722,
				"method": "rhf"
			},
			{
				"type": "unocc",
				"energy": -0.09245,
				"method": "rhf"
			},
			{
				"type": "unocc",
				"energy": -0.08673,
				"method": "rhf"
			},
			{
				"type": "unocc",
				"energy": -0.03072,
				"method": "rhf"
			},
			{
				"type": "unocc",
				"energy": -0.02987,
				"method": "rhf"
			},
			{
				"type": "unocc",
				"energy": -0.00927,
				"method": "rhf"
			}
		],
		"cosmo_sigma_profile": { 
			"-0.025": 0.0,
			"-0.024": 0.0,
			"-0.023": 0.0,
			"-0.022": 0.0,
			"-0.021": 0.0,
			"-0.02": 0.0,
			"-0.019": 0.0,
			"-0.018": 0.0,
			"-0.017": 0.0,
			"-0.016": 0.0,
			"-0.015": 0.0,
			"-0.014": 0.0,
			"-0.013": 0.0,
			"-0.012": 0.0,
			"-0.011": 0.0,
			"-0.01": 0.0,
			"-0.009": 0.0,
			"-0.008": 3.77322801058,
			"-0.007": 17.670139072,
			"-0.006": 21.8753177312,
			"-0.005": 19.5146009422,
			"-0.004": 14.3424974307,
			"-0.003": 15.053418193,
			"-0.002": 14.7036569175,
			"-0.001": 16.5549008795,
			"0.0": 17.8810205102,
			"0.001": 19.3988761565,
			"0.002": 21.5540330536,
			"0.003": 11.6645839859,
			"0.004": 7.36184442913,
			"0.005": 7.72627808935,
			"0.006": 8.09036395069,
			"0.007": 12.3538319495,
			"0.008": 12.2495253342,
			"0.009": 8.74502608036,
			"0.01": 5.38520810198,
			"0.011": 0.19328600907,
			"0.012": 0.0,
			"0.013": 0.0,
			"0.014": 0.0,
			"0.015": 0.0,
			"0.016": 0.0,
			"0.017": 0.0,
			"0.018": 0.0,
			"0.019": 0.0,
			"0.02": 0.0,
			"0.021": 0.0,
			"0.022": 0.0,
			"0.023": 0.0,
			"0.024": 0.0,
			"0.025": 0.0
		}
	}
}
