{
	 "smiles": "CC1=CC(Cl)=CC=C1N=C=O", 
	 "Tm": 311.15, 
	 "num_atms": 17, 
	 "gaussian": { 
		 "optdone": 1, 
		 "sigma_profile": "yes", 
		 "theory": "DFT", 
		 "functional": "B3LYP", 
		 "basiset": "6-31G**", 
		 "properties": { 
			 "R2extent": 3687.1131, 
			 "electric_dipole_moment_norm": 0.699957284411, 
			 "electric_quadrupole_moment_norm": 11.1549349106, 
			 "total_energy": -898.643063777, 
			 "HOMO_LUMO_gap": 0.20143, 
			 "cosmo_polarized_energy": -5.2, 
			 "cosmo_cavitation_energy": 24.41, 
			 "cosmo_dispersion_energy": -17.6, 
			 "cosmo_repulsion_energy": 1.43, 
			 "cosmo_total_nonelectrostatic_energy": 8.24, 
			 "SMD_solvation_energy": 6.48 
		},
		"coords": [
			{
				"x": -0.6831613197,
				"y": -1.9870887331,
				"z": 1.8497875072,
				"element": "C" 
			},
			{
				"x": -1.3440778784,
				"y": -0.6774684075,
				"z": 1.5045101757,
				"element": "C" 
			},
			{
				"x": -2.1183085327,
				"y": 0.0123354137,
				"z": 2.4416844904,
				"element": "C" 
			},
			{
				"x": -2.7252222149,
				"y": 1.2232644523,
				"z": 2.1117558819,
				"element": "C" 
			},
			{
				"x": -3.6908495947,
				"y": 2.0603896583,
				"z": 3.3176825174,
				"element": "Cl" 
			},
			{
				"x": -2.5780376246,
				"y": 1.7790874015,
				"z": 0.8425518312,
				"element": "C" 
			},
			{
				"x": -1.8098102186,
				"y": 1.1031784434,
				"z": -0.1009468611,
				"element": "C" 
			},
			{
				"x": -1.1961894548,
				"y": -0.1143038038,
				"z": 0.2216420597,
				"element": "C" 
			},
			{
				"x": -0.4205094059,
				"y": -0.8090849873,
				"z": -0.7118252114,
				"element": "N" 
			},
			{
				"x": -0.0352449783,
				"y": -0.7250372086,
				"z": -1.8551210855,
				"element": "C" 
			},
			{
				"x": 0.4046647107,
				"y": -0.7640178393,
				"z": -2.9477288758,
				"element": "O" 
			},
			{
				"x": -0.9012001772,
				"y": -2.2762557046,
				"z": 2.880531804,
				"element": "H" 
			},
			{
				"x": 0.4039533701,
				"y": -1.9239671508,
				"z": 1.7322956284,
				"element": "H" 
			},
			{
				"x": -1.0255246666,
				"y": -2.7891304148,
				"z": 1.1871407683,
				"element": "H" 
			},
			{
				"x": -2.248549323,
				"y": -0.3989041988,
				"z": 3.4370133396,
				"element": "H" 
			},
			{
				"x": -3.0539769581,
				"y": 2.7212183654,
				"z": 0.5957844024,
				"element": "H" 
			},
			{
				"x": -1.6828557333,
				"y": 1.5195847139,
				"z": -1.0956583725,
				"element": "H" 
			}
		],
		 "valence_orbital": [ 
			{
				"type": "occ",
				"energy": -0.3172,
				"method": "rhf"
			},
			{
				"type": "occ",
				"energy": -0.31382,
				"method": "rhf"
			},
			{
				"type": "occ",
				"energy": -0.31121,
				"method": "rhf"
			},
			{
				"type": "occ",
				"energy": -0.26736,
				"method": "rhf"
			},
			{
				"type": "occ",
				"energy": -0.23528,
				"method": "rhf"
			},
			{
				"type": "unocc",
				"energy": -0.03385,
				"method": "rhf"
			},
			{
				"type": "unocc",
				"energy": -0.0206,
				"method": "rhf"
			},
			{
				"type": "unocc",
				"energy": 0.00467,
				"method": "rhf"
			},
			{
				"type": "unocc",
				"energy": 0.02832,
				"method": "rhf"
			},
			{
				"type": "unocc",
				"energy": 0.06864,
				"method": "rhf"
			}
		],
		"cosmo_sigma_profile": { 
			"-0.025": 0.0,
			"-0.024": 0.0,
			"-0.023": 0.0,
			"-0.022": 0.0,
			"-0.021": 0.0,
			"-0.02": 0.0,
			"-0.019": 0.0,
			"-0.018": 0.0,
			"-0.017": 0.0,
			"-0.016": 0.0,
			"-0.015": 0.0,
			"-0.014": 0.0,
			"-0.013": 0.0,
			"-0.012": 0.0,
			"-0.011": 0.0,
			"-0.01": 0.0,
			"-0.009": 0.451109365044,
			"-0.008": 3.23132346222,
			"-0.007": 6.12444372351,
			"-0.006": 7.97759224135,
			"-0.005": 9.03492700282,
			"-0.004": 11.4133453328,
			"-0.003": 13.5312134908,
			"-0.002": 16.0552578999,
			"-0.001": 18.657609072,
			"0.0": 19.8673916458,
			"0.001": 17.3669751896,
			"0.002": 21.6994091233,
			"0.003": 19.9794987625,
			"0.004": 12.3221217054,
			"0.005": 8.83659163396,
			"0.006": 2.86835363197,
			"0.007": 6.72496097194,
			"0.008": 2.8876716382,
			"0.009": 0.0,
			"0.01": 0.0,
			"0.011": 0.0,
			"0.012": 0.0,
			"0.013": 0.0,
			"0.014": 0.0,
			"0.015": 0.0,
			"0.016": 0.0,
			"0.017": 0.0,
			"0.018": 0.0,
			"0.019": 0.0,
			"0.02": 0.0,
			"0.021": 0.0,
			"0.022": 0.0,
			"0.023": 0.0,
			"0.024": 0.0,
			"0.025": 0.0
		}
	}
}
