{
	 "smiles": "COC1=C2CCCC(=O)NC2=CC=C1", 
	 "Tm": 433.15, 
	 "num_atms": 27, 
	 "gaussian": { 
		 "optdone": 1, 
		 "sigma_profile": "yes", 
		 "theory": "DFT", 
		 "functional": "B3LYP", 
		 "basiset": "6-31G**", 
		 "properties": { 
			 "R2extent": 3186.7559, 
			 "electric_dipole_moment_norm": 4.60324600038, 
			 "electric_quadrupole_moment_norm": 8.44252200945, 
			 "total_energy": -632.214406728, 
			 "HOMO_LUMO_gap": 0.20419, 
			 "cosmo_polarized_energy": -11.78, 
			 "cosmo_cavitation_energy": 28.94, 
			 "cosmo_dispersion_energy": -21.67, 
			 "cosmo_repulsion_energy": 1.69, 
			 "cosmo_total_nonelectrostatic_energy": 8.97, 
			 "SMD_solvation_energy": 5.69 
		},
		"coords": [
			{
				"x": -0.156014357,
				"y": -1.2275901328,
				"z": -3.8320109372,
				"element": "C" 
			},
			{
				"x": -0.3983774792,
				"y": -0.25759468,
				"z": -2.8262701277,
				"element": "O" 
			},
			{
				"x": -0.2081254044,
				"y": -0.6070617365,
				"z": -1.5162894594,
				"element": "C" 
			},
			{
				"x": -0.5047329429,
				"y": 0.4262682565,
				"z": -0.5890514906,
				"element": "C" 
			},
			{
				"x": -1.0093753629,
				"y": 1.7234193537,
				"z": -1.1972793618,
				"element": "C" 
			},
			{
				"x": -1.5275047854,
				"y": 2.8163726514,
				"z": -0.2648506455,
				"element": "C" 
			},
			{
				"x": -0.4948996412,
				"y": 3.2698547108,
				"z": 0.7770071068,
				"element": "C" 
			},
			{
				"x": -0.4981635716,
				"y": 2.4027771222,
				"z": 2.0148645323,
				"element": "C" 
			},
			{
				"x": -0.516010732,
				"y": 2.865943394,
				"z": 3.1476104038,
				"element": "O" 
			},
			{
				"x": -0.5301505942,
				"y": 1.0279858517,
				"z": 1.8527766647,
				"element": "N" 
			},
			{
				"x": -0.3017396583,
				"y": 0.1419347455,
				"z": 0.7738245876,
				"element": "C" 
			},
			{
				"x": 0.1376113611,
				"y": -1.1407420006,
				"z": 1.1702685142,
				"element": "C" 
			},
			{
				"x": 0.3906542478,
				"y": -2.1299093909,
				"z": 0.2380495945,
				"element": "C" 
			},
			{
				"x": 0.2273490614,
				"y": -1.8722646526,
				"z": -1.1240111599,
				"element": "C" 
			},
			{
				"x": 0.8901863267,
				"y": -1.5587423559,
				"z": -3.8317621522,
				"element": "H" 
			},
			{
				"x": -0.8087992597,
				"y": -2.1022220507,
				"z": -3.7173688441,
				"element": "H" 
			},
			{
				"x": -0.3765202161,
				"y": -0.7368995675,
				"z": -4.781410521,
				"element": "H" 
			},
			{
				"x": -1.7958457305,
				"y": 1.4681136011,
				"z": -1.9164551468,
				"element": "H" 
			},
			{
				"x": -0.2024832111,
				"y": 2.1458917673,
				"z": -1.813096439,
				"element": "H" 
			},
			{
				"x": -2.4452349831,
				"y": 2.4938899047,
				"z": 0.2413619229,
				"element": "H" 
			},
			{
				"x": -1.8072142092,
				"y": 3.6740417302,
				"z": -0.886407307,
				"element": "H" 
			},
			{
				"x": -0.6900925513,
				"y": 4.2844343492,
				"z": 1.1302382351,
				"element": "H" 
			},
			{
				"x": 0.511010796,
				"y": 3.2668598992,
				"z": 0.3346559891,
				"element": "H" 
			},
			{
				"x": -0.5122303353,
				"y": 0.5812561771,
				"z": 2.7618294295,
				"element": "H" 
			},
			{
				"x": 0.2870832641,
				"y": -1.3399365296,
				"z": 2.2278813493,
				"element": "H" 
			},
			{
				"x": 0.7279767911,
				"y": -3.1084900076,
				"z": 0.5661746681,
				"element": "H" 
			},
			{
				"x": 0.4380431774,
				"y": -2.6445904099,
				"z": -1.8523794056,
				"element": "H" 
			}
		],
		 "valence_orbital": [ 
			{
				"type": "occ",
				"energy": -0.32146,
				"method": "rhf"
			},
			{
				"type": "occ",
				"energy": -0.29098,
				"method": "rhf"
			},
			{
				"type": "occ",
				"energy": -0.24663,
				"method": "rhf"
			},
			{
				"type": "occ",
				"energy": -0.22399,
				"method": "rhf"
			},
			{
				"type": "occ",
				"energy": -0.21286,
				"method": "rhf"
			},
			{
				"type": "unocc",
				"energy": -0.00867,
				"method": "rhf"
			},
			{
				"type": "unocc",
				"energy": 0.00507,
				"method": "rhf"
			},
			{
				"type": "unocc",
				"energy": 0.04459,
				"method": "rhf"
			},
			{
				"type": "unocc",
				"energy": 0.08288,
				"method": "rhf"
			},
			{
				"type": "unocc",
				"energy": 0.09345,
				"method": "rhf"
			}
		],
		"cosmo_sigma_profile": { 
			"-0.025": 0.0,
			"-0.024": 0.0,
			"-0.023": 0.0,
			"-0.022": 0.0,
			"-0.021": 0.0,
			"-0.02": 0.0,
			"-0.019": 0.0,
			"-0.018": 0.0,
			"-0.017": 0.0,
			"-0.016": 0.0,
			"-0.015": 0.0,
			"-0.014": 0.333827391991,
			"-0.013": 0.810174471353,
			"-0.012": 1.19546731198,
			"-0.011": 1.08030610224,
			"-0.01": 1.17104152006,
			"-0.009": 0.886068342535,
			"-0.008": 1.09617938586,
			"-0.007": 1.59886260608,
			"-0.006": 8.21535013022,
			"-0.005": 18.4396861735,
			"-0.004": 24.1852587256,
			"-0.003": 26.6092058664,
			"-0.002": 24.450335331,
			"-0.001": 17.9831348339,
			"0.0": 14.2244582316,
			"0.001": 10.3269457388,
			"0.002": 10.3003591601,
			"0.003": 12.165971723,
			"0.004": 10.9589660008,
			"0.005": 10.5960846454,
			"0.006": 8.9411570141,
			"0.007": 4.22762604823,
			"0.008": 2.67248895556,
			"0.009": 0.85871758749,
			"0.01": 1.58451450384,
			"0.011": 1.20223392225,
			"0.012": 2.10991229742,
			"0.013": 5.30854770274,
			"0.014": 3.81274294242,
			"0.015": 0.736034156578,
			"0.016": 0.0,
			"0.017": 0.0,
			"0.018": 0.0,
			"0.019": 0.0,
			"0.02": 0.0,
			"0.021": 0.0,
			"0.022": 0.0,
			"0.023": 0.0,
			"0.024": 0.0,
			"0.025": 0.0
		}
	}
}
