{
	 "smiles": "COC1=CC(=C(OC)C=C1)S(Cl)(=O)=O", 
	 "Tm": 389.15, 
	 "num_atms": 23, 
	 "gaussian": { 
		 "optdone": 1, 
		 "sigma_profile": "yes", 
		 "theory": "DFT", 
		 "functional": "B3LYP", 
		 "basiset": "6-31G**", 
		 "properties": { 
			 "R2extent": 3613.2648, 
			 "electric_dipole_moment_norm": 5.61716770891, 
			 "electric_quadrupole_moment_norm": 18.2436428662, 
			 "total_energy": -1469.45097916, 
			 "HOMO_LUMO_gap": 0.14876, 
			 "cosmo_polarized_energy": -13.18, 
			 "cosmo_cavitation_energy": 30.39, 
			 "cosmo_dispersion_energy": -22.33, 
			 "cosmo_repulsion_energy": 1.73, 
			 "cosmo_total_nonelectrostatic_energy": 9.78, 
			 "SMD_solvation_energy": 5.59 
		},
		"coords": [
			{
				"x": -0.0506013187,
				"y": 0.3157569771,
				"z": -4.4572393403,
				"element": "C" 
			},
			{
				"x": -0.2773617517,
				"y": 1.4065721569,
				"z": -3.574248694,
				"element": "O" 
			},
			{
				"x": -0.178790872,
				"y": 1.177599681,
				"z": -2.2353001465,
				"element": "C" 
			},
			{
				"x": 0.1410511004,
				"y": -0.053214852,
				"z": -1.6603683747,
				"element": "C" 
			},
			{
				"x": 0.2201229999,
				"y": -0.1577675152,
				"z": -0.2670996584,
				"element": "C" 
			},
			{
				"x": -0.028265137,
				"y": 0.9331827648,
				"z": 0.5848385802,
				"element": "C" 
			},
			{
				"x": 0.0412101459,
				"y": 0.7185087057,
				"z": 1.9166399265,
				"element": "O" 
			},
			{
				"x": -0.2051703064,
				"y": 1.8035756433,
				"z": 2.8029062843,
				"element": "C" 
			},
			{
				"x": -0.3484714653,
				"y": 2.1608523186,
				"z": -0.016874219,
				"element": "C" 
			},
			{
				"x": -0.4190573377,
				"y": 2.2775557263,
				"z": -1.3994239944,
				"element": "C" 
			},
			{
				"x": 0.6961775236,
				"y": -1.7520344678,
				"z": 0.3837613226,
				"element": "S" 
			},
			{
				"x": -1.099419479,
				"y": -2.3881530649,
				"z": 1.3489635805,
				"element": "Cl" 
			},
			{
				"x": 1.7048923169,
				"y": -1.6206193844,
				"z": 1.4250838167,
				"element": "O" 
			},
			{
				"x": 0.8835800105,
				"y": -2.6657228325,
				"z": -0.7397341045,
				"element": "O" 
			},
			{
				"x": 0.9674898678,
				"y": -0.0806720403,
				"z": -4.3548415896,
				"element": "H" 
			},
			{
				"x": -0.1822718766,
				"y": 0.7130557506,
				"z": -5.4642521485,
				"element": "H" 
			},
			{
				"x": -0.7715431662,
				"y": -0.4944492131,
				"z": -4.2902914014,
				"element": "H" 
			},
			{
				"x": 0.3366450167,
				"y": -0.9354313604,
				"z": -2.2545561746,
				"element": "H" 
			},
			{
				"x": -1.2231681243,
				"y": 2.1938766212,
				"z": 2.6845434859,
				"element": "H" 
			},
			{
				"x": 0.5186833624,
				"y": 2.6135411177,
				"z": 2.6532395668,
				"element": "H" 
			},
			{
				"x": -0.0881464496,
				"y": 1.3942815106,
				"z": 3.8061592076,
				"element": "H" 
			},
			{
				"x": -0.5468942966,
				"y": 3.030931917,
				"z": 0.5967584124,
				"element": "H" 
			},
			{
				"x": -0.6669907631,
				"y": 3.2288738397,
				"z": -1.8585643376,
				"element": "H" 
			}
		],
		 "valence_orbital": [ 
			{
				"type": "occ",
				"energy": -0.31897,
				"method": "rhf"
			},
			{
				"type": "occ",
				"energy": -0.31304,
				"method": "rhf"
			},
			{
				"type": "occ",
				"energy": -0.30131,
				"method": "rhf"
			},
			{
				"type": "occ",
				"energy": -0.28446,
				"method": "rhf"
			},
			{
				"type": "occ",
				"energy": -0.22744,
				"method": "rhf"
			},
			{
				"type": "unocc",
				"energy": -0.07868,
				"method": "rhf"
			},
			{
				"type": "unocc",
				"energy": -0.0397,
				"method": "rhf"
			},
			{
				"type": "unocc",
				"energy": -0.0066,
				"method": "rhf"
			},
			{
				"type": "unocc",
				"energy": 0.05292,
				"method": "rhf"
			},
			{
				"type": "unocc",
				"energy": 0.08039,
				"method": "rhf"
			}
		],
		"cosmo_sigma_profile": { 
			"-0.025": 0.0,
			"-0.024": 0.0,
			"-0.023": 0.0,
			"-0.022": 0.0,
			"-0.021": 0.0,
			"-0.02": 0.0,
			"-0.019": 0.0,
			"-0.018": 0.0,
			"-0.017": 0.0,
			"-0.016": 0.0,
			"-0.015": 0.0,
			"-0.014": 0.0,
			"-0.013": 0.0,
			"-0.012": 0.0,
			"-0.011": 0.0,
			"-0.01": 0.0,
			"-0.009": 0.1744542162,
			"-0.008": 3.79617597288,
			"-0.007": 10.8435309279,
			"-0.006": 20.8056859512,
			"-0.005": 19.5997028053,
			"-0.004": 19.4573561286,
			"-0.003": 17.5064915833,
			"-0.002": 11.6970018511,
			"-0.001": 13.0653940962,
			"0.0": 15.9916900093,
			"0.001": 20.9397238133,
			"0.002": 16.5864286123,
			"0.003": 14.0169162468,
			"0.004": 14.6366149378,
			"0.005": 7.20615566253,
			"0.006": 6.69742636723,
			"0.007": 7.89361373786,
			"0.008": 10.417697353,
			"0.009": 10.9186673972,
			"0.01": 2.38877215923,
			"0.011": 0.458332726906,
			"0.012": 0.0,
			"0.013": 0.0,
			"0.014": 0.0,
			"0.015": 0.0,
			"0.016": 0.0,
			"0.017": 0.0,
			"0.018": 0.0,
			"0.019": 0.0,
			"0.02": 0.0,
			"0.021": 0.0,
			"0.022": 0.0,
			"0.023": 0.0,
			"0.024": 0.0,
			"0.025": 0.0
		}
	}
}
