{
	 "smiles": "OC1=C2C(CCC1)CC1=CC=CC=C1C2=O", 
	 "Tm": 352.15, 
	 "num_atms": 30, 
	 "gaussian": { 
		 "optdone": 1, 
		 "sigma_profile": "yes", 
		 "theory": "DFT", 
		 "functional": "B3LYP", 
		 "basiset": "6-31G**", 
		 "properties": { 
			 "R2extent": 3687.2284, 
			 "electric_dipole_moment_norm": 3.48997849993, 
			 "electric_quadrupole_moment_norm": 9.19527670002, 
			 "total_energy": -692.407876407, 
			 "HOMO_LUMO_gap": 0.16048, 
			 "cosmo_polarized_energy": -7.98, 
			 "cosmo_cavitation_energy": 30.81, 
			 "cosmo_dispersion_energy": -23.4, 
			 "cosmo_repulsion_energy": 1.78, 
			 "cosmo_total_nonelectrostatic_energy": 9.19, 
			 "SMD_solvation_energy": 4.83 
		},
		"coords": [
			{
				"x": -2.3030397077,
				"y": -0.5280966852,
				"z": -2.0044398134,
				"element": "O" 
			},
			{
				"x": -1.3297716814,
				"y": 0.3211927011,
				"z": -1.7115206098,
				"element": "C" 
			},
			{
				"x": -0.5588639473,
				"y": 0.1996891423,
				"z": -0.574507679,
				"element": "C" 
			},
			{
				"x": 0.5337083668,
				"y": 1.2018425997,
				"z": -0.2295791093,
				"element": "C" 
			},
			{
				"x": 0.9762769581,
				"y": 1.9990341198,
				"z": -1.464877412,
				"element": "C" 
			},
			{
				"x": -0.2363370743,
				"y": 2.5446641757,
				"z": -2.2285548398,
				"element": "C" 
			},
			{
				"x": -1.1220885115,
				"y": 1.4002544135,
				"z": -2.7389048888,
				"element": "C" 
			},
			{
				"x": 1.7083684721,
				"y": 0.484879914,
				"z": 0.4548797967,
				"element": "C" 
			},
			{
				"x": 1.2498399201,
				"y": -0.3659082696,
				"z": 1.6181654329,
				"element": "C" 
			},
			{
				"x": 2.0332951187,
				"y": -0.5342842052,
				"z": 2.763716332,
				"element": "C" 
			},
			{
				"x": 1.6091970469,
				"y": -1.3625522385,
				"z": 3.8038722836,
				"element": "C" 
			},
			{
				"x": 0.3917915539,
				"y": -2.0442899416,
				"z": 3.710813089,
				"element": "C" 
			},
			{
				"x": -0.3974915788,
				"y": -1.8889767266,
				"z": 2.575860182,
				"element": "C" 
			},
			{
				"x": 0.0193075317,
				"y": -1.04851812,
				"z": 1.5340171276,
				"element": "C" 
			},
			{
				"x": -0.8389213749,
				"y": -0.8948020773,
				"z": 0.3303193067,
				"element": "C" 
			},
			{
				"x": -1.779502125,
				"y": -1.7078145913,
				"z": 0.1281928135,
				"element": "O" 
			},
			{
				"x": -2.3209677564,
				"y": -1.1864429172,
				"z": -1.2294259994,
				"element": "H" 
			},
			{
				"x": 0.1278895284,
				"y": 1.9205436501,
				"z": 0.5021186362,
				"element": "H" 
			},
			{
				"x": 1.6377430078,
				"y": 2.818151276,
				"z": -1.1587964756,
				"element": "H" 
			},
			{
				"x": 1.5627814274,
				"y": 1.3467521527,
				"z": -2.1274339793,
				"element": "H" 
			},
			{
				"x": 0.0822089807,
				"y": 3.1696501971,
				"z": -3.0696166879,
				"element": "H" 
			},
			{
				"x": -0.8216682839,
				"y": 3.1910418924,
				"z": -1.5618465551,
				"element": "H" 
			},
			{
				"x": -2.1057995117,
				"y": 1.7592736593,
				"z": -3.0617184845,
				"element": "H" 
			},
			{
				"x": -0.6715555354,
				"y": 0.9279983514,
				"z": -3.6237835728,
				"element": "H" 
			},
			{
				"x": 2.453162914,
				"y": 1.21474778,
				"z": 0.7924760022,
				"element": "H" 
			},
			{
				"x": 2.2104753136,
				"y": -0.1572419774,
				"z": -0.2847476467,
				"element": "H" 
			},
			{
				"x": 2.9842918246,
				"y": -0.0130061404,
				"z": 2.8403022668,
				"element": "H" 
			},
			{
				"x": 2.2293842998,
				"y": -1.4760388677,
				"z": 4.6887740075,
				"element": "H" 
			},
			{
				"x": 0.0640650315,
				"y": -2.6900011533,
				"z": 4.5201164511,
				"element": "H" 
			},
			{
				"x": -1.3449802077,
				"y": -2.4066421137,
				"z": 2.4691300254,
				"element": "H" 
			}
		],
		 "valence_orbital": [ 
			{
				"type": "occ",
				"energy": -0.32015,
				"method": "rhf"
			},
			{
				"type": "occ",
				"energy": -0.25596,
				"method": "rhf"
			},
			{
				"type": "occ",
				"energy": -0.24992,
				"method": "rhf"
			},
			{
				"type": "occ",
				"energy": -0.24716,
				"method": "rhf"
			},
			{
				"type": "occ",
				"energy": -0.2215,
				"method": "rhf"
			},
			{
				"type": "unocc",
				"energy": -0.06102,
				"method": "rhf"
			},
			{
				"type": "unocc",
				"energy": -0.00506,
				"method": "rhf"
			},
			{
				"type": "unocc",
				"energy": 0.01101,
				"method": "rhf"
			},
			{
				"type": "unocc",
				"energy": 0.07311,
				"method": "rhf"
			},
			{
				"type": "unocc",
				"energy": 0.09789,
				"method": "rhf"
			}
		],
		"cosmo_sigma_profile": { 
			"-0.025": 0.0,
			"-0.024": 0.0,
			"-0.023": 0.0,
			"-0.022": 0.0,
			"-0.021": 0.0,
			"-0.02": 0.0,
			"-0.019": 0.0,
			"-0.018": 0.0,
			"-0.017": 0.0,
			"-0.016": 0.0,
			"-0.015": 0.0,
			"-0.014": 0.0,
			"-0.013": 0.0,
			"-0.012": 0.0,
			"-0.011": 0.0,
			"-0.01": 0.0,
			"-0.009": 0.0,
			"-0.008": 0.0,
			"-0.007": 0.178772105048,
			"-0.006": 5.09604990809,
			"-0.005": 12.8945572693,
			"-0.004": 18.7599682491,
			"-0.003": 33.9792385272,
			"-0.002": 34.7234581798,
			"-0.001": 27.1558504718,
			"0.0": 24.0202524338,
			"0.001": 16.7389012021,
			"0.002": 13.4162213847,
			"0.003": 12.2329136208,
			"0.004": 13.8910585525,
			"0.005": 9.44967892103,
			"0.006": 2.87938031734,
			"0.007": 2.85588046514,
			"0.008": 2.88392050247,
			"0.009": 2.88888164772,
			"0.01": 3.34597592187,
			"0.011": 3.22779473052,
			"0.012": 2.04161689065,
			"0.013": 0.466559949041,
			"0.014": 0.0,
			"0.015": 0.0,
			"0.016": 0.0,
			"0.017": 0.0,
			"0.018": 0.0,
			"0.019": 0.0,
			"0.02": 0.0,
			"0.021": 0.0,
			"0.022": 0.0,
			"0.023": 0.0,
			"0.024": 0.0,
			"0.025": 0.0
		}
	}
}
