{
	 "smiles": "CC(=O)C1=CC(=C(O)C(=C1)C(C)(C)C)C(C)(C)C", 
	 "Tm": 420.15, 
	 "num_atms": 42, 
	 "gaussian": { 
		 "optdone": 1, 
		 "sigma_profile": "yes", 
		 "theory": "DFT", 
		 "functional": "B3LYP", 
		 "basiset": "6-31G**", 
		 "properties": { 
			 "R2extent": 5937.7841, 
			 "electric_dipole_moment_norm": 2.72322044278, 
			 "electric_quadrupole_moment_norm": 21.9805461311, 
			 "total_energy": -774.63377752, 
			 "HOMO_LUMO_gap": 0.18134, 
			 "cosmo_polarized_energy": -10.67, 
			 "cosmo_cavitation_energy": 40.7, 
			 "cosmo_dispersion_energy": -27.73, 
			 "cosmo_repulsion_energy": 2.13, 
			 "cosmo_total_nonelectrostatic_energy": 15.09, 
			 "SMD_solvation_energy": 7.96 
		},
		"coords": [
			{
				"x": -2.3469890209,
				"y": 3.150282777,
				"z": 2.2510655157,
				"element": "C" 
			},
			{
				"x": -1.1861162773,
				"y": 2.3708263694,
				"z": 2.8518475129,
				"element": "C" 
			},
			{
				"x": -0.9270960223,
				"y": 2.4773145695,
				"z": 4.0439424746,
				"element": "O" 
			},
			{
				"x": -0.3774541449,
				"y": 1.4825581905,
				"z": 1.9673083745,
				"element": "C" 
			},
			{
				"x": 0.6869270344,
				"y": 0.7727627659,
				"z": 2.5366690908,
				"element": "C" 
			},
			{
				"x": 1.4941073129,
				"y": -0.0775149429,
				"z": 1.7893401817,
				"element": "C" 
			},
			{
				"x": 1.1993220936,
				"y": -0.2072797316,
				"z": 0.3990569522,
				"element": "C" 
			},
			{
				"x": 1.951462424,
				"y": -1.0251317033,
				"z": -0.3964904075,
				"element": "O" 
			},
			{
				"x": 0.1344301181,
				"y": 0.4891738803,
				"z": -0.2198392759,
				"element": "C" 
			},
			{
				"x": -0.6292165139,
				"y": 1.3250195642,
				"z": 0.6040367326,
				"element": "C" 
			},
			{
				"x": -0.2738746425,
				"y": 0.4233094939,
				"z": -1.7193601321,
				"element": "C" 
			},
			{
				"x": -1.740183576,
				"y": -0.0703913107,
				"z": -1.8111107012,
				"element": "C" 
			},
			{
				"x": -0.1743042499,
				"y": 1.8482779685,
				"z": -2.3207550012,
				"element": "C" 
			},
			{
				"x": 0.5670172556,
				"y": -0.5040207449,
				"z": -2.6239216947,
				"element": "C" 
			},
			{
				"x": 2.6632915093,
				"y": -0.8447623232,
				"z": 2.4597753931,
				"element": "C" 
			},
			{
				"x": 2.7618966767,
				"y": -0.5257925953,
				"z": 3.9671784897,
				"element": "C" 
			},
			{
				"x": 4.027264301,
				"y": -0.4265263495,
				"z": 1.8439254943,
				"element": "C" 
			},
			{
				"x": 2.4486989663,
				"y": -2.3805684446,
				"z": 2.360563108,
				"element": "C" 
			},
			{
				"x": -2.0031754238,
				"y": 3.8206472701,
				"z": 1.4555598296,
				"element": "H" 
			},
			{
				"x": -2.8158012688,
				"y": 3.7381724327,
				"z": 3.0406888089,
				"element": "H" 
			},
			{
				"x": -3.0901909739,
				"y": 2.476065306,
				"z": 1.8111976761,
				"element": "H" 
			},
			{
				"x": 0.8516199728,
				"y": 0.9199533284,
				"z": 3.5954504846,
				"element": "H" 
			},
			{
				"x": 2.6399011592,
				"y": -1.4415548297,
				"z": 0.1305519404,
				"element": "H" 
			},
			{
				"x": -1.4515976372,
				"y": 1.8723474682,
				"z": 0.1585390075,
				"element": "H" 
			},
			{
				"x": -2.0617335703,
				"y": -0.1003293893,
				"z": -2.8582089833,
				"element": "H" 
			},
			{
				"x": -2.43626352,
				"y": 0.5776451586,
				"z": -1.2708750892,
				"element": "H" 
			},
			{
				"x": -1.836516939,
				"y": -1.0803875363,
				"z": -1.3993761484,
				"element": "H" 
			},
			{
				"x": -0.4832711601,
				"y": 1.8352092483,
				"z": -3.3720073416,
				"element": "H" 
			},
			{
				"x": -0.8100422855,
				"y": 2.5693030879,
				"z": -1.7988593337,
				"element": "H" 
			},
			{
				"x": 0.8554575985,
				"y": 2.2177258569,
				"z": -2.2761149894,
				"element": "H" 
			},
			{
				"x": 0.5253714634,
				"y": -1.5458620882,
				"z": -2.3018606717,
				"element": "H" 
			},
			{
				"x": 1.6162885418,
				"y": -0.2067208097,
				"z": -2.6609235678,
				"element": "H" 
			},
			{
				"x": 0.1617383624,
				"y": -0.4465096077,
				"z": -3.6406328316,
				"element": "H" 
			},
			{
				"x": 1.855116646,
				"y": -0.8138496374,
				"z": 4.5068077784,
				"element": "H" 
			},
			{
				"x": 3.5968204956,
				"y": -1.0863391526,
				"z": 4.3996197566,
				"element": "H" 
			},
			{
				"x": 2.946824435,
				"y": 0.5367196575,
				"z": 4.149631654,
				"element": "H" 
			},
			{
				"x": 4.196117239,
				"y": 0.6431962485,
				"z": 2.0003253431,
				"element": "H" 
			},
			{
				"x": 4.1173680781,
				"y": -0.6003365468,
				"z": 0.7668336887,
				"element": "H" 
			},
			{
				"x": 4.8424610109,
				"y": -0.9736694121,
				"z": 2.3293127185,
				"element": "H" 
			},
			{
				"x": 3.2798131561,
				"y": -2.9080869286,
				"z": 2.8406760979,
				"element": "H" 
			},
			{
				"x": 1.5250645163,
				"y": -2.6632352409,
				"z": 2.8746157995,
				"element": "H" 
			},
			{
				"x": 2.3665468595,
				"y": -2.7675413172,
				"z": 1.3398162654,
				"element": "H" 
			}
		],
		 "valence_orbital": [ 
			{
				"type": "occ",
				"energy": -0.31524,
				"method": "rhf"
			},
			{
				"type": "occ",
				"energy": -0.30492,
				"method": "rhf"
			},
			{
				"type": "occ",
				"energy": -0.24372,
				"method": "rhf"
			},
			{
				"type": "occ",
				"energy": -0.23735,
				"method": "rhf"
			},
			{
				"type": "occ",
				"energy": -0.22107,
				"method": "rhf"
			},
			{
				"type": "unocc",
				"energy": -0.03973,
				"method": "rhf"
			},
			{
				"type": "unocc",
				"energy": -0.00426,
				"method": "rhf"
			},
			{
				"type": "unocc",
				"energy": 0.05147,
				"method": "rhf"
			},
			{
				"type": "unocc",
				"energy": 0.06054,
				"method": "rhf"
			},
			{
				"type": "unocc",
				"energy": 0.08088,
				"method": "rhf"
			}
		],
		"cosmo_sigma_profile": { 
			"-0.025": 0.0,
			"-0.024": 0.0,
			"-0.023": 0.0,
			"-0.022": 0.0,
			"-0.021": 0.0,
			"-0.02": 0.0,
			"-0.019": 0.0,
			"-0.018": 0.0,
			"-0.017": 0.0,
			"-0.016": 0.0,
			"-0.015": 0.12222914801,
			"-0.014": 0.433983121194,
			"-0.013": 0.642601735958,
			"-0.012": 0.394903085792,
			"-0.011": 0.973556088099,
			"-0.01": 0.767776685268,
			"-0.009": 0.9519648838,
			"-0.008": 0.708702693421,
			"-0.007": 0.976470336236,
			"-0.006": 5.34010898919,
			"-0.005": 11.630089352,
			"-0.004": 15.1736523341,
			"-0.003": 35.787144645,
			"-0.002": 40.9513283731,
			"-0.001": 42.2594108568,
			"0.0": 41.9191728082,
			"0.001": 37.1894081467,
			"0.002": 21.7876542618,
			"0.003": 13.7094965025,
			"0.004": 13.0435535703,
			"0.005": 8.19359401129,
			"0.006": 4.50953700909,
			"0.007": 2.98405812005,
			"0.008": 2.10529648462,
			"0.009": 1.97717828837,
			"0.01": 1.40980962238,
			"0.011": 2.58323847681,
			"0.012": 3.66931679356,
			"0.013": 3.33033184595,
			"0.014": 0.963217699485,
			"0.015": 0.0,
			"0.016": 0.0,
			"0.017": 0.0,
			"0.018": 0.0,
			"0.019": 0.0,
			"0.02": 0.0,
			"0.021": 0.0,
			"0.022": 0.0,
			"0.023": 0.0,
			"0.024": 0.0,
			"0.025": 0.0
		}
	}
}
