{
	 "smiles": "COC1=CC=CC=C1[N+]([O-])=O", 
	 "Tm": 283.1, 
	 "num_atms": 18, 
	 "gaussian": { 
		 "optdone": 1, 
		 "sigma_profile": "yes", 
		 "theory": "DFT", 
		 "functional": "B3LYP", 
		 "basiset": "6-31G**", 
		 "properties": { 
			 "R2extent": 2002.3128, 
			 "electric_dipole_moment_norm": 5.59518587448, 
			 "electric_quadrupole_moment_norm": 15.201406676, 
			 "total_energy": -551.263349403, 
			 "HOMO_LUMO_gap": 0.16891, 
			 "cosmo_polarized_energy": -11.65, 
			 "cosmo_cavitation_energy": 22.67, 
			 "cosmo_dispersion_energy": -16.8, 
			 "cosmo_repulsion_energy": 1.35, 
			 "cosmo_total_nonelectrostatic_energy": 7.23, 
			 "SMD_solvation_energy": 7.08 
		},
		"coords": [
			{
				"x": -3.3558762968,
				"y": 1.3008681776,
				"z": -0.3286301485,
				"element": "C" 
			},
			{
				"x": -2.5151312711,
				"y": 0.4269805631,
				"z": 0.4157649551,
				"element": "O" 
			},
			{
				"x": -1.1781812429,
				"y": 0.5692169587,
				"z": 0.3199640478,
				"element": "C" 
			},
			{
				"x": -0.5539642828,
				"y": 1.5298456091,
				"z": -0.4933190974,
				"element": "C" 
			},
			{
				"x": 0.8340169885,
				"y": 1.6496016108,
				"z": -0.524403391,
				"element": "C" 
			},
			{
				"x": 1.6425335483,
				"y": 0.8291518137,
				"z": 0.2631853842,
				"element": "C" 
			},
			{
				"x": 1.0433830774,
				"y": -0.1198108598,
				"z": 1.0836116253,
				"element": "C" 
			},
			{
				"x": -0.3439172024,
				"y": -0.262292142,
				"z": 1.1058710987,
				"element": "C" 
			},
			{
				"x": -0.8859298175,
				"y": -1.3147954182,
				"z": 1.9749702505,
				"element": "N" 
			},
			{
				"x": -1.9737775955,
				"y": -1.8082875286,
				"z": 1.6915140194,
				"element": "O" 
			},
			{
				"x": -0.1896175551,
				"y": -1.6591082669,
				"z": 2.9342778991,
				"element": "O" 
			},
			{
				"x": -4.3749909943,
				"y": 1.004578962,
				"z": -0.079809916,
				"element": "H" 
			},
			{
				"x": -3.1986118093,
				"y": 1.1870158671,
				"z": -1.4078387807,
				"element": "H" 
			},
			{
				"x": -3.2007642401,
				"y": 2.3488927258,
				"z": -0.0449589032,
				"element": "H" 
			},
			{
				"x": -1.1567689196,
				"y": 2.1894064936,
				"z": -1.1045342671,
				"element": "H" 
			},
			{
				"x": 1.2828697188,
				"y": 2.3986355349,
				"z": -1.1702654975,
				"element": "H" 
			},
			{
				"x": 2.722483842,
				"y": 0.9260185316,
				"z": 0.2397721146,
				"element": "H" 
			},
			{
				"x": 1.6275440523,
				"y": -0.7713186324,
				"z": 1.7217286064,
				"element": "H" 
			}
		],
		 "valence_orbital": [ 
			{
				"type": "occ",
				"energy": -0.29622,
				"method": "rhf"
			},
			{
				"type": "occ",
				"energy": -0.2944,
				"method": "rhf"
			},
			{
				"type": "occ",
				"energy": -0.28464,
				"method": "rhf"
			},
			{
				"type": "occ",
				"energy": -0.26839,
				"method": "rhf"
			},
			{
				"type": "occ",
				"energy": -0.2444,
				"method": "rhf"
			},
			{
				"type": "unocc",
				"energy": -0.07549,
				"method": "rhf"
			},
			{
				"type": "unocc",
				"energy": -0.01328,
				"method": "rhf"
			},
			{
				"type": "unocc",
				"energy": 0.0013,
				"method": "rhf"
			},
			{
				"type": "unocc",
				"energy": 0.06881,
				"method": "rhf"
			},
			{
				"type": "unocc",
				"energy": 0.09242,
				"method": "rhf"
			}
		],
		"cosmo_sigma_profile": { 
			"-0.025": 0.0,
			"-0.024": 0.0,
			"-0.023": 0.0,
			"-0.022": 0.0,
			"-0.021": 0.0,
			"-0.02": 0.0,
			"-0.019": 0.0,
			"-0.018": 0.0,
			"-0.017": 0.0,
			"-0.016": 0.0,
			"-0.015": 0.0,
			"-0.014": 0.0,
			"-0.013": 0.0,
			"-0.012": 0.0,
			"-0.011": 0.0,
			"-0.01": 0.0,
			"-0.009": 0.0,
			"-0.008": 1.3826792619,
			"-0.007": 10.9159740789,
			"-0.006": 16.7053490557,
			"-0.005": 16.5662721704,
			"-0.004": 16.1282560373,
			"-0.003": 12.230193673,
			"-0.002": 8.85064714334,
			"-0.001": 10.6907447318,
			"0.0": 10.4970781877,
			"0.001": 12.0820826637,
			"0.002": 12.0062614436,
			"0.003": 10.5537919006,
			"0.004": 4.33912764845,
			"0.005": 3.7035884697,
			"0.006": 3.87852709221,
			"0.007": 4.59078760896,
			"0.008": 9.71707757105,
			"0.009": 7.08729836687,
			"0.01": 5.96805639617,
			"0.011": 2.27829291866,
			"0.012": 1.16599891904,
			"0.013": 0.12907400294,
			"0.014": 0.0,
			"0.015": 0.0,
			"0.016": 0.0,
			"0.017": 0.0,
			"0.018": 0.0,
			"0.019": 0.0,
			"0.02": 0.0,
			"0.021": 0.0,
			"0.022": 0.0,
			"0.023": 0.0,
			"0.024": 0.0,
			"0.025": 0.0
		}
	}
}
