{
	 "smiles": "CCOC(=O)C(=NNC1=C(C=CC=C1)[N+]([O-])=O)C(C)=O", 
	 "Tm": 346.65, 
	 "num_atms": 33, 
	 "gaussian": { 
		 "optdone": 1, 
		 "sigma_profile": "yes", 
		 "theory": "DFT", 
		 "functional": "B3LYP", 
		 "basiset": "6-31G**", 
		 "properties": { 
			 "R2extent": 7628.6061, 
			 "electric_dipole_moment_norm": 5.55085119058, 
			 "electric_quadrupole_moment_norm": 20.1265566653, 
			 "total_energy": -1005.36809577, 
			 "HOMO_LUMO_gap": 0.13591, 
			 "cosmo_polarized_energy": -13.97, 
			 "cosmo_cavitation_energy": 38.57, 
			 "cosmo_dispersion_energy": -27.42, 
			 "cosmo_repulsion_energy": 2.11, 
			 "cosmo_total_nonelectrostatic_energy": 13.26, 
			 "SMD_solvation_energy": 9.84 
		},
		"coords": [
			{
				"x": 3.5019159856,
				"y": -1.3962336062,
				"z": -2.0767125216,
				"element": "C" 
			},
			{
				"x": 2.4874120503,
				"y": -2.1606414719,
				"z": -1.2393364259,
				"element": "C" 
			},
			{
				"x": 1.3443195846,
				"y": -1.3355258748,
				"z": -0.9105128702,
				"element": "O" 
			},
			{
				"x": 0.3621463157,
				"y": -1.2860196207,
				"z": -1.8324680007,
				"element": "C" 
			},
			{
				"x": 0.4010457588,
				"y": -1.8973678318,
				"z": -2.8865964562,
				"element": "O" 
			},
			{
				"x": -0.7773125569,
				"y": -0.4083409358,
				"z": -1.4215015544,
				"element": "C" 
			},
			{
				"x": -0.6200951729,
				"y": 0.1871038657,
				"z": -0.2624923419,
				"element": "N" 
			},
			{
				"x": -1.5221847026,
				"y": 0.9944133111,
				"z": 0.2455618893,
				"element": "N" 
			},
			{
				"x": -1.2645673072,
				"y": 1.582478069,
				"z": 1.4868322717,
				"element": "C" 
			},
			{
				"x": -2.1698306448,
				"y": 2.4682942864,
				"z": 2.1220967349,
				"element": "C" 
			},
			{
				"x": -1.8676247192,
				"y": 3.0336368037,
				"z": 3.3678128074,
				"element": "C" 
			},
			{
				"x": -0.674548205,
				"y": 2.737169348,
				"z": 4.005189972,
				"element": "C" 
			},
			{
				"x": 0.2291859119,
				"y": 1.8625341519,
				"z": 3.3874762225,
				"element": "C" 
			},
			{
				"x": -0.0575626299,
				"y": 1.2965380814,
				"z": 2.1554061806,
				"element": "C" 
			},
			{
				"x": -3.4555356698,
				"y": 2.8461612377,
				"z": 1.5339573718,
				"element": "N" 
			},
			{
				"x": -3.7647924466,
				"y": 2.3699251902,
				"z": 0.4338980524,
				"element": "O" 
			},
			{
				"x": -4.1732130094,
				"y": 3.6225576487,
				"z": 2.1613522545,
				"element": "O" 
			},
			{
				"x": -1.9848381175,
				"y": -0.2394272069,
				"z": -2.2845306789,
				"element": "C" 
			},
			{
				"x": -2.123699029,
				"y": -0.9488610326,
				"z": -3.6097152868,
				"element": "C" 
			},
			{
				"x": -2.8893011279,
				"y": 0.5020994847,
				"z": -1.8920535894,
				"element": "O" 
			},
			{
				"x": 3.8112665734,
				"y": -0.4769011723,
				"z": -1.5708578764,
				"element": "H" 
			},
			{
				"x": 4.3905504361,
				"y": -2.0153917609,
				"z": -2.2388610334,
				"element": "H" 
			},
			{
				"x": 3.08097567,
				"y": -1.1400644461,
				"z": -3.0519026253,
				"element": "H" 
			},
			{
				"x": 2.1417284321,
				"y": -3.0565433681,
				"z": -1.7602365293,
				"element": "H" 
			},
			{
				"x": 2.9015110456,
				"y": -2.4421761177,
				"z": -0.2681817542,
				"element": "H" 
			},
			{
				"x": -2.3948451575,
				"y": 1.1857904998,
				"z": -0.2623895484,
				"element": "H" 
			},
			{
				"x": -2.5963928445,
				"y": 3.7032505784,
				"z": 3.8055020021,
				"element": "H" 
			},
			{
				"x": -0.4484188629,
				"y": 3.1791413934,
				"z": 4.9695048269,
				"element": "H" 
			},
			{
				"x": 1.1691927065,
				"y": 1.6194272413,
				"z": 3.8738553299,
				"element": "H" 
			},
			{
				"x": 0.6353671397,
				"y": 0.6198874425,
				"z": 1.6720480949,
				"element": "H" 
			},
			{
				"x": -1.3093946039,
				"y": -0.6773161112,
				"z": -4.2863546358,
				"element": "H" 
			},
			{
				"x": -3.0883812061,
				"y": -0.669576282,
				"z": -4.0359336321,
				"element": "H" 
			},
			{
				"x": -2.0558795971,
				"y": -2.0325217949,
				"z": -3.4840566501,
				"element": "H" 
			}
		],
		 "valence_orbital": [ 
			{
				"type": "occ",
				"energy": -0.29516,
				"method": "rhf"
			},
			{
				"type": "occ",
				"energy": -0.28645,
				"method": "rhf"
			},
			{
				"type": "occ",
				"energy": -0.28109,
				"method": "rhf"
			},
			{
				"type": "occ",
				"energy": -0.25278,
				"method": "rhf"
			},
			{
				"type": "occ",
				"energy": -0.23843,
				"method": "rhf"
			},
			{
				"type": "unocc",
				"energy": -0.10252,
				"method": "rhf"
			},
			{
				"type": "unocc",
				"energy": -0.07948,
				"method": "rhf"
			},
			{
				"type": "unocc",
				"energy": -0.01653,
				"method": "rhf"
			},
			{
				"type": "unocc",
				"energy": -0.00662,
				"method": "rhf"
			},
			{
				"type": "unocc",
				"energy": -0.00167,
				"method": "rhf"
			}
		],
		"cosmo_sigma_profile": { 
			"-0.025": 0.0,
			"-0.024": 0.0,
			"-0.023": 0.0,
			"-0.022": 0.0,
			"-0.021": 0.0,
			"-0.02": 0.0,
			"-0.019": 0.0,
			"-0.018": 0.0,
			"-0.017": 0.0,
			"-0.016": 0.0,
			"-0.015": 0.0,
			"-0.014": 0.0,
			"-0.013": 0.0,
			"-0.012": 0.0,
			"-0.011": 0.0,
			"-0.01": 0.0,
			"-0.009": 0.0,
			"-0.008": 1.98127734296,
			"-0.007": 7.72043292656,
			"-0.006": 14.6726829939,
			"-0.005": 21.0214580216,
			"-0.004": 28.5450340849,
			"-0.003": 31.2795301044,
			"-0.002": 32.4346978764,
			"-0.001": 30.228956262,
			"0.0": 29.3055220781,
			"0.001": 19.7720662613,
			"0.002": 17.7951098818,
			"0.003": 7.39091450222,
			"0.004": 6.96246847206,
			"0.005": 7.64174971223,
			"0.006": 8.68714284976,
			"0.007": 9.8594468085,
			"0.008": 11.9213370356,
			"0.009": 9.6100177151,
			"0.01": 5.34442511837,
			"0.011": 3.69270909086,
			"0.012": 2.33249880279,
			"0.013": 0.132157269466,
			"0.014": 0.0,
			"0.015": 0.0,
			"0.016": 0.0,
			"0.017": 0.0,
			"0.018": 0.0,
			"0.019": 0.0,
			"0.02": 0.0,
			"0.021": 0.0,
			"0.022": 0.0,
			"0.023": 0.0,
			"0.024": 0.0,
			"0.025": 0.0
		}
	}
}
