{
	 "smiles": "CC1CCC2=CC3=C(C=CC(C)=N3)C=C2N1", 
	 "Tm": 444.15, 
	 "num_atms": 32, 
	 "gaussian": { 
		 "optdone": 1, 
		 "sigma_profile": "yes", 
		 "theory": "DFT", 
		 "functional": "B3LYP", 
		 "basiset": "6-31G**", 
		 "properties": { 
			 "R2extent": 5453.0997, 
			 "electric_dipole_moment_norm": 3.22175271863, 
			 "electric_quadrupole_moment_norm": 8.91924930642, 
			 "total_energy": -652.670327068, 
			 "HOMO_LUMO_gap": 0.15013, 
			 "cosmo_polarized_energy": -10.45, 
			 "cosmo_cavitation_energy": 33.32, 
			 "cosmo_dispersion_energy": -24.71, 
			 "cosmo_repulsion_energy": 1.9, 
			 "cosmo_total_nonelectrostatic_energy": 10.51, 
			 "SMD_solvation_energy": 2.77 
		},
		"coords": [
			{
				"x": 1.805026015,
				"y": -2.3324245947,
				"z": 1.9787078579,
				"element": "C" 
			},
			{
				"x": 0.5695481606,
				"y": -2.188613229,
				"z": 1.0719624496,
				"element": "C" 
			},
			{
				"x": 0.9105818656,
				"y": -2.1908054006,
				"z": -0.4267535367,
				"element": "C" 
			},
			{
				"x": 1.6743017965,
				"y": -0.9222960283,
				"z": -0.8286454469,
				"element": "C" 
			},
			{
				"x": 1.0034362409,
				"y": 0.336219472,
				"z": -0.313733817,
				"element": "C" 
			},
			{
				"x": 1.2516463661,
				"y": 1.5630636869,
				"z": -0.8892923446,
				"element": "C" 
			},
			{
				"x": 0.6761454906,
				"y": 2.7618832995,
				"z": -0.3984659243,
				"element": "C" 
			},
			{
				"x": -0.1934954368,
				"y": 2.6769587499,
				"z": 0.7330226145,
				"element": "C" 
			},
			{
				"x": -0.7495057949,
				"y": 3.8977594829,
				"z": 1.2014623612,
				"element": "C" 
			},
			{
				"x": -0.4359811055,
				"y": 5.0719713928,
				"z": 0.5638783173,
				"element": "C" 
			},
			{
				"x": 0.4427409017,
				"y": 5.0553106387,
				"z": -0.5596450941,
				"element": "C" 
			},
			{
				"x": 0.7920799359,
				"y": 6.3425655968,
				"z": -1.2664736106,
				"element": "C" 
			},
			{
				"x": 0.9774019137,
				"y": 3.9386001382,
				"z": -1.021104832,
				"element": "N" 
			},
			{
				"x": -0.4554681074,
				"y": 1.4181682095,
				"z": 1.3155291646,
				"element": "C" 
			},
			{
				"x": 0.1159723563,
				"y": 0.2551688608,
				"z": 0.812326881,
				"element": "C" 
			},
			{
				"x": -0.2074192016,
				"y": -0.983424268,
				"z": 1.3553801149,
				"element": "N" 
			},
			{
				"x": 1.5077714087,
				"y": -2.356800055,
				"z": 3.0327922554,
				"element": "H" 
			},
			{
				"x": 2.4975206603,
				"y": -1.4951464606,
				"z": 1.8500451336,
				"element": "H" 
			},
			{
				"x": 2.343329397,
				"y": -3.2619827217,
				"z": 1.7615356862,
				"element": "H" 
			},
			{
				"x": -0.0930681277,
				"y": -3.0415804979,
				"z": 1.2685754437,
				"element": "H" 
			},
			{
				"x": -0.027101743,
				"y": -2.2491635472,
				"z": -0.9909406121,
				"element": "H" 
			},
			{
				"x": 1.4957829075,
				"y": -3.0837036572,
				"z": -0.6707632255,
				"element": "H" 
			},
			{
				"x": 1.7734291787,
				"y": -0.8706134415,
				"z": -1.9184435153,
				"element": "H" 
			},
			{
				"x": 2.7000918589,
				"y": -0.9728749315,
				"z": -0.4375813887,
				"element": "H" 
			},
			{
				"x": 1.9146947488,
				"y": 1.6439939476,
				"z": -1.7465631213,
				"element": "H" 
			},
			{
				"x": -1.418111748,
				"y": 3.8886056289,
				"z": 2.059266728,
				"element": "H" 
			},
			{
				"x": -0.8500408139,
				"y": 6.0169558049,
				"z": 0.9047748902,
				"element": "H" 
			},
			{
				"x": 1.471700968,
				"y": 6.1335333541,
				"z": -2.0941513272,
				"element": "H" 
			},
			{
				"x": -0.1042075437,
				"y": 6.8356695993,
				"z": -1.6619978238,
				"element": "H" 
			},
			{
				"x": 1.2745743161,
				"y": 7.0533242461,
				"z": -0.5846046717,
				"element": "H" 
			},
			{
				"x": -1.1294907193,
				"y": 1.3601374344,
				"z": 2.1683938335,
				"element": "H" 
			},
			{
				"x": -0.635286145,
				"y": -0.9475607101,
				"z": 2.2701065601,
				"element": "H" 
			}
		],
		 "valence_orbital": [ 
			{
				"type": "occ",
				"energy": -0.28725,
				"method": "rhf"
			},
			{
				"type": "occ",
				"energy": -0.26869,
				"method": "rhf"
			},
			{
				"type": "occ",
				"energy": -0.23556,
				"method": "rhf"
			},
			{
				"type": "occ",
				"energy": -0.22013,
				"method": "rhf"
			},
			{
				"type": "occ",
				"energy": -0.18379,
				"method": "rhf"
			},
			{
				"type": "unocc",
				"energy": -0.03366,
				"method": "rhf"
			},
			{
				"type": "unocc",
				"energy": 0.00731,
				"method": "rhf"
			},
			{
				"type": "unocc",
				"energy": 0.03667,
				"method": "rhf"
			},
			{
				"type": "unocc",
				"energy": 0.07216,
				"method": "rhf"
			},
			{
				"type": "unocc",
				"energy": 0.09407,
				"method": "rhf"
			}
		],
		"cosmo_sigma_profile": { 
			"-0.025": 0.0,
			"-0.024": 0.0,
			"-0.023": 0.0,
			"-0.022": 0.0,
			"-0.021": 0.0,
			"-0.02": 0.0,
			"-0.019": 0.0,
			"-0.018": 0.0,
			"-0.017": 0.0,
			"-0.016": 0.0,
			"-0.015": 0.0,
			"-0.014": 0.0,
			"-0.013": 0.106095650486,
			"-0.012": 0.906965494345,
			"-0.011": 1.63501423817,
			"-0.01": 1.28677403903,
			"-0.009": 1.19740398706,
			"-0.008": 1.39632317035,
			"-0.007": 1.85725973472,
			"-0.006": 5.93231333015,
			"-0.005": 9.15487046308,
			"-0.004": 20.9907258464,
			"-0.003": 32.321481137,
			"-0.002": 31.0916085652,
			"-0.001": 29.1309094801,
			"0.0": 25.5689504763,
			"0.001": 19.3090526622,
			"0.002": 10.9954670098,
			"0.003": 12.8106855419,
			"0.004": 18.1785997073,
			"0.005": 16.2302997852,
			"0.006": 6.95968106592,
			"0.007": 3.05158108983,
			"0.008": 2.20014582004,
			"0.009": 2.60882570421,
			"0.01": 1.81324516116,
			"0.011": 1.14852173732,
			"0.012": 0.650004826767,
			"0.013": 0.837128920082,
			"0.014": 1.17232486343,
			"0.015": 0.914530056904,
			"0.016": 0.716106210598,
			"0.017": 0.0786458398397,
			"0.018": 0.0,
			"0.019": 0.0,
			"0.02": 0.0,
			"0.021": 0.0,
			"0.022": 0.0,
			"0.023": 0.0,
			"0.024": 0.0,
			"0.025": 0.0
		}
	}
}
