{
	 "smiles": "O=C(C1CC1)N1CCC(=O)CC1", 
	 "Tm": 346.15, 
	 "num_atms": 25, 
	 "gaussian": { 
		 "optdone": 1, 
		 "sigma_profile": "yes", 
		 "theory": "DFT", 
		 "functional": "B3LYP", 
		 "basiset": "6-31G**", 
		 "properties": { 
			 "R2extent": 2661.6936, 
			 "electric_dipole_moment_norm": 3.28918641916, 
			 "electric_quadrupole_moment_norm": 11.8915991254, 
			 "total_energy": -555.962872282, 
			 "HOMO_LUMO_gap": 0.21867, 
			 "cosmo_polarized_energy": -14.76, 
			 "cosmo_cavitation_energy": 26.65, 
			 "cosmo_dispersion_energy": -19.4, 
			 "cosmo_repulsion_energy": 1.54, 
			 "cosmo_total_nonelectrostatic_energy": 8.79, 
			 "SMD_solvation_energy": 4.54 
		},
		"coords": [
			{
				"x": 2.969713806,
				"y": -0.973061713,
				"z": 1.9082301331,
				"element": "O" 
			},
			{
				"x": 1.9203683928,
				"y": -1.1953830843,
				"z": 1.3062466314,
				"element": "C" 
			},
			{
				"x": 1.1150155239,
				"y": -2.3871848403,
				"z": 1.7643539137,
				"element": "C" 
			},
			{
				"x": 0.3424220331,
				"y": -3.3632771407,
				"z": 0.8968521623,
				"element": "C" 
			},
			{
				"x": -0.3931954213,
				"y": -2.5190210858,
				"z": 1.8977560095,
				"element": "C" 
			},
			{
				"x": 1.5557031236,
				"y": -0.4011858721,
				"z": 0.230011485,
				"element": "N" 
			},
			{
				"x": 2.4194641118,
				"y": 0.7362847897,
				"z": -0.0931926639,
				"element": "C" 
			},
			{
				"x": 1.7820464162,
				"y": 2.063897011,
				"z": 0.3699660646,
				"element": "C" 
			},
			{
				"x": 0.355447279,
				"y": 2.2066399652,
				"z": -0.1388751711,
				"element": "C" 
			},
			{
				"x": -0.0725678861,
				"y": 3.2350378049,
				"z": -0.6256843462,
				"element": "O" 
			},
			{
				"x": -0.5067103754,
				"y": 0.9545441479,
				"z": -0.0002270109,
				"element": "C" 
			},
			{
				"x": 0.2595034035,
				"y": -0.3165083292,
				"z": -0.4339223782,
				"element": "C" 
			},
			{
				"x": 1.6739689416,
				"y": -2.8438277911,
				"z": 2.5736249035,
				"element": "H" 
			},
			{
				"x": 0.232995824,
				"y": -3.1469716595,
				"z": -0.160413005,
				"element": "H" 
			},
			{
				"x": 0.4784541616,
				"y": -4.4185757955,
				"z": 1.1118653391,
				"element": "H" 
			},
			{
				"x": -0.7527141563,
				"y": -2.9941636235,
				"z": 2.8052226198,
				"element": "H" 
			},
			{
				"x": -1.0342604699,
				"y": -1.7167979123,
				"z": 1.5503067575,
				"element": "H" 
			},
			{
				"x": 2.5712931022,
				"y": 0.7553852962,
				"z": -1.1802434122,
				"element": "H" 
			},
			{
				"x": 3.3799034568,
				"y": 0.578393385,
				"z": 0.3936042227,
				"element": "H" 
			},
			{
				"x": 1.7597093584,
				"y": 2.0671878691,
				"z": 1.4682652929,
				"element": "H" 
			},
			{
				"x": 2.363092304,
				"y": 2.9288367166,
				"z": 0.038866826,
				"element": "H" 
			},
			{
				"x": -1.4209075809,
				"y": 1.0917543371,
				"z": -0.5843809569,
				"element": "H" 
			},
			{
				"x": -0.7869514881,
				"y": 0.8528801925,
				"z": 1.0574634938,
				"element": "H" 
			},
			{
				"x": 0.4325608185,
				"y": -0.2797968908,
				"z": -1.5180669103,
				"element": "H" 
			},
			{
				"x": -0.3412546792,
				"y": -1.2008857772,
				"z": -0.2464300001,
				"element": "H" 
			}
		],
		 "valence_orbital": [ 
			{
				"type": "occ",
				"energy": -0.32653,
				"method": "rhf"
			},
			{
				"type": "occ",
				"energy": -0.30106,
				"method": "rhf"
			},
			{
				"type": "occ",
				"energy": -0.2527,
				"method": "rhf"
			},
			{
				"type": "occ",
				"energy": -0.24567,
				"method": "rhf"
			},
			{
				"type": "occ",
				"energy": -0.24255,
				"method": "rhf"
			},
			{
				"type": "unocc",
				"energy": -0.02388,
				"method": "rhf"
			},
			{
				"type": "unocc",
				"energy": 0.01477,
				"method": "rhf"
			},
			{
				"type": "unocc",
				"energy": 0.07682,
				"method": "rhf"
			},
			{
				"type": "unocc",
				"energy": 0.08153,
				"method": "rhf"
			},
			{
				"type": "unocc",
				"energy": 0.09685,
				"method": "rhf"
			}
		],
		"cosmo_sigma_profile": { 
			"-0.025": 0.0,
			"-0.024": 0.0,
			"-0.023": 0.0,
			"-0.022": 0.0,
			"-0.021": 0.0,
			"-0.02": 0.0,
			"-0.019": 0.0,
			"-0.018": 0.0,
			"-0.017": 0.0,
			"-0.016": 0.0,
			"-0.015": 0.0,
			"-0.014": 0.0,
			"-0.013": 0.0,
			"-0.012": 0.0,
			"-0.011": 0.0,
			"-0.01": 0.0,
			"-0.009": 0.000314514817556,
			"-0.008": 0.883345988012,
			"-0.007": 7.31199873254,
			"-0.006": 16.4919190003,
			"-0.005": 25.3417505785,
			"-0.004": 24.2618025001,
			"-0.003": 21.3196390756,
			"-0.002": 17.7866481725,
			"-0.001": 13.6987779068,
			"0.0": 8.82109890117,
			"0.001": 8.40424163026,
			"0.002": 11.1144253944,
			"0.003": 8.20811996958,
			"0.004": 4.48164580234,
			"0.005": 4.04140671277,
			"0.006": 2.66224796472,
			"0.007": 2.23446488868,
			"0.008": 4.1280003778,
			"0.009": 3.42999063592,
			"0.01": 2.58235894258,
			"0.011": 4.29857692861,
			"0.012": 6.79225756227,
			"0.013": 5.22491773257,
			"0.014": 4.43263465466,
			"0.015": 1.32794318906,
			"0.016": 0.0121801245075,
			"0.017": 0.0,
			"0.018": 0.0,
			"0.019": 0.0,
			"0.02": 0.0,
			"0.021": 0.0,
			"0.022": 0.0,
			"0.023": 0.0,
			"0.024": 0.0,
			"0.025": 0.0
		}
	}
}
