{
	 "smiles": "CC1=C(C)C=C2C(=C1)N=C(C=C2C(O)=O)C1=CC=CC=C1", 
	 "Tm": 525.15, 
	 "num_atms": 36, 
	 "gaussian": { 
		 "optdone": 1, 
		 "sigma_profile": "yes", 
		 "theory": "DFT", 
		 "functional": "B3LYP", 
		 "basiset": "6-31G**", 
		 "properties": { 
			 "R2extent": 8309.7054, 
			 "electric_dipole_moment_norm": 4.26358899168, 
			 "electric_quadrupole_moment_norm": 26.4100396726, 
			 "total_energy": -900.193255021, 
			 "HOMO_LUMO_gap": 0.14997, 
			 "cosmo_polarized_energy": -15.16, 
			 "cosmo_cavitation_energy": 39.72, 
			 "cosmo_dispersion_energy": -28.67, 
			 "cosmo_repulsion_energy": 2.15, 
			 "cosmo_total_nonelectrostatic_energy": 13.2, 
			 "SMD_solvation_energy": 6.4 
		},
		"coords": [
			{
				"x": -2.6235483553,
				"y": -2.621415573,
				"z": -0.9154633123,
				"element": "C" 
			},
			{
				"x": -1.4760699526,
				"y": -1.9900097831,
				"z": -0.1663561878,
				"element": "C" 
			},
			{
				"x": -0.8076584221,
				"y": -2.7087925516,
				"z": 0.8784668208,
				"element": "C" 
			},
			{
				"x": -1.2290345875,
				"y": -4.1156514585,
				"z": 1.2242388108,
				"element": "C" 
			},
			{
				"x": 0.2343093532,
				"y": -2.1091979266,
				"z": 1.5605944341,
				"element": "C" 
			},
			{
				"x": 0.6747062681,
				"y": -0.7906394267,
				"z": 1.262880127,
				"element": "C" 
			},
			{
				"x": 0.0326945945,
				"y": -0.092050729,
				"z": 0.1904767274,
				"element": "C" 
			},
			{
				"x": -1.0445536615,
				"y": -0.7210030756,
				"z": -0.4875676558,
				"element": "C" 
			},
			{
				"x": 0.4025539755,
				"y": 1.1480741091,
				"z": -0.2212211754,
				"element": "N" 
			},
			{
				"x": 1.4269199277,
				"y": 1.752344074,
				"z": 0.3669485537,
				"element": "C" 
			},
			{
				"x": 2.1334429409,
				"y": 1.1348763547,
				"z": 1.4373465052,
				"element": "C" 
			},
			{
				"x": 1.7482378722,
				"y": -0.1007417718,
				"z": 1.9094398493,
				"element": "C" 
			},
			{
				"x": 2.5115376543,
				"y": -0.6272921946,
				"z": 3.0965845363,
				"element": "C" 
			},
			{
				"x": 1.7904350788,
				"y": -1.3069052868,
				"z": 4.028077756,
				"element": "O" 
			},
			{
				"x": 3.69089532,
				"y": -0.4352090736,
				"z": 3.2654682043,
				"element": "O" 
			},
			{
				"x": 1.8070350312,
				"y": 3.097896215,
				"z": -0.1410145364,
				"element": "C" 
			},
			{
				"x": 1.3158002372,
				"y": 3.5307330652,
				"z": -1.384997264,
				"element": "C" 
			},
			{
				"x": 1.6581503756,
				"y": 4.7822857381,
				"z": -1.8885225065,
				"element": "C" 
			},
			{
				"x": 2.4943129806,
				"y": 5.6311792788,
				"z": -1.158356614,
				"element": "C" 
			},
			{
				"x": 2.9816978486,
				"y": 5.2169189411,
				"z": 0.0818224933,
				"element": "C" 
			},
			{
				"x": 2.6421361019,
				"y": 3.9621537493,
				"z": 0.5864439246,
				"element": "C" 
			},
			{
				"x": -2.3172171906,
				"y": -3.5469909563,
				"z": -1.4173661867,
				"element": "H" 
			},
			{
				"x": -3.0161807185,
				"y": -1.9418661152,
				"z": -1.6754079023,
				"element": "H" 
			},
			{
				"x": -3.4476403805,
				"y": -2.8860588704,
				"z": -0.2421501556,
				"element": "H" 
			},
			{
				"x": -2.2779037993,
				"y": -4.155866317,
				"z": 1.5419533989,
				"element": "H" 
			},
			{
				"x": -1.1365795323,
				"y": -4.7868103013,
				"z": 0.3620615441,
				"element": "H" 
			},
			{
				"x": -0.6178721737,
				"y": -4.5243687337,
				"z": 2.0326587979,
				"element": "H" 
			},
			{
				"x": 0.7548939224,
				"y": -2.6895683815,
				"z": 2.3164486947,
				"element": "H" 
			},
			{
				"x": -1.5150896809,
				"y": -0.1573987508,
				"z": -1.2874823093,
				"element": "H" 
			},
			{
				"x": 2.9844996481,
				"y": 1.6171333205,
				"z": 1.9015024134,
				"element": "H" 
			},
			{
				"x": 0.8492408578,
				"y": -1.281151372,
				"z": 3.8002138723,
				"element": "H" 
			},
			{
				"x": 0.6651924989,
				"y": 2.8657239968,
				"z": -1.9412040861,
				"element": "H" 
			},
			{
				"x": 1.2737691768,
				"y": 5.0967305145,
				"z": -2.8547421816,
				"element": "H" 
			},
			{
				"x": 2.7615217678,
				"y": 6.6077643892,
				"z": -1.5517399039,
				"element": "H" 
			},
			{
				"x": 3.6247307144,
				"y": 5.8722747778,
				"z": 0.6621027206,
				"element": "H" 
			},
			{
				"x": 3.0185343085,
				"y": 3.6719001249,
				"z": 1.5617617931,
				"element": "H" 
			}
		],
		 "valence_orbital": [ 
			{
				"type": "occ",
				"energy": -0.27203,
				"method": "rhf"
			},
			{
				"type": "occ",
				"energy": -0.2623,
				"method": "rhf"
			},
			{
				"type": "occ",
				"energy": -0.25223,
				"method": "rhf"
			},
			{
				"type": "occ",
				"energy": -0.24308,
				"method": "rhf"
			},
			{
				"type": "occ",
				"energy": -0.22691,
				"method": "rhf"
			},
			{
				"type": "unocc",
				"energy": -0.07694,
				"method": "rhf"
			},
			{
				"type": "unocc",
				"energy": -0.04027,
				"method": "rhf"
			},
			{
				"type": "unocc",
				"energy": -0.01197,
				"method": "rhf"
			},
			{
				"type": "unocc",
				"energy": -0.00126,
				"method": "rhf"
			},
			{
				"type": "unocc",
				"energy": 0.00457,
				"method": "rhf"
			}
		],
		"cosmo_sigma_profile": { 
			"-0.025": 0.0,
			"-0.024": 0.0,
			"-0.023": 0.0,
			"-0.022": 0.0,
			"-0.021": 0.0,
			"-0.02": 0.0,
			"-0.019": 0.0,
			"-0.018": 0.13582883388,
			"-0.017": 0.583953999056,
			"-0.016": 0.582750486812,
			"-0.015": 0.936761086844,
			"-0.014": 1.20262152597,
			"-0.013": 0.753205992071,
			"-0.012": 0.966340492258,
			"-0.011": 0.912180732511,
			"-0.01": 0.960439755792,
			"-0.009": 1.5897388244,
			"-0.008": 2.43652215018,
			"-0.007": 3.43019320968,
			"-0.006": 10.9202689493,
			"-0.005": 22.8259738903,
			"-0.004": 29.9424095112,
			"-0.003": 23.6940954074,
			"-0.002": 22.9477575183,
			"-0.001": 27.747527225,
			"0.0": 30.0088041149,
			"0.001": 23.7099527132,
			"0.002": 22.1682735412,
			"0.003": 23.0437603027,
			"0.004": 16.0859144601,
			"0.005": 15.1990127388,
			"0.006": 5.4340319327,
			"0.007": 4.66270887199,
			"0.008": 4.07257623179,
			"0.009": 5.64399012622,
			"0.01": 5.66970891445,
			"0.011": 5.60565973255,
			"0.012": 3.52277170119,
			"0.013": 0.387429888145,
			"0.014": 0.0,
			"0.015": 0.0,
			"0.016": 0.0,
			"0.017": 0.0,
			"0.018": 0.0,
			"0.019": 0.0,
			"0.02": 0.0,
			"0.021": 0.0,
			"0.022": 0.0,
			"0.023": 0.0,
			"0.024": 0.0,
			"0.025": 0.0
		}
	}
}
