{
	 "smiles": "ClC1=C(Cl)C2(Cl)C3C(C(=O)OC3=O)C1(Cl)C2(Cl)Cl", 
	 "Tm": 508.15, 
	 "num_atms": 20, 
	 "gaussian": { 
		 "optdone": 1, 
		 "sigma_profile": "yes", 
		 "theory": "DFT", 
		 "functional": "B3LYP", 
		 "basiset": "6-31G**", 
		 "properties": { 
			 "R2extent": 6655.9141, 
			 "electric_dipole_moment_norm": 3.84826411126, 
			 "electric_quadrupole_moment_norm": 11.0322471632, 
			 "total_energy": -3330.9244802, 
			 "HOMO_LUMO_gap": 0.21456, 
			 "cosmo_polarized_energy": -14.2, 
			 "cosmo_cavitation_energy": 33.41, 
			 "cosmo_dispersion_energy": -23.79, 
			 "cosmo_repulsion_energy": 1.79, 
			 "cosmo_total_nonelectrostatic_energy": 11.41, 
			 "SMD_solvation_energy": 5.46 
		},
		"coords": [
			{
				"x": -1.8329230748,
				"y": -1.2917707529,
				"z": -3.6700285439,
				"element": "Cl" 
			},
			{
				"x": -1.3089166022,
				"y": -0.5079742616,
				"z": -2.2434640957,
				"element": "C" 
			},
			{
				"x": -1.0091031365,
				"y": -1.0575420127,
				"z": -1.0567157304,
				"element": "C" 
			},
			{
				"x": -1.0603004404,
				"y": -2.7079061976,
				"z": -0.6120802099,
				"element": "Cl" 
			},
			{
				"x": -0.450812971,
				"y": 0.0551268354,
				"z": -0.1556826593,
				"element": "C" 
			},
			{
				"x": -0.4678771085,
				"y": -0.2617208415,
				"z": 1.5805149096,
				"element": "Cl" 
			},
			{
				"x": 0.959196327,
				"y": 0.3650574675,
				"z": -0.7805354134,
				"element": "C" 
			},
			{
				"x": 0.6141564099,
				"y": 0.9975823996,
				"z": -2.146535209,
				"element": "C" 
			},
			{
				"x": 1.3616127983,
				"y": 2.3334792288,
				"z": -2.1471444367,
				"element": "C" 
			},
			{
				"x": 1.4001444119,
				"y": 3.1628168039,
				"z": -3.0046360934,
				"element": "O" 
			},
			{
				"x": 2.1220825076,
				"y": 2.4329694137,
				"z": -0.9897020153,
				"element": "O" 
			},
			{
				"x": 1.8766815568,
				"y": 1.3891196144,
				"z": -0.1076444526,
				"element": "C" 
			},
			{
				"x": 2.401885222,
				"y": 1.3260249772,
				"z": 0.9622892502,
				"element": "O" 
			},
			{
				"x": -0.9587843751,
				"y": 0.9863543895,
				"z": -2.1666583992,
				"element": "C" 
			},
			{
				"x": -1.7182619259,
				"y": 2.0307297801,
				"z": -3.3697859026,
				"element": "Cl" 
			},
			{
				"x": -1.3371932198,
				"y": 1.2456427915,
				"z": -0.6657358573,
				"element": "C" 
			},
			{
				"x": -3.0806669286,
				"y": 1.0421284124,
				"z": -0.3196094178,
				"element": "Cl" 
			},
			{
				"x": -0.8473792956,
				"y": 2.8489274891,
				"z": -0.0471082536,
				"element": "Cl" 
			},
			{
				"x": 1.5205192043,
				"y": -0.5702906073,
				"z": -0.8421204193,
				"element": "H" 
			},
			{
				"x": 0.9725406406,
				"y": 0.4341450704,
				"z": -3.0113170505,
				"element": "H" 
			}
		],
		 "valence_orbital": [ 
			{
				"type": "occ",
				"energy": -0.33244,
				"method": "rhf"
			},
			{
				"type": "occ",
				"energy": -0.32925,
				"method": "rhf"
			},
			{
				"type": "occ",
				"energy": -0.32624,
				"method": "rhf"
			},
			{
				"type": "occ",
				"energy": -0.29876,
				"method": "rhf"
			},
			{
				"type": "occ",
				"energy": -0.28172,
				"method": "rhf"
			},
			{
				"type": "unocc",
				"energy": -0.06716,
				"method": "rhf"
			},
			{
				"type": "unocc",
				"energy": -0.05941,
				"method": "rhf"
			},
			{
				"type": "unocc",
				"energy": -0.04851,
				"method": "rhf"
			},
			{
				"type": "unocc",
				"energy": -0.03811,
				"method": "rhf"
			},
			{
				"type": "unocc",
				"energy": -0.02658,
				"method": "rhf"
			}
		],
		"cosmo_sigma_profile": { 
			"-0.025": 0.0,
			"-0.024": 0.0,
			"-0.023": 0.0,
			"-0.022": 0.0,
			"-0.021": 0.0,
			"-0.02": 0.0,
			"-0.019": 0.0,
			"-0.018": 0.0,
			"-0.017": 0.0,
			"-0.016": 0.00182357209838,
			"-0.015": 0.310917975641,
			"-0.014": 0.941229002601,
			"-0.013": 1.69856287084,
			"-0.012": 6.58163320549,
			"-0.011": 6.98849191244,
			"-0.01": 4.30469578042,
			"-0.009": 2.33741626952,
			"-0.008": 1.99607846343,
			"-0.007": 2.47344833454,
			"-0.006": 2.79773777949,
			"-0.005": 7.13167611298,
			"-0.004": 11.0528247526,
			"-0.003": 13.6593785731,
			"-0.002": 18.453395881,
			"-0.001": 24.4379214602,
			"0.0": 26.6416299535,
			"0.001": 38.8166200254,
			"0.002": 45.3046143448,
			"0.003": 20.053071464,
			"0.004": 5.36833050223,
			"0.005": 7.77691893162,
			"0.006": 6.26353221673,
			"0.007": 5.53938380818,
			"0.008": 7.91055862496,
			"0.009": 9.95293764511,
			"0.01": 1.87725305596,
			"0.011": 0.0,
			"0.012": 0.0,
			"0.013": 0.0,
			"0.014": 0.0,
			"0.015": 0.0,
			"0.016": 0.0,
			"0.017": 0.0,
			"0.018": 0.0,
			"0.019": 0.0,
			"0.02": 0.0,
			"0.021": 0.0,
			"0.022": 0.0,
			"0.023": 0.0,
			"0.024": 0.0,
			"0.025": 0.0
		}
	}
}
