{
	 "smiles": "CCCCCCCF", 
	 "Tm": 200.15, 
	 "num_atms": 23, 
	 "gaussian": { 
		 "optdone": 1, 
		 "sigma_profile": "yes", 
		 "theory": "DFT", 
		 "functional": "B3LYP", 
		 "basiset": "6-31G**", 
		 "properties": { 
			 "R2extent": 1522.5216, 
			 "electric_dipole_moment_norm": 1.59583609121, 
			 "electric_quadrupole_moment_norm": 4.38988157471, 
			 "total_energy": -375.637634005, 
			 "HOMO_LUMO_gap": 0.38524, 
			 "cosmo_polarized_energy": -2.65, 
			 "cosmo_cavitation_energy": 24.05, 
			 "cosmo_dispersion_energy": -17.38, 
			 "cosmo_repulsion_energy": 1.46, 
			 "cosmo_total_nonelectrostatic_energy": 8.13, 
			 "SMD_solvation_energy": 4.07 
		},
		"coords": [
			{
				"x": 1.8848734028,
				"y": 2.1107617235,
				"z": 2.1790603184,
				"element": "C" 
			},
			{
				"x": 1.9451543788,
				"y": 0.7128782112,
				"z": 1.5512361174,
				"element": "C" 
			},
			{
				"x": 1.1139617393,
				"y": 0.5496469716,
				"z": 0.2668389676,
				"element": "C" 
			},
			{
				"x": -0.4040964796,
				"y": 0.6175772186,
				"z": 0.4856802186,
				"element": "C" 
			},
			{
				"x": -1.2377051506,
				"y": 0.5879509009,
				"z": -0.8092004012,
				"element": "C" 
			},
			{
				"x": -1.0566503212,
				"y": -0.6408339604,
				"z": -1.7180603183,
				"element": "C" 
			},
			{
				"x": -1.4161220007,
				"y": -1.975254966,
				"z": -1.0859277074,
				"element": "C" 
			},
			{
				"x": -0.4943138363,
				"y": -2.3210130142,
				"z": -0.0921761523,
				"element": "F" 
			},
			{
				"x": 0.8712839065,
				"y": 2.3751496301,
				"z": 2.497706442,
				"element": "H" 
			},
			{
				"x": 2.2178346029,
				"y": 2.8763771907,
				"z": 1.4681886104,
				"element": "H" 
			},
			{
				"x": 2.530808698,
				"y": 2.1748135601,
				"z": 3.0611605208,
				"element": "H" 
			},
			{
				"x": 2.9917589496,
				"y": 0.4732866066,
				"z": 1.3233637361,
				"element": "H" 
			},
			{
				"x": 1.6184928991,
				"y": -0.0344507018,
				"z": 2.2872243234,
				"element": "H" 
			},
			{
				"x": 1.3582291032,
				"y": -0.4197615507,
				"z": -0.1814237348,
				"element": "H" 
			},
			{
				"x": 1.4178422211,
				"y": 1.3189447883,
				"z": -0.4592180203,
				"element": "H" 
			},
			{
				"x": -0.7013986901,
				"y": -0.2139187098,
				"z": 1.1346449667,
				"element": "H" 
			},
			{
				"x": -0.6613229115,
				"y": 1.5398878642,
				"z": 1.0215162393,
				"element": "H" 
			},
			{
				"x": -2.3011718579,
				"y": 0.6700630243,
				"z": -0.5442292133,
				"element": "H" 
			},
			{
				"x": -1.0057527111,
				"y": 1.4835293765,
				"z": -1.4013569709,
				"element": "H" 
			},
			{
				"x": -0.0268309598,
				"y": -0.7029054839,
				"z": -2.0892856746,
				"element": "H" 
			},
			{
				"x": -1.6936779493,
				"y": -0.5200955698,
				"z": -2.6050111612,
				"element": "H" 
			},
			{
				"x": -2.411257313,
				"y": -1.941682959,
				"z": -0.6224936753,
				"element": "H" 
			},
			{
				"x": -1.4080397201,
				"y": -2.777450151,
				"z": -1.834337431,
				"element": "H" 
			}
		],
		 "valence_orbital": [ 
			{
				"type": "occ",
				"energy": -0.32705,
				"method": "rhf"
			},
			{
				"type": "occ",
				"energy": -0.31835,
				"method": "rhf"
			},
			{
				"type": "occ",
				"energy": -0.30628,
				"method": "rhf"
			},
			{
				"type": "occ",
				"energy": -0.30443,
				"method": "rhf"
			},
			{
				"type": "occ",
				"energy": -0.29922,
				"method": "rhf"
			},
			{
				"type": "unocc",
				"energy": 0.08602,
				"method": "rhf"
			},
			{
				"type": "unocc",
				"energy": 0.10705,
				"method": "rhf"
			},
			{
				"type": "unocc",
				"energy": 0.11886,
				"method": "rhf"
			},
			{
				"type": "unocc",
				"energy": 0.12244,
				"method": "rhf"
			},
			{
				"type": "unocc",
				"energy": 0.13206,
				"method": "rhf"
			}
		],
		"cosmo_sigma_profile": { 
			"-0.025": 0.0,
			"-0.024": 0.0,
			"-0.023": 0.0,
			"-0.022": 0.0,
			"-0.021": 0.0,
			"-0.02": 0.0,
			"-0.019": 0.0,
			"-0.018": 0.0,
			"-0.017": 0.0,
			"-0.016": 0.0,
			"-0.015": 0.0,
			"-0.014": 0.0,
			"-0.013": 0.0,
			"-0.012": 0.0,
			"-0.011": 0.0,
			"-0.01": 0.0,
			"-0.009": 0.0,
			"-0.008": 0.0,
			"-0.007": 0.0,
			"-0.006": 0.0190373930131,
			"-0.005": 3.7023677417,
			"-0.004": 10.0682429455,
			"-0.003": 13.0106435019,
			"-0.002": 24.3001475937,
			"-0.001": 29.2559333369,
			"0.0": 36.9916402697,
			"0.001": 31.0150971421,
			"0.002": 16.2941262753,
			"0.003": 3.43836584711,
			"0.004": 2.32009608895,
			"0.005": 2.90397640032,
			"0.006": 4.07232530479,
			"0.007": 6.33810595473,
			"0.008": 1.18333689935,
			"0.009": 0.0,
			"0.01": 0.0,
			"0.011": 0.0,
			"0.012": 0.0,
			"0.013": 0.0,
			"0.014": 0.0,
			"0.015": 0.0,
			"0.016": 0.0,
			"0.017": 0.0,
			"0.018": 0.0,
			"0.019": 0.0,
			"0.02": 0.0,
			"0.021": 0.0,
			"0.022": 0.0,
			"0.023": 0.0,
			"0.024": 0.0,
			"0.025": 0.0
		}
	}
}
