{
	 "smiles": "CC1(NC(=O)N(CC(O)=O)C1=O)C1=CC=CC=C1", 
	 "Tm": 444.15, 
	 "num_atms": 30, 
	 "gaussian": { 
		 "optdone": 1, 
		 "sigma_profile": "yes", 
		 "theory": "DFT", 
		 "functional": "B3LYP", 
		 "basiset": "6-31G**", 
		 "properties": { 
			 "R2extent": 5193.8729, 
			 "electric_dipole_moment_norm": 7.25437407569, 
			 "electric_quadrupole_moment_norm": 22.5021067409, 
			 "total_energy": -874.964146688, 
			 "HOMO_LUMO_gap": 0.22026, 
			 "cosmo_polarized_energy": -21.16, 
			 "cosmo_cavitation_energy": 34.06, 
			 "cosmo_dispersion_energy": -23.96, 
			 "cosmo_repulsion_energy": 1.84, 
			 "cosmo_total_nonelectrostatic_energy": 11.94, 
			 "SMD_solvation_energy": 8.31 
		},
		"coords": [
			{
				"x": -0.9892815366,
				"y": -2.5216176552,
				"z": 0.9140665199,
				"element": "C" 
			},
			{
				"x": -0.4685945548,
				"y": -1.0927872479,
				"z": 0.6532004449,
				"element": "C" 
			},
			{
				"x": -1.3246735227,
				"y": -0.0953158263,
				"z": 1.2990282772,
				"element": "N" 
			},
			{
				"x": -2.0271088142,
				"y": 0.6642146856,
				"z": 0.4170466723,
				"element": "C" 
			},
			{
				"x": -2.8861859968,
				"y": 1.5067443049,
				"z": 0.6659845655,
				"element": "O" 
			},
			{
				"x": -1.607941511,
				"y": 0.3086805583,
				"z": -0.869954854,
				"element": "N" 
			},
			{
				"x": -2.0160965386,
				"y": 1.0036915493,
				"z": -2.0887639223,
				"element": "C" 
			},
			{
				"x": -3.4954060909,
				"y": 0.8199043763,
				"z": -2.4859546483,
				"element": "C" 
			},
			{
				"x": -4.4035353769,
				"y": 1.1023729202,
				"z": -1.5434428511,
				"element": "O" 
			},
			{
				"x": -3.804570724,
				"y": 0.4840271604,
				"z": -3.6033127737,
				"element": "O" 
			},
			{
				"x": -0.6872794536,
				"y": -0.7318416375,
				"z": -0.8389941993,
				"element": "C" 
			},
			{
				"x": -0.1670431223,
				"y": -1.2540009615,
				"z": -1.7992104989,
				"element": "O" 
			},
			{
				"x": 1.0099986405,
				"y": -0.9484337199,
				"z": 1.0335764768,
				"element": "C" 
			},
			{
				"x": 1.4260839209,
				"y": -0.0380160672,
				"z": 2.0109273352,
				"element": "C" 
			},
			{
				"x": 2.7739219314,
				"y": 0.055220965,
				"z": 2.3652152405,
				"element": "C" 
			},
			{
				"x": 3.7220875541,
				"y": -0.7532929507,
				"z": 1.7400540404,
				"element": "C" 
			},
			{
				"x": 3.3152237201,
				"y": -1.6535176072,
				"z": 0.7529002094,
				"element": "C" 
			},
			{
				"x": 1.9699030803,
				"y": -1.7537422941,
				"z": 0.4020697255,
				"element": "C" 
			},
			{
				"x": -0.4222707657,
				"y": -3.2432341552,
				"z": 0.323457805,
				"element": "H" 
			},
			{
				"x": -0.8721035063,
				"y": -2.7735641016,
				"z": 1.9722499497,
				"element": "H" 
			},
			{
				"x": -2.0459289973,
				"y": -2.6032833673,
				"z": 0.6422565724,
				"element": "H" 
			},
			{
				"x": -1.639020772,
				"y": -0.1617911423,
				"z": 2.2557758348,
				"element": "H" 
			},
			{
				"x": -1.8131975233,
				"y": 2.0744194365,
				"z": -1.9685279281,
				"element": "H" 
			},
			{
				"x": -1.4029778706,
				"y": 0.6076603514,
				"z": -2.8970641537,
				"element": "H" 
			},
			{
				"x": -3.9728796955,
				"y": 1.3995175357,
				"z": -0.7069836623,
				"element": "H" 
			},
			{
				"x": 0.7010931544,
				"y": 0.6099500026,
				"z": 2.4915061112,
				"element": "H" 
			},
			{
				"x": 3.0789984927,
				"y": 0.7655969538,
				"z": 3.1280922989,
				"element": "H" 
			},
			{
				"x": 4.7703116746,
				"y": -0.6794122709,
				"z": 2.0141568012,
				"element": "H" 
			},
			{
				"x": 4.0470716655,
				"y": -2.2788726461,
				"z": 0.250092755,
				"element": "H" 
			},
			{
				"x": 1.6688025386,
				"y": -2.435477149,
				"z": -0.3855481439,
				"element": "H" 
			}
		],
		 "valence_orbital": [ 
			{
				"type": "occ",
				"energy": -0.29838,
				"method": "rhf"
			},
			{
				"type": "occ",
				"energy": -0.29018,
				"method": "rhf"
			},
			{
				"type": "occ",
				"energy": -0.26577,
				"method": "rhf"
			},
			{
				"type": "occ",
				"energy": -0.26262,
				"method": "rhf"
			},
			{
				"type": "occ",
				"energy": -0.25944,
				"method": "rhf"
			},
			{
				"type": "unocc",
				"energy": -0.03918,
				"method": "rhf"
			},
			{
				"type": "unocc",
				"energy": -0.01753,
				"method": "rhf"
			},
			{
				"type": "unocc",
				"energy": -0.01518,
				"method": "rhf"
			},
			{
				"type": "unocc",
				"energy": 0.00672,
				"method": "rhf"
			},
			{
				"type": "unocc",
				"energy": 0.02955,
				"method": "rhf"
			}
		],
		"cosmo_sigma_profile": { 
			"-0.025": 0.0,
			"-0.024": 0.0,
			"-0.023": 0.0,
			"-0.022": 0.0,
			"-0.021": 0.0,
			"-0.02": 0.0,
			"-0.019": 0.0,
			"-0.018": 0.0,
			"-0.017": 0.155452991995,
			"-0.016": 0.956353666355,
			"-0.015": 1.05307022041,
			"-0.014": 1.49454045749,
			"-0.013": 0.915711001185,
			"-0.012": 0.799112423764,
			"-0.011": 1.7563671269,
			"-0.01": 2.91634190882,
			"-0.009": 4.12009453501,
			"-0.008": 5.72302583842,
			"-0.007": 8.49113926052,
			"-0.006": 18.1119586124,
			"-0.005": 24.3293751019,
			"-0.004": 21.2806054131,
			"-0.003": 19.1958425772,
			"-0.002": 17.4282735496,
			"-0.001": 17.0162152479,
			"0.0": 12.0698740883,
			"0.001": 10.7014247842,
			"0.002": 11.5289717917,
			"0.003": 11.0409895388,
			"0.004": 12.5424993278,
			"0.005": 14.0967264722,
			"0.006": 7.83850564125,
			"0.007": 4.70075718435,
			"0.008": 5.58091484902,
			"0.009": 6.46087047652,
			"0.01": 9.54303282022,
			"0.011": 11.7247036313,
			"0.012": 6.22116845822,
			"0.013": 1.50814113031,
			"0.014": 0.0,
			"0.015": 0.0,
			"0.016": 0.0,
			"0.017": 0.0,
			"0.018": 0.0,
			"0.019": 0.0,
			"0.02": 0.0,
			"0.021": 0.0,
			"0.022": 0.0,
			"0.023": 0.0,
			"0.024": 0.0,
			"0.025": 0.0
		}
	}
}
