{
	 "smiles": "CC1=NN(CCCCl)C(C)=C1", 
	 "Tm": 476.15, 
	 "num_atms": 24, 
	 "gaussian": { 
		 "optdone": 1, 
		 "sigma_profile": "yes", 
		 "theory": "DFT", 
		 "functional": "B3LYP", 
		 "basiset": "6-31G**", 
		 "properties": { 
			 "R2extent": 3704.9837, 
			 "electric_dipole_moment_norm": 3.53619828205, 
			 "electric_quadrupole_moment_norm": 10.0994347005, 
			 "total_energy": -882.384339829, 
			 "HOMO_LUMO_gap": 0.24735, 
			 "cosmo_polarized_energy": -9.98, 
			 "cosmo_cavitation_energy": 28.67, 
			 "cosmo_dispersion_energy": -20.27, 
			 "cosmo_repulsion_energy": 1.68, 
			 "cosmo_total_nonelectrostatic_energy": 10.09, 
			 "SMD_solvation_energy": 3.81 
		},
		"coords": [
			{
				"x": -4.3211853569,
				"y": -0.4611858646,
				"z": -2.5362007835,
				"element": "C" 
			},
			{
				"x": -3.0542126415,
				"y": -0.0421437002,
				"z": -1.8493034878,
				"element": "C" 
			},
			{
				"x": -2.1705655314,
				"y": -0.949940323,
				"z": -1.4307288582,
				"element": "N" 
			},
			{
				"x": -1.1675957435,
				"y": -0.2336647631,
				"z": -0.8608640861,
				"element": "N" 
			},
			{
				"x": -0.0146321487,
				"y": -0.9498329224,
				"z": -0.3310647697,
				"element": "C" 
			},
			{
				"x": -0.4028003948,
				"y": -2.0324867973,
				"z": 0.686502709,
				"element": "C" 
			},
			{
				"x": -1.1005825401,
				"y": -1.4528096152,
				"z": 1.9098302791,
				"element": "C" 
			},
			{
				"x": -1.4860721525,
				"y": -2.7470664031,
				"z": 3.1263516191,
				"element": "Cl" 
			},
			{
				"x": -1.38946737,
				"y": 1.1142976205,
				"z": -0.9155932277,
				"element": "C" 
			},
			{
				"x": -0.4430278355,
				"y": 2.140848896,
				"z": -0.3750017147,
				"element": "C" 
			},
			{
				"x": -2.6106639363,
				"y": 1.267396594,
				"z": -1.550958838,
				"element": "C" 
			},
			{
				"x": -4.9205952343,
				"y": 0.411785722,
				"z": -2.8071170996,
				"element": "H" 
			},
			{
				"x": -4.9287911488,
				"y": -1.1043260173,
				"z": -1.8910358708,
				"element": "H" 
			},
			{
				"x": -4.1087919105,
				"y": -1.0251281268,
				"z": -3.4504835134,
				"element": "H" 
			},
			{
				"x": 0.5263322689,
				"y": -1.4182447779,
				"z": -1.1613371165,
				"element": "H" 
			},
			{
				"x": 0.6528659339,
				"y": -0.211610822,
				"z": 0.1221192241,
				"element": "H" 
			},
			{
				"x": 0.507261409,
				"y": -2.5594647565,
				"z": 0.9928740681,
				"element": "H" 
			},
			{
				"x": -1.0606598261,
				"y": -2.755548386,
				"z": 0.198179321,
				"element": "H" 
			},
			{
				"x": -2.0504308365,
				"y": -0.9880017485,
				"z": 1.6446550428,
				"element": "H" 
			},
			{
				"x": -0.4757438469,
				"y": -0.7241781999,
				"z": 2.4316690815,
				"element": "H" 
			},
			{
				"x": 0.5358203054,
				"y": 2.1039663074,
				"z": -0.8677133422,
				"element": "H" 
			},
			{
				"x": -0.8567274661,
				"y": 3.1382059115,
				"z": -0.5389929811,
				"element": "H" 
			},
			{
				"x": -0.2744273855,
				"y": 2.0279235859,
				"z": 0.7026192054,
				"element": "H" 
			},
			{
				"x": -3.1114066114,
				"y": 2.2007085865,
				"z": -1.7660048607,
				"element": "H" 
			}
		],
		 "valence_orbital": [ 
			{
				"type": "occ",
				"energy": -0.29262,
				"method": "rhf"
			},
			{
				"type": "occ",
				"energy": -0.29116,
				"method": "rhf"
			},
			{
				"type": "occ",
				"energy": -0.27673,
				"method": "rhf"
			},
			{
				"type": "occ",
				"energy": -0.23435,
				"method": "rhf"
			},
			{
				"type": "occ",
				"energy": -0.23111,
				"method": "rhf"
			},
			{
				"type": "unocc",
				"energy": 0.01624,
				"method": "rhf"
			},
			{
				"type": "unocc",
				"energy": 0.02511,
				"method": "rhf"
			},
			{
				"type": "unocc",
				"energy": 0.07718,
				"method": "rhf"
			},
			{
				"type": "unocc",
				"energy": 0.08105,
				"method": "rhf"
			},
			{
				"type": "unocc",
				"energy": 0.11029,
				"method": "rhf"
			}
		],
		"cosmo_sigma_profile": { 
			"-0.025": 0.0,
			"-0.024": 0.0,
			"-0.023": 0.0,
			"-0.022": 0.0,
			"-0.021": 0.0,
			"-0.02": 0.0,
			"-0.019": 0.0,
			"-0.018": 0.0,
			"-0.017": 0.0,
			"-0.016": 0.0,
			"-0.015": 0.0,
			"-0.014": 0.0,
			"-0.013": 0.0,
			"-0.012": 0.0,
			"-0.011": 0.0,
			"-0.01": 0.0,
			"-0.009": 0.0,
			"-0.008": 0.0570288495962,
			"-0.007": 4.12497116169,
			"-0.006": 9.94479010091,
			"-0.005": 19.6239598317,
			"-0.004": 24.9023140878,
			"-0.003": 23.4842674526,
			"-0.002": 19.5270807425,
			"-0.001": 20.664924546,
			"0.0": 19.2670308513,
			"0.001": 13.3051852443,
			"0.002": 9.13139709529,
			"0.003": 8.84180855087,
			"0.004": 9.64814974837,
			"0.005": 10.5147552719,
			"0.006": 14.3703882401,
			"0.007": 10.7985823805,
			"0.008": 1.84202532879,
			"0.009": 0.98500447642,
			"0.01": 1.47047826726,
			"0.011": 0.926773996897,
			"0.012": 0.737382319637,
			"0.013": 1.19207764716,
			"0.014": 0.805519529777,
			"0.015": 0.671268265614,
			"0.016": 0.575704434949,
			"0.017": 0.0203603999748,
			"0.018": 0.0,
			"0.019": 0.0,
			"0.02": 0.0,
			"0.021": 0.0,
			"0.022": 0.0,
			"0.023": 0.0,
			"0.024": 0.0,
			"0.025": 0.0
		}
	}
}
