{
	 "smiles": "NC1=NN=C(N1)C(F)(F)F", 
	 "Tm": 429.15, 
	 "num_atms": 13, 
	 "gaussian": { 
		 "optdone": 1, 
		 "sigma_profile": "yes", 
		 "theory": "DFT", 
		 "functional": "B3LYP", 
		 "basiset": "6-31G**", 
		 "properties": { 
			 "R2extent": 2189.4146, 
			 "electric_dipole_moment_norm": 5.64588611823, 
			 "electric_quadrupole_moment_norm": 14.6564806495, 
			 "total_energy": -634.628469585, 
			 "HOMO_LUMO_gap": 0.23619, 
			 "cosmo_polarized_energy": -20.05, 
			 "cosmo_cavitation_energy": 19.65, 
			 "cosmo_dispersion_energy": -14.28, 
			 "cosmo_repulsion_energy": 1.13, 
			 "cosmo_total_nonelectrostatic_energy": 6.49, 
			 "SMD_solvation_energy": 2.54 
		},
		"coords": [
			{
				"x": -0.280492937,
				"y": -2.0322561748,
				"z": 2.5925636828,
				"element": "N" 
			},
			{
				"x": -0.1771711121,
				"y": -0.7692341687,
				"z": 2.0393500332,
				"element": "C" 
			},
			{
				"x": 0.9396618618,
				"y": -0.101595878,
				"z": 1.8288615788,
				"element": "N" 
			},
			{
				"x": 0.6040980957,
				"y": 1.0626057252,
				"z": 1.1654763598,
				"element": "N" 
			},
			{
				"x": -0.6906548038,
				"y": 1.0623823235,
				"z": 1.0080164382,
				"element": "C" 
			},
			{
				"x": -1.2498046058,
				"y": -0.0732589012,
				"z": 1.5514003011,
				"element": "N" 
			},
			{
				"x": -1.5227918796,
				"y": 2.1589703611,
				"z": 0.4273704744,
				"element": "C" 
			},
			{
				"x": -2.6547066445,
				"y": 1.6296693021,
				"z": -0.1098673492,
				"element": "F" 
			},
			{
				"x": -1.9183967474,
				"y": 3.0468435391,
				"z": 1.3643600154,
				"element": "F" 
			},
			{
				"x": -0.8693188183,
				"y": 2.8280109537,
				"z": -0.5252349143,
				"element": "F" 
			},
			{
				"x": 0.6290671971,
				"y": -2.3570733465,
				"z": 2.8995575181,
				"element": "H" 
			},
			{
				"x": -0.9659944637,
				"y": -2.1160781218,
				"z": 3.3345374289,
				"element": "H" 
			},
			{
				"x": -2.2038951423,
				"y": -0.3870856137,
				"z": 1.4532084326,
				"element": "H" 
			}
		],
		 "valence_orbital": [ 
			{
				"type": "occ",
				"energy": -0.35105,
				"method": "rhf"
			},
			{
				"type": "occ",
				"energy": -0.32209,
				"method": "rhf"
			},
			{
				"type": "occ",
				"energy": -0.31786,
				"method": "rhf"
			},
			{
				"type": "occ",
				"energy": -0.2678,
				"method": "rhf"
			},
			{
				"type": "occ",
				"energy": -0.24434,
				"method": "rhf"
			},
			{
				"type": "unocc",
				"energy": -0.00815,
				"method": "rhf"
			},
			{
				"type": "unocc",
				"energy": 0.03797,
				"method": "rhf"
			},
			{
				"type": "unocc",
				"energy": 0.04964,
				"method": "rhf"
			},
			{
				"type": "unocc",
				"energy": 0.0788,
				"method": "rhf"
			},
			{
				"type": "unocc",
				"energy": 0.1109,
				"method": "rhf"
			}
		],
		"cosmo_sigma_profile": { 
			"-0.025": 0.0,
			"-0.024": 0.0,
			"-0.023": 0.0,
			"-0.022": 0.0,
			"-0.021": 0.0,
			"-0.02": 0.0,
			"-0.019": 0.108509549209,
			"-0.018": 1.20628555392,
			"-0.017": 1.29415320819,
			"-0.016": 1.03430674445,
			"-0.015": 2.24739671915,
			"-0.014": 4.37334742382,
			"-0.013": 3.74007940705,
			"-0.012": 3.62159388571,
			"-0.011": 3.81743227661,
			"-0.01": 3.02058417921,
			"-0.009": 2.08065342563,
			"-0.008": 2.49194505311,
			"-0.007": 2.26173325832,
			"-0.006": 2.87615325244,
			"-0.005": 2.54603300989,
			"-0.004": 4.63907531223,
			"-0.003": 4.79064573022,
			"-0.002": 7.09393292507,
			"-0.001": 6.86078953787,
			"0.0": 8.16869468211,
			"0.001": 13.9162352958,
			"0.002": 29.7692192569,
			"0.003": 9.72515322882,
			"0.004": 3.19583601722,
			"0.005": 2.77728800061,
			"0.006": 2.24346486561,
			"0.007": 2.40200322487,
			"0.008": 3.02020350619,
			"0.009": 2.521052801,
			"0.01": 2.54102999613,
			"0.011": 2.6703312396,
			"0.012": 3.8863547967,
			"0.013": 3.5330608149,
			"0.014": 3.00939035227,
			"0.015": 2.15952836139,
			"0.016": 1.41683459537,
			"0.017": 0.21772674151,
			"0.018": 0.0,
			"0.019": 0.0,
			"0.02": 0.0,
			"0.021": 0.0,
			"0.022": 0.0,
			"0.023": 0.0,
			"0.024": 0.0,
			"0.025": 0.0
		}
	}
}
