{
	 "smiles": "CCCCCCCCCCCCOC1=CC=C(C=C1)N=CC1=CC=C(C=C1)N(C)C", 
	 "Tm": 367.65, 
	 "num_atms": 70, 
	 "gaussian": { 
		 "optdone": 1, 
		 "sigma_profile": "yes", 
		 "theory": "DFT", 
		 "functional": "B3LYP", 
		 "basiset": "6-31G**", 
		 "properties": { 
			 "R2extent": 19108.2996, 
			 "electric_dipole_moment_norm": 6.20899928571, 
			 "electric_quadrupole_moment_norm": 30.7539312554, 
			 "total_energy": -1237.71467022, 
			 "HOMO_LUMO_gap": 0.14826, 
			 "cosmo_polarized_energy": -13.58, 
			 "cosmo_cavitation_energy": 69.89, 
			 "cosmo_dispersion_energy": -43.61, 
			 "cosmo_repulsion_energy": 3.35, 
			 "cosmo_total_nonelectrostatic_energy": 29.62, 
			 "SMD_solvation_energy": 8.62 
		},
		"coords": [
			{
				"x": 0.463903672,
				"y": -2.3458959611,
				"z": 4.9581785778,
				"element": "C" 
			},
			{
				"x": 0.2953749603,
				"y": -0.8272889104,
				"z": 4.8402994542,
				"element": "C" 
			},
			{
				"x": 1.6352178618,
				"y": -0.0816502485,
				"z": 4.7631185159,
				"element": "C" 
			},
			{
				"x": 1.5205531944,
				"y": 1.4507281444,
				"z": 4.7121703711,
				"element": "C" 
			},
			{
				"x": 0.8631280007,
				"y": 2.0070847604,
				"z": 3.4405836578,
				"element": "C" 
			},
			{
				"x": 0.8504946104,
				"y": 3.5417905158,
				"z": 3.3975301491,
				"element": "C" 
			},
			{
				"x": 0.1121854165,
				"y": 4.1452279821,
				"z": 2.1892842019,
				"element": "C" 
			},
			{
				"x": 0.7002025698,
				"y": 3.814891892,
				"z": 0.8055522634,
				"element": "C" 
			},
			{
				"x": 2.1178420422,
				"y": 4.3598893206,
				"z": 0.575564094,
				"element": "C" 
			},
			{
				"x": 2.6488903587,
				"y": 4.1660788262,
				"z": -0.8549009697,
				"element": "C" 
			},
			{
				"x": 2.8716311756,
				"y": 2.7009098315,
				"z": -1.2564764689,
				"element": "C" 
			},
			{
				"x": 3.4999330711,
				"y": 2.5752677102,
				"z": -2.646115914,
				"element": "C" 
			},
			{
				"x": 3.7757900919,
				"y": 1.2254084741,
				"z": -3.0118797807,
				"element": "O" 
			},
			{
				"x": 2.7699988605,
				"y": 0.4344489041,
				"z": -3.5066395948,
				"element": "C" 
			},
			{
				"x": 3.140369935,
				"y": -0.8792192327,
				"z": -3.8300746269,
				"element": "C" 
			},
			{
				"x": 2.2149932157,
				"y": -1.7651547098,
				"z": -4.367446186,
				"element": "C" 
			},
			{
				"x": 0.8775327858,
				"y": -1.3775364871,
				"z": -4.5670146107,
				"element": "C" 
			},
			{
				"x": 0.5174674874,
				"y": -0.0603635033,
				"z": -4.2508598623,
				"element": "C" 
			},
			{
				"x": 1.4487552541,
				"y": 0.8403472694,
				"z": -3.7266293548,
				"element": "C" 
			},
			{
				"x": -0.0208887003,
				"y": -2.2578781516,
				"z": -5.2000008046,
				"element": "N" 
			},
			{
				"x": -1.0405289277,
				"y": -2.7915127907,
				"z": -4.6371521018,
				"element": "C" 
			},
			{
				"x": -1.5435240505,
				"y": -2.7915075515,
				"z": -3.2531060398,
				"element": "C" 
			},
			{
				"x": -0.8379072187,
				"y": -2.3433307773,
				"z": -2.1185210345,
				"element": "C" 
			},
			{
				"x": -1.3856512677,
				"y": -2.4218968079,
				"z": -0.8476278628,
				"element": "C" 
			},
			{
				"x": -2.6861536855,
				"y": -2.9444657924,
				"z": -0.6339726073,
				"element": "C" 
			},
			{
				"x": -3.3890370741,
				"y": -3.4137429631,
				"z": -1.7696712913,
				"element": "C" 
			},
			{
				"x": -2.8210240569,
				"y": -3.3379301853,
				"z": -3.0321503234,
				"element": "C" 
			},
			{
				"x": -3.242410106,
				"y": -2.9948267616,
				"z": 0.6294354059,
				"element": "N" 
			},
			{
				"x": -2.4431646322,
				"y": -2.6372352242,
				"z": 1.7899395378,
				"element": "C" 
			},
			{
				"x": -4.522102613,
				"y": -3.6536586223,
				"z": 0.8306033066,
				"element": "C" 
			},
			{
				"x": 1.0034949227,
				"y": -2.7531635369,
				"z": 4.0952493618,
				"element": "H" 
			},
			{
				"x": -0.5038782246,
				"y": -2.855641088,
				"z": 5.0169559705,
				"element": "H" 
			},
			{
				"x": 1.0332599741,
				"y": -2.61283645,
				"z": 5.8558365582,
				"element": "H" 
			},
			{
				"x": -0.3101582437,
				"y": -0.598593471,
				"z": 3.9538286072,
				"element": "H" 
			},
			{
				"x": -0.2750662354,
				"y": -0.4536015001,
				"z": 5.7020361872,
				"element": "H" 
			},
			{
				"x": 2.1942661051,
				"y": -0.4333477535,
				"z": 3.8838369098,
				"element": "H" 
			},
			{
				"x": 2.2408668669,
				"y": -0.3612910389,
				"z": 5.6360635171,
				"element": "H" 
			},
			{
				"x": 0.962582208,
				"y": 1.8020428985,
				"z": 5.5922407637,
				"element": "H" 
			},
			{
				"x": 2.527214788,
				"y": 1.8809952985,
				"z": 4.8032875279,
				"element": "H" 
			},
			{
				"x": -0.1694864469,
				"y": 1.641097488,
				"z": 3.3601410447,
				"element": "H" 
			},
			{
				"x": 1.3954269526,
				"y": 1.6114998587,
				"z": 2.5647664157,
				"element": "H" 
			},
			{
				"x": 1.8836014351,
				"y": 3.9131106234,
				"z": 3.429780255,
				"element": "H" 
			},
			{
				"x": 0.3729822112,
				"y": 3.9158193505,
				"z": 4.3135209883,
				"element": "H" 
			},
			{
				"x": -0.9337501174,
				"y": 3.8097923195,
				"z": 2.214090705,
				"element": "H" 
			},
			{
				"x": 0.0817932004,
				"y": 5.2372438405,
				"z": 2.3065474618,
				"element": "H" 
			},
			{
				"x": 0.685980888,
				"y": 2.7293459221,
				"z": 0.6493935753,
				"element": "H" 
			},
			{
				"x": 0.0344981551,
				"y": 4.235566307,
				"z": 0.03904955,
				"element": "H" 
			},
			{
				"x": 2.8192669789,
				"y": 3.8931061109,
				"z": 1.2799055897,
				"element": "H" 
			},
			{
				"x": 2.1236206584,
				"y": 5.4335095804,
				"z": 0.8089832047,
				"element": "H" 
			},
			{
				"x": 3.5986788597,
				"y": 4.7096045209,
				"z": -0.9536502466,
				"element": "H" 
			},
			{
				"x": 1.9544910178,
				"y": 4.6389604521,
				"z": -1.5644332587,
				"element": "H" 
			},
			{
				"x": 3.5373144644,
				"y": 2.2114055772,
				"z": -0.5340299974,
				"element": "H" 
			},
			{
				"x": 1.9262422166,
				"y": 2.1483856769,
				"z": -1.2347936422,
				"element": "H" 
			},
			{
				"x": 4.4759571716,
				"y": 3.0717010944,
				"z": -2.6595971118,
				"element": "H" 
			},
			{
				"x": 2.8777918256,
				"y": 3.0627872821,
				"z": -3.4094129984,
				"element": "H" 
			},
			{
				"x": 4.1704508244,
				"y": -1.1797323266,
				"z": -3.6662307013,
				"element": "H" 
			},
			{
				"x": 2.5155534369,
				"y": -2.7734077466,
				"z": -4.6354013639,
				"element": "H" 
			},
			{
				"x": -0.5048231703,
				"y": 0.26357971,
				"z": -4.42095998,
				"element": "H" 
			},
			{
				"x": 1.1256970511,
				"y": 1.8490229784,
				"z": -3.4963494842,
				"element": "H" 
			},
			{
				"x": -1.6681828745,
				"y": -3.386349634,
				"z": -5.3119793329,
				"element": "H" 
			},
			{
				"x": 0.1603731921,
				"y": -1.9393328503,
				"z": -2.228053425,
				"element": "H" 
			},
			{
				"x": -0.7936144746,
				"y": -2.0755917272,
				"z": -0.0095528411,
				"element": "H" 
			},
			{
				"x": -4.3765693082,
				"y": -3.8456243476,
				"z": -1.6655160017,
				"element": "H" 
			},
			{
				"x": -3.3855532416,
				"y": -3.7158047505,
				"z": -3.8817489306,
				"element": "H" 
			},
			{
				"x": -2.0836342498,
				"y": -1.6033874464,
				"z": 1.7225358738,
				"element": "H" 
			},
			{
				"x": -1.5689639838,
				"y": -3.2920095828,
				"z": 1.9196507858,
				"element": "H" 
			},
			{
				"x": -3.0598348898,
				"y": -2.7138276102,
				"z": 2.6862722246,
				"element": "H" 
			},
			{
				"x": -4.4916755233,
				"y": -4.7231467761,
				"z": 0.5742338659,
				"element": "H" 
			},
			{
				"x": -5.3097200762,
				"y": -3.1844842729,
				"z": 0.2287815762,
				"element": "H" 
			},
			{
				"x": -4.8103665759,
				"y": -3.5643819301,
				"z": 1.8787006949,
				"element": "H" 
			}
		],
		 "valence_orbital": [ 
			{
				"type": "occ",
				"energy": -0.25314,
				"method": "rhf"
			},
			{
				"type": "occ",
				"energy": -0.25063,
				"method": "rhf"
			},
			{
				"type": "occ",
				"energy": -0.23746,
				"method": "rhf"
			},
			{
				"type": "occ",
				"energy": -0.19648,
				"method": "rhf"
			},
			{
				"type": "occ",
				"energy": -0.17968,
				"method": "rhf"
			},
			{
				"type": "unocc",
				"energy": -0.03142,
				"method": "rhf"
			},
			{
				"type": "unocc",
				"energy": -0.00118,
				"method": "rhf"
			},
			{
				"type": "unocc",
				"energy": 0.01322,
				"method": "rhf"
			},
			{
				"type": "unocc",
				"energy": 0.03365,
				"method": "rhf"
			},
			{
				"type": "unocc",
				"energy": 0.0638,
				"method": "rhf"
			}
		],
		"cosmo_sigma_profile": { 
			"-0.025": 0.0,
			"-0.024": 0.0,
			"-0.023": 0.0,
			"-0.022": 0.0,
			"-0.021": 0.0,
			"-0.02": 0.0,
			"-0.019": 0.0,
			"-0.018": 0.0,
			"-0.017": 0.0,
			"-0.016": 0.0,
			"-0.015": 0.0,
			"-0.014": 0.0,
			"-0.013": 0.0,
			"-0.012": 0.0,
			"-0.011": 0.0,
			"-0.01": 0.0,
			"-0.009": 0.0,
			"-0.008": 0.17510953601,
			"-0.007": 2.47106413134,
			"-0.006": 11.1695593766,
			"-0.005": 23.9096595381,
			"-0.004": 31.3358517852,
			"-0.003": 37.6735492625,
			"-0.002": 67.1148261185,
			"-0.001": 88.1527705403,
			"0.0": 83.5810094543,
			"0.001": 68.6347634709,
			"0.002": 36.0082249067,
			"0.003": 18.290777857,
			"0.004": 21.6872125622,
			"0.005": 20.6686412119,
			"0.006": 16.2944266849,
			"0.007": 2.52410551641,
			"0.008": 3.10587046506,
			"0.009": 2.41078280591,
			"0.01": 2.40242041497,
			"0.011": 2.41629931519,
			"0.012": 0.985830084346,
			"0.013": 0.884954397465,
			"0.014": 0.974166290681,
			"0.015": 1.04722291131,
			"0.016": 0.657034743917,
			"0.017": 0.135053766437,
			"0.018": 0.0,
			"0.019": 0.0,
			"0.02": 0.0,
			"0.021": 0.0,
			"0.022": 0.0,
			"0.023": 0.0,
			"0.024": 0.0,
			"0.025": 0.0
		}
	}
}
