{
	 "smiles": "NC1=C(Br)C=C(I)C=C1", 
	 "Tm": 357.15, 
	 "num_atms": 14, 
	 "gaussian": { 
		 "optdone": 1, 
		 "sigma_profile": "yes", 
		 "theory": "DFT", 
		 "functional": "B3LYP", 
		 "basiset": "6-31G**", 
		 "properties": { 
			 "R2extent": 2488.5096, 
			 "electric_dipole_moment_norm": 3.13689947241, 
			 "electric_quadrupole_moment_norm": 11.3319980308, 
			 "total_energy": -2869.19635108, 
			 "HOMO_LUMO_gap": 0.17021, 
			 "cosmo_polarized_energy": -7.78, 
			 "cosmo_cavitation_energy": 23.36, 
			 "cosmo_dispersion_energy": -19.39, 
			 "cosmo_repulsion_energy": 1.55, 
			 "cosmo_total_nonelectrostatic_energy": 5.52, 
			 "SMD_solvation_energy": 1.94 
		},
		"coords": [
			{
				"x": 0.4912864645,
				"y": 3.0786211569,
				"z": 0.6121419674,
				"element": "N" 
			},
			{
				"x": 0.4927171085,
				"y": 1.8096442239,
				"z": 0.0667764798,
				"element": "C" 
			},
			{
				"x": 0.9778515123,
				"y": 0.6876654529,
				"z": 0.7665174975,
				"element": "C" 
			},
			{
				"x": 1.743788074,
				"y": 0.9279585841,
				"z": 2.5078134781,
				"element": "Br" 
			},
			{
				"x": 0.9277501501,
				"y": -0.5988191413,
				"z": 0.2370982321,
				"element": "C" 
			},
			{
				"x": 0.3844307004,
				"y": -0.7928699092,
				"z": -1.0318966595,
				"element": "C" 
			},
			{
				"x": 0.3041640441,
				"y": -2.7444276613,
				"z": -1.8517458459,
				"element": "I" 
			},
			{
				"x": -0.1029543178,
				"y": 0.2950943666,
				"z": -1.759842001,
				"element": "C" 
			},
			{
				"x": -0.0457334739,
				"y": 1.5715221053,
				"z": -1.2133486274,
				"element": "C" 
			},
			{
				"x": 0.4489941061,
				"y": 3.8459180941,
				"z": -0.0417125845,
				"element": "H" 
			},
			{
				"x": 1.1164841841,
				"y": 3.2300253111,
				"z": 1.3911293074,
				"element": "H" 
			},
			{
				"x": 1.3151243622,
				"y": -1.4284056755,
				"z": 0.8149997265,
				"element": "H" 
			},
			{
				"x": -0.5252190926,
				"y": 0.1534651791,
				"z": -2.7482023581,
				"element": "H" 
			},
			{
				"x": -0.4327838218,
				"y": 2.4136079131,
				"z": -1.7813286123,
				"element": "H" 
			}
		],
		 "valence_orbital": [ 
			{
				"type": "occ",
				"energy": -0.29916,
				"method": "rhf"
			},
			{
				"type": "occ",
				"energy": -0.27115,
				"method": "rhf"
			},
			{
				"type": "occ",
				"energy": -0.26724,
				"method": "rhf"
			},
			{
				"type": "occ",
				"energy": -0.25488,
				"method": "rhf"
			},
			{
				"type": "occ",
				"energy": -0.21227,
				"method": "rhf"
			},
			{
				"type": "unocc",
				"energy": -0.04206,
				"method": "rhf"
			},
			{
				"type": "unocc",
				"energy": -0.02083,
				"method": "rhf"
			},
			{
				"type": "unocc",
				"energy": -0.00733,
				"method": "rhf"
			},
			{
				"type": "unocc",
				"energy": 0.0087,
				"method": "rhf"
			},
			{
				"type": "unocc",
				"energy": 0.04526,
				"method": "rhf"
			}
		],
		"cosmo_sigma_profile": { 
			"-0.025": 0.0,
			"-0.024": 0.0,
			"-0.023": 0.0,
			"-0.022": 0.0,
			"-0.021": 0.0,
			"-0.02": 0.0,
			"-0.019": 0.0,
			"-0.018": 0.0,
			"-0.017": 0.0,
			"-0.016": 0.0,
			"-0.015": 0.0,
			"-0.014": 0.277361562387,
			"-0.013": 1.39000785954,
			"-0.012": 2.11212491499,
			"-0.011": 2.40139895645,
			"-0.01": 2.59995041676,
			"-0.009": 2.4689496781,
			"-0.008": 2.87875853205,
			"-0.007": 5.88295444693,
			"-0.006": 7.34033525752,
			"-0.005": 8.39991437331,
			"-0.004": 9.54094450539,
			"-0.003": 8.98708975515,
			"-0.002": 10.2868824847,
			"-0.001": 9.62064343592,
			"0.0": 11.9186845393,
			"0.001": 14.8497865715,
			"0.002": 19.9004694872,
			"0.003": 27.5304992401,
			"0.004": 28.5453709522,
			"0.005": 13.4910593759,
			"0.006": 0.891190340234,
			"0.007": 0.865242679024,
			"0.008": 0.727703745955,
			"0.009": 0.547824390736,
			"0.01": 0.833858969492,
			"0.011": 0.531692702319,
			"0.012": 0.502846991517,
			"0.013": 0.0966544812893,
			"0.014": 0.0,
			"0.015": 0.0,
			"0.016": 0.0,
			"0.017": 0.0,
			"0.018": 0.0,
			"0.019": 0.0,
			"0.02": 0.0,
			"0.021": 0.0,
			"0.022": 0.0,
			"0.023": 0.0,
			"0.024": 0.0,
			"0.025": 0.0
		}
	}
}
