{
	 "smiles": "CC(C)(C)C1=CC(=C(O)C(=C1)C(C)(C)C)C(C)(C)C", 
	 "Tm": 404.15, 
	 "num_atms": 49, 
	 "gaussian": { 
		 "optdone": 1, 
		 "sigma_profile": "yes", 
		 "theory": "DFT", 
		 "functional": "B3LYP", 
		 "basiset": "6-31G**", 
		 "properties": { 
			 "R2extent": 6405.8562, 
			 "electric_dipole_moment_norm": 1.88954323317, 
			 "electric_quadrupole_moment_norm": 9.6669520905, 
			 "total_energy": -779.252049655, 
			 "HOMO_LUMO_gap": 0.21239, 
			 "cosmo_polarized_energy": -5.81, 
			 "cosmo_cavitation_energy": 44.82, 
			 "cosmo_dispersion_energy": -29.81, 
			 "cosmo_repulsion_energy": 2.29, 
			 "cosmo_total_nonelectrostatic_energy": 17.3, 
			 "SMD_solvation_energy": 8.11 
		},
		"coords": [
			{
				"x": -3.6260283574,
				"y": 2.2225549391,
				"z": -0.1952104777,
				"element": "C" 
			},
			{
				"x": -2.3025918461,
				"y": 2.1848243991,
				"z": 0.60582965,
				"element": "C" 
			},
			{
				"x": -1.7276317614,
				"y": 3.6178629286,
				"z": 0.7081774873,
				"element": "C" 
			},
			{
				"x": -2.6238981035,
				"y": 1.6988445184,
				"z": 2.0322225952,
				"element": "C" 
			},
			{
				"x": -1.2896688488,
				"y": 1.2709576234,
				"z": -0.111228391,
				"element": "C" 
			},
			{
				"x": -0.7388416195,
				"y": 0.1330514012,
				"z": 0.4828630509,
				"element": "C" 
			},
			{
				"x": 0.1828599606,
				"y": -0.7007586073,
				"z": -0.1640860384,
				"element": "C" 
			},
			{
				"x": 0.5563464833,
				"y": -0.3513581337,
				"z": -1.4801307645,
				"element": "C" 
			},
			{
				"x": 1.4648185067,
				"y": -1.1841722704,
				"z": -2.0978626873,
				"element": "O" 
			},
			{
				"x": 0.0301419935,
				"y": 0.7899134739,
				"z": -2.1327675862,
				"element": "C" 
			},
			{
				"x": -0.8847977469,
				"y": 1.5692808692,
				"z": -1.4162617337,
				"element": "C" 
			},
			{
				"x": 0.4379207729,
				"y": 1.1763336419,
				"z": -3.5776871912,
				"element": "C" 
			},
			{
				"x": 1.9596750195,
				"y": 1.4785331962,
				"z": -3.6578190863,
				"element": "C" 
			},
			{
				"x": -0.2746405756,
				"y": 2.4582114008,
				"z": -4.0599169327,
				"element": "C" 
			},
			{
				"x": 0.0340801044,
				"y": 0.0610868299,
				"z": -4.5809833862,
				"element": "C" 
			},
			{
				"x": 0.7612719421,
				"y": -1.9493389862,
				"z": 0.5436540954,
				"element": "C" 
			},
			{
				"x": 0.3921379295,
				"y": -3.2327174005,
				"z": -0.2418816313,
				"element": "C" 
			},
			{
				"x": 2.3004527253,
				"y": -1.8292839327,
				"z": 0.6735603557,
				"element": "C" 
			},
			{
				"x": 0.1988617633,
				"y": -2.1160175827,
				"z": 1.9711907198,
				"element": "C" 
			},
			{
				"x": -3.476615485,
				"y": 2.6025153434,
				"z": -1.2104337893,
				"element": "H" 
			},
			{
				"x": -4.0624062983,
				"y": 1.2214323182,
				"z": -0.2754488477,
				"element": "H" 
			},
			{
				"x": -4.3565441736,
				"y": 2.8736062325,
				"z": 0.2990696891,
				"element": "H" 
			},
			{
				"x": -1.5171011659,
				"y": 4.0435638218,
				"z": -0.2776311778,
				"element": "H" 
			},
			{
				"x": -0.7935031809,
				"y": 3.6236146868,
				"z": 1.2795622915,
				"element": "H" 
			},
			{
				"x": -2.4388905762,
				"y": 4.2826915293,
				"z": 1.2120968405,
				"element": "H" 
			},
			{
				"x": -3.0668693574,
				"y": 0.6974334435,
				"z": 2.0320704804,
				"element": "H" 
			},
			{
				"x": -1.7316249317,
				"y": 1.6777172124,
				"z": 2.6666114358,
				"element": "H" 
			},
			{
				"x": -3.3446713405,
				"y": 2.3777691445,
				"z": 2.4998936534,
				"element": "H" 
			},
			{
				"x": -1.034666233,
				"y": -0.1202354755,
				"z": 1.4899704765,
				"element": "H" 
			},
			{
				"x": 1.650770272,
				"y": -0.859364361,
				"z": -2.98335427,
				"element": "H" 
			},
			{
				"x": -1.3009316582,
				"y": 2.4468224344,
				"z": -1.8934117317,
				"element": "H" 
			},
			{
				"x": 2.6041236057,
				"y": 0.6525735864,
				"z": -3.3414673104,
				"element": "H" 
			},
			{
				"x": 2.2415827684,
				"y": 1.7379038319,
				"z": -4.6842224868,
				"element": "H" 
			},
			{
				"x": 2.2068543553,
				"y": 2.3271909974,
				"z": -3.0126546279,
				"element": "H" 
			},
			{
				"x": 0.046420086,
				"y": 2.6870601417,
				"z": -5.0812982796,
				"element": "H" 
			},
			{
				"x": -0.0289722026,
				"y": 3.3228815891,
				"z": -3.4360441448,
				"element": "H" 
			},
			{
				"x": -1.3624362353,
				"y": 2.3410602703,
				"z": -4.0751370859,
				"element": "H" 
			},
			{
				"x": -1.052001823,
				"y": -0.0727282073,
				"z": -4.574204431,
				"element": "H" 
			},
			{
				"x": 0.3365860709,
				"y": 0.3372408354,
				"z": -5.5970841559,
				"element": "H" 
			},
			{
				"x": 0.467532806,
				"y": -0.9207806791,
				"z": -4.3674730924,
				"element": "H" 
			},
			{
				"x": -0.69585889,
				"y": -3.3453804993,
				"z": -0.3048808556,
				"element": "H" 
			},
			{
				"x": 0.7907917808,
				"y": -4.114058112,
				"z": 0.2742046317,
				"element": "H" 
			},
			{
				"x": 0.7947880836,
				"y": -3.2179097444,
				"z": -1.2547105642,
				"element": "H" 
			},
			{
				"x": 2.7845064435,
				"y": -1.7528124434,
				"z": -0.30011166,
				"element": "H" 
			},
			{
				"x": 2.7015972135,
				"y": -2.7096968697,
				"z": 1.1893009042,
				"element": "H" 
			},
			{
				"x": 2.5687732869,
				"y": -0.9452457564,
				"z": 1.2625297524,
				"element": "H" 
			},
			{
				"x": -0.8883430923,
				"y": -2.2471014998,
				"z": 1.9753097512,
				"element": "H" 
			},
			{
				"x": 0.4461377552,
				"y": -1.2659438888,
				"z": 2.6157368053,
				"element": "H" 
			},
			{
				"x": 0.6379037742,
				"y": -3.0099281904,
				"z": 2.425949751,
				"element": "H" 
			}
		],
		 "valence_orbital": [ 
			{
				"type": "occ",
				"energy": -0.30454,
				"method": "rhf"
			},
			{
				"type": "occ",
				"energy": -0.29976,
				"method": "rhf"
			},
			{
				"type": "occ",
				"energy": -0.29391,
				"method": "rhf"
			},
			{
				"type": "occ",
				"energy": -0.2312,
				"method": "rhf"
			},
			{
				"type": "occ",
				"energy": -0.20336,
				"method": "rhf"
			},
			{
				"type": "unocc",
				"energy": 0.00903,
				"method": "rhf"
			},
			{
				"type": "unocc",
				"energy": 0.0188,
				"method": "rhf"
			},
			{
				"type": "unocc",
				"energy": 0.06457,
				"method": "rhf"
			},
			{
				"type": "unocc",
				"energy": 0.0824,
				"method": "rhf"
			},
			{
				"type": "unocc",
				"energy": 0.1004,
				"method": "rhf"
			}
		],
		"cosmo_sigma_profile": { 
			"-0.025": 0.0,
			"-0.024": 0.0,
			"-0.023": 0.0,
			"-0.022": 0.0,
			"-0.021": 0.0,
			"-0.02": 0.0,
			"-0.019": 0.0,
			"-0.018": 0.0,
			"-0.017": 0.0,
			"-0.016": 0.0,
			"-0.015": 0.0,
			"-0.014": 0.20172541489,
			"-0.013": 0.409309249948,
			"-0.012": 0.806985457074,
			"-0.011": 0.953738157652,
			"-0.01": 0.803940431337,
			"-0.009": 0.642230486917,
			"-0.008": 0.690908221829,
			"-0.007": 0.889979842902,
			"-0.006": 1.07966194091,
			"-0.005": 1.3301713544,
			"-0.004": 6.4230560427,
			"-0.003": 32.8779491569,
			"-0.002": 57.1450167207,
			"-0.001": 49.6198798316,
			"0.0": 51.3881304354,
			"0.001": 55.1044609759,
			"0.002": 38.4098389901,
			"0.003": 12.3329730798,
			"0.004": 10.0156433596,
			"0.005": 9.68855483632,
			"0.006": 8.09895694765,
			"0.007": 5.95464792146,
			"0.008": 0.884347532073,
			"0.009": 0.0,
			"0.01": 0.0,
			"0.011": 0.0,
			"0.012": 0.0,
			"0.013": 0.0,
			"0.014": 0.0,
			"0.015": 0.0,
			"0.016": 0.0,
			"0.017": 0.0,
			"0.018": 0.0,
			"0.019": 0.0,
			"0.02": 0.0,
			"0.021": 0.0,
			"0.022": 0.0,
			"0.023": 0.0,
			"0.024": 0.0,
			"0.025": 0.0
		}
	}
}
