{
	 "smiles": "CC1=CC=C(C=C1)N1CCNCC1", 
	 "Tm": 304.65, 
	 "num_atms": 29, 
	 "gaussian": { 
		 "optdone": 1, 
		 "sigma_profile": "yes", 
		 "theory": "DFT", 
		 "functional": "B3LYP", 
		 "basiset": "6-31G**", 
		 "properties": { 
			 "R2extent": 3546.6229, 
			 "electric_dipole_moment_norm": 1.5540522932, 
			 "electric_quadrupole_moment_norm": 9.56785741219, 
			 "total_energy": -538.302060706, 
			 "HOMO_LUMO_gap": 0.18873, 
			 "cosmo_polarized_energy": -7.59, 
			 "cosmo_cavitation_energy": 29.66, 
			 "cosmo_dispersion_energy": -22.26, 
			 "cosmo_repulsion_energy": 1.75, 
			 "cosmo_total_nonelectrostatic_energy": 9.16, 
			 "SMD_solvation_energy": 1.34 
		},
		"coords": [
			{
				"x": -1.0635776621,
				"y": 3.5201618225,
				"z": -1.1132448012,
				"element": "C" 
			},
			{
				"x": -0.6070666194,
				"y": 2.1658652087,
				"z": -0.6236422221,
				"element": "C" 
			},
			{
				"x": -0.198679987,
				"y": 1.964945752,
				"z": 0.7001915533,
				"element": "C" 
			},
			{
				"x": 0.2005694388,
				"y": 0.7164542749,
				"z": 1.1702731146,
				"element": "C" 
			},
			{
				"x": 0.1999435021,
				"y": -0.4124475464,
				"z": 0.3217870722,
				"element": "C" 
			},
			{
				"x": -0.2097811583,
				"y": -0.2127705174,
				"z": -1.0148053403,
				"element": "C" 
			},
			{
				"x": -0.5954236849,
				"y": 1.0471332719,
				"z": -1.4650602654,
				"element": "C" 
			},
			{
				"x": 0.5856652309,
				"y": -1.6682956594,
				"z": 0.776377786,
				"element": "N" 
			},
			{
				"x": 0.751601284,
				"y": -1.9447879428,
				"z": 2.198652536,
				"element": "C" 
			},
			{
				"x": 0.5113401772,
				"y": -3.427320503,
				"z": 2.4873438699,
				"element": "C" 
			},
			{
				"x": 1.4772945078,
				"y": -4.2723340364,
				"z": 1.7683327157,
				"element": "N" 
			},
			{
				"x": 1.9666888901,
				"y": -3.6731678125,
				"z": 0.5208133751,
				"element": "C" 
			},
			{
				"x": 0.9672394374,
				"y": -2.7256591032,
				"z": -0.1557261511,
				"element": "C" 
			},
			{
				"x": -0.5488128841,
				"y": 4.3309396202,
				"z": -0.5872627508,
				"element": "H" 
			},
			{
				"x": -0.8735100524,
				"y": 3.6440982809,
				"z": -2.1842805446,
				"element": "H" 
			},
			{
				"x": -2.140502562,
				"y": 3.6682221803,
				"z": -0.9574939767,
				"element": "H" 
			},
			{
				"x": -0.1760361024,
				"y": 2.8101104445,
				"z": 1.3851721196,
				"element": "H" 
			},
			{
				"x": 0.5443200665,
				"y": 0.6303258248,
				"z": 2.194780877,
				"element": "H" 
			},
			{
				"x": -0.2488171732,
				"y": -1.0494599726,
				"z": -1.7032912274,
				"element": "H" 
			},
			{
				"x": -0.9053267896,
				"y": 1.1567545852,
				"z": -2.5023081664,
				"element": "H" 
			},
			{
				"x": 1.7472496701,
				"y": -1.6496929373,
				"z": 2.5709495486,
				"element": "H" 
			},
			{
				"x": 0.0140327715,
				"y": -1.3650370046,
				"z": 2.7620464523,
				"element": "H" 
			},
			{
				"x": 0.6062048832,
				"y": -3.5966098062,
				"z": 3.567810701,
				"element": "H" 
			},
			{
				"x": -0.5327215621,
				"y": -3.6536306631,
				"z": 2.2155612304,
				"element": "H" 
			},
			{
				"x": 1.0565951525,
				"y": -5.1746921968,
				"z": 1.57555674,
				"element": "H" 
			},
			{
				"x": 2.8862549629,
				"y": -3.1084078818,
				"z": 0.7255917073,
				"element": "H" 
			},
			{
				"x": 2.2411572855,
				"y": -4.473674418,
				"z": -0.1734509701,
				"element": "H" 
			},
			{
				"x": 0.0915979796,
				"y": -3.2939844824,
				"z": -0.514352732,
				"element": "H" 
			},
			{
				"x": 1.4416009973,
				"y": -2.2784387822,
				"z": -1.0377222507,
				"element": "H" 
			}
		],
		 "valence_orbital": [ 
			{
				"type": "occ",
				"energy": -0.31899,
				"method": "rhf"
			},
			{
				"type": "occ",
				"energy": -0.26489,
				"method": "rhf"
			},
			{
				"type": "occ",
				"energy": -0.23514,
				"method": "rhf"
			},
			{
				"type": "occ",
				"energy": -0.2179,
				"method": "rhf"
			},
			{
				"type": "occ",
				"energy": -0.1768,
				"method": "rhf"
			},
			{
				"type": "unocc",
				"energy": 0.01193,
				"method": "rhf"
			},
			{
				"type": "unocc",
				"energy": 0.02867,
				"method": "rhf"
			},
			{
				"type": "unocc",
				"energy": 0.07194,
				"method": "rhf"
			},
			{
				"type": "unocc",
				"energy": 0.10065,
				"method": "rhf"
			},
			{
				"type": "unocc",
				"energy": 0.11251,
				"method": "rhf"
			}
		],
		"cosmo_sigma_profile": { 
			"-0.025": 0.0,
			"-0.024": 0.0,
			"-0.023": 0.0,
			"-0.022": 0.0,
			"-0.021": 0.0,
			"-0.02": 0.0,
			"-0.019": 0.0,
			"-0.018": 0.0,
			"-0.017": 0.0,
			"-0.016": 0.0,
			"-0.015": 0.0,
			"-0.014": 0.0,
			"-0.013": 0.0,
			"-0.012": 0.0,
			"-0.011": 0.0208477545193,
			"-0.01": 1.02891765023,
			"-0.009": 1.48653552741,
			"-0.008": 1.27853558023,
			"-0.007": 1.51182677116,
			"-0.006": 1.85834466646,
			"-0.005": 7.55978101109,
			"-0.004": 19.6248100902,
			"-0.003": 37.7477010747,
			"-0.002": 35.9313328355,
			"-0.001": 25.0114590952,
			"0.0": 18.1448405288,
			"0.001": 15.7261323108,
			"0.002": 10.0329759392,
			"0.003": 8.18917302623,
			"0.004": 8.62752975794,
			"0.005": 8.13029961849,
			"0.006": 8.68954078614,
			"0.007": 8.44461137042,
			"0.008": 6.81444380429,
			"0.009": 0.820304125483,
			"0.01": 0.681532738946,
			"0.011": 0.530969622408,
			"0.012": 0.723187004497,
			"0.013": 0.343262794188,
			"0.014": 0.372247346879,
			"0.015": 0.758674587448,
			"0.016": 0.727194860243,
			"0.017": 0.388729779591,
			"0.018": 0.438537700497,
			"0.019": 0.163385872788,
			"0.02": 0.0,
			"0.021": 0.0,
			"0.022": 0.0,
			"0.023": 0.0,
			"0.024": 0.0,
			"0.025": 0.0
		}
	}
}
