{
	 "smiles": "CCCCCCCCCCCC[N+]1=C(C=CC2=CC(=CC(=C2[O-])[N+]([O-])=O)[N+]([O-])=O)C(C)(C)C2=CC=CC=C12", 
	 "Tm": 411.15, 
	 "num_atms": 77, 
	 "gaussian": { 
		 "optdone": 1, 
		 "sigma_profile": "yes", 
		 "theory": "DFT", 
		 "functional": "B3LYP", 
		 "basiset": "6-31G**", 
		 "properties": { 
			 "R2extent": 23996.6427, 
			 "electric_dipole_moment_norm": 13.2479715357, 
			 "electric_quadrupole_moment_norm": 58.5854315839, 
			 "total_energy": -1706.88039038, 
			 "HOMO_LUMO_gap": 0.10904, 
			 "cosmo_polarized_energy": -27.28, 
			 "cosmo_cavitation_energy": 77.22, 
			 "cosmo_dispersion_energy": -46.1, 
			 "cosmo_repulsion_energy": 3.52, 
			 "cosmo_total_nonelectrostatic_energy": 34.65, 
			 "SMD_solvation_energy": 16.04 
		},
		"coords": [
			{
				"x": -3.427412468,
				"y": 5.7933636395,
				"z": -2.3118344804,
				"element": "C" 
			},
			{
				"x": -3.1517826475,
				"y": 4.4728304722,
				"z": -1.5822965399,
				"element": "C" 
			},
			{
				"x": -3.4006285036,
				"y": 4.5148260832,
				"z": -0.0644384107,
				"element": "C" 
			},
			{
				"x": -2.4295638242,
				"y": 5.4152492694,
				"z": 0.7130506908,
				"element": "C" 
			},
			{
				"x": -2.7061527654,
				"y": 5.4947681856,
				"z": 2.2254632573,
				"element": "C" 
			},
			{
				"x": -2.5712304636,
				"y": 4.1794630957,
				"z": 3.0131167197,
				"element": "C" 
			},
			{
				"x": -1.1644857643,
				"y": 3.5648769375,
				"z": 3.0000941062,
				"element": "C" 
			},
			{
				"x": -1.0343506948,
				"y": 2.3520262698,
				"z": 3.9355734943,
				"element": "C" 
			},
			{
				"x": 0.3642224223,
				"y": 1.6956980981,
				"z": 3.9710578071,
				"element": "C" 
			},
			{
				"x": 0.573854216,
				"y": 0.5013449243,
				"z": 3.0234579766,
				"element": "C" 
			},
			{
				"x": 0.4700370076,
				"y": 0.8154072252,
				"z": 1.5236289005,
				"element": "C" 
			},
			{
				"x": 0.8047963837,
				"y": -0.4284998224,
				"z": 0.6865566592,
				"element": "C" 
			},
			{
				"x": 0.7101566528,
				"y": -0.1744332936,
				"z": -0.7577336071,
				"element": "N" 
			},
			{
				"x": -0.2529022704,
				"y": -0.5784119033,
				"z": -1.5828749366,
				"element": "C" 
			},
			{
				"x": -1.3520608957,
				"y": -1.4390537083,
				"z": -1.3044620489,
				"element": "C" 
			},
			{
				"x": -1.4626596625,
				"y": -2.6059101734,
				"z": -0.5777230177,
				"element": "C" 
			},
			{
				"x": -0.508793547,
				"y": -3.4795527352,
				"z": 0.0334083331,
				"element": "C" 
			},
			{
				"x": -1.0061104328,
				"y": -4.4999478801,
				"z": 0.8638971381,
				"element": "C" 
			},
			{
				"x": -0.155689773,
				"y": -5.3738244044,
				"z": 1.5205757419,
				"element": "C" 
			},
			{
				"x": 1.2437880586,
				"y": -5.2543411808,
				"z": 1.4016467156,
				"element": "C" 
			},
			{
				"x": 1.76275842,
				"y": -4.2805511567,
				"z": 0.5903567533,
				"element": "C" 
			},
			{
				"x": 0.9400282384,
				"y": -3.4047108563,
				"z": -0.2518439014,
				"element": "C" 
			},
			{
				"x": 1.4112597355,
				"y": -2.6841637627,
				"z": -1.1462066957,
				"element": "O" 
			},
			{
				"x": 3.211166146,
				"y": -4.1019694287,
				"z": 0.5950847954,
				"element": "N" 
			},
			{
				"x": 3.9164263115,
				"y": -5.0997872854,
				"z": 0.761521399,
				"element": "O" 
			},
			{
				"x": 3.6442611573,
				"y": -2.9535753363,
				"z": 0.4779828369,
				"element": "O" 
			},
			{
				"x": -0.7102076137,
				"y": -6.4021166874,
				"z": 2.3803974201,
				"element": "N" 
			},
			{
				"x": 0.078567278,
				"y": -7.147782975,
				"z": 2.9687790224,
				"element": "O" 
			},
			{
				"x": -1.9405328414,
				"y": -6.475512803,
				"z": 2.4764728693,
				"element": "O" 
			},
			{
				"x": -0.0499572344,
				"y": 0.0536553847,
				"z": -2.9643361939,
				"element": "C" 
			},
			{
				"x": -1.2274822986,
				"y": 0.9751718712,
				"z": -3.3566447965,
				"element": "C" 
			},
			{
				"x": 0.1376839743,
				"y": -1.0747624958,
				"z": -4.0088788455,
				"element": "C" 
			},
			{
				"x": 1.2322026828,
				"y": 0.8301676417,
				"z": -2.7509446121,
				"element": "C" 
			},
			{
				"x": 1.9876162693,
				"y": 1.6128405116,
				"z": -3.6138515443,
				"element": "C" 
			},
			{
				"x": 3.1735748167,
				"y": 2.1861555476,
				"z": -3.1377603274,
				"element": "C" 
			},
			{
				"x": 3.5922578867,
				"y": 1.9706755455,
				"z": -1.8212100225,
				"element": "C" 
			},
			{
				"x": 2.8359389453,
				"y": 1.1904937605,
				"z": -0.9409648641,
				"element": "C" 
			},
			{
				"x": 1.6570737702,
				"y": 0.6424041688,
				"z": -1.43502806,
				"element": "C" 
			},
			{
				"x": -2.7662298761,
				"y": 6.5962537756,
				"z": -1.9708974985,
				"element": "H" 
			},
			{
				"x": -4.4600675237,
				"y": 6.1231994912,
				"z": -2.1493329925,
				"element": "H" 
			},
			{
				"x": -3.2803708154,
				"y": 5.6853004976,
				"z": -3.3915663311,
				"element": "H" 
			},
			{
				"x": -3.7838922254,
				"y": 3.689148456,
				"z": -2.0200437742,
				"element": "H" 
			},
			{
				"x": -2.1123616509,
				"y": 4.1654064076,
				"z": -1.7679062858,
				"element": "H" 
			},
			{
				"x": -3.339833845,
				"y": 3.4908129697,
				"z": 0.3260893299,
				"element": "H" 
			},
			{
				"x": -4.4320231889,
				"y": 4.8479761467,
				"z": 0.1221033708,
				"element": "H" 
			},
			{
				"x": -2.4752362937,
				"y": 6.4340171309,
				"z": 0.30911404,
				"element": "H" 
			},
			{
				"x": -1.4007437243,
				"y": 5.0714386652,
				"z": 0.5375762747,
				"element": "H" 
			},
			{
				"x": -3.7200604075,
				"y": 5.8899222449,
				"z": 2.3758576714,
				"element": "H" 
			},
			{
				"x": -2.0257862044,
				"y": 6.2363679624,
				"z": 2.6658215156,
				"element": "H" 
			},
			{
				"x": -3.2936939301,
				"y": 3.4407488053,
				"z": 2.6407149147,
				"element": "H" 
			},
			{
				"x": -2.8593692494,
				"y": 4.3743353527,
				"z": 4.0551161169,
				"element": "H" 
			},
			{
				"x": -0.4342263407,
				"y": 4.3275945116,
				"z": 3.3071314072,
				"element": "H" 
			},
			{
				"x": -0.890212523,
				"y": 3.2828278067,
				"z": 1.9763409042,
				"element": "H" 
			},
			{
				"x": -1.2964189505,
				"y": 2.6818070257,
				"z": 4.9490536394,
				"element": "H" 
			},
			{
				"x": -1.787801085,
				"y": 1.5966370744,
				"z": 3.6691339989,
				"element": "H" 
			},
			{
				"x": 1.1312533294,
				"y": 2.4577171817,
				"z": 3.7741236802,
				"element": "H" 
			},
			{
				"x": 0.560466846,
				"y": 1.3339437216,
				"z": 4.9872957343,
				"element": "H" 
			},
			{
				"x": -0.1522708808,
				"y": -0.2840451458,
				"z": 3.2753412378,
				"element": "H" 
			},
			{
				"x": 1.5644170574,
				"y": 0.0712251829,
				"z": 3.2239866018,
				"element": "H" 
			},
			{
				"x": -0.5440239392,
				"y": 1.1450137206,
				"z": 1.2698882468,
				"element": "H" 
			},
			{
				"x": 1.1436736552,
				"y": 1.6413747376,
				"z": 1.2682215414,
				"element": "H" 
			},
			{
				"x": 0.1122292276,
				"y": -1.2299889421,
				"z": 0.9303631169,
				"element": "H" 
			},
			{
				"x": 1.813238379,
				"y": -0.8031612045,
				"z": 0.88499789,
				"element": "H" 
			},
			{
				"x": -2.2502636934,
				"y": -1.1588088127,
				"z": -1.8513268146,
				"element": "H" 
			},
			{
				"x": -2.4877125952,
				"y": -2.9684103747,
				"z": -0.4993371796,
				"element": "H" 
			},
			{
				"x": -2.073740829,
				"y": -4.6069047375,
				"z": 1.0243768506,
				"element": "H" 
			},
			{
				"x": 1.8957360691,
				"y": -5.9139331335,
				"z": 1.9604083823,
				"element": "H" 
			},
			{
				"x": -1.3904900691,
				"y": 1.7616136056,
				"z": -2.6143678565,
				"element": "H" 
			},
			{
				"x": -2.1538919882,
				"y": 0.4051411163,
				"z": -3.4732059244,
				"element": "H" 
			},
			{
				"x": -1.0104500016,
				"y": 1.4540112631,
				"z": -4.3159406368,
				"element": "H" 
			},
			{
				"x": -0.7886645441,
				"y": -1.6450917089,
				"z": -4.1230272687,
				"element": "H" 
			},
			{
				"x": 0.4008032256,
				"y": -0.6405409929,
				"z": -4.9781794674,
				"element": "H" 
			},
			{
				"x": 0.9268161104,
				"y": -1.7612623593,
				"z": -3.6954397972,
				"element": "H" 
			},
			{
				"x": 1.6757332995,
				"y": 1.771763573,
				"z": -4.6421572446,
				"element": "H" 
			},
			{
				"x": 3.7799665546,
				"y": 2.7950410318,
				"z": -3.8009352537,
				"element": "H" 
			},
			{
				"x": 4.5223251421,
				"y": 2.4092806293,
				"z": -1.4738380079,
				"element": "H" 
			},
			{
				"x": 3.1744108066,
				"y": 1.0102165809,
				"z": 0.0725561356,
				"element": "H" 
			}
		],
		 "valence_orbital": [ 
			{
				"type": "occ",
				"energy": -0.27137,
				"method": "rhf"
			},
			{
				"type": "occ",
				"energy": -0.26622,
				"method": "rhf"
			},
			{
				"type": "occ",
				"energy": -0.24814,
				"method": "rhf"
			},
			{
				"type": "occ",
				"energy": -0.23751,
				"method": "rhf"
			},
			{
				"type": "occ",
				"energy": -0.2127,
				"method": "rhf"
			},
			{
				"type": "unocc",
				"energy": -0.10366,
				"method": "rhf"
			},
			{
				"type": "unocc",
				"energy": -0.06568,
				"method": "rhf"
			},
			{
				"type": "unocc",
				"energy": -0.05851,
				"method": "rhf"
			},
			{
				"type": "unocc",
				"energy": -0.03383,
				"method": "rhf"
			},
			{
				"type": "unocc",
				"energy": -0.02651,
				"method": "rhf"
			}
		],
		"cosmo_sigma_profile": { 
			"-0.025": 0.0,
			"-0.024": 0.0,
			"-0.023": 0.0,
			"-0.022": 0.0,
			"-0.021": 0.0,
			"-0.02": 0.0,
			"-0.019": 0.0,
			"-0.018": 0.0,
			"-0.017": 0.0,
			"-0.016": 0.0,
			"-0.015": 0.0,
			"-0.014": 0.0,
			"-0.013": 0.0,
			"-0.012": 0.0,
			"-0.011": 0.0,
			"-0.01": 0.295786960312,
			"-0.009": 1.77553246745,
			"-0.008": 5.88991822351,
			"-0.007": 12.4235649295,
			"-0.006": 18.8482329655,
			"-0.005": 27.2592485706,
			"-0.004": 32.6788283283,
			"-0.003": 38.4950024782,
			"-0.002": 72.520221445,
			"-0.001": 95.3879568794,
			"0.0": 90.4336835344,
			"0.001": 64.5522292907,
			"0.002": 32.5575276098,
			"0.003": 16.9069531786,
			"0.004": 14.7113081763,
			"0.005": 8.9644746856,
			"0.006": 8.53319353166,
			"0.007": 11.0886884645,
			"0.008": 16.9671833134,
			"0.009": 15.5434582184,
			"0.01": 9.89177152831,
			"0.011": 5.52950202817,
			"0.012": 1.12454165268,
			"0.013": 1.06894668025,
			"0.014": 0.904713702357,
			"0.015": 0.0700037571673,
			"0.016": 0.0,
			"0.017": 0.0,
			"0.018": 0.0,
			"0.019": 0.0,
			"0.02": 0.0,
			"0.021": 0.0,
			"0.022": 0.0,
			"0.023": 0.0,
			"0.024": 0.0,
			"0.025": 0.0
		}
	}
}
