{
	 "smiles": "ClC(=O)C1=CC(Cl)=CC(Cl)=C1", 
	 "Tm": 313.15, 
	 "num_atms": 14, 
	 "gaussian": { 
		 "optdone": 1, 
		 "sigma_profile": "yes", 
		 "theory": "DFT", 
		 "functional": "B3LYP", 
		 "basiset": "6-31G**", 
		 "properties": { 
			 "R2extent": 4850.0293, 
			 "electric_dipole_moment_norm": 2.07901341266, 
			 "electric_quadrupole_moment_norm": 8.51931660522, 
			 "total_energy": -1724.35818338, 
			 "HOMO_LUMO_gap": 0.17804, 
			 "cosmo_polarized_energy": -5.26, 
			 "cosmo_cavitation_energy": 24.81, 
			 "cosmo_dispersion_energy": -18.57, 
			 "cosmo_repulsion_energy": 1.5, 
			 "cosmo_total_nonelectrostatic_energy": 7.74, 
			 "SMD_solvation_energy": 4.31 
		},
		"coords": [
			{
				"x": -3.1452630362,
				"y": -0.5967240899,
				"z": 3.576896445,
				"element": "Cl" 
			},
			{
				"x": -1.3756928276,
				"y": -0.3555739508,
				"z": 3.2305975975,
				"element": "C" 
			},
			{
				"x": -0.732976801,
				"y": 0.3541426741,
				"z": 3.9437126344,
				"element": "O" 
			},
			{
				"x": -0.8511032939,
				"y": -1.087464801,
				"z": 2.0445538655,
				"element": "C" 
			},
			{
				"x": 0.5140473147,
				"y": -0.9066501511,
				"z": 1.7704315505,
				"element": "C" 
			},
			{
				"x": 1.073304681,
				"y": -1.5592354677,
				"z": 0.6781928642,
				"element": "C" 
			},
			{
				"x": 2.7736403674,
				"y": -1.3450866547,
				"z": 0.3218618425,
				"element": "Cl" 
			},
			{
				"x": 0.3077223772,
				"y": -2.3861878041,
				"z": -0.1465473647,
				"element": "C" 
			},
			{
				"x": -1.0459998644,
				"y": -2.5489497882,
				"z": 0.1475757799,
				"element": "C" 
			},
			{
				"x": -2.0185079876,
				"y": -3.5826320986,
				"z": -0.8774661094,
				"element": "Cl" 
			},
			{
				"x": -1.6404972587,
				"y": -1.9108748423,
				"z": 1.2336382425,
				"element": "C" 
			},
			{
				"x": 1.110892867,
				"y": -0.2661965667,
				"z": 2.407677429,
				"element": "H" 
			},
			{
				"x": 0.7548150454,
				"y": -2.889582151,
				"z": -0.9950330266,
				"element": "H" 
			},
			{
				"x": -2.6923815833,
				"y": -2.051884308,
				"z": 1.4426082497,
				"element": "H" 
			}
		],
		 "valence_orbital": [ 
			{
				"type": "occ",
				"energy": -0.33401,
				"method": "rhf"
			},
			{
				"type": "occ",
				"energy": -0.33259,
				"method": "rhf"
			},
			{
				"type": "occ",
				"energy": -0.30869,
				"method": "rhf"
			},
			{
				"type": "occ",
				"energy": -0.29058,
				"method": "rhf"
			},
			{
				"type": "occ",
				"energy": -0.27525,
				"method": "rhf"
			},
			{
				"type": "unocc",
				"energy": -0.09721,
				"method": "rhf"
			},
			{
				"type": "unocc",
				"energy": -0.0477,
				"method": "rhf"
			},
			{
				"type": "unocc",
				"energy": -0.0149,
				"method": "rhf"
			},
			{
				"type": "unocc",
				"energy": 0.00396,
				"method": "rhf"
			},
			{
				"type": "unocc",
				"energy": 0.01048,
				"method": "rhf"
			}
		],
		"cosmo_sigma_profile": { 
			"-0.025": 0.0,
			"-0.024": 0.0,
			"-0.023": 0.0,
			"-0.022": 0.0,
			"-0.021": 0.0,
			"-0.02": 0.0,
			"-0.019": 0.0,
			"-0.018": 0.0,
			"-0.017": 0.0,
			"-0.016": 0.0,
			"-0.015": 0.0,
			"-0.014": 0.0,
			"-0.013": 0.0,
			"-0.012": 0.0,
			"-0.011": 0.0,
			"-0.01": 0.518529820925,
			"-0.009": 1.57047358657,
			"-0.008": 3.03777053754,
			"-0.007": 4.22187120192,
			"-0.006": 5.30773698323,
			"-0.005": 7.66965542839,
			"-0.004": 10.4766661501,
			"-0.003": 13.4134006879,
			"-0.002": 20.7975786068,
			"-0.001": 31.3781730565,
			"0.0": 20.4655989483,
			"0.001": 13.3850714487,
			"0.002": 17.2992226294,
			"0.003": 25.7711133023,
			"0.004": 17.8802926138,
			"0.005": 3.47576523807,
			"0.006": 2.47597611768,
			"0.007": 2.87015778621,
			"0.008": 4.05958455621,
			"0.009": 1.48595158163,
			"0.01": 0.0227432667156,
			"0.011": 0.0,
			"0.012": 0.0,
			"0.013": 0.0,
			"0.014": 0.0,
			"0.015": 0.0,
			"0.016": 0.0,
			"0.017": 0.0,
			"0.018": 0.0,
			"0.019": 0.0,
			"0.02": 0.0,
			"0.021": 0.0,
			"0.022": 0.0,
			"0.023": 0.0,
			"0.024": 0.0,
			"0.025": 0.0
		}
	}
}
