{
	 "smiles": "NC1=CC(=NO1)C1=C(Cl)C=CC=C1", 
	 "Tm": 343.15, 
	 "num_atms": 20, 
	 "gaussian": { 
		 "optdone": 1, 
		 "sigma_profile": "yes", 
		 "theory": "DFT", 
		 "functional": "B3LYP", 
		 "basiset": "6-31G**", 
		 "properties": { 
			 "R2extent": 3141.7164, 
			 "electric_dipole_moment_norm": 2.07680713115, 
			 "electric_quadrupole_moment_norm": 20.3194399113, 
			 "total_energy": -992.045315288, 
			 "HOMO_LUMO_gap": 0.18477, 
			 "cosmo_polarized_energy": -13.23, 
			 "cosmo_cavitation_energy": 26.43, 
			 "cosmo_dispersion_energy": -19.86, 
			 "cosmo_repulsion_energy": 1.57, 
			 "cosmo_total_nonelectrostatic_energy": 8.14, 
			 "SMD_solvation_energy": 4.36 
		},
		"coords": [
			{
				"x": -3.7396805049,
				"y": -0.7120559343,
				"z": 1.2020057385,
				"element": "N" 
			},
			{
				"x": -2.4636784265,
				"y": -0.3015682284,
				"z": 0.8993737662,
				"element": "C" 
			},
			{
				"x": -1.8527052914,
				"y": 0.0986429846,
				"z": -0.2592111164,
				"element": "C" 
			},
			{
				"x": -0.5421908041,
				"y": 0.4606994687,
				"z": 0.1678249656,
				"element": "C" 
			},
			{
				"x": -0.3752573972,
				"y": 0.2905937311,
				"z": 1.4690485007,
				"element": "N" 
			},
			{
				"x": -1.612429612,
				"y": -0.202006152,
				"z": 1.9352599249,
				"element": "O" 
			},
			{
				"x": 0.5810218707,
				"y": 1.0443102799,
				"z": -0.5980840463,
				"element": "C" 
			},
			{
				"x": 0.9032214688,
				"y": 0.7217897512,
				"z": -1.9277438703,
				"element": "C" 
			},
			{
				"x": -0.0042332991,
				"y": -0.487457607,
				"z": -2.8350572122,
				"element": "Cl" 
			},
			{
				"x": 1.9800063534,
				"y": 1.3199767153,
				"z": -2.5841258751,
				"element": "C" 
			},
			{
				"x": 2.7680235252,
				"y": 2.2549142335,
				"z": -1.9171443875,
				"element": "C" 
			},
			{
				"x": 2.4790293498,
				"y": 2.5859703437,
				"z": -0.5924265735,
				"element": "C" 
			},
			{
				"x": 1.3998669663,
				"y": 1.9891892147,
				"z": 0.0497926006,
				"element": "C" 
			},
			{
				"x": -4.2419151163,
				"y": -1.1434698998,
				"z": 0.4395491899,
				"element": "H" 
			},
			{
				"x": -3.8196437285,
				"y": -1.2200388435,
				"z": 2.0729038577,
				"element": "H" 
			},
			{
				"x": -2.2722756041,
				"y": 0.1460849543,
				"z": -1.2491967089,
				"element": "H" 
			},
			{
				"x": 2.1954977851,
				"y": 1.0413433949,
				"z": -3.6095638466,
				"element": "H" 
			},
			{
				"x": 3.6030453796,
				"y": 2.7185130269,
				"z": -2.4337100368,
				"element": "H" 
			},
			{
				"x": 3.0875991556,
				"y": 3.3122134985,
				"z": -0.0626151912,
				"element": "H" 
			},
			{
				"x": 1.1594979293,
				"y": 2.2424550676,
				"z": 1.0762203208,
				"element": "H" 
			}
		],
		 "valence_orbital": [ 
			{
				"type": "occ",
				"energy": -0.30247,
				"method": "rhf"
			},
			{
				"type": "occ",
				"energy": -0.29751,
				"method": "rhf"
			},
			{
				"type": "occ",
				"energy": -0.25281,
				"method": "rhf"
			},
			{
				"type": "occ",
				"energy": -0.2432,
				"method": "rhf"
			},
			{
				"type": "occ",
				"energy": -0.2183,
				"method": "rhf"
			},
			{
				"type": "unocc",
				"energy": -0.03353,
				"method": "rhf"
			},
			{
				"type": "unocc",
				"energy": -0.01234,
				"method": "rhf"
			},
			{
				"type": "unocc",
				"energy": 0.02271,
				"method": "rhf"
			},
			{
				"type": "unocc",
				"energy": 0.02966,
				"method": "rhf"
			},
			{
				"type": "unocc",
				"energy": 0.06338,
				"method": "rhf"
			}
		],
		"cosmo_sigma_profile": { 
			"-0.025": 0.0,
			"-0.024": 0.0,
			"-0.023": 0.0,
			"-0.022": 0.0,
			"-0.021": 0.0,
			"-0.02": 0.0,
			"-0.019": 0.0,
			"-0.018": 0.0,
			"-0.017": 0.0,
			"-0.016": 0.0,
			"-0.015": 0.696348615333,
			"-0.014": 2.96498786041,
			"-0.013": 2.74939539858,
			"-0.012": 2.60722402481,
			"-0.011": 2.35676061621,
			"-0.01": 2.85762846281,
			"-0.009": 2.08285523387,
			"-0.008": 1.97196122812,
			"-0.007": 6.62718650783,
			"-0.006": 11.5368615501,
			"-0.005": 9.94572787154,
			"-0.004": 10.194650309,
			"-0.003": 9.69608592454,
			"-0.002": 8.86157729224,
			"-0.001": 10.4339845141,
			"0.0": 12.966595999,
			"0.001": 19.4245735546,
			"0.002": 21.3985778385,
			"0.003": 24.0704981601,
			"0.004": 17.8801546399,
			"0.005": 8.45896640088,
			"0.006": 3.66192354262,
			"0.007": 2.62928814577,
			"0.008": 6.58490015387,
			"0.009": 3.66507882975,
			"0.01": 1.76985892215,
			"0.011": 1.94027444916,
			"0.012": 1.76251202583,
			"0.013": 1.01110787659,
			"0.014": 1.08739527866,
			"0.015": 0.405769459174,
			"0.016": 0.0,
			"0.017": 0.0,
			"0.018": 0.0,
			"0.019": 0.0,
			"0.02": 0.0,
			"0.021": 0.0,
			"0.022": 0.0,
			"0.023": 0.0,
			"0.024": 0.0,
			"0.025": 0.0
		}
	}
}
