{
	 "smiles": "NC1=NC=NC=N1", 
	 "Tm": 495.15, 
	 "num_atms": 11, 
	 "gaussian": { 
		 "optdone": 1, 
		 "sigma_profile": "yes", 
		 "theory": "DFT", 
		 "functional": "B3LYP", 
		 "basiset": "6-31G**", 
		 "properties": { 
			 "R2extent": 822.6103, 
			 "electric_dipole_moment_norm": 2.64574802088, 
			 "electric_quadrupole_moment_norm": 3.86024346253, 
			 "total_energy": -335.744259846, 
			 "HOMO_LUMO_gap": 0.21737, 
			 "cosmo_polarized_energy": -10.26, 
			 "cosmo_cavitation_energy": 15.46, 
			 "cosmo_dispersion_energy": -12.01, 
			 "cosmo_repulsion_energy": 1.02, 
			 "cosmo_total_nonelectrostatic_energy": 4.47, 
			 "SMD_solvation_energy": -1.4 
		},
		"coords": [
			{
				"x": -1.7497871202,
				"y": -0.5792229027,
				"z": -0.6007043611,
				"element": "N" 
			},
			{
				"x": -0.4122128509,
				"y": -0.5546632187,
				"z": -0.780675137,
				"element": "C" 
			},
			{
				"x": 0.3241631744,
				"y": 0.131510797,
				"z": 0.1212180869,
				"element": "N" 
			},
			{
				"x": 1.6305176168,
				"y": 0.1102123278,
				"z": -0.1223675395,
				"element": "C" 
			},
			{
				"x": 2.2490939403,
				"y": -0.5054072689,
				"z": -1.1389930016,
				"element": "N" 
			},
			{
				"x": 1.4065420048,
				"y": -1.1481364957,
				"z": -1.958849214,
				"element": "C" 
			},
			{
				"x": 0.0839431039,
				"y": -1.2181117527,
				"z": -1.8484556587,
				"element": "N" 
			},
			{
				"x": -2.1512833803,
				"y": -0.0962702316,
				"z": 0.1853663799,
				"element": "H" 
			},
			{
				"x": -2.326812308,
				"y": -1.0822666012,
				"z": -1.2536497151,
				"element": "H" 
			},
			{
				"x": 2.2631555806,
				"y": 0.651336266,
				"z": 0.5804401507,
				"element": "H" 
			},
			{
				"x": 1.8500802386,
				"y": -1.6693809192,
				"z": -2.8065299905,
				"element": "H" 
			}
		],
		 "valence_orbital": [ 
			{
				"type": "occ",
				"energy": -0.36193,
				"method": "rhf"
			},
			{
				"type": "occ",
				"energy": -0.32226,
				"method": "rhf"
			},
			{
				"type": "occ",
				"energy": -0.26538,
				"method": "rhf"
			},
			{
				"type": "occ",
				"energy": -0.26333,
				"method": "rhf"
			},
			{
				"type": "occ",
				"energy": -0.25534,
				"method": "rhf"
			},
			{
				"type": "unocc",
				"energy": -0.03797,
				"method": "rhf"
			},
			{
				"type": "unocc",
				"energy": -0.01386,
				"method": "rhf"
			},
			{
				"type": "unocc",
				"energy": 0.07984,
				"method": "rhf"
			},
			{
				"type": "unocc",
				"energy": 0.12375,
				"method": "rhf"
			},
			{
				"type": "unocc",
				"energy": 0.13101,
				"method": "rhf"
			}
		],
		"cosmo_sigma_profile": { 
			"-0.025": 0.0,
			"-0.024": 0.0,
			"-0.023": 0.0,
			"-0.022": 0.0,
			"-0.021": 0.0,
			"-0.02": 0.0,
			"-0.019": 0.0,
			"-0.018": 0.0,
			"-0.017": 0.0,
			"-0.016": 0.0,
			"-0.015": 1.02700954439,
			"-0.014": 2.35585346119,
			"-0.013": 2.29179418235,
			"-0.012": 1.7793626933,
			"-0.011": 1.80480157138,
			"-0.01": 1.8555460418,
			"-0.009": 2.35321829815,
			"-0.008": 4.52981657455,
			"-0.007": 5.20319946697,
			"-0.006": 4.5657761053,
			"-0.005": 4.01864636854,
			"-0.004": 4.50969412856,
			"-0.003": 6.86656405357,
			"-0.002": 7.92813907398,
			"-0.001": 9.46973929794,
			"0.0": 8.31337763074,
			"0.001": 7.27041058186,
			"0.002": 7.11986263745,
			"0.003": 7.11787991528,
			"0.004": 3.81211440907,
			"0.005": 3.38594727512,
			"0.006": 3.82508705644,
			"0.007": 3.1120967121,
			"0.008": 2.53657293932,
			"0.009": 2.51422883339,
			"0.01": 2.59004393177,
			"0.011": 3.78212211042,
			"0.012": 1.87279025178,
			"0.013": 2.4012165616,
			"0.014": 2.42616631038,
			"0.015": 1.08256611325,
			"0.016": 0.436529642048,
			"0.017": 0.0,
			"0.018": 0.0,
			"0.019": 0.0,
			"0.02": 0.0,
			"0.021": 0.0,
			"0.022": 0.0,
			"0.023": 0.0,
			"0.024": 0.0,
			"0.025": 0.0
		}
	}
}
