{
	 "smiles": "NNC(=O)C1=C2C=CC=CC2=NC(=C1)C1=CC=CC=C1", 
	 "Tm": 310.15, 
	 "num_atms": 33, 
	 "gaussian": { 
		 "optdone": 1, 
		 "sigma_profile": "yes", 
		 "theory": "DFT", 
		 "functional": "B3LYP", 
		 "basiset": "6-31G**", 
		 "properties": { 
			 "R2extent": 6243.0841, 
			 "electric_dipole_moment_norm": 2.59846042302, 
			 "electric_quadrupole_moment_norm": 16.7708040269, 
			 "total_energy": -857.006186539, 
			 "HOMO_LUMO_gap": 0.15627, 
			 "cosmo_polarized_energy": -16.45, 
			 "cosmo_cavitation_energy": 37.1, 
			 "cosmo_dispersion_energy": -26.71, 
			 "cosmo_repulsion_energy": 2.03, 
			 "cosmo_total_nonelectrostatic_energy": 12.42, 
			 "SMD_solvation_energy": 5.96 
		},
		"coords": [
			{
				"x": 0.1228115657,
				"y": 3.9266628265,
				"z": 0.8826754502,
				"element": "N" 
			},
			{
				"x": 0.8472997039,
				"y": 3.6545348542,
				"z": -0.2949787378,
				"element": "N" 
			},
			{
				"x": 1.105265777,
				"y": 2.4092656793,
				"z": -0.8231112469,
				"element": "C" 
			},
			{
				"x": 2.0224068258,
				"y": 2.2298476029,
				"z": -1.6123947398,
				"element": "O" 
			},
			{
				"x": 0.2137651148,
				"y": 1.2755696515,
				"z": -0.3721952275,
				"element": "C" 
			},
			{
				"x": -1.2073163118,
				"y": 1.2797914672,
				"z": -0.5224379158,
				"element": "C" 
			},
			{
				"x": -1.9537942315,
				"y": 2.3413482922,
				"z": -1.1017850989,
				"element": "C" 
			},
			{
				"x": -3.3245445814,
				"y": 2.2523630612,
				"z": -1.2180516609,
				"element": "C" 
			},
			{
				"x": -4.0113369313,
				"y": 1.0995550093,
				"z": -0.7652743236,
				"element": "C" 
			},
			{
				"x": -3.3147457787,
				"y": 0.0484505887,
				"z": -0.2147046941,
				"element": "C" 
			},
			{
				"x": -1.8997892142,
				"y": 0.1043203463,
				"z": -0.0845901206,
				"element": "C" 
			},
			{
				"x": -1.2683937399,
				"y": -0.9719393655,
				"z": 0.4553413846,
				"element": "N" 
			},
			{
				"x": 0.0529766474,
				"y": -0.964110164,
				"z": 0.5627354145,
				"element": "C" 
			},
			{
				"x": 0.828566556,
				"y": 0.1515729974,
				"z": 0.1307626582,
				"element": "C" 
			},
			{
				"x": 0.6946187096,
				"y": -2.1745257545,
				"z": 1.1431957145,
				"element": "C" 
			},
			{
				"x": 2.0145046315,
				"y": -2.1618839827,
				"z": 1.6237819855,
				"element": "C" 
			},
			{
				"x": 2.5883445253,
				"y": -3.3132988329,
				"z": 2.1618359233,
				"element": "C" 
			},
			{
				"x": 1.8546122824,
				"y": -4.498340071,
				"z": 2.2288952407,
				"element": "C" 
			},
			{
				"x": 0.5385164779,
				"y": -4.5215154957,
				"z": 1.7594862733,
				"element": "C" 
			},
			{
				"x": -0.0366553559,
				"y": -3.3722233974,
				"z": 1.2251522598,
				"element": "C" 
			},
			{
				"x": -0.8732331283,
				"y": 3.8507443731,
				"z": 0.6925415093,
				"element": "H" 
			},
			{
				"x": 0.3579483239,
				"y": 3.2489636032,
				"z": 1.6042684864,
				"element": "H" 
			},
			{
				"x": 1.5297129316,
				"y": 4.3611931608,
				"z": -0.542423472,
				"element": "H" 
			},
			{
				"x": -1.4294578408,
				"y": 3.2153257015,
				"z": -1.477542399,
				"element": "H" 
			},
			{
				"x": -3.8823328252,
				"y": 3.0682492704,
				"z": -1.6680795161,
				"element": "H" 
			},
			{
				"x": -5.0916370848,
				"y": 1.045921474,
				"z": -0.8626927627,
				"element": "H" 
			},
			{
				"x": -3.8119294173,
				"y": -0.8521803811,
				"z": 0.130204361,
				"element": "H" 
			},
			{
				"x": 1.9107086203,
				"y": 0.123951392,
				"z": 0.1733678868,
				"element": "H" 
			},
			{
				"x": 2.5986518528,
				"y": -1.247699486,
				"z": 1.6013361125,
				"element": "H" 
			},
			{
				"x": 3.6087390667,
				"y": -3.2815461763,
				"z": 2.5327263709,
				"element": "H" 
			},
			{
				"x": 2.3032247874,
				"y": -5.3956071351,
				"z": 2.6454598143,
				"element": "H" 
			},
			{
				"x": -0.0400603874,
				"y": -5.439689461,
				"z": 1.8082105019,
				"element": "H" 
			},
			{
				"x": -1.0577475715,
				"y": -3.3775716485,
				"z": 0.8614845681,
				"element": "H" 
			}
		],
		 "valence_orbital": [ 
			{
				"type": "occ",
				"energy": -0.26585,
				"method": "rhf"
			},
			{
				"type": "occ",
				"energy": -0.25438,
				"method": "rhf"
			},
			{
				"type": "occ",
				"energy": -0.25272,
				"method": "rhf"
			},
			{
				"type": "occ",
				"energy": -0.24242,
				"method": "rhf"
			},
			{
				"type": "occ",
				"energy": -0.22876,
				"method": "rhf"
			},
			{
				"type": "unocc",
				"energy": -0.07249,
				"method": "rhf"
			},
			{
				"type": "unocc",
				"energy": -0.03857,
				"method": "rhf"
			},
			{
				"type": "unocc",
				"energy": -0.00781,
				"method": "rhf"
			},
			{
				"type": "unocc",
				"energy": -0.00121,
				"method": "rhf"
			},
			{
				"type": "unocc",
				"energy": 0.00723,
				"method": "rhf"
			}
		],
		"cosmo_sigma_profile": { 
			"-0.025": 0.0,
			"-0.024": 0.0,
			"-0.023": 0.0,
			"-0.022": 0.0,
			"-0.021": 0.0,
			"-0.02": 0.0,
			"-0.019": 0.0,
			"-0.018": 0.0,
			"-0.017": 0.0,
			"-0.016": 0.0,
			"-0.015": 0.0,
			"-0.014": 0.43004098399,
			"-0.013": 1.30278600992,
			"-0.012": 1.43049422706,
			"-0.011": 2.50601963397,
			"-0.01": 3.03957672495,
			"-0.009": 4.29063570997,
			"-0.008": 5.35779076752,
			"-0.007": 7.21799393942,
			"-0.006": 16.9434860687,
			"-0.005": 22.4754807589,
			"-0.004": 22.2461372563,
			"-0.003": 18.974888987,
			"-0.002": 17.3017539181,
			"-0.001": 15.3983940269,
			"0.0": 20.2814798639,
			"0.001": 23.6092632419,
			"0.002": 22.0401973075,
			"0.003": 22.7870752384,
			"0.004": 20.2708207505,
			"0.005": 14.3014176132,
			"0.006": 5.3026358952,
			"0.007": 4.09129371748,
			"0.008": 3.55098790194,
			"0.009": 3.60151934175,
			"0.01": 2.84263760724,
			"0.011": 2.66750523055,
			"0.012": 5.10864547047,
			"0.013": 5.57085961233,
			"0.014": 1.72187175736,
			"0.015": 0.55128642776,
			"0.016": 0.306039489784,
			"0.017": 0.0,
			"0.018": 0.0,
			"0.019": 0.0,
			"0.02": 0.0,
			"0.021": 0.0,
			"0.022": 0.0,
			"0.023": 0.0,
			"0.024": 0.0,
			"0.025": 0.0
		}
	}
}
