{
	 "smiles": "NC1=CC(Cl)=C(OCC(F)(F)F)C(Cl)=C1", 
	 "Tm": 363.15, 
	 "num_atms": 21, 
	 "gaussian": { 
		 "optdone": 1, 
		 "sigma_profile": "yes", 
		 "theory": "DFT", 
		 "functional": "B3LYP", 
		 "basiset": "6-31G**", 
		 "properties": { 
			 "R2extent": 5146.947, 
			 "electric_dipole_moment_norm": 5.97156626858, 
			 "electric_quadrupole_moment_norm": 7.54470683857, 
			 "total_energy": -1658.33536142, 
			 "HOMO_LUMO_gap": 0.19492, 
			 "cosmo_polarized_energy": -12.44, 
			 "cosmo_cavitation_energy": 30.92, 
			 "cosmo_dispersion_energy": -21.57, 
			 "cosmo_repulsion_energy": 1.64, 
			 "cosmo_total_nonelectrostatic_energy": 11.0, 
			 "SMD_solvation_energy": 6.07 
		},
		"coords": [
			{
				"x": 3.727514759,
				"y": 0.7447621737,
				"z": -0.6169713864,
				"element": "N" 
			},
			{
				"x": 2.342419257,
				"y": 0.7720401409,
				"z": -0.5042288695,
				"element": "C" 
			},
			{
				"x": 1.7172539361,
				"y": 1.6321252157,
				"z": 0.4141243662,
				"element": "C" 
			},
			{
				"x": 0.3296906553,
				"y": 1.6932874883,
				"z": 0.4760104423,
				"element": "C" 
			},
			{
				"x": -0.421157668,
				"y": 2.7790478492,
				"z": 1.6267942464,
				"element": "Cl" 
			},
			{
				"x": -0.4896496216,
				"y": 0.917196202,
				"z": -0.3572878365,
				"element": "C" 
			},
			{
				"x": -1.8547655195,
				"y": 1.0374030691,
				"z": -0.3333809883,
				"element": "O" 
			},
			{
				"x": -2.521754195,
				"y": 0.1542224848,
				"z": 0.5595390753,
				"element": "C" 
			},
			{
				"x": -4.0097845922,
				"y": 0.4316761007,
				"z": 0.4537808319,
				"element": "C" 
			},
			{
				"x": -4.6673786803,
				"y": -0.3986732206,
				"z": 1.295690941,
				"element": "F" 
			},
			{
				"x": -4.311030106,
				"y": 1.6949847304,
				"z": 0.7975577625,
				"element": "F" 
			},
			{
				"x": -4.4741382421,
				"y": 0.2161920944,
				"z": -0.7883184415,
				"element": "F" 
			},
			{
				"x": 0.1558575877,
				"y": 0.0647842311,
				"z": -1.2654174331,
				"element": "C" 
			},
			{
				"x": -0.816570264,
				"y": -0.9249946009,
				"z": -2.3339107142,
				"element": "Cl" 
			},
			{
				"x": 1.5413673492,
				"y": -0.0156169302,
				"z": -1.347961838,
				"element": "C" 
			},
			{
				"x": 4.1215108626,
				"y": -0.0875400383,
				"z": -1.0315558734,
				"element": "H" 
			},
			{
				"x": 4.243707777,
				"y": 1.0575267316,
				"z": 0.1926980857,
				"element": "H" 
			},
			{
				"x": 2.3088193194,
				"y": 2.2588188926,
				"z": 1.072699586,
				"element": "H" 
			},
			{
				"x": -2.3481183675,
				"y": -0.8939853124,
				"z": 0.2919131847,
				"element": "H" 
			},
			{
				"x": -2.2139143356,
				"y": 0.3243239886,
				"z": 1.5972289087,
				"element": "H" 
			},
			{
				"x": 1.9948200884,
				"y": -0.6827812907,
				"z": -2.0730040498,
				"element": "H" 
			}
		],
		 "valence_orbital": [ 
			{
				"type": "occ",
				"energy": -0.31754,
				"method": "rhf"
			},
			{
				"type": "occ",
				"energy": -0.29876,
				"method": "rhf"
			},
			{
				"type": "occ",
				"energy": -0.29683,
				"method": "rhf"
			},
			{
				"type": "occ",
				"energy": -0.25533,
				"method": "rhf"
			},
			{
				"type": "occ",
				"energy": -0.22275,
				"method": "rhf"
			},
			{
				"type": "unocc",
				"energy": -0.02783,
				"method": "rhf"
			},
			{
				"type": "unocc",
				"energy": -0.0088,
				"method": "rhf"
			},
			{
				"type": "unocc",
				"energy": 0.00165,
				"method": "rhf"
			},
			{
				"type": "unocc",
				"energy": 0.04664,
				"method": "rhf"
			},
			{
				"type": "unocc",
				"energy": 0.0618,
				"method": "rhf"
			}
		],
		"cosmo_sigma_profile": { 
			"-0.025": 0.0,
			"-0.024": 0.0,
			"-0.023": 0.0,
			"-0.022": 0.0,
			"-0.021": 0.0,
			"-0.02": 0.0,
			"-0.019": 0.0,
			"-0.018": 0.0,
			"-0.017": 0.0,
			"-0.016": 0.0,
			"-0.015": 0.0,
			"-0.014": 0.222570400096,
			"-0.013": 3.26708505106,
			"-0.012": 2.72494986599,
			"-0.011": 3.61263418126,
			"-0.01": 3.7500896005,
			"-0.009": 3.57006534919,
			"-0.008": 6.51229828352,
			"-0.007": 8.75840894644,
			"-0.006": 8.71146265941,
			"-0.005": 7.24037094896,
			"-0.004": 6.41233532471,
			"-0.003": 8.06731135713,
			"-0.002": 10.700726335,
			"-0.001": 11.243942992,
			"0.0": 13.7442945622,
			"0.001": 25.1036774251,
			"0.002": 42.1057221886,
			"0.003": 43.7842090703,
			"0.004": 19.0178500134,
			"0.005": 9.21889732446,
			"0.006": 3.98801838024,
			"0.007": 3.23724504904,
			"0.008": 3.0390940497,
			"0.009": 1.29014861204,
			"0.01": 0.240452478093,
			"0.011": 0.865480872936,
			"0.012": 0.438720354195,
			"0.013": 0.515859684318,
			"0.014": 0.0,
			"0.015": 0.0,
			"0.016": 0.0,
			"0.017": 0.0,
			"0.018": 0.0,
			"0.019": 0.0,
			"0.02": 0.0,
			"0.021": 0.0,
			"0.022": 0.0,
			"0.023": 0.0,
			"0.024": 0.0,
			"0.025": 0.0
		}
	}
}
