{
	 "smiles": "[O-][N+](=O)C1=CNN=C1", 
	 "Tm": 434.15, 
	 "num_atms": 11, 
	 "gaussian": { 
		 "optdone": 1, 
		 "sigma_profile": "yes", 
		 "theory": "DFT", 
		 "functional": "B3LYP", 
		 "basiset": "6-31G**", 
		 "properties": { 
			 "R2extent": 1660.6947, 
			 "electric_dipole_moment_norm": 4.71025190091, 
			 "electric_quadrupole_moment_norm": 17.9973981153, 
			 "total_energy": -430.694968282, 
			 "HOMO_LUMO_gap": 0.20561, 
			 "cosmo_polarized_energy": -14.25, 
			 "cosmo_cavitation_energy": 16.54, 
			 "cosmo_dispersion_energy": -12.4, 
			 "cosmo_repulsion_energy": 1.04, 
			 "cosmo_total_nonelectrostatic_energy": 5.19, 
			 "SMD_solvation_energy": 4.97 
		},
		"coords": [
			{
				"x": -0.9670068116,
				"y": 2.8287546129,
				"z": 2.3822782682,
				"element": "O" 
			},
			{
				"x": -0.3437030079,
				"y": 1.7661524413,
				"z": 2.4542584716,
				"element": "N" 
			},
			{
				"x": 0.6648899146,
				"y": 1.5740034081,
				"z": 3.1354667245,
				"element": "O" 
			},
			{
				"x": -0.8309960562,
				"y": 0.6637041973,
				"z": 1.6827070546,
				"element": "C" 
			},
			{
				"x": -1.942997312,
				"y": 0.6782155858,
				"z": 0.8583028169,
				"element": "C" 
			},
			{
				"x": -2.0069870866,
				"y": -0.5677984984,
				"z": 0.3495553421,
				"element": "N" 
			},
			{
				"x": -1.0174578343,
				"y": -1.3923815695,
				"z": 0.7827323009,
				"element": "N" 
			},
			{
				"x": -0.2933708703,
				"y": -0.6413581335,
				"z": 1.6010129615,
				"element": "C" 
			},
			{
				"x": -2.6439562072,
				"y": 1.4644482855,
				"z": 0.6261793486,
				"element": "H" 
			},
			{
				"x": -2.6920544606,
				"y": -0.9315006326,
				"z": -0.296168071,
				"element": "H" 
			},
			{
				"x": 0.5767397321,
				"y": -1.0351396968,
				"z": 2.1045747821,
				"element": "H" 
			}
		],
		 "valence_orbital": [ 
			{
				"type": "occ",
				"energy": -0.30872,
				"method": "rhf"
			},
			{
				"type": "occ",
				"energy": -0.30395,
				"method": "rhf"
			},
			{
				"type": "occ",
				"energy": -0.29822,
				"method": "rhf"
			},
			{
				"type": "occ",
				"energy": -0.28935,
				"method": "rhf"
			},
			{
				"type": "occ",
				"energy": -0.28725,
				"method": "rhf"
			},
			{
				"type": "unocc",
				"energy": -0.08164,
				"method": "rhf"
			},
			{
				"type": "unocc",
				"energy": -0.01292,
				"method": "rhf"
			},
			{
				"type": "unocc",
				"energy": 0.04989,
				"method": "rhf"
			},
			{
				"type": "unocc",
				"energy": 0.06692,
				"method": "rhf"
			},
			{
				"type": "unocc",
				"energy": 0.10943,
				"method": "rhf"
			}
		],
		"cosmo_sigma_profile": { 
			"-0.025": 0.0,
			"-0.024": 0.0,
			"-0.023": 0.0,
			"-0.022": 0.0,
			"-0.021": 0.0,
			"-0.02": 0.0,
			"-0.019": 0.170947948357,
			"-0.018": 1.8754372988,
			"-0.017": 1.57143482121,
			"-0.016": 1.3346290725,
			"-0.015": 1.29132130951,
			"-0.014": 1.21168178516,
			"-0.013": 0.934980902552,
			"-0.012": 2.0871740301,
			"-0.011": 2.81141650725,
			"-0.01": 2.39522603093,
			"-0.009": 3.29460479473,
			"-0.008": 3.18143520529,
			"-0.007": 2.55989824303,
			"-0.006": 3.17527536434,
			"-0.005": 4.47152174638,
			"-0.004": 5.44812510962,
			"-0.003": 6.09394033415,
			"-0.002": 8.13798216398,
			"-0.001": 12.3244604896,
			"0.0": 7.75119018381,
			"0.001": 5.42622229935,
			"0.002": 4.23382599635,
			"0.003": 3.94344409511,
			"0.004": 4.03618384799,
			"0.005": 4.1627456676,
			"0.006": 5.01131545817,
			"0.007": 6.44750501723,
			"0.008": 12.4398997507,
			"0.009": 6.32781344679,
			"0.01": 4.07044656163,
			"0.011": 2.14790228756,
			"0.012": 0.97638063991,
			"0.013": 1.07323225421,
			"0.014": 0.786088426126,
			"0.015": 0.0,
			"0.016": 0.0,
			"0.017": 0.0,
			"0.018": 0.0,
			"0.019": 0.0,
			"0.02": 0.0,
			"0.021": 0.0,
			"0.022": 0.0,
			"0.023": 0.0,
			"0.024": 0.0,
			"0.025": 0.0
		}
	}
}
