{
	 "smiles": "ClC1=C(CC#N)C=C2C=CC=CC2=N1", 
	 "Tm": 402.15, 
	 "num_atms": 21, 
	 "gaussian": { 
		 "optdone": 1, 
		 "sigma_profile": "yes", 
		 "theory": "DFT", 
		 "functional": "B3LYP", 
		 "basiset": "6-31G**", 
		 "properties": { 
			 "R2extent": 3960.0535, 
			 "electric_dipole_moment_norm": 5.69771971231, 
			 "electric_quadrupole_moment_norm": 10.5268418797, 
			 "total_energy": -993.074806946, 
			 "HOMO_LUMO_gap": 0.17701, 
			 "cosmo_polarized_energy": -14.47, 
			 "cosmo_cavitation_energy": 28.27, 
			 "cosmo_dispersion_energy": -20.23, 
			 "cosmo_repulsion_energy": 1.58, 
			 "cosmo_total_nonelectrostatic_energy": 9.62, 
			 "SMD_solvation_energy": 4.28 
		},
		"coords": [
			{
				"x": -1.5677978586,
				"y": -3.0012955724,
				"z": -1.5244643071,
				"element": "Cl" 
			},
			{
				"x": -0.9853730878,
				"y": -1.3329682503,
				"z": -1.4793434126,
				"element": "C" 
			},
			{
				"x": 0.4253184168,
				"y": -1.1068871483,
				"z": -1.5363058472,
				"element": "C" 
			},
			{
				"x": 1.4348123965,
				"y": -2.2365960127,
				"z": -1.6300515722,
				"element": "C" 
			},
			{
				"x": 1.7109994811,
				"y": -2.8704849245,
				"z": -0.3329454173,
				"element": "C" 
			},
			{
				"x": 1.9438685516,
				"y": -3.3572451788,
				"z": 0.6941843165,
				"element": "N" 
			},
			{
				"x": 0.8299832152,
				"y": 0.208817126,
				"z": -1.5038522118,
				"element": "C" 
			},
			{
				"x": -0.1146714132,
				"y": 1.2620716352,
				"z": -1.4173467553,
				"element": "C" 
			},
			{
				"x": 0.2424772903,
				"y": 2.6342324422,
				"z": -1.3792147915,
				"element": "C" 
			},
			{
				"x": -0.7348334142,
				"y": 3.6015149451,
				"z": -1.2948263877,
				"element": "C" 
			},
			{
				"x": -2.1032857532,
				"y": 3.2371630917,
				"z": -1.2465264794,
				"element": "C" 
			},
			{
				"x": -2.4807535786,
				"y": 1.9123927418,
				"z": -1.2827228731,
				"element": "C" 
			},
			{
				"x": -1.4951065703,
				"y": 0.897391538,
				"z": -1.3684182775,
				"element": "C" 
			},
			{
				"x": -1.8933478625,
				"y": -0.4088229269,
				"z": -1.4041534366,
				"element": "N" 
			},
			{
				"x": 2.3802422117,
				"y": -1.8485044952,
				"z": -2.0241297743,
				"element": "H" 
			},
			{
				"x": 1.0871083252,
				"y": -3.01010385,
				"z": -2.3223607541,
				"element": "H" 
			},
			{
				"x": 1.889949403,
				"y": 0.4494110554,
				"z": -1.5432857596,
				"element": "H" 
			},
			{
				"x": 1.2933049538,
				"y": 2.9088650781,
				"z": -1.4152781447,
				"element": "H" 
			},
			{
				"x": -0.4588500126,
				"y": 4.6511666247,
				"z": -1.2643582628,
				"element": "H" 
			},
			{
				"x": -2.8595533594,
				"y": 4.0135881352,
				"z": -1.1798804694,
				"element": "H" 
			},
			{
				"x": -3.5215913348,
				"y": 1.6091939457,
				"z": -1.2466193822,
				"element": "H" 
			}
		],
		 "valence_orbital": [ 
			{
				"type": "occ",
				"energy": -0.32236,
				"method": "rhf"
			},
			{
				"type": "occ",
				"energy": -0.32151,
				"method": "rhf"
			},
			{
				"type": "occ",
				"energy": -0.28312,
				"method": "rhf"
			},
			{
				"type": "occ",
				"energy": -0.26351,
				"method": "rhf"
			},
			{
				"type": "occ",
				"energy": -0.25054,
				"method": "rhf"
			},
			{
				"type": "unocc",
				"energy": -0.07353,
				"method": "rhf"
			},
			{
				"type": "unocc",
				"energy": -0.03925,
				"method": "rhf"
			},
			{
				"type": "unocc",
				"energy": 6e-05,
				"method": "rhf"
			},
			{
				"type": "unocc",
				"energy": 0.01743,
				"method": "rhf"
			},
			{
				"type": "unocc",
				"energy": 0.03594,
				"method": "rhf"
			}
		],
		"cosmo_sigma_profile": { 
			"-0.025": 0.0,
			"-0.024": 0.0,
			"-0.023": 0.0,
			"-0.022": 0.0,
			"-0.021": 0.0,
			"-0.02": 0.0,
			"-0.019": 0.0,
			"-0.018": 0.0,
			"-0.017": 0.0,
			"-0.016": 0.0,
			"-0.015": 0.0,
			"-0.014": 0.0,
			"-0.013": 0.0,
			"-0.012": 0.0,
			"-0.011": 0.215629459233,
			"-0.01": 3.20533423036,
			"-0.009": 6.04282220704,
			"-0.008": 7.58770306055,
			"-0.007": 9.85428917425,
			"-0.006": 14.8713820957,
			"-0.005": 13.1043382735,
			"-0.004": 11.9466568469,
			"-0.003": 8.9626040908,
			"-0.002": 15.7528508637,
			"-0.001": 14.5986936335,
			"0.0": 17.6833707907,
			"0.001": 17.9794313192,
			"0.002": 17.8436140343,
			"0.003": 19.2139217795,
			"0.004": 13.324728292,
			"0.005": 5.93824371496,
			"0.006": 4.78775165494,
			"0.007": 5.05082112917,
			"0.008": 4.90893006144,
			"0.009": 4.68101505433,
			"0.01": 3.87784286291,
			"0.011": 3.73148190771,
			"0.012": 3.29812110225,
			"0.013": 2.35890003976,
			"0.014": 0.145921653215,
			"0.015": 0.0,
			"0.016": 0.0,
			"0.017": 0.0,
			"0.018": 0.0,
			"0.019": 0.0,
			"0.02": 0.0,
			"0.021": 0.0,
			"0.022": 0.0,
			"0.023": 0.0,
			"0.024": 0.0,
			"0.025": 0.0
		}
	}
}
