{
	 "smiles": "CCN(C1=CC=CC=C1)S(=O)(=O)C1=C(Cl)C=CC(N)=C1", 
	 "Tm": 376.15, 
	 "num_atms": 35, 
	 "gaussian": { 
		 "optdone": 1, 
		 "sigma_profile": "yes", 
		 "theory": "DFT", 
		 "functional": "B3LYP", 
		 "basiset": "6-31G**", 
		 "properties": { 
			 "R2extent": 6277.0436, 
			 "electric_dipole_moment_norm": 6.65077841685, 
			 "electric_quadrupole_moment_norm": 28.3292708611, 
			 "total_energy": -1660.78236147, 
			 "HOMO_LUMO_gap": 0.17689, 
			 "cosmo_polarized_energy": -20.19, 
			 "cosmo_cavitation_energy": 40.4, 
			 "cosmo_dispersion_energy": -27.98, 
			 "cosmo_repulsion_energy": 2.13, 
			 "cosmo_total_nonelectrostatic_energy": 14.55, 
			 "SMD_solvation_energy": 5.6 
		},
		"coords": [
			{
				"x": -1.1396260529,
				"y": -2.7851606026,
				"z": -2.1121713193,
				"element": "C" 
			},
			{
				"x": -0.426058223,
				"y": -1.4456679737,
				"z": -1.9335942337,
				"element": "C" 
			},
			{
				"x": 0.4355568151,
				"y": -1.4474835452,
				"z": -0.7317384206,
				"element": "N" 
			},
			{
				"x": -0.1702379275,
				"y": -1.6447012594,
				"z": 0.5560478196,
				"element": "C" 
			},
			{
				"x": -1.3878480508,
				"y": -1.0313665378,
				"z": 0.8805421359,
				"element": "C" 
			},
			{
				"x": -1.9864636964,
				"y": -1.2740058968,
				"z": 2.1165435183,
				"element": "C" 
			},
			{
				"x": -1.3691490417,
				"y": -2.1139169748,
				"z": 3.0445367143,
				"element": "C" 
			},
			{
				"x": -0.1534943946,
				"y": -2.7211949665,
				"z": 2.7230442716,
				"element": "C" 
			},
			{
				"x": 0.4394162811,
				"y": -2.5024322457,
				"z": 1.4807704592,
				"element": "C" 
			},
			{
				"x": 1.921664714,
				"y": -0.6324166738,
				"z": -0.8494204865,
				"element": "S" 
			},
			{
				"x": 2.7115083087,
				"y": -0.970288872,
				"z": 0.3287629984,
				"element": "O" 
			},
			{
				"x": 2.4205569535,
				"y": -0.920899295,
				"z": -2.1979224212,
				"element": "O" 
			},
			{
				"x": 1.5571906924,
				"y": 1.1517656378,
				"z": -0.83322734,
				"element": "C" 
			},
			{
				"x": 1.281419424,
				"y": 1.909808214,
				"z": 0.3164707848,
				"element": "C" 
			},
			{
				"x": 1.2874252844,
				"y": 1.2644657605,
				"z": 1.9430933222,
				"element": "Cl" 
			},
			{
				"x": 1.0009589885,
				"y": 3.2713162309,
				"z": 0.1691997428,
				"element": "C" 
			},
			{
				"x": 0.990990204,
				"y": 3.8765857679,
				"z": -1.0807762932,
				"element": "C" 
			},
			{
				"x": 1.2748083552,
				"y": 3.131445873,
				"z": -2.2374647527,
				"element": "C" 
			},
			{
				"x": 1.3388900212,
				"y": 3.737947766,
				"z": -3.4856479135,
				"element": "N" 
			},
			{
				"x": 1.5544593757,
				"y": 1.7644857029,
				"z": -2.0895073221,
				"element": "C" 
			},
			{
				"x": -1.7443094307,
				"y": -2.7593416828,
				"z": -3.0245653493,
				"element": "H" 
			},
			{
				"x": -1.8030866312,
				"y": -3.005632932,
				"z": -1.2718709679,
				"element": "H" 
			},
			{
				"x": -0.411816137,
				"y": -3.5963288455,
				"z": -2.1997168512,
				"element": "H" 
			},
			{
				"x": -1.1529742515,
				"y": -0.6222686123,
				"z": -1.8968456406,
				"element": "H" 
			},
			{
				"x": 0.2288677448,
				"y": -1.2678425263,
				"z": -2.7864568305,
				"element": "H" 
			},
			{
				"x": -1.8658687374,
				"y": -0.3614275217,
				"z": 0.173335228,
				"element": "H" 
			},
			{
				"x": -2.9318268858,
				"y": -0.795945682,
				"z": 2.3566847321,
				"element": "H" 
			},
			{
				"x": -1.8339679912,
				"y": -2.2971713728,
				"z": 4.008804097,
				"element": "H" 
			},
			{
				"x": 0.3316335142,
				"y": -3.3806473629,
				"z": 3.4367390992,
				"element": "H" 
			},
			{
				"x": 1.3775369386,
				"y": -2.9763208808,
				"z": 1.2200889134,
				"element": "H" 
			},
			{
				"x": 0.7924774595,
				"y": 3.8591643571,
				"z": 1.0564983407,
				"element": "H" 
			},
			{
				"x": 0.776418054,
				"y": 4.9389841855,
				"z": -1.1595314725,
				"element": "H" 
			},
			{
				"x": 0.8216757762,
				"y": 4.5985043151,
				"z": -3.5917056459,
				"element": "H" 
			},
			{
				"x": 1.254186042,
				"y": 3.1261144519,
				"z": -4.2842996964,
				"element": "H" 
			},
			{
				"x": 1.8070865046,
				"y": 1.1617739999,
				"z": -2.9547992203,
				"element": "H" 
			}
		],
		 "valence_orbital": [ 
			{
				"type": "occ",
				"energy": -0.2852,
				"method": "rhf"
			},
			{
				"type": "occ",
				"energy": -0.26876,
				"method": "rhf"
			},
			{
				"type": "occ",
				"energy": -0.25026,
				"method": "rhf"
			},
			{
				"type": "occ",
				"energy": -0.22904,
				"method": "rhf"
			},
			{
				"type": "occ",
				"energy": -0.21563,
				"method": "rhf"
			},
			{
				"type": "unocc",
				"energy": -0.03874,
				"method": "rhf"
			},
			{
				"type": "unocc",
				"energy": -0.01236,
				"method": "rhf"
			},
			{
				"type": "unocc",
				"energy": -0.00485,
				"method": "rhf"
			},
			{
				"type": "unocc",
				"energy": -0.00132,
				"method": "rhf"
			},
			{
				"type": "unocc",
				"energy": 0.02377,
				"method": "rhf"
			}
		],
		"cosmo_sigma_profile": { 
			"-0.025": 0.0,
			"-0.024": 0.0,
			"-0.023": 0.0,
			"-0.022": 0.0,
			"-0.021": 0.0,
			"-0.02": 0.0,
			"-0.019": 0.0,
			"-0.018": 0.0,
			"-0.017": 0.0,
			"-0.016": 0.0,
			"-0.015": 0.0,
			"-0.014": 0.260568772093,
			"-0.013": 2.60700358915,
			"-0.012": 3.08867333677,
			"-0.011": 3.21247202487,
			"-0.01": 3.72857554332,
			"-0.009": 2.83848125253,
			"-0.008": 4.46374888735,
			"-0.007": 8.07067269506,
			"-0.006": 12.6787503037,
			"-0.005": 18.1677275149,
			"-0.004": 22.7543645271,
			"-0.003": 25.6864200289,
			"-0.002": 23.2800804414,
			"-0.001": 20.9698080214,
			"0.0": 23.2267697912,
			"0.001": 21.4409033429,
			"0.002": 26.0647160451,
			"0.003": 24.7983961747,
			"0.004": 19.9726505437,
			"0.005": 16.0481492983,
			"0.006": 6.21335941733,
			"0.007": 4.36304314634,
			"0.008": 4.40775504305,
			"0.009": 6.01218512853,
			"0.01": 8.25907155486,
			"0.011": 8.35356979853,
			"0.012": 2.0957259857,
			"0.013": 0.254302452152,
			"0.014": 0.0,
			"0.015": 0.0,
			"0.016": 0.0,
			"0.017": 0.0,
			"0.018": 0.0,
			"0.019": 0.0,
			"0.02": 0.0,
			"0.021": 0.0,
			"0.022": 0.0,
			"0.023": 0.0,
			"0.024": 0.0,
			"0.025": 0.0
		}
	}
}
