{
	 "smiles": "CC1=C(N2C=CSC2=N1)C(=O)NN", 
	 "Tm": 423.15, 
	 "num_atms": 21, 
	 "gaussian": { 
		 "optdone": 1, 
		 "sigma_profile": "yes", 
		 "theory": "DFT", 
		 "functional": "B3LYP", 
		 "basiset": "6-31G**", 
		 "properties": { 
			 "R2extent": 3227.6219, 
			 "electric_dipole_moment_norm": 3.83930116688, 
			 "electric_quadrupole_moment_norm": 11.9827147713, 
			 "total_energy": -963.94535669, 
			 "HOMO_LUMO_gap": 0.18951, 
			 "cosmo_polarized_energy": -15.75, 
			 "cosmo_cavitation_energy": 26.79, 
			 "cosmo_dispersion_energy": -20.52, 
			 "cosmo_repulsion_energy": 1.57, 
			 "cosmo_total_nonelectrostatic_energy": 7.84, 
			 "SMD_solvation_energy": 4.16 
		},
		"coords": [
			{
				"x": 1.3920710447,
				"y": -0.7854051753,
				"z": -1.6015508309,
				"element": "C" 
			},
			{
				"x": 0.9181112308,
				"y": 0.3379362622,
				"z": -0.7373797297,
				"element": "C" 
			},
			{
				"x": -0.0919601328,
				"y": 0.3092355515,
				"z": 0.2264781702,
				"element": "C" 
			},
			{
				"x": -0.1412777406,
				"y": 1.6202693309,
				"z": 0.726130046,
				"element": "N" 
			},
			{
				"x": -0.7771377787,
				"y": 2.3544819865,
				"z": 1.7241893569,
				"element": "C" 
			},
			{
				"x": -0.3315797922,
				"y": 3.6293752249,
				"z": 1.7822641771,
				"element": "C" 
			},
			{
				"x": 0.9289172281,
				"y": 3.969381818,
				"z": 0.5992887019,
				"element": "S" 
			},
			{
				"x": 0.8254713271,
				"y": 2.3164034229,
				"z": 0.0375125293,
				"element": "C" 
			},
			{
				"x": 1.4732470694,
				"y": 1.5910000284,
				"z": -0.8479704493,
				"element": "N" 
			},
			{
				"x": -0.9749299104,
				"y": -0.787612554,
				"z": 0.6297057218,
				"element": "C" 
			},
			{
				"x": -0.7119844474,
				"y": -1.9728314314,
				"z": 0.4396343505,
				"element": "O" 
			},
			{
				"x": -2.1625113472,
				"y": -0.4073871839,
				"z": 1.2577455633,
				"element": "N" 
			},
			{
				"x": -3.1267394023,
				"y": -1.4151008755,
				"z": 1.5192419128,
				"element": "N" 
			},
			{
				"x": 2.4540597693,
				"y": -0.9785542691,
				"z": -1.4148213914,
				"element": "H" 
			},
			{
				"x": 1.2952860494,
				"y": -0.5174526147,
				"z": -2.6590169206,
				"element": "H" 
			},
			{
				"x": 0.829534262,
				"y": -1.6955902308,
				"z": -1.3956457388,
				"element": "H" 
			},
			{
				"x": -1.5177577452,
				"y": 1.8857296518,
				"z": 2.3546386169,
				"element": "H" 
			},
			{
				"x": -0.6655232438,
				"y": 4.4018300709,
				"z": 2.4585463308,
				"element": "H" 
			},
			{
				"x": -2.5938300334,
				"y": 0.4394893571,
				"z": 0.9055941886,
				"element": "H" 
			},
			{
				"x": -2.9085915475,
				"y": -2.1915405203,
				"z": 0.8909003045,
				"element": "H" 
			},
			{
				"x": -2.9393748593,
				"y": -1.7674578502,
				"z": 2.45681509,
				"element": "H" 
			}
		],
		 "valence_orbital": [ 
			{
				"type": "occ",
				"energy": -0.28704,
				"method": "rhf"
			},
			{
				"type": "occ",
				"energy": -0.26823,
				"method": "rhf"
			},
			{
				"type": "occ",
				"energy": -0.25901,
				"method": "rhf"
			},
			{
				"type": "occ",
				"energy": -0.2412,
				"method": "rhf"
			},
			{
				"type": "occ",
				"energy": -0.22792,
				"method": "rhf"
			},
			{
				"type": "unocc",
				"energy": -0.03841,
				"method": "rhf"
			},
			{
				"type": "unocc",
				"energy": -0.0054,
				"method": "rhf"
			},
			{
				"type": "unocc",
				"energy": 0.00056,
				"method": "rhf"
			},
			{
				"type": "unocc",
				"energy": 0.03847,
				"method": "rhf"
			},
			{
				"type": "unocc",
				"energy": 0.067,
				"method": "rhf"
			}
		],
		"cosmo_sigma_profile": { 
			"-0.025": 0.0,
			"-0.024": 0.0,
			"-0.023": 0.0,
			"-0.022": 0.0,
			"-0.021": 0.0,
			"-0.02": 0.0,
			"-0.019": 0.0,
			"-0.018": 0.0,
			"-0.017": 0.0,
			"-0.016": 0.0,
			"-0.015": 0.0,
			"-0.014": 0.735265034475,
			"-0.013": 1.02843170493,
			"-0.012": 2.06976074066,
			"-0.011": 3.63130072384,
			"-0.01": 4.79316519526,
			"-0.009": 7.23940711187,
			"-0.008": 6.49578516138,
			"-0.007": 6.75823931504,
			"-0.006": 4.43158017435,
			"-0.005": 7.17638296195,
			"-0.004": 10.813753493,
			"-0.003": 11.3664797829,
			"-0.002": 15.8340596727,
			"-0.001": 20.9012743575,
			"0.0": 22.3592808952,
			"0.001": 19.7302199099,
			"0.002": 15.6219213628,
			"0.003": 10.9131696606,
			"0.004": 5.97457520455,
			"0.005": 3.76256933691,
			"0.006": 4.12151736219,
			"0.007": 3.17836117996,
			"0.008": 3.28598409505,
			"0.009": 3.30992767484,
			"0.01": 3.35107945943,
			"0.011": 3.98505169261,
			"0.012": 4.21512730141,
			"0.013": 4.44960895767,
			"0.014": 1.83283530445,
			"0.015": 1.13109759706,
			"0.016": 1.64970691867,
			"0.017": 0.367133628974,
			"0.018": 0.0,
			"0.019": 0.0,
			"0.02": 0.0,
			"0.021": 0.0,
			"0.022": 0.0,
			"0.023": 0.0,
			"0.024": 0.0,
			"0.025": 0.0
		}
	}
}
