{
	 "smiles": "CN(CC(O)=O)S(=O)(=O)C1=CC=C(NC(C)=O)C=C1", 
	 "Tm": 499.15, 
	 "num_atms": 33, 
	 "gaussian": { 
		 "optdone": 1, 
		 "sigma_profile": "yes", 
		 "theory": "DFT", 
		 "functional": "B3LYP", 
		 "basiset": "6-31G**", 
		 "properties": { 
			 "R2extent": 7688.1474, 
			 "electric_dipole_moment_norm": 4.17423205632, 
			 "electric_quadrupole_moment_norm": 25.6013530642, 
			 "total_energy": -1311.36939954, 
			 "HOMO_LUMO_gap": 0.19358, 
			 "cosmo_polarized_energy": -25.84, 
			 "cosmo_cavitation_energy": 38.44, 
			 "cosmo_dispersion_energy": -27.31, 
			 "cosmo_repulsion_energy": 2.07, 
			 "cosmo_total_nonelectrostatic_energy": 13.19, 
			 "SMD_solvation_energy": 7.82 
		},
		"coords": [
			{
				"x": 3.446733783,
				"y": -2.4597560446,
				"z": 0.3228661652,
				"element": "C" 
			},
			{
				"x": 3.1070691474,
				"y": -1.172425928,
				"z": -0.2924189747,
				"element": "N" 
			},
			{
				"x": 3.9270048033,
				"y": -0.7298704315,
				"z": -1.4139913432,
				"element": "C" 
			},
			{
				"x": 3.0977916034,
				"y": -0.2121777434,
				"z": -2.5837225082,
				"element": "C" 
			},
			{
				"x": 3.9105688498,
				"y": 0.3433634687,
				"z": -3.5078094781,
				"element": "O" 
			},
			{
				"x": 1.8999043106,
				"y": -0.2998345483,
				"z": -2.7233845042,
				"element": "O" 
			},
			{
				"x": 2.6588056458,
				"y": 0.0534048395,
				"z": 0.7984346796,
				"element": "S" 
			},
			{
				"x": 2.7658243023,
				"y": 1.3017710938,
				"z": 0.0353876954,
				"element": "O" 
			},
			{
				"x": 3.3798758597,
				"y": -0.1022988555,
				"z": 2.0693938276,
				"element": "O" 
			},
			{
				"x": 0.9417402915,
				"y": -0.3328619539,
				"z": 1.1129872639,
				"element": "C" 
			},
			{
				"x": 0.4986628475,
				"y": -0.4165603442,
				"z": 2.4345610675,
				"element": "C" 
			},
			{
				"x": -0.8459194866,
				"y": -0.6613026475,
				"z": 2.6869422469,
				"element": "C" 
			},
			{
				"x": -1.760492103,
				"y": -0.8137752775,
				"z": 1.6291194855,
				"element": "C" 
			},
			{
				"x": -3.1088146487,
				"y": -1.026773352,
				"z": 1.958571056,
				"element": "N" 
			},
			{
				"x": -4.1400769816,
				"y": -1.7339277034,
				"z": 1.3471950258,
				"element": "C" 
			},
			{
				"x": -3.8709644174,
				"y": -2.466748643,
				"z": 0.0487331287,
				"element": "C" 
			},
			{
				"x": -5.2328205527,
				"y": -1.760975073,
				"z": 1.8912805345,
				"element": "O" 
			},
			{
				"x": -1.2981702127,
				"y": -0.6972105214,
				"z": 0.3056666087,
				"element": "C" 
			},
			{
				"x": 0.0491242287,
				"y": -0.4673779944,
				"z": 0.0463447912,
				"element": "C" 
			},
			{
				"x": 3.4369182933,
				"y": -3.2271552003,
				"z": -0.4556113224,
				"element": "H" 
			},
			{
				"x": 2.6823963479,
				"y": -2.7211265411,
				"z": 1.0578817312,
				"element": "H" 
			},
			{
				"x": 4.4226022903,
				"y": -2.4543271749,
				"z": 0.8240983834,
				"element": "H" 
			},
			{
				"x": 4.4929299607,
				"y": -1.5933472257,
				"z": -1.7795603633,
				"element": "H" 
			},
			{
				"x": 4.6627562236,
				"y": 0.0376148437,
				"z": -1.1515566782,
				"element": "H" 
			},
			{
				"x": 3.3394869853,
				"y": 0.64528227,
				"z": -4.2338702381,
				"element": "H" 
			},
			{
				"x": 1.2073828073,
				"y": -0.303722682,
				"z": 3.2473484748,
				"element": "H" 
			},
			{
				"x": -1.1960660569,
				"y": -0.7488230358,
				"z": 3.7116788534,
				"element": "H" 
			},
			{
				"x": -3.3985734147,
				"y": -0.6999540811,
				"z": 2.8729885311,
				"element": "H" 
			},
			{
				"x": -3.9863306148,
				"y": -1.7885912534,
				"z": -0.8034926875,
				"element": "H" 
			},
			{
				"x": -2.8706514698,
				"y": -2.9033467675,
				"z": 0.0047430124,
				"element": "H" 
			},
			{
				"x": -4.6257530416,
				"y": -3.2484789821,
				"z": -0.0402972246,
				"element": "H" 
			},
			{
				"x": -1.9900753001,
				"y": -0.7555271976,
				"z": -0.5240921123,
				"element": "H" 
			},
			{
				"x": 0.4090297192,
				"y": -0.3901593128,
				"z": -0.9750151281,
				"element": "H" 
			}
		],
		 "valence_orbital": [ 
			{
				"type": "occ",
				"energy": -0.2917,
				"method": "rhf"
			},
			{
				"type": "occ",
				"energy": -0.27564,
				"method": "rhf"
			},
			{
				"type": "occ",
				"energy": -0.26425,
				"method": "rhf"
			},
			{
				"type": "occ",
				"energy": -0.26237,
				"method": "rhf"
			},
			{
				"type": "occ",
				"energy": -0.23771,
				"method": "rhf"
			},
			{
				"type": "unocc",
				"energy": -0.04413,
				"method": "rhf"
			},
			{
				"type": "unocc",
				"energy": -0.02502,
				"method": "rhf"
			},
			{
				"type": "unocc",
				"energy": -0.00204,
				"method": "rhf"
			},
			{
				"type": "unocc",
				"energy": 0.0183,
				"method": "rhf"
			},
			{
				"type": "unocc",
				"energy": 0.05795,
				"method": "rhf"
			}
		],
		"cosmo_sigma_profile": { 
			"-0.025": 0.0,
			"-0.024": 0.0,
			"-0.023": 0.0,
			"-0.022": 0.0,
			"-0.021": 0.0,
			"-0.02": 0.0,
			"-0.019": 0.118156456036,
			"-0.018": 1.45764751004,
			"-0.017": 0.333234070765,
			"-0.016": 0.948897677026,
			"-0.015": 1.24963556828,
			"-0.014": 1.61862487934,
			"-0.013": 2.16266796735,
			"-0.012": 2.00009900317,
			"-0.011": 1.96901705485,
			"-0.01": 2.44332351636,
			"-0.009": 5.73387379752,
			"-0.008": 8.41022354366,
			"-0.007": 13.49983948,
			"-0.006": 15.0443024392,
			"-0.005": 22.4906110665,
			"-0.004": 21.2702494153,
			"-0.003": 21.9136232887,
			"-0.002": 21.2930155601,
			"-0.001": 15.6525819747,
			"0.0": 13.9453831488,
			"0.001": 17.2646461392,
			"0.002": 19.2877426062,
			"0.003": 11.4860139252,
			"0.004": 7.93505240405,
			"0.005": 7.76333732439,
			"0.006": 6.74678334264,
			"0.007": 7.65832659541,
			"0.008": 8.58035011754,
			"0.009": 9.11659550804,
			"0.01": 10.647250304,
			"0.011": 11.5487494477,
			"0.012": 6.32359544322,
			"0.013": 5.36387491509,
			"0.014": 1.73755535241,
			"0.015": 0.0210771911961,
			"0.016": 0.0,
			"0.017": 0.0,
			"0.018": 0.0,
			"0.019": 0.0,
			"0.02": 0.0,
			"0.021": 0.0,
			"0.022": 0.0,
			"0.023": 0.0,
			"0.024": 0.0,
			"0.025": 0.0
		}
	}
}
