{
	 "smiles": "OC1=C(Cl)C(=O)CCC1", 
	 "Tm": 474.15, 
	 "num_atms": 16, 
	 "gaussian": { 
		 "optdone": 1, 
		 "sigma_profile": "yes", 
		 "theory": "DFT", 
		 "functional": "B3LYP", 
		 "basiset": "6-31G**", 
		 "properties": { 
			 "R2extent": 1694.1455, 
			 "electric_dipole_moment_norm": 4.09633036143, 
			 "electric_quadrupole_moment_norm": 12.4994964171, 
			 "total_energy": -843.492837473, 
			 "HOMO_LUMO_gap": 0.19803, 
			 "cosmo_polarized_energy": -12.17, 
			 "cosmo_cavitation_energy": 20.77, 
			 "cosmo_dispersion_energy": -15.99, 
			 "cosmo_repulsion_energy": 1.33, 
			 "cosmo_total_nonelectrostatic_energy": 6.1, 
			 "SMD_solvation_energy": 3.98 
		},
		"coords": [
			{
				"x": -1.7127433192,
				"y": 1.5708809873,
				"z": -0.7057320384,
				"element": "O" 
			},
			{
				"x": -0.9195894756,
				"y": 0.6318795475,
				"z": -1.2420415923,
				"element": "C" 
			},
			{
				"x": -0.3193092605,
				"y": -0.3557333665,
				"z": -0.5258407051,
				"element": "C" 
			},
			{
				"x": -0.6126310581,
				"y": -0.4445508185,
				"z": 1.2072957794,
				"element": "Cl" 
			},
			{
				"x": 0.5978222821,
				"y": -1.3454991429,
				"z": -1.1119411385,
				"element": "C" 
			},
			{
				"x": 1.1304413184,
				"y": -2.2259396165,
				"z": -0.457197219,
				"element": "O" 
			},
			{
				"x": 0.8813740746,
				"y": -1.1657247655,
				"z": -2.6042209097,
				"element": "C" 
			},
			{
				"x": -0.2921495948,
				"y": -0.5453063527,
				"z": -3.3690754985,
				"element": "C" 
			},
			{
				"x": -0.7345400732,
				"y": 0.7742074103,
				"z": -2.7266990298,
				"element": "C" 
			},
			{
				"x": -1.7562616343,
				"y": 1.4269278945,
				"z": 0.2565346391,
				"element": "H" 
			},
			{
				"x": 1.768218246,
				"y": -0.5206642878,
				"z": -2.6874956444,
				"element": "H" 
			},
			{
				"x": 1.1627895855,
				"y": -2.1443112028,
				"z": -3.0016322151,
				"element": "H" 
			},
			{
				"x": -0.0199672622,
				"y": -0.3761916586,
				"z": -4.4156950191,
				"element": "H" 
			},
			{
				"x": -1.1370093654,
				"y": -1.2442533186,
				"z": -3.3682595228,
				"element": "H" 
			},
			{
				"x": 0.0094717345,
				"y": 1.5636314576,
				"z": -2.906699173,
				"element": "H" 
			},
			{
				"x": -1.6766161979,
				"y": 1.1355472331,
				"z": -3.1524007129,
				"element": "H" 
			}
		],
		 "valence_orbital": [ 
			{
				"type": "occ",
				"energy": -0.35788,
				"method": "rhf"
			},
			{
				"type": "occ",
				"energy": -0.33437,
				"method": "rhf"
			},
			{
				"type": "occ",
				"energy": -0.32267,
				"method": "rhf"
			},
			{
				"type": "occ",
				"energy": -0.24748,
				"method": "rhf"
			},
			{
				"type": "occ",
				"energy": -0.2432,
				"method": "rhf"
			},
			{
				"type": "unocc",
				"energy": -0.04517,
				"method": "rhf"
			},
			{
				"type": "unocc",
				"energy": 0.02431,
				"method": "rhf"
			},
			{
				"type": "unocc",
				"energy": 0.05307,
				"method": "rhf"
			},
			{
				"type": "unocc",
				"energy": 0.07831,
				"method": "rhf"
			},
			{
				"type": "unocc",
				"energy": 0.09173,
				"method": "rhf"
			}
		],
		"cosmo_sigma_profile": { 
			"-0.025": 0.0,
			"-0.024": 0.0,
			"-0.023": 0.0,
			"-0.022": 0.0,
			"-0.021": 0.0,
			"-0.02": 0.0,
			"-0.019": 0.0,
			"-0.018": 0.0,
			"-0.017": 0.0,
			"-0.016": 0.434411047158,
			"-0.015": 0.72238356565,
			"-0.014": 0.706522170912,
			"-0.013": 0.739357374281,
			"-0.012": 0.683637814581,
			"-0.011": 0.767968248094,
			"-0.01": 1.05191058164,
			"-0.009": 0.754715180008,
			"-0.008": 1.2388541989,
			"-0.007": 1.93724824569,
			"-0.006": 9.0725950761,
			"-0.005": 12.192920236,
			"-0.004": 18.6105074145,
			"-0.003": 18.8879289466,
			"-0.002": 15.5194935979,
			"-0.001": 12.0733705914,
			"0.0": 7.92011821176,
			"0.001": 7.44396501434,
			"0.002": 6.72742070211,
			"0.003": 5.91385279894,
			"0.004": 7.26174909358,
			"0.005": 6.32941578544,
			"0.006": 4.46904500252,
			"0.007": 3.39030478456,
			"0.008": 2.56815682343,
			"0.009": 3.45055952244,
			"0.01": 2.58651525981,
			"0.011": 2.4743348172,
			"0.012": 4.4029952479,
			"0.013": 4.38675700618,
			"0.014": 1.33213790245,
			"0.015": 0.0,
			"0.016": 0.0,
			"0.017": 0.0,
			"0.018": 0.0,
			"0.019": 0.0,
			"0.02": 0.0,
			"0.021": 0.0,
			"0.022": 0.0,
			"0.023": 0.0,
			"0.024": 0.0,
			"0.025": 0.0
		}
	}
}
