{
	 "smiles": "OCC1=NC=CN1C=C", 
	 "Tm": 377.15, 
	 "num_atms": 17, 
	 "gaussian": { 
		 "optdone": 1, 
		 "sigma_profile": "yes", 
		 "theory": "DFT", 
		 "functional": "B3LYP", 
		 "basiset": "6-31G**", 
		 "properties": { 
			 "R2extent": 1313.1246, 
			 "electric_dipole_moment_norm": 1.96346686247, 
			 "electric_quadrupole_moment_norm": 4.25977315711, 
			 "total_energy": -418.144425526, 
			 "HOMO_LUMO_gap": 0.20355, 
			 "cosmo_polarized_energy": -10.56, 
			 "cosmo_cavitation_energy": 20.99, 
			 "cosmo_dispersion_energy": -15.29, 
			 "cosmo_repulsion_energy": 1.25, 
			 "cosmo_total_nonelectrostatic_energy": 6.95, 
			 "SMD_solvation_energy": 3.55 
		},
		"coords": [
			{
				"x": 1.2923785591,
				"y": 2.3056438504,
				"z": 0.3179308376,
				"element": "O" 
			},
			{
				"x": 1.4939174554,
				"y": 0.9869942711,
				"z": 0.830914509,
				"element": "C" 
			},
			{
				"x": 0.5374043866,
				"y": -0.0282556832,
				"z": 0.2812973403,
				"element": "C" 
			},
			{
				"x": -0.2455192098,
				"y": -0.7888516953,
				"z": 1.0182366299,
				"element": "N" 
			},
			{
				"x": -0.9254257322,
				"y": -1.59307345,
				"z": 0.129049679,
				"element": "C" 
			},
			{
				"x": -0.5534523489,
				"y": -1.3147302291,
				"z": -1.1585911077,
				"element": "C" 
			},
			{
				"x": 0.3909710281,
				"y": -0.3033833482,
				"z": -1.0689113276,
				"element": "N" 
			},
			{
				"x": 1.0820001468,
				"y": 0.33698344,
				"z": -2.1189033608,
				"element": "C" 
			},
			{
				"x": 1.1813004819,
				"y": -0.1250922383,
				"z": -3.3662298734,
				"element": "C" 
			},
			{
				"x": 0.388147494,
				"y": 2.5668210921,
				"z": 0.5393257444,
				"element": "H" 
			},
			{
				"x": 1.4013570183,
				"y": 0.9463266742,
				"z": 1.9228020979,
				"element": "H" 
			},
			{
				"x": 2.5287231,
				"y": 0.7370606293,
				"z": 0.5724097715,
				"element": "H" 
			},
			{
				"x": -1.6526736078,
				"y": -2.3183914848,
				"z": 0.4667541681,
				"element": "H" 
			},
			{
				"x": -0.8878245687,
				"y": -1.699643597,
				"z": -2.108473957,
				"element": "H" 
			},
			{
				"x": 1.5208137465,
				"y": 1.2799439279,
				"z": -1.8126338069,
				"element": "H" 
			},
			{
				"x": 1.7114824631,
				"y": 0.4573057083,
				"z": -4.110024956,
				"element": "H" 
			},
			{
				"x": 0.7542995875,
				"y": -1.0696578675,
				"z": -3.6849523882,
				"element": "H" 
			}
		],
		 "valence_orbital": [ 
			{
				"type": "occ",
				"energy": -0.32579,
				"method": "rhf"
			},
			{
				"type": "occ",
				"energy": -0.28766,
				"method": "rhf"
			},
			{
				"type": "occ",
				"energy": -0.26983,
				"method": "rhf"
			},
			{
				"type": "occ",
				"energy": -0.24696,
				"method": "rhf"
			},
			{
				"type": "occ",
				"energy": -0.2272,
				"method": "rhf"
			},
			{
				"type": "unocc",
				"energy": -0.02365,
				"method": "rhf"
			},
			{
				"type": "unocc",
				"energy": 0.04289,
				"method": "rhf"
			},
			{
				"type": "unocc",
				"energy": 0.06831,
				"method": "rhf"
			},
			{
				"type": "unocc",
				"energy": 0.09273,
				"method": "rhf"
			},
			{
				"type": "unocc",
				"energy": 0.10578,
				"method": "rhf"
			}
		],
		"cosmo_sigma_profile": { 
			"-0.025": 0.0,
			"-0.024": 0.0,
			"-0.023": 0.0,
			"-0.022": 0.0,
			"-0.021": 0.0,
			"-0.02": 0.0,
			"-0.019": 0.0,
			"-0.018": 0.0,
			"-0.017": 0.0460145370611,
			"-0.016": 0.759553731264,
			"-0.015": 1.07078694298,
			"-0.014": 0.735678589021,
			"-0.013": 0.94159902789,
			"-0.012": 0.681054630949,
			"-0.011": 1.24485307506,
			"-0.01": 0.599834411245,
			"-0.009": 1.36662042747,
			"-0.008": 3.63263820218,
			"-0.007": 5.44891651337,
			"-0.006": 10.5632188314,
			"-0.005": 12.3043509507,
			"-0.004": 13.093317044,
			"-0.003": 11.3222854139,
			"-0.002": 10.1603091118,
			"-0.001": 10.2177682911,
			"0.0": 9.5913790147,
			"0.001": 11.4826192033,
			"0.002": 10.919482667,
			"0.003": 8.78031001035,
			"0.004": 8.33739950053,
			"0.005": 8.33567268286,
			"0.006": 4.87120704282,
			"0.007": 1.96211097861,
			"0.008": 2.37063903532,
			"0.009": 2.7710366453,
			"0.01": 1.8375009125,
			"0.011": 2.28692532685,
			"0.012": 2.11483776955,
			"0.013": 2.76201969468,
			"0.014": 1.66683271353,
			"0.015": 0.672886721856,
			"0.016": 0.935328523994,
			"0.017": 1.10385965007,
			"0.018": 0.222257836834,
			"0.019": 0.0,
			"0.02": 0.0,
			"0.021": 0.0,
			"0.022": 0.0,
			"0.023": 0.0,
			"0.024": 0.0,
			"0.025": 0.0
		}
	}
}
