{
	 "smiles": "OC(=O)C1=CC=C(C=C1)C(F)(F)C(F)(F)F", 
	 "Tm": 426.15, 
	 "num_atms": 21, 
	 "gaussian": { 
		 "optdone": 1, 
		 "sigma_profile": "yes", 
		 "theory": "DFT", 
		 "functional": "B3LYP", 
		 "basiset": "6-31G**", 
		 "properties": { 
			 "R2extent": 4969.3349, 
			 "electric_dipole_moment_norm": 2.7573052225, 
			 "electric_quadrupole_moment_norm": 17.5530885411, 
			 "total_energy": -995.626470749, 
			 "HOMO_LUMO_gap": 0.20687, 
			 "cosmo_polarized_energy": -13.46, 
			 "cosmo_cavitation_energy": 28.4, 
			 "cosmo_dispersion_energy": -19.74, 
			 "cosmo_repulsion_energy": 1.43, 
			 "cosmo_total_nonelectrostatic_energy": 10.09, 
			 "SMD_solvation_energy": 7.85 
		},
		"coords": [
			{
				"x": 2.0037153355,
				"y": -2.9590949054,
				"z": 0.1059494421,
				"element": "O" 
			},
			{
				"x": 2.4853373689,
				"y": -1.7913544675,
				"z": 0.6059386883,
				"element": "C" 
			},
			{
				"x": 3.6360963383,
				"y": -1.711929689,
				"z": 0.9631745268,
				"element": "O" 
			},
			{
				"x": 1.5232138005,
				"y": -0.6398226294,
				"z": 0.6843514786,
				"element": "C" 
			},
			{
				"x": 2.0629481211,
				"y": 0.6505810517,
				"z": 0.7653022539,
				"element": "C" 
			},
			{
				"x": 1.2265451586,
				"y": 1.7585615151,
				"z": 0.844956394,
				"element": "C" 
			},
			{
				"x": -0.1612747734,
				"y": 1.582198035,
				"z": 0.868229336,
				"element": "C" 
			},
			{
				"x": -0.7093020849,
				"y": 0.2984820608,
				"z": 0.8087180561,
				"element": "C" 
			},
			{
				"x": 0.1320981088,
				"y": -0.8078804822,
				"z": 0.7178987549,
				"element": "C" 
			},
			{
				"x": -1.0713291446,
				"y": 2.7829034736,
				"z": 0.932656738,
				"element": "C" 
			},
			{
				"x": -0.4770887098,
				"y": 3.807707131,
				"z": 1.6078916662,
				"element": "F" 
			},
			{
				"x": -2.2386640692,
				"y": 2.4746279036,
				"z": 1.568224584,
				"element": "F" 
			},
			{
				"x": -1.4630063014,
				"y": 3.3402934339,
				"z": -0.4551362029,
				"element": "C" 
			},
			{
				"x": -2.2684281912,
				"y": 4.4009931592,
				"z": -0.3324022057,
				"element": "F" 
			},
			{
				"x": -0.3615809655,
				"y": 3.7112870383,
				"z": -1.1284155288,
				"element": "F" 
			},
			{
				"x": -2.1021600776,
				"y": 2.3946695784,
				"z": -1.1646446161,
				"element": "F" 
			},
			{
				"x": 1.130821798,
				"y": -2.8244232668,
				"z": -0.2881403804,
				"element": "H" 
			},
			{
				"x": 3.1416194201,
				"y": 0.7614620146,
				"z": 0.7652663384,
				"element": "H" 
			},
			{
				"x": 1.6439587505,
				"y": 2.7575027448,
				"z": 0.9004611373,
				"element": "H" 
			},
			{
				"x": -1.7845573598,
				"y": 0.1674656785,
				"z": 0.8481995744,
				"element": "H" 
			},
			{
				"x": -0.309962523,
				"y": -1.8009293782,
				"z": 0.7156199649,
				"element": "H" 
			}
		],
		 "valence_orbital": [ 
			{
				"type": "occ",
				"energy": -0.35901,
				"method": "rhf"
			},
			{
				"type": "occ",
				"energy": -0.32844,
				"method": "rhf"
			},
			{
				"type": "occ",
				"energy": -0.29393,
				"method": "rhf"
			},
			{
				"type": "occ",
				"energy": -0.28975,
				"method": "rhf"
			},
			{
				"type": "occ",
				"energy": -0.28048,
				"method": "rhf"
			},
			{
				"type": "unocc",
				"energy": -0.07361,
				"method": "rhf"
			},
			{
				"type": "unocc",
				"energy": -0.03973,
				"method": "rhf"
			},
			{
				"type": "unocc",
				"energy": 0.02369,
				"method": "rhf"
			},
			{
				"type": "unocc",
				"energy": 0.0503,
				"method": "rhf"
			},
			{
				"type": "unocc",
				"energy": 0.07354,
				"method": "rhf"
			}
		],
		"cosmo_sigma_profile": { 
			"-0.025": 0.0,
			"-0.024": 0.0,
			"-0.023": 0.0,
			"-0.022": 0.0,
			"-0.021": 0.0,
			"-0.02": 0.0,
			"-0.019": 0.44577660361,
			"-0.018": 1.31970909898,
			"-0.017": 0.964335737181,
			"-0.016": 0.839958270719,
			"-0.015": 0.890508336539,
			"-0.014": 1.19188132586,
			"-0.013": 1.23517474293,
			"-0.012": 1.13220510839,
			"-0.011": 1.07284520907,
			"-0.01": 1.27464603025,
			"-0.009": 1.5678433179,
			"-0.008": 4.6786898007,
			"-0.007": 6.95753315592,
			"-0.006": 7.68507078659,
			"-0.005": 6.45355775976,
			"-0.004": 7.8788948269,
			"-0.003": 8.90407437219,
			"-0.002": 10.8724856013,
			"-0.001": 15.7927895426,
			"0.0": 24.5600996927,
			"0.001": 43.8141618641,
			"0.002": 39.4661056245,
			"0.003": 9.24935269186,
			"0.004": 1.51740883888,
			"0.005": 2.11158396809,
			"0.006": 3.03882318436,
			"0.007": 2.61765848636,
			"0.008": 2.60182443247,
			"0.009": 3.35308833617,
			"0.01": 5.2492896602,
			"0.011": 5.67464528631,
			"0.012": 3.32133051759,
			"0.013": 0.631449038979,
			"0.014": 0.0,
			"0.015": 0.0,
			"0.016": 0.0,
			"0.017": 0.0,
			"0.018": 0.0,
			"0.019": 0.0,
			"0.02": 0.0,
			"0.021": 0.0,
			"0.022": 0.0,
			"0.023": 0.0,
			"0.024": 0.0,
			"0.025": 0.0
		}
	}
}
