{
	 "smiles": "COC1=C(OCC(O)=O)C=CC(CC=C)=C1", 
	 "Tm": 443.15, 
	 "num_atms": 30, 
	 "gaussian": { 
		 "optdone": 1, 
		 "sigma_profile": "yes", 
		 "theory": "DFT", 
		 "functional": "B3LYP", 
		 "basiset": "6-31G**", 
		 "properties": { 
			 "R2extent": 6354.878, 
			 "electric_dipole_moment_norm": 5.48928458089, 
			 "electric_quadrupole_moment_norm": 34.1607147981, 
			 "total_energy": -766.573361255, 
			 "HOMO_LUMO_gap": 0.21107, 
			 "cosmo_polarized_energy": -14.13, 
			 "cosmo_cavitation_energy": 34.3, 
			 "cosmo_dispersion_energy": -23.73, 
			 "cosmo_repulsion_energy": 1.87, 
			 "cosmo_total_nonelectrostatic_energy": 12.44, 
			 "SMD_solvation_energy": 8.49 
		},
		"coords": [
			{
				"x": 2.9059058139,
				"y": -0.1669396512,
				"z": 0.2698898006,
				"element": "C" 
			},
			{
				"x": 2.1136450131,
				"y": 0.6264599038,
				"z": 1.1479509332,
				"element": "O" 
			},
			{
				"x": 0.8219406104,
				"y": 0.2398281935,
				"z": 1.3903061951,
				"element": "C" 
			},
			{
				"x": 0.1295668885,
				"y": 1.0149481059,
				"z": 2.3431221594,
				"element": "C" 
			},
			{
				"x": 0.7835388892,
				"y": 2.1078141184,
				"z": 2.8758663113,
				"element": "O" 
			},
			{
				"x": 1.0187750114,
				"y": 2.1291713319,
				"z": 4.2845978774,
				"element": "C" 
			},
			{
				"x": 2.4728900079,
				"y": 1.7925291248,
				"z": 4.6447241913,
				"element": "C" 
			},
			{
				"x": 3.2833388173,
				"y": 1.4974110559,
				"z": 3.6223837097,
				"element": "O" 
			},
			{
				"x": 2.8415831207,
				"y": 1.8118550717,
				"z": 5.795200897,
				"element": "O" 
			},
			{
				"x": -1.1858530885,
				"y": 0.7005039965,
				"z": 2.6609990188,
				"element": "C" 
			},
			{
				"x": -1.8185900962,
				"y": -0.3860974264,
				"z": 2.0490002174,
				"element": "C" 
			},
			{
				"x": -1.14447059,
				"y": -1.1618295003,
				"z": 1.1049885866,
				"element": "C" 
			},
			{
				"x": -1.8151241304,
				"y": -2.3600613902,
				"z": 0.4487859547,
				"element": "C" 
			},
			{
				"x": -1.6835879397,
				"y": -2.3800826703,
				"z": -1.0530900047,
				"element": "C" 
			},
			{
				"x": -1.1155031471,
				"y": -3.3612954169,
				"z": -1.7552599281,
				"element": "C" 
			},
			{
				"x": 0.1815038903,
				"y": -0.8346371292,
				"z": 0.7760434571,
				"element": "C" 
			},
			{
				"x": 3.8950413443,
				"y": 0.2917123729,
				"z": 0.2633797718,
				"element": "H" 
			},
			{
				"x": 2.4946454334,
				"y": -0.1617666058,
				"z": -0.7460438487,
				"element": "H" 
			},
			{
				"x": 2.9841478713,
				"y": -1.2004268243,
				"z": 0.6272610827,
				"element": "H" 
			},
			{
				"x": 0.362872607,
				"y": 1.4335902882,
				"z": 4.8174415444,
				"element": "H" 
			},
			{
				"x": 0.8125726735,
				"y": 3.1400746478,
				"z": 4.6476415705,
				"element": "H" 
			},
			{
				"x": 2.7849741106,
				"y": 1.5109343667,
				"z": 2.7790410394,
				"element": "H" 
			},
			{
				"x": -1.7176333489,
				"y": 1.3185182394,
				"z": 3.3781568559,
				"element": "H" 
			},
			{
				"x": -2.8470447064,
				"y": -0.621317697,
				"z": 2.3075638936,
				"element": "H" 
			},
			{
				"x": -2.8783869925,
				"y": -2.3538344745,
				"z": 0.7221972329,
				"element": "H" 
			},
			{
				"x": -1.3962474306,
				"y": -3.2892511158,
				"z": 0.8577500401,
				"element": "H" 
			},
			{
				"x": -2.0871390279,
				"y": -1.5120659995,
				"z": -1.5747219938,
				"element": "H" 
			},
			{
				"x": -1.0540352617,
				"y": -3.3266141919,
				"z": -2.8389723949,
				"element": "H" 
			},
			{
				"x": -0.7001017351,
				"y": -4.2423671886,
				"z": -1.2709589055,
				"element": "H" 
			},
			{
				"x": 0.6990753921,
				"y": -1.4322635356,
				"z": 0.0344547348,
				"element": "H" 
			}
		],
		 "valence_orbital": [ 
			{
				"type": "occ",
				"energy": -0.29875,
				"method": "rhf"
			},
			{
				"type": "occ",
				"energy": -0.2716,
				"method": "rhf"
			},
			{
				"type": "occ",
				"energy": -0.26137,
				"method": "rhf"
			},
			{
				"type": "occ",
				"energy": -0.24943,
				"method": "rhf"
			},
			{
				"type": "occ",
				"energy": -0.2262,
				"method": "rhf"
			},
			{
				"type": "unocc",
				"energy": -0.01513,
				"method": "rhf"
			},
			{
				"type": "unocc",
				"energy": -0.00781,
				"method": "rhf"
			},
			{
				"type": "unocc",
				"energy": 0.01561,
				"method": "rhf"
			},
			{
				"type": "unocc",
				"energy": 0.02255,
				"method": "rhf"
			},
			{
				"type": "unocc",
				"energy": 0.07182,
				"method": "rhf"
			}
		],
		"cosmo_sigma_profile": { 
			"-0.025": 0.0,
			"-0.024": 0.0,
			"-0.023": 0.0,
			"-0.022": 0.0,
			"-0.021": 0.0,
			"-0.02": 0.0,
			"-0.019": 0.0,
			"-0.018": 0.0,
			"-0.017": 0.0,
			"-0.016": 0.0,
			"-0.015": 0.0,
			"-0.014": 0.0,
			"-0.013": 0.0,
			"-0.012": 0.0,
			"-0.011": 0.0,
			"-0.01": 0.0,
			"-0.009": 0.263908583729,
			"-0.008": 3.84118084458,
			"-0.007": 8.61267784182,
			"-0.006": 16.6163983086,
			"-0.005": 24.7482727987,
			"-0.004": 31.2015681652,
			"-0.003": 22.9204154891,
			"-0.002": 20.9053886794,
			"-0.001": 18.1920246932,
			"0.0": 15.2354825823,
			"0.001": 14.855700304,
			"0.002": 14.4010892104,
			"0.003": 15.1694308647,
			"0.004": 14.8883327836,
			"0.005": 12.251758429,
			"0.006": 5.81123845591,
			"0.007": 4.72658643444,
			"0.008": 4.45959415206,
			"0.009": 3.71895325521,
			"0.01": 5.45242872501,
			"0.011": 5.17742019983,
			"0.012": 5.83129153047,
			"0.013": 2.77068079766,
			"0.014": 0.22514110007,
			"0.015": 0.0,
			"0.016": 0.0,
			"0.017": 0.0,
			"0.018": 0.0,
			"0.019": 0.0,
			"0.02": 0.0,
			"0.021": 0.0,
			"0.022": 0.0,
			"0.023": 0.0,
			"0.024": 0.0,
			"0.025": 0.0
		}
	}
}
