{
	 "smiles": "CC1=C(SC2=C1C=CC=C2)C1=CSC(N)=N1", 
	 "Tm": 444.15, 
	 "num_atms": 26, 
	 "gaussian": { 
		 "optdone": 1, 
		 "sigma_profile": "yes", 
		 "theory": "DFT", 
		 "functional": "B3LYP", 
		 "basiset": "6-31G**", 
		 "properties": { 
			 "R2extent": 5434.915, 
			 "electric_dipole_moment_norm": 2.35063003895, 
			 "electric_quadrupole_moment_norm": 18.0187874317, 
			 "total_energy": -1369.19089849, 
			 "HOMO_LUMO_gap": 0.15689, 
			 "cosmo_polarized_energy": -11.68, 
			 "cosmo_cavitation_energy": 32.76, 
			 "cosmo_dispersion_energy": -25.23, 
			 "cosmo_repulsion_energy": 1.86, 
			 "cosmo_total_nonelectrostatic_energy": 9.38, 
			 "SMD_solvation_energy": 3.9 
		},
		"coords": [
			{
				"x": -0.6196993584,
				"y": 1.2904809109,
				"z": -1.5671439583,
				"element": "C" 
			},
			{
				"x": -0.0700059222,
				"y": -0.0198463149,
				"z": -1.0742123134,
				"element": "C" 
			},
			{
				"x": -0.3397311808,
				"y": -0.6236929409,
				"z": 0.1298455456,
				"element": "C" 
			},
			{
				"x": 0.5347812507,
				"y": -2.1554918516,
				"z": 0.3305268025,
				"element": "S" 
			},
			{
				"x": 1.3061079575,
				"y": -1.9684591693,
				"z": -1.22971629,
				"element": "C" 
			},
			{
				"x": 0.8747044614,
				"y": -0.7807986059,
				"z": -1.865938615,
				"element": "C" 
			},
			{
				"x": 1.3918335928,
				"y": -0.474220632,
				"z": -3.1390060929,
				"element": "C" 
			},
			{
				"x": 2.3011987361,
				"y": -1.3352043096,
				"z": -3.7401745115,
				"element": "C" 
			},
			{
				"x": 2.7136577868,
				"y": -2.5117908674,
				"z": -3.0907331918,
				"element": "C" 
			},
			{
				"x": 2.2203634636,
				"y": -2.8377980616,
				"z": -1.8307563531,
				"element": "C" 
			},
			{
				"x": -1.2029714625,
				"y": -0.1938312852,
				"z": 1.2318710168,
				"element": "C" 
			},
			{
				"x": -1.089313906,
				"y": -0.6346720853,
				"z": 2.5255677382,
				"element": "C" 
			},
			{
				"x": -2.3097565954,
				"y": 0.0964253864,
				"z": 3.5323381988,
				"element": "S" 
			},
			{
				"x": -2.8967486068,
				"y": 0.9521186676,
				"z": 2.099033891,
				"element": "C" 
			},
			{
				"x": -3.9316248947,
				"y": 1.8548509543,
				"z": 2.1864854075,
				"element": "N" 
			},
			{
				"x": -2.2394318868,
				"y": 0.7049173948,
				"z": 1.0059400716,
				"element": "N" 
			},
			{
				"x": 0.1932631702,
				"y": 2.0064989476,
				"z": -1.7413900972,
				"element": "H" 
			},
			{
				"x": -1.1359776009,
				"y": 1.1536833018,
				"z": -2.5255659468,
				"element": "H" 
			},
			{
				"x": -1.3260540141,
				"y": 1.7185364104,
				"z": -0.8590180651,
				"element": "H" 
			},
			{
				"x": 1.079349291,
				"y": 0.4335290855,
				"z": -3.6464356761,
				"element": "H" 
			},
			{
				"x": 2.6990930797,
				"y": -1.098080038,
				"z": -4.7225249078,
				"element": "H" 
			},
			{
				"x": 3.4249473002,
				"y": -3.1743234582,
				"z": -3.5751130299,
				"element": "H" 
			},
			{
				"x": 2.5394464742,
				"y": -3.745553734,
				"z": -1.3276426189,
				"element": "H" 
			},
			{
				"x": -0.3661547318,
				"y": -1.3170986791,
				"z": 2.9463769608,
				"element": "H" 
			},
			{
				"x": -4.6397131425,
				"y": 1.6722413638,
				"z": 2.8830781338,
				"element": "H" 
			},
			{
				"x": -4.3035632615,
				"y": 2.1179796099,
				"z": 1.2831079014,
				"element": "H" 
			}
		],
		 "valence_orbital": [ 
			{
				"type": "occ",
				"energy": -0.27586,
				"method": "rhf"
			},
			{
				"type": "occ",
				"energy": -0.26861,
				"method": "rhf"
			},
			{
				"type": "occ",
				"energy": -0.23858,
				"method": "rhf"
			},
			{
				"type": "occ",
				"energy": -0.21455,
				"method": "rhf"
			},
			{
				"type": "occ",
				"energy": -0.1954,
				"method": "rhf"
			},
			{
				"type": "unocc",
				"energy": -0.03851,
				"method": "rhf"
			},
			{
				"type": "unocc",
				"energy": 0.00056,
				"method": "rhf"
			},
			{
				"type": "unocc",
				"energy": 0.00546,
				"method": "rhf"
			},
			{
				"type": "unocc",
				"energy": 0.00898,
				"method": "rhf"
			},
			{
				"type": "unocc",
				"energy": 0.02687,
				"method": "rhf"
			}
		],
		"cosmo_sigma_profile": { 
			"-0.025": 0.0,
			"-0.024": 0.0,
			"-0.023": 0.0,
			"-0.022": 0.0,
			"-0.021": 0.0,
			"-0.02": 0.0,
			"-0.019": 0.0,
			"-0.018": 0.0,
			"-0.017": 0.0,
			"-0.016": 0.0,
			"-0.015": 0.541362915413,
			"-0.014": 1.99034229175,
			"-0.013": 2.92441726785,
			"-0.012": 2.38388233124,
			"-0.011": 2.37955216288,
			"-0.01": 2.6470715561,
			"-0.009": 2.79986213649,
			"-0.008": 3.18698752171,
			"-0.007": 4.6576382092,
			"-0.006": 8.46436165939,
			"-0.005": 12.9348973916,
			"-0.004": 16.8977397453,
			"-0.003": 16.889390801,
			"-0.002": 14.6540438528,
			"-0.001": 14.0071231256,
			"0.0": 16.7554566634,
			"0.001": 21.3718841808,
			"0.002": 23.5005313521,
			"0.003": 31.0065959553,
			"0.004": 29.8666662221,
			"0.005": 18.9038187589,
			"0.006": 8.93081589701,
			"0.007": 2.34667459784,
			"0.008": 1.65973630457,
			"0.009": 1.72303952965,
			"0.01": 1.3878302509,
			"0.011": 1.43211416215,
			"0.012": 0.601867066859,
			"0.013": 0.0299963629671,
			"0.014": 0.0,
			"0.015": 0.0,
			"0.016": 0.0,
			"0.017": 0.0,
			"0.018": 0.0,
			"0.019": 0.0,
			"0.02": 0.0,
			"0.021": 0.0,
			"0.022": 0.0,
			"0.023": 0.0,
			"0.024": 0.0,
			"0.025": 0.0
		}
	}
}
