{
	 "smiles": "CN(C)C1=CC=C(C=NC2=C(CC3=CC=C(Cl)C=C3)C(N=CC3=CC=C(C=C3)N(C)C)=NN2)C=C1", 
	 "Tm": 534.15, 
	 "num_atms": 64, 
	 "gaussian": { 
		 "optdone": 1, 
		 "sigma_profile": "yes", 
		 "theory": "DFT", 
		 "functional": "B3LYP", 
		 "basiset": "6-31G**", 
		 "properties": { 
			 "R2extent": 34418.4188, 
			 "electric_dipole_moment_norm": 2.55474447646, 
			 "electric_quadrupole_moment_norm": 79.2623677059, 
			 "total_energy": -1873.12956164, 
			 "HOMO_LUMO_gap": 0.13168, 
			 "cosmo_polarized_energy": -22.73, 
			 "cosmo_cavitation_energy": 69.74, 
			 "cosmo_dispersion_energy": -47.79, 
			 "cosmo_repulsion_energy": 3.56, 
			 "cosmo_total_nonelectrostatic_energy": 25.51, 
			 "SMD_solvation_energy": 8.06 
		},
		"coords": [
			{
				"x": -3.2217305501,
				"y": -7.5460828011,
				"z": 4.5111678312,
				"element": "C" 
			},
			{
				"x": -1.9936531017,
				"y": -6.8152244399,
				"z": 4.7744963198,
				"element": "N" 
			},
			{
				"x": -1.1057855105,
				"y": -7.2673198258,
				"z": 5.8327155619,
				"element": "C" 
			},
			{
				"x": -1.6083310213,
				"y": -5.7883690002,
				"z": 3.9372070448,
				"element": "C" 
			},
			{
				"x": -2.4231791039,
				"y": -5.3756836425,
				"z": 2.8543995103,
				"element": "C" 
			},
			{
				"x": -2.028343466,
				"y": -4.334289369,
				"z": 2.0278338426,
				"element": "C" 
			},
			{
				"x": -0.8142000475,
				"y": -3.6539563424,
				"z": 2.2235956909,
				"element": "C" 
			},
			{
				"x": -0.4364971403,
				"y": -2.5711714436,
				"z": 1.3301112042,
				"element": "C" 
			},
			{
				"x": 0.6891970639,
				"y": -1.9454690074,
				"z": 1.431752874,
				"element": "N" 
			},
			{
				"x": 0.9957341807,
				"y": -0.8944807966,
				"z": 0.595623664,
				"element": "C" 
			},
			{
				"x": 0.3022606842,
				"y": 0.0288680863,
				"z": -0.1996150045,
				"element": "C" 
			},
			{
				"x": -1.1725837355,
				"y": 0.2118127114,
				"z": -0.4149434316,
				"element": "C" 
			},
			{
				"x": -1.8164134356,
				"y": -0.6817087598,
				"z": -1.4682419943,
				"element": "C" 
			},
			{
				"x": -3.0848054413,
				"y": -1.2360597935,
				"z": -1.2540890915,
				"element": "C" 
			},
			{
				"x": -3.7099979919,
				"y": -2.0238430844,
				"z": -2.2230364423,
				"element": "C" 
			},
			{
				"x": -3.0519142996,
				"y": -2.2585448587,
				"z": -3.4276709604,
				"element": "C" 
			},
			{
				"x": -3.8245145976,
				"y": -3.2545079397,
				"z": -4.6589643492,
				"element": "Cl" 
			},
			{
				"x": -1.78965426,
				"y": -1.7181503693,
				"z": -3.6724690796,
				"element": "C" 
			},
			{
				"x": -1.1817276466,
				"y": -0.9356195449,
				"z": -2.6917876585,
				"element": "C" 
			},
			{
				"x": 1.3210459373,
				"y": 0.8697544676,
				"z": -0.7265366718,
				"element": "C" 
			},
			{
				"x": 1.0570628798,
				"y": 1.9383312531,
				"z": -1.5787314956,
				"element": "N" 
			},
			{
				"x": 2.0301443651,
				"y": 2.6514309147,
				"z": -2.0325833964,
				"element": "C" 
			},
			{
				"x": 1.8262133494,
				"y": 3.7820368,
				"z": -2.9273531397,
				"element": "C" 
			},
			{
				"x": 2.9261807915,
				"y": 4.5265804647,
				"z": -3.3837657264,
				"element": "C" 
			},
			{
				"x": 2.7727422826,
				"y": 5.6115217609,
				"z": -4.2356998895,
				"element": "C" 
			},
			{
				"x": 1.4880546904,
				"y": 6.0030281551,
				"z": -4.6834034477,
				"element": "C" 
			},
			{
				"x": 0.3759449606,
				"y": 5.254775734,
				"z": -4.2149212422,
				"element": "C" 
			},
			{
				"x": 0.5476047706,
				"y": 4.176503995,
				"z": -3.3649390076,
				"element": "C" 
			},
			{
				"x": 1.3211331883,
				"y": 7.0694566201,
				"z": -5.5477550664,
				"element": "N" 
			},
			{
				"x": -0.0157914689,
				"y": 7.5299852719,
				"z": -5.8832880983,
				"element": "C" 
			},
			{
				"x": 2.4621420267,
				"y": 7.8937839944,
				"z": -5.9071456769,
				"element": "C" 
			},
			{
				"x": 2.5454850455,
				"y": 0.5126337484,
				"z": -0.3017370661,
				"element": "N" 
			},
			{
				"x": 2.3125181982,
				"y": -0.5365083384,
				"z": 0.5013214037,
				"element": "N" 
			},
			{
				"x": -0.0013446508,
				"y": -4.0660570703,
				"z": 3.2972201911,
				"element": "C" 
			},
			{
				"x": -0.379494168,
				"y": -5.1024460947,
				"z": 4.1314119699,
				"element": "C" 
			},
			{
				"x": -3.2038052142,
				"y": -8.0522838402,
				"z": 3.5354081662,
				"element": "H" 
			},
			{
				"x": -3.3607811337,
				"y": -8.3044942138,
				"z": 5.2822794079,
				"element": "H" 
			},
			{
				"x": -4.0968739715,
				"y": -6.8839930575,
				"z": 4.5316878883,
				"element": "H" 
			},
			{
				"x": -1.5901669159,
				"y": -8.0713971418,
				"z": 6.3876943598,
				"element": "H" 
			},
			{
				"x": -0.879955681,
				"y": -6.4609473079,
				"z": 6.5420312326,
				"element": "H" 
			},
			{
				"x": -0.1526228971,
				"y": -7.650741481,
				"z": 5.4416427034,
				"element": "H" 
			},
			{
				"x": -3.3654164341,
				"y": -5.8716088594,
				"z": 2.6578640703,
				"element": "H" 
			},
			{
				"x": -2.6733682018,
				"y": -4.0413475524,
				"z": 1.2024315944,
				"element": "H" 
			},
			{
				"x": -1.1628336306,
				"y": -2.3322097862,
				"z": 0.5452874889,
				"element": "H" 
			},
			{
				"x": -1.7099473264,
				"y": 0.0805203068,
				"z": 0.5326525937,
				"element": "H" 
			},
			{
				"x": -1.3204156499,
				"y": 1.2559017629,
				"z": -0.7174027132,
				"element": "H" 
			},
			{
				"x": -3.5999423518,
				"y": -1.0474714401,
				"z": -0.3149253667,
				"element": "H" 
			},
			{
				"x": -4.6918964196,
				"y": -2.4491518101,
				"z": -2.0456470339,
				"element": "H" 
			},
			{
				"x": -1.2911733596,
				"y": -1.908483981,
				"z": -4.6167813093,
				"element": "H" 
			},
			{
				"x": -0.200358099,
				"y": -0.5113227727,
				"z": -2.8796146197,
				"element": "H" 
			},
			{
				"x": 3.0699058771,
				"y": 2.4312291746,
				"z": -1.7595843423,
				"element": "H" 
			},
			{
				"x": 3.9262436844,
				"y": 4.2488211409,
				"z": -3.0582705644,
				"element": "H" 
			},
			{
				"x": 3.6533907049,
				"y": 6.1558897184,
				"z": -4.5530404483,
				"element": "H" 
			},
			{
				"x": -0.6280665417,
				"y": 5.5230940906,
				"z": -4.5200941046,
				"element": "H" 
			},
			{
				"x": -0.3122301227,
				"y": 3.6132183772,
				"z": -3.0169486222,
				"element": "H" 
			},
			{
				"x": 0.0577183311,
				"y": 8.3596947774,
				"z": -6.5875334428,
				"element": "H" 
			},
			{
				"x": -0.5763816673,
				"y": 7.877717882,
				"z": -5.0028428376,
				"element": "H" 
			},
			{
				"x": -0.6017000652,
				"y": 6.7377342091,
				"z": -6.3647127751,
				"element": "H" 
			},
			{
				"x": 3.2420047682,
				"y": 7.3012630107,
				"z": -6.4009894739,
				"element": "H" 
			},
			{
				"x": 2.1408662906,
				"y": 8.6656022842,
				"z": -6.6077315477,
				"element": "H" 
			},
			{
				"x": 2.9157043771,
				"y": 8.3899160408,
				"z": -5.0360227523,
				"element": "H" 
			},
			{
				"x": 3.0741079085,
				"y": -1.0157079096,
				"z": 0.9579350107,
				"element": "H" 
			},
			{
				"x": 0.9397390689,
				"y": -3.5505600611,
				"z": 3.459739302,
				"element": "H" 
			},
			{
				"x": 0.2794518944,
				"y": -5.3863930162,
				"z": 4.9427089642,
				"element": "H" 
			}
		],
		 "valence_orbital": [ 
			{
				"type": "occ",
				"energy": -0.23024,
				"method": "rhf"
			},
			{
				"type": "occ",
				"energy": -0.2236,
				"method": "rhf"
			},
			{
				"type": "occ",
				"energy": -0.21904,
				"method": "rhf"
			},
			{
				"type": "occ",
				"energy": -0.18595,
				"method": "rhf"
			},
			{
				"type": "occ",
				"energy": -0.1772,
				"method": "rhf"
			},
			{
				"type": "unocc",
				"energy": -0.04552,
				"method": "rhf"
			},
			{
				"type": "unocc",
				"energy": -0.03605,
				"method": "rhf"
			},
			{
				"type": "unocc",
				"energy": -0.00328,
				"method": "rhf"
			},
			{
				"type": "unocc",
				"energy": 0.00036,
				"method": "rhf"
			},
			{
				"type": "unocc",
				"energy": 0.00193,
				"method": "rhf"
			}
		],
		"cosmo_sigma_profile": { 
			"-0.025": 0.0,
			"-0.024": 0.0,
			"-0.023": 0.0,
			"-0.022": 0.0,
			"-0.021": 0.0,
			"-0.02": 0.0,
			"-0.019": 0.0,
			"-0.018": 0.0,
			"-0.017": 0.0,
			"-0.016": 0.563987633936,
			"-0.015": 1.17960711621,
			"-0.014": 1.17906586644,
			"-0.013": 0.639962850335,
			"-0.012": 0.288002766965,
			"-0.011": 0.981627360025,
			"-0.01": 1.01849843847,
			"-0.009": 0.680518517634,
			"-0.008": 0.872023241253,
			"-0.007": 7.63840159099,
			"-0.006": 20.7290775772,
			"-0.005": 40.4831205184,
			"-0.004": 54.5703459855,
			"-0.003": 50.6571744884,
			"-0.002": 54.0351923567,
			"-0.001": 41.3903095743,
			"0.0": 32.4599418939,
			"0.001": 30.1887665028,
			"0.002": 37.6962542321,
			"0.003": 43.6547387557,
			"0.004": 50.3731099808,
			"0.005": 42.583961991,
			"0.006": 20.7124198707,
			"0.007": 5.74111005557,
			"0.008": 5.34088481052,
			"0.009": 4.30964490958,
			"0.01": 2.95341412643,
			"0.011": 1.24502473247,
			"0.012": 1.13862753347,
			"0.013": 1.02776005875,
			"0.014": 1.07084728472,
			"0.015": 0.395154380635,
			"0.016": 0.0,
			"0.017": 0.0,
			"0.018": 0.0,
			"0.019": 0.0,
			"0.02": 0.0,
			"0.021": 0.0,
			"0.022": 0.0,
			"0.023": 0.0,
			"0.024": 0.0,
			"0.025": 0.0
		}
	}
}
