{
	 "smiles": "OC(=O)C1=CC(=CS1)S(F)(=O)=O", 
	 "Tm": 465.15, 
	 "num_atms": 15, 
	 "gaussian": { 
		 "optdone": 1, 
		 "sigma_profile": "yes", 
		 "theory": "DFT", 
		 "functional": "B3LYP", 
		 "basiset": "6-31G**", 
		 "properties": { 
			 "R2extent": 3631.7257, 
			 "electric_dipole_moment_norm": 4.66632017761, 
			 "electric_quadrupole_moment_norm": 11.7490357302, 
			 "total_energy": -1389.37485777, 
			 "HOMO_LUMO_gap": 0.19549, 
			 "cosmo_polarized_energy": -14.27, 
			 "cosmo_cavitation_energy": 24.48, 
			 "cosmo_dispersion_energy": -19.03, 
			 "cosmo_repulsion_energy": 1.41, 
			 "cosmo_total_nonelectrostatic_energy": 6.86, 
			 "SMD_solvation_energy": 4.94 
		},
		"coords": [
			{
				"x": 2.2974354479,
				"y": 0.6614402993,
				"z": -3.7059074085,
				"element": "O" 
			},
			{
				"x": 1.3055562437,
				"y": 0.2316015221,
				"z": -2.8913332054,
				"element": "C" 
			},
			{
				"x": 0.2831566131,
				"y": -0.2837727667,
				"z": -3.2892493168,
				"element": "O" 
			},
			{
				"x": 1.6163944574,
				"y": 0.4649932842,
				"z": -1.4699610409,
				"element": "C" 
			},
			{
				"x": 0.7941246104,
				"y": 0.1308682066,
				"z": -0.4218097848,
				"element": "C" 
			},
			{
				"x": 1.3735081938,
				"y": 0.4832998625,
				"z": 0.8259125548,
				"element": "C" 
			},
			{
				"x": 2.6117737416,
				"y": 1.0731486808,
				"z": 0.718872755,
				"element": "C" 
			},
			{
				"x": 3.0954656471,
				"y": 1.2092926773,
				"z": -0.923166804,
				"element": "S" 
			},
			{
				"x": 0.6263582271,
				"y": 0.2172806804,
				"z": 2.4141031998,
				"element": "S" 
			},
			{
				"x": -0.7428558972,
				"y": -0.4735337882,
				"z": 1.8899645647,
				"element": "F" 
			},
			{
				"x": 1.3467295628,
				"y": -0.7998855561,
				"z": 3.1537679909,
				"element": "O" 
			},
			{
				"x": 0.2485279846,
				"y": 1.4790914232,
				"z": 3.0188782918,
				"element": "O" 
			},
			{
				"x": 2.0146023851,
				"y": 0.471865104,
				"z": -4.6158644092,
				"element": "H" 
			},
			{
				"x": -0.1697502611,
				"y": -0.3409918332,
				"z": -0.5540655595,
				"element": "H" 
			},
			{
				"x": 3.2509730437,
				"y": 1.4278022037,
				"z": 1.5160581721,
				"element": "H" 
			}
		],
		 "valence_orbital": [ 
			{
				"type": "occ",
				"energy": -0.34539,
				"method": "rhf"
			},
			{
				"type": "occ",
				"energy": -0.33558,
				"method": "rhf"
			},
			{
				"type": "occ",
				"energy": -0.30498,
				"method": "rhf"
			},
			{
				"type": "occ",
				"energy": -0.29897,
				"method": "rhf"
			},
			{
				"type": "occ",
				"energy": -0.28429,
				"method": "rhf"
			},
			{
				"type": "unocc",
				"energy": -0.0888,
				"method": "rhf"
			},
			{
				"type": "unocc",
				"energy": -0.025,
				"method": "rhf"
			},
			{
				"type": "unocc",
				"energy": -0.02063,
				"method": "rhf"
			},
			{
				"type": "unocc",
				"energy": 0.01159,
				"method": "rhf"
			},
			{
				"type": "unocc",
				"energy": 0.02689,
				"method": "rhf"
			}
		],
		"cosmo_sigma_profile": { 
			"-0.025": 0.0,
			"-0.024": 0.0,
			"-0.023": 0.0,
			"-0.022": 0.0,
			"-0.021": 0.0,
			"-0.02": 0.0884094868937,
			"-0.019": 0.930667571618,
			"-0.018": 0.861777906056,
			"-0.017": 0.669571512484,
			"-0.016": 0.829328291674,
			"-0.015": 1.08572582992,
			"-0.014": 0.553543133054,
			"-0.013": 1.2776128589,
			"-0.012": 4.01316419549,
			"-0.011": 2.54090459485,
			"-0.01": 2.37674463779,
			"-0.009": 2.66141355916,
			"-0.008": 3.99067988957,
			"-0.007": 4.2023711269,
			"-0.006": 5.13783740679,
			"-0.005": 6.01868059874,
			"-0.004": 9.41422084794,
			"-0.003": 11.1900033457,
			"-0.002": 16.3706578293,
			"-0.001": 21.6393041564,
			"0.0": 17.7278170001,
			"0.001": 12.1649517697,
			"0.002": 12.3080192925,
			"0.003": 6.25381140047,
			"0.004": 6.25145298236,
			"0.005": 5.63113279707,
			"0.006": 6.06748104966,
			"0.007": 6.83870830513,
			"0.008": 15.8323435671,
			"0.009": 6.31375940965,
			"0.01": 3.19582210277,
			"0.011": 5.01621799134,
			"0.012": 0.37795993972,
			"0.013": 0.0,
			"0.014": 0.0,
			"0.015": 0.0,
			"0.016": 0.0,
			"0.017": 0.0,
			"0.018": 0.0,
			"0.019": 0.0,
			"0.02": 0.0,
			"0.021": 0.0,
			"0.022": 0.0,
			"0.023": 0.0,
			"0.024": 0.0,
			"0.025": 0.0
		}
	}
}
