{
	 "smiles": "ClC1=CC=C(CNC(=O)N2C=CN=C2)C=C1", 
	 "Tm": 368.15, 
	 "num_atms": 26, 
	 "gaussian": { 
		 "optdone": 1, 
		 "sigma_profile": "yes", 
		 "theory": "DFT", 
		 "functional": "B3LYP", 
		 "basiset": "6-31G**", 
		 "properties": { 
			 "R2extent": 6103.0741, 
			 "electric_dipole_moment_norm": 4.28889526219, 
			 "electric_quadrupole_moment_norm": 21.9150994538, 
			 "total_energy": -1124.86838132, 
			 "HOMO_LUMO_gap": 0.20534, 
			 "cosmo_polarized_energy": -16.94, 
			 "cosmo_cavitation_energy": 32.98, 
			 "cosmo_dispersion_energy": -23.57, 
			 "cosmo_repulsion_energy": 1.82, 
			 "cosmo_total_nonelectrostatic_energy": 11.23, 
			 "SMD_solvation_energy": 4.64 
		},
		"coords": [
			{
				"x": 4.2068651064,
				"y": 0.802867646,
				"z": 3.4350679177,
				"element": "Cl" 
			},
			{
				"x": 2.8699877583,
				"y": 0.8973255767,
				"z": 2.3009601072,
				"element": "C" 
			},
			{
				"x": 2.445159035,
				"y": 2.1424123663,
				"z": 1.8421850854,
				"element": "C" 
			},
			{
				"x": 1.3847115609,
				"y": 2.205144877,
				"z": 0.9369401196,
				"element": "C" 
			},
			{
				"x": 0.7431555809,
				"y": 1.0443192652,
				"z": 0.4935034052,
				"element": "C" 
			},
			{
				"x": -0.4271433202,
				"y": 1.1325374013,
				"z": -0.4679004318,
				"element": "C" 
			},
			{
				"x": -0.2354720998,
				"y": 0.2784491709,
				"z": -1.6464994813,
				"element": "N" 
			},
			{
				"x": -1.0252533065,
				"y": -0.7515173909,
				"z": -2.0871976527,
				"element": "C" 
			},
			{
				"x": -0.5936707182,
				"y": -1.7174547003,
				"z": -2.6906229863,
				"element": "O" 
			},
			{
				"x": -2.4209869356,
				"y": -0.6271460303,
				"z": -1.8271916999,
				"element": "N" 
			},
			{
				"x": -3.225416306,
				"y": 0.5065608026,
				"z": -1.6989645648,
				"element": "C" 
			},
			{
				"x": -4.5003996932,
				"y": 0.0325098,
				"z": -1.5721446183,
				"element": "C" 
			},
			{
				"x": -4.5226960405,
				"y": -1.3508089873,
				"z": -1.6159978825,
				"element": "N" 
			},
			{
				"x": -3.2776402478,
				"y": -1.7117652802,
				"z": -1.7851204823,
				"element": "C" 
			},
			{
				"x": 1.1915466202,
				"y": -0.1958877476,
				"z": 0.9694130764,
				"element": "C" 
			},
			{
				"x": 2.2514958664,
				"y": -0.2775429542,
				"z": 1.8696323204,
				"element": "C" 
			},
			{
				"x": 2.9393198663,
				"y": 3.0458420417,
				"z": 2.1816761908,
				"element": "H" 
			},
			{
				"x": 1.0559836948,
				"y": 3.1752606653,
				"z": 0.5732511653,
				"element": "H" 
			},
			{
				"x": -1.3478729888,
				"y": 0.8212788293,
				"z": 0.0328136967,
				"element": "H" 
			},
			{
				"x": -0.566932274,
				"y": 2.1772459187,
				"z": -0.7725279696,
				"element": "H" 
			},
			{
				"x": 0.7264603498,
				"y": 0.136026908,
				"z": -1.9287873166,
				"element": "H" 
			},
			{
				"x": -2.8275408216,
				"y": 1.5056438476,
				"z": -1.7630918724,
				"element": "H" 
			},
			{
				"x": -5.4100984218,
				"y": 0.6059164145,
				"z": -1.4589607678,
				"element": "H" 
			},
			{
				"x": -2.8998827716,
				"y": -2.7188368535,
				"z": -1.881502655,
				"element": "H" 
			},
			{
				"x": 0.7124437257,
				"y": -1.1107208731,
				"z": 0.6314406837,
				"element": "H" 
			},
			{
				"x": 2.5949767812,
				"y": -1.2385607137,
				"z": 2.2359266129,
				"element": "H" 
			}
		],
		 "valence_orbital": [ 
			{
				"type": "occ",
				"energy": -0.28063,
				"method": "rhf"
			},
			{
				"type": "occ",
				"energy": -0.27633,
				"method": "rhf"
			},
			{
				"type": "occ",
				"energy": -0.27401,
				"method": "rhf"
			},
			{
				"type": "occ",
				"energy": -0.2563,
				"method": "rhf"
			},
			{
				"type": "occ",
				"energy": -0.241,
				"method": "rhf"
			},
			{
				"type": "unocc",
				"energy": -0.03566,
				"method": "rhf"
			},
			{
				"type": "unocc",
				"energy": -0.03155,
				"method": "rhf"
			},
			{
				"type": "unocc",
				"energy": -0.01962,
				"method": "rhf"
			},
			{
				"type": "unocc",
				"energy": 0.01843,
				"method": "rhf"
			},
			{
				"type": "unocc",
				"energy": 0.05138,
				"method": "rhf"
			}
		],
		"cosmo_sigma_profile": { 
			"-0.025": 0.0,
			"-0.024": 0.0,
			"-0.023": 0.0,
			"-0.022": 0.0,
			"-0.021": 0.0,
			"-0.02": 0.0,
			"-0.019": 0.0,
			"-0.018": 0.0,
			"-0.017": 0.0,
			"-0.016": 0.0,
			"-0.015": 0.126683714649,
			"-0.014": 0.56864181696,
			"-0.013": 0.742174964296,
			"-0.012": 0.984806875445,
			"-0.011": 0.610424008295,
			"-0.01": 1.09743650775,
			"-0.009": 3.53332715308,
			"-0.008": 5.80294031394,
			"-0.007": 15.5935790288,
			"-0.006": 19.5455215928,
			"-0.005": 18.1556768158,
			"-0.004": 17.1419704155,
			"-0.003": 14.9147525129,
			"-0.002": 13.9456435763,
			"-0.001": 14.3139526657,
			"0.0": 14.837211001,
			"0.001": 18.6219694236,
			"0.002": 21.120781686,
			"0.003": 23.153482308,
			"0.004": 20.5549509529,
			"0.005": 10.5910320521,
			"0.006": 2.48931854823,
			"0.007": 2.14667148023,
			"0.008": 3.73597860463,
			"0.009": 3.43799995699,
			"0.01": 2.62014197702,
			"0.011": 2.27006275642,
			"0.012": 6.74614118392,
			"0.013": 3.1189907421,
			"0.014": 1.27232987028,
			"0.015": 1.20788755662,
			"0.016": 0.718479494906,
			"0.017": 1.01833393018,
			"0.018": 0.0797098755009,
			"0.019": 0.0,
			"0.02": 0.0,
			"0.021": 0.0,
			"0.022": 0.0,
			"0.023": 0.0,
			"0.024": 0.0,
			"0.025": 0.0
		}
	}
}
