{
	 "smiles": "CN(C)C(=O)SC1=CN2N=C(C)C=C2N=C1", 
	 "Tm": 418.15, 
	 "num_atms": 28, 
	 "gaussian": { 
		 "optdone": 1, 
		 "sigma_profile": "yes", 
		 "theory": "DFT", 
		 "functional": "B3LYP", 
		 "basiset": "6-31G**", 
		 "properties": { 
			 "R2extent": 5851.0968, 
			 "electric_dipole_moment_norm": 3.8025684241, 
			 "electric_quadrupole_moment_norm": 28.9194213509, 
			 "total_energy": -1080.69768673, 
			 "HOMO_LUMO_gap": 0.16979, 
			 "cosmo_polarized_energy": -13.64, 
			 "cosmo_cavitation_energy": 33.85, 
			 "cosmo_dispersion_energy": -25.12, 
			 "cosmo_repulsion_energy": 1.92, 
			 "cosmo_total_nonelectrostatic_energy": 10.64, 
			 "SMD_solvation_energy": 4.14 
		},
		"coords": [
			{
				"x": -5.1465357275,
				"y": 1.6770311982,
				"z": 1.0372649245,
				"element": "C" 
			},
			{
				"x": -4.2793529749,
				"y": 0.6778225872,
				"z": 1.6428624226,
				"element": "N" 
			},
			{
				"x": -4.8700880362,
				"y": -0.1379739811,
				"z": 2.7006025663,
				"element": "C" 
			},
			{
				"x": -3.0351431235,
				"y": 0.3477978695,
				"z": 1.1923433902,
				"element": "C" 
			},
			{
				"x": -2.3281657334,
				"y": -0.5200212176,
				"z": 1.6664896327,
				"element": "O" 
			},
			{
				"x": -2.4664437473,
				"y": 1.3334542659,
				"z": -0.2721832158,
				"element": "S" 
			},
			{
				"x": -0.8140615081,
				"y": 0.6974743872,
				"z": -0.3971263864,
				"element": "C" 
			},
			{
				"x": 0.2543377055,
				"y": 1.5178705638,
				"z": -0.1281081078,
				"element": "C" 
			},
			{
				"x": 1.5000868917,
				"y": 1.0169886698,
				"z": -0.311167393,
				"element": "N" 
			},
			{
				"x": 2.6584635831,
				"y": 1.6835829622,
				"z": -0.1072069719,
				"element": "N" 
			},
			{
				"x": 3.6125028184,
				"y": 0.785443693,
				"z": -0.4115436885,
				"element": "C" 
			},
			{
				"x": 5.0528246286,
				"y": 1.1785080484,
				"z": -0.2978420773,
				"element": "C" 
			},
			{
				"x": 3.0820454284,
				"y": -0.4585287432,
				"z": -0.8124276506,
				"element": "C" 
			},
			{
				"x": 1.7033892169,
				"y": -0.3089558947,
				"z": -0.7463699014,
				"element": "C" 
			},
			{
				"x": 0.6585834935,
				"y": -1.1286671033,
				"z": -1.005276079,
				"element": "N" 
			},
			{
				"x": -0.5487185762,
				"y": -0.6392164511,
				"z": -0.8386292572,
				"element": "C" 
			},
			{
				"x": -4.5645972791,
				"y": 2.4292971683,
				"z": 0.5034804861,
				"element": "H" 
			},
			{
				"x": -5.8666749174,
				"y": 1.2262549713,
				"z": 0.3417369475,
				"element": "H" 
			},
			{
				"x": -5.7045316904,
				"y": 2.1888904756,
				"z": 1.827762411,
				"element": "H" 
			},
			{
				"x": -5.7353881924,
				"y": -0.696227749,
				"z": 2.3213443882,
				"element": "H" 
			},
			{
				"x": -4.1190638261,
				"y": -0.8381402978,
				"z": 3.0611587678,
				"element": "H" 
			},
			{
				"x": -5.2022245223,
				"y": 0.5018433585,
				"z": 3.5258763512,
				"element": "H" 
			},
			{
				"x": 0.1865482046,
				"y": 2.5418552338,
				"z": 0.2179535112,
				"element": "H" 
			},
			{
				"x": 5.1317757214,
				"y": 2.2157370489,
				"z": 0.033980867,
				"element": "H" 
			},
			{
				"x": 5.5798652025,
				"y": 0.5412066158,
				"z": 0.4204640425,
				"element": "H" 
			},
			{
				"x": 5.5661851404,
				"y": 1.0792993294,
				"z": -1.2603534458,
				"element": "H" 
			},
			{
				"x": 3.615354833,
				"y": -1.3481564854,
				"z": -1.1088847142,
				"element": "H" 
			},
			{
				"x": -1.3871730131,
				"y": -1.2985705234,
				"z": -1.04760182,
				"element": "H" 
			}
		],
		 "valence_orbital": [ 
			{
				"type": "occ",
				"energy": -0.26838,
				"method": "rhf"
			},
			{
				"type": "occ",
				"energy": -0.2587,
				"method": "rhf"
			},
			{
				"type": "occ",
				"energy": -0.25486,
				"method": "rhf"
			},
			{
				"type": "occ",
				"energy": -0.24389,
				"method": "rhf"
			},
			{
				"type": "occ",
				"energy": -0.21885,
				"method": "rhf"
			},
			{
				"type": "unocc",
				"energy": -0.04906,
				"method": "rhf"
			},
			{
				"type": "unocc",
				"energy": -0.01861,
				"method": "rhf"
			},
			{
				"type": "unocc",
				"energy": 0.02212,
				"method": "rhf"
			},
			{
				"type": "unocc",
				"energy": 0.02874,
				"method": "rhf"
			},
			{
				"type": "unocc",
				"energy": 0.05673,
				"method": "rhf"
			}
		],
		"cosmo_sigma_profile": { 
			"-0.025": 0.0,
			"-0.024": 0.0,
			"-0.023": 0.0,
			"-0.022": 0.0,
			"-0.021": 0.0,
			"-0.02": 0.0,
			"-0.019": 0.0,
			"-0.018": 0.0,
			"-0.017": 0.0,
			"-0.016": 0.0,
			"-0.015": 0.0,
			"-0.014": 0.0,
			"-0.013": 0.0,
			"-0.012": 0.0,
			"-0.011": 0.352013510325,
			"-0.01": 1.50111460487,
			"-0.009": 1.34540795887,
			"-0.008": 1.7867472273,
			"-0.007": 4.84098986759,
			"-0.006": 9.56080588149,
			"-0.005": 21.7411441551,
			"-0.004": 25.9137445545,
			"-0.003": 32.0112890958,
			"-0.002": 30.1226916886,
			"-0.001": 25.6987160421,
			"0.0": 18.7035352674,
			"0.001": 14.0502515756,
			"0.002": 13.2849668509,
			"0.003": 14.4062082038,
			"0.004": 11.6812453179,
			"0.005": 6.76396147051,
			"0.006": 6.48411365181,
			"0.007": 5.29774750933,
			"0.008": 3.44470979446,
			"0.009": 3.82708927621,
			"0.01": 3.80008430026,
			"0.011": 4.49276550664,
			"0.012": 5.88457144104,
			"0.013": 2.31603122887,
			"0.014": 1.74783646786,
			"0.015": 0.867657567775,
			"0.016": 0.0,
			"0.017": 0.0,
			"0.018": 0.0,
			"0.019": 0.0,
			"0.02": 0.0,
			"0.021": 0.0,
			"0.022": 0.0,
			"0.023": 0.0,
			"0.024": 0.0,
			"0.025": 0.0
		}
	}
}
