{
	 "smiles": "COC(=O)C1=C(C=CS1)N=C=S", 
	 "Tm": 331.15, 
	 "num_atms": 17, 
	 "gaussian": { 
		 "optdone": 1, 
		 "sigma_profile": "yes", 
		 "theory": "DFT", 
		 "functional": "B3LYP", 
		 "basiset": "6-31G**", 
		 "properties": { 
			 "R2extent": 3488.1934, 
			 "electric_dipole_moment_norm": 3.96008583367, 
			 "electric_quadrupole_moment_norm": 14.6221106117, 
			 "total_energy": -1271.31619531, 
			 "HOMO_LUMO_gap": 0.15775, 
			 "cosmo_polarized_energy": -8.98, 
			 "cosmo_cavitation_energy": 26.64, 
			 "cosmo_dispersion_energy": -20.23, 
			 "cosmo_repulsion_energy": 1.55, 
			 "cosmo_total_nonelectrostatic_energy": 7.96, 
			 "SMD_solvation_energy": 6.15 
		},
		"coords": [
			{
				"x": -2.9391402925,
				"y": 2.2398805587,
				"z": 0.7995204248,
				"element": "C" 
			},
			{
				"x": -2.0708410686,
				"y": 1.2787013676,
				"z": 0.1771492064,
				"element": "O" 
			},
			{
				"x": -0.7460159506,
				"y": 1.4961547279,
				"z": 0.3537936853,
				"element": "C" 
			},
			{
				"x": -0.2943220402,
				"y": 2.4299444404,
				"z": 0.9891147732,
				"element": "O" 
			},
			{
				"x": 0.0572350361,
				"y": 0.4687928683,
				"z": -0.3147212585,
				"element": "C" 
			},
			{
				"x": 1.4468852584,
				"y": 0.3726489099,
				"z": -0.3457907649,
				"element": "C" 
			},
			{
				"x": 1.9074859174,
				"y": -0.7576979842,
				"z": -1.0917592045,
				"element": "C" 
			},
			{
				"x": 0.8790125961,
				"y": -1.4926035029,
				"z": -1.6085658237,
				"element": "C" 
			},
			{
				"x": -0.6690715922,
				"y": -0.8390956571,
				"z": -1.2079275755,
				"element": "S" 
			},
			{
				"x": 2.3288363737,
				"y": 1.2297344046,
				"z": 0.2493542603,
				"element": "N" 
			},
			{
				"x": 2.6107545357,
				"y": 2.1963680733,
				"z": 0.9034427463,
				"element": "C" 
			},
			{
				"x": 3.1553013626,
				"y": 3.4232803182,
				"z": 1.7384809195,
				"element": "S" 
			},
			{
				"x": -2.74936848,
				"y": 3.2407794285,
				"z": 0.4042860581,
				"element": "H" 
			},
			{
				"x": -3.9517592238,
				"y": 1.9174268601,
				"z": 0.5589582007,
				"element": "H" 
			},
			{
				"x": -2.785374323,
				"y": 2.2518129843,
				"z": 1.8813019998,
				"element": "H" 
			},
			{
				"x": 2.9579381782,
				"y": -0.9864794146,
				"z": -1.2198116651,
				"element": "H" 
			},
			{
				"x": 0.9461437128,
				"y": -2.3901483831,
				"z": -2.2080259821,
				"element": "H" 
			}
		],
		 "valence_orbital": [ 
			{
				"type": "occ",
				"energy": -0.29621,
				"method": "rhf"
			},
			{
				"type": "occ",
				"energy": -0.28401,
				"method": "rhf"
			},
			{
				"type": "occ",
				"energy": -0.26568,
				"method": "rhf"
			},
			{
				"type": "occ",
				"energy": -0.25799,
				"method": "rhf"
			},
			{
				"type": "occ",
				"energy": -0.23182,
				"method": "rhf"
			},
			{
				"type": "unocc",
				"energy": -0.07407,
				"method": "rhf"
			},
			{
				"type": "unocc",
				"energy": -0.01863,
				"method": "rhf"
			},
			{
				"type": "unocc",
				"energy": -0.00387,
				"method": "rhf"
			},
			{
				"type": "unocc",
				"energy": 0.02005,
				"method": "rhf"
			},
			{
				"type": "unocc",
				"energy": 0.03453,
				"method": "rhf"
			}
		],
		"cosmo_sigma_profile": { 
			"-0.025": 0.0,
			"-0.024": 0.0,
			"-0.023": 0.0,
			"-0.022": 0.0,
			"-0.021": 0.0,
			"-0.02": 0.0,
			"-0.019": 0.0,
			"-0.018": 0.0,
			"-0.017": 0.0,
			"-0.016": 0.0,
			"-0.015": 0.0,
			"-0.014": 0.0,
			"-0.013": 0.0,
			"-0.012": 0.0,
			"-0.011": 0.0149206038376,
			"-0.01": 1.9615221157,
			"-0.009": 3.07195441744,
			"-0.008": 3.81965628369,
			"-0.007": 4.58036350379,
			"-0.006": 9.6878209795,
			"-0.005": 10.4530410196,
			"-0.004": 12.7337815952,
			"-0.003": 12.9892841818,
			"-0.002": 15.0023401602,
			"-0.001": 21.5965299107,
			"0.0": 25.969638055,
			"0.001": 22.8058574466,
			"0.002": 19.9053799047,
			"0.003": 12.0443549492,
			"0.004": 14.1697171841,
			"0.005": 12.8733509114,
			"0.006": 4.02095173473,
			"0.007": 2.25822653903,
			"0.008": 2.3368984938,
			"0.009": 2.59057955869,
			"0.01": 2.50593771804,
			"0.011": 2.21181609504,
			"0.012": 1.02098913925,
			"0.013": 0.0,
			"0.014": 0.0,
			"0.015": 0.0,
			"0.016": 0.0,
			"0.017": 0.0,
			"0.018": 0.0,
			"0.019": 0.0,
			"0.02": 0.0,
			"0.021": 0.0,
			"0.022": 0.0,
			"0.023": 0.0,
			"0.024": 0.0,
			"0.025": 0.0
		}
	}
}
