{
	 "smiles": "OC(=O)CC1=CC(=C(Cl)C=C1)C(F)(F)F", 
	 "Tm": 356.15, 
	 "num_atms": 21, 
	 "gaussian": { 
		 "optdone": 1, 
		 "sigma_profile": "yes", 
		 "theory": "DFT", 
		 "functional": "B3LYP", 
		 "basiset": "6-31G**", 
		 "properties": { 
			 "R2extent": 5167.0059, 
			 "electric_dipole_moment_norm": 4.45873646452, 
			 "electric_quadrupole_moment_norm": 16.1968175667, 
			 "total_energy": -1256.74519976, 
			 "HOMO_LUMO_gap": 0.2169, 
			 "cosmo_polarized_energy": -17.21, 
			 "cosmo_cavitation_energy": 29.03, 
			 "cosmo_dispersion_energy": -20.72, 
			 "cosmo_repulsion_energy": 1.57, 
			 "cosmo_total_nonelectrostatic_energy": 9.89, 
			 "SMD_solvation_energy": 6.9 
		},
		"coords": [
			{
				"x": 0.4352905425,
				"y": -0.6695348389,
				"z": 3.6380552767,
				"element": "O" 
			},
			{
				"x": 0.7475995103,
				"y": -0.6535525436,
				"z": 2.3160319901,
				"element": "C" 
			},
			{
				"x": 1.8823411806,
				"y": -0.8370920384,
				"z": 1.9603349098,
				"element": "O" 
			},
			{
				"x": -0.4495346099,
				"y": -0.4465936725,
				"z": 1.3793599622,
				"element": "C" 
			},
			{
				"x": -0.0881645306,
				"y": -0.0984008579,
				"z": -0.0453002964,
				"element": "C" 
			},
			{
				"x": -0.6121087588,
				"y": 1.0510794977,
				"z": -0.6387981178,
				"element": "C" 
			},
			{
				"x": -0.3244302897,
				"y": 1.3954766109,
				"z": -1.9635239463,
				"element": "C" 
			},
			{
				"x": 0.5185015222,
				"y": 0.5568482818,
				"z": -2.7058106786,
				"element": "C" 
			},
			{
				"x": 0.9332143516,
				"y": 0.9053677094,
				"z": -4.3719190213,
				"element": "Cl" 
			},
			{
				"x": 1.0546033943,
				"y": -0.5930048252,
				"z": -2.1257028418,
				"element": "C" 
			},
			{
				"x": 0.7531407003,
				"y": -0.9183076158,
				"z": -0.8065942836,
				"element": "C" 
			},
			{
				"x": -0.9296543095,
				"y": 2.6525352668,
				"z": -2.5457036743,
				"element": "C" 
			},
			{
				"x": -1.7020958243,
				"y": 3.2921702489,
				"z": -1.6368321069,
				"element": "F" 
			},
			{
				"x": -1.7140244083,
				"y": 2.3863683674,
				"z": -3.6100333085,
				"element": "F" 
			},
			{
				"x": 0.0136149209,
				"y": 3.5277964604,
				"z": -2.9464013711,
				"element": "F" 
			},
			{
				"x": -0.5070455002,
				"y": -0.4944986002,
				"z": 3.7713394328,
				"element": "H" 
			},
			{
				"x": -1.0268456787,
				"y": -1.3827837792,
				"z": 1.4097154205,
				"element": "H" 
			},
			{
				"x": -1.10604385,
				"y": 0.3260614702,
				"z": 1.7966866315,
				"element": "H" 
			},
			{
				"x": -1.2631418047,
				"y": 1.7048058471,
				"z": -0.0694408658,
				"element": "H" 
			},
			{
				"x": 1.7085128111,
				"y": -1.2274456282,
				"z": -2.7131800859,
				"element": "H" 
			},
			{
				"x": 1.190470631,
				"y": -1.8058953609,
				"z": -0.3639830251,
				"element": "H" 
			}
		],
		 "valence_orbital": [ 
			{
				"type": "occ",
				"energy": -0.33122,
				"method": "rhf"
			},
			{
				"type": "occ",
				"energy": -0.31996,
				"method": "rhf"
			},
			{
				"type": "occ",
				"energy": -0.29145,
				"method": "rhf"
			},
			{
				"type": "occ",
				"energy": -0.27941,
				"method": "rhf"
			},
			{
				"type": "occ",
				"energy": -0.259,
				"method": "rhf"
			},
			{
				"type": "unocc",
				"energy": -0.0421,
				"method": "rhf"
			},
			{
				"type": "unocc",
				"energy": -0.02968,
				"method": "rhf"
			},
			{
				"type": "unocc",
				"energy": -0.0049,
				"method": "rhf"
			},
			{
				"type": "unocc",
				"energy": 0.01988,
				"method": "rhf"
			},
			{
				"type": "unocc",
				"energy": 0.0397,
				"method": "rhf"
			}
		],
		"cosmo_sigma_profile": { 
			"-0.025": 0.0,
			"-0.024": 0.0,
			"-0.023": 0.0,
			"-0.022": 0.0,
			"-0.021": 0.0,
			"-0.02": 0.047916317384,
			"-0.019": 1.01777324089,
			"-0.018": 1.15818397182,
			"-0.017": 1.09965381811,
			"-0.016": 1.48126014508,
			"-0.015": 1.21478294242,
			"-0.014": 1.02145311333,
			"-0.013": 1.35663933958,
			"-0.012": 0.595314621328,
			"-0.011": 1.57581785801,
			"-0.01": 1.79593421859,
			"-0.009": 3.71334983941,
			"-0.008": 8.07485709499,
			"-0.007": 8.68553879631,
			"-0.006": 8.14551215916,
			"-0.005": 7.63608335678,
			"-0.004": 7.71035785838,
			"-0.003": 10.027239408,
			"-0.002": 9.52143639788,
			"-0.001": 11.2724602547,
			"0.0": 17.5636105919,
			"0.001": 22.9986426189,
			"0.002": 29.994462028,
			"0.003": 30.6360233039,
			"0.004": 15.5604708513,
			"0.005": 3.97832152436,
			"0.006": 2.74892568075,
			"0.007": 2.27790082928,
			"0.008": 2.71113045599,
			"0.009": 4.51808726368,
			"0.01": 4.93496381029,
			"0.011": 5.30725721606,
			"0.012": 3.42334089919,
			"0.013": 0.776846925132,
			"0.014": 0.0,
			"0.015": 0.0,
			"0.016": 0.0,
			"0.017": 0.0,
			"0.018": 0.0,
			"0.019": 0.0,
			"0.02": 0.0,
			"0.021": 0.0,
			"0.022": 0.0,
			"0.023": 0.0,
			"0.024": 0.0,
			"0.025": 0.0
		}
	}
}
