{
	 "smiles": "CCOC(=O)C1=C(N)N=C2CCN(C)CC2=C1", 
	 "Tm": 420.15, 
	 "num_atms": 34, 
	 "gaussian": { 
		 "optdone": 1, 
		 "sigma_profile": "yes", 
		 "theory": "DFT", 
		 "functional": "B3LYP", 
		 "basiset": "6-31G**", 
		 "properties": { 
			 "R2extent": 5528.5472, 
			 "electric_dipole_moment_norm": 2.42048163389, 
			 "electric_quadrupole_moment_norm": 10.9299556285, 
			 "total_energy": -782.253279786, 
			 "HOMO_LUMO_gap": 0.16394, 
			 "cosmo_polarized_energy": -11.75, 
			 "cosmo_cavitation_energy": 35.59, 
			 "cosmo_dispersion_energy": -26.11, 
			 "cosmo_repulsion_energy": 2.04, 
			 "cosmo_total_nonelectrostatic_energy": 11.52, 
			 "SMD_solvation_energy": 2.33 
		},
		"coords": [
			{
				"x": -3.4644087103,
				"y": 3.33150533,
				"z": -2.9946343098,
				"element": "C" 
			},
			{
				"x": -3.952308566,
				"y": 2.2914439327,
				"z": -1.9977299341,
				"element": "C" 
			},
			{
				"x": -2.9480874324,
				"y": 2.011011266,
				"z": -0.9912208904,
				"element": "O" 
			},
			{
				"x": -2.0011612528,
				"y": 1.0821684904,
				"z": -1.3216744637,
				"element": "C" 
			},
			{
				"x": -2.0082681496,
				"y": 0.5105436852,
				"z": -2.3974076598,
				"element": "O" 
			},
			{
				"x": -1.0010642887,
				"y": 0.8426765619,
				"z": -0.2589401334,
				"element": "C" 
			},
			{
				"x": -0.9248414356,
				"y": 1.4968037575,
				"z": 1.0084242221,
				"element": "C" 
			},
			{
				"x": -1.7581513366,
				"y": 2.5034050548,
				"z": 1.3895339882,
				"element": "N" 
			},
			{
				"x": 0.0136224307,
				"y": 1.1649875493,
				"z": 1.9165656891,
				"element": "N" 
			},
			{
				"x": 0.913505804,
				"y": 0.2225765449,
				"z": 1.6273929814,
				"element": "C" 
			},
			{
				"x": 1.9053197872,
				"y": -0.1176091534,
				"z": 2.7198417873,
				"element": "C" 
			},
			{
				"x": 3.075170945,
				"y": -0.9792342286,
				"z": 2.2040652586,
				"element": "C" 
			},
			{
				"x": 2.6639405336,
				"y": -2.0585024087,
				"z": 1.3035360108,
				"element": "N" 
			},
			{
				"x": 1.8575318792,
				"y": -3.0869762353,
				"z": 1.9534508928,
				"element": "C" 
			},
			{
				"x": 2.0327133186,
				"y": -1.4949680782,
				"z": 0.1112003706,
				"element": "C" 
			},
			{
				"x": 0.9443204669,
				"y": -0.4680132644,
				"z": 0.4002576589,
				"element": "C" 
			},
			{
				"x": -0.0356684993,
				"y": -0.1366098025,
				"z": -0.525320375,
				"element": "C" 
			},
			{
				"x": -2.6164802794,
				"y": 2.9452492645,
				"z": -3.564725642,
				"element": "H" 
			},
			{
				"x": -4.2681704741,
				"y": 3.5773253113,
				"z": -3.6967590255,
				"element": "H" 
			},
			{
				"x": -3.1608232666,
				"y": 4.2507683826,
				"z": -2.4848224128,
				"element": "H" 
			},
			{
				"x": -4.2139465052,
				"y": 1.3569975449,
				"z": -2.4981438762,
				"element": "H" 
			},
			{
				"x": -4.8125174652,
				"y": 2.6527232733,
				"z": -1.4284747532,
				"element": "H" 
			},
			{
				"x": -1.691961722,
				"y": 2.7940141684,
				"z": 2.3517013763,
				"element": "H" 
			},
			{
				"x": -2.5746576581,
				"y": 2.7095908008,
				"z": 0.8389709023,
				"element": "H" 
			},
			{
				"x": 2.2697129466,
				"y": 0.8101690923,
				"z": 3.1744644292,
				"element": "H" 
			},
			{
				"x": 1.3623155404,
				"y": -0.6450682329,
				"z": 3.515776316,
				"element": "H" 
			},
			{
				"x": 3.6273652778,
				"y": -1.4102858363,
				"z": 3.0466945538,
				"element": "H" 
			},
			{
				"x": 3.7807633809,
				"y": -0.3446194053,
				"z": 1.6522575909,
				"element": "H" 
			},
			{
				"x": 1.7022994355,
				"y": -3.9171142464,
				"z": 1.2563457451,
				"element": "H" 
			},
			{
				"x": 0.8638104529,
				"y": -2.7516269438,
				"z": 2.2988316266,
				"element": "H" 
			},
			{
				"x": 2.4020580666,
				"y": -3.4763730321,
				"z": 2.8201958434,
				"element": "H" 
			},
			{
				"x": 1.628061603,
				"y": -2.3126359686,
				"z": -0.4962069103,
				"element": "H" 
			},
			{
				"x": 2.8219025063,
				"y": -1.0236613961,
				"z": -0.493728866,
				"element": "H" 
			},
			{
				"x": -0.0859973331,
				"y": -0.6353617782,
				"z": -1.4895179911,
				"element": "H" 
			}
		],
		 "valence_orbital": [ 
			{
				"type": "occ",
				"energy": -0.27735,
				"method": "rhf"
			},
			{
				"type": "occ",
				"energy": -0.26906,
				"method": "rhf"
			},
			{
				"type": "occ",
				"energy": -0.24992,
				"method": "rhf"
			},
			{
				"type": "occ",
				"energy": -0.20762,
				"method": "rhf"
			},
			{
				"type": "occ",
				"energy": -0.2056,
				"method": "rhf"
			},
			{
				"type": "unocc",
				"energy": -0.04166,
				"method": "rhf"
			},
			{
				"type": "unocc",
				"energy": 0.00624,
				"method": "rhf"
			},
			{
				"type": "unocc",
				"energy": 0.05512,
				"method": "rhf"
			},
			{
				"type": "unocc",
				"energy": 0.08842,
				"method": "rhf"
			},
			{
				"type": "unocc",
				"energy": 0.09787,
				"method": "rhf"
			}
		],
		"cosmo_sigma_profile": { 
			"-0.025": 0.0,
			"-0.024": 0.0,
			"-0.023": 0.0,
			"-0.022": 0.0,
			"-0.021": 0.0,
			"-0.02": 0.0,
			"-0.019": 0.0,
			"-0.018": 0.0,
			"-0.017": 0.0,
			"-0.016": 0.0,
			"-0.015": 0.0,
			"-0.014": 0.00551667414178,
			"-0.013": 0.553651967787,
			"-0.012": 1.05447671701,
			"-0.011": 0.992149655623,
			"-0.01": 1.06347172565,
			"-0.009": 1.8382875921,
			"-0.008": 2.18801268666,
			"-0.007": 1.59057122363,
			"-0.006": 4.0567331208,
			"-0.005": 9.28394050735,
			"-0.004": 29.4400450561,
			"-0.003": 36.5389272477,
			"-0.002": 33.6359070996,
			"-0.001": 30.6549979552,
			"0.0": 30.6736618494,
			"0.001": 17.128140564,
			"0.002": 19.0646626618,
			"0.003": 12.4368691897,
			"0.004": 6.49900961025,
			"0.005": 5.92694156094,
			"0.006": 5.15673391451,
			"0.007": 5.31873942775,
			"0.008": 3.95761610127,
			"0.009": 2.85880648121,
			"0.01": 2.97269603926,
			"0.011": 3.88376718477,
			"0.012": 5.2017860587,
			"0.013": 2.70497885505,
			"0.014": 1.09705720505,
			"0.015": 0.7435721336,
			"0.016": 0.543375587781,
			"0.017": 0.176935002581,
			"0.018": 0.0,
			"0.019": 0.0,
			"0.02": 0.0,
			"0.021": 0.0,
			"0.022": 0.0,
			"0.023": 0.0,
			"0.024": 0.0,
			"0.025": 0.0
		}
	}
}
