{
	 "smiles": "CC(C)CN1C(S)=NCC1=O", 
	 "Tm": 290.15, 
	 "num_atms": 23, 
	 "gaussian": { 
		 "optdone": 1, 
		 "sigma_profile": "yes", 
		 "theory": "DFT", 
		 "functional": "B3LYP", 
		 "basiset": "6-31G**", 
		 "properties": { 
			 "R2extent": 2624.83, 
			 "electric_dipole_moment_norm": 1.94480511363, 
			 "electric_quadrupole_moment_norm": 5.83526177905, 
			 "total_energy": -856.904018922, 
			 "HOMO_LUMO_gap": 0.22526, 
			 "cosmo_polarized_energy": -10.23, 
			 "cosmo_cavitation_energy": 27.21, 
			 "cosmo_dispersion_energy": -19.69, 
			 "cosmo_repulsion_energy": 1.56, 
			 "cosmo_total_nonelectrostatic_energy": 9.08, 
			 "SMD_solvation_energy": 1.54 
		},
		"coords": [
			{
				"x": -2.0251906916,
				"y": -0.1234521789,
				"z": -2.0264754941,
				"element": "C" 
			},
			{
				"x": -0.5567689359,
				"y": -0.3425821996,
				"z": -1.6357840649,
				"element": "C" 
			},
			{
				"x": -0.3594362655,
				"y": -1.6904666755,
				"z": -0.9317491085,
				"element": "C" 
			},
			{
				"x": -0.07851334,
				"y": 0.8464137007,
				"z": -0.7792921238,
				"element": "C" 
			},
			{
				"x": 1.3488271085,
				"y": 0.8204314077,
				"z": -0.4665408988,
				"element": "N" 
			},
			{
				"x": 1.9990987795,
				"y": 0.5479645873,
				"z": 0.7436402674,
				"element": "C" 
			},
			{
				"x": 1.0315059601,
				"y": 0.1079044375,
				"z": 2.1655470211,
				"element": "S" 
			},
			{
				"x": 3.2768619223,
				"y": 0.6492809369,
				"z": 0.7423668523,
				"element": "N" 
			},
			{
				"x": 3.6389218869,
				"y": 1.0531381437,
				"z": -0.6178709921,
				"element": "C" 
			},
			{
				"x": 2.3292895611,
				"y": 1.1777911735,
				"z": -1.396225728,
				"element": "C" 
			},
			{
				"x": 2.1217362517,
				"y": 1.5109891969,
				"z": -2.5460418901,
				"element": "O" 
			},
			{
				"x": -2.6721846049,
				"y": -0.1042955998,
				"z": -1.1406309146,
				"element": "H" 
			},
			{
				"x": -2.1627647245,
				"y": 0.8207257404,
				"z": -2.5643446465,
				"element": "H" 
			},
			{
				"x": -2.3786043838,
				"y": -0.9311416449,
				"z": -2.6748712564,
				"element": "H" 
			},
			{
				"x": 0.0481359582,
				"y": -0.3311352525,
				"z": -2.5508733875,
				"element": "H" 
			},
			{
				"x": -0.9575872199,
				"y": -1.7507038846,
				"z": -0.0144826813,
				"element": "H" 
			},
			{
				"x": -0.6681471145,
				"y": -2.5139535904,
				"z": -1.5839129221,
				"element": "H" 
			},
			{
				"x": 0.6871472076,
				"y": -1.8588077033,
				"z": -0.6601130627,
				"element": "H" 
			},
			{
				"x": -0.2655602086,
				"y": 1.7794266992,
				"z": -1.3213078437,
				"element": "H" 
			},
			{
				"x": -0.6356008426,
				"y": 0.8929870531,
				"z": 0.1627459601,
				"element": "H" 
			},
			{
				"x": 2.1150306915,
				"y": 0.0586057604,
				"z": 2.9629396882,
				"element": "H" 
			},
			{
				"x": 4.1783111631,
				"y": 2.0075498194,
				"z": -0.617420214,
				"element": "H" 
			},
			{
				"x": 4.2961918414,
				"y": 0.3124300728,
				"z": -1.08900256,
				"element": "H" 
			}
		],
		 "valence_orbital": [ 
			{
				"type": "occ",
				"energy": -0.33466,
				"method": "rhf"
			},
			{
				"type": "occ",
				"energy": -0.30803,
				"method": "rhf"
			},
			{
				"type": "occ",
				"energy": -0.27511,
				"method": "rhf"
			},
			{
				"type": "occ",
				"energy": -0.25199,
				"method": "rhf"
			},
			{
				"type": "occ",
				"energy": -0.24101,
				"method": "rhf"
			},
			{
				"type": "unocc",
				"energy": -0.01575,
				"method": "rhf"
			},
			{
				"type": "unocc",
				"energy": 0.00157,
				"method": "rhf"
			},
			{
				"type": "unocc",
				"energy": 0.03727,
				"method": "rhf"
			},
			{
				"type": "unocc",
				"energy": 0.05844,
				"method": "rhf"
			},
			{
				"type": "unocc",
				"energy": 0.08764,
				"method": "rhf"
			}
		],
		"cosmo_sigma_profile": { 
			"-0.025": 0.0,
			"-0.024": 0.0,
			"-0.023": 0.0,
			"-0.022": 0.0,
			"-0.021": 0.0,
			"-0.02": 0.0,
			"-0.019": 0.0,
			"-0.018": 0.0,
			"-0.017": 0.0,
			"-0.016": 0.0,
			"-0.015": 0.0,
			"-0.014": 0.0,
			"-0.013": 0.00475382665365,
			"-0.012": 0.991264713157,
			"-0.011": 1.46177352216,
			"-0.01": 1.49131848795,
			"-0.009": 0.944517689253,
			"-0.008": 2.61896360261,
			"-0.007": 6.21853676341,
			"-0.006": 7.24463045522,
			"-0.005": 11.2907812638,
			"-0.004": 15.4590768114,
			"-0.003": 24.408223198,
			"-0.002": 22.1740419279,
			"-0.001": 22.1215529217,
			"0.0": 19.9902667656,
			"0.001": 20.6377011092,
			"0.002": 10.611617548,
			"0.003": 7.00376895852,
			"0.004": 5.99370428873,
			"0.005": 4.44994311104,
			"0.006": 6.01433361955,
			"0.007": 2.45545732617,
			"0.008": 2.19647883998,
			"0.009": 2.47022249008,
			"0.01": 2.32384337955,
			"0.011": 3.31090448917,
			"0.012": 5.78359214484,
			"0.013": 3.66935868109,
			"0.014": 0.953360102674,
			"0.015": 0.855599255494,
			"0.016": 0.606367935614,
			"0.017": 0.0616111836753,
			"0.018": 0.0,
			"0.019": 0.0,
			"0.02": 0.0,
			"0.021": 0.0,
			"0.022": 0.0,
			"0.023": 0.0,
			"0.024": 0.0,
			"0.025": 0.0
		}
	}
}
