{
	 "smiles": "NC1=NC(N)=NC(=S)S1", 
	 "Tm": 633.15, 
	 "num_atms": 13, 
	 "gaussian": { 
		 "optdone": 1, 
		 "sigma_profile": "yes", 
		 "theory": "DFT", 
		 "functional": "B3LYP", 
		 "basiset": "6-31G**", 
		 "properties": { 
			 "R2extent": 2504.8266, 
			 "electric_dipole_moment_norm": 7.96132781136, 
			 "electric_quadrupole_moment_norm": 27.2179397486, 
			 "total_energy": -1132.12275867, 
			 "HOMO_LUMO_gap": 0.14415, 
			 "cosmo_polarized_energy": -24.68, 
			 "cosmo_cavitation_energy": 21.19, 
			 "cosmo_dispersion_energy": -17.25, 
			 "cosmo_repulsion_energy": 1.35, 
			 "cosmo_total_nonelectrostatic_energy": 5.3, 
			 "SMD_solvation_energy": 0.0 
		},
		"coords": [
			{
				"x": -1.2727633758,
				"y": 1.6120858682,
				"z": 1.0943563968,
				"element": "N" 
			},
			{
				"x": -0.6688825139,
				"y": 1.2025519722,
				"z": -0.0378159303,
				"element": "C" 
			},
			{
				"x": 0.631719094,
				"y": 1.0602930254,
				"z": -0.0331068713,
				"element": "N" 
			},
			{
				"x": 1.2711599626,
				"y": 0.6462324552,
				"z": -1.16681291,
				"element": "C" 
			},
			{
				"x": 2.6087342746,
				"y": 0.5435104865,
				"z": -1.0307762778,
				"element": "N" 
			},
			{
				"x": 0.7862686942,
				"y": 0.333055848,
				"z": -2.3660570501,
				"element": "N" 
			},
			{
				"x": -0.5025680027,
				"y": 0.3774164798,
				"z": -2.6884891711,
				"element": "C" 
			},
			{
				"x": -1.1769596121,
				"y": 0.0043367697,
				"z": -4.1532166428,
				"element": "S" 
			},
			{
				"x": -1.7349039089,
				"y": 0.9040678768,
				"z": -1.4155432541,
				"element": "S" 
			},
			{
				"x": -0.6975129425,
				"y": 1.7913854707,
				"z": 1.9043684705,
				"element": "H" 
			},
			{
				"x": -2.2708797963,
				"y": 1.7348959955,
				"z": 1.1496657944,
				"element": "H" 
			},
			{
				"x": 3.0378045562,
				"y": 0.7603608772,
				"z": -0.1467991658,
				"element": "H" 
			},
			{
				"x": 3.1546835708,
				"y": 0.2392068749,
				"z": -1.8205733884,
				"element": "H" 
			}
		],
		 "valence_orbital": [ 
			{
				"type": "occ",
				"energy": -0.28359,
				"method": "rhf"
			},
			{
				"type": "occ",
				"energy": -0.26888,
				"method": "rhf"
			},
			{
				"type": "occ",
				"energy": -0.26341,
				"method": "rhf"
			},
			{
				"type": "occ",
				"energy": -0.21645,
				"method": "rhf"
			},
			{
				"type": "occ",
				"energy": -0.20287,
				"method": "rhf"
			},
			{
				"type": "unocc",
				"energy": -0.05872,
				"method": "rhf"
			},
			{
				"type": "unocc",
				"energy": -0.0229,
				"method": "rhf"
			},
			{
				"type": "unocc",
				"energy": 0.0046,
				"method": "rhf"
			},
			{
				"type": "unocc",
				"energy": 0.05252,
				"method": "rhf"
			},
			{
				"type": "unocc",
				"energy": 0.0723,
				"method": "rhf"
			}
		],
		"cosmo_sigma_profile": { 
			"-0.025": 0.0,
			"-0.024": 0.0,
			"-0.023": 0.0,
			"-0.022": 0.0,
			"-0.021": 0.0,
			"-0.02": 0.0,
			"-0.019": 0.0,
			"-0.018": 0.0,
			"-0.017": 0.515073599339,
			"-0.016": 2.29438923826,
			"-0.015": 4.78177424557,
			"-0.014": 4.16538094144,
			"-0.013": 5.4172765976,
			"-0.012": 4.03285158437,
			"-0.011": 4.73023363964,
			"-0.01": 3.10213565921,
			"-0.009": 2.8142160767,
			"-0.008": 3.2544425334,
			"-0.007": 3.13399536166,
			"-0.006": 2.66318923127,
			"-0.005": 5.59013610594,
			"-0.004": 5.06486723517,
			"-0.003": 4.55113609305,
			"-0.002": 7.07004354131,
			"-0.001": 8.37708639066,
			"0.0": 8.80774455151,
			"0.001": 11.2848350377,
			"0.002": 10.7629905849,
			"0.003": 10.4188759085,
			"0.004": 9.06518447596,
			"0.005": 6.78705422772,
			"0.006": 5.63685516876,
			"0.007": 6.40955787429,
			"0.008": 8.91836295097,
			"0.009": 8.39248546555,
			"0.01": 5.45390309573,
			"0.011": 3.73260291439,
			"0.012": 3.03185573254,
			"0.013": 2.31532885595,
			"0.014": 1.59431032818,
			"0.015": 0.119433285757,
			"0.016": 0.0,
			"0.017": 0.0,
			"0.018": 0.0,
			"0.019": 0.0,
			"0.02": 0.0,
			"0.021": 0.0,
			"0.022": 0.0,
			"0.023": 0.0,
			"0.024": 0.0,
			"0.025": 0.0
		}
	}
}
