{
	 "smiles": "C1=CC=C2C(C=CC3=C2N=CC=C3)=C1", 
	 "Tm": 324.15, 
	 "num_atms": 23, 
	 "gaussian": { 
		 "optdone": 1, 
		 "sigma_profile": "yes", 
		 "theory": "DFT", 
		 "functional": "B3LYP", 
		 "basiset": "6-31G**", 
		 "properties": { 
			 "R2extent": 2843.0766, 
			 "electric_dipole_moment_norm": 1.64443148231, 
			 "electric_quadrupole_moment_norm": 13.1918658726, 
			 "total_energy": -555.582180649, 
			 "HOMO_LUMO_gap": 0.16959, 
			 "cosmo_polarized_energy": -7.19, 
			 "cosmo_cavitation_energy": 26.45, 
			 "cosmo_dispersion_energy": -20.04, 
			 "cosmo_repulsion_energy": 1.52, 
			 "cosmo_total_nonelectrostatic_energy": 7.93, 
			 "SMD_solvation_energy": 3.02 
		},
		"coords": [
			{
				"x": 0.5317623819,
				"y": -0.9460157514,
				"z": 3.1531097894,
				"element": "C" 
			},
			{
				"x": -0.0934314987,
				"y": -2.0429302081,
				"z": 2.5264358419,
				"element": "C" 
			},
			{
				"x": -0.2038848493,
				"y": -2.0907923536,
				"z": 1.1487366846,
				"element": "C" 
			},
			{
				"x": 0.306850358,
				"y": -1.043900364,
				"z": 0.3511646765,
				"element": "C" 
			},
			{
				"x": 0.9392782561,
				"y": 0.0662384939,
				"z": 0.9803937622,
				"element": "C" 
			},
			{
				"x": 1.4611966264,
				"y": 1.1350117832,
				"z": 0.1743591313,
				"element": "C" 
			},
			{
				"x": 1.3646007832,
				"y": 1.1108248116,
				"z": -1.1835126868,
				"element": "C" 
			},
			{
				"x": 0.7350089838,
				"y": 0.0111132158,
				"z": -1.8567100344,
				"element": "C" 
			},
			{
				"x": 0.2031169392,
				"y": -1.0709266985,
				"z": -1.0978962893,
				"element": "C" 
			},
			{
				"x": -0.4013097814,
				"y": -2.1338954452,
				"z": -1.6815824382,
				"element": "N" 
			},
			{
				"x": -0.4959171138,
				"y": -2.1584977958,
				"z": -3.0022085675,
				"element": "C" 
			},
			{
				"x": -0.0037856849,
				"y": -1.1412127196,
				"z": -3.8436357345,
				"element": "C" 
			},
			{
				"x": 0.6142660884,
				"y": -0.0526663962,
				"z": -3.2616336584,
				"element": "C" 
			},
			{
				"x": 1.0387250481,
				"y": 0.089697937,
				"z": 2.3913512362,
				"element": "C" 
			},
			{
				"x": 0.6145777209,
				"y": -0.9158554137,
				"z": 4.2358124649,
				"element": "H" 
			},
			{
				"x": -0.4901489043,
				"y": -2.8542692497,
				"z": 3.1299824448,
				"element": "H" 
			},
			{
				"x": -0.6813167817,
				"y": -2.9259554215,
				"z": 0.6490919848,
				"element": "H" 
			},
			{
				"x": 1.9397839661,
				"y": 1.9720941089,
				"z": 0.6761400673,
				"element": "H" 
			},
			{
				"x": 1.7635249795,
				"y": 1.9257501532,
				"z": -1.7822358896,
				"element": "H" 
			},
			{
				"x": -0.9881227977,
				"y": -3.0290718335,
				"z": -3.434097741,
				"element": "H" 
			},
			{
				"x": -0.1134818334,
				"y": -1.2221343746,
				"z": -4.9203869071,
				"element": "H" 
			},
			{
				"x": 1.0102203819,
				"y": 0.757741524,
				"z": -3.8689009475,
				"element": "H" 
			},
			{
				"x": 1.5219867317,
				"y": 0.9383519977,
				"z": 2.8688228103,
				"element": "H" 
			}
		],
		 "valence_orbital": [ 
			{
				"type": "occ",
				"energy": -0.29348,
				"method": "rhf"
			},
			{
				"type": "occ",
				"energy": -0.2711,
				"method": "rhf"
			},
			{
				"type": "occ",
				"energy": -0.25214,
				"method": "rhf"
			},
			{
				"type": "occ",
				"energy": -0.23288,
				"method": "rhf"
			},
			{
				"type": "occ",
				"energy": -0.21748,
				"method": "rhf"
			},
			{
				"type": "unocc",
				"energy": -0.04789,
				"method": "rhf"
			},
			{
				"type": "unocc",
				"energy": -0.03725,
				"method": "rhf"
			},
			{
				"type": "unocc",
				"energy": 0.00153,
				"method": "rhf"
			},
			{
				"type": "unocc",
				"energy": 0.03137,
				"method": "rhf"
			},
			{
				"type": "unocc",
				"energy": 0.07393,
				"method": "rhf"
			}
		],
		"cosmo_sigma_profile": { 
			"-0.025": 0.0,
			"-0.024": 0.0,
			"-0.023": 0.0,
			"-0.022": 0.0,
			"-0.021": 0.0,
			"-0.02": 0.0,
			"-0.019": 0.0,
			"-0.018": 0.0,
			"-0.017": 0.0,
			"-0.016": 0.0,
			"-0.015": 0.0,
			"-0.014": 0.0,
			"-0.013": 0.0,
			"-0.012": 0.0,
			"-0.011": 0.0,
			"-0.01": 0.0,
			"-0.009": 0.0,
			"-0.008": 0.0701093358876,
			"-0.007": 5.67693166902,
			"-0.006": 16.9613514083,
			"-0.005": 16.9854970384,
			"-0.004": 16.7922405041,
			"-0.003": 14.6080540589,
			"-0.002": 11.1297317853,
			"-0.001": 10.6035837678,
			"0.0": 11.7885478522,
			"0.001": 16.113780904,
			"0.002": 25.831766956,
			"0.003": 25.3853162016,
			"0.004": 19.0729455534,
			"0.005": 11.607653276,
			"0.006": 2.62070402485,
			"0.007": 1.38517157258,
			"0.008": 1.68267929096,
			"0.009": 1.51028531512,
			"0.01": 0.990711616833,
			"0.011": 1.26305730446,
			"0.012": 1.03762985439,
			"0.013": 0.333119256928,
			"0.014": 0.0,
			"0.015": 0.0,
			"0.016": 0.0,
			"0.017": 0.0,
			"0.018": 0.0,
			"0.019": 0.0,
			"0.02": 0.0,
			"0.021": 0.0,
			"0.022": 0.0,
			"0.023": 0.0,
			"0.024": 0.0,
			"0.025": 0.0
		}
	}
}
