{
	 "smiles": "COC(=O)CCCCCCCCCCCC(=O)OC", 
	 "Tm": 309.15, 
	 "num_atms": 47, 
	 "gaussian": { 
		 "optdone": 1, 
		 "sigma_profile": "yes", 
		 "theory": "DFT", 
		 "functional": "B3LYP", 
		 "basiset": "6-31G**", 
		 "properties": { 
			 "R2extent": 8719.8979, 
			 "electric_dipole_moment_norm": 3.15148893224, 
			 "electric_quadrupole_moment_norm": 11.185940462, 
			 "total_energy": -889.415253831, 
			 "HOMO_LUMO_gap": 0.26791, 
			 "cosmo_polarized_energy": -11.47, 
			 "cosmo_cavitation_energy": 47.71, 
			 "cosmo_dispersion_energy": -30.66, 
			 "cosmo_repulsion_energy": 2.43, 
			 "cosmo_total_nonelectrostatic_energy": 19.48, 
			 "SMD_solvation_energy": 9.17 
		},
		"coords": [
			{
				"x": -1.034696602,
				"y": -6.3473106013,
				"z": 0.7135934708,
				"element": "C" 
			},
			{
				"x": -1.4629387456,
				"y": -5.1633645729,
				"z": 1.4034703446,
				"element": "O" 
			},
			{
				"x": -0.4845493736,
				"y": -4.4869860681,
				"z": 2.0543399791,
				"element": "C" 
			},
			{
				"x": 0.6728945086,
				"y": -4.8511152972,
				"z": 2.0697082889,
				"element": "O" 
			},
			{
				"x": -1.0238121177,
				"y": -3.231467439,
				"z": 2.7029708678,
				"element": "C" 
			},
			{
				"x": -1.2623878599,
				"y": -2.0975162715,
				"z": 1.6787794867,
				"element": "C" 
			},
			{
				"x": -0.0353088864,
				"y": -1.6821763658,
				"z": 0.8502036657,
				"element": "C" 
			},
			{
				"x": 1.1629768212,
				"y": -1.2049435032,
				"z": 1.683358984,
				"element": "C" 
			},
			{
				"x": 2.3607844444,
				"y": -0.7115253352,
				"z": 0.8502362913,
				"element": "C" 
			},
			{
				"x": 2.0936493698,
				"y": 0.4849651907,
				"z": -0.0803322065,
				"element": "C" 
			},
			{
				"x": 1.5965215908,
				"y": 1.7504728487,
				"z": 0.6311367827,
				"element": "C" 
			},
			{
				"x": 1.3904190281,
				"y": 2.9311092843,
				"z": -0.3275954144,
				"element": "C" 
			},
			{
				"x": 0.8703548759,
				"y": 4.2168282153,
				"z": 0.3386783922,
				"element": "C" 
			},
			{
				"x": -0.5489732261,
				"y": 4.1610322899,
				"z": 0.9343889413,
				"element": "C" 
			},
			{
				"x": -1.6704472905,
				"y": 3.9283926652,
				"z": -0.0924942776,
				"element": "C" 
			},
			{
				"x": -1.8772571445,
				"y": 2.4732338225,
				"z": -0.4669974459,
				"element": "C" 
			},
			{
				"x": -1.7681302248,
				"y": 1.5294885764,
				"z": 0.2903444251,
				"element": "O" 
			},
			{
				"x": -2.2541997353,
				"y": 2.3457123871,
				"z": -1.7584487667,
				"element": "O" 
			},
			{
				"x": -2.5455652665,
				"y": 1.0065336759,
				"z": -2.1912627097,
				"element": "C" 
			},
			{
				"x": -0.2868385783,
				"y": -6.1040794229,
				"z": -0.0457405769,
				"element": "H" 
			},
			{
				"x": -1.930583652,
				"y": -6.7601390871,
				"z": 0.2493081024,
				"element": "H" 
			},
			{
				"x": -0.6001882863,
				"y": -7.0663146643,
				"z": 1.4129589905,
				"element": "H" 
			},
			{
				"x": -0.3020435787,
				"y": -2.925490324,
				"z": 3.4632304414,
				"element": "H" 
			},
			{
				"x": -1.9702346921,
				"y": -3.4674895235,
				"z": 3.2003821257,
				"element": "H" 
			},
			{
				"x": -2.0656730684,
				"y": -2.407467037,
				"z": 1.0003771575,
				"element": "H" 
			},
			{
				"x": -1.6381311425,
				"y": -1.2236160591,
				"z": 2.2244470594,
				"element": "H" 
			},
			{
				"x": -0.3625450487,
				"y": -0.8801865286,
				"z": 0.1793769568,
				"element": "H" 
			},
			{
				"x": 0.2838654556,
				"y": -2.5178937751,
				"z": 0.2114062819,
				"element": "H" 
			},
			{
				"x": 1.5137689051,
				"y": -2.0299448575,
				"z": 2.3142504684,
				"element": "H" 
			},
			{
				"x": 0.8325230043,
				"y": -0.4108586259,
				"z": 2.3666991162,
				"element": "H" 
			},
			{
				"x": 2.7378290661,
				"y": -1.5480064175,
				"z": 0.2461284263,
				"element": "H" 
			},
			{
				"x": 3.1752273386,
				"y": -0.4475926356,
				"z": 1.5388390144,
				"element": "H" 
			},
			{
				"x": 1.3635841781,
				"y": 0.2009331528,
				"z": -0.8503252818,
				"element": "H" 
			},
			{
				"x": 3.0213185356,
				"y": 0.7158339454,
				"z": -0.622466631,
				"element": "H" 
			},
			{
				"x": 2.3178377192,
				"y": 2.0399652357,
				"z": 1.4097589021,
				"element": "H" 
			},
			{
				"x": 0.6537517265,
				"y": 1.5308862436,
				"z": 1.141625231,
				"element": "H" 
			},
			{
				"x": 2.344697426,
				"y": 3.1622815984,
				"z": -0.8205449025,
				"element": "H" 
			},
			{
				"x": 0.7116063365,
				"y": 2.6299063152,
				"z": -1.1381541069,
				"element": "H" 
			},
			{
				"x": 0.904137275,
				"y": 5.033564124,
				"z": -0.3957616348,
				"element": "H" 
			},
			{
				"x": 1.5653752678,
				"y": 4.5038880987,
				"z": 1.1394125034,
				"element": "H" 
			},
			{
				"x": -0.6189896083,
				"y": 3.3870059508,
				"z": 1.7056464999,
				"element": "H" 
			},
			{
				"x": -0.7426701751,
				"y": 5.1161935178,
				"z": 1.4361614189,
				"element": "H" 
			},
			{
				"x": -2.6277347639,
				"y": 4.2586620408,
				"z": 0.3332631317,
				"element": "H" 
			},
			{
				"x": -1.5173198544,
				"y": 4.5163860229,
				"z": -1.0026202658,
				"element": "H" 
			},
			{
				"x": -1.6482648555,
				"y": 0.3839023863,
				"z": -2.1455867868,
				"element": "H" 
			},
			{
				"x": -3.3188505877,
				"y": 0.5567742617,
				"z": -1.5638243968,
				"element": "H" 
			},
			{
				"x": -2.8912885087,
				"y": 1.0987325623,
				"z": -3.220826344,
				"element": "H" 
			}
		],
		 "valence_orbital": [ 
			{
				"type": "occ",
				"energy": -0.2973,
				"method": "rhf"
			},
			{
				"type": "occ",
				"energy": -0.29399,
				"method": "rhf"
			},
			{
				"type": "occ",
				"energy": -0.29115,
				"method": "rhf"
			},
			{
				"type": "occ",
				"energy": -0.27366,
				"method": "rhf"
			},
			{
				"type": "occ",
				"energy": -0.25928,
				"method": "rhf"
			},
			{
				"type": "unocc",
				"energy": 0.00863,
				"method": "rhf"
			},
			{
				"type": "unocc",
				"energy": 0.01862,
				"method": "rhf"
			},
			{
				"type": "unocc",
				"energy": 0.06961,
				"method": "rhf"
			},
			{
				"type": "unocc",
				"energy": 0.0937,
				"method": "rhf"
			},
			{
				"type": "unocc",
				"energy": 0.10049,
				"method": "rhf"
			}
		],
		"cosmo_sigma_profile": { 
			"-0.025": 0.0,
			"-0.024": 0.0,
			"-0.023": 0.0,
			"-0.022": 0.0,
			"-0.021": 0.0,
			"-0.02": 0.0,
			"-0.019": 0.0,
			"-0.018": 0.0,
			"-0.017": 0.0,
			"-0.016": 0.0,
			"-0.015": 0.0,
			"-0.014": 0.0,
			"-0.013": 0.0,
			"-0.012": 0.0,
			"-0.011": 0.0,
			"-0.01": 0.0,
			"-0.009": 0.0,
			"-0.008": 0.0,
			"-0.007": 0.868455419185,
			"-0.006": 8.91245398012,
			"-0.005": 17.7679459046,
			"-0.004": 23.5501527659,
			"-0.003": 37.7270821837,
			"-0.002": 50.4373488125,
			"-0.001": 55.1523773518,
			"0.0": 51.7188368958,
			"0.001": 39.2058716652,
			"0.002": 18.1057963256,
			"0.003": 9.13994484279,
			"0.004": 9.37204722058,
			"0.005": 8.95682568104,
			"0.006": 7.43262778906,
			"0.007": 6.05890995145,
			"0.008": 6.29862223714,
			"0.009": 4.51397464832,
			"0.01": 3.21421467606,
			"0.011": 3.94903435744,
			"0.012": 4.80988803018,
			"0.013": 1.46088044759,
			"0.014": 0.0,
			"0.015": 0.0,
			"0.016": 0.0,
			"0.017": 0.0,
			"0.018": 0.0,
			"0.019": 0.0,
			"0.02": 0.0,
			"0.021": 0.0,
			"0.022": 0.0,
			"0.023": 0.0,
			"0.024": 0.0,
			"0.025": 0.0
		}
	}
}
