{
	 "smiles": "COC1=CC=CC=C1CN=C=S", 
	 "Tm": 301.15, 
	 "num_atms": 21, 
	 "gaussian": { 
		 "optdone": 1, 
		 "sigma_profile": "yes", 
		 "theory": "DFT", 
		 "functional": "B3LYP", 
		 "basiset": "6-31G**", 
		 "properties": { 
			 "R2extent": 3124.2245, 
			 "electric_dipole_moment_norm": 4.04616398827, 
			 "electric_quadrupole_moment_norm": 20.1654683715, 
			 "total_energy": -876.524324788, 
			 "HOMO_LUMO_gap": 0.20485, 
			 "cosmo_polarized_energy": -7.99, 
			 "cosmo_cavitation_energy": 27.68, 
			 "cosmo_dispersion_energy": -19.71, 
			 "cosmo_repulsion_energy": 1.55, 
			 "cosmo_total_nonelectrostatic_energy": 9.52, 
			 "SMD_solvation_energy": 4.4 
		},
		"coords": [
			{
				"x": -1.0591525766,
				"y": -1.9006790652,
				"z": -0.042520031,
				"element": "C" 
			},
			{
				"x": 0.0620992028,
				"y": -1.0735857957,
				"z": 0.2386677781,
				"element": "O" 
			},
			{
				"x": -0.0817669398,
				"y": 0.2794447178,
				"z": 0.1479414169,
				"element": "C" 
			},
			{
				"x": -1.2466948193,
				"y": 0.925951006,
				"z": -0.2760403,
				"element": "C" 
			},
			{
				"x": -1.2796739272,
				"y": 2.3224572737,
				"z": -0.3357781516,
				"element": "C" 
			},
			{
				"x": -0.1652969414,
				"y": 3.0771329591,
				"z": 0.0209746983,
				"element": "C" 
			},
			{
				"x": 0.9938201181,
				"y": 2.4222715742,
				"z": 0.4463533487,
				"element": "C" 
			},
			{
				"x": 1.0543552235,
				"y": 1.0316403535,
				"z": 0.5142871881,
				"element": "C" 
			},
			{
				"x": 2.3088257966,
				"y": 0.321059754,
				"z": 0.9740679963,
				"element": "C" 
			},
			{
				"x": 2.1865057574,
				"y": -0.249236519,
				"z": 2.296422781,
				"element": "N" 
			},
			{
				"x": 1.5939500271,
				"y": -0.9878451883,
				"z": 3.0233229989,
				"element": "C" 
			},
			{
				"x": 0.8889605493,
				"y": -1.9377226632,
				"z": 4.0929440061,
				"element": "S" 
			},
			{
				"x": -0.7259519959,
				"y": -2.9244361277,
				"z": 0.1302651757,
				"element": "H" 
			},
			{
				"x": -1.8983144355,
				"y": -1.6760680372,
				"z": 0.626466707,
				"element": "H" 
			},
			{
				"x": -1.3855050972,
				"y": -1.7946960036,
				"z": -1.0846858882,
				"element": "H" 
			},
			{
				"x": -2.1237730602,
				"y": 0.3561875476,
				"z": -0.558500771,
				"element": "H" 
			},
			{
				"x": -2.1895600144,
				"y": 2.8154964847,
				"z": -0.6658017117,
				"element": "H" 
			},
			{
				"x": -0.1946852459,
				"y": 4.1608816387,
				"z": -0.0266364901,
				"element": "H" 
			},
			{
				"x": 1.869101172,
				"y": 3.0000482941,
				"z": 0.7326872536,
				"element": "H" 
			},
			{
				"x": 3.1463568335,
				"y": 1.0234568006,
				"z": 0.9889665909,
				"element": "H" 
			},
			{
				"x": 2.5640003729,
				"y": -0.492059004,
				"z": 0.284895404,
				"element": "H" 
			}
		],
		 "valence_orbital": [ 
			{
				"type": "occ",
				"energy": -0.32769,
				"method": "rhf"
			},
			{
				"type": "occ",
				"energy": -0.26272,
				"method": "rhf"
			},
			{
				"type": "occ",
				"energy": -0.24431,
				"method": "rhf"
			},
			{
				"type": "occ",
				"energy": -0.23643,
				"method": "rhf"
			},
			{
				"type": "occ",
				"energy": -0.22785,
				"method": "rhf"
			},
			{
				"type": "unocc",
				"energy": -0.023,
				"method": "rhf"
			},
			{
				"type": "unocc",
				"energy": 0.0006,
				"method": "rhf"
			},
			{
				"type": "unocc",
				"energy": 0.0022,
				"method": "rhf"
			},
			{
				"type": "unocc",
				"energy": 0.02027,
				"method": "rhf"
			},
			{
				"type": "unocc",
				"energy": 0.08526,
				"method": "rhf"
			}
		],
		"cosmo_sigma_profile": { 
			"-0.025": 0.0,
			"-0.024": 0.0,
			"-0.023": 0.0,
			"-0.022": 0.0,
			"-0.021": 0.0,
			"-0.02": 0.0,
			"-0.019": 0.0,
			"-0.018": 0.0,
			"-0.017": 0.0,
			"-0.016": 0.0,
			"-0.015": 0.0,
			"-0.014": 0.0,
			"-0.013": 0.0,
			"-0.012": 0.0,
			"-0.011": 0.0,
			"-0.01": 0.0,
			"-0.009": 0.0,
			"-0.008": 0.599855523416,
			"-0.007": 6.13070729187,
			"-0.006": 15.7012883412,
			"-0.005": 19.7508949097,
			"-0.004": 20.3164933938,
			"-0.003": 16.989227775,
			"-0.002": 10.1398898221,
			"-0.001": 10.2518809014,
			"0.0": 13.2433131974,
			"0.001": 17.2270129083,
			"0.002": 18.9962935741,
			"0.003": 17.8076936552,
			"0.004": 18.7770862062,
			"0.005": 18.8133442839,
			"0.006": 15.3912470924,
			"0.007": 4.62716121299,
			"0.008": 0.0,
			"0.009": 0.0,
			"0.01": 0.0,
			"0.011": 0.0,
			"0.012": 0.0,
			"0.013": 0.0,
			"0.014": 0.0,
			"0.015": 0.0,
			"0.016": 0.0,
			"0.017": 0.0,
			"0.018": 0.0,
			"0.019": 0.0,
			"0.02": 0.0,
			"0.021": 0.0,
			"0.022": 0.0,
			"0.023": 0.0,
			"0.024": 0.0,
			"0.025": 0.0
		}
	}
}
