{
	 "smiles": "[O-][N+](=O)C1=C(Cl)C=CC(F)=C1", 
	 "Tm": 311.15, 
	 "num_atms": 14, 
	 "gaussian": { 
		 "optdone": 1, 
		 "sigma_profile": "yes", 
		 "theory": "DFT", 
		 "functional": "B3LYP", 
		 "basiset": "6-31G**", 
		 "properties": { 
			 "R2extent": 2566.1615, 
			 "electric_dipole_moment_norm": 4.12049603567, 
			 "electric_quadrupole_moment_norm": 9.39179315946, 
			 "total_energy": -995.55422158, 
			 "HOMO_LUMO_gap": 0.17093, 
			 "cosmo_polarized_energy": -8.11, 
			 "cosmo_cavitation_energy": 21.74, 
			 "cosmo_dispersion_energy": -16.05, 
			 "cosmo_repulsion_energy": 1.26, 
			 "cosmo_total_nonelectrostatic_energy": 6.95, 
			 "SMD_solvation_energy": 6.33 
		},
		"coords": [
			{
				"x": -0.7736159063,
				"y": 1.0922896945,
				"z": 1.4779015706,
				"element": "O" 
			},
			{
				"x": -0.4226862048,
				"y": 0.6486052994,
				"z": 0.391004469,
				"element": "N" 
			},
			{
				"x": -0.0564175846,
				"y": 1.3245410229,
				"z": -0.5697658763,
				"element": "O" 
			},
			{
				"x": -0.3958879981,
				"y": -0.8170062545,
				"z": 0.2150294589,
				"element": "C" 
			},
			{
				"x": -1.2776003829,
				"y": -1.6880989815,
				"z": 0.8737639076,
				"element": "C" 
			},
			{
				"x": -2.5756348368,
				"y": -1.1603591537,
				"z": 1.907590794,
				"element": "Cl" 
			},
			{
				"x": -1.1501903705,
				"y": -3.0631405761,
				"z": 0.6464539254,
				"element": "C" 
			},
			{
				"x": -0.1650744446,
				"y": -3.5650627896,
				"z": -0.1982470625,
				"element": "C" 
			},
			{
				"x": 0.6885778999,
				"y": -2.6731726157,
				"z": -0.840009582,
				"element": "C" 
			},
			{
				"x": 1.6384377045,
				"y": -3.147488877,
				"z": -1.6620749284,
				"element": "F" 
			},
			{
				"x": 0.5807261283,
				"y": -1.3048501099,
				"z": -0.6548913092,
				"element": "C" 
			},
			{
				"x": -1.8388305096,
				"y": -3.7380190211,
				"z": 1.1415462685,
				"element": "H" 
			},
			{
				"x": -0.0592646367,
				"y": -4.6307431607,
				"z": -0.3675803519,
				"element": "H" 
			},
			{
				"x": 1.236161142,
				"y": -0.6150944769,
				"z": -1.1705212839,
				"element": "H" 
			}
		],
		 "valence_orbital": [ 
			{
				"type": "occ",
				"energy": -0.31889,
				"method": "rhf"
			},
			{
				"type": "occ",
				"energy": -0.31794,
				"method": "rhf"
			},
			{
				"type": "occ",
				"energy": -0.30708,
				"method": "rhf"
			},
			{
				"type": "occ",
				"energy": -0.29072,
				"method": "rhf"
			},
			{
				"type": "occ",
				"energy": -0.26945,
				"method": "rhf"
			},
			{
				"type": "unocc",
				"energy": -0.09852,
				"method": "rhf"
			},
			{
				"type": "unocc",
				"energy": -0.04275,
				"method": "rhf"
			},
			{
				"type": "unocc",
				"energy": -0.02248,
				"method": "rhf"
			},
			{
				"type": "unocc",
				"energy": 0.00432,
				"method": "rhf"
			},
			{
				"type": "unocc",
				"energy": 0.08023,
				"method": "rhf"
			}
		],
		"cosmo_sigma_profile": { 
			"-0.025": 0.0,
			"-0.024": 0.0,
			"-0.023": 0.0,
			"-0.022": 0.0,
			"-0.021": 0.0,
			"-0.02": 0.0,
			"-0.019": 0.0,
			"-0.018": 0.0,
			"-0.017": 0.0,
			"-0.016": 0.0,
			"-0.015": 0.0,
			"-0.014": 0.0,
			"-0.013": 0.0,
			"-0.012": 0.0,
			"-0.011": 0.0,
			"-0.01": 0.711546423593,
			"-0.009": 4.48667404251,
			"-0.008": 6.34543778369,
			"-0.007": 7.16334146454,
			"-0.006": 6.20666743268,
			"-0.005": 6.09792778941,
			"-0.004": 6.79433120875,
			"-0.003": 10.2860439543,
			"-0.002": 19.6089649531,
			"-0.001": 19.7114176188,
			"0.0": 14.2778049264,
			"0.001": 8.77214805097,
			"0.002": 11.0570913248,
			"0.003": 17.868708976,
			"0.004": 7.49659962067,
			"0.005": 4.70708304469,
			"0.006": 4.84514873283,
			"0.007": 10.8859072773,
			"0.008": 7.05795548768,
			"0.009": 3.12480126878,
			"0.01": 0.420772706561,
			"0.011": 0.0,
			"0.012": 0.0,
			"0.013": 0.0,
			"0.014": 0.0,
			"0.015": 0.0,
			"0.016": 0.0,
			"0.017": 0.0,
			"0.018": 0.0,
			"0.019": 0.0,
			"0.02": 0.0,
			"0.021": 0.0,
			"0.022": 0.0,
			"0.023": 0.0,
			"0.024": 0.0,
			"0.025": 0.0
		}
	}
}
