{
	 "smiles": "CC1=CC=C(C=C1)C1(C)CC(=O)NC1=O", 
	 "Tm": 343.15, 
	 "num_atms": 28, 
	 "gaussian": { 
		 "optdone": 1, 
		 "sigma_profile": "yes", 
		 "theory": "DFT", 
		 "functional": "B3LYP", 
		 "basiset": "6-31G**", 
		 "properties": { 
			 "R2extent": 3854.1206, 
			 "electric_dipole_moment_norm": 2.27918794749, 
			 "electric_quadrupole_moment_norm": 10.5407976662, 
			 "total_energy": -670.353826187, 
			 "HOMO_LUMO_gap": 0.21312, 
			 "cosmo_polarized_energy": -13.41, 
			 "cosmo_cavitation_energy": 31.0, 
			 "cosmo_dispersion_energy": -22.21, 
			 "cosmo_repulsion_energy": 1.74, 
			 "cosmo_total_nonelectrostatic_energy": 10.53, 
			 "SMD_solvation_energy": 6.62 
		},
		"coords": [
			{
				"x": 4.3709065287,
				"y": -1.5138925885,
				"z": -2.0753804304,
				"element": "C" 
			},
			{
				"x": 3.0220299373,
				"y": -1.0328859015,
				"z": -1.5953676167,
				"element": "C" 
			},
			{
				"x": 1.9645933669,
				"y": -1.9272091397,
				"z": -1.3887183016,
				"element": "C" 
			},
			{
				"x": 0.7271584045,
				"y": -1.4847049927,
				"z": -0.9245886642,
				"element": "C" 
			},
			{
				"x": 0.4946744497,
				"y": -0.128191978,
				"z": -0.6509219682,
				"element": "C" 
			},
			{
				"x": 1.5555823207,
				"y": 0.7671356633,
				"z": -0.8433442474,
				"element": "C" 
			},
			{
				"x": 2.7900114044,
				"y": 0.3182799107,
				"z": -1.3146128004,
				"element": "C" 
			},
			{
				"x": -0.8671514599,
				"y": 0.3017717178,
				"z": -0.0887373202,
				"element": "C" 
			},
			{
				"x": -0.861799425,
				"y": 0.1281664941,
				"z": 1.4536678236,
				"element": "C" 
			},
			{
				"x": -2.0653716709,
				"y": -0.4521509448,
				"z": -0.7320495257,
				"element": "C" 
			},
			{
				"x": -3.0937704651,
				"y": 0.6061964756,
				"z": -1.1059208226,
				"element": "C" 
			},
			{
				"x": -4.2217378255,
				"y": 0.4447122854,
				"z": -1.5157784065,
				"element": "O" 
			},
			{
				"x": -2.4811663902,
				"y": 1.8402965858,
				"z": -0.9082214216,
				"element": "N" 
			},
			{
				"x": -1.2096524649,
				"y": 1.7875037021,
				"z": -0.3522087892,
				"element": "C" 
			},
			{
				"x": -0.5506628923,
				"y": 2.7681608444,
				"z": -0.0718464029,
				"element": "O" 
			},
			{
				"x": 5.0174726801,
				"y": -1.7876979051,
				"z": -1.2320359087,
				"element": "H" 
			},
			{
				"x": 4.277872441,
				"y": -2.3985656408,
				"z": -2.7126735976,
				"element": "H" 
			},
			{
				"x": 4.8924980915,
				"y": -0.7390158427,
				"z": -2.6451244278,
				"element": "H" 
			},
			{
				"x": 2.1075553804,
				"y": -2.9849821377,
				"z": -1.5966362602,
				"element": "H" 
			},
			{
				"x": -0.0636508327,
				"y": -2.2147285882,
				"z": -0.7738451343,
				"element": "H" 
			},
			{
				"x": 1.4148306538,
				"y": 1.8192666029,
				"z": -0.6274183847,
				"element": "H" 
			},
			{
				"x": 3.5894540626,
				"y": 1.0397142096,
				"z": -1.4667536749,
				"element": "H" 
			},
			{
				"x": -0.6382099648,
				"y": -0.9116259704,
				"z": 1.7084316281,
				"element": "H" 
			},
			{
				"x": -1.8336338033,
				"y": 0.3914538738,
				"z": 1.8864712254,
				"element": "H" 
			},
			{
				"x": -0.0982371076,
				"y": 0.769050411,
				"z": 1.900431204,
				"element": "H" 
			},
			{
				"x": -2.5267611558,
				"y": -1.193109708,
				"z": -0.0738386757,
				"element": "H" 
			},
			{
				"x": -1.7801212149,
				"y": -0.9682508652,
				"z": -1.6534593427,
				"element": "H" 
			},
			{
				"x": -2.9473130486,
				"y": 2.7188034267,
				"z": -1.0991197568,
				"element": "H" 
			}
		],
		 "valence_orbital": [ 
			{
				"type": "occ",
				"energy": -0.29449,
				"method": "rhf"
			},
			{
				"type": "occ",
				"energy": -0.28524,
				"method": "rhf"
			},
			{
				"type": "occ",
				"energy": -0.26114,
				"method": "rhf"
			},
			{
				"type": "occ",
				"energy": -0.25119,
				"method": "rhf"
			},
			{
				"type": "occ",
				"energy": -0.23743,
				"method": "rhf"
			},
			{
				"type": "unocc",
				"energy": -0.02431,
				"method": "rhf"
			},
			{
				"type": "unocc",
				"energy": -0.00773,
				"method": "rhf"
			},
			{
				"type": "unocc",
				"energy": -0.00326,
				"method": "rhf"
			},
			{
				"type": "unocc",
				"energy": 0.02835,
				"method": "rhf"
			},
			{
				"type": "unocc",
				"energy": 0.08166,
				"method": "rhf"
			}
		],
		"cosmo_sigma_profile": { 
			"-0.025": 0.0,
			"-0.024": 0.0,
			"-0.023": 0.0,
			"-0.022": 0.0,
			"-0.021": 0.0,
			"-0.02": 0.0,
			"-0.019": 0.0,
			"-0.018": 0.0,
			"-0.017": 0.201026366568,
			"-0.016": 1.36470981486,
			"-0.015": 1.04148298835,
			"-0.014": 0.708332004682,
			"-0.013": 0.95067462635,
			"-0.012": 0.708359703156,
			"-0.011": 1.41894540935,
			"-0.01": 0.661580402079,
			"-0.009": 0.609788975955,
			"-0.008": 1.59697584823,
			"-0.007": 5.35556435477,
			"-0.006": 11.2543442063,
			"-0.005": 16.6346477882,
			"-0.004": 23.4337640253,
			"-0.003": 22.2870310037,
			"-0.002": 21.1826186374,
			"-0.001": 21.0354524383,
			"0.0": 21.5268504349,
			"0.001": 13.2724068116,
			"0.002": 11.1068867685,
			"0.003": 10.5213258188,
			"0.004": 8.32712759827,
			"0.005": 9.81892092674,
			"0.006": 9.0484404721,
			"0.007": 4.19505820667,
			"0.008": 2.43359282769,
			"0.009": 3.19136331233,
			"0.01": 3.96465840776,
			"0.011": 7.44282386653,
			"0.012": 8.04819353509,
			"0.013": 1.75548627252,
			"0.014": 0.0,
			"0.015": 0.0,
			"0.016": 0.0,
			"0.017": 0.0,
			"0.018": 0.0,
			"0.019": 0.0,
			"0.02": 0.0,
			"0.021": 0.0,
			"0.022": 0.0,
			"0.023": 0.0,
			"0.024": 0.0,
			"0.025": 0.0
		}
	}
}
