{
	 "smiles": "OC1=CC(O)=C(C=O)C=C1O", 
	 "Tm": 496.15, 
	 "num_atms": 17, 
	 "gaussian": { 
		 "optdone": 1, 
		 "sigma_profile": "yes", 
		 "theory": "DFT", 
		 "functional": "B3LYP", 
		 "basiset": "6-31G**", 
		 "properties": { 
			 "R2extent": 1892.7772, 
			 "electric_dipole_moment_norm": 5.00049099989, 
			 "electric_quadrupole_moment_norm": 9.35120500631, 
			 "total_energy": -571.249474839, 
			 "HOMO_LUMO_gap": 0.15483, 
			 "cosmo_polarized_energy": -14.51, 
			 "cosmo_cavitation_energy": 21.52, 
			 "cosmo_dispersion_energy": -16.54, 
			 "cosmo_repulsion_energy": 1.31, 
			 "cosmo_total_nonelectrostatic_energy": 6.29, 
			 "SMD_solvation_energy": 5.63 
		},
		"coords": [
			{
				"x": -1.7054476132,
				"y": -0.7208742823,
				"z": 1.7662212038,
				"element": "O" 
			},
			{
				"x": -0.9416794846,
				"y": -0.2738810793,
				"z": 0.7455984664,
				"element": "C" 
			},
			{
				"x": -1.4299217049,
				"y": -0.3157096016,
				"z": -0.5529352352,
				"element": "C" 
			},
			{
				"x": -0.6366435783,
				"y": 0.1483930042,
				"z": -1.6108304265,
				"element": "C" 
			},
			{
				"x": -1.1276415653,
				"y": 0.0987595785,
				"z": -2.8558259191,
				"element": "O" 
			},
			{
				"x": 0.6642025219,
				"y": 0.6594683674,
				"z": -1.3473551956,
				"element": "C" 
			},
			{
				"x": 1.4832838964,
				"y": 1.1380292747,
				"z": -2.4357389653,
				"element": "C" 
			},
			{
				"x": 1.1358088394,
				"y": 1.1413768419,
				"z": -3.6245695839,
				"element": "O" 
			},
			{
				"x": 1.1405920428,
				"y": 0.6919507339,
				"z": -0.0138982375,
				"element": "C" 
			},
			{
				"x": 0.356638676,
				"y": 0.2350318317,
				"z": 1.0180227422,
				"element": "C" 
			},
			{
				"x": 0.7020744508,
				"y": 0.2125898669,
				"z": 2.3526619079,
				"element": "O" 
			},
			{
				"x": -1.1976344171,
				"y": -0.6109767052,
				"z": 2.5857622615,
				"element": "H" 
			},
			{
				"x": -2.4216239208,
				"y": -0.7061152017,
				"z": -0.747637507,
				"element": "H" 
			},
			{
				"x": -0.4263207048,
				"y": 0.466758513,
				"z": -3.4528578661,
				"element": "H" 
			},
			{
				"x": 2.4857711756,
				"y": 1.5229331747,
				"z": -2.1616358653,
				"element": "H" 
			},
			{
				"x": 2.137197235,
				"y": 1.0843908304,
				"z": 0.1808886611,
				"element": "H" 
			},
			{
				"x": 1.5902441511,
				"y": 0.5692748528,
				"z": 2.4729295584,
				"element": "H" 
			}
		],
		 "valence_orbital": [ 
			{
				"type": "occ",
				"energy": -0.35882,
				"method": "rhf"
			},
			{
				"type": "occ",
				"energy": -0.31179,
				"method": "rhf"
			},
			{
				"type": "occ",
				"energy": -0.26507,
				"method": "rhf"
			},
			{
				"type": "occ",
				"energy": -0.24754,
				"method": "rhf"
			},
			{
				"type": "occ",
				"energy": -0.21566,
				"method": "rhf"
			},
			{
				"type": "unocc",
				"energy": -0.06083,
				"method": "rhf"
			},
			{
				"type": "unocc",
				"energy": 0.0023,
				"method": "rhf"
			},
			{
				"type": "unocc",
				"energy": 0.04008,
				"method": "rhf"
			},
			{
				"type": "unocc",
				"energy": 0.04925,
				"method": "rhf"
			},
			{
				"type": "unocc",
				"energy": 0.08508,
				"method": "rhf"
			}
		],
		"cosmo_sigma_profile": { 
			"-0.025": 0.0,
			"-0.024": 0.0,
			"-0.023": 0.0,
			"-0.022": 0.0,
			"-0.021": 0.0,
			"-0.02": 0.0,
			"-0.019": 0.389498077103,
			"-0.018": 1.11177810251,
			"-0.017": 1.32448541273,
			"-0.016": 1.28557541561,
			"-0.015": 1.22052029494,
			"-0.014": 1.62827798935,
			"-0.013": 1.38480397713,
			"-0.012": 0.945701475734,
			"-0.011": 2.64123303052,
			"-0.01": 1.37515680037,
			"-0.009": 2.75606241075,
			"-0.008": 4.23135712138,
			"-0.007": 6.61426530306,
			"-0.006": 7.27223650601,
			"-0.005": 5.47598489107,
			"-0.004": 5.29301431897,
			"-0.003": 7.92553870363,
			"-0.002": 9.69829311291,
			"-0.001": 10.0553559039,
			"0.0": 9.31642902232,
			"0.001": 13.1523320074,
			"0.002": 18.0353744628,
			"0.003": 14.5035756023,
			"0.004": 6.44554778177,
			"0.005": 5.92824431236,
			"0.006": 5.47466778168,
			"0.007": 4.28297988319,
			"0.008": 5.21338559613,
			"0.009": 5.03871630883,
			"0.01": 4.96143624787,
			"0.011": 3.88768756599,
			"0.012": 2.04668386439,
			"0.013": 1.09164538818,
			"0.014": 0.00750706618384,
			"0.015": 0.0,
			"0.016": 0.0,
			"0.017": 0.0,
			"0.018": 0.0,
			"0.019": 0.0,
			"0.02": 0.0,
			"0.021": 0.0,
			"0.022": 0.0,
			"0.023": 0.0,
			"0.024": 0.0,
			"0.025": 0.0
		}
	}
}
