{
	 "smiles": "ClCC(=O)NCCC1=CSC=C1", 
	 "Tm": 349.15, 
	 "num_atms": 22, 
	 "gaussian": { 
		 "optdone": 1, 
		 "sigma_profile": "yes", 
		 "theory": "DFT", 
		 "functional": "B3LYP", 
		 "basiset": "6-31G**", 
		 "properties": { 
			 "R2extent": 5067.7045, 
			 "electric_dipole_moment_norm": 2.58316731165, 
			 "electric_quadrupole_moment_norm": 7.97749871451, 
			 "total_energy": -1299.24002138, 
			 "HOMO_LUMO_gap": 0.22386, 
			 "cosmo_polarized_energy": -11.35, 
			 "cosmo_cavitation_energy": 28.62, 
			 "cosmo_dispersion_energy": -21.31, 
			 "cosmo_repulsion_energy": 1.69, 
			 "cosmo_total_nonelectrostatic_energy": 9.01, 
			 "SMD_solvation_energy": 4.64 
		},
		"coords": [
			{
				"x": -3.9671184386,
				"y": -0.639935299,
				"z": 1.4717908276,
				"element": "Cl" 
			},
			{
				"x": -3.7082701898,
				"y": -0.8911987438,
				"z": -0.3095636977,
				"element": "C" 
			},
			{
				"x": -2.3087842697,
				"y": -0.5961152292,
				"z": -0.8536837233,
				"element": "C" 
			},
			{
				"x": -2.1586013817,
				"y": -0.6910906575,
				"z": -2.0692432126,
				"element": "O" 
			},
			{
				"x": -1.3383332581,
				"y": -0.2699835774,
				"z": 0.026647329,
				"element": "N" 
			},
			{
				"x": 0.0281723025,
				"y": 0.0390881128,
				"z": -0.3757988102,
				"element": "C" 
			},
			{
				"x": 1.0735763181,
				"y": -0.9380395021,
				"z": 0.1788510943,
				"element": "C" 
			},
			{
				"x": 1.0192291629,
				"y": -2.3554790331,
				"z": -0.3455675092,
				"element": "C" 
			},
			{
				"x": 0.3016318883,
				"y": -2.7927577459,
				"z": -1.429274325,
				"element": "C" 
			},
			{
				"x": 0.5442997834,
				"y": -4.4846982142,
				"z": -1.7303649864,
				"element": "S" 
			},
			{
				"x": 1.6285485433,
				"y": -4.6176987276,
				"z": -0.3837567684,
				"element": "C" 
			},
			{
				"x": 1.7806690176,
				"y": -3.418291377,
				"z": 0.250550437,
				"element": "C" 
			},
			{
				"x": -3.9465529677,
				"y": -1.9337566746,
				"z": -0.5225338891,
				"element": "H" 
			},
			{
				"x": -4.4192356635,
				"y": -0.2518125224,
				"z": -0.8321728659,
				"element": "H" 
			},
			{
				"x": -1.5820027079,
				"y": -0.2306046035,
				"z": 1.0069351682,
				"element": "H" 
			},
			{
				"x": 0.2755344858,
				"y": 1.0515744061,
				"z": -0.0344422101,
				"element": "H" 
			},
			{
				"x": 0.036877009,
				"y": 0.0499793403,
				"z": -1.467602398,
				"element": "H" 
			},
			{
				"x": 1.0005738614,
				"y": -0.9562216963,
				"z": 1.2755073879,
				"element": "H" 
			},
			{
				"x": 2.0628646466,
				"y": -0.5100364759,
				"z": -0.0374721522,
				"element": "H" 
			},
			{
				"x": -0.3749330134,
				"y": -2.2300330183,
				"z": -2.0593877998,
				"element": "H" 
			},
			{
				"x": 2.0852261057,
				"y": -5.5672308768,
				"z": -0.1415340273,
				"element": "H" 
			},
			{
				"x": 2.4162287659,
				"y": -3.2819578845,
				"z": 1.1197161313,
				"element": "H" 
			}
		],
		 "valence_orbital": [ 
			{
				"type": "occ",
				"energy": -0.31312,
				"method": "rhf"
			},
			{
				"type": "occ",
				"energy": -0.2662,
				"method": "rhf"
			},
			{
				"type": "occ",
				"energy": -0.26456,
				"method": "rhf"
			},
			{
				"type": "occ",
				"energy": -0.24096,
				"method": "rhf"
			},
			{
				"type": "occ",
				"energy": -0.22786,
				"method": "rhf"
			},
			{
				"type": "unocc",
				"energy": -0.004,
				"method": "rhf"
			},
			{
				"type": "unocc",
				"energy": 0.00981,
				"method": "rhf"
			},
			{
				"type": "unocc",
				"energy": 0.01449,
				"method": "rhf"
			},
			{
				"type": "unocc",
				"energy": 0.03837,
				"method": "rhf"
			},
			{
				"type": "unocc",
				"energy": 0.06242,
				"method": "rhf"
			}
		],
		"cosmo_sigma_profile": { 
			"-0.025": 0.0,
			"-0.024": 0.0,
			"-0.023": 0.0,
			"-0.022": 0.0,
			"-0.021": 0.0,
			"-0.02": 0.0,
			"-0.019": 0.0,
			"-0.018": 0.0,
			"-0.017": 0.0,
			"-0.016": 0.0,
			"-0.015": 0.0,
			"-0.014": 0.0,
			"-0.013": 0.239196250879,
			"-0.012": 1.01830003934,
			"-0.011": 0.904432822829,
			"-0.01": 0.668216645636,
			"-0.009": 3.96564960833,
			"-0.008": 6.33546087951,
			"-0.007": 7.08564833544,
			"-0.006": 9.3741233663,
			"-0.005": 15.3955325203,
			"-0.004": 20.5050718532,
			"-0.003": 18.5214403072,
			"-0.002": 16.1367734477,
			"-0.001": 13.4011358548,
			"0.0": 12.9987510186,
			"0.001": 13.0690723003,
			"0.002": 14.4047303823,
			"0.003": 14.3938457041,
			"0.004": 15.5776271245,
			"0.005": 21.9183371789,
			"0.006": 11.8508078928,
			"0.007": 1.81140511385,
			"0.008": 0.95654606066,
			"0.009": 0.923348523417,
			"0.01": 1.76422604434,
			"0.011": 1.20890770936,
			"0.012": 1.91271252343,
			"0.013": 3.84672992369,
			"0.014": 1.55370865003,
			"0.015": 0.00872107829109,
			"0.016": 0.0,
			"0.017": 0.0,
			"0.018": 0.0,
			"0.019": 0.0,
			"0.02": 0.0,
			"0.021": 0.0,
			"0.022": 0.0,
			"0.023": 0.0,
			"0.024": 0.0,
			"0.025": 0.0
		}
	}
}
