{
	 "smiles": "O=C(CC1=CC=CC=C1)C1=C2C=CC=CC2=CC=C1", 
	 "Tm": 338.15, 
	 "num_atms": 33, 
	 "gaussian": { 
		 "optdone": 1, 
		 "sigma_profile": "yes", 
		 "theory": "DFT", 
		 "functional": "B3LYP", 
		 "basiset": "6-31G**", 
		 "properties": { 
			 "R2extent": 6239.3367, 
			 "electric_dipole_moment_norm": 2.54451584982, 
			 "electric_quadrupole_moment_norm": 9.10706496243, 
			 "total_energy": -769.588726192, 
			 "HOMO_LUMO_gap": 0.15358, 
			 "cosmo_polarized_energy": -9.65, 
			 "cosmo_cavitation_energy": 36.27, 
			 "cosmo_dispersion_energy": -26.13, 
			 "cosmo_repulsion_energy": 1.97, 
			 "cosmo_total_nonelectrostatic_energy": 12.11, 
			 "SMD_solvation_energy": 6.01 
		},
		"coords": [
			{
				"x": -1.8278627651,
				"y": -2.1306088034,
				"z": -0.2658661583,
				"element": "O" 
			},
			{
				"x": -0.818484409,
				"y": -1.4477951832,
				"z": -0.1390714165,
				"element": "C" 
			},
			{
				"x": 0.3553290508,
				"y": -1.7188470808,
				"z": -1.096457865,
				"element": "C" 
			},
			{
				"x": 0.2709426001,
				"y": -0.9226314115,
				"z": -2.3916030031,
				"element": "C" 
			},
			{
				"x": 1.3784915814,
				"y": -0.2060611846,
				"z": -2.8627357135,
				"element": "C" 
			},
			{
				"x": 1.3119591956,
				"y": 0.5069082478,
				"z": -4.0617925211,
				"element": "C" 
			},
			{
				"x": 0.1323181949,
				"y": 0.5139608161,
				"z": -4.8063191598,
				"element": "C" 
			},
			{
				"x": -0.9770248375,
				"y": -0.1992935231,
				"z": -4.3454596063,
				"element": "C" 
			},
			{
				"x": -0.9093499396,
				"y": -0.9127063255,
				"z": -3.1490889956,
				"element": "C" 
			},
			{
				"x": -0.6927186515,
				"y": -0.3695741964,
				"z": 0.8923723052,
				"element": "C" 
			},
			{
				"x": -1.5453509059,
				"y": -0.305805832,
				"z": 2.0570338305,
				"element": "C" 
			},
			{
				"x": -2.5499280485,
				"y": -1.2655754612,
				"z": 2.3666749588,
				"element": "C" 
			},
			{
				"x": -3.3093295711,
				"y": -1.1542126118,
				"z": 3.51224421,
				"element": "C" 
			},
			{
				"x": -3.1183259695,
				"y": -0.0831474592,
				"z": 4.4142124414,
				"element": "C" 
			},
			{
				"x": -2.1571156345,
				"y": 0.8633830807,
				"z": 4.1487777602,
				"element": "C" 
			},
			{
				"x": -1.3531051999,
				"y": 0.7798932937,
				"z": 2.9801239114,
				"element": "C" 
			},
			{
				"x": -0.3642992277,
				"y": 1.764659207,
				"z": 2.7194262384,
				"element": "C" 
			},
			{
				"x": 0.4278055749,
				"y": 1.6899566058,
				"z": 1.5986016157,
				"element": "C" 
			},
			{
				"x": 0.2662326943,
				"y": 0.6165592041,
				"z": 0.6995522164,
				"element": "C" 
			},
			{
				"x": 0.2889486279,
				"y": -2.7883037684,
				"z": -1.3221459823,
				"element": "H" 
			},
			{
				"x": 1.3178642294,
				"y": -1.5418179951,
				"z": -0.6099286883,
				"element": "H" 
			},
			{
				"x": 2.3043977079,
				"y": -0.2135270516,
				"z": -2.2918139191,
				"element": "H" 
			},
			{
				"x": 2.1824436837,
				"y": 1.0546146062,
				"z": -4.4120729067,
				"element": "H" 
			},
			{
				"x": 0.0774460873,
				"y": 1.0683161572,
				"z": -5.7387628033,
				"element": "H" 
			},
			{
				"x": -1.8990676744,
				"y": -0.2013003024,
				"z": -4.9200943777,
				"element": "H" 
			},
			{
				"x": -1.7727599881,
				"y": -1.4668020021,
				"z": -2.793042657,
				"element": "H" 
			},
			{
				"x": -2.7205120153,
				"y": -2.0796577147,
				"z": 1.6774367624,
				"element": "H" 
			},
			{
				"x": -4.0686741406,
				"y": -1.9022332002,
				"z": 3.7222600118,
				"element": "H" 
			},
			{
				"x": -3.7276583975,
				"y": -0.0113790778,
				"z": 5.3104414782,
				"element": "H" 
			},
			{
				"x": -1.9935527706,
				"y": 1.6932990143,
				"z": 4.8314815574,
				"element": "H" 
			},
			{
				"x": -0.2458516843,
				"y": 2.5825396014,
				"z": 3.4257939692,
				"element": "H" 
			},
			{
				"x": 1.1781812553,
				"y": 2.4489152374,
				"z": 1.3997789456,
				"element": "H" 
			},
			{
				"x": 0.8923113471,
				"y": 0.5888751131,
				"z": -0.1843564391,
				"element": "H" 
			}
		],
		 "valence_orbital": [ 
			{
				"type": "occ",
				"energy": -0.25447,
				"method": "rhf"
			},
			{
				"type": "occ",
				"energy": -0.24971,
				"method": "rhf"
			},
			{
				"type": "occ",
				"energy": -0.24881,
				"method": "rhf"
			},
			{
				"type": "occ",
				"energy": -0.23453,
				"method": "rhf"
			},
			{
				"type": "occ",
				"energy": -0.2212,
				"method": "rhf"
			},
			{
				"type": "unocc",
				"energy": -0.06762,
				"method": "rhf"
			},
			{
				"type": "unocc",
				"energy": -0.01476,
				"method": "rhf"
			},
			{
				"type": "unocc",
				"energy": -0.01054,
				"method": "rhf"
			},
			{
				"type": "unocc",
				"energy": -0.00369,
				"method": "rhf"
			},
			{
				"type": "unocc",
				"energy": 0.00272,
				"method": "rhf"
			}
		],
		"cosmo_sigma_profile": { 
			"-0.025": 0.0,
			"-0.024": 0.0,
			"-0.023": 0.0,
			"-0.022": 0.0,
			"-0.021": 0.0,
			"-0.02": 0.0,
			"-0.019": 0.0,
			"-0.018": 0.0,
			"-0.017": 0.0,
			"-0.016": 0.0,
			"-0.015": 0.0,
			"-0.014": 0.0,
			"-0.013": 0.0,
			"-0.012": 0.0,
			"-0.011": 0.0,
			"-0.01": 0.0,
			"-0.009": 0.0,
			"-0.008": 0.285015231657,
			"-0.007": 4.35973300027,
			"-0.006": 17.3267893028,
			"-0.005": 25.7362077714,
			"-0.004": 25.9603779047,
			"-0.003": 24.9917451462,
			"-0.002": 20.1028339904,
			"-0.001": 17.202259205,
			"0.0": 19.4195463156,
			"0.001": 20.0405084909,
			"0.002": 24.140875645,
			"0.003": 31.1278654365,
			"0.004": 24.2356919724,
			"0.005": 16.8972011663,
			"0.006": 8.00614464883,
			"0.007": 2.09667835087,
			"0.008": 1.75676126656,
			"0.009": 1.32837398699,
			"0.01": 1.81069128543,
			"0.011": 2.47823110419,
			"0.012": 1.58610721853,
			"0.013": 0.393287455404,
			"0.014": 0.0,
			"0.015": 0.0,
			"0.016": 0.0,
			"0.017": 0.0,
			"0.018": 0.0,
			"0.019": 0.0,
			"0.02": 0.0,
			"0.021": 0.0,
			"0.022": 0.0,
			"0.023": 0.0,
			"0.024": 0.0,
			"0.025": 0.0
		}
	}
}
