{
	 "smiles": "NC(=O)N1CCCC(C1)C(O)=O", 
	 "Tm": 456.15, 
	 "num_atms": 24, 
	 "gaussian": { 
		 "optdone": 1, 
		 "sigma_profile": "yes", 
		 "theory": "DFT", 
		 "functional": "B3LYP", 
		 "basiset": "6-31G**", 
		 "properties": { 
			 "R2extent": 2344.8417, 
			 "electric_dipole_moment_norm": 4.42396345487, 
			 "electric_quadrupole_moment_norm": 12.1504328433, 
			 "total_energy": -609.196160504, 
			 "HOMO_LUMO_gap": 0.23301, 
			 "cosmo_polarized_energy": -19.23, 
			 "cosmo_cavitation_energy": 26.05, 
			 "cosmo_dispersion_energy": -19.02, 
			 "cosmo_repulsion_energy": 1.54, 
			 "cosmo_total_nonelectrostatic_energy": 8.56, 
			 "SMD_solvation_energy": 5.75 
		},
		"coords": [
			{
				"x": 3.0260778605,
				"y": -0.6202736735,
				"z": -1.3987001552,
				"element": "N" 
			},
			{
				"x": 2.5309890539,
				"y": 0.3386709155,
				"z": -0.5136212416,
				"element": "C" 
			},
			{
				"x": 3.2819612484,
				"y": 1.1353837895,
				"z": 0.039762124,
				"element": "O" 
			},
			{
				"x": 1.1708717059,
				"y": 0.296448746,
				"z": -0.2629723965,
				"element": "N" 
			},
			{
				"x": 0.5646184108,
				"y": 1.389262924,
				"z": 0.5006408799,
				"element": "C" 
			},
			{
				"x": -0.3120719501,
				"y": 0.8500252841,
				"z": 1.6340919821,
				"element": "C" 
			},
			{
				"x": -1.3458997723,
				"y": -0.1555654069,
				"z": 1.105935367,
				"element": "C" 
			},
			{
				"x": -0.6766229249,
				"y": -1.267129659,
				"z": 0.2810523225,
				"element": "C" 
			},
			{
				"x": 0.240329065,
				"y": -0.6754287608,
				"z": -0.8176725177,
				"element": "C" 
			},
			{
				"x": 0.0694598422,
				"y": -2.2552675924,
				"z": 1.1709446158,
				"element": "C" 
			},
			{
				"x": 0.7264663895,
				"y": -3.1896130216,
				"z": 0.4404919453,
				"element": "O" 
			},
			{
				"x": 0.0693014734,
				"y": -2.2653711434,
				"z": 2.3820063885,
				"element": "O" 
			},
			{
				"x": 2.4714731574,
				"y": -0.8562329381,
				"z": -2.2092827623,
				"element": "H" 
			},
			{
				"x": 3.9937233721,
				"y": -0.4275768873,
				"z": -1.617634913,
				"element": "H" 
			},
			{
				"x": -0.0462586071,
				"y": 2.0049884674,
				"z": -0.180623296,
				"element": "H" 
			},
			{
				"x": 1.3791564297,
				"y": 2.0060563197,
				"z": 0.8786122583,
				"element": "H" 
			},
			{
				"x": 0.3196991467,
				"y": 0.362379193,
				"z": 2.3828147795,
				"element": "H" 
			},
			{
				"x": -0.820064129,
				"y": 1.6863892536,
				"z": 2.1278175237,
				"element": "H" 
			},
			{
				"x": -1.9081468749,
				"y": -0.5975152183,
				"z": 1.9328967734,
				"element": "H" 
			},
			{
				"x": -2.0667001717,
				"y": 0.3618409778,
				"z": 0.4587607382,
				"element": "H" 
			},
			{
				"x": -1.4440411978,
				"y": -1.8621438737,
				"z": -0.2340606158,
				"element": "H" 
			},
			{
				"x": 0.7871025507,
				"y": -1.4885244392,
				"z": -1.2917001258,
				"element": "H" 
			},
			{
				"x": -0.4015607912,
				"y": -0.1990001886,
				"z": -1.5764534466,
				"element": "H" 
			},
			{
				"x": 1.1713367128,
				"y": -3.7708030678,
				"z": 1.0798937724,
				"element": "H" 
			}
		],
		 "valence_orbital": [ 
			{
				"type": "occ",
				"energy": -0.32122,
				"method": "rhf"
			},
			{
				"type": "occ",
				"energy": -0.27862,
				"method": "rhf"
			},
			{
				"type": "occ",
				"energy": -0.27138,
				"method": "rhf"
			},
			{
				"type": "occ",
				"energy": -0.24549,
				"method": "rhf"
			},
			{
				"type": "occ",
				"energy": -0.23196,
				"method": "rhf"
			},
			{
				"type": "unocc",
				"energy": 0.00105,
				"method": "rhf"
			},
			{
				"type": "unocc",
				"energy": 0.05307,
				"method": "rhf"
			},
			{
				"type": "unocc",
				"energy": 0.06883,
				"method": "rhf"
			},
			{
				"type": "unocc",
				"energy": 0.07975,
				"method": "rhf"
			},
			{
				"type": "unocc",
				"energy": 0.10614,
				"method": "rhf"
			}
		],
		"cosmo_sigma_profile": { 
			"-0.025": 0.0,
			"-0.024": 0.0,
			"-0.023": 0.0,
			"-0.022": 0.0,
			"-0.021": 0.0,
			"-0.02": 0.0,
			"-0.019": 0.0,
			"-0.018": 0.749920198985,
			"-0.017": 1.08010408188,
			"-0.016": 0.597621010646,
			"-0.015": 1.11050910782,
			"-0.014": 0.906079855302,
			"-0.013": 2.20078093903,
			"-0.012": 2.54613042168,
			"-0.011": 3.85979945741,
			"-0.01": 3.99909052851,
			"-0.009": 3.12977042479,
			"-0.008": 2.2440793094,
			"-0.007": 3.60355236876,
			"-0.006": 6.63308734214,
			"-0.005": 9.96800114766,
			"-0.004": 15.1625422676,
			"-0.003": 19.5968437227,
			"-0.002": 18.0044627835,
			"-0.001": 16.7007049291,
			"0.0": 14.0090803818,
			"0.001": 9.9019581661,
			"0.002": 5.56329452259,
			"0.003": 5.33272729786,
			"0.004": 5.49024742252,
			"0.005": 6.01286158986,
			"0.006": 4.9250571076,
			"0.007": 5.15934521396,
			"0.008": 4.96745863238,
			"0.009": 4.38130780373,
			"0.01": 3.41974549225,
			"0.011": 5.17969378749,
			"0.012": 6.05664706003,
			"0.013": 1.65643573238,
			"0.014": 4.89531053715,
			"0.015": 3.79748910011,
			"0.016": 0.0479726073389,
			"0.017": 0.0,
			"0.018": 0.0,
			"0.019": 0.0,
			"0.02": 0.0,
			"0.021": 0.0,
			"0.022": 0.0,
			"0.023": 0.0,
			"0.024": 0.0,
			"0.025": 0.0
		}
	}
}
