{
	 "smiles": "CCOC1=C(O)C(Cl)=CC(C=O)=C1", 
	 "Tm": 419.15, 
	 "num_atms": 22, 
	 "gaussian": { 
		 "optdone": 1, 
		 "sigma_profile": "yes", 
		 "theory": "DFT", 
		 "functional": "B3LYP", 
		 "basiset": "6-31G**", 
		 "properties": { 
			 "R2extent": 3507.7436, 
			 "electric_dipole_moment_norm": 3.6446462078, 
			 "electric_quadrupole_moment_norm": 8.66134269325, 
			 "total_energy": -1034.22608577, 
			 "HOMO_LUMO_gap": 0.17682, 
			 "cosmo_polarized_energy": -10.57, 
			 "cosmo_cavitation_energy": 28.36, 
			 "cosmo_dispersion_energy": -20.73, 
			 "cosmo_repulsion_energy": 1.67, 
			 "cosmo_total_nonelectrostatic_energy": 9.3, 
			 "SMD_solvation_energy": 6.39 
		},
		"coords": [
			{
				"x": -0.1708637984,
				"y": 3.8937593316,
				"z": -2.4600895582,
				"element": "C" 
			},
			{
				"x": 0.3228233256,
				"y": 2.5382386106,
				"z": -1.9904573467,
				"element": "C" 
			},
			{
				"x": -0.7731700666,
				"y": 1.8955710021,
				"z": -1.3047961938,
				"element": "O" 
			},
			{
				"x": -0.5241771097,
				"y": 0.6670397744,
				"z": -0.7604588637,
				"element": "C" 
			},
			{
				"x": -0.2875049007,
				"y": -0.4605730582,
				"z": -1.5799769073,
				"element": "C" 
			},
			{
				"x": -0.265752818,
				"y": -0.2873199596,
				"z": -2.9192849502,
				"element": "O" 
			},
			{
				"x": -0.0943550578,
				"y": -1.7115873752,
				"z": -0.9639602937,
				"element": "C" 
			},
			{
				"x": 0.2048274374,
				"y": -3.0985676948,
				"z": -2.0135718727,
				"element": "Cl" 
			},
			{
				"x": -0.1483114743,
				"y": -1.8713647922,
				"z": 0.4100929349,
				"element": "C" 
			},
			{
				"x": -0.4001088134,
				"y": -0.7505188889,
				"z": 1.2117935891,
				"element": "C" 
			},
			{
				"x": -0.4661977915,
				"y": -0.8984556208,
				"z": 2.6800432193,
				"element": "C" 
			},
			{
				"x": -0.309920993,
				"y": -1.9473555394,
				"z": 3.2769218895,
				"element": "O" 
			},
			{
				"x": -0.5796279527,
				"y": 0.5070337732,
				"z": 0.6199616619,
				"element": "C" 
			},
			{
				"x": 0.6321116226,
				"y": 4.4252977458,
				"z": -2.9802834601,
				"element": "H" 
			},
			{
				"x": -1.0125952228,
				"y": 3.777695967,
				"z": -3.1485124144,
				"element": "H" 
			},
			{
				"x": -0.4991798841,
				"y": 4.5026582833,
				"z": -1.6129546943,
				"element": "H" 
			},
			{
				"x": 0.6460554934,
				"y": 1.9212854275,
				"z": -2.8349147575,
				"element": "H" 
			},
			{
				"x": 1.1661059908,
				"y": 2.6429334216,
				"z": -1.2938284914,
				"element": "H" 
			},
			{
				"x": -0.1026748374,
				"y": -1.1461285721,
				"z": -3.3416715664,
				"element": "H" 
			},
			{
				"x": -0.0040003448,
				"y": -2.839722258,
				"z": 0.875382937,
				"element": "H" 
			},
			{
				"x": -0.6761661483,
				"y": 0.0465987777,
				"z": 3.2284699882,
				"element": "H" 
			},
			{
				"x": -0.7763166563,
				"y": 1.3848816441,
				"z": 1.2288951506,
				"element": "H" 
			}
		],
		 "valence_orbital": [ 
			{
				"type": "occ",
				"energy": -0.33141,
				"method": "rhf"
			},
			{
				"type": "occ",
				"energy": -0.29122,
				"method": "rhf"
			},
			{
				"type": "occ",
				"energy": -0.25941,
				"method": "rhf"
			},
			{
				"type": "occ",
				"energy": -0.25679,
				"method": "rhf"
			},
			{
				"type": "occ",
				"energy": -0.24004,
				"method": "rhf"
			},
			{
				"type": "unocc",
				"energy": -0.06322,
				"method": "rhf"
			},
			{
				"type": "unocc",
				"energy": -0.02273,
				"method": "rhf"
			},
			{
				"type": "unocc",
				"energy": 0.00765,
				"method": "rhf"
			},
			{
				"type": "unocc",
				"energy": 0.03897,
				"method": "rhf"
			},
			{
				"type": "unocc",
				"energy": 0.06808,
				"method": "rhf"
			}
		],
		"cosmo_sigma_profile": { 
			"-0.025": 0.0,
			"-0.024": 0.0,
			"-0.023": 0.0,
			"-0.022": 0.0,
			"-0.021": 0.0,
			"-0.02": 0.0,
			"-0.019": 0.0,
			"-0.018": 0.0,
			"-0.017": 0.0191313122254,
			"-0.016": 0.451856448164,
			"-0.015": 0.497336283473,
			"-0.014": 0.574854932049,
			"-0.013": 0.655624393877,
			"-0.012": 0.825928090289,
			"-0.011": 1.05539942021,
			"-0.01": 0.917640897744,
			"-0.009": 1.13207318094,
			"-0.008": 3.61071431885,
			"-0.007": 6.38942617768,
			"-0.006": 6.25820607054,
			"-0.005": 7.47186394613,
			"-0.004": 15.1040048643,
			"-0.003": 21.5417734079,
			"-0.002": 22.7427326534,
			"-0.001": 22.6464016859,
			"0.0": 24.2860484308,
			"0.001": 23.0668161999,
			"0.002": 15.5480006201,
			"0.003": 10.9206527994,
			"0.004": 8.61344196825,
			"0.005": 4.41402507719,
			"0.006": 3.33351030232,
			"0.007": 3.93566575873,
			"0.008": 4.7796423264,
			"0.009": 3.95326899283,
			"0.01": 4.55725195205,
			"0.011": 4.90911538569,
			"0.012": 3.11217636908,
			"0.013": 0.818635697402,
			"0.014": 0.0,
			"0.015": 0.0,
			"0.016": 0.0,
			"0.017": 0.0,
			"0.018": 0.0,
			"0.019": 0.0,
			"0.02": 0.0,
			"0.021": 0.0,
			"0.022": 0.0,
			"0.023": 0.0,
			"0.024": 0.0,
			"0.025": 0.0
		}
	}
}
