{
	 "smiles": "OC(=O)C1=NC2=CC=CC=C2C=C1", 
	 "Tm": 430.15, 
	 "num_atms": 20, 
	 "gaussian": { 
		 "optdone": 1, 
		 "sigma_profile": "yes", 
		 "theory": "DFT", 
		 "functional": "B3LYP", 
		 "basiset": "6-31G**", 
		 "properties": { 
			 "R2extent": 3696.9103, 
			 "electric_dipole_moment_norm": 6.15990289128, 
			 "electric_quadrupole_moment_norm": 26.3616563791, 
			 "total_energy": -590.508507187, 
			 "HOMO_LUMO_gap": 0.17036, 
			 "cosmo_polarized_energy": -11.35, 
			 "cosmo_cavitation_energy": 24.74, 
			 "cosmo_dispersion_energy": -18.6, 
			 "cosmo_repulsion_energy": 1.44, 
			 "cosmo_total_nonelectrostatic_energy": 7.58, 
			 "SMD_solvation_energy": 4.47 
		},
		"coords": [
			{
				"x": 0.9104291689,
				"y": -3.6546890722,
				"z": 3.661925943,
				"element": "O" 
			},
			{
				"x": -0.2957396089,
				"y": -3.518942014,
				"z": 3.0925430325,
				"element": "C" 
			},
			{
				"x": -1.2789727409,
				"y": -4.1220153364,
				"z": 3.4603162799,
				"element": "O" 
			},
			{
				"x": -0.3140070244,
				"y": -2.5412046276,
				"z": 1.9401933265,
				"element": "C" 
			},
			{
				"x": 0.8415145941,
				"y": -1.963677049,
				"z": 1.6592672396,
				"element": "N" 
			},
			{
				"x": 0.8927286618,
				"y": -1.0715297077,
				"z": 0.6311852469,
				"element": "C" 
			},
			{
				"x": 2.1286036594,
				"y": -0.4457960973,
				"z": 0.3212255824,
				"element": "C" 
			},
			{
				"x": 2.2053989721,
				"y": 0.4589859209,
				"z": -0.7130590911,
				"element": "C" 
			},
			{
				"x": 1.0558826363,
				"y": 0.7772235702,
				"z": -1.4799788893,
				"element": "C" 
			},
			{
				"x": -0.1556305523,
				"y": 0.1853641695,
				"z": -1.2013335854,
				"element": "C" 
			},
			{
				"x": -0.2709040646,
				"y": -0.7520925572,
				"z": -0.1419720447,
				"element": "C" 
			},
			{
				"x": -1.4881586185,
				"y": -1.3981261961,
				"z": 0.1981089839,
				"element": "C" 
			},
			{
				"x": -1.5179872158,
				"y": -2.2948445195,
				"z": 1.2389097422,
				"element": "C" 
			},
			{
				"x": 1.509441999,
				"y": -3.0561835016,
				"z": 3.1661013451,
				"element": "H" 
			},
			{
				"x": 2.9946372289,
				"y": -0.7047857722,
				"z": 0.9215503903,
				"element": "H" 
			},
			{
				"x": 3.1521461214,
				"y": 0.9361119115,
				"z": -0.9479440937,
				"element": "H" 
			},
			{
				"x": 1.1368107776,
				"y": 1.4935630437,
				"z": -2.291949243,
				"element": "H" 
			},
			{
				"x": -1.0385057879,
				"y": 0.4270685238,
				"z": -1.7871871745,
				"element": "H" 
			},
			{
				"x": -2.3860957189,
				"y": -1.1741139971,
				"z": -0.3721290395,
				"element": "H" 
			},
			{
				"x": -2.4166924872,
				"y": -2.8175166919,
				"z": 1.5436260491,
				"element": "H" 
			}
		],
		 "valence_orbital": [ 
			{
				"type": "occ",
				"energy": -0.30764,
				"method": "rhf"
			},
			{
				"type": "occ",
				"energy": -0.30106,
				"method": "rhf"
			},
			{
				"type": "occ",
				"energy": -0.26994,
				"method": "rhf"
			},
			{
				"type": "occ",
				"energy": -0.26484,
				"method": "rhf"
			},
			{
				"type": "occ",
				"energy": -0.25264,
				"method": "rhf"
			},
			{
				"type": "unocc",
				"energy": -0.08228,
				"method": "rhf"
			},
			{
				"type": "unocc",
				"energy": -0.04658,
				"method": "rhf"
			},
			{
				"type": "unocc",
				"energy": -0.00309,
				"method": "rhf"
			},
			{
				"type": "unocc",
				"energy": 0.03151,
				"method": "rhf"
			},
			{
				"type": "unocc",
				"energy": 0.0817,
				"method": "rhf"
			}
		],
		"cosmo_sigma_profile": { 
			"-0.025": 0.0,
			"-0.024": 0.0,
			"-0.023": 0.0,
			"-0.022": 0.0,
			"-0.021": 0.0,
			"-0.02": 0.0,
			"-0.019": 0.0,
			"-0.018": 0.0,
			"-0.017": 0.0,
			"-0.016": 0.0,
			"-0.015": 0.0,
			"-0.014": 0.0,
			"-0.013": 0.169841233918,
			"-0.012": 0.271128925732,
			"-0.011": 0.475902305005,
			"-0.01": 1.25912160071,
			"-0.009": 0.399505406364,
			"-0.008": 3.77000533946,
			"-0.007": 9.17034865479,
			"-0.006": 13.4146541731,
			"-0.005": 13.2580815446,
			"-0.004": 13.7183862011,
			"-0.003": 12.1551669144,
			"-0.002": 11.0466481967,
			"-0.001": 15.3319552118,
			"0.0": 17.4395981202,
			"0.001": 20.3468823462,
			"0.002": 16.7405029589,
			"0.003": 14.0281252187,
			"0.004": 6.83970818213,
			"0.005": 2.73535657387,
			"0.006": 2.39020896918,
			"0.007": 2.31303212907,
			"0.008": 2.91151359474,
			"0.009": 3.97611039971,
			"0.01": 5.38367187789,
			"0.011": 4.93531859399,
			"0.012": 3.81133954204,
			"0.013": 1.28125973961,
			"0.014": 0.0,
			"0.015": 0.0,
			"0.016": 0.0,
			"0.017": 0.0,
			"0.018": 0.0,
			"0.019": 0.0,
			"0.02": 0.0,
			"0.021": 0.0,
			"0.022": 0.0,
			"0.023": 0.0,
			"0.024": 0.0,
			"0.025": 0.0
		}
	}
}
