{
	 "smiles": "CN1CCN(CC1)C1=C(F)C=C(C=O)C=C1", 
	 "Tm": 339.15, 
	 "num_atms": 31, 
	 "gaussian": { 
		 "optdone": 1, 
		 "sigma_profile": "yes", 
		 "theory": "DFT", 
		 "functional": "B3LYP", 
		 "basiset": "6-31G**", 
		 "properties": { 
			 "R2extent": 4603.1838, 
			 "electric_dipole_moment_norm": 5.05226505738, 
			 "electric_quadrupole_moment_norm": 16.9782617706, 
			 "total_energy": -750.84519844, 
			 "HOMO_LUMO_gap": 0.15238, 
			 "cosmo_polarized_energy": -11.25, 
			 "cosmo_cavitation_energy": 33.0, 
			 "cosmo_dispersion_energy": -23.64, 
			 "cosmo_repulsion_energy": 1.78, 
			 "cosmo_total_nonelectrostatic_energy": 11.15, 
			 "SMD_solvation_energy": 3.9 
		},
		"coords": [
			{
				"x": -2.1941881818,
				"y": -3.3804816524,
				"z": 0.6785107031,
				"element": "C" 
			},
			{
				"x": -2.2367860501,
				"y": -3.0216096616,
				"z": -0.7361752625,
				"element": "N" 
			},
			{
				"x": -2.5912754561,
				"y": -1.6142138402,
				"z": -0.9919686161,
				"element": "C" 
			},
			{
				"x": -1.3778501448,
				"y": -0.7631547111,
				"z": -1.4237948429,
				"element": "C" 
			},
			{
				"x": -0.1791384241,
				"y": -1.2182612873,
				"z": -0.7130266094,
				"element": "N" 
			},
			{
				"x": 0.2204464946,
				"y": -2.5782828064,
				"z": -1.074438191,
				"element": "C" 
			},
			{
				"x": -1.0383627284,
				"y": -3.3948668437,
				"z": -1.4724163596,
				"element": "C" 
			},
			{
				"x": 0.7439558298,
				"y": -0.3620921474,
				"z": -0.1421182725,
				"element": "C" 
			},
			{
				"x": 0.362885748,
				"y": 0.8399811413,
				"z": 0.5152506639,
				"element": "C" 
			},
			{
				"x": -0.9577461762,
				"y": 1.1561528046,
				"z": 0.5920565593,
				"element": "F" 
			},
			{
				"x": 1.2637804987,
				"y": 1.6901237827,
				"z": 1.1092713423,
				"element": "C" 
			},
			{
				"x": 2.6333032496,
				"y": 1.3693236267,
				"z": 1.1119200389,
				"element": "C" 
			},
			{
				"x": 3.6066727021,
				"y": 2.2652304211,
				"z": 1.7522949502,
				"element": "C" 
			},
			{
				"x": 3.3305660521,
				"y": 3.3180131076,
				"z": 2.3020413801,
				"element": "O" 
			},
			{
				"x": 3.0427730389,
				"y": 0.1777582931,
				"z": 0.5043276908,
				"element": "C" 
			},
			{
				"x": 2.1248637695,
				"y": -0.6664480328,
				"z": -0.1102437159,
				"element": "C" 
			},
			{
				"x": -1.9879528789,
				"y": -4.452523775,
				"z": 0.7708099893,
				"element": "H" 
			},
			{
				"x": -1.4424886791,
				"y": -2.8320551301,
				"z": 1.2714249805,
				"element": "H" 
			},
			{
				"x": -3.1747405698,
				"y": -3.1960986184,
				"z": 1.1284787795,
				"element": "H" 
			},
			{
				"x": -3.3622772012,
				"y": -1.5528858042,
				"z": -1.7741183829,
				"element": "H" 
			},
			{
				"x": -3.0186307122,
				"y": -1.1889945271,
				"z": -0.0789502665,
				"element": "H" 
			},
			{
				"x": -1.2082547752,
				"y": -0.8605754588,
				"z": -2.5076394576,
				"element": "H" 
			},
			{
				"x": -1.5594091856,
				"y": 0.2884958019,
				"z": -1.2241316671,
				"element": "H" 
			},
			{
				"x": 0.715120414,
				"y": -3.0321640788,
				"z": -0.2085459609,
				"element": "H" 
			},
			{
				"x": 0.9436428748,
				"y": -2.5934870308,
				"z": -1.9088133341,
				"element": "H" 
			},
			{
				"x": -0.8337563621,
				"y": -4.4603774588,
				"z": -1.3248141412,
				"element": "H" 
			},
			{
				"x": -1.2401507897,
				"y": -3.2632596998,
				"z": -2.5422389733,
				"element": "H" 
			},
			{
				"x": 0.9172716446,
				"y": 2.5931073859,
				"z": 1.6003463377,
				"element": "H" 
			},
			{
				"x": 4.6602405894,
				"y": 1.9076833127,
				"z": 1.7029652765,
				"element": "H" 
			},
			{
				"x": 4.0975653522,
				"y": -0.0866232669,
				"z": 0.4996061864,
				"element": "H" 
			},
			{
				"x": 2.4781200572,
				"y": -1.5690138462,
				"z": -0.5930708253,
				"element": "H" 
			}
		],
		 "valence_orbital": [ 
			{
				"type": "occ",
				"energy": -0.29318,
				"method": "rhf"
			},
			{
				"type": "occ",
				"energy": -0.25781,
				"method": "rhf"
			},
			{
				"type": "occ",
				"energy": -0.24504,
				"method": "rhf"
			},
			{
				"type": "occ",
				"energy": -0.21649,
				"method": "rhf"
			},
			{
				"type": "occ",
				"energy": -0.20419,
				"method": "rhf"
			},
			{
				"type": "unocc",
				"energy": -0.05181,
				"method": "rhf"
			},
			{
				"type": "unocc",
				"energy": -0.00679,
				"method": "rhf"
			},
			{
				"type": "unocc",
				"energy": 0.04918,
				"method": "rhf"
			},
			{
				"type": "unocc",
				"energy": 0.07004,
				"method": "rhf"
			},
			{
				"type": "unocc",
				"energy": 0.08515,
				"method": "rhf"
			}
		],
		"cosmo_sigma_profile": { 
			"-0.025": 0.0,
			"-0.024": 0.0,
			"-0.023": 0.0,
			"-0.022": 0.0,
			"-0.021": 0.0,
			"-0.02": 0.0,
			"-0.019": 0.0,
			"-0.018": 0.0,
			"-0.017": 0.0,
			"-0.016": 0.0,
			"-0.015": 0.0,
			"-0.014": 0.0,
			"-0.013": 0.0,
			"-0.012": 0.0,
			"-0.011": 0.0,
			"-0.01": 0.0,
			"-0.009": 0.0,
			"-0.008": 0.0112998723588,
			"-0.007": 3.46089670761,
			"-0.006": 7.80556889618,
			"-0.005": 13.6919030322,
			"-0.004": 32.734128538,
			"-0.003": 33.7838970861,
			"-0.002": 27.1562929296,
			"-0.001": 23.7931964282,
			"0.0": 21.130443911,
			"0.001": 17.7464355478,
			"0.002": 17.7978807033,
			"0.003": 16.8295345326,
			"0.004": 13.3775237421,
			"0.005": 4.62951720356,
			"0.006": 2.82527589492,
			"0.007": 2.18934915666,
			"0.008": 2.09393785057,
			"0.009": 2.44528213857,
			"0.01": 3.14204393868,
			"0.011": 3.46528195821,
			"0.012": 5.49082348836,
			"0.013": 2.50244699483,
			"0.014": 0.975047533072,
			"0.015": 0.551636163419,
			"0.016": 0.380837056099,
			"0.017": 0.0892283561633,
			"0.018": 0.0,
			"0.019": 0.0,
			"0.02": 0.0,
			"0.021": 0.0,
			"0.022": 0.0,
			"0.023": 0.0,
			"0.024": 0.0,
			"0.025": 0.0
		}
	}
}
