{
	 "smiles": "COC1=CC=C(NC(=O)C2=CC=C(CCl)C=C2)C=C1", 
	 "Tm": 463.15, 
	 "num_atms": 33, 
	 "gaussian": { 
		 "optdone": 1, 
		 "sigma_profile": "yes", 
		 "theory": "DFT", 
		 "functional": "B3LYP", 
		 "basiset": "6-31G**", 
		 "properties": { 
			 "R2extent": 7369.2844, 
			 "electric_dipole_moment_norm": 2.67414621141, 
			 "electric_quadrupole_moment_norm": 14.4729360432, 
			 "total_energy": -1245.43291209, 
			 "HOMO_LUMO_gap": 0.16273, 
			 "cosmo_polarized_energy": -15.91, 
			 "cosmo_cavitation_energy": 39.4, 
			 "cosmo_dispersion_energy": -27.38, 
			 "cosmo_repulsion_energy": 2.16, 
			 "cosmo_total_nonelectrostatic_energy": 14.18, 
			 "SMD_solvation_energy": 7.59 
		},
		"coords": [
			{
				"x": -1.6651307193,
				"y": -4.470182423,
				"z": 1.3289952867,
				"element": "C" 
			},
			{
				"x": -2.2819357146,
				"y": -3.8781321405,
				"z": 0.1960198328,
				"element": "O" 
			},
			{
				"x": -2.3196269877,
				"y": -2.5169610246,
				"z": 0.1193953961,
				"element": "C" 
			},
			{
				"x": -2.9401465262,
				"y": -1.9868897464,
				"z": -1.0222045312,
				"element": "C" 
			},
			{
				"x": -3.0155292397,
				"y": -0.612640418,
				"z": -1.2030641636,
				"element": "C" 
			},
			{
				"x": -2.4944665766,
				"y": 0.266325381,
				"z": -0.240609699,
				"element": "C" 
			},
			{
				"x": -2.6308330115,
				"y": 1.6689657372,
				"z": -0.4427174203,
				"element": "N" 
			},
			{
				"x": -1.7723488906,
				"y": 2.7023126917,
				"z": -0.1195829248,
				"element": "C" 
			},
			{
				"x": -2.2085834023,
				"y": 3.8407332965,
				"z": 0.0200477488,
				"element": "O" 
			},
			{
				"x": -0.2995223413,
				"y": 2.4271141907,
				"z": -0.0064756211,
				"element": "C" 
			},
			{
				"x": 0.4426508662,
				"y": 3.2587645582,
				"z": 0.8431666882,
				"element": "C" 
			},
			{
				"x": 1.8215094524,
				"y": 3.1085087956,
				"z": 0.9490559832,
				"element": "C" 
			},
			{
				"x": 2.4932869277,
				"y": 2.1440390186,
				"z": 0.1857382648,
				"element": "C" 
			},
			{
				"x": 3.9803390009,
				"y": 1.988452097,
				"z": 0.2914254901,
				"element": "C" 
			},
			{
				"x": 4.4624040237,
				"y": 0.7564434369,
				"z": 1.5686548176,
				"element": "Cl" 
			},
			{
				"x": 1.7529418583,
				"y": 1.3343217322,
				"z": -0.6855445876,
				"element": "C" 
			},
			{
				"x": 0.3700256899,
				"y": 1.4677087896,
				"z": -0.7791749208,
				"element": "C" 
			},
			{
				"x": -1.9016516706,
				"y": -0.2659614805,
				"z": 0.9071827142,
				"element": "C" 
			},
			{
				"x": -1.7956975586,
				"y": -1.6473169797,
				"z": 1.0832693209,
				"element": "C" 
			},
			{
				"x": -0.6070098048,
				"y": -4.1891573276,
				"z": 1.4071713645,
				"element": "H" 
			},
			{
				"x": -1.7399817043,
				"y": -5.5487719112,
				"z": 1.1833539569,
				"element": "H" 
			},
			{
				"x": -2.1786615743,
				"y": -4.1957946298,
				"z": 2.2594837683,
				"element": "H" 
			},
			{
				"x": -3.3442114679,
				"y": -2.6730311268,
				"z": -1.7590947222,
				"element": "H" 
			},
			{
				"x": -3.4780565436,
				"y": -0.2077651238,
				"z": -2.0987866457,
				"element": "H" 
			},
			{
				"x": -3.5711597333,
				"y": 2.0146321292,
				"z": -0.5977329172,
				"element": "H" 
			},
			{
				"x": -0.080205116,
				"y": 4.0257926679,
				"z": 1.4042158295,
				"element": "H" 
			},
			{
				"x": 2.3850498804,
				"y": 3.7483780704,
				"z": 1.6229818481,
				"element": "H" 
			},
			{
				"x": 4.4218214412,
				"y": 1.626258915,
				"z": -0.6370787241,
				"element": "H" 
			},
			{
				"x": 4.4690761152,
				"y": 2.9162800615,
				"z": 0.5886163127,
				"element": "H" 
			},
			{
				"x": 2.2640799232,
				"y": 0.5928328025,
				"z": -1.293855002,
				"element": "H" 
			},
			{
				"x": -0.1844907076,
				"y": 0.835127107,
				"z": -1.4630372473,
				"element": "H" 
			},
			{
				"x": -1.5162203805,
				"y": 0.3995454903,
				"z": 1.6721363079,
				"element": "H" 
			},
			{
				"x": -1.3208155079,
				"y": -2.0272326372,
				"z": 1.9797481956,
				"element": "H" 
			}
		],
		 "valence_orbital": [ 
			{
				"type": "occ",
				"energy": -0.26637,
				"method": "rhf"
			},
			{
				"type": "occ",
				"energy": -0.26492,
				"method": "rhf"
			},
			{
				"type": "occ",
				"energy": -0.25797,
				"method": "rhf"
			},
			{
				"type": "occ",
				"energy": -0.24696,
				"method": "rhf"
			},
			{
				"type": "occ",
				"energy": -0.21408,
				"method": "rhf"
			},
			{
				"type": "unocc",
				"energy": -0.05135,
				"method": "rhf"
			},
			{
				"type": "unocc",
				"energy": -0.01812,
				"method": "rhf"
			},
			{
				"type": "unocc",
				"energy": -0.00823,
				"method": "rhf"
			},
			{
				"type": "unocc",
				"energy": -0.00085,
				"method": "rhf"
			},
			{
				"type": "unocc",
				"energy": 0.02366,
				"method": "rhf"
			}
		],
		"cosmo_sigma_profile": { 
			"-0.025": 0.0,
			"-0.024": 0.0,
			"-0.023": 0.0,
			"-0.022": 0.0,
			"-0.021": 0.0,
			"-0.02": 0.0,
			"-0.019": 0.0,
			"-0.018": 0.0,
			"-0.017": 0.0,
			"-0.016": 0.0,
			"-0.015": 0.0603429932508,
			"-0.014": 0.693609527032,
			"-0.013": 1.02489188138,
			"-0.012": 1.01734573355,
			"-0.011": 0.485566234477,
			"-0.01": 0.782456075633,
			"-0.009": 1.48289212533,
			"-0.008": 5.15136153269,
			"-0.007": 10.9435905292,
			"-0.006": 21.5397161191,
			"-0.005": 28.5334907574,
			"-0.004": 26.3621760786,
			"-0.003": 22.4020026075,
			"-0.002": 17.55984973,
			"-0.001": 16.0832044865,
			"0.0": 18.1727953661,
			"0.001": 17.4260503269,
			"0.002": 19.3107020294,
			"0.003": 25.3384782693,
			"0.004": 25.5792772574,
			"0.005": 13.9357135321,
			"0.006": 12.1370458333,
			"0.007": 9.95359361175,
			"0.008": 2.42692473174,
			"0.009": 3.28367690504,
			"0.01": 2.65490476066,
			"0.011": 1.87045070136,
			"0.012": 2.24136053222,
			"0.013": 5.385557274,
			"0.014": 2.40489389086,
			"0.015": 0.00350728629699,
			"0.016": 0.0,
			"0.017": 0.0,
			"0.018": 0.0,
			"0.019": 0.0,
			"0.02": 0.0,
			"0.021": 0.0,
			"0.022": 0.0,
			"0.023": 0.0,
			"0.024": 0.0,
			"0.025": 0.0
		}
	}
}
