{
	 "smiles": "COC1=CC=CC=C1C1NN2C(S1)=NN=C2C1=CC=CC=C1OC", 
	 "Tm": 446.15, 
	 "num_atms": 40, 
	 "gaussian": { 
		 "optdone": 1, 
		 "sigma_profile": "yes", 
		 "theory": "DFT", 
		 "functional": "B3LYP", 
		 "basiset": "6-31G**", 
		 "properties": { 
			 "R2extent": 8020.7163, 
			 "electric_dipole_moment_norm": 6.73482821533, 
			 "electric_quadrupole_moment_norm": 23.017592635, 
			 "total_energy": -1424.99413522, 
			 "HOMO_LUMO_gap": 0.17272, 
			 "cosmo_polarized_energy": -24.73, 
			 "cosmo_cavitation_energy": 44.78, 
			 "cosmo_dispersion_energy": -30.74, 
			 "cosmo_repulsion_energy": 2.26, 
			 "cosmo_total_nonelectrostatic_energy": 16.3, 
			 "SMD_solvation_energy": 5.34 
		},
		"coords": [
			{
				"x": 0.3483063158,
				"y": -2.547152856,
				"z": -1.8695459159,
				"element": "C" 
			},
			{
				"x": -0.4236038694,
				"y": -1.4145561674,
				"z": -1.4897830283,
				"element": "O" 
			},
			{
				"x": -1.1428140995,
				"y": -0.7469644343,
				"z": -2.4255862073,
				"element": "C" 
			},
			{
				"x": -1.0753956487,
				"y": -1.010963871,
				"z": -3.7974758736,
				"element": "C" 
			},
			{
				"x": -1.8577071411,
				"y": -0.2757452317,
				"z": -4.6915586062,
				"element": "C" 
			},
			{
				"x": -2.7097104296,
				"y": 0.7233239906,
				"z": -4.2299197277,
				"element": "C" 
			},
			{
				"x": -2.7703669293,
				"y": 0.9818966107,
				"z": -2.8589495518,
				"element": "C" 
			},
			{
				"x": -2.0011424979,
				"y": 0.2656299324,
				"z": -1.938720952,
				"element": "C" 
			},
			{
				"x": -2.1443608345,
				"y": 0.596145031,
				"z": -0.4729704858,
				"element": "C" 
			},
			{
				"x": -0.8934136543,
				"y": 0.9717640897,
				"z": 0.2205108681,
				"element": "N" 
			},
			{
				"x": -0.4990696333,
				"y": -0.1029378065,
				"z": 1.0297556034,
				"element": "N" 
			},
			{
				"x": -1.3696050573,
				"y": -1.1296082754,
				"z": 1.2412728324,
				"element": "C" 
			},
			{
				"x": -2.9517186055,
				"y": -0.8100134078,
				"z": 0.543398685,
				"element": "S" 
			},
			{
				"x": -0.7793056449,
				"y": -2.1350226015,
				"z": 1.8371296123,
				"element": "N" 
			},
			{
				"x": 0.5403913619,
				"y": -1.7436319143,
				"z": 2.0317831402,
				"element": "N" 
			},
			{
				"x": 0.7081413197,
				"y": -0.5345598544,
				"z": 1.5175333739,
				"element": "C" 
			},
			{
				"x": 1.9743447197,
				"y": 0.2027605693,
				"z": 1.4902251938,
				"element": "C" 
			},
			{
				"x": 3.156920146,
				"y": -0.5090269876,
				"z": 1.2521982256,
				"element": "C" 
			},
			{
				"x": 4.3967152301,
				"y": 0.1270992357,
				"z": 1.2416227869,
				"element": "C" 
			},
			{
				"x": 4.4615594018,
				"y": 1.4998090644,
				"z": 1.4703002945,
				"element": "C" 
			},
			{
				"x": 3.3000281472,
				"y": 2.2312880981,
				"z": 1.7291424141,
				"element": "C" 
			},
			{
				"x": 2.0582975829,
				"y": 1.5888740461,
				"z": 1.7541426394,
				"element": "C" 
			},
			{
				"x": 0.8840689799,
				"y": 2.2286103745,
				"z": 2.059533373,
				"element": "O" 
			},
			{
				"x": 0.9452583297,
				"y": 3.5872266495,
				"z": 2.4727736849,
				"element": "C" 
			},
			{
				"x": 0.7381991161,
				"y": -2.9582093679,
				"z": -0.938296432,
				"element": "H" 
			},
			{
				"x": 1.1799678301,
				"y": -2.262321787,
				"z": -2.5258288963,
				"element": "H" 
			},
			{
				"x": -0.2710361117,
				"y": -3.3003508618,
				"z": -2.370888985,
				"element": "H" 
			},
			{
				"x": -0.4163768549,
				"y": -1.7847274752,
				"z": -4.1723915904,
				"element": "H" 
			},
			{
				"x": -1.7933870993,
				"y": -0.4926606131,
				"z": -5.7539682515,
				"element": "H" 
			},
			{
				"x": -3.3187984468,
				"y": 1.2959659378,
				"z": -4.9217406951,
				"element": "H" 
			},
			{
				"x": -3.4350844401,
				"y": 1.7602067792,
				"z": -2.4907684886,
				"element": "H" 
			},
			{
				"x": -2.8262703656,
				"y": 1.4446067428,
				"z": -0.3924735545,
				"element": "H" 
			},
			{
				"x": -1.0564004173,
				"y": 1.7574753479,
				"z": 0.8476747182,
				"element": "H" 
			},
			{
				"x": 3.0780011626,
				"y": -1.5770492448,
				"z": 1.080333791,
				"element": "H" 
			},
			{
				"x": 5.2999769166,
				"y": -0.4436009905,
				"z": 1.0512447099,
				"element": "H" 
			},
			{
				"x": 5.4181287023,
				"y": 2.0140871388,
				"z": 1.4552660498,
				"element": "H" 
			},
			{
				"x": 3.3736335766,
				"y": 3.2947567108,
				"z": 1.9206650084,
				"element": "H" 
			},
			{
				"x": 1.2986349157,
				"y": 4.2415041957,
				"z": 1.6660415398,
				"element": "H" 
			},
			{
				"x": 1.5935600373,
				"y": 3.7100020219,
				"z": 3.348451593,
				"element": "H" 
			},
			{
				"x": -0.0748660112,
				"y": 3.8670711814,
				"z": 2.7412671042,
				"element": "H" 
			}
		],
		 "valence_orbital": [ 
			{
				"type": "occ",
				"energy": -0.24914,
				"method": "rhf"
			},
			{
				"type": "occ",
				"energy": -0.23985,
				"method": "rhf"
			},
			{
				"type": "occ",
				"energy": -0.22946,
				"method": "rhf"
			},
			{
				"type": "occ",
				"energy": -0.22625,
				"method": "rhf"
			},
			{
				"type": "occ",
				"energy": -0.20416,
				"method": "rhf"
			},
			{
				"type": "unocc",
				"energy": -0.03144,
				"method": "rhf"
			},
			{
				"type": "unocc",
				"energy": -0.01949,
				"method": "rhf"
			},
			{
				"type": "unocc",
				"energy": 0.00188,
				"method": "rhf"
			},
			{
				"type": "unocc",
				"energy": 0.00479,
				"method": "rhf"
			},
			{
				"type": "unocc",
				"energy": 0.01149,
				"method": "rhf"
			}
		],
		"cosmo_sigma_profile": { 
			"-0.025": 0.0,
			"-0.024": 0.0,
			"-0.023": 0.0,
			"-0.022": 0.0,
			"-0.021": 0.0,
			"-0.02": 0.0,
			"-0.019": 0.0,
			"-0.018": 0.0,
			"-0.017": 0.0,
			"-0.016": 0.0,
			"-0.015": 0.0252575863002,
			"-0.014": 0.880035713806,
			"-0.013": 1.34289017101,
			"-0.012": 1.08944126978,
			"-0.011": 1.33307004564,
			"-0.01": 2.50196824235,
			"-0.009": 4.25604698615,
			"-0.008": 2.76336958992,
			"-0.007": 7.61798471632,
			"-0.006": 26.1244774252,
			"-0.005": 34.2016378283,
			"-0.004": 32.2940425787,
			"-0.003": 27.376375797,
			"-0.002": 19.7205560225,
			"-0.001": 17.7324886492,
			"0.0": 17.2228506342,
			"0.001": 22.2141939886,
			"0.002": 23.7213324741,
			"0.003": 24.6258075429,
			"0.004": 27.7534179195,
			"0.005": 23.174987454,
			"0.006": 11.169491314,
			"0.007": 5.79217288235,
			"0.008": 3.22757758799,
			"0.009": 2.16265060806,
			"0.01": 2.69981400787,
			"0.011": 2.4501296109,
			"0.012": 2.45318175045,
			"0.013": 2.88231774686,
			"0.014": 3.06464315874,
			"0.015": 3.19706296153,
			"0.016": 2.14109061781,
			"0.017": 1.08951301907,
			"0.018": 0.0,
			"0.019": 0.0,
			"0.02": 0.0,
			"0.021": 0.0,
			"0.022": 0.0,
			"0.023": 0.0,
			"0.024": 0.0,
			"0.025": 0.0
		}
	}
}
