{
	 "smiles": "[O-][N+](=O)C1=C(C=CC(Br)=C1)C#N", 
	 "Tm": 365.15, 
	 "num_atms": 15, 
	 "gaussian": { 
		 "optdone": 1, 
		 "sigma_profile": "yes", 
		 "theory": "DFT", 
		 "functional": "B3LYP", 
		 "basiset": "6-31G**", 
		 "properties": { 
			 "R2extent": 3698.4032, 
			 "electric_dipole_moment_norm": 5.57784545232, 
			 "electric_quadrupole_moment_norm": 10.2997508276, 
			 "total_energy": -3099.77410859, 
			 "HOMO_LUMO_gap": 0.16172, 
			 "cosmo_polarized_energy": -13.15, 
			 "cosmo_cavitation_energy": 24.15, 
			 "cosmo_dispersion_energy": -17.63, 
			 "cosmo_repulsion_energy": 1.4, 
			 "cosmo_total_nonelectrostatic_energy": 7.93, 
			 "SMD_solvation_energy": 6.38 
		},
		"coords": [
			{
				"x": 1.8428379662,
				"y": -2.4894513678,
				"z": -1.2137725364,
				"element": "O" 
			},
			{
				"x": 1.4035947387,
				"y": -2.0567694244,
				"z": -0.150861939,
				"element": "N" 
			},
			{
				"x": 1.3115582691,
				"y": -2.6960967388,
				"z": 0.8914398756,
				"element": "O" 
			},
			{
				"x": 0.9494421613,
				"y": -0.6502055506,
				"z": -0.1291959031,
				"element": "C" 
			},
			{
				"x": 0.4325851251,
				"y": -0.069840586,
				"z": 1.0440435236,
				"element": "C" 
			},
			{
				"x": 0.0231355765,
				"y": 1.2746438251,
				"z": 0.9783874244,
				"element": "C" 
			},
			{
				"x": 0.1238910322,
				"y": 2.0055020532,
				"z": -0.2002630342,
				"element": "C" 
			},
			{
				"x": 0.6417333141,
				"y": 1.3953305882,
				"z": -1.3441101796,
				"element": "C" 
			},
			{
				"x": 0.7830158624,
				"y": 2.3849091509,
				"z": -2.9582780089,
				"element": "Br" 
			},
			{
				"x": 1.056804646,
				"y": 0.0672119226,
				"z": -1.3160488279,
				"element": "C" 
			},
			{
				"x": 0.2868174905,
				"y": -0.7336869729,
				"z": 2.3058535376,
				"element": "C" 
			},
			{
				"x": 0.1056863417,
				"y": -1.1254009827,
				"z": 3.3856943245,
				"element": "N" 
			},
			{
				"x": -0.3776864072,
				"y": 1.7394445222,
				"z": 1.8721868472,
				"element": "H" 
			},
			{
				"x": -0.1969314931,
				"y": 3.0401510126,
				"z": -0.2306439579,
				"element": "H" 
			},
			{
				"x": 1.4608153765,
				"y": -0.4239414517,
				"z": -2.1908311458,
				"element": "H" 
			}
		],
		 "valence_orbital": [ 
			{
				"type": "occ",
				"energy": -0.32755,
				"method": "rhf"
			},
			{
				"type": "occ",
				"energy": -0.3207,
				"method": "rhf"
			},
			{
				"type": "occ",
				"energy": -0.31685,
				"method": "rhf"
			},
			{
				"type": "occ",
				"energy": -0.30929,
				"method": "rhf"
			},
			{
				"type": "occ",
				"energy": -0.28207,
				"method": "rhf"
			},
			{
				"type": "unocc",
				"energy": -0.12035,
				"method": "rhf"
			},
			{
				"type": "unocc",
				"energy": -0.07787,
				"method": "rhf"
			},
			{
				"type": "unocc",
				"energy": -0.03273,
				"method": "rhf"
			},
			{
				"type": "unocc",
				"energy": -0.0284,
				"method": "rhf"
			},
			{
				"type": "unocc",
				"energy": 0.02098,
				"method": "rhf"
			}
		],
		"cosmo_sigma_profile": { 
			"-0.025": 0.0,
			"-0.024": 0.0,
			"-0.023": 0.0,
			"-0.022": 0.0,
			"-0.021": 0.0,
			"-0.02": 0.0,
			"-0.019": 0.0,
			"-0.018": 0.0,
			"-0.017": 0.0,
			"-0.016": 0.0,
			"-0.015": 0.0,
			"-0.014": 0.0,
			"-0.013": 0.0,
			"-0.012": 0.0,
			"-0.011": 0.0,
			"-0.01": 2.28968895107,
			"-0.009": 7.32618738266,
			"-0.008": 7.03421474595,
			"-0.007": 7.29635694941,
			"-0.006": 7.92070551841,
			"-0.005": 9.85883065044,
			"-0.004": 15.4361953834,
			"-0.003": 17.1767044748,
			"-0.002": 19.2555265106,
			"-0.001": 12.7046786417,
			"0.0": 7.70883923475,
			"0.001": 7.66142414482,
			"0.002": 11.3445812099,
			"0.003": 14.4542041313,
			"0.004": 4.63513588056,
			"0.005": 4.9029370308,
			"0.006": 9.83270751651,
			"0.007": 11.7426664167,
			"0.008": 8.72755239031,
			"0.009": 5.08110028536,
			"0.01": 2.94366172321,
			"0.011": 2.36533952792,
			"0.012": 1.94654966187,
			"0.013": 0.211133148555,
			"0.014": 0.0,
			"0.015": 0.0,
			"0.016": 0.0,
			"0.017": 0.0,
			"0.018": 0.0,
			"0.019": 0.0,
			"0.02": 0.0,
			"0.021": 0.0,
			"0.022": 0.0,
			"0.023": 0.0,
			"0.024": 0.0,
			"0.025": 0.0
		}
	}
}
