{
	 "smiles": "CCOC1=C(C=C(C=C1)C(O)=O)[N+]([O-])=O", 
	 "Tm": 475.15, 
	 "num_atms": 24, 
	 "gaussian": { 
		 "optdone": 1, 
		 "sigma_profile": "yes", 
		 "theory": "DFT", 
		 "functional": "B3LYP", 
		 "basiset": "6-31G**", 
		 "properties": { 
			 "R2extent": 4698.935, 
			 "electric_dipole_moment_norm": 5.04285110429, 
			 "electric_quadrupole_moment_norm": 18.0551872236, 
			 "total_energy": -779.147382407, 
			 "HOMO_LUMO_gap": 0.16833, 
			 "cosmo_polarized_energy": -20.03, 
			 "cosmo_cavitation_energy": 29.57, 
			 "cosmo_dispersion_energy": -21.34, 
			 "cosmo_repulsion_energy": 1.68, 
			 "cosmo_total_nonelectrostatic_energy": 9.9, 
			 "SMD_solvation_energy": 8.96 
		},
		"coords": [
			{
				"x": 2.6692446181,
				"y": -1.8172997874,
				"z": -2.9776834418,
				"element": "C" 
			},
			{
				"x": 1.6222932397,
				"y": -1.0529371804,
				"z": -2.1896108132,
				"element": "C" 
			},
			{
				"x": 1.7699338166,
				"y": -1.4366755591,
				"z": -0.8110490437,
				"element": "O" 
			},
			{
				"x": 0.9708770574,
				"y": -0.9012952798,
				"z": 0.1200781668,
				"element": "C" 
			},
			{
				"x": 1.1548225372,
				"y": -1.2635810663,
				"z": 1.4787044287,
				"element": "C" 
			},
			{
				"x": 0.3845923428,
				"y": -0.6893731997,
				"z": 2.486733911,
				"element": "C" 
			},
			{
				"x": -0.6064677138,
				"y": 0.2449811703,
				"z": 2.1893582998,
				"element": "C" 
			},
			{
				"x": -0.8171843666,
				"y": 0.5846020359,
				"z": 0.8444385274,
				"element": "C" 
			},
			{
				"x": -0.0401669345,
				"y": 0.0387734412,
				"z": -0.1653535538,
				"element": "C" 
			},
			{
				"x": -1.4921030479,
				"y": 0.8779312578,
				"z": 3.2173839137,
				"element": "C" 
			},
			{
				"x": -1.0998092843,
				"y": 0.7947795261,
				"z": 4.5142285229,
				"element": "O" 
			},
			{
				"x": -2.5200444021,
				"y": 1.4468619425,
				"z": 2.9315369296,
				"element": "O" 
			},
			{
				"x": 2.146270946,
				"y": -2.2635366719,
				"z": 1.9013845404,
				"element": "N" 
			},
			{
				"x": 2.4956176416,
				"y": -2.2322570779,
				"z": 3.0854371071,
				"element": "O" 
			},
			{
				"x": 2.5511555136,
				"y": -3.07580176,
				"z": 1.0768118759,
				"element": "O" 
			},
			{
				"x": 3.674341016,
				"y": -1.5661004883,
				"z": -2.6294014542,
				"element": "H" 
			},
			{
				"x": 2.5241326138,
				"y": -2.8946474391,
				"z": -2.8658633561,
				"element": "H" 
			},
			{
				"x": 2.5929702923,
				"y": -1.5612497217,
				"z": -4.0386657306,
				"element": "H" 
			},
			{
				"x": 0.6090549937,
				"y": -1.3014673216,
				"z": -2.5298060242,
				"element": "H" 
			},
			{
				"x": 1.7636525162,
				"y": 0.0313790932,
				"z": -2.284611019,
				"element": "H" 
			},
			{
				"x": 0.5847619417,
				"y": -1.032853739,
				"z": 3.4955720203,
				"element": "H" 
			},
			{
				"x": -1.6046179812,
				"y": 1.2934485232,
				"z": 0.6117941003,
				"element": "H" 
			},
			{
				"x": -0.2170489114,
				"y": 0.3405300828,
				"z": -1.189456885,
				"element": "H" 
			},
			{
				"x": -0.1961784449,
				"y": 0.4574892192,
				"z": 4.5831389777,
				"element": "H" 
			}
		],
		 "valence_orbital": [ 
			{
				"type": "occ",
				"energy": -0.31072,
				"method": "rhf"
			},
			{
				"type": "occ",
				"energy": -0.30095,
				"method": "rhf"
			},
			{
				"type": "occ",
				"energy": -0.28775,
				"method": "rhf"
			},
			{
				"type": "occ",
				"energy": -0.2823,
				"method": "rhf"
			},
			{
				"type": "occ",
				"energy": -0.26132,
				"method": "rhf"
			},
			{
				"type": "unocc",
				"energy": -0.09299,
				"method": "rhf"
			},
			{
				"type": "unocc",
				"energy": -0.05922,
				"method": "rhf"
			},
			{
				"type": "unocc",
				"energy": -0.02098,
				"method": "rhf"
			},
			{
				"type": "unocc",
				"energy": 0.04,
				"method": "rhf"
			},
			{
				"type": "unocc",
				"energy": 0.0517,
				"method": "rhf"
			}
		],
		"cosmo_sigma_profile": { 
			"-0.025": 0.0,
			"-0.024": 0.0,
			"-0.023": 0.0,
			"-0.022": 0.0,
			"-0.021": 0.0,
			"-0.02": 0.221166059769,
			"-0.019": 1.1396723529,
			"-0.018": 0.920111951383,
			"-0.017": 0.90654622853,
			"-0.016": 0.919254603683,
			"-0.015": 0.775409693721,
			"-0.014": 1.00615259098,
			"-0.013": 0.979392170485,
			"-0.012": 0.916972437437,
			"-0.011": 1.40681346143,
			"-0.01": 1.10902626979,
			"-0.009": 2.02828625337,
			"-0.008": 4.47753188842,
			"-0.007": 8.53027105344,
			"-0.006": 13.6106618524,
			"-0.005": 14.1738337869,
			"-0.004": 17.9996406796,
			"-0.003": 17.1056663396,
			"-0.002": 19.4378526782,
			"-0.001": 19.5602100093,
			"0.0": 18.8143284475,
			"0.001": 10.5601651688,
			"0.002": 5.75466251695,
			"0.003": 5.41589395622,
			"0.004": 4.78979476906,
			"0.005": 5.73332082944,
			"0.006": 5.83602525438,
			"0.007": 8.61779337501,
			"0.008": 11.9476465337,
			"0.009": 10.8776940059,
			"0.01": 8.86845571886,
			"0.011": 6.1366281604,
			"0.012": 4.1771680673,
			"0.013": 1.13409288414,
			"0.014": 0.0137742359079,
			"0.015": 0.0,
			"0.016": 0.0,
			"0.017": 0.0,
			"0.018": 0.0,
			"0.019": 0.0,
			"0.02": 0.0,
			"0.021": 0.0,
			"0.022": 0.0,
			"0.023": 0.0,
			"0.024": 0.0,
			"0.025": 0.0
		}
	}
}
