{
	 "smiles": "FC1=C(F)C=C2N=CC(=O)NC2=C1", 
	 "Tm": 563.15, 
	 "num_atms": 17, 
	 "gaussian": { 
		 "optdone": 1, 
		 "sigma_profile": "yes", 
		 "theory": "DFT", 
		 "functional": "B3LYP", 
		 "basiset": "6-31G**", 
		 "properties": { 
			 "R2extent": 3889.3853, 
			 "electric_dipole_moment_norm": 1.81592436517, 
			 "electric_quadrupole_moment_norm": 17.6808791351, 
			 "total_energy": -691.656883918, 
			 "HOMO_LUMO_gap": 0.15574, 
			 "cosmo_polarized_energy": -12.89, 
			 "cosmo_cavitation_energy": 23.29, 
			 "cosmo_dispersion_energy": -17.22, 
			 "cosmo_repulsion_energy": 1.29, 
			 "cosmo_total_nonelectrostatic_energy": 7.36, 
			 "SMD_solvation_energy": 4.26 
		},
		"coords": [
			{
				"x": -2.1986534846,
				"y": 2.5158061928,
				"z": -2.6294426353,
				"element": "F" 
			},
			{
				"x": -1.7089070264,
				"y": 1.3511932777,
				"z": -2.1858936032,
				"element": "C" 
			},
			{
				"x": -2.1165450226,
				"y": 0.8856781375,
				"z": -0.9256569721,
				"element": "C" 
			},
			{
				"x": -2.9814924842,
				"y": 1.6272933677,
				"z": -0.215343768,
				"element": "F" 
			},
			{
				"x": -1.6320327179,
				"y": -0.3091838045,
				"z": -0.4384713544,
				"element": "C" 
			},
			{
				"x": -0.726322017,
				"y": -1.0646199422,
				"z": -1.2063304358,
				"element": "C" 
			},
			{
				"x": -0.2501746177,
				"y": -2.2640936202,
				"z": -0.6990425943,
				"element": "N" 
			},
			{
				"x": 0.5811627097,
				"y": -2.9515914352,
				"z": -1.4107818586,
				"element": "C" 
			},
			{
				"x": 1.0849147966,
				"y": -2.569988503,
				"z": -2.7491817186,
				"element": "C" 
			},
			{
				"x": 1.8722190638,
				"y": -3.2291782863,
				"z": -3.4129961081,
				"element": "O" 
			},
			{
				"x": 0.5672623693,
				"y": -1.3577695415,
				"z": -3.1955341984,
				"element": "N" 
			},
			{
				"x": -0.3229751788,
				"y": -0.5835592159,
				"z": -2.4764810183,
				"element": "C" 
			},
			{
				"x": -0.8202545744,
				"y": 0.6333215974,
				"z": -2.9656645568,
				"element": "C" 
			},
			{
				"x": -1.9403133075,
				"y": -0.6773335109,
				"z": 0.5329380738,
				"element": "H" 
			},
			{
				"x": 0.9592137024,
				"y": -3.8942883252,
				"z": -1.01920595,
				"element": "H" 
			},
			{
				"x": 0.8850240891,
				"y": -1.0554902144,
				"z": -4.1090418195,
				"element": "H" 
			},
			{
				"x": -0.5274263,
				"y": 1.023603826,
				"z": -3.9345694825,
				"element": "H" 
			}
		],
		 "valence_orbital": [ 
			{
				"type": "occ",
				"energy": -0.31949,
				"method": "rhf"
			},
			{
				"type": "occ",
				"energy": -0.31067,
				"method": "rhf"
			},
			{
				"type": "occ",
				"energy": -0.27211,
				"method": "rhf"
			},
			{
				"type": "occ",
				"energy": -0.25962,
				"method": "rhf"
			},
			{
				"type": "occ",
				"energy": -0.23757,
				"method": "rhf"
			},
			{
				"type": "unocc",
				"energy": -0.08183,
				"method": "rhf"
			},
			{
				"type": "unocc",
				"energy": -0.02546,
				"method": "rhf"
			},
			{
				"type": "unocc",
				"energy": -0.01371,
				"method": "rhf"
			},
			{
				"type": "unocc",
				"energy": 0.05183,
				"method": "rhf"
			},
			{
				"type": "unocc",
				"energy": 0.07221,
				"method": "rhf"
			}
		],
		"cosmo_sigma_profile": { 
			"-0.025": 0.0,
			"-0.024": 0.0,
			"-0.023": 0.0,
			"-0.022": 0.0,
			"-0.021": 0.0,
			"-0.02": 0.0,
			"-0.019": 0.0,
			"-0.018": 0.0,
			"-0.017": 0.569476395653,
			"-0.016": 1.69665845702,
			"-0.015": 1.41893258962,
			"-0.014": 1.18346531552,
			"-0.013": 1.39849222237,
			"-0.012": 1.17511112191,
			"-0.011": 1.28516029506,
			"-0.01": 1.79108538409,
			"-0.009": 2.62904690153,
			"-0.008": 4.88587013983,
			"-0.007": 4.72433849588,
			"-0.006": 5.11839966571,
			"-0.005": 6.72750709235,
			"-0.004": 7.44143549813,
			"-0.003": 10.5615919599,
			"-0.002": 18.1617533118,
			"-0.001": 20.9790129462,
			"0.0": 17.085679085,
			"0.001": 11.6085688587,
			"0.002": 9.16678184879,
			"0.003": 21.5909124741,
			"0.004": 9.12884998409,
			"0.005": 2.19419126607,
			"0.006": 3.01475859027,
			"0.007": 2.46858531264,
			"0.008": 1.79918696689,
			"0.009": 1.13417223605,
			"0.01": 2.98686323688,
			"0.011": 2.50403842207,
			"0.012": 4.33976265095,
			"0.013": 6.49167862217,
			"0.014": 1.37465001666,
			"0.015": 0.0,
			"0.016": 0.0,
			"0.017": 0.0,
			"0.018": 0.0,
			"0.019": 0.0,
			"0.02": 0.0,
			"0.021": 0.0,
			"0.022": 0.0,
			"0.023": 0.0,
			"0.024": 0.0,
			"0.025": 0.0
		}
	}
}
