{
	 "smiles": "ClCC(=O)NCCOC1=CC2=C(OCO2)C=C1", 
	 "Tm": 349.15, 
	 "num_atms": 29, 
	 "gaussian": { 
		 "optdone": 1, 
		 "sigma_profile": "yes", 
		 "theory": "DFT", 
		 "functional": "B3LYP", 
		 "basiset": "6-31G**", 
		 "properties": { 
			 "R2extent": 7788.946, 
			 "electric_dipole_moment_norm": 2.1147778063, 
			 "electric_quadrupole_moment_norm": 6.0978325182, 
			 "total_energy": -1242.21918817, 
			 "HOMO_LUMO_gap": 0.19571, 
			 "cosmo_polarized_energy": -14.52, 
			 "cosmo_cavitation_energy": 35.13, 
			 "cosmo_dispersion_energy": -25.69, 
			 "cosmo_repulsion_energy": 2.03, 
			 "cosmo_total_nonelectrostatic_energy": 11.47, 
			 "SMD_solvation_energy": 6.6 
		},
		"coords": [
			{
				"x": -0.9487066868,
				"y": 4.7049843062,
				"z": 2.2836564351,
				"element": "Cl" 
			},
			{
				"x": -1.8686832706,
				"y": 5.0703367349,
				"z": 0.7605003384,
				"element": "C" 
			},
			{
				"x": -1.8001153718,
				"y": 4.0278978982,
				"z": -0.358167336,
				"element": "C" 
			},
			{
				"x": -2.4346666751,
				"y": 4.2672115953,
				"z": -1.3794971832,
				"element": "O" 
			},
			{
				"x": -1.0461274699,
				"y": 2.9232297808,
				"z": -0.154599143,
				"element": "N" 
			},
			{
				"x": -0.9354936166,
				"y": 1.8684152834,
				"z": -1.14814666,
				"element": "C" 
			},
			{
				"x": -1.311721877,
				"y": 0.5117646898,
				"z": -0.554397753,
				"element": "C" 
			},
			{
				"x": -0.4955853541,
				"y": 0.1782157244,
				"z": 0.5675499813,
				"element": "O" 
			},
			{
				"x": 0.7453033472,
				"y": -0.3837093239,
				"z": 0.3749568056,
				"element": "C" 
			},
			{
				"x": 1.4435820309,
				"y": -0.6499763306,
				"z": 1.5744281299,
				"element": "C" 
			},
			{
				"x": 2.685604436,
				"y": -1.2322075642,
				"z": 1.4560262032,
				"element": "C" 
			},
			{
				"x": 3.2470081364,
				"y": -1.5495434092,
				"z": 0.218700886,
				"element": "C" 
			},
			{
				"x": 4.5021234558,
				"y": -2.0887100217,
				"z": 0.4059110143,
				"element": "O" 
			},
			{
				"x": 4.6305741619,
				"y": -2.2740812037,
				"z": 1.8174564066,
				"element": "C" 
			},
			{
				"x": 3.5596212749,
				"y": -1.5670889216,
				"z": 2.4588113998,
				"element": "O" 
			},
			{
				"x": 2.5791815932,
				"y": -1.2913787128,
				"z": -0.9564932753,
				"element": "C" 
			},
			{
				"x": 1.302632193,
				"y": -0.6950791023,
				"z": -0.8681534902,
				"element": "C" 
			},
			{
				"x": -1.485171554,
				"y": 6.0141956314,
				"z": 0.372460286,
				"element": "H" 
			},
			{
				"x": -2.9138910848,
				"y": 5.2036531168,
				"z": 1.0396952252,
				"element": "H" 
			},
			{
				"x": -0.5795203633,
				"y": 2.7977714538,
				"z": 0.7333552543,
				"element": "H" 
			},
			{
				"x": 0.0849067449,
				"y": 1.8373564032,
				"z": -1.5481252088,
				"element": "H" 
			},
			{
				"x": -1.6137888352,
				"y": 2.1246649748,
				"z": -1.9661613108,
				"element": "H" 
			},
			{
				"x": -1.2745144052,
				"y": -0.2736916298,
				"z": -1.3187653768,
				"element": "H" 
			},
			{
				"x": -2.3298026446,
				"y": 0.5526991428,
				"z": -0.1577179072,
				"element": "H" 
			},
			{
				"x": 1.0007685052,
				"y": -0.405081304,
				"z": 2.53197996,
				"element": "H" 
			},
			{
				"x": 5.5875283507,
				"y": -1.8649905492,
				"z": 2.154972659,
				"element": "H" 
			},
			{
				"x": 4.5553759032,
				"y": -3.344294148,
				"z": 2.0599655748,
				"element": "H" 
			},
			{
				"x": 3.0167604288,
				"y": -1.5303187244,
				"z": -1.9190754872,
				"element": "H" 
			},
			{
				"x": 0.769318647,
				"y": -0.4874457902,
				"z": -1.7868264281,
				"element": "H" 
			}
		],
		 "valence_orbital": [ 
			{
				"type": "occ",
				"energy": -0.29277,
				"method": "rhf"
			},
			{
				"type": "occ",
				"energy": -0.26239,
				"method": "rhf"
			},
			{
				"type": "occ",
				"energy": -0.26043,
				"method": "rhf"
			},
			{
				"type": "occ",
				"energy": -0.24266,
				"method": "rhf"
			},
			{
				"type": "occ",
				"energy": -0.20115,
				"method": "rhf"
			},
			{
				"type": "unocc",
				"energy": -0.00544,
				"method": "rhf"
			},
			{
				"type": "unocc",
				"energy": 0.01502,
				"method": "rhf"
			},
			{
				"type": "unocc",
				"energy": 0.01731,
				"method": "rhf"
			},
			{
				"type": "unocc",
				"energy": 0.01829,
				"method": "rhf"
			},
			{
				"type": "unocc",
				"energy": 0.08079,
				"method": "rhf"
			}
		],
		"cosmo_sigma_profile": { 
			"-0.025": 0.0,
			"-0.024": 0.0,
			"-0.023": 0.0,
			"-0.022": 0.0,
			"-0.021": 0.0,
			"-0.02": 0.0,
			"-0.019": 0.0,
			"-0.018": 0.0,
			"-0.017": 0.0,
			"-0.016": 0.0,
			"-0.015": 0.0,
			"-0.014": 0.0,
			"-0.013": 0.0,
			"-0.012": 0.0,
			"-0.011": 0.0,
			"-0.01": 0.0497354838432,
			"-0.009": 3.51791818001,
			"-0.008": 7.86610303346,
			"-0.007": 16.2598247425,
			"-0.006": 21.8040463338,
			"-0.005": 23.6451399893,
			"-0.004": 19.7168626563,
			"-0.003": 16.5844459765,
			"-0.002": 15.441569977,
			"-0.001": 16.2093930565,
			"0.0": 13.2903180414,
			"0.001": 15.9485002274,
			"0.002": 16.5891844494,
			"0.003": 19.6369591348,
			"0.004": 20.12877374,
			"0.005": 15.6990223374,
			"0.006": 7.71966422016,
			"0.007": 6.11479751998,
			"0.008": 4.34569913216,
			"0.009": 5.16735818367,
			"0.01": 4.63305818293,
			"0.011": 1.92306062548,
			"0.012": 1.60793429753,
			"0.013": 5.94911759429,
			"0.014": 1.94521665665,
			"0.015": 0.0125583326265,
			"0.016": 0.0,
			"0.017": 0.0,
			"0.018": 0.0,
			"0.019": 0.0,
			"0.02": 0.0,
			"0.021": 0.0,
			"0.022": 0.0,
			"0.023": 0.0,
			"0.024": 0.0,
			"0.025": 0.0
		}
	}
}
