{
	 "smiles": "CC1=CC(=CC=C1)N1C(=O)C2ON=C(C2C1=O)C(=O)C1=CC=CO1", 
	 "Tm": 402.15, 
	 "num_atms": 36, 
	 "gaussian": { 
		 "optdone": 1, 
		 "sigma_profile": "yes", 
		 "theory": "DFT", 
		 "functional": "B3LYP", 
		 "basiset": "6-31G**", 
		 "properties": { 
			 "R2extent": 9419.3298, 
			 "electric_dipole_moment_norm": 1.74829967111, 
			 "electric_quadrupole_moment_norm": 27.799533091, 
			 "total_energy": -1140.58933439, 
			 "HOMO_LUMO_gap": 0.15801, 
			 "cosmo_polarized_energy": -21.06, 
			 "cosmo_cavitation_energy": 42.3, 
			 "cosmo_dispersion_energy": -29.76, 
			 "cosmo_repulsion_energy": 2.25, 
			 "cosmo_total_nonelectrostatic_energy": 14.79, 
			 "SMD_solvation_energy": 9.78 
		},
		"coords": [
			{
				"x": 5.3135428341,
				"y": 0.3744266104,
				"z": -1.3923053379,
				"element": "C" 
			},
			{
				"x": 4.301874033,
				"y": 1.1156688314,
				"z": -0.5500948795,
				"element": "C" 
			},
			{
				"x": 2.9351745272,
				"y": 1.0134633271,
				"z": -0.8313496975,
				"element": "C" 
			},
			{
				"x": 2.0019248185,
				"y": 1.7282098293,
				"z": -0.0760708831,
				"element": "C" 
			},
			{
				"x": 2.4115328758,
				"y": 2.5497440272,
				"z": 0.9774457358,
				"element": "C" 
			},
			{
				"x": 3.7715968455,
				"y": 2.6413729308,
				"z": 1.2666804844,
				"element": "C" 
			},
			{
				"x": 4.7072163379,
				"y": 1.934386273,
				"z": 0.5118901386,
				"element": "C" 
			},
			{
				"x": 0.6062489262,
				"y": 1.611011155,
				"z": -0.3894396885,
				"element": "N" 
			},
			{
				"x": 0.1028007447,
				"y": 1.6504461231,
				"z": -1.6990526574,
				"element": "C" 
			},
			{
				"x": 0.7452189618,
				"y": 1.8132160779,
				"z": -2.709554383,
				"element": "O" 
			},
			{
				"x": -1.4116715726,
				"y": 1.4336097363,
				"z": -1.6236562147,
				"element": "C" 
			},
			{
				"x": -1.7277421586,
				"y": 0.1044435024,
				"z": -2.1510451173,
				"element": "O" 
			},
			{
				"x": -2.3087912836,
				"y": -0.6621407175,
				"z": -1.1591645427,
				"element": "N" 
			},
			{
				"x": -2.3661396218,
				"y": -0.00925015,
				"z": -0.053992533,
				"element": "C" 
			},
			{
				"x": -1.7533321761,
				"y": 1.3701901409,
				"z": -0.1409498482,
				"element": "C" 
			},
			{
				"x": -0.3978602529,
				"y": 1.4556721762,
				"z": 0.5872638607,
				"element": "C" 
			},
			{
				"x": -0.2184995941,
				"y": 1.4015595998,
				"z": 1.7789338037,
				"element": "O" 
			},
			{
				"x": -3.0689124045,
				"y": -0.4888974049,
				"z": 1.1766954813,
				"element": "C" 
			},
			{
				"x": -3.3975656844,
				"y": 0.346322426,
				"z": 2.010953067,
				"element": "O" 
			},
			{
				"x": -3.3437938521,
				"y": -1.9150675214,
				"z": 1.3259079135,
				"element": "C" 
			},
			{
				"x": -3.0554708599,
				"y": -3.039311657,
				"z": 0.584747653,
				"element": "C" 
			},
			{
				"x": -3.5967165968,
				"y": -4.1434560029,
				"z": 1.2981240106,
				"element": "C" 
			},
			{
				"x": -4.1733209698,
				"y": -3.6161599422,
				"z": 2.4217205356,
				"element": "C" 
			},
			{
				"x": -4.0312422085,
				"y": -2.2755172486,
				"z": 2.4568771119,
				"element": "O" 
			},
			{
				"x": 6.211885973,
				"y": 0.1331457566,
				"z": -0.8165656565,
				"element": "H" 
			},
			{
				"x": 4.9009099279,
				"y": -0.5589464276,
				"z": -1.7862882796,
				"element": "H" 
			},
			{
				"x": 5.6278001286,
				"y": 0.9791053612,
				"z": -2.2519592833,
				"element": "H" 
			},
			{
				"x": 2.597360659,
				"y": 0.3858004249,
				"z": -1.6478652555,
				"element": "H" 
			},
			{
				"x": 1.6816747596,
				"y": 3.0888244268,
				"z": 1.5678099392,
				"element": "H" 
			},
			{
				"x": 4.101063973,
				"y": 3.2689231151,
				"z": 2.0892896119,
				"element": "H" 
			},
			{
				"x": 5.7645910851,
				"y": 2.0164643999,
				"z": 0.7497809164,
				"element": "H" 
			},
			{
				"x": -1.9409349506,
				"y": 2.1700807121,
				"z": -2.2315703178,
				"element": "H" 
			},
			{
				"x": -2.4227919239,
				"y": 2.1376323941,
				"z": 0.253450195,
				"element": "H" 
			},
			{
				"x": -2.5302489678,
				"y": -3.0524217865,
				"z": -0.3576106215,
				"element": "H" 
			},
			{
				"x": -3.5633367035,
				"y": -5.1863482732,
				"z": 1.0188416914,
				"element": "H" 
			},
			{
				"x": -4.7001456296,
				"y": -4.0556022257,
				"z": 3.2554230467,
				"element": "H" 
			}
		],
		 "valence_orbital": [ 
			{
				"type": "occ",
				"energy": -0.2716,
				"method": "rhf"
			},
			{
				"type": "occ",
				"energy": -0.26264,
				"method": "rhf"
			},
			{
				"type": "occ",
				"energy": -0.25245,
				"method": "rhf"
			},
			{
				"type": "occ",
				"energy": -0.24873,
				"method": "rhf"
			},
			{
				"type": "occ",
				"energy": -0.24508,
				"method": "rhf"
			},
			{
				"type": "unocc",
				"energy": -0.08707,
				"method": "rhf"
			},
			{
				"type": "unocc",
				"energy": -0.04663,
				"method": "rhf"
			},
			{
				"type": "unocc",
				"energy": -0.03181,
				"method": "rhf"
			},
			{
				"type": "unocc",
				"energy": -0.01637,
				"method": "rhf"
			},
			{
				"type": "unocc",
				"energy": -0.00769,
				"method": "rhf"
			}
		],
		"cosmo_sigma_profile": { 
			"-0.025": 0.0,
			"-0.024": 0.0,
			"-0.023": 0.0,
			"-0.022": 0.0,
			"-0.021": 0.0,
			"-0.02": 0.0,
			"-0.019": 0.0,
			"-0.018": 0.0,
			"-0.017": 0.0,
			"-0.016": 0.0,
			"-0.015": 0.0,
			"-0.014": 0.0,
			"-0.013": 0.0524416461915,
			"-0.012": 0.79184356069,
			"-0.011": 2.63275579251,
			"-0.01": 9.87379751472,
			"-0.009": 9.00305511501,
			"-0.008": 7.91513418187,
			"-0.007": 8.32068089045,
			"-0.006": 16.8794885349,
			"-0.005": 22.1308324352,
			"-0.004": 24.0786255053,
			"-0.003": 20.5062374441,
			"-0.002": 22.5294471369,
			"-0.001": 22.9412495648,
			"0.0": 25.6494377174,
			"0.001": 20.0420851922,
			"0.002": 18.818968101,
			"0.003": 16.7523843026,
			"0.004": 16.1440899105,
			"0.005": 13.4218207864,
			"0.006": 8.49121222481,
			"0.007": 10.2103985929,
			"0.008": 9.49198959661,
			"0.009": 8.4797217669,
			"0.01": 13.2671418801,
			"0.011": 9.54040657589,
			"0.012": 2.06577090399,
			"0.013": 0.274947394977,
			"0.014": 0.0,
			"0.015": 0.0,
			"0.016": 0.0,
			"0.017": 0.0,
			"0.018": 0.0,
			"0.019": 0.0,
			"0.02": 0.0,
			"0.021": 0.0,
			"0.022": 0.0,
			"0.023": 0.0,
			"0.024": 0.0,
			"0.025": 0.0
		}
	}
}
