{
	 "smiles": "CC1=C(C=C(C=C1)C(O)=O)S(=O)(=O)NCC#N", 
	 "Tm": 486.15, 
	 "num_atms": 27, 
	 "gaussian": { 
		 "optdone": 1, 
		 "sigma_profile": "yes", 
		 "theory": "DFT", 
		 "functional": "B3LYP", 
		 "basiset": "6-31G**", 
		 "properties": { 
			 "R2extent": 5598.4839, 
			 "electric_dipole_moment_norm": 5.42669894227, 
			 "electric_quadrupole_moment_norm": 22.6511736299, 
			 "total_energy": -1195.60086023, 
			 "HOMO_LUMO_gap": 0.20635, 
			 "cosmo_polarized_energy": -24.59, 
			 "cosmo_cavitation_energy": 34.15, 
			 "cosmo_dispersion_energy": -23.91, 
			 "cosmo_repulsion_energy": 1.82, 
			 "cosmo_total_nonelectrostatic_energy": 12.05, 
			 "SMD_solvation_energy": 7.79 
		},
		"coords": [
			{
				"x": -1.8444223352,
				"y": 1.0010871986,
				"z": -2.224676514,
				"element": "C" 
			},
			{
				"x": -0.4736709467,
				"y": 1.5473848727,
				"z": -1.9195474028,
				"element": "C" 
			},
			{
				"x": 0.5373565105,
				"y": 0.8049837212,
				"z": -1.2700394468,
				"element": "C" 
			},
			{
				"x": 1.7998835353,
				"y": 1.3380282044,
				"z": -1.012338114,
				"element": "C" 
			},
			{
				"x": 2.0857377573,
				"y": 2.6542781544,
				"z": -1.3892456432,
				"element": "C" 
			},
			{
				"x": 1.0996237557,
				"y": 3.4139471642,
				"z": -2.0260951829,
				"element": "C" 
			},
			{
				"x": -0.1518990218,
				"y": 2.8633551145,
				"z": -2.2823934186,
				"element": "C" 
			},
			{
				"x": 3.4110617847,
				"y": 3.2827518509,
				"z": -1.1383001735,
				"element": "C" 
			},
			{
				"x": 4.2777358155,
				"y": 2.4522265216,
				"z": -0.5131003772,
				"element": "O" 
			},
			{
				"x": 3.7028223177,
				"y": 4.4193049294,
				"z": -1.4516050938,
				"element": "O" 
			},
			{
				"x": 0.294460643,
				"y": -0.9118500321,
				"z": -0.7813399751,
				"element": "S" 
			},
			{
				"x": -0.3231284377,
				"y": -1.6642567793,
				"z": -1.8753250598,
				"element": "O" 
			},
			{
				"x": 1.5335279399,
				"y": -1.3589387222,
				"z": -0.1408592056,
				"element": "O" 
			},
			{
				"x": -0.9374984302,
				"y": -0.7904921148,
				"z": 0.3975229802,
				"element": "N" 
			},
			{
				"x": -0.5337455907,
				"y": -0.6909619175,
				"z": 1.8028686837,
				"element": "C" 
			},
			{
				"x": -0.205923248,
				"y": -1.9760222601,
				"z": 2.4466046903,
				"element": "C" 
			},
			{
				"x": -0.0018043433,
				"y": -2.992969488,
				"z": 2.9661067755,
				"element": "N" 
			},
			{
				"x": -2.4500263305,
				"y": 1.7539848396,
				"z": -2.7335940007,
				"element": "H" 
			},
			{
				"x": -2.3585147512,
				"y": 0.7067705738,
				"z": -1.3039490182,
				"element": "H" 
			},
			{
				"x": -1.7816911635,
				"y": 0.1098271581,
				"z": -2.8543505295,
				"element": "H" 
			},
			{
				"x": 2.5508203059,
				"y": 0.7270629313,
				"z": -0.5270058827,
				"element": "H" 
			},
			{
				"x": 1.3332879157,
				"y": 4.4331728817,
				"z": -2.3150090386,
				"element": "H" 
			},
			{
				"x": -0.9074251798,
				"y": 3.462912912,
				"z": -2.7816525882,
				"element": "H" 
			},
			{
				"x": 5.1028282809,
				"y": 2.9531336786,
				"z": -0.4043679369,
				"element": "H" 
			},
			{
				"x": -1.615589948,
				"y": -1.5260523241,
				"z": 0.2098683386,
				"element": "H" 
			},
			{
				"x": -1.3525016067,
				"y": -0.2253167519,
				"z": 2.3620165262,
				"element": "H" 
			},
			{
				"x": 0.3282947711,
				"y": -0.0225523173,
				"z": 1.8762066074,
				"element": "H" 
			}
		],
		 "valence_orbital": [ 
			{
				"type": "occ",
				"energy": -0.32082,
				"method": "rhf"
			},
			{
				"type": "occ",
				"energy": -0.30905,
				"method": "rhf"
			},
			{
				"type": "occ",
				"energy": -0.29122,
				"method": "rhf"
			},
			{
				"type": "occ",
				"energy": -0.28401,
				"method": "rhf"
			},
			{
				"type": "occ",
				"energy": -0.27825,
				"method": "rhf"
			},
			{
				"type": "unocc",
				"energy": -0.0719,
				"method": "rhf"
			},
			{
				"type": "unocc",
				"energy": -0.04807,
				"method": "rhf"
			},
			{
				"type": "unocc",
				"energy": 0.00309,
				"method": "rhf"
			},
			{
				"type": "unocc",
				"energy": 0.0201,
				"method": "rhf"
			},
			{
				"type": "unocc",
				"energy": 0.02908,
				"method": "rhf"
			}
		],
		"cosmo_sigma_profile": { 
			"-0.025": 0.0,
			"-0.024": 0.0,
			"-0.023": 0.0,
			"-0.022": 0.0,
			"-0.021": 0.0,
			"-0.02": 0.0,
			"-0.019": 0.208798310707,
			"-0.018": 0.914808994192,
			"-0.017": 1.25460277586,
			"-0.016": 1.17273392537,
			"-0.015": 2.429317886,
			"-0.014": 1.28326589099,
			"-0.013": 1.48760480808,
			"-0.012": 2.31396189975,
			"-0.011": 3.66272085466,
			"-0.01": 6.95826360951,
			"-0.009": 6.10752592127,
			"-0.008": 7.30675274967,
			"-0.007": 9.80692327863,
			"-0.006": 9.91368987779,
			"-0.005": 8.22380005074,
			"-0.004": 12.8020077279,
			"-0.003": 15.4923676574,
			"-0.002": 19.5138380136,
			"-0.001": 24.1930298127,
			"0.0": 20.976173332,
			"0.001": 18.6625247276,
			"0.002": 11.3802414233,
			"0.003": 7.4671633173,
			"0.004": 6.32998772706,
			"0.005": 7.49840560226,
			"0.006": 9.73146596669,
			"0.007": 10.3602313801,
			"0.008": 8.31496231281,
			"0.009": 10.4241621348,
			"0.01": 11.384900889,
			"0.011": 10.787173266,
			"0.012": 4.58251573591,
			"0.013": 0.569832399349,
			"0.014": 0.0,
			"0.015": 0.0,
			"0.016": 0.0,
			"0.017": 0.0,
			"0.018": 0.0,
			"0.019": 0.0,
			"0.02": 0.0,
			"0.021": 0.0,
			"0.022": 0.0,
			"0.023": 0.0,
			"0.024": 0.0,
			"0.025": 0.0
		}
	}
}
