{
	 "smiles": "CC(C)(C)C1=CC(=C(O)C(=C1)[N+]([O-])=O)[N+]([O-])=O", 
	 "Tm": 368.15, 
	 "num_atms": 29, 
	 "gaussian": { 
		 "optdone": 1, 
		 "sigma_profile": "yes", 
		 "theory": "DFT", 
		 "functional": "B3LYP", 
		 "basiset": "6-31G**", 
		 "properties": { 
			 "R2extent": 5511.6346, 
			 "electric_dipole_moment_norm": 5.00957005241, 
			 "electric_quadrupole_moment_norm": 18.998685644, 
			 "total_energy": -873.724344085, 
			 "HOMO_LUMO_gap": 0.14467, 
			 "cosmo_polarized_energy": -13.03, 
			 "cosmo_cavitation_energy": 32.87, 
			 "cosmo_dispersion_energy": -23.32, 
			 "cosmo_repulsion_energy": 1.79, 
			 "cosmo_total_nonelectrostatic_energy": 11.35, 
			 "SMD_solvation_energy": 10.47 
		},
		"coords": [
			{
				"x": 1.7646963672,
				"y": -1.8560620379,
				"z": 0.8234218738,
				"element": "C" 
			},
			{
				"x": 0.4118256624,
				"y": -1.3870060954,
				"z": 0.2373827798,
				"element": "C" 
			},
			{
				"x": -0.6583310456,
				"y": -1.377737995,
				"z": 1.3546492423,
				"element": "C" 
			},
			{
				"x": -0.0235031815,
				"y": -2.3891144842,
				"z": -0.8481125927,
				"element": "C" 
			},
			{
				"x": 0.568918455,
				"y": 0.0358954263,
				"z": -0.3266319141,
				"element": "C" 
			},
			{
				"x": 0.961341201,
				"y": 1.0855662871,
				"z": 0.5030159669,
				"element": "C" 
			},
			{
				"x": 1.1156951172,
				"y": 2.3858913174,
				"z": 0.0181885267,
				"element": "C" 
			},
			{
				"x": 0.8700388432,
				"y": 2.7316698941,
				"z": -1.3411110742,
				"element": "C" 
			},
			{
				"x": 1.03337149,
				"y": 3.9523519461,
				"z": -1.8248467326,
				"element": "O" 
			},
			{
				"x": 0.4673269692,
				"y": 1.6527056927,
				"z": -2.1619159879,
				"element": "C" 
			},
			{
				"x": 0.3369369046,
				"y": 0.3572308006,
				"z": -1.6703236683,
				"element": "C" 
			},
			{
				"x": 0.1611639932,
				"y": 1.8535107255,
				"z": -3.5876936669,
				"element": "N" 
			},
			{
				"x": 0.2405066938,
				"y": 0.8622402366,
				"z": -4.3173974127,
				"element": "O" 
			},
			{
				"x": -0.173297074,
				"y": 2.9730999429,
				"z": -3.9571858799,
				"element": "O" 
			},
			{
				"x": 1.5477815158,
				"y": 3.4023931485,
				"z": 0.9619476923,
				"element": "N" 
			},
			{
				"x": 1.7165249259,
				"y": 4.5696702799,
				"z": 0.539091601,
				"element": "O" 
			},
			{
				"x": 1.7336260334,
				"y": 3.0922789268,
				"z": 2.1308865234,
				"element": "O" 
			},
			{
				"x": 2.1095183335,
				"y": -1.2029440836,
				"z": 1.6310459806,
				"element": "H" 
			},
			{
				"x": 1.6671876341,
				"y": -2.8662847922,
				"z": 1.2347676392,
				"element": "H" 
			},
			{
				"x": 2.5420838838,
				"y": -1.8771705944,
				"z": 0.0528888822,
				"element": "H" 
			},
			{
				"x": -1.6298485541,
				"y": -1.0537877377,
				"z": 0.9676181152,
				"element": "H" 
			},
			{
				"x": -0.3848676815,
				"y": -0.7099175437,
				"z": 2.1774485145,
				"element": "H" 
			},
			{
				"x": -0.7774488807,
				"y": -2.3835203973,
				"z": 1.7711708377,
				"element": "H" 
			},
			{
				"x": -0.1229843969,
				"y": -3.3851215146,
				"z": -0.4064247834,
				"element": "H" 
			},
			{
				"x": -0.9929698497,
				"y": -2.1259493477,
				"z": -1.2840396419,
				"element": "H" 
			},
			{
				"x": 0.7101501407,
				"y": -2.4613181987,
				"z": -1.6577768894,
				"element": "H" 
			},
			{
				"x": 1.1663581247,
				"y": 0.929144906,
				"z": 1.5547194867,
				"element": "H" 
			},
			{
				"x": 1.3432016596,
				"y": 4.5087119685,
				"z": -1.0649775894,
				"element": "H" 
			},
			{
				"x": 0.0459967159,
				"y": -0.3978266767,
				"z": -2.3880058286,
				"element": "H" 
			}
		],
		 "valence_orbital": [ 
			{
				"type": "occ",
				"energy": -0.31458,
				"method": "rhf"
			},
			{
				"type": "occ",
				"energy": -0.31186,
				"method": "rhf"
			},
			{
				"type": "occ",
				"energy": -0.30624,
				"method": "rhf"
			},
			{
				"type": "occ",
				"energy": -0.28974,
				"method": "rhf"
			},
			{
				"type": "occ",
				"energy": -0.26385,
				"method": "rhf"
			},
			{
				"type": "unocc",
				"energy": -0.11918,
				"method": "rhf"
			},
			{
				"type": "unocc",
				"energy": -0.08856,
				"method": "rhf"
			},
			{
				"type": "unocc",
				"energy": -0.02423,
				"method": "rhf"
			},
			{
				"type": "unocc",
				"energy": -0.01176,
				"method": "rhf"
			},
			{
				"type": "unocc",
				"energy": 0.05271,
				"method": "rhf"
			}
		],
		"cosmo_sigma_profile": { 
			"-0.025": 0.0,
			"-0.024": 0.0,
			"-0.023": 0.0,
			"-0.022": 0.0,
			"-0.021": 0.0,
			"-0.02": 0.0,
			"-0.019": 0.0,
			"-0.018": 0.0,
			"-0.017": 0.0,
			"-0.016": 0.0,
			"-0.015": 0.0,
			"-0.014": 0.0,
			"-0.013": 0.0,
			"-0.012": 0.0,
			"-0.011": 0.286626227526,
			"-0.01": 0.828635851074,
			"-0.009": 2.85087671178,
			"-0.008": 4.35200727125,
			"-0.007": 7.52129800903,
			"-0.006": 9.47108437468,
			"-0.005": 11.688778592,
			"-0.004": 19.7840247147,
			"-0.003": 33.4196177811,
			"-0.002": 25.7396751381,
			"-0.001": 26.2058436559,
			"0.0": 26.3247736039,
			"0.001": 17.8497600486,
			"0.002": 5.77801688086,
			"0.003": 5.21312770214,
			"0.004": 6.09125125627,
			"0.005": 6.0819316834,
			"0.006": 10.4867145887,
			"0.007": 12.9165471257,
			"0.008": 12.9695721437,
			"0.009": 8.7502050167,
			"0.01": 3.41398733525,
			"0.011": 1.46070127681,
			"0.012": 0.694000156676,
			"0.013": 0.000783307272225,
			"0.014": 0.0,
			"0.015": 0.0,
			"0.016": 0.0,
			"0.017": 0.0,
			"0.018": 0.0,
			"0.019": 0.0,
			"0.02": 0.0,
			"0.021": 0.0,
			"0.022": 0.0,
			"0.023": 0.0,
			"0.024": 0.0,
			"0.025": 0.0
		}
	}
}
