{
	 "smiles": "ClC1=CC=C(C=C1)C1=CSC(=N1)C(=NNC1=CC=C2C=CC=CC2=C1)C#N", 
	 "Tm": 491.15, 
	 "num_atms": 40, 
	 "gaussian": { 
		 "optdone": 1, 
		 "sigma_profile": "yes", 
		 "theory": "DFT", 
		 "functional": "B3LYP", 
		 "basiset": "6-31G**", 
		 "properties": { 
			 "R2extent": 17883.9056, 
			 "electric_dipole_moment_norm": 1.97855903374, 
			 "electric_quadrupole_moment_norm": 30.115203264, 
			 "total_energy": -1885.41441613, 
			 "HOMO_LUMO_gap": 0.11731, 
			 "cosmo_polarized_energy": -16.7, 
			 "cosmo_cavitation_energy": 50.87, 
			 "cosmo_dispersion_energy": -36.27, 
			 "cosmo_repulsion_energy": 2.65, 
			 "cosmo_total_nonelectrostatic_energy": 17.25, 
			 "SMD_solvation_energy": 7.08 
		},
		"coords": [
			{
				"x": 0.554523398,
				"y": 6.8536600351,
				"z": 1.8686346253,
				"element": "Cl" 
			},
			{
				"x": 0.5061757386,
				"y": 5.1628298142,
				"z": 2.3453400604,
				"element": "C" 
			},
			{
				"x": 0.3686475349,
				"y": 4.1751669912,
				"z": 1.3711780962,
				"element": "C" 
			},
			{
				"x": 0.3311970298,
				"y": 2.8375918526,
				"z": 1.756813207,
				"element": "C" 
			},
			{
				"x": 0.4296880492,
				"y": 2.4698794861,
				"z": 3.1085382221,
				"element": "C" 
			},
			{
				"x": 0.5672084645,
				"y": 3.4865119945,
				"z": 4.0677191788,
				"element": "C" 
			},
			{
				"x": 0.6060404066,
				"y": 4.8271465,
				"z": 3.6958883541,
				"element": "C" 
			},
			{
				"x": 0.3868802337,
				"y": 1.0426750074,
				"z": 3.4815623827,
				"element": "C" 
			},
			{
				"x": 0.4752541638,
				"y": 0.5230859301,
				"z": 4.7539718967,
				"element": "C" 
			},
			{
				"x": 0.3802807776,
				"y": -1.199891109,
				"z": 4.7244697975,
				"element": "S" 
			},
			{
				"x": 0.2244907974,
				"y": -1.1138862674,
				"z": 2.9672096929,
				"element": "C" 
			},
			{
				"x": 0.2457499576,
				"y": 0.0974612308,
				"z": 2.4883022518,
				"element": "N" 
			},
			{
				"x": 0.0861848357,
				"y": -2.3320042449,
				"z": 2.170822888,
				"element": "C" 
			},
			{
				"x": -0.0319697394,
				"y": -2.246005496,
				"z": 0.8682338372,
				"element": "N" 
			},
			{
				"x": -0.1566991411,
				"y": -3.3324385884,
				"z": 0.1411762187,
				"element": "N" 
			},
			{
				"x": -0.2864105014,
				"y": -3.2776542569,
				"z": -1.2572718541,
				"element": "C" 
			},
			{
				"x": -0.4150553904,
				"y": -4.5146876986,
				"z": -1.9442671047,
				"element": "C" 
			},
			{
				"x": -0.5455783257,
				"y": -4.5288451798,
				"z": -3.3109894846,
				"element": "C" 
			},
			{
				"x": -0.5549802221,
				"y": -3.3222819981,
				"z": -4.0616023827,
				"element": "C" 
			},
			{
				"x": -0.688562183,
				"y": -3.3077958956,
				"z": -5.4747375069,
				"element": "C" 
			},
			{
				"x": -0.6936146181,
				"y": -2.118946689,
				"z": -6.1696485011,
				"element": "C" 
			},
			{
				"x": -0.5646821633,
				"y": -0.8890369873,
				"z": -5.4775278639,
				"element": "C" 
			},
			{
				"x": -0.4333933048,
				"y": -0.8685150619,
				"z": -4.1076041679,
				"element": "C" 
			},
			{
				"x": -0.4243451103,
				"y": -2.0782930562,
				"z": -3.3589424983,
				"element": "C" 
			},
			{
				"x": -0.2906228886,
				"y": -2.0816931463,
				"z": -1.9485353825,
				"element": "C" 
			},
			{
				"x": 0.0809503369,
				"y": -3.6116665864,
				"z": 2.8221570834,
				"element": "C" 
			},
			{
				"x": 0.0625054733,
				"y": -4.7030712035,
				"z": 3.2312511007,
				"element": "N" 
			},
			{
				"x": 0.2920325224,
				"y": 4.4506363627,
				"z": 0.3251121124,
				"element": "H" 
			},
			{
				"x": 0.2247217433,
				"y": 2.057549768,
				"z": 1.0118453776,
				"element": "H" 
			},
			{
				"x": 0.6456119998,
				"y": 3.2393645788,
				"z": 5.1218320433,
				"element": "H" 
			},
			{
				"x": 0.7124195481,
				"y": 5.6052565199,
				"z": 4.4434962318,
				"element": "H" 
			},
			{
				"x": 0.5895194927,
				"y": 1.0431999446,
				"z": 5.6932513425,
				"element": "H" 
			},
			{
				"x": -0.1621154517,
				"y": -4.2500629695,
				"z": 0.5882303873,
				"element": "H" 
			},
			{
				"x": -0.4094143253,
				"y": -5.445523983,
				"z": -1.3824817677,
				"element": "H" 
			},
			{
				"x": -0.6438845964,
				"y": -5.4756072261,
				"z": -3.8348801834,
				"element": "H" 
			},
			{
				"x": -0.787120603,
				"y": -4.2541014826,
				"z": -6.0005137841,
				"element": "H" 
			},
			{
				"x": -0.7964117962,
				"y": -2.1192560665,
				"z": -7.2506896278,
				"element": "H" 
			},
			{
				"x": -0.5699349532,
				"y": 0.0426762888,
				"z": -6.0357450436,
				"element": "H" 
			},
			{
				"x": -0.3345811359,
				"y": 0.0747472722,
				"z": -3.5772227098,
				"element": "H" 
			},
			{
				"x": -0.1913060538,
				"y": -1.147974384,
				"z": -1.4067765254,
				"element": "H" 
			}
		],
		 "valence_orbital": [ 
			{
				"type": "occ",
				"energy": -0.26833,
				"method": "rhf"
			},
			{
				"type": "occ",
				"energy": -0.26465,
				"method": "rhf"
			},
			{
				"type": "occ",
				"energy": -0.24056,
				"method": "rhf"
			},
			{
				"type": "occ",
				"energy": -0.22672,
				"method": "rhf"
			},
			{
				"type": "occ",
				"energy": -0.20673,
				"method": "rhf"
			},
			{
				"type": "unocc",
				"energy": -0.08942,
				"method": "rhf"
			},
			{
				"type": "unocc",
				"energy": -0.04653,
				"method": "rhf"
			},
			{
				"type": "unocc",
				"energy": -0.04243,
				"method": "rhf"
			},
			{
				"type": "unocc",
				"energy": -0.01564,
				"method": "rhf"
			},
			{
				"type": "unocc",
				"energy": -0.01369,
				"method": "rhf"
			}
		],
		"cosmo_sigma_profile": { 
			"-0.025": 0.0,
			"-0.024": 0.0,
			"-0.023": 0.0,
			"-0.022": 0.0,
			"-0.021": 0.0,
			"-0.02": 0.0,
			"-0.019": 0.0,
			"-0.018": 0.0,
			"-0.017": 0.0,
			"-0.016": 0.0387956689029,
			"-0.015": 1.01119107798,
			"-0.014": 0.936404844755,
			"-0.013": 1.36765397054,
			"-0.012": 1.32076062663,
			"-0.011": 1.28588128346,
			"-0.01": 4.35406089418,
			"-0.009": 4.84460516532,
			"-0.008": 5.27626436725,
			"-0.007": 10.1673034427,
			"-0.006": 20.3772546078,
			"-0.005": 24.5556777862,
			"-0.004": 25.1150031454,
			"-0.003": 21.6099683641,
			"-0.002": 21.4529847047,
			"-0.001": 28.1112301834,
			"0.0": 32.5406338772,
			"0.001": 37.0906613284,
			"0.002": 43.7600731216,
			"0.003": 45.9913880014,
			"0.004": 37.8994339382,
			"0.005": 20.4562962936,
			"0.006": 3.89440285104,
			"0.007": 5.11333058257,
			"0.008": 3.84339027104,
			"0.009": 4.2059742546,
			"0.01": 3.75071263828,
			"0.011": 3.65628817157,
			"0.012": 1.69325876547,
			"0.013": 0.793302204909,
			"0.014": 0.00457910998184,
			"0.015": 0.0,
			"0.016": 0.0,
			"0.017": 0.0,
			"0.018": 0.0,
			"0.019": 0.0,
			"0.02": 0.0,
			"0.021": 0.0,
			"0.022": 0.0,
			"0.023": 0.0,
			"0.024": 0.0,
			"0.025": 0.0
		}
	}
}
