{
	 "smiles": "CC(C)NC(=O)C1=CC=C(N)C=C1", 
	 "Tm": 423.15, 
	 "num_atms": 27, 
	 "gaussian": { 
		 "optdone": 1, 
		 "sigma_profile": "yes", 
		 "theory": "DFT", 
		 "functional": "B3LYP", 
		 "basiset": "6-31G**", 
		 "properties": { 
			 "R2extent": 4381.2767, 
			 "electric_dipole_moment_norm": 4.78305314836, 
			 "electric_quadrupole_moment_norm": 17.801226992, 
			 "total_energy": -574.262135828, 
			 "HOMO_LUMO_gap": 0.19062, 
			 "cosmo_polarized_energy": -16.76, 
			 "cosmo_cavitation_energy": 29.81, 
			 "cosmo_dispersion_energy": -21.77, 
			 "cosmo_repulsion_energy": 1.74, 
			 "cosmo_total_nonelectrostatic_energy": 9.78, 
			 "SMD_solvation_energy": 5.22 
		},
		"coords": [
			{
				"x": 2.679328681,
				"y": 2.5500145083,
				"z": -3.8108384572,
				"element": "C" 
			},
			{
				"x": 2.593760196,
				"y": 1.0366562091,
				"z": -3.571529054,
				"element": "C" 
			},
			{
				"x": 2.221804109,
				"y": 0.2656415851,
				"z": -4.8476363765,
				"element": "C" 
			},
			{
				"x": 1.6920635972,
				"y": 0.7205502946,
				"z": -2.4500954178,
				"element": "N" 
			},
			{
				"x": 0.3471642351,
				"y": 0.9879860107,
				"z": -2.4466137722,
				"element": "C" 
			},
			{
				"x": -0.2168999868,
				"y": 1.5670440665,
				"z": -3.3768279383,
				"element": "O" 
			},
			{
				"x": -0.4119324599,
				"y": 0.5355114703,
				"z": -1.2356311742,
				"element": "C" 
			},
			{
				"x": -1.8069457767,
				"y": 0.4337603215,
				"z": -1.3446178551,
				"element": "C" 
			},
			{
				"x": -2.5850347382,
				"y": 0.0185879253,
				"z": -0.2741087928,
				"element": "C" 
			},
			{
				"x": -1.9905703831,
				"y": -0.2982342719,
				"z": 0.9627020771,
				"element": "C" 
			},
			{
				"x": -2.7701870159,
				"y": -0.6621567898,
				"z": 2.0537572405,
				"element": "N" 
			},
			{
				"x": -0.5941382922,
				"y": -0.1760405309,
				"z": 1.0846138436,
				"element": "C" 
			},
			{
				"x": 0.1758463851,
				"y": 0.2348663141,
				"z": 0.0024421276,
				"element": "C" 
			},
			{
				"x": 1.7110023087,
				"y": 2.9390685174,
				"z": -4.1300422117,
				"element": "H" 
			},
			{
				"x": 3.4211218416,
				"y": 2.7646794662,
				"z": -4.5873062095,
				"element": "H" 
			},
			{
				"x": 2.9794496353,
				"y": 3.0689764771,
				"z": -2.8953290986,
				"element": "H" 
			},
			{
				"x": 3.5804362829,
				"y": 0.6920343436,
				"z": -3.2373831593,
				"element": "H" 
			},
			{
				"x": 2.9507571824,
				"y": 0.4687174844,
				"z": -5.6395101147,
				"element": "H" 
			},
			{
				"x": 1.2316114739,
				"y": 0.5684095603,
				"z": -5.1936796618,
				"element": "H" 
			},
			{
				"x": 2.2121831273,
				"y": -0.8135963962,
				"z": -4.6624051884,
				"element": "H" 
			},
			{
				"x": 2.0266867362,
				"y": 0.0498070007,
				"z": -1.7761582808,
				"element": "H" 
			},
			{
				"x": -2.2627372442,
				"y": 0.6895816109,
				"z": -2.2953146625,
				"element": "H" 
			},
			{
				"x": -3.6642279486,
				"y": -0.0581485083,
				"z": -0.3830126085,
				"element": "H" 
			},
			{
				"x": -3.6870099626,
				"y": -1.0281534016,
				"z": 1.840832866,
				"element": "H" 
			},
			{
				"x": -2.3014656209,
				"y": -1.1795952265,
				"z": 2.7833612427,
				"element": "H" 
			},
			{
				"x": -0.1193813734,
				"y": -0.3888316978,
				"z": 2.0392685408,
				"element": "H" 
			},
			{
				"x": 1.246515011,
				"y": 0.3528636566,
				"z": 0.1470620956,
				"element": "H" 
			}
		],
		 "valence_orbital": [ 
			{
				"type": "occ",
				"energy": -0.30564,
				"method": "rhf"
			},
			{
				"type": "occ",
				"energy": -0.25223,
				"method": "rhf"
			},
			{
				"type": "occ",
				"energy": -0.24309,
				"method": "rhf"
			},
			{
				"type": "occ",
				"energy": -0.23234,
				"method": "rhf"
			},
			{
				"type": "occ",
				"energy": -0.20654,
				"method": "rhf"
			},
			{
				"type": "unocc",
				"energy": -0.01592,
				"method": "rhf"
			},
			{
				"type": "unocc",
				"energy": -0.0011,
				"method": "rhf"
			},
			{
				"type": "unocc",
				"energy": 0.06807,
				"method": "rhf"
			},
			{
				"type": "unocc",
				"energy": 0.07617,
				"method": "rhf"
			},
			{
				"type": "unocc",
				"energy": 0.08424,
				"method": "rhf"
			}
		],
		"cosmo_sigma_profile": { 
			"-0.025": 0.0,
			"-0.024": 0.0,
			"-0.023": 0.0,
			"-0.022": 0.0,
			"-0.021": 0.0,
			"-0.02": 0.0,
			"-0.019": 0.0,
			"-0.018": 0.0,
			"-0.017": 0.0,
			"-0.016": 0.0,
			"-0.015": 0.0,
			"-0.014": 0.101691866858,
			"-0.013": 2.20641357411,
			"-0.012": 4.02800846437,
			"-0.011": 4.52017443465,
			"-0.01": 4.1460412965,
			"-0.009": 5.10325966929,
			"-0.008": 4.03002716885,
			"-0.007": 5.00326212882,
			"-0.006": 6.72795421189,
			"-0.005": 8.50392802316,
			"-0.004": 11.0822649748,
			"-0.003": 18.113047023,
			"-0.002": 16.6806291635,
			"-0.001": 18.3285646325,
			"0.0": 16.7727990589,
			"0.001": 22.8705644918,
			"0.002": 16.6744898503,
			"0.003": 10.8752391342,
			"0.004": 10.8256099319,
			"0.005": 15.0167527429,
			"0.006": 9.88394069861,
			"0.007": 2.98714486555,
			"0.008": 2.73138380814,
			"0.009": 2.26488045741,
			"0.01": 3.03354131057,
			"0.011": 2.17672893464,
			"0.012": 2.43734913796,
			"0.013": 2.29991669284,
			"0.014": 3.16270524232,
			"0.015": 1.73288106168,
			"0.016": 0.0,
			"0.017": 0.0,
			"0.018": 0.0,
			"0.019": 0.0,
			"0.02": 0.0,
			"0.021": 0.0,
			"0.022": 0.0,
			"0.023": 0.0,
			"0.024": 0.0,
			"0.025": 0.0
		}
	}
}
