{
	 "smiles": "COC1=C(OC)C=C(C(O)=O)C(C)=C1", 
	 "Tm": 420.15, 
	 "num_atms": 26, 
	 "gaussian": { 
		 "optdone": 1, 
		 "sigma_profile": "yes", 
		 "theory": "DFT", 
		 "functional": "B3LYP", 
		 "basiset": "6-31G**", 
		 "properties": { 
			 "R2extent": 3640.9507, 
			 "electric_dipole_moment_norm": 2.14672572305, 
			 "electric_quadrupole_moment_norm": 6.51141336654, 
			 "total_energy": -689.182407472, 
			 "HOMO_LUMO_gap": 0.18996, 
			 "cosmo_polarized_energy": -10.04, 
			 "cosmo_cavitation_energy": 29.57, 
			 "cosmo_dispersion_energy": -21.36, 
			 "cosmo_repulsion_energy": 1.69, 
			 "cosmo_total_nonelectrostatic_energy": 9.9, 
			 "SMD_solvation_energy": 7.72 
		},
		"coords": [
			{
				"x": -2.6938150581,
				"y": 0.6856955264,
				"z": -0.3902822966,
				"element": "C" 
			},
			{
				"x": -1.4334458034,
				"y": 0.3807315336,
				"z": -1.0051432934,
				"element": "O" 
			},
			{
				"x": -0.4928513091,
				"y": -0.1831916463,
				"z": -0.1813784079,
				"element": "C" 
			},
			{
				"x": 0.0577132652,
				"y": 0.5096018911,
				"z": 0.9135898634,
				"element": "C" 
			},
			{
				"x": -0.3540594257,
				"y": 1.7817133575,
				"z": 1.2485437035,
				"element": "O" 
			},
			{
				"x": 0.0770306873,
				"y": 2.8023300011,
				"z": 0.3397573902,
				"element": "C" 
			},
			{
				"x": 1.0180086698,
				"y": -0.1212000015,
				"z": 1.6931827802,
				"element": "C" 
			},
			{
				"x": 1.4634801548,
				"y": -1.42268107,
				"z": 1.4048414784,
				"element": "C" 
			},
			{
				"x": 2.4916703462,
				"y": -2.0410747437,
				"z": 2.2779604112,
				"element": "C" 
			},
			{
				"x": 2.8774241419,
				"y": -1.230198494,
				"z": 3.3013707993,
				"element": "O" 
			},
			{
				"x": 2.9774428984,
				"y": -3.1500537909,
				"z": 2.1455265581,
				"element": "O" 
			},
			{
				"x": 0.9399762547,
				"y": -2.1164490624,
				"z": 0.2859850406,
				"element": "C" 
			},
			{
				"x": 1.3643239347,
				"y": -3.5096879227,
				"z": -0.1126259537,
				"element": "C" 
			},
			{
				"x": -0.0362508639,
				"y": -1.467876834,
				"z": -0.4778032212,
				"element": "C" 
			},
			{
				"x": -3.3082901377,
				"y": 1.1382092607,
				"z": -1.1706883384,
				"element": "H" 
			},
			{
				"x": -2.5747759096,
				"y": 1.3827047479,
				"z": 0.4435662322,
				"element": "H" 
			},
			{
				"x": -3.1780941876,
				"y": -0.2319305789,
				"z": -0.0346341722,
				"element": "H" 
			},
			{
				"x": -0.3210521991,
				"y": 3.7434094382,
				"z": 0.7245259627,
				"element": "H" 
			},
			{
				"x": -0.3055610694,
				"y": 2.6250527945,
				"z": -0.6707722317,
				"element": "H" 
			},
			{
				"x": 1.1723248256,
				"y": 2.8573798561,
				"z": 0.3094974501,
				"element": "H" 
			},
			{
				"x": 1.42645955,
				"y": 0.4177738056,
				"z": 2.5390699105,
				"element": "H" 
			},
			{
				"x": 3.5416256512,
				"y": -1.7405603678,
				"z": 3.7921754514,
				"element": "H" 
			},
			{
				"x": 2.4367892395,
				"y": -3.5585936883,
				"z": -0.3190987439,
				"element": "H" 
			},
			{
				"x": 1.1834677004,
				"y": -4.2302034536,
				"z": 0.6894184681,
				"element": "H" 
			},
			{
				"x": 0.8176571436,
				"y": -3.8277421949,
				"z": -1.0045373491,
				"element": "H" 
			},
			{
				"x": -0.4744984997,
				"y": -1.9666583637,
				"z": -1.336847492,
				"element": "H" 
			}
		],
		 "valence_orbital": [ 
			{
				"type": "occ",
				"energy": -0.30225,
				"method": "rhf"
			},
			{
				"type": "occ",
				"energy": -0.27353,
				"method": "rhf"
			},
			{
				"type": "occ",
				"energy": -0.26587,
				"method": "rhf"
			},
			{
				"type": "occ",
				"energy": -0.24823,
				"method": "rhf"
			},
			{
				"type": "occ",
				"energy": -0.23292,
				"method": "rhf"
			},
			{
				"type": "unocc",
				"energy": -0.04296,
				"method": "rhf"
			},
			{
				"type": "unocc",
				"energy": -0.00223,
				"method": "rhf"
			},
			{
				"type": "unocc",
				"energy": 0.05948,
				"method": "rhf"
			},
			{
				"type": "unocc",
				"energy": 0.07988,
				"method": "rhf"
			},
			{
				"type": "unocc",
				"energy": 0.08846,
				"method": "rhf"
			}
		],
		"cosmo_sigma_profile": { 
			"-0.025": 0.0,
			"-0.024": 0.0,
			"-0.023": 0.0,
			"-0.022": 0.0,
			"-0.021": 0.0,
			"-0.02": 0.0,
			"-0.019": 0.0,
			"-0.018": 0.396397334008,
			"-0.017": 0.889263297913,
			"-0.016": 1.04465229936,
			"-0.015": 0.632382147619,
			"-0.014": 0.592224677676,
			"-0.013": 0.44829064894,
			"-0.012": 0.538874901565,
			"-0.011": 0.888087262867,
			"-0.01": 1.21028964739,
			"-0.009": 0.34260527063,
			"-0.008": 0.109724510777,
			"-0.007": 1.00593779346,
			"-0.006": 6.11173907733,
			"-0.005": 12.4386247468,
			"-0.004": 18.4189566695,
			"-0.003": 26.5976863143,
			"-0.002": 22.996125894,
			"-0.001": 23.2983850861,
			"0.0": 21.7371246342,
			"0.001": 18.1214105732,
			"0.002": 18.5958029906,
			"0.003": 15.5248164618,
			"0.004": 6.2575934675,
			"0.005": 5.76809316545,
			"0.006": 4.31401265214,
			"0.007": 5.88564290305,
			"0.008": 4.41089382948,
			"0.009": 2.45524042886,
			"0.01": 4.3698373387,
			"0.011": 4.02137931678,
			"0.012": 4.03664651565,
			"0.013": 0.539720715299,
			"0.014": 0.0,
			"0.015": 0.0,
			"0.016": 0.0,
			"0.017": 0.0,
			"0.018": 0.0,
			"0.019": 0.0,
			"0.02": 0.0,
			"0.021": 0.0,
			"0.022": 0.0,
			"0.023": 0.0,
			"0.024": 0.0,
			"0.025": 0.0
		}
	}
}
