{
	 "smiles": "CC(=CC(O)=O)C1=C(F)C=C(F)C=C1", 
	 "Tm": 431.15, 
	 "num_atms": 22, 
	 "gaussian": { 
		 "optdone": 1, 
		 "sigma_profile": "yes", 
		 "theory": "DFT", 
		 "functional": "B3LYP", 
		 "basiset": "6-31G**", 
		 "properties": { 
			 "R2extent": 3719.3372, 
			 "electric_dipole_moment_norm": 1.92003647361, 
			 "electric_quadrupole_moment_norm": 11.2183188469, 
			 "total_energy": -736.000750148, 
			 "HOMO_LUMO_gap": 0.19264, 
			 "cosmo_polarized_energy": -10.37, 
			 "cosmo_cavitation_energy": 27.87, 
			 "cosmo_dispersion_energy": -19.32, 
			 "cosmo_repulsion_energy": 1.5, 
			 "cosmo_total_nonelectrostatic_energy": 10.05, 
			 "SMD_solvation_energy": 7.29 
		},
		"coords": [
			{
				"x": 1.4310582824,
				"y": 0.8078471367,
				"z": 0.2312629323,
				"element": "C" 
			},
			{
				"x": 0.5509956532,
				"y": -0.3418386403,
				"z": -0.2028231653,
				"element": "C" 
			},
			{
				"x": 0.9034057342,
				"y": -1.6066407353,
				"z": 0.1055838313,
				"element": "C" 
			},
			{
				"x": 0.2681356387,
				"y": -2.8922532915,
				"z": -0.2499318726,
				"element": "C" 
			},
			{
				"x": -0.7448196978,
				"y": -2.8224415081,
				"z": -1.148593338,
				"element": "O" 
			},
			{
				"x": 0.6446487957,
				"y": -3.9550919768,
				"z": 0.2088158515,
				"element": "O" 
			},
			{
				"x": -0.7032786505,
				"y": 0.0509668098,
				"z": -0.9055395271,
				"element": "C" 
			},
			{
				"x": -0.6707077057,
				"y": 0.7503924685,
				"z": -2.1162410823,
				"element": "C" 
			},
			{
				"x": 0.5248443664,
				"y": 1.0037419015,
				"z": -2.6938479153,
				"element": "F" 
			},
			{
				"x": -1.8126868693,
				"y": 1.1909198356,
				"z": -2.7725567453,
				"element": "C" 
			},
			{
				"x": -3.0388457572,
				"y": 0.9242627973,
				"z": -2.175615989,
				"element": "C" 
			},
			{
				"x": -4.1604184828,
				"y": 1.3457603733,
				"z": -2.7891210678,
				"element": "F" 
			},
			{
				"x": -3.1394046725,
				"y": 0.2410594807,
				"z": -0.9682822008,
				"element": "C" 
			},
			{
				"x": -1.9687590397,
				"y": -0.1900759781,
				"z": -0.3488589862,
				"element": "C" 
			},
			{
				"x": 2.3306259888,
				"y": 0.4580756023,
				"z": 0.7429480241,
				"element": "H" 
			},
			{
				"x": 1.7290896791,
				"y": 1.402279026,
				"z": -0.6380513654,
				"element": "H" 
			},
			{
				"x": 0.881582423,
				"y": 1.4787893655,
				"z": 0.9024305862,
				"element": "H" 
			},
			{
				"x": 1.8021533518,
				"y": -1.7642932058,
				"z": 0.694184957,
				"element": "H" 
			},
			{
				"x": -1.0282463914,
				"y": -3.7421592264,
				"z": -1.2840644153,
				"element": "H" 
			},
			{
				"x": -1.7447293613,
				"y": 1.7184767179,
				"z": -3.7159845882,
				"element": "H" 
			},
			{
				"x": -4.1149592764,
				"y": 0.0571969498,
				"z": -0.533181667,
				"element": "H" 
			},
			{
				"x": -2.0274840088,
				"y": -0.7243739027,
				"z": 0.5933677432,
				"element": "H" 
			}
		],
		 "valence_orbital": [ 
			{
				"type": "occ",
				"energy": -0.31655,
				"method": "rhf"
			},
			{
				"type": "occ",
				"energy": -0.28051,
				"method": "rhf"
			},
			{
				"type": "occ",
				"energy": -0.27258,
				"method": "rhf"
			},
			{
				"type": "occ",
				"energy": -0.26524,
				"method": "rhf"
			},
			{
				"type": "occ",
				"energy": -0.24664,
				"method": "rhf"
			},
			{
				"type": "unocc",
				"energy": -0.054,
				"method": "rhf"
			},
			{
				"type": "unocc",
				"energy": -0.01872,
				"method": "rhf"
			},
			{
				"type": "unocc",
				"energy": -0.00317,
				"method": "rhf"
			},
			{
				"type": "unocc",
				"energy": 0.07393,
				"method": "rhf"
			},
			{
				"type": "unocc",
				"energy": 0.07867,
				"method": "rhf"
			}
		],
		"cosmo_sigma_profile": { 
			"-0.025": 0.0,
			"-0.024": 0.0,
			"-0.023": 0.0,
			"-0.022": 0.0,
			"-0.021": 0.0,
			"-0.02": 0.0,
			"-0.019": 0.0,
			"-0.018": 0.231291755881,
			"-0.017": 1.07301601397,
			"-0.016": 0.834875434531,
			"-0.015": 0.738398606995,
			"-0.014": 1.02981903756,
			"-0.013": 0.383654490156,
			"-0.012": 0.425980345355,
			"-0.011": 0.525164808722,
			"-0.01": 1.35260599303,
			"-0.009": 1.3995987291,
			"-0.008": 2.72829893933,
			"-0.007": 5.920048556,
			"-0.006": 9.13479411491,
			"-0.005": 11.4091336973,
			"-0.004": 11.6746405905,
			"-0.003": 13.7906090246,
			"-0.002": 17.140520274,
			"-0.001": 19.6712866288,
			"0.0": 22.5052247535,
			"0.001": 21.8320105137,
			"0.002": 17.7263386514,
			"0.003": 16.0032705014,
			"0.004": 18.3124358109,
			"0.005": 3.98885681632,
			"0.006": 2.95578005166,
			"0.007": 3.0654165555,
			"0.008": 2.91004094132,
			"0.009": 1.60441306614,
			"0.01": 1.96472513886,
			"0.011": 2.66266850766,
			"0.012": 5.53618969069,
			"0.013": 2.09933041478,
			"0.014": 0.125188799467,
			"0.015": 0.0,
			"0.016": 0.0,
			"0.017": 0.0,
			"0.018": 0.0,
			"0.019": 0.0,
			"0.02": 0.0,
			"0.021": 0.0,
			"0.022": 0.0,
			"0.023": 0.0,
			"0.024": 0.0,
			"0.025": 0.0
		}
	}
}
