{
	 "smiles": "CC1=NC2=C(C=NN2C2=NC=CC=N2)C(=O)N1", 
	 "Tm": 617.15, 
	 "num_atms": 25, 
	 "gaussian": { 
		 "optdone": 1, 
		 "sigma_profile": "yes", 
		 "theory": "DFT", 
		 "functional": "B3LYP", 
		 "basiset": "6-31G**", 
		 "properties": { 
			 "R2extent": 4588.6875, 
			 "electric_dipole_moment_norm": 5.41637503225, 
			 "electric_quadrupole_moment_norm": 20.4852533797, 
			 "total_energy": -789.614365134, 
			 "HOMO_LUMO_gap": 0.17669, 
			 "cosmo_polarized_energy": -23.19, 
			 "cosmo_cavitation_energy": 30.71, 
			 "cosmo_dispersion_energy": -22.82, 
			 "cosmo_repulsion_energy": 1.76, 
			 "cosmo_total_nonelectrostatic_energy": 9.65, 
			 "SMD_solvation_energy": 2.19 
		},
		"coords": [
			{
				"x": 0.980385045,
				"y": 0.231488037,
				"z": 4.315266021,
				"element": "C" 
			},
			{
				"x": -0.1068380379,
				"y": 0.2011329764,
				"z": 3.2746147139,
				"element": "C" 
			},
			{
				"x": 0.1854752864,
				"y": -0.1922716167,
				"z": 2.0629584881,
				"element": "N" 
			},
			{
				"x": -0.8683557047,
				"y": -0.1816886509,
				"z": 1.2032202798,
				"element": "C" 
			},
			{
				"x": -2.1805251305,
				"y": 0.1996811671,
				"z": 1.5012620236,
				"element": "C" 
			},
			{
				"x": -2.9043747142,
				"y": 0.0403021534,
				"z": 0.2926018809,
				"element": "C" 
			},
			{
				"x": -2.1337009362,
				"y": -0.3983251693,
				"z": -0.6789786483,
				"element": "N" 
			},
			{
				"x": -0.8748997045,
				"y": -0.5402745006,
				"z": -0.1337495339,
				"element": "N" 
			},
			{
				"x": 0.1788609538,
				"y": -1.0044554124,
				"z": -0.9606714832,
				"element": "C" 
			},
			{
				"x": -0.1447718343,
				"y": -1.2744145617,
				"z": -2.2278812772,
				"element": "N" 
			},
			{
				"x": 0.8547057996,
				"y": -1.710353494,
				"z": -2.9967325253,
				"element": "C" 
			},
			{
				"x": 2.1555068398,
				"y": -1.8780277297,
				"z": -2.5230639793,
				"element": "C" 
			},
			{
				"x": 2.3584946317,
				"y": -1.5607285239,
				"z": -1.1823956037,
				"element": "C" 
			},
			{
				"x": 1.3778765626,
				"y": -1.1223047399,
				"z": -0.388906421,
				"element": "N" 
			},
			{
				"x": -2.5181774594,
				"y": 0.6353173174,
				"z": 2.831161115,
				"element": "C" 
			},
			{
				"x": -3.5911096913,
				"y": 1.0036750674,
				"z": 3.28375032,
				"element": "O" 
			},
			{
				"x": -1.3614276597,
				"y": 0.5936830974,
				"z": 3.6621374201,
				"element": "N" 
			},
			{
				"x": 1.4049235372,
				"y": -0.7694541237,
				"z": 4.4305545292,
				"element": "H" 
			},
			{
				"x": 0.6188461543,
				"y": 0.5763641094,
				"z": 5.287062749,
				"element": "H" 
			},
			{
				"x": 1.7867151729,
				"y": 0.891051922,
				"z": 3.9832893372,
				"element": "H" 
			},
			{
				"x": -3.9527952701,
				"y": 0.2313347725,
				"z": 0.1084823166,
				"element": "H" 
			},
			{
				"x": 0.5986673712,
				"y": -1.9325891682,
				"z": -4.0313340028,
				"element": "H" 
			},
			{
				"x": 2.9581859384,
				"y": -2.2331365116,
				"z": -3.1589485063,
				"element": "H" 
			},
			{
				"x": 3.3391867043,
				"y": -1.6585651583,
				"z": -0.7199821928,
				"element": "H" 
			},
			{
				"x": -1.5249538542,
				"y": 0.8885587408,
				"z": 4.6172829795,
				"element": "H" 
			}
		],
		 "valence_orbital": [ 
			{
				"type": "occ",
				"energy": -0.28375,
				"method": "rhf"
			},
			{
				"type": "occ",
				"energy": -0.26378,
				"method": "rhf"
			},
			{
				"type": "occ",
				"energy": -0.25235,
				"method": "rhf"
			},
			{
				"type": "occ",
				"energy": -0.24923,
				"method": "rhf"
			},
			{
				"type": "occ",
				"energy": -0.23056,
				"method": "rhf"
			},
			{
				"type": "unocc",
				"energy": -0.05387,
				"method": "rhf"
			},
			{
				"type": "unocc",
				"energy": -0.04573,
				"method": "rhf"
			},
			{
				"type": "unocc",
				"energy": -0.01651,
				"method": "rhf"
			},
			{
				"type": "unocc",
				"energy": -0.00313,
				"method": "rhf"
			},
			{
				"type": "unocc",
				"energy": 0.04864,
				"method": "rhf"
			}
		],
		"cosmo_sigma_profile": { 
			"-0.025": 0.0,
			"-0.024": 0.0,
			"-0.023": 0.0,
			"-0.022": 0.0,
			"-0.021": 0.0,
			"-0.02": 0.0,
			"-0.019": 0.0,
			"-0.018": 0.0,
			"-0.017": 0.388388768775,
			"-0.016": 1.04354463056,
			"-0.015": 1.0082977391,
			"-0.014": 1.03863065207,
			"-0.013": 1.27469700513,
			"-0.012": 1.53721931359,
			"-0.011": 1.1597906792,
			"-0.01": 0.904080586345,
			"-0.009": 3.16843528537,
			"-0.008": 10.7819172961,
			"-0.007": 10.7573117334,
			"-0.006": 13.9717909403,
			"-0.005": 12.2724948922,
			"-0.004": 18.379395857,
			"-0.003": 21.4251233755,
			"-0.002": 22.9755219728,
			"-0.001": 21.5517008979,
			"0.0": 18.4634192328,
			"0.001": 11.5233868798,
			"0.002": 7.63933816162,
			"0.003": 6.02548759288,
			"0.004": 6.45563237935,
			"0.005": 4.219441578,
			"0.006": 4.827596915,
			"0.007": 5.43790276084,
			"0.008": 3.29239782461,
			"0.009": 3.13471961435,
			"0.01": 4.53487059719,
			"0.011": 4.56342893367,
			"0.012": 5.97551892912,
			"0.013": 7.45021762333,
			"0.014": 2.51133397323,
			"0.015": 1.61037857662,
			"0.016": 1.98928748256,
			"0.017": 1.67081207667,
			"0.018": 1.57769884079,
			"0.019": 1.22975839226,
			"0.02": 0.224853371177,
			"0.021": 0.0,
			"0.022": 0.0,
			"0.023": 0.0,
			"0.024": 0.0,
			"0.025": 0.0
		}
	}
}
