{
	 "smiles": "OCC1=NC(=NO1)C1=CC=CO1", 
	 "Tm": 397.15, 
	 "num_atms": 18, 
	 "gaussian": { 
		 "optdone": 1, 
		 "sigma_profile": "yes", 
		 "theory": "DFT", 
		 "functional": "B3LYP", 
		 "basiset": "6-31G**", 
		 "properties": { 
			 "R2extent": 2872.2603, 
			 "electric_dipole_moment_norm": 2.22415650079, 
			 "electric_quadrupole_moment_norm": 12.4792467076, 
			 "total_energy": -605.451385737, 
			 "HOMO_LUMO_gap": 0.18523, 
			 "cosmo_polarized_energy": -11.28, 
			 "cosmo_cavitation_energy": 23.73, 
			 "cosmo_dispersion_energy": -17.84, 
			 "cosmo_repulsion_energy": 1.43, 
			 "cosmo_total_nonelectrostatic_energy": 7.32, 
			 "SMD_solvation_energy": 3.86 
		},
		"coords": [
			{
				"x": 0.4935212618,
				"y": -1.2286772416,
				"z": -3.9259682749,
				"element": "O" 
			},
			{
				"x": -0.1279573612,
				"y": 0.0241609739,
				"z": -4.0672677873,
				"element": "C" 
			},
			{
				"x": -0.2011007772,
				"y": 0.7524460186,
				"z": -2.7576221491,
				"element": "C" 
			},
			{
				"x": -0.0555681895,
				"y": 0.2183735519,
				"z": -1.5835730317,
				"element": "N" 
			},
			{
				"x": -0.2696359501,
				"y": 1.3007170401,
				"z": -0.745453533,
				"element": "C" 
			},
			{
				"x": -0.5344043486,
				"y": 2.4311639279,
				"z": -1.3651116427,
				"element": "N" 
			},
			{
				"x": -0.4876260561,
				"y": 2.0582635097,
				"z": -2.7286292925,
				"element": "O" 
			},
			{
				"x": -0.1988434496,
				"y": 1.1628368312,
				"z": 0.6915368643,
				"element": "C" 
			},
			{
				"x": 0.0699085803,
				"y": 0.0773774213,
				"z": 1.4826561337,
				"element": "C" 
			},
			{
				"x": 0.0019552333,
				"y": 0.542212233,
				"z": 2.8307356786,
				"element": "C" 
			},
			{
				"x": -0.3021176537,
				"y": 1.8704434255,
				"z": 2.7576894105,
				"element": "C" 
			},
			{
				"x": -0.4281005172,
				"y": 2.2655382266,
				"z": 1.4639384794,
				"element": "O" 
			},
			{
				"x": 0.3047958362,
				"y": -1.546222955,
				"z": -3.0304756798,
				"element": "H" 
			},
			{
				"x": 0.443648294,
				"y": 0.6218241357,
				"z": -4.7862393152,
				"element": "H" 
			},
			{
				"x": -1.1537938037,
				"y": -0.0597278349,
				"z": -4.4662112849,
				"element": "H" 
			},
			{
				"x": 0.2882567894,
				"y": -0.9201784915,
				"z": 1.1323646728,
				"element": "H" 
			},
			{
				"x": 0.1584402085,
				"y": -0.0336504241,
				"z": 3.7310840781,
				"element": "H" 
			},
			{
				"x": -0.4562780966,
				"y": 2.6395996518,
				"z": 3.4984466738,
				"element": "H" 
			}
		],
		 "valence_orbital": [ 
			{
				"type": "occ",
				"energy": -0.311,
				"method": "rhf"
			},
			{
				"type": "occ",
				"energy": -0.30473,
				"method": "rhf"
			},
			{
				"type": "occ",
				"energy": -0.29301,
				"method": "rhf"
			},
			{
				"type": "occ",
				"energy": -0.28578,
				"method": "rhf"
			},
			{
				"type": "occ",
				"energy": -0.23417,
				"method": "rhf"
			},
			{
				"type": "unocc",
				"energy": -0.04894,
				"method": "rhf"
			},
			{
				"type": "unocc",
				"energy": -0.00694,
				"method": "rhf"
			},
			{
				"type": "unocc",
				"energy": 0.04087,
				"method": "rhf"
			},
			{
				"type": "unocc",
				"energy": 0.0725,
				"method": "rhf"
			},
			{
				"type": "unocc",
				"energy": 0.08418,
				"method": "rhf"
			}
		],
		"cosmo_sigma_profile": { 
			"-0.025": 0.0,
			"-0.024": 0.0,
			"-0.023": 0.0,
			"-0.022": 0.0,
			"-0.021": 0.0,
			"-0.02": 0.0,
			"-0.019": 0.0,
			"-0.018": 0.0,
			"-0.017": 0.0,
			"-0.016": 0.0,
			"-0.015": 0.0,
			"-0.014": 0.0652866768877,
			"-0.013": 0.635702740532,
			"-0.012": 0.71371033819,
			"-0.011": 0.388715304797,
			"-0.01": 1.77560042204,
			"-0.009": 2.84176775103,
			"-0.008": 9.68927986067,
			"-0.007": 12.1433463068,
			"-0.006": 11.1371514633,
			"-0.005": 10.5481498154,
			"-0.004": 9.76313173303,
			"-0.003": 10.0753028487,
			"-0.002": 9.39710165481,
			"-0.001": 9.72949585542,
			"0.0": 11.8966140501,
			"0.001": 15.1456841746,
			"0.002": 13.696206434,
			"0.003": 11.4269497318,
			"0.004": 8.27907446538,
			"0.005": 6.92795421327,
			"0.006": 9.57635528618,
			"0.007": 5.5738150259,
			"0.008": 4.20921906055,
			"0.009": 3.60515809021,
			"0.01": 3.30381806881,
			"0.011": 2.50084591537,
			"0.012": 3.47165283489,
			"0.013": 2.55887807942,
			"0.014": 0.0104104829542,
			"0.015": 0.0,
			"0.016": 0.0,
			"0.017": 0.0,
			"0.018": 0.0,
			"0.019": 0.0,
			"0.02": 0.0,
			"0.021": 0.0,
			"0.022": 0.0,
			"0.023": 0.0,
			"0.024": 0.0,
			"0.025": 0.0
		}
	}
}
