{
	 "smiles": "COC(=O)CCCOC1=C(OC)C=C(C=CC)C=C1", 
	 "Tm": 312.15, 
	 "num_atms": 39, 
	 "gaussian": { 
		 "optdone": 1, 
		 "sigma_profile": "yes", 
		 "theory": "DFT", 
		 "functional": "B3LYP", 
		 "basiset": "6-31G**", 
		 "properties": { 
			 "R2extent": 8446.0593, 
			 "electric_dipole_moment_norm": 4.05485171246, 
			 "electric_quadrupole_moment_norm": 14.4938952652, 
			 "total_energy": -884.522775939, 
			 "HOMO_LUMO_gap": 0.17745, 
			 "cosmo_polarized_energy": -12.49, 
			 "cosmo_cavitation_energy": 42.31, 
			 "cosmo_dispersion_energy": -29.81, 
			 "cosmo_repulsion_energy": 2.35, 
			 "cosmo_total_nonelectrostatic_energy": 14.84, 
			 "SMD_solvation_energy": 9.6 
		},
		"coords": [
			{
				"x": -2.8870416598,
				"y": 5.5943236566,
				"z": -1.0431205673,
				"element": "C" 
			},
			{
				"x": -1.9554442438,
				"y": 5.26445899,
				"z": 0.0023511774,
				"element": "O" 
			},
			{
				"x": -1.5566731608,
				"y": 3.9769624942,
				"z": 0.0412034037,
				"element": "C" 
			},
			{
				"x": -1.9434743506,
				"y": 3.1362980257,
				"z": -0.7459039252,
				"element": "O" 
			},
			{
				"x": -0.5905162684,
				"y": 3.7429573553,
				"z": 1.188428153,
				"element": "C" 
			},
			{
				"x": -0.0624300874,
				"y": 2.3073112407,
				"z": 1.2587361377,
				"element": "C" 
			},
			{
				"x": 0.9150112894,
				"y": 1.9804391262,
				"z": 0.1259592434,
				"element": "C" 
			},
			{
				"x": 1.4081987236,
				"y": 0.6442033933,
				"z": 0.2102762188,
				"element": "O" 
			},
			{
				"x": 0.6418757108,
				"y": -0.3859885555,
				"z": -0.2669687466,
				"element": "C" 
			},
			{
				"x": 1.1908239792,
				"y": -1.6789187891,
				"z": -0.1280899715,
				"element": "C" 
			},
			{
				"x": 2.3967832655,
				"y": -1.8839451279,
				"z": 0.5033886062,
				"element": "O" 
			},
			{
				"x": 3.5487112196,
				"y": -1.4251003321,
				"z": -0.2045256024,
				"element": "C" 
			},
			{
				"x": 0.4783384696,
				"y": -2.7837015377,
				"z": -0.5797446248,
				"element": "C" 
			},
			{
				"x": -0.788466444,
				"y": -2.6635094789,
				"z": -1.1793076054,
				"element": "C" 
			},
			{
				"x": -1.4806046309,
				"y": -3.880543477,
				"z": -1.627746644,
				"element": "C" 
			},
			{
				"x": -2.6559342613,
				"y": -3.9705973086,
				"z": -2.2683856,
				"element": "C" 
			},
			{
				"x": -3.2965814471,
				"y": -5.2601268458,
				"z": -2.6901279073,
				"element": "C" 
			},
			{
				"x": -1.3140454415,
				"y": -1.3689800052,
				"z": -1.3124294595,
				"element": "C" 
			},
			{
				"x": -0.6169298123,
				"y": -0.2470419969,
				"z": -0.8662429466,
				"element": "C" 
			},
			{
				"x": -3.8047737513,
				"y": 5.0104782371,
				"z": -0.938675422,
				"element": "H" 
			},
			{
				"x": -2.4507293069,
				"y": 5.3928946618,
				"z": -2.0245243841,
				"element": "H" 
			},
			{
				"x": -3.0942222671,
				"y": 6.6578204949,
				"z": -0.9267477565,
				"element": "H" 
			},
			{
				"x": 0.224284603,
				"y": 4.472917472,
				"z": 1.0985109767,
				"element": "H" 
			},
			{
				"x": -1.1159539976,
				"y": 4.0082114126,
				"z": 2.1134545839,
				"element": "H" 
			},
			{
				"x": 0.4525623749,
				"y": 2.1567737254,
				"z": 2.2132792058,
				"element": "H" 
			},
			{
				"x": -0.9033480192,
				"y": 1.6087566,
				"z": 1.2322810616,
				"element": "H" 
			},
			{
				"x": 0.4620680551,
				"y": 2.165242105,
				"z": -0.8537233955,
				"element": "H" 
			},
			{
				"x": 1.8065604167,
				"y": 2.6111927185,
				"z": 0.2098316991,
				"element": "H" 
			},
			{
				"x": 4.4119343901,
				"y": -1.6993611259,
				"z": 0.4062750047,
				"element": "H" 
			},
			{
				"x": 3.53062865,
				"y": -0.3397784695,
				"z": -0.3432427658,
				"element": "H" 
			},
			{
				"x": 3.6303917361,
				"y": -1.9165810892,
				"z": -1.183339493,
				"element": "H" 
			},
			{
				"x": 0.9344017438,
				"y": -3.7606655052,
				"z": -0.4460094195,
				"element": "H" 
			},
			{
				"x": -0.9542044216,
				"y": -4.8095664665,
				"z": -1.4039325785,
				"element": "H" 
			},
			{
				"x": -3.2078170078,
				"y": -3.0638789881,
				"z": -2.5151538589,
				"element": "H" 
			},
			{
				"x": -2.6839380275,
				"y": -6.1232935077,
				"z": -2.4118712451,
				"element": "H" 
			},
			{
				"x": -3.4543575448,
				"y": -5.2926154805,
				"z": -3.7764233444,
				"element": "H" 
			},
			{
				"x": -4.2858015543,
				"y": -5.3850127987,
				"z": -2.2298073607,
				"element": "H" 
			},
			{
				"x": -2.2914231552,
				"y": -1.2209371146,
				"z": -1.7607940224,
				"element": "H" 
			},
			{
				"x": -1.0744637662,
				"y": 0.7305022913,
				"z": -0.9714368251,
				"element": "H" 
			}
		],
		 "valence_orbital": [ 
			{
				"type": "occ",
				"energy": -0.28336,
				"method": "rhf"
			},
			{
				"type": "occ",
				"energy": -0.26221,
				"method": "rhf"
			},
			{
				"type": "occ",
				"energy": -0.25624,
				"method": "rhf"
			},
			{
				"type": "occ",
				"energy": -0.2265,
				"method": "rhf"
			},
			{
				"type": "occ",
				"energy": -0.18775,
				"method": "rhf"
			},
			{
				"type": "unocc",
				"energy": -0.0103,
				"method": "rhf"
			},
			{
				"type": "unocc",
				"energy": 0.00101,
				"method": "rhf"
			},
			{
				"type": "unocc",
				"energy": 0.01409,
				"method": "rhf"
			},
			{
				"type": "unocc",
				"energy": 0.07904,
				"method": "rhf"
			},
			{
				"type": "unocc",
				"energy": 0.08342,
				"method": "rhf"
			}
		],
		"cosmo_sigma_profile": { 
			"-0.025": 0.0,
			"-0.024": 0.0,
			"-0.023": 0.0,
			"-0.022": 0.0,
			"-0.021": 0.0,
			"-0.02": 0.0,
			"-0.019": 0.0,
			"-0.018": 0.0,
			"-0.017": 0.0,
			"-0.016": 0.0,
			"-0.015": 0.0,
			"-0.014": 0.0,
			"-0.013": 0.0,
			"-0.012": 0.0,
			"-0.011": 0.0,
			"-0.01": 0.0,
			"-0.009": 0.0,
			"-0.008": 0.0,
			"-0.007": 2.14370303171,
			"-0.006": 15.4718583345,
			"-0.005": 23.9191835813,
			"-0.004": 33.3436958835,
			"-0.003": 43.833603941,
			"-0.002": 34.3600924201,
			"-0.001": 27.3605381315,
			"0.0": 25.9452863178,
			"0.001": 18.4611245801,
			"0.002": 17.9396422441,
			"0.003": 15.3166941291,
			"0.004": 17.372445193,
			"0.005": 19.644008474,
			"0.006": 12.0680999808,
			"0.007": 5.57307755435,
			"0.008": 5.04663239675,
			"0.009": 3.62568886181,
			"0.01": 4.13530037406,
			"0.011": 4.57012000744,
			"0.012": 3.289527691,
			"0.013": 0.263235392974,
			"0.014": 0.0,
			"0.015": 0.0,
			"0.016": 0.0,
			"0.017": 0.0,
			"0.018": 0.0,
			"0.019": 0.0,
			"0.02": 0.0,
			"0.021": 0.0,
			"0.022": 0.0,
			"0.023": 0.0,
			"0.024": 0.0,
			"0.025": 0.0
		}
	}
}
