{
	 "smiles": "CN1C[C@H]2CC[C@@H]1C[C@@]21CC(C)=CC(=O)O1", 
	 "Tm": 327.65, 
	 "num_atms": 35, 
	 "gaussian": { 
		 "optdone": 1, 
		 "sigma_profile": "yes", 
		 "theory": "DFT", 
		 "functional": "B3LYP", 
		 "basiset": "6-31G**", 
		 "properties": { 
			 "R2extent": 3576.8224, 
			 "electric_dipole_moment_norm": 5.03544535071, 
			 "electric_quadrupole_moment_norm": 19.1450874009, 
			 "total_energy": -712.029077964, 
			 "HOMO_LUMO_gap": 0.17089, 
			 "cosmo_polarized_energy": -12.76, 
			 "cosmo_cavitation_energy": 33.51, 
			 "cosmo_dispersion_energy": -24.11, 
			 "cosmo_repulsion_energy": 1.85, 
			 "cosmo_total_nonelectrostatic_energy": 11.25, 
			 "SMD_solvation_energy": 4.37 
		},
		"coords": [
			{
				"x": -3.1649671915,
				"y": 0.2548876451,
				"z": 1.6503822358,
				"element": "C" 
			},
			{
				"x": -1.8392886982,
				"y": 0.0597534939,
				"z": 1.0916229842,
				"element": "N" 
			},
			{
				"x": -1.8717501197,
				"y": -0.3867899229,
				"z": -0.3101710299,
				"element": "C" 
			},
			{
				"x": -0.5953012312,
				"y": 0.0997596204,
				"z": -1.0222579802,
				"element": "C" 
			},
			{
				"x": -0.7184724151,
				"y": 1.6293755501,
				"z": -1.2086365121,
				"element": "C" 
			},
			{
				"x": -1.1087579712,
				"y": 2.2662858087,
				"z": 0.154129934,
				"element": "C" 
			},
			{
				"x": -0.9109858431,
				"y": 1.1987197935,
				"z": 1.2529838314,
				"element": "C" 
			},
			{
				"x": 0.5131767217,
				"y": 0.6271298101,
				"z": 1.1586623018,
				"element": "C" 
			},
			{
				"x": 0.6512524248,
				"y": -0.2049572984,
				"z": -0.1447954138,
				"element": "C" 
			},
			{
				"x": 0.8572941144,
				"y": -1.6972485633,
				"z": 0.1474274289,
				"element": "C" 
			},
			{
				"x": 1.3024729357,
				"y": -2.4635307498,
				"z": -1.073999804,
				"element": "C" 
			},
			{
				"x": 0.9833504234,
				"y": -3.9276145273,
				"z": -1.1496864538,
				"element": "C" 
			},
			{
				"x": 2.0032477996,
				"y": -1.8104648805,
				"z": -2.0152399492,
				"element": "C" 
			},
			{
				"x": 2.389447324,
				"y": -0.392999397,
				"z": -1.8647200096,
				"element": "C" 
			},
			{
				"x": 3.1985274834,
				"y": 0.1570781773,
				"z": -2.5808537201,
				"element": "O" 
			},
			{
				"x": 1.8359607854,
				"y": 0.3057975756,
				"z": -0.8277652103,
				"element": "O" 
			},
			{
				"x": -3.7587043196,
				"y": 1.0387758412,
				"z": 1.1417810889,
				"element": "H" 
			},
			{
				"x": -3.0895557602,
				"y": 0.518076038,
				"z": 2.7104264021,
				"element": "H" 
			},
			{
				"x": -3.7313872629,
				"y": -0.6806084754,
				"z": 1.5792114804,
				"element": "H" 
			},
			{
				"x": -2.740479063,
				"y": 0.0289609747,
				"z": -0.8537396599,
				"element": "H" 
			},
			{
				"x": -1.9796064648,
				"y": -1.4796642513,
				"z": -0.3498941608,
				"element": "H" 
			},
			{
				"x": -0.4991132763,
				"y": -0.3994127095,
				"z": -1.9909979421,
				"element": "H" 
			},
			{
				"x": 0.2289008317,
				"y": 2.03047819,
				"z": -1.576289984,
				"element": "H" 
			},
			{
				"x": -1.4768655859,
				"y": 1.8392913699,
				"z": -1.9703067257,
				"element": "H" 
			},
			{
				"x": -2.1524647415,
				"y": 2.6004894872,
				"z": 0.1509390735,
				"element": "H" 
			},
			{
				"x": -0.498004729,
				"y": 3.1497540269,
				"z": 0.3693577362,
				"element": "H" 
			},
			{
				"x": -1.0760845161,
				"y": 1.6276465864,
				"z": 2.246575716,
				"element": "H" 
			},
			{
				"x": 1.2530695524,
				"y": 1.4333359383,
				"z": 1.1351832517,
				"element": "H" 
			},
			{
				"x": 0.7207515628,
				"y": 0.0033561639,
				"z": 2.0332246442,
				"element": "H" 
			},
			{
				"x": -0.0561178424,
				"y": -2.1182239395,
				"z": 0.577596705,
				"element": "H" 
			},
			{
				"x": 1.6287986999,
				"y": -1.7994142649,
				"z": 0.9250571687,
				"element": "H" 
			},
			{
				"x": 1.3994484181,
				"y": -4.3909470754,
				"z": -2.0476740822,
				"element": "H" 
			},
			{
				"x": 1.3798271137,
				"y": -4.4550017167,
				"z": -0.2723814353,
				"element": "H" 
			},
			{
				"x": -0.1021348179,
				"y": -4.0891792326,
				"z": -1.1437462995,
				"element": "H" 
			},
			{
				"x": 2.3880156584,
				"y": -2.3006950867,
				"z": -2.9035056105,
				"element": "H" 
			}
		],
		 "valence_orbital": [ 
			{
				"type": "occ",
				"energy": -0.30087,
				"method": "rhf"
			},
			{
				"type": "occ",
				"energy": -0.27621,
				"method": "rhf"
			},
			{
				"type": "occ",
				"energy": -0.26218,
				"method": "rhf"
			},
			{
				"type": "occ",
				"energy": -0.253,
				"method": "rhf"
			},
			{
				"type": "occ",
				"energy": -0.20836,
				"method": "rhf"
			},
			{
				"type": "unocc",
				"energy": -0.03747,
				"method": "rhf"
			},
			{
				"type": "unocc",
				"energy": 0.06384,
				"method": "rhf"
			},
			{
				"type": "unocc",
				"energy": 0.0859,
				"method": "rhf"
			},
			{
				"type": "unocc",
				"energy": 0.08738,
				"method": "rhf"
			},
			{
				"type": "unocc",
				"energy": 0.10463,
				"method": "rhf"
			}
		],
		"cosmo_sigma_profile": { 
			"-0.025": 0.0511372438941,
			"-0.024": 0.0283327356634,
			"-0.023": 0.00154559875278,
			"-0.022": 0.0044043006897,
			"-0.021": 0.0166894387029,
			"-0.02": 0.0467570066459,
			"-0.019": 0.378508162484,
			"-0.018": 0.0720073891676,
			"-0.017": 0.0262257519375,
			"-0.016": 0.0365673212265,
			"-0.015": 0.14944142974,
			"-0.014": 0.116880675879,
			"-0.013": 0.176459211143,
			"-0.012": 0.332609282939,
			"-0.011": 0.0568199916291,
			"-0.01": 0.242868878768,
			"-0.009": 0.20332735957,
			"-0.008": 0.422530120168,
			"-0.007": 0.189346425616,
			"-0.006": 2.62746918654,
			"-0.005": 11.9120947398,
			"-0.004": 19.9457203898,
			"-0.003": 31.3321708742,
			"-0.002": 46.1030919796,
			"-0.001": 44.137140111,
			"0.0": 30.6842010197,
			"0.001": 18.1651631909,
			"0.002": 8.45220934181,
			"0.003": 4.68961001299,
			"0.004": 3.50353176206,
			"0.005": 2.80662772901,
			"0.006": 3.42771144558,
			"0.007": 3.40527584278,
			"0.008": 2.33413708117,
			"0.009": 2.68810067761,
			"0.01": 2.82791963958,
			"0.011": 3.64116409893,
			"0.012": 5.27282671429,
			"0.013": 6.19261036216,
			"0.014": 2.73080483021,
			"0.015": 0.394266121729,
			"0.016": 0.0,
			"0.017": 0.0,
			"0.018": 0.0,
			"0.019": 0.0,
			"0.02": 0.0,
			"0.021": 0.0,
			"0.022": 0.0,
			"0.023": 0.0,
			"0.024": 0.0,
			"0.025": 0.0
		}
	}
}
