{
	 "smiles": "CCCCCCCCCCCCCCC(=O)CBr", 
	 "Tm": 329.15, 
	 "num_atms": 49, 
	 "gaussian": { 
		 "optdone": 1, 
		 "sigma_profile": "yes", 
		 "theory": "DFT", 
		 "functional": "B3LYP", 
		 "basiset": "6-31G**", 
		 "properties": { 
			 "R2extent": 11027.8348, 
			 "electric_dipole_moment_norm": 1.83882052958, 
			 "electric_quadrupole_moment_norm": 9.67227659085, 
			 "total_energy": -3275.04531692, 
			 "HOMO_LUMO_gap": 0.20637, 
			 "cosmo_polarized_energy": -7.03, 
			 "cosmo_cavitation_energy": 49.72, 
			 "cosmo_dispersion_energy": -32.16, 
			 "cosmo_repulsion_energy": 2.6, 
			 "cosmo_total_nonelectrostatic_energy": 20.16, 
			 "SMD_solvation_energy": 5.99 
		},
		"coords": [
			{
				"x": 2.388543541,
				"y": 1.8669887194,
				"z": 4.0330800819,
				"element": "C" 
			},
			{
				"x": 2.4749290408,
				"y": 2.2153029738,
				"z": 2.5436919095,
				"element": "C" 
			},
			{
				"x": 2.9323281449,
				"y": 1.0395166889,
				"z": 1.6703084653,
				"element": "C" 
			},
			{
				"x": 3.0140959274,
				"y": 1.3884338927,
				"z": 0.1779549019,
				"element": "C" 
			},
			{
				"x": 3.5664362662,
				"y": 0.2649487456,
				"z": -0.7176413393,
				"element": "C" 
			},
			{
				"x": 2.7395756357,
				"y": -1.0326368653,
				"z": -0.7662954884,
				"element": "C" 
			},
			{
				"x": 1.3327146004,
				"y": -0.8701787683,
				"z": -1.362027341,
				"element": "C" 
			},
			{
				"x": 0.5580114602,
				"y": -2.195158742,
				"z": -1.5073636502,
				"element": "C" 
			},
			{
				"x": 0.0705725756,
				"y": -2.8462974311,
				"z": -0.1906168289,
				"element": "C" 
			},
			{
				"x": -1.3676048939,
				"y": -2.4972740518,
				"z": 0.2349882867,
				"element": "C" 
			},
			{
				"x": -1.6098818624,
				"y": -1.0295582481,
				"z": 0.6247232648,
				"element": "C" 
			},
			{
				"x": -3.0341306078,
				"y": -0.7409823787,
				"z": 1.1626639143,
				"element": "C" 
			},
			{
				"x": -4.016604252,
				"y": -0.0379230491,
				"z": 0.207996444,
				"element": "C" 
			},
			{
				"x": -4.4208923941,
				"y": -0.8206437862,
				"z": -1.064162262,
				"element": "C" 
			},
			{
				"x": -3.4281278516,
				"y": -0.8021372887,
				"z": -2.2095549187,
				"element": "C" 
			},
			{
				"x": -2.9731678081,
				"y": -1.8181420236,
				"z": -2.7032523991,
				"element": "O" 
			},
			{
				"x": -2.9469254181,
				"y": 0.5347467647,
				"z": -2.7798352886,
				"element": "C" 
			},
			{
				"x": -4.4022117794,
				"y": 1.8211461345,
				"z": -3.1480251287,
				"element": "Br" 
			},
			{
				"x": 1.6785200474,
				"y": 1.0505837735,
				"z": 4.209086681,
				"element": "H" 
			},
			{
				"x": 3.3616027687,
				"y": 1.5454141612,
				"z": 4.4217842871,
				"element": "H" 
			},
			{
				"x": 2.060903351,
				"y": 2.7259059733,
				"z": 4.6280864884,
				"element": "H" 
			},
			{
				"x": 1.4947832928,
				"y": 2.5665071613,
				"z": 2.1924629728,
				"element": "H" 
			},
			{
				"x": 3.1649286248,
				"y": 3.0587189022,
				"z": 2.4041868299,
				"element": "H" 
			},
			{
				"x": 3.9171449173,
				"y": 0.6930170012,
				"z": 2.0165212004,
				"element": "H" 
			},
			{
				"x": 2.2453394281,
				"y": 0.1958165532,
				"z": 1.822001681,
				"element": "H" 
			},
			{
				"x": 3.6575489698,
				"y": 2.2708383603,
				"z": 0.0579206057,
				"element": "H" 
			},
			{
				"x": 2.021023236,
				"y": 1.6965041387,
				"z": -0.1762541954,
				"element": "H" 
			},
			{
				"x": 4.5836290272,
				"y": 0.0194483077,
				"z": -0.3826303153,
				"element": "H" 
			},
			{
				"x": 3.671481739,
				"y": 0.6528408827,
				"z": -1.74033004,
				"element": "H" 
			},
			{
				"x": 2.6732772762,
				"y": -1.4657424723,
				"z": 0.2396877236,
				"element": "H" 
			},
			{
				"x": 3.2892341486,
				"y": -1.7681357242,
				"z": -1.369724265,
				"element": "H" 
			},
			{
				"x": 0.7538573942,
				"y": -0.1623345112,
				"z": -0.756522233,
				"element": "H" 
			},
			{
				"x": 1.4293454298,
				"y": -0.4097213768,
				"z": -2.3556252668,
				"element": "H" 
			},
			{
				"x": 1.2099434215,
				"y": -2.9043746555,
				"z": -2.0346361398,
				"element": "H" 
			},
			{
				"x": -0.3060995515,
				"y": -2.0435405708,
				"z": -2.1663540291,
				"element": "H" 
			},
			{
				"x": 0.1186336023,
				"y": -3.9365031723,
				"z": -0.3015019673,
				"element": "H" 
			},
			{
				"x": 0.7617788753,
				"y": -2.6045039231,
				"z": 0.6286489963,
				"element": "H" 
			},
			{
				"x": -2.0534929209,
				"y": -2.7854032292,
				"z": -0.5706784421,
				"element": "H" 
			},
			{
				"x": -1.629814185,
				"y": -3.1217039335,
				"z": 1.1006229849,
				"element": "H" 
			},
			{
				"x": -0.8756600969,
				"y": -0.7532004568,
				"z": 1.3927921266,
				"element": "H" 
			},
			{
				"x": -1.3954957879,
				"y": -0.3716935114,
				"z": -0.2273772094,
				"element": "H" 
			},
			{
				"x": -2.9584196417,
				"y": -0.1079169223,
				"z": 2.0550912223,
				"element": "H" 
			},
			{
				"x": -3.4875796602,
				"y": -1.6806825352,
				"z": 1.5061658266,
				"element": "H" 
			},
			{
				"x": -3.6244954084,
				"y": 0.9475213959,
				"z": -0.073618579,
				"element": "H" 
			},
			{
				"x": -4.9374411349,
				"y": 0.1660650481,
				"z": 0.7666138692,
				"element": "H" 
			},
			{
				"x": -4.6230887134,
				"y": -1.8700142452,
				"z": -0.8317594171,
				"element": "H" 
			},
			{
				"x": -5.3477749799,
				"y": -0.3814584759,
				"z": -1.4529269743,
				"element": "H" 
			},
			{
				"x": -2.2808795359,
				"y": 1.04308354,
				"z": -2.0808917026,
				"element": "H" 
			},
			{
				"x": -2.4361942584,
				"y": 0.3521132296,
				"z": -3.7223753427,
				"element": "H" 
			}
		],
		 "valence_orbital": [ 
			{
				"type": "occ",
				"energy": -0.29854,
				"method": "rhf"
			},
			{
				"type": "occ",
				"energy": -0.29825,
				"method": "rhf"
			},
			{
				"type": "occ",
				"energy": -0.29482,
				"method": "rhf"
			},
			{
				"type": "occ",
				"energy": -0.28611,
				"method": "rhf"
			},
			{
				"type": "occ",
				"energy": -0.25691,
				"method": "rhf"
			},
			{
				"type": "unocc",
				"energy": -0.05054,
				"method": "rhf"
			},
			{
				"type": "unocc",
				"energy": 0.00755,
				"method": "rhf"
			},
			{
				"type": "unocc",
				"energy": 0.06348,
				"method": "rhf"
			},
			{
				"type": "unocc",
				"energy": 0.07722,
				"method": "rhf"
			},
			{
				"type": "unocc",
				"energy": 0.0925,
				"method": "rhf"
			}
		],
		"cosmo_sigma_profile": { 
			"-0.025": 0.0,
			"-0.024": 0.0,
			"-0.023": 0.0,
			"-0.022": 0.0,
			"-0.021": 0.0,
			"-0.02": 0.0,
			"-0.019": 0.0,
			"-0.018": 0.0,
			"-0.017": 0.0,
			"-0.016": 0.0,
			"-0.015": 0.0,
			"-0.014": 0.0,
			"-0.013": 0.0,
			"-0.012": 0.0,
			"-0.011": 0.0,
			"-0.01": 0.0251568437027,
			"-0.009": 0.652554518578,
			"-0.008": 3.41725128806,
			"-0.007": 4.62361923722,
			"-0.006": 4.02894417754,
			"-0.005": 6.45154448471,
			"-0.004": 9.98223129691,
			"-0.003": 17.5939688811,
			"-0.002": 46.175607997,
			"-0.001": 74.1523900188,
			"0.0": 76.0726770923,
			"0.001": 64.8307551284,
			"0.002": 34.2084005252,
			"0.003": 8.79953913069,
			"0.004": 8.54446192568,
			"0.005": 10.6313589864,
			"0.006": 4.23105655928,
			"0.007": 1.63549103395,
			"0.008": 0.997049942216,
			"0.009": 2.20387290488,
			"0.01": 2.22503941108,
			"0.011": 3.09669123505,
			"0.012": 1.09044076227,
			"0.013": 0.0102739630341,
			"0.014": 0.0,
			"0.015": 0.0,
			"0.016": 0.0,
			"0.017": 0.0,
			"0.018": 0.0,
			"0.019": 0.0,
			"0.02": 0.0,
			"0.021": 0.0,
			"0.022": 0.0,
			"0.023": 0.0,
			"0.024": 0.0,
			"0.025": 0.0
		}
	}
}
