{
	 "smiles": "OC(=O)C1=CC(=CC(=C1)[N+]([O-])=O)[N+]([O-])=O", 
	 "Tm": 479.15, 
	 "num_atms": 19, 
	 "gaussian": { 
		 "optdone": 1, 
		 "sigma_profile": "yes", 
		 "theory": "DFT", 
		 "functional": "B3LYP", 
		 "basiset": "6-31G**", 
		 "properties": { 
			 "R2extent": 5190.3914, 
			 "electric_dipole_moment_norm": 2.49468164903, 
			 "electric_quadrupole_moment_norm": 21.9318518673, 
			 "total_energy": -829.795843307, 
			 "HOMO_LUMO_gap": 0.17612, 
			 "cosmo_polarized_energy": -20.76, 
			 "cosmo_cavitation_energy": 26.53, 
			 "cosmo_dispersion_energy": -19.18, 
			 "cosmo_repulsion_energy": 1.49, 
			 "cosmo_total_nonelectrostatic_energy": 8.85, 
			 "SMD_solvation_energy": 10.43 
		},
		"coords": [
			{
				"x": 2.4040003201,
				"y": -5.315942067,
				"z": -0.2929555342,
				"element": "O" 
			},
			{
				"x": 1.1702449757,
				"y": -4.8099162653,
				"z": -0.0637544061,
				"element": "C" 
			},
			{
				"x": 0.265064982,
				"y": -5.5257173062,
				"z": 0.2865872291,
				"element": "O" 
			},
			{
				"x": 0.9872567139,
				"y": -3.325873712,
				"z": -0.2567883826,
				"element": "C" 
			},
			{
				"x": -0.3254778619,
				"y": -2.857816642,
				"z": -0.4021815054,
				"element": "C" 
			},
			{
				"x": -0.5439616691,
				"y": -1.4956954811,
				"z": -0.5650942692,
				"element": "C" 
			},
			{
				"x": 0.4918201011,
				"y": -0.5660932751,
				"z": -0.5692663919,
				"element": "C" 
			},
			{
				"x": 1.7798222652,
				"y": -1.0572972974,
				"z": -0.4025430007,
				"element": "C" 
			},
			{
				"x": 2.0480569956,
				"y": -2.4155378272,
				"z": -0.2464965319,
				"element": "C" 
			},
			{
				"x": 2.9094375068,
				"y": -0.1048667839,
				"z": -0.3873113754,
				"element": "N" 
			},
			{
				"x": 2.6448174355,
				"y": 1.0848295102,
				"z": -0.5235928973,
				"element": "O" 
			},
			{
				"x": 4.0359211071,
				"y": -0.5749300863,
				"z": -0.2419973854,
				"element": "O" 
			},
			{
				"x": -1.9304560808,
				"y": -1.0065977534,
				"z": -0.7350843133,
				"element": "N" 
			},
			{
				"x": -2.0839813411,
				"y": 0.2042410608,
				"z": -0.8668669626,
				"element": "O" 
			},
			{
				"x": -2.8251160924,
				"y": -1.8459384037,
				"z": -0.733098766,
				"element": "O" 
			},
			{
				"x": 2.981546643,
				"y": -4.6685425527,
				"z": -0.7203455714,
				"element": "H" 
			},
			{
				"x": -1.155131749,
				"y": -3.5536536668,
				"z": -0.3844595513,
				"element": "H" 
			},
			{
				"x": 0.3012631445,
				"y": 0.4915673127,
				"z": -0.6920248604,
				"element": "H" 
			},
			{
				"x": 3.0792726038,
				"y": -2.7122187635,
				"z": -0.0907255239,
				"element": "H" 
			}
		],
		 "valence_orbital": [ 
			{
				"type": "occ",
				"energy": -0.33102,
				"method": "rhf"
			},
			{
				"type": "occ",
				"energy": -0.32691,
				"method": "rhf"
			},
			{
				"type": "occ",
				"energy": -0.32441,
				"method": "rhf"
			},
			{
				"type": "occ",
				"energy": -0.32119,
				"method": "rhf"
			},
			{
				"type": "occ",
				"energy": -0.30613,
				"method": "rhf"
			},
			{
				"type": "unocc",
				"energy": -0.13001,
				"method": "rhf"
			},
			{
				"type": "unocc",
				"energy": -0.12083,
				"method": "rhf"
			},
			{
				"type": "unocc",
				"energy": -0.08335,
				"method": "rhf"
			},
			{
				"type": "unocc",
				"energy": -0.02761,
				"method": "rhf"
			},
			{
				"type": "unocc",
				"energy": 0.01621,
				"method": "rhf"
			}
		],
		"cosmo_sigma_profile": { 
			"-0.025": 0.0,
			"-0.024": 0.0,
			"-0.023": 0.0,
			"-0.022": 0.0,
			"-0.021": 0.14499586228,
			"-0.02": 1.27784999915,
			"-0.019": 1.01930478178,
			"-0.018": 1.22317146431,
			"-0.017": 1.09280485723,
			"-0.016": 0.784498943887,
			"-0.015": 1.06960201368,
			"-0.014": 1.02870056206,
			"-0.013": 1.49311540313,
			"-0.012": 1.4698888871,
			"-0.011": 0.506457742197,
			"-0.01": 1.29497970261,
			"-0.009": 3.76843774198,
			"-0.008": 5.6595680909,
			"-0.007": 7.60698603568,
			"-0.006": 11.9054254,
			"-0.005": 19.0363119198,
			"-0.004": 21.5540107308,
			"-0.003": 11.9761516023,
			"-0.002": 6.11912383513,
			"-0.001": 6.72795206016,
			"0.0": 6.09428555942,
			"0.001": 4.92767106167,
			"0.002": 6.39505237854,
			"0.003": 8.18385903072,
			"0.004": 7.07357476467,
			"0.005": 10.0373831291,
			"0.006": 18.0271730836,
			"0.007": 16.1458749849,
			"0.008": 11.5622007563,
			"0.009": 8.81564060235,
			"0.01": 5.23443071774,
			"0.011": 3.76101474683,
			"0.012": 1.29525884211,
			"0.013": 0.000873329009861,
			"0.014": 0.0,
			"0.015": 0.0,
			"0.016": 0.0,
			"0.017": 0.0,
			"0.018": 0.0,
			"0.019": 0.0,
			"0.02": 0.0,
			"0.021": 0.0,
			"0.022": 0.0,
			"0.023": 0.0,
			"0.024": 0.0,
			"0.025": 0.0
		}
	}
}
