{
	 "smiles": "CC1=CC(C)=C(C)C(=C1C)S(=O)(=O)NCC(O)=O", 
	 "Tm": 440.15, 
	 "num_atms": 35, 
	 "gaussian": { 
		 "optdone": 1, 
		 "sigma_profile": "yes", 
		 "theory": "DFT", 
		 "functional": "B3LYP", 
		 "basiset": "6-31G**", 
		 "properties": { 
			 "R2extent": 5740.4506, 
			 "electric_dipole_moment_norm": 4.56576839645, 
			 "electric_quadrupole_moment_norm": 24.8990701204, 
			 "total_energy": -1221.3063383, 
			 "HOMO_LUMO_gap": 0.2018, 
			 "cosmo_polarized_energy": -21.03, 
			 "cosmo_cavitation_energy": 37.75, 
			 "cosmo_dispersion_energy": -26.6, 
			 "cosmo_repulsion_energy": 2.0, 
			 "cosmo_total_nonelectrostatic_energy": 13.15, 
			 "SMD_solvation_energy": 7.23 
		},
		"coords": [
			{
				"x": -0.38061084,
				"y": -3.8035907608,
				"z": 1.5037226457,
				"element": "C" 
			},
			{
				"x": -0.3830545887,
				"y": -2.3533661129,
				"z": 1.0729188183,
				"element": "C" 
			},
			{
				"x": -1.1827380414,
				"y": -1.4460680394,
				"z": 1.7652613762,
				"element": "C" 
			},
			{
				"x": -1.2653054991,
				"y": -0.0936435337,
				"z": 1.4396764927,
				"element": "C" 
			},
			{
				"x": -2.1732352509,
				"y": 0.788121476,
				"z": 2.2719165512,
				"element": "C" 
			},
			{
				"x": -0.5164546869,
				"y": 0.4043893254,
				"z": 0.3495279612,
				"element": "C" 
			},
			{
				"x": -0.6443079512,
				"y": 1.8774722144,
				"z": 0.0090666319,
				"element": "C" 
			},
			{
				"x": 0.2940999554,
				"y": -0.5219769404,
				"z": -0.357684964,
				"element": "C" 
			},
			{
				"x": 0.3861989048,
				"y": -1.8960056617,
				"z": -0.0147152866,
				"element": "C" 
			},
			{
				"x": 1.2348557956,
				"y": -2.9088499208,
				"z": -0.7566062285,
				"element": "C" 
			},
			{
				"x": 1.2172189908,
				"y": 0.0142706317,
				"z": -1.8286240617,
				"element": "S" 
			},
			{
				"x": 0.9194607917,
				"y": 1.4117179197,
				"z": -2.1505204185,
				"element": "O" 
			},
			{
				"x": 1.1304859407,
				"y": -0.9966525033,
				"z": -2.8843027717,
				"element": "O" 
			},
			{
				"x": 2.8534725144,
				"y": -0.0925055272,
				"z": -1.2788866972,
				"element": "N" 
			},
			{
				"x": 3.3664924045,
				"y": 1.0335797332,
				"z": -0.4842184998,
				"element": "C" 
			},
			{
				"x": 4.5024114239,
				"y": 0.5840008729,
				"z": 0.4465494093,
				"element": "C" 
			},
			{
				"x": 4.5384181969,
				"y": -0.7379891644,
				"z": 0.6925948906,
				"element": "O" 
			},
			{
				"x": 5.2735577199,
				"y": 1.3656030844,
				"z": 0.94294424,
				"element": "O" 
			},
			{
				"x": 0.6006807733,
				"y": -4.1214482105,
				"z": 1.8754775797,
				"element": "H" 
			},
			{
				"x": -1.1021435664,
				"y": -3.963111737,
				"z": 2.3087816474,
				"element": "H" 
			},
			{
				"x": -0.6458364514,
				"y": -4.476086336,
				"z": 0.6810442274,
				"element": "H" 
			},
			{
				"x": -1.773906638,
				"y": -1.8127454027,
				"z": 2.6009016395,
				"element": "H" 
			},
			{
				"x": -2.6695263441,
				"y": 0.1957181329,
				"z": 3.0445499253,
				"element": "H" 
			},
			{
				"x": -2.9546740692,
				"y": 1.2625570426,
				"z": 1.6686740513,
				"element": "H" 
			},
			{
				"x": -1.6224334693,
				"y": 1.589088072,
				"z": 2.777498116,
				"element": "H" 
			},
			{
				"x": -1.2315048411,
				"y": 2.3924502664,
				"z": 0.7668743751,
				"element": "H" 
			},
			{
				"x": -1.1303326808,
				"y": 2.0255726561,
				"z": -0.9581746601,
				"element": "H" 
			},
			{
				"x": 0.3222457234,
				"y": 2.3779264313,
				"z": -0.0627480424,
				"element": "H" 
			},
			{
				"x": 0.6781053957,
				"y": -3.3411446345,
				"z": -1.594929066,
				"element": "H" 
			},
			{
				"x": 2.1424415439,
				"y": -2.4832694432,
				"z": -1.1782808244,
				"element": "H" 
			},
			{
				"x": 1.5217114945,
				"y": -3.7232794236,
				"z": -0.0897358415,
				"element": "H" 
			},
			{
				"x": 3.4064129811,
				"y": -0.2659746955,
				"z": -2.1189601765,
				"element": "H" 
			},
			{
				"x": 2.5619214078,
				"y": 1.4016458582,
				"z": 0.1609627355,
				"element": "H" 
			},
			{
				"x": 3.7135083565,
				"y": 1.8784894286,
				"z": -1.0842592009,
				"element": "H" 
			},
			{
				"x": 3.8265646035,
				"y": -1.1452950982,
				"z": 0.1615034256,
				"element": "H" 
			}
		],
		 "valence_orbital": [ 
			{
				"type": "occ",
				"energy": -0.31131,
				"method": "rhf"
			},
			{
				"type": "occ",
				"energy": -0.30221,
				"method": "rhf"
			},
			{
				"type": "occ",
				"energy": -0.27193,
				"method": "rhf"
			},
			{
				"type": "occ",
				"energy": -0.26784,
				"method": "rhf"
			},
			{
				"type": "occ",
				"energy": -0.24848,
				"method": "rhf"
			},
			{
				"type": "unocc",
				"energy": -0.04668,
				"method": "rhf"
			},
			{
				"type": "unocc",
				"energy": -0.02179,
				"method": "rhf"
			},
			{
				"type": "unocc",
				"energy": 0.00317,
				"method": "rhf"
			},
			{
				"type": "unocc",
				"energy": 0.04447,
				"method": "rhf"
			},
			{
				"type": "unocc",
				"energy": 0.05899,
				"method": "rhf"
			}
		],
		"cosmo_sigma_profile": { 
			"-0.025": 0.0,
			"-0.024": 0.0,
			"-0.023": 0.0,
			"-0.022": 0.0,
			"-0.021": 0.0,
			"-0.02": 0.0,
			"-0.019": 0.0,
			"-0.018": 0.0,
			"-0.017": 0.0,
			"-0.016": 0.536055840354,
			"-0.015": 1.60374504261,
			"-0.014": 1.72725981264,
			"-0.013": 1.45758455505,
			"-0.012": 1.42744327258,
			"-0.011": 1.27992885445,
			"-0.01": 2.54068381451,
			"-0.009": 4.32851436528,
			"-0.008": 7.73352038472,
			"-0.007": 8.28231764621,
			"-0.006": 9.01200560005,
			"-0.005": 15.0711561937,
			"-0.004": 24.8807818312,
			"-0.003": 26.2501780818,
			"-0.002": 26.5524126987,
			"-0.001": 27.0611337751,
			"0.0": 28.2347280146,
			"0.001": 14.7970967804,
			"0.002": 11.8917923517,
			"0.003": 11.6314182357,
			"0.004": 9.96573828233,
			"0.005": 5.5023984405,
			"0.006": 4.82487852852,
			"0.007": 5.15722935238,
			"0.008": 5.60032793907,
			"0.009": 8.32321960338,
			"0.01": 11.1804435801,
			"0.011": 12.2444278382,
			"0.012": 6.99720803231,
			"0.013": 1.42484640184,
			"0.014": 0.00170030097568,
			"0.015": 0.0,
			"0.016": 0.0,
			"0.017": 0.0,
			"0.018": 0.0,
			"0.019": 0.0,
			"0.02": 0.0,
			"0.021": 0.0,
			"0.022": 0.0,
			"0.023": 0.0,
			"0.024": 0.0,
			"0.025": 0.0
		}
	}
}
