{
	 "smiles": "OC1CCCC2=C(O)C=CC=C12", 
	 "Tm": 406.15, 
	 "num_atms": 24, 
	 "gaussian": { 
		 "optdone": 1, 
		 "sigma_profile": "yes", 
		 "theory": "DFT", 
		 "functional": "B3LYP", 
		 "basiset": "6-31G**", 
		 "properties": { 
			 "R2extent": 2556.2762, 
			 "electric_dipole_moment_norm": 2.16770205979, 
			 "electric_quadrupole_moment_norm": 12.3717141133, 
			 "total_energy": -538.747257969, 
			 "HOMO_LUMO_gap": 0.21372, 
			 "cosmo_polarized_energy": -11.04, 
			 "cosmo_cavitation_energy": 25.41, 
			 "cosmo_dispersion_energy": -19.29, 
			 "cosmo_repulsion_energy": 1.52, 
			 "cosmo_total_nonelectrostatic_energy": 7.64, 
			 "SMD_solvation_energy": 3.73 
		},
		"coords": [
			{
				"x": 1.0373922425,
				"y": -0.3109269606,
				"z": 2.2412289377,
				"element": "O" 
			},
			{
				"x": 0.9496888453,
				"y": 0.9305103677,
				"z": 1.5445906134,
				"element": "C" 
			},
			{
				"x": -0.2491563327,
				"y": 1.7623920488,
				"z": 2.0089126494,
				"element": "C" 
			},
			{
				"x": -0.3243112133,
				"y": 3.0640712724,
				"z": 1.2081732522,
				"element": "C" 
			},
			{
				"x": -0.5713351361,
				"y": 2.7744504028,
				"z": -0.2799607623,
				"element": "C" 
			},
			{
				"x": 0.261135612,
				"y": 1.6226702843,
				"z": -0.8177172881,
				"element": "C" 
			},
			{
				"x": 0.3092905919,
				"y": 1.3950380779,
				"z": -2.2068979523,
				"element": "C" 
			},
			{
				"x": -0.3673029299,
				"y": 2.1848171288,
				"z": -3.0983244115,
				"element": "O" 
			},
			{
				"x": 1.0510611935,
				"y": 0.3413351036,
				"z": -2.7447821736,
				"element": "C" 
			},
			{
				"x": 1.746558952,
				"y": -0.5111517114,
				"z": -1.8922396674,
				"element": "C" 
			},
			{
				"x": 1.7029037612,
				"y": -0.3150983064,
				"z": -0.5129343208,
				"element": "C" 
			},
			{
				"x": 0.9644108796,
				"y": 0.744522083,
				"z": 0.0289272223,
				"element": "C" 
			},
			{
				"x": 0.3288142457,
				"y": -0.8776463348,
				"z": 1.905155861,
				"element": "H" 
			},
			{
				"x": 1.8658368223,
				"y": 1.4617109633,
				"z": 1.8384158991,
				"element": "H" 
			},
			{
				"x": -0.1562350017,
				"y": 1.9559388479,
				"z": 3.0822984656,
				"element": "H" 
			},
			{
				"x": -1.1705840074,
				"y": 1.1795685143,
				"z": 1.8639382026,
				"element": "H" 
			},
			{
				"x": -1.1128291746,
				"y": 3.718537988,
				"z": 1.5945940021,
				"element": "H" 
			},
			{
				"x": 0.6208058755,
				"y": 3.6111131896,
				"z": 1.322139678,
				"element": "H" 
			},
			{
				"x": -1.6400225313,
				"y": 2.5502270013,
				"z": -0.4269595063,
				"element": "H" 
			},
			{
				"x": -0.3702505747,
				"y": 3.690405196,
				"z": -0.856306562,
				"element": "H" 
			},
			{
				"x": -0.8532402561,
				"y": 2.8684774928,
				"z": -2.6215514602,
				"element": "H" 
			},
			{
				"x": 1.0631265165,
				"y": 0.2098734927,
				"z": -3.8217272801,
				"element": "H" 
			},
			{
				"x": 2.3227858089,
				"y": -1.3334350506,
				"z": -2.3069496573,
				"element": "H" 
			},
			{
				"x": 2.233955811,
				"y": -0.9797010913,
				"z": 0.1598762584,
				"element": "H" 
			}
		],
		 "valence_orbital": [ 
			{
				"type": "occ",
				"energy": -0.32535,
				"method": "rhf"
			},
			{
				"type": "occ",
				"energy": -0.30975,
				"method": "rhf"
			},
			{
				"type": "occ",
				"energy": -0.26871,
				"method": "rhf"
			},
			{
				"type": "occ",
				"energy": -0.23697,
				"method": "rhf"
			},
			{
				"type": "occ",
				"energy": -0.21496,
				"method": "rhf"
			},
			{
				"type": "unocc",
				"energy": -0.00124,
				"method": "rhf"
			},
			{
				"type": "unocc",
				"energy": 0.01291,
				"method": "rhf"
			},
			{
				"type": "unocc",
				"energy": 0.06715,
				"method": "rhf"
			},
			{
				"type": "unocc",
				"energy": 0.09149,
				"method": "rhf"
			},
			{
				"type": "unocc",
				"energy": 0.09597,
				"method": "rhf"
			}
		],
		"cosmo_sigma_profile": { 
			"-0.025": 0.0,
			"-0.024": 0.0,
			"-0.023": 0.0,
			"-0.022": 0.0,
			"-0.021": 0.0,
			"-0.02": 0.0,
			"-0.019": 0.0,
			"-0.018": 0.0,
			"-0.017": 0.0,
			"-0.016": 0.337340011734,
			"-0.015": 1.20838897547,
			"-0.014": 1.36608955023,
			"-0.013": 1.37610099516,
			"-0.012": 2.09367375155,
			"-0.011": 1.30938768513,
			"-0.01": 1.91347778736,
			"-0.009": 2.92003040098,
			"-0.008": 2.05344769521,
			"-0.007": 2.27155157331,
			"-0.006": 3.47987993459,
			"-0.005": 8.00247461108,
			"-0.004": 13.7128439144,
			"-0.003": 21.9104363937,
			"-0.002": 22.1347723523,
			"-0.001": 18.840504404,
			"0.0": 16.4331283396,
			"0.001": 9.54195319318,
			"0.002": 7.82859370166,
			"0.003": 7.32992118457,
			"0.004": 11.0267249218,
			"0.005": 10.2837408977,
			"0.006": 9.41086746274,
			"0.007": 5.3663638118,
			"0.008": 2.39422181879,
			"0.009": 2.65798436414,
			"0.01": 2.44510051472,
			"0.011": 3.02698437953,
			"0.012": 2.56524389732,
			"0.013": 1.26936281716,
			"0.014": 2.03008198289,
			"0.015": 0.438339290238,
			"0.016": 0.0,
			"0.017": 0.0,
			"0.018": 0.0,
			"0.019": 0.0,
			"0.02": 0.0,
			"0.021": 0.0,
			"0.022": 0.0,
			"0.023": 0.0,
			"0.024": 0.0,
			"0.025": 0.0
		}
	}
}
