{
	 "smiles": "BrC1=CC(=CC=C1)N1CCCC1=O", 
	 "Tm": 343.15, 
	 "num_atms": 23, 
	 "gaussian": { 
		 "optdone": 1, 
		 "sigma_profile": "yes", 
		 "theory": "DFT", 
		 "functional": "B3LYP", 
		 "basiset": "6-31G**", 
		 "properties": { 
			 "R2extent": 5668.8792, 
			 "electric_dipole_moment_norm": 5.47795767965, 
			 "electric_quadrupole_moment_norm": 13.3691958573, 
			 "total_energy": -3088.49141388, 
			 "HOMO_LUMO_gap": 0.20426, 
			 "cosmo_polarized_energy": -10.98, 
			 "cosmo_cavitation_energy": 28.16, 
			 "cosmo_dispersion_energy": -21.5, 
			 "cosmo_repulsion_energy": 1.7, 
			 "cosmo_total_nonelectrostatic_energy": 8.36, 
			 "SMD_solvation_energy": 3.54 
		},
		"coords": [
			{
				"x": -4.6587350881,
				"y": 0.552187431,
				"z": 1.5985481762,
				"element": "Br" 
			},
			{
				"x": -2.9790082388,
				"y": -0.2586112434,
				"z": 1.1664065816,
				"element": "C" 
			},
			{
				"x": -2.2886827407,
				"y": 0.198570382,
				"z": 0.0500919406,
				"element": "C" 
			},
			{
				"x": -1.0509649598,
				"y": -0.3897185318,
				"z": -0.2748326018,
				"element": "C" 
			},
			{
				"x": -0.5512323158,
				"y": -1.4235807268,
				"z": 0.5370939468,
				"element": "C" 
			},
			{
				"x": -1.2709817788,
				"y": -1.8544176746,
				"z": 1.6501290115,
				"element": "C" 
			},
			{
				"x": -2.4951950985,
				"y": -1.2789202899,
				"z": 1.9833078497,
				"element": "C" 
			},
			{
				"x": -0.2999248763,
				"y": 0.0477554836,
				"z": -1.3889673443,
				"element": "N" 
			},
			{
				"x": 1.0646463825,
				"y": -0.4402063524,
				"z": -1.6297318093,
				"element": "C" 
			},
			{
				"x": 1.6029379835,
				"y": 0.486652919,
				"z": -2.7338776528,
				"element": "C" 
			},
			{
				"x": 0.3404119722,
				"y": 0.9201060845,
				"z": -3.4842749402,
				"element": "C" 
			},
			{
				"x": -0.768571608,
				"y": 0.835707224,
				"z": -2.4392330895,
				"element": "C" 
			},
			{
				"x": -1.8694646687,
				"y": 1.3504838903,
				"z": -2.5266696849,
				"element": "O" 
			},
			{
				"x": -2.6913576625,
				"y": 0.983120328,
				"z": -0.5717123507,
				"element": "H" 
			},
			{
				"x": 0.3908230818,
				"y": -1.9037530146,
				"z": 0.3034226643,
				"element": "H" 
			},
			{
				"x": -0.8700086516,
				"y": -2.6547823307,
				"z": 2.2650490715,
				"element": "H" 
			},
			{
				"x": -3.0580794938,
				"y": -1.6109749361,
				"z": 2.8473093258,
				"element": "H" 
			},
			{
				"x": 1.0457825912,
				"y": -1.4904159206,
				"z": -1.9535819128,
				"element": "H" 
			},
			{
				"x": 1.657507171,
				"y": -0.3824004587,
				"z": -0.7123959938,
				"element": "H" 
			},
			{
				"x": 2.3403209543,
				"y": -0.0163228585,
				"z": -3.3635591004,
				"element": "H" 
			},
			{
				"x": 2.0876612206,
				"y": 1.3564088987,
				"z": -2.2795396387,
				"element": "H" 
			},
			{
				"x": 0.3803619664,
				"y": 1.9251326733,
				"z": -3.9086404464,
				"element": "H" 
			},
			{
				"x": 0.0864538582,
				"y": 0.2296790236,
				"z": -4.2985420024,
				"element": "H" 
			}
		],
		 "valence_orbital": [ 
			{
				"type": "occ",
				"energy": -0.29108,
				"method": "rhf"
			},
			{
				"type": "occ",
				"energy": -0.27899,
				"method": "rhf"
			},
			{
				"type": "occ",
				"energy": -0.25526,
				"method": "rhf"
			},
			{
				"type": "occ",
				"energy": -0.24177,
				"method": "rhf"
			},
			{
				"type": "occ",
				"energy": -0.22469,
				"method": "rhf"
			},
			{
				"type": "unocc",
				"energy": -0.02043,
				"method": "rhf"
			},
			{
				"type": "unocc",
				"energy": -0.01066,
				"method": "rhf"
			},
			{
				"type": "unocc",
				"energy": 0.01378,
				"method": "rhf"
			},
			{
				"type": "unocc",
				"energy": 0.03472,
				"method": "rhf"
			},
			{
				"type": "unocc",
				"energy": 0.07474,
				"method": "rhf"
			}
		],
		"cosmo_sigma_profile": { 
			"-0.025": 0.0,
			"-0.024": 0.0,
			"-0.023": 0.0,
			"-0.022": 0.0,
			"-0.021": 0.0,
			"-0.02": 0.0,
			"-0.019": 0.0,
			"-0.018": 0.0,
			"-0.017": 0.0,
			"-0.016": 0.0,
			"-0.015": 0.0,
			"-0.014": 0.0,
			"-0.013": 0.0,
			"-0.012": 0.0,
			"-0.011": 0.0,
			"-0.01": 0.0,
			"-0.009": 0.0,
			"-0.008": 0.0593918230059,
			"-0.007": 4.10294408151,
			"-0.006": 12.9498410609,
			"-0.005": 21.5773253803,
			"-0.004": 27.2626163832,
			"-0.003": 18.3338058403,
			"-0.002": 16.2836226288,
			"-0.001": 15.2096465281,
			"0.0": 11.3383071907,
			"0.001": 12.9757829159,
			"0.002": 16.5860206883,
			"0.003": 22.181450593,
			"0.004": 20.5366033435,
			"0.005": 11.3346924411,
			"0.006": 1.55319635977,
			"0.007": 2.23898770872,
			"0.008": 0.97641514398,
			"0.009": 1.58542376935,
			"0.01": 1.57930437273,
			"0.011": 2.31551414496,
			"0.012": 2.62351724662,
			"0.013": 2.91827810415,
			"0.014": 1.08117497607,
			"0.015": 0.0,
			"0.016": 0.0,
			"0.017": 0.0,
			"0.018": 0.0,
			"0.019": 0.0,
			"0.02": 0.0,
			"0.021": 0.0,
			"0.022": 0.0,
			"0.023": 0.0,
			"0.024": 0.0,
			"0.025": 0.0
		}
	}
}
