{
	 "smiles": "CCN1C(N)=NC2=C1C=CC(Cl)=C2", 
	 "Tm": 443.15, 
	 "num_atms": 23, 
	 "gaussian": { 
		 "optdone": 1, 
		 "sigma_profile": "yes", 
		 "theory": "DFT", 
		 "functional": "B3LYP", 
		 "basiset": "6-31G**", 
		 "properties": { 
			 "R2extent": 4031.4938, 
			 "electric_dipole_moment_norm": 6.34685127209, 
			 "electric_quadrupole_moment_norm": 12.3222339212, 
			 "total_energy": -973.456008125, 
			 "HOMO_LUMO_gap": 0.198, 
			 "cosmo_polarized_energy": -15.14, 
			 "cosmo_cavitation_energy": 28.49, 
			 "cosmo_dispersion_energy": -20.83, 
			 "cosmo_repulsion_energy": 1.65, 
			 "cosmo_total_nonelectrostatic_energy": 9.31, 
			 "SMD_solvation_energy": 2.37 
		},
		"coords": [
			{
				"x": -0.9970898526,
				"y": 2.8056640311,
				"z": -0.2244536764,
				"element": "C" 
			},
			{
				"x": -0.7644455159,
				"y": 1.5442023848,
				"z": 0.6138708771,
				"element": "C" 
			},
			{
				"x": -0.0052312191,
				"y": 0.5155438174,
				"z": -0.0832142846,
				"element": "N" 
			},
			{
				"x": 1.3555304402,
				"y": 0.2818682107,
				"z": -0.0042376991,
				"element": "C" 
			},
			{
				"x": 2.1660678104,
				"y": 1.0624432815,
				"z": 0.8028454262,
				"element": "N" 
			},
			{
				"x": 1.7656954631,
				"y": -0.7636954279,
				"z": -0.6851723036,
				"element": "N" 
			},
			{
				"x": 0.6119982502,
				"y": -1.2751082752,
				"z": -1.2602653065,
				"element": "C" 
			},
			{
				"x": -0.5105860542,
				"y": -0.4844342685,
				"z": -0.911688536,
				"element": "C" 
			},
			{
				"x": -1.7948071478,
				"y": -0.7692037699,
				"z": -1.3657912493,
				"element": "C" 
			},
			{
				"x": -1.9512081405,
				"y": -1.8856006212,
				"z": -2.1904596598,
				"element": "C" 
			},
			{
				"x": -0.8390458679,
				"y": -2.6682324709,
				"z": -2.5362539461,
				"element": "C" 
			},
			{
				"x": -1.0910444686,
				"y": -4.0653800352,
				"z": -3.5857951204,
				"element": "Cl" 
			},
			{
				"x": 0.4496546198,
				"y": -2.3893800384,
				"z": -2.0886233316,
				"element": "C" 
			},
			{
				"x": -1.5850025457,
				"y": 3.5346123725,
				"z": 0.3422982281,
				"element": "H" 
			},
			{
				"x": -1.5377796111,
				"y": 2.5691070403,
				"z": -1.1452340349,
				"element": "H" 
			},
			{
				"x": -0.0500696518,
				"y": 3.2779592764,
				"z": -0.5058657703,
				"element": "H" 
			},
			{
				"x": -1.7217614623,
				"y": 1.1041269775,
				"z": 0.9124990879,
				"element": "H" 
			},
			{
				"x": -0.2246278975,
				"y": 1.7810928018,
				"z": 1.5361456511,
				"element": "H" 
			},
			{
				"x": 3.1348327111,
				"y": 0.7853317096,
				"z": 0.7024318827,
				"element": "H" 
			},
			{
				"x": 2.0521147297,
				"y": 2.0628684411,
				"z": 0.6938226778,
				"element": "H" 
			},
			{
				"x": -2.6527541992,
				"y": -0.1596651301,
				"z": -1.0989443197,
				"element": "H" 
			},
			{
				"x": -2.930888039,
				"y": -2.1525679202,
				"z": -2.5692557484,
				"element": "H" 
			},
			{
				"x": 1.2944476488,
				"y": -3.0080523872,
				"z": -2.3667588441,
				"element": "H" 
			}
		],
		 "valence_orbital": [ 
			{
				"type": "occ",
				"energy": -0.2934,
				"method": "rhf"
			},
			{
				"type": "occ",
				"energy": -0.28667,
				"method": "rhf"
			},
			{
				"type": "occ",
				"energy": -0.27242,
				"method": "rhf"
			},
			{
				"type": "occ",
				"energy": -0.21983,
				"method": "rhf"
			},
			{
				"type": "occ",
				"energy": -0.20693,
				"method": "rhf"
			},
			{
				"type": "unocc",
				"energy": -0.00893,
				"method": "rhf"
			},
			{
				"type": "unocc",
				"energy": 0.01716,
				"method": "rhf"
			},
			{
				"type": "unocc",
				"energy": 0.04201,
				"method": "rhf"
			},
			{
				"type": "unocc",
				"energy": 0.04433,
				"method": "rhf"
			},
			{
				"type": "unocc",
				"energy": 0.0705,
				"method": "rhf"
			}
		],
		"cosmo_sigma_profile": { 
			"-0.025": 0.0,
			"-0.024": 0.0,
			"-0.023": 0.0,
			"-0.022": 0.0,
			"-0.021": 0.0,
			"-0.02": 0.0,
			"-0.019": 0.0,
			"-0.018": 0.0,
			"-0.017": 0.0,
			"-0.016": 0.0,
			"-0.015": 0.0,
			"-0.014": 0.348151166825,
			"-0.013": 2.12430976375,
			"-0.012": 2.18117903902,
			"-0.011": 2.9676433026,
			"-0.01": 3.90740266228,
			"-0.009": 3.044231235,
			"-0.008": 1.71867106312,
			"-0.007": 5.31954736417,
			"-0.006": 12.4739346625,
			"-0.005": 10.6757158001,
			"-0.004": 16.3120289324,
			"-0.003": 17.2733961668,
			"-0.002": 13.5273935322,
			"-0.001": 13.5080325854,
			"0.0": 17.4826583262,
			"0.001": 13.06743091,
			"0.002": 11.9230518078,
			"0.003": 17.5455185135,
			"0.004": 20.5188741717,
			"0.005": 20.1016552128,
			"0.006": 6.28297251347,
			"0.007": 2.37205477832,
			"0.008": 2.27141985847,
			"0.009": 1.0947989247,
			"0.01": 2.21358093132,
			"0.011": 1.92372601431,
			"0.012": 1.59602512986,
			"0.013": 0.56376885542,
			"0.014": 1.2708995632,
			"0.015": 1.19515166626,
			"0.016": 0.848432967836,
			"0.017": 0.827100860329,
			"0.018": 0.196384833209,
			"0.019": 0.0,
			"0.02": 0.0,
			"0.021": 0.0,
			"0.022": 0.0,
			"0.023": 0.0,
			"0.024": 0.0,
			"0.025": 0.0
		}
	}
}
