{
	 "smiles": "OC(=O)CCC1=CC=C(C=C1)C(O)=O", 
	 "Tm": 562.65, 
	 "num_atms": 24, 
	 "gaussian": { 
		 "optdone": 1, 
		 "sigma_profile": "yes", 
		 "theory": "DFT", 
		 "functional": "B3LYP", 
		 "basiset": "6-31G**", 
		 "properties": { 
			 "R2extent": 4024.4822, 
			 "electric_dipole_moment_norm": 6.15767085999, 
			 "electric_quadrupole_moment_norm": 23.8791685875, 
			 "total_energy": -688.018692142, 
			 "HOMO_LUMO_gap": 0.20932, 
			 "cosmo_polarized_energy": -19.98, 
			 "cosmo_cavitation_energy": 28.89, 
			 "cosmo_dispersion_energy": -20.78, 
			 "cosmo_repulsion_energy": 1.65, 
			 "cosmo_total_nonelectrostatic_energy": 9.76, 
			 "SMD_solvation_energy": 6.97 
		},
		"coords": [
			{
				"x": 2.3735393421,
				"y": -2.5460002713,
				"z": -0.2396516232,
				"element": "O" 
			},
			{
				"x": 2.2301486656,
				"y": -1.3844924008,
				"z": 0.4382962657,
				"element": "C" 
			},
			{
				"x": 2.1652570034,
				"y": -1.3391665933,
				"z": 1.6482714138,
				"element": "O" 
			},
			{
				"x": 2.2099603029,
				"y": -0.1934035307,
				"z": -0.4981863228,
				"element": "C" 
			},
			{
				"x": 1.647460405,
				"y": 1.0841493231,
				"z": 0.1518698814,
				"element": "C" 
			},
			{
				"x": 0.1406545602,
				"y": 1.0711062303,
				"z": 0.3115259133,
				"element": "C" 
			},
			{
				"x": -0.4652509004,
				"y": 0.5526791574,
				"z": 1.4670984639,
				"element": "C" 
			},
			{
				"x": -1.8502579678,
				"y": 0.5321607819,
				"z": 1.5968779319,
				"element": "C" 
			},
			{
				"x": -2.6701162141,
				"y": 1.0122093206,
				"z": 0.5666868248,
				"element": "C" 
			},
			{
				"x": -2.0712343472,
				"y": 1.5435687928,
				"z": -0.5841747149,
				"element": "C" 
			},
			{
				"x": -0.6835264482,
				"y": 1.5727515593,
				"z": -0.7053770626,
				"element": "C" 
			},
			{
				"x": -4.1532650531,
				"y": 0.9653664053,
				"z": 0.7726595088,
				"element": "C" 
			},
			{
				"x": -4.9290572064,
				"y": 1.0428328088,
				"z": -0.3440646971,
				"element": "O" 
			},
			{
				"x": -4.6725139544,
				"y": 0.8620496456,
				"z": 1.8591912828,
				"element": "O" 
			},
			{
				"x": 2.4138588917,
				"y": -3.2498536151,
				"z": 0.4300268709,
				"element": "H" 
			},
			{
				"x": 1.659058133,
				"y": -0.4644649411,
				"z": -1.4042229324,
				"element": "H" 
			},
			{
				"x": 3.2498710406,
				"y": -0.028958068,
				"z": -0.8107010338,
				"element": "H" 
			},
			{
				"x": 1.9363519214,
				"y": 1.9379775058,
				"z": -0.4700353707,
				"element": "H" 
			},
			{
				"x": 2.1255199053,
				"y": 1.2143172815,
				"z": 1.1270776728,
				"element": "H" 
			},
			{
				"x": 0.1616076286,
				"y": 0.1597930174,
				"z": 2.2609301245,
				"element": "H" 
			},
			{
				"x": -2.3223936513,
				"y": 0.1462947585,
				"z": 2.4940805871,
				"element": "H" 
			},
			{
				"x": -2.674767914,
				"y": 1.9822778623,
				"z": -1.3757612654,
				"element": "H" 
			},
			{
				"x": -0.2341884113,
				"y": 2.004994368,
				"z": -1.596118329,
				"element": "H" 
			},
			{
				"x": -4.3804157315,
				"y": 0.9549106015,
				"z": -1.1354993898,
				"element": "H" 
			}
		],
		 "valence_orbital": [ 
			{
				"type": "occ",
				"energy": -0.31235,
				"method": "rhf"
			},
			{
				"type": "occ",
				"energy": -0.28807,
				"method": "rhf"
			},
			{
				"type": "occ",
				"energy": -0.27224,
				"method": "rhf"
			},
			{
				"type": "occ",
				"energy": -0.26693,
				"method": "rhf"
			},
			{
				"type": "occ",
				"energy": -0.25751,
				"method": "rhf"
			},
			{
				"type": "unocc",
				"energy": -0.04819,
				"method": "rhf"
			},
			{
				"type": "unocc",
				"energy": -0.02015,
				"method": "rhf"
			},
			{
				"type": "unocc",
				"energy": -0.00198,
				"method": "rhf"
			},
			{
				"type": "unocc",
				"energy": 0.04743,
				"method": "rhf"
			},
			{
				"type": "unocc",
				"energy": 0.06458,
				"method": "rhf"
			}
		],
		"cosmo_sigma_profile": { 
			"-0.025": 0.0,
			"-0.024": 0.0,
			"-0.023": 0.0,
			"-0.022": 0.0,
			"-0.021": 0.0,
			"-0.02": 0.0,
			"-0.019": 0.154390846317,
			"-0.018": 1.49596007917,
			"-0.017": 1.73313117622,
			"-0.016": 1.87876811904,
			"-0.015": 1.95763795188,
			"-0.014": 1.02394940758,
			"-0.013": 1.48087493106,
			"-0.012": 2.36131059677,
			"-0.011": 2.10077158845,
			"-0.01": 1.91706884556,
			"-0.009": 1.79148158028,
			"-0.008": 2.04886146976,
			"-0.007": 5.42904036736,
			"-0.006": 10.0999209174,
			"-0.005": 15.7108865581,
			"-0.004": 16.9019727249,
			"-0.003": 18.3756252758,
			"-0.002": 15.9833444503,
			"-0.001": 14.1388276025,
			"0.0": 10.4645837186,
			"0.001": 10.8157142999,
			"0.002": 12.3188170386,
			"0.003": 16.6501722305,
			"0.004": 10.2964218908,
			"0.005": 5.79632304901,
			"0.006": 5.18702459855,
			"0.007": 4.13350447952,
			"0.008": 6.11161946942,
			"0.009": 6.18786189226,
			"0.01": 6.19021732393,
			"0.011": 8.90868172896,
			"0.012": 7.44071866725,
			"0.013": 1.99847429666,
			"0.014": 0.154908848605,
			"0.015": 0.0,
			"0.016": 0.0,
			"0.017": 0.0,
			"0.018": 0.0,
			"0.019": 0.0,
			"0.02": 0.0,
			"0.021": 0.0,
			"0.022": 0.0,
			"0.023": 0.0,
			"0.024": 0.0,
			"0.025": 0.0
		}
	}
}
