{
	 "smiles": "CC(C)(C)SC1=CN=C(C=C1)C#N", 
	 "Tm": 334.15, 
	 "num_atms": 25, 
	 "gaussian": { 
		 "optdone": 1, 
		 "sigma_profile": "yes", 
		 "theory": "DFT", 
		 "functional": "B3LYP", 
		 "basiset": "6-31G**", 
		 "properties": { 
			 "R2extent": 5204.5143, 
			 "electric_dipole_moment_norm": 5.71615356774, 
			 "electric_quadrupole_moment_norm": 32.0478310222, 
			 "total_energy": -895.970563109, 
			 "HOMO_LUMO_gap": 0.16754, 
			 "cosmo_polarized_energy": -11.14, 
			 "cosmo_cavitation_energy": 30.54, 
			 "cosmo_dispersion_energy": -21.15, 
			 "cosmo_repulsion_energy": 1.62, 
			 "cosmo_total_nonelectrostatic_energy": 11.01, 
			 "SMD_solvation_energy": 4.78 
		},
		"coords": [
			{
				"x": -0.8581857825,
				"y": 0.481349298,
				"z": 0.2040615172,
				"element": "C" 
			},
			{
				"x": 0.5516403014,
				"y": 0.6021370945,
				"z": -0.3846318142,
				"element": "C" 
			},
			{
				"x": 0.4980195484,
				"y": 0.8125920611,
				"z": -1.9016501112,
				"element": "C" 
			},
			{
				"x": 1.3249123725,
				"y": 1.7440872217,
				"z": 0.2929816653,
				"element": "C" 
			},
			{
				"x": 1.5807942574,
				"y": -0.9284164227,
				"z": 0.0394501235,
				"element": "S" 
			},
			{
				"x": 0.697283055,
				"y": -2.2764408374,
				"z": -0.7339744052,
				"element": "C" 
			},
			{
				"x": 1.00760652,
				"y": -2.6805041908,
				"z": -2.0459414151,
				"element": "C" 
			},
			{
				"x": 0.4278656612,
				"y": -3.7065682317,
				"z": -2.6687381266,
				"element": "N" 
			},
			{
				"x": -0.502456574,
				"y": -4.3954554657,
				"z": -1.9853866446,
				"element": "C" 
			},
			{
				"x": -0.8800827076,
				"y": -4.0971313342,
				"z": -0.669554069,
				"element": "C" 
			},
			{
				"x": -0.2640810519,
				"y": -3.0195821704,
				"z": -0.038125244,
				"element": "C" 
			},
			{
				"x": -1.1249474296,
				"y": -5.5027943513,
				"z": -2.6713630267,
				"element": "C" 
			},
			{
				"x": -1.6477165037,
				"y": -6.3989817776,
				"z": -3.1948819361,
				"element": "N" 
			},
			{
				"x": -0.8256790164,
				"y": 0.3414025108,
				"z": 1.2882687437,
				"element": "H" 
			},
			{
				"x": -1.4242464182,
				"y": 1.3971878535,
				"z": -0.0057118935,
				"element": "H" 
			},
			{
				"x": -1.4096680986,
				"y": -0.354013657,
				"z": -0.2372917488,
				"element": "H" 
			},
			{
				"x": -0.0130880128,
				"y": -0.0119223299,
				"z": -2.4071701713,
				"element": "H" 
			},
			{
				"x": -0.0576318879,
				"y": 1.7314427782,
				"z": -2.1256628351,
				"element": "H" 
			},
			{
				"x": 1.5014957583,
				"y": 0.9087433092,
				"z": -2.3253688785,
				"element": "H" 
			},
			{
				"x": 1.3870353297,
				"y": 1.599593744,
				"z": 1.3758489495,
				"element": "H" 
			},
			{
				"x": 2.3408180146,
				"y": 1.8310606084,
				"z": -0.103994882,
				"element": "H" 
			},
			{
				"x": 0.8070833577,
				"y": 2.6917523425,
				"z": 0.1072803547,
				"element": "H" 
			},
			{
				"x": 1.769147995,
				"y": -2.1436623892,
				"z": -2.6064059284,
				"element": "H" 
			},
			{
				"x": -1.6293136856,
				"y": -4.6977332436,
				"z": -0.1652477166,
				"element": "H" 
			},
			{
				"x": -0.5168050025,
				"y": -2.7582424203,
				"z": 0.984109493,
				"element": "H" 
			}
		],
		 "valence_orbital": [ 
			{
				"type": "occ",
				"energy": -0.32948,
				"method": "rhf"
			},
			{
				"type": "occ",
				"energy": -0.30999,
				"method": "rhf"
			},
			{
				"type": "occ",
				"energy": -0.28794,
				"method": "rhf"
			},
			{
				"type": "occ",
				"energy": -0.27423,
				"method": "rhf"
			},
			{
				"type": "occ",
				"energy": -0.24394,
				"method": "rhf"
			},
			{
				"type": "unocc",
				"energy": -0.0764,
				"method": "rhf"
			},
			{
				"type": "unocc",
				"energy": -0.04835,
				"method": "rhf"
			},
			{
				"type": "unocc",
				"energy": 0.02485,
				"method": "rhf"
			},
			{
				"type": "unocc",
				"energy": 0.02955,
				"method": "rhf"
			},
			{
				"type": "unocc",
				"energy": 0.04507,
				"method": "rhf"
			}
		],
		"cosmo_sigma_profile": { 
			"-0.025": 0.0,
			"-0.024": 0.0,
			"-0.023": 0.0,
			"-0.022": 0.0,
			"-0.021": 0.0,
			"-0.02": 0.0,
			"-0.019": 0.0,
			"-0.018": 0.0,
			"-0.017": 0.0,
			"-0.016": 0.0,
			"-0.015": 0.0,
			"-0.014": 0.0,
			"-0.013": 0.0,
			"-0.012": 0.0,
			"-0.011": 0.0,
			"-0.01": 0.122038765535,
			"-0.009": 2.79066385236,
			"-0.008": 4.75187279019,
			"-0.007": 5.73497817168,
			"-0.006": 4.50371233258,
			"-0.005": 5.59945273604,
			"-0.004": 17.5709176994,
			"-0.003": 30.7191759712,
			"-0.002": 33.2329556552,
			"-0.001": 31.5624803497,
			"0.0": 30.9643487581,
			"0.001": 12.7461446989,
			"0.002": 6.73361408192,
			"0.003": 7.59410311771,
			"0.004": 6.05165198875,
			"0.005": 7.49148256897,
			"0.006": 7.38903965567,
			"0.007": 6.45200544562,
			"0.008": 6.42769917634,
			"0.009": 4.83138717753,
			"0.01": 3.98755178207,
			"0.011": 3.32935598947,
			"0.012": 2.53914634327,
			"0.013": 1.02948851956,
			"0.014": 0.201671244242,
			"0.015": 0.0,
			"0.016": 0.0,
			"0.017": 0.0,
			"0.018": 0.0,
			"0.019": 0.0,
			"0.02": 0.0,
			"0.021": 0.0,
			"0.022": 0.0,
			"0.023": 0.0,
			"0.024": 0.0,
			"0.025": 0.0
		}
	}
}
