{
	 "smiles": "CCOC1=CC=C(OC2=CC=C(C=C2)S(Cl)(=O)=O)C=C1", 
	 "Tm": 362.15, 
	 "num_atms": 33, 
	 "gaussian": { 
		 "optdone": 1, 
		 "sigma_profile": "yes", 
		 "theory": "DFT", 
		 "functional": "B3LYP", 
		 "basiset": "6-31G**", 
		 "properties": { 
			 "R2extent": 13110.5211, 
			 "electric_dipole_moment_norm": 8.17122701802, 
			 "electric_quadrupole_moment_norm": 29.9314284617, 
			 "total_energy": -1700.52041336, 
			 "HOMO_LUMO_gap": 0.15153, 
			 "cosmo_polarized_energy": -12.66, 
			 "cosmo_cavitation_energy": 41.55, 
			 "cosmo_dispersion_energy": -30.24, 
			 "cosmo_repulsion_energy": 2.31, 
			 "cosmo_total_nonelectrostatic_energy": 13.62, 
			 "SMD_solvation_energy": 6.29 
		},
		"coords": [
			{
				"x": -0.3613757659,
				"y": 2.2059380263,
				"z": 6.0784258951,
				"element": "C" 
			},
			{
				"x": -0.201866438,
				"y": 1.1246665748,
				"z": 5.0245109672,
				"element": "C" 
			},
			{
				"x": 0.3713764367,
				"y": 1.7338641247,
				"z": 3.8660304027,
				"element": "O" 
			},
			{
				"x": 0.617142875,
				"y": 0.963500716,
				"z": 2.7711416838,
				"element": "C" 
			},
			{
				"x": 1.1881508028,
				"y": 1.630580189,
				"z": 1.674200147,
				"element": "C" 
			},
			{
				"x": 1.4817558132,
				"y": 0.9394921413,
				"z": 0.5058014919,
				"element": "C" 
			},
			{
				"x": 1.2014552031,
				"y": -0.4269082905,
				"z": 0.4253835944,
				"element": "C" 
			},
			{
				"x": 1.5658910988,
				"y": -1.1442705185,
				"z": -0.716866463,
				"element": "O" 
			},
			{
				"x": 0.7267320953,
				"y": -1.1886966735,
				"z": -1.7897844964,
				"element": "C" 
			},
			{
				"x": 1.2116238652,
				"y": -1.8889362736,
				"z": -2.9070207717,
				"element": "C" 
			},
			{
				"x": 0.4328751931,
				"y": -1.997510295,
				"z": -4.0486966195,
				"element": "C" 
			},
			{
				"x": -0.8351824437,
				"y": -1.4050642852,
				"z": -4.0615863519,
				"element": "C" 
			},
			{
				"x": -1.3283668213,
				"y": -0.7059864772,
				"z": -2.9587109886,
				"element": "C" 
			},
			{
				"x": -0.5454047515,
				"y": -0.5988598353,
				"z": -1.8136070362,
				"element": "C" 
			},
			{
				"x": -1.8428939208,
				"y": -1.5488833563,
				"z": -5.5143117817,
				"element": "S" 
			},
			{
				"x": -1.2439764836,
				"y": 0.1750718675,
				"z": -6.6410497054,
				"element": "Cl" 
			},
			{
				"x": -1.4103553082,
				"y": -2.7003151286,
				"z": -6.2975823959,
				"element": "O" 
			},
			{
				"x": -3.2408853002,
				"y": -1.3247119746,
				"z": -5.1650229549,
				"element": "O" 
			},
			{
				"x": 0.6399834662,
				"y": -1.100016002,
				"z": 1.5035180363,
				"element": "C" 
			},
			{
				"x": 0.3450930134,
				"y": -0.4082438363,
				"z": 2.6822016786,
				"element": "C" 
			},
			{
				"x": -0.7992200589,
				"y": 1.7820642018,
				"z": 6.9871862095,
				"element": "H" 
			},
			{
				"x": -1.0162324442,
				"y": 3.0034028691,
				"z": 5.7167166275,
				"element": "H" 
			},
			{
				"x": 0.6081616986,
				"y": 2.6436206611,
				"z": 6.3314699527,
				"element": "H" 
			},
			{
				"x": 0.453672208,
				"y": 0.3192429763,
				"z": 5.3845819736,
				"element": "H" 
			},
			{
				"x": -1.1738187839,
				"y": 0.6794891224,
				"z": 4.7688690839,
				"element": "H" 
			},
			{
				"x": 1.3974379575,
				"y": 2.6910174525,
				"z": 1.7657645912,
				"element": "H" 
			},
			{
				"x": 1.933287928,
				"y": 1.4463563862,
				"z": -0.3409056417,
				"element": "H" 
			},
			{
				"x": 2.1966048381,
				"y": -2.3392117141,
				"z": -2.8523767654,
				"element": "H" 
			},
			{
				"x": 0.7900906646,
				"y": -2.5406262437,
				"z": -4.9163205827,
				"element": "H" 
			},
			{
				"x": -2.3174234771,
				"y": -0.2630634187,
				"z": -2.9939136873,
				"element": "H" 
			},
			{
				"x": -0.9166611004,
				"y": -0.0678144808,
				"z": -0.9458080994,
				"element": "H" 
			},
			{
				"x": 0.442070593,
				"y": -2.1641110428,
				"z": 1.424989706,
				"element": "H" 
			},
			{
				"x": -0.0891426528,
				"y": -0.9469774624,
				"z": 3.5152723003,
				"element": "H" 
			}
		],
		 "valence_orbital": [ 
			{
				"type": "occ",
				"energy": -0.30445,
				"method": "rhf"
			},
			{
				"type": "occ",
				"energy": -0.28543,
				"method": "rhf"
			},
			{
				"type": "occ",
				"energy": -0.27321,
				"method": "rhf"
			},
			{
				"type": "occ",
				"energy": -0.25521,
				"method": "rhf"
			},
			{
				"type": "occ",
				"energy": -0.23312,
				"method": "rhf"
			},
			{
				"type": "unocc",
				"energy": -0.08159,
				"method": "rhf"
			},
			{
				"type": "unocc",
				"energy": -0.03618,
				"method": "rhf"
			},
			{
				"type": "unocc",
				"energy": -0.02917,
				"method": "rhf"
			},
			{
				"type": "unocc",
				"energy": -0.01984,
				"method": "rhf"
			},
			{
				"type": "unocc",
				"energy": -0.00564,
				"method": "rhf"
			}
		],
		"cosmo_sigma_profile": { 
			"-0.025": 0.0,
			"-0.024": 0.0,
			"-0.023": 0.0,
			"-0.022": 0.0,
			"-0.021": 0.0,
			"-0.02": 0.0,
			"-0.019": 0.0,
			"-0.018": 0.0,
			"-0.017": 0.0,
			"-0.016": 0.0,
			"-0.015": 0.0,
			"-0.014": 0.0,
			"-0.013": 0.0,
			"-0.012": 0.0,
			"-0.011": 0.0,
			"-0.01": 0.0,
			"-0.009": 0.756893279675,
			"-0.008": 4.28627067743,
			"-0.007": 12.0343773523,
			"-0.006": 15.5935759357,
			"-0.005": 20.4408540778,
			"-0.004": 25.0395740621,
			"-0.003": 24.5123354441,
			"-0.002": 25.7565521586,
			"-0.001": 26.4976962018,
			"0.0": 30.7734119144,
			"0.001": 31.2797148525,
			"0.002": 22.5057397584,
			"0.003": 27.0814141053,
			"0.004": 24.9922723954,
			"0.005": 8.27006423786,
			"0.006": 6.4050400663,
			"0.007": 7.24383554664,
			"0.008": 12.5371853031,
			"0.009": 7.95024201176,
			"0.01": 1.0301347617,
			"0.011": 0.0,
			"0.012": 0.0,
			"0.013": 0.0,
			"0.014": 0.0,
			"0.015": 0.0,
			"0.016": 0.0,
			"0.017": 0.0,
			"0.018": 0.0,
			"0.019": 0.0,
			"0.02": 0.0,
			"0.021": 0.0,
			"0.022": 0.0,
			"0.023": 0.0,
			"0.024": 0.0,
			"0.025": 0.0
		}
	}
}
