{
	 "smiles": "OC(=O)COC1=CC=C(C=O)C=C1", 
	 "Tm": 471.15, 
	 "num_atms": 21, 
	 "gaussian": { 
		 "optdone": 1, 
		 "sigma_profile": "yes", 
		 "theory": "DFT", 
		 "functional": "B3LYP", 
		 "basiset": "6-31G**", 
		 "properties": { 
			 "R2extent": 3442.6994, 
			 "electric_dipole_moment_norm": 4.46214393874, 
			 "electric_quadrupole_moment_norm": 20.3989067423, 
			 "total_energy": -648.664016846, 
			 "HOMO_LUMO_gap": 0.18353, 
			 "cosmo_polarized_energy": -16.92, 
			 "cosmo_cavitation_energy": 26.64, 
			 "cosmo_dispersion_energy": -19.15, 
			 "cosmo_repulsion_energy": 1.53, 
			 "cosmo_total_nonelectrostatic_energy": 9.01, 
			 "SMD_solvation_energy": 7.14 
		},
		"coords": [
			{
				"x": 1.0465988498,
				"y": -3.3742219277,
				"z": -3.781789006,
				"element": "O" 
			},
			{
				"x": 0.4115694223,
				"y": -3.0474721364,
				"z": -2.6325912782,
				"element": "C" 
			},
			{
				"x": -0.7866200783,
				"y": -3.025948195,
				"z": -2.5024361764,
				"element": "O" 
			},
			{
				"x": 1.4374151472,
				"y": -2.7329916986,
				"z": -1.5483740826,
				"element": "C" 
			},
			{
				"x": 0.8412770766,
				"y": -2.3948357498,
				"z": -0.3192177157,
				"element": "O" 
			},
			{
				"x": 0.3131343776,
				"y": -1.1482153827,
				"z": -0.139872818,
				"element": "C" 
			},
			{
				"x": -0.2161027903,
				"y": -0.9079244238,
				"z": 1.1373941347,
				"element": "C" 
			},
			{
				"x": -0.7543678992,
				"y": 0.3345968883,
				"z": 1.4355043586,
				"element": "C" 
			},
			{
				"x": -0.7729355673,
				"y": 1.3567331615,
				"z": 0.4730558639,
				"element": "C" 
			},
			{
				"x": -1.3432278297,
				"y": 2.6770790959,
				"z": 0.7964089592,
				"element": "C" 
			},
			{
				"x": -1.3965841945,
				"y": 3.6202177008,
				"z": 0.0272414835,
				"element": "O" 
			},
			{
				"x": -0.2444311721,
				"y": 1.1029726272,
				"z": -0.8001473912,
				"element": "C" 
			},
			{
				"x": 0.2951479303,
				"y": -0.1383753756,
				"z": -1.1150630898,
				"element": "C" 
			},
			{
				"x": 0.355406907,
				"y": -3.5832514738,
				"z": -4.4327744086,
				"element": "H" 
			},
			{
				"x": 2.1289586226,
				"y": -1.961372985,
				"z": -1.9094876809,
				"element": "H" 
			},
			{
				"x": 2.02646659,
				"y": -3.6365271086,
				"z": -1.3648361919,
				"element": "H" 
			},
			{
				"x": -0.1898968387,
				"y": -1.7096210171,
				"z": 1.8674175134,
				"element": "H" 
			},
			{
				"x": -1.1648553457,
				"y": 0.5219183346,
				"z": 2.425095411,
				"element": "H" 
			},
			{
				"x": -1.7398533592,
				"y": 2.7658498043,
				"z": 1.8333617363,
				"element": "H" 
			},
			{
				"x": -0.2712494934,
				"y": 1.8992303525,
				"z": -1.537424641,
				"element": "H" 
			},
			{
				"x": 0.6817496448,
				"y": -0.3120404908,
				"z": -2.1121649801,
				"element": "H" 
			}
		],
		 "valence_orbital": [ 
			{
				"type": "occ",
				"energy": -0.33422,
				"method": "rhf"
			},
			{
				"type": "occ",
				"energy": -0.29712,
				"method": "rhf"
			},
			{
				"type": "occ",
				"energy": -0.26732,
				"method": "rhf"
			},
			{
				"type": "occ",
				"energy": -0.2481,
				"method": "rhf"
			},
			{
				"type": "occ",
				"energy": -0.23699,
				"method": "rhf"
			},
			{
				"type": "unocc",
				"energy": -0.05346,
				"method": "rhf"
			},
			{
				"type": "unocc",
				"energy": -0.01708,
				"method": "rhf"
			},
			{
				"type": "unocc",
				"energy": -0.00785,
				"method": "rhf"
			},
			{
				"type": "unocc",
				"energy": 0.04888,
				"method": "rhf"
			},
			{
				"type": "unocc",
				"energy": 0.05718,
				"method": "rhf"
			}
		],
		"cosmo_sigma_profile": { 
			"-0.025": 0.0,
			"-0.024": 0.0,
			"-0.023": 0.0,
			"-0.022": 0.0,
			"-0.021": 0.0,
			"-0.02": 0.0,
			"-0.019": 0.290014894736,
			"-0.018": 1.03693946906,
			"-0.017": 0.789845042621,
			"-0.016": 1.22711795093,
			"-0.015": 0.745434329092,
			"-0.014": 0.587147446311,
			"-0.013": 0.634094899477,
			"-0.012": 0.526083306712,
			"-0.011": 1.43790286605,
			"-0.01": 2.28732934311,
			"-0.009": 5.36348799264,
			"-0.008": 6.71968333559,
			"-0.007": 10.9148350149,
			"-0.006": 14.5174213561,
			"-0.005": 13.411919682,
			"-0.004": 10.2209925829,
			"-0.003": 11.6883118865,
			"-0.002": 9.13608784608,
			"-0.001": 8.82288982102,
			"0.0": 9.92332718523,
			"0.001": 12.1939622131,
			"0.002": 15.4442775368,
			"0.003": 17.4955206059,
			"0.004": 6.81913635397,
			"0.005": 5.56084234362,
			"0.006": 5.66431742516,
			"0.007": 6.01113758036,
			"0.008": 7.77811480427,
			"0.009": 5.13627318388,
			"0.01": 5.44152718516,
			"0.011": 8.73652626018,
			"0.012": 4.54045298064,
			"0.013": 1.53753786609,
			"0.014": 0.151488283935,
			"0.015": 0.0,
			"0.016": 0.0,
			"0.017": 0.0,
			"0.018": 0.0,
			"0.019": 0.0,
			"0.02": 0.0,
			"0.021": 0.0,
			"0.022": 0.0,
			"0.023": 0.0,
			"0.024": 0.0,
			"0.025": 0.0
		}
	}
}
