{
	 "smiles": "CN1C=CN=C1S", 
	 "Tm": 419.15, 
	 "num_atms": 13, 
	 "gaussian": { 
		 "optdone": 1, 
		 "sigma_profile": "yes", 
		 "theory": "DFT", 
		 "functional": "B3LYP", 
		 "basiset": "6-31G**", 
		 "properties": { 
			 "R2extent": 1203.8433, 
			 "electric_dipole_moment_norm": 3.02339188661, 
			 "electric_quadrupole_moment_norm": 4.56547189784, 
			 "total_energy": -663.715259807, 
			 "HOMO_LUMO_gap": 0.21897, 
			 "cosmo_polarized_energy": -9.65, 
			 "cosmo_cavitation_energy": 18.37, 
			 "cosmo_dispersion_energy": -14.26, 
			 "cosmo_repulsion_energy": 1.14, 
			 "cosmo_total_nonelectrostatic_energy": 5.26, 
			 "SMD_solvation_energy": 1.76 
		},
		"coords": [
			{
				"x": -1.0670133278,
				"y": -1.9513381933,
				"z": 1.0068906396,
				"element": "C" 
			},
			{
				"x": -0.713973839,
				"y": -0.7665207709,
				"z": 0.2429273481,
				"element": "N" 
			},
			{
				"x": -0.1474178446,
				"y": 0.4043866841,
				"z": 0.7283806265,
				"element": "C" 
			},
			{
				"x": -0.0007738263,
				"y": 1.2242838687,
				"z": -0.3581073505,
				"element": "C" 
			},
			{
				"x": -0.4561542731,
				"y": 0.6056423375,
				"z": -1.5039099213,
				"element": "N" 
			},
			{
				"x": -0.8719316249,
				"y": -0.5764488389,
				"z": -1.103281738,
				"element": "C" 
			},
			{
				"x": -1.5725987311,
				"y": -1.8404453411,
				"z": -2.1350633329,
				"element": "S" 
			},
			{
				"x": -0.8141897356,
				"y": -1.7838565459,
				"z": 2.0545429059,
				"element": "H" 
			},
			{
				"x": -0.5136859528,
				"y": -2.8252447674,
				"z": 0.6485079506,
				"element": "H" 
			},
			{
				"x": -2.1398004419,
				"y": -2.1566341699,
				"z": 0.9340707283,
				"element": "H" 
			},
			{
				"x": 0.08541623,
				"y": 0.5241390864,
				"z": 1.7753472398,
				"element": "H" 
			},
			{
				"x": 0.4057998143,
				"y": 2.2255629745,
				"z": -0.3875350023,
				"element": "H" 
			},
			{
				"x": -1.4584764474,
				"y": -1.0923263239,
				"z": -3.2469700937,
				"element": "H" 
			}
		],
		 "valence_orbital": [ 
			{
				"type": "occ",
				"energy": -0.35965,
				"method": "rhf"
			},
			{
				"type": "occ",
				"energy": -0.29348,
				"method": "rhf"
			},
			{
				"type": "occ",
				"energy": -0.2675,
				"method": "rhf"
			},
			{
				"type": "occ",
				"energy": -0.26652,
				"method": "rhf"
			},
			{
				"type": "occ",
				"energy": -0.20574,
				"method": "rhf"
			},
			{
				"type": "unocc",
				"energy": 0.01323,
				"method": "rhf"
			},
			{
				"type": "unocc",
				"energy": 0.03043,
				"method": "rhf"
			},
			{
				"type": "unocc",
				"energy": 0.07082,
				"method": "rhf"
			},
			{
				"type": "unocc",
				"energy": 0.07117,
				"method": "rhf"
			},
			{
				"type": "unocc",
				"energy": 0.10186,
				"method": "rhf"
			}
		],
		"cosmo_sigma_profile": { 
			"-0.025": 0.0,
			"-0.024": 0.0,
			"-0.023": 0.0,
			"-0.022": 0.0,
			"-0.021": 0.0,
			"-0.02": 0.0,
			"-0.019": 0.0,
			"-0.018": 0.0,
			"-0.017": 0.0,
			"-0.016": 0.0,
			"-0.015": 0.0,
			"-0.014": 0.0,
			"-0.013": 0.0,
			"-0.012": 0.23557931137,
			"-0.011": 1.38315651013,
			"-0.01": 1.48109492135,
			"-0.009": 2.11400434859,
			"-0.008": 4.88209473316,
			"-0.007": 5.70720605864,
			"-0.006": 9.75911812846,
			"-0.005": 11.7269247307,
			"-0.004": 12.0949055409,
			"-0.003": 14.4401347453,
			"-0.002": 6.54623460656,
			"-0.001": 6.27924555197,
			"0.0": 7.0114678479,
			"0.001": 6.48031814908,
			"0.002": 8.54772481317,
			"0.003": 8.7194089782,
			"0.004": 7.95146789233,
			"0.005": 7.01070149015,
			"0.006": 8.62569924985,
			"0.007": 4.50442629518,
			"0.008": 3.02570807885,
			"0.009": 1.59342007125,
			"0.01": 1.15537335525,
			"0.011": 1.34053496867,
			"0.012": 1.65167960534,
			"0.013": 1.01093884672,
			"0.014": 0.809400800002,
			"0.015": 0.962060794388,
			"0.016": 1.01245651934,
			"0.017": 0.800318165045,
			"0.018": 0.140017058139,
			"0.019": 0.0,
			"0.02": 0.0,
			"0.021": 0.0,
			"0.022": 0.0,
			"0.023": 0.0,
			"0.024": 0.0,
			"0.025": 0.0
		}
	}
}
