{
	 "smiles": "CC1=C(C(O)=O)C(=NO1)C1=CC=CC=C1", 
	 "Tm": 465.15, 
	 "num_atms": 24, 
	 "gaussian": { 
		 "optdone": 1, 
		 "sigma_profile": "yes", 
		 "theory": "DFT", 
		 "functional": "B3LYP", 
		 "basiset": "6-31G**", 
		 "properties": { 
			 "R2extent": 3715.4397, 
			 "electric_dipole_moment_norm": 2.71029329409, 
			 "electric_quadrupole_moment_norm": 16.5384145734, 
			 "total_energy": -704.992277823, 
			 "HOMO_LUMO_gap": 0.19931, 
			 "cosmo_polarized_energy": -12.28, 
			 "cosmo_cavitation_energy": 28.78, 
			 "cosmo_dispersion_energy": -21.2, 
			 "cosmo_repulsion_energy": 1.65, 
			 "cosmo_total_nonelectrostatic_energy": 9.23, 
			 "SMD_solvation_energy": 6.12 
		},
		"coords": [
			{
				"x": 2.8701339889,
				"y": 2.3449810003,
				"z": 1.9646417796,
				"element": "C" 
			},
			{
				"x": 2.390802133,
				"y": 1.1419226398,
				"z": 1.2273244912,
				"element": "C" 
			},
			{
				"x": 1.3558786296,
				"y": 0.8873634627,
				"z": 0.3523381252,
				"element": "C" 
			},
			{
				"x": 0.3311801928,
				"y": 1.8434720934,
				"z": -0.0764254978,
				"element": "C" 
			},
			{
				"x": 0.4985984614,
				"y": 3.0643001227,
				"z": 0.5066405559,
				"element": "O" 
			},
			{
				"x": -0.5833560189,
				"y": 1.6351469222,
				"z": -0.8491946012,
				"element": "O" 
			},
			{
				"x": 1.4930357623,
				"y": -0.5198220999,
				"z": 0.0458309851,
				"element": "C" 
			},
			{
				"x": 2.5258515121,
				"y": -1.0313932692,
				"z": 0.6844937002,
				"element": "N" 
			},
			{
				"x": 3.0848574108,
				"y": 0.0176595985,
				"z": 1.4281338016,
				"element": "O" 
			},
			{
				"x": 0.6966359205,
				"y": -1.4352855264,
				"z": -0.8016814264,
				"element": "C" 
			},
			{
				"x": 0.1209570864,
				"y": -1.0263338317,
				"z": -2.0135491144,
				"element": "C" 
			},
			{
				"x": -0.5698961217,
				"y": -1.9433760514,
				"z": -2.8048533084,
				"element": "C" 
			},
			{
				"x": -0.6965768497,
				"y": -3.2729944177,
				"z": -2.4002005273,
				"element": "C" 
			},
			{
				"x": -0.1242358682,
				"y": -3.6874634942,
				"z": -1.1955196594,
				"element": "C" 
			},
			{
				"x": 0.5693800962,
				"y": -2.7772453078,
				"z": -0.4020832663,
				"element": "C" 
			},
			{
				"x": 3.7808280572,
				"y": 2.0963774082,
				"z": 2.5125900116,
				"element": "H" 
			},
			{
				"x": 3.0705642901,
				"y": 3.1675235293,
				"z": 1.2738630651,
				"element": "H" 
			},
			{
				"x": 2.1086762776,
				"y": 2.6956225122,
				"z": 2.6667204488,
				"element": "H" 
			},
			{
				"x": -0.2237990171,
				"y": 3.6144020887,
				"z": 0.1607071788,
				"element": "H" 
			},
			{
				"x": 0.2016934462,
				"y": 0.0054524888,
				"z": -2.328181121,
				"element": "H" 
			},
			{
				"x": -1.0111606172,
				"y": -1.6146513393,
				"z": -3.7412304183,
				"element": "H" 
			},
			{
				"x": -1.2404768089,
				"y": -3.9818264629,
				"z": -3.0181789963,
				"element": "H" 
			},
			{
				"x": -0.2203297566,
				"y": -4.7196866043,
				"z": -0.8714727201,
				"element": "H" 
			},
			{
				"x": 1.0178577935,
				"y": -3.0935454619,
				"z": 0.5333865138,
				"element": "H" 
			}
		],
		 "valence_orbital": [ 
			{
				"type": "occ",
				"energy": -0.30874,
				"method": "rhf"
			},
			{
				"type": "occ",
				"energy": -0.28603,
				"method": "rhf"
			},
			{
				"type": "occ",
				"energy": -0.26953,
				"method": "rhf"
			},
			{
				"type": "occ",
				"energy": -0.24755,
				"method": "rhf"
			},
			{
				"type": "occ",
				"energy": -0.24017,
				"method": "rhf"
			},
			{
				"type": "unocc",
				"energy": -0.04086,
				"method": "rhf"
			},
			{
				"type": "unocc",
				"energy": -0.03321,
				"method": "rhf"
			},
			{
				"type": "unocc",
				"energy": 0.002,
				"method": "rhf"
			},
			{
				"type": "unocc",
				"energy": 0.02672,
				"method": "rhf"
			},
			{
				"type": "unocc",
				"energy": 0.07032,
				"method": "rhf"
			}
		],
		"cosmo_sigma_profile": { 
			"-0.025": 0.0,
			"-0.024": 0.0,
			"-0.023": 0.0,
			"-0.022": 0.0,
			"-0.021": 0.0,
			"-0.02": 0.0,
			"-0.019": 0.0508175640114,
			"-0.018": 0.594748454731,
			"-0.017": 1.55357525462,
			"-0.016": 0.309301048134,
			"-0.015": 0.371927340044,
			"-0.014": 0.83996043996,
			"-0.013": 1.0354026726,
			"-0.012": 0.991813482151,
			"-0.011": 0.492365930443,
			"-0.01": 0.55853693135,
			"-0.009": 0.58388719608,
			"-0.008": 0.647402344933,
			"-0.007": 2.18223166198,
			"-0.006": 11.6878827194,
			"-0.005": 16.1384308469,
			"-0.004": 18.8431452504,
			"-0.003": 23.3936240798,
			"-0.002": 21.9399136314,
			"-0.001": 17.526415185,
			"0.0": 12.7661864548,
			"0.001": 11.5821806547,
			"0.002": 11.1248478694,
			"0.003": 13.9214042146,
			"0.004": 15.8601520512,
			"0.005": 15.047804297,
			"0.006": 5.72617973703,
			"0.007": 6.45859510378,
			"0.008": 3.49534997031,
			"0.009": 3.03832750701,
			"0.01": 3.62219134728,
			"0.011": 4.7548594467,
			"0.012": 2.4147220348,
			"0.013": 1.06996588311,
			"0.014": 0.0722806464038,
			"0.015": 0.0,
			"0.016": 0.0,
			"0.017": 0.0,
			"0.018": 0.0,
			"0.019": 0.0,
			"0.02": 0.0,
			"0.021": 0.0,
			"0.022": 0.0,
			"0.023": 0.0,
			"0.024": 0.0,
			"0.025": 0.0
		}
	}
}
