{
	 "smiles": "OC1=CC=C(C=O)C(O)=C1", 
	 "Tm": 409.15, 
	 "num_atms": 16, 
	 "gaussian": { 
		 "optdone": 1, 
		 "sigma_profile": "yes", 
		 "theory": "DFT", 
		 "functional": "B3LYP", 
		 "basiset": "6-31G**", 
		 "properties": { 
			 "R2extent": 1562.9835, 
			 "electric_dipole_moment_norm": 5.99541484136, 
			 "electric_quadrupole_moment_norm": 6.77639039976, 
			 "total_energy": -496.015266889, 
			 "HOMO_LUMO_gap": 0.18212, 
			 "cosmo_polarized_energy": -18.18, 
			 "cosmo_cavitation_energy": 20.89, 
			 "cosmo_dispersion_energy": -15.57, 
			 "cosmo_repulsion_energy": 1.26, 
			 "cosmo_total_nonelectrostatic_energy": 6.58, 
			 "SMD_solvation_energy": 5.47 
		},
		"coords": [
			{
				"x": -2.2372772723,
				"y": 2.3033544953,
				"z": 1.6785470694,
				"element": "O" 
			},
			{
				"x": -1.2961006194,
				"y": 1.5506078393,
				"z": 1.0507034131,
				"element": "C" 
			},
			{
				"x": -0.0810015732,
				"y": 1.3491032812,
				"z": 1.7254272501,
				"element": "C" 
			},
			{
				"x": 0.9010602921,
				"y": 0.5880426684,
				"z": 1.117220472,
				"element": "C" 
			},
			{
				"x": 0.7202995018,
				"y": 0.0114482093,
				"z": -0.1527703099,
				"element": "C" 
			},
			{
				"x": 1.8014543041,
				"y": -0.7901533193,
				"z": -0.7524034867,
				"element": "C" 
			},
			{
				"x": 2.8750874996,
				"y": -0.9946634138,
				"z": -0.2072446075,
				"element": "O" 
			},
			{
				"x": -0.5063114991,
				"y": 0.2254187981,
				"z": -0.8135102158,
				"element": "C" 
			},
			{
				"x": -0.6768401329,
				"y": -0.3349871394,
				"z": -2.0432885955,
				"element": "O" 
			},
			{
				"x": -1.5098715572,
				"y": 0.9919336706,
				"z": -0.2136536874,
				"element": "C" 
			},
			{
				"x": -3.0249976359,
				"y": 2.372914488,
				"z": 1.1233453,
				"element": "H" 
			},
			{
				"x": 0.0574142507,
				"y": 1.7939462742,
				"z": 2.7042499328,
				"element": "H" 
			},
			{
				"x": 1.8532138769,
				"y": 0.4101114639,
				"z": 1.6071807619,
				"element": "H" 
			},
			{
				"x": 1.5849289703,
				"y": -1.2106878039,
				"z": -1.7529219315,
				"element": "H" 
			},
			{
				"x": -1.553407831,
				"y": -0.1131938082,
				"z": -2.3826354887,
				"element": "H" 
			},
			{
				"x": -2.4550505744,
				"y": 1.1528042963,
				"z": -0.7305458763,
				"element": "H" 
			}
		],
		 "valence_orbital": [ 
			{
				"type": "occ",
				"energy": -0.36347,
				"method": "rhf"
			},
			{
				"type": "occ",
				"energy": -0.32063,
				"method": "rhf"
			},
			{
				"type": "occ",
				"energy": -0.25351,
				"method": "rhf"
			},
			{
				"type": "occ",
				"energy": -0.23977,
				"method": "rhf"
			},
			{
				"type": "occ",
				"energy": -0.22998,
				"method": "rhf"
			},
			{
				"type": "unocc",
				"energy": -0.04786,
				"method": "rhf"
			},
			{
				"type": "unocc",
				"energy": -0.00423,
				"method": "rhf"
			},
			{
				"type": "unocc",
				"energy": 0.04712,
				"method": "rhf"
			},
			{
				"type": "unocc",
				"energy": 0.05187,
				"method": "rhf"
			},
			{
				"type": "unocc",
				"energy": 0.05508,
				"method": "rhf"
			}
		],
		"cosmo_sigma_profile": { 
			"-0.025": 0.0,
			"-0.024": 0.0,
			"-0.023": 0.0,
			"-0.022": 0.0,
			"-0.021": 0.0,
			"-0.02": 0.0,
			"-0.019": 0.751782453728,
			"-0.018": 2.34548826454,
			"-0.017": 2.41796921381,
			"-0.016": 2.4010862218,
			"-0.015": 2.0512465328,
			"-0.014": 1.53102804685,
			"-0.013": 1.58769963288,
			"-0.012": 1.89595599785,
			"-0.011": 3.02513615116,
			"-0.01": 2.56657698747,
			"-0.009": 2.03761271226,
			"-0.008": 1.96786712646,
			"-0.007": 2.56449739898,
			"-0.006": 3.79750854143,
			"-0.005": 6.06708286189,
			"-0.004": 6.41434700567,
			"-0.003": 7.08384409444,
			"-0.002": 7.63594677297,
			"-0.001": 8.29379719975,
			"0.0": 7.5202473873,
			"0.001": 11.9001708195,
			"0.002": 17.1530176404,
			"0.003": 15.9863670129,
			"0.004": 10.334939514,
			"0.005": 4.65604283517,
			"0.006": 5.60173851912,
			"0.007": 3.36238037429,
			"0.008": 4.69011159432,
			"0.009": 4.40718364882,
			"0.01": 3.57174692913,
			"0.011": 3.41025785661,
			"0.012": 4.73224154924,
			"0.013": 2.4699917242,
			"0.014": 0.558844153279,
			"0.015": 0.0,
			"0.016": 0.0,
			"0.017": 0.0,
			"0.018": 0.0,
			"0.019": 0.0,
			"0.02": 0.0,
			"0.021": 0.0,
			"0.022": 0.0,
			"0.023": 0.0,
			"0.024": 0.0,
			"0.025": 0.0
		}
	}
}
