{
	 "smiles": "ClCCCCCl", 
	 "Tm": 235.65, 
	 "num_atms": 14, 
	 "gaussian": { 
		 "optdone": 1, 
		 "sigma_profile": "yes", 
		 "theory": "DFT", 
		 "functional": "B3LYP", 
		 "basiset": "6-31G**", 
		 "properties": { 
			 "R2extent": 1945.2521, 
			 "electric_dipole_moment_norm": 0.191303606866, 
			 "electric_quadrupole_moment_norm": 12.1576879397, 
			 "total_energy": -1077.64772173, 
			 "HOMO_LUMO_gap": 0.30485, 
			 "cosmo_polarized_energy": -7.28, 
			 "cosmo_cavitation_energy": 20.28, 
			 "cosmo_dispersion_energy": -15.28, 
			 "cosmo_repulsion_energy": 1.35, 
			 "cosmo_total_nonelectrostatic_energy": 6.35, 
			 "SMD_solvation_energy": 2.56 
		},
		"coords": [
			{
				"x": -2.353131703,
				"y": -2.8633934251,
				"z": 1.2516485486,
				"element": "Cl" 
			},
			{
				"x": -0.8154472608,
				"y": -1.8952589625,
				"z": 1.2874514129,
				"element": "C" 
			},
			{
				"x": -0.5945912959,
				"y": -1.1564818017,
				"z": -0.0288215598,
				"element": "C" 
			},
			{
				"x": 0.734887499,
				"y": -0.3765031874,
				"z": -0.0712912945,
				"element": "C" 
			},
			{
				"x": 0.7566319978,
				"y": 0.8246649764,
				"z": 0.8688283213,
				"element": "C" 
			},
			{
				"x": 2.3112433073,
				"y": 1.7537548686,
				"z": 0.7174942046,
				"element": "Cl" 
			},
			{
				"x": -0.0109474373,
				"y": -2.6056527541,
				"z": 1.4890752938,
				"element": "H" 
			},
			{
				"x": -0.9101971227,
				"y": -1.2198240935,
				"z": 2.1390314615,
				"element": "H" 
			},
			{
				"x": -1.4373339946,
				"y": -0.4795767128,
				"z": -0.2117465113,
				"element": "H" 
			},
			{
				"x": -0.598216965,
				"y": -1.8873178035,
				"z": -0.844054079,
				"element": "H" 
			},
			{
				"x": 0.9007919489,
				"y": -0.0223199316,
				"z": -1.0939216832,
				"element": "H" 
			},
			{
				"x": 1.572520065,
				"y": -1.0416666413,
				"z": 0.1691485439,
				"element": "H" 
			},
			{
				"x": 0.6830229865,
				"y": 0.5389841618,
				"z": 1.9192321373,
				"element": "H" 
			},
			{
				"x": -0.0450320251,
				"y": 1.5294913065,
				"z": 0.6384252039,
				"element": "H" 
			}
		],
		 "valence_orbital": [ 
			{
				"type": "occ",
				"energy": -0.36376,
				"method": "rhf"
			},
			{
				"type": "occ",
				"energy": -0.30221,
				"method": "rhf"
			},
			{
				"type": "occ",
				"energy": -0.30146,
				"method": "rhf"
			},
			{
				"type": "occ",
				"energy": -0.298,
				"method": "rhf"
			},
			{
				"type": "occ",
				"energy": -0.29772,
				"method": "rhf"
			},
			{
				"type": "unocc",
				"energy": 0.00713,
				"method": "rhf"
			},
			{
				"type": "unocc",
				"energy": 0.02492,
				"method": "rhf"
			},
			{
				"type": "unocc",
				"energy": 0.0899,
				"method": "rhf"
			},
			{
				"type": "unocc",
				"energy": 0.1012,
				"method": "rhf"
			},
			{
				"type": "unocc",
				"energy": 0.10273,
				"method": "rhf"
			}
		],
		"cosmo_sigma_profile": { 
			"-0.025": 0.0,
			"-0.024": 0.0,
			"-0.023": 0.0,
			"-0.022": 0.0,
			"-0.021": 0.0,
			"-0.02": 0.0,
			"-0.019": 0.0,
			"-0.018": 0.0,
			"-0.017": 0.0,
			"-0.016": 0.0,
			"-0.015": 0.0,
			"-0.014": 0.0,
			"-0.013": 0.0,
			"-0.012": 0.0,
			"-0.011": 0.0,
			"-0.01": 0.0,
			"-0.009": 0.0,
			"-0.008": 1.77118550104,
			"-0.007": 6.95740623419,
			"-0.006": 11.7204808759,
			"-0.005": 13.3743545847,
			"-0.004": 17.4640616936,
			"-0.003": 13.691370379,
			"-0.002": 9.76145514807,
			"-0.001": 7.84649254643,
			"0.0": 8.00298881567,
			"0.001": 6.88891965003,
			"0.002": 6.92586325668,
			"0.003": 8.716463416,
			"0.004": 8.11221450923,
			"0.005": 9.46241298532,
			"0.006": 16.6356521389,
			"0.007": 15.6234320197,
			"0.008": 0.13191370744,
			"0.009": 0.0,
			"0.01": 0.0,
			"0.011": 0.0,
			"0.012": 0.0,
			"0.013": 0.0,
			"0.014": 0.0,
			"0.015": 0.0,
			"0.016": 0.0,
			"0.017": 0.0,
			"0.018": 0.0,
			"0.019": 0.0,
			"0.02": 0.0,
			"0.021": 0.0,
			"0.022": 0.0,
			"0.023": 0.0,
			"0.024": 0.0,
			"0.025": 0.0
		}
	}
}
