{
	 "smiles": "CC(NS(=O)(=O)C1=C(C)ON=C1C)C(O)=O", 
	 "Tm": 409.15, 
	 "num_atms": 28, 
	 "gaussian": { 
		 "optdone": 1, 
		 "sigma_profile": "yes", 
		 "theory": "DFT", 
		 "functional": "B3LYP", 
		 "basiset": "6-31G**", 
		 "properties": { 
			 "R2extent": 4234.6224, 
			 "electric_dipole_moment_norm": 4.14912657917, 
			 "electric_quadrupole_moment_norm": 24.8857390602, 
			 "total_energy": -1195.79177117, 
			 "HOMO_LUMO_gap": 0.21337, 
			 "cosmo_polarized_energy": -21.47, 
			 "cosmo_cavitation_energy": 33.23, 
			 "cosmo_dispersion_energy": -23.42, 
			 "cosmo_repulsion_energy": 1.78, 
			 "cosmo_total_nonelectrostatic_energy": 11.59, 
			 "SMD_solvation_energy": 6.26 
		},
		"coords": [
			{
				"x": -2.8548253246,
				"y": -1.6740525675,
				"z": 1.8213108858,
				"element": "C" 
			},
			{
				"x": -2.3936576039,
				"y": -1.3039097303,
				"z": 0.4128729541,
				"element": "C" 
			},
			{
				"x": -1.1587028442,
				"y": -0.4798358697,
				"z": 0.4947579593,
				"element": "N" 
			},
			{
				"x": 0.0074026278,
				"y": -0.7093853709,
				"z": -0.7030947745,
				"element": "S" 
			},
			{
				"x": -0.4503902046,
				"y": -0.1233612458,
				"z": -1.9858810658,
				"element": "O" 
			},
			{
				"x": 0.3621705461,
				"y": -2.1287500001,
				"z": -0.6689932899,
				"element": "O" 
			},
			{
				"x": 1.3171974443,
				"y": 0.2910616654,
				"z": -0.1129671739,
				"element": "C" 
			},
			{
				"x": 2.1410163468,
				"y": -0.0068138472,
				"z": 0.9468877591,
				"element": "C" 
			},
			{
				"x": 2.2037668465,
				"y": -1.1321619699,
				"z": 1.9164689486,
				"element": "C" 
			},
			{
				"x": 3.0362950207,
				"y": 0.9750536429,
				"z": 1.0713992435,
				"element": "O" 
			},
			{
				"x": 2.8259202239,
				"y": 1.9549194612,
				"z": 0.0765742492,
				"element": "N" 
			},
			{
				"x": 1.8012972488,
				"y": 1.542376174,
				"z": -0.6300629266,
				"element": "C" 
			},
			{
				"x": 1.321628034,
				"y": 2.3554614326,
				"z": -1.7901529718,
				"element": "C" 
			},
			{
				"x": -3.5336483212,
				"y": -0.6208837233,
				"z": -0.3870074758,
				"element": "C" 
			},
			{
				"x": -3.208215857,
				"y": -0.01005137,
				"z": -1.5371774265,
				"element": "O" 
			},
			{
				"x": -4.6762776091,
				"y": -0.6420739311,
				"z": 0.0059046722,
				"element": "O" 
			},
			{
				"x": -2.0657763522,
				"y": -2.2278266629,
				"z": 2.3346107056,
				"element": "H" 
			},
			{
				"x": -3.0953646719,
				"y": -0.7777521533,
				"z": 2.4003967433,
				"element": "H" 
			},
			{
				"x": -3.7579900894,
				"y": -2.2835796146,
				"z": 1.7682001128,
				"element": "H" 
			},
			{
				"x": -2.1162441611,
				"y": -2.2198546815,
				"z": -0.1233805327,
				"element": "H" 
			},
			{
				"x": -1.3379811797,
				"y": 0.5139667889,
				"z": 0.6294573689,
				"element": "H" 
			},
			{
				"x": 1.7422409947,
				"y": -2.0219015132,
				"z": 1.4861628154,
				"element": "H" 
			},
			{
				"x": 1.6697492388,
				"y": -0.8714779741,
				"z": 2.8370498061,
				"element": "H" 
			},
			{
				"x": 3.2441061709,
				"y": -1.3425438531,
				"z": 2.1754356486,
				"element": "H" 
			},
			{
				"x": 1.3596815533,
				"y": 1.7699372902,
				"z": -2.7117162422,
				"element": "H" 
			},
			{
				"x": 1.9498368579,
				"y": 3.2419972239,
				"z": -1.8913527857,
				"element": "H" 
			},
			{
				"x": 0.2822046516,
				"y": 2.6655200255,
				"z": -1.6507566947,
				"element": "H" 
			},
			{
				"x": -2.2631395872,
				"y": -0.0974776265,
				"z": -1.7866465124,
				"element": "H" 
			}
		],
		 "valence_orbital": [ 
			{
				"type": "occ",
				"energy": -0.32312,
				"method": "rhf"
			},
			{
				"type": "occ",
				"energy": -0.31402,
				"method": "rhf"
			},
			{
				"type": "occ",
				"energy": -0.30462,
				"method": "rhf"
			},
			{
				"type": "occ",
				"energy": -0.29369,
				"method": "rhf"
			},
			{
				"type": "occ",
				"energy": -0.26618,
				"method": "rhf"
			},
			{
				"type": "unocc",
				"energy": -0.05281,
				"method": "rhf"
			},
			{
				"type": "unocc",
				"energy": -0.01278,
				"method": "rhf"
			},
			{
				"type": "unocc",
				"energy": -0.00172,
				"method": "rhf"
			},
			{
				"type": "unocc",
				"energy": 0.03961,
				"method": "rhf"
			},
			{
				"type": "unocc",
				"energy": 0.04656,
				"method": "rhf"
			}
		],
		"cosmo_sigma_profile": { 
			"-0.025": 0.0,
			"-0.024": 0.0,
			"-0.023": 0.0,
			"-0.022": 0.0,
			"-0.021": 0.0,
			"-0.02": 0.0,
			"-0.019": 0.0,
			"-0.018": 0.0,
			"-0.017": 0.331013559423,
			"-0.016": 1.54316866839,
			"-0.015": 1.83997432228,
			"-0.014": 1.97212343319,
			"-0.013": 1.79616905507,
			"-0.012": 1.60976495961,
			"-0.011": 2.07437253094,
			"-0.01": 2.12357870777,
			"-0.009": 2.83375114144,
			"-0.008": 4.18600183265,
			"-0.007": 8.55226359239,
			"-0.006": 10.3215620533,
			"-0.005": 16.5694545194,
			"-0.004": 24.6366237699,
			"-0.003": 25.3899570644,
			"-0.002": 23.1434845453,
			"-0.001": 17.4217047822,
			"0.0": 13.7357108693,
			"0.001": 9.30533278696,
			"0.002": 9.06740461747,
			"0.003": 6.83572642652,
			"0.004": 8.9191052428,
			"0.005": 7.52536122717,
			"0.006": 10.5065975621,
			"0.007": 7.11467499492,
			"0.008": 7.74989854252,
			"0.009": 10.1156277346,
			"0.01": 9.43595107785,
			"0.011": 8.41190656785,
			"0.012": 5.87832910982,
			"0.013": 2.42977916129,
			"0.014": 0.0482506091469,
			"0.015": 0.0,
			"0.016": 0.0,
			"0.017": 0.0,
			"0.018": 0.0,
			"0.019": 0.0,
			"0.02": 0.0,
			"0.021": 0.0,
			"0.022": 0.0,
			"0.023": 0.0,
			"0.024": 0.0,
			"0.025": 0.0
		}
	}
}
