{
	 "smiles": "CC1=C(N)C=CC(=C1)C(=O)NC1CCCCC1", 
	 "Tm": 452.15, 
	 "num_atms": 37, 
	 "gaussian": { 
		 "optdone": 1, 
		 "sigma_profile": "yes", 
		 "theory": "DFT", 
		 "functional": "B3LYP", 
		 "basiset": "6-31G**", 
		 "properties": { 
			 "R2extent": 6076.5602, 
			 "electric_dipole_moment_norm": 4.98617666253, 
			 "electric_quadrupole_moment_norm": 16.7934438189, 
			 "total_energy": -730.305251096, 
			 "HOMO_LUMO_gap": 0.19097, 
			 "cosmo_polarized_energy": -16.3, 
			 "cosmo_cavitation_energy": 37.38, 
			 "cosmo_dispersion_energy": -26.8, 
			 "cosmo_repulsion_energy": 2.09, 
			 "cosmo_total_nonelectrostatic_energy": 12.67, 
			 "SMD_solvation_energy": 5.57 
		},
		"coords": [
			{
				"x": 0.9343075063,
				"y": 4.7602347703,
				"z": 1.9557684534,
				"element": "C" 
			},
			{
				"x": 0.6879418441,
				"y": 3.2925028299,
				"z": 1.7078317908,
				"element": "C" 
			},
			{
				"x": 0.5876843678,
				"y": 2.3928060318,
				"z": 2.7980450495,
				"element": "C" 
			},
			{
				"x": 0.6793114037,
				"y": 2.8614731821,
				"z": 4.1057478606,
				"element": "N" 
			},
			{
				"x": 0.3274483107,
				"y": 1.0351553799,
				"z": 2.5479266969,
				"element": "C" 
			},
			{
				"x": 0.1894907272,
				"y": 0.5626514692,
				"z": 1.2475853048,
				"element": "C" 
			},
			{
				"x": 0.3062590698,
				"y": 1.4347027605,
				"z": 0.1565410347,
				"element": "C" 
			},
			{
				"x": 0.5338051095,
				"y": 2.7942958805,
				"z": 0.4180746582,
				"element": "C" 
			},
			{
				"x": 0.0927479738,
				"y": 1.0327679575,
				"z": -1.2687975559,
				"element": "C" 
			},
			{
				"x": -0.4115083938,
				"y": 1.8118327913,
				"z": -2.0769018508,
				"element": "O" 
			},
			{
				"x": 0.42465479,
				"y": -0.2506004584,
				"z": -1.6618626899,
				"element": "N" 
			},
			{
				"x": 1.5125534779,
				"y": -1.0990213012,
				"z": -1.1506163275,
				"element": "C" 
			},
			{
				"x": 1.0135366737,
				"y": -2.5207264083,
				"z": -0.7491736742,
				"element": "C" 
			},
			{
				"x": 1.3012876711,
				"y": -3.6001011757,
				"z": -1.8164417074,
				"element": "C" 
			},
			{
				"x": 1.1664353049,
				"y": -3.0284257233,
				"z": -3.2340085345,
				"element": "C" 
			},
			{
				"x": 2.2123200715,
				"y": -1.9132070808,
				"z": -3.4875536769,
				"element": "C" 
			},
			{
				"x": 2.6516619598,
				"y": -1.2085654264,
				"z": -2.1819572582,
				"element": "C" 
			},
			{
				"x": 1.9062623635,
				"y": 4.9412375592,
				"z": 2.4375581466,
				"element": "H" 
			},
			{
				"x": 0.1659292803,
				"y": 5.1923330463,
				"z": 2.6091553451,
				"element": "H" 
			},
			{
				"x": 0.9305404132,
				"y": 5.3201652484,
				"z": 1.0177590766,
				"element": "H" 
			},
			{
				"x": 1.2205737381,
				"y": 3.7025717641,
				"z": 4.2430575958,
				"element": "H" 
			},
			{
				"x": 0.86785367,
				"y": 2.1603574556,
				"z": 4.8080051041,
				"element": "H" 
			},
			{
				"x": 0.2204226854,
				"y": 0.3517970743,
				"z": 3.3872276596,
				"element": "H" 
			},
			{
				"x": -0.0403068086,
				"y": -0.4859393786,
				"z": 1.0884332447,
				"element": "H" 
			},
			{
				"x": 0.5786174119,
				"y": 3.4725195525,
				"z": -0.4287851881,
				"element": "H" 
			},
			{
				"x": 0.1946805494,
				"y": -0.3741750608,
				"z": -2.6412492736,
				"element": "H" 
			},
			{
				"x": 1.8992722974,
				"y": -0.5960030604,
				"z": -0.2634574348,
				"element": "H" 
			},
			{
				"x": 1.4785401019,
				"y": -2.8152390296,
				"z": 0.1994974029,
				"element": "H" 
			},
			{
				"x": -0.0644988384,
				"y": -2.4590913829,
				"z": -0.5664836038,
				"element": "H" 
			},
			{
				"x": 0.6234740415,
				"y": -4.4493465221,
				"z": -1.6759087458,
				"element": "H" 
			},
			{
				"x": 2.3170053166,
				"y": -3.9965293238,
				"z": -1.6857625694,
				"element": "H" 
			},
			{
				"x": 0.1499945381,
				"y": -2.6301903776,
				"z": -3.3546870434,
				"element": "H" 
			},
			{
				"x": 1.2696663659,
				"y": -3.8202146826,
				"z": -3.9838999424,
				"element": "H" 
			},
			{
				"x": 3.1004901935,
				"y": -2.3371309856,
				"z": -3.9695626633,
				"element": "H" 
			},
			{
				"x": 1.8111661359,
				"y": -1.1809963818,
				"z": -4.1980267668,
				"element": "H" 
			},
			{
				"x": 3.4626862942,
				"y": -1.780518547,
				"z": -1.7140431217,
				"element": "H" 
			},
			{
				"x": 3.056192382,
				"y": -0.2144824464,
				"z": -2.3999347962,
				"element": "H" 
			}
		],
		 "valence_orbital": [ 
			{
				"type": "occ",
				"energy": -0.29858,
				"method": "rhf"
			},
			{
				"type": "occ",
				"energy": -0.24364,
				"method": "rhf"
			},
			{
				"type": "occ",
				"energy": -0.23974,
				"method": "rhf"
			},
			{
				"type": "occ",
				"energy": -0.22492,
				"method": "rhf"
			},
			{
				"type": "occ",
				"energy": -0.20191,
				"method": "rhf"
			},
			{
				"type": "unocc",
				"energy": -0.01094,
				"method": "rhf"
			},
			{
				"type": "unocc",
				"energy": 0.00519,
				"method": "rhf"
			},
			{
				"type": "unocc",
				"energy": 0.06667,
				"method": "rhf"
			},
			{
				"type": "unocc",
				"energy": 0.07087,
				"method": "rhf"
			},
			{
				"type": "unocc",
				"energy": 0.07654,
				"method": "rhf"
			}
		],
		"cosmo_sigma_profile": { 
			"-0.025": 0.0,
			"-0.024": 0.0,
			"-0.023": 0.0,
			"-0.022": 0.0,
			"-0.021": 0.0,
			"-0.02": 0.0,
			"-0.019": 0.0,
			"-0.018": 0.0,
			"-0.017": 0.0,
			"-0.016": 0.0,
			"-0.015": 0.0,
			"-0.014": 0.0,
			"-0.013": 0.390064513334,
			"-0.012": 2.42864536808,
			"-0.011": 2.40003207275,
			"-0.01": 3.59965398535,
			"-0.009": 4.6972465245,
			"-0.008": 2.88800801107,
			"-0.007": 5.0746581845,
			"-0.006": 4.83504059509,
			"-0.005": 7.7246622214,
			"-0.004": 14.2376947993,
			"-0.003": 28.8537724022,
			"-0.002": 39.0389877189,
			"-0.001": 37.4577895283,
			"0.0": 35.6963616798,
			"0.001": 27.6830406547,
			"0.002": 10.357014063,
			"0.003": 9.09222694653,
			"0.004": 8.4975434001,
			"0.005": 10.8578021571,
			"0.006": 9.782203248,
			"0.007": 3.18045863211,
			"0.008": 1.87889215676,
			"0.009": 2.48555293678,
			"0.01": 1.78606566698,
			"0.011": 1.80232458035,
			"0.012": 2.86628785816,
			"0.013": 2.44805192338,
			"0.014": 5.36036134156,
			"0.015": 3.70554008872,
			"0.016": 0.193129054213,
			"0.017": 0.0,
			"0.018": 0.0,
			"0.019": 0.0,
			"0.02": 0.0,
			"0.021": 0.0,
			"0.022": 0.0,
			"0.023": 0.0,
			"0.024": 0.0,
			"0.025": 0.0
		}
	}
}
