{
	 "smiles": "FC1=CC=C(C=C1)C(=O)CCCN1CCC(=CC1)N1C(=O)NC2=CC=CC=C12", 
	 "Tm": 419.15, 
	 "num_atms": 50, 
	 "gaussian": { 
		 "optdone": 1, 
		 "sigma_profile": "yes", 
		 "theory": "DFT", 
		 "functional": "B3LYP", 
		 "basiset": "6-31G**", 
		 "properties": { 
			 "R2extent": 17923.2324, 
			 "electric_dipole_moment_norm": 3.88899074182, 
			 "electric_quadrupole_moment_norm": 14.5960281371, 
			 "total_energy": -1266.15709558, 
			 "HOMO_LUMO_gap": 0.15026, 
			 "cosmo_polarized_energy": -18.65, 
			 "cosmo_cavitation_energy": 53.1, 
			 "cosmo_dispersion_energy": -36.56, 
			 "cosmo_repulsion_energy": 2.73, 
			 "cosmo_total_nonelectrostatic_energy": 19.28, 
			 "SMD_solvation_energy": 8.48 
		},
		"coords": [
			{
				"x": 4.5724539798,
				"y": 0.7697440691,
				"z": 6.6254518917,
				"element": "F" 
			},
			{
				"x": 3.8722117581,
				"y": 0.1335683483,
				"z": 5.6679311257,
				"element": "C" 
			},
			{
				"x": 2.9070895286,
				"y": -0.797386571,
				"z": 6.0451295627,
				"element": "C" 
			},
			{
				"x": 2.1894481262,
				"y": -1.4486423004,
				"z": 5.0491601731,
				"element": "C" 
			},
			{
				"x": 2.427994992,
				"y": -1.1788512024,
				"z": 3.6907899444,
				"element": "C" 
			},
			{
				"x": 3.4083012457,
				"y": -0.2338338969,
				"z": 3.348261498,
				"element": "C" 
			},
			{
				"x": 4.1365197909,
				"y": 0.4283894078,
				"z": 4.3344572673,
				"element": "C" 
			},
			{
				"x": 1.616282487,
				"y": -1.9219880925,
				"z": 2.6725918518,
				"element": "C" 
			},
			{
				"x": 0.7635445067,
				"y": -2.7231031183,
				"z": 3.0327320909,
				"element": "O" 
			},
			{
				"x": 1.8850403026,
				"y": -1.667065996,
				"z": 1.193091891,
				"element": "C" 
			},
			{
				"x": 0.9591741173,
				"y": -2.4501088919,
				"z": 0.2569578028,
				"element": "C" 
			},
			{
				"x": -0.4612748252,
				"y": -1.867910965,
				"z": 0.1880884055,
				"element": "C" 
			},
			{
				"x": -0.49576307,
				"y": -0.4701315522,
				"z": -0.2485730273,
				"element": "N" 
			},
			{
				"x": -1.7508913704,
				"y": 0.2025391822,
				"z": 0.0947284028,
				"element": "C" 
			},
			{
				"x": -1.621073004,
				"y": 1.7148396037,
				"z": -0.0985920486,
				"element": "C" 
			},
			{
				"x": -1.0190741017,
				"y": 2.0191038946,
				"z": -1.4464447609,
				"element": "C" 
			},
			{
				"x": -0.3999757721,
				"y": 1.0802209561,
				"z": -2.1699717436,
				"element": "C" 
			},
			{
				"x": -0.2024816873,
				"y": -0.3258498118,
				"z": -1.6730560402,
				"element": "C" 
			},
			{
				"x": -1.0945388587,
				"y": 3.3681692448,
				"z": -1.9046291171,
				"element": "N" 
			},
			{
				"x": -2.294339309,
				"y": 4.1039888542,
				"z": -1.9553418871,
				"element": "C" 
			},
			{
				"x": -3.412140326,
				"y": 3.7373383372,
				"z": -1.6334536225,
				"element": "O" 
			},
			{
				"x": -1.9333688611,
				"y": 5.3471945205,
				"z": -2.4637163219,
				"element": "N" 
			},
			{
				"x": -0.5731372515,
				"y": 5.4094479966,
				"z": -2.7376002891,
				"element": "C" 
			},
			{
				"x": 0.2278454085,
				"y": 6.4282913706,
				"z": -3.2366692989,
				"element": "C" 
			},
			{
				"x": 1.5970657897,
				"y": 6.1688437962,
				"z": -3.3754836593,
				"element": "C" 
			},
			{
				"x": 2.1346573212,
				"y": 4.9285968245,
				"z": -3.0178328601,
				"element": "C" 
			},
			{
				"x": 1.3246534631,
				"y": 3.9012040293,
				"z": -2.5173255157,
				"element": "C" 
			},
			{
				"x": -0.0359984088,
				"y": 4.1537287635,
				"z": -2.3868480514,
				"element": "C" 
			},
			{
				"x": 2.735771041,
				"y": -0.993981292,
				"z": 7.0979639,
				"element": "H" 
			},
			{
				"x": 1.4286794861,
				"y": -2.1806476125,
				"z": 5.2978863857,
				"element": "H" 
			},
			{
				"x": 3.6099433116,
				"y": -0.0045710898,
				"z": 2.3075921404,
				"element": "H" 
			},
			{
				"x": 4.8963954277,
				"y": 1.1620377105,
				"z": 4.0887552045,
				"element": "H" 
			},
			{
				"x": 1.7773932243,
				"y": -0.5932707361,
				"z": 0.9939732156,
				"element": "H" 
			},
			{
				"x": 2.9371236442,
				"y": -1.9148954918,
				"z": 0.9971516251,
				"element": "H" 
			},
			{
				"x": 0.8807514151,
				"y": -3.4861212788,
				"z": 0.6009474594,
				"element": "H" 
			},
			{
				"x": 1.406877583,
				"y": -2.4819615699,
				"z": -0.7428398117,
				"element": "H" 
			},
			{
				"x": -0.8955079376,
				"y": -1.9167647912,
				"z": 1.1905490395,
				"element": "H" 
			},
			{
				"x": -1.0844797762,
				"y": -2.5117655834,
				"z": -0.4627880299,
				"element": "H" 
			},
			{
				"x": -2.5972184597,
				"y": -0.1723453724,
				"z": -0.5127692952,
				"element": "H" 
			},
			{
				"x": -1.9859605318,
				"y": -0.0161417131,
				"z": 1.1407419186,
				"element": "H" 
			},
			{
				"x": -0.9864702641,
				"y": 2.146357069,
				"z": 0.6874759211,
				"element": "H" 
			},
			{
				"x": -2.6035292507,
				"y": 2.1898271815,
				"z": -0.0253497221,
				"element": "H" 
			},
			{
				"x": -0.0159854208,
				"y": 1.311684568,
				"z": -3.1596628938,
				"element": "H" 
			},
			{
				"x": -0.8253706422,
				"y": -1.0110445623,
				"z": -2.2893165094,
				"element": "H" 
			},
			{
				"x": 0.8370640773,
				"y": -0.6254150206,
				"z": -1.8586883461,
				"element": "H" 
			},
			{
				"x": -2.6192661517,
				"y": 6.0700584837,
				"z": -2.6097314119,
				"element": "H" 
			},
			{
				"x": -0.192357155,
				"y": 7.3924712715,
				"z": -3.5054515481,
				"element": "H" 
			},
			{
				"x": 2.2475584045,
				"y": 6.9454663371,
				"z": -3.7654029342,
				"element": "H" 
			},
			{
				"x": 3.2001458785,
				"y": 4.7534312621,
				"z": -3.1301816678,
				"element": "H" 
			},
			{
				"x": 1.7414161246,
				"y": 2.9403554295,
				"z": -2.2386883035,
				"element": "H" 
			}
		],
		 "valence_orbital": [ 
			{
				"type": "occ",
				"energy": -0.2544,
				"method": "rhf"
			},
			{
				"type": "occ",
				"energy": -0.25032,
				"method": "rhf"
			},
			{
				"type": "occ",
				"energy": -0.23189,
				"method": "rhf"
			},
			{
				"type": "occ",
				"energy": -0.21587,
				"method": "rhf"
			},
			{
				"type": "occ",
				"energy": -0.20522,
				"method": "rhf"
			},
			{
				"type": "unocc",
				"energy": -0.05496,
				"method": "rhf"
			},
			{
				"type": "unocc",
				"energy": -0.01976,
				"method": "rhf"
			},
			{
				"type": "unocc",
				"energy": -0.00817,
				"method": "rhf"
			},
			{
				"type": "unocc",
				"energy": 0.00204,
				"method": "rhf"
			},
			{
				"type": "unocc",
				"energy": 0.01772,
				"method": "rhf"
			}
		],
		"cosmo_sigma_profile": { 
			"-0.025": 0.0,
			"-0.024": 0.0,
			"-0.023": 0.0,
			"-0.022": 0.0,
			"-0.021": 0.0,
			"-0.02": 0.0,
			"-0.019": 0.0,
			"-0.018": 0.0,
			"-0.017": 0.0433227977147,
			"-0.016": 1.21438954216,
			"-0.015": 1.3110745265,
			"-0.014": 1.20197991471,
			"-0.013": 0.883050970204,
			"-0.012": 1.27105986929,
			"-0.011": 0.84641796084,
			"-0.01": 1.06439520833,
			"-0.009": 1.07084308314,
			"-0.008": 2.4061026369,
			"-0.007": 8.53719118423,
			"-0.006": 14.0101950527,
			"-0.005": 23.9047382034,
			"-0.004": 29.040596576,
			"-0.003": 33.2118216777,
			"-0.002": 44.3560599327,
			"-0.001": 48.8323761585,
			"0.0": 40.8830485455,
			"0.001": 29.9757985413,
			"0.002": 28.9023773529,
			"0.003": 28.0761563807,
			"0.004": 22.4187840142,
			"0.005": 13.7140614383,
			"0.006": 9.77426810129,
			"0.007": 4.93316871628,
			"0.008": 4.33211773905,
			"0.009": 3.74779143483,
			"0.01": 3.81204906501,
			"0.011": 4.26780011393,
			"0.012": 4.54468629731,
			"0.013": 5.69535564606,
			"0.014": 3.03532684628,
			"0.015": 0.0437691031279,
			"0.016": 0.0,
			"0.017": 0.0,
			"0.018": 0.0,
			"0.019": 0.0,
			"0.02": 0.0,
			"0.021": 0.0,
			"0.022": 0.0,
			"0.023": 0.0,
			"0.024": 0.0,
			"0.025": 0.0
		}
	}
}
