{
	 "smiles": "OCC1CN(CC2=CC=CC=C2)CC1CO", 
	 "Tm": 368.15, 
	 "num_atms": 35, 
	 "gaussian": { 
		 "optdone": 1, 
		 "sigma_profile": "yes", 
		 "theory": "DFT", 
		 "functional": "B3LYP", 
		 "basiset": "6-31G**", 
		 "properties": { 
			 "R2extent": 4338.1586, 
			 "electric_dipole_moment_norm": 3.93015400462, 
			 "electric_quadrupole_moment_norm": 10.3529079615, 
			 "total_energy": -712.008673572, 
			 "HOMO_LUMO_gap": 0.21335, 
			 "cosmo_polarized_energy": -13.12, 
			 "cosmo_cavitation_energy": 35.29, 
			 "cosmo_dispersion_energy": -24.72, 
			 "cosmo_repulsion_energy": 1.95, 
			 "cosmo_total_nonelectrostatic_energy": 12.52, 
			 "SMD_solvation_energy": 4.89 
		},
		"coords": [
			{
				"x": -2.2691414372,
				"y": 2.2256506614,
				"z": -2.3592250852,
				"element": "O" 
			},
			{
				"x": -1.0393485945,
				"y": 2.5588143077,
				"z": -1.7262266264,
				"element": "C" 
			},
			{
				"x": -1.1201135752,
				"y": 2.1062690875,
				"z": -0.2747919998,
				"element": "C" 
			},
			{
				"x": -1.3517024526,
				"y": 0.5794047312,
				"z": -0.1416971662,
				"element": "C" 
			},
			{
				"x": -0.4550205842,
				"y": 0.1742274191,
				"z": 0.9528544668,
				"element": "N" 
			},
			{
				"x": -0.2967358027,
				"y": -1.2705302997,
				"z": 1.1765158176,
				"element": "C" 
			},
			{
				"x": 0.3355937097,
				"y": -2.0701388719,
				"z": 0.0470210297,
				"element": "C" 
			},
			{
				"x": 1.7263885251,
				"y": -2.2342554814,
				"z": -0.0240020064,
				"element": "C" 
			},
			{
				"x": 2.313257091,
				"y": -2.945105797,
				"z": -1.07201821,
				"element": "C" 
			},
			{
				"x": 1.5140186152,
				"y": -3.5082932039,
				"z": -2.0687116991,
				"element": "C" 
			},
			{
				"x": 0.1271429286,
				"y": -3.3602436433,
				"z": -2.0072199443,
				"element": "C" 
			},
			{
				"x": -0.4544434474,
				"y": -2.6482394993,
				"z": -0.9569038617,
				"element": "C" 
			},
			{
				"x": 0.7679886297,
				"y": 0.9587255197,
				"z": 0.740392245,
				"element": "C" 
			},
			{
				"x": 0.2008636869,
				"y": 2.3739059712,
				"z": 0.5130270361,
				"element": "C" 
			},
			{
				"x": -0.0687601946,
				"y": 3.0879225731,
				"z": 1.8478312574,
				"element": "C" 
			},
			{
				"x": -1.0366877655,
				"y": 2.4273263507,
				"z": 2.6424807143,
				"element": "O" 
			},
			{
				"x": -2.20430817,
				"y": 2.4630459579,
				"z": -3.2922981614,
				"element": "H" 
			},
			{
				"x": -0.1881593846,
				"y": 2.060700496,
				"z": -2.2218719274,
				"element": "H" 
			},
			{
				"x": -0.8514240806,
				"y": 3.6444776288,
				"z": -1.7632003971,
				"element": "H" 
			},
			{
				"x": -1.9447248361,
				"y": 2.6415223546,
				"z": 0.2051824412,
				"element": "H" 
			},
			{
				"x": -2.387434513,
				"y": 0.3222406523,
				"z": 0.100850267,
				"element": "H" 
			},
			{
				"x": -1.0967988564,
				"y": 0.0776651339,
				"z": -1.0892790179,
				"element": "H" 
			},
			{
				"x": 0.302595468,
				"y": -1.3912012136,
				"z": 2.0868366035,
				"element": "H" 
			},
			{
				"x": -1.2936100885,
				"y": -1.6713159394,
				"z": 1.3942381127,
				"element": "H" 
			},
			{
				"x": 2.3541936908,
				"y": -1.8113576193,
				"z": 0.7569520135,
				"element": "H" 
			},
			{
				"x": 3.3925229931,
				"y": -3.0653711974,
				"z": -1.1063856663,
				"element": "H" 
			},
			{
				"x": 1.9682605019,
				"y": -4.0655799432,
				"z": -2.8829917432,
				"element": "H" 
			},
			{
				"x": -0.50267078,
				"y": -3.8043386512,
				"z": -2.7730342626,
				"element": "H" 
			},
			{
				"x": -1.5361753509,
				"y": -2.5486937978,
				"z": -0.9083954067,
				"element": "H" 
			},
			{
				"x": 1.3430094364,
				"y": 0.6158014742,
				"z": -0.1371869147,
				"element": "H" 
			},
			{
				"x": 1.4242622256,
				"y": 0.8937858663,
				"z": 1.6170325792,
				"element": "H" 
			},
			{
				"x": 0.9033267608,
				"y": 2.9844005233,
				"z": -0.0685830307,
				"element": "H" 
			},
			{
				"x": -0.4400471008,
				"y": 4.1033396061,
				"z": 1.6529412073,
				"element": "H" 
			},
			{
				"x": 0.8867595425,
				"y": 3.1939678049,
				"z": 2.3921892253,
				"element": "H" 
			},
			{
				"x": -0.9849767906,
				"y": 1.4796710385,
				"z": 2.4104781104,
				"element": "H" 
			}
		],
		 "valence_orbital": [ 
			{
				"type": "occ",
				"energy": -0.26752,
				"method": "rhf"
			},
			{
				"type": "occ",
				"energy": -0.25283,
				"method": "rhf"
			},
			{
				"type": "occ",
				"energy": -0.24951,
				"method": "rhf"
			},
			{
				"type": "occ",
				"energy": -0.24273,
				"method": "rhf"
			},
			{
				"type": "occ",
				"energy": -0.22106,
				"method": "rhf"
			},
			{
				"type": "unocc",
				"energy": -0.00771,
				"method": "rhf"
			},
			{
				"type": "unocc",
				"energy": -0.0056,
				"method": "rhf"
			},
			{
				"type": "unocc",
				"energy": 0.07362,
				"method": "rhf"
			},
			{
				"type": "unocc",
				"energy": 0.08201,
				"method": "rhf"
			},
			{
				"type": "unocc",
				"energy": 0.0931,
				"method": "rhf"
			}
		],
		"cosmo_sigma_profile": { 
			"-0.025": 0.0,
			"-0.024": 0.0,
			"-0.023": 0.0,
			"-0.022": 0.0,
			"-0.021": 0.0,
			"-0.02": 0.0,
			"-0.019": 0.0,
			"-0.018": 0.0,
			"-0.017": 0.0,
			"-0.016": 0.257509881447,
			"-0.015": 1.00650277466,
			"-0.014": 1.00129345674,
			"-0.013": 0.88563796493,
			"-0.012": 1.18107644333,
			"-0.011": 0.602177466315,
			"-0.01": 0.597061446855,
			"-0.009": 1.03596722682,
			"-0.008": 1.04263494038,
			"-0.007": 0.635840273101,
			"-0.006": 3.06307981622,
			"-0.005": 13.9999567249,
			"-0.004": 26.4836244465,
			"-0.003": 44.3234238452,
			"-0.002": 36.5774173146,
			"-0.001": 27.527715707,
			"0.0": 18.6609418873,
			"0.001": 14.2993804532,
			"0.002": 13.4937564633,
			"0.003": 10.9744267118,
			"0.004": 9.31271225075,
			"0.005": 11.1553272669,
			"0.006": 10.4867058006,
			"0.007": 3.41025489609,
			"0.008": 2.01158386372,
			"0.009": 3.08401787633,
			"0.01": 2.89989739524,
			"0.011": 2.6150161252,
			"0.012": 2.23880280234,
			"0.013": 2.56161466033,
			"0.014": 3.28444597802,
			"0.015": 2.52512347391,
			"0.016": 1.40313031207,
			"0.017": 0.0,
			"0.018": 0.0,
			"0.019": 0.0,
			"0.02": 0.0,
			"0.021": 0.0,
			"0.022": 0.0,
			"0.023": 0.0,
			"0.024": 0.0,
			"0.025": 0.0
		}
	}
}
