{
	 "smiles": "BrC1=CC=C(Br)N=N1", 
	 "Tm": 389.15, 
	 "num_atms": 10, 
	 "gaussian": { 
		 "optdone": 1, 
		 "sigma_profile": "yes", 
		 "theory": "DFT", 
		 "functional": "B3LYP", 
		 "basiset": "6-31G**", 
		 "properties": { 
			 "R2extent": 4342.1887, 
			 "electric_dipole_moment_norm": 4.12451949444, 
			 "electric_quadrupole_moment_norm": 9.71931273136, 
			 "total_energy": -5405.88620272, 
			 "HOMO_LUMO_gap": 0.1862, 
			 "cosmo_polarized_energy": -10.02, 
			 "cosmo_cavitation_energy": 19.75, 
			 "cosmo_dispersion_energy": -15.77, 
			 "cosmo_repulsion_energy": 1.31, 
			 "cosmo_total_nonelectrostatic_energy": 5.29, 
			 "SMD_solvation_energy": -0.58 
		},
		"coords": [
			{
				"x": -2.9725926697,
				"y": 2.634819557,
				"z": 0.0762453209,
				"element": "Br" 
			},
			{
				"x": -1.8608997613,
				"y": 1.3131330159,
				"z": -0.728329506,
				"element": "C" 
			},
			{
				"x": -1.2710156798,
				"y": 0.3299595372,
				"z": 0.0814023849,
				"element": "C" 
			},
			{
				"x": -0.4774140407,
				"y": -0.5977431417,
				"z": -0.5603654378,
				"element": "C" 
			},
			{
				"x": -0.3493059144,
				"y": -0.4539527058,
				"z": -1.9507516307,
				"element": "C" 
			},
			{
				"x": 0.7289494153,
				"y": -1.6922606371,
				"z": -2.9171766783,
				"element": "Br" 
			},
			{
				"x": -0.9312462428,
				"y": 0.4957679018,
				"z": -2.661814694,
				"element": "N" 
			},
			{
				"x": -1.7031583269,
				"y": 1.3981461115,
				"z": -2.0375742355,
				"element": "N" 
			},
			{
				"x": -1.4372207362,
				"y": 0.3107454334,
				"z": 1.1519357008,
				"element": "H" 
			},
			{
				"x": 0.0248039565,
				"y": -1.3983150721,
				"z": -0.0303712243,
				"element": "H" 
			}
		],
		 "valence_orbital": [ 
			{
				"type": "occ",
				"energy": -0.31089,
				"method": "rhf"
			},
			{
				"type": "occ",
				"energy": -0.31014,
				"method": "rhf"
			},
			{
				"type": "occ",
				"energy": -0.30164,
				"method": "rhf"
			},
			{
				"type": "occ",
				"energy": -0.27254,
				"method": "rhf"
			},
			{
				"type": "occ",
				"energy": -0.26575,
				"method": "rhf"
			},
			{
				"type": "unocc",
				"energy": -0.07955,
				"method": "rhf"
			},
			{
				"type": "unocc",
				"energy": -0.0552,
				"method": "rhf"
			},
			{
				"type": "unocc",
				"energy": -0.01254,
				"method": "rhf"
			},
			{
				"type": "unocc",
				"energy": -0.01088,
				"method": "rhf"
			},
			{
				"type": "unocc",
				"energy": 0.09276,
				"method": "rhf"
			}
		],
		"cosmo_sigma_profile": { 
			"-0.025": 0.0,
			"-0.024": 0.0,
			"-0.023": 0.0,
			"-0.022": 0.0,
			"-0.021": 0.0,
			"-0.02": 0.0,
			"-0.019": 0.0,
			"-0.018": 0.0,
			"-0.017": 0.0,
			"-0.016": 0.0,
			"-0.015": 0.0,
			"-0.014": 0.0,
			"-0.013": 0.0,
			"-0.012": 0.0,
			"-0.011": 0.541316840566,
			"-0.01": 4.6401789703,
			"-0.009": 4.30537013196,
			"-0.008": 3.83087623553,
			"-0.007": 3.21541275509,
			"-0.006": 5.95214931163,
			"-0.005": 8.03708442379,
			"-0.004": 11.077659625,
			"-0.003": 16.5996672436,
			"-0.002": 12.4874461224,
			"-0.001": 8.22132689112,
			"0.0": 9.12582537221,
			"0.001": 11.3867681306,
			"0.002": 13.9452751076,
			"0.003": 20.833712543,
			"0.004": 9.00981067742,
			"0.005": 3.53223954947,
			"0.006": 2.84886847512,
			"0.007": 2.64557991797,
			"0.008": 2.46458840607,
			"0.009": 2.58949880291,
			"0.01": 1.97400273386,
			"0.011": 3.31439313405,
			"0.012": 1.90069488923,
			"0.013": 2.04432883547,
			"0.014": 0.366059244999,
			"0.015": 0.0,
			"0.016": 0.0,
			"0.017": 0.0,
			"0.018": 0.0,
			"0.019": 0.0,
			"0.02": 0.0,
			"0.021": 0.0,
			"0.022": 0.0,
			"0.023": 0.0,
			"0.024": 0.0,
			"0.025": 0.0
		}
	}
}
