{
	 "smiles": "OC(=O)C1=NOC(=C1)C1=CC=CO1", 
	 "Tm": 424.15, 
	 "num_atms": 18, 
	 "gaussian": { 
		 "optdone": 1, 
		 "sigma_profile": "yes", 
		 "theory": "DFT", 
		 "functional": "B3LYP", 
		 "basiset": "6-31G**", 
		 "properties": { 
			 "R2extent": 3347.2386, 
			 "electric_dipole_moment_norm": 7.75926904869, 
			 "electric_quadrupole_moment_norm": 12.3232448965, 
			 "total_energy": -663.423570993, 
			 "HOMO_LUMO_gap": 0.16886, 
			 "cosmo_polarized_energy": -20.61, 
			 "cosmo_cavitation_energy": 24.75, 
			 "cosmo_dispersion_energy": -18.18, 
			 "cosmo_repulsion_energy": 1.43, 
			 "cosmo_total_nonelectrostatic_energy": 8.0, 
			 "SMD_solvation_energy": 6.48 
		},
		"coords": [
			{
				"x": -0.8585453326,
				"y": 3.1104000613,
				"z": 1.1984220042,
				"element": "O" 
			},
			{
				"x": -0.6461930726,
				"y": 3.0987261254,
				"z": -0.1449196618,
				"element": "C" 
			},
			{
				"x": -1.0170793475,
				"y": 4.0027621069,
				"z": -0.8440477685,
				"element": "O" 
			},
			{
				"x": 0.0495540425,
				"y": 1.8681912616,
				"z": -0.6462980804,
				"element": "C" 
			},
			{
				"x": 0.8138891498,
				"y": 1.9459585926,
				"z": -1.7178058782,
				"element": "N" 
			},
			{
				"x": 1.2940715782,
				"y": 0.6589203115,
				"z": -1.9174555375,
				"element": "O" 
			},
			{
				"x": 0.8011697083,
				"y": -0.1692283209,
				"z": -0.9677586443,
				"element": "C" 
			},
			{
				"x": 0.0012631677,
				"y": 0.5490151651,
				"z": -0.1151930698,
				"element": "C" 
			},
			{
				"x": 1.1747837808,
				"y": -1.559010012,
				"z": -1.0184019211,
				"element": "C" 
			},
			{
				"x": 0.8594563033,
				"y": -2.6311580843,
				"z": -0.220737223,
				"element": "C" 
			},
			{
				"x": 1.5324404494,
				"y": -3.7572170044,
				"z": -0.7801870966,
				"element": "C" 
			},
			{
				"x": 2.205792449,
				"y": -3.2917523518,
				"z": -1.8721841622,
				"element": "C" 
			},
			{
				"x": 1.9996063107,
				"y": -1.9591222129,
				"z": -2.0317697995,
				"element": "O" 
			},
			{
				"x": -0.3746737079,
				"y": 2.3866575988,
				"z": 1.6215874115,
				"element": "H" 
			},
			{
				"x": -0.5724807088,
				"y": 0.1782494777,
				"z": 0.7205575394,
				"element": "H" 
			},
			{
				"x": 0.2258226221,
				"y": -2.6162695531,
				"z": 0.6542359931,
				"element": "H" 
			},
			{
				"x": 1.5165587739,
				"y": -4.7747149965,
				"z": -0.4183180869,
				"element": "H" 
			},
			{
				"x": 2.8454638337,
				"y": -3.7573081649,
				"z": -2.6056260184,
				"element": "H" 
			}
		],
		 "valence_orbital": [ 
			{
				"type": "occ",
				"energy": -0.32021,
				"method": "rhf"
			},
			{
				"type": "occ",
				"energy": -0.31676,
				"method": "rhf"
			},
			{
				"type": "occ",
				"energy": -0.30262,
				"method": "rhf"
			},
			{
				"type": "occ",
				"energy": -0.28392,
				"method": "rhf"
			},
			{
				"type": "occ",
				"energy": -0.23762,
				"method": "rhf"
			},
			{
				"type": "unocc",
				"energy": -0.06876,
				"method": "rhf"
			},
			{
				"type": "unocc",
				"energy": -0.03746,
				"method": "rhf"
			},
			{
				"type": "unocc",
				"energy": 0.02289,
				"method": "rhf"
			},
			{
				"type": "unocc",
				"energy": 0.05211,
				"method": "rhf"
			},
			{
				"type": "unocc",
				"energy": 0.06768,
				"method": "rhf"
			}
		],
		"cosmo_sigma_profile": { 
			"-0.025": 0.0,
			"-0.024": 0.0,
			"-0.023": 0.0,
			"-0.022": 0.0,
			"-0.021": 0.0,
			"-0.02": 0.0,
			"-0.019": 0.623047118246,
			"-0.018": 1.31426026479,
			"-0.017": 0.955811917245,
			"-0.016": 1.08172546268,
			"-0.015": 1.28309675949,
			"-0.014": 1.38286658809,
			"-0.013": 0.902349719539,
			"-0.012": 1.83488852971,
			"-0.011": 1.5652587308,
			"-0.01": 3.24425198986,
			"-0.009": 6.35848035833,
			"-0.008": 7.72110561106,
			"-0.007": 7.694293699,
			"-0.006": 7.06819996301,
			"-0.005": 8.23624723493,
			"-0.004": 8.04402543238,
			"-0.003": 7.8833344786,
			"-0.002": 11.3743112605,
			"-0.001": 13.7426033154,
			"0.0": 14.316978776,
			"0.001": 12.1821994873,
			"0.002": 11.377664322,
			"0.003": 9.67549124106,
			"0.004": 6.72290368876,
			"0.005": 6.22743987482,
			"0.006": 8.26764335886,
			"0.007": 8.49306522572,
			"0.008": 5.73757194751,
			"0.009": 6.80140291772,
			"0.01": 8.06004642342,
			"0.011": 6.96565064996,
			"0.012": 2.76660126277,
			"0.013": 0.536943509442,
			"0.014": 0.0,
			"0.015": 0.0,
			"0.016": 0.0,
			"0.017": 0.0,
			"0.018": 0.0,
			"0.019": 0.0,
			"0.02": 0.0,
			"0.021": 0.0,
			"0.022": 0.0,
			"0.023": 0.0,
			"0.024": 0.0,
			"0.025": 0.0
		}
	}
}
