{
	 "smiles": "ClC1=C(I)C=CC=N1", 
	 "Tm": 368.15, 
	 "num_atms": 11, 
	 "gaussian": { 
		 "optdone": 1, 
		 "sigma_profile": "no", 
		 "theory": "DFT", 
		 "functional": "B3LYP", 
		 "basiset": "6-31G**", 
		 "properties": { 
			 "R2extent": 1606.5585, 
			 "electric_dipole_moment_norm": 3.29508291246, 
			 "electric_quadrupole_moment_norm": 7.28119394536, 
			 "total_energy": -718.657077502, 
			 "HOMO_LUMO_gap": 0.20169, 
			 "cosmo_polarized_energy": -89458.96, 
			 "cosmo_cavitation_energy": 20.22, 
			 "cosmo_dispersion_energy": -16.75, 
			 "cosmo_repulsion_energy": 1.34, 
			 "cosmo_total_nonelectrostatic_energy": 4.82, 
			 "SMD_solvation_energy": 1.16 
		},
		"coords": [
			{
				"x": 1.7940206798,
				"y": -0.5523966684,
				"z": -0.7935580915,
				"element": "Cl" 
			},
			{
				"x": 1.0008175814,
				"y": 0.562724513,
				"z": 0.3017893235,
				"element": "C" 
			},
			{
				"x": 1.384580734,
				"y": 0.6537505419,
				"z": 1.6519964727,
				"element": "C" 
			},
			{
				"x": 2.9218288695,
				"y": -0.5074532638,
				"z": 2.5104780721,
				"element": "I" 
			},
			{
				"x": 0.700648169,
				"y": 1.5681086315,
				"z": 2.4560143147,
				"element": "C" 
			},
			{
				"x": -0.3175390877,
				"y": 2.3417866271,
				"z": 1.9008686562,
				"element": "C" 
			},
			{
				"x": -0.6132730313,
				"y": 2.1681087087,
				"z": 0.5515609742,
				"element": "C" 
			},
			{
				"x": 0.0355680686,
				"y": 1.2954518267,
				"z": -0.2266690048,
				"element": "N" 
			},
			{
				"x": 0.9644214577,
				"y": 1.6704673051,
				"z": 3.5028221795,
				"element": "H" 
			},
			{
				"x": -0.8641412641,
				"y": 3.0592273239,
				"z": 2.5036893579,
				"element": "H" 
			},
			{
				"x": -1.3977321768,
				"y": 2.7456244543,
				"z": 0.0684077453,
				"element": "H" 
			}
		],
		 "valence_orbital": [ 
			{
				"type": "occ",
				"energy": -0.32582,
				"method": "rhf"
			},
			{
				"type": "occ",
				"energy": -0.28827,
				"method": "rhf"
			},
			{
				"type": "occ",
				"energy": -0.28532,
				"method": "rhf"
			},
			{
				"type": "occ",
				"energy": -0.27062,
				"method": "rhf"
			},
			{
				"type": "occ",
				"energy": -0.25537,
				"method": "rhf"
			},
			{
				"type": "unocc",
				"energy": -0.05368,
				"method": "rhf"
			},
			{
				"type": "unocc",
				"energy": -0.04973,
				"method": "rhf"
			},
			{
				"type": "unocc",
				"energy": -0.03842,
				"method": "rhf"
			},
			{
				"type": "unocc",
				"energy": 0.02754,
				"method": "rhf"
			},
			{
				"type": "unocc",
				"energy": 0.04653,
				"method": "rhf"
			}
		],
		"cosmo_sigma_profile": { 
			"0.0": 0.0,
			"0.0": 0.0,
			"0.0": 0.0,
			"0.0": 0.0,
			"0.0": 0.0,
			"0.0": 0.0,
			"0.0": 0.0,
			"0.0": 0.0,
			"0.0": 0.0,
			"0.0": 0.0,
			"0.0": 0.0,
			"0.0": 0.0,
			"0.0": 0.0,
			"0.0": 0.0,
			"0.0": 0.0,
			"0.0": 0.0,
			"0.0": 0.0,
			"0.0": 0.0,
			"0.0": 0.0,
			"0.0": 0.0,
			"0.0": 0.0,
			"0.0": 0.0,
			"0.0": 0.0,
			"0.0": 0.0,
			"0.0": 0.0,
			"0.0": 0.0,
			"0.0": 0.0,
			"0.0": 0.0,
			"0.0": 0.0,
			"0.0": 0.0,
			"0.0": 0.0,
			"0.0": 0.0,
			"0.0": 0.0,
			"0.0": 0.0,
			"0.0": 0.0,
			"0.0": 0.0,
			"0.0": 0.0,
			"0.0": 0.0,
			"0.0": 0.0,
			"0.0": 0.0,
			"0.0": 0.0,
			"0.0": 0.0,
			"0.0": 0.0,
			"0.0": 0.0,
			"0.0": 0.0,
			"0.0": 0.0,
			"0.0": 0.0,
			"0.0": 0.0,
			"0.0": 0.0,
			"0.0": 0.0,
			"0.0": 0.0
		}
	}
}
