{
	 "smiles": "C1CNC2=CC=CC=C2CN1", 
	 "Tm": 371.15, 
	 "num_atms": 23, 
	 "gaussian": { 
		 "optdone": 1, 
		 "sigma_profile": "yes", 
		 "theory": "DFT", 
		 "functional": "B3LYP", 
		 "basiset": "6-31G**", 
		 "properties": { 
			 "R2extent": 2382.26, 
			 "electric_dipole_moment_norm": 1.60304082606, 
			 "electric_quadrupole_moment_norm": 5.45925344438, 
			 "total_energy": -459.677081852, 
			 "HOMO_LUMO_gap": 0.19649, 
			 "cosmo_polarized_energy": -8.64, 
			 "cosmo_cavitation_energy": 24.18, 
			 "cosmo_dispersion_energy": -18.48, 
			 "cosmo_repulsion_energy": 1.47, 
			 "cosmo_total_nonelectrostatic_energy": 7.17, 
			 "SMD_solvation_energy": 0.24 
		},
		"coords": [
			{
				"x": -2.2889113465,
				"y": 1.1688645424,
				"z": -2.5700802552,
				"element": "C" 
			},
			{
				"x": -2.6872182154,
				"y": 0.3307122783,
				"z": -1.3528857642,
				"element": "C" 
			},
			{
				"x": -1.5558829105,
				"y": -0.1112459261,
				"z": -0.5143300878,
				"element": "N" 
			},
			{
				"x": -0.2417321463,
				"y": 0.3421131685,
				"z": -0.6751624517,
				"element": "C" 
			},
			{
				"x": 0.8314836472,
				"y": -0.5532312048,
				"z": -0.5215921882,
				"element": "C" 
			},
			{
				"x": 2.1506403654,
				"y": -0.114768686,
				"z": -0.6161688557,
				"element": "C" 
			},
			{
				"x": 2.4305126718,
				"y": 1.2243267453,
				"z": -0.888802651,
				"element": "C" 
			},
			{
				"x": 1.3669753952,
				"y": 2.1167269354,
				"z": -1.0424416385,
				"element": "C" 
			},
			{
				"x": 0.037711658,
				"y": 1.7074358855,
				"z": -0.9257300978,
				"element": "C" 
			},
			{
				"x": -1.1125254267,
				"y": 2.6887731933,
				"z": -1.0233765219,
				"element": "C" 
			},
			{
				"x": -1.9826444786,
				"y": 2.5569082314,
				"z": -2.206648014,
				"element": "N" 
			},
			{
				"x": -3.1323234594,
				"y": 1.1817671839,
				"z": -3.2716610105,
				"element": "H" 
			},
			{
				"x": -1.4562198722,
				"y": 0.6526922776,
				"z": -3.0774793841,
				"element": "H" 
			},
			{
				"x": -3.2057145285,
				"y": -0.5651913008,
				"z": -1.7139795848,
				"element": "H" 
			},
			{
				"x": -3.4140539867,
				"y": 0.8961654569,
				"z": -0.7547295674,
				"element": "H" 
			},
			{
				"x": -1.5944457724,
				"y": -1.0984745849,
				"z": -0.3048467373,
				"element": "H" 
			},
			{
				"x": 0.6221852342,
				"y": -1.6033396756,
				"z": -0.3270238974,
				"element": "H" 
			},
			{
				"x": 2.9598820682,
				"y": -0.8285956852,
				"z": -0.4880030516,
				"element": "H" 
			},
			{
				"x": 3.4560256927,
				"y": 1.5704107151,
				"z": -0.9724421577,
				"element": "H" 
			},
			{
				"x": 1.5703108016,
				"y": 3.1681827824,
				"z": -1.2361407615,
				"element": "H" 
			},
			{
				"x": -1.7414143645,
				"y": 2.5757862072,
				"z": -0.1305215069,
				"element": "H" 
			},
			{
				"x": -0.7333350435,
				"y": 3.7151342791,
				"z": -1.0057792124,
				"element": "H" 
			},
			{
				"x": -1.5272059834,
				"y": 3.0006471812,
				"z": -3.0001746024,
				"element": "H" 
			}
		],
		 "valence_orbital": [ 
			{
				"type": "occ",
				"energy": -0.32977,
				"method": "rhf"
			},
			{
				"type": "occ",
				"energy": -0.2843,
				"method": "rhf"
			},
			{
				"type": "occ",
				"energy": -0.23838,
				"method": "rhf"
			},
			{
				"type": "occ",
				"energy": -0.21655,
				"method": "rhf"
			},
			{
				"type": "occ",
				"energy": -0.18776,
				"method": "rhf"
			},
			{
				"type": "unocc",
				"energy": 0.00873,
				"method": "rhf"
			},
			{
				"type": "unocc",
				"energy": 0.01989,
				"method": "rhf"
			},
			{
				"type": "unocc",
				"energy": 0.07323,
				"method": "rhf"
			},
			{
				"type": "unocc",
				"energy": 0.10191,
				"method": "rhf"
			},
			{
				"type": "unocc",
				"energy": 0.10876,
				"method": "rhf"
			}
		],
		"cosmo_sigma_profile": { 
			"-0.025": 0.0,
			"-0.024": 0.0,
			"-0.023": 0.0,
			"-0.022": 0.0,
			"-0.021": 0.0,
			"-0.02": 0.0,
			"-0.019": 0.0,
			"-0.018": 0.0,
			"-0.017": 0.0,
			"-0.016": 0.0,
			"-0.015": 0.0,
			"-0.014": 0.0,
			"-0.013": 0.0291128774871,
			"-0.012": 0.866901620012,
			"-0.011": 1.2823828377,
			"-0.01": 2.20538610163,
			"-0.009": 2.92184048163,
			"-0.008": 2.19302272416,
			"-0.007": 3.48345692939,
			"-0.006": 4.25132309612,
			"-0.005": 9.97883669389,
			"-0.004": 17.5036458543,
			"-0.003": 19.140515763,
			"-0.002": 22.8353496957,
			"-0.001": 16.7071204173,
			"0.0": 14.4722617533,
			"0.001": 9.35121633243,
			"0.002": 8.22826269042,
			"0.003": 6.60092314444,
			"0.004": 8.42406164365,
			"0.005": 8.42669417064,
			"0.006": 8.97835002614,
			"0.007": 8.6240695465,
			"0.008": 4.86266471477,
			"0.009": 1.75035621372,
			"0.01": 1.16533687115,
			"0.011": 0.547340204606,
			"0.012": 0.774537226655,
			"0.013": 1.35865997282,
			"0.014": 0.631595806882,
			"0.015": 0.133476522456,
			"0.016": 0.738452069517,
			"0.017": 0.450012553297,
			"0.018": 0.428602959791,
			"0.019": 0.206603666393,
			"0.02": 0.0,
			"0.021": 0.0,
			"0.022": 0.0,
			"0.023": 0.0,
			"0.024": 0.0,
			"0.025": 0.0
		}
	}
}
