{
	 "smiles": "CC(=O)NC1=CC=C(F)C=C1Cl", 
	 "Tm": 391.15, 
	 "num_atms": 19, 
	 "gaussian": { 
		 "optdone": 1, 
		 "sigma_profile": "yes", 
		 "theory": "DFT", 
		 "functional": "B3LYP", 
		 "basiset": "6-31G**", 
		 "properties": { 
			 "R2extent": 3048.3812, 
			 "electric_dipole_moment_norm": 2.3078955479, 
			 "electric_quadrupole_moment_norm": 6.78548538352, 
			 "total_energy": -999.092568902, 
			 "HOMO_LUMO_gap": 0.20343, 
			 "cosmo_polarized_energy": -9.08, 
			 "cosmo_cavitation_energy": 25.54, 
			 "cosmo_dispersion_energy": -18.89, 
			 "cosmo_repulsion_energy": 1.48, 
			 "cosmo_total_nonelectrostatic_energy": 8.13, 
			 "SMD_solvation_energy": 5.41 
		},
		"coords": [
			{
				"x": 3.0827751128,
				"y": -0.9715303744,
				"z": -1.2488459457,
				"element": "C" 
			},
			{
				"x": 1.9277491351,
				"y": -0.6415014898,
				"z": -0.315506728,
				"element": "C" 
			},
			{
				"x": 2.1085735747,
				"y": -0.419185941,
				"z": 0.8728779774,
				"element": "O" 
			},
			{
				"x": 0.6914671657,
				"y": -0.618752977,
				"z": -0.9297179152,
				"element": "N" 
			},
			{
				"x": -0.562810044,
				"y": -0.3497894676,
				"z": -0.3586236918,
				"element": "C" 
			},
			{
				"x": -0.7420984086,
				"y": -0.0483179797,
				"z": 1.0035437993,
				"element": "C" 
			},
			{
				"x": -2.0095176924,
				"y": 0.210683377,
				"z": 1.5183267502,
				"element": "C" 
			},
			{
				"x": -3.1116856851,
				"y": 0.1706524332,
				"z": 0.6746875994,
				"element": "C" 
			},
			{
				"x": -4.3409779204,
				"y": 0.420735071,
				"z": 1.168657387,
				"element": "F" 
			},
			{
				"x": -2.9821986712,
				"y": -0.1225628978,
				"z": -0.6764102435,
				"element": "C" 
			},
			{
				"x": -1.7096550672,
				"y": -0.3792257129,
				"z": -1.1769263527,
				"element": "C" 
			},
			{
				"x": -1.5561050669,
				"y": -0.7507938622,
				"z": -2.8955282911,
				"element": "Cl" 
			},
			{
				"x": 3.597816445,
				"y": -1.8562627431,
				"z": -0.8649673064,
				"element": "H" 
			},
			{
				"x": 3.796776111,
				"y": -0.1437896129,
				"z": -1.2246170316,
				"element": "H" 
			},
			{
				"x": 2.7859892089,
				"y": -1.1545008038,
				"z": -2.2849773831,
				"element": "H" 
			},
			{
				"x": 0.6712599471,
				"y": -0.8195201462,
				"z": -1.9193381709,
				"element": "H" 
			},
			{
				"x": 0.1315847006,
				"y": -0.0234082105,
				"z": 1.6389885441,
				"element": "H" 
			},
			{
				"x": -2.1452400432,
				"y": 0.4428429394,
				"z": 2.5687069007,
				"element": "H" 
			},
			{
				"x": -3.8529028018,
				"y": -0.1494716018,
				"z": -1.3197298981,
				"element": "H" 
			}
		],
		 "valence_orbital": [ 
			{
				"type": "occ",
				"energy": -0.33621,
				"method": "rhf"
			},
			{
				"type": "occ",
				"energy": -0.31205,
				"method": "rhf"
			},
			{
				"type": "occ",
				"energy": -0.26409,
				"method": "rhf"
			},
			{
				"type": "occ",
				"energy": -0.26186,
				"method": "rhf"
			},
			{
				"type": "occ",
				"energy": -0.22784,
				"method": "rhf"
			},
			{
				"type": "unocc",
				"energy": -0.02441,
				"method": "rhf"
			},
			{
				"type": "unocc",
				"energy": -0.02189,
				"method": "rhf"
			},
			{
				"type": "unocc",
				"energy": 0.01032,
				"method": "rhf"
			},
			{
				"type": "unocc",
				"energy": 0.03761,
				"method": "rhf"
			},
			{
				"type": "unocc",
				"energy": 0.07351,
				"method": "rhf"
			}
		],
		"cosmo_sigma_profile": { 
			"-0.025": 0.0,
			"-0.024": 0.0,
			"-0.023": 0.0,
			"-0.022": 0.0,
			"-0.021": 0.0,
			"-0.02": 0.0,
			"-0.019": 0.0,
			"-0.018": 0.0,
			"-0.017": 0.0,
			"-0.016": 0.0,
			"-0.015": 0.0,
			"-0.014": 0.0235917353891,
			"-0.013": 0.895480673608,
			"-0.012": 0.856921043469,
			"-0.011": 1.17938210313,
			"-0.01": 1.13776015455,
			"-0.009": 1.88831794706,
			"-0.008": 3.97932668483,
			"-0.007": 5.1871037882,
			"-0.006": 7.84747097124,
			"-0.005": 11.03968513,
			"-0.004": 12.0304226994,
			"-0.003": 13.9263933963,
			"-0.002": 15.5098637836,
			"-0.001": 14.8586576377,
			"0.0": 19.4459037997,
			"0.001": 24.0068423554,
			"0.002": 20.2536140019,
			"0.003": 16.8418901119,
			"0.004": 16.6610355082,
			"0.005": 3.31138147879,
			"0.006": 1.83261540841,
			"0.007": 1.25049459049,
			"0.008": 1.40249147948,
			"0.009": 1.7158266133,
			"0.01": 1.9097596059,
			"0.011": 1.66286510209,
			"0.012": 2.72251135618,
			"0.013": 2.68775754753,
			"0.014": 1.14008711059,
			"0.015": 0.00266054167996,
			"0.016": 0.0,
			"0.017": 0.0,
			"0.018": 0.0,
			"0.019": 0.0,
			"0.02": 0.0,
			"0.021": 0.0,
			"0.022": 0.0,
			"0.023": 0.0,
			"0.024": 0.0,
			"0.025": 0.0
		}
	}
}
