{
	 "smiles": "NC(=O)C1=NC=C(N)C=C1", 
	 "Tm": 443.15, 
	 "num_atms": 17, 
	 "gaussian": { 
		 "optdone": 1, 
		 "sigma_profile": "yes", 
		 "theory": "DFT", 
		 "functional": "B3LYP", 
		 "basiset": "6-31G**", 
		 "properties": { 
			 "R2extent": 1698.5986, 
			 "electric_dipole_moment_norm": 6.61897617763, 
			 "electric_quadrupole_moment_norm": 17.3137462896, 
			 "total_energy": -472.343899416, 
			 "HOMO_LUMO_gap": 0.19123, 
			 "cosmo_polarized_energy": -24.32, 
			 "cosmo_cavitation_energy": 21.74, 
			 "cosmo_dispersion_energy": -16.27, 
			 "cosmo_repulsion_energy": 1.34, 
			 "cosmo_total_nonelectrostatic_energy": 6.81, 
			 "SMD_solvation_energy": 3.42 
		},
		"coords": [
			{
				"x": -0.3057501141,
				"y": 1.1950009155,
				"z": 2.6765371944,
				"element": "N" 
			},
			{
				"x": 0.3816850635,
				"y": 1.4307729866,
				"z": 1.4981174417,
				"element": "C" 
			},
			{
				"x": 1.3766722144,
				"y": 2.1342314125,
				"z": 1.4598793522,
				"element": "O" 
			},
			{
				"x": -0.1618030203,
				"y": 0.7060320142,
				"z": 0.2925826882,
				"element": "C" 
			},
			{
				"x": 0.0843060065,
				"y": 1.2769835475,
				"z": -0.8983709998,
				"element": "N" 
			},
			{
				"x": -0.3535505674,
				"y": 0.6750347587,
				"z": -1.9946121216,
				"element": "C" 
			},
			{
				"x": -1.0590208618,
				"y": -0.5493920715,
				"z": -2.0012911931,
				"element": "C" 
			},
			{
				"x": -1.4342300167,
				"y": -1.1474442979,
				"z": -3.1921652894,
				"element": "N" 
			},
			{
				"x": -1.3012462204,
				"y": -1.1453076339,
				"z": -0.7551878118,
				"element": "C" 
			},
			{
				"x": -0.8509331991,
				"y": -0.509774637,
				"z": 0.3965568711,
				"element": "C" 
			},
			{
				"x": -0.0123130775,
				"y": 1.7724209389,
				"z": 3.4524730109,
				"element": "H" 
			},
			{
				"x": -1.2890194845,
				"y": 0.9710728263,
				"z": 2.6382055888,
				"element": "H" 
			},
			{
				"x": -0.1402162227,
				"y": 1.1727412228,
				"z": -2.941855019,
				"element": "H" 
			},
			{
				"x": -1.481237696,
				"y": -0.5456326081,
				"z": -4.0017189468,
				"element": "H" 
			},
			{
				"x": -2.1888151027,
				"y": -1.8165968982,
				"z": -3.1477278893,
				"element": "H" 
			},
			{
				"x": -1.821959008,
				"y": -2.0977721135,
				"z": -0.6951955086,
				"element": "H" 
			},
			{
				"x": -1.0070686932,
				"y": -0.9710703629,
				"z": 1.366472632,
				"element": "H" 
			}
		],
		 "valence_orbital": [ 
			{
				"type": "occ",
				"energy": -0.28276,
				"method": "rhf"
			},
			{
				"type": "occ",
				"energy": -0.26393,
				"method": "rhf"
			},
			{
				"type": "occ",
				"energy": -0.25426,
				"method": "rhf"
			},
			{
				"type": "occ",
				"energy": -0.23692,
				"method": "rhf"
			},
			{
				"type": "occ",
				"energy": -0.21991,
				"method": "rhf"
			},
			{
				"type": "unocc",
				"energy": -0.02868,
				"method": "rhf"
			},
			{
				"type": "unocc",
				"energy": -0.02014,
				"method": "rhf"
			},
			{
				"type": "unocc",
				"energy": 0.05902,
				"method": "rhf"
			},
			{
				"type": "unocc",
				"energy": 0.07048,
				"method": "rhf"
			},
			{
				"type": "unocc",
				"energy": 0.08677,
				"method": "rhf"
			}
		],
		"cosmo_sigma_profile": { 
			"-0.025": 0.0,
			"-0.024": 0.0,
			"-0.023": 0.0,
			"-0.022": 0.0,
			"-0.021": 0.0,
			"-0.02": 0.0,
			"-0.019": 0.0,
			"-0.018": 0.0,
			"-0.017": 0.0,
			"-0.016": 0.0,
			"-0.015": 0.00620342100579,
			"-0.014": 1.1502848899,
			"-0.013": 4.8072129046,
			"-0.012": 5.94849765578,
			"-0.011": 5.68860277026,
			"-0.01": 5.6962781253,
			"-0.009": 4.96173326017,
			"-0.008": 7.02818087992,
			"-0.007": 7.91791296625,
			"-0.006": 7.10496890837,
			"-0.005": 6.83274025318,
			"-0.004": 6.11448249675,
			"-0.003": 6.92142316511,
			"-0.002": 5.58961828005,
			"-0.001": 6.1315980451,
			"0.0": 8.36707752981,
			"0.001": 9.22037146825,
			"0.002": 12.8732664437,
			"0.003": 10.5308103828,
			"0.004": 5.79360216807,
			"0.005": 4.67493373815,
			"0.006": 3.6454092213,
			"0.007": 3.40780120076,
			"0.008": 3.08726233928,
			"0.009": 2.97216202699,
			"0.01": 2.86377783898,
			"0.011": 3.11820071495,
			"0.012": 2.91989894933,
			"0.013": 5.09491864589,
			"0.014": 4.96500169225,
			"0.015": 2.60725129625,
			"0.016": 1.55531434869,
			"0.017": 1.47143079004,
			"0.018": 1.25111213117,
			"0.019": 0.362209498629,
			"0.02": 0.0,
			"0.021": 0.0,
			"0.022": 0.0,
			"0.023": 0.0,
			"0.024": 0.0,
			"0.025": 0.0
		}
	}
}
