{
	 "smiles": "NC1=C(Cl)C=CC(=C1)S(O)(=O)=O", 
	 "Tm": 573.15, 
	 "num_atms": 18, 
	 "gaussian": { 
		 "optdone": 1, 
		 "sigma_profile": "yes", 
		 "theory": "DFT", 
		 "functional": "B3LYP", 
		 "basiset": "6-31G**", 
		 "properties": { 
			 "R2extent": 3719.2138, 
			 "electric_dipole_moment_norm": 4.56085857268, 
			 "electric_quadrupole_moment_norm": 14.8949157702, 
			 "total_energy": -1370.99094283, 
			 "HOMO_LUMO_gap": 0.18268, 
			 "cosmo_polarized_energy": -16.79, 
			 "cosmo_cavitation_energy": 25.7, 
			 "cosmo_dispersion_energy": -19.97, 
			 "cosmo_repulsion_energy": 1.55, 
			 "cosmo_total_nonelectrostatic_energy": 7.28, 
			 "SMD_solvation_energy": 3.18 
		},
		"coords": [
			{
				"x": -2.8805635296,
				"y": 0.776171247,
				"z": 2.1794221326,
				"element": "N" 
			},
			{
				"x": -2.3373615545,
				"y": 0.2990185998,
				"z": 1.0057078067,
				"element": "C" 
			},
			{
				"x": -2.9587736244,
				"y": 0.5064478825,
				"z": -0.2454176902,
				"element": "C" 
			},
			{
				"x": -4.4258493119,
				"y": 1.4738619762,
				"z": -0.3114973602,
				"element": "Cl" 
			},
			{
				"x": -2.4512538027,
				"y": -0.0314189364,
				"z": -1.4248129832,
				"element": "C" 
			},
			{
				"x": -1.2884148342,
				"y": -0.7978127595,
				"z": -1.4048194459,
				"element": "C" 
			},
			{
				"x": -0.6602034425,
				"y": -0.9935276015,
				"z": -0.1743655182,
				"element": "C" 
			},
			{
				"x": -1.1587499967,
				"y": -0.4692454039,
				"z": 1.0126174368,
				"element": "C" 
			},
			{
				"x": 0.8435066546,
				"y": -1.9515219223,
				"z": -0.1112517556,
				"element": "S" 
			},
			{
				"x": 1.9524134118,
				"y": -0.7882472613,
				"z": -0.4783195182,
				"element": "O" 
			},
			{
				"x": 1.1197546119,
				"y": -2.3582695162,
				"z": 1.2681836612,
				"element": "O" 
			},
			{
				"x": 0.8320679199,
				"y": -2.9162400903,
				"z": -1.2016207531,
				"element": "O" 
			},
			{
				"x": -2.2610824035,
				"y": 0.8456227309,
				"z": 2.9722107468,
				"element": "H" 
			},
			{
				"x": -3.5525299332,
				"y": 1.5251030291,
				"z": 2.1016444169,
				"element": "H" 
			},
			{
				"x": -2.9739805515,
				"y": 0.1525113961,
				"z": -2.3568020699,
				"element": "H" 
			},
			{
				"x": -0.8884059472,
				"y": -1.2383918981,
				"z": -2.3096197603,
				"element": "H" 
			},
			{
				"x": -0.6493603647,
				"y": -0.6728027038,
				"z": 1.9487851488,
				"element": "H" 
			},
			{
				"x": 2.6533866984,
				"y": -0.8649587683,
				"z": 0.191255505,
				"element": "H" 
			}
		],
		 "valence_orbital": [ 
			{
				"type": "occ",
				"energy": -0.32589,
				"method": "rhf"
			},
			{
				"type": "occ",
				"energy": -0.32168,
				"method": "rhf"
			},
			{
				"type": "occ",
				"energy": -0.30651,
				"method": "rhf"
			},
			{
				"type": "occ",
				"energy": -0.2722,
				"method": "rhf"
			},
			{
				"type": "occ",
				"energy": -0.23066,
				"method": "rhf"
			},
			{
				"type": "unocc",
				"energy": -0.04798,
				"method": "rhf"
			},
			{
				"type": "unocc",
				"energy": -0.01789,
				"method": "rhf"
			},
			{
				"type": "unocc",
				"energy": 0.01374,
				"method": "rhf"
			},
			{
				"type": "unocc",
				"energy": 0.0405,
				"method": "rhf"
			},
			{
				"type": "unocc",
				"energy": 0.06533,
				"method": "rhf"
			}
		],
		"cosmo_sigma_profile": { 
			"-0.025": 0.0,
			"-0.024": 0.0,
			"-0.023": 0.0,
			"-0.022": 0.0,
			"-0.021": 0.0,
			"-0.02": 0.554003134059,
			"-0.019": 0.782020838746,
			"-0.018": 1.10778221804,
			"-0.017": 1.0282591049,
			"-0.016": 0.585357378069,
			"-0.015": 0.36094347841,
			"-0.014": 1.88204209322,
			"-0.013": 3.10667782952,
			"-0.012": 3.05807602979,
			"-0.011": 3.60729637193,
			"-0.01": 3.55616348201,
			"-0.009": 3.24481278703,
			"-0.008": 5.02769652189,
			"-0.007": 6.68277195671,
			"-0.006": 6.75199669465,
			"-0.005": 6.24528852444,
			"-0.004": 7.67667697627,
			"-0.003": 7.69560191261,
			"-0.002": 9.45965085826,
			"-0.001": 11.2437883848,
			"0.0": 13.0137344815,
			"0.001": 20.0989590975,
			"0.002": 20.1705461752,
			"0.003": 13.750266795,
			"0.004": 10.6660660086,
			"0.005": 5.43444369163,
			"0.006": 5.56330645278,
			"0.007": 5.8063723065,
			"0.008": 5.72893193824,
			"0.009": 9.23592795433,
			"0.01": 10.9830741557,
			"0.011": 3.55456127764,
			"0.012": 0.0381269941045,
			"0.013": 0.0,
			"0.014": 0.0,
			"0.015": 0.0,
			"0.016": 0.0,
			"0.017": 0.0,
			"0.018": 0.0,
			"0.019": 0.0,
			"0.02": 0.0,
			"0.021": 0.0,
			"0.022": 0.0,
			"0.023": 0.0,
			"0.024": 0.0,
			"0.025": 0.0
		}
	}
}
