{
	 "smiles": "COC1=C(OCC(O)=O)C=CC(C)=C1", 
	 "Tm": 392.15, 
	 "num_atms": 26, 
	 "gaussian": { 
		 "optdone": 1, 
		 "sigma_profile": "yes", 
		 "theory": "DFT", 
		 "functional": "B3LYP", 
		 "basiset": "6-31G**", 
		 "properties": { 
			 "R2extent": 4288.7434, 
			 "electric_dipole_moment_norm": 5.65387393386, 
			 "electric_quadrupole_moment_norm": 23.8892649899, 
			 "total_energy": -689.181006878, 
			 "HOMO_LUMO_gap": 0.21073, 
			 "cosmo_polarized_energy": -13.71, 
			 "cosmo_cavitation_energy": 29.74, 
			 "cosmo_dispersion_energy": -21.34, 
			 "cosmo_repulsion_energy": 1.68, 
			 "cosmo_total_nonelectrostatic_energy": 10.09, 
			 "SMD_solvation_energy": 7.38 
		},
		"coords": [
			{
				"x": 1.7377137617,
				"y": 0.5424108008,
				"z": 1.381170928,
				"element": "C" 
			},
			{
				"x": 1.3406816366,
				"y": -0.7718500169,
				"z": 1.0049091633,
				"element": "O" 
			},
			{
				"x": 0.4970594448,
				"y": -0.9194224535,
				"z": -0.0647898297,
				"element": "C" 
			},
			{
				"x": 0.0625111709,
				"y": -2.2380558732,
				"z": -0.3115482266,
				"element": "C" 
			},
			{
				"x": 0.5731373726,
				"y": -3.2406297373,
				"z": 0.4891580439,
				"element": "O" 
			},
			{
				"x": -0.340752962,
				"y": -3.9930685188,
				"z": 1.2884120336,
				"element": "C" 
			},
			{
				"x": -0.3101535607,
				"y": -3.5788018481,
				"z": 2.7665266468,
				"element": "C" 
			},
			{
				"x": 0.512725977,
				"y": -2.5725868992,
				"z": 3.0822311014,
				"element": "O" 
			},
			{
				"x": -0.9929935534,
				"y": -4.1535834231,
				"z": 3.580961113,
				"element": "O" 
			},
			{
				"x": -0.8006508086,
				"y": -2.4895982644,
				"z": -1.3698406985,
				"element": "C" 
			},
			{
				"x": -1.2471961502,
				"y": -1.4411892441,
				"z": -2.1811948771,
				"element": "C" 
			},
			{
				"x": -0.8233845159,
				"y": -0.131480345,
				"z": -1.9522393902,
				"element": "C" 
			},
			{
				"x": -1.2890654321,
				"y": 1.0096343769,
				"z": -2.8263062696,
				"element": "C" 
			},
			{
				"x": 0.0569616801,
				"y": 0.1177206713,
				"z": -0.8847358452,
				"element": "C" 
			},
			{
				"x": 2.328161943,
				"y": 1.0185907481,
				"z": 0.5897506797,
				"element": "H" 
			},
			{
				"x": 0.8698822392,
				"y": 1.1693060818,
				"z": 1.6178148663,
				"element": "H" 
			},
			{
				"x": 2.354949141,
				"y": 0.4248554982,
				"z": 2.2722564428,
				"element": "H" 
			},
			{
				"x": -1.3695851045,
				"y": -3.9001723961,
				"z": 0.9266321179,
				"element": "H" 
			},
			{
				"x": -0.0525787775,
				"y": -5.0467388522,
				"z": 1.2332200314,
				"element": "H" 
			},
			{
				"x": 0.9522022435,
				"y": -2.2292916017,
				"z": 2.2767581698,
				"element": "H" 
			},
			{
				"x": -1.1140842855,
				"y": -3.5109369411,
				"z": -1.5639777594,
				"element": "H" 
			},
			{
				"x": -1.9236114296,
				"y": -1.6533647932,
				"z": -3.0039151126,
				"element": "H" 
			},
			{
				"x": -1.9858176732,
				"y": 0.6626205807,
				"z": -3.5937273467,
				"element": "H" 
			},
			{
				"x": -0.4470006137,
				"y": 1.4935419903,
				"z": -3.3347505124,
				"element": "H" 
			},
			{
				"x": -1.7974536917,
				"y": 1.7825197629,
				"z": -2.2383951685,
				"element": "H" 
			},
			{
				"x": 0.3860419481,
				"y": 1.1343706969,
				"z": -0.6990803016,
				"element": "H" 
			}
		],
		 "valence_orbital": [ 
			{
				"type": "occ",
				"energy": -0.31659,
				"method": "rhf"
			},
			{
				"type": "occ",
				"energy": -0.29837,
				"method": "rhf"
			},
			{
				"type": "occ",
				"energy": -0.26272,
				"method": "rhf"
			},
			{
				"type": "occ",
				"energy": -0.24953,
				"method": "rhf"
			},
			{
				"type": "occ",
				"energy": -0.22522,
				"method": "rhf"
			},
			{
				"type": "unocc",
				"energy": -0.01449,
				"method": "rhf"
			},
			{
				"type": "unocc",
				"energy": -0.0001,
				"method": "rhf"
			},
			{
				"type": "unocc",
				"energy": 0.0228,
				"method": "rhf"
			},
			{
				"type": "unocc",
				"energy": 0.06879,
				"method": "rhf"
			},
			{
				"type": "unocc",
				"energy": 0.08534,
				"method": "rhf"
			}
		],
		"cosmo_sigma_profile": { 
			"-0.025": 0.0,
			"-0.024": 0.0,
			"-0.023": 0.0,
			"-0.022": 0.0,
			"-0.021": 0.0,
			"-0.02": 0.0,
			"-0.019": 0.0,
			"-0.018": 0.0,
			"-0.017": 0.0,
			"-0.016": 0.0,
			"-0.015": 0.0,
			"-0.014": 0.0,
			"-0.013": 0.0,
			"-0.012": 0.0,
			"-0.011": 0.0,
			"-0.01": 0.0,
			"-0.009": 0.155470221756,
			"-0.008": 3.5015017045,
			"-0.007": 8.74685940543,
			"-0.006": 16.7993924709,
			"-0.005": 23.1353576634,
			"-0.004": 24.3165745364,
			"-0.003": 22.401429352,
			"-0.002": 15.6789426595,
			"-0.001": 14.7561661168,
			"0.0": 15.7233371312,
			"0.001": 10.6259726681,
			"0.002": 10.5574668957,
			"0.003": 9.64332758595,
			"0.004": 11.5628910719,
			"0.005": 11.9329429884,
			"0.006": 4.50028375114,
			"0.007": 4.04131880895,
			"0.008": 4.09954383262,
			"0.009": 4.53866910871,
			"0.01": 5.4898794907,
			"0.011": 4.62979043702,
			"0.012": 6.19008978064,
			"0.013": 2.76757672418,
			"0.014": 0.221289553115,
			"0.015": 0.0,
			"0.016": 0.0,
			"0.017": 0.0,
			"0.018": 0.0,
			"0.019": 0.0,
			"0.02": 0.0,
			"0.021": 0.0,
			"0.022": 0.0,
			"0.023": 0.0,
			"0.024": 0.0,
			"0.025": 0.0
		}
	}
}
