{
	 "smiles": "O=CC1=CC2=C3C=CC=CC3=CC=C2OC1", 
	 "Tm": 418.15, 
	 "num_atms": 26, 
	 "gaussian": { 
		 "optdone": 1, 
		 "sigma_profile": "yes", 
		 "theory": "DFT", 
		 "functional": "B3LYP", 
		 "basiset": "6-31G**", 
		 "properties": { 
			 "R2extent": 3807.637, 
			 "electric_dipole_moment_norm": 3.32257821729, 
			 "electric_quadrupole_moment_norm": 14.226959439, 
			 "total_energy": -689.944840298, 
			 "HOMO_LUMO_gap": 0.12611, 
			 "cosmo_polarized_energy": -10.57, 
			 "cosmo_cavitation_energy": 29.91, 
			 "cosmo_dispersion_energy": -22.16, 
			 "cosmo_repulsion_energy": 1.67, 
			 "cosmo_total_nonelectrostatic_energy": 9.42, 
			 "SMD_solvation_energy": 5.9 
		},
		"coords": [
			{
				"x": 2.0832815774,
				"y": -3.5857435184,
				"z": -0.7383039573,
				"element": "O" 
			},
			{
				"x": 2.6769090638,
				"y": -2.7480257055,
				"z": -0.0773124126,
				"element": "C" 
			},
			{
				"x": 2.1480224046,
				"y": -1.4219415915,
				"z": 0.2655428295,
				"element": "C" 
			},
			{
				"x": 0.8826370349,
				"y": -1.0593134433,
				"z": -0.0589327953,
				"element": "C" 
			},
			{
				"x": 0.3381329517,
				"y": 0.1984472356,
				"z": 0.398179132,
				"element": "C" 
			},
			{
				"x": -0.9191887101,
				"y": 0.7406780268,
				"z": -0.0439815718,
				"element": "C" 
			},
			{
				"x": -1.6578652294,
				"y": 0.1873978599,
				"z": -1.1214055931,
				"element": "C" 
			},
			{
				"x": -2.8619060413,
				"y": 0.7357453337,
				"z": -1.5133762877,
				"element": "C" 
			},
			{
				"x": -3.3877178779,
				"y": 1.8697409211,
				"z": -0.8545325478,
				"element": "C" 
			},
			{
				"x": -2.6908901544,
				"y": 2.4358231617,
				"z": 0.1900919095,
				"element": "C" 
			},
			{
				"x": -1.4523387012,
				"y": 1.8932623618,
				"z": 0.6192953405,
				"element": "C" 
			},
			{
				"x": -0.7278044108,
				"y": 2.4664600362,
				"z": 1.7020492723,
				"element": "C" 
			},
			{
				"x": 0.4798147151,
				"y": 1.9548098786,
				"z": 2.1094656348,
				"element": "C" 
			},
			{
				"x": 1.0258007345,
				"y": 0.8370882346,
				"z": 1.4392716954,
				"element": "C" 
			},
			{
				"x": 2.2100795549,
				"y": 0.368377986,
				"z": 1.913102094,
				"element": "O" 
			},
			{
				"x": 2.9941762109,
				"y": -0.405884581,
				"z": 0.9853204049,
				"element": "C" 
			},
			{
				"x": 3.6974615139,
				"y": -2.9600509489,
				"z": 0.3148666552,
				"element": "H" 
			},
			{
				"x": 0.2653165808,
				"y": -1.769770036,
				"z": -0.6001815062,
				"element": "H" 
			},
			{
				"x": -1.266075564,
				"y": -0.6713646298,
				"z": -1.6560745764,
				"element": "H" 
			},
			{
				"x": -3.4084785265,
				"y": 0.2938823649,
				"z": -2.3414942779,
				"element": "H" 
			},
			{
				"x": -4.3350798397,
				"y": 2.292180799,
				"z": -1.175299272,
				"element": "H" 
			},
			{
				"x": -3.0810879095,
				"y": 3.3108719451,
				"z": 0.7036051604,
				"element": "H" 
			},
			{
				"x": -1.144267558,
				"y": 3.335218664,
				"z": 2.205017555,
				"element": "H" 
			},
			{
				"x": 1.0402911143,
				"y": 2.389526638,
				"z": 2.9299696121,
				"element": "H" 
			},
			{
				"x": 3.4712529401,
				"y": 0.2913900606,
				"z": 0.2767864523,
				"element": "H" 
			},
			{
				"x": 3.7817241261,
				"y": -0.870907053,
				"z": 1.5844310502,
				"element": "H" 
			}
		],
		 "valence_orbital": [ 
			{
				"type": "occ",
				"energy": -0.30906,
				"method": "rhf"
			},
			{
				"type": "occ",
				"energy": -0.26437,
				"method": "rhf"
			},
			{
				"type": "occ",
				"energy": -0.25029,
				"method": "rhf"
			},
			{
				"type": "occ",
				"energy": -0.24193,
				"method": "rhf"
			},
			{
				"type": "occ",
				"energy": -0.2089,
				"method": "rhf"
			},
			{
				"type": "unocc",
				"energy": -0.08279,
				"method": "rhf"
			},
			{
				"type": "unocc",
				"energy": -0.03276,
				"method": "rhf"
			},
			{
				"type": "unocc",
				"energy": -0.01359,
				"method": "rhf"
			},
			{
				"type": "unocc",
				"energy": 0.02615,
				"method": "rhf"
			},
			{
				"type": "unocc",
				"energy": 0.0642,
				"method": "rhf"
			}
		],
		"cosmo_sigma_profile": { 
			"-0.025": 0.0,
			"-0.024": 0.0,
			"-0.023": 0.0,
			"-0.022": 0.0,
			"-0.021": 0.0,
			"-0.02": 0.0,
			"-0.019": 0.0,
			"-0.018": 0.0,
			"-0.017": 0.0,
			"-0.016": 0.0,
			"-0.015": 0.0,
			"-0.014": 0.0,
			"-0.013": 0.0,
			"-0.012": 0.0,
			"-0.011": 0.0,
			"-0.01": 0.0,
			"-0.009": 0.13933588904,
			"-0.008": 3.23482367847,
			"-0.007": 10.7706682186,
			"-0.006": 18.8321873392,
			"-0.005": 21.0355375253,
			"-0.004": 18.7316431748,
			"-0.003": 15.2605685999,
			"-0.002": 12.07672129,
			"-0.001": 13.805354013,
			"0.0": 12.0829983286,
			"0.001": 19.2477262917,
			"0.002": 24.3847502928,
			"0.003": 21.3615764532,
			"0.004": 15.0070891592,
			"0.005": 10.0683069761,
			"0.006": 3.06121953015,
			"0.007": 2.26883928005,
			"0.008": 3.20071009941,
			"0.009": 3.15789355802,
			"0.01": 2.49047452966,
			"0.011": 3.28488263722,
			"0.012": 4.77838913652,
			"0.013": 1.9302507388,
			"0.014": 0.223555440249,
			"0.015": 0.0,
			"0.016": 0.0,
			"0.017": 0.0,
			"0.018": 0.0,
			"0.019": 0.0,
			"0.02": 0.0,
			"0.021": 0.0,
			"0.022": 0.0,
			"0.023": 0.0,
			"0.024": 0.0,
			"0.025": 0.0
		}
	}
}
