{
	 "smiles": "COCC(C)O", 
	 "Tm": 175.65, 
	 "num_atms": 16, 
	 "gaussian": { 
		 "optdone": 1, 
		 "sigma_profile": "yes", 
		 "theory": "DFT", 
		 "functional": "B3LYP", 
		 "basiset": "6-31G**", 
		 "properties": { 
			 "R2extent": 1092.0484, 
			 "electric_dipole_moment_norm": 2.36527370298, 
			 "electric_quadrupole_moment_norm": 9.00418050685, 
			 "total_energy": -308.881764937, 
			 "HOMO_LUMO_gap": 0.33628, 
			 "cosmo_polarized_energy": -6.27, 
			 "cosmo_cavitation_energy": 18.37, 
			 "cosmo_dispersion_energy": -13.64, 
			 "cosmo_repulsion_energy": 1.2, 
			 "cosmo_total_nonelectrostatic_energy": 5.93, 
			 "SMD_solvation_energy": 3.92 
		},
		"coords": [
			{
				"x": -0.1651165114,
				"y": -3.455932336,
				"z": -0.1701777523,
				"element": "C" 
			},
			{
				"x": -0.165679499,
				"y": -2.1284450913,
				"z": -0.6513619179,
				"element": "O" 
			},
			{
				"x": 1.0478176625,
				"y": -1.4349940987,
				"z": -0.3972541662,
				"element": "C" 
			},
			{
				"x": 0.9436018856,
				"y": -0.0770396988,
				"z": -1.0940287919,
				"element": "C" 
			},
			{
				"x": -0.1356387789,
				"y": 0.8191499191,
				"z": -0.4788826256,
				"element": "C" 
			},
			{
				"x": 0.7258825931,
				"y": -0.2753010838,
				"z": -2.4864222633,
				"element": "O" 
			},
			{
				"x": -1.1302045252,
				"y": -3.898008011,
				"z": -0.4296244359,
				"element": "H" 
			},
			{
				"x": -0.0409234291,
				"y": -3.4912836489,
				"z": 0.9231181654,
				"element": "H" 
			},
			{
				"x": 0.6371552765,
				"y": -4.0551330229,
				"z": -0.6280450839,
				"element": "H" 
			},
			{
				"x": 1.2103784588,
				"y": -1.3157340345,
				"z": 0.6867307134,
				"element": "H" 
			},
			{
				"x": 1.898895269,
				"y": -1.9976614474,
				"z": -0.812637584,
				"element": "H" 
			},
			{
				"x": 1.9187451819,
				"y": 0.4188710984,
				"z": -1.0099487039,
				"element": "H" 
			},
			{
				"x": 0.0983285496,
				"y": 1.0643498095,
				"z": 0.5634130417,
				"element": "H" 
			},
			{
				"x": -0.2108654346,
				"y": 1.7502948056,
				"z": -1.0465612532,
				"element": "H" 
			},
			{
				"x": -1.1073622172,
				"y": 0.3167265802,
				"z": -0.5004713835,
				"element": "H" 
			},
			{
				"x": 0.0071855183,
				"y": -0.9223597396,
				"z": -2.5444459589,
				"element": "H" 
			}
		],
		 "valence_orbital": [ 
			{
				"type": "occ",
				"energy": -0.35564,
				"method": "rhf"
			},
			{
				"type": "occ",
				"energy": -0.32837,
				"method": "rhf"
			},
			{
				"type": "occ",
				"energy": -0.3128,
				"method": "rhf"
			},
			{
				"type": "occ",
				"energy": -0.2645,
				"method": "rhf"
			},
			{
				"type": "occ",
				"energy": -0.25703,
				"method": "rhf"
			},
			{
				"type": "unocc",
				"energy": 0.07925,
				"method": "rhf"
			},
			{
				"type": "unocc",
				"energy": 0.11314,
				"method": "rhf"
			},
			{
				"type": "unocc",
				"energy": 0.11992,
				"method": "rhf"
			},
			{
				"type": "unocc",
				"energy": 0.14072,
				"method": "rhf"
			},
			{
				"type": "unocc",
				"energy": 0.14934,
				"method": "rhf"
			}
		],
		"cosmo_sigma_profile": { 
			"-0.025": 0.0,
			"-0.024": 0.0,
			"-0.023": 0.0,
			"-0.022": 0.0,
			"-0.021": 0.0,
			"-0.02": 0.0,
			"-0.019": 0.0,
			"-0.018": 0.0,
			"-0.017": 0.0,
			"-0.016": 0.0,
			"-0.015": 0.0,
			"-0.014": 0.0,
			"-0.013": 0.0,
			"-0.012": 0.250807719515,
			"-0.011": 0.528650863982,
			"-0.01": 0.492834938143,
			"-0.009": 0.713310821073,
			"-0.008": 0.285368384767,
			"-0.007": 0.140370691155,
			"-0.006": 1.39689209078,
			"-0.005": 3.41261743751,
			"-0.004": 17.0939167571,
			"-0.003": 26.1275446066,
			"-0.002": 21.8463101498,
			"-0.001": 13.7925870335,
			"0.0": 9.79842458887,
			"0.001": 11.1893953429,
			"0.002": 5.59798762533,
			"0.003": 3.73537030955,
			"0.004": 3.25458102441,
			"0.005": 3.19165090474,
			"0.006": 2.37566951957,
			"0.007": 2.91099360739,
			"0.008": 2.00376656297,
			"0.009": 2.17263213893,
			"0.01": 1.6943729642,
			"0.011": 1.03103042381,
			"0.012": 1.52616131845,
			"0.013": 1.66157571414,
			"0.014": 2.12135916273,
			"0.015": 1.56213161751,
			"0.016": 0.00519559953311,
			"0.017": 0.0,
			"0.018": 0.0,
			"0.019": 0.0,
			"0.02": 0.0,
			"0.021": 0.0,
			"0.022": 0.0,
			"0.023": 0.0,
			"0.024": 0.0,
			"0.025": 0.0
		}
	}
}
