{
	 "smiles": "OCC(CO)(CO)NCCS(O)(=O)=O", 
	 "Tm": 497.15, 
	 "num_atms": 29, 
	 "gaussian": { 
		 "optdone": 1, 
		 "sigma_profile": "yes", 
		 "theory": "DFT", 
		 "functional": "B3LYP", 
		 "basiset": "6-31G**", 
		 "properties": { 
			 "R2extent": 5193.2059, 
			 "electric_dipole_moment_norm": 2.81392290761, 
			 "electric_quadrupole_moment_norm": 24.8869174793, 
			 "total_energy": -1141.8578084, 
			 "HOMO_LUMO_gap": 0.27457, 
			 "cosmo_polarized_energy": -25.28, 
			 "cosmo_cavitation_energy": 32.51, 
			 "cosmo_dispersion_energy": -23.79, 
			 "cosmo_repulsion_energy": 1.88, 
			 "cosmo_total_nonelectrostatic_energy": 10.6, 
			 "SMD_solvation_energy": 4.09 
		},
		"coords": [
			{
				"x": 1.7818669282,
				"y": -0.6675204411,
				"z": -1.7766777749,
				"element": "O" 
			},
			{
				"x": 0.8951480207,
				"y": -1.2604592479,
				"z": -0.8486030404,
				"element": "C" 
			},
			{
				"x": -0.3913479128,
				"y": -0.4152319893,
				"z": -0.6944191298,
				"element": "C" 
			},
			{
				"x": -1.1528391566,
				"y": -0.4225444752,
				"z": -2.0294397136,
				"element": "C" 
			},
			{
				"x": -2.2087372994,
				"y": 0.5387071547,
				"z": -1.9404025047,
				"element": "O" 
			},
			{
				"x": -1.2902180004,
				"y": -0.9786073994,
				"z": 0.4212395314,
				"element": "C" 
			},
			{
				"x": -1.5874711259,
				"y": -2.3346244133,
				"z": 0.1025978456,
				"element": "O" 
			},
			{
				"x": 0.0195354238,
				"y": 0.9876899365,
				"z": -0.460843773,
				"element": "N" 
			},
			{
				"x": 0.4432398248,
				"y": 1.370534188,
				"z": 0.8867278704,
				"element": "C" 
			},
			{
				"x": 1.1534652524,
				"y": 2.725725764,
				"z": 0.8014578285,
				"element": "C" 
			},
			{
				"x": 1.6921764821,
				"y": 3.3530272874,
				"z": 2.4042653679,
				"element": "S" 
			},
			{
				"x": 2.7469524821,
				"y": 2.1601223935,
				"z": 2.8326481363,
				"element": "O" 
			},
			{
				"x": 2.4854433145,
				"y": 4.5677824475,
				"z": 2.2152164324,
				"element": "O" 
			},
			{
				"x": 0.5695620114,
				"y": 3.3178616276,
				"z": 3.3322802575,
				"element": "O" 
			},
			{
				"x": 1.6728570457,
				"y": 0.2883042139,
				"z": -1.6260649531,
				"element": "H" 
			},
			{
				"x": 1.367831865,
				"y": -1.3791116463,
				"z": 0.1418690696,
				"element": "H" 
			},
			{
				"x": 0.6434061634,
				"y": -2.2633079995,
				"z": -1.2027372393,
				"element": "H" 
			},
			{
				"x": -0.450338,
				"y": -0.1710457579,
				"z": -2.8329692284,
				"element": "H" 
			},
			{
				"x": -1.5473174971,
				"y": -1.4314325122,
				"z": -2.1972410421,
				"element": "H" 
			},
			{
				"x": -2.617380981,
				"y": 0.6206854849,
				"z": -2.809965338,
				"element": "H" 
			},
			{
				"x": -0.7681187777,
				"y": -0.9137231255,
				"z": 1.3874441285,
				"element": "H" 
			},
			{
				"x": -2.2024131191,
				"y": -0.3678979863,
				"z": 0.4821840408,
				"element": "H" 
			},
			{
				"x": -2.188064667,
				"y": -2.678546985,
				"z": 0.774497026,
				"element": "H" 
			},
			{
				"x": -0.7421205902,
				"y": 1.584538259,
				"z": -0.7765616505,
				"element": "H" 
			},
			{
				"x": 1.1497230354,
				"y": 0.6278565501,
				"z": 1.2681601437,
				"element": "H" 
			},
			{
				"x": -0.3782228997,
				"y": 1.4456175272,
				"z": 1.6129078787,
				"element": "H" 
			},
			{
				"x": 2.0397839981,
				"y": 2.6824920978,
				"z": 0.1650547734,
				"element": "H" 
			},
			{
				"x": 0.4875198383,
				"y": 3.5062344925,
				"z": 0.4185640508,
				"element": "H" 
			},
			{
				"x": 3.5937783409,
				"y": 2.6000745544,
				"z": 3.0181110061,
				"element": "H" 
			}
		],
		 "valence_orbital": [ 
			{
				"type": "occ",
				"energy": -0.30956,
				"method": "rhf"
			},
			{
				"type": "occ",
				"energy": -0.28897,
				"method": "rhf"
			},
			{
				"type": "occ",
				"energy": -0.27373,
				"method": "rhf"
			},
			{
				"type": "occ",
				"energy": -0.25961,
				"method": "rhf"
			},
			{
				"type": "occ",
				"energy": -0.24546,
				"method": "rhf"
			},
			{
				"type": "unocc",
				"energy": 0.02911,
				"method": "rhf"
			},
			{
				"type": "unocc",
				"energy": 0.05621,
				"method": "rhf"
			},
			{
				"type": "unocc",
				"energy": 0.06145,
				"method": "rhf"
			},
			{
				"type": "unocc",
				"energy": 0.06684,
				"method": "rhf"
			},
			{
				"type": "unocc",
				"energy": 0.0771,
				"method": "rhf"
			}
		],
		"cosmo_sigma_profile": { 
			"-0.025": 0.0,
			"-0.024": 0.0,
			"-0.023": 0.0,
			"-0.022": 0.0,
			"-0.021": 0.0,
			"-0.02": 0.39217340316,
			"-0.019": 0.926359239665,
			"-0.018": 0.85039620753,
			"-0.017": 1.0628890371,
			"-0.016": 1.94907785358,
			"-0.015": 3.18920061993,
			"-0.014": 2.88788976288,
			"-0.013": 2.13805715497,
			"-0.012": 2.07878613226,
			"-0.011": 3.0047500963,
			"-0.01": 5.13874578856,
			"-0.009": 6.12929573177,
			"-0.008": 8.08795269937,
			"-0.007": 8.21475301028,
			"-0.006": 9.05887526022,
			"-0.005": 11.6498518833,
			"-0.004": 18.8198758329,
			"-0.003": 17.0086061693,
			"-0.002": 15.1054828934,
			"-0.001": 12.3114361219,
			"0.0": 9.97895645174,
			"0.001": 9.29027225465,
			"0.002": 9.21215184762,
			"0.003": 7.98356435876,
			"0.004": 6.9709735303,
			"0.005": 7.7875748455,
			"0.006": 8.66036121621,
			"0.007": 9.65130306624,
			"0.008": 7.75668335477,
			"0.009": 10.2195660312,
			"0.01": 16.838393432,
			"0.011": 9.72949383711,
			"0.012": 2.16555103671,
			"0.013": 1.66329242081,
			"0.014": 2.01034850215,
			"0.015": 1.89100611491,
			"0.016": 0.0521915560513,
			"0.017": 0.0,
			"0.018": 0.0,
			"0.019": 0.0,
			"0.02": 0.0,
			"0.021": 0.0,
			"0.022": 0.0,
			"0.023": 0.0,
			"0.024": 0.0,
			"0.025": 0.0
		}
	}
}
