{
	 "smiles": "CCC1=NC=C(N)C=N1", 
	 "Tm": 399.15, 
	 "num_atms": 18, 
	 "gaussian": { 
		 "optdone": 1, 
		 "sigma_profile": "yes", 
		 "theory": "DFT", 
		 "functional": "B3LYP", 
		 "basiset": "6-31G**", 
		 "properties": { 
			 "R2extent": 1584.8927, 
			 "electric_dipole_moment_norm": 3.37236964166, 
			 "electric_quadrupole_moment_norm": 13.468973645, 
			 "total_energy": -398.320698672, 
			 "HOMO_LUMO_gap": 0.18906, 
			 "cosmo_polarized_energy": -11.94, 
			 "cosmo_cavitation_energy": 21.75, 
			 "cosmo_dispersion_energy": -16.15, 
			 "cosmo_repulsion_energy": 1.35, 
			 "cosmo_total_nonelectrostatic_energy": 6.95, 
			 "SMD_solvation_energy": 1.07 
		},
		"coords": [
			{
				"x": 2.612683235,
				"y": 0.0145258872,
				"z": -2.0383740912,
				"element": "C" 
			},
			{
				"x": 1.3528486617,
				"y": -0.869253285,
				"z": -2.0268222981,
				"element": "C" 
			},
			{
				"x": 0.7181004264,
				"y": -0.9331740455,
				"z": -0.6592795778,
				"element": "C" 
			},
			{
				"x": -0.1973346558,
				"y": 0.0001144232,
				"z": -0.351677062,
				"element": "N" 
			},
			{
				"x": -0.7315495858,
				"y": -0.0431361058,
				"z": 0.8676102959,
				"element": "C" 
			},
			{
				"x": -0.3766908709,
				"y": -1.0090371741,
				"z": 1.821872528,
				"element": "C" 
			},
			{
				"x": -0.985692636,
				"y": -1.0882568804,
				"z": 3.0699501123,
				"element": "N" 
			},
			{
				"x": 0.595014485,
				"y": -1.9273858238,
				"z": 1.3953296103,
				"element": "C" 
			},
			{
				"x": 1.1369607318,
				"y": -1.8951105921,
				"z": 0.1791189327,
				"element": "N" 
			},
			{
				"x": 3.0567963701,
				"y": 0.0472720143,
				"z": -3.0385497059,
				"element": "H" 
			},
			{
				"x": 3.3647882024,
				"y": -0.3740141363,
				"z": -1.3442892301,
				"element": "H" 
			},
			{
				"x": 2.369690874,
				"y": 1.0393339339,
				"z": -1.7398741574,
				"element": "H" 
			},
			{
				"x": 0.6176879445,
				"y": -0.4708418401,
				"z": -2.7327049714,
				"element": "H" 
			},
			{
				"x": 1.6139448454,
				"y": -1.8858184536,
				"z": -2.3364798249,
				"element": "H" 
			},
			{
				"x": -1.4775671677,
				"y": 0.7166229816,
				"z": 1.106360473,
				"element": "H" 
			},
			{
				"x": -0.4490131267,
				"y": -1.5616378451,
				"z": 3.784283179,
				"element": "H" 
			},
			{
				"x": -1.3892702297,
				"y": -0.2258830893,
				"z": 3.4102725293,
				"element": "H" 
			},
			{
				"x": 0.9386024963,
				"y": -2.7153199692,
				"z": 2.0675532583,
				"element": "H" 
			}
		],
		 "valence_orbital": [ 
			{
				"type": "occ",
				"energy": -0.3306,
				"method": "rhf"
			},
			{
				"type": "occ",
				"energy": -0.30573,
				"method": "rhf"
			},
			{
				"type": "occ",
				"energy": -0.29354,
				"method": "rhf"
			},
			{
				"type": "occ",
				"energy": -0.23694,
				"method": "rhf"
			},
			{
				"type": "occ",
				"energy": -0.2194,
				"method": "rhf"
			},
			{
				"type": "unocc",
				"energy": -0.03034,
				"method": "rhf"
			},
			{
				"type": "unocc",
				"energy": -0.00198,
				"method": "rhf"
			},
			{
				"type": "unocc",
				"energy": 0.06794,
				"method": "rhf"
			},
			{
				"type": "unocc",
				"energy": 0.11936,
				"method": "rhf"
			},
			{
				"type": "unocc",
				"energy": 0.12039,
				"method": "rhf"
			}
		],
		"cosmo_sigma_profile": { 
			"-0.025": 0.0,
			"-0.024": 0.0,
			"-0.023": 0.0,
			"-0.022": 0.0,
			"-0.021": 0.0,
			"-0.02": 0.0,
			"-0.019": 0.0,
			"-0.018": 0.0,
			"-0.017": 0.0,
			"-0.016": 0.0,
			"-0.015": 0.0,
			"-0.014": 0.107334850867,
			"-0.013": 2.69468064539,
			"-0.012": 3.09835672232,
			"-0.011": 3.37703049585,
			"-0.01": 3.49883033801,
			"-0.009": 3.57858676245,
			"-0.008": 2.84797419834,
			"-0.007": 5.37227937044,
			"-0.006": 4.11921845594,
			"-0.005": 3.74306055037,
			"-0.004": 4.8918933518,
			"-0.003": 11.1580287754,
			"-0.002": 10.5647441571,
			"-0.001": 15.8437826444,
			"0.0": 21.5812974243,
			"0.001": 22.670674952,
			"0.002": 10.0296763062,
			"0.003": 5.63264482297,
			"0.004": 5.25198096977,
			"0.005": 5.04268503869,
			"0.006": 3.97832794893,
			"0.007": 2.47357190483,
			"0.008": 3.93575811435,
			"0.009": 3.31119474436,
			"0.01": 2.20971615338,
			"0.011": 1.5421634532,
			"0.012": 2.91958035276,
			"0.013": 2.38019101115,
			"0.014": 1.19419921902,
			"0.015": 1.45443576472,
			"0.016": 1.06156435772,
			"0.017": 0.0667244530473,
			"0.018": 0.0,
			"0.019": 0.0,
			"0.02": 0.0,
			"0.021": 0.0,
			"0.022": 0.0,
			"0.023": 0.0,
			"0.024": 0.0,
			"0.025": 0.0
		}
	}
}
