{
	 "smiles": "NC1=C(C=NC=C1)C#N", 
	 "Tm": 444.15, 
	 "num_atms": 14, 
	 "gaussian": { 
		 "optdone": 1, 
		 "sigma_profile": "yes", 
		 "theory": "DFT", 
		 "functional": "B3LYP", 
		 "basiset": "6-31G**", 
		 "properties": { 
			 "R2extent": 1279.5139, 
			 "electric_dipole_moment_norm": 4.62756526156, 
			 "electric_quadrupole_moment_norm": 5.68786945349, 
			 "total_energy": -395.891269062, 
			 "HOMO_LUMO_gap": 0.19378, 
			 "cosmo_polarized_energy": -14.22, 
			 "cosmo_cavitation_energy": 19.35, 
			 "cosmo_dispersion_energy": -14.01, 
			 "cosmo_repulsion_energy": 1.15, 
			 "cosmo_total_nonelectrostatic_energy": 6.48, 
			 "SMD_solvation_energy": 3.27 
		},
		"coords": [
			{
				"x": 0.2584776664,
				"y": 0.9747963974,
				"z": -0.6729441337,
				"element": "N" 
			},
			{
				"x": 0.2751160887,
				"y": -0.2898917896,
				"z": -0.1704448151,
				"element": "C" 
			},
			{
				"x": -0.438754974,
				"y": -0.6266230243,
				"z": 1.0118110466,
				"element": "C" 
			},
			{
				"x": -0.362121617,
				"y": -1.9402888503,
				"z": 1.5030461228,
				"element": "C" 
			},
			{
				"x": 0.340736959,
				"y": -2.9149224579,
				"z": 0.9325420923,
				"element": "N" 
			},
			{
				"x": 1.0105977407,
				"y": -2.5868935588,
				"z": -0.1882711706,
				"element": "C" 
			},
			{
				"x": 1.0146143285,
				"y": -1.3282993636,
				"z": -0.7691755373,
				"element": "C" 
			},
			{
				"x": -1.2209266416,
				"y": 0.3687682198,
				"z": 1.668660171,
				"element": "C" 
			},
			{
				"x": -1.846838597,
				"y": 1.2207653755,
				"z": 2.1585390632,
				"element": "N" 
			},
			{
				"x": -0.3775084981,
				"y": 1.6578824463,
				"z": -0.2900403885,
				"element": "H" 
			},
			{
				"x": 0.6404582812,
				"y": 1.1568137223,
				"z": -1.5861798287,
				"element": "H" 
			},
			{
				"x": -0.9103633065,
				"y": -2.1931633137,
				"z": 2.4083747787,
				"element": "H" 
			},
			{
				"x": 1.5821492873,
				"y": -3.3895198304,
				"z": -0.6506836465,
				"element": "H" 
			},
			{
				"x": 1.5844632823,
				"y": -1.1423239726,
				"z": -1.6746337541,
				"element": "H" 
			}
		],
		 "valence_orbital": [ 
			{
				"type": "occ",
				"energy": -0.35863,
				"method": "rhf"
			},
			{
				"type": "occ",
				"energy": -0.34307,
				"method": "rhf"
			},
			{
				"type": "occ",
				"energy": -0.27304,
				"method": "rhf"
			},
			{
				"type": "occ",
				"energy": -0.26633,
				"method": "rhf"
			},
			{
				"type": "occ",
				"energy": -0.244,
				"method": "rhf"
			},
			{
				"type": "unocc",
				"energy": -0.05022,
				"method": "rhf"
			},
			{
				"type": "unocc",
				"energy": -0.01932,
				"method": "rhf"
			},
			{
				"type": "unocc",
				"energy": 0.02316,
				"method": "rhf"
			},
			{
				"type": "unocc",
				"energy": 0.06251,
				"method": "rhf"
			},
			{
				"type": "unocc",
				"energy": 0.07033,
				"method": "rhf"
			}
		],
		"cosmo_sigma_profile": { 
			"-0.025": 0.0,
			"-0.024": 0.0,
			"-0.023": 0.0,
			"-0.022": 0.0,
			"-0.021": 0.0,
			"-0.02": 0.0,
			"-0.019": 0.0,
			"-0.018": 0.0,
			"-0.017": 0.0,
			"-0.016": 0.0204560874698,
			"-0.015": 1.07297289385,
			"-0.014": 1.93837386298,
			"-0.013": 2.31288878492,
			"-0.012": 2.59450537956,
			"-0.011": 2.75829671284,
			"-0.01": 2.44403514624,
			"-0.009": 2.23538473322,
			"-0.008": 4.73934958269,
			"-0.007": 7.72311973248,
			"-0.006": 7.50726155341,
			"-0.005": 6.3690838998,
			"-0.004": 6.31568556936,
			"-0.003": 6.36369658619,
			"-0.002": 8.12859908853,
			"-0.001": 9.51033703551,
			"0.0": 13.7035050205,
			"0.001": 12.6241382773,
			"0.002": 9.53398604014,
			"0.003": 6.47124845832,
			"0.004": 4.68118624567,
			"0.005": 4.31654662049,
			"0.006": 3.36817636185,
			"0.007": 4.56090695206,
			"0.008": 4.53104139653,
			"0.009": 4.88370546335,
			"0.01": 3.00615877467,
			"0.011": 3.81995094832,
			"0.012": 2.70543704634,
			"0.013": 3.17698048332,
			"0.014": 0.79560378818,
			"0.015": 0.919896075745,
			"0.016": 0.86600383829,
			"0.017": 0.348059698876,
			"0.018": 0.0,
			"0.019": 0.0,
			"0.02": 0.0,
			"0.021": 0.0,
			"0.022": 0.0,
			"0.023": 0.0,
			"0.024": 0.0,
			"0.025": 0.0
		}
	}
}
