{
	 "smiles": "CC1=CC(NC(=O)C(C(F)(F)F)C(F)(F)F)=CC=C1", 
	 "Tm": 448.15, 
	 "num_atms": 28, 
	 "gaussian": { 
		 "optdone": 1, 
		 "sigma_profile": "yes", 
		 "theory": "DFT", 
		 "functional": "B3LYP", 
		 "basiset": "6-31G**", 
		 "properties": { 
			 "R2extent": 4879.1556, 
			 "electric_dipole_moment_norm": 3.5294136326, 
			 "electric_quadrupole_moment_norm": 8.13474434939, 
			 "total_energy": -1153.6306465, 
			 "HOMO_LUMO_gap": 0.23259, 
			 "cosmo_polarized_energy": -9.92, 
			 "cosmo_cavitation_energy": 33.83, 
			 "cosmo_dispersion_energy": -22.66, 
			 "cosmo_repulsion_energy": 1.65, 
			 "cosmo_total_nonelectrostatic_energy": 12.83, 
			 "SMD_solvation_energy": 8.35 
		},
		"coords": [
			{
				"x": 2.8660587961,
				"y": 1.9537761627,
				"z": -1.8721432854,
				"element": "C" 
			},
			{
				"x": 1.9571970308,
				"y": 0.778815414,
				"z": -1.5974641619,
				"element": "C" 
			},
			{
				"x": 0.565991082,
				"y": 0.9373292468,
				"z": -1.5995292372,
				"element": "C" 
			},
			{
				"x": -0.2770948219,
				"y": -0.1358777027,
				"z": -1.3056788953,
				"element": "C" 
			},
			{
				"x": -1.7034465993,
				"y": 0.0293498401,
				"z": -1.3975733892,
				"element": "N" 
			},
			{
				"x": -2.6759642864,
				"y": 0.3004234123,
				"z": -0.4738498196,
				"element": "C" 
			},
			{
				"x": -3.8585894327,
				"y": 0.2210343838,
				"z": -0.7703539129,
				"element": "O" 
			},
			{
				"x": -2.3410377508,
				"y": 0.7766762415,
				"z": 0.9652282253,
				"element": "C" 
			},
			{
				"x": -1.4078483217,
				"y": -0.0979659455,
				"z": 1.8070913687,
				"element": "C" 
			},
			{
				"x": -1.6015110146,
				"y": -1.4007616146,
				"z": 1.5029460878,
				"element": "F" 
			},
			{
				"x": -0.1044601954,
				"y": 0.1798353475,
				"z": 1.6428861176,
				"element": "F" 
			},
			{
				"x": -1.6874717337,
				"y": 0.0549493183,
				"z": 3.1163206326,
				"element": "F" 
			},
			{
				"x": -1.9783636764,
				"y": 2.2625423696,
				"z": 1.0285157392,
				"element": "C" 
			},
			{
				"x": -2.9041895028,
				"y": 2.9872444212,
				"z": 0.3747675248,
				"element": "F" 
			},
			{
				"x": -0.7816492784,
				"y": 2.5420737348,
				"z": 0.4786301488,
				"element": "F" 
			},
			{
				"x": -1.944094847,
				"y": 2.6877286528,
				"z": 2.3064459031,
				"element": "F" 
			},
			{
				"x": 0.2571029031,
				"y": -1.3994759008,
				"z": -1.036552538,
				"element": "C" 
			},
			{
				"x": 1.6404594795,
				"y": -1.5689361515,
				"z": -1.0398331111,
				"element": "C" 
			},
			{
				"x": 2.4806675206,
				"y": -0.489882705,
				"z": -1.3162314639,
				"element": "C" 
			},
			{
				"x": 3.812181378,
				"y": 1.6323257177,
				"z": -2.3173537455,
				"element": "H" 
			},
			{
				"x": 2.3976888323,
				"y": 2.6729194249,
				"z": -2.5505569973,
				"element": "H" 
			},
			{
				"x": 3.1059472043,
				"y": 2.4897192994,
				"z": -0.9455313936,
				"element": "H" 
			},
			{
				"x": 0.1268267311,
				"y": 1.9035692792,
				"z": -1.8241504757,
				"element": "H" 
			},
			{
				"x": -2.1312451569,
				"y": -0.2620776014,
				"z": -2.2703848336,
				"element": "H" 
			},
			{
				"x": -3.3134529256,
				"y": 0.7035135423,
				"z": 1.4561362132,
				"element": "H" 
			},
			{
				"x": -0.4079688451,
				"y": -2.2286501105,
				"z": -0.8207962868,
				"element": "H" 
			},
			{
				"x": 2.0647146802,
				"y": -2.5463976928,
				"z": -0.8302599889,
				"element": "H" 
			},
			{
				"x": 3.5580527508,
				"y": -0.6345003839,
				"z": -1.3189244251,
				"element": "H" 
			}
		],
		 "valence_orbital": [ 
			{
				"type": "occ",
				"energy": -0.35516,
				"method": "rhf"
			},
			{
				"type": "occ",
				"energy": -0.27548,
				"method": "rhf"
			},
			{
				"type": "occ",
				"energy": -0.27376,
				"method": "rhf"
			},
			{
				"type": "occ",
				"energy": -0.2608,
				"method": "rhf"
			},
			{
				"type": "occ",
				"energy": -0.25369,
				"method": "rhf"
			},
			{
				"type": "unocc",
				"energy": -0.0211,
				"method": "rhf"
			},
			{
				"type": "unocc",
				"energy": -0.01508,
				"method": "rhf"
			},
			{
				"type": "unocc",
				"energy": -0.00117,
				"method": "rhf"
			},
			{
				"type": "unocc",
				"energy": 0.08187,
				"method": "rhf"
			},
			{
				"type": "unocc",
				"energy": 0.0865,
				"method": "rhf"
			}
		],
		"cosmo_sigma_profile": { 
			"-0.025": 0.0,
			"-0.024": 0.0,
			"-0.023": 0.0,
			"-0.022": 0.0,
			"-0.021": 0.0,
			"-0.02": 0.0,
			"-0.019": 0.0,
			"-0.018": 0.0,
			"-0.017": 0.0,
			"-0.016": 0.0,
			"-0.015": 0.44596884287,
			"-0.014": 1.04722179879,
			"-0.013": 0.938049768551,
			"-0.012": 1.01748129101,
			"-0.011": 2.03228325059,
			"-0.01": 2.82673299298,
			"-0.009": 2.02760658707,
			"-0.008": 2.12128108695,
			"-0.007": 2.67781595653,
			"-0.006": 6.50064405217,
			"-0.005": 11.9534827832,
			"-0.004": 19.9770853281,
			"-0.003": 16.6835224807,
			"-0.002": 19.2865870628,
			"-0.001": 22.7286769634,
			"0.0": 23.3271923357,
			"0.001": 29.1686747047,
			"0.002": 50.3109136092,
			"0.003": 17.9592653648,
			"0.004": 12.3048803798,
			"0.005": 7.50704597373,
			"0.006": 0.967224976766,
			"0.007": 1.55136410033,
			"0.008": 1.19512856695,
			"0.009": 1.10198968868,
			"0.01": 2.05211849443,
			"0.011": 2.20445143824,
			"0.012": 5.30728033783,
			"0.013": 1.83092815023,
			"0.014": 0.0,
			"0.015": 0.0,
			"0.016": 0.0,
			"0.017": 0.0,
			"0.018": 0.0,
			"0.019": 0.0,
			"0.02": 0.0,
			"0.021": 0.0,
			"0.022": 0.0,
			"0.023": 0.0,
			"0.024": 0.0,
			"0.025": 0.0
		}
	}
}
