{
	 "smiles": "CC1=NN=C2CCC(CN12)C(O)=O", 
	 "Tm": 523.15, 
	 "num_atms": 24, 
	 "gaussian": { 
		 "optdone": 1, 
		 "sigma_profile": "yes", 
		 "theory": "DFT", 
		 "functional": "B3LYP", 
		 "basiset": "6-31G**", 
		 "properties": { 
			 "R2extent": 2294.0821, 
			 "electric_dipole_moment_norm": 6.53274900023, 
			 "electric_quadrupole_moment_norm": 16.6942759409, 
			 "total_energy": -626.192117145, 
			 "HOMO_LUMO_gap": 0.21968, 
			 "cosmo_polarized_energy": -23.39, 
			 "cosmo_cavitation_energy": 26.71, 
			 "cosmo_dispersion_energy": -19.5, 
			 "cosmo_repulsion_energy": 1.54, 
			 "cosmo_total_nonelectrostatic_energy": 8.76, 
			 "SMD_solvation_energy": 2.94 
		},
		"coords": [
			{
				"x": -1.2097193035,
				"y": 2.9506242664,
				"z": 1.7065461868,
				"element": "C" 
			},
			{
				"x": -1.2425495044,
				"y": 1.4597727855,
				"z": 1.7041647675,
				"element": "C" 
			},
			{
				"x": -1.5821085039,
				"y": 0.6988926454,
				"z": 2.7191938345,
				"element": "N" 
			},
			{
				"x": -1.4930797916,
				"y": -0.6207622591,
				"z": 2.3105355495,
				"element": "N" 
			},
			{
				"x": -1.1020134307,
				"y": -0.6192615878,
				"z": 1.0590567534,
				"element": "C" 
			},
			{
				"x": -0.8127814697,
				"y": -1.7971002255,
				"z": 0.1797770566,
				"element": "C" 
			},
			{
				"x": -0.7685126142,
				"y": -1.3891559397,
				"z": -1.3047141355,
				"element": "C" 
			},
			{
				"x": 0.0335884536,
				"y": -0.0916137773,
				"z": -1.5165625164,
				"element": "C" 
			},
			{
				"x": -0.6004531209,
				"y": 1.0801541849,
				"z": -0.7439817877,
				"element": "C" 
			},
			{
				"x": -0.9164255294,
				"y": 0.6732803187,
				"z": 0.6210142401,
				"element": "N" 
			},
			{
				"x": 1.5147784084,
				"y": -0.2950083277,
				"z": -1.2034515003,
				"element": "C" 
			},
			{
				"x": 2.1856365183,
				"y": 0.877896187,
				"z": -1.1118655333,
				"element": "O" 
			},
			{
				"x": 2.0647351244,
				"y": -1.3679879888,
				"z": -1.0951760611,
				"element": "O" 
			},
			{
				"x": -0.2119535781,
				"y": 3.3399009857,
				"z": 1.4716372238,
				"element": "H" 
			},
			{
				"x": -1.9133816716,
				"y": 3.3799042969,
				"z": 0.9833127531,
				"element": "H" 
			},
			{
				"x": -1.4887506222,
				"y": 3.2949599727,
				"z": 2.7034654208,
				"element": "H" 
			},
			{
				"x": -1.5688236948,
				"y": -2.5684891209,
				"z": 0.3511201348,
				"element": "H" 
			},
			{
				"x": 0.1523354219,
				"y": -2.2324417656,
				"z": 0.4618123131,
				"element": "H" 
			},
			{
				"x": -1.785226862,
				"y": -1.2234015031,
				"z": -1.6802625499,
				"element": "H" 
			},
			{
				"x": -0.3265947385,
				"y": -2.1944066902,
				"z": -1.8955398059,
				"element": "H" 
			},
			{
				"x": 0.005400396,
				"y": 0.1840022494,
				"z": -2.5797393987,
				"element": "H" 
			},
			{
				"x": 0.0726746777,
				"y": 1.9392093907,
				"z": -0.7205981569,
				"element": "H" 
			},
			{
				"x": -1.5219735818,
				"y": 1.3854091363,
				"z": -1.2554548435,
				"element": "H" 
			},
			{
				"x": 3.1149990169,
				"y": 0.6479227659,
				"z": -0.9420899448,
				"element": "H" 
			}
		],
		 "valence_orbital": [ 
			{
				"type": "occ",
				"energy": -0.29569,
				"method": "rhf"
			},
			{
				"type": "occ",
				"energy": -0.28978,
				"method": "rhf"
			},
			{
				"type": "occ",
				"energy": -0.27587,
				"method": "rhf"
			},
			{
				"type": "occ",
				"energy": -0.23747,
				"method": "rhf"
			},
			{
				"type": "occ",
				"energy": -0.23488,
				"method": "rhf"
			},
			{
				"type": "unocc",
				"energy": -0.0152,
				"method": "rhf"
			},
			{
				"type": "unocc",
				"energy": 0.02477,
				"method": "rhf"
			},
			{
				"type": "unocc",
				"energy": 0.05334,
				"method": "rhf"
			},
			{
				"type": "unocc",
				"energy": 0.0597,
				"method": "rhf"
			},
			{
				"type": "unocc",
				"energy": 0.07688,
				"method": "rhf"
			}
		],
		"cosmo_sigma_profile": { 
			"-0.025": 0.0,
			"-0.024": 0.0,
			"-0.023": 0.0,
			"-0.022": 0.0,
			"-0.021": 0.0,
			"-0.02": 0.0,
			"-0.019": 0.155442093624,
			"-0.018": 0.762621190257,
			"-0.017": 1.15512557112,
			"-0.016": 0.525618562997,
			"-0.015": 0.945155359702,
			"-0.014": 0.630631318909,
			"-0.013": 0.448732010115,
			"-0.012": 1.03238471632,
			"-0.011": 1.1145629238,
			"-0.01": 0.473672946748,
			"-0.009": 0.659160541357,
			"-0.008": 3.85459801224,
			"-0.007": 9.86617126161,
			"-0.006": 16.9295654884,
			"-0.005": 19.6172746126,
			"-0.004": 19.9933176246,
			"-0.003": 18.9293522661,
			"-0.002": 19.7303673161,
			"-0.001": 12.9732809291,
			"0.0": 7.87572322592,
			"0.001": 6.53753086908,
			"0.002": 5.62321312556,
			"0.003": 4.98847934865,
			"0.004": 4.07193228231,
			"0.005": 4.91798875194,
			"0.006": 4.97616982668,
			"0.007": 4.41700649694,
			"0.008": 3.10218851401,
			"0.009": 3.62112697665,
			"0.01": 3.9883664382,
			"0.011": 5.92274109178,
			"0.012": 3.92299899468,
			"0.013": 2.28857980173,
			"0.014": 3.13751144342,
			"0.015": 4.02421165554,
			"0.016": 2.91680864156,
			"0.017": 2.51978438315,
			"0.018": 1.46224155898,
			"0.019": 0.0460257354735,
			"0.02": 0.0,
			"0.021": 0.0,
			"0.022": 0.0,
			"0.023": 0.0,
			"0.024": 0.0,
			"0.025": 0.0
		}
	}
}
