{
	 "smiles": "CC(SCC1=NC2=C(C=CC=C2)C(=O)N1)C(O)=O", 
	 "Tm": 478.15, 
	 "num_atms": 30, 
	 "gaussian": { 
		 "optdone": 1, 
		 "sigma_profile": "yes", 
		 "theory": "DFT", 
		 "functional": "B3LYP", 
		 "basiset": "6-31G**", 
		 "properties": { 
			 "R2extent": 5583.2704, 
			 "electric_dipole_moment_norm": 3.95852748506, 
			 "electric_quadrupole_moment_norm": 31.9783772526, 
			 "total_energy": -1197.92674976, 
			 "HOMO_LUMO_gap": 0.17733, 
			 "cosmo_polarized_energy": -22.02, 
			 "cosmo_cavitation_energy": 35.12, 
			 "cosmo_dispersion_energy": -25.35, 
			 "cosmo_repulsion_energy": 1.88, 
			 "cosmo_total_nonelectrostatic_energy": 11.66, 
			 "SMD_solvation_energy": 6.58 
		},
		"coords": [
			{
				"x": -2.3534120205,
				"y": -3.4178579038,
				"z": -0.371596,
				"element": "C" 
			},
			{
				"x": -1.7519910732,
				"y": -2.0160173531,
				"z": -0.4744429455,
				"element": "C" 
			},
			{
				"x": -1.2419675202,
				"y": -1.7809774306,
				"z": -2.24901928,
				"element": "S" 
			},
			{
				"x": -0.5321602057,
				"y": -0.0778030952,
				"z": -2.2587436492,
				"element": "C" 
			},
			{
				"x": 0.6714829403,
				"y": 0.0572647937,
				"z": -1.3685502186,
				"element": "C" 
			},
			{
				"x": 0.4949996923,
				"y": 0.3234459128,
				"z": -0.1061040087,
				"element": "N" 
			},
			{
				"x": 1.6156843773,
				"y": 0.414398079,
				"z": 0.716830198,
				"element": "C" 
			},
			{
				"x": 2.9263379383,
				"y": 0.2219258726,
				"z": 0.220463392,
				"element": "C" 
			},
			{
				"x": 4.0316452353,
				"y": 0.3212497959,
				"z": 1.078777741,
				"element": "C" 
			},
			{
				"x": 3.8404396965,
				"y": 0.6103074688,
				"z": 2.4216888324,
				"element": "C" 
			},
			{
				"x": 2.5394811252,
				"y": 0.8027238093,
				"z": 2.9186158358,
				"element": "C" 
			},
			{
				"x": 1.4373405507,
				"y": 0.7072144954,
				"z": 2.0811466874,
				"element": "C" 
			},
			{
				"x": 3.1221686512,
				"y": -0.0869602568,
				"z": -1.2002306744,
				"element": "C" 
			},
			{
				"x": 4.1833252872,
				"y": -0.2837970672,
				"z": -1.7689689175,
				"element": "O" 
			},
			{
				"x": 1.9091759374,
				"y": -0.1395301883,
				"z": -1.9161162348,
				"element": "N" 
			},
			{
				"x": -2.7635040448,
				"y": -0.9414302166,
				"z": -0.0372954243,
				"element": "C" 
			},
			{
				"x": -2.2424327224,
				"y": 0.2350553733,
				"z": 0.3516542089,
				"element": "O" 
			},
			{
				"x": -3.9572213818,
				"y": -1.1321567573,
				"z": -0.0436662064,
				"element": "O" 
			},
			{
				"x": -2.6026931031,
				"y": -3.6300789398,
				"z": 0.6718703424,
				"element": "H" 
			},
			{
				"x": -3.2757922911,
				"y": -3.4814783942,
				"z": -0.9514668335,
				"element": "H" 
			},
			{
				"x": -1.6459979829,
				"y": -4.174987613,
				"z": -0.7203485109,
				"element": "H" 
			},
			{
				"x": -0.8471806923,
				"y": -1.9440611942,
				"z": 0.135790129,
				"element": "H" 
			},
			{
				"x": -1.2913876936,
				"y": 0.6437873154,
				"z": -1.9536320072,
				"element": "H" 
			},
			{
				"x": -0.2775724665,
				"y": 0.1097783172,
				"z": -3.3053529663,
				"element": "H" 
			},
			{
				"x": 5.0211893395,
				"y": 0.1666706802,
				"z": 0.6617494714,
				"element": "H" 
			},
			{
				"x": 4.6925524371,
				"y": 0.688686327,
				"z": 3.0893849259,
				"element": "H" 
			},
			{
				"x": 2.3935068539,
				"y": 1.0297769302,
				"z": 3.970542166,
				"element": "H" 
			},
			{
				"x": 0.4296095334,
				"y": 0.8573494262,
				"z": 2.455066783,
				"element": "H" 
			},
			{
				"x": 2.0013152546,
				"y": -0.3683650446,
				"z": -2.899017847,
				"element": "H" 
			},
			{
				"x": -1.2487416522,
				"y": 0.2509668578,
				"z": 0.3128710108,
				"element": "H" 
			}
		],
		 "valence_orbital": [ 
			{
				"type": "occ",
				"energy": -0.28576,
				"method": "rhf"
			},
			{
				"type": "occ",
				"energy": -0.27988,
				"method": "rhf"
			},
			{
				"type": "occ",
				"energy": -0.26918,
				"method": "rhf"
			},
			{
				"type": "occ",
				"energy": -0.25239,
				"method": "rhf"
			},
			{
				"type": "occ",
				"energy": -0.24252,
				"method": "rhf"
			},
			{
				"type": "unocc",
				"energy": -0.06519,
				"method": "rhf"
			},
			{
				"type": "unocc",
				"energy": -0.06158,
				"method": "rhf"
			},
			{
				"type": "unocc",
				"energy": -0.01048,
				"method": "rhf"
			},
			{
				"type": "unocc",
				"energy": 2e-05,
				"method": "rhf"
			},
			{
				"type": "unocc",
				"energy": 0.03556,
				"method": "rhf"
			}
		],
		"cosmo_sigma_profile": { 
			"-0.025": 0.0,
			"-0.024": 0.0,
			"-0.023": 0.0,
			"-0.022": 0.0,
			"-0.021": 0.0,
			"-0.02": 0.0,
			"-0.019": 0.0,
			"-0.018": 0.0252546261069,
			"-0.017": 0.962913164159,
			"-0.016": 1.29756411792,
			"-0.015": 1.49397755351,
			"-0.014": 1.3248573745,
			"-0.013": 0.994605365273,
			"-0.012": 1.79635496749,
			"-0.011": 1.68736963482,
			"-0.01": 1.75353495596,
			"-0.009": 2.06025217746,
			"-0.008": 3.00091931047,
			"-0.007": 9.97705363936,
			"-0.006": 18.1357871951,
			"-0.005": 23.9237617301,
			"-0.004": 20.5090369972,
			"-0.003": 18.9907857795,
			"-0.002": 18.895184756,
			"-0.001": 18.3603272035,
			"0.0": 19.1643228362,
			"0.001": 16.57724359,
			"0.002": 16.7452155946,
			"0.003": 16.6539299112,
			"0.004": 8.93628913208,
			"0.005": 6.57734391217,
			"0.006": 6.18405072997,
			"0.007": 5.24234154727,
			"0.008": 5.86098650918,
			"0.009": 4.57834697502,
			"0.01": 5.40697293511,
			"0.011": 7.46330083484,
			"0.012": 12.1073429086,
			"0.013": 4.75544199903,
			"0.014": 0.516420221335,
			"0.015": 0.0,
			"0.016": 0.0,
			"0.017": 0.0,
			"0.018": 0.0,
			"0.019": 0.0,
			"0.02": 0.0,
			"0.021": 0.0,
			"0.022": 0.0,
			"0.023": 0.0,
			"0.024": 0.0,
			"0.025": 0.0
		}
	}
}
