{
	 "smiles": "CC1=CC(N)=NN1C1=CC=C(F)C=C1", 
	 "Tm": 344.15, 
	 "num_atms": 24, 
	 "gaussian": { 
		 "optdone": 1, 
		 "sigma_profile": "yes", 
		 "theory": "DFT", 
		 "functional": "B3LYP", 
		 "basiset": "6-31G**", 
		 "properties": { 
			 "R2extent": 3330.4494, 
			 "electric_dipole_moment_norm": 2.494797595, 
			 "electric_quadrupole_moment_norm": 7.64133700343, 
			 "total_energy": -651.165158145, 
			 "HOMO_LUMO_gap": 0.18208, 
			 "cosmo_polarized_energy": -11.49, 
			 "cosmo_cavitation_energy": 28.47, 
			 "cosmo_dispersion_energy": -20.75, 
			 "cosmo_repulsion_energy": 1.61, 
			 "cosmo_total_nonelectrostatic_energy": 9.34, 
			 "SMD_solvation_energy": 4.63 
		},
		"coords": [
			{
				"x": -2.1171456821,
				"y": 1.3356238356,
				"z": -0.9649540608,
				"element": "C" 
			},
			{
				"x": -1.1225941199,
				"y": 1.6179464734,
				"z": 0.1181379733,
				"element": "C" 
			},
			{
				"x": -0.8934286359,
				"y": 2.8021032194,
				"z": 0.790630849,
				"element": "C" 
			},
			{
				"x": 0.199478834,
				"y": 2.5358614397,
				"z": 1.6558665604,
				"element": "C" 
			},
			{
				"x": 0.8489561202,
				"y": 3.4349995881,
				"z": 2.5000377435,
				"element": "N" 
			},
			{
				"x": 0.6214472854,
				"y": 1.2822653451,
				"z": 1.544135144,
				"element": "N" 
			},
			{
				"x": -0.2004325313,
				"y": 0.7178009274,
				"z": 0.5962055014,
				"element": "N" 
			},
			{
				"x": 0.0603503513,
				"y": -0.6143553365,
				"z": 0.1921277373,
				"element": "C" 
			},
			{
				"x": 1.3903146741,
				"y": -1.0566249898,
				"z": 0.1344892916,
				"element": "C" 
			},
			{
				"x": 1.6788391168,
				"y": -2.3628992477,
				"z": -0.2482516939,
				"element": "C" 
			},
			{
				"x": 0.6322120448,
				"y": -3.2170808476,
				"z": -0.5814333739,
				"element": "C" 
			},
			{
				"x": 0.9113677699,
				"y": -4.4818315637,
				"z": -0.9629903142,
				"element": "F" 
			},
			{
				"x": -0.6927078483,
				"y": -2.8051287813,
				"z": -0.5224073438,
				"element": "C" 
			},
			{
				"x": -0.9786524426,
				"y": -1.5004953431,
				"z": -0.1190684181,
				"element": "C" 
			},
			{
				"x": -2.4415858208,
				"y": 2.2798919081,
				"z": -1.4087615865,
				"element": "H" 
			},
			{
				"x": -3.0128557523,
				"y": 0.8247080678,
				"z": -0.5921040657,
				"element": "H" 
			},
			{
				"x": -1.6896274705,
				"y": 0.7152616105,
				"z": -1.7581693026,
				"element": "H" 
			},
			{
				"x": -1.4217570897,
				"y": 3.7342409681,
				"z": 0.6524748683,
				"element": "H" 
			},
			{
				"x": 1.4558954593,
				"y": 2.9615807945,
				"z": 3.1586187184,
				"element": "H" 
			},
			{
				"x": 0.2219166988,
				"y": 4.0715359174,
				"z": 2.9748967949,
				"element": "H" 
			},
			{
				"x": 2.1805399021,
				"y": -0.3664219399,
				"z": 0.4029373653,
				"element": "H" 
			},
			{
				"x": 2.7008328628,
				"y": -2.7224939218,
				"z": -0.2991322409,
				"element": "H" 
			},
			{
				"x": -1.4843099543,
				"y": -3.5045744204,
				"z": -0.7677583272,
				"element": "H" 
			},
			{
				"x": -2.0109537718,
				"y": -1.1869137036,
				"z": -0.0239278197,
				"element": "H" 
			}
		],
		 "valence_orbital": [ 
			{
				"type": "occ",
				"energy": -0.28104,
				"method": "rhf"
			},
			{
				"type": "occ",
				"energy": -0.26223,
				"method": "rhf"
			},
			{
				"type": "occ",
				"energy": -0.25503,
				"method": "rhf"
			},
			{
				"type": "occ",
				"energy": -0.22942,
				"method": "rhf"
			},
			{
				"type": "occ",
				"energy": -0.19522,
				"method": "rhf"
			},
			{
				"type": "unocc",
				"energy": -0.01314,
				"method": "rhf"
			},
			{
				"type": "unocc",
				"energy": -0.01097,
				"method": "rhf"
			},
			{
				"type": "unocc",
				"energy": 0.04075,
				"method": "rhf"
			},
			{
				"type": "unocc",
				"energy": 0.07795,
				"method": "rhf"
			},
			{
				"type": "unocc",
				"energy": 0.08348,
				"method": "rhf"
			}
		],
		"cosmo_sigma_profile": { 
			"-0.025": 0.0,
			"-0.024": 0.0,
			"-0.023": 0.0,
			"-0.022": 0.0,
			"-0.021": 0.0,
			"-0.02": 0.0,
			"-0.019": 0.0,
			"-0.018": 0.0,
			"-0.017": 0.0,
			"-0.016": 0.0,
			"-0.015": 0.0,
			"-0.014": 0.0,
			"-0.013": 0.172279302214,
			"-0.012": 1.79502134663,
			"-0.011": 2.42188862042,
			"-0.01": 2.99232980241,
			"-0.009": 1.767662357,
			"-0.008": 4.13732030651,
			"-0.007": 8.563510933,
			"-0.006": 10.6001754041,
			"-0.005": 16.1379432666,
			"-0.004": 13.6505742917,
			"-0.003": 14.9589193691,
			"-0.002": 13.8822045373,
			"-0.001": 14.6622834195,
			"0.0": 14.4766766117,
			"0.001": 17.2949678358,
			"0.002": 15.4780393326,
			"0.003": 18.1722522541,
			"0.004": 19.3230007743,
			"0.005": 10.1737551976,
			"0.006": 6.96370114025,
			"0.007": 3.58748037655,
			"0.008": 3.41704530147,
			"0.009": 2.24801801548,
			"0.01": 2.28117395852,
			"0.011": 1.82588012676,
			"0.012": 1.49410187974,
			"0.013": 1.93490816949,
			"0.014": 1.21667881295,
			"0.015": 1.24192567867,
			"0.016": 0.356351234652,
			"0.017": 0.0,
			"0.018": 0.0,
			"0.019": 0.0,
			"0.02": 0.0,
			"0.021": 0.0,
			"0.022": 0.0,
			"0.023": 0.0,
			"0.024": 0.0,
			"0.025": 0.0
		}
	}
}
