{
	 "smiles": "OC(=O)C1=COC=C1", 
	 "Tm": 395.15, 
	 "num_atms": 12, 
	 "gaussian": { 
		 "optdone": 1, 
		 "sigma_profile": "yes", 
		 "theory": "DFT", 
		 "functional": "B3LYP", 
		 "basiset": "6-31G**", 
		 "properties": { 
			 "R2extent": 1932.8515, 
			 "electric_dipole_moment_norm": 4.57891094039, 
			 "electric_quadrupole_moment_norm": 17.080754781, 
			 "total_energy": -418.586371046, 
			 "HOMO_LUMO_gap": 0.21767, 
			 "cosmo_polarized_energy": -14.26, 
			 "cosmo_cavitation_energy": 17.05, 
			 "cosmo_dispersion_energy": -12.78, 
			 "cosmo_repulsion_energy": 1.06, 
			 "cosmo_total_nonelectrostatic_energy": 5.32, 
			 "SMD_solvation_energy": 5.73 
		},
		"coords": [
			{
				"x": -1.1296989869,
				"y": -3.9493285388,
				"z": -0.4394630848,
				"element": "O" 
			},
			{
				"x": -0.9900213226,
				"y": -2.6157239507,
				"z": -0.2103759213,
				"element": "C" 
			},
			{
				"x": -1.8769552187,
				"y": -1.8526815743,
				"z": -0.5154423893,
				"element": "O" 
			},
			{
				"x": 0.2786800909,
				"y": -2.1783216298,
				"z": 0.4148641538,
				"element": "C" 
			},
			{
				"x": 0.5491940692,
				"y": -0.8673149132,
				"z": 0.6990210266,
				"element": "C" 
			},
			{
				"x": 1.7701176721,
				"y": -0.7433481868,
				"z": 1.2639767229,
				"element": "O" 
			},
			{
				"x": 2.3052268873,
				"y": -1.998963469,
				"z": 1.3492935276,
				"element": "C" 
			},
			{
				"x": 1.4403502992,
				"y": -2.9174280275,
				"z": 0.8462348007,
				"element": "C" 
			},
			{
				"x": -0.344592211,
				"y": -4.4308836769,
				"z": -0.1460628059,
				"element": "H" 
			},
			{
				"x": -0.0225234241,
				"y": 0.0353416481,
				"z": 0.5534892879,
				"element": "H" 
			},
			{
				"x": 3.2899243683,
				"y": -2.0624931322,
				"z": 1.7846746376,
				"element": "H" 
			},
			{
				"x": 1.6198977765,
				"y": -3.9830545488,
				"z": 0.7950900443,
				"element": "H" 
			}
		],
		 "valence_orbital": [ 
			{
				"type": "occ",
				"energy": -0.3773,
				"method": "rhf"
			},
			{
				"type": "occ",
				"energy": -0.31944,
				"method": "rhf"
			},
			{
				"type": "occ",
				"energy": -0.30019,
				"method": "rhf"
			},
			{
				"type": "occ",
				"energy": -0.27487,
				"method": "rhf"
			},
			{
				"type": "occ",
				"energy": -0.25323,
				"method": "rhf"
			},
			{
				"type": "unocc",
				"energy": -0.03556,
				"method": "rhf"
			},
			{
				"type": "unocc",
				"energy": 0.00463,
				"method": "rhf"
			},
			{
				"type": "unocc",
				"energy": 0.05147,
				"method": "rhf"
			},
			{
				"type": "unocc",
				"energy": 0.10716,
				"method": "rhf"
			},
			{
				"type": "unocc",
				"energy": 0.11355,
				"method": "rhf"
			}
		],
		"cosmo_sigma_profile": { 
			"-0.025": 0.0,
			"-0.024": 0.0,
			"-0.023": 0.0,
			"-0.022": 0.0,
			"-0.021": 0.0,
			"-0.02": 0.0,
			"-0.019": 0.248021752548,
			"-0.018": 1.39175430466,
			"-0.017": 0.832794721827,
			"-0.016": 1.02890129176,
			"-0.015": 1.21389628911,
			"-0.014": 1.22137136732,
			"-0.013": 0.756079817213,
			"-0.012": 1.27118164141,
			"-0.011": 1.40771153822,
			"-0.01": 2.86538013746,
			"-0.009": 5.71478972393,
			"-0.008": 4.29570202805,
			"-0.007": 4.75618946362,
			"-0.006": 4.23482907266,
			"-0.005": 4.80981723496,
			"-0.004": 5.21955640295,
			"-0.003": 5.66275288794,
			"-0.002": 6.34216359404,
			"-0.001": 5.95851715975,
			"0.0": 8.87712000398,
			"0.001": 13.7021525885,
			"0.002": 8.62169589701,
			"0.003": 7.42033027202,
			"0.004": 5.05721093113,
			"0.005": 3.93726783765,
			"0.006": 3.37695472333,
			"0.007": 3.71200048675,
			"0.008": 2.66265430092,
			"0.009": 3.5884035824,
			"0.01": 4.4041377633,
			"0.011": 4.78555503657,
			"0.012": 5.79010492166,
			"0.013": 1.9023903097,
			"0.014": 0.25402171462,
			"0.015": 0.0,
			"0.016": 0.0,
			"0.017": 0.0,
			"0.018": 0.0,
			"0.019": 0.0,
			"0.02": 0.0,
			"0.021": 0.0,
			"0.022": 0.0,
			"0.023": 0.0,
			"0.024": 0.0,
			"0.025": 0.0
		}
	}
}
