{
	 "smiles": "FC(F)(F)C1=CC=C(C=C1)C1=NC(=CS1)C(Cl)=O", 
	 "Tm": 370.15, 
	 "num_atms": 23, 
	 "gaussian": { 
		 "optdone": 1, 
		 "sigma_profile": "yes", 
		 "theory": "DFT", 
		 "functional": "B3LYP", 
		 "basiset": "6-31G**", 
		 "properties": { 
			 "R2extent": 8268.7253, 
			 "electric_dipole_moment_norm": 3.52851919224, 
			 "electric_quadrupole_moment_norm": 21.6219815225, 
			 "total_energy": -1710.06791284, 
			 "HOMO_LUMO_gap": 0.16564, 
			 "cosmo_polarized_energy": -9.78, 
			 "cosmo_cavitation_energy": 34.02, 
			 "cosmo_dispersion_energy": -24.72, 
			 "cosmo_repulsion_energy": 1.79, 
			 "cosmo_total_nonelectrostatic_energy": 11.09, 
			 "SMD_solvation_energy": 6.41 
		},
		"coords": [
			{
				"x": 2.0117116011,
				"y": 3.0817941738,
				"z": -3.0259978271,
				"element": "F" 
			},
			{
				"x": 1.9134761287,
				"y": 3.2440450665,
				"z": -1.6866881519,
				"element": "C" 
			},
			{
				"x": 1.0495348369,
				"y": 4.260062969,
				"z": -1.4753464345,
				"element": "F" 
			},
			{
				"x": 3.1277317123,
				"y": 3.6401285067,
				"z": -1.2469674703,
				"element": "F" 
			},
			{
				"x": 1.4597856898,
				"y": 1.976942379,
				"z": -1.0111029156,
				"element": "C" 
			},
			{
				"x": 0.0937014648,
				"y": 1.7023640109,
				"z": -0.8895941486,
				"element": "C" 
			},
			{
				"x": -0.3291428975,
				"y": 0.5102489101,
				"z": -0.3146337725,
				"element": "C" 
			},
			{
				"x": 0.6115000156,
				"y": -0.4274143839,
				"z": 0.1476332743,
				"element": "C" 
			},
			{
				"x": 1.9796610703,
				"y": -0.1410591196,
				"z": 0.0225513622,
				"element": "C" 
			},
			{
				"x": 2.4019155979,
				"y": 1.0527470163,
				"z": -0.5535279162,
				"element": "C" 
			},
			{
				"x": 0.1269123407,
				"y": -1.6757092628,
				"z": 0.7508634048,
				"element": "C" 
			},
			{
				"x": -1.1325652214,
				"y": -1.9787595284,
				"z": 0.8919068908,
				"element": "N" 
			},
			{
				"x": -1.297025834,
				"y": -3.201960813,
				"z": 1.4836453786,
				"element": "C" 
			},
			{
				"x": -0.1401296953,
				"y": -3.8703897605,
				"z": 1.8127869498,
				"element": "C" 
			},
			{
				"x": 1.2258279096,
				"y": -2.9335966548,
				"z": 1.3651128041,
				"element": "S" 
			},
			{
				"x": -2.6189806061,
				"y": -3.7995428489,
				"z": 1.7672028569,
				"element": "C" 
			},
			{
				"x": -4.0214714647,
				"y": -2.7833722008,
				"z": 1.2684344419,
				"element": "Cl" 
			},
			{
				"x": -2.7879896831,
				"y": -4.8662075015,
				"z": 2.2832638936,
				"element": "O" 
			},
			{
				"x": -0.6350439656,
				"y": 2.426268407,
				"z": -1.2376806626,
				"element": "H" 
			},
			{
				"x": -1.3847616442,
				"y": 0.286671908,
				"z": -0.2114942275,
				"element": "H" 
			},
			{
				"x": 2.7251089488,
				"y": -0.8472007239,
				"z": 0.3770248093,
				"element": "H" 
			},
			{
				"x": 3.4602159503,
				"y": 1.2716421028,
				"z": -0.6407056656,
				"element": "H" 
			},
			{
				"x": -0.0542722549,
				"y": -4.8394026519,
				"z": 2.2826131261,
				"element": "H" 
			}
		],
		 "valence_orbital": [ 
			{
				"type": "occ",
				"energy": -0.31033,
				"method": "rhf"
			},
			{
				"type": "occ",
				"energy": -0.30848,
				"method": "rhf"
			},
			{
				"type": "occ",
				"energy": -0.2943,
				"method": "rhf"
			},
			{
				"type": "occ",
				"energy": -0.28379,
				"method": "rhf"
			},
			{
				"type": "occ",
				"energy": -0.25632,
				"method": "rhf"
			},
			{
				"type": "unocc",
				"energy": -0.09068,
				"method": "rhf"
			},
			{
				"type": "unocc",
				"energy": -0.07355,
				"method": "rhf"
			},
			{
				"type": "unocc",
				"energy": -0.03242,
				"method": "rhf"
			},
			{
				"type": "unocc",
				"energy": -0.01629,
				"method": "rhf"
			},
			{
				"type": "unocc",
				"energy": 0.00345,
				"method": "rhf"
			}
		],
		"cosmo_sigma_profile": { 
			"-0.025": 0.0,
			"-0.024": 0.0,
			"-0.023": 0.0,
			"-0.022": 0.0,
			"-0.021": 0.0,
			"-0.02": 0.0,
			"-0.019": 0.0,
			"-0.018": 0.0,
			"-0.017": 0.0,
			"-0.016": 0.0,
			"-0.015": 0.0,
			"-0.014": 0.0,
			"-0.013": 0.0,
			"-0.012": 0.216304812078,
			"-0.011": 1.56557027158,
			"-0.01": 1.84275551398,
			"-0.009": 1.92653240642,
			"-0.008": 5.02439318573,
			"-0.007": 7.83646689511,
			"-0.006": 10.0985115523,
			"-0.005": 10.4082773197,
			"-0.004": 13.7322431955,
			"-0.003": 16.8279658752,
			"-0.002": 21.9558078168,
			"-0.001": 26.6682513722,
			"0.0": 24.4732753476,
			"0.001": 28.4139486346,
			"0.002": 37.1650653968,
			"0.003": 33.0710086192,
			"0.004": 12.1987851196,
			"0.005": 6.62333758719,
			"0.006": 4.09749517755,
			"0.007": 4.53409485015,
			"0.008": 5.4353147746,
			"0.009": 4.61365175347,
			"0.01": 1.28699202146,
			"0.011": 0.0321876282127,
			"0.012": 0.0,
			"0.013": 0.0,
			"0.014": 0.0,
			"0.015": 0.0,
			"0.016": 0.0,
			"0.017": 0.0,
			"0.018": 0.0,
			"0.019": 0.0,
			"0.02": 0.0,
			"0.021": 0.0,
			"0.022": 0.0,
			"0.023": 0.0,
			"0.024": 0.0,
			"0.025": 0.0
		}
	}
}
