{
	 "smiles": "OC1=CC=C(OC2=NC=CS2)C=C1", 
	 "Tm": 400.15, 
	 "num_atms": 20, 
	 "gaussian": { 
		 "optdone": 1, 
		 "sigma_profile": "yes", 
		 "theory": "DFT", 
		 "functional": "B3LYP", 
		 "basiset": "6-31G**", 
		 "properties": { 
			 "R2extent": 4197.2207, 
			 "electric_dipole_moment_norm": 1.12742031647, 
			 "electric_quadrupole_moment_norm": 15.9963024171, 
			 "total_energy": -950.529255029, 
			 "HOMO_LUMO_gap": 0.18798, 
			 "cosmo_polarized_energy": -10.24, 
			 "cosmo_cavitation_energy": 26.55, 
			 "cosmo_dispersion_energy": -20.61, 
			 "cosmo_repulsion_energy": 1.57, 
			 "cosmo_total_nonelectrostatic_energy": 7.51, 
			 "SMD_solvation_energy": 4.67 
		},
		"coords": [
			{
				"x": 3.5552402817,
				"y": -1.8858156949,
				"z": 1.8943994894,
				"element": "O" 
			},
			{
				"x": 2.3922648017,
				"y": -1.7495142927,
				"z": 1.1878270469,
				"element": "C" 
			},
			{
				"x": 2.3892459514,
				"y": -0.860783816,
				"z": 0.1096792701,
				"element": "C" 
			},
			{
				"x": 1.240274081,
				"y": -0.6691081845,
				"z": -0.6573952946,
				"element": "C" 
			},
			{
				"x": 0.0838075325,
				"y": -1.3819158057,
				"z": -0.3322162527,
				"element": "C" 
			},
			{
				"x": -1.1431201897,
				"y": -1.305178456,
				"z": -0.9969407946,
				"element": "O" 
			},
			{
				"x": -1.4148253115,
				"y": -0.533652911,
				"z": -2.055374274,
				"element": "C" 
			},
			{
				"x": -0.6429856197,
				"y": 0.2914408541,
				"z": -2.6914577643,
				"element": "N" 
			},
			{
				"x": -1.3372065853,
				"y": 0.8837873663,
				"z": -3.7303039857,
				"element": "C" 
			},
			{
				"x": -2.6353264853,
				"y": 0.5111620193,
				"z": -3.8860203581,
				"element": "C" 
			},
			{
				"x": -3.0661682474,
				"y": -0.663223714,
				"z": -2.6690523885,
				"element": "S" 
			},
			{
				"x": 0.0747673816,
				"y": -2.2722159815,
				"z": 0.7423535463,
				"element": "C" 
			},
			{
				"x": 1.2260396817,
				"y": -2.4569780426,
				"z": 1.502147961,
				"element": "C" 
			},
			{
				"x": 3.4212206392,
				"y": -2.5254173599,
				"z": 2.6053868968,
				"element": "H" 
			},
			{
				"x": 3.2996895643,
				"y": -0.318696321,
				"z": -0.1232026019,
				"element": "H" 
			},
			{
				"x": 1.2377863412,
				"y": 0.0179546098,
				"z": -1.4908671438,
				"element": "H" 
			},
			{
				"x": -0.8211281159,
				"y": 1.6018492177,
				"z": -4.3564288139,
				"element": "H" 
			},
			{
				"x": -3.3522727433,
				"y": 0.8441492594,
				"z": -4.6221120368,
				"element": "H" 
			},
			{
				"x": -0.8374846987,
				"y": -2.8122736953,
				"z": 0.9722217709,
				"element": "H" 
			},
			{
				"x": 1.2144817404,
				"y": -3.1519690514,
				"z": 2.3388557276,
				"element": "H" 
			}
		],
		 "valence_orbital": [ 
			{
				"type": "occ",
				"energy": -0.28489,
				"method": "rhf"
			},
			{
				"type": "occ",
				"energy": -0.28192,
				"method": "rhf"
			},
			{
				"type": "occ",
				"energy": -0.25669,
				"method": "rhf"
			},
			{
				"type": "occ",
				"energy": -0.2433,
				"method": "rhf"
			},
			{
				"type": "occ",
				"energy": -0.20583,
				"method": "rhf"
			},
			{
				"type": "unocc",
				"energy": -0.01785,
				"method": "rhf"
			},
			{
				"type": "unocc",
				"energy": -0.0068,
				"method": "rhf"
			},
			{
				"type": "unocc",
				"energy": 0.01343,
				"method": "rhf"
			},
			{
				"type": "unocc",
				"energy": 0.02175,
				"method": "rhf"
			},
			{
				"type": "unocc",
				"energy": 0.06148,
				"method": "rhf"
			}
		],
		"cosmo_sigma_profile": { 
			"-0.025": 0.0,
			"-0.024": 0.0,
			"-0.023": 0.0,
			"-0.022": 0.0,
			"-0.021": 0.0,
			"-0.02": 0.0,
			"-0.019": 0.0,
			"-0.018": 0.548811021151,
			"-0.017": 1.0563656118,
			"-0.016": 1.10341001704,
			"-0.015": 1.11038030256,
			"-0.014": 1.2895874592,
			"-0.013": 0.618549440382,
			"-0.012": 0.610005977947,
			"-0.011": 1.0147875982,
			"-0.01": 1.80648632244,
			"-0.009": 2.61051651301,
			"-0.008": 3.92292691792,
			"-0.007": 6.66647638597,
			"-0.006": 9.55718538002,
			"-0.005": 8.91247628148,
			"-0.004": 9.54898010929,
			"-0.003": 9.12890513008,
			"-0.002": 7.73321835644,
			"-0.001": 13.4797729312,
			"0.0": 18.3808343271,
			"0.001": 18.752637643,
			"0.002": 22.6734099115,
			"0.003": 24.6444753201,
			"0.004": 24.8569111227,
			"0.005": 9.76463839421,
			"0.006": 3.75655869779,
			"0.007": 3.71097060251,
			"0.008": 2.98102414643,
			"0.009": 1.80850278323,
			"0.01": 1.53051174648,
			"0.011": 2.10878471784,
			"0.012": 0.621156744129,
			"0.013": 0.0,
			"0.014": 0.0,
			"0.015": 0.0,
			"0.016": 0.0,
			"0.017": 0.0,
			"0.018": 0.0,
			"0.019": 0.0,
			"0.02": 0.0,
			"0.021": 0.0,
			"0.022": 0.0,
			"0.023": 0.0,
			"0.024": 0.0,
			"0.025": 0.0
		}
	}
}
