{
	 "smiles": "CCCCCCOC(C)=O", 
	 "Tm": 192.65, 
	 "num_atms": 26, 
	 "gaussian": { 
		 "optdone": 1, 
		 "sigma_profile": "yes", 
		 "theory": "DFT", 
		 "functional": "B3LYP", 
		 "basiset": "6-31G**", 
		 "properties": { 
			 "R2extent": 2956.7602, 
			 "electric_dipole_moment_norm": 2.00709795974, 
			 "electric_quadrupole_moment_norm": 9.99345269664, 
			 "total_energy": -464.972509922, 
			 "HOMO_LUMO_gap": 0.28269, 
			 "cosmo_polarized_energy": -6.5, 
			 "cosmo_cavitation_energy": 28.16, 
			 "cosmo_dispersion_energy": -19.72, 
			 "cosmo_repulsion_energy": 1.66, 
			 "cosmo_total_nonelectrostatic_energy": 10.1, 
			 "SMD_solvation_energy": 5.73 
		},
		"coords": [
			{
				"x": 3.7115224952,
				"y": 0.4501809375,
				"z": -2.7351892007,
				"element": "C" 
			},
			{
				"x": 2.683470224,
				"y": 1.4649290337,
				"z": -2.2210176544,
				"element": "C" 
			},
			{
				"x": 1.2269501189,
				"y": 1.1388812695,
				"z": -2.5963740168,
				"element": "C" 
			},
			{
				"x": 0.6683748251,
				"y": -0.18501564,
				"z": -2.0430439763,
				"element": "C" 
			},
			{
				"x": 0.6378381397,
				"y": -0.3090652281,
				"z": -0.5092642406,
				"element": "C" 
			},
			{
				"x": -0.2326039721,
				"y": 0.7178472544,
				"z": 0.2013265019,
				"element": "C" 
			},
			{
				"x": -1.5932334299,
				"y": 0.5443279859,
				"z": -0.2589455299,
				"element": "O" 
			},
			{
				"x": -2.5026507111,
				"y": 1.4109537067,
				"z": 0.2427568748,
				"element": "C" 
			},
			{
				"x": -3.8792988852,
				"y": 1.1281901023,
				"z": -0.31273276,
				"element": "C" 
			},
			{
				"x": -2.2285184308,
				"y": 2.2886790762,
				"z": 1.0320018403,
				"element": "O" 
			},
			{
				"x": 4.7318397811,
				"y": 0.7674322433,
				"z": -2.4960038364,
				"element": "H" 
			},
			{
				"x": 3.5659939224,
				"y": -0.5413128718,
				"z": -2.2935547346,
				"element": "H" 
			},
			{
				"x": 3.6450747699,
				"y": 0.338705068,
				"z": -3.8238332486,
				"element": "H" 
			},
			{
				"x": 2.7783401899,
				"y": 1.5592416144,
				"z": -1.131183721,
				"element": "H" 
			},
			{
				"x": 2.9277792534,
				"y": 2.4557238404,
				"z": -2.6246514106,
				"element": "H" 
			},
			{
				"x": 0.5844708585,
				"y": 1.9687126324,
				"z": -2.2745279188,
				"element": "H" 
			},
			{
				"x": 1.145214614,
				"y": 1.1108001425,
				"z": -3.6915126087,
				"element": "H" 
			},
			{
				"x": 1.2500034282,
				"y": -1.0242473382,
				"z": -2.4432892986,
				"element": "H" 
			},
			{
				"x": -0.3518913052,
				"y": -0.3172674722,
				"z": -2.420757386,
				"element": "H" 
			},
			{
				"x": 1.6504593158,
				"y": -0.2201982436,
				"z": -0.0958487066,
				"element": "H" 
			},
			{
				"x": 0.2837863591,
				"y": -1.3114154012,
				"z": -0.2392844839,
				"element": "H" 
			},
			{
				"x": 0.0798193742,
				"y": 1.7463525432,
				"z": -0.003451046,
				"element": "H" 
			},
			{
				"x": -0.2074385998,
				"y": 0.580931856,
				"z": 1.2873329262,
				"element": "H" 
			},
			{
				"x": -3.868278913,
				"y": 1.2069249089,
				"z": -1.4038877133,
				"element": "H" 
			},
			{
				"x": -4.1825217768,
				"y": 0.1069934035,
				"z": -0.0633350236,
				"element": "H" 
			},
			{
				"x": -4.5914016457,
				"y": 1.8395145765,
				"z": 0.1042703722,
				"element": "H" 
			}
		],
		 "valence_orbital": [ 
			{
				"type": "occ",
				"energy": -0.31997,
				"method": "rhf"
			},
			{
				"type": "occ",
				"energy": -0.31558,
				"method": "rhf"
			},
			{
				"type": "occ",
				"energy": -0.31184,
				"method": "rhf"
			},
			{
				"type": "occ",
				"energy": -0.29377,
				"method": "rhf"
			},
			{
				"type": "occ",
				"energy": -0.26586,
				"method": "rhf"
			},
			{
				"type": "unocc",
				"energy": 0.01683,
				"method": "rhf"
			},
			{
				"type": "unocc",
				"energy": 0.07393,
				"method": "rhf"
			},
			{
				"type": "unocc",
				"energy": 0.10723,
				"method": "rhf"
			},
			{
				"type": "unocc",
				"energy": 0.11106,
				"method": "rhf"
			},
			{
				"type": "unocc",
				"energy": 0.11908,
				"method": "rhf"
			}
		],
		"cosmo_sigma_profile": { 
			"-0.025": 0.0,
			"-0.024": 0.0,
			"-0.023": 0.0,
			"-0.022": 0.0,
			"-0.021": 0.0,
			"-0.02": 0.0,
			"-0.019": 0.0,
			"-0.018": 0.0,
			"-0.017": 0.0,
			"-0.016": 0.0,
			"-0.015": 0.0,
			"-0.014": 0.0,
			"-0.013": 0.0,
			"-0.012": 0.0,
			"-0.011": 0.0,
			"-0.01": 0.0,
			"-0.009": 0.0,
			"-0.008": 0.0,
			"-0.007": 0.547809664256,
			"-0.006": 4.24942964949,
			"-0.005": 7.04177138102,
			"-0.004": 14.5182070862,
			"-0.003": 23.6237875866,
			"-0.002": 33.8889741361,
			"-0.001": 32.7098130569,
			"0.0": 31.2493708469,
			"0.001": 26.9344939489,
			"0.002": 12.5982339392,
			"0.003": 3.4384479245,
			"0.004": 3.11953989897,
			"0.005": 3.20228839198,
			"0.006": 2.34613021642,
			"0.007": 2.8808991165,
			"0.008": 2.5890635859,
			"0.009": 1.14865172487,
			"0.01": 1.75908344004,
			"0.011": 2.68706280583,
			"0.012": 4.96234664512,
			"0.013": 2.33552624236,
			"0.014": 0.156744394932,
			"0.015": 0.0,
			"0.016": 0.0,
			"0.017": 0.0,
			"0.018": 0.0,
			"0.019": 0.0,
			"0.02": 0.0,
			"0.021": 0.0,
			"0.022": 0.0,
			"0.023": 0.0,
			"0.024": 0.0,
			"0.025": 0.0
		}
	}
}
