{
	 "smiles": "CC(O)C1=C(C)N=C(S1)C1=CC=C(Br)C=C1", 
	 "Tm": 393.15, 
	 "num_atms": 28, 
	 "gaussian": { 
		 "optdone": 1, 
		 "sigma_profile": "yes", 
		 "theory": "DFT", 
		 "functional": "B3LYP", 
		 "basiset": "6-31G**", 
		 "properties": { 
			 "R2extent": 9761.2355, 
			 "electric_dipole_moment_norm": 4.24964729125, 
			 "electric_quadrupole_moment_norm": 9.17168408254, 
			 "total_energy": -3564.07937484, 
			 "HOMO_LUMO_gap": 0.15965, 
			 "cosmo_polarized_energy": -11.39, 
			 "cosmo_cavitation_energy": 35.68, 
			 "cosmo_dispersion_energy": -26.58, 
			 "cosmo_repulsion_energy": 2.04, 
			 "cosmo_total_nonelectrostatic_energy": 11.14, 
			 "SMD_solvation_energy": 3.37 
		},
		"coords": [
			{
				"x": -3.833475675,
				"y": 0.719361866,
				"z": 1.5351435828,
				"element": "C" 
			},
			{
				"x": -2.7826734424,
				"y": 1.7768855211,
				"z": 1.1656723066,
				"element": "C" 
			},
			{
				"x": -2.2314266249,
				"y": 2.3828346975,
				"z": 2.3343369471,
				"element": "O" 
			},
			{
				"x": -1.6352655177,
				"y": 1.1959714748,
				"z": 0.3863498658,
				"element": "C" 
			},
			{
				"x": -1.4930643989,
				"y": 1.0221251465,
				"z": -0.9694685372,
				"element": "C" 
			},
			{
				"x": -2.469895296,
				"y": 1.4352196043,
				"z": -2.0340950768,
				"element": "C" 
			},
			{
				"x": -0.3340989286,
				"y": 0.3925313054,
				"z": -1.3620091116,
				"element": "N" 
			},
			{
				"x": 0.4238391305,
				"y": 0.0743660114,
				"z": -0.3441650639,
				"element": "C" 
			},
			{
				"x": -0.244792635,
				"y": 0.5470418272,
				"z": 1.214076634,
				"element": "S" 
			},
			{
				"x": 1.7249474934,
				"y": -0.5936526809,
				"z": -0.4808101232,
				"element": "C" 
			},
			{
				"x": 2.5108356521,
				"y": -0.9433411449,
				"z": 0.6288220384,
				"element": "C" 
			},
			{
				"x": 3.7402525028,
				"y": -1.5770301899,
				"z": 0.4659100126,
				"element": "C" 
			},
			{
				"x": 4.1911259125,
				"y": -1.8675715199,
				"z": -0.820688877,
				"element": "C" 
			},
			{
				"x": 5.875821664,
				"y": -2.7377042786,
				"z": -1.0524691508,
				"element": "Br" 
			},
			{
				"x": 3.4298015284,
				"y": -1.5325025727,
				"z": -1.9410912765,
				"element": "C" 
			},
			{
				"x": 2.2040277445,
				"y": -0.8987580884,
				"z": -1.7673084063,
				"element": "C" 
			},
			{
				"x": -4.2507498394,
				"y": 0.2511752532,
				"z": 0.6389300273,
				"element": "H" 
			},
			{
				"x": -3.3840398224,
				"y": -0.0598417158,
				"z": 2.1574858704,
				"element": "H" 
			},
			{
				"x": -4.6616060456,
				"y": 1.1776199459,
				"z": 2.0905295182,
				"element": "H" 
			},
			{
				"x": -3.2640089395,
				"y": 2.542151758,
				"z": 0.535175917,
				"element": "H" 
			},
			{
				"x": -2.9619577206,
				"y": 2.6159917149,
				"z": 2.9216337699,
				"element": "H" 
			},
			{
				"x": -3.2334999853,
				"y": 2.1162002015,
				"z": -1.6503018846,
				"element": "H" 
			},
			{
				"x": -1.9412510568,
				"y": 1.9314365275,
				"z": -2.8532724407,
				"element": "H" 
			},
			{
				"x": -2.9788485277,
				"y": 0.5622108171,
				"z": -2.4591911501,
				"element": "H" 
			},
			{
				"x": 2.1667019449,
				"y": -0.7228280783,
				"z": 1.635285548,
				"element": "H" 
			},
			{
				"x": 4.3406816851,
				"y": -1.8428697841,
				"z": 1.3282387082,
				"element": "H" 
			},
			{
				"x": 3.7931700308,
				"y": -1.7643910079,
				"z": -2.9358111657,
				"element": "H" 
			},
			{
				"x": 1.5973491668,
				"y": -0.6289326109,
				"z": -2.6244084818,
				"element": "H" 
			}
		],
		 "valence_orbital": [ 
			{
				"type": "occ",
				"energy": -0.27532,
				"method": "rhf"
			},
			{
				"type": "occ",
				"energy": -0.26726,
				"method": "rhf"
			},
			{
				"type": "occ",
				"energy": -0.26344,
				"method": "rhf"
			},
			{
				"type": "occ",
				"energy": -0.25873,
				"method": "rhf"
			},
			{
				"type": "occ",
				"energy": -0.21311,
				"method": "rhf"
			},
			{
				"type": "unocc",
				"energy": -0.05346,
				"method": "rhf"
			},
			{
				"type": "unocc",
				"energy": -0.01338,
				"method": "rhf"
			},
			{
				"type": "unocc",
				"energy": 0.00757,
				"method": "rhf"
			},
			{
				"type": "unocc",
				"energy": 0.01844,
				"method": "rhf"
			},
			{
				"type": "unocc",
				"energy": 0.0289,
				"method": "rhf"
			}
		],
		"cosmo_sigma_profile": { 
			"-0.025": 0.0,
			"-0.024": 0.0,
			"-0.023": 0.0,
			"-0.022": 0.0,
			"-0.021": 0.0,
			"-0.02": 0.0,
			"-0.019": 0.0,
			"-0.018": 0.0,
			"-0.017": 0.0,
			"-0.016": 0.328206807061,
			"-0.015": 1.14219703569,
			"-0.014": 1.25184141986,
			"-0.013": 0.654326145575,
			"-0.012": 1.08127468027,
			"-0.011": 0.975354447245,
			"-0.01": 1.0541930677,
			"-0.009": 1.20587046472,
			"-0.008": 1.58708174945,
			"-0.007": 6.29992581329,
			"-0.006": 10.513238038,
			"-0.005": 15.6869549365,
			"-0.004": 17.6120730708,
			"-0.003": 21.9657265636,
			"-0.002": 20.1200695306,
			"-0.001": 25.6501682203,
			"0.0": 25.9061840115,
			"0.001": 25.347364262,
			"0.002": 32.1177179645,
			"0.003": 29.927363383,
			"0.004": 18.4035939086,
			"0.005": 8.18461170214,
			"0.006": 4.02992717033,
			"0.007": 3.97300367302,
			"0.008": 2.71424046833,
			"0.009": 3.00350212569,
			"0.01": 2.62717154698,
			"0.011": 2.25994254264,
			"0.012": 2.34981314884,
			"0.013": 0.885460398524,
			"0.014": 0.408246580123,
			"0.015": 0.0,
			"0.016": 0.0,
			"0.017": 0.0,
			"0.018": 0.0,
			"0.019": 0.0,
			"0.02": 0.0,
			"0.021": 0.0,
			"0.022": 0.0,
			"0.023": 0.0,
			"0.024": 0.0,
			"0.025": 0.0
		}
	}
}
