{
	 "smiles": "CC(C)(C)OC(=O)NC1(CCCC1)C(N)=NO", 
	 "Tm": 442.15, 
	 "num_atms": 38, 
	 "gaussian": { 
		 "optdone": 1, 
		 "sigma_profile": "yes", 
		 "theory": "DFT", 
		 "functional": "B3LYP", 
		 "basiset": "6-31G**", 
		 "properties": { 
			 "R2extent": 4250.1348, 
			 "electric_dipole_moment_norm": 2.38595384281, 
			 "electric_quadrupole_moment_norm": 13.4238620419, 
			 "total_energy": -821.736744097, 
			 "HOMO_LUMO_gap": 0.23712, 
			 "cosmo_polarized_energy": -14.79, 
			 "cosmo_cavitation_energy": 37.95, 
			 "cosmo_dispersion_energy": -25.19, 
			 "cosmo_repulsion_energy": 1.97, 
			 "cosmo_total_nonelectrostatic_energy": 14.73, 
			 "SMD_solvation_energy": 6.47 
		},
		"coords": [
			{
				"x": 0.3192945374,
				"y": -2.3354408501,
				"z": -2.5631549724,
				"element": "C" 
			},
			{
				"x": 1.593498935,
				"y": -1.7066517628,
				"z": -1.991872823,
				"element": "C" 
			},
			{
				"x": 2.4203980186,
				"y": -2.7544662004,
				"z": -1.2386903073,
				"element": "C" 
			},
			{
				"x": 2.3968238968,
				"y": -1.0125912497,
				"z": -3.0967374629,
				"element": "C" 
			},
			{
				"x": 1.0648730735,
				"y": -0.7075494211,
				"z": -1.0481362956,
				"element": "O" 
			},
			{
				"x": 1.9095156612,
				"y": 0.0587834627,
				"z": -0.3100285322,
				"element": "C" 
			},
			{
				"x": 3.1275905032,
				"y": 0.0266916122,
				"z": -0.3632383852,
				"element": "O" 
			},
			{
				"x": 1.2238594263,
				"y": 0.9250679072,
				"z": 0.5098123602,
				"element": "N" 
			},
			{
				"x": -0.1968427292,
				"y": 0.8176962479,
				"z": 0.8881773851,
				"element": "C" 
			},
			{
				"x": -1.0984612856,
				"y": 1.2729222503,
				"z": -0.2875708174,
				"element": "C" 
			},
			{
				"x": -0.908698395,
				"y": 2.8019043355,
				"z": -0.3482325662,
				"element": "C" 
			},
			{
				"x": -0.6005626115,
				"y": 3.2413057799,
				"z": 1.1111970117,
				"element": "C" 
			},
			{
				"x": -0.498829657,
				"y": 1.932076103,
				"z": 1.9277652395,
				"element": "C" 
			},
			{
				"x": -0.5043886032,
				"y": -0.5751611754,
				"z": 1.4528985518,
				"element": "C" 
			},
			{
				"x": -1.6060598849,
				"y": -1.2507718939,
				"z": 0.9285143488,
				"element": "N" 
			},
			{
				"x": 0.1157658013,
				"y": -1.1582993231,
				"z": 2.4188445772,
				"element": "N" 
			},
			{
				"x": 1.1054737712,
				"y": -0.3223196943,
				"z": 3.0105748311,
				"element": "O" 
			},
			{
				"x": 0.5757316853,
				"y": -3.1103845358,
				"z": -3.2914275293,
				"element": "H" 
			},
			{
				"x": -0.2951989398,
				"y": -1.582117402,
				"z": -3.0656899658,
				"element": "H" 
			},
			{
				"x": -0.2735257642,
				"y": -2.7974530628,
				"z": -1.7673519918,
				"element": "H" 
			},
			{
				"x": 2.6968995725,
				"y": -3.5640903441,
				"z": -1.922085371,
				"element": "H" 
			},
			{
				"x": 3.3273863673,
				"y": -2.3123474783,
				"z": -0.8270556238,
				"element": "H" 
			},
			{
				"x": 1.8332780453,
				"y": -3.182568448,
				"z": -0.4200677374,
				"element": "H" 
			},
			{
				"x": 3.2920233175,
				"y": -0.5436251946,
				"z": -2.6886828479,
				"element": "H" 
			},
			{
				"x": 2.6928465689,
				"y": -1.7472674231,
				"z": -3.8528009442,
				"element": "H" 
			},
			{
				"x": 1.786718641,
				"y": -0.2473689526,
				"z": -3.5873879988,
				"element": "H" 
			},
			{
				"x": 1.8342815097,
				"y": 1.2599299384,
				"z": 1.2428283455,
				"element": "H" 
			},
			{
				"x": -2.1359661238,
				"y": 1.0290282466,
				"z": -0.0382344655,
				"element": "H" 
			},
			{
				"x": -0.8448657268,
				"y": 0.7759773333,
				"z": -1.2254454276,
				"element": "H" 
			},
			{
				"x": -1.7934892386,
				"y": 3.2975651841,
				"z": -0.7586181105,
				"element": "H" 
			},
			{
				"x": -0.0680975313,
				"y": 3.0489082697,
				"z": -1.0021506576,
				"element": "H" 
			},
			{
				"x": -1.3776063947,
				"y": 3.8945962441,
				"z": 1.5194464457,
				"element": "H" 
			},
			{
				"x": 0.3374298731,
				"y": 3.8026997418,
				"z": 1.1544001554,
				"element": "H" 
			},
			{
				"x": -1.4605081642,
				"y": 1.6932972974,
				"z": 2.3936537178,
				"element": "H" 
			},
			{
				"x": 0.2439550147,
				"y": 1.9574961856,
				"z": 2.726932899,
				"element": "H" 
			},
			{
				"x": -1.6228472403,
				"y": -1.2682411203,
				"z": -0.0845797553,
				"element": "H" 
			},
			{
				"x": -1.6916581251,
				"y": -2.1820878947,
				"z": 1.3220159034,
				"element": "H" 
			},
			{
				"x": 1.4958621954,
				"y": -0.9207427124,
				"z": 3.6591788165,
				"element": "H" 
			}
		],
		 "valence_orbital": [ 
			{
				"type": "occ",
				"energy": -0.28808,
				"method": "rhf"
			},
			{
				"type": "occ",
				"energy": -0.27498,
				"method": "rhf"
			},
			{
				"type": "occ",
				"energy": -0.25821,
				"method": "rhf"
			},
			{
				"type": "occ",
				"energy": -0.24079,
				"method": "rhf"
			},
			{
				"type": "occ",
				"energy": -0.21298,
				"method": "rhf"
			},
			{
				"type": "unocc",
				"energy": 0.02414,
				"method": "rhf"
			},
			{
				"type": "unocc",
				"energy": 0.05363,
				"method": "rhf"
			},
			{
				"type": "unocc",
				"energy": 0.06205,
				"method": "rhf"
			},
			{
				"type": "unocc",
				"energy": 0.07077,
				"method": "rhf"
			},
			{
				"type": "unocc",
				"energy": 0.09533,
				"method": "rhf"
			}
		],
		"cosmo_sigma_profile": { 
			"-0.025": 0.0,
			"-0.024": 0.0,
			"-0.023": 0.0,
			"-0.022": 0.0,
			"-0.021": 0.0,
			"-0.02": 0.0,
			"-0.019": 0.0,
			"-0.018": 0.0,
			"-0.017": 0.0972559508856,
			"-0.016": 1.00483893529,
			"-0.015": 0.873935141951,
			"-0.014": 0.721359907834,
			"-0.013": 1.06480045872,
			"-0.012": 1.53044133617,
			"-0.011": 1.81212384148,
			"-0.01": 2.83753718875,
			"-0.009": 2.85241975925,
			"-0.008": 3.40280349477,
			"-0.007": 3.61374814468,
			"-0.006": 4.01601055066,
			"-0.005": 5.20102530643,
			"-0.004": 16.5253445162,
			"-0.003": 29.8472838792,
			"-0.002": 35.8147765957,
			"-0.001": 36.3581242375,
			"0.0": 38.0073074738,
			"0.001": 33.8781641177,
			"0.002": 11.6912803831,
			"0.003": 7.80995093178,
			"0.004": 8.24111754897,
			"0.005": 8.2748077078,
			"0.006": 7.46863603043,
			"0.007": 5.28545088356,
			"0.008": 4.58720431166,
			"0.009": 4.40437936803,
			"0.01": 2.02777235309,
			"0.011": 2.4752727819,
			"0.012": 4.58798562592,
			"0.013": 4.73307549498,
			"0.014": 2.28961157834,
			"0.015": 0.114180384349,
			"0.016": 0.0,
			"0.017": 0.0,
			"0.018": 0.0,
			"0.019": 0.0,
			"0.02": 0.0,
			"0.021": 0.0,
			"0.022": 0.0,
			"0.023": 0.0,
			"0.024": 0.0,
			"0.025": 0.0
		}
	}
}
