{
	 "smiles": "O=CC1=CC=C(C=C1)N1C=CN=C1", 
	 "Tm": 417.15, 
	 "num_atms": 21, 
	 "gaussian": { 
		 "optdone": 1, 
		 "sigma_profile": "yes", 
		 "theory": "DFT", 
		 "functional": "B3LYP", 
		 "basiset": "6-31G**", 
		 "properties": { 
			 "R2extent": 3308.6424, 
			 "electric_dipole_moment_norm": 0.518950209558, 
			 "electric_quadrupole_moment_norm": 28.1035953486, 
			 "total_energy": -570.59013896, 
			 "HOMO_LUMO_gap": 0.16286, 
			 "cosmo_polarized_energy": -14.4, 
			 "cosmo_cavitation_energy": 25.83, 
			 "cosmo_dispersion_energy": -19.03, 
			 "cosmo_repulsion_energy": 1.44, 
			 "cosmo_total_nonelectrostatic_energy": 8.24, 
			 "SMD_solvation_energy": 4.66 
		},
		"coords": [
			{
				"x": -2.9427908824,
				"y": -2.492398962,
				"z": 0.3955284898,
				"element": "O" 
			},
			{
				"x": -2.3408608308,
				"y": -1.8730907262,
				"z": 1.2528011578,
				"element": "C" 
			},
			{
				"x": -1.2176680374,
				"y": -0.9509206959,
				"z": 0.9863761023,
				"element": "C" 
			},
			{
				"x": -0.5832227426,
				"y": -0.2795263285,
				"z": 2.0382037803,
				"element": "C" 
			},
			{
				"x": 0.4739009218,
				"y": 0.5896406287,
				"z": 1.7966837875,
				"element": "C" 
			},
			{
				"x": 0.9204381456,
				"y": 0.8049971054,
				"z": 0.4822419707,
				"element": "C" 
			},
			{
				"x": 0.2845745926,
				"y": 0.1313934457,
				"z": -0.5772273698,
				"element": "C" 
			},
			{
				"x": -0.7692493318,
				"y": -0.7334850536,
				"z": -0.3243391764,
				"element": "C" 
			},
			{
				"x": 1.9956266259,
				"y": 1.6875473027,
				"z": 0.2249349444,
				"element": "N" 
			},
			{
				"x": 2.5498643871,
				"y": 2.0059860324,
				"z": -1.0131094911,
				"element": "C" 
			},
			{
				"x": 3.556290517,
				"y": 2.8933871538,
				"z": -0.7575314149,
				"element": "C" 
			},
			{
				"x": 3.6565011361,
				"y": 3.1457897279,
				"z": 0.5964926533,
				"element": "N" 
			},
			{
				"x": 2.7208063055,
				"y": 2.4184053557,
				"z": 1.150686004,
				"element": "C" 
			},
			{
				"x": -2.6143094547,
				"y": -1.9713124887,
				"z": 2.3271973506,
				"element": "H" 
			},
			{
				"x": -0.920914216,
				"y": -0.4389582415,
				"z": 3.0594339894,
				"element": "H" 
			},
			{
				"x": 0.9439056712,
				"y": 1.0941939829,
				"z": 2.6313788536,
				"element": "H" 
			},
			{
				"x": 0.6116664103,
				"y": 0.2816467457,
				"z": -1.5984709672,
				"element": "H" 
			},
			{
				"x": -1.2653523044,
				"y": -1.2570773098,
				"z": -1.1352860754,
				"element": "H" 
			},
			{
				"x": 2.1906702542,
				"y": 1.586648683,
				"z": -1.9369616655,
				"element": "H" 
			},
			{
				"x": 4.216898134,
				"y": 3.367277234,
				"z": -1.4700110178,
				"element": "H" 
			},
			{
				"x": 2.5181246989,
				"y": 2.3765564082,
				"z": 2.2094780943,
				"element": "H" 
			}
		],
		 "valence_orbital": [ 
			{
				"type": "occ",
				"energy": -0.2827,
				"method": "rhf"
			},
			{
				"type": "occ",
				"energy": -0.27846,
				"method": "rhf"
			},
			{
				"type": "occ",
				"energy": -0.26156,
				"method": "rhf"
			},
			{
				"type": "occ",
				"energy": -0.2552,
				"method": "rhf"
			},
			{
				"type": "occ",
				"energy": -0.23852,
				"method": "rhf"
			},
			{
				"type": "unocc",
				"energy": -0.07566,
				"method": "rhf"
			},
			{
				"type": "unocc",
				"energy": -0.03055,
				"method": "rhf"
			},
			{
				"type": "unocc",
				"energy": -0.00267,
				"method": "rhf"
			},
			{
				"type": "unocc",
				"energy": 0.05511,
				"method": "rhf"
			},
			{
				"type": "unocc",
				"energy": 0.05953,
				"method": "rhf"
			}
		],
		"cosmo_sigma_profile": { 
			"-0.025": 0.0,
			"-0.024": 0.0,
			"-0.023": 0.0,
			"-0.022": 0.0,
			"-0.021": 0.0,
			"-0.02": 0.0,
			"-0.019": 0.0,
			"-0.018": 0.0,
			"-0.017": 0.0,
			"-0.016": 0.0,
			"-0.015": 0.0,
			"-0.014": 0.0,
			"-0.013": 0.0,
			"-0.012": 0.286854680852,
			"-0.011": 2.8192985981,
			"-0.01": 3.41207556108,
			"-0.009": 4.52519573172,
			"-0.008": 5.85668169834,
			"-0.007": 11.3318822353,
			"-0.006": 13.6337852808,
			"-0.005": 11.1578197066,
			"-0.004": 11.4546225344,
			"-0.003": 11.4346675385,
			"-0.002": 11.7017292006,
			"-0.001": 14.5257860319,
			"0.0": 14.7466700884,
			"0.001": 15.8249424742,
			"0.002": 19.5252675089,
			"0.003": 9.74238302441,
			"0.004": 7.90691181119,
			"0.005": 5.91275480771,
			"0.006": 3.09522872349,
			"0.007": 2.77265911791,
			"0.008": 3.88557690782,
			"0.009": 3.22807191973,
			"0.01": 3.93196025836,
			"0.011": 5.60420342985,
			"0.012": 4.25736147518,
			"0.013": 2.02402130185,
			"0.014": 0.76506764757,
			"0.015": 1.46814336479,
			"0.016": 0.960652517082,
			"0.017": 0.899963551018,
			"0.018": 0.157965649233,
			"0.019": 0.0,
			"0.02": 0.0,
			"0.021": 0.0,
			"0.022": 0.0,
			"0.023": 0.0,
			"0.024": 0.0,
			"0.025": 0.0
		}
	}
}
