{
	 "smiles": "O=C1NC2=C(C=CC=C2)C11CCC(=O)CC1", 
	 "Tm": 472.15, 
	 "num_atms": 29, 
	 "gaussian": { 
		 "optdone": 1, 
		 "sigma_profile": "yes", 
		 "theory": "DFT", 
		 "functional": "B3LYP", 
		 "basiset": "6-31G**", 
		 "properties": { 
			 "R2extent": 3774.2427, 
			 "electric_dipole_moment_norm": 5.27950159201, 
			 "electric_quadrupole_moment_norm": 12.5667968043, 
			 "total_energy": -708.447303783, 
			 "HOMO_LUMO_gap": 0.20483, 
			 "cosmo_polarized_energy": -14.89, 
			 "cosmo_cavitation_energy": 30.78, 
			 "cosmo_dispersion_energy": -22.47, 
			 "cosmo_repulsion_energy": 1.73, 
			 "cosmo_total_nonelectrostatic_energy": 10.03, 
			 "SMD_solvation_energy": 5.55 
		},
		"coords": [
			{
				"x": -0.0891884404,
				"y": -2.8399172107,
				"z": -1.2073074731,
				"element": "O" 
			},
			{
				"x": 0.3469789603,
				"y": -1.8789813445,
				"z": -0.5931794346,
				"element": "C" 
			},
			{
				"x": 1.6845350739,
				"y": -1.5532459294,
				"z": -0.484419749,
				"element": "N" 
			},
			{
				"x": 1.895020923,
				"y": -0.3977105558,
				"z": 0.279635326,
				"element": "C" 
			},
			{
				"x": 0.6524013556,
				"y": 0.091550642,
				"z": 0.7140806421,
				"element": "C" 
			},
			{
				"x": 0.6047483285,
				"y": 1.2385328269,
				"z": 1.4938934483,
				"element": "C" 
			},
			{
				"x": 1.8013514458,
				"y": 1.887582596,
				"z": 1.8332577444,
				"element": "C" 
			},
			{
				"x": 3.0264229771,
				"y": 1.3851343702,
				"z": 1.3913633136,
				"element": "C" 
			},
			{
				"x": 3.0925154627,
				"y": 0.2286010463,
				"z": 0.6035386515,
				"element": "C" 
			},
			{
				"x": -0.4541630724,
				"y": -0.8108317256,
				"z": 0.1961004478,
				"element": "C" 
			},
			{
				"x": -1.2554008968,
				"y": -1.471349159,
				"z": 1.3511271154,
				"element": "C" 
			},
			{
				"x": -2.4150551164,
				"y": -2.3611800424,
				"z": 0.8615265699,
				"element": "C" 
			},
			{
				"x": -3.3199694928,
				"y": -1.6336021686,
				"z": -0.1209147981,
				"element": "C" 
			},
			{
				"x": -4.5322845056,
				"y": -1.6286848704,
				"z": -0.0164196434,
				"element": "O" 
			},
			{
				"x": -2.5917294441,
				"y": -0.9298497726,
				"z": -1.2556914721,
				"element": "C" 
			},
			{
				"x": -1.4304332167,
				"y": -0.0538854248,
				"z": -0.7453813458,
				"element": "C" 
			},
			{
				"x": 2.4037853971,
				"y": -2.1108956027,
				"z": -0.9217140253,
				"element": "H" 
			},
			{
				"x": -0.3463044366,
				"y": 1.6340973021,
				"z": 1.8406587536,
				"element": "H" 
			},
			{
				"x": 1.7735800121,
				"y": 2.785310305,
				"z": 2.4428034735,
				"element": "H" 
			},
			{
				"x": 3.9464441251,
				"y": 1.8957347513,
				"z": 1.6601418224,
				"element": "H" 
			},
			{
				"x": 4.0461153906,
				"y": -0.1611897026,
				"z": 0.2604806403,
				"element": "H" 
			},
			{
				"x": -1.6542063934,
				"y": -0.663306776,
				"z": 1.9772599371,
				"element": "H" 
			},
			{
				"x": -0.579216932,
				"y": -2.0515265246,
				"z": 1.9885742884,
				"element": "H" 
			},
			{
				"x": -3.0201105702,
				"y": -2.7158460203,
				"z": 1.7000755732,
				"element": "H" 
			},
			{
				"x": -1.9996203121,
				"y": -3.2309538027,
				"z": 0.3378889434,
				"element": "H" 
			},
			{
				"x": -3.3139669743,
				"y": -0.3353610789,
				"z": -1.8213845668,
				"element": "H" 
			},
			{
				"x": -2.1875010876,
				"y": -1.7081876975,
				"z": -1.9145394579,
				"element": "H" 
			},
			{
				"x": -1.834584302,
				"y": 0.7971075223,
				"z": -0.1828329785,
				"element": "H" 
			},
			{
				"x": -0.8781642584,
				"y": 0.3690540469,
				"z": -1.5917217462,
				"element": "H" 
			}
		],
		 "valence_orbital": [ 
			{
				"type": "occ",
				"energy": -0.31809,
				"method": "rhf"
			},
			{
				"type": "occ",
				"energy": -0.2607,
				"method": "rhf"
			},
			{
				"type": "occ",
				"energy": -0.26033,
				"method": "rhf"
			},
			{
				"type": "occ",
				"energy": -0.23179,
				"method": "rhf"
			},
			{
				"type": "occ",
				"energy": -0.22634,
				"method": "rhf"
			},
			{
				"type": "unocc",
				"energy": -0.02151,
				"method": "rhf"
			},
			{
				"type": "unocc",
				"energy": -0.01353,
				"method": "rhf"
			},
			{
				"type": "unocc",
				"energy": -0.00808,
				"method": "rhf"
			},
			{
				"type": "unocc",
				"energy": 0.02656,
				"method": "rhf"
			},
			{
				"type": "unocc",
				"energy": 0.08002,
				"method": "rhf"
			}
		],
		"cosmo_sigma_profile": { 
			"-0.025": 0.0,
			"-0.024": 0.0,
			"-0.023": 0.0,
			"-0.022": 0.0,
			"-0.021": 0.0,
			"-0.02": 0.0,
			"-0.019": 0.0,
			"-0.018": 0.0,
			"-0.017": 0.0,
			"-0.016": 0.417454061506,
			"-0.015": 1.3793245369,
			"-0.014": 0.990193335214,
			"-0.013": 1.17493606444,
			"-0.012": 1.62877012642,
			"-0.011": 0.617639500145,
			"-0.01": 0.826522399727,
			"-0.009": 1.59892540605,
			"-0.008": 1.0342820894,
			"-0.007": 2.8864495027,
			"-0.006": 9.2492193832,
			"-0.005": 20.259712047,
			"-0.004": 26.2418716313,
			"-0.003": 25.1627084366,
			"-0.002": 23.6744516032,
			"-0.001": 21.2461338829,
			"0.0": 12.3613977597,
			"0.001": 11.2950013146,
			"0.002": 11.6032543711,
			"0.003": 9.73863833167,
			"0.004": 10.3465019401,
			"0.005": 10.5277067719,
			"0.006": 8.42527932854,
			"0.007": 2.83136603506,
			"0.008": 2.19466714079,
			"0.009": 2.38657705896,
			"0.01": 3.96299812729,
			"0.011": 4.67495873059,
			"0.012": 6.84652925676,
			"0.013": 6.03513236399,
			"0.014": 1.43157940013,
			"0.015": 0.0,
			"0.016": 0.0,
			"0.017": 0.0,
			"0.018": 0.0,
			"0.019": 0.0,
			"0.02": 0.0,
			"0.021": 0.0,
			"0.022": 0.0,
			"0.023": 0.0,
			"0.024": 0.0,
			"0.025": 0.0
		}
	}
}
