{
	 "smiles": "CC(C)(O)C1=CC=C(Br)C=C1", 
	 "Tm": 316.15, 
	 "num_atms": 22, 
	 "gaussian": { 
		 "optdone": 1, 
		 "sigma_profile": "yes", 
		 "theory": "DFT", 
		 "functional": "B3LYP", 
		 "basiset": "6-31G**", 
		 "properties": { 
			 "R2extent": 5473.3669, 
			 "electric_dipole_moment_norm": 3.43911603904, 
			 "electric_quadrupole_moment_norm": 10.1891182381, 
			 "total_energy": -2996.219768, 
			 "HOMO_LUMO_gap": 0.22299, 
			 "cosmo_polarized_energy": -7.93, 
			 "cosmo_cavitation_energy": 26.96, 
			 "cosmo_dispersion_energy": -19.9, 
			 "cosmo_repulsion_energy": 1.6, 
			 "cosmo_total_nonelectrostatic_energy": 8.66, 
			 "SMD_solvation_energy": 3.68 
		},
		"coords": [
			{
				"x": -3.1219609909,
				"y": 0.4891062986,
				"z": 1.4901673073,
				"element": "C" 
			},
			{
				"x": -2.0929689151,
				"y": -0.4026469269,
				"z": 0.7700138026,
				"element": "C" 
			},
			{
				"x": -2.6845402167,
				"y": -1.7903901172,
				"z": 0.458809694,
				"element": "C" 
			},
			{
				"x": -0.9454660131,
				"y": -0.5641225383,
				"z": 1.6133890168,
				"element": "O" 
			},
			{
				"x": -1.5998664336,
				"y": 0.271746448,
				"z": -0.5114373918,
				"element": "C" 
			},
			{
				"x": -0.2520194299,
				"y": 0.6075002734,
				"z": -0.6809164715,
				"element": "C" 
			},
			{
				"x": 0.1954219379,
				"y": 1.2227265484,
				"z": -1.8517589977,
				"element": "C" 
			},
			{
				"x": -0.7153654441,
				"y": 1.5058139701,
				"z": -2.8652907033,
				"element": "C" 
			},
			{
				"x": -0.1117330971,
				"y": 2.348522043,
				"z": -4.4737449684,
				"element": "Br" 
			},
			{
				"x": -2.0637505822,
				"y": 1.1832366377,
				"z": -2.7245451444,
				"element": "C" 
			},
			{
				"x": -2.4943322305,
				"y": 0.5692933269,
				"z": -1.5494451294,
				"element": "C" 
			},
			{
				"x": -2.6691856725,
				"y": 1.450659471,
				"z": 1.7454000337,
				"element": "H" 
			},
			{
				"x": -3.4592431611,
				"y": 0.0059666481,
				"z": 2.4155302081,
				"element": "H" 
			},
			{
				"x": -4.0057732521,
				"y": 0.6744055975,
				"z": 0.8728181467,
				"element": "H" 
			},
			{
				"x": -1.9257114943,
				"y": -2.4237564977,
				"z": -0.0078348688,
				"element": "H" 
			},
			{
				"x": -3.0214973566,
				"y": -2.2740244627,
				"z": 1.384038948,
				"element": "H" 
			},
			{
				"x": -3.5451226799,
				"y": -1.7268306503,
				"z": -0.2134233561,
				"element": "H" 
			},
			{
				"x": -1.2438109067,
				"y": -0.9898661508,
				"z": 2.4271496026,
				"element": "H" 
			},
			{
				"x": 0.4508840359,
				"y": 0.3842261954,
				"z": 0.1119963248,
				"element": "H" 
			},
			{
				"x": 1.2423302845,
				"y": 1.4781951219,
				"z": -1.9719199637,
				"element": "H" 
			},
			{
				"x": -2.7660803818,
				"y": 1.4076294696,
				"z": -3.5193369256,
				"element": "H" 
			},
			{
				"x": -3.5480080001,
				"y": 0.3228092941,
				"z": -1.4518591637,
				"element": "H" 
			}
		],
		 "valence_orbital": [ 
			{
				"type": "occ",
				"energy": -0.30362,
				"method": "rhf"
			},
			{
				"type": "occ",
				"energy": -0.28143,
				"method": "rhf"
			},
			{
				"type": "occ",
				"energy": -0.27637,
				"method": "rhf"
			},
			{
				"type": "occ",
				"energy": -0.25662,
				"method": "rhf"
			},
			{
				"type": "occ",
				"energy": -0.23297,
				"method": "rhf"
			},
			{
				"type": "unocc",
				"energy": -0.00998,
				"method": "rhf"
			},
			{
				"type": "unocc",
				"energy": -0.00634,
				"method": "rhf"
			},
			{
				"type": "unocc",
				"energy": 0.01282,
				"method": "rhf"
			},
			{
				"type": "unocc",
				"energy": 0.06281,
				"method": "rhf"
			},
			{
				"type": "unocc",
				"energy": 0.10816,
				"method": "rhf"
			}
		],
		"cosmo_sigma_profile": { 
			"-0.025": 0.0,
			"-0.024": 0.0,
			"-0.023": 0.0,
			"-0.022": 0.0,
			"-0.021": 0.0,
			"-0.02": 0.0,
			"-0.019": 0.0,
			"-0.018": 0.0,
			"-0.017": 0.0,
			"-0.016": 0.0664387039833,
			"-0.015": 0.683494701177,
			"-0.014": 0.933381892894,
			"-0.013": 0.897157192427,
			"-0.012": 0.868058756938,
			"-0.011": 1.03314232349,
			"-0.01": 1.52125839396,
			"-0.009": 0.689310315728,
			"-0.008": 0.915062788438,
			"-0.007": 3.56599490768,
			"-0.006": 7.16422699238,
			"-0.005": 10.3641048767,
			"-0.004": 15.2806905598,
			"-0.003": 15.873168508,
			"-0.002": 16.4270699174,
			"-0.001": 17.788548879,
			"0.0": 21.2149311787,
			"0.001": 18.127549677,
			"0.002": 16.614707082,
			"0.003": 18.6294116945,
			"0.004": 23.0865091898,
			"0.005": 13.3451791582,
			"0.006": 1.46633035983,
			"0.007": 2.02002892123,
			"0.008": 1.84058912141,
			"0.009": 1.49498259378,
			"0.01": 1.43254761955,
			"0.011": 1.41698688168,
			"0.012": 0.844416346346,
			"0.013": 0.27113896208,
			"0.014": 0.0,
			"0.015": 0.0,
			"0.016": 0.0,
			"0.017": 0.0,
			"0.018": 0.0,
			"0.019": 0.0,
			"0.02": 0.0,
			"0.021": 0.0,
			"0.022": 0.0,
			"0.023": 0.0,
			"0.024": 0.0,
			"0.025": 0.0
		}
	}
}
