{
	 "smiles": "CC1=CC=C(C=C1)C1=CSC(=O)N1CC(O)=O", 
	 "Tm": 402.15, 
	 "num_atms": 28, 
	 "gaussian": { 
		 "optdone": 1, 
		 "sigma_profile": "yes", 
		 "theory": "DFT", 
		 "functional": "B3LYP", 
		 "basiset": "6-31G**", 
		 "properties": { 
			 "R2extent": 6355.9873, 
			 "electric_dipole_moment_norm": 5.25905272554, 
			 "electric_quadrupole_moment_norm": 23.281777707, 
			 "total_energy": -1142.54313464, 
			 "HOMO_LUMO_gap": 0.17777, 
			 "cosmo_polarized_energy": -15.5, 
			 "cosmo_cavitation_energy": 34.18, 
			 "cosmo_dispersion_energy": -24.49, 
			 "cosmo_repulsion_energy": 1.87, 
			 "cosmo_total_nonelectrostatic_energy": 11.56, 
			 "SMD_solvation_energy": 7.55 
		},
		"coords": [
			{
				"x": -0.3425965559,
				"y": -3.8218646591,
				"z": 0.3601393544,
				"element": "C" 
			},
			{
				"x": -0.1283574388,
				"y": -2.3395348749,
				"z": 0.1675404983,
				"element": "C" 
			},
			{
				"x": -0.7173600395,
				"y": -1.40367729,
				"z": 1.0266431596,
				"element": "C" 
			},
			{
				"x": -0.5034672961,
				"y": -0.036224031,
				"z": 0.859884491,
				"element": "C" 
			},
			{
				"x": 0.3167438211,
				"y": 0.4380580012,
				"z": -0.1747836431,
				"element": "C" 
			},
			{
				"x": 0.9156577149,
				"y": -0.4962635161,
				"z": -1.0387591149,
				"element": "C" 
			},
			{
				"x": 0.6880378083,
				"y": -1.8590344589,
				"z": -0.867272586,
				"element": "C" 
			},
			{
				"x": 0.5783364478,
				"y": 1.8867949345,
				"z": -0.3001919228,
				"element": "C" 
			},
			{
				"x": 1.0235291042,
				"y": 2.6875603336,
				"z": 0.6946603533,
				"element": "C" 
			},
			{
				"x": 1.276561885,
				"y": 4.3438767172,
				"z": 0.1747375905,
				"element": "S" 
			},
			{
				"x": 0.7407154013,
				"y": 3.9287312389,
				"z": -1.4948468911,
				"element": "C" 
			},
			{
				"x": 0.6451711718,
				"y": 4.6878304016,
				"z": -2.4384227666,
				"element": "O" 
			},
			{
				"x": 0.4073383771,
				"y": 2.579512922,
				"z": -1.5128548447,
				"element": "N" 
			},
			{
				"x": -0.1916587122,
				"y": 2.0700498096,
				"z": -2.7292263428,
				"element": "C" 
			},
			{
				"x": 0.8435509508,
				"y": 1.7370083104,
				"z": -3.7980586484,
				"element": "C" 
			},
			{
				"x": 0.2620732134,
				"y": 1.685618709,
				"z": -5.0137325452,
				"element": "O" 
			},
			{
				"x": 2.0145290612,
				"y": 1.5080291503,
				"z": -3.6029360049,
				"element": "O" 
			},
			{
				"x": 0.5107543354,
				"y": -4.2800560933,
				"z": 0.8754650176,
				"element": "H" 
			},
			{
				"x": -1.2341271148,
				"y": -4.0232215306,
				"z": 0.9606784603,
				"element": "H" 
			},
			{
				"x": -0.4548596695,
				"y": -4.3384768407,
				"z": -0.5983673958,
				"element": "H" 
			},
			{
				"x": -1.3612811851,
				"y": -1.7480435631,
				"z": 1.8319808953,
				"element": "H" 
			},
			{
				"x": -0.9849909866,
				"y": 0.6750925321,
				"z": 1.5241495839,
				"element": "H" 
			},
			{
				"x": 1.5775991938,
				"y": -0.1496634736,
				"z": -1.82648731,
				"element": "H" 
			},
			{
				"x": 1.1634345758,
				"y": -2.5653568471,
				"z": -1.5436497217,
				"element": "H" 
			},
			{
				"x": 1.2797310223,
				"y": 2.3699191244,
				"z": 1.6940159314,
				"element": "H" 
			},
			{
				"x": -0.7586972923,
				"y": 1.1628685589,
				"z": -2.5054856186,
				"element": "H" 
			},
			{
				"x": -0.876926944,
				"y": 2.8193169028,
				"z": -3.13220108,
				"element": "H" 
			},
			{
				"x": 0.9603591507,
				"y": 1.4459495321,
				"z": -5.6462188989,
				"element": "H" 
			}
		],
		 "valence_orbital": [ 
			{
				"type": "occ",
				"energy": -0.28414,
				"method": "rhf"
			},
			{
				"type": "occ",
				"energy": -0.27133,
				"method": "rhf"
			},
			{
				"type": "occ",
				"energy": -0.26191,
				"method": "rhf"
			},
			{
				"type": "occ",
				"energy": -0.25667,
				"method": "rhf"
			},
			{
				"type": "occ",
				"energy": -0.20822,
				"method": "rhf"
			},
			{
				"type": "unocc",
				"energy": -0.03045,
				"method": "rhf"
			},
			{
				"type": "unocc",
				"energy": -0.0144,
				"method": "rhf"
			},
			{
				"type": "unocc",
				"energy": -0.00258,
				"method": "rhf"
			},
			{
				"type": "unocc",
				"energy": 0.01102,
				"method": "rhf"
			},
			{
				"type": "unocc",
				"energy": 0.02083,
				"method": "rhf"
			}
		],
		"cosmo_sigma_profile": { 
			"-0.025": 0.0,
			"-0.024": 0.0,
			"-0.023": 0.0,
			"-0.022": 0.0,
			"-0.021": 0.0,
			"-0.02": 0.0,
			"-0.019": 0.376406242383,
			"-0.018": 1.22659859338,
			"-0.017": 0.733989456691,
			"-0.016": 0.801935072184,
			"-0.015": 0.769363559937,
			"-0.014": 1.06791813086,
			"-0.013": 0.616199792193,
			"-0.012": 0.761032840714,
			"-0.011": 0.653577036234,
			"-0.01": 0.509927966112,
			"-0.009": 2.62561043775,
			"-0.008": 5.90947250796,
			"-0.007": 5.72294948842,
			"-0.006": 9.94651267419,
			"-0.005": 14.2705435859,
			"-0.004": 22.1024896771,
			"-0.003": 20.2693545428,
			"-0.002": 18.793703773,
			"-0.001": 21.3355184016,
			"0.0": 22.8315570269,
			"0.001": 22.5504566968,
			"0.002": 19.3878103523,
			"0.003": 19.9030439062,
			"0.004": 16.6205873295,
			"0.005": 12.1098609999,
			"0.006": 4.58917563188,
			"0.007": 4.06407659967,
			"0.008": 3.97311545162,
			"0.009": 3.70471652642,
			"0.01": 4.1715314721,
			"0.011": 6.83293412334,
			"0.012": 4.80781697022,
			"0.013": 0.987033221651,
			"0.014": 0.0,
			"0.015": 0.0,
			"0.016": 0.0,
			"0.017": 0.0,
			"0.018": 0.0,
			"0.019": 0.0,
			"0.02": 0.0,
			"0.021": 0.0,
			"0.022": 0.0,
			"0.023": 0.0,
			"0.024": 0.0,
			"0.025": 0.0
		}
	}
}
