{
	 "smiles": "NC(=NO)C1=CC=CN=C1", 
	 "Tm": 403.15, 
	 "num_atms": 17, 
	 "gaussian": { 
		 "optdone": 1, 
		 "sigma_profile": "yes", 
		 "theory": "DFT", 
		 "functional": "B3LYP", 
		 "basiset": "6-31G**", 
		 "properties": { 
			 "R2extent": 2021.6895, 
			 "electric_dipole_moment_norm": 2.16221614553, 
			 "electric_quadrupole_moment_norm": 6.964131658, 
			 "total_energy": -472.27845752, 
			 "HOMO_LUMO_gap": 0.1784, 
			 "cosmo_polarized_energy": -12.64, 
			 "cosmo_cavitation_energy": 21.44, 
			 "cosmo_dispersion_energy": -16.24, 
			 "cosmo_repulsion_energy": 1.33, 
			 "cosmo_total_nonelectrostatic_energy": 6.53, 
			 "SMD_solvation_energy": 2.48 
		},
		"coords": [
			{
				"x": 0.682077106,
				"y": -1.2274199473,
				"z": 0.2252912032,
				"element": "N" 
			},
			{
				"x": -0.0423577086,
				"y": -0.9171605647,
				"z": -0.909025556,
				"element": "C" 
			},
			{
				"x": -0.4663855222,
				"y": -1.7924081562,
				"z": -1.7633944908,
				"element": "N" 
			},
			{
				"x": -0.1664943636,
				"y": -3.0998840291,
				"z": -1.2950631494,
				"element": "O" 
			},
			{
				"x": -0.3008836289,
				"y": 0.5087728934,
				"z": -1.2108986246,
				"element": "C" 
			},
			{
				"x": -1.3478289477,
				"y": 0.8923892548,
				"z": -2.0613689796,
				"element": "C" 
			},
			{
				"x": -1.5485832875,
				"y": 2.2441733061,
				"z": -2.312693496,
				"element": "C" 
			},
			{
				"x": -0.7043450786,
				"y": 3.1738487337,
				"z": -1.69866833,
				"element": "C" 
			},
			{
				"x": 0.303747847,
				"y": 2.8312976313,
				"z": -0.8889640624,
				"element": "N" 
			},
			{
				"x": 0.4951663484,
				"y": 1.5263592128,
				"z": -0.6636398371,
				"element": "C" 
			},
			{
				"x": 0.5393698836,
				"y": -0.6247574325,
				"z": 1.0227019694,
				"element": "H" 
			},
			{
				"x": 0.689122554,
				"y": -2.2151542345,
				"z": 0.4415067198,
				"element": "H" 
			},
			{
				"x": -0.5080380225,
				"y": -3.6521511537,
				"z": -2.00842615,
				"element": "H" 
			},
			{
				"x": -1.9795298296,
				"y": 0.129594606,
				"z": -2.5031963535,
				"element": "H" 
			},
			{
				"x": -2.3502039175,
				"y": 2.5784366348,
				"z": -2.9639128652,
				"element": "H" 
			},
			{
				"x": -0.8447323259,
				"y": 4.2404492224,
				"z": -1.8655544423,
				"element": "H" 
			},
			{
				"x": 1.3418988936,
				"y": 1.2727140225,
				"z": -0.0289935554,
				"element": "H" 
			}
		],
		 "valence_orbital": [ 
			{
				"type": "occ",
				"energy": -0.28748,
				"method": "rhf"
			},
			{
				"type": "occ",
				"energy": -0.27985,
				"method": "rhf"
			},
			{
				"type": "occ",
				"energy": -0.26574,
				"method": "rhf"
			},
			{
				"type": "occ",
				"energy": -0.25602,
				"method": "rhf"
			},
			{
				"type": "occ",
				"energy": -0.21585,
				"method": "rhf"
			},
			{
				"type": "unocc",
				"energy": -0.03745,
				"method": "rhf"
			},
			{
				"type": "unocc",
				"energy": -0.022,
				"method": "rhf"
			},
			{
				"type": "unocc",
				"energy": 0.0517,
				"method": "rhf"
			},
			{
				"type": "unocc",
				"energy": 0.07055,
				"method": "rhf"
			},
			{
				"type": "unocc",
				"energy": 0.10038,
				"method": "rhf"
			}
		],
		"cosmo_sigma_profile": { 
			"-0.025": 0.0,
			"-0.024": 0.0,
			"-0.023": 0.0,
			"-0.022": 0.0,
			"-0.021": 0.0,
			"-0.02": 0.0,
			"-0.019": 0.0,
			"-0.018": 0.0,
			"-0.017": 0.47232694001,
			"-0.016": 1.25774791854,
			"-0.015": 0.745689092782,
			"-0.014": 0.973457698552,
			"-0.013": 1.74788208952,
			"-0.012": 2.28800448368,
			"-0.011": 3.08682765982,
			"-0.01": 3.30475784481,
			"-0.009": 3.8092447271,
			"-0.008": 2.45806694256,
			"-0.007": 6.09130730082,
			"-0.006": 9.37218074672,
			"-0.005": 9.56293705477,
			"-0.004": 7.56361710008,
			"-0.003": 7.36848952366,
			"-0.002": 6.64223225107,
			"-0.001": 8.27894476276,
			"0.0": 9.89827322344,
			"0.001": 14.2242356126,
			"0.002": 16.7367245511,
			"0.003": 8.06809465338,
			"0.004": 5.88459522743,
			"0.005": 6.0343373625,
			"0.006": 6.51606153555,
			"0.007": 6.08164862364,
			"0.008": 5.30341453819,
			"0.009": 4.8995118294,
			"0.01": 3.7051373808,
			"0.011": 2.635019065,
			"0.012": 2.00842143967,
			"0.013": 1.22280923195,
			"0.014": 1.02406738979,
			"0.015": 0.790432769158,
			"0.016": 0.909391943035,
			"0.017": 0.0806714791507,
			"0.018": 0.0,
			"0.019": 0.0,
			"0.02": 0.0,
			"0.021": 0.0,
			"0.022": 0.0,
			"0.023": 0.0,
			"0.024": 0.0,
			"0.025": 0.0
		}
	}
}
