{
	 "smiles": "FC1=CC=C(F)C(F)=C1F", 
	 "Tm": 231.15, 
	 "num_atms": 12, 
	 "gaussian": { 
		 "optdone": 1, 
		 "sigma_profile": "yes", 
		 "theory": "DFT", 
		 "functional": "B3LYP", 
		 "basiset": "6-31G**", 
		 "properties": { 
			 "R2extent": 2384.3054, 
			 "electric_dipole_moment_norm": 2.18747416213, 
			 "electric_quadrupole_moment_norm": 5.59979120593, 
			 "total_energy": -629.153662886, 
			 "HOMO_LUMO_gap": 0.22987, 
			 "cosmo_polarized_energy": -3.25, 
			 "cosmo_cavitation_energy": 18.84, 
			 "cosmo_dispersion_energy": -13.43, 
			 "cosmo_repulsion_energy": 1.0, 
			 "cosmo_total_nonelectrostatic_energy": 6.41, 
			 "SMD_solvation_energy": 5.37 
		},
		"coords": [
			{
				"x": 1.1686968505,
				"y": -1.2441275628,
				"z": -3.3895525482,
				"element": "F" 
			},
			{
				"x": 0.2992186654,
				"y": -0.8813440387,
				"z": -2.4333842211,
				"element": "C" 
			},
			{
				"x": 0.4178755405,
				"y": -1.3728620133,
				"z": -1.1404146206,
				"element": "C" 
			},
			{
				"x": -0.5007988063,
				"y": -0.9788933806,
				"z": -0.1646400213,
				"element": "C" 
			},
			{
				"x": -1.5224396721,
				"y": -0.1001305724,
				"z": -0.4984920863,
				"element": "C" 
			},
			{
				"x": -2.4181961576,
				"y": 0.2940539692,
				"z": 0.420265694,
				"element": "F" 
			},
			{
				"x": -1.6429624147,
				"y": 0.3947717397,
				"z": -1.7975614104,
				"element": "C" 
			},
			{
				"x": -2.6284397349,
				"y": 1.2409460059,
				"z": -2.114636906,
				"element": "F" 
			},
			{
				"x": -0.727017199,
				"y": 0.0019805338,
				"z": -2.7704389795,
				"element": "C" 
			},
			{
				"x": -0.8374448022,
				"y": 0.4729062978,
				"z": -4.0169377831,
				"element": "F" 
			},
			{
				"x": 1.2261643344,
				"y": -2.0573420107,
				"z": -0.9109387549,
				"element": "H" 
			},
			{
				"x": -0.4347566038,
				"y": -1.3450589678,
				"z": 0.8532316374,
				"element": "H" 
			}
		],
		 "valence_orbital": [ 
			{
				"type": "occ",
				"energy": -0.38382,
				"method": "rhf"
			},
			{
				"type": "occ",
				"energy": -0.38003,
				"method": "rhf"
			},
			{
				"type": "occ",
				"energy": -0.35938,
				"method": "rhf"
			},
			{
				"type": "occ",
				"energy": -0.26779,
				"method": "rhf"
			},
			{
				"type": "occ",
				"energy": -0.25585,
				"method": "rhf"
			},
			{
				"type": "unocc",
				"energy": -0.02598,
				"method": "rhf"
			},
			{
				"type": "unocc",
				"energy": -0.01298,
				"method": "rhf"
			},
			{
				"type": "unocc",
				"energy": 0.02856,
				"method": "rhf"
			},
			{
				"type": "unocc",
				"energy": 0.11653,
				"method": "rhf"
			},
			{
				"type": "unocc",
				"energy": 0.1193,
				"method": "rhf"
			}
		],
		"cosmo_sigma_profile": { 
			"-0.025": 0.0,
			"-0.024": 0.0,
			"-0.023": 0.0,
			"-0.022": 0.0,
			"-0.021": 0.0,
			"-0.02": 0.0,
			"-0.019": 0.0,
			"-0.018": 0.0,
			"-0.017": 0.0,
			"-0.016": 0.0,
			"-0.015": 0.0,
			"-0.014": 0.0,
			"-0.013": 0.0,
			"-0.012": 0.0,
			"-0.011": 0.0,
			"-0.01": 0.0,
			"-0.009": 1.62362655057,
			"-0.008": 3.94068124012,
			"-0.007": 3.85097619035,
			"-0.006": 4.08732549045,
			"-0.005": 2.4512711557,
			"-0.004": 3.4314297306,
			"-0.003": 9.72404755601,
			"-0.002": 16.382249712,
			"-0.001": 15.2782177357,
			"0.0": 14.0357077414,
			"0.001": 11.9821896307,
			"0.002": 19.043220255,
			"0.003": 38.9468387714,
			"0.004": 8.28465584397,
			"0.005": 0.0,
			"0.006": 0.0,
			"0.007": 0.0,
			"0.008": 0.0,
			"0.009": 0.0,
			"0.01": 0.0,
			"0.011": 0.0,
			"0.012": 0.0,
			"0.013": 0.0,
			"0.014": 0.0,
			"0.015": 0.0,
			"0.016": 0.0,
			"0.017": 0.0,
			"0.018": 0.0,
			"0.019": 0.0,
			"0.02": 0.0,
			"0.021": 0.0,
			"0.022": 0.0,
			"0.023": 0.0,
			"0.024": 0.0,
			"0.025": 0.0
		}
	}
}
