{
	 "smiles": "CCN1N=C(C)C=C1C(O)=O", 
	 "Tm": 412.15, 
	 "num_atms": 21, 
	 "gaussian": { 
		 "optdone": 1, 
		 "sigma_profile": "yes", 
		 "theory": "DFT", 
		 "functional": "B3LYP", 
		 "basiset": "6-31G**", 
		 "properties": { 
			 "R2extent": 2051.9287, 
			 "electric_dipole_moment_norm": 2.89026264204, 
			 "electric_quadrupole_moment_norm": 12.7854163104, 
			 "total_energy": -532.724470338, 
			 "HOMO_LUMO_gap": 0.20743, 
			 "cosmo_polarized_energy": -13.31, 
			 "cosmo_cavitation_energy": 24.89, 
			 "cosmo_dispersion_energy": -18.08, 
			 "cosmo_repulsion_energy": 1.47, 
			 "cosmo_total_nonelectrostatic_energy": 8.29, 
			 "SMD_solvation_energy": 4.62 
		},
		"coords": [
			{
				"x": 1.3650686367,
				"y": -1.9229027057,
				"z": -2.111141154,
				"element": "C" 
			},
			{
				"x": 1.4635265578,
				"y": -0.4557274473,
				"z": -1.6954515691,
				"element": "C" 
			},
			{
				"x": 1.3228088815,
				"y": -0.2769335338,
				"z": -0.2459572874,
				"element": "N" 
			},
			{
				"x": 2.4270922648,
				"y": -0.3089610016,
				"z": 0.5162518303,
				"element": "N" 
			},
			{
				"x": 2.0161938605,
				"y": -0.164127525,
				"z": 1.783703188,
				"element": "C" 
			},
			{
				"x": 3.0058884265,
				"y": -0.1589087594,
				"z": 2.9086588854,
				"element": "C" 
			},
			{
				"x": 0.615288822,
				"y": -0.0327118797,
				"z": 1.8324068285,
				"element": "C" 
			},
			{
				"x": 0.1920280869,
				"y": -0.1113817059,
				"z": 0.5072062952,
				"element": "C" 
			},
			{
				"x": -1.1653532799,
				"y": -0.0634928604,
				"z": -0.072431423,
				"element": "C" 
			},
			{
				"x": -2.1344595668,
				"y": 0.3976651636,
				"z": 0.7591324325,
				"element": "O" 
			},
			{
				"x": -1.4471614588,
				"y": -0.4091962648,
				"z": -1.1995283707,
				"element": "O" 
			},
			{
				"x": 0.3699022804,
				"y": -2.3145504058,
				"z": -1.8886062974,
				"element": "H" 
			},
			{
				"x": 2.116428106,
				"y": -2.5235018518,
				"z": -1.5906574666,
				"element": "H" 
			},
			{
				"x": 1.5355748977,
				"y": -2.012119303,
				"z": -3.1886787704,
				"element": "H" 
			},
			{
				"x": 2.4417500691,
				"y": -0.0393070656,
				"z": -1.94430091,
				"element": "H" 
			},
			{
				"x": 0.6855221044,
				"y": 0.1324243258,
				"z": -2.1820896973,
				"element": "H" 
			},
			{
				"x": 2.9716744082,
				"y": 0.7813648476,
				"z": 3.4697580661,
				"element": "H" 
			},
			{
				"x": 2.8107301617,
				"y": -0.9711123691,
				"z": 3.6174180472,
				"element": "H" 
			},
			{
				"x": 4.0150934725,
				"y": -0.2851625546,
				"z": 2.5112152288,
				"element": "H" 
			},
			{
				"x": 0.0017673274,
				"y": 0.0665047714,
				"z": 2.7179931958,
				"element": "H" 
			},
			{
				"x": -1.7397640585,
				"y": 0.7473381249,
				"z": 1.5703989481,
				"element": "H" 
			}
		],
		 "valence_orbital": [ 
			{
				"type": "occ",
				"energy": -0.32225,
				"method": "rhf"
			},
			{
				"type": "occ",
				"energy": -0.29712,
				"method": "rhf"
			},
			{
				"type": "occ",
				"energy": -0.28334,
				"method": "rhf"
			},
			{
				"type": "occ",
				"energy": -0.26349,
				"method": "rhf"
			},
			{
				"type": "occ",
				"energy": -0.25162,
				"method": "rhf"
			},
			{
				"type": "unocc",
				"energy": -0.04419,
				"method": "rhf"
			},
			{
				"type": "unocc",
				"energy": 0.03541,
				"method": "rhf"
			},
			{
				"type": "unocc",
				"energy": 0.06062,
				"method": "rhf"
			},
			{
				"type": "unocc",
				"energy": 0.09043,
				"method": "rhf"
			},
			{
				"type": "unocc",
				"energy": 0.11061,
				"method": "rhf"
			}
		],
		"cosmo_sigma_profile": { 
			"-0.025": 0.0,
			"-0.024": 0.0,
			"-0.023": 0.0,
			"-0.022": 0.0,
			"-0.021": 0.0,
			"-0.02": 0.0,
			"-0.019": 0.216826207317,
			"-0.018": 0.816949979385,
			"-0.017": 1.02860778869,
			"-0.016": 1.29036203106,
			"-0.015": 0.903775573541,
			"-0.014": 0.575516219805,
			"-0.013": 0.983184662151,
			"-0.012": 1.45563845095,
			"-0.011": 1.43539247652,
			"-0.01": 0.696606674282,
			"-0.009": 1.80112600332,
			"-0.008": 1.47964466038,
			"-0.007": 2.12406556516,
			"-0.006": 2.98602808723,
			"-0.005": 8.73243150266,
			"-0.004": 16.5260717633,
			"-0.003": 21.0093238246,
			"-0.002": 19.4243218254,
			"-0.001": 18.6851375583,
			"0.0": 19.5068105197,
			"0.001": 13.4917706766,
			"0.002": 8.59077716691,
			"0.003": 9.29910976394,
			"0.004": 5.96615960876,
			"0.005": 4.39813930191,
			"0.006": 3.97497495695,
			"0.007": 3.90888746172,
			"0.008": 3.87557103861,
			"0.009": 5.08412591185,
			"0.01": 5.7679884158,
			"0.011": 3.74436163623,
			"0.012": 3.96129120308,
			"0.013": 2.11262829025,
			"0.014": 0.80945150306,
			"0.015": 0.320224645704,
			"0.016": 0.0,
			"0.017": 0.0,
			"0.018": 0.0,
			"0.019": 0.0,
			"0.02": 0.0,
			"0.021": 0.0,
			"0.022": 0.0,
			"0.023": 0.0,
			"0.024": 0.0,
			"0.025": 0.0
		}
	}
}
