{
	 "smiles": "OC(=O)CCSC1=CC2=C(OCCCO2)C=C1", 
	 "Tm": 337.15, 
	 "num_atms": 31, 
	 "gaussian": { 
		 "optdone": 1, 
		 "sigma_profile": "yes", 
		 "theory": "DFT", 
		 "functional": "B3LYP", 
		 "basiset": "6-31G**", 
		 "properties": { 
			 "R2extent": 6665.162, 
			 "electric_dipole_moment_norm": 4.92207088429, 
			 "electric_quadrupole_moment_norm": 26.4547295785, 
			 "total_energy": -1164.78197841, 
			 "HOMO_LUMO_gap": 0.20141, 
			 "cosmo_polarized_energy": -19.11, 
			 "cosmo_cavitation_energy": 35.96, 
			 "cosmo_dispersion_energy": -26.18, 
			 "cosmo_repulsion_energy": 2.03, 
			 "cosmo_total_nonelectrostatic_energy": 11.81, 
			 "SMD_solvation_energy": 6.7 
		},
		"coords": [
			{
				"x": -3.3903639105,
				"y": -2.3648129792,
				"z": 2.7664004803,
				"element": "O" 
			},
			{
				"x": -2.3097403604,
				"y": -1.8134770273,
				"z": 3.3843829386,
				"element": "C" 
			},
			{
				"x": -1.6899522685,
				"y": -2.449868429,
				"z": 4.1989892272,
				"element": "O" 
			},
			{
				"x": -1.9801403843,
				"y": -0.385705568,
				"z": 2.9653936684,
				"element": "C" 
			},
			{
				"x": -0.7646227567,
				"y": 0.1682729709,
				"z": 3.7037604668,
				"element": "C" 
			},
			{
				"x": -0.3254136417,
				"y": 1.8871680986,
				"z": 3.2129210196,
				"element": "S" 
			},
			{
				"x": 0.244951952,
				"y": 1.639117777,
				"z": 1.5286279853,
				"element": "C" 
			},
			{
				"x": 1.4873598721,
				"y": 1.0450355166,
				"z": 1.279405115,
				"element": "C" 
			},
			{
				"x": 1.9553337941,
				"y": 0.8683252055,
				"z": -0.0238601909,
				"element": "C" 
			},
			{
				"x": 1.1806866956,
				"y": 1.3367119034,
				"z": -1.108719711,
				"element": "C" 
			},
			{
				"x": 1.5655288222,
				"y": 1.2373659393,
				"z": -2.4229136526,
				"element": "O" 
			},
			{
				"x": 2.9626623941,
				"y": 1.4279474373,
				"z": -2.6974062565,
				"element": "C" 
			},
			{
				"x": 3.7543593596,
				"y": 0.1279053249,
				"z": -2.5494711462,
				"element": "C" 
			},
			{
				"x": 3.3299898433,
				"y": -0.621643073,
				"z": -1.2850449548,
				"element": "C" 
			},
			{
				"x": 3.1821544615,
				"y": 0.2648476497,
				"z": -0.1655554108,
				"element": "O" 
			},
			{
				"x": -0.0615481233,
				"y": 1.923131868,
				"z": -0.8544312961,
				"element": "C" 
			},
			{
				"x": -0.5369766026,
				"y": 2.0668098599,
				"z": 0.4472737982,
				"element": "C" 
			},
			{
				"x": -3.7769918221,
				"y": -1.7340256883,
				"z": 2.1423364845,
				"element": "H" 
			},
			{
				"x": -1.8035349608,
				"y": -0.3693493768,
				"z": 1.8816972613,
				"element": "H" 
			},
			{
				"x": -2.8571217587,
				"y": 0.2501221054,
				"z": 3.1441610024,
				"element": "H" 
			},
			{
				"x": -0.9583550725,
				"y": 0.2189048027,
				"z": 4.7782998994,
				"element": "H" 
			},
			{
				"x": 0.0997353485,
				"y": -0.4841325034,
				"z": 3.5642850373,
				"element": "H" 
			},
			{
				"x": 2.1161208582,
				"y": 0.7003327703,
				"z": 2.0936269329,
				"element": "H" 
			},
			{
				"x": 3.012958086,
				"y": 1.8055256337,
				"z": -3.7222703128,
				"element": "H" 
			},
			{
				"x": 3.3610859749,
				"y": 2.1998528212,
				"z": -2.0295940473,
				"element": "H" 
			},
			{
				"x": 3.5944609307,
				"y": -0.5259029263,
				"z": -3.4148806221,
				"element": "H" 
			},
			{
				"x": 4.8225985722,
				"y": 0.372332522,
				"z": -2.5164940419,
				"element": "H" 
			},
			{
				"x": 2.3881304569,
				"y": -1.156600295,
				"z": -1.4519170829,
				"element": "H" 
			},
			{
				"x": 4.086983049,
				"y": -1.3520672774,
				"z": -0.9868816405,
				"element": "H" 
			},
			{
				"x": -0.6373026982,
				"y": 2.2732581916,
				"z": -1.705220688,
				"element": "H" 
			},
			{
				"x": -1.5006361104,
				"y": 2.5310167455,
				"z": 0.628199737,
				"element": "H" 
			}
		],
		 "valence_orbital": [ 
			{
				"type": "occ",
				"energy": -0.29989,
				"method": "rhf"
			},
			{
				"type": "occ",
				"energy": -0.27482,
				"method": "rhf"
			},
			{
				"type": "occ",
				"energy": -0.2496,
				"method": "rhf"
			},
			{
				"type": "occ",
				"energy": -0.23099,
				"method": "rhf"
			},
			{
				"type": "occ",
				"energy": -0.21848,
				"method": "rhf"
			},
			{
				"type": "unocc",
				"energy": -0.01707,
				"method": "rhf"
			},
			{
				"type": "unocc",
				"energy": -0.0054,
				"method": "rhf"
			},
			{
				"type": "unocc",
				"energy": 0.0097,
				"method": "rhf"
			},
			{
				"type": "unocc",
				"energy": 0.04829,
				"method": "rhf"
			},
			{
				"type": "unocc",
				"energy": 0.05417,
				"method": "rhf"
			}
		],
		"cosmo_sigma_profile": { 
			"-0.025": 0.0,
			"-0.024": 0.0,
			"-0.023": 0.0,
			"-0.022": 0.0,
			"-0.021": 0.0,
			"-0.02": 0.0,
			"-0.019": 0.721344545236,
			"-0.018": 1.03264134414,
			"-0.017": 1.01189471332,
			"-0.016": 1.26801625685,
			"-0.015": 1.30350254604,
			"-0.014": 1.1500127961,
			"-0.013": 0.931205064472,
			"-0.012": 0.750209496717,
			"-0.011": 1.63783665834,
			"-0.01": 1.22625971047,
			"-0.009": 0.993032390944,
			"-0.008": 2.06112302086,
			"-0.007": 3.86326708643,
			"-0.006": 14.4039578743,
			"-0.005": 25.2929329918,
			"-0.004": 31.502073096,
			"-0.003": 24.2343904166,
			"-0.002": 18.9362082092,
			"-0.001": 16.1814372725,
			"0.0": 12.4532923261,
			"0.001": 14.1957818338,
			"0.002": 15.858727301,
			"0.003": 18.3385048486,
			"0.004": 15.2989769255,
			"0.005": 10.2479496058,
			"0.006": 7.03893144816,
			"0.007": 7.40157063954,
			"0.008": 6.93565774359,
			"0.009": 7.34817602624,
			"0.01": 7.84465433739,
			"0.011": 7.51093745742,
			"0.012": 4.90721263755,
			"0.013": 1.70920794502,
			"0.014": 0.0675396408574,
			"0.015": 0.0,
			"0.016": 0.0,
			"0.017": 0.0,
			"0.018": 0.0,
			"0.019": 0.0,
			"0.02": 0.0,
			"0.021": 0.0,
			"0.022": 0.0,
			"0.023": 0.0,
			"0.024": 0.0,
			"0.025": 0.0
		}
	}
}
