{
	 "smiles": "FC(F)(F)CNC(=O)C1=CC(=CC=C1)S(Cl)(=O)=O", 
	 "Tm": 357.15, 
	 "num_atms": 25, 
	 "gaussian": { 
		 "optdone": 1, 
		 "sigma_profile": "yes", 
		 "theory": "DFT", 
		 "functional": "B3LYP", 
		 "basiset": "6-31G**", 
		 "properties": { 
			 "R2extent": 8967.2963, 
			 "electric_dipole_moment_norm": 7.07259922023, 
			 "electric_quadrupole_moment_norm": 18.8048737706, 
			 "total_energy": -1785.45400534, 
			 "HOMO_LUMO_gap": 0.18563, 
			 "cosmo_polarized_energy": -18.3, 
			 "cosmo_cavitation_energy": 35.53, 
			 "cosmo_dispersion_energy": -25.2, 
			 "cosmo_repulsion_energy": 1.86, 
			 "cosmo_total_nonelectrostatic_energy": 12.19, 
			 "SMD_solvation_energy": 5.87 
		},
		"coords": [
			{
				"x": -0.9967407827,
				"y": -3.0239191627,
				"z": -2.4479535655,
				"element": "F" 
			},
			{
				"x": 0.2391287166,
				"y": -3.473715081,
				"z": -2.7206713754,
				"element": "C" 
			},
			{
				"x": 0.7031593071,
				"y": -4.086146231,
				"z": -1.6009307673,
				"element": "F" 
			},
			{
				"x": 0.1496144824,
				"y": -4.4027615343,
				"z": -3.6900608002,
				"element": "F" 
			},
			{
				"x": 1.1789093102,
				"y": -2.3541276253,
				"z": -3.1386131468,
				"element": "C" 
			},
			{
				"x": 1.3578417308,
				"y": -1.3864450523,
				"z": -2.0797052392,
				"element": "N" 
			},
			{
				"x": 0.7498448955,
				"y": -0.1539025501,
				"z": -2.1412910563,
				"element": "C" 
			},
			{
				"x": 0.1284638525,
				"y": 0.226487393,
				"z": -3.1242539107,
				"element": "O" 
			},
			{
				"x": 0.9110684218,
				"y": 0.7253952725,
				"z": -0.9295992732,
				"element": "C" 
			},
			{
				"x": 0.0059997176,
				"y": 1.7856138791,
				"z": -0.8013988764,
				"element": "C" 
			},
			{
				"x": 0.1139512943,
				"y": 2.6259811858,
				"z": 0.3009468014,
				"element": "C" 
			},
			{
				"x": 1.0970989989,
				"y": 2.4628018098,
				"z": 1.27920869,
				"element": "C" 
			},
			{
				"x": 2.0057543269,
				"y": 1.4170015215,
				"z": 1.130732557,
				"element": "C" 
			},
			{
				"x": 1.9143599185,
				"y": 0.5566856459,
				"z": 0.034697368,
				"element": "C" 
			},
			{
				"x": -1.0678244086,
				"y": 3.959798696,
				"z": 0.4895339501,
				"element": "S" 
			},
			{
				"x": -0.0812521177,
				"y": 5.5328398522,
				"z": -0.5553509857,
				"element": "Cl" 
			},
			{
				"x": -1.1075657624,
				"y": 4.3627565573,
				"z": 1.8898505564,
				"element": "O" 
			},
			{
				"x": -2.2712236747,
				"y": 3.6518515638,
				"z": -0.2703992482,
				"element": "O" 
			},
			{
				"x": 0.7537403296,
				"y": -1.8352185227,
				"z": -3.9988716261,
				"element": "H" 
			},
			{
				"x": 2.1328951915,
				"y": -2.8085336531,
				"z": -3.4242851247,
				"element": "H" 
			},
			{
				"x": 1.6635366901,
				"y": -1.7391290351,
				"z": -1.1848376052,
				"element": "H" 
			},
			{
				"x": -0.75888,
				"y": 1.9280116478,
				"z": -1.5562412831,
				"element": "H" 
			},
			{
				"x": 1.1408542409,
				"y": 3.1354705481,
				"z": 2.1282214199,
				"element": "H" 
			},
			{
				"x": 2.788611093,
				"y": 1.2741279815,
				"z": 1.8684812455,
				"element": "H" 
			},
			{
				"x": 2.6543542278,
				"y": -0.2303251069,
				"z": -0.0751087043,
				"element": "H" 
			}
		],
		 "valence_orbital": [ 
			{
				"type": "occ",
				"energy": -0.31665,
				"method": "rhf"
			},
			{
				"type": "occ",
				"energy": -0.30206,
				"method": "rhf"
			},
			{
				"type": "occ",
				"energy": -0.29862,
				"method": "rhf"
			},
			{
				"type": "occ",
				"energy": -0.29171,
				"method": "rhf"
			},
			{
				"type": "occ",
				"energy": -0.28132,
				"method": "rhf"
			},
			{
				"type": "unocc",
				"energy": -0.09569,
				"method": "rhf"
			},
			{
				"type": "unocc",
				"energy": -0.07241,
				"method": "rhf"
			},
			{
				"type": "unocc",
				"energy": -0.05215,
				"method": "rhf"
			},
			{
				"type": "unocc",
				"energy": 0.01742,
				"method": "rhf"
			},
			{
				"type": "unocc",
				"energy": 0.04575,
				"method": "rhf"
			}
		],
		"cosmo_sigma_profile": { 
			"-0.025": 0.0,
			"-0.024": 0.0,
			"-0.023": 0.0,
			"-0.022": 0.0,
			"-0.021": 0.0,
			"-0.02": 0.0,
			"-0.019": 0.0,
			"-0.018": 0.0,
			"-0.017": 0.0,
			"-0.016": 0.185157080235,
			"-0.015": 0.722278354881,
			"-0.014": 1.61791525549,
			"-0.013": 1.06898307606,
			"-0.012": 1.10006542775,
			"-0.011": 1.32949374612,
			"-0.01": 2.18309036574,
			"-0.009": 4.54119885177,
			"-0.008": 11.8280332977,
			"-0.007": 10.4230070411,
			"-0.006": 12.2528895316,
			"-0.005": 10.709480746,
			"-0.004": 11.7754966356,
			"-0.003": 14.7155385471,
			"-0.002": 15.4782913421,
			"-0.001": 21.0312500109,
			"0.0": 26.0179104556,
			"0.001": 20.6203608667,
			"0.002": 31.1873596143,
			"0.003": 37.8670296887,
			"0.004": 9.2171001407,
			"0.005": 4.49314285181,
			"0.006": 5.41553494585,
			"0.007": 8.05947737173,
			"0.008": 10.6829737999,
			"0.009": 4.35534503777,
			"0.01": 1.46613051371,
			"0.011": 2.48394266533,
			"0.012": 3.74166179407,
			"0.013": 1.37286373964,
			"0.014": 0.0,
			"0.015": 0.0,
			"0.016": 0.0,
			"0.017": 0.0,
			"0.018": 0.0,
			"0.019": 0.0,
			"0.02": 0.0,
			"0.021": 0.0,
			"0.022": 0.0,
			"0.023": 0.0,
			"0.024": 0.0,
			"0.025": 0.0
		}
	}
}
