{
	 "smiles": "CCCC1=CC=C(C=C1)C#CC1=CC=C(OC)C=C1", 
	 "Tm": 334.15, 
	 "num_atms": 37, 
	 "gaussian": { 
		 "optdone": 1, 
		 "sigma_profile": "yes", 
		 "theory": "DFT", 
		 "functional": "B3LYP", 
		 "basiset": "6-31G**", 
		 "properties": { 
			 "R2extent": 11960.5445, 
			 "electric_dipole_moment_norm": 1.37329334084, 
			 "electric_quadrupole_moment_norm": 23.0057158493, 
			 "total_energy": -771.941298148, 
			 "HOMO_LUMO_gap": 0.15653, 
			 "cosmo_polarized_energy": -8.68, 
			 "cosmo_cavitation_energy": 41.88, 
			 "cosmo_dispersion_energy": -29.57, 
			 "cosmo_repulsion_energy": 2.31, 
			 "cosmo_total_nonelectrostatic_energy": 14.62, 
			 "SMD_solvation_energy": 7.64 
		},
		"coords": [
			{
				"x": -5.4797903146,
				"y": -0.1984706865,
				"z": -2.3314473664,
				"element": "C" 
			},
			{
				"x": -5.0417433471,
				"y": 1.1840370156,
				"z": -2.8229488134,
				"element": "C" 
			},
			{
				"x": -4.5949772941,
				"y": 2.1397317828,
				"z": -1.6933100838,
				"element": "C" 
			},
			{
				"x": -3.343150277,
				"y": 1.6948891225,
				"z": -0.967425194,
				"element": "C" 
			},
			{
				"x": -2.0799236261,
				"y": 1.8504915118,
				"z": -1.5600708831,
				"element": "C" 
			},
			{
				"x": -0.9212582401,
				"y": 1.4302934254,
				"z": -0.9175742968,
				"element": "C" 
			},
			{
				"x": -0.9854628208,
				"y": 0.8324755406,
				"z": 0.3582856218,
				"element": "C" 
			},
			{
				"x": -2.2504052178,
				"y": 0.6770417308,
				"z": 0.9581009234,
				"element": "C" 
			},
			{
				"x": -3.4019135031,
				"y": 1.1029192932,
				"z": 0.3020147148,
				"element": "C" 
			},
			{
				"x": 0.1979744232,
				"y": 0.4026042242,
				"z": 1.023559864,
				"element": "C" 
			},
			{
				"x": 1.2094719627,
				"y": 0.0347703468,
				"z": 1.5917540296,
				"element": "C" 
			},
			{
				"x": 2.3941252768,
				"y": -0.3941492856,
				"z": 2.2540176447,
				"element": "C" 
			},
			{
				"x": 2.3385082781,
				"y": -0.9885916371,
				"z": 3.5271971459,
				"element": "C" 
			},
			{
				"x": 3.4943483638,
				"y": -1.4108225254,
				"z": 4.1817327023,
				"element": "C" 
			},
			{
				"x": 4.7419437455,
				"y": -1.2437206389,
				"z": 3.5664681417,
				"element": "C" 
			},
			{
				"x": 5.9330714603,
				"y": -1.6184126358,
				"z": 4.1128437967,
				"element": "O" 
			},
			{
				"x": 5.9250850799,
				"y": -2.2228251899,
				"z": 5.396862206,
				"element": "C" 
			},
			{
				"x": 4.8148823858,
				"y": -0.6517689834,
				"z": 2.2948507792,
				"element": "C" 
			},
			{
				"x": 3.6620064366,
				"y": -0.2346651935,
				"z": 1.6504980724,
				"element": "C" 
			},
			{
				"x": -4.6685543871,
				"y": -0.7105229279,
				"z": -1.8045861281,
				"element": "H" 
			},
			{
				"x": -6.3281183923,
				"y": -0.1217196951,
				"z": -1.6410559038,
				"element": "H" 
			},
			{
				"x": -5.7894795686,
				"y": -0.8335318637,
				"z": -3.1678027943,
				"element": "H" 
			},
			{
				"x": -5.8681465167,
				"y": 1.6579487048,
				"z": -3.367860441,
				"element": "H" 
			},
			{
				"x": -4.2206740708,
				"y": 1.0752460822,
				"z": -3.5431605089,
				"element": "H" 
			},
			{
				"x": -5.4154862188,
				"y": 2.2493082347,
				"z": -0.9731761186,
				"element": "H" 
			},
			{
				"x": -4.4259218352,
				"y": 3.1340410089,
				"z": -2.1257685382,
				"element": "H" 
			},
			{
				"x": -2.0045890116,
				"y": 2.3150133437,
				"z": -2.5406664468,
				"element": "H" 
			},
			{
				"x": 0.0466451861,
				"y": 1.5633327824,
				"z": -1.3904526916,
				"element": "H" 
			},
			{
				"x": -2.3173306749,
				"y": 0.2228100451,
				"z": 1.9416193687,
				"element": "H" 
			},
			{
				"x": -4.3670864913,
				"y": 0.9774606587,
				"z": 0.7865191267,
				"element": "H" 
			},
			{
				"x": 1.3738265609,
				"y": -1.1196078455,
				"z": 4.0069079139,
				"element": "H" 
			},
			{
				"x": 3.4115973521,
				"y": -1.8646559273,
				"z": 5.1620969775,
				"element": "H" 
			},
			{
				"x": 5.3538625933,
				"y": -3.160033985,
				"z": 5.399694581,
				"element": "H" 
			},
			{
				"x": 5.5125592924,
				"y": -1.5492375446,
				"z": 6.1589477819,
				"element": "H" 
			},
			{
				"x": 6.9678557548,
				"y": -2.4377834204,
				"z": 5.6349711815,
				"element": "H" 
			},
			{
				"x": 5.7908036346,
				"y": -0.5316597435,
				"z": 1.836053938,
				"element": "H" 
			},
			{
				"x": 3.7258440212,
				"y": 0.2219648749,
				"z": 0.6681096972,
				"element": "H" 
			}
		],
		 "valence_orbital": [ 
			{
				"type": "occ",
				"energy": -0.25785,
				"method": "rhf"
			},
			{
				"type": "occ",
				"energy": -0.25482,
				"method": "rhf"
			},
			{
				"type": "occ",
				"energy": -0.249,
				"method": "rhf"
			},
			{
				"type": "occ",
				"energy": -0.2433,
				"method": "rhf"
			},
			{
				"type": "occ",
				"energy": -0.19334,
				"method": "rhf"
			},
			{
				"type": "unocc",
				"energy": -0.03681,
				"method": "rhf"
			},
			{
				"type": "unocc",
				"energy": -0.00268,
				"method": "rhf"
			},
			{
				"type": "unocc",
				"energy": 0.00093,
				"method": "rhf"
			},
			{
				"type": "unocc",
				"energy": 0.01919,
				"method": "rhf"
			},
			{
				"type": "unocc",
				"energy": 0.06084,
				"method": "rhf"
			}
		],
		"cosmo_sigma_profile": { 
			"-0.025": 0.0,
			"-0.024": 0.0,
			"-0.023": 0.0,
			"-0.022": 0.0,
			"-0.021": 0.0,
			"-0.02": 0.0,
			"-0.019": 0.0,
			"-0.018": 0.0,
			"-0.017": 0.0,
			"-0.016": 0.0,
			"-0.015": 0.0,
			"-0.014": 0.0,
			"-0.013": 0.0,
			"-0.012": 0.0,
			"-0.011": 0.0,
			"-0.01": 0.0,
			"-0.009": 0.0,
			"-0.008": 0.0,
			"-0.007": 1.63822013784,
			"-0.006": 14.8987614978,
			"-0.005": 24.0613408415,
			"-0.004": 25.8966298505,
			"-0.003": 30.0427705663,
			"-0.002": 29.3383649467,
			"-0.001": 30.5566282917,
			"0.0": 27.9490308955,
			"0.001": 30.4052793691,
			"0.002": 22.1822254585,
			"0.003": 24.7007208645,
			"0.004": 33.8204847356,
			"0.005": 22.7490380837,
			"0.006": 7.70462692929,
			"0.007": 2.80380697842,
			"0.008": 1.75906078801,
			"0.009": 1.10192515832,
			"0.01": 1.42963028624,
			"0.011": 0.0105170874782,
			"0.012": 0.0,
			"0.013": 0.0,
			"0.014": 0.0,
			"0.015": 0.0,
			"0.016": 0.0,
			"0.017": 0.0,
			"0.018": 0.0,
			"0.019": 0.0,
			"0.02": 0.0,
			"0.021": 0.0,
			"0.022": 0.0,
			"0.023": 0.0,
			"0.024": 0.0,
			"0.025": 0.0
		}
	}
}
