{
	 "smiles": "CC1=CC(Cl)=C(CC(O)=O)C=C1", 
	 "Tm": 403.15, 
	 "num_atms": 21, 
	 "gaussian": { 
		 "optdone": 1, 
		 "sigma_profile": "yes", 
		 "theory": "DFT", 
		 "functional": "B3LYP", 
		 "basiset": "6-31G**", 
		 "properties": { 
			 "R2extent": 2794.7681, 
			 "electric_dipole_moment_norm": 2.01419900208, 
			 "electric_quadrupole_moment_norm": 12.798644972, 
			 "total_energy": -959.047399997, 
			 "HOMO_LUMO_gap": 0.22886, 
			 "cosmo_polarized_energy": -11.46, 
			 "cosmo_cavitation_energy": 27.14, 
			 "cosmo_dispersion_energy": -19.43, 
			 "cosmo_repulsion_energy": 1.57, 
			 "cosmo_total_nonelectrostatic_energy": 9.28, 
			 "SMD_solvation_energy": 5.55 
		},
		"coords": [
			{
				"x": -0.3708880194,
				"y": 1.3371185952,
				"z": 3.7777796343,
				"element": "C" 
			},
			{
				"x": 0.0035260333,
				"y": 0.8806832109,
				"z": 2.3874950451,
				"element": "C" 
			},
			{
				"x": 0.4752933075,
				"y": -0.4181862763,
				"z": 2.1666945923,
				"element": "C" 
			},
			{
				"x": 0.8462331317,
				"y": -0.8267064183,
				"z": 0.8877453893,
				"element": "C" 
			},
			{
				"x": 1.4305960264,
				"y": -2.4787437213,
				"z": 0.6864479362,
				"element": "Cl" 
			},
			{
				"x": 0.7657463326,
				"y": 0.0265884426,
				"z": -0.220676673,
				"element": "C" 
			},
			{
				"x": 1.1644451667,
				"y": -0.4040179424,
				"z": -1.6079207872,
				"element": "C" 
			},
			{
				"x": 0.1115096429,
				"y": -1.2454582725,
				"z": -2.3164095781,
				"element": "C" 
			},
			{
				"x": 0.6069456005,
				"y": -1.748344466,
				"z": -3.474286824,
				"element": "O" 
			},
			{
				"x": -1.0222330544,
				"y": -1.4418166838,
				"z": -1.9476430669,
				"element": "O" 
			},
			{
				"x": 0.2910889568,
				"y": 1.3219494618,
				"z": 0.0176862429,
				"element": "C" 
			},
			{
				"x": -0.0852826262,
				"y": 1.7449254337,
				"z": 1.2899360649,
				"element": "C" 
			},
			{
				"x": 0.4951940921,
				"y": 1.7609871782,
				"z": 4.3011776117,
				"element": "H" 
			},
			{
				"x": -0.7442530847,
				"y": 0.5073990718,
				"z": 4.3850137677,
				"element": "H" 
			},
			{
				"x": -1.1439304008,
				"y": 2.1104806211,
				"z": 3.7474523459,
				"element": "H" 
			},
			{
				"x": 0.553918278,
				"y": -1.1198801187,
				"z": 2.9907828238,
				"element": "H" 
			},
			{
				"x": 2.0979263583,
				"y": -0.9751028656,
				"z": -1.604047671,
				"element": "H" 
			},
			{
				"x": 1.346145728,
				"y": 0.4738031965,
				"z": -2.23895289,
				"element": "H" 
			},
			{
				"x": -0.1173355794,
				"y": -2.2552410475,
				"z": -3.8781236644,
				"element": "H" 
			},
			{
				"x": 0.2111275338,
				"y": 2.0096510809,
				"z": -0.8202248898,
				"element": "H" 
			},
			{
				"x": -0.4530734239,
				"y": 2.7576115198,
				"z": 1.4313745902,
				"element": "H" 
			}
		],
		 "valence_orbital": [ 
			{
				"type": "occ",
				"energy": -0.31763,
				"method": "rhf"
			},
			{
				"type": "occ",
				"energy": -0.31058,
				"method": "rhf"
			},
			{
				"type": "occ",
				"energy": -0.27591,
				"method": "rhf"
			},
			{
				"type": "occ",
				"energy": -0.25166,
				"method": "rhf"
			},
			{
				"type": "occ",
				"energy": -0.2407,
				"method": "rhf"
			},
			{
				"type": "unocc",
				"energy": -0.01184,
				"method": "rhf"
			},
			{
				"type": "unocc",
				"energy": -0.01152,
				"method": "rhf"
			},
			{
				"type": "unocc",
				"energy": 0.01212,
				"method": "rhf"
			},
			{
				"type": "unocc",
				"energy": 0.03264,
				"method": "rhf"
			},
			{
				"type": "unocc",
				"energy": 0.08052,
				"method": "rhf"
			}
		],
		"cosmo_sigma_profile": { 
			"-0.025": 0.0,
			"-0.024": 0.0,
			"-0.023": 0.0,
			"-0.022": 0.0,
			"-0.021": 0.0,
			"-0.02": 0.0,
			"-0.019": 0.0,
			"-0.018": 0.621187418314,
			"-0.017": 1.00475433934,
			"-0.016": 0.83124520601,
			"-0.015": 1.11621052907,
			"-0.014": 0.419946730974,
			"-0.013": 0.691202417357,
			"-0.012": 0.589637166864,
			"-0.011": 0.644683517721,
			"-0.01": 0.928598326836,
			"-0.009": 0.578969208526,
			"-0.008": 2.72582733692,
			"-0.007": 5.31472416472,
			"-0.006": 9.83923609492,
			"-0.005": 13.7519638087,
			"-0.004": 16.1472484403,
			"-0.003": 14.5073994089,
			"-0.002": 16.2083053892,
			"-0.001": 17.1404691329,
			"0.0": 17.3255900411,
			"0.001": 13.6087104814,
			"0.002": 14.7868393819,
			"0.003": 14.6182034695,
			"0.004": 17.6056019421,
			"0.005": 11.6327792413,
			"0.006": 3.23775885874,
			"0.007": 2.90929607495,
			"0.008": 3.67283899564,
			"0.009": 3.48029805973,
			"0.01": 3.03283307576,
			"0.011": 4.17571701,
			"0.012": 3.87492058702,
			"0.013": 0.348063819219,
			"0.014": 0.0,
			"0.015": 0.0,
			"0.016": 0.0,
			"0.017": 0.0,
			"0.018": 0.0,
			"0.019": 0.0,
			"0.02": 0.0,
			"0.021": 0.0,
			"0.022": 0.0,
			"0.023": 0.0,
			"0.024": 0.0,
			"0.025": 0.0
		}
	}
}
