{
	 "smiles": "O=C(CC(=O)C1=CC=CC=C1)NC1=CC=CC=C1", 
	 "Tm": 381.15, 
	 "num_atms": 31, 
	 "gaussian": { 
		 "optdone": 1, 
		 "sigma_profile": "yes", 
		 "theory": "DFT", 
		 "functional": "B3LYP", 
		 "basiset": "6-31G**", 
		 "properties": { 
			 "R2extent": 6664.8968, 
			 "electric_dipole_moment_norm": 4.67664223455, 
			 "electric_quadrupole_moment_norm": 17.6529565065, 
			 "total_energy": -784.646311069, 
			 "HOMO_LUMO_gap": 0.16714, 
			 "cosmo_polarized_energy": -19.58, 
			 "cosmo_cavitation_energy": 35.84, 
			 "cosmo_dispersion_energy": -25.43, 
			 "cosmo_repulsion_energy": 1.96, 
			 "cosmo_total_nonelectrostatic_energy": 12.37, 
			 "SMD_solvation_energy": 6.88 
		},
		"coords": [
			{
				"x": -0.8568427003,
				"y": -0.48437582,
				"z": -2.4884025719,
				"element": "O" 
			},
			{
				"x": -0.369177731,
				"y": 0.4707363858,
				"z": -1.9041053042,
				"element": "C" 
			},
			{
				"x": 1.1298404239,
				"y": 0.5425439549,
				"z": -1.5943246621,
				"element": "C" 
			},
			{
				"x": 1.7573351338,
				"y": -0.8435615642,
				"z": -1.4042018872,
				"element": "C" 
			},
			{
				"x": 2.5812081713,
				"y": -1.2424076126,
				"z": -2.209550449,
				"element": "O" 
			},
			{
				"x": 1.3808624071,
				"y": -1.6590782024,
				"z": -0.2084313393,
				"element": "C" 
			},
			{
				"x": 1.9830491662,
				"y": -2.9188498016,
				"z": -0.0588700957,
				"element": "C" 
			},
			{
				"x": 1.6832125826,
				"y": -3.717720979,
				"z": 1.0395866444,
				"element": "C" 
			},
			{
				"x": 0.776884831,
				"y": -3.2675472737,
				"z": 2.0048335905,
				"element": "C" 
			},
			{
				"x": 0.1719099884,
				"y": -2.0171874395,
				"z": 1.8654098235,
				"element": "C" 
			},
			{
				"x": 0.4718547909,
				"y": -1.2161055141,
				"z": 0.7639953336,
				"element": "C" 
			},
			{
				"x": -1.0766667917,
				"y": 1.5773536786,
				"z": -1.4881285244,
				"element": "N" 
			},
			{
				"x": -2.4451709463,
				"y": 1.880242675,
				"z": -1.6775425674,
				"element": "C" 
			},
			{
				"x": -2.8984270262,
				"y": 3.119995917,
				"z": -1.1995243106,
				"element": "C" 
			},
			{
				"x": -4.2333614594,
				"y": 3.4866254739,
				"z": -1.3455823255,
				"element": "C" 
			},
			{
				"x": -5.1351417398,
				"y": 2.6228689047,
				"z": -1.9700860624,
				"element": "C" 
			},
			{
				"x": -4.6811559491,
				"y": 1.3914500905,
				"z": -2.4439231626,
				"element": "C" 
			},
			{
				"x": -3.3468171412,
				"y": 1.0075161245,
				"z": -2.3054598686,
				"element": "C" 
			},
			{
				"x": 1.3333389634,
				"y": 1.1714530252,
				"z": -0.7189920195,
				"element": "H" 
			},
			{
				"x": 1.6368679019,
				"y": 0.9883844772,
				"z": -2.4555152315,
				"element": "H" 
			},
			{
				"x": 2.6822348067,
				"y": -3.2450257137,
				"z": -0.8213284223,
				"element": "H" 
			},
			{
				"x": 2.152421146,
				"y": -4.6913752467,
				"z": 1.1464602358,
				"element": "H" 
			},
			{
				"x": 0.5417442066,
				"y": -3.8910787984,
				"z": 2.8627541725,
				"element": "H" 
			},
			{
				"x": -0.5350827542,
				"y": -1.6672464756,
				"z": 2.6117010715,
				"element": "H" 
			},
			{
				"x": -0.0134326534,
				"y": -0.2502312844,
				"z": 0.6668354984,
				"element": "H" 
			},
			{
				"x": -0.5404973576,
				"y": 2.3052957476,
				"z": -1.0378871588,
				"element": "H" 
			},
			{
				"x": -2.2006357227,
				"y": 3.7982977995,
				"z": -0.7124828009,
				"element": "H" 
			},
			{
				"x": -4.5662867035,
				"y": 4.4499490103,
				"z": -0.9702340091,
				"element": "H" 
			},
			{
				"x": -6.1766013993,
				"y": 2.9068530062,
				"z": -2.0854348453,
				"element": "H" 
			},
			{
				"x": -5.3727505553,
				"y": 0.7106383458,
				"z": -2.9320809486,
				"element": "H" 
			},
			{
				"x": -2.9954158886,
				"y": 0.0542871091,
				"z": -2.6733878032,
				"element": "H" 
			}
		],
		 "valence_orbital": [ 
			{
				"type": "occ",
				"energy": -0.26176,
				"method": "rhf"
			},
			{
				"type": "occ",
				"energy": -0.25828,
				"method": "rhf"
			},
			{
				"type": "occ",
				"energy": -0.25439,
				"method": "rhf"
			},
			{
				"type": "occ",
				"energy": -0.25211,
				"method": "rhf"
			},
			{
				"type": "occ",
				"energy": -0.22575,
				"method": "rhf"
			},
			{
				"type": "unocc",
				"energy": -0.05861,
				"method": "rhf"
			},
			{
				"type": "unocc",
				"energy": -0.01884,
				"method": "rhf"
			},
			{
				"type": "unocc",
				"energy": -0.00915,
				"method": "rhf"
			},
			{
				"type": "unocc",
				"energy": -0.00473,
				"method": "rhf"
			},
			{
				"type": "unocc",
				"energy": 0.03188,
				"method": "rhf"
			}
		],
		"cosmo_sigma_profile": { 
			"-0.025": 0.0,
			"-0.024": 0.0,
			"-0.023": 0.0,
			"-0.022": 0.0,
			"-0.021": 0.0,
			"-0.02": 0.0,
			"-0.019": 0.0,
			"-0.018": 0.0,
			"-0.017": 0.0,
			"-0.016": 0.614713195044,
			"-0.015": 1.48244883302,
			"-0.014": 1.75246541054,
			"-0.013": 1.59192051881,
			"-0.012": 1.38126820066,
			"-0.011": 2.02475740666,
			"-0.01": 1.71473755417,
			"-0.009": 2.40762836911,
			"-0.008": 3.69527628419,
			"-0.007": 7.4940715933,
			"-0.006": 18.0005607818,
			"-0.005": 22.532718717,
			"-0.004": 22.1785607564,
			"-0.003": 19.0665645038,
			"-0.002": 15.01124143,
			"-0.001": 13.88156695,
			"0.0": 14.4924072627,
			"0.001": 16.655433997,
			"0.002": 20.0307525711,
			"0.003": 22.5969980023,
			"0.004": 24.582049184,
			"0.005": 14.6086043016,
			"0.006": 10.3244623286,
			"0.007": 3.61431750493,
			"0.008": 3.89598581045,
			"0.009": 3.57144452775,
			"0.01": 4.14228808746,
			"0.011": 6.39589831584,
			"0.012": 5.93468304537,
			"0.013": 1.44032976937,
			"0.014": 0.0,
			"0.015": 0.0,
			"0.016": 0.0,
			"0.017": 0.0,
			"0.018": 0.0,
			"0.019": 0.0,
			"0.02": 0.0,
			"0.021": 0.0,
			"0.022": 0.0,
			"0.023": 0.0,
			"0.024": 0.0,
			"0.025": 0.0
		}
	}
}
