{
	 "smiles": "FC(F)(F)C1=C(C=CC(S)=C1)C#N", 
	 "Tm": 345.15, 
	 "num_atms": 17, 
	 "gaussian": { 
		 "optdone": 1, 
		 "sigma_profile": "yes", 
		 "theory": "DFT", 
		 "functional": "B3LYP", 
		 "basiset": "6-31G**", 
		 "properties": { 
			 "R2extent": 4722.2737, 
			 "electric_dipole_moment_norm": 5.71589828286, 
			 "electric_quadrupole_moment_norm": 33.6609161337, 
			 "total_energy": -1059.70295524, 
			 "HOMO_LUMO_gap": 0.17882, 
			 "cosmo_polarized_energy": -12.06, 
			 "cosmo_cavitation_energy": 25.78, 
			 "cosmo_dispersion_energy": -18.31, 
			 "cosmo_repulsion_energy": 1.34, 
			 "cosmo_total_nonelectrostatic_energy": 8.82, 
			 "SMD_solvation_energy": 6.19 
		},
		"coords": [
			{
				"x": -0.3966260498,
				"y": 1.8727385194,
				"z": -1.0186015435,
				"element": "F" 
			},
			{
				"x": -0.0777434229,
				"y": 2.700859462,
				"z": -0.0018752649,
				"element": "C" 
			},
			{
				"x": 0.8247783627,
				"y": 3.586648672,
				"z": -0.4675154791,
				"element": "F" 
			},
			{
				"x": -1.1891396572,
				"y": 3.3894396843,
				"z": 0.3247269031,
				"element": "F" 
			},
			{
				"x": 0.4647606474,
				"y": 1.9406675287,
				"z": 1.1883747636,
				"element": "C" 
			},
			{
				"x": 0.8578283782,
				"y": 2.6320445546,
				"z": 2.3545332303,
				"element": "C" 
			},
			{
				"x": 1.3565091499,
				"y": 1.8974949612,
				"z": 3.4409719565,
				"element": "C" 
			},
			{
				"x": 1.4643289694,
				"y": 0.5128313239,
				"z": 3.3775744633,
				"element": "C" 
			},
			{
				"x": 1.0735418401,
				"y": -0.1706622166,
				"z": 2.2193423719,
				"element": "C" 
			},
			{
				"x": 1.1753870173,
				"y": -1.9363426796,
				"z": 2.048468087,
				"element": "S" 
			},
			{
				"x": 0.5737996747,
				"y": 0.5576546864,
				"z": 1.1281122612,
				"element": "C" 
			},
			{
				"x": 0.76645614,
				"y": 4.0571816964,
				"z": 2.4701207021,
				"element": "C" 
			},
			{
				"x": 0.7133803527,
				"y": 5.2097952489,
				"z": 2.6147504462,
				"element": "N" 
			},
			{
				"x": 1.6599673737,
				"y": 2.424286533,
				"z": 4.3391819961,
				"element": "H" 
			},
			{
				"x": 1.8534639556,
				"y": -0.0298198804,
				"z": 4.2332518255,
				"element": "H" 
			},
			{
				"x": 1.6798271381,
				"y": -2.1863303978,
				"z": 3.2716436984,
				"element": "H" 
			},
			{
				"x": 0.2668801301,
				"y": 0.0450123037,
				"z": 0.224039582,
				"element": "H" 
			}
		],
		 "valence_orbital": [ 
			{
				"type": "occ",
				"energy": -0.36404,
				"method": "rhf"
			},
			{
				"type": "occ",
				"energy": -0.33773,
				"method": "rhf"
			},
			{
				"type": "occ",
				"energy": -0.31718,
				"method": "rhf"
			},
			{
				"type": "occ",
				"energy": -0.29931,
				"method": "rhf"
			},
			{
				"type": "occ",
				"energy": -0.25105,
				"method": "rhf"
			},
			{
				"type": "unocc",
				"energy": -0.07223,
				"method": "rhf"
			},
			{
				"type": "unocc",
				"energy": -0.04938,
				"method": "rhf"
			},
			{
				"type": "unocc",
				"energy": -0.01267,
				"method": "rhf"
			},
			{
				"type": "unocc",
				"energy": 0.02637,
				"method": "rhf"
			},
			{
				"type": "unocc",
				"energy": 0.04448,
				"method": "rhf"
			}
		],
		"cosmo_sigma_profile": { 
			"-0.025": 0.0,
			"-0.024": 0.0,
			"-0.023": 0.0,
			"-0.022": 0.0,
			"-0.021": 0.0,
			"-0.02": 0.0,
			"-0.019": 0.0,
			"-0.018": 0.0,
			"-0.017": 0.0,
			"-0.016": 0.0,
			"-0.015": 0.0,
			"-0.014": 0.0,
			"-0.013": 0.0148595755915,
			"-0.012": 2.37711153441,
			"-0.011": 3.22816110707,
			"-0.01": 1.70342755698,
			"-0.009": 5.2974982818,
			"-0.008": 7.50918171005,
			"-0.007": 6.68933242611,
			"-0.006": 5.82625076634,
			"-0.005": 5.39373654733,
			"-0.004": 8.50823705544,
			"-0.003": 9.85860797178,
			"-0.002": 12.306299444,
			"-0.001": 18.0307125598,
			"0.0": 19.8179574489,
			"0.001": 20.323616682,
			"0.002": 30.8388744531,
			"0.003": 16.4526503792,
			"0.004": 6.66696176024,
			"0.005": 5.64403534121,
			"0.006": 5.38695240674,
			"0.007": 4.87987741355,
			"0.008": 3.24108552323,
			"0.009": 3.10621223858,
			"0.01": 2.86926678208,
			"0.011": 2.55898242993,
			"0.012": 2.30476880389,
			"0.013": 0.592810927667,
			"0.014": 0.0,
			"0.015": 0.0,
			"0.016": 0.0,
			"0.017": 0.0,
			"0.018": 0.0,
			"0.019": 0.0,
			"0.02": 0.0,
			"0.021": 0.0,
			"0.022": 0.0,
			"0.023": 0.0,
			"0.024": 0.0,
			"0.025": 0.0
		}
	}
}
