{
	 "smiles": "CC(C)(C)OC(=O)N1CC(C1)OS(C)(=O)=O", 
	 "Tm": 339.15, 
	 "num_atms": 33, 
	 "gaussian": { 
		 "optdone": 1, 
		 "sigma_profile": "yes", 
		 "theory": "DFT", 
		 "functional": "B3LYP", 
		 "basiset": "6-31G**", 
		 "properties": { 
			 "R2extent": 6888.7918, 
			 "electric_dipole_moment_norm": 2.14602024688, 
			 "electric_quadrupole_moment_norm": 23.2655663252, 
			 "total_energy": -1182.19782078, 
			 "HOMO_LUMO_gap": 0.27899, 
			 "cosmo_polarized_energy": -16.71, 
			 "cosmo_cavitation_energy": 37.21, 
			 "cosmo_dispersion_energy": -26.4, 
			 "cosmo_repulsion_energy": 2.07, 
			 "cosmo_total_nonelectrostatic_energy": 12.87, 
			 "SMD_solvation_energy": 5.42 
		},
		"coords": [
			{
				"x": -1.796277065,
				"y": 1.6372797837,
				"z": -1.9519967471,
				"element": "C" 
			},
			{
				"x": -0.2737364541,
				"y": 1.8078462462,
				"z": -1.9866156082,
				"element": "C" 
			},
			{
				"x": 0.1359959204,
				"y": 3.1646296972,
				"z": -1.4086550592,
				"element": "C" 
			},
			{
				"x": 0.2998404518,
				"y": 1.6180827884,
				"z": -3.3947191349,
				"element": "C" 
			},
			{
				"x": 0.3591230198,
				"y": 0.8588693394,
				"z": -1.0554344448,
				"element": "O" 
			},
			{
				"x": 0.2377256156,
				"y": -0.4756181408,
				"z": -1.2353540509,
				"element": "C" 
			},
			{
				"x": -0.3883753402,
				"y": -1.0496810321,
				"z": -2.1124393752,
				"element": "O" 
			},
			{
				"x": 0.9583999613,
				"y": -1.1382963056,
				"z": -0.2771669644,
				"element": "N" 
			},
			{
				"x": 0.7418125242,
				"y": -2.5391447087,
				"z": 0.1014729027,
				"element": "C" 
			},
			{
				"x": 1.3390814628,
				"y": -2.2034816989,
				"z": 1.4869809325,
				"element": "C" 
			},
			{
				"x": 1.3315973654,
				"y": -0.7055373651,
				"z": 1.0807142441,
				"element": "C" 
			},
			{
				"x": 0.4349335622,
				"y": -2.5772051134,
				"z": 2.5431955137,
				"element": "O" 
			},
			{
				"x": 0.9970378075,
				"y": -2.3252827193,
				"z": 4.075619805,
				"element": "S" 
			},
			{
				"x": -0.3130187726,
				"y": -3.2170850912,
				"z": 4.9123400306,
				"element": "C" 
			},
			{
				"x": 2.2688550744,
				"y": -3.0287594536,
				"z": 4.2309202836,
				"element": "O" 
			},
			{
				"x": 0.9081954189,
				"y": -0.9010622632,
				"z": 4.3907347836,
				"element": "O" 
			},
			{
				"x": -2.0884954371,
				"y": 0.6616630181,
				"z": -2.3412174221,
				"element": "H" 
			},
			{
				"x": -2.2673700923,
				"y": 2.4167825261,
				"z": -2.5596152854,
				"element": "H" 
			},
			{
				"x": -2.1663002592,
				"y": 1.7370276335,
				"z": -0.9265187812,
				"element": "H" 
			},
			{
				"x": -0.2785884272,
				"y": 3.9731637686,
				"z": -2.0180517409,
				"element": "H" 
			},
			{
				"x": 1.2250947221,
				"y": 3.2649359203,
				"z": -1.3934448987,
				"element": "H" 
			},
			{
				"x": -0.2345323501,
				"y": 3.2766630261,
				"z": -0.3855258038,
				"element": "H" 
			},
			{
				"x": 0.0299117708,
				"y": 0.6415444512,
				"z": -3.7976660881,
				"element": "H" 
			},
			{
				"x": 1.3907468742,
				"y": 1.7056463194,
				"z": -3.3753110931,
				"element": "H" 
			},
			{
				"x": -0.0916888538,
				"y": 2.3956755975,
				"z": -4.0586450795,
				"element": "H" 
			},
			{
				"x": -0.3155804441,
				"y": -2.8231448101,
				"z": 0.1461340379,
				"element": "H" 
			},
			{
				"x": 1.2899129045,
				"y": -3.2686780847,
				"z": -0.5015329049,
				"element": "H" 
			},
			{
				"x": 2.3254849843,
				"y": -2.6262638446,
				"z": 1.6863645076,
				"element": "H" 
			},
			{
				"x": 2.2881103314,
				"y": -0.1796788879,
				"z": 1.1457958659,
				"element": "H" 
			},
			{
				"x": 0.5589627629,
				"y": -0.1244001393,
				"z": 1.5930036654,
				"element": "H" 
			},
			{
				"x": -0.1157789213,
				"y": -3.1245294698,
				"z": 5.9814470097,
				"element": "H" 
			},
			{
				"x": -1.2665827828,
				"y": -2.7553371222,
				"z": 4.6565868483,
				"element": "H" 
			},
			{
				"x": -0.279797335,
				"y": -4.2609238651,
				"z": 4.6016000517,
				"element": "H" 
			}
		],
		 "valence_orbital": [ 
			{
				"type": "occ",
				"energy": -0.32284,
				"method": "rhf"
			},
			{
				"type": "occ",
				"energy": -0.29834,
				"method": "rhf"
			},
			{
				"type": "occ",
				"energy": -0.28771,
				"method": "rhf"
			},
			{
				"type": "occ",
				"energy": -0.26353,
				"method": "rhf"
			},
			{
				"type": "occ",
				"energy": -0.2467,
				"method": "rhf"
			},
			{
				"type": "unocc",
				"energy": 0.03229,
				"method": "rhf"
			},
			{
				"type": "unocc",
				"energy": 0.04318,
				"method": "rhf"
			},
			{
				"type": "unocc",
				"energy": 0.05394,
				"method": "rhf"
			},
			{
				"type": "unocc",
				"energy": 0.07691,
				"method": "rhf"
			},
			{
				"type": "unocc",
				"energy": 0.08249,
				"method": "rhf"
			}
		],
		"cosmo_sigma_profile": { 
			"-0.025": 0.0,
			"-0.024": 0.0,
			"-0.023": 0.0,
			"-0.022": 0.0,
			"-0.021": 0.0,
			"-0.02": 0.0,
			"-0.019": 0.0,
			"-0.018": 0.0,
			"-0.017": 0.0,
			"-0.016": 0.0,
			"-0.015": 0.0,
			"-0.014": 0.0,
			"-0.013": 0.0,
			"-0.012": 0.0,
			"-0.011": 0.450728860561,
			"-0.01": 2.72554141151,
			"-0.009": 5.39165246567,
			"-0.008": 5.62474822662,
			"-0.007": 8.69920185611,
			"-0.006": 16.3182791316,
			"-0.005": 18.7153979103,
			"-0.004": 24.1831426617,
			"-0.003": 24.9196731332,
			"-0.002": 21.3910574967,
			"-0.001": 22.8469622047,
			"0.0": 29.403649807,
			"0.001": 23.3030138909,
			"0.002": 10.129399958,
			"0.003": 8.3991817804,
			"0.004": 9.48537047423,
			"0.005": 8.86922151745,
			"0.006": 6.75114598817,
			"0.007": 6.62424874908,
			"0.008": 4.93395309861,
			"0.009": 6.74643533212,
			"0.01": 13.2162835761,
			"0.011": 5.63528043597,
			"0.012": 2.08696995071,
			"0.013": 3.34857014019,
			"0.014": 1.1503128153,
			"0.015": 0.0,
			"0.016": 0.0,
			"0.017": 0.0,
			"0.018": 0.0,
			"0.019": 0.0,
			"0.02": 0.0,
			"0.021": 0.0,
			"0.022": 0.0,
			"0.023": 0.0,
			"0.024": 0.0,
			"0.025": 0.0
		}
	}
}
