{
	 "smiles": "CC1=C(O)C(C)=C(C)C(O)=C1", 
	 "Tm": 446.15, 
	 "num_atms": 23, 
	 "gaussian": { 
		 "optdone": 1, 
		 "sigma_profile": "yes", 
		 "theory": "DFT", 
		 "functional": "B3LYP", 
		 "basiset": "6-31G**", 
		 "properties": { 
			 "R2extent": 1909.9066, 
			 "electric_dipole_moment_norm": 0.381897289857, 
			 "electric_quadrupole_moment_norm": 11.2915442407, 
			 "total_energy": -500.646044484, 
			 "HOMO_LUMO_gap": 0.19559, 
			 "cosmo_polarized_energy": -10.91, 
			 "cosmo_cavitation_energy": 25.2, 
			 "cosmo_dispersion_energy": -18.84, 
			 "cosmo_repulsion_energy": 1.51, 
			 "cosmo_total_nonelectrostatic_energy": 7.87, 
			 "SMD_solvation_energy": 4.82 
		},
		"coords": [
			{
				"x": 1.5241742822,
				"y": 2.8505686232,
				"z": 0.0922551698,
				"element": "C" 
			},
			{
				"x": 0.5718671484,
				"y": 1.6939501966,
				"z": 0.2528303969,
				"element": "C" 
			},
			{
				"x": 0.9702431897,
				"y": 0.3972752855,
				"z": -0.0981539694,
				"element": "C" 
			},
			{
				"x": 2.2526737898,
				"y": 0.2675508951,
				"z": -0.583346651,
				"element": "O" 
			},
			{
				"x": 0.1103150445,
				"y": -0.7045938862,
				"z": 0.0377629581,
				"element": "C" 
			},
			{
				"x": 0.6231311016,
				"y": -2.0702606188,
				"z": -0.3660044188,
				"element": "C" 
			},
			{
				"x": -1.1935782096,
				"y": -0.5191609586,
				"z": 0.5398275512,
				"element": "C" 
			},
			{
				"x": -2.1609138031,
				"y": -1.6699795161,
				"z": 0.7071518488,
				"element": "C" 
			},
			{
				"x": -1.5917801449,
				"y": 0.7799879575,
				"z": 0.8910352097,
				"element": "C" 
			},
			{
				"x": -2.8682146062,
				"y": 0.9515060213,
				"z": 1.3807905442,
				"element": "O" 
			},
			{
				"x": -0.7208297506,
				"y": 1.8617766321,
				"z": 0.7478777242,
				"element": "C" 
			},
			{
				"x": 1.0603626244,
				"y": 3.7886953278,
				"z": 0.4091603964,
				"element": "H" 
			},
			{
				"x": 1.8448456451,
				"y": 2.9592747595,
				"z": -0.9497922304,
				"element": "H" 
			},
			{
				"x": 2.435101882,
				"y": 2.699854062,
				"z": 0.6821931516,
				"element": "H" 
			},
			{
				"x": 2.4224176097,
				"y": -0.658159864,
				"z": -0.7934991923,
				"element": "H" 
			},
			{
				"x": 1.5052365778,
				"y": -2.3635863459,
				"z": 0.2206776295,
				"element": "H" 
			},
			{
				"x": -0.1243192122,
				"y": -2.8495356716,
				"z": -0.2201292898,
				"element": "H" 
			},
			{
				"x": 0.9089246758,
				"y": -2.1002131328,
				"z": -1.4270324588,
				"element": "H" 
			},
			{
				"x": -3.1097387923,
				"y": -1.315900826,
				"z": 1.109791134,
				"element": "H" 
			},
			{
				"x": -2.368591863,
				"y": -2.1679515748,
				"z": -0.2473889605,
				"element": "H" 
			},
			{
				"x": -1.7709860699,
				"y": -2.4317530858,
				"z": 1.3925973267,
				"element": "H" 
			},
			{
				"x": -2.997447112,
				"y": 1.8876013231,
				"z": 1.5764675249,
				"element": "H" 
			},
			{
				"x": -1.0544940071,
				"y": 2.8600543969,
				"z": 1.0278286049,
				"element": "H" 
			}
		],
		 "valence_orbital": [ 
			{
				"type": "occ",
				"energy": -0.34452,
				"method": "rhf"
			},
			{
				"type": "occ",
				"energy": -0.32064,
				"method": "rhf"
			},
			{
				"type": "occ",
				"energy": -0.2882,
				"method": "rhf"
			},
			{
				"type": "occ",
				"energy": -0.22696,
				"method": "rhf"
			},
			{
				"type": "occ",
				"energy": -0.18786,
				"method": "rhf"
			},
			{
				"type": "unocc",
				"energy": 0.00773,
				"method": "rhf"
			},
			{
				"type": "unocc",
				"energy": 0.03459,
				"method": "rhf"
			},
			{
				"type": "unocc",
				"energy": 0.07059,
				"method": "rhf"
			},
			{
				"type": "unocc",
				"energy": 0.07753,
				"method": "rhf"
			},
			{
				"type": "unocc",
				"energy": 0.1144,
				"method": "rhf"
			}
		],
		"cosmo_sigma_profile": { 
			"-0.025": 0.0,
			"-0.024": 0.0,
			"-0.023": 0.0,
			"-0.022": 0.0,
			"-0.021": 0.0,
			"-0.02": 0.0,
			"-0.019": 0.0,
			"-0.018": 0.0,
			"-0.017": 0.572151778665,
			"-0.016": 1.0633719596,
			"-0.015": 1.38538195987,
			"-0.014": 1.48142742469,
			"-0.013": 2.06381707018,
			"-0.012": 2.43897133137,
			"-0.011": 1.59426070984,
			"-0.01": 1.41922892825,
			"-0.009": 1.93820486486,
			"-0.008": 3.70944932793,
			"-0.007": 2.20179896776,
			"-0.006": 2.80930118492,
			"-0.005": 5.29618353749,
			"-0.004": 12.1411858447,
			"-0.003": 17.3030444376,
			"-0.002": 15.9027181626,
			"-0.001": 17.6496822218,
			"0.0": 20.1070578912,
			"0.001": 15.6596959347,
			"0.002": 8.87864099779,
			"0.003": 7.04610903621,
			"0.004": 10.1951279047,
			"0.005": 13.1183374509,
			"0.006": 10.9546031059,
			"0.007": 7.05173045397,
			"0.008": 2.97743122802,
			"0.009": 3.05679255551,
			"0.01": 4.22155488159,
			"0.011": 3.16102649164,
			"0.012": 0.297896723857,
			"0.013": 0.0,
			"0.014": 0.0,
			"0.015": 0.0,
			"0.016": 0.0,
			"0.017": 0.0,
			"0.018": 0.0,
			"0.019": 0.0,
			"0.02": 0.0,
			"0.021": 0.0,
			"0.022": 0.0,
			"0.023": 0.0,
			"0.024": 0.0,
			"0.025": 0.0
		}
	}
}
