{
	 "smiles": "ClC(=O)C1=CC=C(I)C=C1", 
	 "Tm": 336.15, 
	 "num_atms": 14, 
	 "gaussian": { 
		 "optdone": 1, 
		 "sigma_profile": "no", 
		 "theory": "DFT", 
		 "functional": "B3LYP", 
		 "basiset": "6-31G**", 
		 "properties": { 
			 "R2extent": 2400.2733, 
			 "electric_dipole_moment_norm": 2.68949725228, 
			 "electric_quadrupole_moment_norm": 9.77899313529, 
			 "total_energy": -815.963446457, 
			 "HOMO_LUMO_gap": 0.17447, 
			 "cosmo_polarized_energy": -100041.65, 
			 "cosmo_cavitation_energy": 23.93, 
			 "cosmo_dispersion_energy": -19.24, 
			 "cosmo_repulsion_energy": 1.52, 
			 "cosmo_total_nonelectrostatic_energy": 6.21, 
			 "SMD_solvation_energy": 3.84 
		},
		"coords": [
			{
				"x": 1.2967294477,
				"y": -0.1295133778,
				"z": 3.3081422894,
				"element": "Cl" 
			},
			{
				"x": 1.5084769654,
				"y": 1.1986298629,
				"z": 2.068872265,
				"element": "C" 
			},
			{
				"x": 2.1777738791,
				"y": 2.147164244,
				"z": 2.3493359282,
				"element": "O" 
			},
			{
				"x": 0.8097179097,
				"y": 0.9784167557,
				"z": 0.780256451,
				"element": "C" 
			},
			{
				"x": 0.9579273993,
				"y": 1.9861664124,
				"z": -0.1884760706,
				"element": "C" 
			},
			{
				"x": 0.3404082977,
				"y": 1.8697366044,
				"z": -1.4285410027,
				"element": "C" 
			},
			{
				"x": -0.4319520363,
				"y": 0.735784813,
				"z": -1.7022404348,
				"element": "C" 
			},
			{
				"x": -1.3750919674,
				"y": 0.5486749494,
				"z": -3.5849523126,
				"element": "I" 
			},
			{
				"x": -0.5892972663,
				"y": -0.2749351074,
				"z": -0.7500519452,
				"element": "C" 
			},
			{
				"x": 0.03277924,
				"y": -0.1506824961,
				"z": 0.4901750438,
				"element": "C" 
			},
			{
				"x": 1.5613049455,
				"y": 2.8563652441,
				"z": 0.0455172467,
				"element": "H" 
			},
			{
				"x": 0.458561683,
				"y": 2.6502598954,
				"z": -2.1712386446,
				"element": "H" 
			},
			{
				"x": -1.1891642526,
				"y": -1.1505602383,
				"z": -0.9690848487,
				"element": "H" 
			},
			{
				"x": -0.0864742449,
				"y": -0.9318075617,
				"z": 1.2311860352,
				"element": "H" 
			}
		],
		 "valence_orbital": [ 
			{
				"type": "occ",
				"energy": -0.31863,
				"method": "rhf"
			},
			{
				"type": "occ",
				"energy": -0.30033,
				"method": "rhf"
			},
			{
				"type": "occ",
				"energy": -0.28876,
				"method": "rhf"
			},
			{
				"type": "occ",
				"energy": -0.28509,
				"method": "rhf"
			},
			{
				"type": "occ",
				"energy": -0.26261,
				"method": "rhf"
			},
			{
				"type": "unocc",
				"energy": -0.08814,
				"method": "rhf"
			},
			{
				"type": "unocc",
				"energy": -0.05515,
				"method": "rhf"
			},
			{
				"type": "unocc",
				"energy": -0.03734,
				"method": "rhf"
			},
			{
				"type": "unocc",
				"energy": 0.01,
				"method": "rhf"
			},
			{
				"type": "unocc",
				"energy": 0.01345,
				"method": "rhf"
			}
		],
		"cosmo_sigma_profile": { 
			"0.0": 0.0,
			"0.0": 0.0,
			"0.0": 0.0,
			"0.0": 0.0,
			"0.0": 0.0,
			"0.0": 0.0,
			"0.0": 0.0,
			"0.0": 0.0,
			"0.0": 0.0,
			"0.0": 0.0,
			"0.0": 0.0,
			"0.0": 0.0,
			"0.0": 0.0,
			"0.0": 0.0,
			"0.0": 0.0,
			"0.0": 0.0,
			"0.0": 0.0,
			"0.0": 0.0,
			"0.0": 0.0,
			"0.0": 0.0,
			"0.0": 0.0,
			"0.0": 0.0,
			"0.0": 0.0,
			"0.0": 0.0,
			"0.0": 0.0,
			"0.0": 0.0,
			"0.0": 0.0,
			"0.0": 0.0,
			"0.0": 0.0,
			"0.0": 0.0,
			"0.0": 0.0,
			"0.0": 0.0,
			"0.0": 0.0,
			"0.0": 0.0,
			"0.0": 0.0,
			"0.0": 0.0,
			"0.0": 0.0,
			"0.0": 0.0,
			"0.0": 0.0,
			"0.0": 0.0,
			"0.0": 0.0,
			"0.0": 0.0,
			"0.0": 0.0,
			"0.0": 0.0,
			"0.0": 0.0,
			"0.0": 0.0,
			"0.0": 0.0,
			"0.0": 0.0,
			"0.0": 0.0,
			"0.0": 0.0,
			"0.0": 0.0
		}
	}
}
