{
	 "smiles": "NC(=O)C1=C(N)N=C(NCC=C)S1", 
	 "Tm": 432.15, 
	 "num_atms": 23, 
	 "gaussian": { 
		 "optdone": 1, 
		 "sigma_profile": "yes", 
		 "theory": "DFT", 
		 "functional": "B3LYP", 
		 "basiset": "6-31G**", 
		 "properties": { 
			 "R2extent": 3611.2025, 
			 "electric_dipole_moment_norm": 4.42325442745, 
			 "electric_quadrupole_moment_norm": 8.55979119547, 
			 "total_energy": -965.190755296, 
			 "HOMO_LUMO_gap": 0.16626, 
			 "cosmo_polarized_energy": -17.61, 
			 "cosmo_cavitation_energy": 29.07, 
			 "cosmo_dispersion_energy": -21.8, 
			 "cosmo_repulsion_energy": 1.71, 
			 "cosmo_total_nonelectrostatic_energy": 8.98, 
			 "SMD_solvation_energy": 3.53 
		},
		"coords": [
			{
				"x": 3.5215775021,
				"y": 1.0131488462,
				"z": -0.7693088102,
				"element": "N" 
			},
			{
				"x": 2.3498164163,
				"y": 0.7261201762,
				"z": -1.4478886785,
				"element": "C" 
			},
			{
				"x": 2.3659047618,
				"y": 0.5560552243,
				"z": -2.6790655677,
				"element": "O" 
			},
			{
				"x": 1.1344749903,
				"y": 0.5895288588,
				"z": -0.6773643868,
				"element": "C" 
			},
			{
				"x": -0.1192393721,
				"y": 0.3047954132,
				"z": -1.2196208507,
				"element": "C" 
			},
			{
				"x": -0.3690420094,
				"y": 0.2008883638,
				"z": -2.5470148659,
				"element": "N" 
			},
			{
				"x": -1.1551758411,
				"y": 0.1464200068,
				"z": -0.3315894041,
				"element": "N" 
			},
			{
				"x": -0.7396530206,
				"y": 0.3109818439,
				"z": 0.8992183679,
				"element": "C" 
			},
			{
				"x": -1.584502911,
				"y": 0.2627391549,
				"z": 1.9645216453,
				"element": "N" 
			},
			{
				"x": -1.1636851146,
				"y": 0.1269266517,
				"z": 3.3563552776,
				"element": "C" 
			},
			{
				"x": -0.9671431209,
				"y": -1.3059650114,
				"z": 3.7854947343,
				"element": "C" 
			},
			{
				"x": -1.6179652815,
				"y": -1.8738650435,
				"z": 4.800211605,
				"element": "C" 
			},
			{
				"x": 0.984842867,
				"y": 0.6527519399,
				"z": 1.0910472972,
				"element": "S" 
			},
			{
				"x": 4.2914701642,
				"y": 1.2617917449,
				"z": -1.3746452199,
				"element": "H" 
			},
			{
				"x": 3.4763809928,
				"y": 1.5153366107,
				"z": 0.1055653559,
				"element": "H" 
			},
			{
				"x": 0.4548009288,
				"y": 0.1622491381,
				"z": -3.138993273,
				"element": "H" 
			},
			{
				"x": -1.2376075491,
				"y": -0.2242068919,
				"z": -2.8276849014,
				"element": "H" 
			},
			{
				"x": -2.5033401805,
				"y": -0.0873095717,
				"z": 1.7236094075,
				"element": "H" 
			},
			{
				"x": -1.9145836348,
				"y": 0.6114392648,
				"z": 3.9893517044,
				"element": "H" 
			},
			{
				"x": -0.2372620848,
				"y": 0.7011594986,
				"z": 3.4781015982,
				"element": "H" 
			},
			{
				"x": -0.2490662385,
				"y": -1.8807407438,
				"z": 3.2019772133,
				"element": "H" 
			},
			{
				"x": -2.3414957068,
				"y": -1.3203982721,
				"z": 5.3951669717,
				"element": "H" 
			},
			{
				"x": -1.4484065577,
				"y": -2.9089472024,
				"z": 5.0806547799,
				"element": "H" 
			}
		],
		 "valence_orbital": [ 
			{
				"type": "occ",
				"energy": -0.27904,
				"method": "rhf"
			},
			{
				"type": "occ",
				"energy": -0.25891,
				"method": "rhf"
			},
			{
				"type": "occ",
				"energy": -0.24499,
				"method": "rhf"
			},
			{
				"type": "occ",
				"energy": -0.24059,
				"method": "rhf"
			},
			{
				"type": "occ",
				"energy": -0.18547,
				"method": "rhf"
			},
			{
				"type": "unocc",
				"energy": -0.01921,
				"method": "rhf"
			},
			{
				"type": "unocc",
				"energy": -0.00125,
				"method": "rhf"
			},
			{
				"type": "unocc",
				"energy": 0.01047,
				"method": "rhf"
			},
			{
				"type": "unocc",
				"energy": 0.04836,
				"method": "rhf"
			},
			{
				"type": "unocc",
				"energy": 0.06456,
				"method": "rhf"
			}
		],
		"cosmo_sigma_profile": { 
			"-0.025": 0.0,
			"-0.024": 0.0,
			"-0.023": 0.0,
			"-0.022": 0.0,
			"-0.021": 0.0,
			"-0.02": 0.0,
			"-0.019": 0.0,
			"-0.018": 0.0,
			"-0.017": 0.0,
			"-0.016": 0.0,
			"-0.015": 0.279073000787,
			"-0.014": 1.15522611303,
			"-0.013": 3.61116101786,
			"-0.012": 4.705132895,
			"-0.011": 3.71685025838,
			"-0.01": 3.8895991581,
			"-0.009": 4.37638137306,
			"-0.008": 5.40165543244,
			"-0.007": 5.18808448103,
			"-0.006": 10.4070387178,
			"-0.005": 13.0148293373,
			"-0.004": 15.2189533636,
			"-0.003": 14.6030099346,
			"-0.002": 11.527994632,
			"-0.001": 12.9360123114,
			"0.0": 11.6023918507,
			"0.001": 13.5184011503,
			"0.002": 13.9322011854,
			"0.003": 14.7589925573,
			"0.004": 17.2107855115,
			"0.005": 12.4253737369,
			"0.006": 9.02306449592,
			"0.007": 4.37339875425,
			"0.008": 4.93008199265,
			"0.009": 3.93272625082,
			"0.01": 2.65677955948,
			"0.011": 3.5577336994,
			"0.012": 2.39434394637,
			"0.013": 3.32413957491,
			"0.014": 2.78534020457,
			"0.015": 1.96330664761,
			"0.016": 0.071727882677,
			"0.017": 0.0,
			"0.018": 0.0,
			"0.019": 0.0,
			"0.02": 0.0,
			"0.021": 0.0,
			"0.022": 0.0,
			"0.023": 0.0,
			"0.024": 0.0,
			"0.025": 0.0
		}
	}
}
