{
	 "smiles": "CC1=CC2=C(C)C3=C(N=C2C=C1)C1=CC=CC=C1C=C3", 
	 "Tm": 432.15, 
	 "num_atms": 35, 
	 "gaussian": { 
		 "optdone": 1, 
		 "sigma_profile": "yes", 
		 "theory": "DFT", 
		 "functional": "B3LYP", 
		 "basiset": "6-31G**", 
		 "properties": { 
			 "R2extent": 6854.6758, 
			 "electric_dipole_moment_norm": 2.14391281539, 
			 "electric_quadrupole_moment_norm": 13.3272863434, 
			 "total_energy": -787.860741494, 
			 "HOMO_LUMO_gap": 0.13931, 
			 "cosmo_polarized_energy": -8.89, 
			 "cosmo_cavitation_energy": 37.21, 
			 "cosmo_dispersion_energy": -27.57, 
			 "cosmo_repulsion_energy": 2.03, 
			 "cosmo_total_nonelectrostatic_energy": 11.67, 
			 "SMD_solvation_energy": 4.52 
		},
		"coords": [
			{
				"x": -1.2074200743,
				"y": 5.0679634519,
				"z": 1.093990646,
				"element": "C" 
			},
			{
				"x": -0.8383321656,
				"y": 3.7254253768,
				"z": 0.5125644164,
				"element": "C" 
			},
			{
				"x": 0.2849307831,
				"y": 3.0430301679,
				"z": 0.9248202208,
				"element": "C" 
			},
			{
				"x": 0.641830928,
				"y": 1.7726084466,
				"z": 0.3802198488,
				"element": "C" 
			},
			{
				"x": 1.7917173453,
				"y": 1.0438807778,
				"z": 0.7827477402,
				"element": "C" 
			},
			{
				"x": 2.6932834098,
				"y": 1.6319777524,
				"z": 1.842589729,
				"element": "C" 
			},
			{
				"x": 2.0423536977,
				"y": -0.1989793016,
				"z": 0.174209343,
				"element": "C" 
			},
			{
				"x": 1.1170585135,
				"y": -0.6738658534,
				"z": -0.8299247618,
				"element": "C" 
			},
			{
				"x": 0.0398680167,
				"y": 0.0104457304,
				"z": -1.2053479338,
				"element": "N" 
			},
			{
				"x": -0.2059702273,
				"y": 1.202660444,
				"z": -0.6267106155,
				"element": "C" 
			},
			{
				"x": -1.3647657393,
				"y": 1.9232492103,
				"z": -1.0411766148,
				"element": "C" 
			},
			{
				"x": -1.6688021748,
				"y": 3.1403062161,
				"z": -0.4907981647,
				"element": "C" 
			},
			{
				"x": 1.3534440076,
				"y": -1.9643578533,
				"z": -1.4789113521,
				"element": "C" 
			},
			{
				"x": 0.4728556513,
				"y": -2.4593038307,
				"z": -2.4612883657,
				"element": "C" 
			},
			{
				"x": 0.7078771087,
				"y": -3.6825381755,
				"z": -3.0681611962,
				"element": "C" 
			},
			{
				"x": 1.8322676848,
				"y": -4.4482832084,
				"z": -2.7101271864,
				"element": "C" 
			},
			{
				"x": 2.7090733114,
				"y": -3.9788753663,
				"z": -1.747017817,
				"element": "C" 
			},
			{
				"x": 2.4882291381,
				"y": -2.7353282641,
				"z": -1.1163114961,
				"element": "C" 
			},
			{
				"x": 3.3863284219,
				"y": -2.2279274506,
				"z": -0.1126672654,
				"element": "C" 
			},
			{
				"x": 3.1773416885,
				"y": -1.0324453728,
				"z": 0.4966181009,
				"element": "C" 
			},
			{
				"x": -2.196829515,
				"y": 5.037752484,
				"z": 1.5659963646,
				"element": "H" 
			},
			{
				"x": -1.2500922524,
				"y": 5.8394751939,
				"z": 0.3157943955,
				"element": "H" 
			},
			{
				"x": -0.4853553391,
				"y": 5.3916985979,
				"z": 1.8483780695,
				"element": "H" 
			},
			{
				"x": 0.9156237804,
				"y": 3.4885361158,
				"z": 1.6873291837,
				"element": "H" 
			},
			{
				"x": 3.5420157443,
				"y": 0.9952842201,
				"z": 2.0848890295,
				"element": "H" 
			},
			{
				"x": 3.0914317295,
				"y": 2.6008493288,
				"z": 1.5206059192,
				"element": "H" 
			},
			{
				"x": 2.1387914879,
				"y": 1.8064256766,
				"z": 2.7714884324,
				"element": "H" 
			},
			{
				"x": -1.9872156869,
				"y": 1.4673210027,
				"z": -1.8043538114,
				"element": "H" 
			},
			{
				"x": -2.5561890662,
				"y": 3.6770039418,
				"z": -0.8179036725,
				"element": "H" 
			},
			{
				"x": -0.3881331606,
				"y": -1.8559354047,
				"z": -2.7245653525,
				"element": "H" 
			},
			{
				"x": 0.0207433482,
				"y": -4.0521269985,
				"z": -3.8239841334,
				"element": "H" 
			},
			{
				"x": 2.0119726379,
				"y": -5.4066697984,
				"z": -3.1889850746,
				"element": "H" 
			},
			{
				"x": 3.5804580214,
				"y": -4.564198093,
				"z": -1.4643355809,
				"element": "H" 
			},
			{
				"x": 4.2514119616,
				"y": -2.8296282749,
				"z": 0.1544515338,
				"element": "H" 
			},
			{
				"x": 3.8859969838,
				"y": -0.6991308897,
				"z": 1.2452774211,
				"element": "H" 
			}
		],
		 "valence_orbital": [ 
			{
				"type": "occ",
				"energy": -0.26123,
				"method": "rhf"
			},
			{
				"type": "occ",
				"energy": -0.24654,
				"method": "rhf"
			},
			{
				"type": "occ",
				"energy": -0.24653,
				"method": "rhf"
			},
			{
				"type": "occ",
				"energy": -0.21723,
				"method": "rhf"
			},
			{
				"type": "occ",
				"energy": -0.2034,
				"method": "rhf"
			},
			{
				"type": "unocc",
				"energy": -0.06409,
				"method": "rhf"
			},
			{
				"type": "unocc",
				"energy": -0.03278,
				"method": "rhf"
			},
			{
				"type": "unocc",
				"energy": -0.00268,
				"method": "rhf"
			},
			{
				"type": "unocc",
				"energy": 0.0163,
				"method": "rhf"
			},
			{
				"type": "unocc",
				"energy": 0.0359,
				"method": "rhf"
			}
		],
		"cosmo_sigma_profile": { 
			"-0.025": 0.0,
			"-0.024": 0.0,
			"-0.023": 0.0,
			"-0.022": 0.0,
			"-0.021": 0.0,
			"-0.02": 0.0,
			"-0.019": 0.0,
			"-0.018": 0.0,
			"-0.017": 0.0,
			"-0.016": 0.0,
			"-0.015": 0.0,
			"-0.014": 0.0,
			"-0.013": 0.0,
			"-0.012": 0.0,
			"-0.011": 0.0,
			"-0.01": 0.0,
			"-0.009": 0.0,
			"-0.008": 0.831121283459,
			"-0.007": 1.77267704445,
			"-0.006": 10.9481704013,
			"-0.005": 22.0571230619,
			"-0.004": 29.028769432,
			"-0.003": 27.5323094246,
			"-0.002": 23.1018305005,
			"-0.001": 24.3297319859,
			"0.0": 21.9948244757,
			"0.001": 20.5695108101,
			"0.002": 27.5327601396,
			"0.003": 28.7147689014,
			"0.004": 30.3905444983,
			"0.005": 17.7800144734,
			"0.006": 3.25633211143,
			"0.007": 2.26890928558,
			"0.008": 1.60074484882,
			"0.009": 1.76485198895,
			"0.01": 1.93330081266,
			"0.011": 0.753465448751,
			"0.012": 0.0283332771173,
			"0.013": 0.0,
			"0.014": 0.0,
			"0.015": 0.0,
			"0.016": 0.0,
			"0.017": 0.0,
			"0.018": 0.0,
			"0.019": 0.0,
			"0.02": 0.0,
			"0.021": 0.0,
			"0.022": 0.0,
			"0.023": 0.0,
			"0.024": 0.0,
			"0.025": 0.0
		}
	}
}
