{
	 "smiles": "COC1=C(C=C(Cl)C=C1)N1C=C(C=N1)S(Cl)(=O)=O", 
	 "Tm": 363.15, 
	 "num_atms": 26, 
	 "gaussian": { 
		 "optdone": 1, 
		 "sigma_profile": "yes", 
		 "theory": "DFT", 
		 "functional": "B3LYP", 
		 "basiset": "6-31G**", 
		 "properties": { 
			 "R2extent": 8874.1281, 
			 "electric_dipole_moment_norm": 6.81509016521, 
			 "electric_quadrupole_moment_norm": 24.1868645446, 
			 "total_energy": -2039.52082588, 
			 "HOMO_LUMO_gap": 0.1594, 
			 "cosmo_polarized_energy": -13.39, 
			 "cosmo_cavitation_energy": 36.62, 
			 "cosmo_dispersion_energy": -26.86, 
			 "cosmo_repulsion_energy": 2.04, 
			 "cosmo_total_nonelectrostatic_energy": 11.8, 
			 "SMD_solvation_energy": 5.11 
		},
		"coords": [
			{
				"x": -1.3516602264,
				"y": 1.6531792435,
				"z": 2.2567076362,
				"element": "C" 
			},
			{
				"x": -0.491116074,
				"y": 1.0934253884,
				"z": 1.2678909595,
				"element": "O" 
			},
			{
				"x": -0.3788928253,
				"y": -0.2610395959,
				"z": 1.1871809945,
				"element": "C" 
			},
			{
				"x": 0.5624075942,
				"y": -0.7786252191,
				"z": 0.2695461149,
				"element": "C" 
			},
			{
				"x": 0.7373264088,
				"y": -2.1568356109,
				"z": 0.1417525889,
				"element": "C" 
			},
			{
				"x": -0.0200795063,
				"y": -3.0243318454,
				"z": 0.9231783121,
				"element": "C" 
			},
			{
				"x": 0.208856674,
				"y": -4.75493168,
				"z": 0.7540629338,
				"element": "Cl" 
			},
			{
				"x": -0.9569227742,
				"y": -2.5343013198,
				"z": 1.827834787,
				"element": "C" 
			},
			{
				"x": -1.1313873841,
				"y": -1.156494763,
				"z": 1.9540984122,
				"element": "C" 
			},
			{
				"x": 1.3776160057,
				"y": 0.0775047614,
				"z": -0.5271436014,
				"element": "N" 
			},
			{
				"x": 1.11502765,
				"y": 1.325192921,
				"z": -0.9886269572,
				"element": "C" 
			},
			{
				"x": 2.2019419029,
				"y": 1.6727218947,
				"z": -1.7716306726,
				"element": "C" 
			},
			{
				"x": 3.0852285875,
				"y": 0.5670080456,
				"z": -1.7260707261,
				"element": "C" 
			},
			{
				"x": 2.5811381924,
				"y": -0.3980765821,
				"z": -0.9783285319,
				"element": "N" 
			},
			{
				"x": 2.4003000721,
				"y": 3.1800375678,
				"z": -2.6236306721,
				"element": "S" 
			},
			{
				"x": 3.481053123,
				"y": 4.3625109078,
				"z": -1.2060526679,
				"element": "Cl" 
			},
			{
				"x": 1.1000733463,
				"y": 3.8236081447,
				"z": -2.7656390405,
				"element": "O" 
			},
			{
				"x": 3.3093792935,
				"y": 2.9784598948,
				"z": -3.7436180772,
				"element": "O" 
			},
			{
				"x": -1.0575582945,
				"y": 1.3358695686,
				"z": 3.2636446406,
				"element": "H" 
			},
			{
				"x": -2.3980734457,
				"y": 1.3811348773,
				"z": 2.0757910039,
				"element": "H" 
			},
			{
				"x": -1.2385779198,
				"y": 2.7338587291,
				"z": 2.1687081436,
				"element": "H" 
			},
			{
				"x": 1.4736545367,
				"y": -2.5287628153,
				"z": -0.5580927656,
				"element": "H" 
			},
			{
				"x": -1.5465180725,
				"y": -3.2164048687,
				"z": 2.429529305,
				"element": "H" 
			},
			{
				"x": -1.8593268752,
				"y": -0.7833490093,
				"z": 2.6633062417,
				"element": "H" 
			},
			{
				"x": 0.2128152625,
				"y": 1.860008913,
				"z": -0.7500992113,
				"element": "H" 
			},
			{
				"x": 4.0452947484,
				"y": 0.4531324517,
				"z": -2.2086991501,
				"element": "H" 
			}
		],
		 "valence_orbital": [ 
			{
				"type": "occ",
				"energy": -0.31462,
				"method": "rhf"
			},
			{
				"type": "occ",
				"energy": -0.30951,
				"method": "rhf"
			},
			{
				"type": "occ",
				"energy": -0.28977,
				"method": "rhf"
			},
			{
				"type": "occ",
				"energy": -0.27076,
				"method": "rhf"
			},
			{
				"type": "occ",
				"energy": -0.24344,
				"method": "rhf"
			},
			{
				"type": "unocc",
				"energy": -0.08404,
				"method": "rhf"
			},
			{
				"type": "unocc",
				"energy": -0.05443,
				"method": "rhf"
			},
			{
				"type": "unocc",
				"energy": -0.02625,
				"method": "rhf"
			},
			{
				"type": "unocc",
				"energy": -0.00218,
				"method": "rhf"
			},
			{
				"type": "unocc",
				"energy": 0.00547,
				"method": "rhf"
			}
		],
		"cosmo_sigma_profile": { 
			"-0.025": 0.0,
			"-0.024": 0.0,
			"-0.023": 0.0,
			"-0.022": 0.0,
			"-0.021": 0.0,
			"-0.02": 0.0,
			"-0.019": 0.0,
			"-0.018": 0.0,
			"-0.017": 0.0,
			"-0.016": 0.0,
			"-0.015": 0.0,
			"-0.014": 0.0,
			"-0.013": 0.0,
			"-0.012": 0.0,
			"-0.011": 0.150392597709,
			"-0.01": 1.64130976339,
			"-0.009": 1.92031284606,
			"-0.008": 6.16263499204,
			"-0.007": 12.4175138981,
			"-0.006": 16.3489981508,
			"-0.005": 16.5108439025,
			"-0.004": 18.1761290552,
			"-0.003": 16.4055245104,
			"-0.002": 20.7572835951,
			"-0.001": 24.9238899592,
			"0.0": 23.8180942186,
			"0.001": 26.4217301284,
			"0.002": 24.9178482481,
			"0.003": 24.8745751264,
			"0.004": 23.3058703545,
			"0.005": 10.3405722207,
			"0.006": 4.54102841659,
			"0.007": 7.08466401164,
			"0.008": 11.5941856108,
			"0.009": 6.01205918116,
			"0.01": 0.745219026522,
			"0.011": 0.82373984963,
			"0.012": 0.0576889293617,
			"0.013": 0.0,
			"0.014": 0.0,
			"0.015": 0.0,
			"0.016": 0.0,
			"0.017": 0.0,
			"0.018": 0.0,
			"0.019": 0.0,
			"0.02": 0.0,
			"0.021": 0.0,
			"0.022": 0.0,
			"0.023": 0.0,
			"0.024": 0.0,
			"0.025": 0.0
		}
	}
}
