{
	 "smiles": "ClC1=NN=C(C=C1)C(=O)NC1CCOCC1", 
	 "Tm": 426.15, 
	 "num_atms": 28, 
	 "gaussian": { 
		 "optdone": 1, 
		 "sigma_profile": "yes", 
		 "theory": "DFT", 
		 "functional": "B3LYP", 
		 "basiset": "6-31G**", 
		 "properties": { 
			 "R2extent": 5634.1608, 
			 "electric_dipole_moment_norm": 1.69244057207, 
			 "electric_quadrupole_moment_norm": 20.9394286598, 
			 "total_energy": -1163.14429685, 
			 "HOMO_LUMO_gap": 0.17319, 
			 "cosmo_polarized_energy": -15.36, 
			 "cosmo_cavitation_energy": 33.01, 
			 "cosmo_dispersion_energy": -24.17, 
			 "cosmo_repulsion_energy": 1.89, 
			 "cosmo_total_nonelectrostatic_energy": 10.74, 
			 "SMD_solvation_energy": 4.01 
		},
		"coords": [
			{
				"x": 0.2057852821,
				"y": 2.6613220913,
				"z": 5.0325113073,
				"element": "Cl" 
			},
			{
				"x": -0.3441608548,
				"y": 1.6979208818,
				"z": 3.6823600445,
				"element": "C" 
			},
			{
				"x": 0.3338704996,
				"y": 1.8388134454,
				"z": 2.5540245107,
				"element": "N" 
			},
			{
				"x": -0.0350281656,
				"y": 1.122750109,
				"z": 1.4875747699,
				"element": "N" 
			},
			{
				"x": -1.0704582213,
				"y": 0.2849851646,
				"z": 1.5648013188,
				"element": "C" 
			},
			{
				"x": -1.8252849566,
				"y": 0.1208898881,
				"z": 2.7408274496,
				"element": "C" 
			},
			{
				"x": -1.4475765197,
				"y": 0.8477701863,
				"z": 3.8488022737,
				"element": "C" 
			},
			{
				"x": -1.52865388,
				"y": -0.4791682041,
				"z": 0.3410722229,
				"element": "C" 
			},
			{
				"x": -2.6707361599,
				"y": -0.9408307735,
				"z": 0.3456933431,
				"element": "O" 
			},
			{
				"x": -0.7029984487,
				"y": -0.6507992976,
				"z": -0.7267003102,
				"element": "N" 
			},
			{
				"x": 0.7017784746,
				"y": -0.307297859,
				"z": -0.9672571941,
				"element": "C" 
			},
			{
				"x": 0.8766847919,
				"y": 1.0361838684,
				"z": -1.690858855,
				"element": "C" 
			},
			{
				"x": 2.3830570758,
				"y": 1.3597376869,
				"z": -1.8005735081,
				"element": "C" 
			},
			{
				"x": 3.2005050135,
				"y": 0.1884337735,
				"z": -1.7590471883,
				"element": "O" 
			},
			{
				"x": 2.6346320484,
				"y": -0.8833139882,
				"z": -2.4950720928,
				"element": "C" 
			},
			{
				"x": 1.3699112898,
				"y": -1.4288410997,
				"z": -1.7916031092,
				"element": "C" 
			},
			{
				"x": -2.6727537054,
				"y": -0.5542791159,
				"z": 2.7332554445,
				"element": "H" 
			},
			{
				"x": -1.965172594,
				"y": 0.7829944205,
				"z": 4.7988500675,
				"element": "H" 
			},
			{
				"x": -1.1808999978,
				"y": -1.1435868863,
				"z": -1.4723941993,
				"element": "H" 
			},
			{
				"x": 1.198462654,
				"y": -0.2325725567,
				"z": -0.0006893195,
				"element": "H" 
			},
			{
				"x": 0.3634982348,
				"y": 1.8246268084,
				"z": -1.1355952197,
				"element": "H" 
			},
			{
				"x": 0.4118056573,
				"y": 0.9729795156,
				"z": -2.6832616794,
				"element": "H" 
			},
			{
				"x": 2.7065285305,
				"y": 1.9661120145,
				"z": -0.9497606339,
				"element": "H" 
			},
			{
				"x": 2.5868577162,
				"y": 1.9280012575,
				"z": -2.7220369303,
				"element": "H" 
			},
			{
				"x": 2.3949361724,
				"y": -0.5591572998,
				"z": -3.5210247094,
				"element": "H" 
			},
			{
				"x": 3.4072435032,
				"y": -1.6533225408,
				"z": -2.5685471378,
				"element": "H" 
			},
			{
				"x": 0.6702455226,
				"y": -1.8063244782,
				"z": -2.5504586708,
				"element": "H" 
			},
			{
				"x": 1.6136210372,
				"y": -2.2707270119,
				"z": -1.1356919949,
				"element": "H" 
			}
		],
		 "valence_orbital": [ 
			{
				"type": "occ",
				"energy": -0.28965,
				"method": "rhf"
			},
			{
				"type": "occ",
				"energy": -0.265,
				"method": "rhf"
			},
			{
				"type": "occ",
				"energy": -0.26141,
				"method": "rhf"
			},
			{
				"type": "occ",
				"energy": -0.25775,
				"method": "rhf"
			},
			{
				"type": "occ",
				"energy": -0.24728,
				"method": "rhf"
			},
			{
				"type": "unocc",
				"energy": -0.07409,
				"method": "rhf"
			},
			{
				"type": "unocc",
				"energy": -0.06559,
				"method": "rhf"
			},
			{
				"type": "unocc",
				"energy": 0.01695,
				"method": "rhf"
			},
			{
				"type": "unocc",
				"energy": 0.035,
				"method": "rhf"
			},
			{
				"type": "unocc",
				"energy": 0.06983,
				"method": "rhf"
			}
		],
		"cosmo_sigma_profile": { 
			"-0.025": 0.0,
			"-0.024": 0.0,
			"-0.023": 0.0,
			"-0.022": 0.0,
			"-0.021": 0.0,
			"-0.02": 0.0,
			"-0.019": 0.0,
			"-0.018": 0.0,
			"-0.017": 0.0,
			"-0.016": 0.0,
			"-0.015": 0.0,
			"-0.014": 0.0284548164926,
			"-0.013": 0.822918098193,
			"-0.012": 1.1931650582,
			"-0.011": 0.930155932273,
			"-0.01": 3.13706808711,
			"-0.009": 3.38502613358,
			"-0.008": 6.00938773593,
			"-0.007": 4.4576895671,
			"-0.006": 4.45356069308,
			"-0.005": 8.60069503933,
			"-0.004": 27.6113645982,
			"-0.003": 38.0822812504,
			"-0.002": 30.7264801831,
			"-0.001": 22.7759485128,
			"0.0": 15.9874232903,
			"0.001": 14.4174300772,
			"0.002": 12.8352751379,
			"0.003": 14.1271867174,
			"0.004": 7.57439694462,
			"0.005": 5.39316186154,
			"0.006": 5.19193124253,
			"0.007": 4.24271329281,
			"0.008": 4.02140940894,
			"0.009": 4.2432459152,
			"0.01": 3.98918753949,
			"0.011": 4.20822707342,
			"0.012": 4.043885081,
			"0.013": 8.16145951742,
			"0.014": 3.03585822507,
			"0.015": 0.00550601317532,
			"0.016": 0.0,
			"0.017": 0.0,
			"0.018": 0.0,
			"0.019": 0.0,
			"0.02": 0.0,
			"0.021": 0.0,
			"0.022": 0.0,
			"0.023": 0.0,
			"0.024": 0.0,
			"0.025": 0.0
		}
	}
}
