{
	 "smiles": "COC1=C(O)C=C(C=CC(=O)C2=CC(=CC=C2)C(=O)C=CC2=CC(O)=C(OC)C=C2)C=C1", 
	 "Tm": 473.15, 
	 "num_atms": 54, 
	 "gaussian": { 
		 "optdone": 1, 
		 "sigma_profile": "yes", 
		 "theory": "DFT", 
		 "functional": "B3LYP", 
		 "basiset": "6-31G**", 
		 "properties": { 
			 "R2extent": 29210.7438, 
			 "electric_dipole_moment_norm": 6.04863046482, 
			 "electric_quadrupole_moment_norm": 29.5217716067, 
			 "total_energy": -1455.3015214, 
			 "HOMO_LUMO_gap": 0.1313, 
			 "cosmo_polarized_energy": -29.27, 
			 "cosmo_cavitation_energy": 60.82, 
			 "cosmo_dispersion_energy": -42.44, 
			 "cosmo_repulsion_energy": 3.15, 
			 "cosmo_total_nonelectrostatic_energy": 21.53, 
			 "SMD_solvation_energy": 13.43 
		},
		"coords": [
			{
				"x": 6.4141327713,
				"y": 6.9299545525,
				"z": -2.2139276148,
				"element": "C" 
			},
			{
				"x": 6.5194026405,
				"y": 6.0000132646,
				"z": -1.1286815086,
				"element": "O" 
			},
			{
				"x": 5.5610014104,
				"y": 5.0335845731,
				"z": -1.0256049981,
				"element": "C" 
			},
			{
				"x": 5.3006673836,
				"y": 4.0937886632,
				"z": -2.0520858995,
				"element": "C" 
			},
			{
				"x": 6.0321888487,
				"y": 4.193974562,
				"z": -3.2035736308,
				"element": "O" 
			},
			{
				"x": 4.3439370164,
				"y": 3.1049609761,
				"z": -1.8578659131,
				"element": "C" 
			},
			{
				"x": 3.6341699288,
				"y": 2.9943856364,
				"z": -0.6449090036,
				"element": "C" 
			},
			{
				"x": 2.6264389597,
				"y": 1.9702442625,
				"z": -0.4013462697,
				"element": "C" 
			},
			{
				"x": 2.1667536985,
				"y": 1.0271841355,
				"z": -1.2515743188,
				"element": "C" 
			},
			{
				"x": 1.1489752467,
				"y": 0.0523732463,
				"z": -0.7993490607,
				"element": "C" 
			},
			{
				"x": 0.7562743353,
				"y": 0.0243480267,
				"z": 0.3672285374,
				"element": "O" 
			},
			{
				"x": 0.5978022168,
				"y": -0.9345164987,
				"z": -1.7901081091,
				"element": "C" 
			},
			{
				"x": -0.0579930265,
				"y": -2.0658218483,
				"z": -1.2789503809,
				"element": "C" 
			},
			{
				"x": -0.6221074798,
				"y": -3.0192187996,
				"z": -2.1302920127,
				"element": "C" 
			},
			{
				"x": -0.5111959286,
				"y": -2.8411650052,
				"z": -3.5202998888,
				"element": "C" 
			},
			{
				"x": 0.1161015551,
				"y": -1.7130291784,
				"z": -4.0385025443,
				"element": "C" 
			},
			{
				"x": 0.6721847385,
				"y": -0.76214342,
				"z": -3.1790976865,
				"element": "C" 
			},
			{
				"x": -1.2816882941,
				"y": -4.2836378306,
				"z": -1.644348012,
				"element": "C" 
			},
			{
				"x": -1.237671521,
				"y": -5.2907740773,
				"z": -2.3486696806,
				"element": "O" 
			},
			{
				"x": -1.9967398972,
				"y": -4.340038848,
				"z": -0.3525216666,
				"element": "C" 
			},
			{
				"x": -2.5100282712,
				"y": -3.2886282408,
				"z": 0.3216668647,
				"element": "C" 
			},
			{
				"x": -3.3040827701,
				"y": -3.3313948832,
				"z": 1.5491102279,
				"element": "C" 
			},
			{
				"x": -3.6111845213,
				"y": -2.114951286,
				"z": 2.1866589531,
				"element": "C" 
			},
			{
				"x": -4.3423359713,
				"y": -2.0692923357,
				"z": 3.3710980861,
				"element": "C" 
			},
			{
				"x": -4.6043136346,
				"y": -0.8973102512,
				"z": 4.0270624127,
				"element": "O" 
			},
			{
				"x": -4.8247770755,
				"y": -3.2687314153,
				"z": 3.9357894655,
				"element": "C" 
			},
			{
				"x": -5.5147359136,
				"y": -3.3172641935,
				"z": 5.1141440099,
				"element": "O" 
			},
			{
				"x": -6.7223383112,
				"y": -2.5528059323,
				"z": 5.2077246816,
				"element": "C" 
			},
			{
				"x": -4.5234401657,
				"y": -4.4788708545,
				"z": 3.3021723857,
				"element": "C" 
			},
			{
				"x": -3.7721333117,
				"y": -4.5213630345,
				"z": 2.1341237916,
				"element": "C" 
			},
			{
				"x": 3.9233702407,
				"y": 3.9164178299,
				"z": 0.375278365,
				"element": "C" 
			},
			{
				"x": 4.8665315432,
				"y": 4.9209955316,
				"z": 0.1793659716,
				"element": "C" 
			},
			{
				"x": 7.202409359,
				"y": 7.666520589,
				"z": -2.0487379667,
				"element": "H" 
			},
			{
				"x": 5.439999493,
				"y": 7.4345880035,
				"z": -2.1975035804,
				"element": "H" 
			},
			{
				"x": 6.5585608885,
				"y": 6.4430915306,
				"z": -3.1807786837,
				"element": "H" 
			},
			{
				"x": 5.776113487,
				"y": 3.4800434793,
				"z": -3.8018909742,
				"element": "H" 
			},
			{
				"x": 4.1625092231,
				"y": 2.3930254899,
				"z": -2.6600032418,
				"element": "H" 
			},
			{
				"x": 2.1856232741,
				"y": 1.9639814401,
				"z": 0.5945332037,
				"element": "H" 
			},
			{
				"x": 2.5478963122,
				"y": 0.9460178731,
				"z": -2.2638729479,
				"element": "H" 
			},
			{
				"x": -0.0886645064,
				"y": -2.1837224938,
				"z": -0.2025492435,
				"element": "H" 
			},
			{
				"x": -0.9244482853,
				"y": -3.6039314112,
				"z": -4.171821621,
				"element": "H" 
			},
			{
				"x": 0.1766683177,
				"y": -1.5708286413,
				"z": -5.1135281876,
				"element": "H" 
			},
			{
				"x": 1.1424307096,
				"y": 0.1206944959,
				"z": -3.5997741637,
				"element": "H" 
			},
			{
				"x": -2.1782479764,
				"y": -5.3596719189,
				"z": -0.0223136526,
				"element": "H" 
			},
			{
				"x": -2.3358763282,
				"y": -2.2895004105,
				"z": -0.0704984904,
				"element": "H" 
			},
			{
				"x": -3.2429420155,
				"y": -1.1836856049,
				"z": 1.7589521397,
				"element": "H" 
			},
			{
				"x": -4.180634734,
				"y": -0.1710571191,
				"z": 3.5511684365,
				"element": "H" 
			},
			{
				"x": -7.4177160757,
				"y": -2.8267726416,
				"z": 4.4042470632,
				"element": "H" 
			},
			{
				"x": -7.1651516431,
				"y": -2.8159510745,
				"z": 6.1701384001,
				"element": "H" 
			},
			{
				"x": -6.5267076998,
				"y": -1.4788418591,
				"z": 5.171169867,
				"element": "H" 
			},
			{
				"x": -4.8992108286,
				"y": -5.3883588425,
				"z": 3.7595870944,
				"element": "H" 
			},
			{
				"x": -3.568996941,
				"y": -5.4785904289,
				"z": 1.6665750311,
				"element": "H" 
			},
			{
				"x": 3.3944452574,
				"y": 3.8481798032,
				"z": 1.3210972553,
				"element": "H" 
			},
			{
				"x": 5.0923742715,
				"y": 5.6412024143,
				"z": 0.9587887086,
				"element": "H" 
			}
		],
		 "valence_orbital": [ 
			{
				"type": "occ",
				"energy": -0.24775,
				"method": "rhf"
			},
			{
				"type": "occ",
				"energy": -0.24339,
				"method": "rhf"
			},
			{
				"type": "occ",
				"energy": -0.24002,
				"method": "rhf"
			},
			{
				"type": "occ",
				"energy": -0.22004,
				"method": "rhf"
			},
			{
				"type": "occ",
				"energy": -0.21273,
				"method": "rhf"
			},
			{
				"type": "unocc",
				"energy": -0.08143,
				"method": "rhf"
			},
			{
				"type": "unocc",
				"energy": -0.06979,
				"method": "rhf"
			},
			{
				"type": "unocc",
				"energy": -0.02992,
				"method": "rhf"
			},
			{
				"type": "unocc",
				"energy": -0.02163,
				"method": "rhf"
			},
			{
				"type": "unocc",
				"energy": -0.00396,
				"method": "rhf"
			}
		],
		"cosmo_sigma_profile": { 
			"-0.025": 0.0,
			"-0.024": 0.0,
			"-0.023": 0.0,
			"-0.022": 0.0,
			"-0.021": 0.0,
			"-0.02": 0.0,
			"-0.019": 0.00155815494188,
			"-0.018": 1.62915469422,
			"-0.017": 2.51305761931,
			"-0.016": 2.24959084408,
			"-0.015": 2.23375929459,
			"-0.014": 2.02689999965,
			"-0.013": 1.92632038882,
			"-0.012": 1.66066337553,
			"-0.011": 1.85764152534,
			"-0.01": 2.48815045713,
			"-0.009": 4.46550790521,
			"-0.008": 8.09041715896,
			"-0.007": 12.4975472296,
			"-0.006": 21.5434283322,
			"-0.005": 26.446323378,
			"-0.004": 31.331847194,
			"-0.003": 35.8000005752,
			"-0.002": 35.7583215608,
			"-0.001": 29.0547141525,
			"0.0": 30.3773403902,
			"0.001": 32.6296517427,
			"0.002": 45.4263202877,
			"0.003": 49.0149124869,
			"0.004": 28.3379142526,
			"0.005": 12.933634026,
			"0.006": 9.22503745111,
			"0.007": 10.2048058574,
			"0.008": 8.20471300352,
			"0.009": 7.28036710367,
			"0.01": 8.16636160998,
			"0.011": 7.51660174238,
			"0.012": 7.74622121911,
			"0.013": 5.63393799707,
			"0.014": 0.421317386582,
			"0.015": 0.0,
			"0.016": 0.0,
			"0.017": 0.0,
			"0.018": 0.0,
			"0.019": 0.0,
			"0.02": 0.0,
			"0.021": 0.0,
			"0.022": 0.0,
			"0.023": 0.0,
			"0.024": 0.0,
			"0.025": 0.0
		}
	}
}
