{
	 "smiles": "CCC(C)C(C)(C)C", 
	 "Tm": 161.15, 
	 "num_atms": 26, 
	 "gaussian": { 
		 "optdone": 1, 
		 "sigma_profile": "yes", 
		 "theory": "DFT", 
		 "functional": "B3LYP", 
		 "basiset": "6-31G**", 
		 "properties": { 
			 "R2extent": 1573.7328, 
			 "electric_dipole_moment_norm": 0.065185964747, 
			 "electric_quadrupole_moment_norm": 0.342938813785, 
			 "total_energy": -315.719997196, 
			 "HOMO_LUMO_gap": 0.36128, 
			 "cosmo_polarized_energy": -0.76, 
			 "cosmo_cavitation_energy": 24.65, 
			 "cosmo_dispersion_energy": -17.71, 
			 "cosmo_repulsion_energy": 1.43, 
			 "cosmo_total_nonelectrostatic_energy": 8.37, 
			 "SMD_solvation_energy": 4.37 
		},
		"coords": [
			{
				"x": -0.4459426502,
				"y": -1.0042122005,
				"z": -1.8305727344,
				"element": "C" 
			},
			{
				"x": 0.2101760065,
				"y": -0.3980501679,
				"z": -0.5795835558,
				"element": "C" 
			},
			{
				"x": -0.7196537433,
				"y": 0.2124489915,
				"z": 0.5080433907,
				"element": "C" 
			},
			{
				"x": -1.8934980839,
				"y": -0.7385459969,
				"z": 0.8081665517,
				"element": "C" 
			},
			{
				"x": -1.1478121336,
				"y": 1.709819024,
				"z": 0.291603421,
				"element": "C" 
			},
			{
				"x": 0.1044723558,
				"y": 2.6136626737,
				"z": 0.2997001976,
				"element": "C" 
			},
			{
				"x": -2.0476427576,
				"y": 2.16029592,
				"z": 1.4645392745,
				"element": "C" 
			},
			{
				"x": -1.9142115526,
				"y": 1.9455041257,
				"z": -1.0259339701,
				"element": "C" 
			},
			{
				"x": -1.0162204919,
				"y": -0.273407661,
				"z": -2.4090995097,
				"element": "H" 
			},
			{
				"x": -1.1245254889,
				"y": -1.824143752,
				"z": -1.5757729236,
				"element": "H" 
			},
			{
				"x": 0.3240458139,
				"y": -1.4159150012,
				"z": -2.4921523914,
				"element": "H" 
			},
			{
				"x": 0.9546292437,
				"y": 0.3431382794,
				"z": -0.8901367947,
				"element": "H" 
			},
			{
				"x": 0.7849608668,
				"y": -1.1974860867,
				"z": -0.0929638244,
				"element": "H" 
			},
			{
				"x": -0.1087445933,
				"y": 0.2407053119,
				"z": 1.4230997103,
				"element": "H" 
			},
			{
				"x": -2.4060132144,
				"y": -0.4740564957,
				"z": 1.7362857379,
				"element": "H" 
			},
			{
				"x": -2.6399509859,
				"y": -0.7465993376,
				"z": 0.0071131623,
				"element": "H" 
			},
			{
				"x": -1.5289398291,
				"y": -1.7657223997,
				"z": 0.9215653009,
				"element": "H" 
			},
			{
				"x": -0.1843456288,
				"y": 3.6677245738,
				"z": 0.2197257031,
				"element": "H" 
			},
			{
				"x": 0.6730778732,
				"y": 2.4953640818,
				"z": 1.2295636287,
				"element": "H" 
			},
			{
				"x": 0.7787847371,
				"y": 2.3995158949,
				"z": -0.534860341,
				"element": "H" 
			},
			{
				"x": -3.0232473144,
				"y": 1.6656222014,
				"z": 1.4502661761,
				"element": "H" 
			},
			{
				"x": -2.2288068238,
				"y": 3.2396199633,
				"z": 1.4113026805,
				"element": "H" 
			},
			{
				"x": -1.5773871599,
				"y": 1.9507055547,
				"z": 2.4326991547,
				"element": "H" 
			},
			{
				"x": -2.2866102107,
				"y": 2.9757980196,
				"z": -1.0657871234,
				"element": "H" 
			},
			{
				"x": -2.7799639942,
				"y": 1.2821150228,
				"z": -1.1229703261,
				"element": "H" 
			},
			{
				"x": -1.2744302404,
				"y": 1.7991994607,
				"z": -1.9009405955,
				"element": "H" 
			}
		],
		 "valence_orbital": [ 
			{
				"type": "occ",
				"energy": -0.33133,
				"method": "rhf"
			},
			{
				"type": "occ",
				"energy": -0.32863,
				"method": "rhf"
			},
			{
				"type": "occ",
				"energy": -0.3034,
				"method": "rhf"
			},
			{
				"type": "occ",
				"energy": -0.2974,
				"method": "rhf"
			},
			{
				"type": "occ",
				"energy": -0.28963,
				"method": "rhf"
			},
			{
				"type": "unocc",
				"energy": 0.07165,
				"method": "rhf"
			},
			{
				"type": "unocc",
				"energy": 0.11505,
				"method": "rhf"
			},
			{
				"type": "unocc",
				"energy": 0.12228,
				"method": "rhf"
			},
			{
				"type": "unocc",
				"energy": 0.12477,
				"method": "rhf"
			},
			{
				"type": "unocc",
				"energy": 0.13698,
				"method": "rhf"
			}
		],
		"cosmo_sigma_profile": { 
			"-0.025": 0.0,
			"-0.024": 0.0,
			"-0.023": 0.0,
			"-0.022": 0.0,
			"-0.021": 0.0,
			"-0.02": 0.0,
			"-0.019": 0.0,
			"-0.018": 0.0,
			"-0.017": 0.0,
			"-0.016": 0.0,
			"-0.015": 0.0,
			"-0.014": 0.0,
			"-0.013": 0.0,
			"-0.012": 0.0,
			"-0.011": 0.0,
			"-0.01": 0.0,
			"-0.009": 0.0,
			"-0.008": 0.0,
			"-0.007": 0.0,
			"-0.006": 0.0,
			"-0.005": 0.0,
			"-0.004": 0.0174978668078,
			"-0.003": 3.8519073522,
			"-0.002": 27.8910887181,
			"-0.001": 43.553283415,
			"0.0": 41.648230321,
			"0.001": 35.199294744,
			"0.002": 32.6686006594,
			"0.003": 3.32280776149,
			"0.004": 0.0,
			"0.005": 0.0,
			"0.006": 0.0,
			"0.007": 0.0,
			"0.008": 0.0,
			"0.009": 0.0,
			"0.01": 0.0,
			"0.011": 0.0,
			"0.012": 0.0,
			"0.013": 0.0,
			"0.014": 0.0,
			"0.015": 0.0,
			"0.016": 0.0,
			"0.017": 0.0,
			"0.018": 0.0,
			"0.019": 0.0,
			"0.02": 0.0,
			"0.021": 0.0,
			"0.022": 0.0,
			"0.023": 0.0,
			"0.024": 0.0,
			"0.025": 0.0
		}
	}
}
