{
	 "smiles": "OC(=O)C1=NN=C2N1C=CC=C2C(F)(F)F", 
	 "Tm": 413.15, 
	 "num_atms": 20, 
	 "gaussian": { 
		 "optdone": 1, 
		 "sigma_profile": "yes", 
		 "theory": "DFT", 
		 "functional": "B3LYP", 
		 "basiset": "6-31G**", 
		 "properties": { 
			 "R2extent": 3891.4414, 
			 "electric_dipole_moment_norm": 7.84099355439, 
			 "electric_quadrupole_moment_norm": 15.1877373183, 
			 "total_energy": -921.462952055, 
			 "HOMO_LUMO_gap": 0.1751, 
			 "cosmo_polarized_energy": -21.85, 
			 "cosmo_cavitation_energy": 27.19, 
			 "cosmo_dispersion_energy": -19.68, 
			 "cosmo_repulsion_energy": 1.45, 
			 "cosmo_total_nonelectrostatic_energy": 8.95, 
			 "SMD_solvation_energy": 5.6 
		},
		"coords": [
			{
				"x": -1.4527584282,
				"y": -3.850258263,
				"z": 0.3132050856,
				"element": "O" 
			},
			{
				"x": -0.7563584313,
				"y": -3.5058315637,
				"z": 1.4352343545,
				"element": "C" 
			},
			{
				"x": -0.6998240523,
				"y": -4.2113858445,
				"z": 2.4132511686,
				"element": "O" 
			},
			{
				"x": -0.0987129763,
				"y": -2.196265009,
				"z": 1.3014618167,
				"element": "C" 
			},
			{
				"x": 0.6354456922,
				"y": -1.6526529836,
				"z": 2.2641873016,
				"element": "N" 
			},
			{
				"x": 1.1040164211,
				"y": -0.4603139776,
				"z": 1.8551437867,
				"element": "N" 
			},
			{
				"x": 0.6530136097,
				"y": -0.2589356739,
				"z": 0.6154049764,
				"element": "C" 
			},
			{
				"x": -0.1261296389,
				"y": -1.3418447915,
				"z": 0.2061960239,
				"element": "N" 
			},
			{
				"x": -0.7175454009,
				"y": -1.3932936827,
				"z": -1.0374560963,
				"element": "C" 
			},
			{
				"x": -0.532025974,
				"y": -0.3474669781,
				"z": -1.8940541409,
				"element": "C" 
			},
			{
				"x": 0.2555481447,
				"y": 0.7763338768,
				"z": -1.5156236342,
				"element": "C" 
			},
			{
				"x": 0.8448505539,
				"y": 0.8288740973,
				"z": -0.2781115019,
				"element": "C" 
			},
			{
				"x": 1.6861661269,
				"y": 2.0034760676,
				"z": 0.1582181582,
				"element": "C" 
			},
			{
				"x": 1.171526819,
				"y": 2.5984981629,
				"z": 1.2480101855,
				"element": "F" 
			},
			{
				"x": 1.753580989,
				"y": 2.9339952364,
				"z": -0.8214206883,
				"element": "F" 
			},
			{
				"x": 2.9436291404,
				"y": 1.6268154986,
				"z": 0.4470772798,
				"element": "F" 
			},
			{
				"x": -1.843459198,
				"y": -4.7198788816,
				"z": 0.5025572937,
				"element": "H" 
			},
			{
				"x": -1.2999728045,
				"y": -2.2758690697,
				"z": -1.2549735123,
				"element": "H" 
			},
			{
				"x": -0.9952968483,
				"y": -0.3839886555,
				"z": -2.8727832627,
				"element": "H" 
			},
			{
				"x": 0.3927062557,
				"y": 1.5982924347,
				"z": -2.2077245949,
				"element": "H" 
			}
		],
		 "valence_orbital": [ 
			{
				"type": "occ",
				"energy": -0.33996,
				"method": "rhf"
			},
			{
				"type": "occ",
				"energy": -0.30088,
				"method": "rhf"
			},
			{
				"type": "occ",
				"energy": -0.30004,
				"method": "rhf"
			},
			{
				"type": "occ",
				"energy": -0.27068,
				"method": "rhf"
			},
			{
				"type": "occ",
				"energy": -0.25482,
				"method": "rhf"
			},
			{
				"type": "unocc",
				"energy": -0.07972,
				"method": "rhf"
			},
			{
				"type": "unocc",
				"energy": -0.06745,
				"method": "rhf"
			},
			{
				"type": "unocc",
				"energy": -0.00726,
				"method": "rhf"
			},
			{
				"type": "unocc",
				"energy": 0.05594,
				"method": "rhf"
			},
			{
				"type": "unocc",
				"energy": 0.07642,
				"method": "rhf"
			}
		],
		"cosmo_sigma_profile": { 
			"-0.025": 0.0,
			"-0.024": 0.0,
			"-0.023": 0.0,
			"-0.022": 0.0,
			"-0.021": 0.0,
			"-0.02": 0.0518031943797,
			"-0.019": 0.71366419819,
			"-0.018": 1.02154631759,
			"-0.017": 0.675305734209,
			"-0.016": 1.12798142622,
			"-0.015": 0.650601333148,
			"-0.014": 0.751474061011,
			"-0.013": 0.664492678928,
			"-0.012": 0.955242062349,
			"-0.011": 0.518033670111,
			"-0.01": 1.05368201985,
			"-0.009": 6.1362255518,
			"-0.008": 7.75201436205,
			"-0.007": 6.75577665843,
			"-0.006": 10.9174503346,
			"-0.005": 12.1129783715,
			"-0.004": 13.7340993217,
			"-0.003": 14.8178119391,
			"-0.002": 13.7878902593,
			"-0.001": 13.5358268943,
			"0.0": 11.7127809427,
			"0.001": 11.5822467375,
			"0.002": 26.4384391928,
			"0.003": 13.6056897435,
			"0.004": 5.08435677988,
			"0.005": 3.16517725037,
			"0.006": 3.20661971886,
			"0.007": 4.53972088244,
			"0.008": 4.13441568248,
			"0.009": 4.02315593252,
			"0.01": 6.79504525169,
			"0.011": 7.91857653214,
			"0.012": 4.15486431369,
			"0.013": 3.39942171127,
			"0.014": 2.28604113075,
			"0.015": 0.441625870664,
			"0.016": 0.0,
			"0.017": 0.0,
			"0.018": 0.0,
			"0.019": 0.0,
			"0.02": 0.0,
			"0.021": 0.0,
			"0.022": 0.0,
			"0.023": 0.0,
			"0.024": 0.0,
			"0.025": 0.0
		}
	}
}
