{
	 "smiles": "ClC(Cl)(Cl)C(=O)C1=CC(Br)=CN1", 
	 "Tm": 399.15, 
	 "num_atms": 15, 
	 "gaussian": { 
		 "optdone": 1, 
		 "sigma_profile": "yes", 
		 "theory": "DFT", 
		 "functional": "B3LYP", 
		 "basiset": "6-31G**", 
		 "properties": { 
			 "R2extent": 8204.4581, 
			 "electric_dipole_moment_norm": 3.3835703229, 
			 "electric_quadrupole_moment_norm": 9.1503384238, 
			 "total_energy": -4312.3633602, 
			 "HOMO_LUMO_gap": 0.15995, 
			 "cosmo_polarized_energy": -9.92, 
			 "cosmo_cavitation_energy": 27.54, 
			 "cosmo_dispersion_energy": -20.7, 
			 "cosmo_repulsion_energy": 1.66, 
			 "cosmo_total_nonelectrostatic_energy": 8.5, 
			 "SMD_solvation_energy": 3.4 
		},
		"coords": [
			{
				"x": 4.2998939023,
				"y": -3.8090722098,
				"z": -0.9944745519,
				"element": "Cl" 
			},
			{
				"x": 3.1729597265,
				"y": -2.4457946122,
				"z": -1.0873346786,
				"element": "C" 
			},
			{
				"x": 3.2608224797,
				"y": -1.487974141,
				"z": 0.4499506852,
				"element": "Cl" 
			},
			{
				"x": 3.6345295639,
				"y": -1.3793352222,
				"z": -2.4796895128,
				"element": "Cl" 
			},
			{
				"x": 1.6905854037,
				"y": -2.9607508631,
				"z": -1.2950597946,
				"element": "C" 
			},
			{
				"x": 1.5004009001,
				"y": -4.1575416773,
				"z": -1.3616573793,
				"element": "O" 
			},
			{
				"x": 0.6045426022,
				"y": -1.9956673954,
				"z": -1.3995666394,
				"element": "C" 
			},
			{
				"x": -0.7394154747,
				"y": -2.324997604,
				"z": -1.5829393848,
				"element": "C" 
			},
			{
				"x": -1.4544291452,
				"y": -1.1179597138,
				"z": -1.6318154099,
				"element": "C" 
			},
			{
				"x": -3.3140521373,
				"y": -0.9159222357,
				"z": -1.8625462503,
				"element": "Br" 
			},
			{
				"x": -0.5531082239,
				"y": -0.0722496904,
				"z": -1.4797285232,
				"element": "C" 
			},
			{
				"x": 0.6847547105,
				"y": -0.6146122229,
				"z": -1.3405447952,
				"element": "N" 
			},
			{
				"x": -1.1268861705,
				"y": -3.3282928678,
				"z": -1.667816954,
				"element": "H" 
			},
			{
				"x": -0.7186241232,
				"y": 0.9939022334,
				"z": -1.4634187613,
				"element": "H" 
			},
			{
				"x": 1.5338259859,
				"y": -0.0854317778,
				"z": -1.2137580499,
				"element": "H" 
			}
		],
		 "valence_orbital": [ 
			{
				"type": "occ",
				"energy": -0.32131,
				"method": "rhf"
			},
			{
				"type": "occ",
				"energy": -0.29823,
				"method": "rhf"
			},
			{
				"type": "occ",
				"energy": -0.28745,
				"method": "rhf"
			},
			{
				"type": "occ",
				"energy": -0.2688,
				"method": "rhf"
			},
			{
				"type": "occ",
				"energy": -0.24378,
				"method": "rhf"
			},
			{
				"type": "unocc",
				"energy": -0.08383,
				"method": "rhf"
			},
			{
				"type": "unocc",
				"energy": -0.05748,
				"method": "rhf"
			},
			{
				"type": "unocc",
				"energy": -0.01281,
				"method": "rhf"
			},
			{
				"type": "unocc",
				"energy": -0.00824,
				"method": "rhf"
			},
			{
				"type": "unocc",
				"energy": 0.0061,
				"method": "rhf"
			}
		],
		"cosmo_sigma_profile": { 
			"-0.025": 0.0,
			"-0.024": 0.0,
			"-0.023": 0.0,
			"-0.022": 0.0,
			"-0.021": 0.0,
			"-0.02": 0.0,
			"-0.019": 0.0,
			"-0.018": 0.0,
			"-0.017": 0.356841926459,
			"-0.016": 0.756623088207,
			"-0.015": 0.621954630667,
			"-0.014": 0.790270962013,
			"-0.013": 1.07194365284,
			"-0.012": 0.936721346974,
			"-0.011": 1.85138459248,
			"-0.01": 3.13989614617,
			"-0.009": 2.78246711999,
			"-0.008": 3.64528656952,
			"-0.007": 3.29123716078,
			"-0.006": 3.2569848514,
			"-0.005": 6.69160315696,
			"-0.004": 10.969300488,
			"-0.003": 12.7515671503,
			"-0.002": 15.7342269926,
			"-0.001": 17.5601637621,
			"0.0": 22.8070476985,
			"0.001": 30.3049317776,
			"0.002": 37.7719870075,
			"0.003": 21.6583434076,
			"0.004": 13.9467721806,
			"0.005": 4.04428054402,
			"0.006": 1.62261573387,
			"0.007": 2.48962975882,
			"0.008": 2.05866134226,
			"0.009": 3.00093452892,
			"0.01": 4.60453260727,
			"0.011": 1.1439308886,
			"0.012": 0.0,
			"0.013": 0.0,
			"0.014": 0.0,
			"0.015": 0.0,
			"0.016": 0.0,
			"0.017": 0.0,
			"0.018": 0.0,
			"0.019": 0.0,
			"0.02": 0.0,
			"0.021": 0.0,
			"0.022": 0.0,
			"0.023": 0.0,
			"0.024": 0.0,
			"0.025": 0.0
		}
	}
}
