{
	 "smiles": "OC1=C(Cl)C(Cl)=C(O)C(Cl)=C1Cl", 
	 "Tm": 512.15, 
	 "num_atms": 14, 
	 "gaussian": { 
		 "optdone": 1, 
		 "sigma_profile": "yes", 
		 "theory": "DFT", 
		 "functional": "B3LYP", 
		 "basiset": "6-31G**", 
		 "properties": { 
			 "R2extent": 4207.5192, 
			 "electric_dipole_moment_norm": 0.0, 
			 "electric_quadrupole_moment_norm": 12.1488717365, 
			 "total_energy": -2221.03565331, 
			 "HOMO_LUMO_gap": 0.18589, 
			 "cosmo_polarized_energy": -8.6, 
			 "cosmo_cavitation_energy": 25.35, 
			 "cosmo_dispersion_energy": -19.89, 
			 "cosmo_repulsion_energy": 1.58, 
			 "cosmo_total_nonelectrostatic_energy": 7.03, 
			 "SMD_solvation_energy": 4.1 
		},
		"coords": [
			{
				"x": -1.432052611,
				"y": -1.0339219393,
				"z": 2.0667321369,
				"element": "O" 
			},
			{
				"x": -0.3220614425,
				"y": -0.9831324717,
				"z": 1.2988850259,
				"element": "C" 
			},
			{
				"x": 0.7240864812,
				"y": -1.876295694,
				"z": 1.5777484717,
				"element": "C" 
			},
			{
				"x": 0.5341146423,
				"y": -2.9942953188,
				"z": 2.8909118796,
				"element": "Cl" 
			},
			{
				"x": 1.8884537904,
				"y": -1.8519650135,
				"z": 0.8031033241,
				"element": "C" 
			},
			{
				"x": 3.2089532549,
				"y": -2.9516339243,
				"z": 1.1255341077,
				"element": "Cl" 
			},
			{
				"x": 2.0451461281,
				"y": -0.9482550302,
				"z": -0.2604581575,
				"element": "C" 
			},
			{
				"x": 3.1551360038,
				"y": -0.8974658891,
				"z": -1.0283037844,
				"element": "O" 
			},
			{
				"x": 0.998998581,
				"y": -0.0550913509,
				"z": -0.5393210589,
				"element": "C" 
			},
			{
				"x": 1.1889703285,
				"y": 1.0629070948,
				"z": -1.8524840081,
				"element": "Cl" 
			},
			{
				"x": -0.165369043,
				"y": -0.0794227419,
				"z": 0.2353253682,
				"element": "C" 
			},
			{
				"x": -1.4858675428,
				"y": 1.0202495498,
				"z": -0.087107366,
				"element": "Cl" 
			},
			{
				"x": -2.0589674131,
				"y": -0.3630887852,
				"z": 1.7551578986,
				"element": "H" 
			},
			{
				"x": 3.7820588421,
				"y": -1.5682884857,
				"z": -0.7167238377,
				"element": "H" 
			}
		],
		 "valence_orbital": [ 
			{
				"type": "occ",
				"energy": -0.32816,
				"method": "rhf"
			},
			{
				"type": "occ",
				"energy": -0.31963,
				"method": "rhf"
			},
			{
				"type": "occ",
				"energy": -0.30893,
				"method": "rhf"
			},
			{
				"type": "occ",
				"energy": -0.25886,
				"method": "rhf"
			},
			{
				"type": "occ",
				"energy": -0.2316,
				"method": "rhf"
			},
			{
				"type": "unocc",
				"energy": -0.04571,
				"method": "rhf"
			},
			{
				"type": "unocc",
				"energy": -0.03675,
				"method": "rhf"
			},
			{
				"type": "unocc",
				"energy": -0.01422,
				"method": "rhf"
			},
			{
				"type": "unocc",
				"energy": 0.00722,
				"method": "rhf"
			},
			{
				"type": "unocc",
				"energy": 0.03395,
				"method": "rhf"
			}
		],
		"cosmo_sigma_profile": { 
			"-0.025": 0.0,
			"-0.024": 0.0,
			"-0.023": 0.0,
			"-0.022": 0.0,
			"-0.021": 0.0,
			"-0.02": 0.0,
			"-0.019": 0.0,
			"-0.018": 0.0,
			"-0.017": 0.072572722768,
			"-0.016": 0.99149024027,
			"-0.015": 1.69721451395,
			"-0.014": 1.41162940439,
			"-0.013": 1.53006105284,
			"-0.012": 1.7849074719,
			"-0.011": 1.78902039679,
			"-0.01": 2.00508142768,
			"-0.009": 1.90039888178,
			"-0.008": 2.07359532073,
			"-0.007": 2.09923612551,
			"-0.006": 2.34889894379,
			"-0.005": 3.25868469618,
			"-0.004": 7.55225283144,
			"-0.003": 11.0638738544,
			"-0.002": 19.708847341,
			"-0.001": 31.7644535573,
			"0.0": 18.5712859152,
			"0.001": 16.6529780619,
			"0.002": 19.5119640644,
			"0.003": 28.7502021012,
			"0.004": 15.1917018135,
			"0.005": 4.48742081907,
			"0.006": 3.93741888923,
			"0.007": 2.63149295008,
			"0.008": 4.27718650164,
			"0.009": 4.34913016074,
			"0.01": 1.56130278452,
			"0.011": 0.0,
			"0.012": 0.0,
			"0.013": 0.0,
			"0.014": 0.0,
			"0.015": 0.0,
			"0.016": 0.0,
			"0.017": 0.0,
			"0.018": 0.0,
			"0.019": 0.0,
			"0.02": 0.0,
			"0.021": 0.0,
			"0.022": 0.0,
			"0.023": 0.0,
			"0.024": 0.0,
			"0.025": 0.0
		}
	}
}
