{
	 "smiles": "CCCCOC(=O)C(C)=C", 
	 "Tm": 198.15, 
	 "num_atms": 24, 
	 "gaussian": { 
		 "optdone": 1, 
		 "sigma_profile": "yes", 
		 "theory": "DFT", 
		 "functional": "B3LYP", 
		 "basiset": "6-31G**", 
		 "properties": { 
			 "R2extent": 2323.4863, 
			 "electric_dipole_moment_norm": 1.7948678475, 
			 "electric_quadrupole_moment_norm": 10.5098945375, 
			 "total_energy": -463.7421536, 
			 "HOMO_LUMO_gap": 0.22894, 
			 "cosmo_polarized_energy": -6.03, 
			 "cosmo_cavitation_energy": 27.1, 
			 "cosmo_dispersion_energy": -18.72, 
			 "cosmo_repulsion_energy": 1.54, 
			 "cosmo_total_nonelectrostatic_energy": 9.93, 
			 "SMD_solvation_energy": 6.24 
		},
		"coords": [
			{
				"x": 0.8581575885,
				"y": 0.7609405737,
				"z": 2.1919350507,
				"element": "C" 
			},
			{
				"x": -0.2792508136,
				"y": -0.0136607939,
				"z": 2.8684899666,
				"element": "C" 
			},
			{
				"x": -0.9750839456,
				"y": -1.0692031612,
				"z": 1.9911262702,
				"element": "C" 
			},
			{
				"x": -1.8558632775,
				"y": -0.5348928937,
				"z": 0.8693409329,
				"element": "C" 
			},
			{
				"x": -1.017826277,
				"y": -0.0012630333,
				"z": -0.180934065,
				"element": "O" 
			},
			{
				"x": -1.6714666389,
				"y": 0.5256593406,
				"z": -1.2411098735,
				"element": "C" 
			},
			{
				"x": -2.8851408445,
				"y": 0.569609286,
				"z": -1.3194000855,
				"element": "O" 
			},
			{
				"x": -0.7616212504,
				"y": 1.0491575005,
				"z": -2.3069771613,
				"element": "C" 
			},
			{
				"x": -1.4653605806,
				"y": 1.6791018529,
				"z": -3.4794516457,
				"element": "C" 
			},
			{
				"x": 0.5690086363,
				"y": 0.9431478264,
				"z": -2.2011517705,
				"element": "C" 
			},
			{
				"x": 0.5007149413,
				"y": 1.3464108048,
				"z": 1.3415621682,
				"element": "H" 
			},
			{
				"x": 1.63044428,
				"y": 0.0772767116,
				"z": 1.8204194615,
				"element": "H" 
			},
			{
				"x": 1.3352879445,
				"y": 1.4460137564,
				"z": 2.9008259217,
				"element": "H" 
			},
			{
				"x": 0.1179132498,
				"y": -0.5218794465,
				"z": 3.7563904639,
				"element": "H" 
			},
			{
				"x": -1.0351005892,
				"y": 0.6921008713,
				"z": 3.2399955507,
				"element": "H" 
			},
			{
				"x": -1.6267028096,
				"y": -1.6797205715,
				"z": 2.6298788087,
				"element": "H" 
			},
			{
				"x": -0.2334247782,
				"y": -1.7561075293,
				"z": 1.5630837134,
				"element": "H" 
			},
			{
				"x": -2.5292073057,
				"y": 0.2545413122,
				"z": 1.2214695565,
				"element": "H" 
			},
			{
				"x": -2.4791210743,
				"y": -1.3277964673,
				"z": 0.4427333685,
				"element": "H" 
			},
			{
				"x": -2.0868992909,
				"y": 2.5203468455,
				"z": -3.1554163001,
				"element": "H" 
			},
			{
				"x": -2.1426023565,
				"y": 0.9634486567,
				"z": -3.9567586046,
				"element": "H" 
			},
			{
				"x": -0.7464302762,
				"y": 2.0356328255,
				"z": -4.2209358776,
				"element": "H" 
			},
			{
				"x": 1.2235380397,
				"y": 1.3221176711,
				"z": -2.9809139989,
				"element": "H" 
			},
			{
				"x": 1.0343374286,
				"y": 0.4766180615,
				"z": -1.3410018508,
				"element": "H" 
			}
		],
		 "valence_orbital": [ 
			{
				"type": "occ",
				"energy": -0.33085,
				"method": "rhf"
			},
			{
				"type": "occ",
				"energy": -0.32417,
				"method": "rhf"
			},
			{
				"type": "occ",
				"energy": -0.2939,
				"method": "rhf"
			},
			{
				"type": "occ",
				"energy": -0.26784,
				"method": "rhf"
			},
			{
				"type": "occ",
				"energy": -0.2664,
				"method": "rhf"
			},
			{
				"type": "unocc",
				"energy": -0.03746,
				"method": "rhf"
			},
			{
				"type": "unocc",
				"energy": 0.08364,
				"method": "rhf"
			},
			{
				"type": "unocc",
				"energy": 0.08723,
				"method": "rhf"
			},
			{
				"type": "unocc",
				"energy": 0.11187,
				"method": "rhf"
			},
			{
				"type": "unocc",
				"energy": 0.12422,
				"method": "rhf"
			}
		],
		"cosmo_sigma_profile": { 
			"-0.025": 0.0,
			"-0.024": 0.0,
			"-0.023": 0.0,
			"-0.022": 0.0,
			"-0.021": 0.0,
			"-0.02": 0.0,
			"-0.019": 0.0,
			"-0.018": 0.0,
			"-0.017": 0.0,
			"-0.016": 0.0,
			"-0.015": 0.0,
			"-0.014": 0.0,
			"-0.013": 0.0,
			"-0.012": 0.0,
			"-0.011": 0.0,
			"-0.01": 0.0,
			"-0.009": 0.0,
			"-0.008": 0.0,
			"-0.007": 0.239012341152,
			"-0.006": 2.12903871806,
			"-0.005": 6.78025146514,
			"-0.004": 17.408175752,
			"-0.003": 22.2999035163,
			"-0.002": 31.1174121717,
			"-0.001": 30.1044312007,
			"0.0": 31.6301610308,
			"0.001": 22.944074368,
			"0.002": 13.9374104523,
			"0.003": 8.01559666839,
			"0.004": 5.18537697131,
			"0.005": 2.89396666577,
			"0.006": 1.85402738582,
			"0.007": 1.72331039266,
			"0.008": 1.47240330027,
			"0.009": 1.66322388648,
			"0.01": 1.76592728651,
			"0.011": 2.23268936782,
			"0.012": 4.47854542636,
			"0.013": 1.65849680852,
			"0.014": 0.0,
			"0.015": 0.0,
			"0.016": 0.0,
			"0.017": 0.0,
			"0.018": 0.0,
			"0.019": 0.0,
			"0.02": 0.0,
			"0.021": 0.0,
			"0.022": 0.0,
			"0.023": 0.0,
			"0.024": 0.0,
			"0.025": 0.0
		}
	}
}
