{
	 "smiles": "NC1=NN=C(CC2=CC=C(F)C=C2)S1", 
	 "Tm": 444.15, 
	 "num_atms": 22, 
	 "gaussian": { 
		 "optdone": 1, 
		 "sigma_profile": "yes", 
		 "theory": "DFT", 
		 "functional": "B3LYP", 
		 "basiset": "6-31G**", 
		 "properties": { 
			 "R2extent": 4051.2214, 
			 "electric_dipole_moment_norm": 2.82870225192, 
			 "electric_quadrupole_moment_norm": 16.2699267912, 
			 "total_energy": -1010.03059234, 
			 "HOMO_LUMO_gap": 0.20802, 
			 "cosmo_polarized_energy": -15.38, 
			 "cosmo_cavitation_energy": 29.27, 
			 "cosmo_dispersion_energy": -21.26, 
			 "cosmo_repulsion_energy": 1.62, 
			 "cosmo_total_nonelectrostatic_energy": 9.64, 
			 "SMD_solvation_energy": 3.03 
		},
		"coords": [
			{
				"x": 4.2645473987,
				"y": 1.2739293326,
				"z": 0.6105613997,
				"element": "N" 
			},
			{
				"x": 3.0790819442,
				"y": 0.9820454149,
				"z": -0.0205626604,
				"element": "C" 
			},
			{
				"x": 2.9556893107,
				"y": 0.0405444817,
				"z": -0.9169647,
				"element": "N" 
			},
			{
				"x": 1.7016342141,
				"y": 0.0005715216,
				"z": -1.4680569472,
				"element": "N" 
			},
			{
				"x": 0.8799218886,
				"y": 0.8836712917,
				"z": -0.9930751744,
				"element": "C" 
			},
			{
				"x": -0.558987503,
				"y": 0.9983749313,
				"z": -1.4109827543,
				"element": "C" 
			},
			{
				"x": -1.5472843605,
				"y": 0.5369862511,
				"z": -0.3502752297,
				"element": "C" 
			},
			{
				"x": -1.4940487064,
				"y": -0.7754639394,
				"z": 0.1417477754,
				"element": "C" 
			},
			{
				"x": -2.4001812855,
				"y": -1.2183687516,
				"z": 1.1026243968,
				"element": "C" 
			},
			{
				"x": -3.3645723197,
				"y": -0.3312780239,
				"z": 1.5714773972,
				"element": "C" 
			},
			{
				"x": -4.2448701854,
				"y": -0.7541823221,
				"z": 2.50343991,
				"element": "F" 
			},
			{
				"x": -3.4464836228,
				"y": 0.9752842924,
				"z": 1.1085158462,
				"element": "C" 
			},
			{
				"x": -2.5296570641,
				"y": 1.4011515096,
				"z": 0.1448941123,
				"element": "C" 
			},
			{
				"x": 1.6142372635,
				"y": 1.9260859229,
				"z": 0.2412003711,
				"element": "S" 
			},
			{
				"x": 4.9655357188,
				"y": 0.5572891962,
				"z": 0.4681471751,
				"element": "H" 
			},
			{
				"x": 4.2056099235,
				"y": 1.6038308773,
				"z": 1.5633175908,
				"element": "H" 
			},
			{
				"x": -0.7842063471,
				"y": 2.0311211383,
				"z": -1.6989430976,
				"element": "H" 
			},
			{
				"x": -0.6534746398,
				"y": 0.3840613678,
				"z": -2.3130382295,
				"element": "H" 
			},
			{
				"x": -0.731611008,
				"y": -1.4537294769,
				"z": -0.2315298788,
				"element": "H" 
			},
			{
				"x": -2.3708913674,
				"y": -2.2312948917,
				"z": 1.4895457144,
				"element": "H" 
			},
			{
				"x": -4.2123139123,
				"y": 1.636800123,
				"z": 1.4987581013,
				"element": "H" 
			},
			{
				"x": -2.5859753402,
				"y": 2.4211697532,
				"z": -0.2265011185,
				"element": "H" 
			}
		],
		 "valence_orbital": [ 
			{
				"type": "occ",
				"energy": -0.28789,
				"method": "rhf"
			},
			{
				"type": "occ",
				"energy": -0.26294,
				"method": "rhf"
			},
			{
				"type": "occ",
				"energy": -0.25916,
				"method": "rhf"
			},
			{
				"type": "occ",
				"energy": -0.24326,
				"method": "rhf"
			},
			{
				"type": "occ",
				"energy": -0.23145,
				"method": "rhf"
			},
			{
				"type": "unocc",
				"energy": -0.02343,
				"method": "rhf"
			},
			{
				"type": "unocc",
				"energy": -0.016,
				"method": "rhf"
			},
			{
				"type": "unocc",
				"energy": -0.00147,
				"method": "rhf"
			},
			{
				"type": "unocc",
				"energy": 0.00164,
				"method": "rhf"
			},
			{
				"type": "unocc",
				"energy": 0.04654,
				"method": "rhf"
			}
		],
		"cosmo_sigma_profile": { 
			"-0.025": 0.0,
			"-0.024": 0.0,
			"-0.023": 0.0,
			"-0.022": 0.0,
			"-0.021": 0.0,
			"-0.02": 0.0,
			"-0.019": 0.0,
			"-0.018": 0.0,
			"-0.017": 0.0,
			"-0.016": 0.00141709454719,
			"-0.015": 1.06160246212,
			"-0.014": 2.41330183155,
			"-0.013": 2.93431239223,
			"-0.012": 3.15291165265,
			"-0.011": 2.59677958562,
			"-0.01": 1.74522070013,
			"-0.009": 1.44183664665,
			"-0.008": 2.40863005392,
			"-0.007": 8.2174892094,
			"-0.006": 13.2868952115,
			"-0.005": 12.016385263,
			"-0.004": 13.5270725271,
			"-0.003": 12.8855012762,
			"-0.002": 11.4492081602,
			"-0.001": 12.4697733079,
			"0.0": 18.1239281878,
			"0.001": 21.9089174548,
			"0.002": 18.8284963594,
			"0.003": 19.6035932543,
			"0.004": 22.0517589624,
			"0.005": 8.39067142557,
			"0.006": 2.04622458167,
			"0.007": 2.22548124923,
			"0.008": 2.66631113493,
			"0.009": 2.5096600949,
			"0.01": 3.16914162407,
			"0.011": 2.59905439646,
			"0.012": 3.40655707604,
			"0.013": 2.52805401592,
			"0.014": 2.70894040082,
			"0.015": 1.81972851418,
			"0.016": 0.31469838484,
			"0.017": 0.0,
			"0.018": 0.0,
			"0.019": 0.0,
			"0.02": 0.0,
			"0.021": 0.0,
			"0.022": 0.0,
			"0.023": 0.0,
			"0.024": 0.0,
			"0.025": 0.0
		}
	}
}
