{
	 "smiles": "CC1CC2=CC(=CC=C2O1)C(C)=NO", 
	 "Tm": 357.15, 
	 "num_atms": 27, 
	 "gaussian": { 
		 "optdone": 1, 
		 "sigma_profile": "yes", 
		 "theory": "DFT", 
		 "functional": "B3LYP", 
		 "basiset": "6-31G**", 
		 "properties": { 
			 "R2extent": 3994.9902, 
			 "electric_dipole_moment_norm": 1.52522309844, 
			 "electric_quadrupole_moment_norm": 7.39268719411, 
			 "total_energy": -632.15664756, 
			 "HOMO_LUMO_gap": 0.17574, 
			 "cosmo_polarized_energy": -9.92, 
			 "cosmo_cavitation_energy": 29.96, 
			 "cosmo_dispersion_energy": -22.32, 
			 "cosmo_repulsion_energy": 1.77, 
			 "cosmo_total_nonelectrostatic_energy": 9.41, 
			 "SMD_solvation_energy": 5.31 
		},
		"coords": [
			{
				"x": -1.7560302427,
				"y": -0.9816738806,
				"z": -3.7773457957,
				"element": "C" 
			},
			{
				"x": -0.5527288702,
				"y": -0.376127433,
				"z": -3.0784426906,
				"element": "C" 
			},
			{
				"x": 0.2561091386,
				"y": -1.3425534966,
				"z": -2.1736486984,
				"element": "C" 
			},
			{
				"x": 0.5264457212,
				"y": -0.484213663,
				"z": -0.9591974496,
				"element": "C" 
			},
			{
				"x": 1.3284009693,
				"y": -0.6746558518,
				"z": 0.1495455799,
				"element": "C" 
			},
			{
				"x": 1.343624952,
				"y": 0.2941344937,
				"z": 1.1802961022,
				"element": "C" 
			},
			{
				"x": 0.5241720783,
				"y": 1.4281453706,
				"z": 1.0485939371,
				"element": "C" 
			},
			{
				"x": -0.2933873496,
				"y": 1.6298580087,
				"z": -0.0687068625,
				"element": "C" 
			},
			{
				"x": -0.2752477187,
				"y": 0.6604666812,
				"z": -1.0624585412,
				"element": "C" 
			},
			{
				"x": -1.0125721462,
				"y": 0.7032636499,
				"z": -2.2065964787,
				"element": "O" 
			},
			{
				"x": 2.2073246478,
				"y": 0.1133438587,
				"z": 2.3741869021,
				"element": "C" 
			},
			{
				"x": 2.1710236479,
				"y": 1.1294979757,
				"z": 3.4884110707,
				"element": "C" 
			},
			{
				"x": 2.9577935727,
				"y": -0.935199372,
				"z": 2.3817642298,
				"element": "N" 
			},
			{
				"x": 3.7448112627,
				"y": -1.0415481661,
				"z": 3.5418254826,
				"element": "O" 
			},
			{
				"x": -2.4360642114,
				"y": -1.4325517301,
				"z": -3.0478780884,
				"element": "H" 
			},
			{
				"x": -2.3047785559,
				"y": -0.2188946156,
				"z": -4.3367569926,
				"element": "H" 
			},
			{
				"x": -1.4343296527,
				"y": -1.7581722019,
				"z": -4.4792032641,
				"element": "H" 
			},
			{
				"x": 0.1165374088,
				"y": 0.088825511,
				"z": -3.8151683763,
				"element": "H" 
			},
			{
				"x": 1.163270186,
				"y": -1.6977148494,
				"z": -2.6718731135,
				"element": "H" 
			},
			{
				"x": -0.3401492686,
				"y": -2.226545136,
				"z": -1.90933931,
				"element": "H" 
			},
			{
				"x": 1.9518209979,
				"y": -1.5562522036,
				"z": 0.2500274776,
				"element": "H" 
			},
			{
				"x": 0.5203915508,
				"y": 2.1834720963,
				"z": 1.8267168393,
				"element": "H" 
			},
			{
				"x": -0.917111688,
				"y": 2.5121344792,
				"z": -0.1616799127,
				"element": "H" 
			},
			{
				"x": 2.4865406605,
				"y": 2.1129153132,
				"z": 3.1229271549,
				"element": "H" 
			},
			{
				"x": 2.8294433543,
				"y": 0.8325863358,
				"z": 4.3019789357,
				"element": "H" 
			},
			{
				"x": 1.153083832,
				"y": 1.2368987672,
				"z": 3.8776102221,
				"element": "H" 
			},
			{
				"x": 4.2250057232,
				"y": -1.8630399415,
				"z": 3.3771116402,
				"element": "H" 
			}
		],
		 "valence_orbital": [ 
			{
				"type": "occ",
				"energy": -0.31547,
				"method": "rhf"
			},
			{
				"type": "occ",
				"energy": -0.26327,
				"method": "rhf"
			},
			{
				"type": "occ",
				"energy": -0.25733,
				"method": "rhf"
			},
			{
				"type": "occ",
				"energy": -0.24219,
				"method": "rhf"
			},
			{
				"type": "occ",
				"energy": -0.19782,
				"method": "rhf"
			},
			{
				"type": "unocc",
				"energy": -0.02208,
				"method": "rhf"
			},
			{
				"type": "unocc",
				"energy": -5e-05,
				"method": "rhf"
			},
			{
				"type": "unocc",
				"energy": 0.06314,
				"method": "rhf"
			},
			{
				"type": "unocc",
				"energy": 0.08222,
				"method": "rhf"
			},
			{
				"type": "unocc",
				"energy": 0.09128,
				"method": "rhf"
			}
		],
		"cosmo_sigma_profile": { 
			"-0.025": 0.0,
			"-0.024": 0.0,
			"-0.023": 0.0,
			"-0.022": 0.0,
			"-0.021": 0.0,
			"-0.02": 0.0,
			"-0.019": 0.0,
			"-0.018": 0.0,
			"-0.017": 0.576443895632,
			"-0.016": 0.900099337327,
			"-0.015": 1.0287546621,
			"-0.014": 0.780397554238,
			"-0.013": 1.07040196114,
			"-0.012": 0.611302196255,
			"-0.011": 0.300640631368,
			"-0.01": 0.286997750821,
			"-0.009": 0.913268576618,
			"-0.008": 0.383140839544,
			"-0.007": 1.27035232038,
			"-0.006": 3.90446106622,
			"-0.005": 17.3224377726,
			"-0.004": 26.6850501867,
			"-0.003": 24.8309670123,
			"-0.002": 21.5422995784,
			"-0.001": 19.6082088867,
			"0.0": 18.2549978004,
			"0.001": 12.0234885185,
			"0.002": 10.6243203111,
			"0.003": 12.1271968613,
			"0.004": 15.2815426274,
			"0.005": 15.9194108542,
			"0.006": 8.33454737071,
			"0.007": 5.34229271023,
			"0.008": 5.28010225015,
			"0.009": 4.96791624715,
			"0.01": 4.15232411253,
			"0.011": 1.91491701385,
			"0.012": 0.287850668028,
			"0.013": 0.0,
			"0.014": 0.0,
			"0.015": 0.0,
			"0.016": 0.0,
			"0.017": 0.0,
			"0.018": 0.0,
			"0.019": 0.0,
			"0.02": 0.0,
			"0.021": 0.0,
			"0.022": 0.0,
			"0.023": 0.0,
			"0.024": 0.0,
			"0.025": 0.0
		}
	}
}
