{
	 "smiles": "O=C(NC1=CC=CC=C1)C1=CC=CN=C1", 
	 "Tm": 392.65, 
	 "num_atms": 25, 
	 "gaussian": { 
		 "optdone": 1, 
		 "sigma_profile": "yes", 
		 "theory": "DFT", 
		 "functional": "B3LYP", 
		 "basiset": "6-31G**", 
		 "properties": { 
			 "R2extent": 3570.4202, 
			 "electric_dipole_moment_norm": 4.86674147043, 
			 "electric_quadrupole_moment_norm": 10.5688808083, 
			 "total_energy": -648.034448496, 
			 "HOMO_LUMO_gap": 0.18379, 
			 "cosmo_polarized_energy": -13.6, 
			 "cosmo_cavitation_energy": 29.6, 
			 "cosmo_dispersion_energy": -21.03, 
			 "cosmo_repulsion_energy": 1.65, 
			 "cosmo_total_nonelectrostatic_energy": 10.22, 
			 "SMD_solvation_energy": 4.27 
		},
		"coords": [
			{
				"x": 3.203588356,
				"y": -0.6882548116,
				"z": 0.2086156243,
				"element": "O" 
			},
			{
				"x": 1.992097368,
				"y": -0.8725267765,
				"z": 0.2315691668,
				"element": "C" 
			},
			{
				"x": 1.3537428433,
				"y": -1.1157015123,
				"z": 1.4358094125,
				"element": "N" 
			},
			{
				"x": -0.0019570987,
				"y": -0.9438672684,
				"z": 1.8195618194,
				"element": "C" 
			},
			{
				"x": -0.5306719597,
				"y": -1.7971020339,
				"z": 2.7984831156,
				"element": "C" 
			},
			{
				"x": -1.8437818173,
				"y": -1.6340337372,
				"z": 3.2373876944,
				"element": "C" 
			},
			{
				"x": -2.6495817665,
				"y": -0.6323132785,
				"z": 2.6927054985,
				"element": "C" 
			},
			{
				"x": -2.1231825811,
				"y": 0.217710296,
				"z": 1.7180841758,
				"element": "C" 
			},
			{
				"x": -0.8029873383,
				"y": 0.0783664243,
				"z": 1.2912459096,
				"element": "C" 
			},
			{
				"x": 1.1994691884,
				"y": -0.9172479842,
				"z": -1.0399013939,
				"element": "C" 
			},
			{
				"x": 0.1106917266,
				"y": -1.7691520428,
				"z": -1.2590099545,
				"element": "C" 
			},
			{
				"x": -0.4805438225,
				"y": -1.7874176736,
				"z": -2.519696759,
				"element": "C" 
			},
			{
				"x": 0.030542526,
				"y": -0.9464215175,
				"z": -3.5097191606,
				"element": "C" 
			},
			{
				"x": 1.0756724145,
				"y": -0.1288971305,
				"z": -3.3228971626,
				"element": "N" 
			},
			{
				"x": 1.647065462,
				"y": -0.1348970541,
				"z": -2.1153286749,
				"element": "C" 
			},
			{
				"x": 2.0244118418,
				"y": -1.2128883189,
				"z": 2.1894760347,
				"element": "H" 
			},
			{
				"x": 0.0920476148,
				"y": -2.5886785032,
				"z": 3.2061049434,
				"element": "H" 
			},
			{
				"x": -2.2392303905,
				"y": -2.2991226377,
				"z": 3.9995580285,
				"element": "H" 
			},
			{
				"x": -3.6746602066,
				"y": -0.5108965973,
				"z": 3.028922137,
				"element": "H" 
			},
			{
				"x": -2.735771486,
				"y": 1.0104070683,
				"z": 1.2985601138,
				"element": "H" 
			},
			{
				"x": -0.3909613873,
				"y": 0.7633678194,
				"z": 0.5586918211,
				"element": "H" 
			},
			{
				"x": -0.2577417235,
				"y": -2.4120858952,
				"z": -0.4667778738,
				"element": "H" 
			},
			{
				"x": -1.3196947469,
				"y": -2.4414228013,
				"z": -2.7344092462,
				"element": "H" 
			},
			{
				"x": -0.4158636725,
				"y": -0.9328829328,
				"z": -4.5026404014,
				"element": "H" 
			},
			{
				"x": 2.511100656,
				"y": 0.5096588995,
				"z": -1.9742948685,
				"element": "H" 
			}
		],
		 "valence_orbital": [ 
			{
				"type": "occ",
				"energy": -0.27637,
				"method": "rhf"
			},
			{
				"type": "occ",
				"energy": -0.26452,
				"method": "rhf"
			},
			{
				"type": "occ",
				"energy": -0.26053,
				"method": "rhf"
			},
			{
				"type": "occ",
				"energy": -0.25171,
				"method": "rhf"
			},
			{
				"type": "occ",
				"energy": -0.23449,
				"method": "rhf"
			},
			{
				"type": "unocc",
				"energy": -0.0507,
				"method": "rhf"
			},
			{
				"type": "unocc",
				"energy": -0.02948,
				"method": "rhf"
			},
			{
				"type": "unocc",
				"energy": -0.01403,
				"method": "rhf"
			},
			{
				"type": "unocc",
				"energy": -0.00976,
				"method": "rhf"
			},
			{
				"type": "unocc",
				"energy": 0.04508,
				"method": "rhf"
			}
		],
		"cosmo_sigma_profile": { 
			"-0.025": 0.0,
			"-0.024": 0.0,
			"-0.023": 0.0,
			"-0.022": 0.0,
			"-0.021": 0.0,
			"-0.02": 0.0,
			"-0.019": 0.0,
			"-0.018": 0.0,
			"-0.017": 0.0,
			"-0.016": 0.0,
			"-0.015": 0.127176067144,
			"-0.014": 0.807902478377,
			"-0.013": 0.96125205824,
			"-0.012": 1.26060429425,
			"-0.011": 1.06469599134,
			"-0.01": 0.96177574636,
			"-0.009": 0.841019554834,
			"-0.008": 1.65870773169,
			"-0.007": 7.42742400913,
			"-0.006": 18.706066675,
			"-0.005": 18.5699307159,
			"-0.004": 18.8564778959,
			"-0.003": 16.7878295033,
			"-0.002": 15.0077777691,
			"-0.001": 13.5490572526,
			"0.0": 16.3833763375,
			"0.001": 22.2238146325,
			"0.002": 16.392161116,
			"0.003": 13.6539771803,
			"0.004": 12.3427083128,
			"0.005": 10.1539535128,
			"0.006": 3.05990018705,
			"0.007": 2.90314032021,
			"0.008": 3.46022983646,
			"0.009": 2.29941859005,
			"0.01": 1.89179052796,
			"0.011": 3.14826575124,
			"0.012": 4.23447308161,
			"0.013": 5.65861410939,
			"0.014": 1.54622806086,
			"0.015": 0.823447313614,
			"0.016": 0.732682775844,
			"0.017": 0.0874191034467,
			"0.018": 0.0,
			"0.019": 0.0,
			"0.02": 0.0,
			"0.021": 0.0,
			"0.022": 0.0,
			"0.023": 0.0,
			"0.024": 0.0,
			"0.025": 0.0
		}
	}
}
