{
	 "smiles": "COC1=C(OC)C=C(CCN)C=C1", 
	 "Tm": 286.65, 
	 "num_atms": 28, 
	 "gaussian": { 
		 "optdone": 1, 
		 "sigma_profile": "yes", 
		 "theory": "DFT", 
		 "functional": "B3LYP", 
		 "basiset": "6-31G**", 
		 "properties": { 
			 "R2extent": 3105.4625, 
			 "electric_dipole_moment_norm": 1.37040888424, 
			 "electric_quadrupole_moment_norm": 6.13672164515, 
			 "total_energy": -595.270564664, 
			 "HOMO_LUMO_gap": 0.22207, 
			 "cosmo_polarized_energy": -8.8, 
			 "cosmo_cavitation_energy": 30.45, 
			 "cosmo_dispersion_energy": -21.64, 
			 "cosmo_repulsion_energy": 1.76, 
			 "cosmo_total_nonelectrostatic_energy": 10.57, 
			 "SMD_solvation_energy": 5.27 
		},
		"coords": [
			{
				"x": 1.3772601371,
				"y": 0.1790384156,
				"z": -3.4475755451,
				"element": "C" 
			},
			{
				"x": 0.8448683012,
				"y": -0.9533364374,
				"z": -2.7516893049,
				"element": "O" 
			},
			{
				"x": 0.1260674521,
				"y": -0.6458803756,
				"z": -1.6157073656,
				"element": "C" 
			},
			{
				"x": 0.7532598651,
				"y": -0.1474558108,
				"z": -0.4577414047,
				"element": "C" 
			},
			{
				"x": 2.1078528241,
				"y": 0.1082378642,
				"z": -0.4260782096,
				"element": "O" 
			},
			{
				"x": 2.9389806846,
				"y": -1.0576145914,
				"z": -0.4659619973,
				"element": "C" 
			},
			{
				"x": -0.0098297748,
				"y": 0.1323906898,
				"z": 0.6753221983,
				"element": "C" 
			},
			{
				"x": -1.3944877071,
				"y": -0.086807029,
				"z": 0.699036591,
				"element": "C" 
			},
			{
				"x": -2.2096836106,
				"y": 0.2586210763,
				"z": 1.9278705161,
				"element": "C" 
			},
			{
				"x": -2.6876244496,
				"y": 1.7228691166,
				"z": 1.9495168857,
				"element": "C" 
			},
			{
				"x": -3.6219849179,
				"y": 1.9823018094,
				"z": 0.8517898921,
				"element": "N" 
			},
			{
				"x": -2.000719147,
				"y": -0.6089827553,
				"z": -0.4519142403,
				"element": "C" 
			},
			{
				"x": -1.2486599058,
				"y": -0.8788975568,
				"z": -1.5967747533,
				"element": "C" 
			},
			{
				"x": 1.9170719663,
				"y": -0.2171347361,
				"z": -4.3103546023,
				"element": "H" 
			},
			{
				"x": 2.0617601069,
				"y": 0.7518256798,
				"z": -2.8140057984,
				"element": "H" 
			},
			{
				"x": 0.5697267781,
				"y": 0.8350182985,
				"z": -3.7972003647,
				"element": "H" 
			},
			{
				"x": 3.9703055828,
				"y": -0.6994449866,
				"z": -0.4386092159,
				"element": "H" 
			},
			{
				"x": 2.7717889755,
				"y": -1.6362960888,
				"z": -1.3796533982,
				"element": "H" 
			},
			{
				"x": 2.7545967009,
				"y": -1.6952104867,
				"z": 0.4079896716,
				"element": "H" 
			},
			{
				"x": 0.5070033577,
				"y": 0.5203077098,
				"z": 1.5491029645,
				"element": "H" 
			},
			{
				"x": -3.0921890429,
				"y": -0.3877168351,
				"z": 1.9824737282,
				"element": "H" 
			},
			{
				"x": -1.6123727408,
				"y": 0.0772573053,
				"z": 2.8293638038,
				"element": "H" 
			},
			{
				"x": -3.21837443,
				"y": 1.9005347428,
				"z": 2.8927505588,
				"element": "H" 
			},
			{
				"x": -1.8007800751,
				"y": 2.3821230519,
				"z": 1.9539013369,
				"element": "H" 
			},
			{
				"x": -3.9639698849,
				"y": 2.9383303809,
				"z": 0.9063550842,
				"element": "H" 
			},
			{
				"x": -3.1310693248,
				"y": 1.9028359787,
				"z": -0.0360895037,
				"element": "H" 
			},
			{
				"x": -3.0705321176,
				"y": -0.797209196,
				"z": -0.4530990541,
				"element": "H" 
			},
			{
				"x": -1.7129656035,
				"y": -1.2778052339,
				"z": -2.4935184731,
				"element": "H" 
			}
		],
		 "valence_orbital": [ 
			{
				"type": "occ",
				"energy": -0.29108,
				"method": "rhf"
			},
			{
				"type": "occ",
				"energy": -0.26069,
				"method": "rhf"
			},
			{
				"type": "occ",
				"energy": -0.23891,
				"method": "rhf"
			},
			{
				"type": "occ",
				"energy": -0.23147,
				"method": "rhf"
			},
			{
				"type": "occ",
				"energy": -0.22041,
				"method": "rhf"
			},
			{
				"type": "unocc",
				"energy": 0.00166,
				"method": "rhf"
			},
			{
				"type": "unocc",
				"energy": 0.00568,
				"method": "rhf"
			},
			{
				"type": "unocc",
				"energy": 0.08759,
				"method": "rhf"
			},
			{
				"type": "unocc",
				"energy": 0.09627,
				"method": "rhf"
			},
			{
				"type": "unocc",
				"energy": 0.11668,
				"method": "rhf"
			}
		],
		"cosmo_sigma_profile": { 
			"-0.025": 0.0,
			"-0.024": 0.0,
			"-0.023": 0.0,
			"-0.022": 0.0,
			"-0.021": 0.0,
			"-0.02": 0.0,
			"-0.019": 0.0,
			"-0.018": 0.0,
			"-0.017": 0.0,
			"-0.016": 0.0,
			"-0.015": 0.0,
			"-0.014": 0.0,
			"-0.013": 0.0,
			"-0.012": 0.0,
			"-0.011": 0.0,
			"-0.01": 0.525107480092,
			"-0.009": 1.36595572746,
			"-0.008": 1.87907265911,
			"-0.007": 2.19622374507,
			"-0.006": 5.40119166349,
			"-0.005": 13.0558768364,
			"-0.004": 20.2927026825,
			"-0.003": 31.0837795472,
			"-0.002": 32.3796409316,
			"-0.001": 24.8891896854,
			"0.0": 23.2323535782,
			"0.001": 13.1789059682,
			"0.002": 11.5812221367,
			"0.003": 11.1668248771,
			"0.004": 12.4986329275,
			"0.005": 9.54504967663,
			"0.006": 4.08027884059,
			"0.007": 3.0996568687,
			"0.008": 2.97965001527,
			"0.009": 2.63702645609,
			"0.01": 2.26140385581,
			"0.011": 2.59437239302,
			"0.012": 2.22674310226,
			"0.013": 0.935523004229,
			"0.014": 0.535677799692,
			"0.015": 0.733797031565,
			"0.016": 0.611373913569,
			"0.017": 0.335401122594,
			"0.018": 0.0327943448562,
			"0.019": 1.06552486273,
			"0.02": 0.162819200416,
			"0.021": 0.0,
			"0.022": 0.0,
			"0.023": 0.0,
			"0.024": 0.0,
			"0.025": 0.0
		}
	}
}
