{
	 "smiles": "NC1=NC=C(CC2=CC(Cl)=CC=C2)S1", 
	 "Tm": 373.15, 
	 "num_atms": 23, 
	 "gaussian": { 
		 "optdone": 1, 
		 "sigma_profile": "yes", 
		 "theory": "DFT", 
		 "functional": "B3LYP", 
		 "basiset": "6-31G**", 
		 "properties": { 
			 "R2extent": 5259.163, 
			 "electric_dipole_moment_norm": 2.21060628335, 
			 "electric_quadrupole_moment_norm": 11.8044831996, 
			 "total_energy": -1354.3706043, 
			 "HOMO_LUMO_gap": 0.19357, 
			 "cosmo_polarized_energy": -12.18, 
			 "cosmo_cavitation_energy": 31.1, 
			 "cosmo_dispersion_energy": -22.85, 
			 "cosmo_repulsion_energy": 1.78, 
			 "cosmo_total_nonelectrostatic_energy": 10.03, 
			 "SMD_solvation_energy": 2.76 
		},
		"coords": [
			{
				"x": 4.5696661663,
				"y": -0.7977699744,
				"z": -0.3499161702,
				"element": "N" 
			},
			{
				"x": 3.5886246619,
				"y": -0.1190497689,
				"z": 0.3382701692,
				"element": "C" 
			},
			{
				"x": 3.6577275328,
				"y": 1.1435515851,
				"z": 0.6473531856,
				"element": "N" 
			},
			{
				"x": 2.5635286011,
				"y": 1.5112060162,
				"z": 1.402647425,
				"element": "C" 
			},
			{
				"x": 1.6328086439,
				"y": 0.5559742045,
				"z": 1.6809995792,
				"element": "C" 
			},
			{
				"x": 0.35816187,
				"y": 0.680652997,
				"z": 2.4638944554,
				"element": "C" 
			},
			{
				"x": -0.9187971785,
				"y": 0.4480619955,
				"z": 1.6653700176,
				"element": "C" 
			},
			{
				"x": -1.9033269861,
				"y": -0.4172911625,
				"z": 2.1531923634,
				"element": "C" 
			},
			{
				"x": -3.0836996287,
				"y": -0.6015802832,
				"z": 1.4328271292,
				"element": "C" 
			},
			{
				"x": -4.3090753321,
				"y": -1.6972665053,
				"z": 2.0633190702,
				"element": "Cl" 
			},
			{
				"x": -3.3112754245,
				"y": 0.0583482289,
				"z": 0.2280024453,
				"element": "C" 
			},
			{
				"x": -2.3237153407,
				"y": 0.9197604886,
				"z": -0.2558698691,
				"element": "C" 
			},
			{
				"x": -1.1391231371,
				"y": 1.1129994322,
				"z": 0.4517590786,
				"element": "C" 
			},
			{
				"x": 2.1596375685,
				"y": -0.9641328759,
				"z": 0.9539513469,
				"element": "S" 
			},
			{
				"x": 5.227522389,
				"y": -0.1770781088,
				"z": -0.8038787876,
				"element": "H" 
			},
			{
				"x": 4.2709321746,
				"y": -1.570554118,
				"z": -0.9276545842,
				"element": "H" 
			},
			{
				"x": 2.4851476907,
				"y": 2.5398954354,
				"z": 1.7398125492,
				"element": "H" 
			},
			{
				"x": 0.3407249545,
				"y": 1.695779174,
				"z": 2.8822522376,
				"element": "H" 
			},
			{
				"x": 0.3679067144,
				"y": 0.000213241,
				"z": 3.3242798546,
				"element": "H" 
			},
			{
				"x": -1.7561334086,
				"y": -0.9466404461,
				"z": 3.0892392554,
				"element": "H" 
			},
			{
				"x": -4.2351180977,
				"y": -0.1003766206,
				"z": -0.3167727158,
				"element": "H" 
			},
			{
				"x": -2.485248414,
				"y": 1.4409480463,
				"z": -1.1950375026,
				"element": "H" 
			},
			{
				"x": -0.3725760199,
				"y": 1.7762490188,
				"z": 0.0616594674,
				"element": "H" 
			}
		],
		 "valence_orbital": [ 
			{
				"type": "occ",
				"energy": -0.27434,
				"method": "rhf"
			},
			{
				"type": "occ",
				"energy": -0.27227,
				"method": "rhf"
			},
			{
				"type": "occ",
				"energy": -0.25739,
				"method": "rhf"
			},
			{
				"type": "occ",
				"energy": -0.24346,
				"method": "rhf"
			},
			{
				"type": "occ",
				"energy": -0.2094,
				"method": "rhf"
			},
			{
				"type": "unocc",
				"energy": -0.01583,
				"method": "rhf"
			},
			{
				"type": "unocc",
				"energy": -0.0137,
				"method": "rhf"
			},
			{
				"type": "unocc",
				"energy": -0.00446,
				"method": "rhf"
			},
			{
				"type": "unocc",
				"energy": 0.01219,
				"method": "rhf"
			},
			{
				"type": "unocc",
				"energy": 0.03179,
				"method": "rhf"
			}
		],
		"cosmo_sigma_profile": { 
			"-0.025": 0.0,
			"-0.024": 0.0,
			"-0.023": 0.0,
			"-0.022": 0.0,
			"-0.021": 0.0,
			"-0.02": 0.0,
			"-0.019": 0.0,
			"-0.018": 0.0,
			"-0.017": 0.0,
			"-0.016": 0.0,
			"-0.015": 0.154852720318,
			"-0.014": 1.73127591059,
			"-0.013": 2.5034987606,
			"-0.012": 2.66276698005,
			"-0.011": 2.44127284025,
			"-0.01": 2.95079397492,
			"-0.009": 1.94290846905,
			"-0.008": 1.84495674362,
			"-0.007": 6.07394822793,
			"-0.006": 13.7960126047,
			"-0.005": 15.7131635798,
			"-0.004": 14.076584343,
			"-0.003": 14.3397866619,
			"-0.002": 13.7432903151,
			"-0.001": 14.6072410062,
			"0.0": 13.1238044641,
			"0.001": 16.9791596201,
			"0.002": 24.9345279511,
			"0.003": 24.2182203466,
			"0.004": 29.4377687907,
			"0.005": 17.1319979539,
			"0.006": 2.9760399212,
			"0.007": 3.12799517192,
			"0.008": 2.4515464663,
			"0.009": 1.48169218043,
			"0.01": 1.55185043127,
			"0.011": 1.62981823751,
			"0.012": 1.68328772043,
			"0.013": 1.06537153843,
			"0.014": 0.902145663188,
			"0.015": 1.08313800864,
			"0.016": 0.503838304081,
			"0.017": 0.0,
			"0.018": 0.0,
			"0.019": 0.0,
			"0.02": 0.0,
			"0.021": 0.0,
			"0.022": 0.0,
			"0.023": 0.0,
			"0.024": 0.0,
			"0.025": 0.0
		}
	}
}
