{
	 "smiles": "NC1=CC=C(NC2=CC=C(N)C=C2)C=C1", 
	 "Tm": 431.15, 
	 "num_atms": 28, 
	 "gaussian": { 
		 "optdone": 1, 
		 "sigma_profile": "yes", 
		 "theory": "DFT", 
		 "functional": "B3LYP", 
		 "basiset": "6-31G**", 
		 "properties": { 
			 "R2extent": 4706.0523, 
			 "electric_dipole_moment_norm": 0.934424774928, 
			 "electric_quadrupole_moment_norm": 23.4165523327, 
			 "total_energy": -629.368769749, 
			 "HOMO_LUMO_gap": 0.16156, 
			 "cosmo_polarized_energy": -16.29, 
			 "cosmo_cavitation_energy": 31.66, 
			 "cosmo_dispersion_energy": -23.43, 
			 "cosmo_repulsion_energy": 1.84, 
			 "cosmo_total_nonelectrostatic_energy": 10.06, 
			 "SMD_solvation_energy": 4.94 
		},
		"coords": [
			{
				"x": -1.0637546996,
				"y": -2.566090838,
				"z": 4.3755766133,
				"element": "N" 
			},
			{
				"x": -0.7818140557,
				"y": -1.6831827498,
				"z": 3.3180744109,
				"element": "C" 
			},
			{
				"x": -0.1303449568,
				"y": -0.4617365026,
				"z": 3.5484003459,
				"element": "C" 
			},
			{
				"x": 0.1091404166,
				"y": 0.4293143485,
				"z": 2.5072173796,
				"element": "C" 
			},
			{
				"x": -0.3145081849,
				"y": 0.1526861571,
				"z": 1.1963606687,
				"element": "C" 
			},
			{
				"x": -0.0978297867,
				"y": 1.1074377734,
				"z": 0.192500164,
				"element": "N" 
			},
			{
				"x": 0.0162431282,
				"y": 0.9156668303,
				"z": -1.1918567515,
				"element": "C" 
			},
			{
				"x": -0.285956325,
				"y": 1.9802763822,
				"z": -2.0576688946,
				"element": "C" 
			},
			{
				"x": -0.1370993309,
				"y": 1.8572430088,
				"z": -3.4353836304,
				"element": "C" 
			},
			{
				"x": 0.2959485374,
				"y": 0.6524681684,
				"z": -4.0101647573,
				"element": "C" 
			},
			{
				"x": 0.4888477909,
				"y": 0.5386859299,
				"z": -5.3984012356,
				"element": "N" 
			},
			{
				"x": 0.5940066481,
				"y": -0.4124216143,
				"z": -3.1467529581,
				"element": "C" 
			},
			{
				"x": 0.4700606413,
				"y": -0.2837364424,
				"z": -1.765575729,
				"element": "C" 
			},
			{
				"x": -0.9855809369,
				"y": -1.0605251446,
				"z": 0.9695109523,
				"element": "C" 
			},
			{
				"x": -1.2015747953,
				"y": -1.9621231789,
				"z": 2.0087607813,
				"element": "C" 
			},
			{
				"x": -1.1661772217,
				"y": -3.5306635145,
				"z": 4.08746314,
				"element": "H" 
			},
			{
				"x": -0.4180324586,
				"y": -2.4956523797,
				"z": 5.1516051047,
				"element": "H" 
			},
			{
				"x": 0.2015237174,
				"y": -0.2110677602,
				"z": 4.5533456106,
				"element": "H" 
			},
			{
				"x": 0.6379600519,
				"y": 1.3577654457,
				"z": 2.7103650334,
				"element": "H" 
			},
			{
				"x": -0.0119072901,
				"y": 2.0606337692,
				"z": 0.5089230832,
				"element": "H" 
			},
			{
				"x": -0.6467161855,
				"y": 2.9181468978,
				"z": -1.6415035783,
				"element": "H" 
			},
			{
				"x": -0.3695509413,
				"y": 2.7049682036,
				"z": -4.0758645048,
				"element": "H" 
			},
			{
				"x": 0.4188860588,
				"y": -0.4093398208,
				"z": -5.7451763613,
				"element": "H" 
			},
			{
				"x": -0.0942462292,
				"y": 1.1590675067,
				"z": -5.9454587386,
				"element": "H" 
			},
			{
				"x": 0.9496898682,
				"y": -1.3530516071,
				"z": -3.5613912035,
				"element": "H" 
			},
			{
				"x": 0.7408001298,
				"y": -1.1175749566,
				"z": -1.1275766788,
				"element": "H" 
			},
			{
				"x": -1.353176705,
				"y": -1.2955233147,
				"z": -0.0231003902,
				"element": "H" 
			},
			{
				"x": -1.7257368854,
				"y": -2.8926705977,
				"z": 1.8024721241,
				"element": "H" 
			}
		],
		 "valence_orbital": [ 
			{
				"type": "occ",
				"energy": -0.25496,
				"method": "rhf"
			},
			{
				"type": "occ",
				"energy": -0.24059,
				"method": "rhf"
			},
			{
				"type": "occ",
				"energy": -0.23861,
				"method": "rhf"
			},
			{
				"type": "occ",
				"energy": -0.19888,
				"method": "rhf"
			},
			{
				"type": "occ",
				"energy": -0.15564,
				"method": "rhf"
			},
			{
				"type": "unocc",
				"energy": 0.00592,
				"method": "rhf"
			},
			{
				"type": "unocc",
				"energy": 0.01026,
				"method": "rhf"
			},
			{
				"type": "unocc",
				"energy": 0.01778,
				"method": "rhf"
			},
			{
				"type": "unocc",
				"energy": 0.05137,
				"method": "rhf"
			},
			{
				"type": "unocc",
				"energy": 0.08689,
				"method": "rhf"
			}
		],
		"cosmo_sigma_profile": { 
			"-0.025": 0.0,
			"-0.024": 0.0,
			"-0.023": 0.0,
			"-0.022": 0.0,
			"-0.021": 0.0,
			"-0.02": 0.0,
			"-0.019": 0.0,
			"-0.018": 0.0,
			"-0.017": 0.0,
			"-0.016": 0.0,
			"-0.015": 0.0,
			"-0.014": 0.00249313879636,
			"-0.013": 0.643975129176,
			"-0.012": 2.93907879178,
			"-0.011": 6.55353603254,
			"-0.01": 6.91990387464,
			"-0.009": 6.81784060671,
			"-0.008": 7.9067385565,
			"-0.007": 8.123656036,
			"-0.006": 9.93177080699,
			"-0.005": 16.0336685751,
			"-0.004": 12.2187148669,
			"-0.003": 16.8104047794,
			"-0.002": 14.0325548273,
			"-0.001": 12.1994782543,
			"0.0": 11.7139728686,
			"0.001": 10.6133127766,
			"0.002": 9.3246929681,
			"0.003": 12.5542678924,
			"0.004": 13.5108395896,
			"0.005": 15.7957810504,
			"0.006": 18.5744869071,
			"0.007": 19.8547202123,
			"0.008": 6.47249182938,
			"0.009": 1.69890412125,
			"0.01": 1.75600171129,
			"0.011": 1.05255489817,
			"0.012": 2.10237164038,
			"0.013": 1.02882713446,
			"0.014": 1.51056538115,
			"0.015": 1.20137263164,
			"0.016": 0.908667141049,
			"0.017": 0.0349492350779,
			"0.018": 0.0,
			"0.019": 0.0,
			"0.02": 0.0,
			"0.021": 0.0,
			"0.022": 0.0,
			"0.023": 0.0,
			"0.024": 0.0,
			"0.025": 0.0
		}
	}
}
