{
	 "smiles": "FC1=CC=C(C=C1)C(=O)C1=CC=CC=C1F", 
	 "Tm": 296.15, 
	 "num_atms": 24, 
	 "gaussian": { 
		 "optdone": 1, 
		 "sigma_profile": "yes", 
		 "theory": "DFT", 
		 "functional": "B3LYP", 
		 "basiset": "6-31G**", 
		 "properties": { 
			 "R2extent": 4290.7797, 
			 "electric_dipole_moment_norm": 2.7438257288, 
			 "electric_quadrupole_moment_norm": 10.353956284, 
			 "total_energy": -775.096303871, 
			 "HOMO_LUMO_gap": 0.18184, 
			 "cosmo_polarized_energy": -8.4, 
			 "cosmo_cavitation_energy": 29.72, 
			 "cosmo_dispersion_energy": -21.22, 
			 "cosmo_repulsion_energy": 1.59, 
			 "cosmo_total_nonelectrostatic_energy": 10.09, 
			 "SMD_solvation_energy": 6.41 
		},
		"coords": [
			{
				"x": -2.9263683774,
				"y": -1.5156808791,
				"z": 3.8719382082,
				"element": "F" 
			},
			{
				"x": -2.1356876862,
				"y": -1.0037706514,
				"z": 2.9105195739,
				"element": "C" 
			},
			{
				"x": -1.2657618358,
				"y": -1.8526459722,
				"z": 2.2337060691,
				"element": "C" 
			},
			{
				"x": -0.4424413827,
				"y": -1.3154802854,
				"z": 1.2476703024,
				"element": "C" 
			},
			{
				"x": -0.4976097606,
				"y": 0.0515468424,
				"z": 0.9350115008,
				"element": "C" 
			},
			{
				"x": -1.4041791547,
				"y": 0.8744865173,
				"z": 1.6247510753,
				"element": "C" 
			},
			{
				"x": -2.2197986505,
				"y": 0.3567584107,
				"z": 2.6235984696,
				"element": "C" 
			},
			{
				"x": 0.3034203473,
				"y": 0.6693797265,
				"z": -0.1631918079,
				"element": "C" 
			},
			{
				"x": -0.0511407263,
				"y": 1.7292622604,
				"z": -0.6671053137,
				"element": "O" 
			},
			{
				"x": 1.5255318939,
				"y": -0.0153739585,
				"z": -0.715975385,
				"element": "C" 
			},
			{
				"x": 1.749856507,
				"y": 0.0645809751,
				"z": -2.1010862026,
				"element": "C" 
			},
			{
				"x": 2.8773862069,
				"y": -0.5028441417,
				"z": -2.685956017,
				"element": "C" 
			},
			{
				"x": 3.8288075407,
				"y": -1.1414922648,
				"z": -1.8843608644,
				"element": "C" 
			},
			{
				"x": 3.6506254012,
				"y": -1.2065263024,
				"z": -0.5035289478,
				"element": "C" 
			},
			{
				"x": 2.507613603,
				"y": -0.6451113087,
				"z": 0.0556276105,
				"element": "C" 
			},
			{
				"x": 2.3761578975,
				"y": -0.6946184745,
				"z": 1.3993794826,
				"element": "F" 
			},
			{
				"x": -1.2451915608,
				"y": -2.9078337606,
				"z": 2.4827538495,
				"element": "H" 
			},
			{
				"x": 0.2304681314,
				"y": -1.9712853873,
				"z": 0.7068126797,
				"element": "H" 
			},
			{
				"x": -1.4522705949,
				"y": 1.9244577332,
				"z": 1.3574585331,
				"element": "H" 
			},
			{
				"x": -2.9159952991,
				"y": 0.9786767168,
				"z": 3.1756295691,
				"element": "H" 
			},
			{
				"x": 1.0124691676,
				"y": 0.586792985,
				"z": -2.7016264709,
				"element": "H" 
			},
			{
				"x": 3.0205032005,
				"y": -0.4423764206,
				"z": -3.7601078785,
				"element": "H" 
			},
			{
				"x": 4.7155429966,
				"y": -1.58089322,
				"z": -2.3312258586,
				"element": "H" 
			},
			{
				"x": 4.3811621354,
				"y": -1.6718091403,
				"z": 0.1493078227,
				"element": "H" 
			}
		],
		 "valence_orbital": [ 
			{
				"type": "occ",
				"energy": -0.27356,
				"method": "rhf"
			},
			{
				"type": "occ",
				"energy": -0.26958,
				"method": "rhf"
			},
			{
				"type": "occ",
				"energy": -0.25802,
				"method": "rhf"
			},
			{
				"type": "occ",
				"energy": -0.25535,
				"method": "rhf"
			},
			{
				"type": "occ",
				"energy": -0.24991,
				"method": "rhf"
			},
			{
				"type": "unocc",
				"energy": -0.06807,
				"method": "rhf"
			},
			{
				"type": "unocc",
				"energy": -0.01929,
				"method": "rhf"
			},
			{
				"type": "unocc",
				"energy": -0.01744,
				"method": "rhf"
			},
			{
				"type": "unocc",
				"energy": -0.00947,
				"method": "rhf"
			},
			{
				"type": "unocc",
				"energy": 0.04967,
				"method": "rhf"
			}
		],
		"cosmo_sigma_profile": { 
			"-0.025": 0.0,
			"-0.024": 0.0,
			"-0.023": 0.0,
			"-0.022": 0.0,
			"-0.021": 0.0,
			"-0.02": 0.0,
			"-0.019": 0.0,
			"-0.018": 0.0,
			"-0.017": 0.0,
			"-0.016": 0.0,
			"-0.015": 0.0,
			"-0.014": 0.0,
			"-0.013": 0.0,
			"-0.012": 0.0,
			"-0.011": 0.0,
			"-0.01": 0.0,
			"-0.009": 0.0,
			"-0.008": 2.46972675668,
			"-0.007": 10.6558183447,
			"-0.006": 15.2076038035,
			"-0.005": 16.0957353994,
			"-0.004": 13.1478677518,
			"-0.003": 14.4000571321,
			"-0.002": 14.62511354,
			"-0.001": 17.341776492,
			"0.0": 21.082472767,
			"0.001": 22.1428425691,
			"0.002": 24.8946164213,
			"0.003": 26.5033692427,
			"0.004": 22.8734502909,
			"0.005": 2.50763785315,
			"0.006": 2.02056555743,
			"0.007": 1.62637670307,
			"0.008": 1.58569150217,
			"0.009": 1.77050876334,
			"0.01": 2.26349750843,
			"0.011": 3.38113732524,
			"0.012": 3.11743647634,
			"0.013": 0.259186442801,
			"0.014": 0.0,
			"0.015": 0.0,
			"0.016": 0.0,
			"0.017": 0.0,
			"0.018": 0.0,
			"0.019": 0.0,
			"0.02": 0.0,
			"0.021": 0.0,
			"0.022": 0.0,
			"0.023": 0.0,
			"0.024": 0.0,
			"0.025": 0.0
		}
	}
}
