{
	 "smiles": "CC1=NN=C2C=CC(=CN12)C#N", 
	 "Tm": 475.15, 
	 "num_atms": 18, 
	 "gaussian": { 
		 "optdone": 1, 
		 "sigma_profile": "yes", 
		 "theory": "DFT", 
		 "functional": "B3LYP", 
		 "basiset": "6-31G**", 
		 "properties": { 
			 "R2extent": 2079.1503, 
			 "electric_dipole_moment_norm": 1.44109774131, 
			 "electric_quadrupole_moment_norm": 24.5498909511, 
			 "total_energy": -527.428067014, 
			 "HOMO_LUMO_gap": 0.16281, 
			 "cosmo_polarized_energy": -19.15, 
			 "cosmo_cavitation_energy": 23.89, 
			 "cosmo_dispersion_energy": -17.07, 
			 "cosmo_repulsion_energy": 1.34, 
			 "cosmo_total_nonelectrostatic_energy": 8.16, 
			 "SMD_solvation_energy": 3.82 
		},
		"coords": [
			{
				"x": 2.809853115,
				"y": -0.1914063713,
				"z": -1.1591259269,
				"element": "C" 
			},
			{
				"x": 1.9289456391,
				"y": 0.0097720087,
				"z": 0.0234066014,
				"element": "C" 
			},
			{
				"x": 2.2900027588,
				"y": 0.4856717489,
				"z": 1.1978616707,
				"element": "N" 
			},
			{
				"x": 1.2055623341,
				"y": 0.5245146359,
				"z": 2.0334609522,
				"element": "N" 
			},
			{
				"x": 0.1717284255,
				"y": 0.0642997216,
				"z": 1.3519183852,
				"element": "C" 
			},
			{
				"x": -1.1908892726,
				"y": -0.1211278604,
				"z": 1.7055215356,
				"element": "C" 
			},
			{
				"x": -2.0600032227,
				"y": -0.6264870527,
				"z": 0.7806381407,
				"element": "C" 
			},
			{
				"x": -1.5982982289,
				"y": -0.9683074717,
				"z": -0.5418752944,
				"element": "C" 
			},
			{
				"x": -0.2807377456,
				"y": -0.789637052,
				"z": -0.8856790126,
				"element": "C" 
			},
			{
				"x": 0.5784142597,
				"y": -0.2825573626,
				"z": 0.0510757088,
				"element": "N" 
			},
			{
				"x": -2.5075361549,
				"y": -1.4978068015,
				"z": -1.5118854426,
				"element": "C" 
			},
			{
				"x": -3.2553438047,
				"y": -1.9274600314,
				"z": -2.2922945139,
				"element": "N" 
			},
			{
				"x": 2.4797242068,
				"y": 0.40129786,
				"z": -2.0204919326,
				"element": "H" 
			},
			{
				"x": 3.8184027207,
				"y": 0.1245780064,
				"z": -0.8894684282,
				"element": "H" 
			},
			{
				"x": 2.8469727444,
				"y": -1.2430550048,
				"z": -1.467176509,
				"element": "H" 
			},
			{
				"x": -1.5028547713,
				"y": 0.1464469811,
				"z": 2.7079392418,
				"element": "H" 
			},
			{
				"x": -3.105603863,
				"y": -0.7791738167,
				"z": 1.0211134637,
				"element": "H" 
			},
			{
				"x": 0.1217608594,
				"y": -1.0281621375,
				"z": -1.8618386401,
				"element": "H" 
			}
		],
		 "valence_orbital": [ 
			{
				"type": "occ",
				"energy": -0.34479,
				"method": "rhf"
			},
			{
				"type": "occ",
				"energy": -0.32623,
				"method": "rhf"
			},
			{
				"type": "occ",
				"energy": -0.28582,
				"method": "rhf"
			},
			{
				"type": "occ",
				"energy": -0.26704,
				"method": "rhf"
			},
			{
				"type": "occ",
				"energy": -0.24269,
				"method": "rhf"
			},
			{
				"type": "unocc",
				"energy": -0.07988,
				"method": "rhf"
			},
			{
				"type": "unocc",
				"energy": -0.0469,
				"method": "rhf"
			},
			{
				"type": "unocc",
				"energy": 0.01432,
				"method": "rhf"
			},
			{
				"type": "unocc",
				"energy": 0.02713,
				"method": "rhf"
			},
			{
				"type": "unocc",
				"energy": 0.0625,
				"method": "rhf"
			}
		],
		"cosmo_sigma_profile": { 
			"-0.025": 0.0,
			"-0.024": 0.0,
			"-0.023": 0.0,
			"-0.022": 0.0,
			"-0.021": 0.0,
			"-0.02": 0.0,
			"-0.019": 0.0,
			"-0.018": 0.0,
			"-0.017": 0.0,
			"-0.016": 0.0,
			"-0.015": 0.0,
			"-0.014": 0.0,
			"-0.013": 0.00424672722271,
			"-0.012": 0.959554581646,
			"-0.011": 1.87181158542,
			"-0.01": 3.15907399025,
			"-0.009": 6.60522990086,
			"-0.008": 7.82338531733,
			"-0.007": 10.2140428473,
			"-0.006": 11.7572094931,
			"-0.005": 13.0122889166,
			"-0.004": 15.5271082665,
			"-0.003": 15.8015509064,
			"-0.002": 16.2939472659,
			"-0.001": 10.8292800176,
			"0.0": 11.4162033646,
			"0.001": 6.62353554909,
			"0.002": 3.63427362801,
			"0.003": 3.59496299653,
			"0.004": 4.50978282151,
			"0.005": 4.53890696264,
			"0.006": 3.74855610745,
			"0.007": 4.49916499523,
			"0.008": 5.65782669577,
			"0.009": 5.45609662632,
			"0.01": 4.60764738336,
			"0.011": 5.54467425505,
			"0.012": 4.48783897736,
			"0.013": 3.8315638495,
			"0.014": 2.85209079125,
			"0.015": 2.53482448946,
			"0.016": 2.14831362573,
			"0.017": 0.30099143806,
			"0.018": 0.0,
			"0.019": 0.0,
			"0.02": 0.0,
			"0.021": 0.0,
			"0.022": 0.0,
			"0.023": 0.0,
			"0.024": 0.0,
			"0.025": 0.0
		}
	}
}
