{
	 "smiles": "CC1=CC=C(C=C1)N1CCC(Br)C1=O", 
	 "Tm": 357.15, 
	 "num_atms": 26, 
	 "gaussian": { 
		 "optdone": 1, 
		 "sigma_profile": "yes", 
		 "theory": "DFT", 
		 "functional": "B3LYP", 
		 "basiset": "6-31G**", 
		 "properties": { 
			 "R2extent": 6466.3895, 
			 "electric_dipole_moment_norm": 4.00174482195, 
			 "electric_quadrupole_moment_norm": 14.1356692806, 
			 "total_energy": -3127.80833467, 
			 "HOMO_LUMO_gap": 0.17359, 
			 "cosmo_polarized_energy": -11.73, 
			 "cosmo_cavitation_energy": 30.84, 
			 "cosmo_dispersion_energy": -22.99, 
			 "cosmo_repulsion_energy": 1.8, 
			 "cosmo_total_nonelectrostatic_energy": 9.64, 
			 "SMD_solvation_energy": 3.97 
		},
		"coords": [
			{
				"x": -3.7682836304,
				"y": 0.1426066902,
				"z": 0.0135663953,
				"element": "C" 
			},
			{
				"x": -2.2803474786,
				"y": 0.0829064529,
				"z": -0.2373084468,
				"element": "C" 
			},
			{
				"x": -1.5199579236,
				"y": 1.254536574,
				"z": -0.3620469971,
				"element": "C" 
			},
			{
				"x": -0.1475930442,
				"y": 1.2269800594,
				"z": -0.5859247391,
				"element": "C" 
			},
			{
				"x": 0.5197061088,
				"y": -0.007475408,
				"z": -0.6918296972,
				"element": "C" 
			},
			{
				"x": -0.2274304949,
				"y": -1.188421108,
				"z": -0.5666817769,
				"element": "C" 
			},
			{
				"x": -1.6035414667,
				"y": -1.1346468814,
				"z": -0.344710533,
				"element": "C" 
			},
			{
				"x": 1.9151919937,
				"y": -0.0844050454,
				"z": -0.9335911209,
				"element": "N" 
			},
			{
				"x": 2.5678552731,
				"y": -1.3610062453,
				"z": -1.2508473336,
				"element": "C" 
			},
			{
				"x": 3.9560218964,
				"y": -0.9396468705,
				"z": -1.7544907216,
				"element": "C" 
			},
			{
				"x": 4.218891991,
				"y": 0.3528414358,
				"z": -1.0008001255,
				"element": "C" 
			},
			{
				"x": 5.0222964973,
				"y": -0.0056100631,
				"z": 0.7916945111,
				"element": "Br" 
			},
			{
				"x": 2.8260591879,
				"y": 0.9487815423,
				"z": -0.7817350941,
				"element": "C" 
			},
			{
				"x": 2.5943141582,
				"y": 2.1183445118,
				"z": -0.5331370504,
				"element": "O" 
			},
			{
				"x": -4.2194113991,
				"y": -0.8531143144,
				"z": -0.0198473483,
				"element": "H" 
			},
			{
				"x": -3.9908160692,
				"y": 0.5745037333,
				"z": 0.9967317954,
				"element": "H" 
			},
			{
				"x": -4.2757491352,
				"y": 0.7654272858,
				"z": -0.7317474375,
				"element": "H" 
			},
			{
				"x": -2.013154656,
				"y": 2.2207939679,
				"z": -0.2849734912,
				"element": "H" 
			},
			{
				"x": 0.4149641657,
				"y": 2.1452821624,
				"z": -0.6703298383,
				"element": "H" 
			},
			{
				"x": 0.2532994916,
				"y": -2.1578163402,
				"z": -0.6279497603,
				"element": "H" 
			},
			{
				"x": -2.1561230512,
				"y": -2.0661371881,
				"z": -0.2505901265,
				"element": "H" 
			},
			{
				"x": 1.9980892527,
				"y": -1.9013093817,
				"z": -2.0113493492,
				"element": "H" 
			},
			{
				"x": 2.6398250798,
				"y": -1.9927409619,
				"z": -0.3563903009,
				"element": "H" 
			},
			{
				"x": 4.7175058692,
				"y": -1.7052976375,
				"z": -1.6021554468,
				"element": "H" 
			},
			{
				"x": 3.9063828112,
				"y": -0.7091204182,
				"z": -2.825735548,
				"element": "H" 
			},
			{
				"x": 4.8950045726,
				"y": 1.062743448,
				"z": -1.4698204185,
				"element": "H" 
			}
		],
		 "valence_orbital": [ 
			{
				"type": "occ",
				"energy": -0.28549,
				"method": "rhf"
			},
			{
				"type": "occ",
				"energy": -0.28068,
				"method": "rhf"
			},
			{
				"type": "occ",
				"energy": -0.25584,
				"method": "rhf"
			},
			{
				"type": "occ",
				"energy": -0.24973,
				"method": "rhf"
			},
			{
				"type": "occ",
				"energy": -0.21657,
				"method": "rhf"
			},
			{
				"type": "unocc",
				"energy": -0.04298,
				"method": "rhf"
			},
			{
				"type": "unocc",
				"energy": -0.00169,
				"method": "rhf"
			},
			{
				"type": "unocc",
				"energy": 0.00691,
				"method": "rhf"
			},
			{
				"type": "unocc",
				"energy": 0.05248,
				"method": "rhf"
			},
			{
				"type": "unocc",
				"energy": 0.08015,
				"method": "rhf"
			}
		],
		"cosmo_sigma_profile": { 
			"-0.025": 0.0,
			"-0.024": 0.0,
			"-0.023": 0.0,
			"-0.022": 0.0,
			"-0.021": 0.0,
			"-0.02": 0.0,
			"-0.019": 0.0,
			"-0.018": 0.0,
			"-0.017": 0.0,
			"-0.016": 0.0,
			"-0.015": 0.0,
			"-0.014": 0.0,
			"-0.013": 0.0,
			"-0.012": 0.0,
			"-0.011": 0.0,
			"-0.01": 0.0,
			"-0.009": 1.01600271715,
			"-0.008": 2.93043631109,
			"-0.007": 7.24454137404,
			"-0.006": 15.046428794,
			"-0.005": 18.6493653195,
			"-0.004": 22.1088934338,
			"-0.003": 22.7190377269,
			"-0.002": 17.4593533904,
			"-0.001": 16.7441687014,
			"0.0": 19.30582365,
			"0.001": 14.4945376053,
			"0.002": 13.2910956572,
			"0.003": 13.7612814556,
			"0.004": 15.8592101333,
			"0.005": 20.9455717336,
			"0.006": 10.9608124816,
			"0.007": 2.02196555773,
			"0.008": 2.10108401424,
			"0.009": 1.20366324398,
			"0.01": 1.69774133367,
			"0.011": 2.75689641763,
			"0.012": 3.02643804258,
			"0.013": 2.19946641892,
			"0.014": 0.215676353553,
			"0.015": 0.0,
			"0.016": 0.0,
			"0.017": 0.0,
			"0.018": 0.0,
			"0.019": 0.0,
			"0.02": 0.0,
			"0.021": 0.0,
			"0.022": 0.0,
			"0.023": 0.0,
			"0.024": 0.0,
			"0.025": 0.0
		}
	}
}
