{
	 "smiles": "O=P(C1=CC=CC=C1)(C1=CC=CC=C1)C1=CC=CC=C1", 
	 "Tm": 429.15, 
	 "num_atms": 35, 
	 "gaussian": { 
		 "optdone": 1, 
		 "sigma_profile": "yes", 
		 "theory": "DFT", 
		 "functional": "B3LYP", 
		 "basiset": "6-31G**", 
		 "properties": { 
			 "R2extent": 5745.9369, 
			 "electric_dipole_moment_norm": 3.95650768355, 
			 "electric_quadrupole_moment_norm": 9.0447860931, 
			 "total_energy": -1111.55674033, 
			 "HOMO_LUMO_gap": 0.22338, 
			 "cosmo_polarized_energy": -15.27, 
			 "cosmo_cavitation_energy": 39.9, 
			 "cosmo_dispersion_energy": -27.53, 
			 "cosmo_repulsion_energy": 2.09, 
			 "cosmo_total_nonelectrostatic_energy": 14.46, 
			 "SMD_solvation_energy": 7.58 
		},
		"coords": [
			{
				"x": 1.6213264748,
				"y": 0.1694691539,
				"z": -1.9250743294,
				"element": "O" 
			},
			{
				"x": 0.6252892069,
				"y": 0.1214808227,
				"z": -0.7994441603,
				"element": "P" 
			},
			{
				"x": 1.3190622581,
				"y": -0.6367808741,
				"z": 0.7163100118,
				"element": "C" 
			},
			{
				"x": 0.5456785834,
				"y": -1.2731331,
				"z": 1.6981534634,
				"element": "C" 
			},
			{
				"x": 1.1553396795,
				"y": -1.810776415,
				"z": 2.8330458132,
				"element": "C" 
			},
			{
				"x": 2.5402242661,
				"y": -1.7252115665,
				"z": 2.9903203471,
				"element": "C" 
			},
			{
				"x": 3.3174522278,
				"y": -1.1072845476,
				"z": 2.008134902,
				"element": "C" 
			},
			{
				"x": 2.7113166147,
				"y": -0.5664142792,
				"z": 0.874177567,
				"element": "C" 
			},
			{
				"x": -0.8659610095,
				"y": -0.8519994551,
				"z": -1.2262996277,
				"element": "C" 
			},
			{
				"x": -0.7111966653,
				"y": -1.8408835051,
				"z": -2.2093618148,
				"element": "C" 
			},
			{
				"x": -1.7949777884,
				"y": -2.6361616364,
				"z": -2.5818610951,
				"element": "C" 
			},
			{
				"x": -3.0410447018,
				"y": -2.4484321652,
				"z": -1.9796535467,
				"element": "C" 
			},
			{
				"x": -3.2054235556,
				"y": -1.4568455124,
				"z": -1.0102710365,
				"element": "C" 
			},
			{
				"x": -2.1237514039,
				"y": -0.657161503,
				"z": -0.6371458512,
				"element": "C" 
			},
			{
				"x": 0.0333651291,
				"y": 1.7862858913,
				"z": -0.3180328185,
				"element": "C" 
			},
			{
				"x": -0.454785662,
				"y": 2.1053915563,
				"z": 0.9574917667,
				"element": "C" 
			},
			{
				"x": -0.9022789724,
				"y": 3.3982629492,
				"z": 1.2349220473,
				"element": "C" 
			},
			{
				"x": -0.856452397,
				"y": 4.3820942916,
				"z": 0.2450013483,
				"element": "C" 
			},
			{
				"x": -0.3560191595,
				"y": 4.0746062798,
				"z": -1.0221217069,
				"element": "C" 
			},
			{
				"x": 0.0893107329,
				"y": 2.7830308436,
				"z": -1.303742457,
				"element": "C" 
			},
			{
				"x": -0.5287161772,
				"y": -1.3685423274,
				"z": 1.5709619528,
				"element": "H" 
			},
			{
				"x": 0.550527913,
				"y": -2.304618792,
				"z": 3.5883041025,
				"element": "H" 
			},
			{
				"x": 3.0133393649,
				"y": -2.1479718646,
				"z": 3.872160592,
				"element": "H" 
			},
			{
				"x": 4.3962189627,
				"y": -1.0515984976,
				"z": 2.1226028911,
				"element": "H" 
			},
			{
				"x": 3.3071041779,
				"y": -0.1023947699,
				"z": 0.0941473565,
				"element": "H" 
			},
			{
				"x": 0.256845998,
				"y": -1.9634303877,
				"z": -2.6853951209,
				"element": "H" 
			},
			{
				"x": -1.668615151,
				"y": -3.3981591955,
				"z": -3.3456239612,
				"element": "H" 
			},
			{
				"x": -3.8850552232,
				"y": -3.0669005576,
				"z": -2.2717992525,
				"element": "H" 
			},
			{
				"x": -4.1774536662,
				"y": -1.2987455396,
				"z": -0.5517372382,
				"element": "H" 
			},
			{
				"x": -2.2674259875,
				"y": 0.1297161714,
				"z": 0.097567963,
				"element": "H" 
			},
			{
				"x": -0.4684551915,
				"y": 1.3538187186,
				"z": 1.7414451253,
				"element": "H" 
			},
			{
				"x": -1.2766735946,
				"y": 3.6391850267,
				"z": 2.2258190052,
				"element": "H" 
			},
			{
				"x": -1.2011671188,
				"y": 5.3887634569,
				"z": 0.4640784702,
				"element": "H" 
			},
			{
				"x": -0.3073400385,
				"y": 4.8421012884,
				"z": -1.7892749771,
				"element": "H" 
			},
			{
				"x": 0.4997918739,
				"y": 2.5375400411,
				"z": -2.2784057313,
				"element": "H" 
			}
		],
		 "valence_orbital": [ 
			{
				"type": "occ",
				"energy": -0.25676,
				"method": "rhf"
			},
			{
				"type": "occ",
				"energy": -0.25676,
				"method": "rhf"
			},
			{
				"type": "occ",
				"energy": -0.25163,
				"method": "rhf"
			},
			{
				"type": "occ",
				"energy": -0.25162,
				"method": "rhf"
			},
			{
				"type": "occ",
				"energy": -0.25157,
				"method": "rhf"
			},
			{
				"type": "unocc",
				"energy": -0.02819,
				"method": "rhf"
			},
			{
				"type": "unocc",
				"energy": -0.02817,
				"method": "rhf"
			},
			{
				"type": "unocc",
				"energy": -0.0134,
				"method": "rhf"
			},
			{
				"type": "unocc",
				"energy": -0.01121,
				"method": "rhf"
			},
			{
				"type": "unocc",
				"energy": -0.00625,
				"method": "rhf"
			}
		],
		"cosmo_sigma_profile": { 
			"-0.025": 0.0,
			"-0.024": 0.0,
			"-0.023": 0.0,
			"-0.022": 0.0,
			"-0.021": 0.0,
			"-0.02": 0.0,
			"-0.019": 0.0,
			"-0.018": 0.0,
			"-0.017": 0.0,
			"-0.016": 0.0,
			"-0.015": 0.0,
			"-0.014": 0.0,
			"-0.013": 0.0,
			"-0.012": 0.0438021598537,
			"-0.011": 0.212425397526,
			"-0.01": 0.166933937482,
			"-0.009": 0.423466695002,
			"-0.008": 0.313089126735,
			"-0.007": 3.56642286269,
			"-0.006": 22.4510562892,
			"-0.005": 33.4114517319,
			"-0.004": 31.8608458118,
			"-0.003": 21.0075619154,
			"-0.002": 22.379234514,
			"-0.001": 19.3880588161,
			"0.0": 20.290840566,
			"0.001": 23.6043790525,
			"0.002": 24.5196724266,
			"0.003": 28.3642574963,
			"0.004": 34.5879201603,
			"0.005": 11.7903536027,
			"0.006": 1.85838870395,
			"0.007": 1.92292551954,
			"0.008": 1.68740475334,
			"0.009": 1.48112153828,
			"0.01": 1.5369765128,
			"0.011": 0.762987103944,
			"0.012": 0.868968073,
			"0.013": 1.83568195992,
			"0.014": 1.43383063314,
			"0.015": 3.09295278557,
			"0.016": 3.92737600368,
			"0.017": 0.168496696861,
			"0.018": 0.0,
			"0.019": 0.0,
			"0.02": 0.0,
			"0.021": 0.0,
			"0.022": 0.0,
			"0.023": 0.0,
			"0.024": 0.0,
			"0.025": 0.0
		}
	}
}
