{
	 "smiles": "ClC1=NC=CC(=C1)C1=NN=CO1", 
	 "Tm": 383.15, 
	 "num_atms": 16, 
	 "gaussian": { 
		 "optdone": 1, 
		 "sigma_profile": "yes", 
		 "theory": "DFT", 
		 "functional": "B3LYP", 
		 "basiset": "6-31G**", 
		 "properties": { 
			 "R2extent": 2826.4317, 
			 "electric_dipole_moment_norm": 2.01394007855, 
			 "electric_quadrupole_moment_norm": 16.810920553, 
			 "total_energy": -968.783580892, 
			 "HOMO_LUMO_gap": 0.1891, 
			 "cosmo_polarized_energy": -11.99, 
			 "cosmo_cavitation_energy": 23.64, 
			 "cosmo_dispersion_energy": -17.81, 
			 "cosmo_repulsion_energy": 1.39, 
			 "cosmo_total_nonelectrostatic_energy": 7.23, 
			 "SMD_solvation_energy": 1.76 
		},
		"coords": [
			{
				"x": 2.738949182,
				"y": 0.4968478239,
				"z": -1.8164047011,
				"element": "Cl" 
			},
			{
				"x": 1.3251857616,
				"y": -0.356582209,
				"z": -1.2076327177,
				"element": "C" 
			},
			{
				"x": 0.7606648932,
				"y": -1.2293392748,
				"z": -2.021293295,
				"element": "N" 
			},
			{
				"x": -0.3185119747,
				"y": -1.8840928971,
				"z": -1.5633386102,
				"element": "C" 
			},
			{
				"x": -0.858288075,
				"y": -1.6897161893,
				"z": -0.2977631425,
				"element": "C" 
			},
			{
				"x": -0.2388953406,
				"y": -0.7560184365,
				"z": 0.5475193567,
				"element": "C" 
			},
			{
				"x": 0.8858848174,
				"y": -0.0658023935,
				"z": 0.08575857,
				"element": "C" 
			},
			{
				"x": -0.7744606614,
				"y": -0.5220903735,
				"z": 1.8846512284,
				"element": "C" 
			},
			{
				"x": -1.8036867357,
				"y": -1.082839672,
				"z": 2.4481071308,
				"element": "N" 
			},
			{
				"x": -1.9109628731,
				"y": -0.5289609012,
				"z": 3.7221430476,
				"element": "N" 
			},
			{
				"x": -0.9395847405,
				"y": 0.3182347311,
				"z": 3.8227495539,
				"element": "C" 
			},
			{
				"x": -0.1703367278,
				"y": 0.3874203726,
				"z": 2.7063056791,
				"element": "O" 
			},
			{
				"x": -0.7670380242,
				"y": -2.5977864271,
				"z": -2.2499989109,
				"element": "H" 
			},
			{
				"x": -1.7312646182,
				"y": -2.237503873,
				"z": 0.0366547708,
				"element": "H" 
			},
			{
				"x": 1.3979395405,
				"y": 0.6635470481,
				"z": 0.7001198936,
				"element": "H" 
			},
			{
				"x": -0.6810944237,
				"y": 0.9508826711,
				"z": 4.6578221465,
				"element": "H" 
			}
		],
		 "valence_orbital": [ 
			{
				"type": "occ",
				"energy": -0.32339,
				"method": "rhf"
			},
			{
				"type": "occ",
				"energy": -0.29969,
				"method": "rhf"
			},
			{
				"type": "occ",
				"energy": -0.28784,
				"method": "rhf"
			},
			{
				"type": "occ",
				"energy": -0.28186,
				"method": "rhf"
			},
			{
				"type": "occ",
				"energy": -0.27278,
				"method": "rhf"
			},
			{
				"type": "unocc",
				"energy": -0.08368,
				"method": "rhf"
			},
			{
				"type": "unocc",
				"energy": -0.03872,
				"method": "rhf"
			},
			{
				"type": "unocc",
				"energy": -0.01045,
				"method": "rhf"
			},
			{
				"type": "unocc",
				"energy": 0.02486,
				"method": "rhf"
			},
			{
				"type": "unocc",
				"energy": 0.03252,
				"method": "rhf"
			}
		],
		"cosmo_sigma_profile": { 
			"-0.025": 0.0,
			"-0.024": 0.0,
			"-0.023": 0.0,
			"-0.022": 0.0,
			"-0.021": 0.0,
			"-0.02": 0.0,
			"-0.019": 0.0,
			"-0.018": 0.0,
			"-0.017": 0.0,
			"-0.016": 0.0,
			"-0.015": 0.0,
			"-0.014": 0.0,
			"-0.013": 1.66200015229,
			"-0.012": 1.80742646833,
			"-0.011": 2.09379130404,
			"-0.01": 1.19474270552,
			"-0.009": 2.30594408687,
			"-0.008": 5.58620909831,
			"-0.007": 6.97528065285,
			"-0.006": 7.71810743887,
			"-0.005": 10.6924328789,
			"-0.004": 12.4146600615,
			"-0.003": 11.3787942472,
			"-0.002": 17.491149816,
			"-0.001": 20.9717718435,
			"0.0": 14.6900531187,
			"0.001": 9.10474938945,
			"0.002": 9.98178693529,
			"0.003": 10.7828287621,
			"0.004": 11.4527440154,
			"0.005": 5.59771927991,
			"0.006": 4.06627836781,
			"0.007": 3.36757865428,
			"0.008": 4.1065621986,
			"0.009": 3.339870284,
			"0.01": 4.68617906171,
			"0.011": 3.41042067459,
			"0.012": 3.92221083184,
			"0.013": 2.34169531152,
			"0.014": 1.4633415997,
			"0.015": 0.0598000049778,
			"0.016": 0.0,
			"0.017": 0.0,
			"0.018": 0.0,
			"0.019": 0.0,
			"0.02": 0.0,
			"0.021": 0.0,
			"0.022": 0.0,
			"0.023": 0.0,
			"0.024": 0.0,
			"0.025": 0.0
		}
	}
}
