{
	 "smiles": "CC1=C(C=C2C=C(Cl)C=CC2=N1)C(O)=O", 
	 "Tm": 492.15, 
	 "num_atms": 23, 
	 "gaussian": { 
		 "optdone": 1, 
		 "sigma_profile": "yes", 
		 "theory": "DFT", 
		 "functional": "B3LYP", 
		 "basiset": "6-31G**", 
		 "properties": { 
			 "R2extent": 4464.2431, 
			 "electric_dipole_moment_norm": 2.9381197542, 
			 "electric_quadrupole_moment_norm": 16.6192227252, 
			 "total_energy": -1089.40465583, 
			 "HOMO_LUMO_gap": 0.16694, 
			 "cosmo_polarized_energy": -15.78, 
			 "cosmo_cavitation_energy": 29.52, 
			 "cosmo_dispersion_energy": -21.89, 
			 "cosmo_repulsion_energy": 1.69, 
			 "cosmo_total_nonelectrostatic_energy": 9.32, 
			 "SMD_solvation_energy": 4.24 
		},
		"coords": [
			{
				"x": 3.6106734429,
				"y": -0.3463460278,
				"z": -1.0793239853,
				"element": "C" 
			},
			{
				"x": 2.1346207191,
				"y": -0.1598569277,
				"z": -0.8424776575,
				"element": "C" 
			},
			{
				"x": 1.5780969759,
				"y": 1.1172649849,
				"z": -0.4693489153,
				"element": "C" 
			},
			{
				"x": 0.2175040892,
				"y": 1.2136370591,
				"z": -0.2570769991,
				"element": "C" 
			},
			{
				"x": -0.613413152,
				"y": 0.0786553738,
				"z": -0.4103899212,
				"element": "C" 
			},
			{
				"x": -2.0155340965,
				"y": 0.1059334545,
				"z": -0.1991187052,
				"element": "C" 
			},
			{
				"x": -2.7439241313,
				"y": -1.0470290087,
				"z": -0.3800918361,
				"element": "C" 
			},
			{
				"x": -4.4802724361,
				"y": -1.031707451,
				"z": -0.1263154566,
				"element": "Cl" 
			},
			{
				"x": -2.1265091212,
				"y": -2.2608529225,
				"z": -0.7700353525,
				"element": "C" 
			},
			{
				"x": -0.7660387855,
				"y": -2.3001662699,
				"z": -0.975105926,
				"element": "C" 
			},
			{
				"x": 0.026567618,
				"y": -1.1358931741,
				"z": -0.8009635949,
				"element": "C" 
			},
			{
				"x": 1.370859305,
				"y": -1.2235503084,
				"z": -1.0091994778,
				"element": "N" 
			},
			{
				"x": 2.4577381,
				"y": 2.3117908326,
				"z": -0.2428749821,
				"element": "C" 
			},
			{
				"x": 1.9165679647,
				"y": 3.5172806312,
				"z": -0.5726261212,
				"element": "O" 
			},
			{
				"x": 3.5703701578,
				"y": 2.259813503,
				"z": 0.2232571106,
				"element": "O" 
			},
			{
				"x": 3.9972954026,
				"y": 0.3763976622,
				"z": -1.8051297447,
				"element": "H" 
			},
			{
				"x": 3.7796955977,
				"y": -1.3590133959,
				"z": -1.4466009111,
				"element": "H" 
			},
			{
				"x": 4.1745783308,
				"y": -0.1841440871,
				"z": -0.157119001,
				"element": "H" 
			},
			{
				"x": -0.2298986122,
				"y": 2.1518050011,
				"z": 0.0646649992,
				"element": "H" 
			},
			{
				"x": -2.5035654421,
				"y": 1.027453286,
				"z": 0.101236518,
				"element": "H" 
			},
			{
				"x": -2.7361939114,
				"y": -3.1479097131,
				"z": -0.9013395827,
				"element": "H" 
			},
			{
				"x": -0.2655092307,
				"y": -3.2155566551,
				"z": -1.2718988302,
				"element": "H" 
			},
			{
				"x": 1.1055912153,
				"y": 3.3873941528,
				"z": -1.0839216272,
				"element": "H" 
			}
		],
		 "valence_orbital": [ 
			{
				"type": "occ",
				"energy": -0.32292,
				"method": "rhf"
			},
			{
				"type": "occ",
				"energy": -0.28711,
				"method": "rhf"
			},
			{
				"type": "occ",
				"energy": -0.26977,
				"method": "rhf"
			},
			{
				"type": "occ",
				"energy": -0.26589,
				"method": "rhf"
			},
			{
				"type": "occ",
				"energy": -0.24944,
				"method": "rhf"
			},
			{
				"type": "unocc",
				"energy": -0.0825,
				"method": "rhf"
			},
			{
				"type": "unocc",
				"energy": -0.05024,
				"method": "rhf"
			},
			{
				"type": "unocc",
				"energy": -0.00702,
				"method": "rhf"
			},
			{
				"type": "unocc",
				"energy": 0.01182,
				"method": "rhf"
			},
			{
				"type": "unocc",
				"energy": 0.01746,
				"method": "rhf"
			}
		],
		"cosmo_sigma_profile": { 
			"-0.025": 0.0,
			"-0.024": 0.0,
			"-0.023": 0.0,
			"-0.022": 0.0,
			"-0.021": 0.0,
			"-0.02": 0.0,
			"-0.019": 0.276835291927,
			"-0.018": 1.11574765739,
			"-0.017": 1.12992530245,
			"-0.016": 0.939325705904,
			"-0.015": 1.3159663091,
			"-0.014": 0.971376327759,
			"-0.013": 0.940152995166,
			"-0.012": 0.850454886175,
			"-0.011": 1.15992592386,
			"-0.01": 2.73791336744,
			"-0.009": 3.93827787501,
			"-0.008": 4.54576495907,
			"-0.007": 6.32858173837,
			"-0.006": 9.62034680983,
			"-0.005": 9.14952882507,
			"-0.004": 10.5385728856,
			"-0.003": 12.2646357936,
			"-0.002": 15.2019817153,
			"-0.001": 21.6305184308,
			"0.0": 25.5087772134,
			"0.001": 24.4207629077,
			"0.002": 17.8254319158,
			"0.003": 11.9238667012,
			"0.004": 14.5832766533,
			"0.005": 6.59553872876,
			"0.006": 3.94901209141,
			"0.007": 3.99948165244,
			"0.008": 4.08727202056,
			"0.009": 4.23395898109,
			"0.01": 6.29685953104,
			"0.011": 5.63423817741,
			"0.012": 3.39780723921,
			"0.013": 1.57022500312,
			"0.014": 0.44516002178,
			"0.015": 0.0268685260635,
			"0.016": 0.0,
			"0.017": 0.0,
			"0.018": 0.0,
			"0.019": 0.0,
			"0.02": 0.0,
			"0.021": 0.0,
			"0.022": 0.0,
			"0.023": 0.0,
			"0.024": 0.0,
			"0.025": 0.0
		}
	}
}
