{
	 "smiles": "ClC1=C(NS(=O)(=O)C2=CC=CC=C2)N=C2C=CC=CC2=N1", 
	 "Tm": 446.15, 
	 "num_atms": 31, 
	 "gaussian": { 
		 "optdone": 1, 
		 "sigma_profile": "yes", 
		 "theory": "DFT", 
		 "functional": "B3LYP", 
		 "basiset": "6-31G**", 
		 "properties": { 
			 "R2extent": 7290.5607, 
			 "electric_dipole_moment_norm": 5.21790669713, 
			 "electric_quadrupole_moment_norm": 17.7771977235, 
			 "total_energy": -1712.53433739, 
			 "HOMO_LUMO_gap": 0.16312, 
			 "cosmo_polarized_energy": -15.07, 
			 "cosmo_cavitation_energy": 39.23, 
			 "cosmo_dispersion_energy": -28.28, 
			 "cosmo_repulsion_energy": 2.11, 
			 "cosmo_total_nonelectrostatic_energy": 13.05, 
			 "SMD_solvation_energy": 3.38 
		},
		"coords": [
			{
				"x": -1.4708448111,
				"y": -2.7720268239,
				"z": 2.4256963282,
				"element": "Cl" 
			},
			{
				"x": -0.2516661286,
				"y": -1.4990252583,
				"z": 2.2896006617,
				"element": "C" 
			},
			{
				"x": -0.3817384314,
				"y": -0.5175769872,
				"z": 1.23478332,
				"element": "C" 
			},
			{
				"x": -1.4357874746,
				"y": -0.6009680978,
				"z": 0.3418795567,
				"element": "N" 
			},
			{
				"x": -2.0195015156,
				"y": 0.6670581095,
				"z": -0.6573279175,
				"element": "S" 
			},
			{
				"x": -3.27781947,
				"y": 0.0979457622,
				"z": -1.1431593047,
				"element": "O" 
			},
			{
				"x": -1.9717843381,
				"y": 1.9327067277,
				"z": 0.0649404065,
				"element": "O" 
			},
			{
				"x": -0.8540966096,
				"y": 0.7301998703,
				"z": -2.0123523709,
				"element": "C" 
			},
			{
				"x": 0.1880809106,
				"y": 1.6574295323,
				"z": -1.9756774937,
				"element": "C" 
			},
			{
				"x": 1.0719113651,
				"y": 1.7118224481,
				"z": -3.0534965239,
				"element": "C" 
			},
			{
				"x": 0.9065936856,
				"y": 0.8519535461,
				"z": -4.1418138844,
				"element": "C" 
			},
			{
				"x": -0.1473970885,
				"y": -0.0652901716,
				"z": -4.1650235151,
				"element": "C" 
			},
			{
				"x": -1.0406982337,
				"y": -0.1304483909,
				"z": -3.0965734417,
				"element": "C" 
			},
			{
				"x": 0.5165429427,
				"y": 0.4286593014,
				"z": 1.1025862387,
				"element": "N" 
			},
			{
				"x": 1.5494258536,
				"y": 0.4659005931,
				"z": 1.9935632188,
				"element": "C" 
			},
			{
				"x": 2.5339765099,
				"y": 1.4779883541,
				"z": 1.8959912666,
				"element": "C" 
			},
			{
				"x": 3.577894063,
				"y": 1.5102522362,
				"z": 2.7976991944,
				"element": "C" 
			},
			{
				"x": 3.6823866554,
				"y": 0.5416686147,
				"z": 3.8250350097,
				"element": "C" 
			},
			{
				"x": 2.7372270233,
				"y": -0.456069573,
				"z": 3.9428323565,
				"element": "C" 
			},
			{
				"x": 1.6591101663,
				"y": -0.50794518,
				"z": 3.0299430426,
				"element": "C" 
			},
			{
				"x": 0.7172849089,
				"y": -1.4958468358,
				"z": 3.1396246672,
				"element": "N" 
			},
			{
				"x": -2.1518988813,
				"y": -1.2992371253,
				"z": 0.5087922577,
				"element": "H" 
			},
			{
				"x": 0.2922637833,
				"y": 2.3122661273,
				"z": -1.1194258542,
				"element": "H" 
			},
			{
				"x": 1.8874209217,
				"y": 2.4284756789,
				"z": -3.0444540413,
				"element": "H" 
			},
			{
				"x": 1.5978578747,
				"y": 0.9004549857,
				"z": -4.9780902041,
				"element": "H" 
			},
			{
				"x": -0.2787034776,
				"y": -0.7247488099,
				"z": -5.0173395438,
				"element": "H" 
			},
			{
				"x": -1.8775939069,
				"y": -0.8199211394,
				"z": -3.1038459945,
				"element": "H" 
			},
			{
				"x": 2.4385096787,
				"y": 2.2143936649,
				"z": 1.1052082637,
				"element": "H" 
			},
			{
				"x": 4.3308063683,
				"y": 2.2891863268,
				"z": 2.7217735025,
				"element": "H" 
			},
			{
				"x": 4.5126440516,
				"y": 0.5885942971,
				"z": 4.5228982056,
				"element": "H" 
			},
			{
				"x": 2.7891936042,
				"y": -1.2119517833,
				"z": 4.7194325926,
				"element": "H" 
			}
		],
		 "valence_orbital": [ 
			{
				"type": "occ",
				"energy": -0.28014,
				"method": "rhf"
			},
			{
				"type": "occ",
				"energy": -0.27557,
				"method": "rhf"
			},
			{
				"type": "occ",
				"energy": -0.26843,
				"method": "rhf"
			},
			{
				"type": "occ",
				"energy": -0.25646,
				"method": "rhf"
			},
			{
				"type": "occ",
				"energy": -0.242,
				"method": "rhf"
			},
			{
				"type": "unocc",
				"energy": -0.07888,
				"method": "rhf"
			},
			{
				"type": "unocc",
				"energy": -0.04535,
				"method": "rhf"
			},
			{
				"type": "unocc",
				"energy": -0.03207,
				"method": "rhf"
			},
			{
				"type": "unocc",
				"energy": -0.02313,
				"method": "rhf"
			},
			{
				"type": "unocc",
				"energy": -0.00109,
				"method": "rhf"
			}
		],
		"cosmo_sigma_profile": { 
			"-0.025": 0.0,
			"-0.024": 0.0,
			"-0.023": 0.0,
			"-0.022": 0.0,
			"-0.021": 0.0,
			"-0.02": 0.0,
			"-0.019": 0.0,
			"-0.018": 0.0,
			"-0.017": 0.0,
			"-0.016": 0.0,
			"-0.015": 0.0,
			"-0.014": 0.0,
			"-0.013": 0.315104841511,
			"-0.012": 1.00857614366,
			"-0.011": 1.11112619513,
			"-0.01": 1.09967768377,
			"-0.009": 1.06313138349,
			"-0.008": 1.67289112956,
			"-0.007": 13.9229349484,
			"-0.006": 22.760853423,
			"-0.005": 23.5908102533,
			"-0.004": 21.2258894625,
			"-0.003": 19.8696015782,
			"-0.002": 16.6184884613,
			"-0.001": 20.5308387243,
			"0.0": 22.3778346473,
			"0.001": 30.3976414563,
			"0.002": 32.6697694845,
			"0.003": 32.7249236713,
			"0.004": 10.0953437461,
			"0.005": 6.96957693779,
			"0.006": 5.70919986398,
			"0.007": 5.0883833755,
			"0.008": 3.79864826122,
			"0.009": 8.15522355088,
			"0.01": 11.5021216469,
			"0.011": 4.44401219557,
			"0.012": 0.457825869492,
			"0.013": 0.0,
			"0.014": 0.0,
			"0.015": 0.0,
			"0.016": 0.0,
			"0.017": 0.0,
			"0.018": 0.0,
			"0.019": 0.0,
			"0.02": 0.0,
			"0.021": 0.0,
			"0.022": 0.0,
			"0.023": 0.0,
			"0.024": 0.0,
			"0.025": 0.0
		}
	}
}
