{
	 "smiles": "COC1=CC(CC(O)=O)=CC(Br)=C1O", 
	 "Tm": 457.15, 
	 "num_atms": 23, 
	 "gaussian": { 
		 "optdone": 1, 
		 "sigma_profile": "yes", 
		 "theory": "DFT", 
		 "functional": "B3LYP", 
		 "basiset": "6-31G**", 
		 "properties": { 
			 "R2extent": 5634.2607, 
			 "electric_dipole_moment_norm": 2.91685377247, 
			 "electric_quadrupole_moment_norm": 22.9586978154, 
			 "total_energy": -3220.66710839, 
			 "HOMO_LUMO_gap": 0.21201, 
			 "cosmo_polarized_energy": -19.32, 
			 "cosmo_cavitation_energy": 29.9, 
			 "cosmo_dispersion_energy": -22.11, 
			 "cosmo_repulsion_energy": 1.77, 
			 "cosmo_total_nonelectrostatic_energy": 9.56, 
			 "SMD_solvation_energy": 6.24 
		},
		"coords": [
			{
				"x": -1.267794159,
				"y": 2.8958788974,
				"z": 2.2413223985,
				"element": "C" 
			},
			{
				"x": -2.099851114,
				"y": 2.0302148835,
				"z": 1.4597779992,
				"element": "O" 
			},
			{
				"x": -1.6111062108,
				"y": 0.7756869978,
				"z": 1.2085054368,
				"element": "C" 
			},
			{
				"x": -1.4024093919,
				"y": 0.3973945183,
				"z": -0.116828292,
				"element": "C" 
			},
			{
				"x": -0.9700683455,
				"y": -0.888194725,
				"z": -0.4576203381,
				"element": "C" 
			},
			{
				"x": -0.7845659271,
				"y": -1.2704254902,
				"z": -1.9070457891,
				"element": "C" 
			},
			{
				"x": 0.6227289112,
				"y": -1.7532540045,
				"z": -2.2779834362,
				"element": "C" 
			},
			{
				"x": 0.857839727,
				"y": -1.828950118,
				"z": -3.6163773209,
				"element": "O" 
			},
			{
				"x": 1.4730275055,
				"y": -2.0915694165,
				"z": -1.4970366692,
				"element": "O" 
			},
			{
				"x": -0.7265372107,
				"y": -1.8087389303,
				"z": 0.565968696,
				"element": "C" 
			},
			{
				"x": -0.936117329,
				"y": -1.4305450486,
				"z": 1.8869863806,
				"element": "C" 
			},
			{
				"x": -0.6217416041,
				"y": -2.6925241898,
				"z": 3.2999562792,
				"element": "Br" 
			},
			{
				"x": -1.3882941088,
				"y": -0.1536373421,
				"z": 2.2454055963,
				"element": "C" 
			},
			{
				"x": -1.6305443834,
				"y": 0.2278931353,
				"z": 3.5243164586,
				"element": "O" 
			},
			{
				"x": -1.784738688,
				"y": 3.8567697802,
				"z": 2.2742877291,
				"element": "H" 
			},
			{
				"x": -0.2883143367,
				"y": 3.0280154784,
				"z": 1.7644712223,
				"element": "H" 
			},
			{
				"x": -1.1330046711,
				"y": 2.5158943313,
				"z": 3.2571837276,
				"element": "H" 
			},
			{
				"x": -1.5975770236,
				"y": 1.1430180149,
				"z": -0.8817373705,
				"element": "H" 
			},
			{
				"x": -1.0520129834,
				"y": -0.4229325756,
				"z": -2.5496807771,
				"element": "H" 
			},
			{
				"x": -1.4698725492,
				"y": -2.0859826923,
				"z": -2.1830845835,
				"element": "H" 
			},
			{
				"x": 0.0897807429,
				"y": -1.516016026,
				"z": -4.1149168507,
				"element": "H" 
			},
			{
				"x": -0.3613050568,
				"y": -2.8028532686,
				"z": 0.3421459908,
				"element": "H" 
			},
			{
				"x": -1.4242217933,
				"y": -0.5210422095,
				"z": 4.1079835122,
				"element": "H" 
			}
		],
		 "valence_orbital": [ 
			{
				"type": "occ",
				"energy": -0.30651,
				"method": "rhf"
			},
			{
				"type": "occ",
				"energy": -0.28377,
				"method": "rhf"
			},
			{
				"type": "occ",
				"energy": -0.27913,
				"method": "rhf"
			},
			{
				"type": "occ",
				"energy": -0.24173,
				"method": "rhf"
			},
			{
				"type": "occ",
				"energy": -0.22434,
				"method": "rhf"
			},
			{
				"type": "unocc",
				"energy": -0.01233,
				"method": "rhf"
			},
			{
				"type": "unocc",
				"energy": -0.00627,
				"method": "rhf"
			},
			{
				"type": "unocc",
				"energy": -0.00451,
				"method": "rhf"
			},
			{
				"type": "unocc",
				"energy": 0.00586,
				"method": "rhf"
			},
			{
				"type": "unocc",
				"energy": 0.04879,
				"method": "rhf"
			}
		],
		"cosmo_sigma_profile": { 
			"-0.025": 0.0,
			"-0.024": 0.0,
			"-0.023": 0.0,
			"-0.022": 0.0,
			"-0.021": 0.0,
			"-0.02": 0.0152192460959,
			"-0.019": 0.776729429695,
			"-0.018": 1.26288333461,
			"-0.017": 1.26325434152,
			"-0.016": 1.18893786808,
			"-0.015": 1.26224416732,
			"-0.014": 1.34786971063,
			"-0.013": 2.01101229077,
			"-0.012": 1.54017427526,
			"-0.011": 1.61872972728,
			"-0.01": 2.7751155496,
			"-0.009": 2.60799575515,
			"-0.008": 6.103710687,
			"-0.007": 7.60040685434,
			"-0.006": 10.3940473948,
			"-0.005": 11.3028012544,
			"-0.004": 13.8357933619,
			"-0.003": 15.638967,
			"-0.002": 14.6090080541,
			"-0.001": 13.6754998351,
			"0.0": 14.6882073137,
			"0.001": 15.1418086413,
			"0.002": 17.7549800662,
			"0.003": 20.5600325476,
			"0.004": 12.5654713506,
			"0.005": 5.89408949263,
			"0.006": 5.77382583529,
			"0.007": 5.45936364033,
			"0.008": 5.06579420921,
			"0.009": 6.31137513127,
			"0.01": 7.37366768749,
			"0.011": 7.66306615424,
			"0.012": 4.61673661076,
			"0.013": 1.26757999176,
			"0.014": 0.0122466910588,
			"0.015": 0.0,
			"0.016": 0.0,
			"0.017": 0.0,
			"0.018": 0.0,
			"0.019": 0.0,
			"0.02": 0.0,
			"0.021": 0.0,
			"0.022": 0.0,
			"0.023": 0.0,
			"0.024": 0.0,
			"0.025": 0.0
		}
	}
}
