{
	 "smiles": "NCC(O)C1=CC=CC=C1", 
	 "Tm": 329.95, 
	 "num_atms": 21, 
	 "gaussian": { 
		 "optdone": 1, 
		 "sigma_profile": "yes", 
		 "theory": "DFT", 
		 "functional": "B3LYP", 
		 "basiset": "6-31G**", 
		 "properties": { 
			 "R2extent": 1807.5957, 
			 "electric_dipole_moment_norm": 1.14362693655, 
			 "electric_quadrupole_moment_norm": 4.0855116742, 
			 "total_energy": -441.445200691, 
			 "HOMO_LUMO_gap": 0.22871, 
			 "cosmo_polarized_energy": -9.57, 
			 "cosmo_cavitation_energy": 23.76, 
			 "cosmo_dispersion_energy": -17.37, 
			 "cosmo_repulsion_energy": 1.44, 
			 "cosmo_total_nonelectrostatic_energy": 7.83, 
			 "SMD_solvation_energy": 2.92 
		},
		"coords": [
			{
				"x": -1.3498571322,
				"y": -3.1967750654,
				"z": -0.1050330255,
				"element": "N" 
			},
			{
				"x": -0.0615875149,
				"y": -2.7846174648,
				"z": -0.6628662437,
				"element": "C" 
			},
			{
				"x": -0.2190707319,
				"y": -1.5211943847,
				"z": -1.5243859675,
				"element": "C" 
			},
			{
				"x": 1.0602117484,
				"y": -1.306001505,
				"z": -2.1169933585,
				"element": "O" 
			},
			{
				"x": -0.6880268554,
				"y": -0.3214165954,
				"z": -0.7150936241,
				"element": "C" 
			},
			{
				"x": 0.2401563214,
				"y": 0.5069756875,
				"z": -0.0691928307,
				"element": "C" 
			},
			{
				"x": -0.1890763981,
				"y": 1.5921059033,
				"z": 0.6960159,
				"element": "C" 
			},
			{
				"x": -1.5529759451,
				"y": 1.8616973126,
				"z": 0.8298011426,
				"element": "C" 
			},
			{
				"x": -2.4849821686,
				"y": 1.0408311593,
				"z": 0.191473195,
				"element": "C" 
			},
			{
				"x": -2.0546163396,
				"y": -0.0412696022,
				"z": -0.5786715858,
				"element": "C" 
			},
			{
				"x": -1.2641784671,
				"y": -4.1175047088,
				"z": 0.315674702,
				"element": "H" 
			},
			{
				"x": -1.6227496853,
				"y": -2.5613636611,
				"z": 0.6408168278,
				"element": "H" 
			},
			{
				"x": 0.7278489079,
				"y": -2.5892183045,
				"z": 0.0823899964,
				"element": "H" 
			},
			{
				"x": 0.3054802858,
				"y": -3.5801321362,
				"z": -1.3199892118,
				"element": "H" 
			},
			{
				"x": -0.9746957429,
				"y": -1.7444364192,
				"z": -2.2929051711,
				"element": "H" 
			},
			{
				"x": 1.0086510691,
				"y": -0.4927599194,
				"z": -2.6360379625,
				"element": "H" 
			},
			{
				"x": 1.2992182561,
				"y": 0.2952402392,
				"z": -0.1817354431,
				"element": "H" 
			},
			{
				"x": 0.5416698579,
				"y": 2.2285605055,
				"z": 1.1877480091,
				"element": "H" 
			},
			{
				"x": -1.8868964403,
				"y": 2.7079486565,
				"z": 1.4235331984,
				"element": "H" 
			},
			{
				"x": -3.5475284994,
				"y": 1.2475051015,
				"z": 0.2859089729,
				"element": "H" 
			},
			{
				"x": -2.7802945254,
				"y": -0.6775747986,
				"z": -1.0783575201,
				"element": "H" 
			}
		],
		 "valence_orbital": [ 
			{
				"type": "occ",
				"energy": -0.31708,
				"method": "rhf"
			},
			{
				"type": "occ",
				"energy": -0.27426,
				"method": "rhf"
			},
			{
				"type": "occ",
				"energy": -0.24931,
				"method": "rhf"
			},
			{
				"type": "occ",
				"energy": -0.24177,
				"method": "rhf"
			},
			{
				"type": "occ",
				"energy": -0.23217,
				"method": "rhf"
			},
			{
				"type": "unocc",
				"energy": -0.00346,
				"method": "rhf"
			},
			{
				"type": "unocc",
				"energy": -0.00152,
				"method": "rhf"
			},
			{
				"type": "unocc",
				"energy": 0.08635,
				"method": "rhf"
			},
			{
				"type": "unocc",
				"energy": 0.09531,
				"method": "rhf"
			},
			{
				"type": "unocc",
				"energy": 0.10317,
				"method": "rhf"
			}
		],
		"cosmo_sigma_profile": { 
			"-0.025": 0.0,
			"-0.024": 0.0,
			"-0.023": 0.0,
			"-0.022": 0.0,
			"-0.021": 0.0,
			"-0.02": 0.0,
			"-0.019": 0.0,
			"-0.018": 0.0,
			"-0.017": 0.0,
			"-0.016": 0.0487478865098,
			"-0.015": 0.931747485869,
			"-0.014": 0.873508989144,
			"-0.013": 0.563257294101,
			"-0.012": 1.06204539015,
			"-0.011": 1.06965621026,
			"-0.01": 1.43384694238,
			"-0.009": 2.11862855044,
			"-0.008": 2.85084509726,
			"-0.007": 4.08299969778,
			"-0.006": 5.62285597793,
			"-0.005": 11.6196583897,
			"-0.004": 14.5920704403,
			"-0.003": 19.4841196497,
			"-0.002": 14.9201052927,
			"-0.001": 16.3076563722,
			"0.0": 13.4836822058,
			"0.001": 9.88976821399,
			"0.002": 9.62740588144,
			"0.003": 9.92212125053,
			"0.004": 9.77519634085,
			"0.005": 9.14128689448,
			"0.006": 8.22540004955,
			"0.007": 3.26984270648,
			"0.008": 1.97022926744,
			"0.009": 2.08889959303,
			"0.01": 1.36833653655,
			"0.011": 1.22014077027,
			"0.012": 2.77969276491,
			"0.013": 2.00968328252,
			"0.014": 1.53585878841,
			"0.015": 0.563282893704,
			"0.016": 0.82790487993,
			"0.017": 0.154716394168,
			"0.018": 0.463761490813,
			"0.019": 0.342868840901,
			"0.02": 0.0164775736783,
			"0.021": 0.0,
			"0.022": 0.0,
			"0.023": 0.0,
			"0.024": 0.0,
			"0.025": 0.0
		}
	}
}
