{
	 "smiles": "CCC1CN2CCC1CC2C(O)C1=CC=NC2=CC=CC=C12", 
	 "Tm": 541.15, 
	 "num_atms": 46, 
	 "gaussian": { 
		 "optdone": 1, 
		 "sigma_profile": "yes", 
		 "theory": "DFT", 
		 "functional": "B3LYP", 
		 "basiset": "6-31G**", 
		 "properties": { 
			 "R2extent": 7491.6154, 
			 "electric_dipole_moment_norm": 2.72391295382, 
			 "electric_quadrupole_moment_norm": 12.3931813135, 
			 "total_energy": -923.20261532, 
			 "HOMO_LUMO_gap": 0.15866, 
			 "cosmo_polarized_energy": -12.86, 
			 "cosmo_cavitation_energy": 43.19, 
			 "cosmo_dispersion_energy": -30.64, 
			 "cosmo_repulsion_energy": 2.3, 
			 "cosmo_total_nonelectrostatic_energy": 14.85, 
			 "SMD_solvation_energy": 2.95 
		},
		"coords": [
			{
				"x": 4.3096400269,
				"y": -2.6369216997,
				"z": 1.7285074342,
				"element": "C" 
			},
			{
				"x": 4.2273552493,
				"y": -1.8670566481,
				"z": 0.4030341291,
				"element": "C" 
			},
			{
				"x": 2.8391810186,
				"y": -1.4566435749,
				"z": -0.1327374054,
				"element": "C" 
			},
			{
				"x": 2.1071234555,
				"y": -0.3817703893,
				"z": 0.7299403523,
				"element": "C" 
			},
			{
				"x": 0.639363262,
				"y": -0.520945556,
				"z": 0.6288774491,
				"element": "N" 
			},
			{
				"x": 0.2463349585,
				"y": -1.7435183408,
				"z": 1.3588641714,
				"element": "C" 
			},
			{
				"x": 1.0597120488,
				"y": -2.9857685762,
				"z": 0.8888123406,
				"element": "C" 
			},
			{
				"x": 1.8056474151,
				"y": -2.5856355458,
				"z": -0.4018632263,
				"element": "C" 
			},
			{
				"x": 0.7387566402,
				"y": -2.0165069104,
				"z": -1.3676582174,
				"element": "C" 
			},
			{
				"x": 0.2942980762,
				"y": -0.6314140465,
				"z": -0.8048815233,
				"element": "C" 
			},
			{
				"x": -1.190483182,
				"y": -0.2937377351,
				"z": -1.0717364084,
				"element": "C" 
			},
			{
				"x": -1.4144854995,
				"y": -0.6458949554,
				"z": -2.4386040583,
				"element": "O" 
			},
			{
				"x": -1.4989459129,
				"y": 1.1817214955,
				"z": -0.8336699219,
				"element": "C" 
			},
			{
				"x": -1.2523021013,
				"y": 2.0794930386,
				"z": -1.8545336045,
				"element": "C" 
			},
			{
				"x": -1.5221061901,
				"y": 3.4545001273,
				"z": -1.6722116708,
				"element": "C" 
			},
			{
				"x": -2.0209668764,
				"y": 3.9703472607,
				"z": -0.5680806246,
				"element": "N" 
			},
			{
				"x": -2.2865975731,
				"y": 3.1102207296,
				"z": 0.4587139126,
				"element": "C" 
			},
			{
				"x": -2.836872635,
				"y": 3.6643073067,
				"z": 1.6459845187,
				"element": "C" 
			},
			{
				"x": -3.1381359579,
				"y": 2.8635669768,
				"z": 2.7224288987,
				"element": "C" 
			},
			{
				"x": -2.8986522827,
				"y": 1.4699381467,
				"z": 2.6565883357,
				"element": "C" 
			},
			{
				"x": -2.3612741002,
				"y": 0.9031533877,
				"z": 1.5226387804,
				"element": "C" 
			},
			{
				"x": -2.0393231728,
				"y": 1.6966936639,
				"z": 0.3870677112,
				"element": "C" 
			},
			{
				"x": 5.3556160864,
				"y": -2.7436634916,
				"z": 2.0352060166,
				"element": "H" 
			},
			{
				"x": 3.8935426107,
				"y": -3.6451461908,
				"z": 1.6434810312,
				"element": "H" 
			},
			{
				"x": 3.7854953214,
				"y": -2.1251245295,
				"z": 2.5427696904,
				"element": "H" 
			},
			{
				"x": 4.8227053254,
				"y": -0.9478404289,
				"z": 0.4981547046,
				"element": "H" 
			},
			{
				"x": 4.7282997757,
				"y": -2.460917132,
				"z": -0.3732448694,
				"element": "H" 
			},
			{
				"x": 3.0481355247,
				"y": -1.0018415927,
				"z": -1.1115961121,
				"element": "H" 
			},
			{
				"x": 2.3910337482,
				"y": 0.6292237926,
				"z": 0.4156150217,
				"element": "H" 
			},
			{
				"x": 2.3741225874,
				"y": -0.4730113673,
				"z": 1.7890920795,
				"element": "H" 
			},
			{
				"x": -0.8253420151,
				"y": -1.908787588,
				"z": 1.2121767811,
				"element": "H" 
			},
			{
				"x": 0.3885930122,
				"y": -1.5538113897,
				"z": 2.4281826617,
				"element": "H" 
			},
			{
				"x": 0.3922326631,
				"y": -3.8302004942,
				"z": 0.6798599502,
				"element": "H" 
			},
			{
				"x": 1.7513094258,
				"y": -3.3167808136,
				"z": 1.6662339043,
				"element": "H" 
			},
			{
				"x": 2.298162167,
				"y": -3.4575546037,
				"z": -0.8482038214,
				"element": "H" 
			},
			{
				"x": -0.1124027021,
				"y": -2.7039148769,
				"z": -1.4381816163,
				"element": "H" 
			},
			{
				"x": 1.1327098786,
				"y": -1.9020812687,
				"z": -2.3819916293,
				"element": "H" 
			},
			{
				"x": 0.8672009121,
				"y": 0.1507314867,
				"z": -1.3159004817,
				"element": "H" 
			},
			{
				"x": -1.8269761722,
				"y": -0.9156334534,
				"z": -0.4271486277,
				"element": "H" 
			},
			{
				"x": -2.3177753371,
				"y": -0.3875260671,
				"z": -2.6640737365,
				"element": "H" 
			},
			{
				"x": -0.8589875881,
				"y": 1.7250119342,
				"z": -2.8015002319,
				"element": "H" 
			},
			{
				"x": -1.3163406331,
				"y": 4.1519002032,
				"z": -2.4842754884,
				"element": "H" 
			},
			{
				"x": -3.0064951009,
				"y": 4.7359756326,
				"z": 1.6598290253,
				"element": "H" 
			},
			{
				"x": -3.5600883955,
				"y": 3.2958028781,
				"z": 3.6252394631,
				"element": "H" 
			},
			{
				"x": -3.1374360015,
				"y": 0.8429511523,
				"z": 3.5109044357,
				"element": "H" 
			},
			{
				"x": -2.1742817602,
				"y": -0.1628899469,
				"z": 1.5019904762,
				"element": "H" 
			}
		],
		 "valence_orbital": [ 
			{
				"type": "occ",
				"energy": -0.27229,
				"method": "rhf"
			},
			{
				"type": "occ",
				"energy": -0.24693,
				"method": "rhf"
			},
			{
				"type": "occ",
				"energy": -0.2448,
				"method": "rhf"
			},
			{
				"type": "occ",
				"energy": -0.22508,
				"method": "rhf"
			},
			{
				"type": "occ",
				"energy": -0.20628,
				"method": "rhf"
			},
			{
				"type": "unocc",
				"energy": -0.04762,
				"method": "rhf"
			},
			{
				"type": "unocc",
				"energy": -0.00983,
				"method": "rhf"
			},
			{
				"type": "unocc",
				"energy": 0.02367,
				"method": "rhf"
			},
			{
				"type": "unocc",
				"energy": 0.06933,
				"method": "rhf"
			},
			{
				"type": "unocc",
				"energy": 0.0783,
				"method": "rhf"
			}
		],
		"cosmo_sigma_profile": { 
			"-0.025": 0.0,
			"-0.024": 0.0,
			"-0.023": 0.0,
			"-0.022": 0.0,
			"-0.021": 0.0,
			"-0.02": 0.0,
			"-0.019": 0.0,
			"-0.018": 0.0,
			"-0.017": 0.0,
			"-0.016": 0.325404889851,
			"-0.015": 0.866809862898,
			"-0.014": 0.890883535316,
			"-0.013": 1.07727521176,
			"-0.012": 0.620323445571,
			"-0.011": 0.684819241786,
			"-0.01": 0.832342951866,
			"-0.009": 1.1854039125,
			"-0.008": 1.70234544406,
			"-0.007": 2.46449033049,
			"-0.006": 9.93390055766,
			"-0.005": 14.4934333992,
			"-0.004": 16.1256581021,
			"-0.003": 30.3485115029,
			"-0.002": 45.2222484183,
			"-0.001": 45.2187032727,
			"0.0": 39.6888301362,
			"0.001": 31.2503408369,
			"0.002": 22.6917552984,
			"0.003": 16.4970419425,
			"0.004": 15.0702334329,
			"0.005": 9.66760766914,
			"0.006": 4.77029606986,
			"0.007": 3.81056754476,
			"0.008": 3.08447607942,
			"0.009": 3.76578206507,
			"0.01": 2.85984963086,
			"0.011": 3.34574047434,
			"0.012": 3.72798978056,
			"0.013": 2.26064749634,
			"0.014": 1.17098925312,
			"0.015": 1.0093047144,
			"0.016": 0.797146471665,
			"0.017": 0.119764848622,
			"0.018": 0.0,
			"0.019": 0.0,
			"0.02": 0.0,
			"0.021": 0.0,
			"0.022": 0.0,
			"0.023": 0.0,
			"0.024": 0.0,
			"0.025": 0.0
		}
	}
}
