{
	 "smiles": "COC1=CC=CC=C1NC(=O)C1=NC(Cl)=C(N=C1)C(C)(C)C", 
	 "Tm": 391.15, 
	 "num_atms": 40, 
	 "gaussian": { 
		 "optdone": 1, 
		 "sigma_profile": "yes", 
		 "theory": "DFT", 
		 "functional": "B3LYP", 
		 "basiset": "6-31G**", 
		 "properties": { 
			 "R2extent": 8896.9602, 
			 "electric_dipole_moment_norm": 3.24875538938, 
			 "electric_quadrupole_moment_norm": 26.2549158555, 
			 "total_energy": -1395.4420749, 
			 "HOMO_LUMO_gap": 0.1443, 
			 "cosmo_polarized_energy": -13.67, 
			 "cosmo_cavitation_energy": 44.48, 
			 "cosmo_dispersion_energy": -30.47, 
			 "cosmo_repulsion_energy": 2.35, 
			 "cosmo_total_nonelectrostatic_energy": 16.36, 
			 "SMD_solvation_energy": 7.37 
		},
		"coords": [
			{
				"x": 5.9444396558,
				"y": 1.7156463601,
				"z": -0.8860419067,
				"element": "C" 
			},
			{
				"x": 4.7599067412,
				"y": 0.9331211514,
				"z": -0.9103451911,
				"element": "O" 
			},
			{
				"x": 4.239845357,
				"y": 0.5060275884,
				"z": 0.2805220039,
				"element": "C" 
			},
			{
				"x": 4.781665274,
				"y": 0.7837349257,
				"z": 1.5360401823,
				"element": "C" 
			},
			{
				"x": 4.1725556813,
				"y": 0.2735997221,
				"z": 2.6866207726,
				"element": "C" 
			},
			{
				"x": 3.0402197355,
				"y": -0.5296594645,
				"z": 2.5834623267,
				"element": "C" 
			},
			{
				"x": 2.5076437822,
				"y": -0.8240888834,
				"z": 1.3271764829,
				"element": "C" 
			},
			{
				"x": 3.0765657622,
				"y": -0.2893192905,
				"z": 0.1711701036,
				"element": "C" 
			},
			{
				"x": 2.6104564119,
				"y": -0.5652223208,
				"z": -1.1314891856,
				"element": "N" 
			},
			{
				"x": 1.3635696145,
				"y": -0.8336196721,
				"z": -1.6353069656,
				"element": "C" 
			},
			{
				"x": 1.2267575497,
				"y": -1.3242512897,
				"z": -2.7527368869,
				"element": "O" 
			},
			{
				"x": 0.1310227124,
				"y": -0.4639069526,
				"z": -0.8530580506,
				"element": "C" 
			},
			{
				"x": 0.1377945859,
				"y": 0.5938772705,
				"z": -0.0329021477,
				"element": "N" 
			},
			{
				"x": -0.9920590486,
				"y": 0.9362215635,
				"z": 0.5494854954,
				"element": "C" 
			},
			{
				"x": -0.851890398,
				"y": 2.3703650127,
				"z": 1.5750636146,
				"element": "Cl" 
			},
			{
				"x": -2.2132820955,
				"y": 0.2280358675,
				"z": 0.3734572302,
				"element": "C" 
			},
			{
				"x": -2.1865615075,
				"y": -0.8220743591,
				"z": -0.4602126913,
				"element": "N" 
			},
			{
				"x": -1.0547421499,
				"y": -1.161301023,
				"z": -1.0786730111,
				"element": "C" 
			},
			{
				"x": -3.5649158974,
				"y": 0.5417191426,
				"z": 1.0403957904,
				"element": "C" 
			},
			{
				"x": -4.6195920176,
				"y": -0.4899501583,
				"z": 0.5905938473,
				"element": "C" 
			},
			{
				"x": -3.4415941656,
				"y": 0.4525749681,
				"z": 2.5815845698,
				"element": "C" 
			},
			{
				"x": -4.0633365862,
				"y": 1.9453432361,
				"z": 0.6154322727,
				"element": "C" 
			},
			{
				"x": 6.7800585865,
				"y": 1.1686158974,
				"z": -0.4314951985,
				"element": "H" 
			},
			{
				"x": 5.7913401606,
				"y": 2.6566260982,
				"z": -0.3434170256,
				"element": "H" 
			},
			{
				"x": 6.1808802761,
				"y": 1.9359809022,
				"z": -1.9279033136,
				"element": "H" 
			},
			{
				"x": 5.6693238831,
				"y": 1.3985010188,
				"z": 1.6254800467,
				"element": "H" 
			},
			{
				"x": 4.5975873302,
				"y": 0.5010423023,
				"z": 3.659389672,
				"element": "H" 
			},
			{
				"x": 2.5771245055,
				"y": -0.9441691815,
				"z": 3.4731543358,
				"element": "H" 
			},
			{
				"x": 1.6476074584,
				"y": -1.4785333065,
				"z": 1.2410418614,
				"element": "H" 
			},
			{
				"x": 3.3295269834,
				"y": -0.6324720218,
				"z": -1.8427241988,
				"element": "H" 
			},
			{
				"x": -1.0824107014,
				"y": -1.9995460444,
				"z": -1.7679580726,
				"element": "H" 
			},
			{
				"x": -5.5724692268,
				"y": -0.2546104988,
				"z": 1.0758937867,
				"element": "H" 
			},
			{
				"x": -4.7674736111,
				"y": -0.4726454278,
				"z": -0.4915696456,
				"element": "H" 
			},
			{
				"x": -4.3331968929,
				"y": -1.5080631626,
				"z": 0.8650476742,
				"element": "H" 
			},
			{
				"x": -4.4233765085,
				"y": 0.6313782843,
				"z": 3.0325281234,
				"element": "H" 
			},
			{
				"x": -3.111657959,
				"y": -0.5459739391,
				"z": 2.8873780093,
				"element": "H" 
			},
			{
				"x": -2.7460566192,
				"y": 1.1850583139,
				"z": 2.9928704955,
				"element": "H" 
			},
			{
				"x": -5.0481156092,
				"y": 2.1273254785,
				"z": 1.0586305255,
				"element": "H" 
			},
			{
				"x": -4.1708827577,
				"y": 2.0054404904,
				"z": -0.4726417066,
				"element": "H" 
			},
			{
				"x": -3.3970782951,
				"y": 2.7457714015,
				"z": 0.9392559752,
				"element": "H" 
			}
		],
		 "valence_orbital": [ 
			{
				"type": "occ",
				"energy": -0.27844,
				"method": "rhf"
			},
			{
				"type": "occ",
				"energy": -0.2629,
				"method": "rhf"
			},
			{
				"type": "occ",
				"energy": -0.24989,
				"method": "rhf"
			},
			{
				"type": "occ",
				"energy": -0.24064,
				"method": "rhf"
			},
			{
				"type": "occ",
				"energy": -0.21291,
				"method": "rhf"
			},
			{
				"type": "unocc",
				"energy": -0.06861,
				"method": "rhf"
			},
			{
				"type": "unocc",
				"energy": -0.04733,
				"method": "rhf"
			},
			{
				"type": "unocc",
				"energy": -0.00709,
				"method": "rhf"
			},
			{
				"type": "unocc",
				"energy": 0.00784,
				"method": "rhf"
			},
			{
				"type": "unocc",
				"energy": 0.02727,
				"method": "rhf"
			}
		],
		"cosmo_sigma_profile": { 
			"-0.025": 0.0,
			"-0.024": 0.0,
			"-0.023": 0.0,
			"-0.022": 0.0,
			"-0.021": 0.0,
			"-0.02": 0.0,
			"-0.019": 0.0,
			"-0.018": 0.0,
			"-0.017": 0.0,
			"-0.016": 0.0,
			"-0.015": 0.0,
			"-0.014": 0.0,
			"-0.013": 0.0845196449269,
			"-0.012": 0.846247571536,
			"-0.011": 0.333381321869,
			"-0.01": 0.251041214656,
			"-0.009": 1.16738076642,
			"-0.008": 1.76267713351,
			"-0.007": 5.38498045778,
			"-0.006": 15.0339318591,
			"-0.005": 20.6709947394,
			"-0.004": 25.7302318673,
			"-0.003": 39.2838562016,
			"-0.002": 33.4044905147,
			"-0.001": 34.306481934,
			"0.0": 37.6840665546,
			"0.001": 32.690053522,
			"0.002": 19.5240407502,
			"0.003": 17.145139986,
			"0.004": 16.670666894,
			"0.005": 14.8928575311,
			"0.006": 10.0756409041,
			"0.007": 4.87533971708,
			"0.008": 4.20534204224,
			"0.009": 4.14620636282,
			"0.01": 3.43447428955,
			"0.011": 2.97651719685,
			"0.012": 4.66080566968,
			"0.013": 3.26396723371,
			"0.014": 0.166504896159,
			"0.015": 0.0,
			"0.016": 0.0,
			"0.017": 0.0,
			"0.018": 0.0,
			"0.019": 0.0,
			"0.02": 0.0,
			"0.021": 0.0,
			"0.022": 0.0,
			"0.023": 0.0,
			"0.024": 0.0,
			"0.025": 0.0
		}
	}
}
