{
	 "smiles": "NC(=O)NC(=O)C(Cl)C1=CC=CC=C1", 
	 "Tm": 444.15, 
	 "num_atms": 23, 
	 "gaussian": { 
		 "optdone": 1, 
		 "sigma_profile": "yes", 
		 "theory": "DFT", 
		 "functional": "B3LYP", 
		 "basiset": "6-31G**", 
		 "properties": { 
			 "R2extent": 3887.8179, 
			 "electric_dipole_moment_norm": 3.85629908072, 
			 "electric_quadrupole_moment_norm": 23.4147772035, 
			 "total_energy": -1068.55424475, 
			 "HOMO_LUMO_gap": 0.21109, 
			 "cosmo_polarized_energy": -23.46, 
			 "cosmo_cavitation_energy": 30.04, 
			 "cosmo_dispersion_energy": -21.07, 
			 "cosmo_repulsion_energy": 1.7, 
			 "cosmo_total_nonelectrostatic_energy": 10.67, 
			 "SMD_solvation_energy": 6.5 
		},
		"coords": [
			{
				"x": -3.3062325424,
				"y": -0.6418880339,
				"z": 2.9883254945,
				"element": "N" 
			},
			{
				"x": -1.9698287439,
				"y": -0.3887870014,
				"z": 2.7325763651,
				"element": "C" 
			},
			{
				"x": -1.0556143505,
				"y": -0.8747561279,
				"z": 3.3586961194,
				"element": "O" 
			},
			{
				"x": -1.8118364503,
				"y": 0.4491082626,
				"z": 1.5995639289,
				"element": "N" 
			},
			{
				"x": -0.6500468621,
				"y": 1.0991165801,
				"z": 1.2295793276,
				"element": "C" 
			},
			{
				"x": 0.3788801987,
				"y": 1.1390348046,
				"z": 1.8668027735,
				"element": "O" 
			},
			{
				"x": -0.6740385244,
				"y": 1.8182009268,
				"z": -0.1383272897,
				"element": "C" 
			},
			{
				"x": -2.3934809722,
				"y": 2.2489022169,
				"z": -0.7113345175,
				"element": "Cl" 
			},
			{
				"x": 0.0611847291,
				"y": 1.052221913,
				"z": -1.2081918588,
				"element": "C" 
			},
			{
				"x": 1.0049657942,
				"y": 1.714955946,
				"z": -2.0016118332,
				"element": "C" 
			},
			{
				"x": 1.6985986752,
				"y": 1.0275114382,
				"z": -2.9976215214,
				"element": "C" 
			},
			{
				"x": 1.4531032901,
				"y": -0.3297161044,
				"z": -3.2089644223,
				"element": "C" 
			},
			{
				"x": 0.5129932624,
				"y": -0.9975737045,
				"z": -2.4201110825,
				"element": "C" 
			},
			{
				"x": -0.180137648,
				"y": -0.3115679776,
				"z": -1.4253538852,
				"element": "C" 
			},
			{
				"x": -3.9924316155,
				"y": 0.0696515295,
				"z": 2.779104191,
				"element": "H" 
			},
			{
				"x": -3.4586283589,
				"y": -1.1452601675,
				"z": 3.8507261018,
				"element": "H" 
			},
			{
				"x": -2.6127951426,
				"y": 0.5917356088,
				"z": 0.9970405346,
				"element": "H" 
			},
			{
				"x": -0.2031604515,
				"y": 2.7861393656,
				"z": 0.02601748,
				"element": "H" 
			},
			{
				"x": 1.1982820121,
				"y": 2.7714153902,
				"z": -1.8364280024,
				"element": "H" 
			},
			{
				"x": 2.4307782855,
				"y": 1.5514135202,
				"z": -3.6047595147,
				"element": "H" 
			},
			{
				"x": 1.9936374881,
				"y": -0.8668878584,
				"z": -3.9827310444,
				"element": "H" 
			},
			{
				"x": 0.3223401689,
				"y": -2.0549352355,
				"z": -2.5774094774,
				"element": "H" 
			},
			{
				"x": -0.9068322421,
				"y": -0.8384352914,
				"z": -0.8140878669,
				"element": "H" 
			}
		],
		 "valence_orbital": [ 
			{
				"type": "occ",
				"energy": -0.2901,
				"method": "rhf"
			},
			{
				"type": "occ",
				"energy": -0.27777,
				"method": "rhf"
			},
			{
				"type": "occ",
				"energy": -0.26277,
				"method": "rhf"
			},
			{
				"type": "occ",
				"energy": -0.26207,
				"method": "rhf"
			},
			{
				"type": "occ",
				"energy": -0.25486,
				"method": "rhf"
			},
			{
				"type": "unocc",
				"energy": -0.04377,
				"method": "rhf"
			},
			{
				"type": "unocc",
				"energy": -0.01869,
				"method": "rhf"
			},
			{
				"type": "unocc",
				"energy": -0.00985,
				"method": "rhf"
			},
			{
				"type": "unocc",
				"energy": 0.02569,
				"method": "rhf"
			},
			{
				"type": "unocc",
				"energy": 0.04928,
				"method": "rhf"
			}
		],
		"cosmo_sigma_profile": { 
			"-0.025": 0.0,
			"-0.024": 0.0,
			"-0.023": 0.0,
			"-0.022": 0.0,
			"-0.021": 0.0,
			"-0.02": 0.0,
			"-0.019": 0.0,
			"-0.018": 0.0,
			"-0.017": 0.188549000506,
			"-0.016": 1.28542640591,
			"-0.015": 1.68624410208,
			"-0.014": 2.93323314609,
			"-0.013": 2.48641451935,
			"-0.012": 3.24521348648,
			"-0.011": 3.65668473652,
			"-0.01": 3.37245419474,
			"-0.009": 5.33217767183,
			"-0.008": 4.67010537012,
			"-0.007": 6.80837830275,
			"-0.006": 14.9111678606,
			"-0.005": 15.0371990061,
			"-0.004": 14.4642255152,
			"-0.003": 12.1572875807,
			"-0.002": 12.3821003537,
			"-0.001": 10.6900687426,
			"0.0": 10.379228208,
			"0.001": 12.5498690166,
			"0.002": 13.2402392334,
			"0.003": 14.9616954535,
			"0.004": 21.1212674653,
			"0.005": 14.5634453451,
			"0.006": 4.61390320109,
			"0.007": 2.62898075793,
			"0.008": 2.49671361348,
			"0.009": 3.23314289645,
			"0.01": 3.26365532945,
			"0.011": 5.8644235587,
			"0.012": 7.4302410303,
			"0.013": 5.00517659441,
			"0.014": 2.15866298237,
			"0.015": 1.30098290156,
			"0.016": 1.22219990877,
			"0.017": 0.178091033309,
			"0.018": 0.0,
			"0.019": 0.0,
			"0.02": 0.0,
			"0.021": 0.0,
			"0.022": 0.0,
			"0.023": 0.0,
			"0.024": 0.0,
			"0.025": 0.0
		}
	}
}
