{
	 "smiles": "COC1=CC=CC=C1OC(=O)OC1=CC=CC=C1OC", 
	 "Tm": 361.15, 
	 "num_atms": 34, 
	 "gaussian": { 
		 "optdone": 1, 
		 "sigma_profile": "yes", 
		 "theory": "DFT", 
		 "functional": "B3LYP", 
		 "basiset": "6-31G**", 
		 "properties": { 
			 "R2extent": 7082.527, 
			 "electric_dipole_moment_norm": 1.61859947485, 
			 "electric_quadrupole_moment_norm": 19.0828360303, 
			 "total_energy": -956.120614771, 
			 "HOMO_LUMO_gap": 0.21685, 
			 "cosmo_polarized_energy": -14.59, 
			 "cosmo_cavitation_energy": 39.55, 
			 "cosmo_dispersion_energy": -26.88, 
			 "cosmo_repulsion_energy": 2.09, 
			 "cosmo_total_nonelectrostatic_energy": 14.76, 
			 "SMD_solvation_energy": 9.62 
		},
		"coords": [
			{
				"x": -3.7703950648,
				"y": -0.0557971902,
				"z": 1.803926648,
				"element": "C" 
			},
			{
				"x": -2.4693937934,
				"y": 0.2293948785,
				"z": 1.3120098,
				"element": "O" 
			},
			{
				"x": -1.6607153255,
				"y": 1.0241323184,
				"z": 2.0614094222,
				"element": "C" 
			},
			{
				"x": -2.0294755941,
				"y": 1.6733840039,
				"z": 3.2437661488,
				"element": "C" 
			},
			{
				"x": -1.1093805457,
				"y": 2.485574158,
				"z": 3.9150803504,
				"element": "C" 
			},
			{
				"x": 0.1805521236,
				"y": 2.6603172146,
				"z": 3.4217211572,
				"element": "C" 
			},
			{
				"x": 0.5591441449,
				"y": 2.0069480591,
				"z": 2.2448050062,
				"element": "C" 
			},
			{
				"x": -0.3498263931,
				"y": 1.1995245183,
				"z": 1.5814422117,
				"element": "C" 
			},
			{
				"x": 0.0217809053,
				"y": 0.6211655841,
				"z": 0.3664983894,
				"element": "O" 
			},
			{
				"x": 0.1683907427,
				"y": -0.7254768296,
				"z": 0.3493616736,
				"element": "C" 
			},
			{
				"x": 0.1223635241,
				"y": -1.4751705105,
				"z": 1.2844763039,
				"element": "O" 
			},
			{
				"x": 0.3834483597,
				"y": -1.0548004199,
				"z": -0.9513778313,
				"element": "O" 
			},
			{
				"x": 0.7337655186,
				"y": -2.3827044794,
				"z": -1.2069306449,
				"element": "C" 
			},
			{
				"x": -0.2235433703,
				"y": -3.2594839096,
				"z": -1.7013914851,
				"element": "C" 
			},
			{
				"x": 0.1401988147,
				"y": -4.5713776751,
				"z": -2.0118757069,
				"element": "C" 
			},
			{
				"x": 1.4567391577,
				"y": -4.9924670095,
				"z": -1.8179407685,
				"element": "C" 
			},
			{
				"x": 2.4148871552,
				"y": -4.1022131062,
				"z": -1.3297015231,
				"element": "C" 
			},
			{
				"x": 2.0631754178,
				"y": -2.7867798603,
				"z": -1.0220724245,
				"element": "C" 
			},
			{
				"x": 3.0004088883,
				"y": -1.930844537,
				"z": -0.4998228412,
				"element": "O" 
			},
			{
				"x": 3.4574658386,
				"y": -0.9103062365,
				"z": -1.3944479636,
				"element": "C" 
			},
			{
				"x": -3.7295608626,
				"y": -0.5500513779,
				"z": 2.7822582859,
				"element": "H" 
			},
			{
				"x": -4.3806056687,
				"y": 0.8530701056,
				"z": 1.8817378625,
				"element": "H" 
			},
			{
				"x": -4.223858792,
				"y": -0.7309372573,
				"z": 1.0771562713,
				"element": "H" 
			},
			{
				"x": -3.0295627765,
				"y": 1.5537403993,
				"z": 3.6430065026,
				"element": "H" 
			},
			{
				"x": -1.4150866227,
				"y": 2.9836334107,
				"z": 4.8303745947,
				"element": "H" 
			},
			{
				"x": 0.8914134567,
				"y": 3.2920214152,
				"z": 3.9440977996,
				"element": "H" 
			},
			{
				"x": 1.5560571495,
				"y": 2.1143259779,
				"z": 1.830216811,
				"element": "H" 
			},
			{
				"x": -1.2405381269,
				"y": -2.9048630617,
				"z": -1.8330669903,
				"element": "H" 
			},
			{
				"x": -0.6054407297,
				"y": -5.2607424104,
				"z": -2.3953601473,
				"element": "H" 
			},
			{
				"x": 1.7420619513,
				"y": -6.0137803471,
				"z": -2.0516334327,
				"element": "H" 
			},
			{
				"x": 3.443812999,
				"y": -4.4083626627,
				"z": -1.1701585316,
				"element": "H" 
			},
			{
				"x": 3.9285388852,
				"y": -1.3508423049,
				"z": -2.2823575987,
				"element": "H" 
			},
			{
				"x": 2.6396878023,
				"y": -0.2518827433,
				"z": -1.7053361152,
				"element": "H" 
			},
			{
				"x": 4.200490831,
				"y": -0.3321481141,
				"z": -0.8416712342,
				"element": "H" 
			}
		],
		 "valence_orbital": [ 
			{
				"type": "occ",
				"energy": -0.27548,
				"method": "rhf"
			},
			{
				"type": "occ",
				"energy": -0.25178,
				"method": "rhf"
			},
			{
				"type": "occ",
				"energy": -0.25025,
				"method": "rhf"
			},
			{
				"type": "occ",
				"energy": -0.23678,
				"method": "rhf"
			},
			{
				"type": "occ",
				"energy": -0.22205,
				"method": "rhf"
			},
			{
				"type": "unocc",
				"energy": -0.0052,
				"method": "rhf"
			},
			{
				"type": "unocc",
				"energy": -0.00314,
				"method": "rhf"
			},
			{
				"type": "unocc",
				"energy": 8e-05,
				"method": "rhf"
			},
			{
				"type": "unocc",
				"energy": 0.00814,
				"method": "rhf"
			},
			{
				"type": "unocc",
				"energy": 0.04421,
				"method": "rhf"
			}
		],
		"cosmo_sigma_profile": { 
			"-0.025": 0.0,
			"-0.024": 0.0,
			"-0.023": 0.0,
			"-0.022": 0.0,
			"-0.021": 0.0,
			"-0.02": 0.0,
			"-0.019": 0.0,
			"-0.018": 0.0,
			"-0.017": 0.0,
			"-0.016": 0.0,
			"-0.015": 0.0,
			"-0.014": 0.0,
			"-0.013": 0.0,
			"-0.012": 0.0,
			"-0.011": 0.0,
			"-0.01": 0.0,
			"-0.009": 0.0,
			"-0.008": 0.344995872762,
			"-0.007": 7.11844097461,
			"-0.006": 23.6853856586,
			"-0.005": 30.0925199256,
			"-0.004": 31.8748179502,
			"-0.003": 29.9586341139,
			"-0.002": 21.5103484458,
			"-0.001": 18.5871755312,
			"0.0": 14.9741704594,
			"0.001": 17.8316447336,
			"0.002": 20.2025617428,
			"0.003": 19.6873637311,
			"0.004": 24.2087751937,
			"0.005": 16.0813188107,
			"0.006": 7.90379289138,
			"0.007": 8.6559756567,
			"0.008": 7.17794404264,
			"0.009": 4.78716576071,
			"0.01": 5.67234358197,
			"0.011": 5.40815338808,
			"0.012": 0.324138695746,
			"0.013": 0.0,
			"0.014": 0.0,
			"0.015": 0.0,
			"0.016": 0.0,
			"0.017": 0.0,
			"0.018": 0.0,
			"0.019": 0.0,
			"0.02": 0.0,
			"0.021": 0.0,
			"0.022": 0.0,
			"0.023": 0.0,
			"0.024": 0.0,
			"0.025": 0.0
		}
	}
}
