{
	 "smiles": "OC(=O)C1=CC(=O)C2=C(N1)C=CC(Br)=C2", 
	 "Tm": 571.15, 
	 "num_atms": 21, 
	 "gaussian": { 
		 "optdone": 1, 
		 "sigma_profile": "yes", 
		 "theory": "DFT", 
		 "functional": "B3LYP", 
		 "basiset": "6-31G**", 
		 "properties": { 
			 "R2extent": 5873.5781, 
			 "electric_dipole_moment_norm": 5.07671165717, 
			 "electric_quadrupole_moment_norm": 12.1182659985, 
			 "total_energy": -3236.53544343, 
			 "HOMO_LUMO_gap": 0.14007, 
			 "cosmo_polarized_energy": -18.49, 
			 "cosmo_cavitation_energy": 28.88, 
			 "cosmo_dispersion_energy": -21.85, 
			 "cosmo_repulsion_energy": 1.69, 
			 "cosmo_total_nonelectrostatic_energy": 8.72, 
			 "SMD_solvation_energy": 5.36 
		},
		"coords": [
			{
				"x": -3.0055425219,
				"y": 4.4067971723,
				"z": -0.5808912713,
				"element": "O" 
			},
			{
				"x": -2.267376146,
				"y": 3.754355636,
				"z": -1.4913797708,
				"element": "C" 
			},
			{
				"x": -2.1966187613,
				"y": 4.0752090346,
				"z": -2.6633251358,
				"element": "O" 
			},
			{
				"x": -1.5293988497,
				"y": 2.5844921835,
				"z": -0.9355537399,
				"element": "C" 
			},
			{
				"x": -1.5696607101,
				"y": 2.1784610332,
				"z": 0.3645042558,
				"element": "C" 
			},
			{
				"x": -0.8083769584,
				"y": 1.0151867169,
				"z": 0.8146459359,
				"element": "C" 
			},
			{
				"x": -0.8185279023,
				"y": 0.6159451348,
				"z": 1.9802380369,
				"element": "O" 
			},
			{
				"x": -0.0160938822,
				"y": 0.3451932969,
				"z": -0.2500941805,
				"element": "C" 
			},
			{
				"x": -0.0251818575,
				"y": 0.826322002,
				"z": -1.5781781662,
				"element": "C" 
			},
			{
				"x": -0.7844879176,
				"y": 1.9362271402,
				"z": -1.8830208581,
				"element": "N" 
			},
			{
				"x": 0.7336047761,
				"y": 0.175040961,
				"z": -2.5701338343,
				"element": "C" 
			},
			{
				"x": 1.4881647952,
				"y": -0.9374421881,
				"z": -2.2410176195,
				"element": "C" 
			},
			{
				"x": 1.4942972315,
				"y": -1.412912428,
				"z": -0.91827375,
				"element": "C" 
			},
			{
				"x": 2.5451479467,
				"y": -2.9499854881,
				"z": -0.4950641168,
				"element": "Br" 
			},
			{
				"x": 0.7550223195,
				"y": -0.7847626484,
				"z": 0.0664996591,
				"element": "C" 
			},
			{
				"x": -3.4382610965,
				"y": 5.1421399331,
				"z": -1.0461114291,
				"element": "H" 
			},
			{
				"x": -2.1696935839,
				"y": 2.7146027548,
				"z": 1.0878154854,
				"element": "H" 
			},
			{
				"x": -0.8195691383,
				"y": 2.3141088607,
				"z": -2.8222416024,
				"element": "H" 
			},
			{
				"x": 0.7250879905,
				"y": 0.5469210371,
				"z": -3.5910047595,
				"element": "H" 
			},
			{
				"x": 2.0742679797,
				"y": -1.4431016768,
				"z": -2.9998480445,
				"element": "H" 
			},
			{
				"x": 0.7437962864,
				"y": -1.1325984677,
				"z": 1.0930349056,
				"element": "H" 
			}
		],
		 "valence_orbital": [ 
			{
				"type": "occ",
				"energy": -0.29114,
				"method": "rhf"
			},
			{
				"type": "occ",
				"energy": -0.27471,
				"method": "rhf"
			},
			{
				"type": "occ",
				"energy": -0.2697,
				"method": "rhf"
			},
			{
				"type": "occ",
				"energy": -0.24251,
				"method": "rhf"
			},
			{
				"type": "occ",
				"energy": -0.225,
				"method": "rhf"
			},
			{
				"type": "unocc",
				"energy": -0.08493,
				"method": "rhf"
			},
			{
				"type": "unocc",
				"energy": -0.04312,
				"method": "rhf"
			},
			{
				"type": "unocc",
				"energy": -0.01368,
				"method": "rhf"
			},
			{
				"type": "unocc",
				"energy": 0.00301,
				"method": "rhf"
			},
			{
				"type": "unocc",
				"energy": 0.03768,
				"method": "rhf"
			}
		],
		"cosmo_sigma_profile": { 
			"-0.025": 0.0,
			"-0.024": 0.0,
			"-0.023": 0.0,
			"-0.022": 0.0,
			"-0.021": 0.0,
			"-0.02": 0.362938240049,
			"-0.019": 1.13691127446,
			"-0.018": 0.804893752464,
			"-0.017": 1.25063113321,
			"-0.016": 0.694399219914,
			"-0.015": 1.81435205112,
			"-0.014": 1.11187272498,
			"-0.013": 1.67911364185,
			"-0.012": 1.94163496228,
			"-0.011": 2.06354095053,
			"-0.01": 1.94406611874,
			"-0.009": 2.94296170691,
			"-0.008": 5.10010292793,
			"-0.007": 6.14675254745,
			"-0.006": 6.91378394966,
			"-0.005": 9.73139499046,
			"-0.004": 11.089977717,
			"-0.003": 13.5176368934,
			"-0.002": 14.2858664727,
			"-0.001": 17.4697560619,
			"0.0": 19.8647023662,
			"0.001": 26.9528842715,
			"0.002": 20.4721703815,
			"0.003": 10.7975496065,
			"0.004": 13.9460359182,
			"0.005": 8.70206557381,
			"0.006": 4.59955830937,
			"0.007": 3.17677503849,
			"0.008": 3.07371298259,
			"0.009": 3.3324223646,
			"0.01": 5.34317534928,
			"0.011": 2.5508373588,
			"0.012": 2.08044504039,
			"0.013": 4.0980679221,
			"0.014": 3.94091561163,
			"0.015": 0.947168976129,
			"0.016": 0.0150209628892,
			"0.017": 0.0,
			"0.018": 0.0,
			"0.019": 0.0,
			"0.02": 0.0,
			"0.021": 0.0,
			"0.022": 0.0,
			"0.023": 0.0,
			"0.024": 0.0,
			"0.025": 0.0
		}
	}
}
