{
	 "smiles": "[O-][N+](=O)C1=CC2=C(C=C1)C(=O)NC2=O", 
	 "Tm": 479.15, 
	 "num_atms": 18, 
	 "gaussian": { 
		 "optdone": 1, 
		 "sigma_profile": "yes", 
		 "theory": "DFT", 
		 "functional": "B3LYP", 
		 "basiset": "6-31G**", 
		 "properties": { 
			 "R2extent": 2896.9176, 
			 "electric_dipole_moment_norm": 2.46792903666, 
			 "electric_quadrupole_moment_norm": 11.3009367205, 
			 "total_energy": -717.583271491, 
			 "HOMO_LUMO_gap": 0.16589, 
			 "cosmo_polarized_energy": -14.99, 
			 "cosmo_cavitation_energy": 24.76, 
			 "cosmo_dispersion_energy": -18.18, 
			 "cosmo_repulsion_energy": 1.41, 
			 "cosmo_total_nonelectrostatic_energy": 7.99, 
			 "SMD_solvation_energy": 7.94 
		},
		"coords": [
			{
				"x": -2.8196598358,
				"y": 1.4149652726,
				"z": 1.6472139461,
				"element": "O" 
			},
			{
				"x": -1.8204022537,
				"y": 0.8450509302,
				"z": 2.0783821467,
				"element": "N" 
			},
			{
				"x": -1.5896630728,
				"y": 0.6198268949,
				"z": 3.2643005241,
				"element": "O" 
			},
			{
				"x": -0.8175466853,
				"y": 0.3953004958,
				"z": 1.0898721074,
				"element": "C" 
			},
			{
				"x": -1.0620983461,
				"y": 0.6424487687,
				"z": -0.2638034181,
				"element": "C" 
			},
			{
				"x": -0.0892879061,
				"y": 0.1994891821,
				"z": -1.1450596497,
				"element": "C" 
			},
			{
				"x": 1.0636759893,
				"y": -0.4538860527,
				"z": -0.7008039337,
				"element": "C" 
			},
			{
				"x": 1.2948999537,
				"y": -0.6934513168,
				"z": 0.6469358805,
				"element": "C" 
			},
			{
				"x": 0.3278529824,
				"y": -0.2560141382,
				"z": 1.5570431311,
				"element": "C" 
			},
			{
				"x": 1.9028328196,
				"y": -0.7986337638,
				"z": -1.8948017587,
				"element": "C" 
			},
			{
				"x": 2.9724418637,
				"y": -1.3657764462,
				"z": -1.9343577336,
				"element": "O" 
			},
			{
				"x": 1.1755418644,
				"y": -0.3161250903,
				"z": -2.9908354956,
				"element": "N" 
			},
			{
				"x": -0.0353421904,
				"y": 0.2994871227,
				"z": -2.6388418075,
				"element": "C" 
			},
			{
				"x": -0.8363277251,
				"y": 0.7925730982,
				"z": -3.4010775577,
				"element": "O" 
			},
			{
				"x": -1.962097365,
				"y": 1.1503878244,
				"z": -0.5871926087,
				"element": "H" 
			},
			{
				"x": 2.193732401,
				"y": -1.2016324641,
				"z": 0.9792312362,
				"element": "H" 
			},
			{
				"x": 0.4402739193,
				"y": -0.4079127845,
				"z": 2.62331625,
				"element": "H" 
			},
			{
				"x": 1.4931735867,
				"y": -0.403097533,
				"z": -3.9466212589,
				"element": "H" 
			}
		],
		 "valence_orbital": [ 
			{
				"type": "occ",
				"energy": -0.31266,
				"method": "rhf"
			},
			{
				"type": "occ",
				"energy": -0.30983,
				"method": "rhf"
			},
			{
				"type": "occ",
				"energy": -0.30795,
				"method": "rhf"
			},
			{
				"type": "occ",
				"energy": -0.30412,
				"method": "rhf"
			},
			{
				"type": "occ",
				"energy": -0.28756,
				"method": "rhf"
			},
			{
				"type": "unocc",
				"energy": -0.12167,
				"method": "rhf"
			},
			{
				"type": "unocc",
				"energy": -0.08746,
				"method": "rhf"
			},
			{
				"type": "unocc",
				"energy": -0.0549,
				"method": "rhf"
			},
			{
				"type": "unocc",
				"energy": 0.01852,
				"method": "rhf"
			},
			{
				"type": "unocc",
				"energy": 0.05558,
				"method": "rhf"
			}
		],
		"cosmo_sigma_profile": { 
			"-0.025": 0.0,
			"-0.024": 0.0,
			"-0.023": 0.0,
			"-0.022": 0.0,
			"-0.021": 0.0,
			"-0.02": 0.0,
			"-0.019": 0.0,
			"-0.018": 0.0997393918091,
			"-0.017": 0.972456657612,
			"-0.016": 1.42356838745,
			"-0.015": 1.24809459779,
			"-0.014": 0.647745945619,
			"-0.013": 0.24544926112,
			"-0.012": 1.27059126074,
			"-0.011": 0.903781150342,
			"-0.01": 0.945745578879,
			"-0.009": 3.67933298251,
			"-0.008": 7.13638143277,
			"-0.007": 8.7140900008,
			"-0.006": 8.87019147221,
			"-0.005": 10.1761560026,
			"-0.004": 13.5935530479,
			"-0.003": 21.0912764023,
			"-0.002": 21.5207958441,
			"-0.001": 12.7335954328,
			"0.0": 5.67917234912,
			"0.001": 5.22577778426,
			"0.002": 4.74829402038,
			"0.003": 4.72761928826,
			"0.004": 6.12239502645,
			"0.005": 5.04007949258,
			"0.006": 7.41103686884,
			"0.007": 12.0372177541,
			"0.008": 8.43937178102,
			"0.009": 7.96244715379,
			"0.01": 8.87734798178,
			"0.011": 8.16852586737,
			"0.012": 0.739257887687,
			"0.013": 0.0,
			"0.014": 0.0,
			"0.015": 0.0,
			"0.016": 0.0,
			"0.017": 0.0,
			"0.018": 0.0,
			"0.019": 0.0,
			"0.02": 0.0,
			"0.021": 0.0,
			"0.022": 0.0,
			"0.023": 0.0,
			"0.024": 0.0,
			"0.025": 0.0
		}
	}
}
