{
	 "smiles": "CC(NC(=O)CCl)C(O)=O", 
	 "Tm": 399.15, 
	 "num_atms": 18, 
	 "gaussian": { 
		 "optdone": 1, 
		 "sigma_profile": "yes", 
		 "theory": "DFT", 
		 "functional": "B3LYP", 
		 "basiset": "6-31G**", 
		 "properties": { 
			 "R2extent": 2407.9488, 
			 "electric_dipole_moment_norm": 1.72162709377, 
			 "electric_quadrupole_moment_norm": 10.9169649262, 
			 "total_energy": -936.002005757, 
			 "HOMO_LUMO_gap": 0.2577, 
			 "cosmo_polarized_energy": -15.06, 
			 "cosmo_cavitation_energy": 24.41, 
			 "cosmo_dispersion_energy": -17.35, 
			 "cosmo_repulsion_energy": 1.47, 
			 "cosmo_total_nonelectrostatic_energy": 8.52, 
			 "SMD_solvation_energy": 6.04 
		},
		"coords": [
			{
				"x": 1.8834417065,
				"y": -0.1621956706,
				"z": -1.6439828093,
				"element": "C" 
			},
			{
				"x": 1.731934628,
				"y": 0.4064761695,
				"z": -0.2277361617,
				"element": "C" 
			},
			{
				"x": 0.7349567395,
				"y": -0.3047128454,
				"z": 0.5508400655,
				"element": "N" 
			},
			{
				"x": 1.0298811734,
				"y": -0.8519094226,
				"z": 1.7556035167,
				"element": "C" 
			},
			{
				"x": 2.1428554459,
				"y": -0.85696388,
				"z": 2.266767341,
				"element": "O" 
			},
			{
				"x": -0.0998155681,
				"y": -1.5261124297,
				"z": 2.5362144126,
				"element": "C" 
			},
			{
				"x": -1.7371983832,
				"y": -1.5545766442,
				"z": 1.7505856726,
				"element": "Cl" 
			},
			{
				"x": 1.4916019146,
				"y": 1.9185534307,
				"z": -0.2791646419,
				"element": "C" 
			},
			{
				"x": 0.6198214321,
				"y": 2.3528062076,
				"z": 0.6564877799,
				"element": "O" 
			},
			{
				"x": 2.0428244836,
				"y": 2.6594579474,
				"z": -1.0621630782,
				"element": "O" 
			},
			{
				"x": 2.623701612,
				"y": 0.416853587,
				"z": -2.1985293527,
				"element": "H" 
			},
			{
				"x": 2.2015832322,
				"y": -1.2059768377,
				"z": -1.5938814249,
				"element": "H" 
			},
			{
				"x": 0.9359288797,
				"y": -0.1143827054,
				"z": -2.1914339397,
				"element": "H" 
			},
			{
				"x": 2.6722845142,
				"y": 0.2756218474,
				"z": 0.321559522,
				"element": "H" 
			},
			{
				"x": -0.2288253224,
				"y": -0.301132797,
				"z": 0.2463260354,
				"element": "H" 
			},
			{
				"x": 0.1851026218,
				"y": -2.5609267359,
				"z": 2.7259556328,
				"element": "H" 
			},
			{
				"x": -0.2106829541,
				"y": -1.0097722514,
				"z": 3.4899965526,
				"element": "H" 
			},
			{
				"x": 0.5766038445,
				"y": 3.3187930303,
				"z": 0.5527548773,
				"element": "H" 
			}
		],
		 "valence_orbital": [ 
			{
				"type": "occ",
				"energy": -0.32742,
				"method": "rhf"
			},
			{
				"type": "occ",
				"energy": -0.31645,
				"method": "rhf"
			},
			{
				"type": "occ",
				"energy": -0.29985,
				"method": "rhf"
			},
			{
				"type": "occ",
				"energy": -0.26734,
				"method": "rhf"
			},
			{
				"type": "occ",
				"energy": -0.26186,
				"method": "rhf"
			},
			{
				"type": "unocc",
				"energy": -0.00416,
				"method": "rhf"
			},
			{
				"type": "unocc",
				"energy": 0.00925,
				"method": "rhf"
			},
			{
				"type": "unocc",
				"energy": 0.01248,
				"method": "rhf"
			},
			{
				"type": "unocc",
				"energy": 0.06638,
				"method": "rhf"
			},
			{
				"type": "unocc",
				"energy": 0.096,
				"method": "rhf"
			}
		],
		"cosmo_sigma_profile": { 
			"-0.025": 0.0,
			"-0.024": 0.0,
			"-0.023": 0.0,
			"-0.022": 0.0,
			"-0.021": 0.0,
			"-0.02": 0.0,
			"-0.019": 0.28236016356,
			"-0.018": 0.912271841559,
			"-0.017": 0.649322962284,
			"-0.016": 1.03649295429,
			"-0.015": 0.795477311388,
			"-0.014": 1.4276497313,
			"-0.013": 1.33400747269,
			"-0.012": 1.04516007395,
			"-0.011": 1.21264155551,
			"-0.01": 1.76696882696,
			"-0.009": 5.08563310067,
			"-0.008": 6.72863623299,
			"-0.007": 7.21702843013,
			"-0.006": 7.84724902851,
			"-0.005": 8.96333751889,
			"-0.004": 11.9771966681,
			"-0.003": 12.6301266781,
			"-0.002": 13.2325835557,
			"-0.001": 13.3529902123,
			"0.0": 13.634022039,
			"0.001": 9.06262933491,
			"0.002": 8.21546873147,
			"0.003": 8.34800337533,
			"0.004": 9.51238615446,
			"0.005": 10.3551932261,
			"0.006": 6.18243380468,
			"0.007": 4.005417316,
			"0.008": 3.84046168906,
			"0.009": 3.15296380876,
			"0.01": 3.37435053619,
			"0.011": 6.46844865612,
			"0.012": 5.73174665527,
			"0.013": 4.70286032698,
			"0.014": 0.589531688783,
			"0.015": 0.0,
			"0.016": 0.0,
			"0.017": 0.0,
			"0.018": 0.0,
			"0.019": 0.0,
			"0.02": 0.0,
			"0.021": 0.0,
			"0.022": 0.0,
			"0.023": 0.0,
			"0.024": 0.0,
			"0.025": 0.0
		}
	}
}
