{
	 "smiles": "OC(=O)C1CCCN(C1)C(=O)C1=NC=CC=C1", 
	 "Tm": 441.15, 
	 "num_atms": 31, 
	 "gaussian": { 
		 "optdone": 1, 
		 "sigma_profile": "yes", 
		 "theory": "DFT", 
		 "functional": "B3LYP", 
		 "basiset": "6-31G**", 
		 "properties": { 
			 "R2extent": 4491.6369, 
			 "electric_dipole_moment_norm": 1.84485788342, 
			 "electric_quadrupole_moment_norm": 18.0879245987, 
			 "total_energy": -800.91256932, 
			 "HOMO_LUMO_gap": 0.18631, 
			 "cosmo_polarized_energy": -16.54, 
			 "cosmo_cavitation_energy": 33.55, 
			 "cosmo_dispersion_energy": -24.07, 
			 "cosmo_repulsion_energy": 1.87, 
			 "cosmo_total_nonelectrostatic_energy": 11.35, 
			 "SMD_solvation_energy": 5.84 
		},
		"coords": [
			{
				"x": -0.254720116,
				"y": 1.5970338248,
				"z": 2.8701889281,
				"element": "O" 
			},
			{
				"x": 0.3880076485,
				"y": 2.0915611901,
				"z": 1.7861411626,
				"element": "C" 
			},
			{
				"x": 1.588828539,
				"y": 2.2556763422,
				"z": 1.7648104884,
				"element": "O" 
			},
			{
				"x": -0.5903919648,
				"y": 2.4040810015,
				"z": 0.6572726215,
				"element": "C" 
			},
			{
				"x": 0.0999506854,
				"y": 3.1283389852,
				"z": -0.5228172822,
				"element": "C" 
			},
			{
				"x": 0.3734424693,
				"y": 2.1647577037,
				"z": -1.693762572,
				"element": "C" 
			},
			{
				"x": 0.7726867846,
				"y": 0.7699695313,
				"z": -1.2029326175,
				"element": "C" 
			},
			{
				"x": -0.3309745135,
				"y": 0.1831849748,
				"z": -0.4113855483,
				"element": "N" 
			},
			{
				"x": -1.2934783871,
				"y": 1.1127354314,
				"z": 0.1963856884,
				"element": "C" 
			},
			{
				"x": -0.6521475873,
				"y": -1.1452186808,
				"z": -0.3347946542,
				"element": "C" 
			},
			{
				"x": -1.7259696511,
				"y": -1.5247230234,
				"z": 0.1409422672,
				"element": "O" 
			},
			{
				"x": 0.3306352543,
				"y": -2.1949980659,
				"z": -0.8107880027,
				"element": "C" 
			},
			{
				"x": 1.6448361082,
				"y": -1.9279902081,
				"z": -0.830028017,
				"element": "N" 
			},
			{
				"x": 2.4779719312,
				"y": -2.9139270168,
				"z": -1.1820257871,
				"element": "C" 
			},
			{
				"x": 2.051145774,
				"y": -4.1934535074,
				"z": -1.5384618427,
				"element": "C" 
			},
			{
				"x": 0.6823392183,
				"y": -4.4643619612,
				"z": -1.5164830271,
				"element": "C" 
			},
			{
				"x": -0.1944810123,
				"y": -3.4530229523,
				"z": -1.1371313031,
				"element": "C" 
			},
			{
				"x": 0.4324809167,
				"y": 1.4010113418,
				"z": 3.5288232367,
				"element": "H" 
			},
			{
				"x": -1.3646600677,
				"y": 3.0405165148,
				"z": 1.1021884881,
				"element": "H" 
			},
			{
				"x": -0.5279479747,
				"y": 3.957181468,
				"z": -0.8650114609,
				"element": "H" 
			},
			{
				"x": 1.0407178979,
				"y": 3.5563334986,
				"z": -0.1674432159,
				"element": "H" 
			},
			{
				"x": 1.1768491027,
				"y": 2.5573894134,
				"z": -2.3258054803,
				"element": "H" 
			},
			{
				"x": -0.5131518927,
				"y": 2.0781407838,
				"z": -2.3337782487,
				"element": "H" 
			},
			{
				"x": 0.9892598583,
				"y": 0.1191114984,
				"z": -2.0498613312,
				"element": "H" 
			},
			{
				"x": 1.6833308231,
				"y": 0.8265227756,
				"z": -0.5985571303,
				"element": "H" 
			},
			{
				"x": -1.7699728967,
				"y": 0.6002798997,
				"z": 1.0307201149,
				"element": "H" 
			},
			{
				"x": -2.0884716474,
				"y": 1.3730200759,
				"z": -0.5161330103,
				"element": "H" 
			},
			{
				"x": 3.538366857,
				"y": -2.6676836604,
				"z": -1.1772839123,
				"element": "H" 
			},
			{
				"x": 2.7734587613,
				"y": -4.9529157847,
				"z": -1.8209834699,
				"element": "H" 
			},
			{
				"x": 0.307206821,
				"y": -5.4481008478,
				"z": -1.7837744543,
				"element": "H" 
			},
			{
				"x": -1.2647477394,
				"y": -3.606550546,
				"z": -1.0706306278,
				"element": "H" 
			}
		],
		 "valence_orbital": [ 
			{
				"type": "occ",
				"energy": -0.27586,
				"method": "rhf"
			},
			{
				"type": "occ",
				"energy": -0.26981,
				"method": "rhf"
			},
			{
				"type": "occ",
				"energy": -0.26206,
				"method": "rhf"
			},
			{
				"type": "occ",
				"energy": -0.24117,
				"method": "rhf"
			},
			{
				"type": "occ",
				"energy": -0.2298,
				"method": "rhf"
			},
			{
				"type": "unocc",
				"energy": -0.04349,
				"method": "rhf"
			},
			{
				"type": "unocc",
				"energy": -0.0228,
				"method": "rhf"
			},
			{
				"type": "unocc",
				"energy": 0.00586,
				"method": "rhf"
			},
			{
				"type": "unocc",
				"energy": 0.05775,
				"method": "rhf"
			},
			{
				"type": "unocc",
				"energy": 0.07409,
				"method": "rhf"
			}
		],
		"cosmo_sigma_profile": { 
			"-0.025": 0.0,
			"-0.024": 0.0,
			"-0.023": 0.0,
			"-0.022": 0.0,
			"-0.021": 0.0,
			"-0.02": 0.0,
			"-0.019": 0.00857926729125,
			"-0.018": 0.724697951167,
			"-0.017": 0.90627061056,
			"-0.016": 0.835900824002,
			"-0.015": 0.930406090044,
			"-0.014": 0.853815297704,
			"-0.013": 0.815943957009,
			"-0.012": 0.387540019481,
			"-0.011": 0.591003581093,
			"-0.01": 0.866321059647,
			"-0.009": 0.491631682081,
			"-0.008": 1.47523359392,
			"-0.007": 7.38913364506,
			"-0.006": 13.1417327599,
			"-0.005": 18.1007193554,
			"-0.004": 22.156377685,
			"-0.003": 24.3808741926,
			"-0.002": 24.6119844429,
			"-0.001": 20.8022571381,
			"0.0": 19.7857505927,
			"0.001": 18.2345883573,
			"0.002": 21.2776151722,
			"0.003": 9.01539465945,
			"0.004": 6.92943015816,
			"0.005": 6.42602920012,
			"0.006": 6.52553656418,
			"0.007": 5.26594514442,
			"0.008": 4.16250547015,
			"0.009": 5.93018944484,
			"0.01": 4.74787934105,
			"0.011": 4.67443900727,
			"0.012": 5.50116442753,
			"0.013": 2.85557345265,
			"0.014": 3.93978622782,
			"0.015": 0.0700353012001,
			"0.016": 0.0,
			"0.017": 0.0,
			"0.018": 0.0,
			"0.019": 0.0,
			"0.02": 0.0,
			"0.021": 0.0,
			"0.022": 0.0,
			"0.023": 0.0,
			"0.024": 0.0,
			"0.025": 0.0
		}
	}
}
