{
	 "smiles": "ClC1=C(Cl)C(Cl)(Cl)C(Cl)(Cl)C1(Cl)Cl", 
	 "Tm": 313.15, 
	 "num_atms": 13, 
	 "gaussian": { 
		 "optdone": 1, 
		 "sigma_profile": "yes", 
		 "theory": "DFT", 
		 "functional": "B3LYP", 
		 "basiset": "6-31G**", 
		 "properties": { 
			 "R2extent": 6207.2122, 
			 "electric_dipole_moment_norm": 1.00847316771, 
			 "electric_quadrupole_moment_norm": 3.65485112693, 
			 "total_energy": -3871.9918859, 
			 "HOMO_LUMO_gap": 0.20197, 
			 "cosmo_polarized_energy": -2.67, 
			 "cosmo_cavitation_energy": 29.65, 
			 "cosmo_dispersion_energy": -21.77, 
			 "cosmo_repulsion_energy": 1.69, 
			 "cosmo_total_nonelectrostatic_energy": 9.57, 
			 "SMD_solvation_energy": 2.77 
		},
		"coords": [
			{
				"x": -3.5959130941,
				"y": 0.0257838823,
				"z": -3.1322703899,
				"element": "Cl" 
			},
			{
				"x": -2.1626280345,
				"y": -0.1678520901,
				"z": -2.2177591362,
				"element": "C" 
			},
			{
				"x": -1.9656845378,
				"y": -1.0738447465,
				"z": -1.244130003,
				"element": "C" 
			},
			{
				"x": -3.1052494874,
				"y": -2.2315516086,
				"z": -0.7062838933,
				"element": "Cl" 
			},
			{
				"x": -0.6314808691,
				"y": -0.8971369423,
				"z": -0.5604727338,
				"element": "C" 
			},
			{
				"x": 0.1622183888,
				"y": -2.438743316,
				"z": -0.1168062502,
				"element": "Cl" 
			},
			{
				"x": -0.8807948317,
				"y": 0.0269405915,
				"z": 0.9820286005,
				"element": "Cl" 
			},
			{
				"x": 0.1668403032,
				"y": -0.0513340046,
				"z": -1.6523740091,
				"element": "C" 
			},
			{
				"x": 0.8650989306,
				"y": -1.195884981,
				"z": -2.8589386461,
				"element": "Cl" 
			},
			{
				"x": 1.4827154739,
				"y": 0.9384790111,
				"z": -0.9974381756,
				"element": "Cl" 
			},
			{
				"x": -0.9959190724,
				"y": 0.7791650018,
				"z": -2.3615728593,
				"element": "C" 
			},
			{
				"x": -1.3796460669,
				"y": 2.3198329015,
				"z": -1.4814801456,
				"element": "Cl" 
			},
			{
				"x": -0.6348571026,
				"y": 1.2280463009,
				"z": -4.0561023585,
				"element": "Cl" 
			}
		],
		 "valence_orbital": [ 
			{
				"type": "occ",
				"energy": -0.3304,
				"method": "rhf"
			},
			{
				"type": "occ",
				"energy": -0.3264,
				"method": "rhf"
			},
			{
				"type": "occ",
				"energy": -0.31807,
				"method": "rhf"
			},
			{
				"type": "occ",
				"energy": -0.30377,
				"method": "rhf"
			},
			{
				"type": "occ",
				"energy": -0.28736,
				"method": "rhf"
			},
			{
				"type": "unocc",
				"energy": -0.08539,
				"method": "rhf"
			},
			{
				"type": "unocc",
				"energy": -0.06733,
				"method": "rhf"
			},
			{
				"type": "unocc",
				"energy": -0.05582,
				"method": "rhf"
			},
			{
				"type": "unocc",
				"energy": -0.01965,
				"method": "rhf"
			},
			{
				"type": "unocc",
				"energy": -0.01729,
				"method": "rhf"
			}
		],
		"cosmo_sigma_profile": { 
			"-0.025": 0.0,
			"-0.024": 0.0,
			"-0.023": 0.0,
			"-0.022": 0.0,
			"-0.021": 0.0,
			"-0.02": 0.0,
			"-0.019": 0.0,
			"-0.018": 0.0,
			"-0.017": 0.0,
			"-0.016": 0.0,
			"-0.015": 0.0,
			"-0.014": 0.0,
			"-0.013": 0.0,
			"-0.012": 0.0,
			"-0.011": 0.0,
			"-0.01": 0.0,
			"-0.009": 0.0,
			"-0.008": 0.0,
			"-0.007": 0.0121657496691,
			"-0.006": 1.73924406645,
			"-0.005": 8.0614371308,
			"-0.004": 15.9042546219,
			"-0.003": 17.5870126894,
			"-0.002": 21.7883545016,
			"-0.001": 25.3696427411,
			"0.0": 31.5228036182,
			"0.001": 49.4658468349,
			"0.002": 55.7548347984,
			"0.003": 25.8560819649,
			"0.004": 1.47615788175,
			"0.005": 0.0,
			"0.006": 0.0,
			"0.007": 0.0,
			"0.008": 0.0,
			"0.009": 0.0,
			"0.01": 0.0,
			"0.011": 0.0,
			"0.012": 0.0,
			"0.013": 0.0,
			"0.014": 0.0,
			"0.015": 0.0,
			"0.016": 0.0,
			"0.017": 0.0,
			"0.018": 0.0,
			"0.019": 0.0,
			"0.02": 0.0,
			"0.021": 0.0,
			"0.022": 0.0,
			"0.023": 0.0,
			"0.024": 0.0,
			"0.025": 0.0
		}
	}
}
