{
	 "smiles": "CC(C)(C)C1=NOC(NC(=O)CBr)=C1", 
	 "Tm": 413.15, 
	 "num_atms": 27, 
	 "gaussian": { 
		 "optdone": 1, 
		 "sigma_profile": "yes", 
		 "theory": "DFT", 
		 "functional": "B3LYP", 
		 "basiset": "6-31G**", 
		 "properties": { 
			 "R2extent": 5699.6693, 
			 "electric_dipole_moment_norm": 3.35391617367, 
			 "electric_quadrupole_moment_norm": 7.8927224644, 
			 "total_energy": -3182.11687973, 
			 "HOMO_LUMO_gap": 0.19088, 
			 "cosmo_polarized_energy": -14.01, 
			 "cosmo_cavitation_energy": 32.76, 
			 "cosmo_dispersion_energy": -23.03, 
			 "cosmo_repulsion_energy": 1.84, 
			 "cosmo_total_nonelectrostatic_energy": 11.57, 
			 "SMD_solvation_energy": 5.23 
		},
		"coords": [
			{
				"x": 1.5276601163,
				"y": 0.2716123924,
				"z": 2.7404949296,
				"element": "C" 
			},
			{
				"x": 1.6961949043,
				"y": 0.8308152491,
				"z": 1.3094952304,
				"element": "C" 
			},
			{
				"x": 2.8447682322,
				"y": 0.08347034,
				"z": 0.5942587007,
				"element": "C" 
			},
			{
				"x": 2.0243875997,
				"y": 2.3336218159,
				"z": 1.3786591698,
				"element": "C" 
			},
			{
				"x": 0.4079236709,
				"y": 0.5964983163,
				"z": 0.5397257377,
				"element": "C" 
			},
			{
				"x": -0.2623291346,
				"y": 1.6049793027,
				"z": 0.0274567126,
				"element": "N" 
			},
			{
				"x": -1.3902751604,
				"y": 1.0298920456,
				"z": -0.6042358652,
				"element": "O" 
			},
			{
				"x": -1.3250686139,
				"y": -0.3054318548,
				"z": -0.4632251096,
				"element": "C" 
			},
			{
				"x": -2.3591196526,
				"y": -1.0725518042,
				"z": -0.9720564297,
				"element": "N" 
			},
			{
				"x": -3.2061172071,
				"y": -0.8676639284,
				"z": -2.0571806235,
				"element": "C" 
			},
			{
				"x": -4.0932528683,
				"y": -1.6697487789,
				"z": -2.2858436867,
				"element": "O" 
			},
			{
				"x": -2.9907101847,
				"y": 0.3513976832,
				"z": -2.9336501866,
				"element": "C" 
			},
			{
				"x": -1.3629774824,
				"y": 0.1250900452,
				"z": -4.0340084368,
				"element": "Br" 
			},
			{
				"x": -0.2208068111,
				"y": -0.6557885197,
				"z": 0.2568469934,
				"element": "C" 
			},
			{
				"x": 0.7163209599,
				"y": 0.7812969609,
				"z": 3.2696275745,
				"element": "H" 
			},
			{
				"x": 1.3063992337,
				"y": -0.800735105,
				"z": 2.7332713161,
				"element": "H" 
			},
			{
				"x": 2.4508091906,
				"y": 0.4188092417,
				"z": 3.3111270198,
				"element": "H" 
			},
			{
				"x": 2.9808906049,
				"y": 0.4555802856,
				"z": -0.4258629303,
				"element": "H" 
			},
			{
				"x": 3.7834804209,
				"y": 0.2308340044,
				"z": 1.1389339087,
				"element": "H" 
			},
			{
				"x": 2.6555178396,
				"y": -0.9935428997,
				"z": 0.5391162281,
				"element": "H" 
			},
			{
				"x": 2.9552528362,
				"y": 2.480887354,
				"z": 1.9360510185,
				"element": "H" 
			},
			{
				"x": 1.2294614359,
				"y": 2.8920967118,
				"z": 1.8801089268,
				"element": "H" 
			},
			{
				"x": 2.1482861348,
				"y": 2.7599888874,
				"z": 0.3797673894,
				"element": "H" 
			},
			{
				"x": -2.5192906664,
				"y": -1.9651426315,
				"z": -0.5224901722,
				"element": "H" 
			},
			{
				"x": -2.8479674928,
				"y": 1.2715339757,
				"z": -2.3732748812,
				"element": "H" 
			},
			{
				"x": -3.8257898999,
				"y": 0.4149976205,
				"z": -3.6252297374,
				"element": "H" 
			},
			{
				"x": 0.1079519942,
				"y": -1.6488967102,
				"z": 0.5193172033,
				"element": "H" 
			}
		],
		 "valence_orbital": [ 
			{
				"type": "occ",
				"energy": -0.29891,
				"method": "rhf"
			},
			{
				"type": "occ",
				"energy": -0.29358,
				"method": "rhf"
			},
			{
				"type": "occ",
				"energy": -0.28274,
				"method": "rhf"
			},
			{
				"type": "occ",
				"energy": -0.2726,
				"method": "rhf"
			},
			{
				"type": "occ",
				"energy": -0.24339,
				"method": "rhf"
			},
			{
				"type": "unocc",
				"energy": -0.05251,
				"method": "rhf"
			},
			{
				"type": "unocc",
				"energy": -0.00765,
				"method": "rhf"
			},
			{
				"type": "unocc",
				"energy": 0.03582,
				"method": "rhf"
			},
			{
				"type": "unocc",
				"energy": 0.05052,
				"method": "rhf"
			},
			{
				"type": "unocc",
				"energy": 0.07322,
				"method": "rhf"
			}
		],
		"cosmo_sigma_profile": { 
			"-0.025": 0.0,
			"-0.024": 0.0,
			"-0.023": 0.0,
			"-0.022": 0.0,
			"-0.021": 0.0,
			"-0.02": 0.0,
			"-0.019": 0.0,
			"-0.018": 0.0,
			"-0.017": 0.368089859761,
			"-0.016": 1.12307429986,
			"-0.015": 1.30121484906,
			"-0.014": 0.830633511863,
			"-0.013": 1.34500050109,
			"-0.012": 1.13221587243,
			"-0.011": 0.757344728813,
			"-0.01": 0.793696634453,
			"-0.009": 2.84729752652,
			"-0.008": 6.42381236332,
			"-0.007": 6.23761779204,
			"-0.006": 8.18449060895,
			"-0.005": 8.12000098709,
			"-0.004": 9.64315508674,
			"-0.003": 25.7781374064,
			"-0.002": 22.994202447,
			"-0.001": 24.9101560962,
			"0.0": 28.1811413072,
			"0.001": 28.3034497872,
			"0.002": 14.7046883091,
			"0.003": 11.7032396094,
			"0.004": 12.5733972724,
			"0.005": 11.3059119488,
			"0.006": 3.78226026337,
			"0.007": 4.0167041198,
			"0.008": 3.21056633107,
			"0.009": 3.86586867285,
			"0.01": 3.6080023832,
			"0.011": 5.90317143705,
			"0.012": 4.57678384301,
			"0.013": 1.46822762078,
			"0.014": 0.850588012138,
			"0.015": 0.0438225191433,
			"0.016": 0.0,
			"0.017": 0.0,
			"0.018": 0.0,
			"0.019": 0.0,
			"0.02": 0.0,
			"0.021": 0.0,
			"0.022": 0.0,
			"0.023": 0.0,
			"0.024": 0.0,
			"0.025": 0.0
		}
	}
}
