{
	 "smiles": "OC(=O)C1CCN(CC1)C(=O)C1=CN=CC=C1", 
	 "Tm": 462.15, 
	 "num_atms": 31, 
	 "gaussian": { 
		 "optdone": 1, 
		 "sigma_profile": "yes", 
		 "theory": "DFT", 
		 "functional": "B3LYP", 
		 "basiset": "6-31G**", 
		 "properties": { 
			 "R2extent": 5865.2891, 
			 "electric_dipole_moment_norm": 2.72049906635, 
			 "electric_quadrupole_moment_norm": 30.0982434858, 
			 "total_energy": -800.900094343, 
			 "HOMO_LUMO_gap": 0.20069, 
			 "cosmo_polarized_energy": -24.41, 
			 "cosmo_cavitation_energy": 33.85, 
			 "cosmo_dispersion_energy": -24.23, 
			 "cosmo_repulsion_energy": 1.86, 
			 "cosmo_total_nonelectrostatic_energy": 11.48, 
			 "SMD_solvation_energy": 4.71 
		},
		"coords": [
			{
				"x": 3.6887051723,
				"y": -2.4170883833,
				"z": -1.3042861502,
				"element": "O" 
			},
			{
				"x": 2.4002154211,
				"y": -2.6985098427,
				"z": -0.971920453,
				"element": "C" 
			},
			{
				"x": 1.7609087086,
				"y": -3.4649287392,
				"z": -1.6493286584,
				"element": "O" 
			},
			{
				"x": 1.8646095997,
				"y": -1.9577882924,
				"z": 0.2550365317,
				"element": "C" 
			},
			{
				"x": 1.8733630588,
				"y": -0.4220492911,
				"z": -0.0117373706,
				"element": "C" 
			},
			{
				"x": 0.8415084064,
				"y": 0.3029626302,
				"z": 0.851168705,
				"element": "C" 
			},
			{
				"x": -0.5135827847,
				"y": -0.1714626161,
				"z": 0.5332814084,
				"element": "N" 
			},
			{
				"x": -0.6395191946,
				"y": -1.5502837412,
				"z": 0.0315494398,
				"element": "C" 
			},
			{
				"x": 0.449142681,
				"y": -2.4422302751,
				"z": 0.6359825252,
				"element": "C" 
			},
			{
				"x": -1.542979472,
				"y": 0.5878959107,
				"z": 1.0373139393,
				"element": "C" 
			},
			{
				"x": -1.3209775901,
				"y": 1.5690951685,
				"z": 1.7464337391,
				"element": "O" 
			},
			{
				"x": -2.9585549351,
				"y": 0.2275710389,
				"z": 0.6819186935,
				"element": "C" 
			},
			{
				"x": -3.9436282698,
				"y": 0.4000689395,
				"z": 1.6672534587,
				"element": "C" 
			},
			{
				"x": -5.2457946377,
				"y": 0.1803139562,
				"z": 1.4694157486,
				"element": "N" 
			},
			{
				"x": -5.6250606547,
				"y": -0.1997901356,
				"z": 0.2412280115,
				"element": "C" 
			},
			{
				"x": -4.7376820791,
				"y": -0.3733321289,
				"z": -0.8211596112,
				"element": "C" 
			},
			{
				"x": -3.3791104629,
				"y": -0.160002039,
				"z": -0.5948992134,
				"element": "C" 
			},
			{
				"x": 4.0768976092,
				"y": -1.8037523647,
				"z": -0.6644017518,
				"element": "H" 
			},
			{
				"x": 2.5476707126,
				"y": -2.1700677033,
				"z": 1.0891031853,
				"element": "H" 
			},
			{
				"x": 2.8613931367,
				"y": 0.0078381598,
				"z": 0.1870733155,
				"element": "H" 
			},
			{
				"x": 1.6523401326,
				"y": -0.223957206,
				"z": -1.0671198371,
				"element": "H" 
			},
			{
				"x": 1.0589324741,
				"y": 0.158588206,
				"z": 1.9193050947,
				"element": "H" 
			},
			{
				"x": 0.8729595526,
				"y": 1.3806494983,
				"z": 0.6764571348,
				"element": "H" 
			},
			{
				"x": -1.624250763,
				"y": -1.9354173103,
				"z": 0.2980831728,
				"element": "H" 
			},
			{
				"x": -0.5625662941,
				"y": -1.5803827773,
				"z": -1.0636916147,
				"element": "H" 
			},
			{
				"x": 0.3416533743,
				"y": -2.4436338743,
				"z": 1.7255845342,
				"element": "H" 
			},
			{
				"x": 0.3072977298,
				"y": -3.4660695457,
				"z": 0.2823394991,
				"element": "H" 
			},
			{
				"x": -3.6454334281,
				"y": 0.7362988282,
				"z": 2.657311175,
				"element": "H" 
			},
			{
				"x": -6.6915378185,
				"y": -0.3660162947,
				"z": 0.0993752912,
				"element": "H" 
			},
			{
				"x": -5.1033056049,
				"y": -0.663625024,
				"z": -1.8010426055,
				"element": "H" 
			},
			{
				"x": -2.6629137806,
				"y": -0.2728947511,
				"z": -1.4031273377,
				"element": "H" 
			}
		],
		 "valence_orbital": [ 
			{
				"type": "occ",
				"energy": -0.28209,
				"method": "rhf"
			},
			{
				"type": "occ",
				"energy": -0.27537,
				"method": "rhf"
			},
			{
				"type": "occ",
				"energy": -0.26052,
				"method": "rhf"
			},
			{
				"type": "occ",
				"energy": -0.24937,
				"method": "rhf"
			},
			{
				"type": "occ",
				"energy": -0.24355,
				"method": "rhf"
			},
			{
				"type": "unocc",
				"energy": -0.04286,
				"method": "rhf"
			},
			{
				"type": "unocc",
				"energy": -0.02626,
				"method": "rhf"
			},
			{
				"type": "unocc",
				"energy": -0.00223,
				"method": "rhf"
			},
			{
				"type": "unocc",
				"energy": 0.0343,
				"method": "rhf"
			},
			{
				"type": "unocc",
				"energy": 0.04082,
				"method": "rhf"
			}
		],
		"cosmo_sigma_profile": { 
			"-0.025": 0.0,
			"-0.024": 0.0,
			"-0.023": 0.0,
			"-0.022": 0.0,
			"-0.021": 0.0,
			"-0.02": 0.0,
			"-0.019": 0.119543548829,
			"-0.018": 0.914991416021,
			"-0.017": 1.31253452516,
			"-0.016": 1.13563681463,
			"-0.015": 1.58556249008,
			"-0.014": 0.838033157659,
			"-0.013": 0.521461054381,
			"-0.012": 1.37606473354,
			"-0.011": 1.53027613974,
			"-0.01": 1.06401880226,
			"-0.009": 1.03267167284,
			"-0.008": 2.46214466601,
			"-0.007": 8.77141470506,
			"-0.006": 15.9335511405,
			"-0.005": 24.4268464835,
			"-0.004": 28.5215870758,
			"-0.003": 26.2702581929,
			"-0.002": 18.2916971044,
			"-0.001": 14.9477627755,
			"0.0": 12.483352626,
			"0.001": 15.3497204315,
			"0.002": 13.6014752933,
			"0.003": 6.21379056043,
			"0.004": 6.81174873619,
			"0.005": 5.78191258541,
			"0.006": 4.51040871122,
			"0.007": 5.27283589666,
			"0.008": 4.49389476094,
			"0.009": 6.80810107043,
			"0.01": 6.68908199716,
			"0.011": 7.68999918908,
			"0.012": 7.7642194552,
			"0.013": 5.58201356778,
			"0.014": 4.91329585228,
			"0.015": 1.33796271343,
			"0.016": 0.67226483089,
			"0.017": 0.0864564233016,
			"0.018": 0.0,
			"0.019": 0.0,
			"0.02": 0.0,
			"0.021": 0.0,
			"0.022": 0.0,
			"0.023": 0.0,
			"0.024": 0.0,
			"0.025": 0.0
		}
	}
}
