{
	 "smiles": "OC1=CC=C(OCC2CC2)C=C1", 
	 "Tm": 328.15, 
	 "num_atms": 24, 
	 "gaussian": { 
		 "optdone": 1, 
		 "sigma_profile": "yes", 
		 "theory": "DFT", 
		 "functional": "B3LYP", 
		 "basiset": "6-31G**", 
		 "properties": { 
			 "R2extent": 3448.8532, 
			 "electric_dipole_moment_norm": 2.41175463304, 
			 "electric_quadrupole_moment_norm": 8.3694163094, 
			 "total_energy": -538.697563522, 
			 "HOMO_LUMO_gap": 0.19616, 
			 "cosmo_polarized_energy": -10.74, 
			 "cosmo_cavitation_energy": 27.58, 
			 "cosmo_dispersion_energy": -20.3, 
			 "cosmo_repulsion_energy": 1.64, 
			 "cosmo_total_nonelectrostatic_energy": 8.92, 
			 "SMD_solvation_energy": 4.75 
		},
		"coords": [
			{
				"x": -0.771364057,
				"y": -3.5902185595,
				"z": -0.1201014988,
				"element": "O" 
			},
			{
				"x": -0.5961802574,
				"y": -2.233691985,
				"z": -0.0168391234,
				"element": "C" 
			},
			{
				"x": -0.8886661067,
				"y": -1.4564518184,
				"z": -1.1459673728,
				"element": "C" 
			},
			{
				"x": -0.7319038162,
				"y": -0.0785500704,
				"z": -1.1025492799,
				"element": "C" 
			},
			{
				"x": -0.2797888627,
				"y": 0.5560743428,
				"z": 0.0654908667,
				"element": "C" 
			},
			{
				"x": -0.1577344681,
				"y": 1.9181537327,
				"z": -0.0054044226,
				"element": "O" 
			},
			{
				"x": 0.2568435839,
				"y": 2.621612295,
				"z": 1.1627711171,
				"element": "C" 
			},
			{
				"x": 0.2643521816,
				"y": 4.0931422185,
				"z": 0.850995349,
				"element": "C" 
			},
			{
				"x": 1.2010011959,
				"y": 5.0027174618,
				"z": 1.6105358135,
				"element": "C" 
			},
			{
				"x": 1.4497713326,
				"y": 4.7086457029,
				"z": 0.1519692085,
				"element": "C" 
			},
			{
				"x": 0.0131486907,
				"y": -0.2179856979,
				"z": 1.1915416917,
				"element": "C" 
			},
			{
				"x": -0.1469740387,
				"y": -1.6086539277,
				"z": 1.1447844086,
				"element": "C" 
			},
			{
				"x": -0.5360404754,
				"y": -4.0008885293,
				"z": 0.7214595881,
				"element": "H" 
			},
			{
				"x": -1.2378629228,
				"y": -1.9503079624,
				"z": -2.0468507532,
				"element": "H" 
			},
			{
				"x": -0.9551042439,
				"y": 0.5349101077,
				"z": -1.9694253322,
				"element": "H" 
			},
			{
				"x": 1.2626599221,
				"y": 2.2927837724,
				"z": 1.4674121982,
				"element": "H" 
			},
			{
				"x": -0.4309928621,
				"y": 2.4035836882,
				"z": 1.9937656351,
				"element": "H" 
			},
			{
				"x": -0.7135166293,
				"y": 4.4972547129,
				"z": 0.5999583735,
				"element": "H" 
			},
			{
				"x": 0.8407202618,
				"y": 5.9881404862,
				"z": 1.8887501913,
				"element": "H" 
			},
			{
				"x": 1.8682132989,
				"y": 4.5544820387,
				"z": 2.34197204,
				"element": "H" 
			},
			{
				"x": 1.263869617,
				"y": 5.4943322055,
				"z": -0.5734947219,
				"element": "H" 
			},
			{
				"x": 2.2794912605,
				"y": 4.0555806822,
				"z": -0.1032504967,
				"element": "H" 
			},
			{
				"x": 0.3659931788,
				"y": 0.2374843136,
				"z": 2.1090112558,
				"element": "H" 
			},
			{
				"x": 0.0840642166,
				"y": -2.2011492105,
				"z": 2.0279652644,
				"element": "H" 
			}
		],
		 "valence_orbital": [ 
			{
				"type": "occ",
				"energy": -0.29668,
				"method": "rhf"
			},
			{
				"type": "occ",
				"energy": -0.29438,
				"method": "rhf"
			},
			{
				"type": "occ",
				"energy": -0.28481,
				"method": "rhf"
			},
			{
				"type": "occ",
				"energy": -0.24745,
				"method": "rhf"
			},
			{
				"type": "occ",
				"energy": -0.19503,
				"method": "rhf"
			},
			{
				"type": "unocc",
				"energy": 0.00113,
				"method": "rhf"
			},
			{
				"type": "unocc",
				"energy": 0.03154,
				"method": "rhf"
			},
			{
				"type": "unocc",
				"energy": 0.07513,
				"method": "rhf"
			},
			{
				"type": "unocc",
				"energy": 0.0941,
				"method": "rhf"
			},
			{
				"type": "unocc",
				"energy": 0.10073,
				"method": "rhf"
			}
		],
		"cosmo_sigma_profile": { 
			"-0.025": 0.0,
			"-0.024": 0.0,
			"-0.023": 0.0,
			"-0.022": 0.0,
			"-0.021": 0.0,
			"-0.02": 0.0,
			"-0.019": 0.0,
			"-0.018": 0.100181837155,
			"-0.017": 0.969169579898,
			"-0.016": 1.2294321848,
			"-0.015": 0.94903075124,
			"-0.014": 0.860181148381,
			"-0.013": 1.5558664116,
			"-0.012": 0.540673661139,
			"-0.011": 0.219631540086,
			"-0.01": 1.22072188574,
			"-0.009": 1.83018247353,
			"-0.008": 0.826708905111,
			"-0.007": 1.35567850257,
			"-0.006": 6.07058548324,
			"-0.005": 15.4690115151,
			"-0.004": 24.2404495909,
			"-0.003": 19.7326321563,
			"-0.002": 16.1195435865,
			"-0.001": 14.1502820759,
			"0.0": 13.1356981036,
			"0.001": 11.8335056955,
			"0.002": 12.0734757326,
			"0.003": 11.3522680165,
			"0.004": 15.8377428401,
			"0.005": 16.7255863479,
			"0.006": 11.4695699978,
			"0.007": 3.25683800988,
			"0.008": 3.31284247473,
			"0.009": 3.24972151923,
			"0.01": 2.91963496027,
			"0.011": 3.32645809857,
			"0.012": 1.83206944222,
			"0.013": 0.0403749368606,
			"0.014": 0.0,
			"0.015": 0.0,
			"0.016": 0.0,
			"0.017": 0.0,
			"0.018": 0.0,
			"0.019": 0.0,
			"0.02": 0.0,
			"0.021": 0.0,
			"0.022": 0.0,
			"0.023": 0.0,
			"0.024": 0.0,
			"0.025": 0.0
		}
	}
}
