{
	 "smiles": "CNC(CC1=CNC2=C1C=CC=C2)C(O)=O", 
	 "Tm": 568.15, 
	 "num_atms": 30, 
	 "gaussian": { 
		 "optdone": 1, 
		 "sigma_profile": "yes", 
		 "theory": "DFT", 
		 "functional": "B3LYP", 
		 "basiset": "6-31G**", 
		 "properties": { 
			 "R2extent": 3830.8257, 
			 "electric_dipole_moment_norm": 1.86462729788, 
			 "electric_quadrupole_moment_norm": 17.1679751273, 
			 "total_energy": -725.675464799, 
			 "HOMO_LUMO_gap": 0.18684, 
			 "cosmo_polarized_energy": -16.37, 
			 "cosmo_cavitation_energy": 32.74, 
			 "cosmo_dispersion_energy": -23.02, 
			 "cosmo_repulsion_energy": 1.8, 
			 "cosmo_total_nonelectrostatic_energy": 11.51, 
			 "SMD_solvation_energy": 4.87 
		},
		"coords": [
			{
				"x": 0.4935162504,
				"y": -3.2005901234,
				"z": -0.9398759715,
				"element": "C" 
			},
			{
				"x": 0.2458880434,
				"y": -1.9364186014,
				"z": -1.6174324633,
				"element": "N" 
			},
			{
				"x": 1.4351319493,
				"y": -1.1883431294,
				"z": -1.9795728301,
				"element": "C" 
			},
			{
				"x": 2.2202451179,
				"y": -0.4999305328,
				"z": -0.8145577481,
				"element": "C" 
			},
			{
				"x": 1.4640644201,
				"y": 0.6062786036,
				"z": -0.1327724895,
				"element": "C" 
			},
			{
				"x": 1.4844053987,
				"y": 1.9340601722,
				"z": -0.4901607649,
				"element": "C" 
			},
			{
				"x": 0.6458244875,
				"y": 2.6609929789,
				"z": 0.3331263584,
				"element": "N" 
			},
			{
				"x": 0.0635883913,
				"y": 1.8141226874,
				"z": 1.2527484544,
				"element": "C" 
			},
			{
				"x": 0.5562874811,
				"y": 0.5045691849,
				"z": 0.9875214991,
				"element": "C" 
			},
			{
				"x": 0.1211824354,
				"y": -0.5546661935,
				"z": 1.8061385366,
				"element": "C" 
			},
			{
				"x": -0.7750696944,
				"y": -0.293907887,
				"z": 2.8351687501,
				"element": "C" 
			},
			{
				"x": -1.2529871524,
				"y": 1.0114285964,
				"z": 3.0723178435,
				"element": "C" 
			},
			{
				"x": -0.8394716887,
				"y": 2.081379141,
				"z": 2.2872406933,
				"element": "C" 
			},
			{
				"x": 1.1602240237,
				"y": -0.129562719,
				"z": -3.0484454522,
				"element": "C" 
			},
			{
				"x": -0.1332382596,
				"y": -0.0279210612,
				"z": -3.4113210709,
				"element": "O" 
			},
			{
				"x": 2.0268723952,
				"y": 0.5772848908,
				"z": -3.5242011742,
				"element": "O" 
			},
			{
				"x": 1.0394561841,
				"y": -3.8729810557,
				"z": -1.6123098603,
				"element": "H" 
			},
			{
				"x": -0.4648023799,
				"y": -3.6745538886,
				"z": -0.7082301206,
				"element": "H" 
			},
			{
				"x": 1.0706462099,
				"y": -3.1361005318,
				"z": -0.0002302183,
				"element": "H" 
			},
			{
				"x": -0.3923835627,
				"y": -1.3529056902,
				"z": -1.084577645,
				"element": "H" 
			},
			{
				"x": 2.1293728262,
				"y": -1.8938959887,
				"z": -2.4574889652,
				"element": "H" 
			},
			{
				"x": 3.151218656,
				"y": -0.1089161271,
				"z": -1.2350074188,
				"element": "H" 
			},
			{
				"x": 2.4983870513,
				"y": -1.2727289025,
				"z": -0.0895302919,
				"element": "H" 
			},
			{
				"x": 2.0379370172,
				"y": 2.4159121133,
				"z": -1.2836123567,
				"element": "H" 
			},
			{
				"x": 0.5042291017,
				"y": 3.6564712473,
				"z": 0.2843133425,
				"element": "H" 
			},
			{
				"x": 0.4863801418,
				"y": -1.5644580636,
				"z": 1.6420952529,
				"element": "H" 
			},
			{
				"x": -1.1140066355,
				"y": -1.1067548455,
				"z": 3.4708467592,
				"element": "H" 
			},
			{
				"x": -1.9536202625,
				"y": 1.18451434,
				"z": 3.8838802593,
				"element": "H" 
			},
			{
				"x": -1.2039366904,
				"y": 3.0882049506,
				"z": 2.4720545508,
				"element": "H" 
			},
			{
				"x": -0.1606412563,
				"y": 0.684916435,
				"z": -4.0723254585,
				"element": "H" 
			}
		],
		 "valence_orbital": [ 
			{
				"type": "occ",
				"energy": -0.27215,
				"method": "rhf"
			},
			{
				"type": "occ",
				"energy": -0.27174,
				"method": "rhf"
			},
			{
				"type": "occ",
				"energy": -0.22075,
				"method": "rhf"
			},
			{
				"type": "occ",
				"energy": -0.21963,
				"method": "rhf"
			},
			{
				"type": "occ",
				"energy": -0.19609,
				"method": "rhf"
			},
			{
				"type": "unocc",
				"energy": -0.00925,
				"method": "rhf"
			},
			{
				"type": "unocc",
				"energy": 0.01295,
				"method": "rhf"
			},
			{
				"type": "unocc",
				"energy": 0.0277,
				"method": "rhf"
			},
			{
				"type": "unocc",
				"energy": 0.05834,
				"method": "rhf"
			},
			{
				"type": "unocc",
				"energy": 0.08033,
				"method": "rhf"
			}
		],
		"cosmo_sigma_profile": { 
			"-0.025": 0.0,
			"-0.024": 0.0,
			"-0.023": 0.0,
			"-0.022": 0.0,
			"-0.021": 0.0,
			"-0.02": 0.0,
			"-0.019": 0.0255175196504,
			"-0.018": 0.610348176264,
			"-0.017": 0.859723940935,
			"-0.016": 1.56078552687,
			"-0.015": 1.83588716573,
			"-0.014": 1.86658607495,
			"-0.013": 1.49058554404,
			"-0.012": 2.18987770506,
			"-0.011": 2.31623652237,
			"-0.01": 1.81548345475,
			"-0.009": 1.98486293702,
			"-0.008": 1.72977420469,
			"-0.007": 4.7920037415,
			"-0.006": 8.79044117724,
			"-0.005": 13.6983659955,
			"-0.004": 20.1360285494,
			"-0.003": 23.6281459817,
			"-0.002": 22.6496800257,
			"-0.001": 20.6080694642,
			"0.0": 17.1576133802,
			"0.001": 11.6892201078,
			"0.002": 11.4436960441,
			"0.003": 12.4904018928,
			"0.004": 12.6890701172,
			"0.005": 14.2593801851,
			"0.006": 13.2403128053,
			"0.007": 10.6878943253,
			"0.008": 3.48405173686,
			"0.009": 2.28576280781,
			"0.01": 2.88912383292,
			"0.011": 2.82000339921,
			"0.012": 5.5400907638,
			"0.013": 2.15814592288,
			"0.014": 0.50546690372,
			"0.015": 0.874504585884,
			"0.016": 0.639334170811,
			"0.017": 0.573147939982,
			"0.018": 0.317711735973,
			"0.019": 0.0,
			"0.02": 0.0,
			"0.021": 0.0,
			"0.022": 0.0,
			"0.023": 0.0,
			"0.024": 0.0,
			"0.025": 0.0
		}
	}
}
