{
	 "smiles": "OC(=O)CSC1=NC(=NO1)C1=CC=CC=C1", 
	 "Tm": 389.15, 
	 "num_atms": 24, 
	 "gaussian": { 
		 "optdone": 1, 
		 "sigma_profile": "yes", 
		 "theory": "DFT", 
		 "functional": "B3LYP", 
		 "basiset": "6-31G**", 
		 "properties": { 
			 "R2extent": 5428.935, 
			 "electric_dipole_moment_norm": 1.70235550341, 
			 "electric_quadrupole_moment_norm": 21.4306662211, 
			 "total_energy": -1119.20984626, 
			 "HOMO_LUMO_gap": 0.19366, 
			 "cosmo_polarized_energy": -16.28, 
			 "cosmo_cavitation_energy": 31.54, 
			 "cosmo_dispersion_energy": -23.08, 
			 "cosmo_repulsion_energy": 1.75, 
			 "cosmo_total_nonelectrostatic_energy": 10.22, 
			 "SMD_solvation_energy": 5.45 
		},
		"coords": [
			{
				"x": 0.8215124978,
				"y": 3.6746932249,
				"z": 2.205135073,
				"element": "O" 
			},
			{
				"x": 1.1456736623,
				"y": 3.8895387234,
				"z": 0.9183174009,
				"element": "C" 
			},
			{
				"x": 0.4020654905,
				"y": 4.4495534289,
				"z": 0.1550462044,
				"element": "O" 
			},
			{
				"x": 2.5442162144,
				"y": 3.4586935591,
				"z": 0.4500424782,
				"element": "C" 
			},
			{
				"x": 3.4464406704,
				"y": 2.2465555073,
				"z": 1.4913332338,
				"element": "S" 
			},
			{
				"x": 2.5407427973,
				"y": 0.8054733787,
				"z": 1.0504389404,
				"element": "C" 
			},
			{
				"x": 1.517030533,
				"y": 0.7058214064,
				"z": 0.2599990118,
				"element": "N" 
			},
			{
				"x": 1.2476678142,
				"y": -0.6538697578,
				"z": 0.310912408,
				"element": "C" 
			},
			{
				"x": 2.0592022765,
				"y": -1.3372485581,
				"z": 1.0877979944,
				"element": "N" 
			},
			{
				"x": 2.9410167036,
				"y": -0.3517984473,
				"z": 1.5920727773,
				"element": "O" 
			},
			{
				"x": 0.1465965974,
				"y": -1.2707117413,
				"z": -0.4391985189,
				"element": "C" 
			},
			{
				"x": -0.0561665786,
				"y": -2.659644663,
				"z": -0.3972793689,
				"element": "C" 
			},
			{
				"x": -1.1057550612,
				"y": -3.2292917095,
				"z": -1.111941431,
				"element": "C" 
			},
			{
				"x": -1.9590394166,
				"y": -2.4228500444,
				"z": -1.8713855354,
				"element": "C" 
			},
			{
				"x": -1.7592072441,
				"y": -1.0417987372,
				"z": -1.9137068977,
				"element": "C" 
			},
			{
				"x": -0.7100636807,
				"y": -0.4633745248,
				"z": -1.2010472078,
				"element": "C" 
			},
			{
				"x": 1.5382421537,
				"y": 3.1939574985,
				"z": 2.6539927734,
				"element": "H" 
			},
			{
				"x": 3.1878445252,
				"y": 4.3438840588,
				"z": 0.4319131682,
				"element": "H" 
			},
			{
				"x": 2.4565998925,
				"y": 3.0736095829,
				"z": -0.5653114226,
				"element": "H" 
			},
			{
				"x": 0.6103905952,
				"y": -3.2790903996,
				"z": 0.1936607935,
				"element": "H" 
			},
			{
				"x": -1.2593708159,
				"y": -4.3037380114,
				"z": -1.0777575664,
				"element": "H" 
			},
			{
				"x": -2.7771580581,
				"y": -2.8711654366,
				"z": -2.4276550518,
				"element": "H" 
			},
			{
				"x": -2.4211639614,
				"y": -0.4125686679,
				"z": -2.5010159602,
				"element": "H" 
			},
			{
				"x": -0.5476176075,
				"y": 0.60867033,
				"z": -1.2242632969,
				"element": "H" 
			}
		],
		 "valence_orbital": [ 
			{
				"type": "occ",
				"energy": -0.3129,
				"method": "rhf"
			},
			{
				"type": "occ",
				"energy": -0.29414,
				"method": "rhf"
			},
			{
				"type": "occ",
				"energy": -0.27243,
				"method": "rhf"
			},
			{
				"type": "occ",
				"energy": -0.26177,
				"method": "rhf"
			},
			{
				"type": "occ",
				"energy": -0.24967,
				"method": "rhf"
			},
			{
				"type": "unocc",
				"energy": -0.05601,
				"method": "rhf"
			},
			{
				"type": "unocc",
				"energy": -0.02072,
				"method": "rhf"
			},
			{
				"type": "unocc",
				"energy": -0.01687,
				"method": "rhf"
			},
			{
				"type": "unocc",
				"energy": -0.00789,
				"method": "rhf"
			},
			{
				"type": "unocc",
				"energy": -0.00183,
				"method": "rhf"
			}
		],
		"cosmo_sigma_profile": { 
			"-0.025": 0.0,
			"-0.024": 0.0,
			"-0.023": 0.0,
			"-0.022": 0.0,
			"-0.021": 0.0,
			"-0.02": 0.0,
			"-0.019": 0.0,
			"-0.018": 0.0,
			"-0.017": 0.0,
			"-0.016": 0.152531056817,
			"-0.015": 0.798704835943,
			"-0.014": 1.01610436214,
			"-0.013": 1.20700113468,
			"-0.012": 2.60011466901,
			"-0.011": 4.98980453233,
			"-0.01": 3.61403914964,
			"-0.009": 3.03915037391,
			"-0.008": 4.22329019572,
			"-0.007": 6.09424299441,
			"-0.006": 13.3038184727,
			"-0.005": 14.6228462966,
			"-0.004": 17.2016418607,
			"-0.003": 14.3818903741,
			"-0.002": 14.6990000413,
			"-0.001": 15.8405788766,
			"0.0": 16.909376741,
			"0.001": 18.5612880449,
			"0.002": 17.2632297465,
			"0.003": 16.8377512434,
			"0.004": 19.7713505723,
			"0.005": 10.6219734629,
			"0.006": 6.24146125626,
			"0.007": 4.43544528081,
			"0.008": 5.17146062429,
			"0.009": 5.71372301206,
			"0.01": 5.45614827094,
			"0.011": 6.95104139031,
			"0.012": 3.99555801262,
			"0.013": 0.193967809034,
			"0.014": 0.0,
			"0.015": 0.0,
			"0.016": 0.0,
			"0.017": 0.0,
			"0.018": 0.0,
			"0.019": 0.0,
			"0.02": 0.0,
			"0.021": 0.0,
			"0.022": 0.0,
			"0.023": 0.0,
			"0.024": 0.0,
			"0.025": 0.0
		}
	}
}
