{
	 "smiles": "OC(=O)C1=C(Br)C2=C(N1)C=CC=C2", 
	 "Tm": 459.15, 
	 "num_atms": 19, 
	 "gaussian": { 
		 "optdone": 1, 
		 "sigma_profile": "yes", 
		 "theory": "DFT", 
		 "functional": "B3LYP", 
		 "basiset": "6-31G**", 
		 "properties": { 
			 "R2extent": 4118.8094, 
			 "electric_dipole_moment_norm": 5.56238795303, 
			 "electric_quadrupole_moment_norm": 17.5391806835, 
			 "total_energy": -3123.18070883, 
			 "HOMO_LUMO_gap": 0.16556, 
			 "cosmo_polarized_energy": -18.89, 
			 "cosmo_cavitation_energy": 26.21, 
			 "cosmo_dispersion_energy": -19.74, 
			 "cosmo_repulsion_energy": 1.55, 
			 "cosmo_total_nonelectrostatic_energy": 8.01, 
			 "SMD_solvation_energy": 4.24 
		},
		"coords": [
			{
				"x": -2.3232577937,
				"y": -0.7855796734,
				"z": -2.4956615579,
				"element": "O" 
			},
			{
				"x": -1.2667092164,
				"y": 0.0481093764,
				"z": -2.7524409648,
				"element": "C" 
			},
			{
				"x": -1.0888447193,
				"y": 0.4962234487,
				"z": -3.8574247907,
				"element": "O" 
			},
			{
				"x": -0.4267126807,
				"y": 0.3489804017,
				"z": -1.5771909191,
				"element": "C" 
			},
			{
				"x": 0.8938848105,
				"y": 0.7311939398,
				"z": -1.4970087713,
				"element": "C" 
			},
			{
				"x": 2.0877951566,
				"y": 0.9770517355,
				"z": -2.9222644519,
				"element": "Br" 
			},
			{
				"x": 1.2445842998,
				"y": 0.8560019426,
				"z": -0.1131354083,
				"element": "C" 
			},
			{
				"x": 0.071469686,
				"y": 0.5523185832,
				"z": 0.6250716233,
				"element": "C" 
			},
			{
				"x": -0.9200200758,
				"y": 0.1944602701,
				"z": -0.2730702251,
				"element": "N" 
			},
			{
				"x": 0.0390774476,
				"y": 0.6230961852,
				"z": 2.0223120158,
				"element": "C" 
			},
			{
				"x": 1.2141655831,
				"y": 0.9831600289,
				"z": 2.6695093846,
				"element": "C" 
			},
			{
				"x": 2.3964914092,
				"y": 1.2653413459,
				"z": 1.950222775,
				"element": "C" 
			},
			{
				"x": 2.4244948578,
				"y": 1.2041009846,
				"z": 0.565407482,
				"element": "C" 
			},
			{
				"x": -2.161000641,
				"y": -1.2741482229,
				"z": -1.6748292733,
				"element": "H" 
			},
			{
				"x": -1.9038422354,
				"y": 0.2916643701,
				"z": -0.0619173559,
				"element": "H" 
			},
			{
				"x": -0.8661032892,
				"y": 0.3995922734,
				"z": 2.5790788345,
				"element": "H" 
			},
			{
				"x": 1.2251911596,
				"y": 1.0445277141,
				"z": 3.7535388426,
				"element": "H" 
			},
			{
				"x": 3.295212704,
				"y": 1.5370670852,
				"z": 2.4950911064,
				"element": "H" 
			},
			{
				"x": 3.3280235373,
				"y": 1.4251382111,
				"z": 0.0064116542,
				"element": "H" 
			}
		],
		 "valence_orbital": [ 
			{
				"type": "occ",
				"energy": -0.29692,
				"method": "rhf"
			},
			{
				"type": "occ",
				"energy": -0.27907,
				"method": "rhf"
			},
			{
				"type": "occ",
				"energy": -0.27423,
				"method": "rhf"
			},
			{
				"type": "occ",
				"energy": -0.24818,
				"method": "rhf"
			},
			{
				"type": "occ",
				"energy": -0.22713,
				"method": "rhf"
			},
			{
				"type": "unocc",
				"energy": -0.06157,
				"method": "rhf"
			},
			{
				"type": "unocc",
				"energy": -0.00486,
				"method": "rhf"
			},
			{
				"type": "unocc",
				"energy": 0.0087,
				"method": "rhf"
			},
			{
				"type": "unocc",
				"energy": 0.01323,
				"method": "rhf"
			},
			{
				"type": "unocc",
				"energy": 0.04609,
				"method": "rhf"
			}
		],
		"cosmo_sigma_profile": { 
			"-0.025": 0.0,
			"-0.024": 0.0,
			"-0.023": 0.0,
			"-0.022": 0.0,
			"-0.021": 0.0,
			"-0.02": 0.0,
			"-0.019": 0.0158428955506,
			"-0.018": 0.871302976073,
			"-0.017": 2.85437567962,
			"-0.016": 2.44009665538,
			"-0.015": 2.63208717916,
			"-0.014": 1.88058720826,
			"-0.013": 2.33505188103,
			"-0.012": 1.65714098832,
			"-0.011": 1.75123240633,
			"-0.01": 1.55922647101,
			"-0.009": 1.71867361726,
			"-0.008": 2.71242844054,
			"-0.007": 3.2997223828,
			"-0.006": 7.9789866487,
			"-0.005": 10.6871315574,
			"-0.004": 12.007605813,
			"-0.003": 10.0070470792,
			"-0.002": 9.85288365562,
			"-0.001": 11.5121318126,
			"0.0": 12.8245868406,
			"0.001": 16.4186283992,
			"0.002": 18.8831839899,
			"0.003": 19.2596681876,
			"0.004": 18.2283106716,
			"0.005": 10.1484471476,
			"0.006": 3.21555524503,
			"0.007": 3.43387463407,
			"0.008": 2.93228001526,
			"0.009": 3.89025708462,
			"0.01": 5.91747745933,
			"0.011": 6.34954798329,
			"0.012": 3.99773042663,
			"0.013": 0.629305153326,
			"0.014": 0.0,
			"0.015": 0.0,
			"0.016": 0.0,
			"0.017": 0.0,
			"0.018": 0.0,
			"0.019": 0.0,
			"0.02": 0.0,
			"0.021": 0.0,
			"0.022": 0.0,
			"0.023": 0.0,
			"0.024": 0.0,
			"0.025": 0.0
		}
	}
}
