{
	 "smiles": "CC1=CN2C=C(Br)C=C(C)C2=N1", 
	 "Tm": 383.15, 
	 "num_atms": 21, 
	 "gaussian": { 
		 "optdone": 1, 
		 "sigma_profile": "yes", 
		 "theory": "DFT", 
		 "functional": "B3LYP", 
		 "basiset": "6-31G**", 
		 "properties": { 
			 "R2extent": 4501.1281, 
			 "electric_dipole_moment_norm": 1.17293173714, 
			 "electric_quadrupole_moment_norm": 12.1495201255, 
			 "total_energy": -3029.29583136, 
			 "HOMO_LUMO_gap": 0.17629, 
			 "cosmo_polarized_energy": -8.32, 
			 "cosmo_cavitation_energy": 27.12, 
			 "cosmo_dispersion_energy": -20.42, 
			 "cosmo_repulsion_energy": 1.62, 
			 "cosmo_total_nonelectrostatic_energy": 8.32, 
			 "SMD_solvation_energy": 2.57 
		},
		"coords": [
			{
				"x": 3.0672214959,
				"y": -1.7790828263,
				"z": 2.2268588959,
				"element": "C" 
			},
			{
				"x": 1.7350083565,
				"y": -1.2322490707,
				"z": 1.8199918368,
				"element": "C" 
			},
			{
				"x": 0.6593556391,
				"y": -0.9435777853,
				"z": 2.6415956981,
				"element": "C" 
			},
			{
				"x": -0.3326866713,
				"y": -0.4661925062,
				"z": 1.809736849,
				"element": "N" 
			},
			{
				"x": -1.607364431,
				"y": -0.0304935029,
				"z": 2.0779739949,
				"element": "C" 
			},
			{
				"x": -2.3740991123,
				"y": 0.3922435513,
				"z": 1.0299738419,
				"element": "C" 
			},
			{
				"x": -4.1471542239,
				"y": 1.0017935891,
				"z": 1.3744719474,
				"element": "Br" 
			},
			{
				"x": -1.8829082237,
				"y": 0.3878554228,
				"z": -0.304012831,
				"element": "C" 
			},
			{
				"x": -0.6048624918,
				"y": -0.0485369554,
				"z": -0.5765306738,
				"element": "C" 
			},
			{
				"x": -0.0235483278,
				"y": -0.0795809804,
				"z": -1.9618998159,
				"element": "C" 
			},
			{
				"x": 0.2008872272,
				"y": -0.4906575993,
				"z": 0.5086878775,
				"element": "C" 
			},
			{
				"x": 1.4476931997,
				"y": -0.9522094434,
				"z": 0.5122612409,
				"element": "N" 
			},
			{
				"x": 3.8708322222,
				"y": -1.0919115108,
				"z": 1.9416403089,
				"element": "H" 
			},
			{
				"x": 3.118896569,
				"y": -1.9416926068,
				"z": 3.3067413273,
				"element": "H" 
			},
			{
				"x": 3.2642710597,
				"y": -2.7316619385,
				"z": 1.7237603141,
				"element": "H" 
			},
			{
				"x": 0.5166249694,
				"y": -1.0323768793,
				"z": 3.707364737,
				"element": "H" 
			},
			{
				"x": -1.9374788878,
				"y": -0.0452524405,
				"z": 3.1077681913,
				"element": "H" 
			},
			{
				"x": -2.5268135044,
				"y": 0.7323278295,
				"z": -1.105101195,
				"element": "H" 
			},
			{
				"x": 0.2768400623,
				"y": -1.0974116332,
				"z": -2.2316009757,
				"element": "H" 
			},
			{
				"x": 0.8810651995,
				"y": 0.5350966715,
				"z": -2.0146776737,
				"element": "H" 
			},
			{
				"x": -0.7421801264,
				"y": 0.2844706146,
				"z": -2.700003896,
				"element": "H" 
			}
		],
		 "valence_orbital": [ 
			{
				"type": "occ",
				"energy": -0.29487,
				"method": "rhf"
			},
			{
				"type": "occ",
				"energy": -0.29124,
				"method": "rhf"
			},
			{
				"type": "occ",
				"energy": -0.26968,
				"method": "rhf"
			},
			{
				"type": "occ",
				"energy": -0.23021,
				"method": "rhf"
			},
			{
				"type": "occ",
				"energy": -0.21217,
				"method": "rhf"
			},
			{
				"type": "unocc",
				"energy": -0.03588,
				"method": "rhf"
			},
			{
				"type": "unocc",
				"energy": -0.00082,
				"method": "rhf"
			},
			{
				"type": "unocc",
				"energy": -0.00038,
				"method": "rhf"
			},
			{
				"type": "unocc",
				"energy": 0.06443,
				"method": "rhf"
			},
			{
				"type": "unocc",
				"energy": 0.10935,
				"method": "rhf"
			}
		],
		"cosmo_sigma_profile": { 
			"-0.025": 0.0,
			"-0.024": 0.0,
			"-0.023": 0.0,
			"-0.022": 0.0,
			"-0.021": 0.0,
			"-0.02": 0.0,
			"-0.019": 0.0,
			"-0.018": 0.0,
			"-0.017": 0.0,
			"-0.016": 0.0,
			"-0.015": 0.0,
			"-0.014": 0.0,
			"-0.013": 0.0,
			"-0.012": 0.0,
			"-0.011": 0.119607440717,
			"-0.01": 2.11521637408,
			"-0.009": 3.224455795,
			"-0.008": 3.45921248461,
			"-0.007": 4.10078158959,
			"-0.006": 5.63049411483,
			"-0.005": 9.4627340327,
			"-0.004": 15.8646907952,
			"-0.003": 15.2729033068,
			"-0.002": 17.142634946,
			"-0.001": 22.4630765164,
			"0.0": 28.6497053154,
			"0.001": 21.5874897012,
			"0.002": 19.1190729303,
			"0.003": 14.5497775201,
			"0.004": 16.916284546,
			"0.005": 5.73755847689,
			"0.006": 1.6015089728,
			"0.007": 1.91625739543,
			"0.008": 2.01425632918,
			"0.009": 1.02050718829,
			"0.01": 1.19157708652,
			"0.011": 1.16268231112,
			"0.012": 1.02427823469,
			"0.013": 0.724334560607,
			"0.014": 1.27543589052,
			"0.015": 0.986604848908,
			"0.016": 0.671295849092,
			"0.017": 0.661517063854,
			"0.018": 0.179443691086,
			"0.019": 0.0,
			"0.02": 0.0,
			"0.021": 0.0,
			"0.022": 0.0,
			"0.023": 0.0,
			"0.024": 0.0,
			"0.025": 0.0
		}
	}
}
