{
	 "smiles": "CCOC(=O)C(C)C(C)=O", 
	 "Tm": 228.15, 
	 "num_atms": 22, 
	 "gaussian": { 
		 "optdone": 1, 
		 "sigma_profile": "yes", 
		 "theory": "DFT", 
		 "functional": "B3LYP", 
		 "basiset": "6-31G**", 
		 "properties": { 
			 "R2extent": 2461.7914, 
			 "electric_dipole_moment_norm": 3.64221244438, 
			 "electric_quadrupole_moment_norm": 6.78607962523, 
			 "total_energy": -499.666263884, 
			 "HOMO_LUMO_gap": 0.23114, 
			 "cosmo_polarized_energy": -9.77, 
			 "cosmo_cavitation_energy": 25.57, 
			 "cosmo_dispersion_energy": -17.74, 
			 "cosmo_repulsion_energy": 1.48, 
			 "cosmo_total_nonelectrostatic_energy": 9.31, 
			 "SMD_solvation_energy": 6.34 
		},
		"coords": [
			{
				"x": 1.0036921456,
				"y": -1.8012746959,
				"z": -3.2075164918,
				"element": "C" 
			},
			{
				"x": 2.0984030044,
				"y": -1.6476252839,
				"z": -2.1631123769,
				"element": "C" 
			},
			{
				"x": 2.2099088953,
				"y": -0.2720354356,
				"z": -1.7152283988,
				"element": "O" 
			},
			{
				"x": 1.3781128255,
				"y": 0.1104324544,
				"z": -0.7235015535,
				"element": "C" 
			},
			{
				"x": 0.5836594373,
				"y": -0.6279952909,
				"z": -0.1775399001,
				"element": "O" 
			},
			{
				"x": 1.5362171203,
				"y": 1.5953874145,
				"z": -0.4220725837,
				"element": "C" 
			},
			{
				"x": 0.6688131542,
				"y": 2.4181699261,
				"z": -1.3897174695,
				"element": "C" 
			},
			{
				"x": 1.2099227878,
				"y": 1.912447051,
				"z": 1.0502101354,
				"element": "C" 
			},
			{
				"x": 1.9036399189,
				"y": 1.0837011529,
				"z": 2.1124695739,
				"element": "C" 
			},
			{
				"x": 0.4514489799,
				"y": 2.8173764617,
				"z": 1.3345121135,
				"element": "O" 
			},
			{
				"x": 0.9919091914,
				"y": -2.8297329633,
				"z": -3.5833061325,
				"element": "H" 
			},
			{
				"x": 1.1741118556,
				"y": -1.1289753059,
				"z": -4.0534999269,
				"element": "H" 
			},
			{
				"x": 0.0243977615,
				"y": -1.5852342035,
				"z": -2.7734390572,
				"element": "H" 
			},
			{
				"x": 1.9096751917,
				"y": -2.2842160662,
				"z": -1.2955731282,
				"element": "H" 
			},
			{
				"x": 3.0834929749,
				"y": -1.8765113975,
				"z": -2.5761303338,
				"element": "H" 
			},
			{
				"x": 2.5932560812,
				"y": 1.8489768011,
				"z": -0.5804964994,
				"element": "H" 
			},
			{
				"x": 0.9733793011,
				"y": 2.2371770493,
				"z": -2.4235844275,
				"element": "H" 
			},
			{
				"x": 0.769626899,
				"y": 3.4814621759,
				"z": -1.1652000014,
				"element": "H" 
			},
			{
				"x": -0.3854730568,
				"y": 2.1533645329,
				"z": -1.2761993972,
				"element": "H" 
			},
			{
				"x": 2.9664779354,
				"y": 0.9467963979,
				"z": 1.8837170492,
				"element": "H" 
			},
			{
				"x": 1.444615977,
				"y": 0.0902927327,
				"z": 2.1418789628,
				"element": "H" 
			},
			{
				"x": 1.7878116186,
				"y": 1.5668164922,
				"z": 3.0835298436,
				"element": "H" 
			}
		],
		 "valence_orbital": [ 
			{
				"type": "occ",
				"energy": -0.3532,
				"method": "rhf"
			},
			{
				"type": "occ",
				"energy": -0.34625,
				"method": "rhf"
			},
			{
				"type": "occ",
				"energy": -0.30666,
				"method": "rhf"
			},
			{
				"type": "occ",
				"energy": -0.27831,
				"method": "rhf"
			},
			{
				"type": "occ",
				"energy": -0.24879,
				"method": "rhf"
			},
			{
				"type": "unocc",
				"energy": -0.01765,
				"method": "rhf"
			},
			{
				"type": "unocc",
				"energy": 0.00211,
				"method": "rhf"
			},
			{
				"type": "unocc",
				"energy": 0.09015,
				"method": "rhf"
			},
			{
				"type": "unocc",
				"energy": 0.10935,
				"method": "rhf"
			},
			{
				"type": "unocc",
				"energy": 0.12095,
				"method": "rhf"
			}
		],
		"cosmo_sigma_profile": { 
			"-0.025": 0.0,
			"-0.024": 0.0,
			"-0.023": 0.0,
			"-0.022": 0.0,
			"-0.021": 0.0,
			"-0.02": 0.0,
			"-0.019": 0.0,
			"-0.018": 0.0,
			"-0.017": 0.0,
			"-0.016": 0.0,
			"-0.015": 0.0,
			"-0.014": 0.0,
			"-0.013": 0.0,
			"-0.012": 0.0,
			"-0.011": 0.0,
			"-0.01": 0.0,
			"-0.009": 0.054443185619,
			"-0.008": 2.62317010443,
			"-0.007": 3.80910465561,
			"-0.006": 6.6739951204,
			"-0.005": 10.1294049686,
			"-0.004": 20.9840414437,
			"-0.003": 24.6649962478,
			"-0.002": 27.3155388621,
			"-0.001": 22.2526512149,
			"0.0": 19.6591599693,
			"0.001": 9.75222004854,
			"0.002": 5.76842469576,
			"0.003": 5.84699856631,
			"0.004": 5.05265802229,
			"0.005": 3.5293342548,
			"0.006": 3.97413619656,
			"0.007": 4.47741951121,
			"0.008": 3.03942779596,
			"0.009": 4.19907912136,
			"0.01": 3.49717267784,
			"0.011": 6.68432249362,
			"0.012": 5.23338995022,
			"0.013": 0.690672476124,
			"0.014": 0.0,
			"0.015": 0.0,
			"0.016": 0.0,
			"0.017": 0.0,
			"0.018": 0.0,
			"0.019": 0.0,
			"0.02": 0.0,
			"0.021": 0.0,
			"0.022": 0.0,
			"0.023": 0.0,
			"0.024": 0.0,
			"0.025": 0.0
		}
	}
}
