{
	 "smiles": "COC1=CC=C(C=C1)C(=O)C=CC(O)=O", 
	 "Tm": 412.15, 
	 "num_atms": 25, 
	 "gaussian": { 
		 "optdone": 1, 
		 "sigma_profile": "yes", 
		 "theory": "DFT", 
		 "functional": "B3LYP", 
		 "basiset": "6-31G**", 
		 "properties": { 
			 "R2extent": 5943.8922, 
			 "electric_dipole_moment_norm": 3.66113055899, 
			 "electric_quadrupole_moment_norm": 14.3921371655, 
			 "total_energy": -726.076789929, 
			 "HOMO_LUMO_gap": 0.14488, 
			 "cosmo_polarized_energy": -15.18, 
			 "cosmo_cavitation_energy": 30.97, 
			 "cosmo_dispersion_energy": -22.43, 
			 "cosmo_repulsion_energy": 1.75, 
			 "cosmo_total_nonelectrostatic_energy": 10.28, 
			 "SMD_solvation_energy": 8.13 
		},
		"coords": [
			{
				"x": -0.3981002196,
				"y": -0.4861278143,
				"z": -4.0251110437,
				"element": "C" 
			},
			{
				"x": -1.4536140363,
				"y": -0.1689841333,
				"z": -3.1262610948,
				"element": "O" 
			},
			{
				"x": -1.1503936011,
				"y": 0.0801292638,
				"z": -1.827925565,
				"element": "C" 
			},
			{
				"x": -2.2435791916,
				"y": 0.3874807579,
				"z": -0.9955284492,
				"element": "C" 
			},
			{
				"x": -2.0379492799,
				"y": 0.6568161075,
				"z": 0.343512745,
				"element": "C" 
			},
			{
				"x": -0.743125532,
				"y": 0.6306733715,
				"z": 0.9037234799,
				"element": "C" 
			},
			{
				"x": 0.3356176382,
				"y": 0.3228686642,
				"z": 0.0618728542,
				"element": "C" 
			},
			{
				"x": 0.1442405144,
				"y": 0.0489440345,
				"z": -1.2918488776,
				"element": "C" 
			},
			{
				"x": -0.612017773,
				"y": 0.9333761463,
				"z": 2.3540203361,
				"element": "C" 
			},
			{
				"x": -1.5987661289,
				"y": 1.199592022,
				"z": 3.0367718787,
				"element": "O" 
			},
			{
				"x": 0.7439765735,
				"y": 0.9122608483,
				"z": 2.9882585573,
				"element": "C" 
			},
			{
				"x": 0.8963430596,
				"y": 1.1831642048,
				"z": 4.2911049013,
				"element": "C" 
			},
			{
				"x": 2.2420402984,
				"y": 1.15977288,
				"z": 4.9114709801,
				"element": "C" 
			},
			{
				"x": 2.1841548391,
				"y": 1.4594603279,
				"z": 6.2309917703,
				"element": "O" 
			},
			{
				"x": 3.2848323447,
				"y": 0.9080966718,
				"z": 4.339584529,
				"element": "O" 
			},
			{
				"x": 0.3243539136,
				"y": 0.3355572838,
				"z": -4.1024139338,
				"element": "H" 
			},
			{
				"x": -0.8694443708,
				"y": -0.6441062378,
				"z": -4.9957841323,
				"element": "H" 
			},
			{
				"x": 0.1254600619,
				"y": -1.4014337979,
				"z": -3.7231411939,
				"element": "H" 
			},
			{
				"x": -3.2361990204,
				"y": 0.405567702,
				"z": -1.4332080465,
				"element": "H" 
			},
			{
				"x": -2.8697920815,
				"y": 0.8954077006,
				"z": 0.9972858399,
				"element": "H" 
			},
			{
				"x": 1.349080402,
				"y": 0.2908822557,
				"z": 0.4456669225,
				"element": "H" 
			},
			{
				"x": 1.0003178055,
				"y": -0.1848523828,
				"z": -1.9128685148,
				"element": "H" 
			},
			{
				"x": 1.6291514529,
				"y": 0.6772495758,
				"z": 2.4072561976,
				"element": "H" 
			},
			{
				"x": 0.0389927024,
				"y": 1.4233573536,
				"z": 4.9112708107,
				"element": "H" 
			},
			{
				"x": 3.0987196289,
				"y": 1.4224471942,
				"z": 6.5575990488,
				"element": "H" 
			}
		],
		 "valence_orbital": [ 
			{
				"type": "occ",
				"energy": -0.28467,
				"method": "rhf"
			},
			{
				"type": "occ",
				"energy": -0.28227,
				"method": "rhf"
			},
			{
				"type": "occ",
				"energy": -0.26555,
				"method": "rhf"
			},
			{
				"type": "occ",
				"energy": -0.25471,
				"method": "rhf"
			},
			{
				"type": "occ",
				"energy": -0.23534,
				"method": "rhf"
			},
			{
				"type": "unocc",
				"energy": -0.09046,
				"method": "rhf"
			},
			{
				"type": "unocc",
				"energy": -0.02519,
				"method": "rhf"
			},
			{
				"type": "unocc",
				"energy": -0.01118,
				"method": "rhf"
			},
			{
				"type": "unocc",
				"energy": 0.05338,
				"method": "rhf"
			},
			{
				"type": "unocc",
				"energy": 0.07902,
				"method": "rhf"
			}
		],
		"cosmo_sigma_profile": { 
			"-0.025": 0.0,
			"-0.024": 0.0,
			"-0.023": 0.0,
			"-0.022": 0.0,
			"-0.021": 0.0,
			"-0.02": 0.0,
			"-0.019": 0.195200374068,
			"-0.018": 0.7872392686,
			"-0.017": 1.32472652881,
			"-0.016": 0.807293854397,
			"-0.015": 0.175510934534,
			"-0.014": 0.873550340704,
			"-0.013": 1.03286047055,
			"-0.012": 0.51273474996,
			"-0.011": 0.604621327515,
			"-0.01": 1.52652091359,
			"-0.009": 2.17919720866,
			"-0.008": 2.87836776791,
			"-0.007": 7.00356576566,
			"-0.006": 16.0328306739,
			"-0.005": 17.2722837663,
			"-0.004": 17.7634450996,
			"-0.003": 18.4649614328,
			"-0.002": 18.9317327939,
			"-0.001": 13.0968448515,
			"0.0": 14.7315128486,
			"0.001": 16.2925168954,
			"0.002": 19.0113705846,
			"0.003": 18.3311706859,
			"0.004": 9.99284151454,
			"0.005": 7.59100690241,
			"0.006": 5.04379832117,
			"0.007": 5.19569515805,
			"0.008": 5.69420429345,
			"0.009": 6.03518425468,
			"0.01": 4.40947011544,
			"0.011": 7.52239401455,
			"0.012": 6.2230560198,
			"0.013": 0.248940175372,
			"0.014": 0.0,
			"0.015": 0.0,
			"0.016": 0.0,
			"0.017": 0.0,
			"0.018": 0.0,
			"0.019": 0.0,
			"0.02": 0.0,
			"0.021": 0.0,
			"0.022": 0.0,
			"0.023": 0.0,
			"0.024": 0.0,
			"0.025": 0.0
		}
	}
}
