{
	 "smiles": "NC(=N)NC#N", 
	 "Tm": 483.15, 
	 "num_atms": 10, 
	 "gaussian": { 
		 "optdone": 1, 
		 "sigma_profile": "yes", 
		 "theory": "DFT", 
		 "functional": "B3LYP", 
		 "basiset": "6-31G**", 
		 "properties": { 
			 "R2extent": 808.064, 
			 "electric_dipole_moment_norm": 4.67973868715, 
			 "electric_quadrupole_moment_norm": 10.7748844101, 
			 "total_energy": -297.596615156, 
			 "HOMO_LUMO_gap": 0.27316, 
			 "cosmo_polarized_energy": -18.06, 
			 "cosmo_cavitation_energy": 15.44, 
			 "cosmo_dispersion_energy": -10.94, 
			 "cosmo_repulsion_energy": 0.97, 
			 "cosmo_total_nonelectrostatic_energy": 5.47, 
			 "SMD_solvation_energy": 4.5 
		},
		"coords": [
			{
				"x": 1.4265894541,
				"y": 0.7790689464,
				"z": -1.6937790201,
				"element": "N" 
			},
			{
				"x": 1.1766779049,
				"y": -0.2643066089,
				"z": -0.8113865747,
				"element": "C" 
			},
			{
				"x": 0.9581761281,
				"y": -1.4536252419,
				"z": -1.1970138905,
				"element": "N" 
			},
			{
				"x": 1.1695845502,
				"y": 0.2180968216,
				"z": 0.534872846,
				"element": "N" 
			},
			{
				"x": 0.9892437941,
				"y": -0.612394694,
				"z": 1.5714708756,
				"element": "C" 
			},
			{
				"x": 0.8544384263,
				"y": -1.3457095455,
				"z": 2.4677004858,
				"element": "N" 
			},
			{
				"x": 1.4870730422,
				"y": 0.439572803,
				"z": -2.6455170577,
				"element": "H" 
			},
			{
				"x": 2.2107198012,
				"y": 1.3713030052,
				"z": -1.4461755714,
				"element": "H" 
			},
			{
				"x": 0.6605073484,
				"y": -2.0621126105,
				"z": -0.4344771796,
				"element": "H" 
			},
			{
				"x": 0.9209895506,
				"y": 1.1904071244,
				"z": 0.6734050865,
				"element": "H" 
			}
		],
		 "valence_orbital": [ 
			{
				"type": "occ",
				"energy": -0.36966,
				"method": "rhf"
			},
			{
				"type": "occ",
				"energy": -0.34563,
				"method": "rhf"
			},
			{
				"type": "occ",
				"energy": -0.28871,
				"method": "rhf"
			},
			{
				"type": "occ",
				"energy": -0.28555,
				"method": "rhf"
			},
			{
				"type": "occ",
				"energy": -0.26182,
				"method": "rhf"
			},
			{
				"type": "unocc",
				"energy": 0.01134,
				"method": "rhf"
			},
			{
				"type": "unocc",
				"energy": 0.01484,
				"method": "rhf"
			},
			{
				"type": "unocc",
				"energy": 0.05077,
				"method": "rhf"
			},
			{
				"type": "unocc",
				"energy": 0.0714,
				"method": "rhf"
			},
			{
				"type": "unocc",
				"energy": 0.10948,
				"method": "rhf"
			}
		],
		"cosmo_sigma_profile": { 
			"-0.025": 0.0,
			"-0.024": 0.0,
			"-0.023": 0.0,
			"-0.022": 0.0,
			"-0.021": 0.0,
			"-0.02": 0.0,
			"-0.019": 0.0,
			"-0.018": 0.865062113398,
			"-0.017": 1.57045258194,
			"-0.016": 1.11040970662,
			"-0.015": 1.4118322753,
			"-0.014": 2.7313501915,
			"-0.013": 3.71971260783,
			"-0.012": 4.13158757374,
			"-0.011": 2.7495074256,
			"-0.01": 4.00222325608,
			"-0.009": 3.60445230105,
			"-0.008": 2.98454835431,
			"-0.007": 3.51446628887,
			"-0.006": 4.21124043572,
			"-0.005": 3.45004178415,
			"-0.004": 4.2717906228,
			"-0.003": 4.25627441567,
			"-0.002": 5.44859795026,
			"-0.001": 6.28108449969,
			"0.0": 4.78221604444,
			"0.001": 3.37230234318,
			"0.002": 3.7612316959,
			"0.003": 4.71996688013,
			"0.004": 3.78479753542,
			"0.005": 3.5043824161,
			"0.006": 4.14710513573,
			"0.007": 3.89566014195,
			"0.008": 5.20509032871,
			"0.009": 4.15255464681,
			"0.01": 4.50073031656,
			"0.011": 5.05827264522,
			"0.012": 4.56809214808,
			"0.013": 2.97714404287,
			"0.014": 1.29138646847,
			"0.015": 1.33498623915,
			"0.016": 1.07591120225,
			"0.017": 0.736646594418,
			"0.018": 0.137032597101,
			"0.019": 0.0,
			"0.02": 0.0,
			"0.021": 0.0,
			"0.022": 0.0,
			"0.023": 0.0,
			"0.024": 0.0,
			"0.025": 0.0
		}
	}
}
