{
	 "smiles": "[O-][N+](=O)C1=NC=C(C=C1)S(Cl)(=O)=O", 
	 "Tm": 355.15, 
	 "num_atms": 16, 
	 "gaussian": { 
		 "optdone": 1, 
		 "sigma_profile": "yes", 
		 "theory": "DFT", 
		 "functional": "B3LYP", 
		 "basiset": "6-31G**", 
		 "properties": { 
			 "R2extent": 3746.5225, 
			 "electric_dipole_moment_norm": 2.01470336774, 
			 "electric_quadrupole_moment_norm": 18.1515086354, 
			 "total_energy": -1460.92414529, 
			 "HOMO_LUMO_gap": 0.17794, 
			 "cosmo_polarized_energy": -14.29, 
			 "cosmo_cavitation_energy": 25.85, 
			 "cosmo_dispersion_energy": -19.43, 
			 "cosmo_repulsion_energy": 1.49, 
			 "cosmo_total_nonelectrostatic_energy": 7.91, 
			 "SMD_solvation_energy": 4.47 
		},
		"coords": [
			{
				"x": 2.0252260965,
				"y": -1.7398233413,
				"z": -3.0899017839,
				"element": "O" 
			},
			{
				"x": 0.8449054159,
				"y": -1.3924333352,
				"z": -3.1118682198,
				"element": "N" 
			},
			{
				"x": 0.0250354728,
				"y": -1.6701320064,
				"z": -3.9693163169,
				"element": "O" 
			},
			{
				"x": 0.3910195459,
				"y": -0.54418339,
				"z": -1.9579963888,
				"element": "C" 
			},
			{
				"x": -0.8739812745,
				"y": -0.1679318455,
				"z": -1.9936354934,
				"element": "N" 
			},
			{
				"x": -1.3150048885,
				"y": 0.5824810312,
				"z": -0.9820221573,
				"element": "C" 
			},
			{
				"x": -0.472757203,
				"y": 0.9502365617,
				"z": 0.0719113447,
				"element": "C" 
			},
			{
				"x": 0.8634713779,
				"y": 0.5530043391,
				"z": 0.0904393737,
				"element": "C" 
			},
			{
				"x": 1.319343138,
				"y": -0.2280906705,
				"z": -0.9685046851,
				"element": "C" 
			},
			{
				"x": -1.1079554063,
				"y": 1.9812577379,
				"z": 1.3932125192,
				"element": "S" 
			},
			{
				"x": -1.7642801192,
				"y": 0.5038651596,
				"z": 2.7632674182,
				"element": "Cl" 
			},
			{
				"x": 0.009953542,
				"y": 2.6700483236,
				"z": 2.0223298624,
				"element": "O" 
			},
			{
				"x": -2.296578609,
				"y": 2.6719542509,
				"z": 0.915636388,
				"element": "O" 
			},
			{
				"x": -2.3513459892,
				"y": 0.9054547165,
				"z": -1.0108033579,
				"element": "H" 
			},
			{
				"x": 1.5204399242,
				"y": 0.8527692722,
				"z": 0.8995616996,
				"element": "H" 
			},
			{
				"x": 2.3399089764,
				"y": -0.5793768038,
				"z": -1.0391102027,
				"element": "H" 
			}
		],
		 "valence_orbital": [ 
			{
				"type": "occ",
				"energy": -0.33711,
				"method": "rhf"
			},
			{
				"type": "occ",
				"energy": -0.33356,
				"method": "rhf"
			},
			{
				"type": "occ",
				"energy": -0.32795,
				"method": "rhf"
			},
			{
				"type": "occ",
				"energy": -0.32404,
				"method": "rhf"
			},
			{
				"type": "occ",
				"energy": -0.31081,
				"method": "rhf"
			},
			{
				"type": "unocc",
				"energy": -0.13287,
				"method": "rhf"
			},
			{
				"type": "unocc",
				"energy": -0.09944,
				"method": "rhf"
			},
			{
				"type": "unocc",
				"energy": -0.08552,
				"method": "rhf"
			},
			{
				"type": "unocc",
				"energy": -0.04982,
				"method": "rhf"
			},
			{
				"type": "unocc",
				"energy": 0.03029,
				"method": "rhf"
			}
		],
		"cosmo_sigma_profile": { 
			"-0.025": 0.0,
			"-0.024": 0.0,
			"-0.023": 0.0,
			"-0.022": 0.0,
			"-0.021": 0.0,
			"-0.02": 0.0,
			"-0.019": 0.0,
			"-0.018": 0.0,
			"-0.017": 0.0,
			"-0.016": 0.0,
			"-0.015": 0.0,
			"-0.014": 0.0,
			"-0.013": 0.0,
			"-0.012": 0.0944034395742,
			"-0.011": 1.92471398287,
			"-0.01": 5.41592946956,
			"-0.009": 6.94421189776,
			"-0.008": 7.8001210333,
			"-0.007": 7.43354514737,
			"-0.006": 10.5019220251,
			"-0.005": 14.1044140513,
			"-0.004": 14.576748667,
			"-0.003": 14.2011399387,
			"-0.002": 9.24432579229,
			"-0.001": 9.79203743162,
			"0.0": 8.10926066518,
			"0.001": 9.05539678387,
			"0.002": 17.5128082296,
			"0.003": 12.8075752541,
			"0.004": 4.68481772223,
			"0.005": 7.5867767477,
			"0.006": 12.8903673821,
			"0.007": 17.3569339566,
			"0.008": 11.9283904138,
			"0.009": 3.45360508014,
			"0.01": 1.40121833432,
			"0.011": 0.864298411586,
			"0.012": 1.07611322994,
			"0.013": 0.888552547913,
			"0.014": 0.222118149287,
			"0.015": 0.0,
			"0.016": 0.0,
			"0.017": 0.0,
			"0.018": 0.0,
			"0.019": 0.0,
			"0.02": 0.0,
			"0.021": 0.0,
			"0.022": 0.0,
			"0.023": 0.0,
			"0.024": 0.0,
			"0.025": 0.0
		}
	}
}
