{
	 "smiles": "NC(=O)NCC1=CC=C(F)C=C1", 
	 "Tm": 447.15, 
	 "num_atms": 21, 
	 "gaussian": { 
		 "optdone": 1, 
		 "sigma_profile": "yes", 
		 "theory": "DFT", 
		 "functional": "B3LYP", 
		 "basiset": "6-31G**", 
		 "properties": { 
			 "R2extent": 2727.0234, 
			 "electric_dipole_moment_norm": 3.69782577875, 
			 "electric_quadrupole_moment_norm": 17.7220505628, 
			 "total_energy": -594.860063852, 
			 "HOMO_LUMO_gap": 0.22341, 
			 "cosmo_polarized_energy": -15.6, 
			 "cosmo_cavitation_energy": 25.77, 
			 "cosmo_dispersion_energy": -18.54, 
			 "cosmo_repulsion_energy": 1.48, 
			 "cosmo_total_nonelectrostatic_energy": 8.71, 
			 "SMD_solvation_energy": 5.03 
		},
		"coords": [
			{
				"x": 3.4519235875,
				"y": -0.3534133272,
				"z": 1.3333544113,
				"element": "N" 
			},
			{
				"x": 2.6809322416,
				"y": -1.4064633674,
				"z": 0.8404714066,
				"element": "C" 
			},
			{
				"x": 2.4642358461,
				"y": -2.4158680925,
				"z": 1.4960919568,
				"element": "O" 
			},
			{
				"x": 2.1708143956,
				"y": -1.2379207108,
				"z": -0.4359438403,
				"element": "N" 
			},
			{
				"x": 1.8969429872,
				"y": 0.0387834241,
				"z": -1.0988283082,
				"element": "C" 
			},
			{
				"x": 0.5289848086,
				"y": 0.6277069248,
				"z": -0.7956510725,
				"element": "C" 
			},
			{
				"x": -0.4527771007,
				"y": 0.6946545917,
				"z": -1.790228798,
				"element": "C" 
			},
			{
				"x": -1.7185826956,
				"y": 1.2206438148,
				"z": -1.5230753824,
				"element": "C" 
			},
			{
				"x": -1.9877856466,
				"y": 1.6783385073,
				"z": -0.2400583022,
				"element": "C" 
			},
			{
				"x": -3.2065428802,
				"y": 2.189611668,
				"z": 0.0316611582,
				"element": "F" 
			},
			{
				"x": -1.0364711439,
				"y": 1.6275354536,
				"z": 0.7750231506,
				"element": "C" 
			},
			{
				"x": 0.2208904947,
				"y": 1.1009306232,
				"z": 0.4894081761,
				"element": "C" 
			},
			{
				"x": 4.0233353978,
				"y": 0.1563626015,
				"z": 0.6730298557,
				"element": "H" 
			},
			{
				"x": 3.9535536254,
				"y": -0.6336520037,
				"z": 2.165323603,
				"element": "H" 
			},
			{
				"x": 1.51964646,
				"y": -1.9831946992,
				"z": -0.6487700461,
				"element": "H" 
			},
			{
				"x": 2.6791456546,
				"y": 0.7493542935,
				"z": -0.8186158368,
				"element": "H" 
			},
			{
				"x": 1.9956860711,
				"y": -0.1129234035,
				"z": -2.1794163054,
				"element": "H" 
			},
			{
				"x": -0.2294757688,
				"y": 0.3335298732,
				"z": -2.7912626377,
				"element": "H" 
			},
			{
				"x": -2.4867926443,
				"y": 1.2776384516,
				"z": -2.2865845986,
				"element": "H" 
			},
			{
				"x": -1.2882388267,
				"y": 1.9981300753,
				"z": 1.7628692186,
				"element": "H" 
			},
			{
				"x": 0.9736751366,
				"y": 1.0548153016,
				"z": 1.2714021914,
				"element": "H" 
			}
		],
		 "valence_orbital": [ 
			{
				"type": "occ",
				"energy": -0.27681,
				"method": "rhf"
			},
			{
				"type": "occ",
				"energy": -0.26501,
				"method": "rhf"
			},
			{
				"type": "occ",
				"energy": -0.26353,
				"method": "rhf"
			},
			{
				"type": "occ",
				"energy": -0.24785,
				"method": "rhf"
			},
			{
				"type": "occ",
				"energy": -0.23973,
				"method": "rhf"
			},
			{
				"type": "unocc",
				"energy": -0.01632,
				"method": "rhf"
			},
			{
				"type": "unocc",
				"energy": -0.00767,
				"method": "rhf"
			},
			{
				"type": "unocc",
				"energy": 0.05062,
				"method": "rhf"
			},
			{
				"type": "unocc",
				"energy": 0.06904,
				"method": "rhf"
			},
			{
				"type": "unocc",
				"energy": 0.0873,
				"method": "rhf"
			}
		],
		"cosmo_sigma_profile": { 
			"-0.025": 0.0,
			"-0.024": 0.0,
			"-0.023": 0.0,
			"-0.022": 0.0,
			"-0.021": 0.0,
			"-0.02": 0.0,
			"-0.019": 0.0,
			"-0.018": 0.0,
			"-0.017": 0.0,
			"-0.016": 0.0,
			"-0.015": 0.0,
			"-0.014": 0.709908477982,
			"-0.013": 2.72948673924,
			"-0.012": 3.46356011996,
			"-0.011": 3.36457160997,
			"-0.01": 3.34811641412,
			"-0.009": 4.27951567277,
			"-0.008": 2.56012007749,
			"-0.007": 6.57687130452,
			"-0.006": 11.9872815597,
			"-0.005": 12.1352269797,
			"-0.004": 11.8703346477,
			"-0.003": 10.0684109672,
			"-0.002": 10.5296481313,
			"-0.001": 8.94302747025,
			"0.0": 11.343932013,
			"0.001": 15.9886517533,
			"0.002": 14.1733164244,
			"0.003": 14.4884045943,
			"0.004": 21.3533129181,
			"0.005": 9.74606929409,
			"0.006": 2.64761105597,
			"0.007": 2.52922601484,
			"0.008": 2.13706672096,
			"0.009": 2.11768560464,
			"0.01": 1.13171074297,
			"0.011": 0.597179440261,
			"0.012": 1.68385522586,
			"0.013": 2.43721473203,
			"0.014": 6.05968335629,
			"0.015": 3.60147462852,
			"0.016": 0.0061985865947,
			"0.017": 0.0,
			"0.018": 0.0,
			"0.019": 0.0,
			"0.02": 0.0,
			"0.021": 0.0,
			"0.022": 0.0,
			"0.023": 0.0,
			"0.024": 0.0,
			"0.025": 0.0
		}
	}
}
