{
	 "smiles": "CC1=CC=C(C=C1I)[N+]([O-])=O", 
	 "Tm": 334.15, 
	 "num_atms": 17, 
	 "gaussian": { 
		 "optdone": 1, 
		 "sigma_profile": "no", 
		 "theory": "DFT", 
		 "functional": "B3LYP", 
		 "basiset": "6-31G**", 
		 "properties": { 
			 "R2extent": 2255.8826, 
			 "electric_dipole_moment_norm": 4.61453322558, 
			 "electric_quadrupole_moment_norm": 12.097884954, 
			 "total_energy": -486.850239755, 
			 "HOMO_LUMO_gap": 0.16482, 
			 "cosmo_polarized_energy": -84430.36, 
			 "cosmo_cavitation_energy": 24.83, 
			 "cosmo_dispersion_energy": -19.55, 
			 "cosmo_repulsion_energy": 1.52, 
			 "cosmo_total_nonelectrostatic_energy": 6.81, 
			 "SMD_solvation_energy": 5.77 
		},
		"coords": [
			{
				"x": -1.0431076277,
				"y": 0.0858426505,
				"z": -2.1780168314,
				"element": "C" 
			},
			{
				"x": -0.3930257446,
				"y": 0.1436609152,
				"z": -0.8213627687,
				"element": "C" 
			},
			{
				"x": 0.2344341901,
				"y": 1.3270213687,
				"z": -0.3955231055,
				"element": "C" 
			},
			{
				"x": 0.8499537663,
				"y": 1.4360922653,
				"z": 0.8463229706,
				"element": "C" 
			},
			{
				"x": 0.8370944116,
				"y": 0.327793599,
				"z": 1.6870011437,
				"element": "C" 
			},
			{
				"x": 0.2307366422,
				"y": -0.8704575186,
				"z": 1.3183940252,
				"element": "C" 
			},
			{
				"x": -0.3774877586,
				"y": -0.948648539,
				"z": 0.0680760741,
				"element": "C" 
			},
			{
				"x": -1.2904963387,
				"y": -2.7934776973,
				"z": -0.4550666168,
				"element": "I" 
			},
			{
				"x": 1.4817108742,
				"y": 0.4173371499,
				"z": 3.0069372377,
				"element": "N" 
			},
			{
				"x": 1.452859804,
				"y": -0.5803066207,
				"z": 3.7259430066,
				"element": "O" 
			},
			{
				"x": 2.0102661997,
				"y": 1.4867047422,
				"z": 3.3080676453,
				"element": "O" 
			},
			{
				"x": -0.9382164853,
				"y": 1.0395924966,
				"z": -2.6998785027,
				"element": "H" 
			},
			{
				"x": -0.5952406123,
				"y": -0.6979475015,
				"z": -2.7983583063,
				"element": "H" 
			},
			{
				"x": -2.1102573606,
				"y": -0.1469539712,
				"z": -2.0959144255,
				"element": "H" 
			},
			{
				"x": 0.2353085047,
				"y": 2.182704223,
				"z": -1.0641366224,
				"element": "H" 
			},
			{
				"x": 1.3319150191,
				"y": 2.349874988,
				"z": 1.1696591022,
				"element": "H" 
			},
			{
				"x": 0.2458525156,
				"y": -1.7057325501,
				"z": 2.005555974,
				"element": "H" 
			}
		],
		 "valence_orbital": [ 
			{
				"type": "occ",
				"energy": -0.31213,
				"method": "rhf"
			},
			{
				"type": "occ",
				"energy": -0.29589,
				"method": "rhf"
			},
			{
				"type": "occ",
				"energy": -0.28371,
				"method": "rhf"
			},
			{
				"type": "occ",
				"energy": -0.28115,
				"method": "rhf"
			},
			{
				"type": "occ",
				"energy": -0.25915,
				"method": "rhf"
			},
			{
				"type": "unocc",
				"energy": -0.09433,
				"method": "rhf"
			},
			{
				"type": "unocc",
				"energy": -0.0527,
				"method": "rhf"
			},
			{
				"type": "unocc",
				"energy": -0.04031,
				"method": "rhf"
			},
			{
				"type": "unocc",
				"energy": -0.00774,
				"method": "rhf"
			},
			{
				"type": "unocc",
				"energy": 0.03369,
				"method": "rhf"
			}
		],
		"cosmo_sigma_profile": { 
			"0.0": 0.0,
			"0.0": 0.0,
			"0.0": 0.0,
			"0.0": 0.0,
			"0.0": 0.0,
			"0.0": 0.0,
			"0.0": 0.0,
			"0.0": 0.0,
			"0.0": 0.0,
			"0.0": 0.0,
			"0.0": 0.0,
			"0.0": 0.0,
			"0.0": 0.0,
			"0.0": 0.0,
			"0.0": 0.0,
			"0.0": 0.0,
			"0.0": 0.0,
			"0.0": 0.0,
			"0.0": 0.0,
			"0.0": 0.0,
			"0.0": 0.0,
			"0.0": 0.0,
			"0.0": 0.0,
			"0.0": 0.0,
			"0.0": 0.0,
			"0.0": 0.0,
			"0.0": 0.0,
			"0.0": 0.0,
			"0.0": 0.0,
			"0.0": 0.0,
			"0.0": 0.0,
			"0.0": 0.0,
			"0.0": 0.0,
			"0.0": 0.0,
			"0.0": 0.0,
			"0.0": 0.0,
			"0.0": 0.0,
			"0.0": 0.0,
			"0.0": 0.0,
			"0.0": 0.0,
			"0.0": 0.0,
			"0.0": 0.0,
			"0.0": 0.0,
			"0.0": 0.0,
			"0.0": 0.0,
			"0.0": 0.0,
			"0.0": 0.0,
			"0.0": 0.0,
			"0.0": 0.0,
			"0.0": 0.0,
			"0.0": 0.0
		}
	}
}
