{
	 "smiles": "ClC1=NC(=NS1)C1=CC=CC=C1", 
	 "Tm": 325.15, 
	 "num_atms": 17, 
	 "gaussian": { 
		 "optdone": 1, 
		 "sigma_profile": "yes", 
		 "theory": "DFT", 
		 "functional": "B3LYP", 
		 "basiset": "6-31G**", 
		 "properties": { 
			 "R2extent": 4640.2062, 
			 "electric_dipole_moment_norm": 0.452909626747, 
			 "electric_quadrupole_moment_norm": 7.52350529939, 
			 "total_energy": -1275.73546684, 
			 "HOMO_LUMO_gap": 0.1759, 
			 "cosmo_polarized_energy": -5.13, 
			 "cosmo_cavitation_energy": 25.41, 
			 "cosmo_dispersion_energy": -19.81, 
			 "cosmo_repulsion_energy": 1.52, 
			 "cosmo_total_nonelectrostatic_energy": 7.12, 
			 "SMD_solvation_energy": 1.32 
		},
		"coords": [
			{
				"x": 4.5277900436,
				"y": -2.1319742184,
				"z": 2.4140618041,
				"element": "Cl" 
			},
			{
				"x": 3.3650543153,
				"y": -0.948494415,
				"z": 1.9458422042,
				"element": "C" 
			},
			{
				"x": 2.6892973086,
				"y": -0.9918334379,
				"z": 0.8439246959,
				"element": "N" 
			},
			{
				"x": 1.8531788172,
				"y": 0.1115224306,
				"z": 0.7927675713,
				"element": "C" 
			},
			{
				"x": 1.872080306,
				"y": 0.9709081833,
				"z": 1.7969150494,
				"element": "N" 
			},
			{
				"x": 2.984484537,
				"y": 0.4417490936,
				"z": 2.9275524025,
				"element": "S" 
			},
			{
				"x": 0.9662063308,
				"y": 0.304778474,
				"z": -0.3687196349,
				"element": "C" 
			},
			{
				"x": 0.9687524569,
				"y": -0.6249765118,
				"z": -1.4193939992,
				"element": "C" 
			},
			{
				"x": 0.1294601302,
				"y": -0.4409467815,
				"z": -2.5170041081,
				"element": "C" 
			},
			{
				"x": -0.7167014411,
				"y": 0.6679111728,
				"z": -2.5762727003,
				"element": "C" 
			},
			{
				"x": -0.7216644303,
				"y": 1.5963394736,
				"z": -1.5308957148,
				"element": "C" 
			},
			{
				"x": 0.1137972193,
				"y": 1.4187150081,
				"z": -0.4319843337,
				"element": "C" 
			},
			{
				"x": 1.6293631146,
				"y": -1.4829563536,
				"z": -1.3643630775,
				"element": "H" 
			},
			{
				"x": 0.1367409547,
				"y": -1.1647623358,
				"z": -3.3266687991,
				"element": "H" 
			},
			{
				"x": -1.3699471381,
				"y": 0.8093878567,
				"z": -3.4325286867,
				"element": "H" 
			},
			{
				"x": -1.3785653876,
				"y": 2.4601838049,
				"z": -1.5735134468,
				"element": "H" 
			},
			{
				"x": 0.117272863,
				"y": 2.1333485562,
				"z": 0.3839807738,
				"element": "H" 
			}
		],
		 "valence_orbital": [ 
			{
				"type": "occ",
				"energy": -0.31658,
				"method": "rhf"
			},
			{
				"type": "occ",
				"energy": -0.29607,
				"method": "rhf"
			},
			{
				"type": "occ",
				"energy": -0.29487,
				"method": "rhf"
			},
			{
				"type": "occ",
				"energy": -0.25682,
				"method": "rhf"
			},
			{
				"type": "occ",
				"energy": -0.24078,
				"method": "rhf"
			},
			{
				"type": "unocc",
				"energy": -0.06488,
				"method": "rhf"
			},
			{
				"type": "unocc",
				"energy": -0.02574,
				"method": "rhf"
			},
			{
				"type": "unocc",
				"energy": -0.01599,
				"method": "rhf"
			},
			{
				"type": "unocc",
				"energy": -0.0046,
				"method": "rhf"
			},
			{
				"type": "unocc",
				"energy": 0.00527,
				"method": "rhf"
			}
		],
		"cosmo_sigma_profile": { 
			"-0.025": 0.0,
			"-0.024": 0.0,
			"-0.023": 0.0,
			"-0.022": 0.0,
			"-0.021": 0.0,
			"-0.02": 0.0,
			"-0.019": 0.0,
			"-0.018": 0.0,
			"-0.017": 0.0,
			"-0.016": 0.0,
			"-0.015": 0.0,
			"-0.014": 0.0,
			"-0.013": 0.0,
			"-0.012": 0.0,
			"-0.011": 0.0,
			"-0.01": 0.0,
			"-0.009": 0.0,
			"-0.008": 0.0,
			"-0.007": 0.52732056896,
			"-0.006": 8.01664313555,
			"-0.005": 15.3582734239,
			"-0.004": 19.0274652726,
			"-0.003": 16.5732402653,
			"-0.002": 18.1678078808,
			"-0.001": 17.9703798414,
			"0.0": 19.7306909033,
			"0.001": 22.6364833253,
			"0.002": 21.7802480508,
			"0.003": 15.8329222184,
			"0.004": 15.0231566965,
			"0.005": 8.2440606262,
			"0.006": 2.87221577176,
			"0.007": 2.36059164053,
			"0.008": 2.26889497091,
			"0.009": 2.20615078412,
			"0.01": 1.38583173938,
			"0.011": 0.619212962355,
			"0.012": 0.0,
			"0.013": 0.0,
			"0.014": 0.0,
			"0.015": 0.0,
			"0.016": 0.0,
			"0.017": 0.0,
			"0.018": 0.0,
			"0.019": 0.0,
			"0.02": 0.0,
			"0.021": 0.0,
			"0.022": 0.0,
			"0.023": 0.0,
			"0.024": 0.0,
			"0.025": 0.0
		}
	}
}
