{
	 "smiles": "O=S1(=O)CCOCC1", 
	 "Tm": 405.15, 
	 "num_atms": 16, 
	 "gaussian": { 
		 "optdone": 1, 
		 "sigma_profile": "yes", 
		 "theory": "DFT", 
		 "functional": "B3LYP", 
		 "basiset": "6-31G**", 
		 "properties": { 
			 "R2extent": 1761.5059, 
			 "electric_dipole_moment_norm": 3.61552560771, 
			 "electric_quadrupole_moment_norm": 18.0289004055, 
			 "total_energy": -781.029902553, 
			 "HOMO_LUMO_gap": 0.34075, 
			 "cosmo_polarized_energy": -15.28, 
			 "cosmo_cavitation_energy": 19.41, 
			 "cosmo_dispersion_energy": -15.64, 
			 "cosmo_repulsion_energy": 1.24, 
			 "cosmo_total_nonelectrostatic_energy": 5.01, 
			 "SMD_solvation_energy": 2.45 
		},
		"coords": [
			{
				"x": 0.8389382524,
				"y": -0.7948285844,
				"z": 3.6545137952,
				"element": "O" 
			},
			{
				"x": 0.2618321617,
				"y": -0.1480360236,
				"z": 2.4677220772,
				"element": "S" 
			},
			{
				"x": -1.1985719921,
				"y": -0.0748595773,
				"z": 2.2792940744,
				"element": "O" 
			},
			{
				"x": 0.9195102228,
				"y": 1.538133852,
				"z": 2.3106904532,
				"element": "C" 
			},
			{
				"x": 0.6319111985,
				"y": 2.0857504013,
				"z": 0.9060654509,
				"element": "C" 
			},
			{
				"x": 1.2454313897,
				"y": 1.3045888148,
				"z": -0.1088265983,
				"element": "O" 
			},
			{
				"x": 0.6768185915,
				"y": 0.0106442574,
				"z": -0.2467079332,
				"element": "C" 
			},
			{
				"x": 0.9717398486,
				"y": -0.8830814868,
				"z": 0.965669448,
				"element": "C" 
			},
			{
				"x": 0.4271441553,
				"y": 2.1275656746,
				"z": 3.0894783256,
				"element": "H" 
			},
			{
				"x": 1.9925637025,
				"y": 1.4869881692,
				"z": 2.5122226548,
				"element": "H" 
			},
			{
				"x": 1.0521960592,
				"y": 3.0913029532,
				"z": 0.8161705579,
				"element": "H" 
			},
			{
				"x": -0.4547797487,
				"y": 2.1457744689,
				"z": 0.7510693105,
				"element": "H" 
			},
			{
				"x": 1.1284567825,
				"y": -0.4299032319,
				"z": -1.1399068224,
				"element": "H" 
			},
			{
				"x": -0.4099368237,
				"y": 0.0745745614,
				"z": -0.3996543763,
				"element": "H" 
			},
			{
				"x": 2.0460120508,
				"y": -0.9920104786,
				"z": 1.135270097,
				"element": "H" 
			},
			{
				"x": 0.513234149,
				"y": -1.8713037703,
				"z": 0.8679294855,
				"element": "H" 
			}
		],
		 "valence_orbital": [ 
			{
				"type": "occ",
				"energy": -0.32751,
				"method": "rhf"
			},
			{
				"type": "occ",
				"energy": -0.31452,
				"method": "rhf"
			},
			{
				"type": "occ",
				"energy": -0.29863,
				"method": "rhf"
			},
			{
				"type": "occ",
				"energy": -0.28502,
				"method": "rhf"
			},
			{
				"type": "occ",
				"energy": -0.28493,
				"method": "rhf"
			},
			{
				"type": "unocc",
				"energy": 0.05582,
				"method": "rhf"
			},
			{
				"type": "unocc",
				"energy": 0.06423,
				"method": "rhf"
			},
			{
				"type": "unocc",
				"energy": 0.06928,
				"method": "rhf"
			},
			{
				"type": "unocc",
				"energy": 0.08824,
				"method": "rhf"
			},
			{
				"type": "unocc",
				"energy": 0.09166,
				"method": "rhf"
			}
		],
		"cosmo_sigma_profile": { 
			"-0.025": 0.0,
			"-0.024": 0.0,
			"-0.023": 0.0,
			"-0.022": 0.0,
			"-0.021": 0.0,
			"-0.02": 0.0,
			"-0.019": 0.0,
			"-0.018": 0.0,
			"-0.017": 0.0,
			"-0.016": 0.0,
			"-0.015": 0.0,
			"-0.014": 0.0,
			"-0.013": 0.0,
			"-0.012": 0.0,
			"-0.011": 0.0,
			"-0.01": 0.451454176683,
			"-0.009": 5.83331422885,
			"-0.008": 9.36103070526,
			"-0.007": 13.3639442731,
			"-0.006": 14.9571951595,
			"-0.005": 17.7090895772,
			"-0.004": 11.4090044072,
			"-0.003": 7.9445607525,
			"-0.002": 4.29592695104,
			"-0.001": 4.00418526655,
			"0.0": 4.09083980429,
			"0.001": 2.96684351567,
			"0.002": 4.22119553137,
			"0.003": 2.87815065716,
			"0.004": 2.4699377514,
			"0.005": 3.00770082131,
			"0.006": 2.9857390296,
			"0.007": 3.11964791379,
			"0.008": 3.49916860655,
			"0.009": 4.37834587457,
			"0.01": 4.67369337211,
			"0.011": 11.1977463166,
			"0.012": 11.3130850966,
			"0.013": 2.04162356808,
			"0.014": 0.0,
			"0.015": 0.0,
			"0.016": 0.0,
			"0.017": 0.0,
			"0.018": 0.0,
			"0.019": 0.0,
			"0.02": 0.0,
			"0.021": 0.0,
			"0.022": 0.0,
			"0.023": 0.0,
			"0.024": 0.0,
			"0.025": 0.0
		}
	}
}
