{
	 "smiles": "[O-][N+](=O)C1=CC=C(C=C1)N1NC(=O)C=CC1=O", 
	 "Tm": 582.15, 
	 "num_atms": 24, 
	 "gaussian": { 
		 "optdone": 1, 
		 "sigma_profile": "yes", 
		 "theory": "DFT", 
		 "functional": "B3LYP", 
		 "basiset": "6-31G**", 
		 "properties": { 
			 "R2extent": 6422.7921, 
			 "electric_dipole_moment_norm": 3.88577534734, 
			 "electric_quadrupole_moment_norm": 27.17960568, 
			 "total_energy": -850.295122588, 
			 "HOMO_LUMO_gap": 0.13926, 
			 "cosmo_polarized_energy": -19.65, 
			 "cosmo_cavitation_energy": 30.2, 
			 "cosmo_dispersion_energy": -22.17, 
			 "cosmo_repulsion_energy": 1.68, 
			 "cosmo_total_nonelectrostatic_energy": 9.72, 
			 "SMD_solvation_energy": 9.07 
		},
		"coords": [
			{
				"x": 6.4522924318,
				"y": -0.7705710743,
				"z": 1.0876057804,
				"element": "O" 
			},
			{
				"x": 5.5514639023,
				"y": -1.2636106614,
				"z": 1.7655725154,
				"element": "N" 
			},
			{
				"x": 5.7230648697,
				"y": -2.0266535397,
				"z": 2.7162921996,
				"element": "O" 
			},
			{
				"x": 4.1685098148,
				"y": -0.9151955999,
				"z": 1.4154845863,
				"element": "C" 
			},
			{
				"x": 3.9329902399,
				"y": -0.041384654,
				"z": 0.3553271641,
				"element": "C" 
			},
			{
				"x": 2.6271384579,
				"y": 0.298936292,
				"z": 0.0257582321,
				"element": "C" 
			},
			{
				"x": 1.5594629389,
				"y": -0.2493444856,
				"z": 0.7586129273,
				"element": "C" 
			},
			{
				"x": 1.81562645,
				"y": -1.1353515812,
				"z": 1.8201394391,
				"element": "C" 
			},
			{
				"x": 3.1237977926,
				"y": -1.4678112336,
				"z": 2.1514129032,
				"element": "C" 
			},
			{
				"x": 0.2187770443,
				"y": 0.112933033,
				"z": 0.4560491555,
				"element": "N" 
			},
			{
				"x": -0.6780179382,
				"y": 0.0275336554,
				"z": 1.5372338885,
				"element": "N" 
			},
			{
				"x": -2.0508243066,
				"y": 0.2084139508,
				"z": 1.4433260296,
				"element": "C" 
			},
			{
				"x": -2.7298499089,
				"y": 0.3281091025,
				"z": 2.4527949397,
				"element": "O" 
			},
			{
				"x": -2.5685174819,
				"y": 0.2540364584,
				"z": 0.0678645115,
				"element": "C" 
			},
			{
				"x": -1.7316702159,
				"y": 0.3126564933,
				"z": -0.9794614963,
				"element": "C" 
			},
			{
				"x": -0.2633446563,
				"y": 0.2521339159,
				"z": -0.85296079,
				"element": "C" 
			},
			{
				"x": 0.481406182,
				"y": 0.289742882,
				"z": -1.8231364603,
				"element": "O" 
			},
			{
				"x": 4.772342045,
				"y": 0.3700498651,
				"z": -0.1909796166,
				"element": "H" 
			},
			{
				"x": 2.4285713717,
				"y": 0.9710262089,
				"z": -0.7956420295,
				"element": "H" 
			},
			{
				"x": 0.994785497,
				"y": -1.5873182242,
				"z": 2.3642735525,
				"element": "H" 
			},
			{
				"x": 3.3435517273,
				"y": -2.1546822906,
				"z": 2.9589322997,
				"element": "H" 
			},
			{
				"x": -0.2722925396,
				"y": 0.3189675381,
				"z": 2.4194118639,
				"element": "H" 
			},
			{
				"x": -3.6469960899,
				"y": 0.3017511044,
				"z": -0.0359757669,
				"element": "H" 
			},
			{
				"x": -2.081167628,
				"y": 0.3943328447,
				"z": -2.0031358289,
				"element": "H" 
			}
		],
		 "valence_orbital": [ 
			{
				"type": "occ",
				"energy": -0.29707,
				"method": "rhf"
			},
			{
				"type": "occ",
				"energy": -0.29583,
				"method": "rhf"
			},
			{
				"type": "occ",
				"energy": -0.28869,
				"method": "rhf"
			},
			{
				"type": "occ",
				"energy": -0.28605,
				"method": "rhf"
			},
			{
				"type": "occ",
				"energy": -0.24469,
				"method": "rhf"
			},
			{
				"type": "unocc",
				"energy": -0.10543,
				"method": "rhf"
			},
			{
				"type": "unocc",
				"energy": -0.08632,
				"method": "rhf"
			},
			{
				"type": "unocc",
				"energy": -0.04079,
				"method": "rhf"
			},
			{
				"type": "unocc",
				"energy": -0.01581,
				"method": "rhf"
			},
			{
				"type": "unocc",
				"energy": 0.00534,
				"method": "rhf"
			}
		],
		"cosmo_sigma_profile": { 
			"-0.025": 0.0,
			"-0.024": 0.0,
			"-0.023": 0.0,
			"-0.022": 0.0,
			"-0.021": 0.0,
			"-0.02": 0.0,
			"-0.019": 0.0,
			"-0.018": 0.0,
			"-0.017": 0.511265396979,
			"-0.016": 1.18796264232,
			"-0.015": 0.655961712537,
			"-0.014": 0.971689297312,
			"-0.013": 1.69125159595,
			"-0.012": 0.836797810813,
			"-0.011": 0.944959345692,
			"-0.01": 1.48753973286,
			"-0.009": 5.84507129008,
			"-0.008": 8.91078020743,
			"-0.007": 11.4123757139,
			"-0.006": 13.0011147375,
			"-0.005": 14.0359610278,
			"-0.004": 14.7719864681,
			"-0.003": 18.4925691328,
			"-0.002": 18.2925352755,
			"-0.001": 17.5553726772,
			"0.0": 19.1153599723,
			"0.001": 13.1210227194,
			"0.002": 6.11211637025,
			"0.003": 5.41152746976,
			"0.004": 5.19017170498,
			"0.005": 6.06081380508,
			"0.006": 4.98395322408,
			"0.007": 11.2803538284,
			"0.008": 10.4095043077,
			"0.009": 7.20214141224,
			"0.01": 5.91367251403,
			"0.011": 5.47815034668,
			"0.012": 8.08000912941,
			"0.013": 4.55476629343,
			"0.014": 0.198558206528,
			"0.015": 0.0,
			"0.016": 0.0,
			"0.017": 0.0,
			"0.018": 0.0,
			"0.019": 0.0,
			"0.02": 0.0,
			"0.021": 0.0,
			"0.022": 0.0,
			"0.023": 0.0,
			"0.024": 0.0,
			"0.025": 0.0
		}
	}
}
