{
	 "smiles": "CC1=CC(C(O)=O)=C(Br)C=C1", 
	 "Tm": 413.15, 
	 "num_atms": 18, 
	 "gaussian": { 
		 "optdone": 1, 
		 "sigma_profile": "yes", 
		 "theory": "DFT", 
		 "functional": "B3LYP", 
		 "basiset": "6-31G**", 
		 "properties": { 
			 "R2extent": 3217.8125, 
			 "electric_dipole_moment_norm": 5.02374678004, 
			 "electric_quadrupole_moment_norm": 11.0075216139, 
			 "total_energy": -3030.93526739, 
			 "HOMO_LUMO_gap": 0.19903, 
			 "cosmo_polarized_energy": -10.32, 
			 "cosmo_cavitation_energy": 24.2, 
			 "cosmo_dispersion_energy": -18.5, 
			 "cosmo_repulsion_energy": 1.47, 
			 "cosmo_total_nonelectrostatic_energy": 7.17, 
			 "SMD_solvation_energy": 4.39 
		},
		"coords": [
			{
				"x": -2.0163110704,
				"y": 1.7985985348,
				"z": 1.061879313,
				"element": "C" 
			},
			{
				"x": -0.8703273969,
				"y": 0.8291880885,
				"z": 0.9002002399,
				"element": "C" 
			},
			{
				"x": -0.5291409722,
				"y": 0.3142683228,
				"z": -0.3482117724,
				"element": "C" 
			},
			{
				"x": 0.531634923,
				"y": -0.5892454806,
				"z": -0.5517817327,
				"element": "C" 
			},
			{
				"x": 0.7062023451,
				"y": -1.0068446435,
				"z": -2.0041633154,
				"element": "C" 
			},
			{
				"x": 1.6912808471,
				"y": -1.8528522688,
				"z": -2.3436160104,
				"element": "O" 
			},
			{
				"x": -0.0369333004,
				"y": -0.580037921,
				"z": -2.8604833378,
				"element": "O" 
			},
			{
				"x": 1.2608190639,
				"y": -0.9690065338,
				"z": 0.5861160873,
				"element": "C" 
			},
			{
				"x": 2.753809983,
				"y": -2.1949291835,
				"z": 0.5569537421,
				"element": "Br" 
			},
			{
				"x": 0.9440456275,
				"y": -0.4719541313,
				"z": 1.8511133069,
				"element": "C" 
			},
			{
				"x": -0.1118196668,
				"y": 0.4188197164,
				"z": 2.0051175269,
				"element": "C" 
			},
			{
				"x": -2.7632913825,
				"y": 1.415387093,
				"z": 1.7659527336,
				"element": "H" 
			},
			{
				"x": -1.6679600343,
				"y": 2.7613091273,
				"z": 1.4529431744,
				"element": "H" 
			},
			{
				"x": -2.51661442,
				"y": 1.9850671267,
				"z": 0.108738418,
				"element": "H" 
			},
			{
				"x": -1.0869763363,
				"y": 0.6006646127,
				"z": -1.2330791028,
				"element": "H" 
			},
			{
				"x": 2.2197912411,
				"y": -2.1277757942,
				"z": -1.5735219252,
				"element": "H" 
			},
			{
				"x": 1.5262050497,
				"y": -0.7857178827,
				"z": 2.7098523692,
				"element": "H" 
			},
			{
				"x": -0.3449145006,
				"y": 0.7959612171,
				"z": 2.9975902854,
				"element": "H" 
			}
		],
		 "valence_orbital": [ 
			{
				"type": "occ",
				"energy": -0.31702,
				"method": "rhf"
			},
			{
				"type": "occ",
				"energy": -0.31062,
				"method": "rhf"
			},
			{
				"type": "occ",
				"energy": -0.27556,
				"method": "rhf"
			},
			{
				"type": "occ",
				"energy": -0.27382,
				"method": "rhf"
			},
			{
				"type": "occ",
				"energy": -0.25883,
				"method": "rhf"
			},
			{
				"type": "unocc",
				"energy": -0.0598,
				"method": "rhf"
			},
			{
				"type": "unocc",
				"energy": -0.0261,
				"method": "rhf"
			},
			{
				"type": "unocc",
				"energy": -0.02386,
				"method": "rhf"
			},
			{
				"type": "unocc",
				"energy": 0.04532,
				"method": "rhf"
			},
			{
				"type": "unocc",
				"energy": 0.09964,
				"method": "rhf"
			}
		],
		"cosmo_sigma_profile": { 
			"-0.025": 0.0,
			"-0.024": 0.0,
			"-0.023": 0.0,
			"-0.022": 0.0,
			"-0.021": 0.0,
			"-0.02": 0.0,
			"-0.019": 0.0,
			"-0.018": 0.0,
			"-0.017": 0.0,
			"-0.016": 0.0,
			"-0.015": 0.0,
			"-0.014": 0.0,
			"-0.013": 0.0,
			"-0.012": 0.0,
			"-0.011": 0.0,
			"-0.01": 0.602937502874,
			"-0.009": 1.16321114385,
			"-0.008": 2.5256535512,
			"-0.007": 6.80063604592,
			"-0.006": 8.11117808807,
			"-0.005": 14.5643811978,
			"-0.004": 16.5058118413,
			"-0.003": 15.1403127676,
			"-0.002": 14.850129942,
			"-0.001": 18.4244825228,
			"0.0": 19.6123321243,
			"0.001": 17.9911895906,
			"0.002": 20.7729016609,
			"0.003": 9.9963665895,
			"0.004": 1.77447159783,
			"0.005": 1.98106925177,
			"0.006": 2.88092147915,
			"0.007": 1.83866662265,
			"0.008": 2.7942438862,
			"0.009": 3.18023659125,
			"0.01": 4.3786507085,
			"0.011": 5.18806716425,
			"0.012": 4.05963878122,
			"0.013": 1.77672481158,
			"0.014": 0.145704697852,
			"0.015": 0.0,
			"0.016": 0.0,
			"0.017": 0.0,
			"0.018": 0.0,
			"0.019": 0.0,
			"0.02": 0.0,
			"0.021": 0.0,
			"0.022": 0.0,
			"0.023": 0.0,
			"0.024": 0.0,
			"0.025": 0.0
		}
	}
}
