{
	 "smiles": "ClC1=NC=CC(=N1)C1=CC=CO1", 
	 "Tm": 355.15, 
	 "num_atms": 17, 
	 "gaussian": { 
		 "optdone": 1, 
		 "sigma_profile": "yes", 
		 "theory": "DFT", 
		 "functional": "B3LYP", 
		 "basiset": "6-31G**", 
		 "properties": { 
			 "R2extent": 3806.0542, 
			 "electric_dipole_moment_norm": 4.72556601795, 
			 "electric_quadrupole_moment_norm": 14.5040412634, 
			 "total_energy": -952.756240281, 
			 "HOMO_LUMO_gap": 0.16611, 
			 "cosmo_polarized_energy": -8.9, 
			 "cosmo_cavitation_energy": 24.31, 
			 "cosmo_dispersion_energy": -18.3, 
			 "cosmo_repulsion_energy": 1.45, 
			 "cosmo_total_nonelectrostatic_energy": 7.46, 
			 "SMD_solvation_energy": 2.2 
		},
		"coords": [
			{
				"x": -1.1434164908,
				"y": 4.977493918,
				"z": -0.3991338009,
				"element": "Cl" 
			},
			{
				"x": -0.2568491078,
				"y": 3.7222412124,
				"z": 0.4526482987,
				"element": "C" 
			},
			{
				"x": 0.7033022505,
				"y": 4.1488430556,
				"z": 1.2661967259,
				"element": "N" 
			},
			{
				"x": 1.3656898888,
				"y": 3.1732399614,
				"z": 1.9073648277,
				"element": "C" 
			},
			{
				"x": 1.0776160805,
				"y": 1.8256185975,
				"z": 1.7405251937,
				"element": "C" 
			},
			{
				"x": 0.037767746,
				"y": 1.51208131,
				"z": 0.8510219343,
				"element": "C" 
			},
			{
				"x": -0.6379623638,
				"y": 2.4820954552,
				"z": 0.1985164309,
				"element": "N" 
			},
			{
				"x": -0.3750541762,
				"y": 0.1502102443,
				"z": 0.5762409186,
				"element": "C" 
			},
			{
				"x": -1.3451676031,
				"y": -0.3751594286,
				"z": -0.2386230586,
				"element": "C" 
			},
			{
				"x": -1.2749948731,
				"y": -1.7908140839,
				"z": -0.087607963,
				"element": "C" 
			},
			{
				"x": -0.2699554205,
				"y": -2.0281600117,
				"z": 0.8060327392,
				"element": "C" 
			},
			{
				"x": 0.2890226149,
				"y": -0.8621572815,
				"z": 1.2209152848,
				"element": "O" 
			},
			{
				"x": 2.157511708,
				"y": 3.4972755321,
				"z": 2.5794954825,
				"element": "H" 
			},
			{
				"x": 1.6231412149,
				"y": 1.0524798642,
				"z": 2.266547339,
				"element": "H" 
			},
			{
				"x": -2.0151884263,
				"y": 0.1986550681,
				"z": -0.8606844508,
				"element": "H" 
			},
			{
				"x": -1.8879436122,
				"y": -2.5339659934,
				"z": -0.5764102387,
				"element": "H" 
			},
			{
				"x": 0.1495805702,
				"y": -2.9275774197,
				"z": 1.2297543367,
				"element": "H" 
			}
		],
		 "valence_orbital": [ 
			{
				"type": "occ",
				"energy": -0.31308,
				"method": "rhf"
			},
			{
				"type": "occ",
				"energy": -0.29719,
				"method": "rhf"
			},
			{
				"type": "occ",
				"energy": -0.28071,
				"method": "rhf"
			},
			{
				"type": "occ",
				"energy": -0.2662,
				"method": "rhf"
			},
			{
				"type": "occ",
				"energy": -0.2369,
				"method": "rhf"
			},
			{
				"type": "unocc",
				"energy": -0.07079,
				"method": "rhf"
			},
			{
				"type": "unocc",
				"energy": -0.03703,
				"method": "rhf"
			},
			{
				"type": "unocc",
				"energy": 0.01873,
				"method": "rhf"
			},
			{
				"type": "unocc",
				"energy": 0.04148,
				"method": "rhf"
			},
			{
				"type": "unocc",
				"energy": 0.06327,
				"method": "rhf"
			}
		],
		"cosmo_sigma_profile": { 
			"-0.025": 0.0,
			"-0.024": 0.0,
			"-0.023": 0.0,
			"-0.022": 0.0,
			"-0.021": 0.0,
			"-0.02": 0.0,
			"-0.019": 0.0,
			"-0.018": 0.0,
			"-0.017": 0.0,
			"-0.016": 0.0,
			"-0.015": 0.0,
			"-0.014": 0.0,
			"-0.013": 0.0,
			"-0.012": 0.0,
			"-0.011": 0.0,
			"-0.01": 1.02000840645,
			"-0.009": 2.75665616017,
			"-0.008": 8.16330967034,
			"-0.007": 8.79267782439,
			"-0.006": 7.43622142999,
			"-0.005": 8.15201795881,
			"-0.004": 7.89371561683,
			"-0.003": 11.5061343513,
			"-0.002": 15.340021739,
			"-0.001": 19.9307361303,
			"0.0": 17.3725446248,
			"0.001": 16.2989234774,
			"0.002": 16.0110156733,
			"0.003": 16.0637731418,
			"0.004": 15.9396271191,
			"0.005": 8.43488967223,
			"0.006": 4.4578573728,
			"0.007": 2.43958175673,
			"0.008": 2.83293759392,
			"0.009": 2.71582520545,
			"0.01": 2.38133340766,
			"0.011": 1.10737646723,
			"0.012": 1.0521860491,
			"0.013": 0.855732129114,
			"0.014": 0.661687570044,
			"0.015": 0.04607685971,
			"0.016": 0.0,
			"0.017": 0.0,
			"0.018": 0.0,
			"0.019": 0.0,
			"0.02": 0.0,
			"0.021": 0.0,
			"0.022": 0.0,
			"0.023": 0.0,
			"0.024": 0.0,
			"0.025": 0.0
		}
	}
}
