{
	 "smiles": "FC(F)(F)C(=O)NC1=CC(I)=CC=C1", 
	 "Tm": 403.15, 
	 "num_atms": 19, 
	 "gaussian": { 
		 "optdone": 1, 
		 "sigma_profile": "yes", 
		 "theory": "DFT", 
		 "functional": "B3LYP", 
		 "basiset": "6-31G**", 
		 "properties": { 
			 "R2extent": 3220.5057, 
			 "electric_dipole_moment_norm": 3.43867726168, 
			 "electric_quadrupole_moment_norm": 11.6896161853, 
			 "total_energy": -748.744612258, 
			 "HOMO_LUMO_gap": 0.19157, 
			 "cosmo_polarized_energy": -10.13, 
			 "cosmo_cavitation_energy": 28.32, 
			 "cosmo_dispersion_energy": -21.43, 
			 "cosmo_repulsion_energy": 1.6, 
			 "cosmo_total_nonelectrostatic_energy": 8.49, 
			 "SMD_solvation_energy": 5.79 
		},
		"coords": [
			{
				"x": 2.6578201897,
				"y": -1.3875438789,
				"z": 2.2027268618,
				"element": "F" 
			},
			{
				"x": 1.7691430543,
				"y": -1.17538601,
				"z": 1.2383722147,
				"element": "C" 
			},
			{
				"x": 1.5112364714,
				"y": -2.3554084511,
				"z": 0.6322304867,
				"element": "F" 
			},
			{
				"x": 2.3240915463,
				"y": -0.3484919169,
				"z": 0.32472916,
				"element": "F" 
			},
			{
				"x": 0.480502369,
				"y": -0.5625890457,
				"z": 1.8316050042,
				"element": "C" 
			},
			{
				"x": 0.429860881,
				"y": -0.3569749139,
				"z": 3.0307309686,
				"element": "O" 
			},
			{
				"x": -0.5847407982,
				"y": -0.2558108868,
				"z": 1.0194688536,
				"element": "N" 
			},
			{
				"x": -0.9368427197,
				"y": -0.3235308356,
				"z": -0.3508347696,
				"element": "C" 
			},
			{
				"x": -0.1201765171,
				"y": -0.8119487087,
				"z": -1.3807117093,
				"element": "C" 
			},
			{
				"x": -0.6096434656,
				"y": -0.8143846867,
				"z": -2.687813767,
				"element": "C" 
			},
			{
				"x": 0.6420846509,
				"y": -1.5575719826,
				"z": -4.2305510349,
				"element": "I" 
			},
			{
				"x": -1.8830061112,
				"y": -0.3483570587,
				"z": -3.0091768338,
				"element": "C" 
			},
			{
				"x": -2.6851260194,
				"y": 0.1350196237,
				"z": -1.9740181717,
				"element": "C" 
			},
			{
				"x": -2.2234849027,
				"y": 0.1491880716,
				"z": -0.663573999,
				"element": "C" 
			},
			{
				"x": -1.3179353438,
				"y": 0.1310472358,
				"z": 1.6039600476,
				"element": "H" 
			},
			{
				"x": 0.8713847355,
				"y": -1.1839763519,
				"z": -1.190835475,
				"element": "H" 
			},
			{
				"x": -2.2419862192,
				"y": -0.3597819269,
				"z": -4.0311508586,
				"element": "H" 
			},
			{
				"x": -3.682009156,
				"y": 0.5047459602,
				"z": -2.193925446,
				"element": "H" 
			},
			{
				"x": -2.8623726451,
				"y": 0.5293557632,
				"z": 0.1292684677,
				"element": "H" 
			}
		],
		 "valence_orbital": [ 
			{
				"type": "occ",
				"energy": -0.3014,
				"method": "rhf"
			},
			{
				"type": "occ",
				"energy": -0.29379,
				"method": "rhf"
			},
			{
				"type": "occ",
				"energy": -0.27505,
				"method": "rhf"
			},
			{
				"type": "occ",
				"energy": -0.25758,
				"method": "rhf"
			},
			{
				"type": "occ",
				"energy": -0.24283,
				"method": "rhf"
			},
			{
				"type": "unocc",
				"energy": -0.05126,
				"method": "rhf"
			},
			{
				"type": "unocc",
				"energy": -0.04645,
				"method": "rhf"
			},
			{
				"type": "unocc",
				"energy": -0.03211,
				"method": "rhf"
			},
			{
				"type": "unocc",
				"energy": 0.00309,
				"method": "rhf"
			},
			{
				"type": "unocc",
				"energy": 0.04222,
				"method": "rhf"
			}
		],
		"cosmo_sigma_profile": { 
			"-0.025": 0.0,
			"-0.024": 0.0,
			"-0.023": 0.0,
			"-0.022": 0.0,
			"-0.021": 0.0,
			"-0.02": 0.0,
			"-0.019": 0.0,
			"-0.018": 0.0,
			"-0.017": 0.029503988029,
			"-0.016": 1.00808246063,
			"-0.015": 1.1477603863,
			"-0.014": 1.09326494956,
			"-0.013": 0.713298052806,
			"-0.012": 1.463494497,
			"-0.011": 1.25406625738,
			"-0.01": 1.26335241646,
			"-0.009": 0.717341393657,
			"-0.008": 1.9427584709,
			"-0.007": 6.50030642855,
			"-0.006": 10.1273532682,
			"-0.005": 9.44278207707,
			"-0.004": 11.6348396224,
			"-0.003": 13.4950923443,
			"-0.002": 13.7343433935,
			"-0.001": 15.4975035058,
			"0.0": 19.3666113979,
			"0.001": 30.2925503774,
			"0.002": 34.4003253419,
			"0.003": 21.129718183,
			"0.004": 16.4473038881,
			"0.005": 4.43405846133,
			"0.006": 1.62297322841,
			"0.007": 1.54641635263,
			"0.008": 1.69330118168,
			"0.009": 2.27471217841,
			"0.01": 2.70849183895,
			"0.011": 5.41898753908,
			"0.012": 0.927359046691,
			"0.013": 0.0,
			"0.014": 0.0,
			"0.015": 0.0,
			"0.016": 0.0,
			"0.017": 0.0,
			"0.018": 0.0,
			"0.019": 0.0,
			"0.02": 0.0,
			"0.021": 0.0,
			"0.022": 0.0,
			"0.023": 0.0,
			"0.024": 0.0,
			"0.025": 0.0
		}
	}
}
