{
	 "smiles": "CN(C1=CC=CC=C1)S(=O)(=O)C1=CC(C(O)=O)=C(Cl)C=C1", 
	 "Tm": 425.15, 
	 "num_atms": 33, 
	 "gaussian": { 
		 "optdone": 1, 
		 "sigma_profile": "yes", 
		 "theory": "DFT", 
		 "functional": "B3LYP", 
		 "basiset": "6-31G**", 
		 "properties": { 
			 "R2extent": 7431.7628, 
			 "electric_dipole_moment_norm": 5.39387141393, 
			 "electric_quadrupole_moment_norm": 23.9513116035, 
			 "total_energy": -1754.67471076, 
			 "HOMO_LUMO_gap": 0.16013, 
			 "cosmo_polarized_energy": -20.58, 
			 "cosmo_cavitation_energy": 40.14, 
			 "cosmo_dispersion_energy": -27.83, 
			 "cosmo_repulsion_energy": 2.08, 
			 "cosmo_total_nonelectrostatic_energy": 14.39, 
			 "SMD_solvation_energy": 6.61 
		},
		"coords": [
			{
				"x": 1.3464715753,
				"y": -0.6957643452,
				"z": 2.9879815239,
				"element": "C" 
			},
			{
				"x": 0.3732790328,
				"y": -1.3839885542,
				"z": 2.1271246367,
				"element": "N" 
			},
			{
				"x": 0.8059818529,
				"y": -1.831392977,
				"z": 0.8303435885,
				"element": "C" 
			},
			{
				"x": 0.3162926749,
				"y": -3.0426184347,
				"z": 0.3224062891,
				"element": "C" 
			},
			{
				"x": 0.7476752582,
				"y": -3.4967416503,
				"z": -0.9223393563,
				"element": "C" 
			},
			{
				"x": 1.6836822666,
				"y": -2.7669985338,
				"z": -1.6587202411,
				"element": "C" 
			},
			{
				"x": 2.1828306304,
				"y": -1.5696932369,
				"z": -1.1459534742,
				"element": "C" 
			},
			{
				"x": 1.7411929571,
				"y": -1.0952388292,
				"z": 0.0897452832,
				"element": "C" 
			},
			{
				"x": -1.2419722018,
				"y": -0.8872506339,
				"z": 2.3064717525,
				"element": "S" 
			},
			{
				"x": -1.4226299787,
				"y": -0.6067995829,
				"z": 3.732299246,
				"element": "O" 
			},
			{
				"x": -2.0807270117,
				"y": -1.8428081179,
				"z": 1.5890315207,
				"element": "O" 
			},
			{
				"x": -1.3732636251,
				"y": 0.6905902178,
				"z": 1.4449457795,
				"element": "C" 
			},
			{
				"x": -1.5596306504,
				"y": 0.7129819618,
				"z": 0.0671296427,
				"element": "C" 
			},
			{
				"x": -1.649513556,
				"y": 1.9265386696,
				"z": -0.6358340681,
				"element": "C" 
			},
			{
				"x": -1.8545778087,
				"y": 1.7589428037,
				"z": -2.1338587605,
				"element": "C" 
			},
			{
				"x": -2.2093131403,
				"y": 2.8203989916,
				"z": -2.8767150044,
				"element": "O" 
			},
			{
				"x": -1.7209575049,
				"y": 0.6746380075,
				"z": -2.6514850725,
				"element": "O" 
			},
			{
				"x": -1.5333677721,
				"y": 3.1096455821,
				"z": 0.1168844065,
				"element": "C" 
			},
			{
				"x": -1.601089861,
				"y": 4.7188589373,
				"z": -0.615612453,
				"element": "Cl" 
			},
			{
				"x": -1.346210024,
				"y": 3.0909727587,
				"z": 1.5003759628,
				"element": "C" 
			},
			{
				"x": -1.2675780072,
				"y": 1.8768593412,
				"z": 2.1740296209,
				"element": "C" 
			},
			{
				"x": 2.2803253998,
				"y": -1.2592791792,
				"z": 2.9453351199,
				"element": "H" 
			},
			{
				"x": 1.5459972478,
				"y": 0.3407956194,
				"z": 2.6817818259,
				"element": "H" 
			},
			{
				"x": 0.9735215602,
				"y": -0.6991395491,
				"z": 4.0111760042,
				"element": "H" 
			},
			{
				"x": -0.3996918321,
				"y": -3.6083187075,
				"z": 0.9052806152,
				"element": "H" 
			},
			{
				"x": 0.35890371,
				"y": -4.432932225,
				"z": -1.3116051489,
				"element": "H" 
			},
			{
				"x": 2.022635978,
				"y": -3.1302515348,
				"z": -2.6240805842,
				"element": "H" 
			},
			{
				"x": 2.910118777,
				"y": -0.9943049105,
				"z": -1.7110604374,
				"element": "H" 
			},
			{
				"x": 2.1266099573,
				"y": -0.156763638,
				"z": 0.4745657219,
				"element": "H" 
			},
			{
				"x": -1.6547531751,
				"y": -0.2044523627,
				"z": -0.50169648,
				"element": "H" 
			},
			{
				"x": -2.2762943829,
				"y": 3.630203696,
				"z": -2.3456901492,
				"element": "H" 
			},
			{
				"x": -1.2697204295,
				"y": 4.027474595,
				"z": 2.040931731,
				"element": "H" 
			},
			{
				"x": -1.149227917,
				"y": 1.844235821,
				"z": 3.2513109584,
				"element": "H" 
			}
		],
		 "valence_orbital": [ 
			{
				"type": "occ",
				"energy": -0.29651,
				"method": "rhf"
			},
			{
				"type": "occ",
				"energy": -0.28646,
				"method": "rhf"
			},
			{
				"type": "occ",
				"energy": -0.28167,
				"method": "rhf"
			},
			{
				"type": "occ",
				"energy": -0.25876,
				"method": "rhf"
			},
			{
				"type": "occ",
				"energy": -0.23857,
				"method": "rhf"
			},
			{
				"type": "unocc",
				"energy": -0.07844,
				"method": "rhf"
			},
			{
				"type": "unocc",
				"energy": -0.05874,
				"method": "rhf"
			},
			{
				"type": "unocc",
				"energy": -0.01611,
				"method": "rhf"
			},
			{
				"type": "unocc",
				"energy": -0.01367,
				"method": "rhf"
			},
			{
				"type": "unocc",
				"energy": -0.00957,
				"method": "rhf"
			}
		],
		"cosmo_sigma_profile": { 
			"-0.025": 0.0,
			"-0.024": 0.0,
			"-0.023": 0.0,
			"-0.022": 0.0,
			"-0.021": 0.0,
			"-0.02": 0.0,
			"-0.019": 0.0,
			"-0.018": 0.0,
			"-0.017": 0.0,
			"-0.016": 0.0,
			"-0.015": 0.0,
			"-0.014": 0.0875383400929,
			"-0.013": 0.484875794151,
			"-0.012": 1.61716244185,
			"-0.011": 1.43678442102,
			"-0.01": 1.10315925714,
			"-0.009": 3.20194590172,
			"-0.008": 5.7939970504,
			"-0.007": 8.93986280165,
			"-0.006": 17.1446964265,
			"-0.005": 24.7130885533,
			"-0.004": 27.5219007373,
			"-0.003": 26.9767609257,
			"-0.002": 28.0412898286,
			"-0.001": 25.0874787048,
			"0.0": 20.3917127839,
			"0.001": 19.1393603312,
			"0.002": 19.6500673355,
			"0.003": 14.3016753799,
			"0.004": 14.9222157354,
			"0.005": 11.4060305066,
			"0.006": 6.66215560312,
			"0.007": 7.03067338967,
			"0.008": 5.64908932162,
			"0.009": 8.92737787006,
			"0.01": 11.92581103,
			"0.011": 9.14844886213,
			"0.012": 2.57853121048,
			"0.013": 0.397640582223,
			"0.014": 0.0,
			"0.015": 0.0,
			"0.016": 0.0,
			"0.017": 0.0,
			"0.018": 0.0,
			"0.019": 0.0,
			"0.02": 0.0,
			"0.021": 0.0,
			"0.022": 0.0,
			"0.023": 0.0,
			"0.024": 0.0,
			"0.0": 0.0
		}
	}
}
