{
	 "smiles": "FC(F)(F)C1=C(NC(=O)CCl)C=CC=C1", 
	 "Tm": 366.15, 
	 "num_atms": 22, 
	 "gaussian": { 
		 "optdone": 1, 
		 "sigma_profile": "yes", 
		 "theory": "DFT", 
		 "functional": "B3LYP", 
		 "basiset": "6-31G**", 
		 "properties": { 
			 "R2extent": 4544.0013, 
			 "electric_dipole_moment_norm": 3.32770584187, 
			 "electric_quadrupole_moment_norm": 7.60681351947, 
			 "total_energy": -1236.8808604, 
			 "HOMO_LUMO_gap": 0.21655, 
			 "cosmo_polarized_energy": -12.37, 
			 "cosmo_cavitation_energy": 29.21, 
			 "cosmo_dispersion_energy": -20.74, 
			 "cosmo_repulsion_energy": 1.58, 
			 "cosmo_total_nonelectrostatic_energy": 10.05, 
			 "SMD_solvation_energy": 6.35 
		},
		"coords": [
			{
				"x": 0.625029262,
				"y": 1.2020630456,
				"z": -2.2953076496,
				"element": "F" 
			},
			{
				"x": 1.6007102792,
				"y": 0.9450573057,
				"z": -1.4066435016,
				"element": "C" 
			},
			{
				"x": 2.3792354808,
				"y": -0.0320442849,
				"z": -1.9163038446,
				"element": "F" 
			},
			{
				"x": 2.3732598802,
				"y": 2.0607226643,
				"z": -1.3502571626,
				"element": "F" 
			},
			{
				"x": 1.0566262912,
				"y": 0.6233651108,
				"z": -0.0300091457,
				"element": "C" 
			},
			{
				"x": 0.8637593784,
				"y": -0.6766517042,
				"z": 0.4753061983,
				"element": "C" 
			},
			{
				"x": 1.1489834893,
				"y": -1.8587365679,
				"z": -0.2607390838,
				"element": "N" 
			},
			{
				"x": 0.5496605857,
				"y": -2.1975616291,
				"z": -1.4405969348,
				"element": "C" 
			},
			{
				"x": -0.2491182579,
				"y": -1.5040392807,
				"z": -2.0449458983,
				"element": "O" 
			},
			{
				"x": 0.9571571859,
				"y": -3.531111514,
				"z": -2.0711658477,
				"element": "C" 
			},
			{
				"x": 1.8624039283,
				"y": -4.6953807698,
				"z": -1.0086551638,
				"element": "Cl" 
			},
			{
				"x": 0.4073644618,
				"y": -0.8380016781,
				"z": 1.7902642394,
				"element": "C" 
			},
			{
				"x": 0.1210520657,
				"y": 0.2609352727,
				"z": 2.5939320904,
				"element": "C" 
			},
			{
				"x": 0.2751162986,
				"y": 1.5495226474,
				"z": 2.0828414759,
				"element": "C" 
			},
			{
				"x": 0.7407227012,
				"y": 1.7197557092,
				"z": 0.7828277382,
				"element": "C" 
			},
			{
				"x": 1.6844223448,
				"y": -2.5783214304,
				"z": 0.2072068494,
				"element": "H" 
			},
			{
				"x": 1.5974696456,
				"y": -3.32355549,
				"z": -2.9300933931,
				"element": "H" 
			},
			{
				"x": 0.0537196949,
				"y": -4.0346689535,
				"z": -2.4116077333,
				"element": "H" 
			},
			{
				"x": 0.2640123255,
				"y": -1.8460084796,
				"z": 2.1683492744,
				"element": "H" 
			},
			{
				"x": -0.2324089245,
				"y": 0.1089281502,
				"z": 3.6091910597,
				"element": "H" 
			},
			{
				"x": 0.0444859856,
				"y": 2.4165559018,
				"z": 2.6934674287,
				"element": "H" 
			},
			{
				"x": 0.8910358975,
				"y": 2.7185759743,
				"z": 0.3891390045,
				"element": "H" 
			}
		],
		 "valence_orbital": [ 
			{
				"type": "occ",
				"energy": -0.31818,
				"method": "rhf"
			},
			{
				"type": "occ",
				"energy": -0.30032,
				"method": "rhf"
			},
			{
				"type": "occ",
				"energy": -0.27618,
				"method": "rhf"
			},
			{
				"type": "occ",
				"energy": -0.26652,
				"method": "rhf"
			},
			{
				"type": "occ",
				"energy": -0.25298,
				"method": "rhf"
			},
			{
				"type": "unocc",
				"energy": -0.03643,
				"method": "rhf"
			},
			{
				"type": "unocc",
				"energy": -0.02848,
				"method": "rhf"
			},
			{
				"type": "unocc",
				"energy": 0.0049,
				"method": "rhf"
			},
			{
				"type": "unocc",
				"energy": 0.02032,
				"method": "rhf"
			},
			{
				"type": "unocc",
				"energy": 0.08134,
				"method": "rhf"
			}
		],
		"cosmo_sigma_profile": { 
			"-0.025": 0.0,
			"-0.024": 0.0,
			"-0.023": 0.0,
			"-0.022": 0.0,
			"-0.021": 0.0,
			"-0.02": 0.0,
			"-0.019": 0.0,
			"-0.018": 0.0,
			"-0.017": 0.0,
			"-0.016": 0.0,
			"-0.015": 0.0,
			"-0.014": 0.0509173548598,
			"-0.013": 0.734187173306,
			"-0.012": 1.26796575415,
			"-0.011": 0.731796689973,
			"-0.01": 1.55503921217,
			"-0.009": 5.11998447502,
			"-0.008": 5.50504035498,
			"-0.007": 10.9430723668,
			"-0.006": 13.1967938654,
			"-0.005": 13.4827730728,
			"-0.004": 12.4125538009,
			"-0.003": 10.7635214748,
			"-0.002": 10.6841426831,
			"-0.001": 13.2538757816,
			"0.0": 14.477330458,
			"0.001": 16.8802779696,
			"0.002": 23.9808494508,
			"0.003": 38.450005208,
			"0.004": 12.3006342783,
			"0.005": 9.12965385694,
			"0.006": 3.97623248572,
			"0.007": 2.15672948402,
			"0.008": 2.05186633548,
			"0.009": 1.84480130681,
			"0.01": 2.00677907576,
			"0.011": 2.83949821903,
			"0.012": 4.20602686488,
			"0.013": 2.02940789423,
			"0.014": 0.127209052517,
			"0.015": 0.0,
			"0.016": 0.0,
			"0.017": 0.0,
			"0.018": 0.0,
			"0.019": 0.0,
			"0.02": 0.0,
			"0.021": 0.0,
			"0.022": 0.0,
			"0.023": 0.0,
			"0.024": 0.0,
			"0.025": 0.0
		}
	}
}
