{
	 "smiles": "OC1CCCC2=CNN=C12", 
	 "Tm": 381.15, 
	 "num_atms": 20, 
	 "gaussian": { 
		 "optdone": 1, 
		 "sigma_profile": "yes", 
		 "theory": "DFT", 
		 "functional": "B3LYP", 
		 "basiset": "6-31G**", 
		 "properties": { 
			 "R2extent": 2412.666, 
			 "electric_dipole_moment_norm": 3.10402353406, 
			 "electric_quadrupole_moment_norm": 15.4423915599, 
			 "total_energy": -457.478583697, 
			 "HOMO_LUMO_gap": 0.24991, 
			 "cosmo_polarized_energy": -11.37, 
			 "cosmo_cavitation_energy": 22.01, 
			 "cosmo_dispersion_energy": -16.96, 
			 "cosmo_repulsion_energy": 1.39, 
			 "cosmo_total_nonelectrostatic_energy": 6.45, 
			 "SMD_solvation_energy": 2.48 
		},
		"coords": [
			{
				"x": 1.5550602747,
				"y": 0.7606441878,
				"z": 1.9755645141,
				"element": "O" 
			},
			{
				"x": 1.4298161049,
				"y": 1.1514305375,
				"z": 0.6011931796,
				"element": "C" 
			},
			{
				"x": 0.0663813226,
				"y": 0.6439050858,
				"z": 0.1093776198,
				"element": "C" 
			},
			{
				"x": 0.0714512548,
				"y": -0.8736623035,
				"z": -0.1454289375,
				"element": "C" 
			},
			{
				"x": 1.0354084035,
				"y": -1.2595105813,
				"z": -1.2864618646,
				"element": "C" 
			},
			{
				"x": 2.3604572692,
				"y": -0.5803750573,
				"z": -1.0789294283,
				"element": "C" 
			},
			{
				"x": 3.6275637244,
				"y": -0.8143987494,
				"z": -1.5798220408,
				"element": "C" 
			},
			{
				"x": 4.4372364555,
				"y": 0.1338544161,
				"z": -1.0296301264,
				"element": "N" 
			},
			{
				"x": 3.7853630175,
				"y": 0.9803798998,
				"z": -0.2048456711,
				"element": "N" 
			},
			{
				"x": 2.5234172264,
				"y": 0.5472004488,
				"z": -0.2361765334,
				"element": "C" 
			},
			{
				"x": 2.4847408629,
				"y": 0.8768013991,
				"z": 2.2134822046,
				"element": "H" 
			},
			{
				"x": 1.4702389556,
				"y": 2.2488016581,
				"z": 0.5255369298,
				"element": "H" 
			},
			{
				"x": -0.1971832918,
				"y": 1.1777021995,
				"z": -0.8133752963,
				"element": "H" 
			},
			{
				"x": -0.684248679,
				"y": 0.9045992862,
				"z": 0.8623413864,
				"element": "H" 
			},
			{
				"x": -0.9406666397,
				"y": -1.2190387602,
				"z": -0.3828163388,
				"element": "H" 
			},
			{
				"x": 0.3778885491,
				"y": -1.3768020353,
				"z": 0.7785521292,
				"element": "H" 
			},
			{
				"x": 0.6005152872,
				"y": -0.9511171906,
				"z": -2.2486415913,
				"element": "H" 
			},
			{
				"x": 1.1509038033,
				"y": -2.3485889443,
				"z": -1.3380382634,
				"element": "H" 
			},
			{
				"x": 4.0100495014,
				"y": -1.5588381577,
				"z": -2.2636833443,
				"element": "H" 
			},
			{
				"x": 5.4252065974,
				"y": 0.2625126609,
				"z": -1.1814985272,
				"element": "H" 
			}
		],
		 "valence_orbital": [ 
			{
				"type": "occ",
				"energy": -0.31171,
				"method": "rhf"
			},
			{
				"type": "occ",
				"energy": -0.28674,
				"method": "rhf"
			},
			{
				"type": "occ",
				"energy": -0.25667,
				"method": "rhf"
			},
			{
				"type": "occ",
				"energy": -0.24631,
				"method": "rhf"
			},
			{
				"type": "occ",
				"energy": -0.23457,
				"method": "rhf"
			},
			{
				"type": "unocc",
				"energy": 0.01534,
				"method": "rhf"
			},
			{
				"type": "unocc",
				"energy": 0.06355,
				"method": "rhf"
			},
			{
				"type": "unocc",
				"energy": 0.08057,
				"method": "rhf"
			},
			{
				"type": "unocc",
				"energy": 0.09774,
				"method": "rhf"
			},
			{
				"type": "unocc",
				"energy": 0.12156,
				"method": "rhf"
			}
		],
		"cosmo_sigma_profile": { 
			"-0.025": 0.0,
			"-0.024": 0.0,
			"-0.023": 0.0,
			"-0.022": 0.0,
			"-0.021": 0.0,
			"-0.02": 0.0,
			"-0.019": 0.0,
			"-0.018": 0.0,
			"-0.017": 0.15763718767,
			"-0.016": 1.35196089629,
			"-0.015": 1.66489589188,
			"-0.014": 1.3922360645,
			"-0.013": 1.50443653656,
			"-0.012": 1.88534656925,
			"-0.011": 1.75884028779,
			"-0.01": 1.50562757105,
			"-0.009": 1.92510120297,
			"-0.008": 3.53084824472,
			"-0.007": 3.29433105355,
			"-0.006": 4.07600449144,
			"-0.005": 2.53155258662,
			"-0.004": 4.73714121558,
			"-0.003": 15.3789175877,
			"-0.002": 21.0527850508,
			"-0.001": 20.4993571381,
			"0.0": 18.3302254807,
			"0.001": 11.2950815983,
			"0.002": 6.16796112922,
			"0.003": 5.55237280887,
			"0.004": 7.08376208921,
			"0.005": 9.16307857574,
			"0.006": 4.66220258192,
			"0.007": 3.62152554186,
			"0.008": 1.35626819521,
			"0.009": 2.40877974005,
			"0.01": 2.48352291222,
			"0.011": 2.45569917215,
			"0.012": 3.01760275452,
			"0.013": 1.6608449426,
			"0.014": 2.62525335844,
			"0.015": 1.07914985675,
			"0.016": 0.818757942862,
			"0.017": 0.104278623879,
			"0.018": 0.0,
			"0.019": 0.0,
			"0.02": 0.0,
			"0.021": 0.0,
			"0.022": 0.0,
			"0.023": 0.0,
			"0.024": 0.0,
			"0.025": 0.0
		}
	}
}
