{
	 "smiles": "COC(=O)CC(=O)C1=CC=CC=C1Cl", 
	 "Tm": 298.15, 
	 "num_atms": 23, 
	 "gaussian": { 
		 "optdone": 1, 
		 "sigma_profile": "yes", 
		 "theory": "DFT", 
		 "functional": "B3LYP", 
		 "basiset": "6-31G**", 
		 "properties": { 
			 "R2extent": 3927.0901, 
			 "electric_dipole_moment_norm": 4.0377755584, 
			 "electric_quadrupole_moment_norm": 12.9438167385, 
			 "total_energy": -1072.34914878, 
			 "HOMO_LUMO_gap": 0.19315, 
			 "cosmo_polarized_energy": -11.76, 
			 "cosmo_cavitation_energy": 29.73, 
			 "cosmo_dispersion_energy": -21.38, 
			 "cosmo_repulsion_energy": 1.69, 
			 "cosmo_total_nonelectrostatic_energy": 10.04, 
			 "SMD_solvation_energy": 6.88 
		},
		"coords": [
			{
				"x": -1.301777161,
				"y": -2.7932177018,
				"z": -3.466418127,
				"element": "C" 
			},
			{
				"x": -0.6167489588,
				"y": -1.8680596308,
				"z": -2.606047933,
				"element": "O" 
			},
			{
				"x": -0.7173825627,
				"y": -0.571075311,
				"z": -2.9634127832,
				"element": "C" 
			},
			{
				"x": -1.2776962401,
				"y": -0.1825208728,
				"z": -3.9621235053,
				"element": "O" 
			},
			{
				"x": -0.0106270832,
				"y": 0.3176140865,
				"z": -1.9551486482,
				"element": "C" 
			},
			{
				"x": -0.8232081568,
				"y": 0.4208659169,
				"z": -0.6649867532,
				"element": "C" 
			},
			{
				"x": -1.9945834254,
				"y": 0.0810904377,
				"z": -0.6653766897,
				"element": "O" 
			},
			{
				"x": -0.1939547568,
				"y": 0.8784958119,
				"z": 0.6306210842,
				"element": "C" 
			},
			{
				"x": -0.8803548091,
				"y": 0.4681835863,
				"z": 1.7911162024,
				"element": "C" 
			},
			{
				"x": -0.4282987878,
				"y": 0.7793496959,
				"z": 3.066277054,
				"element": "C" 
			},
			{
				"x": 0.7350973621,
				"y": 1.536227425,
				"z": 3.2178960642,
				"element": "C" 
			},
			{
				"x": 1.4271564308,
				"y": 1.977479825,
				"z": 2.0933511272,
				"element": "C" 
			},
			{
				"x": 0.9686431091,
				"y": 1.6497978933,
				"z": 0.815121479,
				"element": "C" 
			},
			{
				"x": 1.9055393844,
				"y": 2.3134286418,
				"z": -0.5229411319,
				"element": "Cl" 
			},
			{
				"x": -1.1145682352,
				"y": -3.7810364049,
				"z": -3.0456483967,
				"element": "H" 
			},
			{
				"x": -0.9147611726,
				"y": -2.7298303413,
				"z": -4.4864853017,
				"element": "H" 
			},
			{
				"x": -2.3730603655,
				"y": -2.578362303,
				"z": -3.4798107169,
				"element": "H" 
			},
			{
				"x": 0.9914404837,
				"y": -0.0673187516,
				"z": -1.7462188061,
				"element": "H" 
			},
			{
				"x": 0.0988909696,
				"y": 1.3107728705,
				"z": -2.3970366695,
				"element": "H" 
			},
			{
				"x": -1.7866700025,
				"y": -0.1088150939,
				"z": 1.6454295099,
				"element": "H" 
			},
			{
				"x": -0.9789211303,
				"y": 0.4361063462,
				"z": 3.9363579281,
				"element": "H" 
			},
			{
				"x": 1.1041435323,
				"y": 1.7909946688,
				"z": 4.206849555,
				"element": "H" 
			},
			{
				"x": 2.3211015757,
				"y": 2.5824292053,
				"z": 2.1945354585,
				"element": "H" 
			}
		],
		 "valence_orbital": [ 
			{
				"type": "occ",
				"energy": -0.29858,
				"method": "rhf"
			},
			{
				"type": "occ",
				"energy": -0.2794,
				"method": "rhf"
			},
			{
				"type": "occ",
				"energy": -0.26956,
				"method": "rhf"
			},
			{
				"type": "occ",
				"energy": -0.26471,
				"method": "rhf"
			},
			{
				"type": "occ",
				"energy": -0.2628,
				"method": "rhf"
			},
			{
				"type": "unocc",
				"energy": -0.06965,
				"method": "rhf"
			},
			{
				"type": "unocc",
				"energy": -0.02632,
				"method": "rhf"
			},
			{
				"type": "unocc",
				"energy": 0.00635,
				"method": "rhf"
			},
			{
				"type": "unocc",
				"energy": 0.01664,
				"method": "rhf"
			},
			{
				"type": "unocc",
				"energy": 0.02061,
				"method": "rhf"
			}
		],
		"cosmo_sigma_profile": { 
			"-0.025": 0.0,
			"-0.024": 0.0,
			"-0.023": 0.0,
			"-0.022": 0.0,
			"-0.021": 0.0,
			"-0.02": 0.0,
			"-0.019": 0.0,
			"-0.018": 0.0,
			"-0.017": 0.0,
			"-0.016": 0.0,
			"-0.015": 0.0,
			"-0.014": 0.0,
			"-0.013": 0.0,
			"-0.012": 0.0,
			"-0.011": 0.0,
			"-0.01": 0.0,
			"-0.009": 0.0,
			"-0.008": 2.40887135402,
			"-0.007": 11.4838625108,
			"-0.006": 17.6646608583,
			"-0.005": 19.1491475502,
			"-0.004": 18.3990903462,
			"-0.003": 19.5784079815,
			"-0.002": 15.6738851941,
			"-0.001": 15.0566558826,
			"0.0": 17.6603749271,
			"0.001": 17.3093775953,
			"0.002": 21.8068412891,
			"0.003": 14.9642013072,
			"0.004": 9.00379642829,
			"0.005": 4.581471582,
			"0.006": 4.3325295115,
			"0.007": 4.77569796078,
			"0.008": 6.0816512968,
			"0.009": 4.05583501081,
			"0.01": 4.85039236136,
			"0.011": 6.69068184055,
			"0.012": 3.67286771587,
			"0.013": 0.394918086672,
			"0.014": 0.0,
			"0.015": 0.0,
			"0.016": 0.0,
			"0.017": 0.0,
			"0.018": 0.0,
			"0.019": 0.0,
			"0.02": 0.0,
			"0.021": 0.0,
			"0.022": 0.0,
			"0.023": 0.0,
			"0.024": 0.0,
			"0.025": 0.0
		}
	}
}
