{
	 "smiles": "ClCC1=CC=C(C=C1)N=C=O", 
	 "Tm": 306.15, 
	 "num_atms": 17, 
	 "gaussian": { 
		 "optdone": 1, 
		 "sigma_profile": "yes", 
		 "theory": "DFT", 
		 "functional": "B3LYP", 
		 "basiset": "6-31G**", 
		 "properties": { 
			 "R2extent": 3302.5764, 
			 "electric_dipole_moment_norm": 2.47066024779, 
			 "electric_quadrupole_moment_norm": 17.2011064426, 
			 "total_energy": -898.637583604, 
			 "HOMO_LUMO_gap": 0.20128, 
			 "cosmo_polarized_energy": -8.05, 
			 "cosmo_cavitation_energy": 24.87, 
			 "cosmo_dispersion_energy": -17.69, 
			 "cosmo_repulsion_energy": 1.44, 
			 "cosmo_total_nonelectrostatic_energy": 8.62, 
			 "SMD_solvation_energy": 6.62 
		},
		"coords": [
			{
				"x": -0.733936074,
				"y": -0.7798099999,
				"z": 4.2598044107,
				"element": "Cl" 
			},
			{
				"x": 0.5453652358,
				"y": -0.2934573851,
				"z": 3.0314827738,
				"element": "C" 
			},
			{
				"x": 0.0439582859,
				"y": -0.3738377191,
				"z": 1.6221923897,
				"element": "C" 
			},
			{
				"x": 0.1767138691,
				"y": -1.5564287915,
				"z": 0.882479631,
				"element": "C" 
			},
			{
				"x": -0.2835803913,
				"y": -1.63819498,
				"z": -0.4279008164,
				"element": "C" 
			},
			{
				"x": -0.9004928591,
				"y": -0.5261357834,
				"z": -1.0177680635,
				"element": "C" 
			},
			{
				"x": -1.0313254399,
				"y": 0.6669017873,
				"z": -0.293374319,
				"element": "C" 
			},
			{
				"x": -0.5658131621,
				"y": 0.7325613554,
				"z": 1.0160666072,
				"element": "C" 
			},
			{
				"x": -1.3344037365,
				"y": -0.5899006929,
				"z": -2.3371238371,
				"element": "N" 
			},
			{
				"x": -2.177628434,
				"y": -0.815302182,
				"z": -3.1605243761,
				"element": "C" 
			},
			{
				"x": -2.9256655811,
				"y": -1.0057468443,
				"z": -4.054045793,
				"element": "O" 
			},
			{
				"x": 0.8351515432,
				"y": 0.7209032544,
				"z": 3.3057932783,
				"element": "H" 
			},
			{
				"x": 1.3828558752,
				"y": -0.9686391114,
				"z": 3.2072389592,
				"element": "H" 
			},
			{
				"x": 0.6455510271,
				"y": -2.4247524243,
				"z": 1.337393466,
				"element": "H" 
			},
			{
				"x": -0.1718534126,
				"y": -2.5518374017,
				"z": -1.0017912499,
				"element": "H" 
			},
			{
				"x": -1.4950781898,
				"y": 1.5272929676,
				"z": -0.7637308234,
				"element": "H" 
			},
			{
				"x": -0.6786185559,
				"y": 1.6571839508,
				"z": 1.5756077625,
				"element": "H" 
			}
		],
		 "valence_orbital": [ 
			{
				"type": "occ",
				"energy": -0.29981,
				"method": "rhf"
			},
			{
				"type": "occ",
				"energy": -0.29885,
				"method": "rhf"
			},
			{
				"type": "occ",
				"energy": -0.29818,
				"method": "rhf"
			},
			{
				"type": "occ",
				"energy": -0.27334,
				"method": "rhf"
			},
			{
				"type": "occ",
				"energy": -0.24716,
				"method": "rhf"
			},
			{
				"type": "unocc",
				"energy": -0.04588,
				"method": "rhf"
			},
			{
				"type": "unocc",
				"energy": -0.02355,
				"method": "rhf"
			},
			{
				"type": "unocc",
				"energy": 0.02115,
				"method": "rhf"
			},
			{
				"type": "unocc",
				"energy": 0.05079,
				"method": "rhf"
			},
			{
				"type": "unocc",
				"energy": 0.05548,
				"method": "rhf"
			}
		],
		"cosmo_sigma_profile": { 
			"-0.025": 0.0,
			"-0.024": 0.0,
			"-0.023": 0.0,
			"-0.022": 0.0,
			"-0.021": 0.0,
			"-0.02": 0.0,
			"-0.019": 0.0,
			"-0.018": 0.0,
			"-0.017": 0.0,
			"-0.016": 0.0,
			"-0.015": 0.0,
			"-0.014": 0.0,
			"-0.013": 0.0,
			"-0.012": 0.0,
			"-0.011": 0.0,
			"-0.01": 0.0,
			"-0.009": 0.0,
			"-0.008": 3.47805854302,
			"-0.007": 12.6459485917,
			"-0.006": 12.6922720633,
			"-0.005": 13.4967887771,
			"-0.004": 16.3065675189,
			"-0.003": 13.0340550587,
			"-0.002": 12.1606436283,
			"-0.001": 10.1214098895,
			"0.0": 12.06213387,
			"0.001": 12.3004798592,
			"0.002": 15.2031691046,
			"0.003": 19.1724438901,
			"0.004": 12.3061912514,
			"0.005": 7.52979590926,
			"0.006": 11.4128415369,
			"0.007": 10.5724265251,
			"0.008": 8.11151502631,
			"0.009": 0.270738793728,
			"0.01": 0.0,
			"0.011": 0.0,
			"0.012": 0.0,
			"0.013": 0.0,
			"0.014": 0.0,
			"0.015": 0.0,
			"0.016": 0.0,
			"0.017": 0.0,
			"0.018": 0.0,
			"0.019": 0.0,
			"0.02": 0.0,
			"0.021": 0.0,
			"0.022": 0.0,
			"0.023": 0.0,
			"0.024": 0.0,
			"0.025": 0.0
		}
	}
}
