{
	 "smiles": "COC1=CC=CC=C1OC(=O)C1=CC=CC=C1", 
	 "Tm": 331.35, 
	 "num_atms": 29, 
	 "gaussian": { 
		 "optdone": 1, 
		 "sigma_profile": "yes", 
		 "theory": "DFT", 
		 "functional": "B3LYP", 
		 "basiset": "6-31G**", 
		 "properties": { 
			 "R2extent": 5049.8874, 
			 "electric_dipole_moment_norm": 1.80774001726, 
			 "electric_quadrupole_moment_norm": 14.09440805, 
			 "total_energy": -766.388848004, 
			 "HOMO_LUMO_gap": 0.17483, 
			 "cosmo_polarized_energy": -11.4, 
			 "cosmo_cavitation_energy": 33.94, 
			 "cosmo_dispersion_energy": -24.05, 
			 "cosmo_repulsion_energy": 1.88, 
			 "cosmo_total_nonelectrostatic_energy": 11.76, 
			 "SMD_solvation_energy": 7.44 
		},
		"coords": [
			{
				"x": 1.3490562732,
				"y": -2.8301119774,
				"z": 0.7669615351,
				"element": "C" 
			},
			{
				"x": 0.6778563132,
				"y": -1.6077780713,
				"z": 0.5034165936,
				"element": "O" 
			},
			{
				"x": 0.4212427884,
				"y": -1.2832819816,
				"z": -0.7916147319,
				"element": "C" 
			},
			{
				"x": 0.6807220033,
				"y": -2.0986101554,
				"z": -1.8976812574,
				"element": "C" 
			},
			{
				"x": 0.3501118089,
				"y": -1.6623689629,
				"z": -3.1851669662,
				"element": "C" 
			},
			{
				"x": -0.2391128304,
				"y": -0.4173095157,
				"z": -3.3855495867,
				"element": "C" 
			},
			{
				"x": -0.4938795826,
				"y": 0.4061937926,
				"z": -2.2843834047,
				"element": "C" 
			},
			{
				"x": -0.1645543866,
				"y": -0.0217189705,
				"z": -1.0080713807,
				"element": "C" 
			},
			{
				"x": -0.4961244602,
				"y": 0.7793263594,
				"z": 0.08266791,
				"element": "O" 
			},
			{
				"x": 0.5272344502,
				"y": 1.3873968038,
				"z": 0.7664117599,
				"element": "C" 
			},
			{
				"x": 1.6843506268,
				"y": 1.3348082474,
				"z": 0.4189824809,
				"element": "O" 
			},
			{
				"x": 0.025882119,
				"y": 2.1256835449,
				"z": 1.958168695,
				"element": "C" 
			},
			{
				"x": -1.3240464439,
				"y": 2.1212474524,
				"z": 2.3366518339,
				"element": "C" 
			},
			{
				"x": -1.730367506,
				"y": 2.8322175327,
				"z": 3.4648866263,
				"element": "C" 
			},
			{
				"x": -0.7959987547,
				"y": 3.5480841326,
				"z": 4.2173396214,
				"element": "C" 
			},
			{
				"x": 0.5503888982,
				"y": 3.5532464122,
				"z": 3.841994645,
				"element": "C" 
			},
			{
				"x": 0.9610701675,
				"y": 2.844091324,
				"z": 2.7163247776,
				"element": "C" 
			},
			{
				"x": 1.4847398965,
				"y": -2.8699940996,
				"z": 1.8485438178,
				"element": "H" 
			},
			{
				"x": 2.3299838168,
				"y": -2.8633821181,
				"z": 0.2769278011,
				"element": "H" 
			},
			{
				"x": 0.7548590096,
				"y": -3.6953487342,
				"z": 0.4457249924,
				"element": "H" 
			},
			{
				"x": 1.1359262165,
				"y": -3.0725903364,
				"z": -1.7628615091,
				"element": "H" 
			},
			{
				"x": 0.5573456018,
				"y": -2.3105589289,
				"z": -4.0315092967,
				"element": "H" 
			},
			{
				"x": -0.4960199412,
				"y": -0.0816774484,
				"z": -4.3849712045,
				"element": "H" 
			},
			{
				"x": -0.9485944579,
				"y": 1.3845959773,
				"z": -2.4009888336,
				"element": "H" 
			},
			{
				"x": -2.0420071143,
				"y": 1.5617956795,
				"z": 1.7484472735,
				"element": "H" 
			},
			{
				"x": -2.7761307057,
				"y": 2.8275802211,
				"z": 3.7579550484,
				"element": "H" 
			},
			{
				"x": -1.1165908623,
				"y": 4.101199929,
				"z": 5.0957579417,
				"element": "H" 
			},
			{
				"x": 1.2768767949,
				"y": 4.1095262282,
				"z": 4.4269914346,
				"element": "H" 
			},
			{
				"x": 1.9999802611,
				"y": 2.8312376636,
				"z": 2.4045433834,
				"element": "H" 
			}
		],
		 "valence_orbital": [ 
			{
				"type": "occ",
				"energy": -0.27191,
				"method": "rhf"
			},
			{
				"type": "occ",
				"energy": -0.2577,
				"method": "rhf"
			},
			{
				"type": "occ",
				"energy": -0.256,
				"method": "rhf"
			},
			{
				"type": "occ",
				"energy": -0.24638,
				"method": "rhf"
			},
			{
				"type": "occ",
				"energy": -0.21837,
				"method": "rhf"
			},
			{
				"type": "unocc",
				"energy": -0.04354,
				"method": "rhf"
			},
			{
				"type": "unocc",
				"energy": -0.0055,
				"method": "rhf"
			},
			{
				"type": "unocc",
				"energy": 0.00061,
				"method": "rhf"
			},
			{
				"type": "unocc",
				"energy": 0.0113,
				"method": "rhf"
			},
			{
				"type": "unocc",
				"energy": 0.06194,
				"method": "rhf"
			}
		],
		"cosmo_sigma_profile": { 
			"-0.025": 0.0,
			"-0.024": 0.0,
			"-0.023": 0.0,
			"-0.022": 0.0,
			"-0.021": 0.0,
			"-0.02": 0.0,
			"-0.019": 0.0,
			"-0.018": 0.0,
			"-0.017": 0.0,
			"-0.016": 0.0,
			"-0.015": 0.0,
			"-0.014": 0.0,
			"-0.013": 0.0,
			"-0.012": 0.0,
			"-0.011": 0.0,
			"-0.01": 0.0,
			"-0.009": 0.0,
			"-0.008": 0.0,
			"-0.007": 4.28229930613,
			"-0.006": 21.5358587296,
			"-0.005": 26.7958229393,
			"-0.004": 26.6377355611,
			"-0.003": 21.5729521573,
			"-0.002": 16.4363220557,
			"-0.001": 14.2904318953,
			"0.0": 15.2614373365,
			"0.001": 19.4273372611,
			"0.002": 20.8115477264,
			"0.003": 22.8705237433,
			"0.004": 22.9157263191,
			"0.005": 13.3744634008,
			"0.006": 5.3326093699,
			"0.007": 3.62978009862,
			"0.008": 3.10865597654,
			"0.009": 3.84323812403,
			"0.01": 3.09750923786,
			"0.011": 4.3804979343,
			"0.012": 2.48177326555,
			"0.013": 0.0046316574843,
			"0.014": 0.0,
			"0.015": 0.0,
			"0.016": 0.0,
			"0.017": 0.0,
			"0.018": 0.0,
			"0.019": 0.0,
			"0.02": 0.0,
			"0.021": 0.0,
			"0.022": 0.0,
			"0.023": 0.0,
			"0.024": 0.0,
			"0.025": 0.0
		}
	}
}
