{
	 "smiles": "CCCCCCCC(Cl)=O", 
	 "Tm": 210.15, 
	 "num_atms": 25, 
	 "gaussian": { 
		 "optdone": 1, 
		 "sigma_profile": "yes", 
		 "theory": "DFT", 
		 "functional": "B3LYP", 
		 "basiset": "6-31G**", 
		 "properties": { 
			 "R2extent": 3708.6949, 
			 "electric_dipole_moment_norm": 3.14667554095, 
			 "electric_quadrupole_moment_norm": 10.9531856708, 
			 "total_energy": -849.333524468, 
			 "HOMO_LUMO_gap": 0.25704, 
			 "cosmo_polarized_energy": -5.37, 
			 "cosmo_cavitation_energy": 28.79, 
			 "cosmo_dispersion_energy": -20.44, 
			 "cosmo_repulsion_energy": 1.71, 
			 "cosmo_total_nonelectrostatic_energy": 10.06, 
			 "SMD_solvation_energy": 4.82 
		},
		"coords": [
			{
				"x": 0.5855801379,
				"y": 2.4380167719,
				"z": 3.0180128914,
				"element": "C" 
			},
			{
				"x": -0.8514027919,
				"y": 1.9141985273,
				"z": 3.1221215174,
				"element": "C" 
			},
			{
				"x": -1.2860177401,
				"y": 0.934942457,
				"z": 2.0165633244,
				"element": "C" 
			},
			{
				"x": -0.5114187394,
				"y": -0.4033256153,
				"z": 1.9752819219,
				"element": "C" 
			},
			{
				"x": 0.6939175431,
				"y": -0.4582518416,
				"z": 1.0169303001,
				"element": "C" 
			},
			{
				"x": 0.2929790883,
				"y": -0.5020884039,
				"z": -0.4653282067,
				"element": "C" 
			},
			{
				"x": 1.4842554077,
				"y": -0.5171322722,
				"z": -1.4316290455,
				"element": "C" 
			},
			{
				"x": 2.2504078649,
				"y": -1.8184207674,
				"z": -1.4266466825,
				"element": "C" 
			},
			{
				"x": 3.7304220192,
				"y": -1.737947778,
				"z": -2.5172978361,
				"element": "Cl" 
			},
			{
				"x": 1.9994098421,
				"y": -2.8239529554,
				"z": -0.8458588045,
				"element": "O" 
			},
			{
				"x": 0.7641881949,
				"y": 2.9227073745,
				"z": 2.0508120912,
				"element": "H" 
			},
			{
				"x": 1.3223500466,
				"y": 1.6360955912,
				"z": 3.1302826704,
				"element": "H" 
			},
			{
				"x": 0.7889431024,
				"y": 3.1773739297,
				"z": 3.7999008171,
				"element": "H" 
			},
			{
				"x": -0.9866935475,
				"y": 1.4266534142,
				"z": 4.0974457781,
				"element": "H" 
			},
			{
				"x": -1.5407009582,
				"y": 2.7686040116,
				"z": 3.115119838,
				"element": "H" 
			},
			{
				"x": -1.2199086357,
				"y": 1.4395115772,
				"z": 1.0425606556,
				"element": "H" 
			},
			{
				"x": -2.3519279536,
				"y": 0.7221298625,
				"z": 2.1640122768,
				"element": "H" 
			},
			{
				"x": -1.1991144701,
				"y": -1.2121899,
				"z": 1.6957156254,
				"element": "H" 
			},
			{
				"x": -0.1702464588,
				"y": -0.6468377858,
				"z": 2.99001291,
				"element": "H" 
			},
			{
				"x": 1.351002557,
				"y": 0.4040578495,
				"z": 1.1864534815,
				"element": "H" 
			},
			{
				"x": 1.285340513,
				"y": -1.3519373862,
				"z": 1.2454588961,
				"element": "H" 
			},
			{
				"x": -0.3316136632,
				"y": -1.3837920703,
				"z": -0.6512027498,
				"element": "H" 
			},
			{
				"x": -0.3190773336,
				"y": 0.3724118141,
				"z": -0.7153528684,
				"element": "H" 
			},
			{
				"x": 1.1648816089,
				"y": -0.3557588377,
				"z": -2.4690680578,
				"element": "H" 
			},
			{
				"x": 2.1962443661,
				"y": 0.2883324328,
				"z": -1.2162007443,
				"element": "H" 
			}
		],
		 "valence_orbital": [ 
			{
				"type": "occ",
				"energy": -0.31891,
				"method": "rhf"
			},
			{
				"type": "occ",
				"energy": -0.3178,
				"method": "rhf"
			},
			{
				"type": "occ",
				"energy": -0.31358,
				"method": "rhf"
			},
			{
				"type": "occ",
				"energy": -0.3105,
				"method": "rhf"
			},
			{
				"type": "occ",
				"energy": -0.29453,
				"method": "rhf"
			},
			{
				"type": "unocc",
				"energy": -0.03749,
				"method": "rhf"
			},
			{
				"type": "unocc",
				"energy": 0.01739,
				"method": "rhf"
			},
			{
				"type": "unocc",
				"energy": 0.07682,
				"method": "rhf"
			},
			{
				"type": "unocc",
				"energy": 0.08986,
				"method": "rhf"
			},
			{
				"type": "unocc",
				"energy": 0.10878,
				"method": "rhf"
			}
		],
		"cosmo_sigma_profile": { 
			"-0.025": 0.0,
			"-0.024": 0.0,
			"-0.023": 0.0,
			"-0.022": 0.0,
			"-0.021": 0.0,
			"-0.02": 0.0,
			"-0.019": 0.0,
			"-0.018": 0.0,
			"-0.017": 0.0,
			"-0.016": 0.0,
			"-0.015": 0.0,
			"-0.014": 0.0,
			"-0.013": 0.0,
			"-0.012": 0.0,
			"-0.011": 0.0,
			"-0.01": 0.0,
			"-0.009": 0.0,
			"-0.008": 1.19918923118,
			"-0.007": 4.72240128246,
			"-0.006": 5.2160726527,
			"-0.005": 6.06018496408,
			"-0.004": 9.638181535,
			"-0.003": 14.6351387748,
			"-0.002": 26.9574224423,
			"-0.001": 35.4527639912,
			"0.0": 35.8843998283,
			"0.001": 29.822489893,
			"0.002": 14.2090219119,
			"0.003": 7.00078498567,
			"0.004": 10.1514511188,
			"0.005": 11.5809273208,
			"0.006": 3.72541110615,
			"0.007": 2.81534565662,
			"0.008": 4.45702965328,
			"0.009": 2.20910532616,
			"0.01": 0.0258348256057,
			"0.011": 0.0,
			"0.012": 0.0,
			"0.013": 0.0,
			"0.014": 0.0,
			"0.015": 0.0,
			"0.016": 0.0,
			"0.017": 0.0,
			"0.018": 0.0,
			"0.019": 0.0,
			"0.02": 0.0,
			"0.021": 0.0,
			"0.022": 0.0,
			"0.023": 0.0,
			"0.024": 0.0,
			"0.025": 0.0
		}
	}
}
