{
	 "smiles": "CC1=C(SC(=O)N1)S(=O)(=O)N1CCCC1C(O)=O", 
	 "Tm": 521.15, 
	 "num_atms": 30, 
	 "gaussian": { 
		 "optdone": 1, 
		 "sigma_profile": "yes", 
		 "theory": "DFT", 
		 "functional": "B3LYP", 
		 "basiset": "6-31G**", 
		 "properties": { 
			 "R2extent": 5321.3126, 
			 "electric_dipole_moment_norm": 5.1354917525, 
			 "electric_quadrupole_moment_norm": 18.7889633647, 
			 "total_energy": -1632.1304468, 
			 "HOMO_LUMO_gap": 0.19442, 
			 "cosmo_polarized_energy": -24.34, 
			 "cosmo_cavitation_energy": 35.83, 
			 "cosmo_dispersion_energy": -25.37, 
			 "cosmo_repulsion_energy": 1.87, 
			 "cosmo_total_nonelectrostatic_energy": 12.33, 
			 "SMD_solvation_energy": 6.33 
		},
		"coords": [
			{
				"x": -2.0898336323,
				"y": -1.1589349178,
				"z": -1.4100772028,
				"element": "C" 
			},
			{
				"x": -2.4657935891,
				"y": 0.0085448362,
				"z": -0.5547438958,
				"element": "C" 
			},
			{
				"x": -1.8109261445,
				"y": 1.184431005,
				"z": -0.3739254731,
				"element": "C" 
			},
			{
				"x": -2.6098155466,
				"y": 2.2481476115,
				"z": 0.7917855741,
				"element": "S" 
			},
			{
				"x": -3.9017032628,
				"y": 1.0113871907,
				"z": 1.0549288535,
				"element": "C" 
			},
			{
				"x": -4.851859617,
				"y": 1.0993198423,
				"z": 1.7974926097,
				"element": "O" 
			},
			{
				"x": -3.6053387907,
				"y": -0.0653964819,
				"z": 0.2246686229,
				"element": "N" 
			},
			{
				"x": -0.2914405207,
				"y": 1.666527603,
				"z": -1.1291465141,
				"element": "S" 
			},
			{
				"x": -0.3004192374,
				"y": 1.3157994766,
				"z": -2.5527162649,
				"element": "O" 
			},
			{
				"x": -0.0610092364,
				"y": 3.0531645472,
				"z": -0.7013753505,
				"element": "O" 
			},
			{
				"x": 0.8466075833,
				"y": 0.6137089153,
				"z": -0.4301740045,
				"element": "N" 
			},
			{
				"x": 2.0615285904,
				"y": 0.3662890427,
				"z": -1.2788544348,
				"element": "C" 
			},
			{
				"x": 3.2093481171,
				"y": 0.2604937086,
				"z": -0.2658615995,
				"element": "C" 
			},
			{
				"x": 2.7745562662,
				"y": 1.2031438809,
				"z": 0.864585751,
				"element": "C" 
			},
			{
				"x": 1.2691120705,
				"y": 0.9317603181,
				"z": 0.964850095,
				"element": "C" 
			},
			{
				"x": 0.9654904408,
				"y": -0.2594784474,
				"z": 1.8807044215,
				"element": "C" 
			},
			{
				"x": -0.3571805163,
				"y": -0.5272425937,
				"z": 1.9502463041,
				"element": "O" 
			},
			{
				"x": 1.7909318368,
				"y": -0.8948090564,
				"z": 2.4988045435,
				"element": "O" 
			},
			{
				"x": -2.964113331,
				"y": -1.5377133589,
				"z": -1.9502178928,
				"element": "H" 
			},
			{
				"x": -1.3317683529,
				"y": -0.8715863264,
				"z": -2.1372101619,
				"element": "H" 
			},
			{
				"x": -1.6940701086,
				"y": -1.970206724,
				"z": -0.7881403262,
				"element": "H" 
			},
			{
				"x": -4.2388870072,
				"y": -0.8540917281,
				"z": 0.2131884062,
				"element": "H" 
			},
			{
				"x": 2.226775681,
				"y": 1.1967916424,
				"z": -1.971887354,
				"element": "H" 
			},
			{
				"x": 1.9166794588,
				"y": -0.5401818373,
				"z": -1.8703879834,
				"element": "H" 
			},
			{
				"x": 4.1670169653,
				"y": 0.5371353605,
				"z": -0.7143196195,
				"element": "H" 
			},
			{
				"x": 3.2959884177,
				"y": -0.7602374849,
				"z": 0.1186351218,
				"element": "H" 
			},
			{
				"x": 2.9248964476,
				"y": 2.2484745796,
				"z": 0.5768644247,
				"element": "H" 
			},
			{
				"x": 3.2895190599,
				"y": 1.0127952786,
				"z": 1.8070517979,
				"element": "H" 
			},
			{
				"x": 0.7122981466,
				"y": 1.7956164806,
				"z": 1.3407713633,
				"element": "H" 
			},
			{
				"x": -0.4482901884,
				"y": -1.2724523627,
				"z": 2.5682601886,
				"element": "H" 
			}
		],
		 "valence_orbital": [ 
			{
				"type": "occ",
				"energy": -0.31134,
				"method": "rhf"
			},
			{
				"type": "occ",
				"energy": -0.2954,
				"method": "rhf"
			},
			{
				"type": "occ",
				"energy": -0.28188,
				"method": "rhf"
			},
			{
				"type": "occ",
				"energy": -0.26234,
				"method": "rhf"
			},
			{
				"type": "occ",
				"energy": -0.23133,
				"method": "rhf"
			},
			{
				"type": "unocc",
				"energy": -0.03691,
				"method": "rhf"
			},
			{
				"type": "unocc",
				"energy": -0.01626,
				"method": "rhf"
			},
			{
				"type": "unocc",
				"energy": -0.00074,
				"method": "rhf"
			},
			{
				"type": "unocc",
				"energy": 0.01477,
				"method": "rhf"
			},
			{
				"type": "unocc",
				"energy": 0.04497,
				"method": "rhf"
			}
		],
		"cosmo_sigma_profile": { 
			"-0.025": 0.0,
			"-0.024": 0.0,
			"-0.023": 0.0,
			"-0.022": 0.0,
			"-0.021": 0.0,
			"-0.02": 0.0,
			"-0.019": 0.275066693,
			"-0.018": 1.19769275205,
			"-0.017": 2.26433699092,
			"-0.016": 2.004868266,
			"-0.015": 1.79852806227,
			"-0.014": 1.16240718219,
			"-0.013": 2.26420197311,
			"-0.012": 2.49575967052,
			"-0.011": 1.83607746631,
			"-0.01": 1.50862059128,
			"-0.009": 2.52976912662,
			"-0.008": 3.51226095527,
			"-0.007": 6.34561999519,
			"-0.006": 8.94027228129,
			"-0.005": 15.6674458859,
			"-0.004": 24.1824322106,
			"-0.003": 26.0252738935,
			"-0.002": 24.7689335416,
			"-0.001": 22.4963277449,
			"0.0": 15.6456320981,
			"0.001": 14.6503272681,
			"0.002": 14.0103052954,
			"0.003": 12.3327791261,
			"0.004": 9.74870464179,
			"0.005": 7.45002585068,
			"0.006": 7.12025008404,
			"0.007": 5.6222327427,
			"0.008": 6.74069638858,
			"0.009": 8.067214786,
			"0.01": 11.6881375416,
			"0.011": 16.4649560216,
			"0.012": 4.48498321071,
			"0.013": 0.0390992060612,
			"0.014": 0.0,
			"0.015": 0.0,
			"0.016": 0.0,
			"0.017": 0.0,
			"0.018": 0.0,
			"0.019": 0.0,
			"0.02": 0.0,
			"0.021": 0.0,
			"0.022": 0.0,
			"0.023": 0.0,
			"0.024": 0.0,
			"0.025": 0.0
		}
	}
}
