{
	 "smiles": "COC(=O)C1=C(O)C=CC(=C1)S(=O)(=O)N1CCCC1", 
	 "Tm": 434.15, 
	 "num_atms": 34, 
	 "gaussian": { 
		 "optdone": 1, 
		 "sigma_profile": "yes", 
		 "theory": "DFT", 
		 "functional": "B3LYP", 
		 "basiset": "6-31G**", 
		 "properties": { 
			 "R2extent": 7350.3438, 
			 "electric_dipole_moment_norm": 5.32348539493, 
			 "electric_quadrupole_moment_norm": 26.4573084549, 
			 "total_energy": -1295.3183158, 
			 "HOMO_LUMO_gap": 0.17491, 
			 "cosmo_polarized_energy": -17.32, 
			 "cosmo_cavitation_energy": 38.32, 
			 "cosmo_dispersion_energy": -27.83, 
			 "cosmo_repulsion_energy": 2.11, 
			 "cosmo_total_nonelectrostatic_energy": 12.61, 
			 "SMD_solvation_energy": 6.31 
		},
		"coords": [
			{
				"x": -4.1256352518,
				"y": 1.0904161147,
				"z": 4.2577598889,
				"element": "C" 
			},
			{
				"x": -3.5158756743,
				"y": 0.0401812116,
				"z": 3.4805766791,
				"element": "O" 
			},
			{
				"x": -2.2872375876,
				"y": 0.3357404672,
				"z": 2.9445527592,
				"element": "C" 
			},
			{
				"x": -1.7623795591,
				"y": 1.4137723782,
				"z": 3.1170808841,
				"element": "O" 
			},
			{
				"x": -1.7141155533,
				"y": -0.7849846563,
				"z": 2.1608872165,
				"element": "C" 
			},
			{
				"x": -2.3522698848,
				"y": -2.0329289099,
				"z": 1.9474294116,
				"element": "C" 
			},
			{
				"x": -3.5643860167,
				"y": -2.356301973,
				"z": 2.4313761224,
				"element": "O" 
			},
			{
				"x": -1.7004436267,
				"y": -3.0222023088,
				"z": 1.1856873404,
				"element": "C" 
			},
			{
				"x": -0.450943349,
				"y": -2.787555142,
				"z": 0.6429937117,
				"element": "C" 
			},
			{
				"x": 0.1773355598,
				"y": -1.5485018674,
				"z": 0.8516145437,
				"element": "C" 
			},
			{
				"x": -0.441226677,
				"y": -0.5648857706,
				"z": 1.6045573608,
				"element": "C" 
			},
			{
				"x": 1.7984637434,
				"y": -1.2570422565,
				"z": 0.1510382042,
				"element": "S" 
			},
			{
				"x": 2.3451011147,
				"y": -0.0661162111,
				"z": 0.8162500462,
				"element": "O" 
			},
			{
				"x": 2.5324305437,
				"y": -2.5278844847,
				"z": 0.1535657081,
				"element": "O" 
			},
			{
				"x": 1.44686706,
				"y": -0.9219822352,
				"z": -1.4586358564,
				"element": "N" 
			},
			{
				"x": 2.3044833599,
				"y": -1.5145631871,
				"z": -2.5255998909,
				"element": "C" 
			},
			{
				"x": 2.5153958433,
				"y": -0.3557406471,
				"z": -3.5125970065,
				"element": "C" 
			},
			{
				"x": 1.265845456,
				"y": 0.517708214,
				"z": -3.3162090974,
				"element": "C" 
			},
			{
				"x": 1.0491117433,
				"y": 0.4645758788,
				"z": -1.7994884557,
				"element": "C" 
			},
			{
				"x": -3.4873263568,
				"y": 1.3519517765,
				"z": 5.1038509572,
				"element": "H" 
			},
			{
				"x": -4.2814401516,
				"y": 1.9761274187,
				"z": 3.6387668524,
				"element": "H" 
			},
			{
				"x": -5.0771900507,
				"y": 0.6861430531,
				"z": 4.6013860975,
				"element": "H" 
			},
			{
				"x": -3.9010987929,
				"y": -1.5999167418,
				"z": 2.9477536279,
				"element": "H" 
			},
			{
				"x": -2.2076100836,
				"y": -3.970829964,
				"z": 1.047603048,
				"element": "H" 
			},
			{
				"x": 0.0555809324,
				"y": -3.5579224196,
				"z": 0.071364599,
				"element": "H" 
			},
			{
				"x": 0.0508046531,
				"y": 0.3834539904,
				"z": 1.7882729457,
				"element": "H" 
			},
			{
				"x": 3.2354008137,
				"y": -1.9081215808,
				"z": -2.1149316002,
				"element": "H" 
			},
			{
				"x": 1.766744756,
				"y": -2.3477201373,
				"z": -2.9933468175,
				"element": "H" 
			},
			{
				"x": 2.6402788929,
				"y": -0.7071170989,
				"z": -4.5406074726,
				"element": "H" 
			},
			{
				"x": 3.4127129525,
				"y": 0.2104880012,
				"z": -3.2390174933,
				"element": "H" 
			},
			{
				"x": 1.3909757523,
				"y": 1.5424126196,
				"z": -3.6765476168,
				"element": "H" 
			},
			{
				"x": 0.4074759344,
				"y": 0.0779344588,
				"z": -3.8365033077,
				"element": "H" 
			},
			{
				"x": 0.0093661988,
				"y": 0.6450055858,
				"z": -1.50740145,
				"element": "H" 
			},
			{
				"x": 1.6848033061,
				"y": 1.1924064238,
				"z": -1.2808819395,
				"element": "H" 
			}
		],
		 "valence_orbital": [ 
			{
				"type": "occ",
				"energy": -0.2945,
				"method": "rhf"
			},
			{
				"type": "occ",
				"energy": -0.29145,
				"method": "rhf"
			},
			{
				"type": "occ",
				"energy": -0.27613,
				"method": "rhf"
			},
			{
				"type": "occ",
				"energy": -0.25513,
				"method": "rhf"
			},
			{
				"type": "occ",
				"energy": -0.23453,
				"method": "rhf"
			},
			{
				"type": "unocc",
				"energy": -0.05962,
				"method": "rhf"
			},
			{
				"type": "unocc",
				"energy": -0.0246,
				"method": "rhf"
			},
			{
				"type": "unocc",
				"energy": 0.03203,
				"method": "rhf"
			},
			{
				"type": "unocc",
				"energy": 0.06469,
				"method": "rhf"
			},
			{
				"type": "unocc",
				"energy": 0.08026,
				"method": "rhf"
			}
		],
		"cosmo_sigma_profile": { 
			"-0.025": 0.0,
			"-0.024": 0.0,
			"-0.023": 0.0,
			"-0.022": 0.0,
			"-0.021": 0.0,
			"-0.02": 0.0,
			"-0.019": 0.0,
			"-0.018": 0.0,
			"-0.017": 0.0,
			"-0.016": 0.0,
			"-0.015": 0.0,
			"-0.014": 0.0,
			"-0.013": 0.0,
			"-0.012": 0.0337855013185,
			"-0.011": 0.423021626471,
			"-0.01": 0.663927984044,
			"-0.009": 0.825521688767,
			"-0.008": 2.85149227122,
			"-0.007": 7.46398620973,
			"-0.006": 12.3465724536,
			"-0.005": 16.1497880033,
			"-0.004": 38.0350034066,
			"-0.003": 39.7953405235,
			"-0.002": 31.2370041366,
			"-0.001": 25.7075584973,
			"0.0": 24.9190902214,
			"0.001": 17.6151804404,
			"0.002": 12.4250187767,
			"0.003": 7.86496736449,
			"0.004": 7.0396133762,
			"0.005": 6.79233618396,
			"0.006": 5.11945203851,
			"0.007": 5.99223705317,
			"0.008": 5.73837470608,
			"0.009": 7.51261121255,
			"0.01": 9.43905587103,
			"0.011": 12.1958403196,
			"0.012": 5.47994138188,
			"0.013": 0.0636102476395,
			"0.014": 0.0,
			"0.015": 0.0,
			"0.016": 0.0,
			"0.017": 0.0,
			"0.018": 0.0,
			"0.019": 0.0,
			"0.02": 0.0,
			"0.021": 0.0,
			"0.022": 0.0,
			"0.023": 0.0,
			"0.024": 0.0,
			"0.025": 0.0
		}
	}
}
