{
	 "smiles": "CC1=C2C=CC=NC2=CC=C1", 
	 "Tm": 292.15, 
	 "num_atms": 20, 
	 "gaussian": { 
		 "optdone": 1, 
		 "sigma_profile": "yes", 
		 "theory": "DFT", 
		 "functional": "B3LYP", 
		 "basiset": "6-31G**", 
		 "properties": { 
			 "R2extent": 1852.744, 
			 "electric_dipole_moment_norm": 2.35529239162, 
			 "electric_quadrupole_moment_norm": 9.97215161036, 
			 "total_energy": -441.251897191, 
			 "HOMO_LUMO_gap": 0.17509, 
			 "cosmo_polarized_energy": -6.84, 
			 "cosmo_cavitation_energy": 23.16, 
			 "cosmo_dispersion_energy": -17.43, 
			 "cosmo_repulsion_energy": 1.37, 
			 "cosmo_total_nonelectrostatic_energy": 7.09, 
			 "SMD_solvation_energy": 2.39 
		},
		"coords": [
			{
				"x": 1.1630734831,
				"y": -1.5666823335,
				"z": -0.0818776287,
				"element": "C" 
			},
			{
				"x": 0.3226399189,
				"y": -0.3558628388,
				"z": -0.4099989197,
				"element": "C" 
			},
			{
				"x": 0.1287348304,
				"y": 0.6852168497,
				"z": 0.5550174802,
				"element": "C" 
			},
			{
				"x": 0.6948549595,
				"y": 0.6605559507,
				"z": 1.8562856893,
				"element": "C" 
			},
			{
				"x": 0.4585794992,
				"y": 1.7027917191,
				"z": 2.722963755,
				"element": "C" 
			},
			{
				"x": -0.3502077257,
				"y": 2.7798621038,
				"z": 2.2872362178,
				"element": "C" 
			},
			{
				"x": -0.8992838122,
				"y": 2.8523156062,
				"z": 1.0914034865,
				"element": "N" 
			},
			{
				"x": -0.6739372314,
				"y": 1.8254897674,
				"z": 0.2199565147,
				"element": "C" 
			},
			{
				"x": -1.2673074651,
				"y": 1.906878083,
				"z": -1.068285976,
				"element": "C" 
			},
			{
				"x": -1.0696433573,
				"y": 0.8983637724,
				"z": -1.9801221594,
				"element": "C" 
			},
			{
				"x": -0.2764220432,
				"y": -0.2273819548,
				"z": -1.6473996758,
				"element": "C" 
			},
			{
				"x": 2.1945332699,
				"y": -1.290694756,
				"z": 0.167889584,
				"element": "H" 
			},
			{
				"x": 1.2006839185,
				"y": -2.2535089578,
				"z": -0.9310400415,
				"element": "H" 
			},
			{
				"x": 0.7619972454,
				"y": -2.1203301251,
				"z": 0.7754866165,
				"element": "H" 
			},
			{
				"x": 1.3113047565,
				"y": -0.1782725801,
				"z": 2.1638463339,
				"element": "H" 
			},
			{
				"x": 0.8787355325,
				"y": 1.7102858717,
				"z": 3.7239096171,
				"element": "H" 
			},
			{
				"x": -0.5467268172,
				"y": 3.6129255086,
				"z": 2.9619233378,
				"element": "H" 
			},
			{
				"x": -1.8687918735,
				"y": 2.7816694843,
				"z": -1.2916610728,
				"element": "H" 
			},
			{
				"x": -1.521276081,
				"y": 0.9561524625,
				"z": -2.9664022073,
				"element": "H" 
			},
			{
				"x": -0.1363410073,
				"y": -1.0109736333,
				"z": -2.3876309519,
				"element": "H" 
			}
		],
		 "valence_orbital": [ 
			{
				"type": "occ",
				"energy": -0.33251,
				"method": "rhf"
			},
			{
				"type": "occ",
				"energy": -0.2982,
				"method": "rhf"
			},
			{
				"type": "occ",
				"energy": -0.24954,
				"method": "rhf"
			},
			{
				"type": "occ",
				"energy": -0.24779,
				"method": "rhf"
			},
			{
				"type": "occ",
				"energy": -0.22487,
				"method": "rhf"
			},
			{
				"type": "unocc",
				"energy": -0.04978,
				"method": "rhf"
			},
			{
				"type": "unocc",
				"energy": -0.01283,
				"method": "rhf"
			},
			{
				"type": "unocc",
				"energy": 0.02607,
				"method": "rhf"
			},
			{
				"type": "unocc",
				"energy": 0.09165,
				"method": "rhf"
			},
			{
				"type": "unocc",
				"energy": 0.09288,
				"method": "rhf"
			}
		],
		"cosmo_sigma_profile": { 
			"-0.025": 0.0,
			"-0.024": 0.0,
			"-0.023": 0.0,
			"-0.022": 0.0,
			"-0.021": 0.0,
			"-0.02": 0.0,
			"-0.019": 0.0,
			"-0.018": 0.0,
			"-0.017": 0.0,
			"-0.016": 0.0,
			"-0.015": 0.0,
			"-0.014": 0.0,
			"-0.013": 0.0,
			"-0.012": 0.0,
			"-0.011": 0.0,
			"-0.01": 0.0,
			"-0.009": 0.0,
			"-0.008": 0.0,
			"-0.007": 1.67822319633,
			"-0.006": 9.66798671272,
			"-0.005": 17.8959208988,
			"-0.004": 18.7391063407,
			"-0.003": 15.0553429338,
			"-0.002": 12.6856074089,
			"-0.001": 13.6221440908,
			"0.0": 14.8765910222,
			"0.001": 11.4353747436,
			"0.002": 18.7906200924,
			"0.003": 18.387304543,
			"0.004": 13.12252763,
			"0.005": 7.23297732389,
			"0.006": 1.83525517142,
			"0.007": 1.18476805433,
			"0.008": 1.59117688722,
			"0.009": 1.40459233949,
			"0.01": 0.840760474289,
			"0.011": 0.915078075424,
			"0.012": 1.17515569344,
			"0.013": 0.612941022259,
			"0.014": 0.97771639237,
			"0.015": 0.835136785508,
			"0.016": 0.466660467266,
			"0.017": 0.324700992886,
			"0.018": 0.0,
			"0.019": 0.0,
			"0.02": 0.0,
			"0.021": 0.0,
			"0.022": 0.0,
			"0.023": 0.0,
			"0.024": 0.0,
			"0.025": 0.0
		}
	}
}
