{
	 "smiles": "O=C(C1=NOC2C1C(=O)N(C2=O)C1=CC=CC=C1)C1=CC=CC=C1", 
	 "Tm": 434.15, 
	 "num_atms": 36, 
	 "gaussian": { 
		 "optdone": 1, 
		 "sigma_profile": "yes", 
		 "theory": "DFT", 
		 "functional": "B3LYP", 
		 "basiset": "6-31G**", 
		 "properties": { 
			 "R2extent": 9403.6022, 
			 "electric_dipole_moment_norm": 1.10146294536, 
			 "electric_quadrupole_moment_norm": 26.197790825, 
			 "total_energy": -1103.49557603, 
			 "HOMO_LUMO_gap": 0.16301, 
			 "cosmo_polarized_energy": -18.58, 
			 "cosmo_cavitation_energy": 41.75, 
			 "cosmo_dispersion_energy": -29.5, 
			 "cosmo_repulsion_energy": 2.22, 
			 "cosmo_total_nonelectrostatic_energy": 14.46, 
			 "SMD_solvation_energy": 8.47 
		},
		"coords": [
			{
				"x": 0.6781476752,
				"y": -2.5123207333,
				"z": 0.2985952692,
				"element": "O" 
			},
			{
				"x": 0.1510053914,
				"y": -1.6644193908,
				"z": 1.0105019298,
				"element": "C" 
			},
			{
				"x": -0.7549891748,
				"y": -0.6981432002,
				"z": 0.308524145,
				"element": "C" 
			},
			{
				"x": -1.7470962001,
				"y": -0.0901568256,
				"z": 0.8556529799,
				"element": "N" 
			},
			{
				"x": -2.4990234299,
				"y": 0.5746394368,
				"z": -0.0929101258,
				"element": "O" 
			},
			{
				"x": -1.9362212037,
				"y": 0.3387269145,
				"z": -1.4227186417,
				"element": "C" 
			},
			{
				"x": -0.6757005105,
				"y": -0.4814593451,
				"z": -1.1883765276,
				"element": "C" 
			},
			{
				"x": 0.4883469552,
				"y": 0.4475732968,
				"z": -1.5768209602,
				"element": "C" 
			},
			{
				"x": 1.6655333733,
				"y": 0.1929507105,
				"z": -1.5010694686,
				"element": "O" 
			},
			{
				"x": -0.062379299,
				"y": 1.663212696,
				"z": -2.0299658823,
				"element": "N" 
			},
			{
				"x": -1.4667584501,
				"y": 1.6727025575,
				"z": -2.0139783002,
				"element": "C" 
			},
			{
				"x": -2.1813616805,
				"y": 2.5690327192,
				"z": -2.395637173,
				"element": "O" 
			},
			{
				"x": 0.7332373383,
				"y": 2.7705987333,
				"z": -2.476740768,
				"element": "C" 
			},
			{
				"x": 1.8607381173,
				"y": 3.1530394828,
				"z": -1.7432428552,
				"element": "C" 
			},
			{
				"x": 2.6315905019,
				"y": 4.2275728434,
				"z": -2.1843737057,
				"element": "C" 
			},
			{
				"x": 2.2782920816,
				"y": 4.9230574787,
				"z": -3.3418346164,
				"element": "C" 
			},
			{
				"x": 1.1484298364,
				"y": 4.5366397509,
				"z": -4.0643389653,
				"element": "C" 
			},
			{
				"x": 0.3736344865,
				"y": 3.4578391476,
				"z": -3.640303398,
				"element": "C" 
			},
			{
				"x": 0.3828641648,
				"y": -1.6142980293,
				"z": 2.4806010858,
				"element": "C" 
			},
			{
				"x": -0.0645362128,
				"y": -0.5727171748,
				"z": 3.3100640748,
				"element": "C" 
			},
			{
				"x": 0.2210785055,
				"y": -0.5973910513,
				"z": 4.6746757234,
				"element": "C" 
			},
			{
				"x": 0.9524197788,
				"y": -1.6529438177,
				"z": 5.2218474757,
				"element": "C" 
			},
			{
				"x": 1.4046386171,
				"y": -2.6911111411,
				"z": 4.4007548538,
				"element": "C" 
			},
			{
				"x": 1.125228887,
				"y": -2.6703179883,
				"z": 3.0392932993,
				"element": "C" 
			},
			{
				"x": -2.7179578751,
				"y": -0.1057778904,
				"z": -2.0420421473,
				"element": "H" 
			},
			{
				"x": -0.5802192267,
				"y": -1.4258983495,
				"z": -1.727670591,
				"element": "H" 
			},
			{
				"x": 2.1368715691,
				"y": 2.6089713278,
				"z": -0.8488121509,
				"element": "H" 
			},
			{
				"x": 3.5094987305,
				"y": 4.5211479716,
				"z": -1.616993963,
				"element": "H" 
			},
			{
				"x": 2.8801806752,
				"y": 5.7616503455,
				"z": -3.6788380424,
				"element": "H" 
			},
			{
				"x": 0.8660431283,
				"y": 5.0731273371,
				"z": -4.9650607752,
				"element": "H" 
			},
			{
				"x": -0.5069231691,
				"y": 3.1615585668,
				"z": -4.1960877185,
				"element": "H" 
			},
			{
				"x": -0.6387185895,
				"y": 0.2456478536,
				"z": 2.8947406858,
				"element": "H" 
			},
			{
				"x": -0.1276289017,
				"y": 0.2106873678,
				"z": 5.3106398095,
				"element": "H" 
			},
			{
				"x": 1.1718719824,
				"y": -1.6671059961,
				"z": 6.2857228568,
				"element": "H" 
			},
			{
				"x": 1.9751110506,
				"y": -3.5121892166,
				"z": 4.8245916819,
				"element": "H" 
			},
			{
				"x": 1.470551077,
				"y": -3.4607263881,
				"z": 2.3819109055,
				"element": "H" 
			}
		],
		 "valence_orbital": [ 
			{
				"type": "occ",
				"energy": -0.26707,
				"method": "rhf"
			},
			{
				"type": "occ",
				"energy": -0.26341,
				"method": "rhf"
			},
			{
				"type": "occ",
				"energy": -0.26211,
				"method": "rhf"
			},
			{
				"type": "occ",
				"energy": -0.26057,
				"method": "rhf"
			},
			{
				"type": "occ",
				"energy": -0.25104,
				"method": "rhf"
			},
			{
				"type": "unocc",
				"energy": -0.08803,
				"method": "rhf"
			},
			{
				"type": "unocc",
				"energy": -0.04827,
				"method": "rhf"
			},
			{
				"type": "unocc",
				"energy": -0.03695,
				"method": "rhf"
			},
			{
				"type": "unocc",
				"energy": -0.01983,
				"method": "rhf"
			},
			{
				"type": "unocc",
				"energy": -0.01236,
				"method": "rhf"
			}
		],
		"cosmo_sigma_profile": { 
			"-0.025": 0.0,
			"-0.024": 0.0,
			"-0.023": 0.0,
			"-0.022": 0.0,
			"-0.021": 0.0,
			"-0.02": 0.0,
			"-0.019": 0.0,
			"-0.018": 0.0,
			"-0.017": 0.0,
			"-0.016": 0.0,
			"-0.015": 0.0,
			"-0.014": 0.0,
			"-0.013": 0.0539520697843,
			"-0.012": 0.70238553047,
			"-0.011": 2.03385088657,
			"-0.01": 7.713171048,
			"-0.009": 6.95749461249,
			"-0.008": 4.37620601372,
			"-0.007": 8.90688552252,
			"-0.006": 24.1943118025,
			"-0.005": 26.3196989767,
			"-0.004": 26.1411925077,
			"-0.003": 18.2125815618,
			"-0.002": 18.3234401035,
			"-0.001": 16.2664161587,
			"0.0": 18.4087677844,
			"0.001": 18.4266154049,
			"0.002": 22.1384641065,
			"0.003": 27.2384588402,
			"0.004": 24.1460224819,
			"0.005": 12.1969684452,
			"0.006": 6.8869944397,
			"0.007": 10.4517635224,
			"0.008": 9.00955975882,
			"0.009": 9.35312216914,
			"0.01": 12.7993547658,
			"0.011": 5.36625539756,
			"0.012": 0.0481801591511,
			"0.013": 0.0,
			"0.014": 0.0,
			"0.015": 0.0,
			"0.016": 0.0,
			"0.017": 0.0,
			"0.018": 0.0,
			"0.019": 0.0,
			"0.02": 0.0,
			"0.021": 0.0,
			"0.022": 0.0,
			"0.023": 0.0,
			"0.024": 0.0,
			"0.025": 0.0
		}
	}
}
