{
	 "smiles": "CC1=CC=C(F)C=C1N", 
	 "Tm": 312.15, 
	 "num_atms": 17, 
	 "gaussian": { 
		 "optdone": 1, 
		 "sigma_profile": "yes", 
		 "theory": "DFT", 
		 "functional": "B3LYP", 
		 "basiset": "6-31G**", 
		 "properties": { 
			 "R2extent": 1338.8683, 
			 "electric_dipole_moment_norm": 2.7765323751, 
			 "electric_quadrupole_moment_norm": 9.45545623014, 
			 "total_energy": -426.161962549, 
			 "HOMO_LUMO_gap": 0.2107, 
			 "cosmo_polarized_energy": -7.81, 
			 "cosmo_cavitation_energy": 20.71, 
			 "cosmo_dispersion_energy": -15.38, 
			 "cosmo_repulsion_energy": 1.23, 
			 "cosmo_total_nonelectrostatic_energy": 6.56, 
			 "SMD_solvation_energy": 4.04 
		},
		"coords": [
			{
				"x": -1.6524857778,
				"y": 2.0299181555,
				"z": -0.9943344648,
				"element": "C" 
			},
			{
				"x": -0.7610017347,
				"y": 1.04979511,
				"z": -0.2730539211,
				"element": "C" 
			},
			{
				"x": 0.0741909724,
				"y": 0.1763387061,
				"z": -0.9726174786,
				"element": "C" 
			},
			{
				"x": 0.8976542713,
				"y": -0.750806599,
				"z": -0.330122347,
				"element": "C" 
			},
			{
				"x": 0.8634408692,
				"y": -0.7827473826,
				"z": 1.0568731516,
				"element": "C" 
			},
			{
				"x": 1.6473548717,
				"y": -1.6662591892,
				"z": 1.7161024235,
				"element": "F" 
			},
			{
				"x": 0.0570192056,
				"y": 0.0647201535,
				"z": 1.8025974926,
				"element": "C" 
			},
			{
				"x": -0.7652268471,
				"y": 0.9903641272,
				"z": 1.1418901645,
				"element": "C" 
			},
			{
				"x": -1.6265905179,
				"y": 1.80740219,
				"z": 1.8762536859,
				"element": "N" 
			},
			{
				"x": -2.7074890504,
				"y": 1.8898078496,
				"z": -0.7268774839,
				"element": "H" 
			},
			{
				"x": -1.5645405244,
				"y": 1.9151316476,
				"z": -2.0776247036,
				"element": "H" 
			},
			{
				"x": -1.3978435205,
				"y": 3.074123301,
				"z": -0.7605597785,
				"element": "H" 
			},
			{
				"x": 0.0792968119,
				"y": 0.2216086119,
				"z": -2.0588304951,
				"element": "H" 
			},
			{
				"x": 1.5425577555,
				"y": -1.4280879604,
				"z": -0.8774836911,
				"element": "H" 
			},
			{
				"x": 0.0703058708,
				"y": -0.0028441722,
				"z": 2.8859717435,
				"element": "H" 
			},
			{
				"x": -1.8636684256,
				"y": 2.6903531131,
				"z": 1.4464285421,
				"element": "H" 
			},
			{
				"x": -1.3854742299,
				"y": 1.9154823379,
				"z": 2.8516871599,
				"element": "H" 
			}
		],
		 "valence_orbital": [ 
			{
				"type": "occ",
				"energy": -0.35604,
				"method": "rhf"
			},
			{
				"type": "occ",
				"energy": -0.34027,
				"method": "rhf"
			},
			{
				"type": "occ",
				"energy": -0.30326,
				"method": "rhf"
			},
			{
				"type": "occ",
				"energy": -0.23408,
				"method": "rhf"
			},
			{
				"type": "occ",
				"energy": -0.20265,
				"method": "rhf"
			},
			{
				"type": "unocc",
				"energy": 0.00805,
				"method": "rhf"
			},
			{
				"type": "unocc",
				"energy": 0.02049,
				"method": "rhf"
			},
			{
				"type": "unocc",
				"energy": 0.07369,
				"method": "rhf"
			},
			{
				"type": "unocc",
				"energy": 0.09897,
				"method": "rhf"
			},
			{
				"type": "unocc",
				"energy": 0.11157,
				"method": "rhf"
			}
		],
		"cosmo_sigma_profile": { 
			"-0.025": 0.0,
			"-0.024": 0.0,
			"-0.023": 0.0,
			"-0.022": 0.0,
			"-0.021": 0.0,
			"-0.02": 0.0,
			"-0.019": 0.0,
			"-0.018": 0.0,
			"-0.017": 0.0,
			"-0.016": 0.0,
			"-0.015": 0.0,
			"-0.014": 0.0,
			"-0.013": 0.445899068407,
			"-0.012": 1.55056594856,
			"-0.011": 2.66329376349,
			"-0.01": 2.88824301906,
			"-0.009": 2.98383796249,
			"-0.008": 3.28238506268,
			"-0.007": 3.83004298184,
			"-0.006": 4.38796209096,
			"-0.005": 8.15155012945,
			"-0.004": 11.5754761775,
			"-0.003": 10.6748873377,
			"-0.002": 8.7772171397,
			"-0.001": 11.020467919,
			"0.0": 11.1470039781,
			"0.001": 9.1137580103,
			"0.002": 11.2053298585,
			"0.003": 11.8406371915,
			"0.004": 14.2125165623,
			"0.005": 19.7361683007,
			"0.006": 8.19813205137,
			"0.007": 1.5375664371,
			"0.008": 1.20218995772,
			"0.009": 0.665403533907,
			"0.01": 0.430103322507,
			"0.011": 0.749512015841,
			"0.012": 0.585659078596,
			"0.013": 0.713378430093,
			"0.014": 0.428667648466,
			"0.015": 0.0468398301734,
			"0.016": 0.0,
			"0.017": 0.0,
			"0.018": 0.0,
			"0.019": 0.0,
			"0.02": 0.0,
			"0.021": 0.0,
			"0.022": 0.0,
			"0.023": 0.0,
			"0.024": 0.0,
			"0.025": 0.0
		}
	}
}
