{
	 "smiles": "NC1CCCC2=C1SC(=N2)C1=CC=C(F)C=C1", 
	 "Tm": 328.15, 
	 "num_atms": 30, 
	 "gaussian": { 
		 "optdone": 1, 
		 "sigma_profile": "yes", 
		 "theory": "DFT", 
		 "functional": "B3LYP", 
		 "basiset": "6-31G**", 
		 "properties": { 
			 "R2extent": 6453.2758, 
			 "electric_dipole_moment_norm": 2.50369163836, 
			 "electric_quadrupole_moment_norm": 6.61675046454, 
			 "total_energy": -1110.7532021, 
			 "HOMO_LUMO_gap": 0.16265, 
			 "cosmo_polarized_energy": -9.69, 
			 "cosmo_cavitation_energy": 34.37, 
			 "cosmo_dispersion_energy": -25.81, 
			 "cosmo_repulsion_energy": 1.93, 
			 "cosmo_total_nonelectrostatic_energy": 10.49, 
			 "SMD_solvation_energy": 3.01 
		},
		"coords": [
			{
				"x": 1.4446683257,
				"y": 3.2411257552,
				"z": -1.4408945486,
				"element": "N" 
			},
			{
				"x": 2.125615765,
				"y": 1.9517597546,
				"z": -1.6766078605,
				"element": "C" 
			},
			{
				"x": 2.5452123222,
				"y": 1.8609560645,
				"z": -3.1607141706,
				"element": "C" 
			},
			{
				"x": 1.3377937989,
				"y": 1.6188603638,
				"z": -4.0776395979,
				"element": "C" 
			},
			{
				"x": 0.6716643813,
				"y": 0.2642214134,
				"z": -3.7822384261,
				"element": "C" 
			},
			{
				"x": 0.5294447669,
				"y": 0.0476169693,
				"z": -2.3002347691,
				"element": "C" 
			},
			{
				"x": 1.1948978306,
				"y": 0.8071310029,
				"z": -1.3742902443,
				"element": "C" 
			},
			{
				"x": 0.7947737198,
				"y": 0.2496113385,
				"z": 0.230764778,
				"element": "S" 
			},
			{
				"x": -0.2514685316,
				"y": -0.9835112699,
				"z": -0.4906994763,
				"element": "C" 
			},
			{
				"x": -0.269432527,
				"y": -0.9515939065,
				"z": -1.7967707516,
				"element": "N" 
			},
			{
				"x": -1.0156820456,
				"y": -1.9425560392,
				"z": 0.316545584,
				"element": "C" 
			},
			{
				"x": -0.9734598991,
				"y": -1.9467277205,
				"z": 1.7205325855,
				"element": "C" 
			},
			{
				"x": -1.7099509692,
				"y": -2.8710368715,
				"z": 2.4566957768,
				"element": "C" 
			},
			{
				"x": -2.4936666717,
				"y": -3.7960743822,
				"z": 1.7757048993,
				"element": "C" 
			},
			{
				"x": -3.2091792923,
				"y": -4.6936095253,
				"z": 2.482746072,
				"element": "F" 
			},
			{
				"x": -2.560347458,
				"y": -3.8213845563,
				"z": 0.3856591409,
				"element": "C" 
			},
			{
				"x": -1.8202675241,
				"y": -2.8935383318,
				"z": -0.3386626195,
				"element": "C" 
			},
			{
				"x": 0.9913179382,
				"y": 3.2387633024,
				"z": -0.5305487949,
				"element": "H" 
			},
			{
				"x": 2.1355292602,
				"y": 3.9888391108,
				"z": -1.4209067184,
				"element": "H" 
			},
			{
				"x": 3.0316688244,
				"y": 1.8391890238,
				"z": -1.0561371319,
				"element": "H" 
			},
			{
				"x": 3.2751471477,
				"y": 1.0487447358,
				"z": -3.2725038373,
				"element": "H" 
			},
			{
				"x": 3.0559662799,
				"y": 2.790776238,
				"z": -3.4378818307,
				"element": "H" 
			},
			{
				"x": 1.6433429354,
				"y": 1.6630945952,
				"z": -5.1285008156,
				"element": "H" 
			},
			{
				"x": 0.616433216,
				"y": 2.4258152333,
				"z": -3.9109096754,
				"element": "H" 
			},
			{
				"x": -0.3149209072,
				"y": 0.1996741745,
				"z": -4.2546328836,
				"element": "H" 
			},
			{
				"x": 1.2663973035,
				"y": -0.5575507806,
				"z": -4.2068234105,
				"element": "H" 
			},
			{
				"x": -0.3612216665,
				"y": -1.2230813966,
				"z": 2.250879445,
				"element": "H" 
			},
			{
				"x": -1.6848217868,
				"y": -2.8833817926,
				"z": 3.5407365097,
				"element": "H" 
			},
			{
				"x": -3.1841411147,
				"y": -4.559222251,
				"z": -0.1072204107,
				"element": "H" 
			},
			{
				"x": -1.8505134219,
				"y": -2.8869102518,
				"z": -1.4222468178,
				"element": "H" 
			}
		],
		 "valence_orbital": [ 
			{
				"type": "occ",
				"energy": -0.26945,
				"method": "rhf"
			},
			{
				"type": "occ",
				"energy": -0.2673,
				"method": "rhf"
			},
			{
				"type": "occ",
				"energy": -0.26277,
				"method": "rhf"
			},
			{
				"type": "occ",
				"energy": -0.23971,
				"method": "rhf"
			},
			{
				"type": "occ",
				"energy": -0.21272,
				"method": "rhf"
			},
			{
				"type": "unocc",
				"energy": -0.05007,
				"method": "rhf"
			},
			{
				"type": "unocc",
				"energy": -0.01402,
				"method": "rhf"
			},
			{
				"type": "unocc",
				"energy": 0.01537,
				"method": "rhf"
			},
			{
				"type": "unocc",
				"energy": 0.02507,
				"method": "rhf"
			},
			{
				"type": "unocc",
				"energy": 0.06207,
				"method": "rhf"
			}
		],
		"cosmo_sigma_profile": { 
			"-0.025": 0.0,
			"-0.024": 0.0,
			"-0.023": 0.0,
			"-0.022": 0.0,
			"-0.021": 0.0,
			"-0.02": 0.0,
			"-0.019": 0.0,
			"-0.018": 0.0,
			"-0.017": 0.0,
			"-0.016": 0.0,
			"-0.015": 0.0,
			"-0.014": 0.0,
			"-0.013": 0.0,
			"-0.012": 0.0,
			"-0.011": 0.0,
			"-0.01": 0.913123142306,
			"-0.009": 2.70734781441,
			"-0.008": 3.58687358142,
			"-0.007": 9.24366036558,
			"-0.006": 9.58787918836,
			"-0.005": 11.5715152642,
			"-0.004": 15.8580420037,
			"-0.003": 23.0941761085,
			"-0.002": 22.7609305782,
			"-0.001": 25.4708883052,
			"0.0": 27.3381415921,
			"0.001": 26.0325831684,
			"0.002": 26.7368866255,
			"0.003": 26.5125184115,
			"0.004": 17.9283151699,
			"0.005": 5.95146641375,
			"0.006": 3.18306052336,
			"0.007": 2.2270825339,
			"0.008": 2.81139994848,
			"0.009": 2.0888066506,
			"0.01": 1.71652929585,
			"0.011": 2.75267922525,
			"0.012": 1.32254888163,
			"0.013": 0.970037675385,
			"0.014": 0.653487180403,
			"0.015": 0.534143017471,
			"0.016": 0.548678478819,
			"0.017": 0.387526059814,
			"0.018": 0.0,
			"0.019": 0.0,
			"0.02": 0.0,
			"0.021": 0.0,
			"0.022": 0.0,
			"0.023": 0.0,
			"0.024": 0.0,
			"0.025": 0.0
		}
	}
}
