{
	 "smiles": "NC(=O)C1=C(N)SC2=C1CCC2", 
	 "Tm": 432.15, 
	 "num_atms": 22, 
	 "gaussian": { 
		 "optdone": 1, 
		 "sigma_profile": "yes", 
		 "theory": "DFT", 
		 "functional": "B3LYP", 
		 "basiset": "6-31G**", 
		 "properties": { 
			 "R2extent": 3196.8839, 
			 "electric_dipole_moment_norm": 2.3510637082, 
			 "electric_quadrupole_moment_norm": 8.99637070601, 
			 "total_energy": -893.808342947, 
			 "HOMO_LUMO_gap": 0.17704, 
			 "cosmo_polarized_energy": -12.54, 
			 "cosmo_cavitation_energy": 25.81, 
			 "cosmo_dispersion_energy": -20.34, 
			 "cosmo_repulsion_energy": 1.59, 
			 "cosmo_total_nonelectrostatic_energy": 7.06, 
			 "SMD_solvation_energy": 3.76 
		},
		"coords": [
			{
				"x": -1.0800130483,
				"y": 0.0139827778,
				"z": 0.8973874897,
				"element": "N" 
			},
			{
				"x": -0.5846872293,
				"y": -1.1253516763,
				"z": 0.3065836378,
				"element": "C" 
			},
			{
				"x": -1.1404496532,
				"y": -2.2163039827,
				"z": 0.5140618704,
				"element": "O" 
			},
			{
				"x": 0.6181205975,
				"y": -0.9901763242,
				"z": -0.523930701,
				"element": "C" 
			},
			{
				"x": 1.1462871065,
				"y": -2.1092078317,
				"z": -1.1730906111,
				"element": "C" 
			},
			{
				"x": 0.617604466,
				"y": -3.3632905431,
				"z": -1.1940606251,
				"element": "N" 
			},
			{
				"x": 2.6089739243,
				"y": -1.7229211856,
				"z": -2.0776350823,
				"element": "S" 
			},
			{
				"x": 2.5227892225,
				"y": -0.0559806644,
				"z": -1.5450243297,
				"element": "C" 
			},
			{
				"x": 1.4407768346,
				"y": 0.1736233955,
				"z": -0.7590153042,
				"element": "C" 
			},
			{
				"x": 1.3839863885,
				"y": 1.6344577491,
				"z": -0.3712214546,
				"element": "C" 
			},
			{
				"x": 2.7857589873,
				"y": 2.1658229459,
				"z": -0.8020944356,
				"element": "C" 
			},
			{
				"x": 3.352273836,
				"y": 1.156738203,
				"z": -1.847638717,
				"element": "C" 
			},
			{
				"x": -1.9836831909,
				"y": -0.0920817694,
				"z": 1.3347997934,
				"element": "H" 
			},
			{
				"x": -0.8474904999,
				"y": 0.924243382,
				"z": 0.5344868822,
				"element": "H" 
			},
			{
				"x": -0.1344217845,
				"y": -3.4737074442,
				"z": -0.5128855053,
				"element": "H" 
			},
			{
				"x": 1.2279420029,
				"y": -4.1460746289,
				"z": -1.3715846536,
				"element": "H" 
			},
			{
				"x": 1.209320095,
				"y": 1.7948040191,
				"z": 0.6992691314,
				"element": "H" 
			},
			{
				"x": 0.5787896855,
				"y": 2.1569589641,
				"z": -0.910758431,
				"element": "H" 
			},
			{
				"x": 2.7416705233,
				"y": 3.1865953762,
				"z": -1.1918143729,
				"element": "H" 
			},
			{
				"x": 3.4437839299,
				"y": 2.1785046584,
				"z": 0.0720691714,
				"element": "H" 
			},
			{
				"x": 3.1993931288,
				"y": 1.5087650186,
				"z": -2.8780394064,
				"element": "H" 
			},
			{
				"x": 4.4304746776,
				"y": 1.0036995606,
				"z": -1.7223643466,
				"element": "H" 
			}
		],
		 "valence_orbital": [ 
			{
				"type": "occ",
				"energy": -0.29467,
				"method": "rhf"
			},
			{
				"type": "occ",
				"energy": -0.26362,
				"method": "rhf"
			},
			{
				"type": "occ",
				"energy": -0.24792,
				"method": "rhf"
			},
			{
				"type": "occ",
				"energy": -0.24364,
				"method": "rhf"
			},
			{
				"type": "occ",
				"energy": -0.18513,
				"method": "rhf"
			},
			{
				"type": "unocc",
				"energy": -0.00809,
				"method": "rhf"
			},
			{
				"type": "unocc",
				"energy": 0.01841,
				"method": "rhf"
			},
			{
				"type": "unocc",
				"energy": 0.02514,
				"method": "rhf"
			},
			{
				"type": "unocc",
				"energy": 0.07875,
				"method": "rhf"
			},
			{
				"type": "unocc",
				"energy": 0.08887,
				"method": "rhf"
			}
		],
		"cosmo_sigma_profile": { 
			"-0.025": 0.0,
			"-0.024": 0.0,
			"-0.023": 0.0,
			"-0.022": 0.0,
			"-0.021": 0.0,
			"-0.02": 0.0,
			"-0.019": 0.0,
			"-0.018": 0.0,
			"-0.017": 0.0,
			"-0.016": 0.0,
			"-0.015": 0.0730893874563,
			"-0.014": 1.09787215746,
			"-0.013": 2.16114375063,
			"-0.012": 3.09373110283,
			"-0.011": 3.06198115022,
			"-0.01": 4.09880375498,
			"-0.009": 4.11754984397,
			"-0.008": 4.09535148533,
			"-0.007": 3.86588870173,
			"-0.006": 3.44214983498,
			"-0.005": 4.59082291554,
			"-0.004": 8.58416515227,
			"-0.003": 18.4873441226,
			"-0.002": 21.131937906,
			"-0.001": 18.5727887003,
			"0.0": 16.9597759473,
			"0.001": 11.0280410262,
			"0.002": 10.2228127727,
			"0.003": 12.9113922253,
			"0.004": 14.7248387637,
			"0.005": 13.720316407,
			"0.006": 5.51962039643,
			"0.007": 3.16557526596,
			"0.008": 3.26200567303,
			"0.009": 1.97360814847,
			"0.01": 2.66673116649,
			"0.011": 1.79096258518,
			"0.012": 1.46221292199,
			"0.013": 2.5324769072,
			"0.014": 2.08867733652,
			"0.015": 1.3101957691,
			"0.016": 0.00856580825964,
			"0.017": 0.0,
			"0.018": 0.0,
			"0.019": 0.0,
			"0.02": 0.0,
			"0.021": 0.0,
			"0.022": 0.0,
			"0.023": 0.0,
			"0.024": 0.0,
			"0.025": 0.0
		}
	}
}
