{
	 "smiles": "CCCCCCCCCCCCCCCCCC(=O)NC1=CC=C(O)C=C1", 
	 "Tm": 407.15, 
	 "num_atms": 68, 
	 "gaussian": { 
		 "optdone": 1, 
		 "sigma_profile": "yes", 
		 "theory": "DFT", 
		 "functional": "B3LYP", 
		 "basiset": "6-31G**", 
		 "properties": { 
			 "R2extent": 19913.3359, 
			 "electric_dipole_moment_norm": 3.86891763029, 
			 "electric_quadrupole_moment_norm": 19.3585274817, 
			 "total_energy": -1144.52094765, 
			 "HOMO_LUMO_gap": 0.19994, 
			 "cosmo_polarized_energy": -15.96, 
			 "cosmo_cavitation_energy": 66.85, 
			 "cosmo_dispersion_energy": -42.83, 
			 "cosmo_repulsion_energy": 3.45, 
			 "cosmo_total_nonelectrostatic_energy": 27.47, 
			 "SMD_solvation_energy": 9.82 
		},
		"coords": [
			{
				"x": -3.7499017034,
				"y": -3.5446467643,
				"z": -2.7097811006,
				"element": "C" 
			},
			{
				"x": -3.574307384,
				"y": -4.7866252107,
				"z": -3.5915203702,
				"element": "C" 
			},
			{
				"x": -2.4118296217,
				"y": -5.7039009407,
				"z": -3.1712308204,
				"element": "C" 
			},
			{
				"x": -1.0032709928,
				"y": -5.0882188605,
				"z": -3.2519808223,
				"element": "C" 
			},
			{
				"x": -0.5523481443,
				"y": -4.7320666227,
				"z": -4.6784999978,
				"element": "C" 
			},
			{
				"x": 0.90982426,
				"y": -4.2514649888,
				"z": -4.8125976597,
				"element": "C" 
			},
			{
				"x": 1.1463966362,
				"y": -2.7343231269,
				"z": -4.6745346431,
				"element": "C" 
			},
			{
				"x": 0.8637299021,
				"y": -2.0880480647,
				"z": -3.3073440733,
				"element": "C" 
			},
			{
				"x": 1.7469018675,
				"y": -2.595212897,
				"z": -2.1593930592,
				"element": "C" 
			},
			{
				"x": 1.490574812,
				"y": -1.8696188153,
				"z": -0.8314919095,
				"element": "C" 
			},
			{
				"x": 2.3792910686,
				"y": -2.3708165925,
				"z": 0.315325688,
				"element": "C" 
			},
			{
				"x": 2.0809868051,
				"y": -1.7340511389,
				"z": 1.6846421279,
				"element": "C" 
			},
			{
				"x": 2.3236194835,
				"y": -0.2168470539,
				"z": 1.7982327568,
				"element": "C" 
			},
			{
				"x": 3.795820051,
				"y": 0.19814931,
				"z": 1.6594820148,
				"element": "C" 
			},
			{
				"x": 4.0779854562,
				"y": 1.7116661213,
				"z": 1.6855845522,
				"element": "C" 
			},
			{
				"x": 3.7308153816,
				"y": 2.4476464007,
				"z": 2.998278882,
				"element": "C" 
			},
			{
				"x": 2.3098247995,
				"y": 3.0270610591,
				"z": 3.0732412823,
				"element": "C" 
			},
			{
				"x": 2.1337453085,
				"y": 4.2177486607,
				"z": 2.1342772814,
				"element": "C" 
			},
			{
				"x": 3.078986312,
				"y": 4.8855184439,
				"z": 1.7333025523,
				"element": "O" 
			},
			{
				"x": 0.8518144799,
				"y": 4.5437957225,
				"z": 1.7313792731,
				"element": "N" 
			},
			{
				"x": -0.3896175253,
				"y": 3.9114483071,
				"z": 2.0109066755,
				"element": "C" 
			},
			{
				"x": -0.836608481,
				"y": 3.7076009668,
				"z": 3.3246993222,
				"element": "C" 
			},
			{
				"x": -2.0649579975,
				"y": 3.1043469449,
				"z": 3.5743066589,
				"element": "C" 
			},
			{
				"x": -2.8893531698,
				"y": 2.7256615699,
				"z": 2.5088723427,
				"element": "C" 
			},
			{
				"x": -4.0900348413,
				"y": 2.1510945954,
				"z": 2.8143866371,
				"element": "O" 
			},
			{
				"x": -2.4663097705,
				"y": 2.9504879685,
				"z": 1.1945716044,
				"element": "C" 
			},
			{
				"x": -1.2215509994,
				"y": 3.528368408,
				"z": 0.9518193005,
				"element": "C" 
			},
			{
				"x": -4.6278684794,
				"y": -2.9654926548,
				"z": -3.0150565282,
				"element": "H" 
			},
			{
				"x": -2.8831760916,
				"y": -2.8774211632,
				"z": -2.7652056186,
				"element": "H" 
			},
			{
				"x": -3.88463421,
				"y": -3.823162203,
				"z": -1.6578460991,
				"element": "H" 
			},
			{
				"x": -4.5012065107,
				"y": -5.3739835531,
				"z": -3.5662266791,
				"element": "H" 
			},
			{
				"x": -3.4468931311,
				"y": -4.4773083723,
				"z": -4.6367024433,
				"element": "H" 
			},
			{
				"x": -2.5887894962,
				"y": -6.0413666795,
				"z": -2.1405357345,
				"element": "H" 
			},
			{
				"x": -2.4355125072,
				"y": -6.60886194,
				"z": -3.7941804918,
				"element": "H" 
			},
			{
				"x": -0.2894498545,
				"y": -5.811711553,
				"z": -2.8348993433,
				"element": "H" 
			},
			{
				"x": -0.9469810108,
				"y": -4.2081876884,
				"z": -2.6012882162,
				"element": "H" 
			},
			{
				"x": -1.219052072,
				"y": -3.9728826122,
				"z": -5.109632482,
				"element": "H" 
			},
			{
				"x": -0.6838151314,
				"y": -5.6285543676,
				"z": -5.3000789261,
				"element": "H" 
			},
			{
				"x": 1.274959725,
				"y": -4.5378039937,
				"z": -5.8070626423,
				"element": "H" 
			},
			{
				"x": 1.541183363,
				"y": -4.8002092072,
				"z": -4.1009759241,
				"element": "H" 
			},
			{
				"x": 2.1921818955,
				"y": -2.5277560208,
				"z": -4.9422001276,
				"element": "H" 
			},
			{
				"x": 0.5377388896,
				"y": -2.2230585545,
				"z": -5.4332677348,
				"element": "H" 
			},
			{
				"x": 1.0097521554,
				"y": -1.0034928588,
				"z": -3.4079553029,
				"element": "H" 
			},
			{
				"x": -0.1935548439,
				"y": -2.2185045223,
				"z": -3.0409808337,
				"element": "H" 
			},
			{
				"x": 1.591583781,
				"y": -3.6722276702,
				"z": -2.0135777956,
				"element": "H" 
			},
			{
				"x": 2.8037839528,
				"y": -2.4771364416,
				"z": -2.4397352467,
				"element": "H" 
			},
			{
				"x": 0.4343731708,
				"y": -1.9917342956,
				"z": -0.5493346139,
				"element": "H" 
			},
			{
				"x": 1.6407351385,
				"y": -0.7917950468,
				"z": -0.9793809314,
				"element": "H" 
			},
			{
				"x": 2.2531445746,
				"y": -3.4582028202,
				"z": 0.4085733478,
				"element": "H" 
			},
			{
				"x": 3.4337142011,
				"y": -2.2176320703,
				"z": 0.0496743545,
				"element": "H" 
			},
			{
				"x": 2.6858412389,
				"y": -2.2428941128,
				"z": 2.4478902685,
				"element": "H" 
			},
			{
				"x": 1.0334933142,
				"y": -1.9410424092,
				"z": 1.9437080261,
				"element": "H" 
			},
			{
				"x": 1.9456745408,
				"y": 0.1077599948,
				"z": 2.7755760824,
				"element": "H" 
			},
			{
				"x": 1.7201140168,
				"y": 0.3154946602,
				"z": 1.0503994577,
				"element": "H" 
			},
			{
				"x": 4.3758205286,
				"y": -0.2868980495,
				"z": 2.4586164193,
				"element": "H" 
			},
			{
				"x": 4.1958308776,
				"y": -0.1992576919,
				"z": 0.7177155147,
				"element": "H" 
			},
			{
				"x": 5.1482658153,
				"y": 1.8488449125,
				"z": 1.4899134906,
				"element": "H" 
			},
			{
				"x": 3.5660743642,
				"y": 2.2004157727,
				"z": 0.8465555808,
				"element": "H" 
			},
			{
				"x": 3.8812818773,
				"y": 1.7711557081,
				"z": 3.8495514673,
				"element": "H" 
			},
			{
				"x": 4.424018673,
				"y": 3.283218305,
				"z": 3.1296273773,
				"element": "H" 
			},
			{
				"x": 2.1191469819,
				"y": 3.3836876205,
				"z": 4.0945620115,
				"element": "H" 
			},
			{
				"x": 1.5449066205,
				"y": 2.2732743946,
				"z": 2.8693737116,
				"element": "H" 
			},
			{
				"x": 0.8503583088,
				"y": 5.2942429889,
				"z": 1.0509705768,
				"element": "H" 
			},
			{
				"x": -0.221911369,
				"y": 4.036345306,
				"z": 4.1557715237,
				"element": "H" 
			},
			{
				"x": -2.4109859221,
				"y": 2.939343532,
				"z": 4.589152927,
				"element": "H" 
			},
			{
				"x": -4.5603056934,
				"y": 1.9412947563,
				"z": 1.997211208,
				"element": "H" 
			},
			{
				"x": -3.1017034805,
				"y": 2.6627544598,
				"z": 0.3596609003,
				"element": "H" 
			},
			{
				"x": -0.8873641944,
				"y": 3.6805927392,
				"z": -0.0705150269,
				"element": "H" 
			}
		],
		 "valence_orbital": [ 
			{
				"type": "occ",
				"energy": -0.2933,
				"method": "rhf"
			},
			{
				"type": "occ",
				"energy": -0.27198,
				"method": "rhf"
			},
			{
				"type": "occ",
				"energy": -0.26383,
				"method": "rhf"
			},
			{
				"type": "occ",
				"energy": -0.24596,
				"method": "rhf"
			},
			{
				"type": "occ",
				"energy": -0.2155,
				"method": "rhf"
			},
			{
				"type": "unocc",
				"energy": -0.01556,
				"method": "rhf"
			},
			{
				"type": "unocc",
				"energy": -0.00409,
				"method": "rhf"
			},
			{
				"type": "unocc",
				"energy": 0.03723,
				"method": "rhf"
			},
			{
				"type": "unocc",
				"energy": 0.06284,
				"method": "rhf"
			},
			{
				"type": "unocc",
				"energy": 0.0674,
				"method": "rhf"
			}
		],
		"cosmo_sigma_profile": { 
			"-0.025": 0.0,
			"-0.024": 0.0,
			"-0.023": 0.0,
			"-0.022": 0.0,
			"-0.021": 0.0,
			"-0.02": 0.0,
			"-0.019": 0.0,
			"-0.018": 0.200442512434,
			"-0.017": 1.22502271255,
			"-0.016": 1.27783596054,
			"-0.015": 0.881614284841,
			"-0.014": 1.38180084055,
			"-0.013": 2.04121971462,
			"-0.012": 2.02529816163,
			"-0.011": 1.67574954664,
			"-0.01": 1.28288087669,
			"-0.009": 2.7173817564,
			"-0.008": 2.64759397343,
			"-0.007": 5.10618908467,
			"-0.006": 10.1167734767,
			"-0.005": 9.33603279592,
			"-0.004": 11.0308582988,
			"-0.003": 11.584578227,
			"-0.002": 53.0780717432,
			"-0.001": 100.83487591,
			"0.0": 102.013772208,
			"0.001": 86.2672970333,
			"0.002": 41.5474633091,
			"0.003": 12.99608936,
			"0.004": 14.1981124147,
			"0.005": 10.4373830321,
			"0.006": 3.08848398514,
			"0.007": 2.69032256939,
			"0.008": 2.46174295533,
			"0.009": 3.46543540953,
			"0.01": 3.45475346589,
			"0.011": 2.99472158106,
			"0.012": 2.76658077211,
			"0.013": 3.10821871329,
			"0.014": 5.1692624175,
			"0.015": 0.707409205777,
			"0.016": 0.0,
			"0.017": 0.0,
			"0.018": 0.0,
			"0.019": 0.0,
			"0.02": 0.0,
			"0.021": 0.0,
			"0.022": 0.0,
			"0.023": 0.0,
			"0.024": 0.0,
			"0.025": 0.0
		}
	}
}
