{
	 "smiles": "CCOC(=O)C1=CC(Br)=CN=C1", 
	 "Tm": 314.15, 
	 "num_atms": 20, 
	 "gaussian": { 
		 "optdone": 1, 
		 "sigma_profile": "yes", 
		 "theory": "DFT", 
		 "functional": "B3LYP", 
		 "basiset": "6-31G**", 
		 "properties": { 
			 "R2extent": 4596.9998, 
			 "electric_dipole_moment_norm": 3.02445662392, 
			 "electric_quadrupole_moment_norm": 9.04355481434, 
			 "total_energy": -3086.28513264, 
			 "HOMO_LUMO_gap": 0.19532, 
			 "cosmo_polarized_energy": -8.03, 
			 "cosmo_cavitation_energy": 27.38, 
			 "cosmo_dispersion_energy": -20.29, 
			 "cosmo_repulsion_energy": 1.64, 
			 "cosmo_total_nonelectrostatic_energy": 8.73, 
			 "SMD_solvation_energy": 3.35 
		},
		"coords": [
			{
				"x": -3.782491871,
				"y": 1.1878457635,
				"z": -0.0041907749,
				"element": "C" 
			},
			{
				"x": -2.8040060614,
				"y": 0.8306756196,
				"z": 1.0975863166,
				"element": "C" 
			},
			{
				"x": -1.7033482121,
				"y": 0.1134465947,
				"z": 0.4870703675,
				"element": "O" 
			},
			{
				"x": -0.7264960642,
				"y": -0.2878900686,
				"z": 1.3249409024,
				"element": "C" 
			},
			{
				"x": -0.7325608902,
				"y": -0.0805006411,
				"z": 2.5219448285,
				"element": "O" 
			},
			{
				"x": 0.3634523718,
				"y": -1.0165121007,
				"z": 0.6116564607,
				"element": "C" 
			},
			{
				"x": 0.3467936169,
				"y": -1.2423950125,
				"z": -0.7689590479,
				"element": "C" 
			},
			{
				"x": 1.4169652469,
				"y": -1.9329798624,
				"z": -1.324420278,
				"element": "C" 
			},
			{
				"x": 1.4761603012,
				"y": -2.284941222,
				"z": -3.1967830343,
				"element": "Br" 
			},
			{
				"x": 2.4588307973,
				"y": -2.3733427667,
				"z": -0.5036285963,
				"element": "C" 
			},
			{
				"x": 2.4761370245,
				"y": -2.1582835335,
				"z": 0.8158396909,
				"element": "N" 
			},
			{
				"x": 1.4498383999,
				"y": -1.4947857503,
				"z": 1.3559822508,
				"element": "C" 
			},
			{
				"x": -3.3090212648,
				"y": 1.8223955017,
				"z": -0.758835095,
				"element": "H" 
			},
			{
				"x": -4.1632361197,
				"y": 0.2888690514,
				"z": -0.4973316268,
				"element": "H" 
			},
			{
				"x": -4.6316594506,
				"y": 1.733038003,
				"z": 0.4190920036,
				"element": "H" 
			},
			{
				"x": -3.2561840925,
				"y": 0.191323873,
				"z": 1.8619702907,
				"element": "H" 
			},
			{
				"x": -2.4064266912,
				"y": 1.7167974351,
				"z": 1.6018067556,
				"element": "H" 
			},
			{
				"x": -0.4752232117,
				"y": -0.8883983981,
				"z": -1.3783774358,
				"element": "H" 
			},
			{
				"x": 3.300385359,
				"y": -2.9143692903,
				"z": -0.928744172,
				"element": "H" 
			},
			{
				"x": 1.4740908119,
				"y": -1.325593196,
				"z": 2.4287801938,
				"element": "H" 
			}
		],
		 "valence_orbital": [ 
			{
				"type": "occ",
				"energy": -0.3042,
				"method": "rhf"
			},
			{
				"type": "occ",
				"energy": -0.29948,
				"method": "rhf"
			},
			{
				"type": "occ",
				"energy": -0.29048,
				"method": "rhf"
			},
			{
				"type": "occ",
				"energy": -0.26867,
				"method": "rhf"
			},
			{
				"type": "occ",
				"energy": -0.2623,
				"method": "rhf"
			},
			{
				"type": "unocc",
				"energy": -0.06698,
				"method": "rhf"
			},
			{
				"type": "unocc",
				"energy": -0.04041,
				"method": "rhf"
			},
			{
				"type": "unocc",
				"energy": -0.00479,
				"method": "rhf"
			},
			{
				"type": "unocc",
				"energy": 0.03579,
				"method": "rhf"
			},
			{
				"type": "unocc",
				"energy": 0.09167,
				"method": "rhf"
			}
		],
		"cosmo_sigma_profile": { 
			"-0.025": 0.0,
			"-0.024": 0.0,
			"-0.023": 0.0,
			"-0.022": 0.0,
			"-0.021": 0.0,
			"-0.02": 0.0,
			"-0.019": 0.0,
			"-0.018": 0.0,
			"-0.017": 0.0,
			"-0.016": 0.0,
			"-0.015": 0.0,
			"-0.014": 0.0,
			"-0.013": 0.0,
			"-0.012": 0.0,
			"-0.011": 0.0,
			"-0.01": 0.0,
			"-0.009": 0.123689603998,
			"-0.008": 2.29977705363,
			"-0.007": 3.91718306269,
			"-0.006": 5.43739043131,
			"-0.005": 12.4187168935,
			"-0.004": 20.683584843,
			"-0.003": 22.3125879754,
			"-0.002": 24.8162785662,
			"-0.001": 31.8354890981,
			"0.0": 19.3915703863,
			"0.001": 12.8465170115,
			"0.002": 12.9732474275,
			"0.003": 14.1043181084,
			"0.004": 12.3423189163,
			"0.005": 2.99984938886,
			"0.006": 3.24965537853,
			"0.007": 2.98524885709,
			"0.008": 1.78215465941,
			"0.009": 2.60901951883,
			"0.01": 3.02361104415,
			"0.011": 5.27556815491,
			"0.012": 2.52024098557,
			"0.013": 0.929067795945,
			"0.014": 0.713369666198,
			"0.015": 0.571200642754,
			"0.016": 0.0328744879367,
			"0.017": 0.0,
			"0.018": 0.0,
			"0.019": 0.0,
			"0.02": 0.0,
			"0.021": 0.0,
			"0.022": 0.0,
			"0.023": 0.0,
			"0.024": 0.0,
			"0.025": 0.0
		}
	}
}
