{
	 "smiles": "NC(=N)N(C1=CC=CC=C1)C1=CC=CC=C1", 
	 "Tm": 423.15, 
	 "num_atms": 29, 
	 "gaussian": { 
		 "optdone": 1, 
		 "sigma_profile": "yes", 
		 "theory": "DFT", 
		 "functional": "B3LYP", 
		 "basiset": "6-31G**", 
		 "properties": { 
			 "R2extent": 3774.2856, 
			 "electric_dipole_moment_norm": 3.22483862697, 
			 "electric_quadrupole_moment_norm": 12.1198911183, 
			 "total_energy": -667.463708318, 
			 "HOMO_LUMO_gap": 0.1837, 
			 "cosmo_polarized_energy": -15.38, 
			 "cosmo_cavitation_energy": 32.5, 
			 "cosmo_dispersion_energy": -22.84, 
			 "cosmo_repulsion_energy": 1.81, 
			 "cosmo_total_nonelectrostatic_energy": 11.47, 
			 "SMD_solvation_energy": 4.88 
		},
		"coords": [
			{
				"x": 0.6216994923,
				"y": -2.3422803283,
				"z": -1.3755192719,
				"element": "N" 
			},
			{
				"x": -0.5982015481,
				"y": -1.664793498,
				"z": -1.4194904287,
				"element": "C" 
			},
			{
				"x": -1.5963019179,
				"y": -1.9521603096,
				"z": -2.1719357633,
				"element": "N" 
			},
			{
				"x": -0.6650396795,
				"y": -0.5543030715,
				"z": -0.5568236459,
				"element": "N" 
			},
			{
				"x": -1.9286856134,
				"y": 0.0668281125,
				"z": -0.2888526488,
				"element": "C" 
			},
			{
				"x": -3.0279522626,
				"y": -0.6909518216,
				"z": 0.1358996512,
				"element": "C" 
			},
			{
				"x": -4.2348683701,
				"y": -0.0625533757,
				"z": 0.4326606364,
				"element": "C" 
			},
			{
				"x": -4.3596153872,
				"y": 1.3251201007,
				"z": 0.324669432,
				"element": "C" 
			},
			{
				"x": -3.2637210785,
				"y": 2.0800414381,
				"z": -0.0933836791,
				"element": "C" 
			},
			{
				"x": -2.0554872631,
				"y": 1.4559582919,
				"z": -0.4053183097,
				"element": "C" 
			},
			{
				"x": 0.5099939723,
				"y": 0.0710308884,
				"z": -0.0361382238,
				"element": "C" 
			},
			{
				"x": 1.5790473485,
				"y": 0.4289023879,
				"z": -0.8718006438,
				"element": "C" 
			},
			{
				"x": 2.7122659734,
				"y": 1.0401100431,
				"z": -0.3347054421,
				"element": "C" 
			},
			{
				"x": 2.7862387598,
				"y": 1.3227606391,
				"z": 1.0305446302,
				"element": "C" 
			},
			{
				"x": 1.7165883922,
				"y": 0.9812900734,
				"z": 1.8618024437,
				"element": "C" 
			},
			{
				"x": 0.5888646572,
				"y": 0.3531708269,
				"z": 1.3365404354,
				"element": "C" 
			},
			{
				"x": 1.1291316321,
				"y": -2.3100942502,
				"z": -0.501402022,
				"element": "H" 
			},
			{
				"x": 0.596102957,
				"y": -3.2611802615,
				"z": -1.792649816,
				"element": "H" 
			},
			{
				"x": -1.4272199635,
				"y": -2.8224079619,
				"z": -2.6762035444,
				"element": "H" 
			},
			{
				"x": -2.9358516979,
				"y": -1.767756914,
				"z": 0.2114522953,
				"element": "H" 
			},
			{
				"x": -5.0813106818,
				"y": -0.6612265343,
				"z": 0.7573860593,
				"element": "H" 
			},
			{
				"x": -5.3015225152,
				"y": 1.8106130794,
				"z": 0.5624968436,
				"element": "H" 
			},
			{
				"x": -3.3471420816,
				"y": 3.1591005286,
				"z": -0.1878395587,
				"element": "H" 
			},
			{
				"x": -1.206083704,
				"y": 2.043512243,
				"z": -0.7380785575,
				"element": "H" 
			},
			{
				"x": 1.5173452599,
				"y": 0.2204589703,
				"z": -1.9340096245,
				"element": "H" 
			},
			{
				"x": 3.534007007,
				"y": 1.3099443198,
				"z": -0.9920521893,
				"element": "H" 
			},
			{
				"x": 3.6666830705,
				"y": 1.8069143121,
				"z": 1.4423489819,
				"element": "H" 
			},
			{
				"x": 1.7626048853,
				"y": 1.1954044397,
				"z": 2.9257989783,
				"element": "H" 
			},
			{
				"x": -0.2422696432,
				"y": 0.0824476319,
				"z": 1.979902982,
				"element": "H" 
			}
		],
		 "valence_orbital": [ 
			{
				"type": "occ",
				"energy": -0.25834,
				"method": "rhf"
			},
			{
				"type": "occ",
				"energy": -0.25167,
				"method": "rhf"
			},
			{
				"type": "occ",
				"energy": -0.23793,
				"method": "rhf"
			},
			{
				"type": "occ",
				"energy": -0.23563,
				"method": "rhf"
			},
			{
				"type": "occ",
				"energy": -0.19562,
				"method": "rhf"
			},
			{
				"type": "unocc",
				"energy": -0.01192,
				"method": "rhf"
			},
			{
				"type": "unocc",
				"energy": -0.00681,
				"method": "rhf"
			},
			{
				"type": "unocc",
				"energy": 0.00773,
				"method": "rhf"
			},
			{
				"type": "unocc",
				"energy": 0.012,
				"method": "rhf"
			},
			{
				"type": "unocc",
				"energy": 0.06679,
				"method": "rhf"
			}
		],
		"cosmo_sigma_profile": { 
			"-0.025": 0.0,
			"-0.024": 0.0,
			"-0.023": 0.0,
			"-0.022": 0.0,
			"-0.021": 0.0,
			"-0.02": 0.0,
			"-0.019": 0.0,
			"-0.018": 0.0,
			"-0.017": 0.0,
			"-0.016": 0.0,
			"-0.015": 0.0,
			"-0.014": 0.608097364438,
			"-0.013": 2.02008355326,
			"-0.012": 2.69293227547,
			"-0.011": 2.83947776212,
			"-0.01": 2.87645571404,
			"-0.009": 2.73519816594,
			"-0.008": 3.25678503225,
			"-0.007": 2.15581938439,
			"-0.006": 10.5004829278,
			"-0.005": 19.7939265882,
			"-0.004": 22.1865191191,
			"-0.003": 22.0471211753,
			"-0.002": 15.8344478531,
			"-0.001": 17.9995151075,
			"0.0": 16.6694874864,
			"0.001": 17.2254478351,
			"0.002": 14.9463292645,
			"0.003": 16.9616363731,
			"0.004": 16.5462890188,
			"0.005": 16.4877240755,
			"0.006": 10.8977059914,
			"0.007": 3.90139332954,
			"0.008": 2.95452044119,
			"0.009": 2.13784645063,
			"0.01": 1.28527304613,
			"0.011": 1.49834434115,
			"0.012": 2.02967505253,
			"0.013": 0.843676051491,
			"0.014": 1.51448111529,
			"0.015": 1.17355101866,
			"0.016": 1.0451920147,
			"0.017": 1.43312301952,
			"0.018": 0.8825300125,
			"0.019": 0.776597701447,
			"0.02": 0.0228709266318,
			"0.021": 0.0,
			"0.022": 0.0,
			"0.023": 0.0,
			"0.024": 0.0,
			"0.025": 0.0
		}
	}
}
