{
	 "smiles": "CC1=CC=C(N)C=C1I", 
	 "Tm": 309.15, 
	 "num_atms": 17, 
	 "gaussian": { 
		 "optdone": 1, 
		 "sigma_profile": "no", 
		 "theory": "DFT", 
		 "functional": "B3LYP", 
		 "basiset": "6-31G**", 
		 "properties": { 
			 "R2extent": 2052.8804, 
			 "electric_dipole_moment_norm": 2.82455077844, 
			 "electric_quadrupole_moment_norm": 15.4033815881, 
			 "total_energy": -337.712647181, 
			 "HOMO_LUMO_gap": 0.17466, 
			 "cosmo_polarized_energy": -85551.43, 
			 "cosmo_cavitation_energy": 23.35, 
			 "cosmo_dispersion_energy": -18.71, 
			 "cosmo_repulsion_energy": 1.49, 
			 "cosmo_total_nonelectrostatic_energy": 6.14, 
			 "SMD_solvation_energy": 3.14 
		},
		"coords": [
			{
				"x": 0.5122309876,
				"y": 1.6045010937,
				"z": -1.8817313321,
				"element": "C" 
			},
			{
				"x": -0.6309195515,
				"y": 1.1771072395,
				"z": -0.9963754732,
				"element": "C" 
			},
			{
				"x": -1.6340551631,
				"y": 0.3268986609,
				"z": -1.488428222,
				"element": "C" 
			},
			{
				"x": -2.7097724675,
				"y": -0.0973908416,
				"z": -0.7169511592,
				"element": "C" 
			},
			{
				"x": -2.8329917868,
				"y": 0.3209460483,
				"z": 0.6170138255,
				"element": "C" 
			},
			{
				"x": -3.8731810863,
				"y": -0.1393997223,
				"z": 1.4256751793,
				"element": "N" 
			},
			{
				"x": -1.8456579881,
				"y": 1.1730778279,
				"z": 1.1388577387,
				"element": "C" 
			},
			{
				"x": -0.7795966753,
				"y": 1.5798089214,
				"z": 0.3393550628,
				"element": "C" 
			},
			{
				"x": 0.6545865638,
				"y": 2.8780976574,
				"z": 1.240378982,
				"element": "I" 
			},
			{
				"x": 0.4104218142,
				"y": 1.1638367711,
				"z": -2.8771344008,
				"element": "H" 
			},
			{
				"x": 0.5513106937,
				"y": 2.6935648842,
				"z": -1.9965958313,
				"element": "H" 
			},
			{
				"x": 1.4799841373,
				"y": 1.293871624,
				"z": -1.4722584329,
				"element": "H" 
			},
			{
				"x": -1.5631115885,
				"y": -0.0106353443,
				"z": -2.5193786401,
				"element": "H" 
			},
			{
				"x": -3.4569629748,
				"y": -0.7601554955,
				"z": -1.1457857718,
				"element": "H" 
			},
			{
				"x": -4.7056577222,
				"y": -0.4273003861,
				"z": 0.9301408079,
				"element": "H" 
			},
			{
				"x": -4.09211039,
				"y": 0.4445465273,
				"z": 2.2210237636,
				"element": "H" 
			},
			{
				"x": -1.9155168025,
				"y": 1.5079245342,
				"z": 2.1684939035,
				"element": "H" 
			}
		],
		 "valence_orbital": [ 
			{
				"type": "occ",
				"energy": -0.3155,
				"method": "rhf"
			},
			{
				"type": "occ",
				"energy": -0.28014,
				"method": "rhf"
			},
			{
				"type": "occ",
				"energy": -0.25972,
				"method": "rhf"
			},
			{
				"type": "occ",
				"energy": -0.23525,
				"method": "rhf"
			},
			{
				"type": "occ",
				"energy": -0.20526,
				"method": "rhf"
			},
			{
				"type": "unocc",
				"energy": -0.0306,
				"method": "rhf"
			},
			{
				"type": "unocc",
				"energy": -0.00897,
				"method": "rhf"
			},
			{
				"type": "unocc",
				"energy": 0.01048,
				"method": "rhf"
			},
			{
				"type": "unocc",
				"energy": 0.04299,
				"method": "rhf"
			},
			{
				"type": "unocc",
				"energy": 0.05399,
				"method": "rhf"
			}
		],
		"cosmo_sigma_profile": { 
			"0.0": 0.0,
			"0.0": 0.0,
			"0.0": 0.0,
			"0.0": 0.0,
			"0.0": 0.0,
			"0.0": 0.0,
			"0.0": 0.0,
			"0.0": 0.0,
			"0.0": 0.0,
			"0.0": 0.0,
			"0.0": 0.0,
			"0.0": 0.0,
			"0.0": 0.0,
			"0.0": 0.0,
			"0.0": 0.0,
			"0.0": 0.0,
			"0.0": 0.0,
			"0.0": 0.0,
			"0.0": 0.0,
			"0.0": 0.0,
			"0.0": 0.0,
			"0.0": 0.0,
			"0.0": 0.0,
			"0.0": 0.0,
			"0.0": 0.0,
			"0.0": 0.0,
			"0.0": 0.0,
			"0.0": 0.0,
			"0.0": 0.0,
			"0.0": 0.0,
			"0.0": 0.0,
			"0.0": 0.0,
			"0.0": 0.0,
			"0.0": 0.0,
			"0.0": 0.0,
			"0.0": 0.0,
			"0.0": 0.0,
			"0.0": 0.0,
			"0.0": 0.0,
			"0.0": 0.0,
			"0.0": 0.0,
			"0.0": 0.0,
			"0.0": 0.0,
			"0.0": 0.0,
			"0.0": 0.0,
			"0.0": 0.0,
			"0.0": 0.0,
			"0.0": 0.0,
			"0.0": 0.0,
			"0.0": 0.0,
			"0.0": 0.0
		}
	}
}
