{
	 "smiles": "ClC1=NC(Br)=NN1", 
	 "Tm": 452.15, 
	 "num_atms": 8, 
	 "gaussian": { 
		 "optdone": 1, 
		 "sigma_profile": "yes", 
		 "theory": "DFT", 
		 "functional": "B3LYP", 
		 "basiset": "6-31G**", 
		 "properties": { 
			 "R2extent": 1986.6639, 
			 "electric_dipole_moment_norm": 3.13518347469, 
			 "electric_quadrupole_moment_norm": 11.8667071166, 
			 "total_energy": -3272.63089675, 
			 "HOMO_LUMO_gap": 0.24332, 
			 "cosmo_polarized_energy": -10.5, 
			 "cosmo_cavitation_energy": 17.29, 
			 "cosmo_dispersion_energy": -13.94, 
			 "cosmo_repulsion_energy": 1.2, 
			 "cosmo_total_nonelectrostatic_energy": 4.56, 
			 "SMD_solvation_energy": -1.32 
		},
		"coords": [
			{
				"x": -3.5503947877,
				"y": 0.9615148684,
				"z": 1.9083365609,
				"element": "Cl" 
			},
			{
				"x": -2.0252010733,
				"y": 0.2943313784,
				"z": 1.4910809441,
				"element": "C" 
			},
			{
				"x": -1.0762045359,
				"y": 0.8854559613,
				"z": 0.7991450373,
				"element": "N" 
			},
			{
				"x": -0.1174125107,
				"y": -0.0801441337,
				"z": 0.7715248552,
				"element": "C" 
			},
			{
				"x": 1.5261996415,
				"y": 0.1716108252,
				"z": -0.0947654521,
				"element": "Br" 
			},
			{
				"x": -0.4027074024,
				"y": -1.2137507331,
				"z": 1.3901496337,
				"element": "N" 
			},
			{
				"x": -1.6549366729,
				"y": -0.9517405351,
				"z": 1.8551742548,
				"element": "N" 
			},
			{
				"x": -2.1642426586,
				"y": -1.6428776313,
				"z": 2.3869541661,
				"element": "H" 
			}
		],
		 "valence_orbital": [ 
			{
				"type": "occ",
				"energy": -0.34983,
				"method": "rhf"
			},
			{
				"type": "occ",
				"energy": -0.31094,
				"method": "rhf"
			},
			{
				"type": "occ",
				"energy": -0.30749,
				"method": "rhf"
			},
			{
				"type": "occ",
				"energy": -0.29985,
				"method": "rhf"
			},
			{
				"type": "occ",
				"energy": -0.26576,
				"method": "rhf"
			},
			{
				"type": "unocc",
				"energy": -0.02244,
				"method": "rhf"
			},
			{
				"type": "unocc",
				"energy": -0.00692,
				"method": "rhf"
			},
			{
				"type": "unocc",
				"energy": 0.02097,
				"method": "rhf"
			},
			{
				"type": "unocc",
				"energy": 0.02366,
				"method": "rhf"
			},
			{
				"type": "unocc",
				"energy": 0.06315,
				"method": "rhf"
			}
		],
		"cosmo_sigma_profile": { 
			"-0.025": 0.0,
			"-0.024": 0.0,
			"-0.023": 0.0,
			"-0.022": 0.0,
			"-0.021": 0.0,
			"-0.02": 0.0156215293517,
			"-0.019": 1.51165759787,
			"-0.018": 1.67282093052,
			"-0.017": 1.29822618777,
			"-0.016": 0.576699576843,
			"-0.015": 1.22500084003,
			"-0.014": 1.68333891192,
			"-0.013": 0.593024813968,
			"-0.012": 0.477599906094,
			"-0.011": 1.15993280854,
			"-0.01": 1.1206473777,
			"-0.009": 0.448356892105,
			"-0.008": 1.09414005116,
			"-0.007": 1.68432287334,
			"-0.006": 2.63658423363,
			"-0.005": 4.82871628114,
			"-0.004": 7.50835076079,
			"-0.003": 8.57413733521,
			"-0.002": 8.55467382198,
			"-0.001": 9.7518804071,
			"0.0": 11.4354065473,
			"0.001": 14.9619066567,
			"0.002": 16.9710873127,
			"0.003": 16.5848675951,
			"0.004": 8.28962280092,
			"0.005": 3.16075758223,
			"0.006": 2.14157953451,
			"0.007": 3.23450657759,
			"0.008": 2.43067657905,
			"0.009": 2.39110848276,
			"0.01": 1.82615571789,
			"0.011": 2.30018464614,
			"0.012": 1.90752081663,
			"0.013": 1.50445141166,
			"0.014": 0.212605653874,
			"0.015": 0.0,
			"0.016": 0.0,
			"0.017": 0.0,
			"0.018": 0.0,
			"0.019": 0.0,
			"0.02": 0.0,
			"0.021": 0.0,
			"0.022": 0.0,
			"0.023": 0.0,
			"0.024": 0.0,
			"0.025": 0.0
		}
	}
}
