{
	 "smiles": "COC(=O)C1=C(CS(=O)(=O)NC(=O)NC2=NC(OC)=CC(OC)=N2)C=CC=C1", 
	 "Tm": 460.15, 
	 "num_atms": 46, 
	 "gaussian": { 
		 "optdone": 1, 
		 "sigma_profile": "yes", 
		 "theory": "DFT", 
		 "functional": "B3LYP", 
		 "basiset": "6-31G**", 
		 "properties": { 
			 "R2extent": 12451.1424, 
			 "electric_dipole_moment_norm": 7.89532396422, 
			 "electric_quadrupole_moment_norm": 16.5151710603, 
			 "total_energy": -1764.27447917, 
			 "HOMO_LUMO_gap": 0.19617, 
			 "cosmo_polarized_energy": -24.89, 
			 "cosmo_cavitation_energy": 52.07, 
			 "cosmo_dispersion_energy": -34.87, 
			 "cosmo_repulsion_energy": 2.61, 
			 "cosmo_total_nonelectrostatic_energy": 19.81, 
			 "SMD_solvation_energy": 11.15 
		},
		"coords": [
			{
				"x": -3.4618992207,
				"y": -2.745328863,
				"z": -3.0309704599,
				"element": "C" 
			},
			{
				"x": -2.2308423655,
				"y": -2.0152270608,
				"z": -2.8822101029,
				"element": "O" 
			},
			{
				"x": -1.1464936999,
				"y": -2.6031782041,
				"z": -3.4322087325,
				"element": "C" 
			},
			{
				"x": -1.2192987516,
				"y": -3.6050373767,
				"z": -4.1143641262,
				"element": "O" 
			},
			{
				"x": 0.1416413554,
				"y": -1.877279746,
				"z": -3.1739467044,
				"element": "C" 
			},
			{
				"x": 0.4052382835,
				"y": -1.001851021,
				"z": -2.094247906,
				"element": "C" 
			},
			{
				"x": -0.5745275426,
				"y": -0.6671102274,
				"z": -1.0012867078,
				"element": "C" 
			},
			{
				"x": -0.7187842358,
				"y": -1.9577936455,
				"z": 0.279610667,
				"element": "S" 
			},
			{
				"x": -0.971391555,
				"y": -3.2464012979,
				"z": -0.3723383622,
				"element": "O" 
			},
			{
				"x": -1.5872984768,
				"y": -1.4636119078,
				"z": 1.3461006042,
				"element": "O" 
			},
			{
				"x": 0.8962250012,
				"y": -2.1011780044,
				"z": 0.8950897343,
				"element": "N" 
			},
			{
				"x": 1.2733400486,
				"y": -2.0972546614,
				"z": 2.248446923,
				"element": "C" 
			},
			{
				"x": 1.9823513347,
				"y": -2.9863888555,
				"z": 2.6881652108,
				"element": "O" 
			},
			{
				"x": 0.8434751641,
				"y": -1.0756441172,
				"z": 3.0848687253,
				"element": "N" 
			},
			{
				"x": 0.5441401326,
				"y": 0.2649625152,
				"z": 2.8864420673,
				"element": "C" 
			},
			{
				"x": 0.2777345221,
				"y": 0.9145388157,
				"z": 4.0357561983,
				"element": "N" 
			},
			{
				"x": 0.017809092,
				"y": 2.2109592855,
				"z": 3.9110108616,
				"element": "C" 
			},
			{
				"x": -0.2616103878,
				"y": 2.9388239274,
				"z": 5.0007173635,
				"element": "O" 
			},
			{
				"x": -0.2798196083,
				"y": 2.260519755,
				"z": 6.2654805407,
				"element": "C" 
			},
			{
				"x": 0.017337482,
				"y": 2.8862123209,
				"z": 2.6786280901,
				"element": "C" 
			},
			{
				"x": 0.3137395238,
				"y": 2.092425837,
				"z": 1.5764066017,
				"element": "C" 
			},
			{
				"x": 0.3635670159,
				"y": 2.5415194666,
				"z": 0.3038072429,
				"element": "O" 
			},
			{
				"x": 0.0853361815,
				"y": 3.9188444797,
				"z": 0.058885741,
				"element": "C" 
			},
			{
				"x": 0.583925705,
				"y": 0.7812120823,
				"z": 1.6659800109,
				"element": "N" 
			},
			{
				"x": 1.680082428,
				"y": -0.4235936769,
				"z": -1.9963982518,
				"element": "C" 
			},
			{
				"x": 2.6726680711,
				"y": -0.6832208049,
				"z": -2.9393231581,
				"element": "C" 
			},
			{
				"x": 2.410558584,
				"y": -1.5513725465,
				"z": -3.9991653054,
				"element": "C" 
			},
			{
				"x": 1.1567222393,
				"y": -2.1451891207,
				"z": -4.1046392506,
				"element": "C" 
			},
			{
				"x": -3.6870718563,
				"y": -2.9070550362,
				"z": -4.0872547816,
				"element": "H" 
			},
			{
				"x": -4.2268949882,
				"y": -2.1263211494,
				"z": -2.5625752989,
				"element": "H" 
			},
			{
				"x": -3.3867334004,
				"y": -3.7099758909,
				"z": -2.524543936,
				"element": "H" 
			},
			{
				"x": -0.2723659903,
				"y": 0.224050855,
				"z": -0.4540280626,
				"element": "H" 
			},
			{
				"x": -1.5988482357,
				"y": -0.5717424244,
				"z": -1.3589438025,
				"element": "H" 
			},
			{
				"x": 1.3210274043,
				"y": -2.9164642004,
				"z": 0.4585346103,
				"element": "H" 
			},
			{
				"x": 1.0017747446,
				"y": -1.3036824952,
				"z": 4.0577100239,
				"element": "H" 
			},
			{
				"x": 0.6990274332,
				"y": 1.8300184423,
				"z": 6.4916858412,
				"element": "H" 
			},
			{
				"x": -0.5363075284,
				"y": 3.027418976,
				"z": 6.9965839774,
				"element": "H" 
			},
			{
				"x": -1.0267131541,
				"y": 1.4628100483,
				"z": 6.2693714457,
				"element": "H" 
			},
			{
				"x": -0.2029141533,
				"y": 3.9421428935,
				"z": 2.6337067261,
				"element": "H" 
			},
			{
				"x": -0.9302470486,
				"y": 4.1816498096,
				"z": 0.3755527304,
				"element": "H" 
			},
			{
				"x": 0.1765306758,
				"y": 4.052367477,
				"z": -1.0190831108,
				"element": "H" 
			},
			{
				"x": 0.8071768481,
				"y": 4.5660908626,
				"z": 0.5695026821,
				"element": "H" 
			},
			{
				"x": 1.883354173,
				"y": 0.2380321321,
				"z": -1.160001207,
				"element": "H" 
			},
			{
				"x": 3.6472653279,
				"y": -0.2140697811,
				"z": -2.8405287213,
				"element": "H" 
			},
			{
				"x": 3.1771424323,
				"y": -1.7676669765,
				"z": -4.7371598626,
				"element": "H" 
			},
			{
				"x": 0.9336709952,
				"y": -2.83636089,
				"z": -4.9097267687,
				"element": "H" 
			}
		],
		 "valence_orbital": [ 
			{
				"type": "occ",
				"energy": -0.27592,
				"method": "rhf"
			},
			{
				"type": "occ",
				"energy": -0.27329,
				"method": "rhf"
			},
			{
				"type": "occ",
				"energy": -0.25817,
				"method": "rhf"
			},
			{
				"type": "occ",
				"energy": -0.25519,
				"method": "rhf"
			},
			{
				"type": "occ",
				"energy": -0.24457,
				"method": "rhf"
			},
			{
				"type": "unocc",
				"energy": -0.0484,
				"method": "rhf"
			},
			{
				"type": "unocc",
				"energy": -0.03011,
				"method": "rhf"
			},
			{
				"type": "unocc",
				"energy": -0.01921,
				"method": "rhf"
			},
			{
				"type": "unocc",
				"energy": -0.01759,
				"method": "rhf"
			},
			{
				"type": "unocc",
				"energy": 0.02244,
				"method": "rhf"
			}
		],
		"cosmo_sigma_profile": { 
			"-0.025": 0.0,
			"-0.024": 0.0,
			"-0.023": 0.0,
			"-0.022": 0.0,
			"-0.021": 0.0,
			"-0.02": 0.0,
			"-0.019": 0.0,
			"-0.018": 0.0,
			"-0.017": 0.0,
			"-0.016": 0.120097220829,
			"-0.015": 0.856718817533,
			"-0.014": 1.14711682234,
			"-0.013": 1.28014551821,
			"-0.012": 1.66813917655,
			"-0.011": 1.54500842177,
			"-0.01": 1.21542233658,
			"-0.009": 0.986399241022,
			"-0.008": 3.4926830918,
			"-0.007": 12.6330682725,
			"-0.006": 27.9899869886,
			"-0.005": 33.9421936576,
			"-0.004": 36.5602843796,
			"-0.003": 33.4920296346,
			"-0.002": 27.1921599953,
			"-0.001": 29.7443434306,
			"0.0": 25.7300118466,
			"0.001": 25.4304971464,
			"0.002": 26.3440440926,
			"0.003": 24.6877376326,
			"0.004": 16.9652091872,
			"0.005": 13.6249526668,
			"0.006": 12.0369943523,
			"0.007": 9.6504905925,
			"0.008": 8.61813286931,
			"0.009": 9.53216935663,
			"0.01": 10.8744924854,
			"0.011": 10.5122348341,
			"0.012": 7.30281861242,
			"0.013": 0.123537555008,
			"0.014": 0.0,
			"0.015": 0.0,
			"0.016": 0.0,
			"0.017": 0.0,
			"0.018": 0.0,
			"0.019": 0.0,
			"0.02": 0.0,
			"0.021": 0.0,
			"0.022": 0.0,
			"0.023": 0.0,
			"0.024": 0.0,
			"0.025": 0.0
		}
	}
}
