{
	 "smiles": "NNC1=NC2=CC=CC=C2S1", 
	 "Tm": 473.15, 
	 "num_atms": 18, 
	 "gaussian": { 
		 "optdone": 1, 
		 "sigma_profile": "yes", 
		 "theory": "DFT", 
		 "functional": "B3LYP", 
		 "basiset": "6-31G**", 
		 "properties": { 
			 "R2extent": 2125.235, 
			 "electric_dipole_moment_norm": 1.62340622458, 
			 "electric_quadrupole_moment_norm": 7.450717599, 
			 "total_energy": -833.379864385, 
			 "HOMO_LUMO_gap": 0.19708, 
			 "cosmo_polarized_energy": -11.05, 
			 "cosmo_cavitation_energy": 23.58, 
			 "cosmo_dispersion_energy": -18.45, 
			 "cosmo_repulsion_energy": 1.43, 
			 "cosmo_total_nonelectrostatic_energy": 6.55, 
			 "SMD_solvation_energy": 2.27 
		},
		"coords": [
			{
				"x": -0.9726675355,
				"y": -2.0576691568,
				"z": 3.4655476518,
				"element": "N" 
			},
			{
				"x": -0.2842401672,
				"y": -2.2646609073,
				"z": 2.2623204668,
				"element": "N" 
			},
			{
				"x": -0.3167484246,
				"y": -1.3725864692,
				"z": 1.2232555666,
				"element": "C" 
			},
			{
				"x": 0.029561794,
				"y": -1.6576043326,
				"z": 0.0082428135,
				"element": "N" 
			},
			{
				"x": -0.0588123919,
				"y": -0.5323693472,
				"z": -0.7975496227,
				"element": "C" 
			},
			{
				"x": 0.2470112224,
				"y": -0.4920842217,
				"z": -2.1646733495,
				"element": "C" 
			},
			{
				"x": 0.1049714693,
				"y": 0.706374647,
				"z": -2.8586921499,
				"element": "C" 
			},
			{
				"x": -0.3392298421,
				"y": 1.8693509742,
				"z": -2.2120164954,
				"element": "C" 
			},
			{
				"x": -0.6503399673,
				"y": 1.852341442,
				"z": -0.8517660173,
				"element": "C" 
			},
			{
				"x": -0.5044489848,
				"y": 0.6521732327,
				"z": -0.1593321316,
				"element": "C" 
			},
			{
				"x": -0.8159768768,
				"y": 0.3162771437,
				"z": 1.5450120492,
				"element": "S" 
			},
			{
				"x": -1.9066789225,
				"y": -1.6847855655,
				"z": 3.2959940575,
				"element": "H" 
			},
			{
				"x": -0.4551319805,
				"y": -1.4013193316,
				"z": 4.0444190488,
				"element": "H" 
			},
			{
				"x": -0.192528251,
				"y": -3.2344437783,
				"z": 1.9891534249,
				"element": "H" 
			},
			{
				"x": 0.5891664153,
				"y": -1.3966219199,
				"z": -2.65664176,
				"element": "H" 
			},
			{
				"x": 0.3419600965,
				"y": 0.741451914,
				"z": -3.918020618,
				"element": "H" 
			},
			{
				"x": -0.4429613629,
				"y": 2.7937256978,
				"z": -2.7719944538,
				"element": "H" 
			},
			{
				"x": -0.9941062903,
				"y": 2.7516499789,
				"z": -0.350358481,
				"element": "H" 
			}
		],
		 "valence_orbital": [ 
			{
				"type": "occ",
				"energy": -0.29014,
				"method": "rhf"
			},
			{
				"type": "occ",
				"energy": -0.28552,
				"method": "rhf"
			},
			{
				"type": "occ",
				"energy": -0.27552,
				"method": "rhf"
			},
			{
				"type": "occ",
				"energy": -0.23133,
				"method": "rhf"
			},
			{
				"type": "occ",
				"energy": -0.20985,
				"method": "rhf"
			},
			{
				"type": "unocc",
				"energy": -0.01277,
				"method": "rhf"
			},
			{
				"type": "unocc",
				"energy": 8e-05,
				"method": "rhf"
			},
			{
				"type": "unocc",
				"energy": 0.00597,
				"method": "rhf"
			},
			{
				"type": "unocc",
				"energy": 0.04527,
				"method": "rhf"
			},
			{
				"type": "unocc",
				"energy": 0.06371,
				"method": "rhf"
			}
		],
		"cosmo_sigma_profile": { 
			"-0.025": 0.0,
			"-0.024": 0.0,
			"-0.023": 0.0,
			"-0.022": 0.0,
			"-0.021": 0.0,
			"-0.02": 0.0,
			"-0.019": 0.0,
			"-0.018": 0.0,
			"-0.017": 0.0,
			"-0.016": 0.0,
			"-0.015": 0.146623381189,
			"-0.014": 1.02396861494,
			"-0.013": 0.784556510666,
			"-0.012": 2.62046568083,
			"-0.011": 4.0775586091,
			"-0.01": 3.44617863425,
			"-0.009": 3.37175801072,
			"-0.008": 3.65596330364,
			"-0.007": 4.9439826312,
			"-0.006": 8.77850258512,
			"-0.005": 10.6248293439,
			"-0.004": 11.5268341886,
			"-0.003": 11.4294431323,
			"-0.002": 8.09013085262,
			"-0.001": 9.7172153631,
			"0.0": 9.65440341813,
			"0.001": 12.873488594,
			"0.002": 13.9837425553,
			"0.003": 14.7207581039,
			"0.004": 16.5429867014,
			"0.005": 14.7384153429,
			"0.006": 8.52918130539,
			"0.007": 2.53797503301,
			"0.008": 1.25863135502,
			"0.009": 1.85992672988,
			"0.01": 1.5809427921,
			"0.011": 2.28039587314,
			"0.012": 1.39217790562,
			"0.013": 1.1196525604,
			"0.014": 1.69568662139,
			"0.015": 1.31553499198,
			"0.016": 0.153193205231,
			"0.017": 0.0,
			"0.018": 0.0,
			"0.019": 0.0,
			"0.02": 0.0,
			"0.021": 0.0,
			"0.022": 0.0,
			"0.023": 0.0,
			"0.024": 0.0,
			"0.025": 0.0
		}
	}
}
