{
	 "smiles": "CC1=C(CCC(O)=O)C(=O)NC(=N1)C1=CN=CC=C1", 
	 "Tm": 553.15, 
	 "num_atms": 32, 
	 "gaussian": { 
		 "optdone": 1, 
		 "sigma_profile": "yes", 
		 "theory": "DFT", 
		 "functional": "B3LYP", 
		 "basiset": "6-31G**", 
		 "properties": { 
			 "R2extent": 7599.2186, 
			 "electric_dipole_moment_norm": 3.06810903001, 
			 "electric_quadrupole_moment_norm": 31.4089833911, 
			 "total_energy": -893.183324856, 
			 "HOMO_LUMO_gap": 0.15713, 
			 "cosmo_polarized_energy": -23.0, 
			 "cosmo_cavitation_energy": 37.19, 
			 "cosmo_dispersion_energy": -26.36, 
			 "cosmo_repulsion_energy": 2.03, 
			 "cosmo_total_nonelectrostatic_energy": 12.85, 
			 "SMD_solvation_energy": 5.47 
		},
		"coords": [
			{
				"x": -0.1934515423,
				"y": 1.3187282514,
				"z": 2.1268897302,
				"element": "C" 
			},
			{
				"x": -0.0179146749,
				"y": 0.8349778395,
				"z": 0.7075917342,
				"element": "C" 
			},
			{
				"x": -0.3090416456,
				"y": 1.6205946675,
				"z": -0.3857463635,
				"element": "C" 
			},
			{
				"x": -0.8299744495,
				"y": 3.0326005411,
				"z": -0.3133566865,
				"element": "C" 
			},
			{
				"x": -2.3469511904,
				"y": 3.1137094434,
				"z": -0.6075615993,
				"element": "C" 
			},
			{
				"x": -2.9139567106,
				"y": 4.5126657535,
				"z": -0.5033612068,
				"element": "C" 
			},
			{
				"x": -2.5501374863,
				"y": 5.1244133577,
				"z": 0.655657901,
				"element": "O" 
			},
			{
				"x": -3.6274582526,
				"y": 5.0523447643,
				"z": -1.3185060286,
				"element": "O" 
			},
			{
				"x": -0.1371815477,
				"y": 1.066668684,
				"z": -1.7185103953,
				"element": "C" 
			},
			{
				"x": -0.3889806826,
				"y": 1.6210604709,
				"z": -2.7843555993,
				"element": "O" 
			},
			{
				"x": 0.3639946653,
				"y": -0.2508933794,
				"z": -1.7155005281,
				"element": "N" 
			},
			{
				"x": 0.6615393273,
				"y": -0.953602128,
				"z": -0.5839231786,
				"element": "C" 
			},
			{
				"x": 0.4783709905,
				"y": -0.4466930972,
				"z": 0.6066171106,
				"element": "N" 
			},
			{
				"x": 1.1999238617,
				"y": -2.3251341041,
				"z": -0.7221603116,
				"element": "C" 
			},
			{
				"x": 1.1159443574,
				"y": -3.2091519807,
				"z": 0.369015503,
				"element": "C" 
			},
			{
				"x": 1.5669942055,
				"y": -4.4642228339,
				"z": 0.346344354,
				"element": "N" 
			},
			{
				"x": 2.1365741975,
				"y": -4.8978678775,
				"z": -0.7868274161,
				"element": "C" 
			},
			{
				"x": 2.2800685663,
				"y": -4.1071420872,
				"z": -1.9272967557,
				"element": "C" 
			},
			{
				"x": 1.8053894103,
				"y": -2.7989450928,
				"z": -1.8934140676,
				"element": "C" 
			},
			{
				"x": 0.5927067479,
				"y": 2.0343702705,
				"z": 2.3962006312,
				"element": "H" 
			},
			{
				"x": -0.123998165,
				"y": 0.46971055,
				"z": 2.8081559124,
				"element": "H" 
			},
			{
				"x": -1.1540163329,
				"y": 1.81985743,
				"z": 2.2749741783,
				"element": "H" 
			},
			{
				"x": -0.6236172677,
				"y": 3.4727080167,
				"z": 0.6635562649,
				"element": "H" 
			},
			{
				"x": -0.3036606177,
				"y": 3.6314452273,
				"z": -1.0646307218,
				"element": "H" 
			},
			{
				"x": -2.892772371,
				"y": 2.4860029645,
				"z": 0.1088186769,
				"element": "H" 
			},
			{
				"x": -2.5582883843,
				"y": 2.7466566909,
				"z": -1.6125499152,
				"element": "H" 
			},
			{
				"x": -2.9674902751,
				"y": 6.0019791642,
				"z": 0.6343121517,
				"element": "H" 
			},
			{
				"x": 0.4438926225,
				"y": -0.6703663065,
				"z": -2.6338046483,
				"element": "H" 
			},
			{
				"x": 0.657005467,
				"y": -2.8624126968,
				"z": 1.2902335398,
				"element": "H" 
			},
			{
				"x": 2.4984645344,
				"y": -5.9242197146,
				"z": -0.7797053203,
				"element": "H" 
			},
			{
				"x": 2.760730587,
				"y": -4.5036496458,
				"z": -2.8156138549,
				"element": "H" 
			},
			{
				"x": 1.9384920555,
				"y": -2.1579931428,
				"z": -2.7609430907,
				"element": "H" 
			}
		],
		 "valence_orbital": [ 
			{
				"type": "occ",
				"energy": -0.28249,
				"method": "rhf"
			},
			{
				"type": "occ",
				"energy": -0.27064,
				"method": "rhf"
			},
			{
				"type": "occ",
				"energy": -0.2693,
				"method": "rhf"
			},
			{
				"type": "occ",
				"energy": -0.26051,
				"method": "rhf"
			},
			{
				"type": "occ",
				"energy": -0.23234,
				"method": "rhf"
			},
			{
				"type": "unocc",
				"energy": -0.07521,
				"method": "rhf"
			},
			{
				"type": "unocc",
				"energy": -0.03976,
				"method": "rhf"
			},
			{
				"type": "unocc",
				"energy": -0.02262,
				"method": "rhf"
			},
			{
				"type": "unocc",
				"energy": 0.01006,
				"method": "rhf"
			},
			{
				"type": "unocc",
				"energy": 0.01601,
				"method": "rhf"
			}
		],
		"cosmo_sigma_profile": { 
			"-0.025": 0.0,
			"-0.024": 0.0,
			"-0.023": 0.0,
			"-0.022": 0.0,
			"-0.021": 0.0,
			"-0.02": 0.0,
			"-0.019": 0.00648263214211,
			"-0.018": 0.618078416807,
			"-0.017": 1.18174365057,
			"-0.016": 1.68032661623,
			"-0.015": 1.90430493461,
			"-0.014": 2.45076049091,
			"-0.013": 1.62482958579,
			"-0.012": 1.28623342187,
			"-0.011": 2.68466051571,
			"-0.01": 2.2275085315,
			"-0.009": 2.21779892759,
			"-0.008": 3.55097312112,
			"-0.007": 7.91276229351,
			"-0.006": 14.4631650546,
			"-0.005": 15.9756215103,
			"-0.004": 19.8867893616,
			"-0.003": 23.8888094399,
			"-0.002": 25.8754513175,
			"-0.001": 26.7981608226,
			"0.0": 24.57336585,
			"0.001": 20.7824799439,
			"0.002": 14.3018744206,
			"0.003": 8.91692189911,
			"0.004": 8.08452658442,
			"0.005": 6.893292708,
			"0.006": 7.70265299564,
			"0.007": 5.72368731979,
			"0.008": 5.97656483191,
			"0.009": 5.4980979894,
			"0.01": 5.41754895365,
			"0.011": 6.88217050048,
			"0.012": 7.24658390601,
			"0.013": 6.52797125842,
			"0.014": 3.89269875453,
			"0.015": 0.899901622136,
			"0.016": 0.646557923312,
			"0.017": 0.0,
			"0.018": 0.0,
			"0.019": 0.0,
			"0.02": 0.0,
			"0.021": 0.0,
			"0.022": 0.0,
			"0.023": 0.0,
			"0.024": 0.0,
			"0.025": 0.0
		}
	}
}
