{
	 "smiles": "CC(C)(C)OC(=O)NC1CC1", 
	 "Tm": 336.15, 
	 "num_atms": 26, 
	 "gaussian": { 
		 "optdone": 1, 
		 "sigma_profile": "yes", 
		 "theory": "DFT", 
		 "functional": "B3LYP", 
		 "basiset": "6-31G**", 
		 "properties": { 
			 "R2extent": 2909.165, 
			 "electric_dipole_moment_norm": 2.33432340733, 
			 "electric_quadrupole_moment_norm": 10.7289329059, 
			 "total_energy": -519.095745274, 
			 "HOMO_LUMO_gap": 0.30051, 
			 "cosmo_polarized_energy": -8.73, 
			 "cosmo_cavitation_energy": 28.15, 
			 "cosmo_dispersion_energy": -19.43, 
			 "cosmo_repulsion_energy": 1.59, 
			 "cosmo_total_nonelectrostatic_energy": 10.31, 
			 "SMD_solvation_energy": 5.28 
		},
		"coords": [
			{
				"x": -1.1447749308,
				"y": -0.4896752912,
				"z": 1.1871031555,
				"element": "C" 
			},
			{
				"x": 0.0747745524,
				"y": 0.403084016,
				"z": 0.9330759442,
				"element": "C" 
			},
			{
				"x": 1.2867798375,
				"y": -0.4372861334,
				"z": 0.5220751163,
				"element": "C" 
			},
			{
				"x": 0.4095404876,
				"y": 1.2848830459,
				"z": 2.1411743387,
				"element": "C" 
			},
			{
				"x": -0.1507089667,
				"y": 1.239676357,
				"z": -0.2550534549,
				"element": "O" 
			},
			{
				"x": -1.164813524,
				"y": 2.1327844029,
				"z": -0.2884757388,
				"element": "C" 
			},
			{
				"x": -1.9602033916,
				"y": 2.3631378286,
				"z": 0.6088505342,
				"element": "O" 
			},
			{
				"x": -1.2126090968,
				"y": 2.7707573774,
				"z": -1.5055202341,
				"element": "N" 
			},
			{
				"x": -0.2074362313,
				"y": 2.7056190967,
				"z": -2.5268756582,
				"element": "C" 
			},
			{
				"x": -0.6717742657,
				"y": 2.8200225376,
				"z": -3.9571450616,
				"element": "C" 
			},
			{
				"x": -0.1621128674,
				"y": 1.5019749185,
				"z": -3.4313503175,
				"element": "C" 
			},
			{
				"x": -0.9257849629,
				"y": -1.1885234855,
				"z": 2.0010920286,
				"element": "H" 
			},
			{
				"x": -2.0151496052,
				"y": 0.1080238807,
				"z": 1.4584344013,
				"element": "H" 
			},
			{
				"x": -1.3799103904,
				"y": -1.0743745732,
				"z": 0.291936426,
				"element": "H" 
			},
			{
				"x": 2.1430215024,
				"y": 0.2050322072,
				"z": 0.296351775,
				"element": "H" 
			},
			{
				"x": 1.5665368993,
				"y": -1.1161349459,
				"z": 1.3332479024,
				"element": "H" 
			},
			{
				"x": 1.0598095097,
				"y": -1.0331282223,
				"z": -0.3667573215,
				"element": "H" 
			},
			{
				"x": 1.2592717811,
				"y": 1.9359230681,
				"z": 1.911695171,
				"element": "H" 
			},
			{
				"x": -0.4442770875,
				"y": 1.9021893708,
				"z": 2.4208563798,
				"element": "H" 
			},
			{
				"x": 0.6859618049,
				"y": 0.6536385853,
				"z": 2.9920888318,
				"element": "H" 
			},
			{
				"x": -1.8568224683,
				"y": 3.5488187002,
				"z": -1.5112373321,
				"element": "H" 
			},
			{
				"x": 0.7484225084,
				"y": 3.1666544536,
				"z": -2.279143327,
				"element": "H" 
			},
			{
				"x": -0.0541426393,
				"y": 3.3856289392,
				"z": -4.6476279367,
				"element": "H" 
			},
			{
				"x": -1.7403486193,
				"y": 2.9129157021,
				"z": -4.1267737981,
				"element": "H" 
			},
			{
				"x": 0.8121907655,
				"y": 1.1504969686,
				"z": -3.7556052119,
				"element": "H" 
			},
			{
				"x": -0.8889406018,
				"y": 0.7203611953,
				"z": -3.2394166123,
				"element": "H" 
			}
		],
		 "valence_orbital": [ 
			{
				"type": "occ",
				"energy": -0.31366,
				"method": "rhf"
			},
			{
				"type": "occ",
				"energy": -0.30409,
				"method": "rhf"
			},
			{
				"type": "occ",
				"energy": -0.28351,
				"method": "rhf"
			},
			{
				"type": "occ",
				"energy": -0.25508,
				"method": "rhf"
			},
			{
				"type": "occ",
				"energy": -0.24504,
				"method": "rhf"
			},
			{
				"type": "unocc",
				"energy": 0.05547,
				"method": "rhf"
			},
			{
				"type": "unocc",
				"energy": 0.08744,
				"method": "rhf"
			},
			{
				"type": "unocc",
				"energy": 0.09432,
				"method": "rhf"
			},
			{
				"type": "unocc",
				"energy": 0.10245,
				"method": "rhf"
			},
			{
				"type": "unocc",
				"energy": 0.11339,
				"method": "rhf"
			}
		],
		"cosmo_sigma_profile": { 
			"-0.025": 0.0,
			"-0.024": 0.0,
			"-0.023": 0.0,
			"-0.022": 0.0,
			"-0.021": 0.0,
			"-0.02": 0.0,
			"-0.019": 0.0,
			"-0.018": 0.0,
			"-0.017": 0.0,
			"-0.016": 0.0,
			"-0.015": 0.0,
			"-0.014": 0.103300360868,
			"-0.013": 0.738738876717,
			"-0.012": 0.964049395845,
			"-0.011": 0.872827856898,
			"-0.01": 1.09558808185,
			"-0.009": 0.332682185666,
			"-0.008": 0.997402762457,
			"-0.007": 1.07704634937,
			"-0.006": 1.16597213882,
			"-0.005": 8.52677222513,
			"-0.004": 21.7011337107,
			"-0.003": 23.7374999244,
			"-0.002": 22.1499204412,
			"-0.001": 26.1122950766,
			"0.0": 30.1873446264,
			"0.001": 26.5151601166,
			"0.002": 11.0275265536,
			"0.003": 7.59059486534,
			"0.004": 6.42598589727,
			"0.005": 5.33309165309,
			"0.006": 3.34559041123,
			"0.007": 3.06732849038,
			"0.008": 2.60666148378,
			"0.009": 2.64508113102,
			"0.01": 1.2897858229,
			"0.011": 1.59161041547,
			"0.012": 1.82425836611,
			"0.013": 2.845832606,
			"0.014": 2.96862191465,
			"0.015": 0.16401471755,
			"0.016": 0.0,
			"0.017": 0.0,
			"0.018": 0.0,
			"0.019": 0.0,
			"0.02": 0.0,
			"0.021": 0.0,
			"0.022": 0.0,
			"0.023": 0.0,
			"0.024": 0.0,
			"0.025": 0.0
		}
	}
}
