{
	 "smiles": "COC1(C)CC(C2=CC=CC=C2)C2=C(O1)C1=CC=CC=C1OC2=O", 
	 "Tm": 439.15, 
	 "num_atms": 42, 
	 "gaussian": { 
		 "optdone": 1, 
		 "sigma_profile": "yes", 
		 "theory": "DFT", 
		 "functional": "B3LYP", 
		 "basiset": "6-31G**", 
		 "properties": { 
			 "R2extent": 8250.8959, 
			 "electric_dipole_moment_norm": 5.41088941765, 
			 "electric_quadrupole_moment_norm": 15.832053634, 
			 "total_energy": -1073.88505242, 
			 "HOMO_LUMO_gap": 0.17184, 
			 "cosmo_polarized_energy": -16.09, 
			 "cosmo_cavitation_energy": 44.25, 
			 "cosmo_dispersion_energy": -30.33, 
			 "cosmo_repulsion_energy": 2.29, 
			 "cosmo_total_nonelectrostatic_energy": 16.21, 
			 "SMD_solvation_energy": 8.73 
		},
		"coords": [
			{
				"x": 3.080728197,
				"y": 1.6374568419,
				"z": 0.8807268215,
				"element": "C" 
			},
			{
				"x": 1.9641753551,
				"y": 1.6643055627,
				"z": -0.0038926467,
				"element": "O" 
			},
			{
				"x": 1.5547862707,
				"y": 0.4461143817,
				"z": -0.5682683164,
				"element": "C" 
			},
			{
				"x": 2.6582373239,
				"y": -0.2859099536,
				"z": -1.3245216556,
				"element": "C" 
			},
			{
				"x": 0.3392368325,
				"y": 0.7645442111,
				"z": -1.4327583971,
				"element": "C" 
			},
			{
				"x": -0.8087997842,
				"y": 1.3984422722,
				"z": -0.6158631009,
				"element": "C" 
			},
			{
				"x": -2.0785955884,
				"y": 1.4130020192,
				"z": -1.4622926876,
				"element": "C" 
			},
			{
				"x": -2.792563011,
				"y": 0.2352034123,
				"z": -1.7194876096,
				"element": "C" 
			},
			{
				"x": -3.9124264098,
				"y": 0.246483934,
				"z": -2.5505996788,
				"element": "C" 
			},
			{
				"x": -4.3328802885,
				"y": 1.4378558732,
				"z": -3.1454882095,
				"element": "C" 
			},
			{
				"x": -3.6269802163,
				"y": 2.6157652857,
				"z": -2.8980568021,
				"element": "C" 
			},
			{
				"x": -2.5096379553,
				"y": 2.600781564,
				"z": -2.0618825901,
				"element": "C" 
			},
			{
				"x": -0.9460402781,
				"y": 0.6638972946,
				"z": 0.7031214561,
				"element": "C" 
			},
			{
				"x": 0.0048234065,
				"y": -0.2094275505,
				"z": 1.1473654042,
				"element": "C" 
			},
			{
				"x": 1.1592707748,
				"y": -0.477978133,
				"z": 0.4877268439,
				"element": "O" 
			},
			{
				"x": -0.1614540234,
				"y": -0.938637678,
				"z": 2.3900142387,
				"element": "C" 
			},
			{
				"x": 0.7520610615,
				"y": -1.8960108945,
				"z": 2.866637445,
				"element": "C" 
			},
			{
				"x": 0.5065880677,
				"y": -2.5667914155,
				"z": 4.0571358734,
				"element": "C" 
			},
			{
				"x": -0.6559539633,
				"y": -2.2883880033,
				"z": 4.7917563777,
				"element": "C" 
			},
			{
				"x": -1.5687663856,
				"y": -1.3417999382,
				"z": 4.3404765081,
				"element": "C" 
			},
			{
				"x": -1.3178227209,
				"y": -0.6697222284,
				"z": 3.1409981728,
				"element": "C" 
			},
			{
				"x": -2.2248964756,
				"y": 0.2632964214,
				"z": 2.7432869361,
				"element": "O" 
			},
			{
				"x": -2.072724699,
				"y": 1.0038102449,
				"z": 1.5650219283,
				"element": "C" 
			},
			{
				"x": -2.8848663266,
				"y": 1.8752335207,
				"z": 1.3562239237,
				"element": "O" 
			},
			{
				"x": 4.0223610671,
				"y": 1.4522540723,
				"z": 0.3490902472,
				"element": "H" 
			},
			{
				"x": 2.9549715488,
				"y": 0.8846686596,
				"z": 1.6663027025,
				"element": "H" 
			},
			{
				"x": 3.1254481492,
				"y": 2.6275467171,
				"z": 1.3381053946,
				"element": "H" 
			},
			{
				"x": 3.0872477607,
				"y": 0.3771155733,
				"z": -2.0802068525,
				"element": "H" 
			},
			{
				"x": 3.4500469419,
				"y": -0.6129685778,
				"z": -0.6465761193,
				"element": "H" 
			},
			{
				"x": 2.2513697594,
				"y": -1.1708872181,
				"z": -1.8188977421,
				"element": "H" 
			},
			{
				"x": -0.0044206675,
				"y": -0.1694347129,
				"z": -1.8883948893,
				"element": "H" 
			},
			{
				"x": 0.6373537553,
				"y": 1.4355670855,
				"z": -2.2428506773,
				"element": "H" 
			},
			{
				"x": -0.5417578026,
				"y": 2.4383565029,
				"z": -0.3943278235,
				"element": "H" 
			},
			{
				"x": -2.4769038026,
				"y": -0.6960982156,
				"z": -1.2551022596,
				"element": "H" 
			},
			{
				"x": -4.4585721714,
				"y": -0.6752398049,
				"z": -2.731776933,
				"element": "H" 
			},
			{
				"x": -5.2057894353,
				"y": 1.4481341452,
				"z": -3.7919187968,
				"element": "H" 
			},
			{
				"x": -3.949155882,
				"y": 3.5497913134,
				"z": -3.3500161332,
				"element": "H" 
			},
			{
				"x": -1.9711926148,
				"y": 3.5241064814,
				"z": -1.86335204,
				"element": "H" 
			},
			{
				"x": 1.6428814273,
				"y": -2.1004562876,
				"z": 2.2837280074,
				"element": "H" 
			},
			{
				"x": 1.2137273495,
				"y": -3.3066455961,
				"z": 4.4186631186,
				"element": "H" 
			},
			{
				"x": -0.8474102182,
				"y": -2.8130724586,
				"z": 5.7230472018,
				"element": "H" 
			},
			{
				"x": -2.4715043283,
				"y": -1.1048647238,
				"z": 4.8928033594,
				"element": "H" 
			}
		],
		 "valence_orbital": [ 
			{
				"type": "occ",
				"energy": -0.2666,
				"method": "rhf"
			},
			{
				"type": "occ",
				"energy": -0.24673,
				"method": "rhf"
			},
			{
				"type": "occ",
				"energy": -0.23997,
				"method": "rhf"
			},
			{
				"type": "occ",
				"energy": -0.23132,
				"method": "rhf"
			},
			{
				"type": "occ",
				"energy": -0.22295,
				"method": "rhf"
			},
			{
				"type": "unocc",
				"energy": -0.05111,
				"method": "rhf"
			},
			{
				"type": "unocc",
				"energy": -0.00672,
				"method": "rhf"
			},
			{
				"type": "unocc",
				"energy": 0.00563,
				"method": "rhf"
			},
			{
				"type": "unocc",
				"energy": 0.00977,
				"method": "rhf"
			},
			{
				"type": "unocc",
				"energy": 0.01507,
				"method": "rhf"
			}
		],
		"cosmo_sigma_profile": { 
			"-0.025": 0.0,
			"-0.024": 0.0,
			"-0.023": 0.0,
			"-0.022": 0.0,
			"-0.021": 0.0,
			"-0.02": 0.0,
			"-0.019": 0.0,
			"-0.018": 0.0,
			"-0.017": 0.0,
			"-0.016": 0.0,
			"-0.015": 0.0,
			"-0.014": 0.0,
			"-0.013": 0.0,
			"-0.012": 0.0,
			"-0.011": 0.0,
			"-0.01": 0.0,
			"-0.009": 0.0,
			"-0.008": 0.15672936714,
			"-0.007": 3.43465301008,
			"-0.006": 10.9893907363,
			"-0.005": 34.080888037,
			"-0.004": 39.128822327,
			"-0.003": 39.2723392566,
			"-0.002": 33.8308352717,
			"-0.001": 29.1041619305,
			"0.0": 25.776896022,
			"0.001": 22.4079430767,
			"0.002": 20.817466819,
			"0.003": 21.5728748812,
			"0.004": 17.3480328376,
			"0.005": 10.7338798682,
			"0.006": 11.1774677423,
			"0.007": 5.69713731886,
			"0.008": 4.3914977988,
			"0.009": 4.04839818526,
			"0.01": 3.79220560361,
			"0.011": 4.21530884054,
			"0.012": 6.05944636571,
			"0.013": 3.25564336478,
			"0.014": 0.446610596167,
			"0.015": 0.0,
			"0.016": 0.0,
			"0.017": 0.0,
			"0.018": 0.0,
			"0.019": 0.0,
			"0.02": 0.0,
			"0.021": 0.0,
			"0.022": 0.0,
			"0.023": 0.0,
			"0.024": 0.0,
			"0.025": 0.0
		}
	}
}
