{
	 "smiles": "COCCN1C(S)=NC2=C1C=CC=C2", 
	 "Tm": 401.15, 
	 "num_atms": 26, 
	 "gaussian": { 
		 "optdone": 1, 
		 "sigma_profile": "yes", 
		 "theory": "DFT", 
		 "functional": "B3LYP", 
		 "basiset": "6-31G**", 
		 "properties": { 
			 "R2extent": 3796.6693, 
			 "electric_dipole_moment_norm": 3.75697258441, 
			 "electric_quadrupole_moment_norm": 8.81566797186, 
			 "total_energy": -971.196600562, 
			 "HOMO_LUMO_gap": 0.20071, 
			 "cosmo_polarized_energy": -13.42, 
			 "cosmo_cavitation_energy": 30.92, 
			 "cosmo_dispersion_energy": -22.44, 
			 "cosmo_repulsion_energy": 1.71, 
			 "cosmo_total_nonelectrostatic_energy": 10.19, 
			 "SMD_solvation_energy": 3.06 
		},
		"coords": [
			{
				"x": -2.4139280586,
				"y": 2.5661986475,
				"z": -0.6649760668,
				"element": "C" 
			},
			{
				"x": -2.5257697399,
				"y": 1.2191247475,
				"z": -0.2489257979,
				"element": "O" 
			},
			{
				"x": -2.7374000417,
				"y": 1.0567546006,
				"z": 1.1388761044,
				"element": "C" 
			},
			{
				"x": -1.4367657982,
				"y": 1.054976888,
				"z": 1.9564343078,
				"element": "C" 
			},
			{
				"x": -0.5918295702,
				"y": -0.104117489,
				"z": 1.7090780646,
				"element": "N" 
			},
			{
				"x": -0.6227706944,
				"y": -1.3171069376,
				"z": 2.371532344,
				"element": "C" 
			},
			{
				"x": -1.7760642498,
				"y": -1.5991537564,
				"z": 3.6891612424,
				"element": "S" 
			},
			{
				"x": 0.2539710396,
				"y": -2.1912856922,
				"z": 1.9495926144,
				"element": "N" 
			},
			{
				"x": 0.9315589696,
				"y": -1.5343573196,
				"z": 0.9294386387,
				"element": "C" 
			},
			{
				"x": 0.4146954044,
				"y": -0.2295376555,
				"z": 0.7532528388,
				"element": "C" 
			},
			{
				"x": 0.9189667262,
				"y": 0.6500156596,
				"z": -0.2049165425,
				"element": "C" 
			},
			{
				"x": 1.9727884332,
				"y": 0.1871660045,
				"z": -0.9912146999,
				"element": "C" 
			},
			{
				"x": 2.4982506806,
				"y": -1.1091203089,
				"z": -0.8288810985,
				"element": "C" 
			},
			{
				"x": 1.9870517142,
				"y": -1.982502019,
				"z": 0.1268887475,
				"element": "C" 
			},
			{
				"x": -3.3187009783,
				"y": 3.1419490054,
				"z": -0.4162715485,
				"element": "H" 
			},
			{
				"x": -1.5476152066,
				"y": 3.0811486951,
				"z": -0.2215823571,
				"element": "H" 
			},
			{
				"x": -2.2881719208,
				"y": 2.554921427,
				"z": -1.7498580825,
				"element": "H" 
			},
			{
				"x": -3.4009270196,
				"y": 1.843658779,
				"z": 1.533532244,
				"element": "H" 
			},
			{
				"x": -3.2436386723,
				"y": 0.0944249782,
				"z": 1.267720906,
				"element": "H" 
			},
			{
				"x": -0.8465076757,
				"y": 1.9523048135,
				"z": 1.7463393074,
				"element": "H" 
			},
			{
				"x": -1.6815953196,
				"y": 1.0811403763,
				"z": 3.0243179982,
				"element": "H" 
			},
			{
				"x": -1.2608022553,
				"y": -2.809924251,
				"z": 3.9685609205,
				"element": "H" 
			},
			{
				"x": 0.5090077099,
				"y": 1.6441565143,
				"z": -0.346333382,
				"element": "H" 
			},
			{
				"x": 2.3932779866,
				"y": 0.8403004784,
				"z": -1.7501891843,
				"element": "H" 
			},
			{
				"x": 3.3171339406,
				"y": -1.4312755861,
				"z": -1.4653535755,
				"element": "H" 
			},
			{
				"x": 2.3855845959,
				"y": -2.9831605996,
				"z": 0.2586760567,
				"element": "H" 
			}
		],
		 "valence_orbital": [ 
			{
				"type": "occ",
				"energy": -0.27954,
				"method": "rhf"
			},
			{
				"type": "occ",
				"energy": -0.27164,
				"method": "rhf"
			},
			{
				"type": "occ",
				"energy": -0.26937,
				"method": "rhf"
			},
			{
				"type": "occ",
				"energy": -0.21894,
				"method": "rhf"
			},
			{
				"type": "occ",
				"energy": -0.20929,
				"method": "rhf"
			},
			{
				"type": "unocc",
				"energy": -0.00858,
				"method": "rhf"
			},
			{
				"type": "unocc",
				"energy": 0.00664,
				"method": "rhf"
			},
			{
				"type": "unocc",
				"energy": 0.02525,
				"method": "rhf"
			},
			{
				"type": "unocc",
				"energy": 0.05281,
				"method": "rhf"
			},
			{
				"type": "unocc",
				"energy": 0.06369,
				"method": "rhf"
			}
		],
		"cosmo_sigma_profile": { 
			"-0.025": 0.0,
			"-0.024": 0.0,
			"-0.023": 0.0,
			"-0.022": 0.0,
			"-0.021": 0.0,
			"-0.02": 0.0,
			"-0.019": 0.0,
			"-0.018": 0.0,
			"-0.017": 0.0,
			"-0.016": 0.0,
			"-0.015": 0.0,
			"-0.014": 0.0,
			"-0.013": 0.0,
			"-0.012": 0.838561506662,
			"-0.011": 1.55550403528,
			"-0.01": 1.31807459572,
			"-0.009": 1.08688997152,
			"-0.008": 1.22814077145,
			"-0.007": 4.82036426293,
			"-0.006": 13.8062639031,
			"-0.005": 23.817051699,
			"-0.004": 26.4192284267,
			"-0.003": 24.5973376996,
			"-0.002": 19.4300049747,
			"-0.001": 13.613493145,
			"0.0": 11.6775112674,
			"0.001": 12.2427722205,
			"0.002": 12.829752999,
			"0.003": 12.7293970865,
			"0.004": 14.968046513,
			"0.005": 14.6462273302,
			"0.006": 13.8608812241,
			"0.007": 5.98643774869,
			"0.008": 2.53752351461,
			"0.009": 2.10397294322,
			"0.01": 2.23214562698,
			"0.011": 2.67745445424,
			"0.012": 2.56015842077,
			"0.013": 1.98181562355,
			"0.014": 0.529513513204,
			"0.015": 1.40450832262,
			"0.016": 0.556381186441,
			"0.017": 0.140990356257,
			"0.018": 0.0,
			"0.019": 0.0,
			"0.02": 0.0,
			"0.021": 0.0,
			"0.022": 0.0,
			"0.023": 0.0,
			"0.024": 0.0,
			"0.025": 0.0
		}
	}
}
