{
	 "smiles": "OC(=O)C1=CC2=C(C=C1)C(=O)N(C(=O)N2)C1=CC(Cl)=CC=C1", 
	 "Tm": 639.15, 
	 "num_atms": 31, 
	 "gaussian": { 
		 "optdone": 1, 
		 "sigma_profile": "yes", 
		 "theory": "DFT", 
		 "functional": "B3LYP", 
		 "basiset": "6-31G**", 
		 "properties": { 
			 "R2extent": 10434.6361, 
			 "electric_dipole_moment_norm": 4.15916585267, 
			 "electric_quadrupole_moment_norm": 19.953393435, 
			 "total_energy": -1447.67728192, 
			 "HOMO_LUMO_gap": 0.16173, 
			 "cosmo_polarized_energy": -22.24, 
			 "cosmo_cavitation_energy": 39.18, 
			 "cosmo_dispersion_energy": -28.21, 
			 "cosmo_repulsion_energy": 2.12, 
			 "cosmo_total_nonelectrostatic_energy": 13.09, 
			 "SMD_solvation_energy": 8.79 
		},
		"coords": [
			{
				"x": -5.382625944,
				"y": 0.5252128726,
				"z": -3.5701162253,
				"element": "O" 
			},
			{
				"x": -4.462552489,
				"y": -0.4077162588,
				"z": -3.9158347398,
				"element": "C" 
			},
			{
				"x": -4.6670531795,
				"y": -1.2363180686,
				"z": -4.7782527997,
				"element": "O" 
			},
			{
				"x": -3.1987132898,
				"y": -0.2990193592,
				"z": -3.130125784,
				"element": "C" 
			},
			{
				"x": -3.0342353523,
				"y": 0.6810819837,
				"z": -2.1510841292,
				"element": "C" 
			},
			{
				"x": -1.8294379769,
				"y": 0.7428543983,
				"z": -1.4397438633,
				"element": "C" 
			},
			{
				"x": -0.8014447981,
				"y": -0.173157656,
				"z": -1.7133868259,
				"element": "C" 
			},
			{
				"x": -0.9831986195,
				"y": -1.1515972419,
				"z": -2.7000965699,
				"element": "C" 
			},
			{
				"x": -2.1729867222,
				"y": -1.2196488639,
				"z": -3.4078626979,
				"element": "C" 
			},
			{
				"x": 0.4716459599,
				"y": -0.109552488,
				"z": -0.9660339004,
				"element": "C" 
			},
			{
				"x": 1.4019518991,
				"y": -0.8724484211,
				"z": -1.159060056,
				"element": "O" 
			},
			{
				"x": 0.5515737271,
				"y": 0.9138811088,
				"z": 0.0105793626,
				"element": "N" 
			},
			{
				"x": -0.4714020413,
				"y": 1.8400781895,
				"z": 0.3019847367,
				"element": "C" 
			},
			{
				"x": -0.369585138,
				"y": 2.7039610426,
				"z": 1.1520844279,
				"element": "O" 
			},
			{
				"x": -1.6189923861,
				"y": 1.6965128421,
				"z": -0.4566435331,
				"element": "N" 
			},
			{
				"x": 1.7705862291,
				"y": 1.0254936347,
				"z": 0.77775299,
				"element": "C" 
			},
			{
				"x": 2.9471440243,
				"y": 1.4033218095,
				"z": 0.1313261734,
				"element": "C" 
			},
			{
				"x": 4.1185124104,
				"y": 1.4998892587,
				"z": 0.8784736207,
				"element": "C" 
			},
			{
				"x": 5.6079243621,
				"y": 1.9709476365,
				"z": 0.0739649614,
				"element": "Cl" 
			},
			{
				"x": 4.1322234416,
				"y": 1.2352904992,
				"z": 2.2474286261,
				"element": "C" 
			},
			{
				"x": 2.9424399135,
				"y": 0.862635333,
				"z": 2.873475366,
				"element": "C" 
			},
			{
				"x": 1.7594471626,
				"y": 0.7513778019,
				"z": 2.1446832572,
				"element": "C" 
			},
			{
				"x": -6.1547026877,
				"y": 0.3634125459,
				"z": -4.1370834399,
				"element": "H" 
			},
			{
				"x": -3.8323630611,
				"y": 1.3856959476,
				"z": -1.9454306917,
				"element": "H" 
			},
			{
				"x": -0.1681389911,
				"y": -1.8425547477,
				"z": -2.8851553935,
				"element": "H" 
			},
			{
				"x": -2.3366009742,
				"y": -1.96715228,
				"z": -4.1751460005,
				"element": "H" 
			},
			{
				"x": -2.3392279795,
				"y": 2.3702643509,
				"z": -0.2360576695,
				"element": "H" 
			},
			{
				"x": 2.9516932936,
				"y": 1.6087658679,
				"z": -0.9318273689,
				"element": "H" 
			},
			{
				"x": 5.0563150137,
				"y": 1.3199142442,
				"z": 2.8079474705,
				"element": "H" 
			},
			{
				"x": 2.9404497938,
				"y": 0.6561325024,
				"z": 3.9390826277,
				"element": "H" 
			},
			{
				"x": 0.8334543996,
				"y": 0.4651415152,
				"z": 2.6299580684,
				"element": "H" 
			}
		],
		 "valence_orbital": [ 
			{
				"type": "occ",
				"energy": -0.28619,
				"method": "rhf"
			},
			{
				"type": "occ",
				"energy": -0.27797,
				"method": "rhf"
			},
			{
				"type": "occ",
				"energy": -0.2612,
				"method": "rhf"
			},
			{
				"type": "occ",
				"energy": -0.24982,
				"method": "rhf"
			},
			{
				"type": "occ",
				"energy": -0.24805,
				"method": "rhf"
			},
			{
				"type": "unocc",
				"energy": -0.08632,
				"method": "rhf"
			},
			{
				"type": "unocc",
				"energy": -0.03317,
				"method": "rhf"
			},
			{
				"type": "unocc",
				"energy": -0.02257,
				"method": "rhf"
			},
			{
				"type": "unocc",
				"energy": -0.01616,
				"method": "rhf"
			},
			{
				"type": "unocc",
				"energy": -0.003,
				"method": "rhf"
			}
		],
		"cosmo_sigma_profile": { 
			"-0.025": 0.0,
			"-0.024": 0.0,
			"-0.023": 0.0,
			"-0.022": 0.0,
			"-0.021": 0.0,
			"-0.02": 0.0,
			"-0.019": 0.358270974958,
			"-0.018": 0.674075929294,
			"-0.017": 1.9809289495,
			"-0.016": 1.89672879774,
			"-0.015": 2.41150296713,
			"-0.014": 2.06808847832,
			"-0.013": 1.41818226128,
			"-0.012": 1.69484266933,
			"-0.011": 2.04983464059,
			"-0.01": 1.51755709016,
			"-0.009": 2.39684716734,
			"-0.008": 5.41447334799,
			"-0.007": 13.3540000209,
			"-0.006": 16.7217922845,
			"-0.005": 15.6825778253,
			"-0.004": 14.8968822785,
			"-0.003": 18.79612227,
			"-0.002": 18.7558639647,
			"-0.001": 20.96491726,
			"0.0": 27.2940254472,
			"0.001": 27.4663379131,
			"0.002": 23.0695661108,
			"0.003": 19.8701275949,
			"0.004": 16.751007065,
			"0.005": 10.3908411664,
			"0.006": 5.75663566676,
			"0.007": 4.6229356175,
			"0.008": 4.59803697754,
			"0.009": 5.18999237288,
			"0.01": 6.9896947591,
			"0.011": 11.1022756213,
			"0.012": 10.3354290037,
			"0.013": 1.24062808032,
			"0.014": 0.0,
			"0.015": 0.0,
			"0.016": 0.0,
			"0.017": 0.0,
			"0.018": 0.0,
			"0.019": 0.0,
			"0.02": 0.0,
			"0.021": 0.0,
			"0.022": 0.0,
			"0.023": 0.0,
			"0.024": 0.0,
			"0.025": 0.0
		}
	}
}
