{
	 "smiles": "CC(=O)OC1=C(C=CC=C1)C#N", 
	 "Tm": 526.15, 
	 "num_atms": 19, 
	 "gaussian": { 
		 "optdone": 1, 
		 "sigma_profile": "yes", 
		 "theory": "DFT", 
		 "functional": "B3LYP", 
		 "basiset": "6-31G**", 
		 "properties": { 
			 "R2extent": 2135.5699, 
			 "electric_dipole_moment_norm": 3.19090602337, 
			 "electric_quadrupole_moment_norm": 19.0567519192, 
			 "total_energy": -552.366194091, 
			 "HOMO_LUMO_gap": 0.20559, 
			 "cosmo_polarized_energy": -11.4, 
			 "cosmo_cavitation_energy": 25.2, 
			 "cosmo_dispersion_energy": -17.49, 
			 "cosmo_repulsion_energy": 1.41, 
			 "cosmo_total_nonelectrostatic_energy": 9.12, 
			 "SMD_solvation_energy": 7.09 
		},
		"coords": [
			{
				"x": 1.5200223014,
				"y": -2.9790378522,
				"z": -0.5904251695,
				"element": "C" 
			},
			{
				"x": 1.3859995375,
				"y": -1.5115485178,
				"z": -0.2833538016,
				"element": "C" 
			},
			{
				"x": 2.2277258216,
				"y": -0.6635026381,
				"z": -0.4306225531,
				"element": "O" 
			},
			{
				"x": 0.1169594709,
				"y": -1.2649002285,
				"z": 0.202363734,
				"element": "O" 
			},
			{
				"x": -0.3059656295,
				"y": 0.0105722499,
				"z": 0.5289526931,
				"element": "C" 
			},
			{
				"x": -1.6328894213,
				"y": 0.3205686953,
				"z": 0.1740740629,
				"element": "C" 
			},
			{
				"x": -2.1711528359,
				"y": 1.5672743538,
				"z": 0.5339702225,
				"element": "C" 
			},
			{
				"x": -1.3940941476,
				"y": 2.4878854845,
				"z": 1.2293466144,
				"element": "C" 
			},
			{
				"x": -0.0788361716,
				"y": 2.1660484977,
				"z": 1.5730000524,
				"element": "C" 
			},
			{
				"x": 0.4719395051,
				"y": 0.9308419985,
				"z": 1.2293723242,
				"element": "C" 
			},
			{
				"x": -2.4265843543,
				"y": -0.6279638875,
				"z": -0.548451328,
				"element": "C" 
			},
			{
				"x": -3.0888156454,
				"y": -1.3795293779,
				"z": -1.1395485467,
				"element": "N" 
			},
			{
				"x": 0.7739522208,
				"y": -3.2717703334,
				"z": -1.3348916936,
				"element": "H" 
			},
			{
				"x": 1.3276155108,
				"y": -3.5685598387,
				"z": 0.3107575799,
				"element": "H" 
			},
			{
				"x": 2.5234968355,
				"y": -3.1794011781,
				"z": -0.9636342874,
				"element": "H" 
			},
			{
				"x": -3.1951840433,
				"y": 1.7960896895,
				"z": 0.2593367057,
				"element": "H" 
			},
			{
				"x": -1.8119039114,
				"y": 3.4509713147,
				"z": 1.5035919175,
				"element": "H" 
			},
			{
				"x": 0.5300053109,
				"y": 2.8816209515,
				"z": 2.117119727,
				"element": "H" 
			},
			{
				"x": 1.4921096461,
				"y": 0.6860406167,
				"z": 1.4906417463,
				"element": "H" 
			}
		],
		 "valence_orbital": [ 
			{
				"type": "occ",
				"energy": -0.34124,
				"method": "rhf"
			},
			{
				"type": "occ",
				"energy": -0.33101,
				"method": "rhf"
			},
			{
				"type": "occ",
				"energy": -0.2935,
				"method": "rhf"
			},
			{
				"type": "occ",
				"energy": -0.27202,
				"method": "rhf"
			},
			{
				"type": "occ",
				"energy": -0.26048,
				"method": "rhf"
			},
			{
				"type": "unocc",
				"energy": -0.05489,
				"method": "rhf"
			},
			{
				"type": "unocc",
				"energy": -0.03089,
				"method": "rhf"
			},
			{
				"type": "unocc",
				"energy": 0.00034,
				"method": "rhf"
			},
			{
				"type": "unocc",
				"energy": 0.03512,
				"method": "rhf"
			},
			{
				"type": "unocc",
				"energy": 0.07507,
				"method": "rhf"
			}
		],
		"cosmo_sigma_profile": { 
			"-0.025": 0.0,
			"-0.024": 0.0,
			"-0.023": 0.0,
			"-0.022": 0.0,
			"-0.021": 0.0,
			"-0.02": 0.0,
			"-0.019": 0.0,
			"-0.018": 0.0,
			"-0.017": 0.0,
			"-0.016": 0.0,
			"-0.015": 0.0,
			"-0.014": 0.0,
			"-0.013": 0.0,
			"-0.012": 0.0,
			"-0.011": 0.0,
			"-0.01": 0.0,
			"-0.009": 0.301611345377,
			"-0.008": 3.28091255673,
			"-0.007": 13.2309693274,
			"-0.006": 17.3803744733,
			"-0.005": 14.9093685371,
			"-0.004": 14.8607135617,
			"-0.003": 13.8045537838,
			"-0.002": 16.0652062396,
			"-0.001": 14.4497398686,
			"0.0": 11.9101324576,
			"0.001": 14.2944006282,
			"0.002": 13.2461388955,
			"0.003": 8.06039628361,
			"0.004": 5.17868646297,
			"0.005": 6.00808965911,
			"0.006": 4.29735620678,
			"0.007": 4.81480149388,
			"0.008": 5.94460308605,
			"0.009": 5.04741199347,
			"0.01": 6.79533862502,
			"0.011": 5.44286954277,
			"0.012": 2.84976198496,
			"0.013": 1.29740954238,
			"0.014": 0.0188239180216,
			"0.015": 0.0,
			"0.016": 0.0,
			"0.017": 0.0,
			"0.018": 0.0,
			"0.019": 0.0,
			"0.02": 0.0,
			"0.021": 0.0,
			"0.022": 0.0,
			"0.023": 0.0,
			"0.024": 0.0,
			"0.025": 0.0
		}
	}
}
