{
	 "smiles": "CC1=CC(=CC(O)=C1)C(O)=O", 
	 "Tm": 479.15, 
	 "num_atms": 19, 
	 "gaussian": { 
		 "optdone": 1, 
		 "sigma_profile": "yes", 
		 "theory": "DFT", 
		 "functional": "B3LYP", 
		 "basiset": "6-31G**", 
		 "properties": { 
			 "R2extent": 2388.9699, 
			 "electric_dipole_moment_norm": 3.84056140948, 
			 "electric_quadrupole_moment_norm": 17.1714767233, 
			 "total_energy": -535.356489243, 
			 "HOMO_LUMO_gap": 0.1898, 
			 "cosmo_polarized_energy": -16.57, 
			 "cosmo_cavitation_energy": 23.51, 
			 "cosmo_dispersion_energy": -17.38, 
			 "cosmo_repulsion_energy": 1.4, 
			 "cosmo_total_nonelectrostatic_energy": 7.52, 
			 "SMD_solvation_energy": 5.67 
		},
		"coords": [
			{
				"x": -2.5207189867,
				"y": -1.2889607315,
				"z": 1.8895423238,
				"element": "C" 
			},
			{
				"x": -1.3504006252,
				"y": -0.3610605629,
				"z": 1.6613571838,
				"element": "C" 
			},
			{
				"x": -0.153918466,
				"y": -0.8353775131,
				"z": 1.106938883,
				"element": "C" 
			},
			{
				"x": 0.9402648238,
				"y": 0.0217816443,
				"z": 0.9330914853,
				"element": "C" 
			},
			{
				"x": 0.8525122015,
				"y": 1.3602022705,
				"z": 1.3269128222,
				"element": "C" 
			},
			{
				"x": -0.3400892302,
				"y": 1.8411418703,
				"z": 1.8680992043,
				"element": "C" 
			},
			{
				"x": -0.5016369716,
				"y": 3.1371165214,
				"z": 2.2580714014,
				"element": "O" 
			},
			{
				"x": -1.4354150169,
				"y": 0.9841148419,
				"z": 2.0286013751,
				"element": "C" 
			},
			{
				"x": 2.2471485045,
				"y": -0.4319866989,
				"z": 0.3522914349,
				"element": "C" 
			},
			{
				"x": 2.2211962393,
				"y": -1.5674778407,
				"z": -0.394894236,
				"element": "O" 
			},
			{
				"x": 3.2887776666,
				"y": 0.1598561919,
				"z": 0.5155285241,
				"element": "O" 
			},
			{
				"x": -2.5837893459,
				"y": -1.5907379656,
				"z": 2.9419210336,
				"element": "H" 
			},
			{
				"x": -2.4331721929,
				"y": -2.1999174967,
				"z": 1.2909900489,
				"element": "H" 
			},
			{
				"x": -3.4684411857,
				"y": -0.8050387211,
				"z": 1.6342018182,
				"element": "H" 
			},
			{
				"x": -0.0778461397,
				"y": -1.8921221833,
				"z": 0.8615388424,
				"element": "H" 
			},
			{
				"x": 1.7210844645,
				"y": 1.9998769975,
				"z": 1.1990859309,
				"element": "H" 
			},
			{
				"x": 0.321583206,
				"y": 3.6201828323,
				"z": 2.1072490468,
				"element": "H" 
			},
			{
				"x": -2.3496324174,
				"y": 1.3882804096,
				"z": 2.4529663003,
				"element": "H" 
			},
			{
				"x": 1.3053934721,
				"y": -1.8300738658,
				"z": -0.5625934231,
				"element": "H" 
			}
		],
		 "valence_orbital": [ 
			{
				"type": "occ",
				"energy": -0.34267,
				"method": "rhf"
			},
			{
				"type": "occ",
				"energy": -0.31365,
				"method": "rhf"
			},
			{
				"type": "occ",
				"energy": -0.27421,
				"method": "rhf"
			},
			{
				"type": "occ",
				"energy": -0.25886,
				"method": "rhf"
			},
			{
				"type": "occ",
				"energy": -0.23864,
				"method": "rhf"
			},
			{
				"type": "unocc",
				"energy": -0.04884,
				"method": "rhf"
			},
			{
				"type": "unocc",
				"energy": -0.00833,
				"method": "rhf"
			},
			{
				"type": "unocc",
				"energy": 0.05217,
				"method": "rhf"
			},
			{
				"type": "unocc",
				"energy": 0.06152,
				"method": "rhf"
			},
			{
				"type": "unocc",
				"energy": 0.06815,
				"method": "rhf"
			}
		],
		"cosmo_sigma_profile": { 
			"-0.025": 0.0,
			"-0.024": 0.0,
			"-0.023": 0.0,
			"-0.022": 0.0,
			"-0.021": 0.0,
			"-0.02": 0.0,
			"-0.019": 0.0,
			"-0.018": 1.14223424841,
			"-0.017": 2.17299065069,
			"-0.016": 2.22425661883,
			"-0.015": 2.26829495195,
			"-0.014": 1.80930332502,
			"-0.013": 1.52545547032,
			"-0.012": 2.07412033796,
			"-0.011": 1.86015754803,
			"-0.01": 2.06013565027,
			"-0.009": 2.8879836741,
			"-0.008": 2.18546571378,
			"-0.007": 3.09722937382,
			"-0.006": 4.76783984947,
			"-0.005": 8.23751158739,
			"-0.004": 11.8093729806,
			"-0.003": 11.3408219691,
			"-0.002": 12.3799746478,
			"-0.001": 14.0828832937,
			"0.0": 13.0159818375,
			"0.001": 8.86242049321,
			"0.002": 10.3230711025,
			"0.003": 15.5863469284,
			"0.004": 10.2941870006,
			"0.005": 4.55791952945,
			"0.006": 3.81020137357,
			"0.007": 3.34016996767,
			"0.008": 3.58586322993,
			"0.009": 5.39256286516,
			"0.01": 6.1908662147,
			"0.011": 6.74058127527,
			"0.012": 5.33474297935,
			"0.013": 1.7612447929,
			"0.014": 0.0810801946274,
			"0.015": 0.0,
			"0.016": 0.0,
			"0.017": 0.0,
			"0.018": 0.0,
			"0.019": 0.0,
			"0.02": 0.0,
			"0.021": 0.0,
			"0.022": 0.0,
			"0.023": 0.0,
			"0.024": 0.0,
			"0.025": 0.0
		}
	}
}
