{
	 "smiles": "NC1=NC(=NO1)C(F)(F)F", 
	 "Tm": 371.15, 
	 "num_atms": 12, 
	 "gaussian": { 
		 "optdone": 1, 
		 "sigma_profile": "yes", 
		 "theory": "DFT", 
		 "functional": "B3LYP", 
		 "basiset": "6-31G**", 
		 "properties": { 
			 "R2extent": 3975.5738, 
			 "electric_dipole_moment_norm": 4.9074320627, 
			 "electric_quadrupole_moment_norm": 24.935951649, 
			 "total_energy": -654.479861458, 
			 "HOMO_LUMO_gap": 0.23947, 
			 "cosmo_polarized_energy": -12.26, 
			 "cosmo_cavitation_energy": 19.05, 
			 "cosmo_dispersion_energy": -13.93, 
			 "cosmo_repulsion_energy": 1.1, 
			 "cosmo_total_nonelectrostatic_energy": 6.23, 
			 "SMD_solvation_energy": 2.81 
		},
		"coords": [
			{
				"x": -0.5351262278,
				"y": 3.6225939488,
				"z": 2.490532011,
				"element": "N" 
			},
			{
				"x": -0.1662223579,
				"y": 2.3686496522,
				"z": 2.8299713447,
				"element": "C" 
			},
			{
				"x": -0.8235332191,
				"y": 1.2529780219,
				"z": 2.625323706,
				"element": "N" 
			},
			{
				"x": 0.0595793284,
				"y": 0.3404527548,
				"z": 3.1289632553,
				"element": "C" 
			},
			{
				"x": 1.1797668943,
				"y": 0.802235634,
				"z": 3.6187057388,
				"element": "N" 
			},
			{
				"x": 1.0326913633,
				"y": 2.2000786234,
				"z": 3.416375737,
				"element": "O" 
			},
			{
				"x": -0.2436758176,
				"y": -1.1353554108,
				"z": 3.1261447863,
				"element": "C" 
			},
			{
				"x": -1.3658137232,
				"y": -1.3846562954,
				"z": 3.8257948345,
				"element": "F" 
			},
			{
				"x": 0.7590457478,
				"y": -1.8398349105,
				"z": 3.6694313802,
				"element": "F" 
			},
			{
				"x": -0.4379026328,
				"y": -1.5726078978,
				"z": 1.8688228197,
				"element": "F" 
			},
			{
				"x": -0.0482703425,
				"y": 4.3970304681,
				"z": 2.9136482487,
				"element": "H" 
			},
			{
				"x": -1.5009390128,
				"y": 3.7559354112,
				"z": 2.2351861376,
				"element": "H" 
			}
		],
		 "valence_orbital": [ 
			{
				"type": "occ",
				"energy": -0.37568,
				"method": "rhf"
			},
			{
				"type": "occ",
				"energy": -0.35735,
				"method": "rhf"
			},
			{
				"type": "occ",
				"energy": -0.34505,
				"method": "rhf"
			},
			{
				"type": "occ",
				"energy": -0.31198,
				"method": "rhf"
			},
			{
				"type": "occ",
				"energy": -0.26573,
				"method": "rhf"
			},
			{
				"type": "unocc",
				"energy": -0.02626,
				"method": "rhf"
			},
			{
				"type": "unocc",
				"energy": 0.03021,
				"method": "rhf"
			},
			{
				"type": "unocc",
				"energy": 0.04214,
				"method": "rhf"
			},
			{
				"type": "unocc",
				"energy": 0.08452,
				"method": "rhf"
			},
			{
				"type": "unocc",
				"energy": 0.09993,
				"method": "rhf"
			}
		],
		"cosmo_sigma_profile": { 
			"-0.025": 0.0,
			"-0.024": 0.0,
			"-0.023": 0.0,
			"-0.022": 0.0,
			"-0.021": 0.0,
			"-0.02": 0.0,
			"-0.019": 0.0,
			"-0.018": 0.0,
			"-0.017": 0.637427407879,
			"-0.016": 2.437132793,
			"-0.015": 2.50264691647,
			"-0.014": 2.76615018054,
			"-0.013": 2.42603507488,
			"-0.012": 1.90417809456,
			"-0.011": 1.98871474157,
			"-0.01": 2.14110503023,
			"-0.009": 1.88196312239,
			"-0.008": 1.47940969008,
			"-0.007": 1.48310615653,
			"-0.006": 1.63572922307,
			"-0.005": 3.60387349935,
			"-0.004": 6.20846505568,
			"-0.003": 6.74535759333,
			"-0.002": 6.33580440057,
			"-0.001": 6.58896234081,
			"0.0": 7.60692671677,
			"0.001": 16.1529471863,
			"0.002": 33.8321183157,
			"0.003": 8.72297970285,
			"0.004": 6.38937081206,
			"0.005": 5.79939596684,
			"0.006": 6.23792379536,
			"0.007": 3.47748598457,
			"0.008": 2.28524562488,
			"0.009": 3.07544605688,
			"0.01": 2.43201076733,
			"0.011": 2.09538335709,
			"0.012": 1.4460616702,
			"0.013": 0.868684184558,
			"0.014": 0.11647934571,
			"0.015": 0.0,
			"0.016": 0.0,
			"0.017": 0.0,
			"0.018": 0.0,
			"0.019": 0.0,
			"0.02": 0.0,
			"0.021": 0.0,
			"0.022": 0.0,
			"0.023": 0.0,
			"0.024": 0.0,
			"0.025": 0.0
		}
	}
}
