{
	 "smiles": "O=C1NC=NC2=CC=CC=C12", 
	 "Tm": 491.15, 
	 "num_atms": 17, 
	 "gaussian": { 
		 "optdone": 1, 
		 "sigma_profile": "yes", 
		 "theory": "DFT", 
		 "functional": "B3LYP", 
		 "basiset": "6-31G**", 
		 "properties": { 
			 "R2extent": 1963.1964, 
			 "electric_dipole_moment_norm": 1.49543161328, 
			 "electric_quadrupole_moment_norm": 17.4708744383, 
			 "total_energy": -493.219713921, 
			 "HOMO_LUMO_gap": 0.19076, 
			 "cosmo_polarized_energy": -13.04, 
			 "cosmo_cavitation_energy": 21.34, 
			 "cosmo_dispersion_energy": -16.3, 
			 "cosmo_repulsion_energy": 1.28, 
			 "cosmo_total_nonelectrostatic_energy": 6.32, 
			 "SMD_solvation_energy": 3.11 
		},
		"coords": [
			{
				"x": -1.0626913558,
				"y": -2.6588703852,
				"z": -0.2449329419,
				"element": "O" 
			},
			{
				"x": -0.6582977444,
				"y": -1.5307804569,
				"z": -0.4870817575,
				"element": "C" 
			},
			{
				"x": -1.5174630174,
				"y": -0.4236928925,
				"z": -0.398577615,
				"element": "N" 
			},
			{
				"x": -1.131788794,
				"y": 0.86881694,
				"z": -0.6568606745,
				"element": "C" 
			},
			{
				"x": 0.0550543899,
				"y": 1.2270956635,
				"z": -1.010008668,
				"element": "N" 
			},
			{
				"x": 1.0028327433,
				"y": 0.213528868,
				"z": -1.1336833168,
				"element": "C" 
			},
			{
				"x": 2.3124662241,
				"y": 0.5595323374,
				"z": -1.517694484,
				"element": "C" 
			},
			{
				"x": 3.2830863344,
				"y": -0.4221235914,
				"z": -1.6513876581,
				"element": "C" 
			},
			{
				"x": 2.977522527,
				"y": -1.7729580731,
				"z": -1.407012252,
				"element": "C" 
			},
			{
				"x": 1.6932946939,
				"y": -2.1333165546,
				"z": -1.0278753546,
				"element": "C" 
			},
			{
				"x": 0.7017137385,
				"y": -1.1497864726,
				"z": -0.8888592606,
				"element": "C" 
			},
			{
				"x": -2.4705388095,
				"y": -0.630158527,
				"z": -0.1250305411,
				"element": "H" 
			},
			{
				"x": -1.912723619,
				"y": 1.6186627492,
				"z": -0.5448487414,
				"element": "H" 
			},
			{
				"x": 2.5301278409,
				"y": 1.606263711,
				"z": -1.7021459169,
				"element": "H" 
			},
			{
				"x": 4.2904779686,
				"y": -0.1442469988,
				"z": -1.9482292963,
				"element": "H" 
			},
			{
				"x": 3.7471511727,
				"y": -2.5309740403,
				"z": -1.5155149896,
				"element": "H" 
			},
			{
				"x": 1.4230757068,
				"y": -3.1656922766,
				"z": -0.8314565315,
				"element": "H" 
			}
		],
		 "valence_orbital": [ 
			{
				"type": "occ",
				"energy": -0.29828,
				"method": "rhf"
			},
			{
				"type": "occ",
				"energy": -0.28052,
				"method": "rhf"
			},
			{
				"type": "occ",
				"energy": -0.26562,
				"method": "rhf"
			},
			{
				"type": "occ",
				"energy": -0.26263,
				"method": "rhf"
			},
			{
				"type": "occ",
				"energy": -0.23402,
				"method": "rhf"
			},
			{
				"type": "unocc",
				"energy": -0.04326,
				"method": "rhf"
			},
			{
				"type": "unocc",
				"energy": -0.03878,
				"method": "rhf"
			},
			{
				"type": "unocc",
				"energy": 0.02534,
				"method": "rhf"
			},
			{
				"type": "unocc",
				"energy": 0.07089,
				"method": "rhf"
			},
			{
				"type": "unocc",
				"energy": 0.07257,
				"method": "rhf"
			}
		],
		"cosmo_sigma_profile": { 
			"-0.025": 0.0,
			"-0.024": 0.0,
			"-0.023": 0.0,
			"-0.022": 0.0,
			"-0.021": 0.0,
			"-0.02": 0.0,
			"-0.019": 0.0,
			"-0.018": 0.0,
			"-0.017": 0.624719969852,
			"-0.016": 1.60144307752,
			"-0.015": 1.39689418208,
			"-0.014": 1.19864185143,
			"-0.013": 1.37305583951,
			"-0.012": 1.02017421776,
			"-0.011": 1.35660362602,
			"-0.01": 2.55880713708,
			"-0.009": 2.77574449856,
			"-0.008": 2.31146985705,
			"-0.007": 3.88747953635,
			"-0.006": 8.89910737439,
			"-0.005": 9.92570435408,
			"-0.004": 10.7967200122,
			"-0.003": 11.0400007511,
			"-0.002": 13.0115752235,
			"-0.001": 8.44622980941,
			"0.0": 9.52991950095,
			"0.001": 11.3982201573,
			"0.002": 12.6543659902,
			"0.003": 16.2287516395,
			"0.004": 9.5459815123,
			"0.005": 2.01473611491,
			"0.006": 3.53643430657,
			"0.007": 3.46209391736,
			"0.008": 1.08078024673,
			"0.009": 1.74377545276,
			"0.01": 3.20214462573,
			"0.011": 2.761349774,
			"0.012": 4.43247354814,
			"0.013": 6.15941000684,
			"0.014": 1.1800134179,
			"0.015": 0.654655101814,
			"0.016": 0.176155308195,
			"0.017": 0.0,
			"0.018": 0.0,
			"0.019": 0.0,
			"0.02": 0.0,
			"0.021": 0.0,
			"0.022": 0.0,
			"0.023": 0.0,
			"0.024": 0.0,
			"0.025": 0.0
		}
	}
}
