{
	 "smiles": "OC(=O)CCNC(=O)OCC1=CC=CC=C1", 
	 "Tm": 379.15, 
	 "num_atms": 29, 
	 "gaussian": { 
		 "optdone": 1, 
		 "sigma_profile": "yes", 
		 "theory": "DFT", 
		 "functional": "B3LYP", 
		 "basiset": "6-31G**", 
		 "properties": { 
			 "R2extent": 5538.1558, 
			 "electric_dipole_moment_norm": 2.11171858684, 
			 "electric_quadrupole_moment_norm": 13.6176856749, 
			 "total_energy": -782.69393692, 
			 "HOMO_LUMO_gap": 0.23807, 
			 "cosmo_polarized_energy": -15.61, 
			 "cosmo_cavitation_energy": 33.9, 
			 "cosmo_dispersion_energy": -23.98, 
			 "cosmo_repulsion_energy": 1.92, 
			 "cosmo_total_nonelectrostatic_energy": 11.84, 
			 "SMD_solvation_energy": 7.22 
		},
		"coords": [
			{
				"x": 0.7617049314,
				"y": -2.5920987363,
				"z": 2.6912807943,
				"element": "O" 
			},
			{
				"x": -0.4955332585,
				"y": -3.0587890425,
				"z": 2.9313970129,
				"element": "C" 
			},
			{
				"x": -0.9281487675,
				"y": -3.1809380878,
				"z": 4.0537581745,
				"element": "O" 
			},
			{
				"x": -1.2638626989,
				"y": -3.3791006744,
				"z": 1.6641379272,
				"element": "C" 
			},
			{
				"x": -0.4412489643,
				"y": -3.5326366387,
				"z": 0.3752147607,
				"element": "C" 
			},
			{
				"x": 0.1610717506,
				"y": -2.2998533605,
				"z": -0.0948514065,
				"element": "N" 
			},
			{
				"x": -0.4282379047,
				"y": -1.5414856185,
				"z": -1.0614324553,
				"element": "C" 
			},
			{
				"x": -1.4123870898,
				"y": -1.8647637567,
				"z": -1.7095630923,
				"element": "O" 
			},
			{
				"x": 0.2598554428,
				"y": -0.3778224362,
				"z": -1.2152440864,
				"element": "O" 
			},
			{
				"x": -0.2587178019,
				"y": 0.5415232169,
				"z": -2.2099984886,
				"element": "C" 
			},
			{
				"x": -1.2088600494,
				"y": 1.5481945485,
				"z": -1.6074046353,
				"element": "C" 
			},
			{
				"x": -2.5609188433,
				"y": 1.2264750337,
				"z": -1.418167992,
				"element": "C" 
			},
			{
				"x": -3.4334692096,
				"y": 2.1552809799,
				"z": -0.8511650508,
				"element": "C" 
			},
			{
				"x": -2.9673958698,
				"y": 3.4158207386,
				"z": -0.4690815735,
				"element": "C" 
			},
			{
				"x": -1.6236343338,
				"y": 3.7444517875,
				"z": -0.6551877093,
				"element": "C" 
			},
			{
				"x": -0.7509204761,
				"y": 2.8134185124,
				"z": -1.2207456667,
				"element": "C" 
			},
			{
				"x": 1.1504023934,
				"y": -2.4096029039,
				"z": 3.5636962161,
				"element": "H" 
			},
			{
				"x": -2.0093596347,
				"y": -2.5854258831,
				"z": 1.5304784812,
				"element": "H" 
			},
			{
				"x": -1.827618495,
				"y": -4.2947867698,
				"z": 1.8701767743,
				"element": "H" 
			},
			{
				"x": -1.1004859163,
				"y": -3.8821864816,
				"z": -0.4214603243,
				"element": "H" 
			},
			{
				"x": 0.343784821,
				"y": -4.2829353201,
				"z": 0.5166846877,
				"element": "H" 
			},
			{
				"x": 0.8872678317,
				"y": -1.8749463357,
				"z": 0.4623968775,
				"element": "H" 
			},
			{
				"x": -0.7438353285,
				"y": -0.0395472553,
				"z": -2.996517039,
				"element": "H" 
			},
			{
				"x": 0.6278845013,
				"y": 1.0364597424,
				"z": -2.6128968812,
				"element": "H" 
			},
			{
				"x": -2.9138787011,
				"y": 0.2424712407,
				"z": -1.7114729049,
				"element": "H" 
			},
			{
				"x": -4.4795561274,
				"y": 1.8974041922,
				"z": -0.7111542086,
				"element": "H" 
			},
			{
				"x": -3.6493703385,
				"y": 4.1393635568,
				"z": -0.0312588603,
				"element": "H" 
			},
			{
				"x": -1.2559285238,
				"y": 4.7239957557,
				"z": -0.3627552792,
				"element": "H" 
			},
			{
				"x": 0.2953966604,
				"y": 3.0715599957,
				"z": -1.3666640523,
				"element": "H" 
			}
		],
		 "valence_orbital": [ 
			{
				"type": "occ",
				"energy": -0.28444,
				"method": "rhf"
			},
			{
				"type": "occ",
				"energy": -0.27318,
				"method": "rhf"
			},
			{
				"type": "occ",
				"energy": -0.25512,
				"method": "rhf"
			},
			{
				"type": "occ",
				"energy": -0.24938,
				"method": "rhf"
			},
			{
				"type": "occ",
				"energy": -0.24646,
				"method": "rhf"
			},
			{
				"type": "unocc",
				"energy": -0.00839,
				"method": "rhf"
			},
			{
				"type": "unocc",
				"energy": -0.00093,
				"method": "rhf"
			},
			{
				"type": "unocc",
				"energy": -7e-05,
				"method": "rhf"
			},
			{
				"type": "unocc",
				"energy": 0.05352,
				"method": "rhf"
			},
			{
				"type": "unocc",
				"energy": 0.0653,
				"method": "rhf"
			}
		],
		"cosmo_sigma_profile": { 
			"-0.025": 0.0,
			"-0.024": 0.0,
			"-0.023": 0.0,
			"-0.022": 0.0,
			"-0.021": 0.0,
			"-0.02": 0.0,
			"-0.019": 0.050102962663,
			"-0.018": 0.721122980522,
			"-0.017": 1.10834311005,
			"-0.016": 0.786467669843,
			"-0.015": 0.790307420086,
			"-0.014": 0.44023825392,
			"-0.013": 0.976059554586,
			"-0.012": 0.45274717408,
			"-0.011": 0.837311493405,
			"-0.01": 1.5660222738,
			"-0.009": 0.607634751884,
			"-0.008": 1.29531234526,
			"-0.007": 4.15251952152,
			"-0.006": 18.1143397579,
			"-0.005": 23.6227546341,
			"-0.004": 23.6451802419,
			"-0.003": 25.2475180409,
			"-0.002": 20.0276297768,
			"-0.001": 15.7012727745,
			"0.0": 14.0547820345,
			"0.001": 14.5700728211,
			"0.002": 14.6703084145,
			"0.003": 14.0275311791,
			"0.004": 14.5449711788,
			"0.005": 14.8391396604,
			"0.006": 11.0790957952,
			"0.007": 3.84807516759,
			"0.008": 3.579981071,
			"0.009": 3.12601521967,
			"0.01": 3.72404242476,
			"0.011": 5.10304318698,
			"0.012": 6.72346672358,
			"0.013": 4.08647214241,
			"0.014": 0.419078441728,
			"0.015": 0.0,
			"0.016": 0.0,
			"0.017": 0.0,
			"0.018": 0.0,
			"0.019": 0.0,
			"0.02": 0.0,
			"0.021": 0.0,
			"0.022": 0.0,
			"0.023": 0.0,
			"0.024": 0.0,
			"0.025": 0.0
		}
	}
}
