{
	 "smiles": "OC(=O)C1(CCOCC1)C1=CC=C(Cl)C=C1", 
	 "Tm": 455.15, 
	 "num_atms": 29, 
	 "gaussian": { 
		 "optdone": 1, 
		 "sigma_profile": "yes", 
		 "theory": "DFT", 
		 "functional": "B3LYP", 
		 "basiset": "6-31G**", 
		 "properties": { 
			 "R2extent": 4784.6895, 
			 "electric_dipole_moment_norm": 4.40945434946, 
			 "electric_quadrupole_moment_norm": 20.469655555, 
			 "total_energy": -1150.96489635, 
			 "HOMO_LUMO_gap": 0.22099, 
			 "cosmo_polarized_energy": -17.87, 
			 "cosmo_cavitation_energy": 32.38, 
			 "cosmo_dispersion_energy": -23.52, 
			 "cosmo_repulsion_energy": 1.81, 
			 "cosmo_total_nonelectrostatic_energy": 10.67, 
			 "SMD_solvation_energy": 5.7 
		},
		"coords": [
			{
				"x": -1.7746447732,
				"y": -1.3678480353,
				"z": -1.6848110726,
				"element": "O" 
			},
			{
				"x": -1.1278601272,
				"y": -1.4542559347,
				"z": -0.493620339,
				"element": "C" 
			},
			{
				"x": -1.6408674493,
				"y": -2.0474098625,
				"z": 0.4221083819,
				"element": "O" 
			},
			{
				"x": 0.2190747565,
				"y": -0.6880986502,
				"z": -0.3917881275,
				"element": "C" 
			},
			{
				"x": 1.0779318134,
				"y": -0.8803980555,
				"z": -1.6645275172,
				"element": "C" 
			},
			{
				"x": 1.321933332,
				"y": -2.3830464922,
				"z": -1.937626497,
				"element": "C" 
			},
			{
				"x": 1.1721861437,
				"y": -3.1687160373,
				"z": -0.7659740574,
				"element": "O" 
			},
			{
				"x": 1.7868116662,
				"y": -2.561911833,
				"z": 0.3631169086,
				"element": "C" 
			},
			{
				"x": 1.0349045233,
				"y": -1.2782341175,
				"z": 0.7933014517,
				"element": "C" 
			},
			{
				"x": -0.1373559892,
				"y": 0.782528028,
				"z": -0.108777946,
				"element": "C" 
			},
			{
				"x": 0.4130393584,
				"y": 1.8484321975,
				"z": -0.8323488424,
				"element": "C" 
			},
			{
				"x": 0.0942054185,
				"y": 3.1742429816,
				"z": -0.5292747088,
				"element": "C" 
			},
			{
				"x": -0.7892202424,
				"y": 3.4417226828,
				"z": 0.5122026202,
				"element": "C" 
			},
			{
				"x": -1.1968815534,
				"y": 5.1059449411,
				"z": 0.900224456,
				"element": "Cl" 
			},
			{
				"x": -1.3562487271,
				"y": 2.4022804445,
				"z": 1.2497129417,
				"element": "C" 
			},
			{
				"x": -1.0279981867,
				"y": 1.0861763804,
				"z": 0.9354506898,
				"element": "C" 
			},
			{
				"x": -1.2966110173,
				"y": -0.7799684087,
				"z": -2.2861120662,
				"element": "H" 
			},
			{
				"x": 0.6432761271,
				"y": -0.4055239632,
				"z": -2.5537705715,
				"element": "H" 
			},
			{
				"x": 2.0311003864,
				"y": -0.3666481318,
				"z": -1.499639416,
				"element": "H" 
			},
			{
				"x": 0.5874044247,
				"y": -2.7752161725,
				"z": -2.6467507366,
				"element": "H" 
			},
			{
				"x": 2.3244196474,
				"y": -2.5232775031,
				"z": -2.3733294663,
				"element": "H" 
			},
			{
				"x": 1.7674257545,
				"y": -3.3108090407,
				"z": 1.1580560568,
				"element": "H" 
			},
			{
				"x": 2.8432923639,
				"y": -2.3394320403,
				"z": 0.1404987731,
				"element": "H" 
			},
			{
				"x": 1.7494295868,
				"y": -0.5251240755,
				"z": 1.1413195308,
				"element": "H" 
			},
			{
				"x": 0.3451242434,
				"y": -1.4938170485,
				"z": 1.6106856358,
				"element": "H" 
			},
			{
				"x": 1.1081924174,
				"y": 1.6661043851,
				"z": -1.6443013362,
				"element": "H" 
			},
			{
				"x": 0.5292054422,
				"y": 3.9888327534,
				"z": -1.097800088,
				"element": "H" 
			},
			{
				"x": -2.047953765,
				"y": 2.6204650683,
				"z": 2.055832781,
				"element": "H" 
			},
			{
				"x": -1.482915575,
				"y": 0.2804055398,
				"z": 1.5027425611,
				"element": "H" 
			}
		],
		 "valence_orbital": [ 
			{
				"type": "occ",
				"energy": -0.31109,
				"method": "rhf"
			},
			{
				"type": "occ",
				"energy": -0.27387,
				"method": "rhf"
			},
			{
				"type": "occ",
				"energy": -0.27233,
				"method": "rhf"
			},
			{
				"type": "occ",
				"energy": -0.26208,
				"method": "rhf"
			},
			{
				"type": "occ",
				"energy": -0.248,
				"method": "rhf"
			},
			{
				"type": "unocc",
				"energy": -0.02701,
				"method": "rhf"
			},
			{
				"type": "unocc",
				"energy": -0.0253,
				"method": "rhf"
			},
			{
				"type": "unocc",
				"energy": 0.01482,
				"method": "rhf"
			},
			{
				"type": "unocc",
				"energy": 0.02481,
				"method": "rhf"
			},
			{
				"type": "unocc",
				"energy": 0.03841,
				"method": "rhf"
			}
		],
		"cosmo_sigma_profile": { 
			"-0.025": 0.0,
			"-0.024": 0.0,
			"-0.023": 0.0,
			"-0.022": 0.0,
			"-0.021": 0.0,
			"-0.02": 0.0,
			"-0.019": 0.0189073270101,
			"-0.018": 0.552852914806,
			"-0.017": 0.810284929085,
			"-0.016": 1.07725542548,
			"-0.015": 0.326040627996,
			"-0.014": 0.78690264553,
			"-0.013": 1.19855015364,
			"-0.012": 1.19972523958,
			"-0.011": 1.64642573542,
			"-0.01": 1.16370658744,
			"-0.009": 0.591907401068,
			"-0.008": 1.51836684656,
			"-0.007": 7.00948392417,
			"-0.006": 12.0016092705,
			"-0.005": 19.6449383271,
			"-0.004": 25.1511242416,
			"-0.003": 22.4024425735,
			"-0.002": 18.1124807299,
			"-0.001": 14.1585627567,
			"0.0": 14.5296206699,
			"0.001": 15.5211593896,
			"0.002": 18.1670139735,
			"0.003": 18.7293117807,
			"0.004": 15.4299067701,
			"0.005": 10.1769832215,
			"0.006": 2.42461246054,
			"0.007": 3.59917793042,
			"0.008": 4.06303381249,
			"0.009": 5.23115460576,
			"0.01": 6.11797996874,
			"0.011": 6.36974116078,
			"0.012": 5.44687011048,
			"0.013": 2.41181847663,
			"0.014": 0.079245245813,
			"0.015": 0.0,
			"0.016": 0.0,
			"0.017": 0.0,
			"0.018": 0.0,
			"0.019": 0.0,
			"0.02": 0.0,
			"0.021": 0.0,
			"0.022": 0.0,
			"0.023": 0.0,
			"0.024": 0.0,
			"0.025": 0.0
		}
	}
}
