{
	 "smiles": "CCCCCCCOCC", 
	 "Tm": 204.85, 
	 "num_atms": 30, 
	 "gaussian": { 
		 "optdone": 1, 
		 "sigma_profile": "yes", 
		 "theory": "DFT", 
		 "functional": "B3LYP", 
		 "basiset": "6-31G**", 
		 "properties": { 
			 "R2extent": 3477.6606, 
			 "electric_dipole_moment_norm": 1.04990575291, 
			 "electric_quadrupole_moment_norm": 5.79797561913, 
			 "total_energy": -430.247381994, 
			 "HOMO_LUMO_gap": 0.32531, 
			 "cosmo_polarized_energy": -3.59, 
			 "cosmo_cavitation_energy": 30.77, 
			 "cosmo_dispersion_energy": -21.7, 
			 "cosmo_repulsion_energy": 1.84, 
			 "cosmo_total_nonelectrostatic_energy": 10.91, 
			 "SMD_solvation_energy": 4.86 
		},
		"coords": [
			{
				"x": 0.5896367899,
				"y": -1.9287338807,
				"z": 3.6975142508,
				"element": "C" 
			},
			{
				"x": 0.7398719875,
				"y": -2.5118752346,
				"z": 2.2874624751,
				"element": "C" 
			},
			{
				"x": -0.2851742802,
				"y": -1.9815643554,
				"z": 1.2691212304,
				"element": "C" 
			},
			{
				"x": -0.2248080238,
				"y": -0.4718009909,
				"z": 0.9768702243,
				"element": "C" 
			},
			{
				"x": 1.0839105163,
				"y": 0.0011821052,
				"z": 0.3302655114,
				"element": "C" 
			},
			{
				"x": 1.0749002508,
				"y": 1.4916572823,
				"z": -0.0302809019,
				"element": "C" 
			},
			{
				"x": 2.3668252418,
				"y": 1.9583857313,
				"z": -0.7107054465,
				"element": "C" 
			},
			{
				"x": 2.6729623002,
				"y": 1.2641581202,
				"z": -1.912218878,
				"element": "O" 
			},
			{
				"x": 1.9156998651,
				"y": 1.6716600584,
				"z": -3.040754807,
				"element": "C" 
			},
			{
				"x": 2.4528857033,
				"y": 0.9397432612,
				"z": -4.2604868156,
				"element": "C" 
			},
			{
				"x": 0.767693524,
				"y": -0.8483478869,
				"z": 3.7149468645,
				"element": "H" 
			},
			{
				"x": 1.300973062,
				"y": -2.3879890932,
				"z": 4.3919681143,
				"element": "H" 
			},
			{
				"x": -0.4186473947,
				"y": -2.1027478678,
				"z": 4.0916244456,
				"element": "H" 
			},
			{
				"x": 0.6366918427,
				"y": -3.603309773,
				"z": 2.3409623028,
				"element": "H" 
			},
			{
				"x": 1.7580479396,
				"y": -2.3273454964,
				"z": 1.9220925328,
				"element": "H" 
			},
			{
				"x": -0.156479781,
				"y": -2.5270376219,
				"z": 0.3241586783,
				"element": "H" 
			},
			{
				"x": -1.2941059646,
				"y": -2.2293245597,
				"z": 1.6271868236,
				"element": "H" 
			},
			{
				"x": -0.401302244,
				"y": 0.0954310205,
				"z": 1.9009655979,
				"element": "H" 
			},
			{
				"x": -1.0600439143,
				"y": -0.2171383661,
				"z": 0.3098887564,
				"element": "H" 
			},
			{
				"x": 1.9295543842,
				"y": -0.1937586851,
				"z": 1.0037025119,
				"element": "H" 
			},
			{
				"x": 1.2813135941,
				"y": -0.581577329,
				"z": -0.5781678136,
				"element": "H" 
			},
			{
				"x": 0.9350207762,
				"y": 2.0975361685,
				"z": 0.8761085743,
				"element": "H" 
			},
			{
				"x": 0.2129568519,
				"y": 1.7120202701,
				"z": -0.6743245923,
				"element": "H" 
			},
			{
				"x": 2.3223836546,
				"y": 3.043637694,
				"z": -0.9017218731,
				"element": "H" 
			},
			{
				"x": 3.2189245972,
				"y": 1.7760327832,
				"z": -0.0450096914,
				"element": "H" 
			},
			{
				"x": 2.0006582164,
				"y": 2.7636276116,
				"z": -3.1765196303,
				"element": "H" 
			},
			{
				"x": 0.845814991,
				"y": 1.4466001403,
				"z": -2.9058480411,
				"element": "H" 
			},
			{
				"x": 3.5101146937,
				"y": 1.1750399656,
				"z": -4.413340001,
				"element": "H" 
			},
			{
				"x": 2.3598257351,
				"y": -0.1423635926,
				"z": -4.1293348138,
				"element": "H" 
			},
			{
				"x": 1.8966950853,
				"y": 1.2295025206,
				"z": -5.1577255887,
				"element": "H" 
			}
		],
		 "valence_orbital": [ 
			{
				"type": "occ",
				"energy": -0.31322,
				"method": "rhf"
			},
			{
				"type": "occ",
				"energy": -0.30955,
				"method": "rhf"
			},
			{
				"type": "occ",
				"energy": -0.30618,
				"method": "rhf"
			},
			{
				"type": "occ",
				"energy": -0.29783,
				"method": "rhf"
			},
			{
				"type": "occ",
				"energy": -0.24569,
				"method": "rhf"
			},
			{
				"type": "unocc",
				"energy": 0.07962,
				"method": "rhf"
			},
			{
				"type": "unocc",
				"energy": 0.0962,
				"method": "rhf"
			},
			{
				"type": "unocc",
				"energy": 0.11034,
				"method": "rhf"
			},
			{
				"type": "unocc",
				"energy": 0.1196,
				"method": "rhf"
			},
			{
				"type": "unocc",
				"energy": 0.1257,
				"method": "rhf"
			}
		],
		"cosmo_sigma_profile": { 
			"-0.025": 0.0,
			"-0.024": 0.0,
			"-0.023": 0.0,
			"-0.022": 0.0,
			"-0.021": 0.0,
			"-0.02": 0.0,
			"-0.019": 0.0,
			"-0.018": 0.0,
			"-0.017": 0.0,
			"-0.016": 0.0,
			"-0.015": 0.0,
			"-0.014": 0.0,
			"-0.013": 0.0,
			"-0.012": 0.0,
			"-0.011": 0.0,
			"-0.01": 0.0,
			"-0.009": 0.0,
			"-0.008": 0.0,
			"-0.007": 0.0,
			"-0.006": 0.0,
			"-0.005": 0.0,
			"-0.004": 2.80695284492,
			"-0.003": 20.6978147786,
			"-0.002": 43.4443767892,
			"-0.001": 48.4792906153,
			"0.0": 45.6608115385,
			"0.001": 40.1205324891,
			"0.002": 16.585736726,
			"0.003": 2.50322485735,
			"0.004": 1.77307060269,
			"0.005": 2.00887426078,
			"0.006": 2.12063794995,
			"0.007": 1.43327371114,
			"0.008": 1.60745763935,
			"0.009": 1.39257920424,
			"0.01": 1.07168100022,
			"0.011": 1.15398324989,
			"0.012": 1.15498309199,
			"0.013": 1.13527006305,
			"0.014": 0.814309092168,
			"0.015": 0.012703224634,
			"0.016": 0.0,
			"0.017": 0.0,
			"0.018": 0.0,
			"0.019": 0.0,
			"0.02": 0.0,
			"0.021": 0.0,
			"0.022": 0.0,
			"0.023": 0.0,
			"0.024": 0.0,
			"0.025": 0.0
		}
	}
}
