{
	 "smiles": "CON=C(/C)C1=C(C(=O)OC)C(OC2=NC(OC)=CC(OC)=N2)=CC=C1", 
	 "Tm": 380.15, 
	 "num_atms": 45, 
	 "gaussian": { 
		 "optdone": 1, 
		 "sigma_profile": "yes", 
		 "theory": "DFT", 
		 "functional": "B3LYP", 
		 "basiset": "6-31G**", 
		 "properties": { 
			 "R2extent": 10463.9795, 
			 "electric_dipole_moment_norm": 3.10837674036, 
			 "electric_quadrupole_moment_norm": 13.5398159186, 
			 "total_energy": -1274.79313436, 
			 "HOMO_LUMO_gap": 0.18724, 
			 "cosmo_polarized_energy": -19.13, 
			 "cosmo_cavitation_energy": 50.34, 
			 "cosmo_dispersion_energy": -32.13, 
			 "cosmo_repulsion_energy": 2.49, 
			 "cosmo_total_nonelectrostatic_energy": 20.7, 
			 "SMD_solvation_energy": 11.19 
		},
		"coords": [
			{
				"x": 2.5010254056,
				"y": 5.1806339189,
				"z": 1.3321719132,
				"element": "C" 
			},
			{
				"x": 3.1787503059,
				"y": 3.9402661928,
				"z": 1.5093923922,
				"element": "O" 
			},
			{
				"x": 2.850966178,
				"y": 3.0908880428,
				"z": 0.4501088178,
				"element": "N" 
			},
			{
				"x": 3.4989740198,
				"y": 1.9809795495,
				"z": 0.5181857417,
				"element": "C" 
			},
			{
				"x": 4.5038084346,
				"y": 1.6757288788,
				"z": 1.5998665383,
				"element": "C" 
			},
			{
				"x": 3.2224995211,
				"y": 1.0043976138,
				"z": -0.5690340011,
				"element": "C" 
			},
			{
				"x": 1.9166285109,
				"y": 0.7781703405,
				"z": -1.0580923701,
				"element": "C" 
			},
			{
				"x": 0.7044683114,
				"y": 1.3949729301,
				"z": -0.4224585135,
				"element": "C" 
			},
			{
				"x": -0.1519967679,
				"y": 2.0080510148,
				"z": -1.0187728237,
				"element": "O" 
			},
			{
				"x": 0.6474039335,
				"y": 1.1303465046,
				"z": 0.9046773797,
				"element": "O" 
			},
			{
				"x": -0.4609939091,
				"y": 1.7351655662,
				"z": 1.5880945619,
				"element": "C" 
			},
			{
				"x": 1.7521126225,
				"y": -0.0613100341,
				"z": -2.1723026448,
				"element": "C" 
			},
			{
				"x": 0.523446284,
				"y": -0.2502556464,
				"z": -2.7872976394,
				"element": "O" 
			},
			{
				"x": -0.4667378541,
				"y": -0.9454324123,
				"z": -2.1694374955,
				"element": "C" 
			},
			{
				"x": -0.2165230462,
				"y": -1.4754719615,
				"z": -0.977989661,
				"element": "N" 
			},
			{
				"x": -1.2355019037,
				"y": -2.1467380468,
				"z": -0.42294197,
				"element": "C" 
			},
			{
				"x": -1.064478102,
				"y": -2.6998637582,
				"z": 0.7879432166,
				"element": "O" 
			},
			{
				"x": 0.2182317926,
				"y": -2.5376919342,
				"z": 1.4125563169,
				"element": "C" 
			},
			{
				"x": -2.4728588994,
				"y": -2.2985824624,
				"z": -1.0459511498,
				"element": "C" 
			},
			{
				"x": -2.5801079044,
				"y": -1.6956697462,
				"z": -2.3030025179,
				"element": "C" 
			},
			{
				"x": -3.7497861912,
				"y": -1.814101665,
				"z": -2.9499083195,
				"element": "O" 
			},
			{
				"x": -3.86322052,
				"y": -1.1775494646,
				"z": -4.2304692093,
				"element": "C" 
			},
			{
				"x": -1.5853944837,
				"y": -1.0155665782,
				"z": -2.8819352148,
				"element": "N" 
			},
			{
				"x": 2.8389234829,
				"y": -0.6904941478,
				"z": -2.7735828004,
				"element": "C" 
			},
			{
				"x": 4.1202414837,
				"y": -0.4842357773,
				"z": -2.2690413874,
				"element": "C" 
			},
			{
				"x": 4.308990978,
				"y": 0.3551931262,
				"z": -1.1753655807,
				"element": "C" 
			},
			{
				"x": 1.4149902449,
				"y": 5.0382439308,
				"z": 1.3060139768,
				"element": "H" 
			},
			{
				"x": 2.7752386655,
				"y": 5.7909951162,
				"z": 2.1954985619,
				"element": "H" 
			},
			{
				"x": 2.8194177498,
				"y": 5.6775730291,
				"z": 0.4093175016,
				"element": "H" 
			},
			{
				"x": 5.3181438365,
				"y": 2.4078019547,
				"z": 1.5914601626,
				"element": "H" 
			},
			{
				"x": 4.0191776063,
				"y": 1.7634447651,
				"z": 2.577611619,
				"element": "H" 
			},
			{
				"x": 4.9143150282,
				"y": 0.6707099151,
				"z": 1.4984338659,
				"element": "H" 
			},
			{
				"x": -0.4117882766,
				"y": 2.8241266491,
				"z": 1.5053329895,
				"element": "H" 
			},
			{
				"x": -0.3686928479,
				"y": 1.4269376303,
				"z": 2.6296191993,
				"element": "H" 
			},
			{
				"x": -1.4088768396,
				"y": 1.3914732812,
				"z": 1.1669785748,
				"element": "H" 
			},
			{
				"x": 0.4795866399,
				"y": -1.4812276692,
				"z": 1.5064729437,
				"element": "H" 
			},
			{
				"x": 0.9982220926,
				"y": -3.0424203336,
				"z": 0.835416748,
				"element": "H" 
			},
			{
				"x": 0.1163673524,
				"y": -3.0019192274,
				"z": 2.3942544708,
				"element": "H" 
			},
			{
				"x": -3.2892942404,
				"y": -2.8418680034,
				"z": -0.5917935053,
				"element": "H" 
			},
			{
				"x": -3.6983382016,
				"y": -0.1003613181,
				"z": -4.1484898916,
				"element": "H" 
			},
			{
				"x": -3.1395164229,
				"y": -1.5893089014,
				"z": -4.9385845685,
				"element": "H" 
			},
			{
				"x": -4.8812054407,
				"y": -1.3849392252,
				"z": -4.5621284854,
				"element": "H" 
			},
			{
				"x": 2.6579363281,
				"y": -1.3328874245,
				"z": -3.6283391511,
				"element": "H" 
			},
			{
				"x": 4.9715199703,
				"y": -0.969540549,
				"z": -2.7365525329,
				"element": "H" 
			},
			{
				"x": 5.312825072,
				"y": 0.5405363364,
				"z": -0.8069360586,
				"element": "H" 
			}
		],
		 "valence_orbital": [ 
			{
				"type": "occ",
				"energy": -0.26599,
				"method": "rhf"
			},
			{
				"type": "occ",
				"energy": -0.26287,
				"method": "rhf"
			},
			{
				"type": "occ",
				"energy": -0.24853,
				"method": "rhf"
			},
			{
				"type": "occ",
				"energy": -0.23028,
				"method": "rhf"
			},
			{
				"type": "occ",
				"energy": -0.22782,
				"method": "rhf"
			},
			{
				"type": "unocc",
				"energy": -0.04058,
				"method": "rhf"
			},
			{
				"type": "unocc",
				"energy": -0.02298,
				"method": "rhf"
			},
			{
				"type": "unocc",
				"energy": -0.0002,
				"method": "rhf"
			},
			{
				"type": "unocc",
				"energy": 0.00334,
				"method": "rhf"
			},
			{
				"type": "unocc",
				"energy": 0.0213,
				"method": "rhf"
			}
		],
		"cosmo_sigma_profile": { 
			"-0.025": 0.0,
			"-0.024": 0.0,
			"-0.023": 0.0,
			"-0.022": 0.0,
			"-0.021": 0.0,
			"-0.02": 0.0,
			"-0.019": 0.0,
			"-0.018": 0.0,
			"-0.017": 0.0,
			"-0.016": 0.0,
			"-0.015": 0.0,
			"-0.014": 0.0,
			"-0.013": 0.0,
			"-0.012": 0.0,
			"-0.011": 0.0,
			"-0.01": 0.0,
			"-0.009": 0.0,
			"-0.008": 1.80053487996,
			"-0.007": 8.07609765638,
			"-0.006": 21.9063501799,
			"-0.005": 32.0537391756,
			"-0.004": 39.5396339033,
			"-0.003": 46.582206129,
			"-0.002": 35.9098857619,
			"-0.001": 31.5804127268,
			"0.0": 25.0652444027,
			"0.001": 24.6129679315,
			"0.002": 25.6743987509,
			"0.003": 20.7190666637,
			"0.004": 15.8761527448,
			"0.005": 12.2562528966,
			"0.006": 11.4507881329,
			"0.007": 9.65704808111,
			"0.008": 10.5065192538,
			"0.009": 9.35318040945,
			"0.01": 6.19927609323,
			"0.011": 6.20256639457,
			"0.012": 4.26310675191,
			"0.013": 0.911364432974,
			"0.014": 0.0449552770631,
			"0.015": 0.0,
			"0.016": 0.0,
			"0.017": 0.0,
			"0.018": 0.0,
			"0.019": 0.0,
			"0.02": 0.0,
			"0.021": 0.0,
			"0.022": 0.0,
			"0.023": 0.0,
			"0.024": 0.0,
			"0.025": 0.0
		}
	}
}
