{
	 "smiles": "NC(CC1=CC(I)=C(OC2=CC(I)=C(O)C(I)=C2)C(I)=C1)C(O)=O", 
	 "Tm": 509.15, 
	 "num_atms": 35, 
	 "gaussian": { 
		 "optdone": 1, 
		 "sigma_profile": "no", 
		 "theory": "DFT", 
		 "functional": "B3LYP", 
		 "basiset": "6-31G**", 
		 "properties": { 
			 "R2extent": 11696.6508, 
			 "electric_dipole_moment_norm": 5.22482620189, 
			 "electric_quadrupole_moment_norm": 11.2613126593, 
			 "total_energy": -979.402802959, 
			 "HOMO_LUMO_gap": 0.1587, 
			 "cosmo_polarized_energy": -436728.12, 
			 "cosmo_cavitation_energy": 53.03, 
			 "cosmo_dispersion_energy": -38.94, 
			 "cosmo_repulsion_energy": 2.98, 
			 "cosmo_total_nonelectrostatic_energy": 17.06, 
			 "SMD_solvation_energy": 5.69 
		},
		"coords": [
			{
				"x": 4.793435586,
				"y": 0.0387712615,
				"z": -0.9433316478,
				"element": "N" 
			},
			{
				"x": 3.4357507403,
				"y": -0.1076410616,
				"z": -0.4133077459,
				"element": "C" 
			},
			{
				"x": 2.4480218118,
				"y": 0.6455078172,
				"z": -1.3331459771,
				"element": "C" 
			},
			{
				"x": 1.0025872469,
				"y": 0.5073217363,
				"z": -0.9063146983,
				"element": "C" 
			},
			{
				"x": 0.2604884042,
				"y": -0.6232825683,
				"z": -1.2686517852,
				"element": "C" 
			},
			{
				"x": -1.0554543511,
				"y": -0.7783283915,
				"z": -0.8358232814,
				"element": "C" 
			},
			{
				"x": -2.1472864058,
				"y": -2.4815584428,
				"z": -1.444738087,
				"element": "I" 
			},
			{
				"x": -1.66458771,
				"y": 0.191501669,
				"z": -0.0232955699,
				"element": "C" 
			},
			{
				"x": -2.9783982991,
				"y": 0.0675235205,
				"z": 0.351034113,
				"element": "O" 
			},
			{
				"x": -3.29628289,
				"y": -0.5525880374,
				"z": 1.5508238841,
				"element": "C" 
			},
			{
				"x": -2.3494426932,
				"y": -1.0767855314,
				"z": 2.4252466007,
				"element": "C" 
			},
			{
				"x": -2.7884537879,
				"y": -1.6782888715,
				"z": 3.605769378,
				"element": "C" 
			},
			{
				"x": -1.3380666112,
				"y": -2.4747814051,
				"z": 4.9385787496,
				"element": "I" 
			},
			{
				"x": -4.1475511815,
				"y": -1.7747481877,
				"z": 3.9428975695,
				"element": "C" 
			},
			{
				"x": -4.6144427297,
				"y": -2.3485562742,
				"z": 5.0740465284,
				"element": "O" 
			},
			{
				"x": -5.0711579316,
				"y": -1.2312502257,
				"z": 3.0289973635,
				"element": "C" 
			},
			{
				"x": -7.1355285802,
				"y": -1.3351577982,
				"z": 3.4625037355,
				"element": "I" 
			},
			{
				"x": -4.657990452,
				"y": -0.6271003205,
				"z": 1.8476482202,
				"element": "C" 
			},
			{
				"x": -0.9260448199,
				"y": 1.3359091519,
				"z": 0.312562296,
				"element": "C" 
			},
			{
				"x": -1.8153729642,
				"y": 2.8690640306,
				"z": 1.4632102905,
				"element": "I" 
			},
			{
				"x": 0.3910447186,
				"y": 1.490067496,
				"z": -0.1199216276,
				"element": "C" 
			},
			{
				"x": 3.3234091787,
				"y": 0.343000242,
				"z": 1.0444766527,
				"element": "C" 
			},
			{
				"x": 3.5501466344,
				"y": 1.678911996,
				"z": 1.17755365,
				"element": "O" 
			},
			{
				"x": 3.1129598054,
				"y": -0.3774053445,
				"z": 1.993567302,
				"element": "O" 
			},
			{
				"x": 5.4412885177,
				"y": -0.5506684324,
				"z": -0.426589604,
				"element": "H" 
			},
			{
				"x": 5.1081190083,
				"y": 0.9997688944,
				"z": -0.8288030551,
				"element": "H" 
			},
			{
				"x": 3.1838284421,
				"y": -1.1720236967,
				"z": -0.4081061702,
				"element": "H" 
			},
			{
				"x": 2.59387358,
				"y": 0.2479414526,
				"z": -2.3420172264,
				"element": "H" 
			},
			{
				"x": 2.7300294075,
				"y": 1.7032860606,
				"z": -1.3576951661,
				"element": "H" 
			},
			{
				"x": 0.7104543255,
				"y": -1.3846074534,
				"z": -1.8970511258,
				"element": "H" 
			},
			{
				"x": -1.2926005693,
				"y": -1.0211437644,
				"z": 2.1990126697,
				"element": "H" 
			},
			{
				"x": -3.8681691369,
				"y": -2.6770966127,
				"z": 5.6006963594,
				"element": "H" 
			},
			{
				"x": -5.3735875957,
				"y": -0.211068886,
				"z": 1.1493276097,
				"element": "H" 
			},
			{
				"x": 0.9478503535,
				"y": 2.3780322181,
				"z": 0.157016189,
				"element": "H" 
			},
			{
				"x": 3.5026309486,
				"y": 1.8697737592,
				"z": 2.1297236063,
				"element": "H" 
			}
		],
		 "valence_orbital": [ 
			{
				"type": "occ",
				"energy": -0.25822,
				"method": "rhf"
			},
			{
				"type": "occ",
				"energy": -0.25204,
				"method": "rhf"
			},
			{
				"type": "occ",
				"energy": -0.24934,
				"method": "rhf"
			},
			{
				"type": "occ",
				"energy": -0.24354,
				"method": "rhf"
			},
			{
				"type": "occ",
				"energy": -0.22234,
				"method": "rhf"
			},
			{
				"type": "unocc",
				"energy": -0.06364,
				"method": "rhf"
			},
			{
				"type": "unocc",
				"energy": -0.0614,
				"method": "rhf"
			},
			{
				"type": "unocc",
				"energy": -0.04306,
				"method": "rhf"
			},
			{
				"type": "unocc",
				"energy": -0.03421,
				"method": "rhf"
			},
			{
				"type": "unocc",
				"energy": -0.03368,
				"method": "rhf"
			}
		],
		"cosmo_sigma_profile": { 
			"0.0": 0.0,
			"0.0": 0.0,
			"0.0": 0.0,
			"0.0": 0.0,
			"0.0": 0.0,
			"0.0": 0.0,
			"0.0": 0.0,
			"0.0": 0.0,
			"0.0": 0.0,
			"0.0": 0.0,
			"0.0": 0.0,
			"0.0": 0.0,
			"0.0": 0.0,
			"0.0": 0.0,
			"0.0": 0.0,
			"0.0": 0.0,
			"0.0": 0.0,
			"0.0": 0.0,
			"0.0": 0.0,
			"0.0": 0.0,
			"0.0": 0.0,
			"0.0": 0.0,
			"0.0": 0.0,
			"0.0": 0.0,
			"0.0": 0.0,
			"0.0": 0.0,
			"0.0": 0.0,
			"0.0": 0.0,
			"0.0": 0.0,
			"0.0": 0.0,
			"0.0": 0.0,
			"0.0": 0.0,
			"0.0": 0.0,
			"0.0": 0.0,
			"0.0": 0.0,
			"0.0": 0.0,
			"0.0": 0.0,
			"0.0": 0.0,
			"0.0": 0.0,
			"0.0": 0.0,
			"0.0": 0.0,
			"0.0": 0.0,
			"0.0": 0.0,
			"0.0": 0.0,
			"0.0": 0.0,
			"0.0": 0.0,
			"0.0": 0.0,
			"0.0": 0.0,
			"0.0": 0.0,
			"0.0": 0.0,
			"0.0": 0.0
		}
	}
}
