{
	 "smiles": "COC(=O)C(CC1=CNC2=C1C=CC=C2)NC(=O)CCl", 
	 "Tm": 404.15, 
	 "num_atms": 35, 
	 "gaussian": { 
		 "optdone": 1, 
		 "sigma_profile": "yes", 
		 "theory": "DFT", 
		 "functional": "B3LYP", 
		 "basiset": "6-31G**", 
		 "properties": { 
			 "R2extent": 7031.4574, 
			 "electric_dipole_moment_norm": 2.81702029102, 
			 "electric_quadrupole_moment_norm": 23.9454017529, 
			 "total_energy": -1337.9225944, 
			 "HOMO_LUMO_gap": 0.18975, 
			 "cosmo_polarized_energy": -19.64, 
			 "cosmo_cavitation_energy": 40.34, 
			 "cosmo_dispersion_energy": -27.16, 
			 "cosmo_repulsion_energy": 2.13, 
			 "cosmo_total_nonelectrostatic_energy": 15.31, 
			 "SMD_solvation_energy": 7.72 
		},
		"coords": [
			{
				"x": -1.8275348073,
				"y": -2.2123310376,
				"z": -1.6329501266,
				"element": "C" 
			},
			{
				"x": -1.0025049796,
				"y": -1.6552637112,
				"z": -0.5909869881,
				"element": "O" 
			},
			{
				"x": 0.3105488376,
				"y": -1.9159739227,
				"z": -0.6964634451,
				"element": "C" 
			},
			{
				"x": 0.7983762555,
				"y": -2.6080429487,
				"z": -1.5663525647,
				"element": "O" 
			},
			{
				"x": 1.1470194145,
				"y": -1.2815496536,
				"z": 0.4263013541,
				"element": "C" 
			},
			{
				"x": 2.3723928419,
				"y": -0.5303141246,
				"z": -0.172666552,
				"element": "C" 
			},
			{
				"x": 2.0480711979,
				"y": 0.7792716096,
				"z": -0.8365343828,
				"element": "C" 
			},
			{
				"x": 2.1081444318,
				"y": 2.0180666028,
				"z": -0.2380857964,
				"element": "C" 
			},
			{
				"x": 1.7443417355,
				"y": 2.998248329,
				"z": -1.1390064017,
				"element": "N" 
			},
			{
				"x": 1.4417011065,
				"y": 2.4120272622,
				"z": -2.3513638081,
				"element": "C" 
			},
			{
				"x": 1.6210668425,
				"y": 1.0089044616,
				"z": -2.200164102,
				"element": "C" 
			},
			{
				"x": 1.3941031547,
				"y": 0.1744915622,
				"z": -3.311563762,
				"element": "C" 
			},
			{
				"x": 0.9954582803,
				"y": 0.7481473833,
				"z": -4.5124089983,
				"element": "C" 
			},
			{
				"x": 0.8160599253,
				"y": 2.1417365548,
				"z": -4.6349392996,
				"element": "C" 
			},
			{
				"x": 1.0371859413,
				"y": 2.9922576106,
				"z": -3.5587778095,
				"element": "C" 
			},
			{
				"x": 0.4147551505,
				"y": -0.4071546343,
				"z": 1.318335676,
				"element": "N" 
			},
			{
				"x": -0.4093920526,
				"y": -0.7324958138,
				"z": 2.3577670414,
				"element": "C" 
			},
			{
				"x": -1.1184642447,
				"y": 0.0970168158,
				"z": 2.9097829572,
				"element": "O" 
			},
			{
				"x": -0.435028003,
				"y": -2.1875879888,
				"z": 2.8288639544,
				"element": "C" 
			},
			{
				"x": 1.1323538333,
				"y": -2.7163933195,
				"z": 3.5862264912,
				"element": "Cl" 
			},
			{
				"x": -1.5493044122,
				"y": -1.7846170251,
				"z": -2.5988836943,
				"element": "H" 
			},
			{
				"x": -2.8498048505,
				"y": -1.9405701405,
				"z": -1.372483115,
				"element": "H" 
			},
			{
				"x": -1.7114045068,
				"y": -3.2976155138,
				"z": -1.6756364371,
				"element": "H" 
			},
			{
				"x": 1.5470718455,
				"y": -2.124632972,
				"z": 0.9987603965,
				"element": "H" 
			},
			{
				"x": 3.0732568608,
				"y": -0.3617894508,
				"z": 0.6506811085,
				"element": "H" 
			},
			{
				"x": 2.8534887777,
				"y": -1.2124506865,
				"z": -0.878795124,
				"element": "H" 
			},
			{
				"x": 2.409411624,
				"y": 2.2789943408,
				"z": 0.7674123372,
				"element": "H" 
			},
			{
				"x": 1.7181642743,
				"y": 3.9856608446,
				"z": -0.9439456287,
				"element": "H" 
			},
			{
				"x": 1.5220938835,
				"y": -0.8998480866,
				"z": -3.227940708,
				"element": "H" 
			},
			{
				"x": 0.8200564501,
				"y": 0.1134954559,
				"z": -5.3761917958,
				"element": "H" 
			},
			{
				"x": 0.5028098719,
				"y": 2.5583075976,
				"z": -5.5877741164,
				"element": "H" 
			},
			{
				"x": 0.9042299366,
				"y": 4.0664265727,
				"z": -3.6525532428,
				"element": "H" 
			},
			{
				"x": 0.3073375968,
				"y": 0.5516406823,
				"z": 1.0051624215,
				"element": "H" 
			},
			{
				"x": -0.6460671809,
				"y": -2.8821048185,
				"z": 2.0138828432,
				"element": "H" 
			},
			{
				"x": -1.2000950327,
				"y": -2.2639578373,
				"z": 3.5975913179,
				"element": "H" 
			}
		],
		 "valence_orbital": [ 
			{
				"type": "occ",
				"energy": -0.27861,
				"method": "rhf"
			},
			{
				"type": "occ",
				"energy": -0.25581,
				"method": "rhf"
			},
			{
				"type": "occ",
				"energy": -0.24959,
				"method": "rhf"
			},
			{
				"type": "occ",
				"energy": -0.22681,
				"method": "rhf"
			},
			{
				"type": "occ",
				"energy": -0.20923,
				"method": "rhf"
			},
			{
				"type": "unocc",
				"energy": -0.01948,
				"method": "rhf"
			},
			{
				"type": "unocc",
				"energy": -0.01518,
				"method": "rhf"
			},
			{
				"type": "unocc",
				"energy": -0.00476,
				"method": "rhf"
			},
			{
				"type": "unocc",
				"energy": 0.0232,
				"method": "rhf"
			},
			{
				"type": "unocc",
				"energy": 0.04613,
				"method": "rhf"
			}
		],
		"cosmo_sigma_profile": { 
			"-0.025": 0.0,
			"-0.024": 0.0,
			"-0.023": 0.0,
			"-0.022": 0.0,
			"-0.021": 0.0,
			"-0.02": 0.0,
			"-0.019": 0.0,
			"-0.018": 0.0,
			"-0.017": 0.0,
			"-0.016": 0.557630715043,
			"-0.015": 1.58753974041,
			"-0.014": 1.45825604946,
			"-0.013": 0.948845144895,
			"-0.012": 1.29507559778,
			"-0.011": 1.45653188631,
			"-0.01": 2.15845504957,
			"-0.009": 4.54493682667,
			"-0.008": 7.54198990159,
			"-0.007": 9.69148006785,
			"-0.006": 16.0230392934,
			"-0.005": 23.2361056088,
			"-0.004": 25.815672275,
			"-0.003": 22.6544245208,
			"-0.002": 20.8879614736,
			"-0.001": 19.5693430015,
			"0.0": 18.0898209533,
			"0.001": 18.2772780273,
			"0.002": 18.0336985147,
			"0.003": 17.9294272563,
			"0.004": 20.5359227726,
			"0.005": 21.445399629,
			"0.006": 13.9869918449,
			"0.007": 9.09904758739,
			"0.008": 2.9071761714,
			"0.009": 2.43684603293,
			"0.01": 3.71720901893,
			"0.011": 4.66760905484,
			"0.012": 5.66026200812,
			"0.013": 5.31427967036,
			"0.014": 0.979484705228,
			"0.015": 0.0,
			"0.016": 0.0,
			"0.017": 0.0,
			"0.018": 0.0,
			"0.019": 0.0,
			"0.02": 0.0,
			"0.021": 0.0,
			"0.022": 0.0,
			"0.023": 0.0,
			"0.024": 0.0,
			"0.025": 0.0
		}
	}
}
