{
	 "smiles": "CC(C)C1=CC=C(C=C1)C1=NN=C(N)S1", 
	 "Tm": 479.15, 
	 "num_atms": 28, 
	 "gaussian": { 
		 "optdone": 1, 
		 "sigma_profile": "yes", 
		 "theory": "DFT", 
		 "functional": "B3LYP", 
		 "basiset": "6-31G**", 
		 "properties": { 
			 "R2extent": 6245.9123, 
			 "electric_dipole_moment_norm": 2.96961895367, 
			 "electric_quadrupole_moment_norm": 27.4696740048, 
			 "total_energy": -989.439264207, 
			 "HOMO_LUMO_gap": 0.16681, 
			 "cosmo_polarized_energy": -14.82, 
			 "cosmo_cavitation_energy": 33.13, 
			 "cosmo_dispersion_energy": -24.57, 
			 "cosmo_repulsion_energy": 1.88, 
			 "cosmo_total_nonelectrostatic_energy": 10.45, 
			 "SMD_solvation_energy": 3.61 
		},
		"coords": [
			{
				"x": -3.6545321627,
				"y": -1.0007843994,
				"z": -0.6798330368,
				"element": "C" 
			},
			{
				"x": -2.9466097117,
				"y": 0.0991489199,
				"z": 0.1342093064,
				"element": "C" 
			},
			{
				"x": -3.1103765327,
				"y": 1.4764657475,
				"z": -0.5365721223,
				"element": "C" 
			},
			{
				"x": -1.4837713629,
				"y": -0.2366801788,
				"z": 0.3870014549,
				"element": "C" 
			},
			{
				"x": -0.5705542117,
				"y": -0.3774455813,
				"z": -0.668214073,
				"element": "C" 
			},
			{
				"x": 0.7660744988,
				"y": -0.683766015,
				"z": -0.4302602549,
				"element": "C" 
			},
			{
				"x": 1.2389043698,
				"y": -0.8624822129,
				"z": 0.8793653104,
				"element": "C" 
			},
			{
				"x": 0.3304174268,
				"y": -0.7234060089,
				"z": 1.9426794712,
				"element": "C" 
			},
			{
				"x": -1.002614582,
				"y": -0.4159714741,
				"z": 1.6921754722,
				"element": "C" 
			},
			{
				"x": 2.6390537854,
				"y": -1.1859356961,
				"z": 1.1681131261,
				"element": "C" 
			},
			{
				"x": 3.1253482306,
				"y": -1.3414358436,
				"z": 2.3653634685,
				"element": "N" 
			},
			{
				"x": 4.4496563214,
				"y": -1.6643258831,
				"z": 2.4074794643,
				"element": "N" 
			},
			{
				"x": 4.986226966,
				"y": -1.7410795896,
				"z": 1.217707755,
				"element": "C" 
			},
			{
				"x": 6.324494585,
				"y": -1.9723346512,
				"z": 1.0087651572,
				"element": "N" 
			},
			{
				"x": 3.8686579932,
				"y": -1.4176321065,
				"z": -0.1013610039,
				"element": "S" 
			},
			{
				"x": -4.7185097515,
				"y": -0.7685094321,
				"z": -0.7984102294,
				"element": "H" 
			},
			{
				"x": -3.2218510995,
				"y": -1.0947589248,
				"z": -1.681985566,
				"element": "H" 
			},
			{
				"x": -3.5705558355,
				"y": -1.9746851822,
				"z": -0.1878331932,
				"element": "H" 
			},
			{
				"x": -3.4373627757,
				"y": 0.1502726183,
				"z": 1.1149677703,
				"element": "H" 
			},
			{
				"x": -4.1709015039,
				"y": 1.7245776222,
				"z": -0.6540300077,
				"element": "H" 
			},
			{
				"x": -2.6389584872,
				"y": 2.2655225831,
				"z": 0.0573171313,
				"element": "H" 
			},
			{
				"x": -2.654063727,
				"y": 1.4907195549,
				"z": -1.5325359127,
				"element": "H" 
			},
			{
				"x": -0.9037872848,
				"y": -0.2455101786,
				"z": -1.6939459072,
				"element": "H" 
			},
			{
				"x": 1.4445671687,
				"y": -0.7824639282,
				"z": -1.2735677153,
				"element": "H" 
			},
			{
				"x": 0.6887969553,
				"y": -0.8598404708,
				"z": 2.9569679999,
				"element": "H" 
			},
			{
				"x": -1.6882498623,
				"y": -0.3129134855,
				"z": 2.5298096344,
				"element": "H" 
			},
			{
				"x": 6.7993922296,
				"y": -2.2806483134,
				"z": 1.8481598495,
				"element": "H" 
			},
			{
				"x": 6.5754083605,
				"y": -2.4947974897,
				"z": 0.1816666511,
				"element": "H" 
			}
		],
		 "valence_orbital": [ 
			{
				"type": "occ",
				"energy": -0.28983,
				"method": "rhf"
			},
			{
				"type": "occ",
				"energy": -0.26183,
				"method": "rhf"
			},
			{
				"type": "occ",
				"energy": -0.25427,
				"method": "rhf"
			},
			{
				"type": "occ",
				"energy": -0.25283,
				"method": "rhf"
			},
			{
				"type": "occ",
				"energy": -0.21219,
				"method": "rhf"
			},
			{
				"type": "unocc",
				"energy": -0.04538,
				"method": "rhf"
			},
			{
				"type": "unocc",
				"energy": -0.00405,
				"method": "rhf"
			},
			{
				"type": "unocc",
				"energy": 0.00067,
				"method": "rhf"
			},
			{
				"type": "unocc",
				"energy": 0.0221,
				"method": "rhf"
			},
			{
				"type": "unocc",
				"energy": 0.0633,
				"method": "rhf"
			}
		],
		"cosmo_sigma_profile": { 
			"-0.025": 0.0,
			"-0.024": 0.0,
			"-0.023": 0.0,
			"-0.022": 0.0,
			"-0.021": 0.0,
			"-0.02": 0.0,
			"-0.019": 0.0,
			"-0.018": 0.0,
			"-0.017": 0.0,
			"-0.016": 0.0283070678066,
			"-0.015": 1.15548882446,
			"-0.014": 2.80724713802,
			"-0.013": 2.6291210875,
			"-0.012": 2.49584141932,
			"-0.011": 2.60892769831,
			"-0.01": 2.52444568029,
			"-0.009": 1.67873462185,
			"-0.008": 1.87590136358,
			"-0.007": 2.44881012155,
			"-0.006": 5.20204206706,
			"-0.005": 11.6638693979,
			"-0.004": 13.2685834251,
			"-0.003": 19.9660782327,
			"-0.002": 22.9140515581,
			"-0.001": 26.934859515,
			"0.0": 27.753087277,
			"0.001": 30.5687284586,
			"0.002": 19.4186035098,
			"0.003": 15.2754405785,
			"0.004": 13.9270692813,
			"0.005": 11.1438558662,
			"0.006": 3.03318316834,
			"0.007": 2.53231027103,
			"0.008": 2.9681884665,
			"0.009": 2.61368492442,
			"0.01": 2.94187871627,
			"0.011": 2.90629473426,
			"0.012": 3.50969994074,
			"0.013": 2.93124389888,
			"0.014": 1.78011396569,
			"0.015": 0.954404492408,
			"0.016": 0.138834988337,
			"0.017": 0.0,
			"0.018": 0.0,
			"0.019": 0.0,
			"0.02": 0.0,
			"0.021": 0.0,
			"0.022": 0.0,
			"0.023": 0.0,
			"0.024": 0.0,
			"0.025": 0.0
		}
	}
}
