{
	 "smiles": "COC1=CC(I)=C(OC)C=C1I", 
	 "Tm": 445.15, 
	 "num_atms": 20, 
	 "gaussian": { 
		 "optdone": 1, 
		 "sigma_profile": "no", 
		 "theory": "DFT", 
		 "functional": "B3LYP", 
		 "basiset": "6-31G**", 
		 "properties": { 
			 "R2extent": 3436.893, 
			 "electric_dipole_moment_norm": 0.0001, 
			 "electric_quadrupole_moment_norm": 16.7160112273, 
			 "total_energy": -482.859321785, 
			 "HOMO_LUMO_gap": 0.17178, 
			 "cosmo_polarized_energy": -167199.72, 
			 "cosmo_cavitation_energy": 30.07, 
			 "cosmo_dispersion_energy": -24.55, 
			 "cosmo_repulsion_energy": 1.93, 
			 "cosmo_total_nonelectrostatic_energy": 7.45, 
			 "SMD_solvation_energy": 5.03 
		},
		"coords": [
			{
				"x": 0.0739425592,
				"y": -1.3665350884,
				"z": -1.7714710444,
				"element": "C" 
			},
			{
				"x": -0.4577826453,
				"y": -1.2850461404,
				"z": -0.4570982458,
				"element": "O" 
			},
			{
				"x": -0.7571456712,
				"y": -0.0602505592,
				"z": 0.0493985604,
				"element": "C" 
			},
			{
				"x": -0.5738181217,
				"y": 1.143260524,
				"z": -0.6466349634,
				"element": "C" 
			},
			{
				"x": -0.9038114047,
				"y": 2.3644537035,
				"z": -0.0626969932,
				"element": "C" 
			},
			{
				"x": -0.6034517942,
				"y": 4.1420408289,
				"z": -1.164905227,
				"element": "I" 
			},
			{
				"x": -1.4285547535,
				"y": 2.4271888797,
				"z": 1.2368731692,
				"element": "C" 
			},
			{
				"x": -1.7279186933,
				"y": 3.6519838409,
				"z": 1.7433702831,
				"element": "O" 
			},
			{
				"x": -2.2596001492,
				"y": 3.7334770521,
				"z": 3.0577599275,
				"element": "C" 
			},
			{
				"x": -1.6118841604,
				"y": 1.2236772315,
				"z": 1.9329057716,
				"element": "C" 
			},
			{
				"x": -1.2818894491,
				"y": 0.0024849264,
				"z": 1.3489686225,
				"element": "C" 
			},
			{
				"x": -1.5822447942,
				"y": -1.7751018331,
				"z": 2.4511797712,
				"element": "I" 
			},
			{
				"x": -0.6266000867,
				"y": -0.9674339392,
				"z": -2.5158853201,
				"element": "H" 
			},
			{
				"x": 0.2335123731,
				"y": -2.4284982197,
				"z": -1.960768741,
				"element": "H" 
			},
			{
				"x": 1.0312712844,
				"y": -0.836425509,
				"z": -1.8533228658,
				"element": "H" 
			},
			{
				"x": -0.1714103546,
				"y": 1.133323041,
				"z": -1.650845621,
				"element": "H" 
			},
			{
				"x": -3.2169357026,
				"y": 3.2033847776,
				"z": 3.1396400101,
				"element": "H" 
			},
			{
				"x": -2.4191452492,
				"y": 4.7954411001,
				"z": 3.2470663423,
				"element": "H" 
			},
			{
				"x": -1.5590406147,
				"y": 3.334360653,
				"z": 3.8021497525,
				"element": "H" 
			},
			{
				"x": -2.0142925719,
				"y": 1.2336147303,
				"z": 2.9371168112,
				"element": "H" 
			}
		],
		 "valence_orbital": [ 
			{
				"type": "occ",
				"energy": -0.26565,
				"method": "rhf"
			},
			{
				"type": "occ",
				"energy": -0.2635,
				"method": "rhf"
			},
			{
				"type": "occ",
				"energy": -0.26344,
				"method": "rhf"
			},
			{
				"type": "occ",
				"energy": -0.24243,
				"method": "rhf"
			},
			{
				"type": "occ",
				"energy": -0.21214,
				"method": "rhf"
			},
			{
				"type": "unocc",
				"energy": -0.04036,
				"method": "rhf"
			},
			{
				"type": "unocc",
				"energy": -0.03306,
				"method": "rhf"
			},
			{
				"type": "unocc",
				"energy": -0.02853,
				"method": "rhf"
			},
			{
				"type": "unocc",
				"energy": 0.00512,
				"method": "rhf"
			},
			{
				"type": "unocc",
				"energy": 0.03562,
				"method": "rhf"
			}
		],
		"cosmo_sigma_profile": { 
			"0.0": 0.0,
			"0.0": 0.0,
			"0.0": 0.0,
			"0.0": 0.0,
			"0.0": 0.0,
			"0.0": 0.0,
			"0.0": 0.0,
			"0.0": 0.0,
			"0.0": 0.0,
			"0.0": 0.0,
			"0.0": 0.0,
			"0.0": 0.0,
			"0.0": 0.0,
			"0.0": 0.0,
			"0.0": 0.0,
			"0.0": 0.0,
			"0.0": 0.0,
			"0.0": 0.0,
			"0.0": 0.0,
			"0.0": 0.0,
			"0.0": 0.0,
			"0.0": 0.0,
			"0.0": 0.0,
			"0.0": 0.0,
			"0.0": 0.0,
			"0.0": 0.0,
			"0.0": 0.0,
			"0.0": 0.0,
			"0.0": 0.0,
			"0.0": 0.0,
			"0.0": 0.0,
			"0.0": 0.0,
			"0.0": 0.0,
			"0.0": 0.0,
			"0.0": 0.0,
			"0.0": 0.0,
			"0.0": 0.0,
			"0.0": 0.0,
			"0.0": 0.0,
			"0.0": 0.0,
			"0.0": 0.0,
			"0.0": 0.0,
			"0.0": 0.0,
			"0.0": 0.0,
			"0.0": 0.0,
			"0.0": 0.0,
			"0.0": 0.0,
			"0.0": 0.0,
			"0.0": 0.0,
			"0.0": 0.0,
			"0.0": 0.0
		}
	}
}
