{
	 "smiles": "NC1CCCC1", 
	 "Tm": 188.95, 
	 "num_atms": 17, 
	 "gaussian": { 
		 "optdone": 1, 
		 "sigma_profile": "yes", 
		 "theory": "DFT", 
		 "functional": "B3LYP", 
		 "basiset": "6-31G**", 
		 "properties": { 
			 "R2extent": 772.5142, 
			 "electric_dipole_moment_norm": 1.27522924998, 
			 "electric_quadrupole_moment_norm": 6.90332773595, 
			 "total_energy": -251.914810099, 
			 "HOMO_LUMO_gap": 0.30557, 
			 "cosmo_polarized_energy": -4.78, 
			 "cosmo_cavitation_energy": 18.03, 
			 "cosmo_dispersion_energy": -13.88, 
			 "cosmo_repulsion_energy": 1.21, 
			 "cosmo_total_nonelectrostatic_energy": 5.37, 
			 "SMD_solvation_energy": 1.39 
		},
		"coords": [
			{
				"x": -0.1720403725,
				"y": 0.8391784024,
				"z": 2.9964431013,
				"element": "N" 
			},
			{
				"x": 0.2055908722,
				"y": 0.4727344853,
				"z": 1.6327221462,
				"element": "C" 
			},
			{
				"x": -0.6101552298,
				"y": 1.0684814494,
				"z": 0.4638064684,
				"element": "C" 
			},
			{
				"x": -0.2156219738,
				"y": 0.2031247496,
				"z": -0.7482514722,
				"element": "C" 
			},
			{
				"x": 0.1263720503,
				"y": -1.2027121386,
				"z": -0.1585506748,
				"element": "C" 
			},
			{
				"x": 0.0856651767,
				"y": -1.0407703568,
				"z": 1.3802481465,
				"element": "C" 
			},
			{
				"x": -1.1594689048,
				"y": 0.6318094851,
				"z": 3.1406200145,
				"element": "H" 
			},
			{
				"x": -0.0725274779,
				"y": 1.8435748291,
				"z": 3.1273489699,
				"element": "H" 
			},
			{
				"x": 1.2575572799,
				"y": 0.766557977,
				"z": 1.5024816005,
				"element": "H" 
			},
			{
				"x": -0.4260017895,
				"y": 2.1379348432,
				"z": 0.3110442352,
				"element": "H" 
			},
			{
				"x": -1.6799254641,
				"y": 0.9506147796,
				"z": 0.6893209721,
				"element": "H" 
			},
			{
				"x": -1.0048427886,
				"y": 0.1593817116,
				"z": -1.5049044619,
				"element": "H" 
			},
			{
				"x": 0.6660915116,
				"y": 0.6286857427,
				"z": -1.2403839541,
				"element": "H" 
			},
			{
				"x": -0.5792382822,
				"y": -1.9673494842,
				"z": -0.4975586873,
				"element": "H" 
			},
			{
				"x": 1.1175854594,
				"y": -1.5265177799,
				"z": -0.4921687956,
				"element": "H" 
			},
			{
				"x": -0.8819944539,
				"y": -1.3807457163,
				"z": 1.774774223,
				"element": "H" 
			},
			{
				"x": 0.858854387,
				"y": -1.612282979,
				"z": 1.9010081681,
				"element": "H" 
			}
		],
		 "valence_orbital": [ 
			{
				"type": "occ",
				"energy": -0.33354,
				"method": "rhf"
			},
			{
				"type": "occ",
				"energy": -0.32852,
				"method": "rhf"
			},
			{
				"type": "occ",
				"energy": -0.31694,
				"method": "rhf"
			},
			{
				"type": "occ",
				"energy": -0.31034,
				"method": "rhf"
			},
			{
				"type": "occ",
				"energy": -0.22485,
				"method": "rhf"
			},
			{
				"type": "unocc",
				"energy": 0.08072,
				"method": "rhf"
			},
			{
				"type": "unocc",
				"energy": 0.09869,
				"method": "rhf"
			},
			{
				"type": "unocc",
				"energy": 0.09905,
				"method": "rhf"
			},
			{
				"type": "unocc",
				"energy": 0.14456,
				"method": "rhf"
			},
			{
				"type": "unocc",
				"energy": 0.14955,
				"method": "rhf"
			}
		],
		"cosmo_sigma_profile": { 
			"-0.025": 0.0,
			"-0.024": 0.0,
			"-0.023": 0.0,
			"-0.022": 0.0,
			"-0.021": 0.0,
			"-0.02": 0.0,
			"-0.019": 0.0,
			"-0.018": 0.0,
			"-0.017": 0.0,
			"-0.016": 0.0,
			"-0.015": 0.0,
			"-0.014": 0.0,
			"-0.013": 0.0,
			"-0.012": 0.0,
			"-0.011": 0.0,
			"-0.01": 0.115852803269,
			"-0.009": 1.71676093958,
			"-0.008": 2.1496912714,
			"-0.007": 3.03427277597,
			"-0.006": 2.4568768283,
			"-0.005": 3.67087687387,
			"-0.004": 3.02595760507,
			"-0.003": 6.61516285315,
			"-0.002": 21.1653475028,
			"-0.001": 25.3023556315,
			"0.0": 24.9958033011,
			"0.001": 16.4969221602,
			"0.002": 12.7491538012,
			"0.003": 2.04112687229,
			"0.004": 1.02399244508,
			"0.005": 1.31122943561,
			"0.006": 0.71628700186,
			"0.007": 0.678830736102,
			"0.008": 0.621590530215,
			"0.009": 0.844090389949,
			"0.01": 0.719967523649,
			"0.011": 0.819840768701,
			"0.012": 0.776722292331,
			"0.013": 1.13690796256,
			"0.014": 0.5805832073,
			"0.015": 0.354821033316,
			"0.016": 0.20322203046,
			"0.017": 0.909362553878,
			"0.018": 0.556101376991,
			"0.019": 0.725545986906,
			"0.02": 0.49962453403,
			"0.021": 0.101473815283,
			"0.022": 0.0,
			"0.023": 0.0,
			"0.024": 0.0,
			"0.025": 0.0
		}
	}
}
