{
	 "smiles": "OC(C=O)C(O)C(O)C(O)C(O)=O", 
	 "Tm": 439.15, 
	 "num_atms": 23, 
	 "gaussian": { 
		 "optdone": 1, 
		 "sigma_profile": "yes", 
		 "theory": "DFT", 
		 "functional": "B3LYP", 
		 "basiset": "6-31G**", 
		 "properties": { 
			 "R2extent": 2749.7892, 
			 "electric_dipole_moment_norm": 4.94695800771, 
			 "electric_quadrupole_moment_norm": 21.4151796399, 
			 "total_energy": -761.186863689, 
			 "HOMO_LUMO_gap": 0.22434, 
			 "cosmo_polarized_energy": -24.74, 
			 "cosmo_cavitation_energy": 25.99, 
			 "cosmo_dispersion_energy": -19.04, 
			 "cosmo_repulsion_energy": 1.52, 
			 "cosmo_total_nonelectrostatic_energy": 8.46, 
			 "SMD_solvation_energy": 6.23 
		},
		"coords": [
			{
				"x": -1.8996214082,
				"y": -0.3278648573,
				"z": -0.6575125328,
				"element": "O" 
			},
			{
				"x": -0.8000614357,
				"y": -0.1208518419,
				"z": 0.2026164924,
				"element": "C" 
			},
			{
				"x": -1.1976460506,
				"y": 0.9143817743,
				"z": 1.2440477492,
				"element": "C" 
			},
			{
				"x": -0.4177229028,
				"y": 1.3535252445,
				"z": 2.0675024466,
				"element": "O" 
			},
			{
				"x": -0.3239408076,
				"y": -1.4314109633,
				"z": 0.885362336,
				"element": "C" 
			},
			{
				"x": -1.0264529394,
				"y": -1.5388940937,
				"z": 2.1210494526,
				"element": "O" 
			},
			{
				"x": 1.2129981526,
				"y": -1.4673355376,
				"z": 1.1092571044,
				"element": "C" 
			},
			{
				"x": 1.7978682476,
				"y": -0.1943632957,
				"z": 1.2645739799,
				"element": "O" 
			},
			{
				"x": 1.9492865324,
				"y": -2.1672998126,
				"z": -0.0491966866,
				"element": "C" 
			},
			{
				"x": 3.3334150696,
				"y": -2.260024823,
				"z": 0.2976997536,
				"element": "O" 
			},
			{
				"x": 1.7829395209,
				"y": -1.395602638,
				"z": -1.3710728759,
				"element": "C" 
			},
			{
				"x": 2.8682916368,
				"y": -0.7219057141,
				"z": -1.7542543866,
				"element": "O" 
			},
			{
				"x": 0.7473230018,
				"y": -1.3951118898,
				"z": -2.005572559,
				"element": "O" 
			},
			{
				"x": -1.5346640517,
				"y": -0.6966151197,
				"z": -1.474925344,
				"element": "H" 
			},
			{
				"x": 0.0457553265,
				"y": 0.3202998943,
				"z": -0.3369738507,
				"element": "H" 
			},
			{
				"x": -2.2434851355,
				"y": 1.2712334351,
				"z": 1.1811732953,
				"element": "H" 
			},
			{
				"x": -0.6163126513,
				"y": -2.2465514669,
				"z": 0.210078053,
				"element": "H" 
			},
			{
				"x": -0.8892754041,
				"y": -2.4245963494,
				"z": 2.4797181947,
				"element": "H" 
			},
			{
				"x": 1.3977834846,
				"y": -2.0946598406,
				"z": 1.9991363336,
				"element": "H" 
			},
			{
				"x": 1.1942095905,
				"y": 0.3747061448,
				"z": 1.7840474901,
				"element": "H" 
			},
			{
				"x": 1.5064664362,
				"y": -3.1599905182,
				"z": -0.1933797348,
				"element": "H" 
			},
			{
				"x": 3.7064801418,
				"y": -3.0366964914,
				"z": -0.1397863165,
				"element": "H" 
			},
			{
				"x": 3.5326656456,
				"y": -0.8538712398,
				"z": -1.0473883949,
				"element": "H" 
			}
		],
		 "valence_orbital": [ 
			{
				"type": "occ",
				"energy": -0.29539,
				"method": "rhf"
			},
			{
				"type": "occ",
				"energy": -0.29115,
				"method": "rhf"
			},
			{
				"type": "occ",
				"energy": -0.2761,
				"method": "rhf"
			},
			{
				"type": "occ",
				"energy": -0.26687,
				"method": "rhf"
			},
			{
				"type": "occ",
				"energy": -0.26173,
				"method": "rhf"
			},
			{
				"type": "unocc",
				"energy": -0.03739,
				"method": "rhf"
			},
			{
				"type": "unocc",
				"energy": -0.01087,
				"method": "rhf"
			},
			{
				"type": "unocc",
				"energy": 0.03239,
				"method": "rhf"
			},
			{
				"type": "unocc",
				"energy": 0.06491,
				"method": "rhf"
			},
			{
				"type": "unocc",
				"energy": 0.08984,
				"method": "rhf"
			}
		],
		"cosmo_sigma_profile": { 
			"-0.025": 0.0,
			"-0.024": 0.0,
			"-0.023": 0.0,
			"-0.022": 0.0,
			"-0.021": 0.0,
			"-0.02": 0.0,
			"-0.019": 0.0211787552471,
			"-0.018": 1.16713160776,
			"-0.017": 1.71311077,
			"-0.016": 2.34044309898,
			"-0.015": 2.42375735175,
			"-0.014": 3.17402327213,
			"-0.013": 3.02055070526,
			"-0.012": 2.94886812667,
			"-0.011": 4.03241077299,
			"-0.01": 4.1226069167,
			"-0.009": 6.65889998847,
			"-0.008": 7.37392932787,
			"-0.007": 8.97152374145,
			"-0.006": 8.32478626504,
			"-0.005": 8.01045887514,
			"-0.004": 9.27300529231,
			"-0.003": 9.94637183687,
			"-0.002": 7.68433938113,
			"-0.001": 5.6898988555,
			"0.0": 7.82439164545,
			"0.001": 7.22428375724,
			"0.002": 7.34526239526,
			"0.003": 6.26545273165,
			"0.004": 6.90167099743,
			"0.005": 5.95080209115,
			"0.006": 7.85278281885,
			"0.007": 8.86236836252,
			"0.008": 7.94145906058,
			"0.009": 12.2671201045,
			"0.01": 11.4260512884,
			"0.011": 7.1557321741,
			"0.012": 4.67575288381,
			"0.013": 2.98093580282,
			"0.014": 1.06239530003,
			"0.015": 0.118141196969,
			"0.016": 0.0,
			"0.017": 0.0,
			"0.018": 0.0,
			"0.019": 0.0,
			"0.02": 0.0,
			"0.021": 0.0,
			"0.022": 0.0,
			"0.023": 0.0,
			"0.024": 0.0,
			"0.025": 0.0
		}
	}
}
