{
	 "smiles": "OC(=O)C(CC1=CC=C(C=C1)[N+]([O-])=O)C1=CC=CC=C1", 
	 "Tm": 425.15, 
	 "num_atms": 33, 
	 "gaussian": { 
		 "optdone": 1, 
		 "sigma_profile": "yes", 
		 "theory": "DFT", 
		 "functional": "B3LYP", 
		 "basiset": "6-31G**", 
		 "properties": { 
			 "R2extent": 7291.0272, 
			 "electric_dipole_moment_norm": 4.78439640707, 
			 "electric_quadrupole_moment_norm": 25.1061267935, 
			 "total_energy": -934.999667376, 
			 "HOMO_LUMO_gap": 0.16593, 
			 "cosmo_polarized_energy": -16.6, 
			 "cosmo_cavitation_energy": 38.51, 
			 "cosmo_dispersion_energy": -25.93, 
			 "cosmo_repulsion_energy": 2.02, 
			 "cosmo_total_nonelectrostatic_energy": 14.6, 
			 "SMD_solvation_energy": 9.72 
		},
		"coords": [
			{
				"x": -0.188211673,
				"y": 4.6184243125,
				"z": 1.4680219851,
				"element": "O" 
			},
			{
				"x": -0.1056407344,
				"y": 4.2118525277,
				"z": 0.1746356171,
				"element": "C" 
			},
			{
				"x": 0.190900556,
				"y": 4.9660605554,
				"z": -0.7231210254,
				"element": "O" 
			},
			{
				"x": -0.4164038112,
				"y": 2.7288644333,
				"z": 0.0036912142,
				"element": "C" 
			},
			{
				"x": -1.68279631,
				"y": 2.3131973199,
				"z": 0.8109797986,
				"element": "C" 
			},
			{
				"x": -2.1880120406,
				"y": 0.9380118562,
				"z": 0.4375690232,
				"element": "C" 
			},
			{
				"x": -1.7787984138,
				"y": -0.2016756317,
				"z": 1.146728901,
				"element": "C" 
			},
			{
				"x": -2.2301694469,
				"y": -1.4694317773,
				"z": 0.7910196373,
				"element": "C" 
			},
			{
				"x": -3.1007105999,
				"y": -1.5905014304,
				"z": -0.2900104916,
				"element": "C" 
			},
			{
				"x": -3.5285459644,
				"y": -0.4818182336,
				"z": -1.0181154619,
				"element": "C" 
			},
			{
				"x": -3.0665943989,
				"y": 0.7766580354,
				"z": -0.6456681646,
				"element": "C" 
			},
			{
				"x": -3.5853876397,
				"y": -2.9251636041,
				"z": -0.6714640215,
				"element": "N" 
			},
			{
				"x": -4.3519371455,
				"y": -3.0019169926,
				"z": -1.6317058608,
				"element": "O" 
			},
			{
				"x": -3.195153942,
				"y": -3.8862115937,
				"z": -0.0086616674,
				"element": "O" 
			},
			{
				"x": 0.8109496704,
				"y": 1.8805238114,
				"z": 0.329640905,
				"element": "C" 
			},
			{
				"x": 1.4038821471,
				"y": 1.9055340786,
				"z": 1.6012195487,
				"element": "C" 
			},
			{
				"x": 2.512701556,
				"y": 1.1066715569,
				"z": 1.8817498381,
				"element": "C" 
			},
			{
				"x": 3.0472291825,
				"y": 0.2722944404,
				"z": 0.8975461765,
				"element": "C" 
			},
			{
				"x": 2.4668673677,
				"y": 0.2440839555,
				"z": -0.3707123545,
				"element": "C" 
			},
			{
				"x": 1.3578840817,
				"y": 1.0441342728,
				"z": -0.6510928468,
				"element": "C" 
			},
			{
				"x": 0.0536169005,
				"y": 5.5603354969,
				"z": 1.4697629852,
				"element": "H" 
			},
			{
				"x": -0.6301890599,
				"y": 2.6165706109,
				"z": -1.0626881197,
				"element": "H" 
			},
			{
				"x": -2.4710645178,
				"y": 3.0509267537,
				"z": 0.6232941662,
				"element": "H" 
			},
			{
				"x": -1.456012548,
				"y": 2.3587697622,
				"z": 1.8793312793,
				"element": "H" 
			},
			{
				"x": -1.0968495468,
				"y": -0.0939225145,
				"z": 1.9842924425,
				"element": "H" 
			},
			{
				"x": -1.9244683409,
				"y": -2.3569307398,
				"z": 1.3306890956,
				"element": "H" 
			},
			{
				"x": -4.2099052647,
				"y": -0.6196553001,
				"z": -1.848251714,
				"element": "H" 
			},
			{
				"x": -3.3988164364,
				"y": 1.6500971039,
				"z": -1.2006023473,
				"element": "H" 
			},
			{
				"x": 1.005842838,
				"y": 2.5627038521,
				"z": 2.3683118705,
				"element": "H" 
			},
			{
				"x": 2.9622845137,
				"y": 1.1396905964,
				"z": 2.8701657232,
				"element": "H" 
			},
			{
				"x": 3.9107589456,
				"y": -0.3485070753,
				"z": 1.1176430562,
				"element": "H" 
			},
			{
				"x": 2.8754415344,
				"y": -0.3996449535,
				"z": -1.1442489578,
				"element": "H" 
			},
			{
				"x": 0.9108085414,
				"y": 1.0171745145,
				"z": -1.6411502304,
				"element": "H" 
			}
		],
		 "valence_orbital": [ 
			{
				"type": "occ",
				"energy": -0.28819,
				"method": "rhf"
			},
			{
				"type": "occ",
				"energy": -0.27735,
				"method": "rhf"
			},
			{
				"type": "occ",
				"energy": -0.27275,
				"method": "rhf"
			},
			{
				"type": "occ",
				"energy": -0.26056,
				"method": "rhf"
			},
			{
				"type": "occ",
				"energy": -0.25295,
				"method": "rhf"
			},
			{
				"type": "unocc",
				"energy": -0.08702,
				"method": "rhf"
			},
			{
				"type": "unocc",
				"energy": -0.02888,
				"method": "rhf"
			},
			{
				"type": "unocc",
				"energy": -0.02184,
				"method": "rhf"
			},
			{
				"type": "unocc",
				"energy": -0.01382,
				"method": "rhf"
			},
			{
				"type": "unocc",
				"energy": 0.00053,
				"method": "rhf"
			}
		],
		"cosmo_sigma_profile": { 
			"-0.025": 0.0,
			"-0.024": 0.0,
			"-0.023": 0.0,
			"-0.022": 0.0,
			"-0.021": 0.0,
			"-0.02": 0.0,
			"-0.019": 0.191267888371,
			"-0.018": 0.752927204228,
			"-0.017": 1.1114360546,
			"-0.016": 0.576188062576,
			"-0.015": 0.507667661883,
			"-0.014": 0.973265667891,
			"-0.013": 0.828664385165,
			"-0.012": 0.39670471636,
			"-0.011": 0.655682311653,
			"-0.01": 0.754653835132,
			"-0.009": 0.619298202357,
			"-0.008": 1.19678978655,
			"-0.007": 8.94762173073,
			"-0.006": 21.3657220249,
			"-0.005": 24.1554085656,
			"-0.004": 23.6889415951,
			"-0.003": 23.7864627481,
			"-0.002": 17.7490900828,
			"-0.001": 21.0964805234,
			"0.0": 20.0709548566,
			"0.001": 21.1624852733,
			"0.002": 25.0559243421,
			"0.003": 16.8778318224,
			"0.004": 13.6564626098,
			"0.005": 13.1104934236,
			"0.006": 7.50263154328,
			"0.007": 9.58694095141,
			"0.008": 10.0459209325,
			"0.009": 6.14216339187,
			"0.01": 5.38830890092,
			"0.011": 4.93729875968,
			"0.012": 3.58016099715,
			"0.013": 0.496066285003,
			"0.014": 0.0,
			"0.015": 0.0,
			"0.016": 0.0,
			"0.017": 0.0,
			"0.018": 0.0,
			"0.019": 0.0,
			"0.02": 0.0,
			"0.021": 0.0,
			"0.022": 0.0,
			"0.023": 0.0,
			"0.024": 0.0,
			"0.025": 0.0
		}
	}
}
