{
	 "smiles": "CC(C)(C)OC(=O)NC1=CC=NC=C1", 
	 "Tm": 421.65, 
	 "num_atms": 28, 
	 "gaussian": { 
		 "optdone": 1, 
		 "sigma_profile": "yes", 
		 "theory": "DFT", 
		 "functional": "B3LYP", 
		 "basiset": "6-31G**", 
		 "properties": { 
			 "R2extent": 3800.7284, 
			 "electric_dipole_moment_norm": 2.13444028495, 
			 "electric_quadrupole_moment_norm": 16.4669256791, 
			 "total_energy": -649.486777247, 
			 "HOMO_LUMO_gap": 0.21915, 
			 "cosmo_polarized_energy": -11.89, 
			 "cosmo_cavitation_energy": 31.34, 
			 "cosmo_dispersion_energy": -21.9, 
			 "cosmo_repulsion_energy": 1.71, 
			 "cosmo_total_nonelectrostatic_energy": 11.15, 
			 "SMD_solvation_energy": 5.05 
		},
		"coords": [
			{
				"x": -2.4852888121,
				"y": 1.6677936035,
				"z": -0.4247623073,
				"element": "C" 
			},
			{
				"x": -1.9349576587,
				"y": 0.2410530469,
				"z": -0.3456314698,
				"element": "C" 
			},
			{
				"x": -2.2876613535,
				"y": -0.5507310163,
				"z": -1.6066832891,
				"element": "C" 
			},
			{
				"x": -2.3993665278,
				"y": -0.4992498518,
				"z": 0.9117360888,
				"element": "C" 
			},
			{
				"x": -0.4541216391,
				"y": 0.2713152878,
				"z": -0.3919003757,
				"element": "O" 
			},
			{
				"x": 0.2467464662,
				"y": 0.8915766852,
				"z": 0.5687033258,
				"element": "C" 
			},
			{
				"x": -0.2018887991,
				"y": 1.4728767071,
				"z": 1.5413265575,
				"element": "O" 
			},
			{
				"x": 1.6175278892,
				"y": 0.8217947278,
				"z": 0.3653711083,
				"element": "N" 
			},
			{
				"x": 2.4279625644,
				"y": 0.2476081566,
				"z": -0.6203021689,
				"element": "C" 
			},
			{
				"x": 1.9728793919,
				"y": -0.4624865869,
				"z": -1.741144551,
				"element": "C" 
			},
			{
				"x": 2.9197640037,
				"y": -0.9709014491,
				"z": -2.6291400597,
				"element": "C" 
			},
			{
				"x": 4.245661596,
				"y": -0.8383087993,
				"z": -2.5032689089,
				"element": "N" 
			},
			{
				"x": 4.6651246838,
				"y": -0.1576377183,
				"z": -1.4277819704,
				"element": "C" 
			},
			{
				"x": 3.8187355616,
				"y": 0.3951721661,
				"z": -0.4745062564,
				"element": "C" 
			},
			{
				"x": -2.2216712035,
				"y": 2.2409590991,
				"z": 0.4641430224,
				"element": "H" 
			},
			{
				"x": -3.5759842008,
				"y": 1.6316051807,
				"z": -0.5109877391,
				"element": "H" 
			},
			{
				"x": -2.0922530695,
				"y": 2.1793338095,
				"z": -1.3089262701,
				"element": "H" 
			},
			{
				"x": -1.91501112,
				"y": -0.0431184678,
				"z": -2.5012177822,
				"element": "H" 
			},
			{
				"x": -3.3737420849,
				"y": -0.6475188674,
				"z": -1.6934459859,
				"element": "H" 
			},
			{
				"x": -1.8548044936,
				"y": -1.554698587,
				"z": -1.5689237165,
				"element": "H" 
			},
			{
				"x": -1.9469714913,
				"y": -1.4948446925,
				"z": 0.9567194672,
				"element": "H" 
			},
			{
				"x": -2.1345294118,
				"y": 0.0526954836,
				"z": 1.8136071571,
				"element": "H" 
			},
			{
				"x": -3.4866625777,
				"y": -0.6221813304,
				"z": 0.8794750647,
				"element": "H" 
			},
			{
				"x": 2.1041693735,
				"y": 1.3009603347,
				"z": 1.1106325885,
				"element": "H" 
			},
			{
				"x": 0.9191496695,
				"y": -0.6145771655,
				"z": -1.9169925502,
				"element": "H" 
			},
			{
				"x": 2.5773337032,
				"y": -1.5238513886,
				"z": -3.5026868089,
				"element": "H" 
			},
			{
				"x": 5.7425801642,
				"y": -0.0454617732,
				"z": -1.3183522088,
				"element": "H" 
			},
			{
				"x": 4.2316793761,
				"y": 0.9353234055,
				"z": 0.3735400388,
				"element": "H" 
			}
		],
		 "valence_orbital": [ 
			{
				"type": "occ",
				"energy": -0.30395,
				"method": "rhf"
			},
			{
				"type": "occ",
				"energy": -0.28088,
				"method": "rhf"
			},
			{
				"type": "occ",
				"energy": -0.26161,
				"method": "rhf"
			},
			{
				"type": "occ",
				"energy": -0.25169,
				"method": "rhf"
			},
			{
				"type": "occ",
				"energy": -0.24021,
				"method": "rhf"
			},
			{
				"type": "unocc",
				"energy": -0.02106,
				"method": "rhf"
			},
			{
				"type": "unocc",
				"energy": -0.00922,
				"method": "rhf"
			},
			{
				"type": "unocc",
				"energy": 0.0528,
				"method": "rhf"
			},
			{
				"type": "unocc",
				"energy": 0.07053,
				"method": "rhf"
			},
			{
				"type": "unocc",
				"energy": 0.07831,
				"method": "rhf"
			}
		],
		"cosmo_sigma_profile": { 
			"-0.025": 0.0,
			"-0.024": 0.0,
			"-0.023": 0.0,
			"-0.022": 0.0,
			"-0.021": 0.0,
			"-0.02": 0.0,
			"-0.019": 0.0,
			"-0.018": 0.0,
			"-0.017": 0.0,
			"-0.016": 0.188424747705,
			"-0.015": 0.794228875262,
			"-0.014": 1.04975408996,
			"-0.013": 1.2996935357,
			"-0.012": 1.39480458988,
			"-0.011": 0.960046298705,
			"-0.01": 0.894838489512,
			"-0.009": 1.44747177613,
			"-0.008": 1.87960903502,
			"-0.007": 2.07393813857,
			"-0.006": 6.52902168769,
			"-0.005": 8.74455960362,
			"-0.004": 18.9372789077,
			"-0.003": 21.7064361215,
			"-0.002": 24.0331992717,
			"-0.001": 31.4469067664,
			"0.0": 33.4546478189,
			"0.001": 22.1070235352,
			"0.002": 16.087850922,
			"0.003": 15.505132386,
			"0.004": 5.84818744431,
			"0.005": 3.9086343766,
			"0.006": 3.20238818735,
			"0.007": 3.28493388953,
			"0.008": 2.69097380903,
			"0.009": 1.91044547849,
			"0.01": 2.07114220047,
			"0.011": 3.56056367767,
			"0.012": 4.48703138164,
			"0.013": 2.56529557746,
			"0.014": 1.09428600532,
			"0.015": 0.872974409894,
			"0.016": 0.662290283513,
			"0.017": 0.98214046962,
			"0.018": 0.0,
			"0.019": 0.0,
			"0.02": 0.0,
			"0.021": 0.0,
			"0.022": 0.0,
			"0.023": 0.0,
			"0.024": 0.0,
			"0.025": 0.0
		}
	}
}
