{
	 "smiles": "CCN1C=CC2=CC=CC=C12", 
	 "Tm": 378.15, 
	 "num_atms": 22, 
	 "gaussian": { 
		 "optdone": 1, 
		 "sigma_profile": "yes", 
		 "theory": "DFT", 
		 "functional": "B3LYP", 
		 "basiset": "6-31G**", 
		 "properties": { 
			 "R2extent": 2202.3195, 
			 "electric_dipole_moment_norm": 2.67727690574, 
			 "electric_quadrupole_moment_norm": 7.49618116577, 
			 "total_energy": -442.450472347, 
			 "HOMO_LUMO_gap": 0.19106, 
			 "cosmo_polarized_energy": -6.48, 
			 "cosmo_cavitation_energy": 24.6, 
			 "cosmo_dispersion_energy": -18.33, 
			 "cosmo_repulsion_energy": 1.45, 
			 "cosmo_total_nonelectrostatic_energy": 7.72, 
			 "SMD_solvation_energy": 3.91 
		},
		"coords": [
			{
				"x": 1.691964699,
				"y": -2.9070473118,
				"z": 0.1945891272,
				"element": "C" 
			},
			{
				"x": 1.9967934526,
				"y": -1.5840214765,
				"z": -0.5008530628,
				"element": "C" 
			},
			{
				"x": 1.033379415,
				"y": -0.527000981,
				"z": -0.2103901798,
				"element": "N" 
			},
			{
				"x": -0.0890108326,
				"y": -0.5909621888,
				"z": 0.6008077229,
				"element": "C" 
			},
			{
				"x": -0.7354194738,
				"y": 0.6174343794,
				"z": 0.6139500495,
				"element": "C" 
			},
			{
				"x": 0.0115029715,
				"y": 1.5022470646,
				"z": -0.2329293449,
				"element": "C" 
			},
			{
				"x": -0.1286666171,
				"y": 2.8450799414,
				"z": -0.6241173005,
				"element": "C" 
			},
			{
				"x": 0.8096196157,
				"y": 3.40037407,
				"z": -1.4852166995,
				"element": "C" 
			},
			{
				"x": 1.8938031708,
				"y": 2.6396795517,
				"z": -1.9689641692,
				"element": "C" 
			},
			{
				"x": 2.0614556762,
				"y": 1.308722111,
				"z": -1.6013784624,
				"element": "C" 
			},
			{
				"x": 1.1139038965,
				"y": 0.7519953126,
				"z": -0.7332262785,
				"element": "C" 
			},
			{
				"x": 0.7218057326,
				"y": -3.3101099832,
				"z": -0.1106303818,
				"element": "H" 
			},
			{
				"x": 1.698966192,
				"y": -2.8024005608,
				"z": 1.2835466894,
				"element": "H" 
			},
			{
				"x": 2.4584894183,
				"y": -3.6384086639,
				"z": -0.076308144,
				"element": "H" 
			},
			{
				"x": 2.0257809743,
				"y": -1.7393893934,
				"z": -1.5874063376,
				"element": "H" 
			},
			{
				"x": 2.9951551378,
				"y": -1.2359293636,
				"z": -0.2047166613,
				"element": "H" 
			},
			{
				"x": -0.3439621915,
				"y": -1.5058263093,
				"z": 1.1133443957,
				"element": "H" 
			},
			{
				"x": -1.6374189581,
				"y": 0.8459697335,
				"z": 1.163744942,
				"element": "H" 
			},
			{
				"x": -0.9609773521,
				"y": 3.4393663907,
				"z": -0.2565506524,
				"element": "H" 
			},
			{
				"x": 0.7098841035,
				"y": 4.4372752036,
				"z": -1.7932446781,
				"element": "H" 
			},
			{
				"x": 2.6115711589,
				"y": 3.1011607737,
				"z": -2.6410660432,
				"element": "H" 
			},
			{
				"x": 2.8987798108,
				"y": 0.7286917,
				"z": -1.9776845308,
				"element": "H" 
			}
		],
		 "valence_orbital": [ 
			{
				"type": "occ",
				"energy": -0.32441,
				"method": "rhf"
			},
			{
				"type": "occ",
				"energy": -0.31716,
				"method": "rhf"
			},
			{
				"type": "occ",
				"energy": -0.26305,
				"method": "rhf"
			},
			{
				"type": "occ",
				"energy": -0.21149,
				"method": "rhf"
			},
			{
				"type": "occ",
				"energy": -0.19247,
				"method": "rhf"
			},
			{
				"type": "unocc",
				"energy": -0.00141,
				"method": "rhf"
			},
			{
				"type": "unocc",
				"energy": 0.03444,
				"method": "rhf"
			},
			{
				"type": "unocc",
				"energy": 0.07949,
				"method": "rhf"
			},
			{
				"type": "unocc",
				"energy": 0.08717,
				"method": "rhf"
			},
			{
				"type": "unocc",
				"energy": 0.10806,
				"method": "rhf"
			}
		],
		"cosmo_sigma_profile": { 
			"-0.025": 0.0,
			"-0.024": 0.0,
			"-0.023": 0.0,
			"-0.022": 0.0,
			"-0.021": 0.0,
			"-0.02": 0.0,
			"-0.019": 0.0,
			"-0.018": 0.0,
			"-0.017": 0.0,
			"-0.016": 0.0,
			"-0.015": 0.0,
			"-0.014": 0.0,
			"-0.013": 0.0,
			"-0.012": 0.0,
			"-0.011": 0.0,
			"-0.01": 0.0,
			"-0.009": 0.0,
			"-0.008": 0.0661963395299,
			"-0.007": 1.13951600325,
			"-0.006": 2.88894692313,
			"-0.005": 15.6460600967,
			"-0.004": 25.4036916247,
			"-0.003": 25.5067537099,
			"-0.002": 21.3880567858,
			"-0.001": 14.6380052836,
			"0.0": 14.4259974048,
			"0.001": 8.41745563337,
			"0.002": 7.42968778085,
			"0.003": 8.82662338705,
			"0.004": 8.84843341781,
			"0.005": 11.0074248107,
			"0.006": 12.7838131795,
			"0.007": 13.4943603296,
			"0.008": 3.44302161772,
			"0.009": 0.0,
			"0.01": 0.0,
			"0.011": 0.0,
			"0.012": 0.0,
			"0.013": 0.0,
			"0.014": 0.0,
			"0.015": 0.0,
			"0.016": 0.0,
			"0.017": 0.0,
			"0.018": 0.0,
			"0.019": 0.0,
			"0.02": 0.0,
			"0.021": 0.0,
			"0.022": 0.0,
			"0.023": 0.0,
			"0.024": 0.0,
			"0.025": 0.0
		}
	}
}
