{
	 "smiles": "OC(=O)C1=C(OC=N1)C1=CC(F)=CC=C1", 
	 "Tm": 443.15, 
	 "num_atms": 21, 
	 "gaussian": { 
		 "optdone": 1, 
		 "sigma_profile": "yes", 
		 "theory": "DFT", 
		 "functional": "B3LYP", 
		 "basiset": "6-31G**", 
		 "properties": { 
			 "R2extent": 3893.7174, 
			 "electric_dipole_moment_norm": 3.43843641936, 
			 "electric_quadrupole_moment_norm": 19.3998152674, 
			 "total_energy": -764.939334793, 
			 "HOMO_LUMO_gap": 0.1683, 
			 "cosmo_polarized_energy": -11.12, 
			 "cosmo_cavitation_energy": 26.8, 
			 "cosmo_dispersion_energy": -20.0, 
			 "cosmo_repulsion_energy": 1.5, 
			 "cosmo_total_nonelectrostatic_energy": 8.3, 
			 "SMD_solvation_energy": 6.27 
		},
		"coords": [
			{
				"x": -2.0852455667,
				"y": -4.2642835239,
				"z": 1.1856895117,
				"element": "O" 
			},
			{
				"x": -2.0483044779,
				"y": -2.9193934743,
				"z": 1.1647816333,
				"element": "C" 
			},
			{
				"x": -2.9327308403,
				"y": -2.2551289834,
				"z": 1.663680987,
				"element": "O" 
			},
			{
				"x": -0.8417176734,
				"y": -2.3823566003,
				"z": 0.4836672183,
				"element": "C" 
			},
			{
				"x": -0.3817569464,
				"y": -1.1053091474,
				"z": 0.2236902932,
				"element": "C" 
			},
			{
				"x": 0.8097216655,
				"y": -1.2675307894,
				"z": -0.4489363425,
				"element": "O" 
			},
			{
				"x": 1.0044301521,
				"y": -2.6010436854,
				"z": -0.5585806038,
				"element": "C" 
			},
			{
				"x": 0.0661387859,
				"y": -3.3092446088,
				"z": -0.0282416865,
				"element": "N" 
			},
			{
				"x": -0.7940127167,
				"y": 0.2758670817,
				"z": 0.4561012242,
				"element": "C" 
			},
			{
				"x": 0.0316203638,
				"y": 1.3180344398,
				"z": -0.0102129354,
				"element": "C" 
			},
			{
				"x": -0.3557826039,
				"y": 2.629774543,
				"z": 0.2081215406,
				"element": "C" 
			},
			{
				"x": 0.4402833638,
				"y": 3.6217518725,
				"z": -0.2416145016,
				"element": "F" 
			},
			{
				"x": -1.5329460194,
				"y": 2.9591669951,
				"z": 0.8726686788,
				"element": "C" 
			},
			{
				"x": -2.3434103328,
				"y": 1.9200566888,
				"z": 1.3304293766,
				"element": "C" 
			},
			{
				"x": -1.9888808002,
				"y": 0.5867479525,
				"z": 1.1306054768,
				"element": "C" 
			},
			{
				"x": -1.2849280885,
				"y": -4.5938739805,
				"z": 0.733963732,
				"element": "H" 
			},
			{
				"x": 1.9002727021,
				"y": -2.9293147225,
				"z": -1.064109399,
				"element": "H" 
			},
			{
				"x": 0.9581195341,
				"y": 1.1179676491,
				"z": -0.5332816834,
				"element": "H" 
			},
			{
				"x": -1.7935114731,
				"y": 4.0016133238,
				"z": 1.0195689606,
				"element": "H" 
			},
			{
				"x": -3.2668900081,
				"y": 2.1519299935,
				"z": 1.8517979874,
				"element": "H" 
			},
			{
				"x": -2.6223690198,
				"y": -0.215631024,
				"z": 1.4884105315,
				"element": "H" 
			}
		],
		 "valence_orbital": [ 
			{
				"type": "occ",
				"energy": -0.31872,
				"method": "rhf"
			},
			{
				"type": "occ",
				"energy": -0.3059,
				"method": "rhf"
			},
			{
				"type": "occ",
				"energy": -0.28022,
				"method": "rhf"
			},
			{
				"type": "occ",
				"energy": -0.26066,
				"method": "rhf"
			},
			{
				"type": "occ",
				"energy": -0.24314,
				"method": "rhf"
			},
			{
				"type": "unocc",
				"energy": -0.07484,
				"method": "rhf"
			},
			{
				"type": "unocc",
				"energy": -0.01974,
				"method": "rhf"
			},
			{
				"type": "unocc",
				"energy": -0.00977,
				"method": "rhf"
			},
			{
				"type": "unocc",
				"energy": 0.01129,
				"method": "rhf"
			},
			{
				"type": "unocc",
				"energy": 0.0872,
				"method": "rhf"
			}
		],
		"cosmo_sigma_profile": { 
			"-0.025": 0.0,
			"-0.024": 0.0,
			"-0.023": 0.0,
			"-0.022": 0.0,
			"-0.021": 0.0,
			"-0.02": 0.0,
			"-0.019": 0.0,
			"-0.018": 0.0,
			"-0.017": 0.0,
			"-0.016": 0.0,
			"-0.015": 0.0,
			"-0.014": 0.451166515801,
			"-0.013": 0.825289962591,
			"-0.012": 2.22544369223,
			"-0.011": 2.32423444769,
			"-0.01": 2.70826630262,
			"-0.009": 1.61554394942,
			"-0.008": 3.55295316807,
			"-0.007": 6.21602375115,
			"-0.006": 8.2842706427,
			"-0.005": 9.11349617933,
			"-0.004": 12.2459643459,
			"-0.003": 15.1584490101,
			"-0.002": 16.160172227,
			"-0.001": 17.6534085601,
			"0.0": 19.0122907133,
			"0.001": 18.8033690127,
			"0.002": 20.0380862125,
			"0.003": 15.4074367904,
			"0.004": 14.8403057684,
			"0.005": 5.53443154379,
			"0.006": 3.17190806478,
			"0.007": 3.40880932348,
			"0.008": 3.71092714763,
			"0.009": 4.02587178889,
			"0.01": 4.96600001614,
			"0.011": 3.09612166261,
			"0.012": 2.14542945431,
			"0.013": 0.868649394337,
			"0.014": 0.0,
			"0.015": 0.0,
			"0.016": 0.0,
			"0.017": 0.0,
			"0.018": 0.0,
			"0.019": 0.0,
			"0.02": 0.0,
			"0.021": 0.0,
			"0.022": 0.0,
			"0.023": 0.0,
			"0.024": 0.0,
			"0.025": 0.0
		}
	}
}
