{
	 "smiles": "CCOC(=O)[C@@]12[C@@H](C3=C(O[P@@]1(=O)OCC)C=CC(Cl)=C3)[C@]1([C@@H]2C2=C(O[P@]1(=O)OCC)C=CC(Cl)=C2)C(=O)OCC", 
	 "Tm": 530.15, 
	 "num_atms": 68, 
	 "gaussian": { 
		 "optdone": 1, 
		 "sigma_profile": "yes", 
		 "theory": "DFT", 
		 "functional": "B3LYP", 
		 "basiset": "6-31G**", 
		 "properties": { 
			 "R2extent": 21614.1545, 
			 "electric_dipole_moment_norm": 4.26085910351, 
			 "electric_quadrupole_moment_norm": 39.49015633, 
			 "total_energy": -3363.09981014, 
			 "HOMO_LUMO_gap": 0.19924, 
			 "cosmo_polarized_energy": -25.82, 
			 "cosmo_cavitation_energy": 75.08, 
			 "cosmo_dispersion_energy": -44.29, 
			 "cosmo_repulsion_energy": 3.32, 
			 "cosmo_total_nonelectrostatic_energy": 34.12, 
			 "SMD_solvation_energy": 15.79 
		},
		"coords": [
			{
				"x": -5.3010130545,
				"y": -0.309902667,
				"z": -1.4620289373,
				"element": "C" 
			},
			{
				"x": -4.3706517635,
				"y": 0.8273602665,
				"z": -1.0894127485,
				"element": "C" 
			},
			{
				"x": -3.0607644393,
				"y": 0.2556100446,
				"z": -0.8368232012,
				"element": "O" 
			},
			{
				"x": -2.1153457665,
				"y": 1.1110302558,
				"z": -0.4289803262,
				"element": "C" 
			},
			{
				"x": -2.2801821633,
				"y": 2.3029505324,
				"z": -0.2792941223,
				"element": "O" 
			},
			{
				"x": -0.78567523,
				"y": 0.409251273,
				"z": -0.180384566,
				"element": "C" 
			},
			{
				"x": 0.4305442803,
				"y": 1.3903806772,
				"z": -0.1226023471,
				"element": "C" 
			},
			{
				"x": 0.9773990198,
				"y": 1.8819744513,
				"z": 1.1962733251,
				"element": "C" 
			},
			{
				"x": 0.4386479328,
				"y": 1.4832689962,
				"z": 2.4244797214,
				"element": "C" 
			},
			{
				"x": -0.6346578848,
				"y": 0.5953071375,
				"z": 2.4998208815,
				"element": "O" 
			},
			{
				"x": -0.7862206649,
				"y": -0.5788016764,
				"z": 1.3715336571,
				"element": "P" 
			},
			{
				"x": 0.2597385542,
				"y": -1.632684444,
				"z": 1.4182313645,
				"element": "O" 
			},
			{
				"x": -2.2964251186,
				"y": -1.0423103911,
				"z": 1.6219561765,
				"element": "O" 
			},
			{
				"x": -2.5880550305,
				"y": -2.0167111232,
				"z": 2.667566271,
				"element": "C" 
			},
			{
				"x": -3.9906779272,
				"y": -2.5408575899,
				"z": 2.4337456356,
				"element": "C" 
			},
			{
				"x": 0.9126195323,
				"y": 1.9932229346,
				"z": 3.6320595638,
				"element": "C" 
			},
			{
				"x": 1.94572823,
				"y": 2.9243684241,
				"z": 3.6313858189,
				"element": "C" 
			},
			{
				"x": 2.4891292881,
				"y": 3.3294769174,
				"z": 2.4102113652,
				"element": "C" 
			},
			{
				"x": 3.7968362881,
				"y": 4.5055240734,
				"z": 2.4019032078,
				"element": "Cl" 
			},
			{
				"x": 2.0154646613,
				"y": 2.82527682,
				"z": 1.2047128434,
				"element": "C" 
			},
			{
				"x": 1.2313892482,
				"y": 0.4252135495,
				"z": -1.0885937423,
				"element": "C" 
			},
			{
				"x": -0.0898470247,
				"y": -0.3732842685,
				"z": -1.3787330979,
				"element": "C" 
			},
			{
				"x": -0.7079408044,
				"y": -0.2511221261,
				"z": -2.7502899349,
				"element": "C" 
			},
			{
				"x": -0.3884063341,
				"y": 0.7853033418,
				"z": -3.6378006066,
				"element": "C" 
			},
			{
				"x": 0.523415996,
				"y": 1.7774365434,
				"z": -3.2916070408,
				"element": "O" 
			},
			{
				"x": 1.9027229652,
				"y": 1.3883689927,
				"z": -2.5059460487,
				"element": "P" 
			},
			{
				"x": 2.702552615,
				"y": 2.5768934426,
				"z": -2.1324724269,
				"element": "O" 
			},
			{
				"x": 2.5675791974,
				"y": 0.324801861,
				"z": -3.5038659458,
				"element": "O" 
			},
			{
				"x": 4.0126493336,
				"y": 0.1977241245,
				"z": -3.6558528808,
				"element": "C" 
			},
			{
				"x": 4.3265313698,
				"y": -1.2576512932,
				"z": -3.9418633486,
				"element": "C" 
			},
			{
				"x": -0.9851353472,
				"y": 0.8857911949,
				"z": -4.8932281233,
				"element": "C" 
			},
			{
				"x": -1.9237699998,
				"y": -0.0599555128,
				"z": -5.2938872964,
				"element": "C" 
			},
			{
				"x": -2.2372668647,
				"y": -1.1070313227,
				"z": -4.4263119161,
				"element": "C" 
			},
			{
				"x": -3.4137446081,
				"y": -2.3180320818,
				"z": -4.9203887794,
				"element": "Cl" 
			},
			{
				"x": -1.637033159,
				"y": -1.2099487703,
				"z": -3.1759470337,
				"element": "C" 
			},
			{
				"x": 2.3240382185,
				"y": -0.5058934163,
				"z": -0.56069083,
				"element": "C" 
			},
			{
				"x": 2.4516325963,
				"y": -1.6465369925,
				"z": -0.9525643061,
				"element": "O" 
			},
			{
				"x": 3.1470275525,
				"y": 0.1137294899,
				"z": 0.2930433483,
				"element": "O" 
			},
			{
				"x": 4.1960156786,
				"y": -0.6884793421,
				"z": 0.904329401,
				"element": "C" 
			},
			{
				"x": 3.708101123,
				"y": -1.2823078434,
				"z": 2.2159211127,
				"element": "C" 
			},
			{
				"x": -5.3657282878,
				"y": -1.0406439671,
				"z": -0.6508650502,
				"element": "H" 
			},
			{
				"x": -4.9570254673,
				"y": -0.8222393804,
				"z": -2.364617221,
				"element": "H" 
			},
			{
				"x": -6.3043722288,
				"y": 0.0839372073,
				"z": -1.6516876899,
				"element": "H" 
			},
			{
				"x": -4.2770252527,
				"y": 1.5662685239,
				"z": -1.891015789,
				"element": "H" 
			},
			{
				"x": -4.6971256921,
				"y": 1.353260904,
				"z": -0.1875803945,
				"element": "H" 
			},
			{
				"x": 0.1341121298,
				"y": 2.275492098,
				"z": -0.6931066093,
				"element": "H" 
			},
			{
				"x": -2.5039304036,
				"y": -1.5106139154,
				"z": 3.6348356014,
				"element": "H" 
			},
			{
				"x": -1.8416446053,
				"y": -2.8147245686,
				"z": 2.6201838807,
				"element": "H" 
			},
			{
				"x": -4.7208444343,
				"y": -1.7273493483,
				"z": 2.465165329,
				"element": "H" 
			},
			{
				"x": -4.2474446492,
				"y": -3.2652383475,
				"z": 3.2132194735,
				"element": "H" 
			},
			{
				"x": -4.0614998093,
				"y": -3.0381348054,
				"z": 1.4624788911,
				"element": "H" 
			},
			{
				"x": 0.4593929476,
				"y": 1.6565775211,
				"z": 4.5579848617,
				"element": "H" 
			},
			{
				"x": 2.3236917244,
				"y": 3.332408056,
				"z": 4.5618639557,
				"element": "H" 
			},
			{
				"x": 2.4496500855,
				"y": 3.1461717854,
				"z": 0.262900951,
				"element": "H" 
			},
			{
				"x": 0.0566882668,
				"y": -1.4291544363,
				"z": -1.1485975662,
				"element": "H" 
			},
			{
				"x": 4.5087251655,
				"y": 0.5516087404,
				"z": -2.7476315552,
				"element": "H" 
			},
			{
				"x": 4.3111261159,
				"y": 0.8520030321,
				"z": -4.4802093023,
				"element": "H" 
			},
			{
				"x": 3.9993881326,
				"y": -1.8881318898,
				"z": -3.1114730854,
				"element": "H" 
			},
			{
				"x": 3.8221850327,
				"y": -1.5901364832,
				"z": -4.8535050636,
				"element": "H" 
			},
			{
				"x": 5.4058076175,
				"y": -1.3807818085,
				"z": -4.080536607,
				"element": "H" 
			},
			{
				"x": -0.7005239305,
				"y": 1.706214965,
				"z": -5.5425758127,
				"element": "H" 
			},
			{
				"x": -2.396685347,
				"y": 0.0067123864,
				"z": -6.2670032247,
				"element": "H" 
			},
			{
				"x": -1.8976216943,
				"y": -2.0307292874,
				"z": -2.5171797472,
				"element": "H" 
			},
			{
				"x": 4.4968453513,
				"y": -1.4644083913,
				"z": 0.1976990188,
				"element": "H" 
			},
			{
				"x": 5.0191046939,
				"y": 0.0135681674,
				"z": 1.0537848468,
				"element": "H" 
			},
			{
				"x": 4.5098615924,
				"y": -1.8740874428,
				"z": 2.6705929533,
				"element": "H" 
			},
			{
				"x": 3.422056609,
				"y": -0.4921228875,
				"z": 2.9157003856,
				"element": "H" 
			},
			{
				"x": 2.8417858417,
				"y": -1.9266809108,
				"z": 2.0489704829,
				"element": "H" 
			}
		],
		 "valence_orbital": [ 
			{
				"type": "occ",
				"energy": -0.27853,
				"method": "rhf"
			},
			{
				"type": "occ",
				"energy": -0.26905,
				"method": "rhf"
			},
			{
				"type": "occ",
				"energy": -0.25708,
				"method": "rhf"
			},
			{
				"type": "occ",
				"energy": -0.24523,
				"method": "rhf"
			},
			{
				"type": "occ",
				"energy": -0.23375,
				"method": "rhf"
			},
			{
				"type": "unocc",
				"energy": -0.03451,
				"method": "rhf"
			},
			{
				"type": "unocc",
				"energy": -0.02792,
				"method": "rhf"
			},
			{
				"type": "unocc",
				"energy": -0.02057,
				"method": "rhf"
			},
			{
				"type": "unocc",
				"energy": -0.01108,
				"method": "rhf"
			},
			{
				"type": "unocc",
				"energy": -0.0095,
				"method": "rhf"
			}
		],
		"cosmo_sigma_profile": { 
			"-0.025": 0.0,
			"-0.024": 0.0,
			"-0.023": 0.0,
			"-0.022": 0.0,
			"-0.021": 0.0,
			"-0.02": 0.0,
			"-0.019": 0.0,
			"-0.018": 0.0,
			"-0.017": 0.0,
			"-0.016": 0.0,
			"-0.015": 0.0,
			"-0.014": 0.0,
			"-0.013": 0.0,
			"-0.012": 0.0,
			"-0.011": 0.00836746494263,
			"-0.01": 0.657322471991,
			"-0.009": 1.81563794022,
			"-0.008": 8.05150776435,
			"-0.007": 11.2588498139,
			"-0.006": 25.2255845113,
			"-0.005": 39.7738608393,
			"-0.004": 51.6067570908,
			"-0.003": 44.8851420251,
			"-0.002": 48.5941034316,
			"-0.001": 57.7941452439,
			"0.0": 59.0679498464,
			"0.001": 56.5936940704,
			"0.002": 43.1222020117,
			"0.003": 31.1549478833,
			"0.004": 33.0142679702,
			"0.005": 21.0205216097,
			"0.006": 13.4009866221,
			"0.007": 10.0350015845,
			"0.008": 5.89478282044,
			"0.009": 6.43483094867,
			"0.01": 8.22826699916,
			"0.011": 9.10019962649,
			"0.012": 3.73848206022,
			"0.013": 4.15368539295,
			"0.014": 0.706731579319,
			"0.015": 0.0,
			"0.016": 0.0,
			"0.017": 0.0,
			"0.018": 0.0,
			"0.019": 0.0,
			"0.02": 0.0,
			"0.021": 0.0,
			"0.022": 0.0,
			"0.023": 0.0,
			"0.024": 0.0,
			"0.025": 0.0
		}
	}
}
