{
	 "smiles": "COC(C)(C)C(N)=NO", 
	 "Tm": 378.15, 
	 "num_atms": 21, 
	 "gaussian": { 
		 "optdone": 1, 
		 "sigma_profile": "yes", 
		 "theory": "DFT", 
		 "functional": "B3LYP", 
		 "basiset": "6-31G**", 
		 "properties": { 
			 "R2extent": 1778.3536, 
			 "electric_dipole_moment_norm": 1.48117453394, 
			 "electric_quadrupole_moment_norm": 5.64710785447, 
			 "total_energy": -457.64471203, 
			 "HOMO_LUMO_gap": 0.23249, 
			 "cosmo_polarized_energy": -10.29, 
			 "cosmo_cavitation_energy": 22.95, 
			 "cosmo_dispersion_energy": -16.64, 
			 "cosmo_repulsion_energy": 1.38, 
			 "cosmo_total_nonelectrostatic_energy": 7.69, 
			 "SMD_solvation_energy": 4.46 
		},
		"coords": [
			{
				"x": 1.6638420961,
				"y": 1.0125974379,
				"z": 1.6860601073,
				"element": "C" 
			},
			{
				"x": 1.195388711,
				"y": -0.3038267271,
				"z": 1.4280409222,
				"element": "O" 
			},
			{
				"x": -0.1630685393,
				"y": -0.4188165176,
				"z": 0.9410516037,
				"element": "C" 
			},
			{
				"x": -0.2953091582,
				"y": -1.8902275655,
				"z": 0.524149897,
				"element": "C" 
			},
			{
				"x": -0.3735135741,
				"y": 0.5011197111,
				"z": -0.2687669574,
				"element": "C" 
			},
			{
				"x": -1.1101991701,
				"y": -0.1716799128,
				"z": 2.1406438202,
				"element": "C" 
			},
			{
				"x": -0.6016142216,
				"y": -0.6488016089,
				"z": 3.3397205815,
				"element": "N" 
			},
			{
				"x": -2.3087056996,
				"y": 0.2984377071,
				"z": 2.1796725398,
				"element": "N" 
			},
			{
				"x": -2.8470537297,
				"y": 0.5970493929,
				"z": 0.8974083331,
				"element": "O" 
			},
			{
				"x": 1.7938452713,
				"y": 1.5974528897,
				"z": 0.7677742272,
				"element": "H" 
			},
			{
				"x": 2.6391941867,
				"y": 0.9017372474,
				"z": 2.1671787438,
				"element": "H" 
			},
			{
				"x": 0.9968727354,
				"y": 1.5676728464,
				"z": 2.3619455471,
				"element": "H" 
			},
			{
				"x": -0.0603729552,
				"y": -2.5443153149,
				"z": 1.3666109758,
				"element": "H" 
			},
			{
				"x": -1.3167527682,
				"y": -2.0948544921,
				"z": 0.1925935211,
				"element": "H" 
			},
			{
				"x": 0.3971040042,
				"y": -2.1038182414,
				"z": -0.2955382069,
				"element": "H" 
			},
			{
				"x": -0.4583298996,
				"y": 1.5533476639,
				"z": 0.010179928,
				"element": "H" 
			},
			{
				"x": -1.2843015251,
				"y": 0.234455417,
				"z": -0.801528487,
				"element": "H" 
			},
			{
				"x": 0.4844721446,
				"y": 0.3756951756,
				"z": -0.9377583791,
				"element": "H" 
			},
			{
				"x": 0.4041625534,
				"y": -0.6197913704,
				"z": 3.416266185,
				"element": "H" 
			},
			{
				"x": -1.1245793728,
				"y": -0.3773197672,
				"z": 4.1602971004,
				"element": "H" 
			},
			{
				"x": -3.7174810892,
				"y": 0.9353860289,
				"z": 1.1398979972,
				"element": "H" 
			}
		],
		 "valence_orbital": [ 
			{
				"type": "occ",
				"energy": -0.31504,
				"method": "rhf"
			},
			{
				"type": "occ",
				"energy": -0.30858,
				"method": "rhf"
			},
			{
				"type": "occ",
				"energy": -0.27557,
				"method": "rhf"
			},
			{
				"type": "occ",
				"energy": -0.24571,
				"method": "rhf"
			},
			{
				"type": "occ",
				"energy": -0.19991,
				"method": "rhf"
			},
			{
				"type": "unocc",
				"energy": 0.03258,
				"method": "rhf"
			},
			{
				"type": "unocc",
				"energy": 0.08077,
				"method": "rhf"
			},
			{
				"type": "unocc",
				"energy": 0.08769,
				"method": "rhf"
			},
			{
				"type": "unocc",
				"energy": 0.11342,
				"method": "rhf"
			},
			{
				"type": "unocc",
				"energy": 0.12851,
				"method": "rhf"
			}
		],
		"cosmo_sigma_profile": { 
			"-0.025": 0.0,
			"-0.024": 0.0,
			"-0.023": 0.0,
			"-0.022": 0.0,
			"-0.021": 0.0,
			"-0.02": 0.0,
			"-0.019": 0.0,
			"-0.018": 0.0,
			"-0.017": 0.0634923018164,
			"-0.016": 0.753291997745,
			"-0.015": 0.911153264491,
			"-0.014": 0.746548235808,
			"-0.013": 1.2323741557,
			"-0.012": 1.522371413,
			"-0.011": 1.38195809597,
			"-0.01": 2.03937269694,
			"-0.009": 2.3357534477,
			"-0.008": 2.93492343588,
			"-0.007": 3.19492738866,
			"-0.006": 2.51846306532,
			"-0.005": 3.91617152356,
			"-0.004": 12.0250880343,
			"-0.003": 23.1233386993,
			"-0.002": 22.3047410515,
			"-0.001": 14.2495831696,
			"0.0": 15.3426275367,
			"0.001": 12.1667880723,
			"0.002": 6.04965258385,
			"0.003": 5.13835549818,
			"0.004": 4.8461252656,
			"0.005": 5.64112259532,
			"0.006": 5.51652963248,
			"0.007": 5.0133354357,
			"0.008": 5.23098259351,
			"0.009": 5.67210425779,
			"0.01": 3.83783913708,
			"0.011": 3.10851017584,
			"0.012": 1.9972789038,
			"0.013": 1.86340984718,
			"0.014": 0.522890318071,
			"0.015": 0.507503712224,
			"0.016": 0.0,
			"0.017": 0.0,
			"0.018": 0.0,
			"0.019": 0.0,
			"0.02": 0.0,
			"0.021": 0.0,
			"0.022": 0.0,
			"0.023": 0.0,
			"0.024": 0.0,
			"0.025": 0.0
		}
	}
}
