{
	 "smiles": "[O-][N+](=O)C1=C(C=CC=C1)S(=O)(=O)N1C=CC=C1C=O", 
	 "Tm": 413.15, 
	 "num_atms": 27, 
	 "gaussian": { 
		 "optdone": 1, 
		 "sigma_profile": "yes", 
		 "theory": "DFT", 
		 "functional": "B3LYP", 
		 "basiset": "6-31G**", 
		 "properties": { 
			 "R2extent": 4955.2344, 
			 "electric_dipole_moment_norm": 4.64654132447, 
			 "electric_quadrupole_moment_norm": 31.1732482862, 
			 "total_energy": -1307.57594206, 
			 "HOMO_LUMO_gap": 0.12582, 
			 "cosmo_polarized_energy": -17.58, 
			 "cosmo_cavitation_energy": 33.44, 
			 "cosmo_dispersion_energy": -24.02, 
			 "cosmo_repulsion_energy": 1.77, 
			 "cosmo_total_nonelectrostatic_energy": 11.19, 
			 "SMD_solvation_energy": 8.41 
		},
		"coords": [
			{
				"x": 1.3748274005,
				"y": 1.8242141764,
				"z": 1.3191308054,
				"element": "O" 
			},
			{
				"x": 2.2860802509,
				"y": 1.9190097909,
				"z": 0.5033521253,
				"element": "N" 
			},
			{
				"x": 3.3266817796,
				"y": 2.5481304348,
				"z": 0.664956149,
				"element": "O" 
			},
			{
				"x": 2.1442314719,
				"y": 1.1687573802,
				"z": -0.7578880901,
				"element": "C" 
			},
			{
				"x": 0.909271878,
				"y": 0.9508750143,
				"z": -1.3942964832,
				"element": "C" 
			},
			{
				"x": 0.8963249118,
				"y": 0.2085975303,
				"z": -2.5782003204,
				"element": "C" 
			},
			{
				"x": 2.0711919075,
				"y": -0.3474368777,
				"z": -3.088157164,
				"element": "C" 
			},
			{
				"x": 3.2845766122,
				"y": -0.1310532041,
				"z": -2.4405662103,
				"element": "C" 
			},
			{
				"x": 3.3216631233,
				"y": 0.6424686694,
				"z": -1.2817027967,
				"element": "C" 
			},
			{
				"x": -0.6723741401,
				"y": 1.7514999614,
				"z": -0.9718048552,
				"element": "S" 
			},
			{
				"x": -1.5629718574,
				"y": 1.478019984,
				"z": -2.0951380938,
				"element": "O" 
			},
			{
				"x": -0.4133627573,
				"y": 3.1061434157,
				"z": -0.5077396749,
				"element": "O" 
			},
			{
				"x": -1.3209257622,
				"y": 0.8917278622,
				"z": 0.3663194054,
				"element": "N" 
			},
			{
				"x": -1.453131689,
				"y": 1.4634851955,
				"z": 1.6189912759,
				"element": "C" 
			},
			{
				"x": -2.0756305591,
				"y": 0.5552641427,
				"z": 2.442826731,
				"element": "C" 
			},
			{
				"x": -2.3321489857,
				"y": -0.610710841,
				"z": 1.6819522277,
				"element": "C" 
			},
			{
				"x": -1.8764219936,
				"y": -0.4084702676,
				"z": 0.3917840328,
				"element": "C" 
			},
			{
				"x": -1.9623297368,
				"y": -1.3451227888,
				"z": -0.723542301,
				"element": "C" 
			},
			{
				"x": -2.4173491363,
				"y": -2.4714927362,
				"z": -0.5969218141,
				"element": "O" 
			},
			{
				"x": -0.039699062,
				"y": 0.0939081901,
				"z": -3.1106674939,
				"element": "H" 
			},
			{
				"x": 2.0307805435,
				"y": -0.9329182419,
				"z": -4.0007589199,
				"element": "H" 
			},
			{
				"x": 4.2037304144,
				"y": -0.5510420949,
				"z": -2.8355522602,
				"element": "H" 
			},
			{
				"x": 4.2513594694,
				"y": 0.847604768,
				"z": -0.7652606341,
				"element": "H" 
			},
			{
				"x": -1.0827676692,
				"y": 2.4589681276,
				"z": 1.8002545513,
				"element": "H" 
			},
			{
				"x": -2.3177912129,
				"y": 0.7215452189,
				"z": 3.482708761,
				"element": "H" 
			},
			{
				"x": -2.8090218824,
				"y": -1.5248838327,
				"z": 2.005612586,
				"element": "H" 
			},
			{
				"x": -1.6010933191,
				"y": -0.9862889776,
				"z": -1.7040915387,
				"element": "H" 
			}
		],
		 "valence_orbital": [ 
			{
				"type": "occ",
				"energy": -0.31382,
				"method": "rhf"
			},
			{
				"type": "occ",
				"energy": -0.30261,
				"method": "rhf"
			},
			{
				"type": "occ",
				"energy": -0.27743,
				"method": "rhf"
			},
			{
				"type": "occ",
				"energy": -0.25535,
				"method": "rhf"
			},
			{
				"type": "occ",
				"energy": -0.24073,
				"method": "rhf"
			},
			{
				"type": "unocc",
				"energy": -0.11491,
				"method": "rhf"
			},
			{
				"type": "unocc",
				"energy": -0.0729,
				"method": "rhf"
			},
			{
				"type": "unocc",
				"energy": -0.05939,
				"method": "rhf"
			},
			{
				"type": "unocc",
				"energy": -0.04084,
				"method": "rhf"
			},
			{
				"type": "unocc",
				"energy": 0.00342,
				"method": "rhf"
			}
		],
		"cosmo_sigma_profile": { 
			"-0.025": 0.0,
			"-0.024": 0.0,
			"-0.023": 0.0,
			"-0.022": 0.0,
			"-0.021": 0.0,
			"-0.02": 0.0,
			"-0.019": 0.0,
			"-0.018": 0.0,
			"-0.017": 0.0,
			"-0.016": 0.0,
			"-0.015": 0.0,
			"-0.014": 0.0,
			"-0.013": 0.0,
			"-0.012": 0.0,
			"-0.011": 0.0,
			"-0.01": 0.266426316779,
			"-0.009": 7.55298722633,
			"-0.008": 15.212428101,
			"-0.007": 12.9280837991,
			"-0.006": 14.4548111222,
			"-0.005": 13.9532478439,
			"-0.004": 15.9757353588,
			"-0.003": 17.8930748118,
			"-0.002": 19.2485789056,
			"-0.001": 21.7736455642,
			"0.0": 18.4145740673,
			"0.001": 12.371197368,
			"0.002": 13.8012553218,
			"0.003": 12.803223521,
			"0.004": 10.1534389442,
			"0.005": 10.0827673284,
			"0.006": 9.89818128717,
			"0.007": 11.5607283903,
			"0.008": 11.2680175851,
			"0.009": 9.20377320847,
			"0.01": 2.79631091132,
			"0.011": 3.83937469608,
			"0.012": 3.82916151217,
			"0.013": 1.2704880422,
			"0.014": 0.0449483667743,
			"0.015": 0.0,
			"0.016": 0.0,
			"0.017": 0.0,
			"0.018": 0.0,
			"0.019": 0.0,
			"0.02": 0.0,
			"0.021": 0.0,
			"0.022": 0.0,
			"0.023": 0.0,
			"0.024": 0.0,
			"0.025": 0.0
		}
	}
}
