{
	 "smiles": "C#CCOC1=C(C=CC=C1)C#N", 
	 "Tm": 351.15, 
	 "num_atms": 19, 
	 "gaussian": { 
		 "optdone": 1, 
		 "sigma_profile": "yes", 
		 "theory": "DFT", 
		 "functional": "B3LYP", 
		 "basiset": "6-31G**", 
		 "properties": { 
			 "R2extent": 2824.7293, 
			 "electric_dipole_moment_norm": 5.42097331205, 
			 "electric_quadrupole_moment_norm": 15.2330334445, 
			 "total_energy": -515.146435914, 
			 "HOMO_LUMO_gap": 0.19349, 
			 "cosmo_polarized_energy": -14.41, 
			 "cosmo_cavitation_energy": 25.92, 
			 "cosmo_dispersion_energy": -17.61, 
			 "cosmo_repulsion_energy": 1.4, 
			 "cosmo_total_nonelectrostatic_energy": 9.72, 
			 "SMD_solvation_energy": 7.53 
		},
		"coords": [
			{
				"x": 2.4523825481,
				"y": -3.2280211924,
				"z": 2.1404169893,
				"element": "C" 
			},
			{
				"x": 2.4646532147,
				"y": -2.1936580488,
				"z": 1.5212428353,
				"element": "C" 
			},
			{
				"x": 2.5228673358,
				"y": -0.954420755,
				"z": 0.7572207706,
				"element": "C" 
			},
			{
				"x": 1.3019210301,
				"y": -0.231890891,
				"z": 0.9516147781,
				"element": "O" 
			},
			{
				"x": 1.1558700205,
				"y": 0.9595266726,
				"z": 0.319861513,
				"element": "C" 
			},
			{
				"x": -0.0710497642,
				"y": 1.6281517095,
				"z": 0.5489566793,
				"element": "C" 
			},
			{
				"x": -0.3136040388,
				"y": 2.8668983895,
				"z": -0.0616949844,
				"element": "C" 
			},
			{
				"x": 0.6417566364,
				"y": 3.4469574432,
				"z": -0.8925474529,
				"element": "C" 
			},
			{
				"x": 1.8478925507,
				"y": 2.7828924395,
				"z": -1.1137351748,
				"element": "C" 
			},
			{
				"x": 2.1111928561,
				"y": 1.5481086356,
				"z": -0.5159976511,
				"element": "C" 
			},
			{
				"x": -1.0620612805,
				"y": 1.043604997,
				"z": 1.4005913313,
				"element": "C" 
			},
			{
				"x": -1.8909683789,
				"y": 0.600308211,
				"z": 2.0858586903,
				"element": "N" 
			},
			{
				"x": 2.4258013651,
				"y": -4.1386350755,
				"z": 2.6935637774,
				"element": "H" 
			},
			{
				"x": 2.6622028773,
				"y": -1.1740054571,
				"z": -0.3110243323,
				"element": "H" 
			},
			{
				"x": 3.3757671587,
				"y": -0.3447660731,
				"z": 1.0883742381,
				"element": "H" 
			},
			{
				"x": -1.2599670978,
				"y": 3.3627977479,
				"z": 0.1267522042,
				"element": "H" 
			},
			{
				"x": 0.4463059322,
				"y": 4.4055204456,
				"z": -1.3611438342,
				"element": "H" 
			},
			{
				"x": 2.6007833452,
				"y": 3.2250400942,
				"z": -1.7596080886,
				"element": "H" 
			},
			{
				"x": 3.0571536894,
				"y": 1.0566907071,
				"z": -0.7069022886,
				"element": "H" 
			}
		],
		 "valence_orbital": [ 
			{
				"type": "occ",
				"energy": -0.32188,
				"method": "rhf"
			},
			{
				"type": "occ",
				"energy": -0.2913,
				"method": "rhf"
			},
			{
				"type": "occ",
				"energy": -0.28182,
				"method": "rhf"
			},
			{
				"type": "occ",
				"energy": -0.26884,
				"method": "rhf"
			},
			{
				"type": "occ",
				"energy": -0.24251,
				"method": "rhf"
			},
			{
				"type": "unocc",
				"energy": -0.04902,
				"method": "rhf"
			},
			{
				"type": "unocc",
				"energy": -0.01256,
				"method": "rhf"
			},
			{
				"type": "unocc",
				"energy": 0.0144,
				"method": "rhf"
			},
			{
				"type": "unocc",
				"energy": 0.04053,
				"method": "rhf"
			},
			{
				"type": "unocc",
				"energy": 0.04291,
				"method": "rhf"
			}
		],
		"cosmo_sigma_profile": { 
			"-0.025": 0.0,
			"-0.024": 0.0,
			"-0.023": 0.0,
			"-0.022": 0.0,
			"-0.021": 0.0,
			"-0.02": 0.0,
			"-0.019": 0.0,
			"-0.018": 0.0,
			"-0.017": 0.0,
			"-0.016": 0.0,
			"-0.015": 0.0,
			"-0.014": 0.0,
			"-0.013": 0.145705197061,
			"-0.012": 1.12170153714,
			"-0.011": 1.60024819432,
			"-0.01": 0.920684564598,
			"-0.009": 4.27166674817,
			"-0.008": 11.3314774724,
			"-0.007": 11.7913154312,
			"-0.006": 14.3542203165,
			"-0.005": 10.0757053586,
			"-0.004": 10.5152243376,
			"-0.003": 8.40702867991,
			"-0.002": 8.453342513,
			"-0.001": 13.0986705368,
			"0.0": 13.5523631511,
			"0.001": 14.0096859354,
			"0.002": 15.763872975,
			"0.003": 15.6020393038,
			"0.004": 8.00090419033,
			"0.005": 10.5897111864,
			"0.006": 10.5789202841,
			"0.007": 6.56437992447,
			"0.008": 5.47356597312,
			"0.009": 3.79009233823,
			"0.01": 3.44164716748,
			"0.011": 2.72393616963,
			"0.012": 2.53143389178,
			"0.013": 1.8341551086,
			"0.014": 0.180144207336,
			"0.015": 0.0,
			"0.016": 0.0,
			"0.017": 0.0,
			"0.018": 0.0,
			"0.019": 0.0,
			"0.02": 0.0,
			"0.021": 0.0,
			"0.022": 0.0,
			"0.023": 0.0,
			"0.024": 0.0,
			"0.025": 0.0
		}
	}
}
