{
	 "smiles": "BrC1=C(C=CC=C1)C1=CSC(=O)N1", 
	 "Tm": 443.15, 
	 "num_atms": 19, 
	 "gaussian": { 
		 "optdone": 1, 
		 "sigma_profile": "yes", 
		 "theory": "DFT", 
		 "functional": "B3LYP", 
		 "basiset": "6-31G**", 
		 "properties": { 
			 "R2extent": 4810.016, 
			 "electric_dipole_moment_norm": 4.98417025492, 
			 "electric_quadrupole_moment_norm": 14.2272335466, 
			 "total_energy": -3446.14364297, 
			 "HOMO_LUMO_gap": 0.16507, 
			 "cosmo_polarized_energy": -12.02, 
			 "cosmo_cavitation_energy": 27.46, 
			 "cosmo_dispersion_energy": -21.11, 
			 "cosmo_repulsion_energy": 1.62, 
			 "cosmo_total_nonelectrostatic_energy": 7.96, 
			 "SMD_solvation_energy": 4.38 
		},
		"coords": [
			{
				"x": -0.5411261613,
				"y": 0.8698659317,
				"z": -3.3975049882,
				"element": "Br" 
			},
			{
				"x": -0.397483405,
				"y": 1.1493138475,
				"z": -1.5093643464,
				"element": "C" 
			},
			{
				"x": -0.2282782052,
				"y": 0.0852971894,
				"z": -0.6019771416,
				"element": "C" 
			},
			{
				"x": -0.1006991594,
				"y": 0.4241047607,
				"z": 0.7612241791,
				"element": "C" 
			},
			{
				"x": -0.137191486,
				"y": 1.7428400615,
				"z": 1.2015533737,
				"element": "C" 
			},
			{
				"x": -0.308322355,
				"y": 2.7750087185,
				"z": 0.2792835331,
				"element": "C" 
			},
			{
				"x": -0.4395096247,
				"y": 2.4744188346,
				"z": -1.0749591572,
				"element": "C" 
			},
			{
				"x": -0.1715054405,
				"y": -1.3411228801,
				"z": -0.971364478,
				"element": "C" 
			},
			{
				"x": -0.9458405399,
				"y": -2.037824491,
				"z": -1.8351103053,
				"element": "C" 
			},
			{
				"x": -0.5730682856,
				"y": -3.7510597769,
				"z": -1.8436212796,
				"element": "S" 
			},
			{
				"x": 0.7338217202,
				"y": -3.514679532,
				"z": -0.6016819088,
				"element": "C" 
			},
			{
				"x": 1.4649747306,
				"y": -4.3669515856,
				"z": -0.1495656166,
				"element": "O" 
			},
			{
				"x": 0.7310962336,
				"y": -2.16893141,
				"z": -0.2891556602,
				"element": "N" 
			},
			{
				"x": -0.0002958993,
				"y": -0.3774157224,
				"z": 1.4869847339,
				"element": "H" 
			},
			{
				"x": -0.0417244979,
				"y": 1.9605009614,
				"z": 2.2606940796,
				"element": "H" 
			},
			{
				"x": -0.3394571401,
				"y": 3.809976418,
				"z": 0.6052903445,
				"element": "H" 
			},
			{
				"x": -0.5653849859,
				"y": 3.2657037855,
				"z": -1.8047998831,
				"element": "H" 
			},
			{
				"x": -1.7405767191,
				"y": -1.641666975,
				"z": -2.4465922027,
				"element": "H" 
			},
			{
				"x": 1.4692712203,
				"y": -1.8126781358,
				"z": 0.3017667237,
				"element": "H" 
			}
		],
		 "valence_orbital": [ 
			{
				"type": "occ",
				"energy": -0.29519,
				"method": "rhf"
			},
			{
				"type": "occ",
				"energy": -0.28287,
				"method": "rhf"
			},
			{
				"type": "occ",
				"energy": -0.26981,
				"method": "rhf"
			},
			{
				"type": "occ",
				"energy": -0.25908,
				"method": "rhf"
			},
			{
				"type": "occ",
				"energy": -0.21353,
				"method": "rhf"
			},
			{
				"type": "unocc",
				"energy": -0.04846,
				"method": "rhf"
			},
			{
				"type": "unocc",
				"energy": -0.03127,
				"method": "rhf"
			},
			{
				"type": "unocc",
				"energy": -0.00661,
				"method": "rhf"
			},
			{
				"type": "unocc",
				"energy": 0.01015,
				"method": "rhf"
			},
			{
				"type": "unocc",
				"energy": 0.01588,
				"method": "rhf"
			}
		],
		"cosmo_sigma_profile": { 
			"-0.025": 0.0,
			"-0.024": 0.0,
			"-0.023": 0.0,
			"-0.022": 0.0,
			"-0.021": 0.0,
			"-0.02": 0.0,
			"-0.019": 0.0,
			"-0.018": 0.0,
			"-0.017": 0.118889655155,
			"-0.016": 0.815302447162,
			"-0.015": 1.25560147774,
			"-0.014": 0.726353668676,
			"-0.013": 0.892498217863,
			"-0.012": 1.21974876006,
			"-0.011": 1.48825747709,
			"-0.01": 1.11489784374,
			"-0.009": 1.76805177735,
			"-0.008": 3.33848377327,
			"-0.007": 9.22592793065,
			"-0.006": 10.4239841065,
			"-0.005": 11.6714398961,
			"-0.004": 11.1911958239,
			"-0.003": 10.4693260159,
			"-0.002": 11.9574702028,
			"-0.001": 15.8312926838,
			"0.0": 19.1793812832,
			"0.001": 23.0661643021,
			"0.002": 24.6698626249,
			"0.003": 24.3841763231,
			"0.004": 16.9497675672,
			"0.005": 6.36723462905,
			"0.006": 1.17887735147,
			"0.007": 1.09146577242,
			"0.008": 1.33616220493,
			"0.009": 1.62464191144,
			"0.01": 2.10303838178,
			"0.011": 2.80952539395,
			"0.012": 6.36360464304,
			"0.013": 1.95225614267,
			"0.014": 0.0,
			"0.015": 0.0,
			"0.016": 0.0,
			"0.017": 0.0,
			"0.018": 0.0,
			"0.019": 0.0,
			"0.02": 0.0,
			"0.021": 0.0,
			"0.022": 0.0,
			"0.023": 0.0,
			"0.024": 0.0,
			"0.025": 0.0
		}
	}
}
