{
	 "smiles": "FC1=C(OCC2=CC=C(C=C2)C#N)C=CC=C1", 
	 "Tm": 342.15, 
	 "num_atms": 27, 
	 "gaussian": { 
		 "optdone": 1, 
		 "sigma_profile": "yes", 
		 "theory": "DFT", 
		 "functional": "B3LYP", 
		 "basiset": "6-31G**", 
		 "properties": { 
			 "R2extent": 5837.2513, 
			 "electric_dipole_moment_norm": 4.01595407469, 
			 "electric_quadrupole_moment_norm": 29.1437685024, 
			 "total_energy": -769.29491191, 
			 "HOMO_LUMO_gap": 0.17305, 
			 "cosmo_polarized_energy": -12.97, 
			 "cosmo_cavitation_energy": 33.39, 
			 "cosmo_dispersion_energy": -22.94, 
			 "cosmo_repulsion_energy": 1.76, 
			 "cosmo_total_nonelectrostatic_energy": 12.21, 
			 "SMD_solvation_energy": 7.7 
		},
		"coords": [
			{
				"x": 1.1107144925,
				"y": 3.26882117,
				"z": 1.417913644,
				"element": "F" 
			},
			{
				"x": 0.4896263964,
				"y": 2.7950713257,
				"z": 0.320217488,
				"element": "C" 
			},
			{
				"x": 0.2566429566,
				"y": 1.4126370711,
				"z": 0.2312376758,
				"element": "C" 
			},
			{
				"x": 0.6887453592,
				"y": 0.672379447,
				"z": 1.29842275,
				"element": "O" 
			},
			{
				"x": 0.3490956673,
				"y": -0.7065903882,
				"z": 1.3566643088,
				"element": "C" 
			},
			{
				"x": 1.2304259009,
				"y": -1.5970337165,
				"z": 0.5004447098,
				"element": "C" 
			},
			{
				"x": 0.7528435181,
				"y": -2.8378134514,
				"z": 0.0595945078,
				"element": "C" 
			},
			{
				"x": 1.5667544793,
				"y": -3.6935660752,
				"z": -0.6759577118,
				"element": "C" 
			},
			{
				"x": 2.8810984001,
				"y": -3.3081979271,
				"z": -0.9882453581,
				"element": "C" 
			},
			{
				"x": 3.3637316444,
				"y": -2.0625798683,
				"z": -0.5522625341,
				"element": "C" 
			},
			{
				"x": 2.5420281859,
				"y": -1.2194635919,
				"z": 0.1887702454,
				"element": "C" 
			},
			{
				"x": 3.7239042354,
				"y": -4.181516383,
				"z": -1.7521455213,
				"element": "C" 
			},
			{
				"x": 4.4065669486,
				"y": -4.8910580026,
				"z": -2.3717176244,
				"element": "N" 
			},
			{
				"x": -0.3824711494,
				"y": 0.9196057431,
				"z": -0.9092920577,
				"element": "C" 
			},
			{
				"x": -0.7837129925,
				"y": 1.796731086,
				"z": -1.9238488983,
				"element": "C" 
			},
			{
				"x": -0.5484077427,
				"y": 3.164554665,
				"z": -1.8155128836,
				"element": "C" 
			},
			{
				"x": 0.0974334885,
				"y": 3.6669373777,
				"z": -0.6807908241,
				"element": "C" 
			},
			{
				"x": -0.7097521672,
				"y": -0.8574156312,
				"z": 1.1083008813,
				"element": "H" 
			},
			{
				"x": 0.4778134076,
				"y": -0.9714413859,
				"z": 2.4121183861,
				"element": "H" 
			},
			{
				"x": -0.2657202636,
				"y": -3.1391656294,
				"z": 0.2915856383,
				"element": "H" 
			},
			{
				"x": 1.1929694497,
				"y": -4.653099563,
				"z": -1.0171574061,
				"element": "H" 
			},
			{
				"x": 4.3783565165,
				"y": -1.7661695421,
				"z": -0.7964404079,
				"element": "H" 
			},
			{
				"x": 2.9110554658,
				"y": -0.2566497711,
				"z": 0.5258022695,
				"element": "H" 
			},
			{
				"x": -0.5536081556,
				"y": -0.1440953188,
				"z": -1.0228920536,
				"element": "H" 
			},
			{
				"x": -1.2770679392,
				"y": 1.3953700188,
				"z": -2.8035854687,
				"element": "H" 
			},
			{
				"x": -0.8585146782,
				"y": 3.8420010211,
				"z": -2.6043626959,
				"element": "H" 
			},
			{
				"x": 0.3002485755,
				"y": 4.7254473203,
				"z": -0.5568610593,
				"element": "H" 
			}
		],
		 "valence_orbital": [ 
			{
				"type": "occ",
				"energy": -0.3316,
				"method": "rhf"
			},
			{
				"type": "occ",
				"energy": -0.28092,
				"method": "rhf"
			},
			{
				"type": "occ",
				"energy": -0.26661,
				"method": "rhf"
			},
			{
				"type": "occ",
				"energy": -0.2558,
				"method": "rhf"
			},
			{
				"type": "occ",
				"energy": -0.23013,
				"method": "rhf"
			},
			{
				"type": "unocc",
				"energy": -0.05708,
				"method": "rhf"
			},
			{
				"type": "unocc",
				"energy": -0.0315,
				"method": "rhf"
			},
			{
				"type": "unocc",
				"energy": -0.00818,
				"method": "rhf"
			},
			{
				"type": "unocc",
				"energy": 0.00104,
				"method": "rhf"
			},
			{
				"type": "unocc",
				"energy": 0.0343,
				"method": "rhf"
			}
		],
		"cosmo_sigma_profile": { 
			"-0.025": 0.0,
			"-0.024": 0.0,
			"-0.023": 0.0,
			"-0.022": 0.0,
			"-0.021": 0.0,
			"-0.02": 0.0,
			"-0.019": 0.0,
			"-0.018": 0.0,
			"-0.017": 0.0,
			"-0.016": 0.0,
			"-0.015": 0.0,
			"-0.014": 0.0,
			"-0.013": 0.0,
			"-0.012": 0.0,
			"-0.011": 0.0,
			"-0.01": 0.0,
			"-0.009": 0.0490283848301,
			"-0.008": 6.0182494842,
			"-0.007": 14.7449996291,
			"-0.006": 21.0503911572,
			"-0.005": 18.7336271923,
			"-0.004": 17.9979661224,
			"-0.003": 14.7527256694,
			"-0.002": 15.9538301698,
			"-0.001": 15.8966154969,
			"0.0": 17.552115915,
			"0.001": 22.8897844175,
			"0.002": 24.62513775,
			"0.003": 16.1956969958,
			"0.004": 18.4273479536,
			"0.005": 13.7881626232,
			"0.006": 5.69893480053,
			"0.007": 3.95052285042,
			"0.008": 5.10005601658,
			"0.009": 4.74671790186,
			"0.01": 4.47639889762,
			"0.011": 2.57758463861,
			"0.012": 2.43900859696,
			"0.013": 1.66026160044,
			"0.014": 0.10604052765,
			"0.015": 0.0,
			"0.016": 0.0,
			"0.017": 0.0,
			"0.018": 0.0,
			"0.019": 0.0,
			"0.02": 0.0,
			"0.021": 0.0,
			"0.022": 0.0,
			"0.023": 0.0,
			"0.024": 0.0,
			"0.025": 0.0
		}
	}
}
