{
	 "smiles": "NC1=CC(=CC=C1)S(=O)(=O)NC1=NC=CS1", 
	 "Tm": 444.15, 
	 "num_atms": 25, 
	 "gaussian": { 
		 "optdone": 1, 
		 "sigma_profile": "yes", 
		 "theory": "DFT", 
		 "functional": "B3LYP", 
		 "basiset": "6-31G**", 
		 "properties": { 
			 "R2extent": 5711.0397, 
			 "electric_dipole_moment_norm": 6.21137662358, 
			 "electric_quadrupole_moment_norm": 25.8846898687, 
			 "total_energy": -1459.37544693, 
			 "HOMO_LUMO_gap": 0.17942, 
			 "cosmo_polarized_energy": -19.75, 
			 "cosmo_cavitation_energy": 32.71, 
			 "cosmo_dispersion_energy": -24.22, 
			 "cosmo_repulsion_energy": 1.81, 
			 "cosmo_total_nonelectrostatic_energy": 10.29, 
			 "SMD_solvation_energy": 3.27 
		},
		"coords": [
			{
				"x": 0.9777917297,
				"y": -3.6101820478,
				"z": -0.1119177161,
				"element": "N" 
			},
			{
				"x": 0.506261122,
				"y": -2.3942691335,
				"z": 0.3647138767,
				"element": "C" 
			},
			{
				"x": -0.8518210838,
				"y": -2.0551914515,
				"z": 0.24362005,
				"element": "C" 
			},
			{
				"x": -1.3089351867,
				"y": -0.8570477674,
				"z": 0.7900041871,
				"element": "C" 
			},
			{
				"x": -0.4700091483,
				"y": 0.0313572807,
				"z": 1.4648607358,
				"element": "C" 
			},
			{
				"x": 0.8787433779,
				"y": -0.313361793,
				"z": 1.5757405711,
				"element": "C" 
			},
			{
				"x": 1.3640734897,
				"y": -1.4997060809,
				"z": 1.0344247643,
				"element": "C" 
			},
			{
				"x": -3.0375073875,
				"y": -0.4336459416,
				"z": 0.5722184346,
				"element": "S" 
			},
			{
				"x": -3.4181491313,
				"y": 0.5084146023,
				"z": 1.6225771152,
				"element": "O" 
			},
			{
				"x": -3.7835978146,
				"y": -1.6567092929,
				"z": 0.2871272714,
				"element": "O" 
			},
			{
				"x": -3.1381009537,
				"y": 0.4496632644,
				"z": -0.8892396476,
				"element": "N" 
			},
			{
				"x": -2.5758869716,
				"y": 1.7122305372,
				"z": -1.0831051089,
				"element": "C" 
			},
			{
				"x": -1.948614952,
				"y": 2.0162204669,
				"z": -2.1847410602,
				"element": "N" 
			},
			{
				"x": -1.5977732701,
				"y": 3.3485265165,
				"z": -2.1831868279,
				"element": "C" 
			},
			{
				"x": -1.9460499874,
				"y": 4.0604805304,
				"z": -1.0756856366,
				"element": "C" 
			},
			{
				"x": -2.7958474789,
				"y": 3.0395345713,
				"z": 0.0506487288,
				"element": "S" 
			},
			{
				"x": 1.9695102974,
				"y": -3.664630675,
				"z": -0.2933552504,
				"element": "H" 
			},
			{
				"x": 0.4216347151,
				"y": -4.0576646413,
				"z": -0.8260007906,
				"element": "H" 
			},
			{
				"x": -1.550101528,
				"y": -2.7288103308,
				"z": -0.2427939257,
				"element": "H" 
			},
			{
				"x": -0.8639802383,
				"y": 0.9406448213,
				"z": 1.9010526155,
				"element": "H" 
			},
			{
				"x": 1.5610799497,
				"y": 0.3519210209,
				"z": 2.096303067,
				"element": "H" 
			},
			{
				"x": 2.4163921691,
				"y": -1.7513808595,
				"z": 1.1385306175,
				"element": "H" 
			},
			{
				"x": -3.0299263232,
				"y": -0.1454242501,
				"z": -1.7064081965,
				"element": "H" 
			},
			{
				"x": -1.0626955775,
				"y": 3.7489703162,
				"z": -3.0361866429,
				"element": "H" 
			},
			{
				"x": -1.7396898176,
				"y": 5.0950603368,
				"z": -0.8420012317,
				"element": "H" 
			}
		],
		 "valence_orbital": [ 
			{
				"type": "occ",
				"energy": -0.28482,
				"method": "rhf"
			},
			{
				"type": "occ",
				"energy": -0.28343,
				"method": "rhf"
			},
			{
				"type": "occ",
				"energy": -0.27339,
				"method": "rhf"
			},
			{
				"type": "occ",
				"energy": -0.22887,
				"method": "rhf"
			},
			{
				"type": "occ",
				"energy": -0.22436,
				"method": "rhf"
			},
			{
				"type": "unocc",
				"energy": -0.04494,
				"method": "rhf"
			},
			{
				"type": "unocc",
				"energy": -0.02137,
				"method": "rhf"
			},
			{
				"type": "unocc",
				"energy": -0.00711,
				"method": "rhf"
			},
			{
				"type": "unocc",
				"energy": 0.02112,
				"method": "rhf"
			},
			{
				"type": "unocc",
				"energy": 0.04661,
				"method": "rhf"
			}
		],
		"cosmo_sigma_profile": { 
			"-0.025": 0.0,
			"-0.024": 0.0,
			"-0.023": 0.0,
			"-0.022": 0.0,
			"-0.021": 0.0,
			"-0.02": 0.0,
			"-0.019": 0.0,
			"-0.018": 0.0,
			"-0.017": 0.0600863815552,
			"-0.016": 0.752860996955,
			"-0.015": 0.876373697944,
			"-0.014": 0.780074031088,
			"-0.013": 3.48796945988,
			"-0.012": 4.11264966254,
			"-0.011": 3.99700796139,
			"-0.01": 4.43079327776,
			"-0.009": 5.44300598474,
			"-0.008": 8.18780868772,
			"-0.007": 9.24388732616,
			"-0.006": 11.9066673334,
			"-0.005": 13.5713116064,
			"-0.004": 10.4299180791,
			"-0.003": 9.46663537617,
			"-0.002": 12.070731933,
			"-0.001": 12.7066348888,
			"0.0": 16.3588006929,
			"0.001": 18.3115059131,
			"0.002": 24.0590418089,
			"0.003": 24.4324332569,
			"0.004": 19.3896168138,
			"0.005": 7.07248429697,
			"0.006": 6.17515269436,
			"0.007": 6.15816264456,
			"0.008": 4.0140328785,
			"0.009": 7.23456782562,
			"0.01": 10.0295553808,
			"0.011": 6.19249838718,
			"0.012": 1.49852264463,
			"0.013": 1.14166069445,
			"0.014": 0.588951970821,
			"0.015": 0.0556696300238,
			"0.016": 0.0,
			"0.017": 0.0,
			"0.018": 0.0,
			"0.019": 0.0,
			"0.02": 0.0,
			"0.021": 0.0,
			"0.022": 0.0,
			"0.023": 0.0,
			"0.024": 0.0,
			"0.025": 0.0
		}
	}
}
