{
	 "smiles": "ClS(=O)(=O)C1=CC2=C(OCCO2)C=C1", 
	 "Tm": 340.15, 
	 "num_atms": 21, 
	 "gaussian": { 
		 "optdone": 1, 
		 "sigma_profile": "yes", 
		 "theory": "DFT", 
		 "functional": "B3LYP", 
		 "basiset": "6-31G**", 
		 "properties": { 
			 "R2extent": 4686.1472, 
			 "electric_dipole_moment_norm": 7.75496845319, 
			 "electric_quadrupole_moment_norm": 6.93469493922, 
			 "total_energy": -1468.25722968, 
			 "HOMO_LUMO_gap": 0.16185, 
			 "cosmo_polarized_energy": -12.23, 
			 "cosmo_cavitation_energy": 28.39, 
			 "cosmo_dispersion_energy": -21.9, 
			 "cosmo_repulsion_energy": 1.68, 
			 "cosmo_total_nonelectrostatic_energy": 8.17, 
			 "SMD_solvation_energy": 3.92 
		},
		"coords": [
			{
				"x": 1.9696685273,
				"y": 2.7439132753,
				"z": -3.0203398602,
				"element": "Cl" 
			},
			{
				"x": 2.1865700585,
				"y": 2.7020869375,
				"z": -0.8888735418,
				"element": "S" 
			},
			{
				"x": 3.344452,
				"y": 1.8559867121,
				"z": -0.6259786216,
				"element": "O" 
			},
			{
				"x": 2.1241401488,
				"y": 4.0931773627,
				"z": -0.4568165862,
				"element": "O" 
			},
			{
				"x": 0.7032656982,
				"y": 1.8590580074,
				"z": -0.3908887264,
				"element": "C" 
			},
			{
				"x": 0.731349093,
				"y": 0.4684462269,
				"z": -0.2849027113,
				"element": "C" 
			},
			{
				"x": -0.4271629251,
				"y": -0.1945911239,
				"z": 0.1079282531,
				"element": "C" 
			},
			{
				"x": -1.6015829095,
				"y": 0.5418254098,
				"z": 0.3732697984,
				"element": "C" 
			},
			{
				"x": -2.7633531112,
				"y": -0.0694845794,
				"z": 0.7378331709,
				"element": "O" 
			},
			{
				"x": -2.7845672363,
				"y": -1.4869705836,
				"z": 0.5279753588,
				"element": "C" 
			},
			{
				"x": -1.4731505763,
				"y": -2.1025748509,
				"z": 0.9830861726,
				"element": "C" 
			},
			{
				"x": -0.3888119171,
				"y": -1.5567238288,
				"z": 0.2269880448,
				"element": "O" 
			},
			{
				"x": -1.5947371936,
				"y": 1.936632029,
				"z": 0.2750741456,
				"element": "C" 
			},
			{
				"x": -0.441268919,
				"y": 2.6099285271,
				"z": -0.1092786045,
				"element": "C" 
			},
			{
				"x": 1.6332909326,
				"y": -0.0987146457,
				"z": -0.4829104287,
				"element": "H" 
			},
			{
				"x": -3.6287489995,
				"y": -1.8691258476,
				"z": 1.1061279754,
				"element": "H" 
			},
			{
				"x": -2.9521700708,
				"y": -1.6966353805,
				"z": -0.5360502876,
				"element": "H" 
			},
			{
				"x": -1.3146852521,
				"y": -1.9092486879,
				"z": 2.0522130388,
				"element": "H" 
			},
			{
				"x": -1.4586625128,
				"y": -3.1805995396,
				"z": 0.8085279919,
				"element": "H" 
			},
			{
				"x": -2.5110584103,
				"y": 2.4719451241,
				"z": 0.4992875095,
				"element": "H" 
			},
			{
				"x": -0.4228764248,
				"y": 3.6901694559,
				"z": -0.1886720915,
				"element": "H" 
			}
		],
		 "valence_orbital": [ 
			{
				"type": "occ",
				"energy": -0.32764,
				"method": "rhf"
			},
			{
				"type": "occ",
				"energy": -0.31919,
				"method": "rhf"
			},
			{
				"type": "occ",
				"energy": -0.30536,
				"method": "rhf"
			},
			{
				"type": "occ",
				"energy": -0.2695,
				"method": "rhf"
			},
			{
				"type": "occ",
				"energy": -0.24453,
				"method": "rhf"
			},
			{
				"type": "unocc",
				"energy": -0.08268,
				"method": "rhf"
			},
			{
				"type": "unocc",
				"energy": -0.03386,
				"method": "rhf"
			},
			{
				"type": "unocc",
				"energy": -0.02409,
				"method": "rhf"
			},
			{
				"type": "unocc",
				"energy": 0.05161,
				"method": "rhf"
			},
			{
				"type": "unocc",
				"energy": 0.06956,
				"method": "rhf"
			}
		],
		"cosmo_sigma_profile": { 
			"-0.025": 0.0,
			"-0.024": 0.0,
			"-0.023": 0.0,
			"-0.022": 0.0,
			"-0.021": 0.0,
			"-0.02": 0.0,
			"-0.019": 0.0,
			"-0.018": 0.0,
			"-0.017": 0.0,
			"-0.016": 0.0,
			"-0.015": 0.0,
			"-0.014": 0.0,
			"-0.013": 0.0,
			"-0.012": 0.0,
			"-0.011": 0.0,
			"-0.01": 0.0,
			"-0.009": 0.320596900811,
			"-0.008": 7.63240064585,
			"-0.007": 16.1300772918,
			"-0.006": 17.8000106056,
			"-0.005": 14.0359299423,
			"-0.004": 10.255220401,
			"-0.003": 11.3811132338,
			"-0.002": 9.79476362336,
			"-0.001": 14.6370267324,
			"0.0": 19.3948886829,
			"0.001": 20.8285356178,
			"0.002": 15.5570488114,
			"0.003": 14.9753958612,
			"0.004": 16.4145815503,
			"0.005": 6.11939494284,
			"0.006": 5.47646753728,
			"0.007": 8.47302634103,
			"0.008": 11.885277438,
			"0.009": 8.29005462736,
			"0.01": 0.555479349026,
			"0.011": 0.0,
			"0.012": 0.0,
			"0.013": 0.0,
			"0.014": 0.0,
			"0.015": 0.0,
			"0.016": 0.0,
			"0.017": 0.0,
			"0.018": 0.0,
			"0.019": 0.0,
			"0.02": 0.0,
			"0.021": 0.0,
			"0.022": 0.0,
			"0.023": 0.0,
			"0.024": 0.0,
			"0.025": 0.0
		}
	}
}
