{
	 "smiles": "FC(F)(F)C1=NC(=NC=C1)N1CCNCC1", 
	 "Tm": 323.15, 
	 "num_atms": 27, 
	 "gaussian": { 
		 "optdone": 1, 
		 "sigma_profile": "yes", 
		 "theory": "DFT", 
		 "functional": "B3LYP", 
		 "basiset": "6-31G**", 
		 "properties": { 
			 "R2extent": 4512.8107, 
			 "electric_dipole_moment_norm": 1.9724434618, 
			 "electric_quadrupole_moment_norm": 10.1586821089, 
			 "total_energy": -868.108190307, 
			 "HOMO_LUMO_gap": 0.1666, 
			 "cosmo_polarized_energy": -8.91, 
			 "cosmo_cavitation_energy": 31.04, 
			 "cosmo_dispersion_energy": -22.4, 
			 "cosmo_repulsion_energy": 1.7, 
			 "cosmo_total_nonelectrostatic_energy": 10.33, 
			 "SMD_solvation_energy": 1.27 
		},
		"coords": [
			{
				"x": 1.7192305626,
				"y": -3.3777109253,
				"z": -1.2308748619,
				"element": "F" 
			},
			{
				"x": 2.2175564454,
				"y": -2.9516876913,
				"z": -0.0554902347,
				"element": "C" 
			},
			{
				"x": 2.6591255227,
				"y": -4.0361487201,
				"z": 0.6189690904,
				"element": "F" 
			},
			{
				"x": 3.2845872612,
				"y": -2.1750270307,
				"z": -0.3213205276,
				"element": "F" 
			},
			{
				"x": 1.1713811552,
				"y": -2.1920072769,
				"z": 0.7417385772,
				"element": "C" 
			},
			{
				"x": 0.6948897817,
				"y": -1.1062937366,
				"z": 0.1402284071,
				"element": "N" 
			},
			{
				"x": -0.2358825232,
				"y": -0.4034202887,
				"z": 0.8248676412,
				"element": "C" 
			},
			{
				"x": -0.715607122,
				"y": -0.7330010835,
				"z": 2.0514592763,
				"element": "N" 
			},
			{
				"x": -0.2120551774,
				"y": -1.8275261947,
				"z": 2.6070521593,
				"element": "C" 
			},
			{
				"x": 0.7609408387,
				"y": -2.6266658476,
				"z": 1.9968398184,
				"element": "C" 
			},
			{
				"x": -0.7159406508,
				"y": 0.7219921121,
				"z": 0.2290121677,
				"element": "N" 
			},
			{
				"x": -1.7864151677,
				"y": 1.5264786389,
				"z": 0.810200718,
				"element": "C" 
			},
			{
				"x": -1.3628509586,
				"y": 3.0118254188,
				"z": 0.8908909898,
				"element": "C" 
			},
			{
				"x": -0.5149758159,
				"y": 3.4416460698,
				"z": -0.2355729066,
				"element": "N" 
			},
			{
				"x": -0.6681635462,
				"y": 2.5664631992,
				"z": -1.3949387468,
				"element": "C" 
			},
			{
				"x": -0.245956662,
				"y": 1.1121602956,
				"z": -1.1061633754,
				"element": "C" 
			},
			{
				"x": -0.6010369864,
				"y": -2.0867772638,
				"z": 3.5910404312,
				"element": "H" 
			},
			{
				"x": 1.1594415056,
				"y": -3.516959769,
				"z": 2.4628107663,
				"element": "H" 
			},
			{
				"x": -2.6888276255,
				"y": 1.4245493814,
				"z": 0.1909322841,
				"element": "H" 
			},
			{
				"x": -2.0201312525,
				"y": 1.1277548567,
				"z": 1.795857034,
				"element": "H" 
			},
			{
				"x": -2.27315367,
				"y": 3.6265878255,
				"z": 0.9280016773,
				"element": "H" 
			},
			{
				"x": -0.8176217789,
				"y": 3.1942437653,
				"z": 1.8224648862,
				"element": "H" 
			},
			{
				"x": 0.4584453729,
				"y": 3.4250026818,
				"z": 0.0554079739,
				"element": "H" 
			},
			{
				"x": -1.7140259188,
				"y": 2.60953789,
				"z": -1.721626575,
				"element": "H" 
			},
			{
				"x": -0.0693585914,
				"y": 2.9519529373,
				"z": -2.2263123414,
				"element": "H" 
			},
			{
				"x": 0.8443758371,
				"y": 1.0225416099,
				"z": -1.1271836327,
				"element": "H" 
			},
			{
				"x": -0.6306708358,
				"y": 0.4246891459,
				"z": -1.8741906963,
				"element": "H" 
			}
		],
		 "valence_orbital": [ 
			{
				"type": "occ",
				"energy": -0.32,
				"method": "rhf"
			},
			{
				"type": "occ",
				"energy": -0.30978,
				"method": "rhf"
			},
			{
				"type": "occ",
				"energy": -0.25548,
				"method": "rhf"
			},
			{
				"type": "occ",
				"energy": -0.23019,
				"method": "rhf"
			},
			{
				"type": "occ",
				"energy": -0.21679,
				"method": "rhf"
			},
			{
				"type": "unocc",
				"energy": -0.05019,
				"method": "rhf"
			},
			{
				"type": "unocc",
				"energy": -0.00939,
				"method": "rhf"
			},
			{
				"type": "unocc",
				"energy": 0.07322,
				"method": "rhf"
			},
			{
				"type": "unocc",
				"energy": 0.09918,
				"method": "rhf"
			},
			{
				"type": "unocc",
				"energy": 0.1113,
				"method": "rhf"
			}
		],
		"cosmo_sigma_profile": { 
			"-0.025": 0.0,
			"-0.024": 0.0,
			"-0.023": 0.0,
			"-0.022": 0.0,
			"-0.021": 0.0,
			"-0.02": 0.0,
			"-0.019": 0.0,
			"-0.018": 0.0,
			"-0.017": 0.0,
			"-0.016": 0.0,
			"-0.015": 0.0,
			"-0.014": 0.0,
			"-0.013": 0.0,
			"-0.012": 0.0,
			"-0.011": 0.0672860928808,
			"-0.01": 1.00652245753,
			"-0.009": 1.63547778317,
			"-0.008": 2.99138802835,
			"-0.007": 5.49531808556,
			"-0.006": 6.26299571408,
			"-0.005": 11.3350315761,
			"-0.004": 22.2190591341,
			"-0.003": 26.1729493374,
			"-0.002": 23.0091472457,
			"-0.001": 19.4179039037,
			"0.0": 20.517936375,
			"0.001": 18.450888262,
			"0.002": 25.6065025042,
			"0.003": 25.4288188571,
			"0.004": 7.76022247532,
			"0.005": 4.96309634922,
			"0.006": 4.15101396551,
			"0.007": 4.53330839227,
			"0.008": 3.60576248358,
			"0.009": 3.00678289067,
			"0.01": 2.8938487891,
			"0.011": 1.53691792086,
			"0.012": 0.645618314193,
			"0.013": 0.299151326531,
			"0.014": 0.352828286761,
			"0.015": 0.597716062638,
			"0.016": 0.967042206857,
			"0.017": 0.41117273484,
			"0.018": 0.417527559459,
			"0.019": 0.0748543112834,
			"0.02": 0.0,
			"0.021": 0.0,
			"0.022": 0.0,
			"0.023": 0.0,
			"0.024": 0.0,
			"0.025": 0.0
		}
	}
}
