{
	 "smiles": "CC(C)(C)C1=CC=CC2=CC=CC=C12", 
	 "Tm": 261.85, 
	 "num_atms": 30, 
	 "gaussian": { 
		 "optdone": 1, 
		 "sigma_profile": "yes", 
		 "theory": "DFT", 
		 "functional": "B3LYP", 
		 "basiset": "6-31G**", 
		 "properties": { 
			 "R2extent": 2801.0094, 
			 "electric_dipole_moment_norm": 0.28688938635, 
			 "electric_quadrupole_moment_norm": 6.81133420998, 
			 "total_energy": -543.149721846, 
			 "HOMO_LUMO_gap": 0.17475, 
			 "cosmo_polarized_energy": -4.52, 
			 "cosmo_cavitation_energy": 30.2, 
			 "cosmo_dispersion_energy": -22.05, 
			 "cosmo_repulsion_energy": 1.69, 
			 "cosmo_total_nonelectrostatic_energy": 9.83, 
			 "SMD_solvation_energy": 5.05 
		},
		"coords": [
			{
				"x": 0.1061271134,
				"y": 1.0849469418,
				"z": 2.312030451,
				"element": "C" 
			},
			{
				"x": -0.4181568704,
				"y": 1.4864963843,
				"z": 0.9081487673,
				"element": "C" 
			},
			{
				"x": -1.7007910506,
				"y": 2.3125912455,
				"z": 1.159894775,
				"element": "C" 
			},
			{
				"x": 0.5664875714,
				"y": 2.4463064687,
				"z": 0.189688459,
				"element": "C" 
			},
			{
				"x": -0.6948517987,
				"y": 0.2301688671,
				"z": 0.0422590384,
				"element": "C" 
			},
			{
				"x": -1.9836834225,
				"y": -0.02257421,
				"z": -0.3990061919,
				"element": "C" 
			},
			{
				"x": -2.3264338782,
				"y": -1.1420122077,
				"z": -1.1917036342,
				"element": "C" 
			},
			{
				"x": -1.3631289303,
				"y": -2.0426522923,
				"z": -1.5613458294,
				"element": "C" 
			},
			{
				"x": -0.0189298937,
				"y": -1.8522105539,
				"z": -1.1480288062,
				"element": "C" 
			},
			{
				"x": 0.975554916,
				"y": -2.7911807248,
				"z": -1.5356196644,
				"element": "C" 
			},
			{
				"x": 2.2881337504,
				"y": -2.6436461519,
				"z": -1.1566252646,
				"element": "C" 
			},
			{
				"x": 2.6537710848,
				"y": -1.5337114757,
				"z": -0.3645567949,
				"element": "C" 
			},
			{
				"x": 1.7124653279,
				"y": -0.6063508068,
				"z": 0.0270550936,
				"element": "C" 
			},
			{
				"x": 0.3370044683,
				"y": -0.7131374097,
				"z": -0.3396324664,
				"element": "C" 
			},
			{
				"x": -0.6416005074,
				"y": 0.4784240446,
				"z": 2.8337401391,
				"element": "H" 
			},
			{
				"x": 0.2883786689,
				"y": 1.9829771452,
				"z": 2.9131560701,
				"element": "H" 
			},
			{
				"x": 1.0308975335,
				"y": 0.5082002846,
				"z": 2.2878711986,
				"element": "H" 
			},
			{
				"x": -2.4613359267,
				"y": 1.7409049484,
				"z": 1.7010359349,
				"element": "H" 
			},
			{
				"x": -1.4488999477,
				"y": 3.1838245304,
				"z": 1.7728554265,
				"element": "H" 
			},
			{
				"x": -2.1427298703,
				"y": 2.6838067661,
				"z": 0.2298716543,
				"element": "H" 
			},
			{
				"x": 0.1368940771,
				"y": 2.7853820267,
				"z": -0.7587987647,
				"element": "H" 
			},
			{
				"x": 1.5335128301,
				"y": 1.9963532649,
				"z": -0.0357333756,
				"element": "H" 
			},
			{
				"x": 0.7463882177,
				"y": 3.3305331282,
				"z": 0.811623538,
				"element": "H" 
			},
			{
				"x": -2.7843456454,
				"y": 0.6562038443,
				"z": -0.1367400594,
				"element": "H" 
			},
			{
				"x": -3.3588972431,
				"y": -1.2766409123,
				"z": -1.5016563838,
				"element": "H" 
			},
			{
				"x": -1.6075306862,
				"y": -2.9089893424,
				"z": -2.1704681046,
				"element": "H" 
			},
			{
				"x": 0.6700547617,
				"y": -3.6378040944,
				"z": -2.145455504,
				"element": "H" 
			},
			{
				"x": 3.0367199049,
				"y": -3.3694230119,
				"z": -1.4606265663,
				"element": "H" 
			},
			{
				"x": 3.6882991822,
				"y": -1.4060612749,
				"z": -0.0584320181,
				"element": "H" 
			},
			{
				"x": 2.0471262632,
				"y": 0.2226745778,
				"z": 0.6320988828,
				"element": "H" 
			}
		],
		 "valence_orbital": [ 
			{
				"type": "occ",
				"energy": -0.31298,
				"method": "rhf"
			},
			{
				"type": "occ",
				"energy": -0.30668,
				"method": "rhf"
			},
			{
				"type": "occ",
				"energy": -0.272,
				"method": "rhf"
			},
			{
				"type": "occ",
				"energy": -0.23789,
				"method": "rhf"
			},
			{
				"type": "occ",
				"energy": -0.20851,
				"method": "rhf"
			},
			{
				"type": "unocc",
				"energy": -0.03376,
				"method": "rhf"
			},
			{
				"type": "unocc",
				"energy": -0.00449,
				"method": "rhf"
			},
			{
				"type": "unocc",
				"energy": 0.03501,
				"method": "rhf"
			},
			{
				"type": "unocc",
				"energy": 0.08715,
				"method": "rhf"
			},
			{
				"type": "unocc",
				"energy": 0.10178,
				"method": "rhf"
			}
		],
		"cosmo_sigma_profile": { 
			"-0.025": 0.0,
			"-0.024": 0.0,
			"-0.023": 0.0,
			"-0.022": 0.0,
			"-0.021": 0.0,
			"-0.02": 0.0,
			"-0.019": 0.0,
			"-0.018": 0.0,
			"-0.017": 0.0,
			"-0.016": 0.0,
			"-0.015": 0.0,
			"-0.014": 0.0,
			"-0.013": 0.0,
			"-0.012": 0.0,
			"-0.011": 0.0,
			"-0.01": 0.0,
			"-0.009": 0.0,
			"-0.008": 0.0,
			"-0.007": 0.0,
			"-0.006": 4.89952586722,
			"-0.005": 14.357699399,
			"-0.004": 14.1571762491,
			"-0.003": 28.0846786779,
			"-0.002": 26.944949277,
			"-0.001": 24.2067799113,
			"0.0": 22.0679015012,
			"0.001": 29.4409924906,
			"0.002": 16.0279968819,
			"0.003": 13.1042614047,
			"0.004": 15.6365580675,
			"0.005": 20.7657136814,
			"0.006": 8.56529417411,
			"0.007": 0.0,
			"0.008": 0.0,
			"0.009": 0.0,
			"0.01": 0.0,
			"0.011": 0.0,
			"0.012": 0.0,
			"0.013": 0.0,
			"0.014": 0.0,
			"0.015": 0.0,
			"0.016": 0.0,
			"0.017": 0.0,
			"0.018": 0.0,
			"0.019": 0.0,
			"0.02": 0.0,
			"0.021": 0.0,
			"0.022": 0.0,
			"0.023": 0.0,
			"0.024": 0.0,
			"0.025": 0.0
		}
	}
}
