{
	 "smiles": "CC(=O)C1=C(C)N=C(N)N=C1", 
	 "Tm": 500.15, 
	 "num_atms": 20, 
	 "gaussian": { 
		 "optdone": 1, 
		 "sigma_profile": "yes", 
		 "theory": "DFT", 
		 "functional": "B3LYP", 
		 "basiset": "6-31G**", 
		 "properties": { 
			 "R2extent": 1900.927, 
			 "electric_dipole_moment_norm": 3.71637341773, 
			 "electric_quadrupole_moment_norm": 13.8286260883, 
			 "total_energy": -511.665661351, 
			 "HOMO_LUMO_gap": 0.18627, 
			 "cosmo_polarized_energy": -13.51, 
			 "cosmo_cavitation_energy": 23.74, 
			 "cosmo_dispersion_energy": -17.82, 
			 "cosmo_repulsion_energy": 1.43, 
			 "cosmo_total_nonelectrostatic_energy": 7.36, 
			 "SMD_solvation_energy": 2.18 
		},
		"coords": [
			{
				"x": 0.3230942607,
				"y": 0.1080306055,
				"z": 3.1435408353,
				"element": "C" 
			},
			{
				"x": 0.5243326693,
				"y": 0.8966524963,
				"z": 1.8601973715,
				"element": "C" 
			},
			{
				"x": 0.7548292807,
				"y": 2.098088857,
				"z": 1.9399809414,
				"element": "O" 
			},
			{
				"x": 0.4579102908,
				"y": 0.24796259,
				"z": 0.5142552203,
				"element": "C" 
			},
			{
				"x": 0.1657479299,
				"y": -1.0978934812,
				"z": 0.1753784437,
				"element": "C" 
			},
			{
				"x": -0.1638307925,
				"y": -2.1997205047,
				"z": 1.154726663,
				"element": "C" 
			},
			{
				"x": 0.1554249165,
				"y": -1.4988126644,
				"z": -1.1010797283,
				"element": "N" 
			},
			{
				"x": 0.4316281403,
				"y": -0.5851465706,
				"z": -2.0504080931,
				"element": "C" 
			},
			{
				"x": 0.4296450409,
				"y": -1.0177132213,
				"z": -3.3329748768,
				"element": "N" 
			},
			{
				"x": 0.7156079437,
				"y": 0.7210295612,
				"z": -1.8509292431,
				"element": "N" 
			},
			{
				"x": 0.7198044512,
				"y": 1.0973511935,
				"z": -0.5812452429,
				"element": "C" 
			},
			{
				"x": 0.447981697,
				"y": 0.7986113499,
				"z": 3.9782644084,
				"element": "H" 
			},
			{
				"x": -0.6756598766,
				"y": -0.336595732,
				"z": 3.1916371139,
				"element": "H" 
			},
			{
				"x": 1.049038897,
				"y": -0.7056939725,
				"z": 3.2357459561,
				"element": "H" 
			},
			{
				"x": -0.3535293035,
				"y": -3.1120156275,
				"z": 0.5886166832,
				"element": "H" 
			},
			{
				"x": 0.657836716,
				"y": -2.3846991825,
				"z": 1.8526880647,
				"element": "H" 
			},
			{
				"x": -1.0514313209,
				"y": -1.9641307006,
				"z": 1.7492094929,
				"element": "H" 
			},
			{
				"x": 0.1752782522,
				"y": -1.970149114,
				"z": -3.5322570719,
				"element": "H" 
			},
			{
				"x": 0.5832728685,
				"y": -0.3539204797,
				"z": -4.0731610823,
				"element": "H" 
			},
			{
				"x": 0.9429179387,
				"y": 2.1406645976,
				"z": -0.3737858561,
				"element": "H" 
			}
		],
		 "valence_orbital": [ 
			{
				"type": "occ",
				"energy": -0.31903,
				"method": "rhf"
			},
			{
				"type": "occ",
				"energy": -0.30738,
				"method": "rhf"
			},
			{
				"type": "occ",
				"energy": -0.24899,
				"method": "rhf"
			},
			{
				"type": "occ",
				"energy": -0.24285,
				"method": "rhf"
			},
			{
				"type": "occ",
				"energy": -0.23233,
				"method": "rhf"
			},
			{
				"type": "unocc",
				"energy": -0.04606,
				"method": "rhf"
			},
			{
				"type": "unocc",
				"energy": -0.0305,
				"method": "rhf"
			},
			{
				"type": "unocc",
				"energy": 0.0376,
				"method": "rhf"
			},
			{
				"type": "unocc",
				"energy": 0.08478,
				"method": "rhf"
			},
			{
				"type": "unocc",
				"energy": 0.08696,
				"method": "rhf"
			}
		],
		"cosmo_sigma_profile": { 
			"-0.025": 0.0,
			"-0.024": 0.0,
			"-0.023": 0.0,
			"-0.022": 0.0,
			"-0.021": 0.0,
			"-0.02": 0.0,
			"-0.019": 0.0,
			"-0.018": 0.0,
			"-0.017": 0.0,
			"-0.016": 0.0,
			"-0.015": 0.388134832776,
			"-0.014": 1.9351763493,
			"-0.013": 2.379917494,
			"-0.012": 1.977501181,
			"-0.011": 1.44859824479,
			"-0.01": 2.04926978264,
			"-0.009": 2.19070912464,
			"-0.008": 3.05293769458,
			"-0.007": 6.38618350497,
			"-0.006": 7.46471305406,
			"-0.005": 8.55854996525,
			"-0.004": 11.3106418162,
			"-0.003": 12.9958545018,
			"-0.002": 14.5736989201,
			"-0.001": 20.702475789,
			"0.0": 18.1318442348,
			"0.001": 11.8586572052,
			"0.002": 8.55760408999,
			"0.003": 7.33335642502,
			"0.004": 6.39642038491,
			"0.005": 5.66144568736,
			"0.006": 3.7946862512,
			"0.007": 3.43636179642,
			"0.008": 3.65101327932,
			"0.009": 4.4394485812,
			"0.01": 3.23444740619,
			"0.011": 3.24676706168,
			"0.012": 5.62612296251,
			"0.013": 3.73771551066,
			"0.014": 1.4409639174,
			"0.015": 0.459717462931,
			"0.016": 0.0423257319857,
			"0.017": 0.0,
			"0.018": 0.0,
			"0.019": 0.0,
			"0.02": 0.0,
			"0.021": 0.0,
			"0.022": 0.0,
			"0.023": 0.0,
			"0.024": 0.0,
			"0.025": 0.0
		}
	}
}
