{
	 "smiles": "NC1=CC(NC(=O)N2CCCCCC2)=CC=C1", 
	 "Tm": 395.15, 
	 "num_atms": 36, 
	 "gaussian": { 
		 "optdone": 1, 
		 "sigma_profile": "yes", 
		 "theory": "DFT", 
		 "functional": "B3LYP", 
		 "basiset": "6-31G**", 
		 "properties": { 
			 "R2extent": 5530.5024, 
			 "electric_dipole_moment_norm": 4.50155770595, 
			 "electric_quadrupole_moment_norm": 15.200970594, 
			 "total_energy": -746.347236306, 
			 "HOMO_LUMO_gap": 0.20147, 
			 "cosmo_polarized_energy": -18.52, 
			 "cosmo_cavitation_energy": 36.38, 
			 "cosmo_dispersion_energy": -26.56, 
			 "cosmo_repulsion_energy": 2.05, 
			 "cosmo_total_nonelectrostatic_energy": 11.87, 
			 "SMD_solvation_energy": 4.81 
		},
		"coords": [
			{
				"x": 0.6655460485,
				"y": -3.9357095533,
				"z": -3.8045951227,
				"element": "N" 
			},
			{
				"x": 1.2296166953,
				"y": -2.8949901518,
				"z": -3.0562173802,
				"element": "C" 
			},
			{
				"x": 0.5013535366,
				"y": -2.2879445192,
				"z": -2.0258330119,
				"element": "C" 
			},
			{
				"x": 1.0268972531,
				"y": -1.2048814551,
				"z": -1.3037503,
				"element": "C" 
			},
			{
				"x": 0.2022758413,
				"y": -0.6699866966,
				"z": -0.2923195519,
				"element": "N" 
			},
			{
				"x": 0.47496725,
				"y": 0.3821119401,
				"z": 0.5709135088,
				"element": "C" 
			},
			{
				"x": 1.5232777357,
				"y": 1.0232768369,
				"z": 0.5465359072,
				"element": "O" 
			},
			{
				"x": -0.5171789599,
				"y": 0.6673805112,
				"z": 1.4986442789,
				"element": "N" 
			},
			{
				"x": -1.8661118204,
				"y": 0.1055426799,
				"z": 1.5081298729,
				"element": "C" 
			},
			{
				"x": -2.8720788388,
				"y": 0.8358254204,
				"z": 0.6049446467,
				"element": "C" 
			},
			{
				"x": -2.9900852983,
				"y": 2.3471739416,
				"z": 0.8747839189,
				"element": "C" 
			},
			{
				"x": -1.7220463436,
				"y": 3.153629379,
				"z": 0.5239710211,
				"element": "C" 
			},
			{
				"x": -0.6119460237,
				"y": 3.2029621196,
				"z": 1.5930260477,
				"element": "C" 
			},
			{
				"x": -0.3159194105,
				"y": 1.8689464534,
				"z": 2.313342926,
				"element": "C" 
			},
			{
				"x": 2.3067335574,
				"y": -0.717353888,
				"z": -1.6093663663,
				"element": "C" 
			},
			{
				"x": 3.0219265454,
				"y": -1.3311844178,
				"z": -2.6380863398,
				"element": "C" 
			},
			{
				"x": 2.5096649036,
				"y": -2.4037750012,
				"z": -3.3618392633,
				"element": "C" 
			},
			{
				"x": -0.0352388293,
				"y": -4.4770582961,
				"z": -3.3163060889,
				"element": "H" 
			},
			{
				"x": 1.3412955444,
				"y": -4.536025443,
				"z": -4.2578545097,
				"element": "H" 
			},
			{
				"x": -0.493521799,
				"y": -2.6626243322,
				"z": -1.7884584432,
				"element": "H" 
			},
			{
				"x": -0.6942942943,
				"y": -1.1200373915,
				"z": -0.2096136603,
				"element": "H" 
			},
			{
				"x": -1.8323575589,
				"y": -0.9629164957,
				"z": 1.2636066171,
				"element": "H" 
			},
			{
				"x": -2.2182210284,
				"y": 0.1446158447,
				"z": 2.5460449179,
				"element": "H" 
			},
			{
				"x": -3.8526496025,
				"y": 0.3582377586,
				"z": 0.7346274826,
				"element": "H" 
			},
			{
				"x": -2.5884881651,
				"y": 0.6879958727,
				"z": -0.4458371132,
				"element": "H" 
			},
			{
				"x": -3.2765233775,
				"y": 2.5203657485,
				"z": 1.9222575614,
				"element": "H" 
			},
			{
				"x": -3.8235061486,
				"y": 2.7260559784,
				"z": 0.2711115498,
				"element": "H" 
			},
			{
				"x": -2.0076484695,
				"y": 4.1872808981,
				"z": 0.2948390363,
				"element": "H" 
			},
			{
				"x": -1.3051249966,
				"y": 2.7501343374,
				"z": -0.4075909929,
				"element": "H" 
			},
			{
				"x": 0.306061954,
				"y": 3.556208617,
				"z": 1.1136406696,
				"element": "H" 
			},
			{
				"x": -0.8711367763,
				"y": 3.942813756,
				"z": 2.3618849297,
				"element": "H" 
			},
			{
				"x": 0.7155428687,
				"y": 1.8702391918,
				"z": 2.6705285045,
				"element": "H" 
			},
			{
				"x": -0.9691333385,
				"y": 1.7598230282,
				"z": 3.1851467761,
				"element": "H" 
			},
			{
				"x": 2.7118355303,
				"y": 0.1127056647,
				"z": -1.0513282422,
				"element": "H" 
			},
			{
				"x": 4.0140925349,
				"y": -0.9580907844,
				"z": -2.8779286737,
				"element": "H" 
			},
			{
				"x": 3.0878232804,
				"y": -2.8602475528,
				"z": -4.1609551131,
				"element": "H" 
			}
		],
		 "valence_orbital": [ 
			{
				"type": "occ",
				"energy": -0.27584,
				"method": "rhf"
			},
			{
				"type": "occ",
				"energy": -0.24975,
				"method": "rhf"
			},
			{
				"type": "occ",
				"energy": -0.23183,
				"method": "rhf"
			},
			{
				"type": "occ",
				"energy": -0.21083,
				"method": "rhf"
			},
			{
				"type": "occ",
				"energy": -0.19004,
				"method": "rhf"
			},
			{
				"type": "unocc",
				"energy": 0.01143,
				"method": "rhf"
			},
			{
				"type": "unocc",
				"energy": 0.02625,
				"method": "rhf"
			},
			{
				"type": "unocc",
				"energy": 0.05847,
				"method": "rhf"
			},
			{
				"type": "unocc",
				"energy": 0.07763,
				"method": "rhf"
			},
			{
				"type": "unocc",
				"energy": 0.0847,
				"method": "rhf"
			}
		],
		"cosmo_sigma_profile": { 
			"-0.025": 0.0,
			"-0.024": 0.0,
			"-0.023": 0.0,
			"-0.022": 0.0,
			"-0.021": 0.0,
			"-0.02": 0.0,
			"-0.019": 0.0,
			"-0.018": 0.0,
			"-0.017": 0.0,
			"-0.016": 0.0,
			"-0.015": 0.0,
			"-0.014": 0.72745454895,
			"-0.013": 1.08912147637,
			"-0.012": 2.98531329243,
			"-0.011": 4.5544405951,
			"-0.01": 3.91373130038,
			"-0.009": 4.54676965281,
			"-0.008": 5.04463972469,
			"-0.007": 4.61143525466,
			"-0.006": 6.84397849613,
			"-0.005": 10.5287292606,
			"-0.004": 14.034647463,
			"-0.003": 24.432047877,
			"-0.002": 34.4183576585,
			"-0.001": 30.2248675055,
			"0.0": 25.9908465029,
			"0.001": 20.5436961864,
			"0.002": 8.90866322821,
			"0.003": 10.7144095363,
			"0.004": 10.7910046031,
			"0.005": 11.6146585702,
			"0.006": 12.7722387074,
			"0.007": 12.6377246634,
			"0.008": 4.72000982816,
			"0.009": 3.41135728061,
			"0.01": 2.44630982949,
			"0.011": 1.87535137557,
			"0.012": 2.48278208976,
			"0.013": 3.13293841031,
			"0.014": 3.36206393032,
			"0.015": 0.849052209363,
			"0.016": 0.0564733063636,
			"0.017": 0.0,
			"0.018": 0.0,
			"0.019": 0.0,
			"0.02": 0.0,
			"0.021": 0.0,
			"0.022": 0.0,
			"0.023": 0.0,
			"0.024": 0.0,
			"0.025": 0.0
		}
	}
}
