{
	 "smiles": "CCC1=NN(C)C(C(=O)NCC2=CC=C(C=C2)C(C)(C)C)=C1Cl", 
	 "Tm": 338.15, 
	 "num_atms": 47, 
	 "gaussian": { 
		 "optdone": 1, 
		 "sigma_profile": "yes", 
		 "theory": "DFT", 
		 "functional": "B3LYP", 
		 "basiset": "6-31G**", 
		 "properties": { 
			 "R2extent": 12808.2467, 
			 "electric_dipole_moment_norm": 1.7202992792, 
			 "electric_quadrupole_moment_norm": 5.42266272047, 
			 "total_energy": -1400.07760178, 
			 "HOMO_LUMO_gap": 0.19983, 
			 "cosmo_polarized_energy": -10.68, 
			 "cosmo_cavitation_energy": 50.27, 
			 "cosmo_dispersion_energy": -34.63, 
			 "cosmo_repulsion_energy": 2.67, 
			 "cosmo_total_nonelectrostatic_energy": 18.31, 
			 "SMD_solvation_energy": 6.98 
		},
		"coords": [
			{
				"x": -5.0253069031,
				"y": -1.0859583901,
				"z": 3.5963431488,
				"element": "C" 
			},
			{
				"x": -4.8946197992,
				"y": -2.466063575,
				"z": 2.9274434388,
				"element": "C" 
			},
			{
				"x": -4.0131290226,
				"y": -2.4543728454,
				"z": 1.7140350512,
				"element": "C" 
			},
			{
				"x": -4.5243852371,
				"y": -2.365609712,
				"z": 0.4812249647,
				"element": "N" 
			},
			{
				"x": -3.4849253745,
				"y": -2.3529663603,
				"z": -0.3693331151,
				"element": "N" 
			},
			{
				"x": -3.771823267,
				"y": -2.2703948785,
				"z": -1.7992642254,
				"element": "C" 
			},
			{
				"x": -2.2778931669,
				"y": -2.4343005491,
				"z": 0.2729708189,
				"element": "C" 
			},
			{
				"x": -0.9996179963,
				"y": -2.4405610269,
				"z": -0.4894667757,
				"element": "C" 
			},
			{
				"x": -0.9978723282,
				"y": -2.3971252961,
				"z": -1.7230666605,
				"element": "O" 
			},
			{
				"x": 0.1420822511,
				"y": -2.5100667368,
				"z": 0.2471916379,
				"element": "N" 
			},
			{
				"x": 1.4638664528,
				"y": -2.4873572685,
				"z": -0.3791770467,
				"element": "C" 
			},
			{
				"x": 2.117666693,
				"y": -1.1183379001,
				"z": -0.3732405036,
				"element": "C" 
			},
			{
				"x": 3.2159852867,
				"y": -0.8427460711,
				"z": 0.4473000344,
				"element": "C" 
			},
			{
				"x": 3.806075113,
				"y": 0.4201633834,
				"z": 0.4531731341,
				"element": "C" 
			},
			{
				"x": 3.323931956,
				"y": 1.4605329191,
				"z": -0.3574015727,
				"element": "C" 
			},
			{
				"x": 2.2221545379,
				"y": 1.1721286294,
				"z": -1.1774084466,
				"element": "C" 
			},
			{
				"x": 1.6299556945,
				"y": -0.0910274915,
				"z": -1.1883764567,
				"element": "C" 
			},
			{
				"x": 4.0036642862,
				"y": 2.8418781116,
				"z": -0.3222539685,
				"element": "C" 
			},
			{
				"x": 3.3332338117,
				"y": 3.8488463913,
				"z": -1.2760698817,
				"element": "C" 
			},
			{
				"x": 5.4866448558,
				"y": 2.6968726088,
				"z": -0.7396603455,
				"element": "C" 
			},
			{
				"x": 3.9298231908,
				"y": 3.4155671062,
				"z": 1.1129812325,
				"element": "C" 
			},
			{
				"x": -2.6099428163,
				"y": -2.4992763597,
				"z": 1.629874577,
				"element": "C" 
			},
			{
				"x": -1.5371787604,
				"y": -2.6275857946,
				"z": 2.9976467324,
				"element": "Cl" 
			},
			{
				"x": -4.051985541,
				"y": -0.7128837339,
				"z": 3.929609289,
				"element": "H" 
			},
			{
				"x": -5.4461488505,
				"y": -0.3559587428,
				"z": 2.89832852,
				"element": "H" 
			},
			{
				"x": -5.6827446827,
				"y": -1.1416426213,
				"z": 4.4698934312,
				"element": "H" 
			},
			{
				"x": -5.8820780806,
				"y": -2.8228308994,
				"z": 2.6186808408,
				"element": "H" 
			},
			{
				"x": -4.5015969811,
				"y": -3.1890684488,
				"z": 3.6515215975,
				"element": "H" 
			},
			{
				"x": -3.3886711964,
				"y": -3.1486159802,
				"z": -2.3194157787,
				"element": "H" 
			},
			{
				"x": -4.8568626995,
				"y": -2.2137052115,
				"z": -1.880486429,
				"element": "H" 
			},
			{
				"x": -3.3032958934,
				"y": -1.3870850258,
				"z": -2.2337916659,
				"element": "H" 
			},
			{
				"x": 0.0860699084,
				"y": -2.4384155939,
				"z": 1.2531497216,
				"element": "H" 
			},
			{
				"x": 1.3215876635,
				"y": -2.8393914771,
				"z": -1.4031951755,
				"element": "H" 
			},
			{
				"x": 2.100163734,
				"y": -3.2090144181,
				"z": 0.1439311279,
				"element": "H" 
			},
			{
				"x": 3.6194900049,
				"y": -1.6243724772,
				"z": 1.0877678779,
				"element": "H" 
			},
			{
				"x": 4.6586851536,
				"y": 0.5919898866,
				"z": 1.1039184757,
				"element": "H" 
			},
			{
				"x": 1.8124828741,
				"y": 1.9367811796,
				"z": -1.8275510105,
				"element": "H" 
			},
			{
				"x": 0.7805919995,
				"y": -0.2866079534,
				"z": -1.8373768005,
				"element": "H" 
			},
			{
				"x": 2.2831629188,
				"y": 4.019333954,
				"z": -1.0167632798,
				"element": "H" 
			},
			{
				"x": 3.3787546501,
				"y": 3.5160972615,
				"z": -2.3182333021,
				"element": "H" 
			},
			{
				"x": 3.8484267293,
				"y": 4.8130198929,
				"z": -1.2153296992,
				"element": "H" 
			},
			{
				"x": 5.5699573158,
				"y": 2.2983623057,
				"z": -1.7561137252,
				"element": "H" 
			},
			{
				"x": 6.0337934001,
				"y": 2.0245515614,
				"z": -0.0721521721,
				"element": "H" 
			},
			{
				"x": 5.9873511016,
				"y": 3.6714592381,
				"z": -0.714371138,
				"element": "H" 
			},
			{
				"x": 4.4151297637,
				"y": 4.3972395287,
				"z": 1.1569352404,
				"element": "H" 
			},
			{
				"x": 4.4287159187,
				"y": 2.765446506,
				"z": 1.8378249546,
				"element": "H" 
			},
			{
				"x": 2.8897313312,
				"y": 3.5361723749,
				"z": 1.4333533279,
				"element": "H" 
			}
		],
		 "valence_orbital": [ 
			{
				"type": "occ",
				"energy": -0.25822,
				"method": "rhf"
			},
			{
				"type": "occ",
				"energy": -0.25208,
				"method": "rhf"
			},
			{
				"type": "occ",
				"energy": -0.24694,
				"method": "rhf"
			},
			{
				"type": "occ",
				"energy": -0.24276,
				"method": "rhf"
			},
			{
				"type": "occ",
				"energy": -0.23326,
				"method": "rhf"
			},
			{
				"type": "unocc",
				"energy": -0.03343,
				"method": "rhf"
			},
			{
				"type": "unocc",
				"energy": -0.00382,
				"method": "rhf"
			},
			{
				"type": "unocc",
				"energy": 0.00315,
				"method": "rhf"
			},
			{
				"type": "unocc",
				"energy": 0.02829,
				"method": "rhf"
			},
			{
				"type": "unocc",
				"energy": 0.03995,
				"method": "rhf"
			}
		],
		"cosmo_sigma_profile": { 
			"-0.025": 0.0,
			"-0.024": 0.0,
			"-0.023": 0.0,
			"-0.022": 0.0,
			"-0.021": 0.0,
			"-0.02": 0.0,
			"-0.019": 0.0,
			"-0.018": 0.0,
			"-0.017": 0.0,
			"-0.016": 0.0,
			"-0.015": 0.0,
			"-0.014": 0.0,
			"-0.013": 0.0,
			"-0.012": 0.0,
			"-0.011": 0.482886106692,
			"-0.01": 0.681671102552,
			"-0.009": 1.14197841386,
			"-0.008": 0.940110862089,
			"-0.007": 1.6512346011,
			"-0.006": 7.85528392382,
			"-0.005": 15.7328815786,
			"-0.004": 22.2917246922,
			"-0.003": 43.9870368412,
			"-0.002": 53.6870314687,
			"-0.001": 49.2294041367,
			"0.0": 44.9210710883,
			"0.001": 48.4808457839,
			"0.002": 33.1885149532,
			"0.003": 17.0222212642,
			"0.004": 14.1295367867,
			"0.005": 10.5501143141,
			"0.006": 10.9463727833,
			"0.007": 4.85089615064,
			"0.008": 2.14292534689,
			"0.009": 2.09623139791,
			"0.01": 3.08832641412,
			"0.011": 2.12478806108,
			"0.012": 2.27488657325,
			"0.013": 2.85121670896,
			"0.014": 1.02767827499,
			"0.015": 0.025188917741,
			"0.016": 0.0,
			"0.017": 0.0,
			"0.018": 0.0,
			"0.019": 0.0,
			"0.02": 0.0,
			"0.021": 0.0,
			"0.022": 0.0,
			"0.023": 0.0,
			"0.024": 0.0,
			"0.025": 0.0
		}
	}
}
