{
	 "smiles": "O=CC1=CC=C(OCC2=CC=CC=C2)C=C1", 
	 "Tm": 345.15, 
	 "num_atms": 28, 
	 "gaussian": { 
		 "optdone": 1, 
		 "sigma_profile": "yes", 
		 "theory": "DFT", 
		 "functional": "B3LYP", 
		 "basiset": "6-31G**", 
		 "properties": { 
			 "R2extent": 5504.8966, 
			 "electric_dipole_moment_norm": 5.08655530394, 
			 "electric_quadrupole_moment_norm": 24.6870478525, 
			 "total_energy": -691.155166891, 
			 "HOMO_LUMO_gap": 0.18303, 
			 "cosmo_polarized_energy": -11.17, 
			 "cosmo_cavitation_energy": 32.64, 
			 "cosmo_dispersion_energy": -23.12, 
			 "cosmo_repulsion_energy": 1.8, 
			 "cosmo_total_nonelectrostatic_energy": 11.32, 
			 "SMD_solvation_energy": 6.72 
		},
		"coords": [
			{
				"x": -5.795663915,
				"y": -0.1729561264,
				"z": -2.3844569304,
				"element": "O" 
			},
			{
				"x": -4.9142314555,
				"y": 0.2129051905,
				"z": -1.6369399591,
				"element": "C" 
			},
			{
				"x": -3.7218354227,
				"y": -0.5678666636,
				"z": -1.2651696963,
				"element": "C" 
			},
			{
				"x": -3.5240750683,
				"y": -1.8633421537,
				"z": -1.7787939799,
				"element": "C" 
			},
			{
				"x": -2.4035835335,
				"y": -2.5926875686,
				"z": -1.4261283733,
				"element": "C" 
			},
			{
				"x": -1.4507382711,
				"y": -2.0413530729,
				"z": -0.5473447735,
				"element": "C" 
			},
			{
				"x": -0.3958690349,
				"y": -2.8527711721,
				"z": -0.2585978143,
				"element": "O" 
			},
			{
				"x": 0.5659214664,
				"y": -2.444321204,
				"z": 0.7174184766,
				"element": "C" 
			},
			{
				"x": 1.567299201,
				"y": -1.4236724492,
				"z": 0.2133005073,
				"element": "C" 
			},
			{
				"x": 2.1288084348,
				"y": -0.4978366677,
				"z": 1.1002295713,
				"element": "C" 
			},
			{
				"x": 3.0975498973,
				"y": 0.4068242617,
				"z": 0.6620562479,
				"element": "C" 
			},
			{
				"x": 3.5071555514,
				"y": 0.3994389094,
				"z": -0.6721481681,
				"element": "C" 
			},
			{
				"x": 2.9461489534,
				"y": -0.5184088231,
				"z": -1.563107724,
				"element": "C" 
			},
			{
				"x": 1.98486741,
				"y": -1.4282239391,
				"z": -1.1227686784,
				"element": "C" 
			},
			{
				"x": -1.6308932376,
				"y": -0.7490789475,
				"z": -0.0333316598,
				"element": "C" 
			},
			{
				"x": -2.7665377296,
				"y": -0.0279350267,
				"z": -0.3972444721,
				"element": "C" 
			},
			{
				"x": -4.9651868004,
				"y": 1.2242350001,
				"z": -1.1724576904,
				"element": "H" 
			},
			{
				"x": -4.2711814749,
				"y": -2.2722040282,
				"z": -2.4517508242,
				"element": "H" 
			},
			{
				"x": -2.2337358889,
				"y": -3.5951205291,
				"z": -1.8051775899,
				"element": "H" 
			},
			{
				"x": 0.0600385042,
				"y": -2.0800452691,
				"z": 1.6207194949,
				"element": "H" 
			},
			{
				"x": 1.077525047,
				"y": -3.3758759422,
				"z": 0.9817914849,
				"element": "H" 
			},
			{
				"x": 1.8076559633,
				"y": -0.483137808,
				"z": 2.1396405737,
				"element": "H" 
			},
			{
				"x": 3.5245714291,
				"y": 1.1210184477,
				"z": 1.3602762627,
				"element": "H" 
			},
			{
				"x": 4.2559236899,
				"y": 1.1066808561,
				"z": -1.0167265695,
				"element": "H" 
			},
			{
				"x": 3.2584471742,
				"y": -0.5266711311,
				"z": -2.6034891779,
				"element": "H" 
			},
			{
				"x": 1.5461949273,
				"y": -2.1404672909,
				"z": -1.8147166943,
				"element": "H" 
			},
			{
				"x": -0.8918899619,
				"y": -0.2996013913,
				"z": 0.6176601724,
				"element": "H" 
			},
			{
				"x": -2.909285855,
				"y": 0.9760745388,
				"z": -0.0035420163,
				"element": "H" 
			}
		],
		 "valence_orbital": [ 
			{
				"type": "occ",
				"energy": -0.26486,
				"method": "rhf"
			},
			{
				"type": "occ",
				"energy": -0.26018,
				"method": "rhf"
			},
			{
				"type": "occ",
				"energy": -0.25416,
				"method": "rhf"
			},
			{
				"type": "occ",
				"energy": -0.24556,
				"method": "rhf"
			},
			{
				"type": "occ",
				"energy": -0.23328,
				"method": "rhf"
			},
			{
				"type": "unocc",
				"energy": -0.05025,
				"method": "rhf"
			},
			{
				"type": "unocc",
				"energy": -0.01759,
				"method": "rhf"
			},
			{
				"type": "unocc",
				"energy": -0.01319,
				"method": "rhf"
			},
			{
				"type": "unocc",
				"energy": -0.00804,
				"method": "rhf"
			},
			{
				"type": "unocc",
				"energy": 0.05197,
				"method": "rhf"
			}
		],
		"cosmo_sigma_profile": { 
			"-0.025": 0.0,
			"-0.024": 0.0,
			"-0.023": 0.0,
			"-0.022": 0.0,
			"-0.021": 0.0,
			"-0.02": 0.0,
			"-0.019": 0.0,
			"-0.018": 0.0,
			"-0.017": 0.0,
			"-0.016": 0.0,
			"-0.015": 0.0,
			"-0.014": 0.0,
			"-0.013": 0.0,
			"-0.012": 0.0,
			"-0.011": 0.0,
			"-0.01": 0.0,
			"-0.009": 0.0,
			"-0.008": 0.373222921015,
			"-0.007": 8.59793782516,
			"-0.006": 19.4404011155,
			"-0.005": 24.3030615319,
			"-0.004": 23.6565558905,
			"-0.003": 19.7559206638,
			"-0.002": 15.2582402006,
			"-0.001": 16.1342878567,
			"0.0": 15.3659782319,
			"0.001": 17.9974989452,
			"0.002": 22.0153803886,
			"0.003": 23.4765716225,
			"0.004": 16.0200944294,
			"0.005": 11.517315944,
			"0.006": 7.18863661438,
			"0.007": 2.79964055131,
			"0.008": 3.11146865178,
			"0.009": 2.21074467912,
			"0.01": 2.26740246175,
			"0.011": 3.56996639098,
			"0.012": 4.36764990167,
			"0.013": 1.68546664363,
			"0.014": 0.232763982722,
			"0.015": 0.0,
			"0.016": 0.0,
			"0.017": 0.0,
			"0.018": 0.0,
			"0.019": 0.0,
			"0.02": 0.0,
			"0.021": 0.0,
			"0.022": 0.0,
			"0.023": 0.0,
			"0.024": 0.0,
			"0.025": 0.0
		}
	}
}
