{
	 "smiles": "FC1=CC(=CC(Br)=C1)C#N", 
	 "Tm": 317.65, 
	 "num_atms": 13, 
	 "gaussian": { 
		 "optdone": 1, 
		 "sigma_profile": "yes", 
		 "theory": "DFT", 
		 "functional": "B3LYP", 
		 "basiset": "6-31G**", 
		 "properties": { 
			 "R2extent": 3666.9948, 
			 "electric_dipole_moment_norm": 2.93948032992, 
			 "electric_quadrupole_moment_norm": 10.8992766154, 
			 "total_energy": -2994.52003094, 
			 "HOMO_LUMO_gap": 0.1989, 
			 "cosmo_polarized_energy": -7.65, 
			 "cosmo_cavitation_energy": 21.95, 
			 "cosmo_dispersion_energy": -15.83, 
			 "cosmo_repulsion_energy": 1.26, 
			 "cosmo_total_nonelectrostatic_energy": 7.37, 
			 "SMD_solvation_energy": 4.63 
		},
		"coords": [
			{
				"x": -0.4582639033,
				"y": -1.929846594,
				"z": 4.2139491825,
				"element": "F" 
			},
			{
				"x": -0.0875090962,
				"y": -1.0944102592,
				"z": 3.2304590732,
				"element": "C" 
			},
			{
				"x": -0.8443671531,
				"y": 0.0456862016,
				"z": 2.9982680838,
				"element": "C" 
			},
			{
				"x": -0.4407866787,
				"y": 0.9064396442,
				"z": 1.9659844516,
				"element": "C" 
			},
			{
				"x": 0.6956922467,
				"y": 0.6224452419,
				"z": 1.1906176144,
				"element": "C" 
			},
			{
				"x": 1.4205678986,
				"y": -0.5344708906,
				"z": 1.4642454445,
				"element": "C" 
			},
			{
				"x": 2.9636703988,
				"y": -0.9349299529,
				"z": 0.4234712328,
				"element": "Br" 
			},
			{
				"x": 1.04388775,
				"y": -1.408378526,
				"z": 2.4832306902,
				"element": "C" 
			},
			{
				"x": -1.199014777,
				"y": 2.0947102609,
				"z": 1.6970620706,
				"element": "C" 
			},
			{
				"x": -1.8131560792,
				"y": 3.0576119778,
				"z": 1.4789065009,
				"element": "N" 
			},
			{
				"x": -1.7188340478,
				"y": 0.2552185928,
				"z": 3.6019456198,
				"element": "H" 
			},
			{
				"x": 0.9984712882,
				"y": 1.292997742,
				"z": 0.3965960263,
				"element": "H" 
			},
			{
				"x": 1.6045421529,
				"y": -2.3091734385,
				"z": 2.6995640093,
				"element": "H" 
			}
		],
		 "valence_orbital": [ 
			{
				"type": "occ",
				"energy": -0.34669,
				"method": "rhf"
			},
			{
				"type": "occ",
				"energy": -0.32715,
				"method": "rhf"
			},
			{
				"type": "occ",
				"energy": -0.31004,
				"method": "rhf"
			},
			{
				"type": "occ",
				"energy": -0.28211,
				"method": "rhf"
			},
			{
				"type": "occ",
				"energy": -0.2716,
				"method": "rhf"
			},
			{
				"type": "unocc",
				"energy": -0.0727,
				"method": "rhf"
			},
			{
				"type": "unocc",
				"energy": -0.04008,
				"method": "rhf"
			},
			{
				"type": "unocc",
				"energy": -0.01972,
				"method": "rhf"
			},
			{
				"type": "unocc",
				"energy": 0.02305,
				"method": "rhf"
			},
			{
				"type": "unocc",
				"energy": 0.06223,
				"method": "rhf"
			}
		],
		"cosmo_sigma_profile": { 
			"-0.025": 0.0,
			"-0.024": 0.0,
			"-0.023": 0.0,
			"-0.022": 0.0,
			"-0.021": 0.0,
			"-0.02": 0.0,
			"-0.019": 0.0,
			"-0.018": 0.0,
			"-0.017": 0.0,
			"-0.016": 0.0,
			"-0.015": 0.0,
			"-0.014": 0.0,
			"-0.013": 0.0,
			"-0.012": 0.0,
			"-0.011": 0.0,
			"-0.01": 1.8270950282,
			"-0.009": 5.16632557729,
			"-0.008": 5.04694115607,
			"-0.007": 5.1137064735,
			"-0.006": 5.47874403552,
			"-0.005": 5.94177207125,
			"-0.004": 7.86167166277,
			"-0.003": 11.4159658289,
			"-0.002": 19.5721516309,
			"-0.001": 22.6707098023,
			"0.0": 18.6322031994,
			"0.001": 8.80331780781,
			"0.002": 10.5771925892,
			"0.003": 20.8168087445,
			"0.004": 10.4264578823,
			"0.005": 2.49655875474,
			"0.006": 2.67057060571,
			"0.007": 3.05688518328,
			"0.008": 3.42970479919,
			"0.009": 2.99235117367,
			"0.01": 3.12928564935,
			"0.011": 2.30740131521,
			"0.012": 2.21733446672,
			"0.013": 0.427024584236,
			"0.014": 0.0,
			"0.015": 0.0,
			"0.016": 0.0,
			"0.017": 0.0,
			"0.018": 0.0,
			"0.019": 0.0,
			"0.02": 0.0,
			"0.021": 0.0,
			"0.022": 0.0,
			"0.023": 0.0,
			"0.024": 0.0,
			"0.025": 0.0
		}
	}
}
