{
	 "smiles": "OC(=O)CNC(=O)C1=CC=C(C=C1)N1CCCC1=O", 
	 "Tm": 468.15, 
	 "num_atms": 33, 
	 "gaussian": { 
		 "optdone": 1, 
		 "sigma_profile": "yes", 
		 "theory": "DFT", 
		 "functional": "B3LYP", 
		 "basiset": "6-31G**", 
		 "properties": { 
			 "R2extent": 8604.9617, 
			 "electric_dipole_moment_norm": 10.241923107, 
			 "electric_quadrupole_moment_norm": 25.4917691297, 
			 "total_energy": -914.274353311, 
			 "HOMO_LUMO_gap": 0.17889, 
			 "cosmo_polarized_energy": -25.07, 
			 "cosmo_cavitation_energy": 36.62, 
			 "cosmo_dispersion_energy": -27.18, 
			 "cosmo_repulsion_energy": 2.08, 
			 "cosmo_total_nonelectrostatic_energy": 11.52, 
			 "SMD_solvation_energy": 7.19 
		},
		"coords": [
			{
				"x": 0.22745224,
				"y": -3.7686311042,
				"z": 3.1937597358,
				"element": "O" 
			},
			{
				"x": -1.0413456199,
				"y": -4.1634246701,
				"z": 3.0431811811,
				"element": "C" 
			},
			{
				"x": -1.3669869149,
				"y": -5.3273790719,
				"z": 3.0114424515,
				"element": "O" 
			},
			{
				"x": -2.0763805992,
				"y": -3.0236766816,
				"z": 2.9449631453,
				"element": "C" 
			},
			{
				"x": -1.8533564573,
				"y": -2.0866357674,
				"z": 1.8467209134,
				"element": "N" 
			},
			{
				"x": -0.866810832,
				"y": -1.1481068509,
				"z": 1.8831565378,
				"element": "C" 
			},
			{
				"x": -0.0410369896,
				"y": -1.1299533484,
				"z": 2.8126918875,
				"element": "O" 
			},
			{
				"x": -0.8183930992,
				"y": -0.1555216245,
				"z": 0.7762647596,
				"element": "C" 
			},
			{
				"x": -1.9157290797,
				"y": 0.1475368726,
				"z": -0.0398241399,
				"element": "C" 
			},
			{
				"x": -1.8090481856,
				"y": 1.0881000924,
				"z": -1.0583855587,
				"element": "C" 
			},
			{
				"x": -0.5932724434,
				"y": 1.760862596,
				"z": -1.289794537,
				"element": "C" 
			},
			{
				"x": 0.5102887987,
				"y": 1.4670603857,
				"z": -0.4613721274,
				"element": "C" 
			},
			{
				"x": 0.3858657346,
				"y": 0.5281985955,
				"z": 0.5525407739,
				"element": "C" 
			},
			{
				"x": -0.5159127286,
				"y": 2.716330155,
				"z": -2.3209014226,
				"element": "N" 
			},
			{
				"x": -1.707875692,
				"y": 3.1367150002,
				"z": -3.0723456553,
				"element": "C" 
			},
			{
				"x": -1.2346167281,
				"y": 4.366551985,
				"z": -3.8669242496,
				"element": "C" 
			},
			{
				"x": 0.265085804,
				"y": 4.1193557473,
				"z": -4.0513252267,
				"element": "C" 
			},
			{
				"x": 0.6576125814,
				"y": 3.2572012038,
				"z": -2.8560552866,
				"element": "C" 
			},
			{
				"x": 1.7915881465,
				"y": 3.0610632266,
				"z": -2.4599851503,
				"element": "O" 
			},
			{
				"x": 0.2727001972,
				"y": -2.7784002078,
				"z": 3.2004310759,
				"element": "H" 
			},
			{
				"x": -3.0577837607,
				"y": -3.48036771,
				"z": 2.8206762267,
				"element": "H" 
			},
			{
				"x": -2.0633496288,
				"y": -2.4589959581,
				"z": 3.8843449845,
				"element": "H" 
			},
			{
				"x": -2.3603525701,
				"y": -2.2325093859,
				"z": 0.9874922721,
				"element": "H" 
			},
			{
				"x": -2.8804096802,
				"y": -0.3221163254,
				"z": 0.1305461893,
				"element": "H" 
			},
			{
				"x": -2.6792008593,
				"y": 1.2937342439,
				"z": -1.6692573944,
				"element": "H" 
			},
			{
				"x": 1.4493301134,
				"y": 1.972334039,
				"z": -0.6310841294,
				"element": "H" 
			},
			{
				"x": 1.2310237816,
				"y": 0.3084403692,
				"z": 1.1957994582,
				"element": "H" 
			},
			{
				"x": -2.5258432903,
				"y": 3.3759176956,
				"z": -2.3870081146,
				"element": "H" 
			},
			{
				"x": -2.0470523266,
				"y": 2.3289076121,
				"z": -3.7356951343,
				"element": "H" 
			},
			{
				"x": -1.3967723826,
				"y": 5.2718909073,
				"z": -3.2738711035,
				"element": "H" 
			},
			{
				"x": -1.781887676,
				"y": 4.4788848319,
				"z": -4.8053906853,
				"element": "H" 
			},
			{
				"x": 0.4804258359,
				"y": 3.5459355479,
				"z": -4.961810288,
				"element": "H" 
			},
			{
				"x": 0.8794443109,
				"y": 5.0211975993,
				"z": -4.0805813891,
				"element": "H" 
			}
		],
		 "valence_orbital": [ 
			{
				"type": "occ",
				"energy": -0.27895,
				"method": "rhf"
			},
			{
				"type": "occ",
				"energy": -0.27143,
				"method": "rhf"
			},
			{
				"type": "occ",
				"energy": -0.26464,
				"method": "rhf"
			},
			{
				"type": "occ",
				"energy": -0.25048,
				"method": "rhf"
			},
			{
				"type": "occ",
				"energy": -0.23654,
				"method": "rhf"
			},
			{
				"type": "unocc",
				"energy": -0.05765,
				"method": "rhf"
			},
			{
				"type": "unocc",
				"energy": -0.02211,
				"method": "rhf"
			},
			{
				"type": "unocc",
				"energy": 0.00386,
				"method": "rhf"
			},
			{
				"type": "unocc",
				"energy": 0.01727,
				"method": "rhf"
			},
			{
				"type": "unocc",
				"energy": 0.05282,
				"method": "rhf"
			}
		],
		"cosmo_sigma_profile": { 
			"-0.025": 0.0,
			"-0.024": 0.0,
			"-0.023": 0.0,
			"-0.022": 0.0,
			"-0.021": 0.0,
			"-0.02": 0.0,
			"-0.019": 0.0,
			"-0.018": 0.0,
			"-0.017": 0.0,
			"-0.016": 0.445323953766,
			"-0.015": 1.6863264929,
			"-0.014": 1.34969677643,
			"-0.013": 1.40860861408,
			"-0.012": 1.32207869318,
			"-0.011": 1.41099783032,
			"-0.01": 1.6616879004,
			"-0.009": 2.45752292999,
			"-0.008": 5.09908429504,
			"-0.007": 9.23438518826,
			"-0.006": 17.0488830559,
			"-0.005": 27.3416612612,
			"-0.004": 29.4870335451,
			"-0.003": 22.8230487755,
			"-0.002": 20.200547665,
			"-0.001": 18.0329578177,
			"0.0": 13.1160059696,
			"0.001": 15.1044633385,
			"0.002": 11.8212468608,
			"0.003": 16.7731501212,
			"0.004": 12.127588066,
			"0.005": 5.14641355911,
			"0.006": 4.95061480944,
			"0.007": 5.50111825453,
			"0.008": 5.97977168727,
			"0.009": 4.33571336232,
			"0.01": 7.70825662738,
			"0.011": 9.33032646226,
			"0.012": 11.1575361573,
			"0.013": 6.13281980894,
			"0.014": 1.01886623235,
			"0.015": 0.0,
			"0.016": 0.0,
			"0.017": 0.0,
			"0.018": 0.0,
			"0.019": 0.0,
			"0.02": 0.0,
			"0.021": 0.0,
			"0.022": 0.0,
			"0.023": 0.0,
			"0.024": 0.0,
			"0.025": 0.0
		}
	}
}
