{
	 "smiles": "NNC1=NC2=C(S1)C=CC(Cl)=C2", 
	 "Tm": 483.15, 
	 "num_atms": 18, 
	 "gaussian": { 
		 "optdone": 1, 
		 "sigma_profile": "yes", 
		 "theory": "DFT", 
		 "functional": "B3LYP", 
		 "basiset": "6-31G**", 
		 "properties": { 
			 "R2extent": 3778.1728, 
			 "electric_dipole_moment_norm": 3.70833625633, 
			 "electric_quadrupole_moment_norm": 6.46465164259, 
			 "total_energy": -1292.97045204, 
			 "HOMO_LUMO_gap": 0.19458, 
			 "cosmo_polarized_energy": -11.64, 
			 "cosmo_cavitation_energy": 25.84, 
			 "cosmo_dispersion_energy": -20.16, 
			 "cosmo_repulsion_energy": 1.56, 
			 "cosmo_total_nonelectrostatic_energy": 7.24, 
			 "SMD_solvation_energy": 2.36 
		},
		"coords": [
			{
				"x": -0.618157587,
				"y": 4.5882810345,
				"z": 1.7695563581,
				"element": "N" 
			},
			{
				"x": -1.3087242566,
				"y": 3.3733965412,
				"z": 1.8435249189,
				"element": "N" 
			},
			{
				"x": -0.7337327247,
				"y": 2.1639477968,
				"z": 1.5739737201,
				"element": "C" 
			},
			{
				"x": -1.3998170067,
				"y": 1.0712734706,
				"z": 1.3639506733,
				"element": "N" 
			},
			{
				"x": -0.5334000359,
				"y": 0.0094527708,
				"z": 1.1700398948,
				"element": "C" 
			},
			{
				"x": 0.849130308,
				"y": 0.3175064109,
				"z": 1.2257141091,
				"element": "C" 
			},
			{
				"x": 1.052016232,
				"y": 2.0392162445,
				"z": 1.547548438,
				"element": "S" 
			},
			{
				"x": 1.8242049931,
				"y": -0.6582154013,
				"z": 1.0371406966,
				"element": "C" 
			},
			{
				"x": 1.4195075461,
				"y": -1.9702608701,
				"z": 0.7916216758,
				"element": "C" 
			},
			{
				"x": 0.0527960327,
				"y": -2.2741351361,
				"z": 0.7384197463,
				"element": "C" 
			},
			{
				"x": -0.4310184412,
				"y": -3.9380439572,
				"z": 0.4269877462,
				"element": "Cl" 
			},
			{
				"x": -0.9325421329,
				"y": -1.3110075931,
				"z": 0.9221532741,
				"element": "C" 
			},
			{
				"x": -0.023844815,
				"y": 4.6965243669,
				"z": 2.5873941335,
				"element": "H" 
			},
			{
				"x": -0.0436021641,
				"y": 4.6356849807,
				"z": 0.9286996186,
				"element": "H" 
			},
			{
				"x": -2.3035972554,
				"y": 3.4320200045,
				"z": 1.6710070709,
				"element": "H" 
			},
			{
				"x": 2.8809305599,
				"y": -0.41503263,
				"z": 1.0798037641,
				"element": "H" 
			},
			{
				"x": 2.1534359298,
				"y": -2.7534705441,
				"z": 0.6423961261,
				"element": "H" 
			},
			{
				"x": -1.9856851821,
				"y": -1.5605374894,
				"z": 0.8776680356,
				"element": "H" 
			}
		],
		 "valence_orbital": [ 
			{
				"type": "occ",
				"energy": -0.2957,
				"method": "rhf"
			},
			{
				"type": "occ",
				"energy": -0.2884,
				"method": "rhf"
			},
			{
				"type": "occ",
				"energy": -0.28455,
				"method": "rhf"
			},
			{
				"type": "occ",
				"energy": -0.23598,
				"method": "rhf"
			},
			{
				"type": "occ",
				"energy": -0.21858,
				"method": "rhf"
			},
			{
				"type": "unocc",
				"energy": -0.024,
				"method": "rhf"
			},
			{
				"type": "unocc",
				"energy": -0.0122,
				"method": "rhf"
			},
			{
				"type": "unocc",
				"energy": -0.00374,
				"method": "rhf"
			},
			{
				"type": "unocc",
				"energy": 0.03496,
				"method": "rhf"
			},
			{
				"type": "unocc",
				"energy": 0.03657,
				"method": "rhf"
			}
		],
		"cosmo_sigma_profile": { 
			"-0.025": 0.0,
			"-0.024": 0.0,
			"-0.023": 0.0,
			"-0.022": 0.0,
			"-0.021": 0.0,
			"-0.02": 0.0,
			"-0.019": 0.0,
			"-0.018": 0.0,
			"-0.017": 0.0,
			"-0.016": 0.0,
			"-0.015": 0.417290649903,
			"-0.014": 0.844491411587,
			"-0.013": 1.26910365677,
			"-0.012": 3.35312754177,
			"-0.011": 4.01267788704,
			"-0.01": 3.4381395621,
			"-0.009": 2.96444454453,
			"-0.008": 5.02161604995,
			"-0.007": 9.68197871814,
			"-0.006": 7.64687932405,
			"-0.005": 8.71488481095,
			"-0.004": 6.90586082559,
			"-0.003": 7.97236313681,
			"-0.002": 8.94692139112,
			"-0.001": 10.8269646181,
			"0.0": 13.3219474309,
			"0.001": 16.7187191103,
			"0.002": 22.2783372367,
			"0.003": 27.5769449645,
			"0.004": 20.950176534,
			"0.005": 11.6067066225,
			"0.006": 3.33382230304,
			"0.007": 1.14241116357,
			"0.008": 1.64063580558,
			"0.009": 1.8731533469,
			"0.01": 2.03101551447,
			"0.011": 1.46331291959,
			"0.012": 2.18837642551,
			"0.013": 0.707220462419,
			"0.014": 1.5653984947,
			"0.015": 0.928640781953,
			"0.016": 0.0,
			"0.017": 0.0,
			"0.018": 0.0,
			"0.019": 0.0,
			"0.02": 0.0,
			"0.021": 0.0,
			"0.022": 0.0,
			"0.023": 0.0,
			"0.024": 0.0,
			"0.025": 0.0
		}
	}
}
