{
	 "smiles": "BrC1=CC(Br)=C(OC2=CC(Br)=C(Br)C=C2Br)C(Br)=C1Br", 
	 "Tm": 445.15, 
	 "num_atms": 23, 
	 "gaussian": { 
		 "optdone": 1, 
		 "sigma_profile": "yes", 
		 "theory": "DFT", 
		 "functional": "B3LYP", 
		 "basiset": "6-31G**", 
		 "properties": { 
			 "R2extent": 20399.2421, 
			 "electric_dipole_moment_norm": 1.35327556691, 
			 "electric_quadrupole_moment_norm": 7.32308448401, 
			 "total_energy": -18534.0951305, 
			 "HOMO_LUMO_gap": 0.17722, 
			 "cosmo_polarized_energy": -7.11, 
			 "cosmo_cavitation_energy": 44.53, 
			 "cosmo_dispersion_energy": -32.52, 
			 "cosmo_repulsion_energy": 2.55, 
			 "cosmo_total_nonelectrostatic_energy": 14.56, 
			 "SMD_solvation_energy": 0.24 
		},
		"coords": [
			{
				"x": -0.0490064082,
				"y": -3.6707804336,
				"z": 4.6929773686,
				"element": "Br" 
			},
			{
				"x": -0.3979516529,
				"y": -2.4479773597,
				"z": 3.2839736057,
				"element": "C" 
			},
			{
				"x": -0.0148156311,
				"y": -1.1232766539,
				"z": 3.4820926822,
				"element": "C" 
			},
			{
				"x": -0.2419035296,
				"y": -0.1766132707,
				"z": 2.4900097118,
				"element": "C" 
			},
			{
				"x": 0.2724806755,
				"y": 1.6232152884,
				"z": 2.7849309449,
				"element": "Br" 
			},
			{
				"x": -0.8531139553,
				"y": -0.5454364466,
				"z": 1.2867555892,
				"element": "C" 
			},
			{
				"x": -1.1655417359,
				"y": 0.4066855224,
				"z": 0.3514170283,
				"element": "O" 
			},
			{
				"x": -0.2731491108,
				"y": 0.7257803405,
				"z": -0.6445310765,
				"element": "C" 
			},
			{
				"x": 0.9698602383,
				"y": 0.114229399,
				"z": -0.7860961597,
				"element": "C" 
			},
			{
				"x": 1.8289019856,
				"y": 0.4859644981,
				"z": -1.8217075045,
				"element": "C" 
			},
			{
				"x": 3.5043310484,
				"y": -0.3986960169,
				"z": -1.9401483195,
				"element": "Br" 
			},
			{
				"x": 1.4439944744,
				"y": 1.478381537,
				"z": -2.7271125584,
				"element": "C" 
			},
			{
				"x": 2.5542322924,
				"y": 2.0392857192,
				"z": -4.1613303587,
				"element": "Br" 
			},
			{
				"x": 0.1961295713,
				"y": 2.0892348095,
				"z": -2.5827576342,
				"element": "C" 
			},
			{
				"x": -0.6601037019,
				"y": 1.7205793139,
				"z": -1.5522693204,
				"element": "C" 
			},
			{
				"x": -2.3480718129,
				"y": 2.5701391537,
				"z": -1.3853718482,
				"element": "Br" 
			},
			{
				"x": -1.2424046825,
				"y": -1.8806314942,
				"z": 1.091245526,
				"element": "C" 
			},
			{
				"x": -2.0821032116,
				"y": -2.3219797708,
				"z": -0.5460736779,
				"element": "Br" 
			},
			{
				"x": -1.0180238612,
				"y": -2.8447467475,
				"z": 2.0890578718,
				"element": "C" 
			},
			{
				"x": -1.5440082085,
				"y": -4.640885752,
				"z": 1.8268267797,
				"element": "Br" 
			},
			{
				"x": 0.4576660701,
				"y": -0.8321231607,
				"z": 4.4108018057,
				"element": "H" 
			},
			{
				"x": 1.2783964671,
				"y": -0.6565487926,
				"z": -0.0915350002,
				"element": "H" 
			},
			{
				"x": -0.1079953206,
				"y": 2.8585003176,
				"z": -3.2809554558,
				"element": "H" 
			}
		],
		 "valence_orbital": [ 
			{
				"type": "occ",
				"energy": -0.28414,
				"method": "rhf"
			},
			{
				"type": "occ",
				"energy": -0.26796,
				"method": "rhf"
			},
			{
				"type": "occ",
				"energy": -0.2626,
				"method": "rhf"
			},
			{
				"type": "occ",
				"energy": -0.26042,
				"method": "rhf"
			},
			{
				"type": "occ",
				"energy": -0.24157,
				"method": "rhf"
			},
			{
				"type": "unocc",
				"energy": -0.06435,
				"method": "rhf"
			},
			{
				"type": "unocc",
				"energy": -0.05783,
				"method": "rhf"
			},
			{
				"type": "unocc",
				"energy": -0.05535,
				"method": "rhf"
			},
			{
				"type": "unocc",
				"energy": -0.04041,
				"method": "rhf"
			},
			{
				"type": "unocc",
				"energy": -0.03435,
				"method": "rhf"
			}
		],
		"cosmo_sigma_profile": { 
			"-0.025": 0.0,
			"-0.024": 0.0,
			"-0.023": 0.0,
			"-0.022": 0.0,
			"-0.021": 0.0,
			"-0.02": 0.0,
			"-0.019": 0.0,
			"-0.018": 0.0,
			"-0.017": 0.0,
			"-0.016": 0.0,
			"-0.015": 0.0,
			"-0.014": 0.0,
			"-0.013": 0.0,
			"-0.012": 0.0,
			"-0.011": 0.0,
			"-0.01": 0.299594534632,
			"-0.009": 2.68903705535,
			"-0.008": 4.84296823914,
			"-0.007": 5.56625560568,
			"-0.006": 10.5441650139,
			"-0.005": 15.3690154526,
			"-0.004": 16.8083728513,
			"-0.003": 21.8548997918,
			"-0.002": 30.4964536718,
			"-0.001": 40.9665151598,
			"0.0": 48.4644692649,
			"0.001": 40.0037429244,
			"0.002": 45.6692206299,
			"0.003": 57.5110087105,
			"0.004": 32.3078621342,
			"0.005": 5.24584741309,
			"0.006": 2.30759572496,
			"0.007": 1.32174224031,
			"0.008": 0.041302052777,
			"0.009": 0.0,
			"0.01": 0.0,
			"0.011": 0.0,
			"0.012": 0.0,
			"0.013": 0.0,
			"0.014": 0.0,
			"0.015": 0.0,
			"0.016": 0.0,
			"0.017": 0.0,
			"0.018": 0.0,
			"0.019": 0.0,
			"0.02": 0.0,
			"0.021": 0.0,
			"0.022": 0.0,
			"0.023": 0.0,
			"0.024": 0.0,
			"0.025": 0.0
		}
	}
}
