{
	 "smiles": "CC1=CC(=NC=C1)N1C=C(C=N1)S(N)(=O)=O", 
	 "Tm": 430.15, 
	 "num_atms": 26, 
	 "gaussian": { 
		 "optdone": 1, 
		 "sigma_profile": "yes", 
		 "theory": "DFT", 
		 "functional": "B3LYP", 
		 "basiset": "6-31G**", 
		 "properties": { 
			 "R2extent": 6178.2346, 
			 "electric_dipole_moment_norm": 6.75063244074, 
			 "electric_quadrupole_moment_norm": 30.1926638638, 
			 "total_energy": -1116.5281574, 
			 "HOMO_LUMO_gap": 0.2056, 
			 "cosmo_polarized_energy": -26.34, 
			 "cosmo_cavitation_energy": 32.82, 
			 "cosmo_dispersion_energy": -24.24, 
			 "cosmo_repulsion_energy": 1.85, 
			 "cosmo_total_nonelectrostatic_energy": 10.43, 
			 "SMD_solvation_energy": 3.58 
		},
		"coords": [
			{
				"x": -3.8982609624,
				"y": -0.7846887432,
				"z": 1.4418526805,
				"element": "C" 
			},
			{
				"x": -2.4917414337,
				"y": -0.2451610195,
				"z": 1.4985980278,
				"element": "C" 
			},
			{
				"x": -1.4874406369,
				"y": -0.7443536237,
				"z": 0.6658004139,
				"element": "C" 
			},
			{
				"x": -0.2075182171,
				"y": -0.1863183932,
				"z": 0.7502792646,
				"element": "C" 
			},
			{
				"x": 0.1387887384,
				"y": 0.7804003464,
				"z": 1.591778013,
				"element": "N" 
			},
			{
				"x": -0.8214380586,
				"y": 1.2367746532,
				"z": 2.4049876366,
				"element": "C" 
			},
			{
				"x": -2.1348541787,
				"y": 0.7744064287,
				"z": 2.3916566021,
				"element": "C" 
			},
			{
				"x": 0.8189345179,
				"y": -0.6660176121,
				"z": -0.1184498266,
				"element": "N" 
			},
			{
				"x": 0.6670571818,
				"y": -1.0970556301,
				"z": -1.4005078287,
				"element": "C" 
			},
			{
				"x": 1.9223697054,
				"y": -1.4797269118,
				"z": -1.8285358847,
				"element": "C" 
			},
			{
				"x": 2.778203409,
				"y": -1.246288721,
				"z": -0.7205975271,
				"element": "C" 
			},
			{
				"x": 2.1095852527,
				"y": -0.7503187088,
				"z": 0.3087848297,
				"element": "N" 
			},
			{
				"x": 2.3164352021,
				"y": -2.1146224995,
				"z": -3.4280658253,
				"element": "S" 
			},
			{
				"x": 2.9842523126,
				"y": -0.8538351122,
				"z": -4.3154021054,
				"element": "N" 
			},
			{
				"x": 3.3945286418,
				"y": -3.0851491867,
				"z": -3.2610775307,
				"element": "O" 
			},
			{
				"x": 1.0449130772,
				"y": -2.4279652481,
				"z": -4.0779914473,
				"element": "O" 
			},
			{
				"x": -3.9448738547,
				"y": -1.7305831777,
				"z": 0.8963000693,
				"element": "H" 
			},
			{
				"x": -4.5640723346,
				"y": -0.0749320214,
				"z": 0.9367286055,
				"element": "H" 
			},
			{
				"x": -4.3005978206,
				"y": -0.9468148355,
				"z": 2.4464663065,
				"element": "H" 
			},
			{
				"x": -1.6899106393,
				"y": -1.5676159921,
				"z": -0.0113447279,
				"element": "H" 
			},
			{
				"x": -0.5213483155,
				"y": 2.0200945501,
				"z": 3.0979407945,
				"element": "H" 
			},
			{
				"x": -2.8672437022,
				"y": 1.195360742,
				"z": 3.0740481417,
				"element": "H" 
			},
			{
				"x": -0.2797747137,
				"y": -1.0955950738,
				"z": -1.9170756817,
				"element": "H" 
			},
			{
				"x": 3.838066844,
				"y": -1.4445072606,
				"z": -0.6395478745,
				"element": "H" 
			},
			{
				"x": 2.336072778,
				"y": -0.0863021966,
				"z": -4.4607902183,
				"element": "H" 
			},
			{
				"x": 3.883367207,
				"y": -0.5525847525,
				"z": -3.9530349076,
				"element": "H" 
			}
		],
		 "valence_orbital": [ 
			{
				"type": "occ",
				"energy": -0.29675,
				"method": "rhf"
			},
			{
				"type": "occ",
				"energy": -0.29317,
				"method": "rhf"
			},
			{
				"type": "occ",
				"energy": -0.27815,
				"method": "rhf"
			},
			{
				"type": "occ",
				"energy": -0.27109,
				"method": "rhf"
			},
			{
				"type": "occ",
				"energy": -0.25561,
				"method": "rhf"
			},
			{
				"type": "unocc",
				"energy": -0.05001,
				"method": "rhf"
			},
			{
				"type": "unocc",
				"energy": -0.03779,
				"method": "rhf"
			},
			{
				"type": "unocc",
				"energy": 0.00346,
				"method": "rhf"
			},
			{
				"type": "unocc",
				"energy": 0.01705,
				"method": "rhf"
			},
			{
				"type": "unocc",
				"energy": 0.05744,
				"method": "rhf"
			}
		],
		"cosmo_sigma_profile": { 
			"-0.025": 0.0,
			"-0.024": 0.0,
			"-0.023": 0.0,
			"-0.022": 0.0,
			"-0.021": 0.0,
			"-0.02": 0.0,
			"-0.019": 0.0,
			"-0.018": 0.0,
			"-0.017": 0.0,
			"-0.016": 0.273133833898,
			"-0.015": 2.79889245935,
			"-0.014": 2.29978771786,
			"-0.013": 2.91015031569,
			"-0.012": 3.14990622826,
			"-0.011": 3.38566222756,
			"-0.01": 4.73746942593,
			"-0.009": 5.4301013555,
			"-0.008": 5.94467588781,
			"-0.007": 10.430258274,
			"-0.006": 13.2584727971,
			"-0.005": 15.4340991299,
			"-0.004": 15.4371841149,
			"-0.003": 14.9788217043,
			"-0.002": 16.0391347619,
			"-0.001": 19.7510469319,
			"0.0": 17.6718141239,
			"0.001": 18.0953152134,
			"0.002": 13.4027668055,
			"0.003": 5.71030922159,
			"0.004": 5.10140346209,
			"0.005": 5.17569645486,
			"0.006": 5.99194436288,
			"0.007": 6.34330831345,
			"0.008": 6.70099000669,
			"0.009": 5.25600993231,
			"0.01": 10.0136714835,
			"0.011": 13.6102507407,
			"0.012": 5.61068758904,
			"0.013": 2.15917528459,
			"0.014": 1.29973246766,
			"0.015": 1.55475534869,
			"0.016": 1.40992295392,
			"0.017": 1.12394539035,
			"0.018": 0.136864493856,
			"0.019": 0.0,
			"0.02": 0.0,
			"0.021": 0.0,
			"0.022": 0.0,
			"0.023": 0.0,
			"0.024": 0.0,
			"0.025": 0.0
		}
	}
}
