{
	 "smiles": "CC1(C)C(Br)C(=O)C(Br)=C1Br", 
	 "Tm": 360.15, 
	 "num_atms": 18, 
	 "gaussian": { 
		 "optdone": 1, 
		 "sigma_profile": "yes", 
		 "theory": "DFT", 
		 "functional": "B3LYP", 
		 "basiset": "6-31G**", 
		 "properties": { 
			 "R2extent": 4981.8062, 
			 "electric_dipole_moment_norm": 4.00699041551, 
			 "electric_quadrupole_moment_norm": 5.16224099011, 
			 "total_energy": -8060.38064377, 
			 "HOMO_LUMO_gap": 0.17849, 
			 "cosmo_polarized_energy": -9.29, 
			 "cosmo_cavitation_energy": 27.81, 
			 "cosmo_dispersion_energy": -20.54, 
			 "cosmo_repulsion_energy": 1.65, 
			 "cosmo_total_nonelectrostatic_energy": 8.92, 
			 "SMD_solvation_energy": 2.27 
		},
		"coords": [
			{
				"x": 1.4121337509,
				"y": -2.5422148097,
				"z": 0.4717054519,
				"element": "C" 
			},
			{
				"x": 0.8579969166,
				"y": -1.1094207754,
				"z": 0.4619902186,
				"element": "C" 
			},
			{
				"x": 1.4801951323,
				"y": -0.3096862148,
				"z": 1.6335694882,
				"element": "C" 
			},
			{
				"x": -0.6967238524,
				"y": -0.976246971,
				"z": 0.5513515745,
				"element": "C" 
			},
			{
				"x": -1.7288637775,
				"y": -2.6286020469,
				"z": 0.1757660558,
				"element": "Br" 
			},
			{
				"x": -1.1073389818,
				"y": 0.0547940559,
				"z": -0.5133849735,
				"element": "C" 
			},
			{
				"x": -2.1815780547,
				"y": 0.6028273092,
				"z": -0.6005105679,
				"element": "O" 
			},
			{
				"x": 0.0807889644,
				"y": 0.2545736237,
				"z": -1.3756337281,
				"element": "C" 
			},
			{
				"x": 0.0021833741,
				"y": 1.3300969071,
				"z": -2.9051414239,
				"element": "Br" 
			},
			{
				"x": 1.14340693,
				"y": -0.3838660539,
				"z": -0.8535509123,
				"element": "C" 
			},
			{
				"x": 2.8790275468,
				"y": -0.3443944925,
				"z": -1.5740887174,
				"element": "Br" 
			},
			{
				"x": 1.1101152373,
				"y": -3.0554948947,
				"z": 1.3883677926,
				"element": "H" 
			},
			{
				"x": 2.5041128845,
				"y": -2.5142964449,
				"z": 0.4353565967,
				"element": "H" 
			},
			{
				"x": 1.0501687979,
				"y": -3.1230944474,
				"z": -0.3781335648,
				"element": "H" 
			},
			{
				"x": 1.2781015507,
				"y": -0.8190621696,
				"z": 2.5809428844,
				"element": "H" 
			},
			{
				"x": 2.5639205218,
				"y": -0.2324907603,
				"z": 1.511142542,
				"element": "H" 
			},
			{
				"x": 1.071997148,
				"y": 0.7042852953,
				"z": 1.6894968997,
				"element": "H" 
			},
			{
				"x": -1.040844089,
				"y": -0.67540711,
				"z": 1.5396543835,
				"element": "H" 
			}
		],
		 "valence_orbital": [ 
			{
				"type": "occ",
				"energy": -0.29894,
				"method": "rhf"
			},
			{
				"type": "occ",
				"energy": -0.29498,
				"method": "rhf"
			},
			{
				"type": "occ",
				"energy": -0.28722,
				"method": "rhf"
			},
			{
				"type": "occ",
				"energy": -0.26608,
				"method": "rhf"
			},
			{
				"type": "occ",
				"energy": -0.26322,
				"method": "rhf"
			},
			{
				"type": "unocc",
				"energy": -0.08473,
				"method": "rhf"
			},
			{
				"type": "unocc",
				"energy": -0.02947,
				"method": "rhf"
			},
			{
				"type": "unocc",
				"energy": -0.01413,
				"method": "rhf"
			},
			{
				"type": "unocc",
				"energy": 0.02079,
				"method": "rhf"
			},
			{
				"type": "unocc",
				"energy": 0.04806,
				"method": "rhf"
			}
		],
		"cosmo_sigma_profile": { 
			"-0.025": 0.0,
			"-0.024": 0.0,
			"-0.023": 0.0,
			"-0.022": 0.0,
			"-0.021": 0.0,
			"-0.02": 0.0,
			"-0.019": 0.0,
			"-0.018": 0.0,
			"-0.017": 0.0,
			"-0.016": 0.0,
			"-0.015": 0.0,
			"-0.014": 0.0,
			"-0.013": 0.0,
			"-0.012": 0.0,
			"-0.011": 0.0,
			"-0.01": 0.190199933555,
			"-0.009": 2.56973641888,
			"-0.008": 3.48733103415,
			"-0.007": 4.08821515497,
			"-0.006": 7.05949408579,
			"-0.005": 10.3619315613,
			"-0.004": 18.6668207242,
			"-0.003": 19.8305327149,
			"-0.002": 22.7330799868,
			"-0.001": 24.4465539434,
			"0.0": 19.6650249779,
			"0.001": 17.7672362194,
			"0.002": 18.7272769249,
			"0.003": 19.2017968194,
			"0.004": 13.894308081,
			"0.005": 7.11371855566,
			"0.006": 3.64710341902,
			"0.007": 2.45707526633,
			"0.008": 2.68387271332,
			"0.009": 2.39658711755,
			"0.01": 4.61851748296,
			"0.011": 3.93184761416,
			"0.012": 0.529506111391,
			"0.013": 0.0,
			"0.014": 0.0,
			"0.015": 0.0,
			"0.016": 0.0,
			"0.017": 0.0,
			"0.018": 0.0,
			"0.019": 0.0,
			"0.02": 0.0,
			"0.021": 0.0,
			"0.022": 0.0,
			"0.023": 0.0,
			"0.024": 0.0,
			"0.025": 0.0
		}
	}
}
