{
	 "smiles": "O=C1CC2(CCCC3=C2C=CC=C3)C(=O)O1", 
	 "Tm": 373.15, 
	 "num_atms": 28, 
	 "gaussian": { 
		 "optdone": 1, 
		 "sigma_profile": "yes", 
		 "theory": "DFT", 
		 "functional": "B3LYP", 
		 "basiset": "6-31G**", 
		 "properties": { 
			 "R2extent": 3367.6947, 
			 "electric_dipole_moment_norm": 5.02644377965, 
			 "electric_quadrupole_moment_norm": 13.3926497109, 
			 "total_energy": -728.31614775, 
			 "HOMO_LUMO_gap": 0.22126, 
			 "cosmo_polarized_energy": -13.09, 
			 "cosmo_cavitation_energy": 30.26, 
			 "cosmo_dispersion_energy": -21.86, 
			 "cosmo_repulsion_energy": 1.69, 
			 "cosmo_total_nonelectrostatic_energy": 10.08, 
			 "SMD_solvation_energy": 6.23 
		},
		"coords": [
			{
				"x": 1.9779308004,
				"y": -2.638479999,
				"z": 2.750916699,
				"element": "O" 
			},
			{
				"x": 1.1935383165,
				"y": -2.2170612648,
				"z": 1.9515020372,
				"element": "C" 
			},
			{
				"x": 1.4055924024,
				"y": -1.2031428121,
				"z": 0.8435032824,
				"element": "C" 
			},
			{
				"x": 0.0009595904,
				"y": -0.9422325581,
				"z": 0.243524811,
				"element": "C" 
			},
			{
				"x": -0.0663462178,
				"y": -1.1824228682,
				"z": -1.2809270017,
				"element": "C" 
			},
			{
				"x": 0.5120556359,
				"y": 0.00342104,
				"z": -2.0542311578,
				"element": "C" 
			},
			{
				"x": -0.3405085083,
				"y": 1.2491265803,
				"z": -1.8025385305,
				"element": "C" 
			},
			{
				"x": -0.6390984877,
				"y": 1.4777915158,
				"z": -0.3321574522,
				"element": "C" 
			},
			{
				"x": -0.5216516699,
				"y": 0.4533215466,
				"z": 0.6242448222,
				"element": "C" 
			},
			{
				"x": -0.8368494736,
				"y": 0.7275926649,
				"z": 1.9651679478,
				"element": "C" 
			},
			{
				"x": -1.2667676156,
				"y": 1.9891715491,
				"z": 2.3643507439,
				"element": "C" 
			},
			{
				"x": -1.3823330482,
				"y": 3.0081345468,
				"z": 1.4167970055,
				"element": "C" 
			},
			{
				"x": -1.0681306036,
				"y": 2.7461399579,
				"z": 0.0871321204,
				"element": "C" 
			},
			{
				"x": -0.8565818778,
				"y": -2.0167084292,
				"z": 0.9341623607,
				"element": "C" 
			},
			{
				"x": -1.9895810221,
				"y": -2.325079332,
				"z": 0.7018191726,
				"element": "O" 
			},
			{
				"x": -0.1256765702,
				"y": -2.6557173354,
				"z": 1.9282271961,
				"element": "O" 
			},
			{
				"x": 2.0989716562,
				"y": -1.6392316574,
				"z": 0.1156397518,
				"element": "H" 
			},
			{
				"x": 1.8846854164,
				"y": -0.313761584,
				"z": 1.2574058769,
				"element": "H" 
			},
			{
				"x": 0.4623199341,
				"y": -2.111532862,
				"z": -1.523557013,
				"element": "H" 
			},
			{
				"x": -1.115820298,
				"y": -1.3306137403,
				"z": -1.5589115595,
				"element": "H" 
			},
			{
				"x": 0.5412193795,
				"y": -0.2234823371,
				"z": -3.1251968548,
				"element": "H" 
			},
			{
				"x": 1.5493900152,
				"y": 0.186035196,
				"z": -1.7433277083,
				"element": "H" 
			},
			{
				"x": 0.1424106187,
				"y": 2.1397574579,
				"z": -2.2206631767,
				"element": "H" 
			},
			{
				"x": -1.2932181184,
				"y": 1.1409914615,
				"z": -2.3410963407,
				"element": "H" 
			},
			{
				"x": -0.7543901381,
				"y": -0.0582912647,
				"z": 2.712153778,
				"element": "H" 
			},
			{
				"x": -1.5101455817,
				"y": 2.1738798061,
				"z": 3.4062223325,
				"element": "H" 
			},
			{
				"x": -1.7127422267,
				"y": 3.9992943785,
				"z": 1.713322948,
				"element": "H" 
			},
			{
				"x": -1.154132308,
				"y": 3.5386003431,
				"z": -0.652786091,
				"element": "H" 
			}
		],
		 "valence_orbital": [ 
			{
				"type": "occ",
				"energy": -0.32656,
				"method": "rhf"
			},
			{
				"type": "occ",
				"energy": -0.30828,
				"method": "rhf"
			},
			{
				"type": "occ",
				"energy": -0.2786,
				"method": "rhf"
			},
			{
				"type": "occ",
				"energy": -0.25733,
				"method": "rhf"
			},
			{
				"type": "occ",
				"energy": -0.25139,
				"method": "rhf"
			},
			{
				"type": "unocc",
				"energy": -0.03013,
				"method": "rhf"
			},
			{
				"type": "unocc",
				"energy": -0.0199,
				"method": "rhf"
			},
			{
				"type": "unocc",
				"energy": -0.01298,
				"method": "rhf"
			},
			{
				"type": "unocc",
				"energy": -0.0005,
				"method": "rhf"
			},
			{
				"type": "unocc",
				"energy": 0.07137,
				"method": "rhf"
			}
		],
		"cosmo_sigma_profile": { 
			"-0.025": 0.0,
			"-0.024": 0.0,
			"-0.023": 0.0,
			"-0.022": 0.0,
			"-0.021": 0.0,
			"-0.02": 0.0,
			"-0.019": 0.0,
			"-0.018": 0.0,
			"-0.017": 0.0,
			"-0.016": 0.0,
			"-0.015": 0.0,
			"-0.014": 0.0,
			"-0.013": 0.0,
			"-0.012": 0.169243790535,
			"-0.011": 0.615064167601,
			"-0.01": 1.195689352,
			"-0.009": 2.26502980857,
			"-0.008": 4.87024106954,
			"-0.007": 7.26787062046,
			"-0.006": 11.8695790944,
			"-0.005": 16.5145489257,
			"-0.004": 24.4992757416,
			"-0.003": 23.2527567487,
			"-0.002": 21.7822038412,
			"-0.001": 19.2133690839,
			"0.0": 13.1950203832,
			"0.001": 8.6105000417,
			"0.002": 9.25934752672,
			"0.003": 9.65359350179,
			"0.004": 11.6233601638,
			"0.005": 12.1669141378,
			"0.006": 8.03872590436,
			"0.007": 6.93549285368,
			"0.008": 5.12085646488,
			"0.009": 7.23790546593,
			"0.01": 10.5916901766,
			"0.011": 3.61000555388,
			"0.012": 0.0170925374013,
			"0.013": 0.0,
			"0.014": 0.0,
			"0.015": 0.0,
			"0.016": 0.0,
			"0.017": 0.0,
			"0.018": 0.0,
			"0.019": 0.0,
			"0.02": 0.0,
			"0.021": 0.0,
			"0.022": 0.0,
			"0.023": 0.0,
			"0.024": 0.0,
			"0.025": 0.0
		}
	}
}
