{
	 "smiles": "OC(=O)CCC1=NC(=NO1)C1=NC=CC=N1", 
	 "Tm": 476.15, 
	 "num_atms": 24, 
	 "gaussian": { 
		 "optdone": 1, 
		 "sigma_profile": "yes", 
		 "theory": "DFT", 
		 "functional": "B3LYP", 
		 "basiset": "6-31G**", 
		 "properties": { 
			 "R2extent": 5039.0413, 
			 "electric_dipole_moment_norm": 2.61534008687, 
			 "electric_quadrupole_moment_norm": 30.5749927326, 
			 "total_energy": -792.419056933, 
			 "HOMO_LUMO_gap": 0.1911, 
			 "cosmo_polarized_energy": -22.24, 
			 "cosmo_cavitation_energy": 30.87, 
			 "cosmo_dispersion_energy": -21.97, 
			 "cosmo_repulsion_energy": 1.74, 
			 "cosmo_total_nonelectrostatic_energy": 10.64, 
			 "SMD_solvation_energy": 2.1 
		},
		"coords": [
			{
				"x": 3.3498790375,
				"y": -2.852614011,
				"z": -0.9607640821,
				"element": "O" 
			},
			{
				"x": 3.5548687887,
				"y": -1.8448354646,
				"z": -1.8416807266,
				"element": "C" 
			},
			{
				"x": 3.033404495,
				"y": -1.8046742704,
				"z": -2.9319465379,
				"element": "O" 
			},
			{
				"x": 4.5205612246,
				"y": -0.8130108074,
				"z": -1.2903861523,
				"element": "C" 
			},
			{
				"x": 4.0892367977,
				"y": -0.2379289687,
				"z": 0.0797656887,
				"element": "C" 
			},
			{
				"x": 2.8132794327,
				"y": 0.5335600187,
				"z": 0.0039034167,
				"element": "C" 
			},
			{
				"x": 1.5960426495,
				"y": 0.1089940134,
				"z": 0.1630882235,
				"element": "N" 
			},
			{
				"x": 0.8552312348,
				"y": 1.2489919516,
				"z": -0.0687863589,
				"element": "C" 
			},
			{
				"x": 1.5663221433,
				"y": 2.3191203147,
				"z": -0.3524199944,
				"element": "N" 
			},
			{
				"x": 2.8801359476,
				"y": 1.8447036395,
				"z": -0.3070509035,
				"element": "O" 
			},
			{
				"x": -0.6252214073,
				"y": 1.2837796069,
				"z": -0.0049554404,
				"element": "C" 
			},
			{
				"x": -1.2124549561,
				"y": 2.4635905582,
				"z": -0.2566483674,
				"element": "N" 
			},
			{
				"x": -2.5452923963,
				"y": 2.4807423753,
				"z": -0.1983926974,
				"element": "C" 
			},
			{
				"x": -3.2956220882,
				"y": 1.3447786567,
				"z": 0.1058532995,
				"element": "C" 
			},
			{
				"x": -2.5753669226,
				"y": 0.1776091182,
				"z": 0.3498309454,
				"element": "C" 
			},
			{
				"x": -1.2404958236,
				"y": 0.1332473967,
				"z": 0.2978823418,
				"element": "N" 
			},
			{
				"x": 2.6950708958,
				"y": -3.444153057,
				"z": -1.3678479366,
				"element": "H" 
			},
			{
				"x": 5.4976356822,
				"y": -1.2943282578,
				"z": -1.1679527177,
				"element": "H" 
			},
			{
				"x": 4.6197178005,
				"y": -0.0224618175,
				"z": -2.0363807208,
				"element": "H" 
			},
			{
				"x": 4.8780178162,
				"y": 0.4210976113,
				"z": 0.4535926379,
				"element": "H" 
			},
			{
				"x": 3.9493936985,
				"y": -1.0528609381,
				"z": 0.7925401535,
				"element": "H" 
			},
			{
				"x": -3.0257841198,
				"y": 3.4360885025,
				"z": -0.4023966613,
				"element": "H" 
			},
			{
				"x": -4.3788795338,
				"y": 1.369288496,
				"z": 0.150070052,
				"element": "H" 
			},
			{
				"x": -3.0798803968,
				"y": -0.755324667,
				"z": 0.5953825383,
				"element": "H" 
			}
		],
		 "valence_orbital": [ 
			{
				"type": "occ",
				"energy": -0.30411,
				"method": "rhf"
			},
			{
				"type": "occ",
				"energy": -0.29762,
				"method": "rhf"
			},
			{
				"type": "occ",
				"energy": -0.2782,
				"method": "rhf"
			},
			{
				"type": "occ",
				"energy": -0.27067,
				"method": "rhf"
			},
			{
				"type": "occ",
				"energy": -0.25548,
				"method": "rhf"
			},
			{
				"type": "unocc",
				"energy": -0.06438,
				"method": "rhf"
			},
			{
				"type": "unocc",
				"energy": -0.04707,
				"method": "rhf"
			},
			{
				"type": "unocc",
				"energy": -0.01334,
				"method": "rhf"
			},
			{
				"type": "unocc",
				"energy": 0.00218,
				"method": "rhf"
			},
			{
				"type": "unocc",
				"energy": 0.05764,
				"method": "rhf"
			}
		],
		"cosmo_sigma_profile": { 
			"-0.025": 0.0,
			"-0.024": 0.0,
			"-0.023": 0.0,
			"-0.022": 0.0,
			"-0.021": 0.0,
			"-0.02": 0.0,
			"-0.019": 0.138227000536,
			"-0.018": 0.989445184168,
			"-0.017": 0.799668258216,
			"-0.016": 0.977716842749,
			"-0.015": 0.35165241867,
			"-0.014": 0.657269505768,
			"-0.013": 0.764194201979,
			"-0.012": 0.650701209459,
			"-0.011": 1.38533641269,
			"-0.01": 0.670399384876,
			"-0.009": 2.15455527478,
			"-0.008": 11.0712466887,
			"-0.007": 16.9091729536,
			"-0.006": 17.9507624548,
			"-0.005": 18.1495836602,
			"-0.004": 15.5067089119,
			"-0.003": 17.0156605146,
			"-0.002": 15.1402283664,
			"-0.001": 17.0512117116,
			"0.0": 12.2067204709,
			"0.001": 8.25783866567,
			"0.002": 8.1442379276,
			"0.003": 6.47178280266,
			"0.004": 7.63583447617,
			"0.005": 8.75573954386,
			"0.006": 10.0858842874,
			"0.007": 6.43952846598,
			"0.008": 5.30219709177,
			"0.009": 5.19764076833,
			"0.01": 5.94011743041,
			"0.011": 7.72384743928,
			"0.012": 6.37786522414,
			"0.013": 3.44436032599,
			"0.014": 2.8201412483,
			"0.015": 2.42565167184,
			"0.016": 1.24322392372,
			"0.017": 0.814564789439,
			"0.018": 0.0629486519856,
			"0.019": 0.0,
			"0.02": 0.0,
			"0.021": 0.0,
			"0.022": 0.0,
			"0.023": 0.0,
			"0.024": 0.0,
			"0.025": 0.0
		}
	}
}
