{
	 "smiles": "NC(=O)C1=CN=C(N)C=C1", 
	 "Tm": 520.15, 
	 "num_atms": 17, 
	 "gaussian": { 
		 "optdone": 1, 
		 "sigma_profile": "yes", 
		 "theory": "DFT", 
		 "functional": "B3LYP", 
		 "basiset": "6-31G**", 
		 "properties": { 
			 "R2extent": 1956.2072, 
			 "electric_dipole_moment_norm": 3.69621666843, 
			 "electric_quadrupole_moment_norm": 15.5903747299, 
			 "total_energy": -472.360910365, 
			 "HOMO_LUMO_gap": 0.19416, 
			 "cosmo_polarized_energy": -17.68, 
			 "cosmo_cavitation_energy": 21.53, 
			 "cosmo_dispersion_energy": -16.28, 
			 "cosmo_repulsion_energy": 1.33, 
			 "cosmo_total_nonelectrostatic_energy": 6.58, 
			 "SMD_solvation_energy": 3.13 
		},
		"coords": [
			{
				"x": 1.7691223951,
				"y": -2.0383916363,
				"z": 0.6679024466,
				"element": "N" 
			},
			{
				"x": 1.7273610692,
				"y": -0.775753423,
				"z": 0.1192520415,
				"element": "C" 
			},
			{
				"x": 2.6254391469,
				"y": 0.0367308027,
				"z": 0.3147665662,
				"element": "O" 
			},
			{
				"x": 0.5534511868,
				"y": -0.4592058571,
				"z": -0.7463572423,
				"element": "C" 
			},
			{
				"x": -0.3499314006,
				"y": -1.4027655387,
				"z": -1.2443279295,
				"element": "C" 
			},
			{
				"x": -1.3998398732,
				"y": -1.1123285737,
				"z": -2.0163400934,
				"element": "N" 
			},
			{
				"x": -1.5948850091,
				"y": 0.1752744799,
				"z": -2.3498524775,
				"element": "C" 
			},
			{
				"x": -2.6647092374,
				"y": 0.4300470764,
				"z": -3.1726654169,
				"element": "N" 
			},
			{
				"x": -0.7306078672,
				"y": 1.210540541,
				"z": -1.923353236,
				"element": "C" 
			},
			{
				"x": 0.3434333548,
				"y": 0.879830789,
				"z": -1.1225080601,
				"element": "C" 
			},
			{
				"x": 2.5049836708,
				"y": -2.1839992494,
				"z": 1.3440225541,
				"element": "H" 
			},
			{
				"x": 0.9204539257,
				"y": -2.5653443016,
				"z": 0.8025109922,
				"element": "H" 
			},
			{
				"x": -0.2175204424,
				"y": -2.4633524378,
				"z": -1.0331849666,
				"element": "H" 
			},
			{
				"x": -3.0393450252,
				"y": 1.364784262,
				"z": -3.2064744221,
				"element": "H" 
			},
			{
				"x": -3.3280325688,
				"y": -0.324890964,
				"z": -3.2660527418,
				"element": "H" 
			},
			{
				"x": -0.9106396538,
				"y": 2.2369165183,
				"z": -2.2290877216,
				"element": "H" 
			},
			{
				"x": 1.0437663283,
				"y": 1.6301075122,
				"z": -0.7702502928,
				"element": "H" 
			}
		],
		 "valence_orbital": [ 
			{
				"type": "occ",
				"energy": -0.28478,
				"method": "rhf"
			},
			{
				"type": "occ",
				"energy": -0.27103,
				"method": "rhf"
			},
			{
				"type": "occ",
				"energy": -0.26302,
				"method": "rhf"
			},
			{
				"type": "occ",
				"energy": -0.24383,
				"method": "rhf"
			},
			{
				"type": "occ",
				"energy": -0.22057,
				"method": "rhf"
			},
			{
				"type": "unocc",
				"energy": -0.02641,
				"method": "rhf"
			},
			{
				"type": "unocc",
				"energy": -0.02015,
				"method": "rhf"
			},
			{
				"type": "unocc",
				"energy": 0.06295,
				"method": "rhf"
			},
			{
				"type": "unocc",
				"energy": 0.07871,
				"method": "rhf"
			},
			{
				"type": "unocc",
				"energy": 0.08609,
				"method": "rhf"
			}
		],
		"cosmo_sigma_profile": { 
			"-0.025": 0.0,
			"-0.024": 0.0,
			"-0.023": 0.0,
			"-0.022": 0.0,
			"-0.021": 0.0,
			"-0.02": 0.0,
			"-0.019": 0.0,
			"-0.018": 0.0,
			"-0.017": 0.0,
			"-0.016": 0.0,
			"-0.015": 0.0990390831248,
			"-0.014": 1.94460404015,
			"-0.013": 4.94761292765,
			"-0.012": 5.17877118994,
			"-0.011": 4.18272021632,
			"-0.01": 5.37872444601,
			"-0.009": 5.16072603651,
			"-0.008": 4.49862762863,
			"-0.007": 5.82519938107,
			"-0.006": 5.98723297381,
			"-0.005": 7.00738865892,
			"-0.004": 6.31171940293,
			"-0.003": 6.47521205045,
			"-0.002": 5.33605003374,
			"-0.001": 7.41940620898,
			"0.0": 8.32962315069,
			"0.001": 11.3365480281,
			"0.002": 13.6140779819,
			"0.003": 13.1941259226,
			"0.004": 7.03738051421,
			"0.005": 5.02940948664,
			"0.006": 4.81709542678,
			"0.007": 3.85902804697,
			"0.008": 5.17342859275,
			"0.009": 3.47615777293,
			"0.01": 1.99885186366,
			"0.011": 3.06746444897,
			"0.012": 3.08576172888,
			"0.013": 4.16340678339,
			"0.014": 5.60465521468,
			"0.015": 1.43720097298,
			"0.016": 0.194885902681,
			"0.017": 0.0,
			"0.018": 0.0,
			"0.019": 0.0,
			"0.02": 0.0,
			"0.021": 0.0,
			"0.022": 0.0,
			"0.023": 0.0,
			"0.024": 0.0,
			"0.025": 0.0
		}
	}
}
