{
	 "smiles": "CN(C)C1=CC=CC=N1", 
	 "Tm": 455.15, 
	 "num_atms": 19, 
	 "gaussian": { 
		 "optdone": 1, 
		 "sigma_profile": "yes", 
		 "theory": "DFT", 
		 "functional": "B3LYP", 
		 "basiset": "6-31G**", 
		 "properties": { 
			 "R2extent": 1748.5908, 
			 "electric_dipole_moment_norm": 1.7943876978, 
			 "electric_quadrupole_moment_norm": 6.72991848613, 
			 "total_energy": -382.269819857, 
			 "HOMO_LUMO_gap": 0.18626, 
			 "cosmo_polarized_energy": -5.88, 
			 "cosmo_cavitation_energy": 21.6, 
			 "cosmo_dispersion_energy": -16.3, 
			 "cosmo_repulsion_energy": 1.33, 
			 "cosmo_total_nonelectrostatic_energy": 6.63, 
			 "SMD_solvation_energy": 2.7 
		},
		"coords": [
			{
				"x": 0.0668942934,
				"y": 3.2685488038,
				"z": 0.4677030842,
				"element": "C" 
			},
			{
				"x": 0.3102657986,
				"y": 1.9246673597,
				"z": -0.0383790052,
				"element": "N" 
			},
			{
				"x": -0.3202465054,
				"y": 1.5741009727,
				"z": -1.2966140883,
				"element": "C" 
			},
			{
				"x": 0.7441941128,
				"y": 0.9293896118,
				"z": 0.8185807952,
				"element": "C" 
			},
			{
				"x": 0.7433933798,
				"y": -0.4361962126,
				"z": 0.4360975088,
				"element": "C" 
			},
			{
				"x": 1.2363288747,
				"y": -1.3770172857,
				"z": 1.3286524939,
				"element": "C" 
			},
			{
				"x": 1.7113308729,
				"y": -0.9726012018,
				"z": 2.5794692686,
				"element": "C" 
			},
			{
				"x": 1.6533392011,
				"y": 0.388017317,
				"z": 2.8685948341,
				"element": "C" 
			},
			{
				"x": 1.1858146334,
				"y": 1.317148656,
				"z": 2.0312623675,
				"element": "N" 
			},
			{
				"x": 0.7189337978,
				"y": 3.4504631552,
				"z": 1.3193004126,
				"element": "H" 
			},
			{
				"x": 0.281249423,
				"y": 3.9980025525,
				"z": -0.3200720484,
				"element": "H" 
			},
			{
				"x": -0.975545977,
				"y": 3.4075597465,
				"z": 0.7944355545,
				"element": "H" 
			},
			{
				"x": 0.3280705003,
				"y": 0.9274118721,
				"z": -1.8974216739,
				"element": "H" 
			},
			{
				"x": -1.2887088658,
				"y": 1.0646216404,
				"z": -1.1677077337,
				"element": "H" 
			},
			{
				"x": -0.4933395838,
				"y": 2.4878781536,
				"z": -1.8689830572,
				"element": "H" 
			},
			{
				"x": 0.3624584436,
				"y": -0.7518382452,
				"z": -0.5266999531,
				"element": "H" 
			},
			{
				"x": 1.24305324,
				"y": -2.4273013785,
				"z": 1.0490152632,
				"element": "H" 
			},
			{
				"x": 2.0992964497,
				"y": -1.6815909438,
				"z": 3.3024923956,
				"element": "H" 
			},
			{
				"x": 1.9991179108,
				"y": 0.7591354264,
				"z": 3.8330735815,
				"element": "H" 
			}
		],
		 "valence_orbital": [ 
			{
				"type": "occ",
				"energy": -0.36105,
				"method": "rhf"
			},
			{
				"type": "occ",
				"energy": -0.288,
				"method": "rhf"
			},
			{
				"type": "occ",
				"energy": -0.26825,
				"method": "rhf"
			},
			{
				"type": "occ",
				"energy": -0.24417,
				"method": "rhf"
			},
			{
				"type": "occ",
				"energy": -0.19382,
				"method": "rhf"
			},
			{
				"type": "unocc",
				"energy": -0.00756,
				"method": "rhf"
			},
			{
				"type": "unocc",
				"energy": 0.01783,
				"method": "rhf"
			},
			{
				"type": "unocc",
				"energy": 0.09246,
				"method": "rhf"
			},
			{
				"type": "unocc",
				"energy": 0.11451,
				"method": "rhf"
			},
			{
				"type": "unocc",
				"energy": 0.12664,
				"method": "rhf"
			}
		],
		"cosmo_sigma_profile": { 
			"-0.025": 0.0,
			"-0.024": 0.0,
			"-0.023": 0.0,
			"-0.022": 0.0,
			"-0.021": 0.0,
			"-0.02": 0.0,
			"-0.019": 0.0,
			"-0.018": 0.0,
			"-0.017": 0.0,
			"-0.016": 0.0,
			"-0.015": 0.0,
			"-0.014": 0.0,
			"-0.013": 0.0,
			"-0.012": 0.0,
			"-0.011": 0.0,
			"-0.01": 0.0,
			"-0.009": 0.0,
			"-0.008": 0.0,
			"-0.007": 0.210316778838,
			"-0.006": 5.31835923911,
			"-0.005": 13.8744636658,
			"-0.004": 16.6111811409,
			"-0.003": 19.567142514,
			"-0.002": 20.8053811888,
			"-0.001": 20.1035155661,
			"0.0": 9.66543632403,
			"0.001": 8.54832587886,
			"0.002": 7.91239426319,
			"0.003": 8.70893349976,
			"0.004": 12.6238930574,
			"0.005": 11.3775440499,
			"0.006": 4.86013729257,
			"0.007": 2.8404036092,
			"0.008": 1.8242293983,
			"0.009": 1.83621254939,
			"0.01": 1.19864527866,
			"0.011": 1.08751902451,
			"0.012": 1.7195873351,
			"0.013": 0.531402958588,
			"0.014": 0.0,
			"0.015": 0.0,
			"0.016": 0.0,
			"0.017": 0.0,
			"0.018": 0.0,
			"0.019": 0.0,
			"0.02": 0.0,
			"0.021": 0.0,
			"0.022": 0.0,
			"0.023": 0.0,
			"0.024": 0.0,
			"0.025": 0.0
		}
	}
}
