{
	 "smiles": "BrCCCCCCCCCCCCCCBr", 
	 "Tm": 323.55, 
	 "num_atms": 44, 
	 "gaussian": { 
		 "optdone": 1, 
		 "sigma_profile": "yes", 
		 "theory": "DFT", 
		 "functional": "B3LYP", 
		 "basiset": "6-31G**", 
		 "properties": { 
			 "R2extent": 15930.9263, 
			 "electric_dipole_moment_norm": 4.59421989134, 
			 "electric_quadrupole_moment_norm": 17.0497582109, 
			 "total_energy": -5693.21319737, 
			 "HOMO_LUMO_gap": 0.26722, 
			 "cosmo_polarized_energy": -7.32, 
			 "cosmo_cavitation_energy": 47.69, 
			 "cosmo_dispersion_energy": -32.63, 
			 "cosmo_repulsion_energy": 2.67, 
			 "cosmo_total_nonelectrostatic_energy": 17.73, 
			 "SMD_solvation_energy": 3.67 
		},
		"coords": [
			{
				"x": 0.4393728663,
				"y": 6.1270334308,
				"z": 4.574448999,
				"element": "Br" 
			},
			{
				"x": 0.8492996088,
				"y": 4.7993082772,
				"z": 3.1551644217,
				"element": "C" 
			},
			{
				"x": 1.436942339,
				"y": 5.4711791916,
				"z": 1.9223919901,
				"element": "C" 
			},
			{
				"x": 1.7146419003,
				"y": 4.5033961169,
				"z": 0.7525245582,
				"element": "C" 
			},
			{
				"x": 2.7954294811,
				"y": 3.4309719073,
				"z": 1.0226457127,
				"element": "C" 
			},
			{
				"x": 2.2963876211,
				"y": 2.0787841052,
				"z": 1.586450029,
				"element": "C" 
			},
			{
				"x": 1.9978373008,
				"y": 0.9996205018,
				"z": 0.5297112175,
				"element": "C" 
			},
			{
				"x": 0.8540261859,
				"y": 1.3128819874,
				"z": -0.4443948113,
				"element": "C" 
			},
			{
				"x": 0.5645064425,
				"y": 0.1628082337,
				"z": -1.4191159476,
				"element": "C" 
			},
			{
				"x": -0.5822913747,
				"y": 0.4670583416,
				"z": -2.392767638,
				"element": "C" 
			},
			{
				"x": -0.8508431373,
				"y": -0.6299729641,
				"z": -3.4377561933,
				"element": "C" 
			},
			{
				"x": -1.3151902756,
				"y": -2.0058116435,
				"z": -2.920142439,
				"element": "C" 
			},
			{
				"x": -2.6993544553,
				"y": -2.027253552,
				"z": -2.2314309437,
				"element": "C" 
			},
			{
				"x": -2.7088521109,
				"y": -1.81193751,
				"z": -0.702219035,
				"element": "C" 
			},
			{
				"x": -2.1575096292,
				"y": -3.0162721309,
				"z": 0.0490738414,
				"element": "C" 
			},
			{
				"x": -2.1450462259,
				"y": -2.7114495884,
				"z": 2.0095751044,
				"element": "Br" 
			},
			{
				"x": 1.5325789242,
				"y": 4.0942351437,
				"z": 3.6260004057,
				"element": "H" 
			},
			{
				"x": -0.0994767251,
				"y": 4.3027735102,
				"z": 2.9486976707,
				"element": "H" 
			},
			{
				"x": 2.3661978719,
				"y": 5.9812997997,
				"z": 2.2026358292,
				"element": "H" 
			},
			{
				"x": 0.7436185514,
				"y": 6.2493062514,
				"z": 1.5845015671,
				"element": "H" 
			},
			{
				"x": 0.7765523854,
				"y": 4.0269535683,
				"z": 0.4431201922,
				"element": "H" 
			},
			{
				"x": 2.0294579823,
				"y": 5.1228851545,
				"z": -0.0961646712,
				"element": "H" 
			},
			{
				"x": 3.5389471155,
				"y": 3.8593740124,
				"z": 1.7077130894,
				"element": "H" 
			},
			{
				"x": 3.3423292203,
				"y": 3.232469005,
				"z": 0.091838658,
				"element": "H" 
			},
			{
				"x": 3.0583358413,
				"y": 1.674474504,
				"z": 2.2642835145,
				"element": "H" 
			},
			{
				"x": 1.4011012332,
				"y": 2.2318454015,
				"z": 2.2031770824,
				"element": "H" 
			},
			{
				"x": 2.914874922,
				"y": 0.8062072389,
				"z": -0.0455998177,
				"element": "H" 
			},
			{
				"x": 1.7655913906,
				"y": 0.0611329084,
				"z": 1.051252077,
				"element": "H" 
			},
			{
				"x": -0.0579523282,
				"y": 1.5408100808,
				"z": 0.1264807419,
				"element": "H" 
			},
			{
				"x": 1.0875423755,
				"y": 2.2172855181,
				"z": -1.0216939434,
				"element": "H" 
			},
			{
				"x": 1.4741764479,
				"y": -0.0641972329,
				"z": -1.9937947235,
				"element": "H" 
			},
			{
				"x": 0.340357321,
				"y": -0.7434046507,
				"z": -0.8406314038,
				"element": "H" 
			},
			{
				"x": -0.3473427603,
				"y": 1.3960598557,
				"z": -2.9300640962,
				"element": "H" 
			},
			{
				"x": -1.4985925838,
				"y": 0.6808535735,
				"z": -1.8264348911,
				"element": "H" 
			},
			{
				"x": 0.065007318,
				"y": -0.7788392519,
				"z": -4.0262882555,
				"element": "H" 
			},
			{
				"x": -1.604900558,
				"y": -0.2596411677,
				"z": -4.1457988957,
				"element": "H" 
			},
			{
				"x": -1.3511425557,
				"y": -2.6785553405,
				"z": -3.785681186,
				"element": "H" 
			},
			{
				"x": -0.5531769503,
				"y": -2.432494873,
				"z": -2.2556566615,
				"element": "H" 
			},
			{
				"x": -3.1921667533,
				"y": -2.9857620227,
				"z": -2.4422776955,
				"element": "H" 
			},
			{
				"x": -3.3384415385,
				"y": -1.2622771599,
				"z": -2.6912237914,
				"element": "H" 
			},
			{
				"x": -2.1327221959,
				"y": -0.9228950164,
				"z": -0.4305140244,
				"element": "H" 
			},
			{
				"x": -3.7364095902,
				"y": -1.6327227217,
				"z": -0.3673575663,
				"element": "H" 
			},
			{
				"x": -1.1221050833,
				"y": -3.2415768859,
				"z": -0.2045506509,
				"element": "H" 
			},
			{
				"x": -2.7663958147,
				"y": -3.9090439076,
				"z": -0.0980274204,
				"element": "H" 
			}
		],
		 "valence_orbital": [ 
			{
				"type": "occ",
				"energy": -0.30213,
				"method": "rhf"
			},
			{
				"type": "occ",
				"energy": -0.26994,
				"method": "rhf"
			},
			{
				"type": "occ",
				"energy": -0.26923,
				"method": "rhf"
			},
			{
				"type": "occ",
				"energy": -0.26578,
				"method": "rhf"
			},
			{
				"type": "occ",
				"energy": -0.26542,
				"method": "rhf"
			},
			{
				"type": "unocc",
				"energy": 0.0018,
				"method": "rhf"
			},
			{
				"type": "unocc",
				"energy": 0.00432,
				"method": "rhf"
			},
			{
				"type": "unocc",
				"energy": 0.06891,
				"method": "rhf"
			},
			{
				"type": "unocc",
				"energy": 0.08377,
				"method": "rhf"
			},
			{
				"type": "unocc",
				"energy": 0.08796,
				"method": "rhf"
			}
		],
		"cosmo_sigma_profile": { 
			"-0.025": 0.0,
			"-0.024": 0.0,
			"-0.023": 0.0,
			"-0.022": 0.0,
			"-0.021": 0.0,
			"-0.02": 0.0,
			"-0.019": 0.0,
			"-0.018": 0.0,
			"-0.017": 0.0,
			"-0.016": 0.0,
			"-0.015": 0.0,
			"-0.014": 0.0,
			"-0.013": 0.0,
			"-0.012": 0.0,
			"-0.011": 0.0,
			"-0.01": 0.0,
			"-0.009": 0.0,
			"-0.008": 0.0,
			"-0.007": 0.597329060822,
			"-0.006": 6.76605583336,
			"-0.005": 9.56711284264,
			"-0.004": 16.1916537973,
			"-0.003": 29.6509035918,
			"-0.002": 52.6183421829,
			"-0.001": 74.0959845291,
			"0.0": 61.5404957682,
			"0.001": 39.9994616656,
			"0.002": 17.9637334332,
			"0.003": 9.24931988238,
			"0.004": 8.77384323936,
			"0.005": 11.9850788095,
			"0.006": 19.032653449,
			"0.007": 15.7623238217,
			"0.008": 0.0211794131672,
			"0.009": 0.0,
			"0.01": 0.0,
			"0.011": 0.0,
			"0.012": 0.0,
			"0.013": 0.0,
			"0.014": 0.0,
			"0.015": 0.0,
			"0.016": 0.0,
			"0.017": 0.0,
			"0.018": 0.0,
			"0.019": 0.0,
			"0.02": 0.0,
			"0.021": 0.0,
			"0.022": 0.0,
			"0.023": 0.0,
			"0.024": 0.0,
			"0.025": 0.0
		}
	}
}
