{
	 "smiles": "COC1=CC=C(C(OC)=C1)C(O)(C1=CC=CC=C1OC)C1=CC=C(OC)C=C1OC", 
	 "Tm": 410.15, 
	 "num_atms": 56, 
	 "gaussian": { 
		 "optdone": 1, 
		 "sigma_profile": "yes", 
		 "theory": "DFT", 
		 "functional": "B3LYP", 
		 "basiset": "6-31G**", 
		 "properties": { 
			 "R2extent": 12148.6925, 
			 "electric_dipole_moment_norm": 4.08588495433, 
			 "electric_quadrupole_moment_norm": 10.0524519372, 
			 "total_energy": -1381.48529364, 
			 "HOMO_LUMO_gap": 0.20719, 
			 "cosmo_polarized_energy": -19.85, 
			 "cosmo_cavitation_energy": 56.45, 
			 "cosmo_dispersion_energy": -36.82, 
			 "cosmo_repulsion_energy": 2.82, 
			 "cosmo_total_nonelectrostatic_energy": 22.45, 
			 "SMD_solvation_energy": 13.29 
		},
		"coords": [
			{
				"x": -2.6262699941,
				"y": 3.5308932962,
				"z": 3.6370914447,
				"element": "C" 
			},
			{
				"x": -2.6740282588,
				"y": 2.117783471,
				"z": 3.5508987255,
				"element": "O" 
			},
			{
				"x": -2.0990793803,
				"y": 1.5215648211,
				"z": 2.4614408845,
				"element": "C" 
			},
			{
				"x": -1.4721351916,
				"y": 2.2026035847,
				"z": 1.4142073767,
				"element": "C" 
			},
			{
				"x": -0.9224028418,
				"y": 1.4713273401,
				"z": 0.3580852294,
				"element": "C" 
			},
			{
				"x": -0.9765233472,
				"y": 0.0783165709,
				"z": 0.2905936502,
				"element": "C" 
			},
			{
				"x": -1.5920879839,
				"y": -0.5870052804,
				"z": 1.3742472355,
				"element": "C" 
			},
			{
				"x": -1.583295834,
				"y": -1.9614115738,
				"z": 1.4366271425,
				"element": "O" 
			},
			{
				"x": -2.8374951967,
				"y": -2.6064374435,
				"z": 1.2404215853,
				"element": "C" 
			},
			{
				"x": -2.1465840988,
				"y": 0.1242433804,
				"z": 2.4367773319,
				"element": "C" 
			},
			{
				"x": -0.4369153765,
				"y": -0.7280753433,
				"z": -0.9134298647,
				"element": "C" 
			},
			{
				"x": -1.5147931865,
				"y": -1.5351334093,
				"z": -1.4294333832,
				"element": "O" 
			},
			{
				"x": 0.6535644074,
				"y": -1.7304751994,
				"z": -0.4852311968,
				"element": "C" 
			},
			{
				"x": 0.5929088746,
				"y": -3.0495185349,
				"z": -0.9387461062,
				"element": "C" 
			},
			{
				"x": 1.544708818,
				"y": -4.0018569182,
				"z": -0.5684353933,
				"element": "C" 
			},
			{
				"x": 2.5879466949,
				"y": -3.636914998,
				"z": 0.2761181995,
				"element": "C" 
			},
			{
				"x": 2.6854945723,
				"y": -2.3223304426,
				"z": 0.7350943028,
				"element": "C" 
			},
			{
				"x": 1.7329451163,
				"y": -1.3702394997,
				"z": 0.3520982966,
				"element": "C" 
			},
			{
				"x": 1.8047856246,
				"y": -0.0563812966,
				"z": 0.7289422775,
				"element": "O" 
			},
			{
				"x": 2.7805160304,
				"y": 0.3338438007,
				"z": 1.6776237494,
				"element": "C" 
			},
			{
				"x": 0.0587451546,
				"y": 0.1848083922,
				"z": -2.0655872098,
				"element": "C" 
			},
			{
				"x": 1.3972838486,
				"y": 0.2751358642,
				"z": -2.4394402728,
				"element": "C" 
			},
			{
				"x": 1.8479424773,
				"y": 1.0686370958,
				"z": -3.5010580769,
				"element": "C" 
			},
			{
				"x": 0.9213252007,
				"y": 1.8077984712,
				"z": -4.2325720709,
				"element": "C" 
			},
			{
				"x": 1.219675418,
				"y": 2.6200030784,
				"z": -5.28889811,
				"element": "O" 
			},
			{
				"x": 2.5776162886,
				"y": 2.7193562018,
				"z": -5.6875171099,
				"element": "C" 
			},
			{
				"x": -0.4393968954,
				"y": 1.741396695,
				"z": -3.8981816581,
				"element": "C" 
			},
			{
				"x": -0.8590745183,
				"y": 0.9435207745,
				"z": -2.8390602938,
				"element": "C" 
			},
			{
				"x": -2.1865940694,
				"y": 0.845077595,
				"z": -2.4853142215,
				"element": "O" 
			},
			{
				"x": -3.1521441647,
				"y": 1.6145430997,
				"z": -3.1883682669,
				"element": "C" 
			},
			{
				"x": -3.1496722203,
				"y": 4.008515659,
				"z": 2.7980932329,
				"element": "H" 
			},
			{
				"x": -3.1294655724,
				"y": 3.7952600273,
				"z": 4.5689362958,
				"element": "H" 
			},
			{
				"x": -1.5934964267,
				"y": 3.9028065491,
				"z": 3.6680653771,
				"element": "H" 
			},
			{
				"x": -1.4009024185,
				"y": 3.2837248852,
				"z": 1.4060240165,
				"element": "H" 
			},
			{
				"x": -0.4241906449,
				"y": 2.0148865662,
				"z": -0.4365943817,
				"element": "H" 
			},
			{
				"x": -3.1831247559,
				"y": -2.4641853482,
				"z": 0.2110832549,
				"element": "H" 
			},
			{
				"x": -2.6679533695,
				"y": -3.6702658676,
				"z": 1.4213074479,
				"element": "H" 
			},
			{
				"x": -3.5984371817,
				"y": -2.2408694918,
				"z": 1.9427401415,
				"element": "H" 
			},
			{
				"x": -2.5959567532,
				"y": -0.4062742999,
				"z": 3.2694170102,
				"element": "H" 
			},
			{
				"x": -2.1590236468,
				"y": -0.9020906256,
				"z": -1.7809055891,
				"element": "H" 
			},
			{
				"x": -0.2327940119,
				"y": -3.3244396898,
				"z": -1.5821482316,
				"element": "H" 
			},
			{
				"x": 1.462529413,
				"y": -5.0205481996,
				"z": -0.9356308843,
				"element": "H" 
			},
			{
				"x": 3.3344433422,
				"y": -4.3651667935,
				"z": 0.5811306387,
				"element": "H" 
			},
			{
				"x": 3.5065274491,
				"y": -2.0428649864,
				"z": 1.3844176136,
				"element": "H" 
			},
			{
				"x": 3.8010075676,
				"y": 0.218450045,
				"z": 1.2877656922,
				"element": "H" 
			},
			{
				"x": 2.6888207248,
				"y": -0.2356355306,
				"z": 2.6112012875,
				"element": "H" 
			},
			{
				"x": 2.5931163809,
				"y": 1.3895247509,
				"z": 1.8812085574,
				"element": "H" 
			},
			{
				"x": 2.1308085596,
				"y": -0.3012477399,
				"z": -1.8908581619,
				"element": "H" 
			},
			{
				"x": 2.9046114044,
				"y": 1.0905712532,
				"z": -3.7369108404,
				"element": "H" 
			},
			{
				"x": 3.2068438429,
				"y": 3.1245728231,
				"z": -4.8846018299,
				"element": "H" 
			},
			{
				"x": 2.5938364969,
				"y": 3.4045474404,
				"z": -6.5366677266,
				"element": "H" 
			},
			{
				"x": 2.9798987456,
				"y": 1.7472035662,
				"z": -5.9999619026,
				"element": "H" 
			},
			{
				"x": -1.13417917,
				"y": 2.3188314245,
				"z": -4.4938386184,
				"element": "H" 
			},
			{
				"x": -3.1939067901,
				"y": 1.338111729,
				"z": -4.2489170261,
				"element": "H" 
			},
			{
				"x": -4.1110411062,
				"y": 1.393605666,
				"z": -2.7175613945,
				"element": "H" 
			},
			{
				"x": -2.9441380472,
				"y": 2.6873025945,
				"z": -3.1014881761,
				"element": "H" 
			}
		],
		 "valence_orbital": [ 
			{
				"type": "occ",
				"energy": -0.22639,
				"method": "rhf"
			},
			{
				"type": "occ",
				"energy": -0.21897,
				"method": "rhf"
			},
			{
				"type": "occ",
				"energy": -0.20956,
				"method": "rhf"
			},
			{
				"type": "occ",
				"energy": -0.2018,
				"method": "rhf"
			},
			{
				"type": "occ",
				"energy": -0.19895,
				"method": "rhf"
			},
			{
				"type": "unocc",
				"energy": 0.00824,
				"method": "rhf"
			},
			{
				"type": "unocc",
				"energy": 0.01107,
				"method": "rhf"
			},
			{
				"type": "unocc",
				"energy": 0.01426,
				"method": "rhf"
			},
			{
				"type": "unocc",
				"energy": 0.02191,
				"method": "rhf"
			},
			{
				"type": "unocc",
				"energy": 0.02726,
				"method": "rhf"
			}
		],
		"cosmo_sigma_profile": { 
			"-0.025": 0.0,
			"-0.024": 0.0,
			"-0.023": 0.0,
			"-0.022": 0.0,
			"-0.021": 0.0,
			"-0.02": 0.0,
			"-0.019": 0.0,
			"-0.018": 0.0,
			"-0.017": 0.0,
			"-0.016": 0.0,
			"-0.015": 0.0,
			"-0.014": 0.0,
			"-0.013": 0.0,
			"-0.012": 0.0,
			"-0.011": 0.0,
			"-0.01": 0.0,
			"-0.009": 0.0,
			"-0.008": 0.0525128290839,
			"-0.007": 1.92000601127,
			"-0.006": 21.3224547813,
			"-0.005": 48.9586655833,
			"-0.004": 52.5446884786,
			"-0.003": 55.4920094428,
			"-0.002": 36.6682134664,
			"-0.001": 26.5294475182,
			"0.0": 22.7465747251,
			"0.001": 20.3851368688,
			"0.002": 18.795659807,
			"0.003": 21.754140705,
			"0.004": 30.2862350283,
			"0.005": 28.5197585949,
			"0.006": 20.8726164965,
			"0.007": 11.3342599696,
			"0.008": 9.86040956569,
			"0.009": 7.7453959005,
			"0.01": 6.52755774368,
			"0.011": 2.95573268721,
			"0.012": 1.82401620587,
			"0.013": 0.0878853287581,
			"0.014": 0.0,
			"0.015": 0.0,
			"0.016": 0.0,
			"0.017": 0.0,
			"0.018": 0.0,
			"0.019": 0.0,
			"0.02": 0.0,
			"0.021": 0.0,
			"0.022": 0.0,
			"0.023": 0.0,
			"0.024": 0.0,
			"0.025": 0.0
		}
	}
}
