{
	 "smiles": "NC(=O)C1=CC=CC=C1Cl", 
	 "Tm": 415.15, 
	 "num_atms": 16, 
	 "gaussian": { 
		 "optdone": 1, 
		 "sigma_profile": "yes", 
		 "theory": "DFT", 
		 "functional": "B3LYP", 
		 "basiset": "6-31G**", 
		 "properties": { 
			 "R2extent": 1988.8191, 
			 "electric_dipole_moment_norm": 2.54938559069, 
			 "electric_quadrupole_moment_norm": 11.7332252258, 
			 "total_energy": -860.543508351, 
			 "HOMO_LUMO_gap": 0.20896, 
			 "cosmo_polarized_energy": -10.37, 
			 "cosmo_cavitation_energy": 21.71, 
			 "cosmo_dispersion_energy": -16.59, 
			 "cosmo_repulsion_energy": 1.34, 
			 "cosmo_total_nonelectrostatic_energy": 6.46, 
			 "SMD_solvation_energy": 4.22 
		},
		"coords": [
			{
				"x": 0.9240889392,
				"y": 0.5674643574,
				"z": -3.1634879598,
				"element": "N" 
			},
			{
				"x": -0.1221539197,
				"y": 0.5702468369,
				"z": -2.2952345332,
				"element": "C" 
			},
			{
				"x": -1.1670629458,
				"y": 1.1587528633,
				"z": -2.5547017487,
				"element": "O" 
			},
			{
				"x": 0.0414423174,
				"y": -0.1153030186,
				"z": -0.9485781381,
				"element": "C" 
			},
			{
				"x": -0.8758302782,
				"y": 0.3197734453,
				"z": 0.0251882732,
				"element": "C" 
			},
			{
				"x": -0.8805086957,
				"y": -0.1859817441,
				"z": 1.3190942138,
				"element": "C" 
			},
			{
				"x": 0.0413115027,
				"y": -1.1700107402,
				"z": 1.6783097709,
				"element": "C" 
			},
			{
				"x": 0.9535135176,
				"y": -1.6379549317,
				"z": 0.7364127548,
				"element": "C" 
			},
			{
				"x": 0.9512683385,
				"y": -1.1128946638,
				"z": -0.5576955358,
				"element": "C" 
			},
			{
				"x": 2.1426031468,
				"y": -1.8280447448,
				"z": -1.6600379754,
				"element": "Cl" 
			},
			{
				"x": 1.7633419191,
				"y": 0.0321763196,
				"z": -3.0153591601,
				"element": "H" 
			},
			{
				"x": 0.7653768074,
				"y": 1.0115194004,
				"z": -4.0550923504,
				"element": "H" 
			},
			{
				"x": -1.591215681,
				"y": 1.071554835,
				"z": -0.2883178144,
				"element": "H" 
			},
			{
				"x": -1.6015123393,
				"y": 0.1823882072,
				"z": 2.0420901823,
				"element": "H" 
			},
			{
				"x": 0.0517907845,
				"y": -1.5802574958,
				"z": 2.6836297374,
				"element": "H" 
			},
			{
				"x": 1.6674465867,
				"y": -2.412628926,
				"z": 0.9924802834,
				"element": "H" 
			}
		],
		 "valence_orbital": [ 
			{
				"type": "occ",
				"energy": -0.3291,
				"method": "rhf"
			},
			{
				"type": "occ",
				"energy": -0.27254,
				"method": "rhf"
			},
			{
				"type": "occ",
				"energy": -0.26482,
				"method": "rhf"
			},
			{
				"type": "occ",
				"energy": -0.25877,
				"method": "rhf"
			},
			{
				"type": "occ",
				"energy": -0.25401,
				"method": "rhf"
			},
			{
				"type": "unocc",
				"energy": -0.04505,
				"method": "rhf"
			},
			{
				"type": "unocc",
				"energy": -0.01985,
				"method": "rhf"
			},
			{
				"type": "unocc",
				"energy": 0.01215,
				"method": "rhf"
			},
			{
				"type": "unocc",
				"energy": 0.05694,
				"method": "rhf"
			},
			{
				"type": "unocc",
				"energy": 0.09683,
				"method": "rhf"
			}
		],
		"cosmo_sigma_profile": { 
			"-0.025": 0.0,
			"-0.024": 0.0,
			"-0.023": 0.0,
			"-0.022": 0.0,
			"-0.021": 0.0,
			"-0.02": 0.0,
			"-0.019": 0.0,
			"-0.018": 0.0,
			"-0.017": 0.0,
			"-0.016": 0.0,
			"-0.015": 0.0823149051099,
			"-0.014": 0.779002239038,
			"-0.013": 1.28977931983,
			"-0.012": 1.22271336921,
			"-0.011": 2.32766796608,
			"-0.01": 1.25606712871,
			"-0.009": 1.805074906,
			"-0.008": 2.46334129892,
			"-0.007": 6.97628467264,
			"-0.006": 9.4599827122,
			"-0.005": 9.80918565788,
			"-0.004": 9.28548755213,
			"-0.003": 8.32132650619,
			"-0.002": 10.5485266434,
			"-0.001": 11.291531915,
			"0.0": 14.1151916968,
			"0.001": 17.0252266814,
			"0.002": 18.3468369692,
			"0.003": 20.2246085668,
			"0.004": 8.6697759483,
			"0.005": 2.45927939697,
			"0.006": 1.28750027511,
			"0.007": 1.0680674719,
			"0.008": 2.45922272937,
			"0.009": 1.10731495245,
			"0.01": 1.0954881292,
			"0.011": 1.28229838524,
			"0.012": 2.45901798673,
			"0.013": 4.10215053748,
			"0.014": 3.49318839403,
			"0.015": 0.161708952667,
			"0.016": 0.0,
			"0.017": 0.0,
			"0.018": 0.0,
			"0.019": 0.0,
			"0.02": 0.0,
			"0.021": 0.0,
			"0.022": 0.0,
			"0.023": 0.0,
			"0.024": 0.0,
			"0.025": 0.0
		}
	}
}
