{
	 "smiles": "COC1=C(OC(C)=O)C2=C(C=C(Cl)C=C2)C(OC(C)=O)=C1OC", 
	 "Tm": 364.65, 
	 "num_atms": 38, 
	 "gaussian": { 
		 "optdone": 1, 
		 "sigma_profile": "yes", 
		 "theory": "DFT", 
		 "functional": "B3LYP", 
		 "basiset": "6-31G**", 
		 "properties": { 
			 "R2extent": 8635.1587, 
			 "electric_dipole_moment_norm": 2.24711523069, 
			 "electric_quadrupole_moment_norm": 22.7782109567, 
			 "total_energy": -1530.27240115, 
			 "HOMO_LUMO_gap": 0.16457, 
			 "cosmo_polarized_energy": -13.3, 
			 "cosmo_cavitation_energy": 43.86, 
			 "cosmo_dispersion_energy": -29.97, 
			 "cosmo_repulsion_energy": 2.3, 
			 "cosmo_total_nonelectrostatic_energy": 16.19, 
			 "SMD_solvation_energy": 10.59 
		},
		"coords": [
			{
				"x": -0.1143691458,
				"y": 2.6901858813,
				"z": -1.9393520748,
				"element": "C" 
			},
			{
				"x": -0.8633218286,
				"y": 2.3748005089,
				"z": -0.7455411377,
				"element": "O" 
			},
			{
				"x": -0.5201965484,
				"y": 1.2006913611,
				"z": -0.1336472556,
				"element": "C" 
			},
			{
				"x": 0.0163557751,
				"y": 1.2290365611,
				"z": 1.1398083413,
				"element": "C" 
			},
			{
				"x": 0.1433317554,
				"y": 2.4374768452,
				"z": 1.8176839623,
				"element": "O" 
			},
			{
				"x": 1.0714817363,
				"y": 3.3530015809,
				"z": 1.3841450934,
				"element": "C" 
			},
			{
				"x": 0.9364930182,
				"y": 4.6275846065,
				"z": 2.1765857324,
				"element": "C" 
			},
			{
				"x": 1.8653228728,
				"y": 3.1420014994,
				"z": 0.5019424398,
				"element": "O" 
			},
			{
				"x": 0.3828844222,
				"y": 0.0419715903,
				"z": 1.8244229192,
				"element": "C" 
			},
			{
				"x": 0.19967591,
				"y": -1.2147324528,
				"z": 1.1650387149,
				"element": "C" 
			},
			{
				"x": 0.5894579916,
				"y": -2.4098342023,
				"z": 1.8240570807,
				"element": "C" 
			},
			{
				"x": 1.1252902288,
				"y": -2.3447723058,
				"z": 3.0878250603,
				"element": "C" 
			},
			{
				"x": 1.6072736528,
				"y": -3.8243582975,
				"z": 3.9064920955,
				"element": "Cl" 
			},
			{
				"x": 1.3037138837,
				"y": -1.112593734,
				"z": 3.7584181595,
				"element": "C" 
			},
			{
				"x": 0.9362272403,
				"y": 0.0553222177,
				"z": 3.131616739,
				"element": "C" 
			},
			{
				"x": -0.3817463245,
				"y": -1.2254666324,
				"z": -0.1295704403,
				"element": "C" 
			},
			{
				"x": -0.4986912611,
				"y": -2.4492093108,
				"z": -0.7803140287,
				"element": "O" 
			},
			{
				"x": -1.7509706617,
				"y": -2.9639922746,
				"z": -1.01660924,
				"element": "C" 
			},
			{
				"x": -1.6354749792,
				"y": -4.2263896704,
				"z": -1.8310211117,
				"element": "C" 
			},
			{
				"x": -2.7716220023,
				"y": -2.4625407029,
				"z": -0.6170594986,
				"element": "O" 
			},
			{
				"x": -0.7595507981,
				"y": -0.0588696457,
				"z": -0.7675678971,
				"element": "C" 
			},
			{
				"x": -1.3067740488,
				"y": -0.1252354022,
				"z": -2.0187216584,
				"element": "O" 
			},
			{
				"x": -2.6730129477,
				"y": 0.3316155717,
				"z": -2.1210067512,
				"element": "C" 
			},
			{
				"x": -0.494714987,
				"y": 3.6559222719,
				"z": -2.276893548,
				"element": "H" 
			},
			{
				"x": 0.9483068931,
				"y": 2.7730420017,
				"z": -1.6995005807,
				"element": "H" 
			},
			{
				"x": -0.2748041779,
				"y": 1.9351543708,
				"z": -2.7129512202,
				"element": "H" 
			},
			{
				"x": 0.9392961725,
				"y": 4.4159066196,
				"z": 3.2491089918,
				"element": "H" 
			},
			{
				"x": 1.7534733199,
				"y": 5.3013154236,
				"z": 1.9209926314,
				"element": "H" 
			},
			{
				"x": -0.0214690367,
				"y": 5.10073923,
				"z": 1.9393328639,
				"element": "H" 
			},
			{
				"x": 0.4640071717,
				"y": -3.3611704513,
				"z": 1.3233656462,
				"element": "H" 
			},
			{
				"x": 1.7269711866,
				"y": -1.1009310562,
				"z": 4.7563771245,
				"element": "H" 
			},
			{
				"x": 1.0639099044,
				"y": 1.0064503892,
				"z": 3.6353041369,
				"element": "H" 
			},
			{
				"x": -1.2409814295,
				"y": -3.9838733329,
				"z": -2.8225639141,
				"element": "H" 
			},
			{
				"x": -2.6180470895,
				"y": -4.6869319403,
				"z": -1.9262641304,
				"element": "H" 
			},
			{
				"x": -0.9344625655,
				"y": -4.9220504643,
				"z": -1.3619181057,
				"element": "H" 
			},
			{
				"x": -2.7533451527,
				"y": 1.3884868779,
				"z": -1.8550035962,
				"element": "H" 
			},
			{
				"x": -3.3156825275,
				"y": -0.2752275187,
				"z": -1.4788875277,
				"element": "H" 
			},
			{
				"x": -2.951735623,
				"y": 0.1881739862,
				"z": -3.1664240159,
				"element": "H" 
			}
		],
		 "valence_orbital": [ 
			{
				"type": "occ",
				"energy": -0.28307,
				"method": "rhf"
			},
			{
				"type": "occ",
				"energy": -0.27904,
				"method": "rhf"
			},
			{
				"type": "occ",
				"energy": -0.27243,
				"method": "rhf"
			},
			{
				"type": "occ",
				"energy": -0.23709,
				"method": "rhf"
			},
			{
				"type": "occ",
				"energy": -0.21532,
				"method": "rhf"
			},
			{
				"type": "unocc",
				"energy": -0.05075,
				"method": "rhf"
			},
			{
				"type": "unocc",
				"energy": -0.02125,
				"method": "rhf"
			},
			{
				"type": "unocc",
				"energy": -0.0012,
				"method": "rhf"
			},
			{
				"type": "unocc",
				"energy": -0.00018,
				"method": "rhf"
			},
			{
				"type": "unocc",
				"energy": 0.02633,
				"method": "rhf"
			}
		],
		"cosmo_sigma_profile": { 
			"-0.025": 0.0,
			"-0.024": 0.0,
			"-0.023": 0.0,
			"-0.022": 0.0,
			"-0.021": 0.0,
			"-0.02": 0.0,
			"-0.019": 0.0,
			"-0.018": 0.0,
			"-0.017": 0.0,
			"-0.016": 0.0,
			"-0.015": 0.0,
			"-0.014": 0.0,
			"-0.013": 0.0,
			"-0.012": 0.0,
			"-0.011": 0.0,
			"-0.01": 0.0,
			"-0.009": 0.0,
			"-0.008": 0.681828217878,
			"-0.007": 8.84742163632,
			"-0.006": 20.5320069386,
			"-0.005": 24.1087911587,
			"-0.004": 27.272323716,
			"-0.003": 37.2681667925,
			"-0.002": 36.0182506867,
			"-0.001": 21.0992529256,
			"0.0": 24.018459658,
			"0.001": 33.1536483979,
			"0.002": 29.0995126877,
			"0.003": 19.4397284267,
			"0.004": 18.974698733,
			"0.005": 13.592273052,
			"0.006": 6.06093281927,
			"0.007": 7.25881479964,
			"0.008": 5.31945806796,
			"0.009": 5.44538803635,
			"0.01": 6.19673838029,
			"0.011": 6.12382255042,
			"0.012": 1.84343966822,
			"0.013": 0.0364888723075,
			"0.014": 0.0,
			"0.015": 0.0,
			"0.016": 0.0,
			"0.017": 0.0,
			"0.018": 0.0,
			"0.019": 0.0,
			"0.02": 0.0,
			"0.021": 0.0,
			"0.022": 0.0,
			"0.023": 0.0,
			"0.024": 0.0,
			"0.025": 0.0
		}
	}
}
