{
	 "smiles": "CC1=CC(CO)=C(O)C(CO)=C1", 
	 "Tm": 402.15, 
	 "num_atms": 24, 
	 "gaussian": { 
		 "optdone": 1, 
		 "sigma_profile": "yes", 
		 "theory": "DFT", 
		 "functional": "B3LYP", 
		 "basiset": "6-31G**", 
		 "properties": { 
			 "R2extent": 2748.6193, 
			 "electric_dipole_moment_norm": 1.08097464818, 
			 "electric_quadrupole_moment_norm": 10.2519344838, 
			 "total_energy": -575.851512472, 
			 "HOMO_LUMO_gap": 0.20479, 
			 "cosmo_polarized_energy": -12.72, 
			 "cosmo_cavitation_energy": 26.74, 
			 "cosmo_dispersion_energy": -19.96, 
			 "cosmo_repulsion_energy": 1.62, 
			 "cosmo_total_nonelectrostatic_energy": 8.41, 
			 "SMD_solvation_energy": 4.91 
		},
		"coords": [
			{
				"x": 0.4850334447,
				"y": 2.0977033768,
				"z": -3.1693048221,
				"element": "C" 
			},
			{
				"x": -0.1370679698,
				"y": 1.2875232055,
				"z": -2.0551867037,
				"element": "C" 
			},
			{
				"x": -0.2381802831,
				"y": 1.7917406343,
				"z": -0.7576579574,
				"element": "C" 
			},
			{
				"x": -0.816539576,
				"y": 1.0486075958,
				"z": 0.2791502201,
				"element": "C" 
			},
			{
				"x": -0.9974505271,
				"y": 1.6327512056,
				"z": 1.6588955978,
				"element": "C" 
			},
			{
				"x": -0.6619293528,
				"y": 0.7015955623,
				"z": 2.710848093,
				"element": "O" 
			},
			{
				"x": -1.2840871127,
				"y": -0.2476328061,
				"z": 0.0070619042,
				"element": "C" 
			},
			{
				"x": -1.84624431,
				"y": -1.0337572093,
				"z": 0.9740890194,
				"element": "O" 
			},
			{
				"x": -1.1943397297,
				"y": -0.7789869486,
				"z": -1.2902182486,
				"element": "C" 
			},
			{
				"x": -1.7137712955,
				"y": -2.1745630263,
				"z": -1.5368727047,
				"element": "C" 
			},
			{
				"x": -1.4700271326,
				"y": -2.5436977658,
				"z": -2.887038366,
				"element": "O" 
			},
			{
				"x": -0.6289034711,
				"y": -0.0042928824,
				"z": -2.2998565561,
				"element": "C" 
			},
			{
				"x": -0.2211683475,
				"y": 2.2579327363,
				"z": -3.9924616041,
				"element": "H" 
			},
			{
				"x": 0.8089311281,
				"y": 3.0807359609,
				"z": -2.8148925719,
				"element": "H" 
			},
			{
				"x": 1.3607588501,
				"y": 1.5928751587,
				"z": -3.5941914256,
				"element": "H" 
			},
			{
				"x": 0.131819689,
				"y": 2.7923322633,
				"z": -0.5403600177,
				"element": "H" 
			},
			{
				"x": -2.0484106507,
				"y": 1.8791196642,
				"z": 1.8496543586,
				"element": "H" 
			},
			{
				"x": -0.4182432555,
				"y": 2.5589029824,
				"z": 1.76573997,
				"element": "H" 
			},
			{
				"x": 0.2671568651,
				"y": 0.457501957,
				"z": 2.5916735832,
				"element": "H" 
			},
			{
				"x": -1.6069638031,
				"y": -0.6472588923,
				"z": 1.8396770872,
				"element": "H" 
			},
			{
				"x": -2.7897148674,
				"y": -2.2065357244,
				"z": -1.2996874545,
				"element": "H" 
			},
			{
				"x": -1.225219326,
				"y": -2.8672916994,
				"z": -0.8327394876,
				"element": "H" 
			},
			{
				"x": -1.8451166125,
				"y": -3.4212837415,
				"z": -3.0230409424,
				"element": "H" 
			},
			{
				"x": -0.5645223539,
				"y": -0.4328216067,
				"z": -3.2946809712,
				"element": "H" 
			}
		],
		 "valence_orbital": [ 
			{
				"type": "occ",
				"energy": -0.31217,
				"method": "rhf"
			},
			{
				"type": "occ",
				"energy": -0.28992,
				"method": "rhf"
			},
			{
				"type": "occ",
				"energy": -0.26848,
				"method": "rhf"
			},
			{
				"type": "occ",
				"energy": -0.23413,
				"method": "rhf"
			},
			{
				"type": "occ",
				"energy": -0.20382,
				"method": "rhf"
			},
			{
				"type": "unocc",
				"energy": 0.00097,
				"method": "rhf"
			},
			{
				"type": "unocc",
				"energy": 0.01884,
				"method": "rhf"
			},
			{
				"type": "unocc",
				"energy": 0.06892,
				"method": "rhf"
			},
			{
				"type": "unocc",
				"energy": 0.07964,
				"method": "rhf"
			},
			{
				"type": "unocc",
				"energy": 0.10728,
				"method": "rhf"
			}
		],
		"cosmo_sigma_profile": { 
			"-0.025": 0.0,
			"-0.024": 0.0,
			"-0.023": 0.0,
			"-0.022": 0.0,
			"-0.021": 0.0,
			"-0.02": 0.0,
			"-0.019": 0.0,
			"-0.018": 0.0,
			"-0.017": 0.29789233389,
			"-0.016": 1.55714876985,
			"-0.015": 2.49168056534,
			"-0.014": 1.38010977983,
			"-0.013": 2.03574133653,
			"-0.012": 1.69097686958,
			"-0.011": 1.26401963141,
			"-0.01": 2.32826822254,
			"-0.009": 1.25518988578,
			"-0.008": 1.79844519434,
			"-0.007": 3.13011930048,
			"-0.006": 5.09573299421,
			"-0.005": 12.2468659632,
			"-0.004": 16.2623556041,
			"-0.003": 18.4080716862,
			"-0.002": 17.214863515,
			"-0.001": 15.3704486053,
			"0.0": 13.8845677727,
			"0.001": 13.9057586292,
			"0.002": 8.58123995532,
			"0.003": 9.56768591644,
			"0.004": 10.8406671322,
			"0.005": 11.6165241494,
			"0.006": 10.4807856784,
			"0.007": 5.88885156135,
			"0.008": 3.61777877867,
			"0.009": 4.30026368716,
			"0.01": 4.80314172247,
			"0.011": 3.66526414101,
			"0.012": 3.00819385178,
			"0.013": 1.52314141965,
			"0.014": 0.0581459787221,
			"0.015": 0.0,
			"0.016": 0.0,
			"0.017": 0.0,
			"0.018": 0.0,
			"0.019": 0.0,
			"0.02": 0.0,
			"0.021": 0.0,
			"0.022": 0.0,
			"0.023": 0.0,
			"0.024": 0.0,
			"0.025": 0.0
		}
	}
}
