{
	 "smiles": "CCOC(=O)C(=CNC1=CC=C(I)C=C1)C#N", 
	 "Tm": 429.15, 
	 "num_atms": 28, 
	 "gaussian": { 
		 "optdone": 1, 
		 "sigma_profile": "yes", 
		 "theory": "DFT", 
		 "functional": "B3LYP", 
		 "basiset": "6-31G**", 
		 "properties": { 
			 "R2extent": 4732.5947, 
			 "electric_dipole_moment_norm": 7.06218313909, 
			 "electric_quadrupole_moment_norm": 32.5460522807, 
			 "total_energy": -735.216580945, 
			 "HOMO_LUMO_gap": 0.16008, 
			 "cosmo_polarized_energy": -23.27, 
			 "cosmo_cavitation_energy": 37.1, 
			 "cosmo_dispersion_energy": -25.97, 
			 "cosmo_repulsion_energy": 2.04, 
			 "cosmo_total_nonelectrostatic_energy": 13.16, 
			 "SMD_solvation_energy": 7.89 
		},
		"coords": [
			{
				"x": -0.7094392799,
				"y": -0.2883905011,
				"z": -3.4279989115,
				"element": "C" 
			},
			{
				"x": -0.8224780237,
				"y": -0.4458306788,
				"z": -1.9196625498,
				"element": "C" 
			},
			{
				"x": -0.442741399,
				"y": 0.7759259896,
				"z": -1.2360153867,
				"element": "O" 
			},
			{
				"x": -1.4150988115,
				"y": 1.6988418403,
				"z": -1.0700918628,
				"element": "C" 
			},
			{
				"x": -2.5484420956,
				"y": 1.583042336,
				"z": -1.4909966802,
				"element": "O" 
			},
			{
				"x": -0.9136430166,
				"y": 2.9072068904,
				"z": -0.3647255324,
				"element": "C" 
			},
			{
				"x": 0.2026692086,
				"y": 3.0456293732,
				"z": 0.4233521577,
				"element": "C" 
			},
			{
				"x": 1.0495136924,
				"y": 2.1344770979,
				"z": 0.9766134739,
				"element": "N" 
			},
			{
				"x": 0.8615573462,
				"y": 0.7762394753,
				"z": 1.3293845274,
				"element": "C" 
			},
			{
				"x": 1.9896675414,
				"y": -0.0470804955,
				"z": 1.4142025526,
				"element": "C" 
			},
			{
				"x": 1.8722119613,
				"y": -1.3687518261,
				"z": 1.8421527367,
				"element": "C" 
			},
			{
				"x": 0.615763726,
				"y": -1.8718757944,
				"z": 2.1821908577,
				"element": "C" 
			},
			{
				"x": 0.4237653132,
				"y": -3.8811255619,
				"z": 2.8218889267,
				"element": "I" 
			},
			{
				"x": -0.5165846167,
				"y": -1.0557022549,
				"z": 2.1062926564,
				"element": "C" 
			},
			{
				"x": -0.3927831189,
				"y": 0.2664507053,
				"z": 1.6873265387,
				"element": "C" 
			},
			{
				"x": -1.6598940159,
				"y": 4.1042245404,
				"z": -0.6048745205,
				"element": "C" 
			},
			{
				"x": -2.2403882398,
				"y": 5.0978269894,
				"z": -0.7814577315,
				"element": "N" 
			},
			{
				"x": 0.29968463,
				"y": 0.022707528,
				"z": -3.7137335944,
				"element": "H" 
			},
			{
				"x": -1.4259463957,
				"y": 0.4520545531,
				"z": -3.7911781117,
				"element": "H" 
			},
			{
				"x": -0.9255313724,
				"y": -1.2445688096,
				"z": -3.9161434945,
				"element": "H" 
			},
			{
				"x": -1.8404934948,
				"y": -0.7111953629,
				"z": -1.6260563165,
				"element": "H" 
			},
			{
				"x": -0.1253638639,
				"y": -1.1947032013,
				"z": -1.5372118959,
				"element": "H" 
			},
			{
				"x": 0.4790042329,
				"y": 4.0670898996,
				"z": 0.6755306247,
				"element": "H" 
			},
			{
				"x": 1.902431255,
				"y": 2.534661129,
				"z": 1.3410200547,
				"element": "H" 
			},
			{
				"x": 2.9650106625,
				"y": 0.3424227243,
				"z": 1.1349985925,
				"element": "H" 
			},
			{
				"x": 2.7545745868,
				"y": -1.9956996291,
				"z": 1.9012969867,
				"element": "H" 
			},
			{
				"x": -1.4921819604,
				"y": -1.4391634739,
				"z": 2.3828391125,
				"element": "H" 
			},
			{
				"x": -1.2712444515,
				"y": 0.9011865177,
				"z": 1.6515567897,
				"element": "H" 
			}
		],
		 "valence_orbital": [ 
			{
				"type": "occ",
				"energy": -0.28344,
				"method": "rhf"
			},
			{
				"type": "occ",
				"energy": -0.27995,
				"method": "rhf"
			},
			{
				"type": "occ",
				"energy": -0.27942,
				"method": "rhf"
			},
			{
				"type": "occ",
				"energy": -0.2631,
				"method": "rhf"
			},
			{
				"type": "occ",
				"energy": -0.22822,
				"method": "rhf"
			},
			{
				"type": "unocc",
				"energy": -0.06814,
				"method": "rhf"
			},
			{
				"type": "unocc",
				"energy": -0.04962,
				"method": "rhf"
			},
			{
				"type": "unocc",
				"energy": -0.03469,
				"method": "rhf"
			},
			{
				"type": "unocc",
				"energy": -0.01753,
				"method": "rhf"
			},
			{
				"type": "unocc",
				"energy": 0.02333,
				"method": "rhf"
			}
		],
		"cosmo_sigma_profile": { 
			"-0.025": 0.0,
			"-0.024": 0.0,
			"-0.023": 0.0,
			"-0.022": 0.0,
			"-0.021": 0.0,
			"-0.02": 0.0,
			"-0.019": 0.0,
			"-0.018": 0.0172909872079,
			"-0.017": 1.39348783004,
			"-0.016": 1.91817705872,
			"-0.015": 1.43168219959,
			"-0.014": 1.75102867608,
			"-0.013": 1.65663944072,
			"-0.012": 1.67545528617,
			"-0.011": 2.25426428905,
			"-0.01": 2.80364098533,
			"-0.009": 2.62274179205,
			"-0.008": 4.20511162084,
			"-0.007": 9.4780917178,
			"-0.006": 12.5335566871,
			"-0.005": 13.2664032913,
			"-0.004": 20.3637341292,
			"-0.003": 21.360912447,
			"-0.002": 22.9956010564,
			"-0.001": 20.7014965232,
			"0.0": 24.4254995248,
			"0.001": 21.5568112329,
			"0.002": 22.5632612935,
			"0.003": 19.6955593523,
			"0.004": 18.2502145477,
			"0.005": 8.87245479272,
			"0.006": 4.56778700386,
			"0.007": 5.93428520611,
			"0.008": 5.26010598268,
			"0.009": 5.56017087801,
			"0.01": 5.24570999015,
			"0.011": 6.38762879617,
			"0.012": 7.20724004022,
			"0.013": 2.87664992984,
			"0.014": 1.22175462812,
			"0.015": 0.0,
			"0.016": 0.0,
			"0.017": 0.0,
			"0.018": 0.0,
			"0.019": 0.0,
			"0.02": 0.0,
			"0.021": 0.0,
			"0.022": 0.0,
			"0.023": 0.0,
			"0.024": 0.0,
			"0.025": 0.0
		}
	}
}
