{
	 "smiles": "CC(C)(C)C1=CC(=C2OC3=C(C=C(C(=O)C3=NC2=C1)C(C)(C)C)C(C)(C)C)C(C)(C)C", 
	 "Tm": 483.15, 
	 "num_atms": 70, 
	 "gaussian": { 
		 "optdone": 1, 
		 "sigma_profile": "yes", 
		 "theory": "DFT", 
		 "functional": "B3LYP", 
		 "basiset": "6-31G**", 
		 "properties": { 
			 "R2extent": 16602.5401, 
			 "electric_dipole_moment_norm": 5.17860523114, 
			 "electric_quadrupole_moment_norm": 25.2706863057, 
			 "total_energy": -1295.69313232, 
			 "HOMO_LUMO_gap": 0.0933, 
			 "cosmo_polarized_energy": -13.48, 
			 "cosmo_cavitation_energy": 63.46, 
			 "cosmo_dispersion_energy": -41.35, 
			 "cosmo_repulsion_energy": 3.04, 
			 "cosmo_total_nonelectrostatic_energy": 25.15, 
			 "SMD_solvation_energy": 10.47 
		},
		"coords": [
			{
				"x": -0.2628501314,
				"y": -0.2354593505,
				"z": 6.6742245059,
				"element": "C" 
			},
			{
				"x": -0.9897301933,
				"y": -1.1200018054,
				"z": 5.6332906993,
				"element": "C" 
			},
			{
				"x": -0.5893047987,
				"y": -2.599317028,
				"z": 5.8466017118,
				"element": "C" 
			},
			{
				"x": -2.5068229178,
				"y": -0.9921586525,
				"z": 5.8669683643,
				"element": "C" 
			},
			{
				"x": -0.5901460348,
				"y": -0.6816965888,
				"z": 4.2136002977,
				"element": "C" 
			},
			{
				"x": 0.7630639399,
				"y": -0.7304528121,
				"z": 3.8177597643,
				"element": "C" 
			},
			{
				"x": 1.2528996344,
				"y": -0.3701669349,
				"z": 2.5560147928,
				"element": "C" 
			},
			{
				"x": 0.2775593127,
				"y": 0.0401631086,
				"z": 1.6169319691,
				"element": "C" 
			},
			{
				"x": 0.6296799653,
				"y": 0.3430123294,
				"z": 0.3207280608,
				"element": "O" 
			},
			{
				"x": -0.326461632,
				"y": 0.7834143099,
				"z": -0.5860134503,
				"element": "C" 
			},
			{
				"x": -0.0360503952,
				"y": 0.9700594565,
				"z": -1.9138852749,
				"element": "C" 
			},
			{
				"x": -1.1146136987,
				"y": 1.4977455915,
				"z": -2.7334089459,
				"element": "C" 
			},
			{
				"x": -2.3873217656,
				"y": 1.8201455855,
				"z": -2.3563993723,
				"element": "C" 
			},
			{
				"x": -2.7502332491,
				"y": 1.6082475627,
				"z": -0.9511870334,
				"element": "C" 
			},
			{
				"x": -3.8454887973,
				"y": 1.8741566928,
				"z": -0.4584694885,
				"element": "O" 
			},
			{
				"x": -1.6687774384,
				"y": 1.00947135,
				"z": -0.0693188568,
				"element": "C" 
			},
			{
				"x": -2.0247896631,
				"y": 0.6816366539,
				"z": 1.1353348112,
				"element": "N" 
			},
			{
				"x": -1.0757820415,
				"y": 0.1606781609,
				"z": 1.9910763419,
				"element": "C" 
			},
			{
				"x": -1.4983636532,
				"y": -0.2087905524,
				"z": 3.2800815393,
				"element": "C" 
			},
			{
				"x": -3.4321002528,
				"y": 2.3940660002,
				"z": -3.3264509389,
				"element": "C" 
			},
			{
				"x": -3.8752878008,
				"y": 3.7976803059,
				"z": -2.8427414462,
				"element": "C" 
			},
			{
				"x": -4.663007211,
				"y": 1.4547949656,
				"z": -3.379570735,
				"element": "C" 
			},
			{
				"x": -2.8795917295,
				"y": 2.5360874345,
				"z": -4.7572929332,
				"element": "C" 
			},
			{
				"x": 1.3129810669,
				"y": 0.605102758,
				"z": -2.5742665028,
				"element": "C" 
			},
			{
				"x": 2.4817327888,
				"y": 1.3572222437,
				"z": -1.8977016531,
				"element": "C" 
			},
			{
				"x": 1.3633171629,
				"y": 0.9704331889,
				"z": -4.074116414,
				"element": "C" 
			},
			{
				"x": 1.5138003447,
				"y": -0.9277229721,
				"z": -2.4759415899,
				"element": "C" 
			},
			{
				"x": 2.7710659494,
				"y": -0.3727898443,
				"z": 2.2729355721,
				"element": "C" 
			},
			{
				"x": 3.2243868027,
				"y": 1.0789743022,
				"z": 1.9802763237,
				"element": "C" 
			},
			{
				"x": 3.1120419621,
				"y": -1.3047774931,
				"z": 1.0885527814,
				"element": "C" 
			},
			{
				"x": 3.5909793318,
				"y": -0.8684868299,
				"z": 3.482994768,
				"element": "C" 
			},
			{
				"x": -0.5406886256,
				"y": -0.5384014424,
				"z": 7.6898648211,
				"element": "H" 
			},
			{
				"x": -0.5319171711,
				"y": 0.818370804,
				"z": 6.5488585492,
				"element": "H" 
			},
			{
				"x": 0.8255219115,
				"y": -0.3151191633,
				"z": 6.5920582551,
				"element": "H" 
			},
			{
				"x": -1.0985621753,
				"y": -3.2505433226,
				"z": 5.128742659,
				"element": "H" 
			},
			{
				"x": 0.4881264556,
				"y": -2.7528624265,
				"z": 5.731601316,
				"element": "H" 
			},
			{
				"x": -0.8645160848,
				"y": -2.9255925541,
				"z": 6.8557190491,
				"element": "H" 
			},
			{
				"x": -2.8495179541,
				"y": 0.0424004122,
				"z": 5.7632110437,
				"element": "H" 
			},
			{
				"x": -3.0794839867,
				"y": -1.6132715046,
				"z": 5.1706415187,
				"element": "H" 
			},
			{
				"x": -2.7523481122,
				"y": -1.3206226574,
				"z": 6.8818930016,
				"element": "H" 
			},
			{
				"x": 1.4819067801,
				"y": -1.0664008877,
				"z": 4.5526380564,
				"element": "H" 
			},
			{
				"x": -0.8601039797,
				"y": 1.6590136007,
				"z": -3.7701441153,
				"element": "H" 
			},
			{
				"x": -2.5546381891,
				"y": -0.0920640379,
				"z": 3.487615342,
				"element": "H" 
			},
			{
				"x": -4.3104188328,
				"y": 3.7480742527,
				"z": -1.8439653211,
				"element": "H" 
			},
			{
				"x": -4.6239444518,
				"y": 4.2101149806,
				"z": -3.5290602299,
				"element": "H" 
			},
			{
				"x": -3.0244058885,
				"y": 4.4879325385,
				"z": -2.8198821717,
				"element": "H" 
			},
			{
				"x": -4.3791584483,
				"y": 0.4618307655,
				"z": -3.7461541846,
				"element": "H" 
			},
			{
				"x": -5.4152077057,
				"y": 1.8631729746,
				"z": -4.0643350851,
				"element": "H" 
			},
			{
				"x": -5.1154601979,
				"y": 1.3457731094,
				"z": -2.3932653051,
				"element": "H" 
			},
			{
				"x": -2.0260013018,
				"y": 3.2216126749,
				"z": -4.804571917,
				"element": "H" 
			},
			{
				"x": -3.6606682428,
				"y": 2.9422674341,
				"z": -5.4078659354,
				"element": "H" 
			},
			{
				"x": -2.571612303,
				"y": 1.5724255153,
				"z": -5.178472677,
				"element": "H" 
			},
			{
				"x": 2.3412478036,
				"y": 2.4404629412,
				"z": -1.9788518459,
				"element": "H" 
			},
			{
				"x": 2.5764686208,
				"y": 1.1069200536,
				"z": -0.8434333013,
				"element": "H" 
			},
			{
				"x": 3.4269436517,
				"y": 1.1034047573,
				"z": -2.3908122969,
				"element": "H" 
			},
			{
				"x": 2.3420579011,
				"y": 0.6844596113,
				"z": -4.4722973505,
				"element": "H" 
			},
			{
				"x": 1.2429719169,
				"y": 2.0454542916,
				"z": -4.2443023302,
				"element": "H" 
			},
			{
				"x": 0.6079237974,
				"y": 0.4392170844,
				"z": -4.6615878799,
				"element": "H" 
			},
			{
				"x": 2.4954081094,
				"y": -1.2121904471,
				"z": -2.8721479066,
				"element": "H" 
			},
			{
				"x": 1.4454621795,
				"y": -1.2860612006,
				"z": -1.4479224408,
				"element": "H" 
			},
			{
				"x": 0.7499699412,
				"y": -1.4507495015,
				"z": -3.0609060212,
				"element": "H" 
			},
			{
				"x": 2.6635034093,
				"y": 1.5288901205,
				"z": 1.1601716187,
				"element": "H" 
			},
			{
				"x": 4.2878013932,
				"y": 1.0987433196,
				"z": 1.7168068661,
				"element": "H" 
			},
			{
				"x": 3.0846185148,
				"y": 1.7086763583,
				"z": 2.8652455606,
				"element": "H" 
			},
			{
				"x": 4.1951223459,
				"y": -1.3184781149,
				"z": 0.9236282404,
				"element": "H" 
			},
			{
				"x": 2.7919010616,
				"y": -2.3308876045,
				"z": 1.2994037936,
				"element": "H" 
			},
			{
				"x": 2.6367584553,
				"y": -0.9840260207,
				"z": 0.1645097068,
				"element": "H" 
			},
			{
				"x": 3.4512592862,
				"y": -0.23920889,
				"z": 4.3676952354,
				"element": "H" 
			},
			{
				"x": 4.6543130393,
				"y": -0.8360849991,
				"z": 3.2259385264,
				"element": "H" 
			},
			{
				"x": 3.3504822192,
				"y": -1.9029239622,
				"z": 3.7500274871,
				"element": "H" 
			}
		],
		 "valence_orbital": [ 
			{
				"type": "occ",
				"energy": -0.26698,
				"method": "rhf"
			},
			{
				"type": "occ",
				"energy": -0.25571,
				"method": "rhf"
			},
			{
				"type": "occ",
				"energy": -0.24791,
				"method": "rhf"
			},
			{
				"type": "occ",
				"energy": -0.23168,
				"method": "rhf"
			},
			{
				"type": "occ",
				"energy": -0.19486,
				"method": "rhf"
			},
			{
				"type": "unocc",
				"energy": -0.10156,
				"method": "rhf"
			},
			{
				"type": "unocc",
				"energy": -0.0223,
				"method": "rhf"
			},
			{
				"type": "unocc",
				"energy": -0.00766,
				"method": "rhf"
			},
			{
				"type": "unocc",
				"energy": 0.02551,
				"method": "rhf"
			},
			{
				"type": "unocc",
				"energy": 0.04236,
				"method": "rhf"
			}
		],
		"cosmo_sigma_profile": { 
			"-0.025": 0.0,
			"-0.024": 0.0,
			"-0.023": 0.0,
			"-0.022": 0.0,
			"-0.021": 0.0,
			"-0.02": 0.0,
			"-0.019": 0.0,
			"-0.018": 0.0,
			"-0.017": 0.0,
			"-0.016": 0.0,
			"-0.015": 0.0,
			"-0.014": 0.0,
			"-0.013": 0.0,
			"-0.012": 0.0,
			"-0.011": 0.0,
			"-0.01": 0.0,
			"-0.009": 0.0,
			"-0.008": 0.0624757728651,
			"-0.007": 0.925541760056,
			"-0.006": 1.91017459234,
			"-0.005": 5.88359022267,
			"-0.004": 14.2640927324,
			"-0.003": 62.2887338107,
			"-0.002": 78.32818459,
			"-0.001": 71.4041929935,
			"0.0": 77.074123973,
			"0.001": 90.309639395,
			"0.002": 46.6582243263,
			"0.003": 14.2881953426,
			"0.004": 3.68319877807,
			"0.005": 3.23742575088,
			"0.006": 2.45922025116,
			"0.007": 2.70971484731,
			"0.008": 1.952358526,
			"0.009": 1.55208790411,
			"0.01": 1.87788492577,
			"0.011": 1.64866508054,
			"0.012": 2.56757984673,
			"0.013": 2.74409669132,
			"0.014": 1.93055625467,
			"0.015": 1.31434973042,
			"0.016": 1.18621767544,
			"0.017": 0.859590521494,
			"0.018": 0.966154167972,
			"0.019": 0.0963337607379,
			"0.02": 0.0,
			"0.021": 0.0,
			"0.022": 0.0,
			"0.023": 0.0,
			"0.024": 0.0,
			"0.025": 0.0
		}
	}
}
