{
	 "smiles": "CSCCC(O)=O", 
	 "Tm": 289.15, 
	 "num_atms": 15, 
	 "gaussian": { 
		 "optdone": 1, 
		 "sigma_profile": "yes", 
		 "theory": "DFT", 
		 "functional": "B3LYP", 
		 "basiset": "6-31G**", 
		 "properties": { 
			 "R2extent": 1386.0899, 
			 "electric_dipole_moment_norm": 1.69303377698, 
			 "electric_quadrupole_moment_norm": 7.85779274542, 
			 "total_energy": -705.90014516, 
			 "HOMO_LUMO_gap": 0.21916, 
			 "cosmo_polarized_energy": -9.71, 
			 "cosmo_cavitation_energy": 19.85, 
			 "cosmo_dispersion_energy": -15.15, 
			 "cosmo_repulsion_energy": 1.25, 
			 "cosmo_total_nonelectrostatic_energy": 5.95, 
			 "SMD_solvation_energy": 4.59 
		},
		"coords": [
			{
				"x": -2.0126997624,
				"y": 0.1691366443,
				"z": 0.8075218072,
				"element": "C" 
			},
			{
				"x": -0.9924086306,
				"y": 1.6573967564,
				"z": 0.4992023805,
				"element": "S" 
			},
			{
				"x": 0.4817347302,
				"y": 0.9333339567,
				"z": -0.3380978442,
				"element": "C" 
			},
			{
				"x": 1.7260533396,
				"y": 0.8563508703,
				"z": 0.5467674636,
				"element": "C" 
			},
			{
				"x": 1.6504337525,
				"y": -0.2141461885,
				"z": 1.6145690266,
				"element": "C" 
			},
			{
				"x": 2.6045496063,
				"y": -0.0404152608,
				"z": 2.5571612158,
				"element": "O" 
			},
			{
				"x": 0.8775469821,
				"y": -1.1488097547,
				"z": 1.6370608914,
				"element": "O" 
			},
			{
				"x": -2.8763185108,
				"y": 0.5044838444,
				"z": 1.3865870573,
				"element": "H" 
			},
			{
				"x": -2.3651590353,
				"y": -0.2631032429,
				"z": -0.1324007688,
				"element": "H" 
			},
			{
				"x": -1.450176452,
				"y": -0.5715263781,
				"z": 1.3758796739,
				"element": "H" 
			},
			{
				"x": 0.2137037088,
				"y": -0.0585567464,
				"z": -0.709409488,
				"element": "H" 
			},
			{
				"x": 0.6933970946,
				"y": 1.5689765618,
				"z": -1.2017158876,
				"element": "H" 
			},
			{
				"x": 2.6086007918,
				"y": 0.6237624078,
				"z": -0.067556144,
				"element": "H" 
			},
			{
				"x": 1.9352406971,
				"y": 1.8167804722,
				"z": 1.0267295331,
				"element": "H" 
			},
			{
				"x": 2.5097016881,
				"y": -0.7807639424,
				"z": 3.1801010833,
				"element": "H" 
			}
		],
		 "valence_orbital": [ 
			{
				"type": "occ",
				"energy": -0.35088,
				"method": "rhf"
			},
			{
				"type": "occ",
				"energy": -0.32444,
				"method": "rhf"
			},
			{
				"type": "occ",
				"energy": -0.30181,
				"method": "rhf"
			},
			{
				"type": "occ",
				"energy": -0.28205,
				"method": "rhf"
			},
			{
				"type": "occ",
				"energy": -0.21674,
				"method": "rhf"
			},
			{
				"type": "unocc",
				"energy": 0.00242,
				"method": "rhf"
			},
			{
				"type": "unocc",
				"energy": 0.04292,
				"method": "rhf"
			},
			{
				"type": "unocc",
				"energy": 0.07418,
				"method": "rhf"
			},
			{
				"type": "unocc",
				"energy": 0.08005,
				"method": "rhf"
			},
			{
				"type": "unocc",
				"energy": 0.09978,
				"method": "rhf"
			}
		],
		"cosmo_sigma_profile": { 
			"-0.025": 0.0,
			"-0.024": 0.0,
			"-0.023": 0.0,
			"-0.022": 0.0,
			"-0.021": 0.0,
			"-0.02": 0.0,
			"-0.019": 0.0,
			"-0.018": 0.708967223329,
			"-0.017": 0.946364446398,
			"-0.016": 0.85867454246,
			"-0.015": 0.780756114919,
			"-0.014": 1.19974241788,
			"-0.013": 0.306345015013,
			"-0.012": 0.0719446821043,
			"-0.011": 1.04038925623,
			"-0.01": 0.76374673714,
			"-0.009": 1.0831862902,
			"-0.008": 0.437653621505,
			"-0.007": 3.41501409386,
			"-0.006": 7.16826313193,
			"-0.005": 13.8644366339,
			"-0.004": 14.5334986606,
			"-0.003": 12.7607990414,
			"-0.002": 11.9541077187,
			"-0.001": 13.0910806908,
			"0.0": 8.5376165823,
			"0.001": 6.56154028697,
			"0.002": 5.6688873301,
			"0.003": 6.38651708396,
			"0.004": 6.88429774276,
			"0.005": 6.44481310144,
			"0.006": 4.83802342014,
			"0.007": 5.32202213116,
			"0.008": 6.21232443451,
			"0.009": 4.90418533568,
			"0.01": 4.33538056753,
			"0.011": 4.59814128054,
			"0.012": 1.98259070154,
			"0.013": 0.0130813560007,
			"0.014": 0.0,
			"0.015": 0.0,
			"0.016": 0.0,
			"0.017": 0.0,
			"0.018": 0.0,
			"0.019": 0.0,
			"0.02": 0.0,
			"0.021": 0.0,
			"0.022": 0.0,
			"0.023": 0.0,
			"0.024": 0.0,
			"0.025": 0.0
		}
	}
}
