{
	 "smiles": "CCOC(=O)C(Br)CCC(Br)C(=O)OCC", 
	 "Tm": 340.15, 
	 "num_atms": 32, 
	 "gaussian": { 
		 "optdone": 1, 
		 "sigma_profile": "yes", 
		 "theory": "DFT", 
		 "functional": "B3LYP", 
		 "basiset": "6-31G**", 
		 "properties": { 
			 "R2extent": 7270.3496, 
			 "electric_dipole_moment_norm": 2.20360981347, 
			 "electric_quadrupole_moment_norm": 15.5255507622, 
			 "total_energy": -5834.44626477, 
			 "HOMO_LUMO_gap": 0.22784, 
			 "cosmo_polarized_energy": -12.05, 
			 "cosmo_cavitation_energy": 39.66, 
			 "cosmo_dispersion_energy": -27.2, 
			 "cosmo_repulsion_energy": 2.2, 
			 "cosmo_total_nonelectrostatic_energy": 14.66, 
			 "SMD_solvation_energy": 6.27 
		},
		"coords": [
			{
				"x": -3.5984460192,
				"y": -2.0897046279,
				"z": 0.0695654427,
				"element": "C" 
			},
			{
				"x": -4.0782999031,
				"y": -0.944772636,
				"z": 0.946747622,
				"element": "C" 
			},
			{
				"x": -3.6247990018,
				"y": 0.3329426556,
				"z": 0.4188094148,
				"element": "O" 
			},
			{
				"x": -2.4352854741,
				"y": 0.7823506041,
				"z": 0.8567009679,
				"element": "C" 
			},
			{
				"x": -1.7503906303,
				"y": 0.2259600885,
				"z": 1.6869186708,
				"element": "O" 
			},
			{
				"x": -2.0900408056,
				"y": 2.0740484832,
				"z": 0.1183288938,
				"element": "C" 
			},
			{
				"x": -1.5904284235,
				"y": 3.4554904067,
				"z": 1.4537426423,
				"element": "Br" 
			},
			{
				"x": -1.0274679457,
				"y": 1.9311217116,
				"z": -0.9854086829,
				"element": "C" 
			},
			{
				"x": 0.4380687872,
				"y": 1.6911739985,
				"z": -0.5998797804,
				"element": "C" 
			},
			{
				"x": 0.8187846893,
				"y": 0.3322962834,
				"z": -0.0289960827,
				"element": "C" 
			},
			{
				"x": 0.319259688,
				"y": -1.1550128142,
				"z": -1.2858802201,
				"element": "Br" 
			},
			{
				"x": 2.3231921453,
				"y": 0.2117311597,
				"z": 0.1741006014,
				"element": "C" 
			},
			{
				"x": 3.1509981452,
				"y": 0.8660609899,
				"z": -0.4228440731,
				"element": "O" 
			},
			{
				"x": 2.6076276589,
				"y": -0.7012552234,
				"z": 1.1159000975,
				"element": "O" 
			},
			{
				"x": 4.0152449878,
				"y": -0.9293546774,
				"z": 1.3719470092,
				"element": "C" 
			},
			{
				"x": 4.1142432339,
				"y": -1.9919780533,
				"z": 2.4489766275,
				"element": "C" 
			},
			{
				"x": -3.9824179483,
				"y": -3.0378675983,
				"z": 0.4601458766,
				"element": "H" 
			},
			{
				"x": -3.9562868159,
				"y": -1.9715428529,
				"z": -0.9573338738,
				"element": "H" 
			},
			{
				"x": -2.5066130841,
				"y": -2.1392541433,
				"z": 0.0560891998,
				"element": "H" 
			},
			{
				"x": -3.7163133988,
				"y": -1.043969694,
				"z": 1.9719088498,
				"element": "H" 
			},
			{
				"x": -5.1675011015,
				"y": -0.8633676938,
				"z": 0.948618494,
				"element": "H" 
			},
			{
				"x": -3.0057361464,
				"y": 2.4574756346,
				"z": -0.3275079091,
				"element": "H" 
			},
			{
				"x": -1.0619766981,
				"y": 2.858517174,
				"z": -1.565667317,
				"element": "H" 
			},
			{
				"x": -1.3710096164,
				"y": 1.1314961938,
				"z": -1.6542429446,
				"element": "H" 
			},
			{
				"x": 1.0603876628,
				"y": 1.873375148,
				"z": -1.4801033305,
				"element": "H" 
			},
			{
				"x": 0.738784062,
				"y": 2.4379339299,
				"z": 0.1458649174,
				"element": "H" 
			},
			{
				"x": 0.2846310237,
				"y": 0.0814125255,
				"z": 0.8837103333,
				"element": "H" 
			},
			{
				"x": 4.4937004153,
				"y": -1.2402846373,
				"z": 0.4379670277,
				"element": "H" 
			},
			{
				"x": 4.47271382,
				"y": 0.0162020926,
				"z": 1.6793002114,
				"element": "H" 
			},
			{
				"x": 3.6232674777,
				"y": -1.6629960587,
				"z": 3.3691958221,
				"element": "H" 
			},
			{
				"x": 3.6452634131,
				"y": -2.9241865447,
				"z": 2.1219955064,
				"element": "H" 
			},
			{
				"x": 5.1662458028,
				"y": -2.1944418244,
				"z": 2.6727299858,
				"element": "H" 
			}
		],
		 "valence_orbital": [ 
			{
				"type": "occ",
				"energy": -0.29121,
				"method": "rhf"
			},
			{
				"type": "occ",
				"energy": -0.283,
				"method": "rhf"
			},
			{
				"type": "occ",
				"energy": -0.2807,
				"method": "rhf"
			},
			{
				"type": "occ",
				"energy": -0.27625,
				"method": "rhf"
			},
			{
				"type": "occ",
				"energy": -0.26781,
				"method": "rhf"
			},
			{
				"type": "unocc",
				"energy": -0.03997,
				"method": "rhf"
			},
			{
				"type": "unocc",
				"energy": -0.03508,
				"method": "rhf"
			},
			{
				"type": "unocc",
				"energy": 0.02214,
				"method": "rhf"
			},
			{
				"type": "unocc",
				"energy": 0.04511,
				"method": "rhf"
			},
			{
				"type": "unocc",
				"energy": 0.08589,
				"method": "rhf"
			}
		],
		"cosmo_sigma_profile": { 
			"-0.025": 0.0,
			"-0.024": 0.0,
			"-0.023": 0.0,
			"-0.022": 0.0,
			"-0.021": 0.0,
			"-0.02": 0.0,
			"-0.019": 0.0,
			"-0.018": 0.0,
			"-0.017": 0.0,
			"-0.016": 0.0,
			"-0.015": 0.0,
			"-0.014": 0.0,
			"-0.013": 0.0,
			"-0.012": 0.0,
			"-0.011": 0.0,
			"-0.01": 0.0,
			"-0.009": 0.635445675431,
			"-0.008": 2.09383962456,
			"-0.007": 3.58799861764,
			"-0.006": 10.0371502947,
			"-0.005": 23.4811739685,
			"-0.004": 32.9007866003,
			"-0.003": 34.1823512009,
			"-0.002": 29.6713372013,
			"-0.001": 26.974837058,
			"0.0": 28.4779903149,
			"0.001": 23.6005622229,
			"0.002": 17.680423213,
			"0.003": 16.3314512036,
			"0.004": 15.6131271468,
			"0.005": 17.6354799284,
			"0.006": 9.46879681397,
			"0.007": 4.80560967811,
			"0.008": 4.4519971775,
			"0.009": 3.48684846275,
			"0.01": 4.98624141089,
			"0.011": 6.0787241954,
			"0.012": 1.38313450346,
			"0.013": 0.0,
			"0.014": 0.0,
			"0.015": 0.0,
			"0.016": 0.0,
			"0.017": 0.0,
			"0.018": 0.0,
			"0.019": 0.0,
			"0.02": 0.0,
			"0.021": 0.0,
			"0.022": 0.0,
			"0.023": 0.0,
			"0.024": 0.0,
			"0.025": 0.0
		}
	}
}
