{
	 "smiles": "CC(C)(N)C(O)=O", 
	 "Tm": 608.15, 
	 "num_atms": 16, 
	 "gaussian": { 
		 "optdone": 1, 
		 "sigma_profile": "yes", 
		 "theory": "DFT", 
		 "functional": "B3LYP", 
		 "basiset": "6-31G**", 
		 "properties": { 
			 "R2extent": 1025.6686, 
			 "electric_dipole_moment_norm": 3.18461076429, 
			 "electric_quadrupole_moment_norm": 13.0560291693, 
			 "total_energy": -363.059669775, 
			 "HOMO_LUMO_gap": 0.25952, 
			 "cosmo_polarized_energy": -14.21, 
			 "cosmo_cavitation_energy": 18.77, 
			 "cosmo_dispersion_energy": -13.62, 
			 "cosmo_repulsion_energy": 1.15, 
			 "cosmo_total_nonelectrostatic_energy": 6.3, 
			 "SMD_solvation_energy": 3.72 
		},
		"coords": [
			{
				"x": -0.6908874418,
				"y": -0.2414967564,
				"z": -0.2372655878,
				"element": "C" 
			},
			{
				"x": 0.3780981626,
				"y": 0.0388303386,
				"z": 0.8386607718,
				"element": "C" 
			},
			{
				"x": 0.1074365658,
				"y": -0.7979120213,
				"z": 2.1057318467,
				"element": "C" 
			},
			{
				"x": 1.675866143,
				"y": -0.3623123968,
				"z": 0.30121305,
				"element": "N" 
			},
			{
				"x": 0.3667132893,
				"y": 1.5490677817,
				"z": 1.2011385696,
				"element": "C" 
			},
			{
				"x": -0.7897179031,
				"y": 2.0497209419,
				"z": 1.7142373952,
				"element": "O" 
			},
			{
				"x": 1.317178036,
				"y": 2.2767778215,
				"z": 1.049886733,
				"element": "O" 
			},
			{
				"x": -0.6445278669,
				"y": -1.2965884511,
				"z": -0.518255819,
				"element": "H" 
			},
			{
				"x": -1.7062043812,
				"y": -0.0237697305,
				"z": 0.1108351698,
				"element": "H" 
			},
			{
				"x": -0.5105515775,
				"y": 0.3603257127,
				"z": -1.1342357419,
				"element": "H" 
			},
			{
				"x": 0.8561461826,
				"y": -0.5921401709,
				"z": 2.8779701661,
				"element": "H" 
			},
			{
				"x": 0.1627167557,
				"y": -1.8589170575,
				"z": 1.8497425488,
				"element": "H" 
			},
			{
				"x": -0.8792950721,
				"y": -0.6006293208,
				"z": 2.5380379743,
				"element": "H" 
			},
			{
				"x": 2.3965353076,
				"y": -0.1268568563,
				"z": 0.9817797653,
				"element": "H" 
			},
			{
				"x": 1.890729966,
				"y": 0.2256081687,
				"z": -0.5026222122,
				"element": "H" 
			},
			{
				"x": -1.4578361661,
				"y": 1.3533919965,
				"z": 1.7767453703,
				"element": "H" 
			}
		],
		 "valence_orbital": [ 
			{
				"type": "occ",
				"energy": -0.37617,
				"method": "rhf"
			},
			{
				"type": "occ",
				"energy": -0.35546,
				"method": "rhf"
			},
			{
				"type": "occ",
				"energy": -0.31719,
				"method": "rhf"
			},
			{
				"type": "occ",
				"energy": -0.27182,
				"method": "rhf"
			},
			{
				"type": "occ",
				"energy": -0.25027,
				"method": "rhf"
			},
			{
				"type": "unocc",
				"energy": 0.00925,
				"method": "rhf"
			},
			{
				"type": "unocc",
				"energy": 0.03634,
				"method": "rhf"
			},
			{
				"type": "unocc",
				"energy": 0.09581,
				"method": "rhf"
			},
			{
				"type": "unocc",
				"energy": 0.12008,
				"method": "rhf"
			},
			{
				"type": "unocc",
				"energy": 0.13451,
				"method": "rhf"
			}
		],
		"cosmo_sigma_profile": { 
			"-0.025": 0.0,
			"-0.024": 0.0,
			"-0.023": 0.0,
			"-0.022": 0.0,
			"-0.021": 0.0,
			"-0.02": 0.0,
			"-0.019": 0.0,
			"-0.018": 0.316040736406,
			"-0.017": 0.704420328028,
			"-0.016": 0.993408892739,
			"-0.015": 1.03982006993,
			"-0.014": 1.0145470206,
			"-0.013": 0.574150963236,
			"-0.012": 1.3237129174,
			"-0.011": 1.60647543997,
			"-0.01": 1.54436273494,
			"-0.009": 3.12880576162,
			"-0.008": 3.68615402194,
			"-0.007": 5.68720339298,
			"-0.006": 5.96417855177,
			"-0.005": 8.19286204359,
			"-0.004": 10.069292371,
			"-0.003": 11.5144716123,
			"-0.002": 12.6417453631,
			"-0.001": 13.1079617833,
			"0.0": 11.1346680566,
			"0.001": 4.76699510402,
			"0.002": 3.4202484653,
			"0.003": 3.10563105432,
			"0.004": 2.64764520752,
			"0.005": 3.02034443847,
			"0.006": 2.18799421297,
			"0.007": 2.62387494597,
			"0.008": 3.77010551717,
			"0.009": 4.12916017045,
			"0.01": 5.17937574935,
			"0.011": 5.74011799464,
			"0.012": 5.27956664569,
			"0.013": 2.14110616109,
			"0.014": 0.652553728973,
			"0.015": 1.07422405539,
			"0.016": 0.478219779109,
			"0.017": 0.516262184142,
			"0.018": 0.382811816862,
			"0.019": 0.198626515138,
			"0.02": 0.0,
			"0.021": 0.0,
			"0.022": 0.0,
			"0.023": 0.0,
			"0.024": 0.0,
			"0.025": 0.0
		}
	}
}
