{
	 "smiles": "CC1CSC(S1)C=CC1=CC=CC=C1[N+]([O-])=O", 
	 "Tm": 343.15, 
	 "num_atms": 30, 
	 "gaussian": { 
		 "optdone": 1, 
		 "sigma_profile": "yes", 
		 "theory": "DFT", 
		 "functional": "B3LYP", 
		 "basiset": "6-31G**", 
		 "properties": { 
			 "R2extent": 7983.9459, 
			 "electric_dipole_moment_norm": 5.26269048491, 
			 "electric_quadrupole_moment_norm": 23.9338291613, 
			 "total_energy": -1466.56155947, 
			 "HOMO_LUMO_gap": 0.14677, 
			 "cosmo_polarized_energy": -13.14, 
			 "cosmo_cavitation_energy": 36.71, 
			 "cosmo_dispersion_energy": -26.48, 
			 "cosmo_repulsion_energy": 1.98, 
			 "cosmo_total_nonelectrostatic_energy": 12.21, 
			 "SMD_solvation_energy": 7.21 
		},
		"coords": [
			{
				"x": -2.2028255388,
				"y": -2.4992811952,
				"z": -3.8747935412,
				"element": "C" 
			},
			{
				"x": -2.0297814646,
				"y": -2.2632736303,
				"z": -2.3735463384,
				"element": "C" 
			},
			{
				"x": -1.5632613153,
				"y": -0.8454205948,
				"z": -2.0214686232,
				"element": "C" 
			},
			{
				"x": 0.2447268498,
				"y": -0.7288655302,
				"z": -2.2985583624,
				"element": "S" 
			},
			{
				"x": 0.5993770767,
				"y": -2.2539528842,
				"z": -1.3464966402,
				"element": "C" 
			},
			{
				"x": -0.8140707204,
				"y": -3.4523148748,
				"z": -1.6254013108,
				"element": "S" 
			},
			{
				"x": 0.846227813,
				"y": -2.0887470431,
				"z": 0.1309257474,
				"element": "C" 
			},
			{
				"x": 0.9704307549,
				"y": -0.9316382221,
				"z": 0.7905995569,
				"element": "C" 
			},
			{
				"x": 1.1805113984,
				"y": -0.7762047556,
				"z": 2.2419138963,
				"element": "C" 
			},
			{
				"x": 0.5117053004,
				"y": 0.2795127288,
				"z": 2.8891681599,
				"element": "C" 
			},
			{
				"x": 0.5742186845,
				"y": 0.4649500803,
				"z": 4.2678075036,
				"element": "C" 
			},
			{
				"x": 1.3101618667,
				"y": -0.4171575132,
				"z": 5.0611067585,
				"element": "C" 
			},
			{
				"x": 1.9962756681,
				"y": -1.4662078857,
				"z": 4.4564983794,
				"element": "C" 
			},
			{
				"x": 1.9494472062,
				"y": -1.6165386492,
				"z": 3.0710543405,
				"element": "C" 
			},
			{
				"x": 2.8165625795,
				"y": -2.6779295973,
				"z": 2.5219215216,
				"element": "N" 
			},
			{
				"x": 3.5009971537,
				"y": -2.4111420403,
				"z": 1.5383319664,
				"element": "O" 
			},
			{
				"x": 2.8278113473,
				"y": -3.7541772745,
				"z": 3.1210600264,
				"element": "O" 
			},
			{
				"x": -2.9963097559,
				"y": -1.8522107367,
				"z": -4.2692057463,
				"element": "H" 
			},
			{
				"x": -1.2753410536,
				"y": -2.2834404548,
				"z": -4.4113774647,
				"element": "H" 
			},
			{
				"x": -2.4802783646,
				"y": -3.5370254325,
				"z": -4.0771872601,
				"element": "H" 
			},
			{
				"x": -2.9771321593,
				"y": -2.4527784178,
				"z": -1.8565889024,
				"element": "H" 
			},
			{
				"x": -1.7836298585,
				"y": -0.6094534557,
				"z": -0.977121259,
				"element": "H" 
			},
			{
				"x": -2.0428068713,
				"y": -0.0987514041,
				"z": -2.6614943926,
				"element": "H" 
			},
			{
				"x": 1.4791931786,
				"y": -2.7077946782,
				"z": -1.8136812631,
				"element": "H" 
			},
			{
				"x": 0.9336132779,
				"y": -3.0353935994,
				"z": 0.6613186337,
				"element": "H" 
			},
			{
				"x": 0.8405855089,
				"y": -0.0034237295,
				"z": 0.2378821617,
				"element": "H" 
			},
			{
				"x": -0.0877041433,
				"y": 0.953020052,
				"z": 2.2833617464,
				"element": "H" 
			},
			{
				"x": 0.0405316661,
				"y": 1.2936477799,
				"z": 4.7233343759,
				"element": "H" 
			},
			{
				"x": 1.3589432382,
				"y": -0.286525723,
				"z": 6.1372251384,
				"element": "H" 
			},
			{
				"x": 2.5885206767,
				"y": -2.1641813188,
				"z": 5.0365111915,
				"element": "H" 
			}
		],
		 "valence_orbital": [ 
			{
				"type": "occ",
				"energy": -0.29037,
				"method": "rhf"
			},
			{
				"type": "occ",
				"energy": -0.26836,
				"method": "rhf"
			},
			{
				"type": "occ",
				"energy": -0.24612,
				"method": "rhf"
			},
			{
				"type": "occ",
				"energy": -0.23958,
				"method": "rhf"
			},
			{
				"type": "occ",
				"energy": -0.22807,
				"method": "rhf"
			},
			{
				"type": "unocc",
				"energy": -0.0813,
				"method": "rhf"
			},
			{
				"type": "unocc",
				"energy": -0.0401,
				"method": "rhf"
			},
			{
				"type": "unocc",
				"energy": -0.01628,
				"method": "rhf"
			},
			{
				"type": "unocc",
				"energy": -0.00524,
				"method": "rhf"
			},
			{
				"type": "unocc",
				"energy": 0.02441,
				"method": "rhf"
			}
		],
		"cosmo_sigma_profile": { 
			"-0.025": 0.0,
			"-0.024": 0.0,
			"-0.023": 0.0,
			"-0.022": 0.0,
			"-0.021": 0.0,
			"-0.02": 0.0,
			"-0.019": 0.0,
			"-0.018": 0.0,
			"-0.017": 0.0,
			"-0.016": 0.0,
			"-0.015": 0.0,
			"-0.014": 0.0,
			"-0.013": 0.0,
			"-0.012": 0.0,
			"-0.011": 0.0,
			"-0.01": 0.0,
			"-0.009": 0.0114228355529,
			"-0.008": 2.79393046601,
			"-0.007": 15.5317086848,
			"-0.006": 21.42869452,
			"-0.005": 22.4088660266,
			"-0.004": 22.0878287805,
			"-0.003": 20.725732516,
			"-0.002": 19.2474815636,
			"-0.001": 19.7588960384,
			"0.0": 21.3050268549,
			"0.001": 21.7194317019,
			"0.002": 21.7395723305,
			"0.003": 16.6723709616,
			"0.004": 11.421070712,
			"0.005": 12.1733223334,
			"0.006": 10.270510582,
			"0.007": 10.4006911483,
			"0.008": 13.4339165092,
			"0.009": 8.55723694424,
			"0.01": 3.52504014398,
			"0.011": 0.142187854543,
			"0.012": 0.0,
			"0.013": 0.0,
			"0.014": 0.0,
			"0.015": 0.0,
			"0.016": 0.0,
			"0.017": 0.0,
			"0.018": 0.0,
			"0.019": 0.0,
			"0.02": 0.0,
			"0.021": 0.0,
			"0.022": 0.0,
			"0.023": 0.0,
			"0.024": 0.0,
			"0.025": 0.0
		}
	}
}
