{
	 "smiles": "CC1=C2OC(=CC2=CC(Cl)=C1)C#N", 
	 "Tm": 387.15, 
	 "num_atms": 19, 
	 "gaussian": { 
		 "optdone": 1, 
		 "sigma_profile": "yes", 
		 "theory": "DFT", 
		 "functional": "B3LYP", 
		 "basiset": "6-31G**", 
		 "properties": { 
			 "R2extent": 3955.0569, 
			 "electric_dipole_moment_norm": 2.689222237, 
			 "electric_quadrupole_moment_norm": 20.9317952684, 
			 "total_energy": -974.821450334, 
			 "HOMO_LUMO_gap": 0.17603, 
			 "cosmo_polarized_energy": -8.26, 
			 "cosmo_cavitation_energy": 26.78, 
			 "cosmo_dispersion_energy": -19.29, 
			 "cosmo_repulsion_energy": 1.53, 
			 "cosmo_total_nonelectrostatic_energy": 9.01, 
			 "SMD_solvation_energy": 6.17 
		},
		"coords": [
			{
				"x": 2.2237216813,
				"y": 0.9795964313,
				"z": -2.0627669041,
				"element": "C" 
			},
			{
				"x": 1.3189740395,
				"y": -0.1725205235,
				"z": -1.7045669371,
				"element": "C" 
			},
			{
				"x": 1.2231865994,
				"y": -0.6747952193,
				"z": -0.4059717152,
				"element": "C" 
			},
			{
				"x": 1.9163032754,
				"y": -0.2010204535,
				"z": 0.6748954903,
				"element": "O" 
			},
			{
				"x": 1.5234582064,
				"y": -0.9765930824,
				"z": 1.74334068,
				"element": "C" 
			},
			{
				"x": 0.6083172924,
				"y": -1.9237507212,
				"z": 1.3821488906,
				"element": "C" 
			},
			{
				"x": 0.3925824929,
				"y": -1.7477868858,
				"z": -0.0263829746,
				"element": "C" 
			},
			{
				"x": -0.4074472135,
				"y": -2.3799206137,
				"z": -0.9912602847,
				"element": "C" 
			},
			{
				"x": -0.3237939501,
				"y": -1.8923188198,
				"z": -2.2876366537,
				"element": "C" 
			},
			{
				"x": -1.3004395843,
				"y": -2.639873081,
				"z": -3.5452836201,
				"element": "Cl" 
			},
			{
				"x": 0.5132666903,
				"y": -0.8185384907,
				"z": -2.6451038198,
				"element": "C" 
			},
			{
				"x": 2.1055651883,
				"y": -0.6844907554,
				"z": 3.0019341305,
				"element": "C" 
			},
			{
				"x": 2.5703295101,
				"y": -0.4629892423,
				"z": 4.0456315747,
				"element": "N" 
			},
			{
				"x": 2.7665207301,
				"y": 1.342269278,
				"z": -1.1880895784,
				"element": "H" 
			},
			{
				"x": 2.9574133256,
				"y": 0.6802203958,
				"z": -2.8184975322,
				"element": "H" 
			},
			{
				"x": 1.6484673176,
				"y": 1.8144390026,
				"z": -2.4764984541,
				"element": "H" 
			},
			{
				"x": 0.1535749486,
				"y": -2.6476842044,
				"z": 2.0423433869,
				"element": "H" 
			},
			{
				"x": -1.0606045602,
				"y": -3.2082564124,
				"z": -0.7438772381,
				"element": "H" 
			},
			{
				"x": 0.5289040102,
				"y": -0.4886866023,
				"z": -3.678658441,
				"element": "H" 
			}
		],
		 "valence_orbital": [ 
			{
				"type": "occ",
				"energy": -0.33704,
				"method": "rhf"
			},
			{
				"type": "occ",
				"energy": -0.32194,
				"method": "rhf"
			},
			{
				"type": "occ",
				"energy": -0.31029,
				"method": "rhf"
			},
			{
				"type": "occ",
				"energy": -0.2514,
				"method": "rhf"
			},
			{
				"type": "occ",
				"energy": -0.24837,
				"method": "rhf"
			},
			{
				"type": "unocc",
				"energy": -0.07234,
				"method": "rhf"
			},
			{
				"type": "unocc",
				"energy": -0.01585,
				"method": "rhf"
			},
			{
				"type": "unocc",
				"energy": -0.00143,
				"method": "rhf"
			},
			{
				"type": "unocc",
				"energy": 0.00152,
				"method": "rhf"
			},
			{
				"type": "unocc",
				"energy": 0.02048,
				"method": "rhf"
			}
		],
		"cosmo_sigma_profile": { 
			"-0.025": 0.0,
			"-0.024": 0.0,
			"-0.023": 0.0,
			"-0.022": 0.0,
			"-0.021": 0.0,
			"-0.02": 0.0,
			"-0.019": 0.0,
			"-0.018": 0.0,
			"-0.017": 0.0,
			"-0.016": 0.0,
			"-0.015": 0.0,
			"-0.014": 0.0,
			"-0.013": 0.0,
			"-0.012": 0.0,
			"-0.011": 0.0,
			"-0.01": 1.59655131685,
			"-0.009": 2.32354280977,
			"-0.008": 4.0149851178,
			"-0.007": 6.38257667244,
			"-0.006": 5.84855044378,
			"-0.005": 10.3051082701,
			"-0.004": 11.2787820169,
			"-0.003": 16.1789890693,
			"-0.002": 20.0863336364,
			"-0.001": 26.2124726394,
			"0.0": 22.3039772432,
			"0.001": 20.3584314368,
			"0.002": 19.0068762564,
			"0.003": 11.7258150607,
			"0.004": 13.5968261067,
			"0.005": 9.15165595,
			"0.006": 2.96288977096,
			"0.007": 3.15937012335,
			"0.008": 3.3233427579,
			"0.009": 2.90086404595,
			"0.01": 2.77516614908,
			"0.011": 2.3340803216,
			"0.012": 1.44175783302,
			"0.013": 0.0292925866735,
			"0.014": 0.0,
			"0.015": 0.0,
			"0.016": 0.0,
			"0.017": 0.0,
			"0.018": 0.0,
			"0.019": 0.0,
			"0.02": 0.0,
			"0.021": 0.0,
			"0.022": 0.0,
			"0.023": 0.0,
			"0.024": 0.0,
			"0.025": 0.0
		}
	}
}
