{
	 "smiles": "CC1=CSC=C1", 
	 "Tm": 204.15, 
	 "num_atms": 12, 
	 "gaussian": { 
		 "optdone": 1, 
		 "sigma_profile": "yes", 
		 "theory": "DFT", 
		 "functional": "B3LYP", 
		 "basiset": "6-31G**", 
		 "properties": { 
			 "R2extent": 963.0548, 
			 "electric_dipole_moment_norm": 0.978841876914, 
			 "electric_quadrupole_moment_norm": 5.39830638349, 
			 "total_energy": -592.323828981, 
			 "HOMO_LUMO_gap": 0.22379, 
			 "cosmo_polarized_energy": -3.33, 
			 "cosmo_cavitation_energy": 16.87, 
			 "cosmo_dispersion_energy": -13.35, 
			 "cosmo_repulsion_energy": 1.09, 
			 "cosmo_total_nonelectrostatic_energy": 4.62, 
			 "SMD_solvation_energy": 3.34 
		},
		"coords": [
			{
				"x": 0.0984188234,
				"y": 2.1900263269,
				"z": -0.8793951758,
				"element": "C" 
			},
			{
				"x": -0.6532933691,
				"y": 0.927205989,
				"z": -0.5532384261,
				"element": "C" 
			},
			{
				"x": -1.8482955202,
				"y": 0.8810288541,
				"z": 0.1147641774,
				"element": "C" 
			},
			{
				"x": -2.4301051639,
				"y": -0.7420017022,
				"z": 0.3179494397,
				"element": "S" 
			},
			{
				"x": -1.0459118501,
				"y": -1.3823367712,
				"z": -0.5090865937,
				"element": "C" 
			},
			{
				"x": -0.1991318464,
				"y": -0.3885306076,
				"z": -0.9090764314,
				"element": "C" 
			},
			{
				"x": 1.0967993859,
				"y": 2.188168325,
				"z": -0.426466208,
				"element": "H" 
			},
			{
				"x": 0.2356342173,
				"y": 2.3041140878,
				"z": -1.9611053444,
				"element": "H" 
			},
			{
				"x": -0.4314798875,
				"y": 3.0742456848,
				"z": -0.5153410884,
				"element": "H" 
			},
			{
				"x": -2.4231572714,
				"y": 1.7116839009,
				"z": 0.5013911086,
				"element": "H" 
			},
			{
				"x": -0.9424878965,
				"y": -2.4494542931,
				"z": -0.6485669916,
				"element": "H" 
			},
			{
				"x": 0.7265103786,
				"y": -0.5756497944,
				"z": -1.4435284665,
				"element": "H" 
			}
		],
		 "valence_orbital": [ 
			{
				"type": "occ",
				"energy": -0.36089,
				"method": "rhf"
			},
			{
				"type": "occ",
				"energy": -0.35984,
				"method": "rhf"
			},
			{
				"type": "occ",
				"energy": -0.33462,
				"method": "rhf"
			},
			{
				"type": "occ",
				"energy": -0.24016,
				"method": "rhf"
			},
			{
				"type": "occ",
				"energy": -0.22696,
				"method": "rhf"
			},
			{
				"type": "unocc",
				"energy": -0.00317,
				"method": "rhf"
			},
			{
				"type": "unocc",
				"energy": 0.03774,
				"method": "rhf"
			},
			{
				"type": "unocc",
				"energy": 0.06666,
				"method": "rhf"
			},
			{
				"type": "unocc",
				"energy": 0.09983,
				"method": "rhf"
			},
			{
				"type": "unocc",
				"energy": 0.11537,
				"method": "rhf"
			}
		],
		"cosmo_sigma_profile": { 
			"-0.025": 0.0,
			"-0.024": 0.0,
			"-0.023": 0.0,
			"-0.022": 0.0,
			"-0.021": 0.0,
			"-0.02": 0.0,
			"-0.019": 0.0,
			"-0.018": 0.0,
			"-0.017": 0.0,
			"-0.016": 0.0,
			"-0.015": 0.0,
			"-0.014": 0.0,
			"-0.013": 0.0,
			"-0.012": 0.0,
			"-0.011": 0.0,
			"-0.01": 0.0,
			"-0.009": 0.0323015355406,
			"-0.008": 1.71412905526,
			"-0.007": 3.75135539609,
			"-0.006": 5.43949571599,
			"-0.005": 5.75396646881,
			"-0.004": 11.5307870594,
			"-0.003": 10.9021269939,
			"-0.002": 13.5845516391,
			"-0.001": 11.6034634498,
			"0.0": 12.6718456352,
			"0.001": 9.28681204304,
			"0.002": 8.36993822416,
			"0.003": 9.53398095672,
			"0.004": 9.01667488127,
			"0.005": 13.9736203798,
			"0.006": 8.7068059037,
			"0.007": 0.854497603239,
			"0.008": 0.0,
			"0.009": 0.0,
			"0.01": 0.0,
			"0.011": 0.0,
			"0.012": 0.0,
			"0.013": 0.0,
			"0.014": 0.0,
			"0.015": 0.0,
			"0.016": 0.0,
			"0.017": 0.0,
			"0.018": 0.0,
			"0.019": 0.0,
			"0.02": 0.0,
			"0.021": 0.0,
			"0.022": 0.0,
			"0.023": 0.0,
			"0.024": 0.0,
			"0.025": 0.0
		}
	}
}
