{
	 "smiles": "SC1=NC2=C(C=CC=C2)C(=O)N1C1=NN=CN1", 
	 "Tm": 508.15, 
	 "num_atms": 24, 
	 "gaussian": { 
		 "optdone": 1, 
		 "sigma_profile": "yes", 
		 "theory": "DFT", 
		 "functional": "B3LYP", 
		 "basiset": "6-31G**", 
		 "properties": { 
			 "R2extent": 5233.043, 
			 "electric_dipole_moment_norm": 4.5147044931, 
			 "electric_quadrupole_moment_norm": 14.1383280023, 
			 "total_energy": -1132.44252934, 
			 "HOMO_LUMO_gap": 0.15629, 
			 "cosmo_polarized_energy": -14.43, 
			 "cosmo_cavitation_energy": 29.9, 
			 "cosmo_dispersion_energy": -23.52, 
			 "cosmo_repulsion_energy": 1.71, 
			 "cosmo_total_nonelectrostatic_energy": 8.08, 
			 "SMD_solvation_energy": 2.36 
		},
		"coords": [
			{
				"x": 0.5064354826,
				"y": 0.8792434238,
				"z": 3.3014764118,
				"element": "S" 
			},
			{
				"x": -0.3211083034,
				"y": 0.8842583707,
				"z": 1.7434559785,
				"element": "C" 
			},
			{
				"x": -1.436459268,
				"y": 0.2324771694,
				"z": 1.7477187958,
				"element": "N" 
			},
			{
				"x": -2.2076717737,
				"y": 0.1364929324,
				"z": 0.6174417452,
				"element": "C" 
			},
			{
				"x": -1.818781385,
				"y": 0.7419895625,
				"z": -0.592736089,
				"element": "C" 
			},
			{
				"x": -2.6249818885,
				"y": 0.6314781724,
				"z": -1.7419027737,
				"element": "C" 
			},
			{
				"x": -3.8107752239,
				"y": -0.0794526312,
				"z": -1.679499242,
				"element": "C" 
			},
			{
				"x": -4.2043162579,
				"y": -0.6874266641,
				"z": -0.4699256805,
				"element": "C" 
			},
			{
				"x": -3.41875727,
				"y": -0.5847664814,
				"z": 0.6656479519,
				"element": "C" 
			},
			{
				"x": -0.5742087935,
				"y": 1.4854950704,
				"z": -0.649283248,
				"element": "C" 
			},
			{
				"x": -0.1754362646,
				"y": 2.0393429449,
				"z": -1.67705233,
				"element": "O" 
			},
			{
				"x": 0.182421227,
				"y": 1.5445409333,
				"z": 0.571794215,
				"element": "N" 
			},
			{
				"x": 1.4046281423,
				"y": 2.2640781418,
				"z": 0.5497485325,
				"element": "C" 
			},
			{
				"x": 2.2453347403,
				"y": 2.4404685551,
				"z": 1.5529724111,
				"element": "N" 
			},
			{
				"x": 3.3009169222,
				"y": 3.1956232523,
				"z": 1.1062904093,
				"element": "N" 
			},
			{
				"x": 3.0680577901,
				"y": 3.4547826511,
				"z": -0.1564243318,
				"element": "C" 
			},
			{
				"x": 1.8914896344,
				"y": 2.8941458393,
				"z": -0.557071612,
				"element": "N" 
			},
			{
				"x": 1.586373368,
				"y": 1.6378563204,
				"z": 2.8901009761,
				"element": "H" 
			},
			{
				"x": -2.295022597,
				"y": 1.1102307489,
				"z": -2.6570914695,
				"element": "H" 
			},
			{
				"x": -4.4386040241,
				"y": -0.1699327589,
				"z": -2.5602081813,
				"element": "H" 
			},
			{
				"x": -5.1363850286,
				"y": -1.2437275633,
				"z": -0.4289014869,
				"element": "H" 
			},
			{
				"x": -3.7039024819,
				"y": -1.0450850916,
				"z": 1.6053396369,
				"element": "H" 
			},
			{
				"x": 3.7057871072,
				"y": 4.031059876,
				"z": -0.8100841041,
				"element": "H" 
			},
			{
				"x": 1.3887661459,
				"y": 2.8781272258,
				"z": -1.4426065154,
				"element": "H" 
			}
		],
		 "valence_orbital": [ 
			{
				"type": "occ",
				"energy": -0.28528,
				"method": "rhf"
			},
			{
				"type": "occ",
				"energy": -0.27698,
				"method": "rhf"
			},
			{
				"type": "occ",
				"energy": -0.27454,
				"method": "rhf"
			},
			{
				"type": "occ",
				"energy": -0.26376,
				"method": "rhf"
			},
			{
				"type": "occ",
				"energy": -0.22708,
				"method": "rhf"
			},
			{
				"type": "unocc",
				"energy": -0.07079,
				"method": "rhf"
			},
			{
				"type": "unocc",
				"energy": -0.04885,
				"method": "rhf"
			},
			{
				"type": "unocc",
				"energy": 0.00724,
				"method": "rhf"
			},
			{
				"type": "unocc",
				"energy": 0.01446,
				"method": "rhf"
			},
			{
				"type": "unocc",
				"energy": 0.01999,
				"method": "rhf"
			}
		],
		"cosmo_sigma_profile": { 
			"-0.025": 0.0,
			"-0.024": 0.0,
			"-0.023": 0.0,
			"-0.022": 0.0,
			"-0.021": 0.0,
			"-0.02": 0.0,
			"-0.019": 0.0,
			"-0.018": 0.0,
			"-0.017": 0.0,
			"-0.016": 0.0,
			"-0.015": 0.403478750858,
			"-0.014": 0.716148201922,
			"-0.013": 0.55614043011,
			"-0.012": 1.31545365019,
			"-0.011": 3.21016502948,
			"-0.01": 3.47031450152,
			"-0.009": 2.02983034536,
			"-0.008": 1.68660699102,
			"-0.007": 8.02954299483,
			"-0.006": 17.6480835214,
			"-0.005": 17.7748480362,
			"-0.004": 15.9631988485,
			"-0.003": 15.4923487404,
			"-0.002": 14.8167622648,
			"-0.001": 12.3143616902,
			"0.0": 16.5696335964,
			"0.001": 18.255772345,
			"0.002": 19.4297715429,
			"0.003": 15.9781747118,
			"0.004": 10.0460278207,
			"0.005": 10.319378557,
			"0.006": 9.16156516125,
			"0.007": 7.64189437072,
			"0.008": 4.69218113961,
			"0.009": 4.57682862827,
			"0.01": 4.35369664925,
			"0.011": 2.43222041652,
			"0.012": 2.56203216318,
			"0.013": 1.77527759328,
			"0.014": 0.939806611626,
			"0.015": 1.18848003647,
			"0.016": 0.194167281269,
			"0.017": 0.0,
			"0.018": 0.0,
			"0.019": 0.0,
			"0.02": 0.0,
			"0.021": 0.0,
			"0.022": 0.0,
			"0.023": 0.0,
			"0.024": 0.0,
			"0.025": 0.0
		}
	}
}
