{
	 "smiles": "O=CN1CCN(CC1)C=O", 
	 "Tm": 400.65, 
	 "num_atms": 20, 
	 "gaussian": { 
		 "optdone": 1, 
		 "sigma_profile": "yes", 
		 "theory": "DFT", 
		 "functional": "B3LYP", 
		 "basiset": "6-31G**", 
		 "properties": { 
			 "R2extent": 1914.1622, 
			 "electric_dipole_moment_norm": 3.93326861656, 
			 "electric_quadrupole_moment_norm": 21.1880049922, 
			 "total_energy": -494.618816341, 
			 "HOMO_LUMO_gap": 0.2609, 
			 "cosmo_polarized_energy": -17.91, 
			 "cosmo_cavitation_energy": 22.86, 
			 "cosmo_dispersion_energy": -16.82, 
			 "cosmo_repulsion_energy": 1.36, 
			 "cosmo_total_nonelectrostatic_energy": 7.4, 
			 "SMD_solvation_energy": 5.39 
		},
		"coords": [
			{
				"x": 2.1706975848,
				"y": -1.6256434174,
				"z": -1.4711461102,
				"element": "O" 
			},
			{
				"x": 2.1023719885,
				"y": -0.411192002,
				"z": -1.3766527593,
				"element": "C" 
			},
			{
				"x": 1.0488774214,
				"y": 0.2672138382,
				"z": -0.8370818513,
				"element": "N" 
			},
			{
				"x": -0.1166361764,
				"y": -0.484757362,
				"z": -0.3562888938,
				"element": "C" 
			},
			{
				"x": -0.8905565157,
				"y": 0.3219818648,
				"z": 0.6809452089,
				"element": "C" 
			},
			{
				"x": -1.2464607859,
				"y": 1.6444770932,
				"z": 0.1524507593,
				"element": "N" 
			},
			{
				"x": -0.4232109691,
				"y": 2.2143217688,
				"z": -0.9125722308,
				"element": "C" 
			},
			{
				"x": 1.0176656143,
				"y": 1.7265778128,
				"z": -0.7590520817,
				"element": "C" 
			},
			{
				"x": -2.3029007599,
				"y": 2.3158627573,
				"z": 0.6950404218,
				"element": "C" 
			},
			{
				"x": -3.0130205107,
				"y": 1.8861443031,
				"z": 1.5892214985,
				"element": "O" 
			},
			{
				"x": 2.9057366549,
				"y": 0.2679602917,
				"z": -1.7267613802,
				"element": "H" 
			},
			{
				"x": 0.2384513028,
				"y": -1.4239571978,
				"z": 0.0740655384,
				"element": "H" 
			},
			{
				"x": -0.7701744563,
				"y": -0.7444878305,
				"z": -1.199933915,
				"element": "H" 
			},
			{
				"x": -1.8132210519,
				"y": -0.1930274671,
				"z": 0.9581463465,
				"element": "H" 
			},
			{
				"x": -0.295609663,
				"y": 0.4314996783,
				"z": 1.5976474824,
				"element": "H" 
			},
			{
				"x": -0.4575819634,
				"y": 3.3064582362,
				"z": -0.8486239367,
				"element": "H" 
			},
			{
				"x": -0.7968170997,
				"y": 1.9260761495,
				"z": -1.905604525,
				"element": "H" 
			},
			{
				"x": 1.6408479214,
				"y": 2.1429367808,
				"z": -1.5567456695,
				"element": "H" 
			},
			{
				"x": 1.4188427014,
				"y": 2.08526608,
				"z": 0.1996852036,
				"element": "H" 
			},
			{
				"x": -2.4526012376,
				"y": 3.3113886221,
				"z": 0.2305608942,
				"element": "H" 
			}
		],
		 "valence_orbital": [ 
			{
				"type": "occ",
				"energy": -0.36694,
				"method": "rhf"
			},
			{
				"type": "occ",
				"energy": -0.2623,
				"method": "rhf"
			},
			{
				"type": "occ",
				"energy": -0.25924,
				"method": "rhf"
			},
			{
				"type": "occ",
				"energy": -0.25486,
				"method": "rhf"
			},
			{
				"type": "occ",
				"energy": -0.24959,
				"method": "rhf"
			},
			{
				"type": "unocc",
				"energy": 0.01131,
				"method": "rhf"
			},
			{
				"type": "unocc",
				"energy": 0.01934,
				"method": "rhf"
			},
			{
				"type": "unocc",
				"energy": 0.06451,
				"method": "rhf"
			},
			{
				"type": "unocc",
				"energy": 0.098,
				"method": "rhf"
			},
			{
				"type": "unocc",
				"energy": 0.10205,
				"method": "rhf"
			}
		],
		"cosmo_sigma_profile": { 
			"-0.025": 0.0,
			"-0.024": 0.0,
			"-0.023": 0.0,
			"-0.022": 0.0,
			"-0.021": 0.0,
			"-0.02": 0.0,
			"-0.019": 0.0,
			"-0.018": 0.0,
			"-0.017": 0.0,
			"-0.016": 0.0,
			"-0.015": 0.0,
			"-0.014": 0.0,
			"-0.013": 0.0,
			"-0.012": 0.0,
			"-0.011": 0.0,
			"-0.01": 0.0,
			"-0.009": 0.0725873835906,
			"-0.008": 4.298549248,
			"-0.007": 10.9971795616,
			"-0.006": 14.4731500879,
			"-0.005": 30.9047350453,
			"-0.004": 23.0927776433,
			"-0.003": 13.5439202832,
			"-0.002": 8.064344182,
			"-0.001": 9.47787619249,
			"0.0": 6.61474829317,
			"0.001": 4.8201921492,
			"0.002": 3.93649204709,
			"0.003": 2.13380391191,
			"0.004": 2.75055599356,
			"0.005": 2.96802437522,
			"0.006": 3.28643670729,
			"0.007": 2.23029988437,
			"0.008": 3.05213814255,
			"0.009": 2.88136352771,
			"0.01": 2.42327213931,
			"0.011": 3.59607876003,
			"0.012": 4.22459868183,
			"0.013": 9.34267996402,
			"0.014": 8.41755775093,
			"0.015": 1.85665880345,
			"0.016": 0.0,
			"0.017": 0.0,
			"0.018": 0.0,
			"0.019": 0.0,
			"0.02": 0.0,
			"0.021": 0.0,
			"0.022": 0.0,
			"0.023": 0.0,
			"0.024": 0.0,
			"0.025": 0.0
		}
	}
}
