{
	 "smiles": "CN(CCO)C1(CN)CCCCC1", 
	 "Tm": 347.15, 
	 "num_atms": 35, 
	 "gaussian": { 
		 "optdone": 1, 
		 "sigma_profile": "yes", 
		 "theory": "DFT", 
		 "functional": "B3LYP", 
		 "basiset": "6-31G**", 
		 "properties": { 
			 "R2extent": 2684.0431, 
			 "electric_dipole_moment_norm": 3.41386070161, 
			 "electric_quadrupole_moment_norm": 8.17320760656, 
			 "total_energy": -579.009848008, 
			 "HOMO_LUMO_gap": 0.26135, 
			 "cosmo_polarized_energy": -9.63, 
			 "cosmo_cavitation_energy": 31.36, 
			 "cosmo_dispersion_energy": -22.97, 
			 "cosmo_repulsion_energy": 1.81, 
			 "cosmo_total_nonelectrostatic_energy": 10.21, 
			 "SMD_solvation_energy": 3.79 
		},
		"coords": [
			{
				"x": -0.9462775542,
				"y": 1.7343757651,
				"z": -1.4929269875,
				"element": "C" 
			},
			{
				"x": -0.2003685839,
				"y": 0.8921497158,
				"z": -0.5505658268,
				"element": "N" 
			},
			{
				"x": -0.4748000714,
				"y": 1.441598998,
				"z": 0.7957754516,
				"element": "C" 
			},
			{
				"x": 0.4123708066,
				"y": 1.0413092602,
				"z": 1.979748151,
				"element": "C" 
			},
			{
				"x": 0.2031608938,
				"y": 1.9545623508,
				"z": 3.0564998834,
				"element": "O" 
			},
			{
				"x": -0.3786687766,
				"y": -0.5817358919,
				"z": -0.7808069212,
				"element": "C" 
			},
			{
				"x": -1.7679230249,
				"y": -1.1079503442,
				"z": -0.3113344856,
				"element": "C" 
			},
			{
				"x": -1.8898988458,
				"y": -1.2498145635,
				"z": 1.1481834419,
				"element": "N" 
			},
			{
				"x": 0.7678118769,
				"y": -1.3958519318,
				"z": -0.0939805564,
				"element": "C" 
			},
			{
				"x": 2.0372512714,
				"y": -1.609462266,
				"z": -0.9585775885,
				"element": "C" 
			},
			{
				"x": 2.2441148919,
				"y": -0.4777870817,
				"z": -1.9683534181,
				"element": "C" 
			},
			{
				"x": 1.0587989771,
				"y": -0.4330480964,
				"z": -2.9536030322,
				"element": "C" 
			},
			{
				"x": -0.2593584306,
				"y": -0.9031613873,
				"z": -2.2960708343,
				"element": "C" 
			},
			{
				"x": -0.7143471015,
				"y": 1.4911132014,
				"z": -2.5280574533,
				"element": "H" 
			},
			{
				"x": -2.0451483578,
				"y": 1.6842496399,
				"z": -1.3694295115,
				"element": "H" 
			},
			{
				"x": -0.6556506502,
				"y": 2.7772758762,
				"z": -1.3358589425,
				"element": "H" 
			},
			{
				"x": -1.5249313043,
				"y": 1.2830663345,
				"z": 1.0959866448,
				"element": "H" 
			},
			{
				"x": -0.3333755317,
				"y": 2.5242869234,
				"z": 0.7080050178,
				"element": "H" 
			},
			{
				"x": 0.2063936486,
				"y": 0.0173123017,
				"z": 2.3087011288,
				"element": "H" 
			},
			{
				"x": 1.4701969082,
				"y": 1.1244442028,
				"z": 1.7111844186,
				"element": "H" 
			},
			{
				"x": -0.6985433154,
				"y": 1.8150366668,
				"z": 3.3741683226,
				"element": "H" 
			},
			{
				"x": -1.9764210294,
				"y": -2.0492777496,
				"z": -0.8483815132,
				"element": "H" 
			},
			{
				"x": -2.5352607052,
				"y": -0.3960324144,
				"z": -0.6378520435,
				"element": "H" 
			},
			{
				"x": -1.3742381404,
				"y": -2.0679178123,
				"z": 1.4617388134,
				"element": "H" 
			},
			{
				"x": -2.8624059646,
				"y": -1.4220989235,
				"z": 1.3903869685,
				"element": "H" 
			},
			{
				"x": 0.3744127013,
				"y": -2.3842231965,
				"z": 0.1785454334,
				"element": "H" 
			},
			{
				"x": 1.0514009419,
				"y": -0.9196544859,
				"z": 0.8404262622,
				"element": "H" 
			},
			{
				"x": 2.9088812616,
				"y": -1.7079201755,
				"z": -0.3016518593,
				"element": "H" 
			},
			{
				"x": 1.9623233837,
				"y": -2.5603030099,
				"z": -1.5035253904,
				"element": "H" 
			},
			{
				"x": 3.1873259309,
				"y": -0.6110202331,
				"z": -2.5108271533,
				"element": "H" 
			},
			{
				"x": 2.3047572655,
				"y": 0.4729458226,
				"z": -1.4307048258,
				"element": "H" 
			},
			{
				"x": 1.2602926449,
				"y": -1.0867569745,
				"z": -3.8117191741,
				"element": "H" 
			},
			{
				"x": 0.9574002259,
				"y": 0.5780606937,
				"z": -3.3607668432,
				"element": "H" 
			},
			{
				"x": -0.3148937864,
				"y": -1.9956828505,
				"z": -2.3707595333,
				"element": "H" 
			},
			{
				"x": -1.126482456,
				"y": -0.5340883644,
				"z": -2.854396044,
				"element": "H" 
			}
		],
		 "valence_orbital": [ 
			{
				"type": "occ",
				"energy": -0.2959,
				"method": "rhf"
			},
			{
				"type": "occ",
				"energy": -0.28662,
				"method": "rhf"
			},
			{
				"type": "occ",
				"energy": -0.25471,
				"method": "rhf"
			},
			{
				"type": "occ",
				"energy": -0.2451,
				"method": "rhf"
			},
			{
				"type": "occ",
				"energy": -0.19538,
				"method": "rhf"
			},
			{
				"type": "unocc",
				"energy": 0.06597,
				"method": "rhf"
			},
			{
				"type": "unocc",
				"energy": 0.08074,
				"method": "rhf"
			},
			{
				"type": "unocc",
				"energy": 0.0933,
				"method": "rhf"
			},
			{
				"type": "unocc",
				"energy": 0.09779,
				"method": "rhf"
			},
			{
				"type": "unocc",
				"energy": 0.11193,
				"method": "rhf"
			}
		],
		"cosmo_sigma_profile": { 
			"-0.025": 0.0,
			"-0.024": 0.0,
			"-0.023": 0.0,
			"-0.022": 0.0,
			"-0.021": 0.0,
			"-0.02": 0.0,
			"-0.019": 0.0,
			"-0.018": 0.0,
			"-0.017": 0.0,
			"-0.016": 0.0,
			"-0.015": 0.501235016852,
			"-0.014": 0.80914075015,
			"-0.013": 1.05755039231,
			"-0.012": 0.852648571435,
			"-0.011": 0.512251841646,
			"-0.01": 0.993987099468,
			"-0.009": 2.17181832004,
			"-0.008": 3.89640514127,
			"-0.007": 3.28718514355,
			"-0.006": 4.17217929421,
			"-0.005": 4.52295119458,
			"-0.004": 5.10982699487,
			"-0.003": 15.5847850141,
			"-0.002": 34.2647872776,
			"-0.001": 39.5030743508,
			"0.0": 38.4031585473,
			"0.001": 30.0950314259,
			"0.002": 16.5003638129,
			"0.003": 5.64269493063,
			"0.004": 3.38449901403,
			"0.005": 3.42131888082,
			"0.006": 2.87160537908,
			"0.007": 3.31529713452,
			"0.008": 2.81422131934,
			"0.009": 3.16498011127,
			"0.01": 2.60230789233,
			"0.011": 2.34370717534,
			"0.012": 2.03208717066,
			"0.013": 1.68755965446,
			"0.014": 2.12717386349,
			"0.015": 1.64348859741,
			"0.016": 0.0199847415693,
			"0.017": 0.0,
			"0.018": 0.0,
			"0.019": 0.0,
			"0.02": 0.0,
			"0.021": 0.0,
			"0.022": 0.0,
			"0.023": 0.0,
			"0.024": 0.0,
			"0.025": 0.0
		}
	}
}
