{
	 "smiles": "CC1=NNC(C(O)=O)=C1O", 
	 "Tm": 458.15, 
	 "num_atms": 16, 
	 "gaussian": { 
		 "optdone": 1, 
		 "sigma_profile": "yes", 
		 "theory": "DFT", 
		 "functional": "B3LYP", 
		 "basiset": "6-31G**", 
		 "properties": { 
			 "R2extent": 1512.0477, 
			 "electric_dipole_moment_norm": 5.20360946459, 
			 "electric_quadrupole_moment_norm": 9.58166736221, 
			 "total_energy": -529.310176637, 
			 "HOMO_LUMO_gap": 0.20357, 
			 "cosmo_polarized_energy": -17.32, 
			 "cosmo_cavitation_energy": 20.81, 
			 "cosmo_dispersion_energy": -15.75, 
			 "cosmo_repulsion_energy": 1.3, 
			 "cosmo_total_nonelectrostatic_energy": 6.36, 
			 "SMD_solvation_energy": 4.3 
		},
		"coords": [
			{
				"x": -0.9320035716,
				"y": -1.9787173906,
				"z": -2.8278008814,
				"element": "C" 
			},
			{
				"x": -0.1468801775,
				"y": -1.3052251813,
				"z": -1.7452600211,
				"element": "C" 
			},
			{
				"x": 1.1924242818,
				"y": -1.3824652714,
				"z": -1.6944467968,
				"element": "N" 
			},
			{
				"x": 1.555752674,
				"y": -0.6791104109,
				"z": -0.619928981,
				"element": "N" 
			},
			{
				"x": 0.5021076717,
				"y": -0.1322889967,
				"z": 0.0517025587,
				"element": "C" 
			},
			{
				"x": 0.6889708302,
				"y": 0.6785092054,
				"z": 1.2617132791,
				"element": "C" 
			},
			{
				"x": -0.4417039767,
				"y": 1.1568904256,
				"z": 1.8270950647,
				"element": "O" 
			},
			{
				"x": 1.7843468236,
				"y": 0.9056380907,
				"z": 1.730351545,
				"element": "O" 
			},
			{
				"x": -0.6195236282,
				"y": -0.527483779,
				"z": -0.6641361528,
				"element": "C" 
			},
			{
				"x": -1.8907904935,
				"y": -0.1748609355,
				"z": -0.3033642767,
				"element": "O" 
			},
			{
				"x": -1.6320534512,
				"y": -2.7214381464,
				"z": -2.4257400232,
				"element": "H" 
			},
			{
				"x": -1.5097825597,
				"y": -1.2609111121,
				"z": -3.4230132797,
				"element": "H" 
			},
			{
				"x": -0.2464194513,
				"y": -2.4962810939,
				"z": -3.5017139983,
				"element": "H" 
			},
			{
				"x": 2.5260459066,
				"y": -0.5814500258,
				"z": -0.3581699277,
				"element": "H" 
			},
			{
				"x": -1.223825063,
				"y": 0.8762641909,
				"z": 1.3207217505,
				"element": "H" 
			},
			{
				"x": -2.5314658153,
				"y": -0.5447695691,
				"z": -0.9231098592,
				"element": "H" 
			}
		],
		 "valence_orbital": [ 
			{
				"type": "occ",
				"energy": -0.31404,
				"method": "rhf"
			},
			{
				"type": "occ",
				"energy": -0.30507,
				"method": "rhf"
			},
			{
				"type": "occ",
				"energy": -0.27745,
				"method": "rhf"
			},
			{
				"type": "occ",
				"energy": -0.264,
				"method": "rhf"
			},
			{
				"type": "occ",
				"energy": -0.243,
				"method": "rhf"
			},
			{
				"type": "unocc",
				"energy": -0.03943,
				"method": "rhf"
			},
			{
				"type": "unocc",
				"energy": 0.02622,
				"method": "rhf"
			},
			{
				"type": "unocc",
				"energy": 0.03867,
				"method": "rhf"
			},
			{
				"type": "unocc",
				"energy": 0.09141,
				"method": "rhf"
			},
			{
				"type": "unocc",
				"energy": 0.10871,
				"method": "rhf"
			}
		],
		"cosmo_sigma_profile": { 
			"-0.025": 0.0,
			"-0.024": 0.0,
			"-0.023": 0.0,
			"-0.022": 0.0,
			"-0.021": 0.0,
			"-0.02": 0.0,
			"-0.019": 0.211695847412,
			"-0.018": 0.824815561411,
			"-0.017": 1.32320374468,
			"-0.016": 1.72085160382,
			"-0.015": 1.9558262054,
			"-0.014": 1.67920920487,
			"-0.013": 1.68667909112,
			"-0.012": 2.44417783973,
			"-0.011": 2.52431652842,
			"-0.01": 2.16034369443,
			"-0.009": 2.49468307958,
			"-0.008": 2.48013816529,
			"-0.007": 4.45200961784,
			"-0.006": 5.42969338398,
			"-0.005": 7.96353018141,
			"-0.004": 8.04402887508,
			"-0.003": 9.92820676958,
			"-0.002": 10.4090508377,
			"-0.001": 12.5242399962,
			"0.0": 10.952505558,
			"0.001": 11.726675184,
			"0.002": 8.99333263253,
			"0.003": 6.75213259628,
			"0.004": 5.20140216544,
			"0.005": 4.25970283472,
			"0.006": 3.83308837438,
			"0.007": 3.71896376358,
			"0.008": 3.5262878983,
			"0.009": 4.70207195555,
			"0.01": 6.41469087395,
			"0.011": 5.66463943385,
			"0.012": 5.27405310941,
			"0.013": 2.51862738684,
			"0.014": 1.28323355685,
			"0.015": 0.471340324365,
			"0.016": 0.0,
			"0.017": 0.0,
			"0.018": 0.0,
			"0.019": 0.0,
			"0.02": 0.0,
			"0.021": 0.0,
			"0.022": 0.0,
			"0.023": 0.0,
			"0.024": 0.0,
			"0.025": 0.0
		}
	}
}
