{
	 "smiles": "OC(=O)C1=C(OCC(=O)NC2=CC(=CC=C2)C(F)(F)F)C=CC=C1", 
	 "Tm": 517.15, 
	 "num_atms": 36, 
	 "gaussian": { 
		 "optdone": 1, 
		 "sigma_profile": "yes", 
		 "theory": "DFT", 
		 "functional": "B3LYP", 
		 "basiset": "6-31G**", 
		 "properties": { 
			 "R2extent": 10225.1347, 
			 "electric_dipole_moment_norm": 4.3322596575, 
			 "electric_quadrupole_moment_norm": 13.1953838068, 
			 "total_energy": -1272.117013, 
			 "HOMO_LUMO_gap": 0.19717, 
			 "cosmo_polarized_energy": -19.93, 
			 "cosmo_cavitation_energy": 42.95, 
			 "cosmo_dispersion_energy": -29.02, 
			 "cosmo_repulsion_energy": 2.14, 
			 "cosmo_total_nonelectrostatic_energy": 16.07, 
			 "SMD_solvation_energy": 10.16 
		},
		"coords": [
			{
				"x": -0.9708100282,
				"y": -1.2631571092,
				"z": 2.3531825969,
				"element": "O" 
			},
			{
				"x": -1.5073957674,
				"y": -0.0241605387,
				"z": 2.4727295082,
				"element": "C" 
			},
			{
				"x": -2.7050235665,
				"y": 0.1272820542,
				"z": 2.6256946884,
				"element": "O" 
			},
			{
				"x": -0.5353788604,
				"y": 1.1037329114,
				"z": 2.3916405926,
				"element": "C" 
			},
			{
				"x": 0.8722992649,
				"y": 0.9957908402,
				"z": 2.3301116543,
				"element": "C" 
			},
			{
				"x": 1.5231508247,
				"y": -0.2184410585,
				"z": 2.3817432391,
				"element": "O" 
			},
			{
				"x": 1.6666435569,
				"y": -0.9327615927,
				"z": 1.1720366552,
				"element": "C" 
			},
			{
				"x": 2.8839120521,
				"y": -0.4563714436,
				"z": 0.367811229,
				"element": "C" 
			},
			{
				"x": 3.7418210095,
				"y": 0.2716598871,
				"z": 0.8383955512,
				"element": "O" 
			},
			{
				"x": 3.0007813377,
				"y": -0.877916436,
				"z": -0.9498014584,
				"element": "N" 
			},
			{
				"x": 2.1432883248,
				"y": -1.6035723665,
				"z": -1.8037621871,
				"element": "C" 
			},
			{
				"x": 1.3933650821,
				"y": -2.7064496207,
				"z": -1.3762752208,
				"element": "C" 
			},
			{
				"x": 0.5702054686,
				"y": -3.3815426883,
				"z": -2.279713582,
				"element": "C" 
			},
			{
				"x": 0.5052115445,
				"y": -2.9988686524,
				"z": -3.6198825557,
				"element": "C" 
			},
			{
				"x": 1.2778864695,
				"y": -1.9208212757,
				"z": -4.0519955617,
				"element": "C" 
			},
			{
				"x": 2.083852938,
				"y": -1.2254470803,
				"z": -3.1559436277,
				"element": "C" 
			},
			{
				"x": -0.1928837009,
				"y": -4.5940187403,
				"z": -1.8121388726,
				"element": "C" 
			},
			{
				"x": 0.5253986901,
				"y": -5.7273749532,
				"z": -1.9798153377,
				"element": "F" 
			},
			{
				"x": -1.3462135763,
				"y": -4.7531760945,
				"z": -2.4953773929,
				"element": "F" 
			},
			{
				"x": -0.5040988395,
				"y": -4.5171204661,
				"z": -0.4982010234,
				"element": "F" 
			},
			{
				"x": 1.6628508059,
				"y": 2.1493035997,
				"z": 2.3094870842,
				"element": "C" 
			},
			{
				"x": 1.0722472724,
				"y": 3.4100768229,
				"z": 2.3357797762,
				"element": "C" 
			},
			{
				"x": -0.3190882549,
				"y": 3.5333294452,
				"z": 2.3863400626,
				"element": "C" 
			},
			{
				"x": -1.1060071414,
				"y": 2.3893897795,
				"z": 2.4186602075,
				"element": "C" 
			},
			{
				"x": -1.7260968645,
				"y": -1.8709393577,
				"z": 2.4284994576,
				"element": "H" 
			},
			{
				"x": 0.7571973696,
				"y": -0.8891486294,
				"z": 0.5635506059,
				"element": "H" 
			},
			{
				"x": 1.816918826,
				"y": -1.9780769271,
				"z": 1.4600037916,
				"element": "H" 
			},
			{
				"x": 3.7909952285,
				"y": -0.4261559726,
				"z": -1.3956899914,
				"element": "H" 
			},
			{
				"x": 1.4503721396,
				"y": -3.0562910938,
				"z": -0.3545260557,
				"element": "H" 
			},
			{
				"x": -0.1396919726,
				"y": -3.5326929492,
				"z": -4.3083222586,
				"element": "H" 
			},
			{
				"x": 1.2412721019,
				"y": -1.6099234687,
				"z": -5.0913731632,
				"element": "H" 
			},
			{
				"x": 2.6649787778,
				"y": -0.3722009462,
				"z": -3.4948603615,
				"element": "H" 
			},
			{
				"x": 2.7371740187,
				"y": 2.0174653281,
				"z": 2.2628048158,
				"element": "H" 
			},
			{
				"x": 1.7000552794,
				"y": 4.2964745828,
				"z": 2.3176217375,
				"element": "H" 
			},
			{
				"x": -0.7846382126,
				"y": 4.5137192281,
				"z": 2.4086490199,
				"element": "H" 
			},
			{
				"x": -2.1869515981,
				"y": 2.4539049825,
				"z": 2.4756363768,
				"element": "H" 
			}
		],
		 "valence_orbital": [ 
			{
				"type": "occ",
				"energy": -0.279,
				"method": "rhf"
			},
			{
				"type": "occ",
				"energy": -0.27,
				"method": "rhf"
			},
			{
				"type": "occ",
				"energy": -0.26091,
				"method": "rhf"
			},
			{
				"type": "occ",
				"energy": -0.24805,
				"method": "rhf"
			},
			{
				"type": "occ",
				"energy": -0.24605,
				"method": "rhf"
			},
			{
				"type": "unocc",
				"energy": -0.04888,
				"method": "rhf"
			},
			{
				"type": "unocc",
				"energy": -0.0449,
				"method": "rhf"
			},
			{
				"type": "unocc",
				"energy": -0.0348,
				"method": "rhf"
			},
			{
				"type": "unocc",
				"energy": -0.00604,
				"method": "rhf"
			},
			{
				"type": "unocc",
				"energy": 0.01244,
				"method": "rhf"
			}
		],
		"cosmo_sigma_profile": { 
			"-0.025": 0.0,
			"-0.024": 0.0,
			"-0.023": 0.0,
			"-0.022": 0.0,
			"-0.021": 0.0,
			"-0.02": 0.0,
			"-0.019": 0.00866417083083,
			"-0.018": 0.7366802283,
			"-0.017": 0.709699756537,
			"-0.016": 1.23064505098,
			"-0.015": 0.852717631563,
			"-0.014": 1.91991820552,
			"-0.013": 1.87875322978,
			"-0.012": 1.0634924853,
			"-0.011": 3.62621468109,
			"-0.01": 3.60628660027,
			"-0.009": 3.44882191299,
			"-0.008": 4.75526789049,
			"-0.007": 10.7441062206,
			"-0.006": 17.2195524129,
			"-0.005": 18.5822931241,
			"-0.004": 18.8617273773,
			"-0.003": 17.0236982833,
			"-0.002": 19.1421930745,
			"-0.001": 20.4578054575,
			"0.0": 21.4031021888,
			"0.001": 29.2515465237,
			"0.002": 42.8135615333,
			"0.003": 48.9494846322,
			"0.004": 11.2645284615,
			"0.005": 4.22171564784,
			"0.006": 4.89619856249,
			"0.007": 3.80983245171,
			"0.008": 3.29674284474,
			"0.009": 4.41159173046,
			"0.01": 5.46684191592,
			"0.011": 8.82355493736,
			"0.012": 7.39291576488,
			"0.013": 2.45892564029,
			"0.014": 0.00950239602482,
			"0.015": 0.0,
			"0.016": 0.0,
			"0.017": 0.0,
			"0.018": 0.0,
			"0.019": 0.0,
			"0.02": 0.0,
			"0.021": 0.0,
			"0.022": 0.0,
			"0.023": 0.0,
			"0.024": 0.0,
			"0.0": 0.0
		}
	}
}
