{
	 "smiles": "CN1C(=NC2=C1C=CC=C2)C(=CC1=CC=C(F)C=C1)C#N", 
	 "Tm": 406.15, 
	 "num_atms": 33, 
	 "gaussian": { 
		 "optdone": 1, 
		 "sigma_profile": "yes", 
		 "theory": "DFT", 
		 "functional": "B3LYP", 
		 "basiset": "6-31G**", 
		 "properties": { 
			 "R2extent": 10287.6029, 
			 "electric_dipole_moment_norm": 1.94721642608, 
			 "electric_quadrupole_moment_norm": 13.8036146625, 
			 "total_energy": -919.115636231, 
			 "HOMO_LUMO_gap": 0.1278, 
			 "cosmo_polarized_energy": -12.68, 
			 "cosmo_cavitation_energy": 38.82, 
			 "cosmo_dispersion_energy": -27.51, 
			 "cosmo_repulsion_energy": 2.01, 
			 "cosmo_total_nonelectrostatic_energy": 13.32, 
			 "SMD_solvation_energy": 6.05 
		},
		"coords": [
			{
				"x": 0.4178309195,
				"y": -1.5947565156,
				"z": 0.6431304912,
				"element": "C" 
			},
			{
				"x": 1.1017331842,
				"y": -0.4534858968,
				"z": 0.0473442278,
				"element": "N" 
			},
			{
				"x": 0.7158477723,
				"y": 0.8801380818,
				"z": -0.0008607683,
				"element": "C" 
			},
			{
				"x": 1.5311531458,
				"y": 1.6272582429,
				"z": -0.7210000304,
				"element": "N" 
			},
			{
				"x": 2.5086507419,
				"y": 0.7692759475,
				"z": -1.1765826649,
				"element": "C" 
			},
			{
				"x": 2.2664548539,
				"y": -0.5415197187,
				"z": -0.7005061401,
				"element": "C" 
			},
			{
				"x": 3.1096873454,
				"y": -1.6141807874,
				"z": -1.0046340737,
				"element": "C" 
			},
			{
				"x": 4.2109419139,
				"y": -1.3373151994,
				"z": -1.810195523,
				"element": "C" 
			},
			{
				"x": 4.4661056625,
				"y": -0.0361988984,
				"z": -2.2927204473,
				"element": "C" 
			},
			{
				"x": 3.6261846127,
				"y": 1.0268559023,
				"z": -1.9840491241,
				"element": "C" 
			},
			{
				"x": -0.4764812226,
				"y": 1.4403338748,
				"z": 0.6645328299,
				"element": "C" 
			},
			{
				"x": -0.9941139095,
				"y": 2.6133235672,
				"z": 0.1926110597,
				"element": "C" 
			},
			{
				"x": -2.095459663,
				"y": 3.4496907641,
				"z": 0.6418687946,
				"element": "C" 
			},
			{
				"x": -2.3555169675,
				"y": 4.6118696905,
				"z": -0.1193971125,
				"element": "C" 
			},
			{
				"x": -3.3839027318,
				"y": 5.4866309135,
				"z": 0.2083538204,
				"element": "C" 
			},
			{
				"x": -4.169813767,
				"y": 5.1960102729,
				"z": 1.3187024503,
				"element": "C" 
			},
			{
				"x": -5.1693810003,
				"y": 6.0326827166,
				"z": 1.6487731627,
				"element": "F" 
			},
			{
				"x": -3.9513410022,
				"y": 4.0635700525,
				"z": 2.0996192174,
				"element": "C" 
			},
			{
				"x": -2.9195000304,
				"y": 3.1963521613,
				"z": 1.762362429,
				"element": "C" 
			},
			{
				"x": -0.9856134916,
				"y": 0.7778928486,
				"z": 1.8245041737,
				"element": "C" 
			},
			{
				"x": -1.3824139402,
				"y": 0.2315476361,
				"z": 2.7742911193,
				"element": "N" 
			},
			{
				"x": -0.662453436,
				"y": -1.4845998442,
				"z": 0.5485288474,
				"element": "H" 
			},
			{
				"x": 0.7171721854,
				"y": -2.4944455506,
				"z": 0.1024213248,
				"element": "H" 
			},
			{
				"x": 0.6662123559,
				"y": -1.7115449197,
				"z": 1.7017332794,
				"element": "H" 
			},
			{
				"x": 2.9297548095,
				"y": -2.6168665696,
				"z": -0.6297703225,
				"element": "H" 
			},
			{
				"x": 4.8926582204,
				"y": -2.1420074183,
				"z": -2.068975939,
				"element": "H" 
			},
			{
				"x": 5.3391847036,
				"y": 0.1331980949,
				"z": -2.9158090608,
				"element": "H" 
			},
			{
				"x": 3.8159910599,
				"y": 2.031001156,
				"z": -2.3489984897,
				"element": "H" 
			},
			{
				"x": -0.463683044,
				"y": 2.9905720761,
				"z": -0.678288891,
				"element": "H" 
			},
			{
				"x": -1.7324496386,
				"y": 4.8260272032,
				"z": -0.9829526712,
				"element": "H" 
			},
			{
				"x": -3.5832958669,
				"y": 6.3788434641,
				"z": -0.3746767405,
				"element": "H" 
			},
			{
				"x": -4.5870735543,
				"y": 3.8764416268,
				"z": 2.9580520016,
				"element": "H" 
			},
			{
				"x": -2.7572702207,
				"y": 2.3213050253,
				"z": 2.3777887696,
				"element": "H" 
			}
		],
		 "valence_orbital": [ 
			{
				"type": "occ",
				"energy": -0.27674,
				"method": "rhf"
			},
			{
				"type": "occ",
				"energy": -0.27638,
				"method": "rhf"
			},
			{
				"type": "occ",
				"energy": -0.25593,
				"method": "rhf"
			},
			{
				"type": "occ",
				"energy": -0.22749,
				"method": "rhf"
			},
			{
				"type": "occ",
				"energy": -0.21361,
				"method": "rhf"
			},
			{
				"type": "unocc",
				"energy": -0.08581,
				"method": "rhf"
			},
			{
				"type": "unocc",
				"energy": -0.02445,
				"method": "rhf"
			},
			{
				"type": "unocc",
				"energy": -0.0127,
				"method": "rhf"
			},
			{
				"type": "unocc",
				"energy": 0.01618,
				"method": "rhf"
			},
			{
				"type": "unocc",
				"energy": 0.01733,
				"method": "rhf"
			}
		],
		"cosmo_sigma_profile": { 
			"-0.025": 0.0,
			"-0.024": 0.0,
			"-0.023": 0.0,
			"-0.022": 0.0,
			"-0.021": 0.0,
			"-0.02": 0.0,
			"-0.019": 0.0,
			"-0.018": 0.0,
			"-0.017": 0.0,
			"-0.016": 0.0,
			"-0.015": 0.0,
			"-0.014": 0.0,
			"-0.013": 0.0,
			"-0.012": 0.0,
			"-0.011": 0.0,
			"-0.01": 0.0116321023557,
			"-0.009": 1.21699112266,
			"-0.008": 6.31156044243,
			"-0.007": 12.2383822707,
			"-0.006": 16.6748199348,
			"-0.005": 20.4087050985,
			"-0.004": 22.168897084,
			"-0.003": 25.2061922107,
			"-0.002": 21.3468921495,
			"-0.001": 24.3867097253,
			"0.0": 27.0648399238,
			"0.001": 24.0662221153,
			"0.002": 26.7639834812,
			"0.003": 19.1295309249,
			"0.004": 20.9653842679,
			"0.005": 12.8314818712,
			"0.006": 9.23082924969,
			"0.007": 3.49243462704,
			"0.008": 4.13970691545,
			"0.009": 3.09522786444,
			"0.01": 3.73879803068,
			"0.011": 3.2116978784,
			"0.012": 3.10101987318,
			"0.013": 1.83554401649,
			"0.014": 0.414464003635,
			"0.015": 0.820831910226,
			"0.016": 0.0459520176728,
			"0.017": 0.0,
			"0.018": 0.0,
			"0.019": 0.0,
			"0.02": 0.0,
			"0.021": 0.0,
			"0.022": 0.0,
			"0.023": 0.0,
			"0.024": 0.0,
			"0.025": 0.0
		}
	}
}
