{
	 "smiles": "OCC1=CSC(=N1)C1=CN=CC=C1", 
	 "Tm": 393.15, 
	 "num_atms": 21, 
	 "gaussian": { 
		 "optdone": 1, 
		 "sigma_profile": "yes", 
		 "theory": "DFT", 
		 "functional": "B3LYP", 
		 "basiset": "6-31G**", 
		 "properties": { 
			 "R2extent": 3337.1443, 
			 "electric_dipole_moment_norm": 1.06893388477, 
			 "electric_quadrupole_moment_norm": 19.9214642268, 
			 "total_energy": -930.672538346, 
			 "HOMO_LUMO_gap": 0.16745, 
			 "cosmo_polarized_energy": -10.57, 
			 "cosmo_cavitation_energy": 27.07, 
			 "cosmo_dispersion_energy": -20.65, 
			 "cosmo_repulsion_energy": 1.58, 
			 "cosmo_total_nonelectrostatic_energy": 8.0, 
			 "SMD_solvation_energy": 2.24 
		},
		"coords": [
			{
				"x": 0.459068989,
				"y": -3.3889854169,
				"z": 0.4086162778,
				"element": "O" 
			},
			{
				"x": 1.7156425287,
				"y": -2.7680757989,
				"z": 0.2050124493,
				"element": "C" 
			},
			{
				"x": 1.5730808573,
				"y": -1.4238343705,
				"z": -0.4634658276,
				"element": "C" 
			},
			{
				"x": 2.2830899634,
				"y": -0.9369944088,
				"z": -1.5244567223,
				"element": "C" 
			},
			{
				"x": 1.7619018715,
				"y": 0.6702186932,
				"z": -1.9093865699,
				"element": "S" 
			},
			{
				"x": 0.5878961108,
				"y": 0.5713988601,
				"z": -0.5962127505,
				"element": "C" 
			},
			{
				"x": 0.6251664619,
				"y": -0.5676742224,
				"z": 0.0471402086,
				"element": "N" 
			},
			{
				"x": -0.3288404152,
				"y": 1.6667768051,
				"z": -0.2628470306,
				"element": "C" 
			},
			{
				"x": -0.3888974838,
				"y": 2.8568489427,
				"z": -1.0068001486,
				"element": "C" 
			},
			{
				"x": -1.2094096984,
				"y": 3.8722176417,
				"z": -0.7309828572,
				"element": "N" 
			},
			{
				"x": -2.0252771096,
				"y": 3.7382868516,
				"z": 0.322529301,
				"element": "C" 
			},
			{
				"x": -2.0539084998,
				"y": 2.5996857816,
				"z": 1.1316533473,
				"element": "C" 
			},
			{
				"x": -1.1940345925,
				"y": 1.5489195332,
				"z": 0.8367839027,
				"element": "C" 
			},
			{
				"x": -0.1244545972,
				"y": -2.6997777303,
				"z": 0.7582742802,
				"element": "H" 
			},
			{
				"x": 2.2512222697,
				"y": -2.6346927476,
				"z": 1.1604257266,
				"element": "H" 
			},
			{
				"x": 2.3172588065,
				"y": -3.4394649629,
				"z": -0.4147075482,
				"element": "H" 
			},
			{
				"x": 3.0620743994,
				"y": -1.4227183009,
				"z": -2.0946312876,
				"element": "H" 
			},
			{
				"x": 0.2583561164,
				"y": 2.9957827911,
				"z": -1.872278322,
				"element": "H" 
			},
			{
				"x": -2.6849942283,
				"y": 4.5790501005,
				"z": 0.5281424164,
				"element": "H" 
			},
			{
				"x": -2.7357596522,
				"y": 2.542796271,
				"z": 1.9742724082,
				"element": "H" 
			},
			{
				"x": -1.1730820978,
				"y": 0.6434356876,
				"z": 1.4331187462,
				"element": "H" 
			}
		],
		 "valence_orbital": [ 
			{
				"type": "occ",
				"energy": -0.28947,
				"method": "rhf"
			},
			{
				"type": "occ",
				"energy": -0.28507,
				"method": "rhf"
			},
			{
				"type": "occ",
				"energy": -0.26874,
				"method": "rhf"
			},
			{
				"type": "occ",
				"energy": -0.26405,
				"method": "rhf"
			},
			{
				"type": "occ",
				"energy": -0.23524,
				"method": "rhf"
			},
			{
				"type": "unocc",
				"energy": -0.06779,
				"method": "rhf"
			},
			{
				"type": "unocc",
				"energy": -0.03149,
				"method": "rhf"
			},
			{
				"type": "unocc",
				"energy": 0.00691,
				"method": "rhf"
			},
			{
				"type": "unocc",
				"energy": 0.00953,
				"method": "rhf"
			},
			{
				"type": "unocc",
				"energy": 0.04488,
				"method": "rhf"
			}
		],
		"cosmo_sigma_profile": { 
			"-0.025": 0.0,
			"-0.024": 0.0,
			"-0.023": 0.0,
			"-0.022": 0.0,
			"-0.021": 0.0,
			"-0.02": 0.0,
			"-0.019": 0.0,
			"-0.018": 0.0,
			"-0.017": 0.0,
			"-0.016": 0.0,
			"-0.015": 0.0,
			"-0.014": 0.0,
			"-0.013": 0.0635260084673,
			"-0.012": 0.480368257776,
			"-0.011": 0.587127274899,
			"-0.01": 0.93138274275,
			"-0.009": 3.03912104965,
			"-0.008": 2.97036147974,
			"-0.007": 9.8876363672,
			"-0.006": 13.3905013145,
			"-0.005": 12.5099110242,
			"-0.004": 14.493944501,
			"-0.003": 15.0988052653,
			"-0.002": 12.0774228888,
			"-0.001": 14.2255892476,
			"0.0": 20.4852332398,
			"0.001": 27.3478554318,
			"0.002": 22.7711880653,
			"0.003": 11.9633290758,
			"0.004": 5.79212197653,
			"0.005": 4.92029613025,
			"0.006": 3.38357476952,
			"0.007": 3.23657107941,
			"0.008": 2.81727326761,
			"0.009": 2.92698658745,
			"0.01": 1.4609657424,
			"0.011": 2.48462171087,
			"0.012": 2.22195780143,
			"0.013": 3.52319843732,
			"0.014": 2.66049537533,
			"0.015": 0.868815448486,
			"0.016": 0.834395751639,
			"0.017": 0.00988041615735,
			"0.018": 0.0,
			"0.019": 0.0,
			"0.02": 0.0,
			"0.021": 0.0,
			"0.022": 0.0,
			"0.023": 0.0,
			"0.024": 0.0,
			"0.025": 0.0
		}
	}
}
