{
	 "smiles": "SC1=C2C=CC=CC2=NC(=N1)C1CC1", 
	 "Tm": 493.15, 
	 "num_atms": 24, 
	 "gaussian": { 
		 "optdone": 1, 
		 "sigma_profile": "yes", 
		 "theory": "DFT", 
		 "functional": "B3LYP", 
		 "basiset": "6-31G**", 
		 "properties": { 
			 "R2extent": 4253.7537, 
			 "electric_dipole_moment_norm": 0.897487208822, 
			 "electric_quadrupole_moment_norm": 8.52570321733, 
			 "total_energy": -932.87387956, 
			 "HOMO_LUMO_gap": 0.16557, 
			 "cosmo_polarized_energy": -7.33, 
			 "cosmo_cavitation_energy": 29.26, 
			 "cosmo_dispersion_energy": -22.19, 
			 "cosmo_repulsion_energy": 1.7, 
			 "cosmo_total_nonelectrostatic_energy": 8.77, 
			 "SMD_solvation_energy": 1.7 
		},
		"coords": [
			{
				"x": -2.0911805779,
				"y": -0.8033935094,
				"z": -3.8634639041,
				"element": "S" 
			},
			{
				"x": -1.1618265468,
				"y": -1.0344482001,
				"z": -2.3584412816,
				"element": "C" 
			},
			{
				"x": -1.1421459802,
				"y": 0.0033664952,
				"z": -1.3748602714,
				"element": "C" 
			},
			{
				"x": -1.8130903125,
				"y": 1.2461525969,
				"z": -1.4787810106,
				"element": "C" 
			},
			{
				"x": -1.7184237533,
				"y": 2.1701441008,
				"z": -0.4607262497,
				"element": "C" 
			},
			{
				"x": -0.950493733,
				"y": 1.8826308971,
				"z": 0.6940535131,
				"element": "C" 
			},
			{
				"x": -0.2885317804,
				"y": 0.681329836,
				"z": 0.819267499,
				"element": "C" 
			},
			{
				"x": -0.3672923648,
				"y": -0.2900467277,
				"z": -0.2125930466,
				"element": "C" 
			},
			{
				"x": 0.2953657322,
				"y": -1.4713657006,
				"z": -0.0677018043,
				"element": "N" 
			},
			{
				"x": 0.1942674095,
				"y": -2.3447561215,
				"z": -1.0515185681,
				"element": "C" 
			},
			{
				"x": -0.5183380147,
				"y": -2.1706307169,
				"z": -2.207798115,
				"element": "N" 
			},
			{
				"x": 0.9007403555,
				"y": -3.6432802113,
				"z": -0.9325330384,
				"element": "C" 
			},
			{
				"x": 2.2432872113,
				"y": -3.7033771048,
				"z": -0.2204380137,
				"element": "C" 
			},
			{
				"x": 1.0386413434,
				"y": -4.2990370984,
				"z": 0.4327987605,
				"element": "C" 
			},
			{
				"x": -1.7581083384,
				"y": -2.0123720062,
				"z": -4.352708937,
				"element": "H" 
			},
			{
				"x": -2.4025827611,
				"y": 1.4689349014,
				"z": -2.3632634005,
				"element": "H" 
			},
			{
				"x": -2.2331977191,
				"y": 3.1224934337,
				"z": -0.5414466967,
				"element": "H" 
			},
			{
				"x": -0.8854957043,
				"y": 2.6211366984,
				"z": 1.488036928,
				"element": "H" 
			},
			{
				"x": 0.3050160044,
				"y": 0.4404959531,
				"z": 1.6948741174,
				"element": "H" 
			},
			{
				"x": 0.7568075203,
				"y": -4.2918006079,
				"z": -1.7893993161,
				"element": "H" 
			},
			{
				"x": 2.613483629,
				"y": -2.7633972641,
				"z": 0.1753114506,
				"element": "H" 
			},
			{
				"x": 2.9966616769,
				"y": -4.3638919833,
				"z": -0.6386998576,
				"element": "H" 
			},
			{
				"x": 0.9425315969,
				"y": -5.3796612446,
				"z": 0.4751300734,
				"element": "H" 
			},
			{
				"x": 0.6024051072,
				"y": -3.7577264156,
				"z": 1.2658011694,
				"element": "H" 
			}
		],
		 "valence_orbital": [ 
			{
				"type": "occ",
				"energy": -0.29212,
				"method": "rhf"
			},
			{
				"type": "occ",
				"energy": -0.26395,
				"method": "rhf"
			},
			{
				"type": "occ",
				"energy": -0.26342,
				"method": "rhf"
			},
			{
				"type": "occ",
				"energy": -0.24805,
				"method": "rhf"
			},
			{
				"type": "occ",
				"energy": -0.22861,
				"method": "rhf"
			},
			{
				"type": "unocc",
				"energy": -0.06304,
				"method": "rhf"
			},
			{
				"type": "unocc",
				"energy": -0.02693,
				"method": "rhf"
			},
			{
				"type": "unocc",
				"energy": 0.01387,
				"method": "rhf"
			},
			{
				"type": "unocc",
				"energy": 0.01499,
				"method": "rhf"
			},
			{
				"type": "unocc",
				"energy": 0.067,
				"method": "rhf"
			}
		],
		"cosmo_sigma_profile": { 
			"-0.025": 0.0,
			"-0.024": 0.0,
			"-0.023": 0.0,
			"-0.022": 0.0,
			"-0.021": 0.0,
			"-0.02": 0.0,
			"-0.019": 0.0,
			"-0.018": 0.0,
			"-0.017": 0.0,
			"-0.016": 0.0,
			"-0.015": 0.0,
			"-0.014": 0.0,
			"-0.013": 0.0,
			"-0.012": 0.0874978338947,
			"-0.011": 1.26048503223,
			"-0.01": 1.17623545698,
			"-0.009": 1.34191467082,
			"-0.008": 0.958551086757,
			"-0.007": 4.8172004186,
			"-0.006": 10.3128622014,
			"-0.005": 14.9039347784,
			"-0.004": 16.4293167759,
			"-0.003": 15.8440916386,
			"-0.002": 15.2445787296,
			"-0.001": 19.3147294986,
			"0.0": 22.5835356573,
			"0.001": 22.2939652281,
			"0.002": 26.7958570415,
			"0.003": 24.6823813064,
			"0.004": 13.6501981448,
			"0.005": 7.58668005392,
			"0.006": 5.29507871209,
			"0.007": 4.6284394252,
			"0.008": 2.23608388298,
			"0.009": 1.61239298511,
			"0.01": 1.77053098912,
			"0.011": 1.75770146466,
			"0.012": 0.312564177956,
			"0.013": 0.0228495890232,
			"0.014": 0.0,
			"0.015": 0.0,
			"0.016": 0.0,
			"0.017": 0.0,
			"0.018": 0.0,
			"0.019": 0.0,
			"0.02": 0.0,
			"0.021": 0.0,
			"0.022": 0.0,
			"0.023": 0.0,
			"0.024": 0.0,
			"0.025": 0.0
		}
	}
}
