{
	 "smiles": "CCC1(CC)NC(=O)N(CC(O)=O)C1=O", 
	 "Tm": 444.15, 
	 "num_atms": 29, 
	 "gaussian": { 
		 "optdone": 1, 
		 "sigma_profile": "yes", 
		 "theory": "DFT", 
		 "functional": "B3LYP", 
		 "basiset": "6-31G**", 
		 "properties": { 
			 "R2extent": 4417.0696, 
			 "electric_dipole_moment_norm": 4.1665693034, 
			 "electric_quadrupole_moment_norm": 14.7981753456, 
			 "total_energy": -761.861710801, 
			 "HOMO_LUMO_gap": 0.25056, 
			 "cosmo_polarized_energy": -19.17, 
			 "cosmo_cavitation_energy": 32.35, 
			 "cosmo_dispersion_energy": -22.02, 
			 "cosmo_repulsion_energy": 1.75, 
			 "cosmo_total_nonelectrostatic_energy": 12.07, 
			 "SMD_solvation_energy": 7.91 
		},
		"coords": [
			{
				"x": -1.9335739868,
				"y": -1.789835091,
				"z": 0.0750366167,
				"element": "C" 
			},
			{
				"x": -0.5038827367,
				"y": -1.8517652751,
				"z": 0.6233490998,
				"element": "C" 
			},
			{
				"x": 0.3022310518,
				"y": -0.5280888483,
				"z": 0.544072996,
				"element": "C" 
			},
			{
				"x": 0.3657762938,
				"y": 0.0913028427,
				"z": -0.871391461,
				"element": "C" 
			},
			{
				"x": 1.0017930992,
				"y": -0.8090582858,
				"z": -1.934420531,
				"element": "C" 
			},
			{
				"x": 1.6409090268,
				"y": -0.712916845,
				"z": 1.1153335369,
				"element": "N" 
			},
			{
				"x": 1.8439464635,
				"y": -0.0370935436,
				"z": 2.286367686,
				"element": "C" 
			},
			{
				"x": 2.8079602583,
				"y": -0.05625687,
				"z": 3.0257831424,
				"element": "O" 
			},
			{
				"x": 0.6688998976,
				"y": 0.72449733,
				"z": 2.500030445,
				"element": "N" 
			},
			{
				"x": 0.5475228128,
				"y": 1.6953895212,
				"z": 3.5592197465,
				"element": "C" 
			},
			{
				"x": 0.7601285856,
				"y": 3.145362237,
				"z": 3.1381992749,
				"element": "C" 
			},
			{
				"x": 1.3084137273,
				"y": 3.2661048075,
				"z": 1.9113371041,
				"element": "O" 
			},
			{
				"x": 0.4886638037,
				"y": 4.0838601792,
				"z": 3.8492659211,
				"element": "O" 
			},
			{
				"x": -0.2754461071,
				"y": 0.5202559877,
				"z": 1.5154532272,
				"element": "C" 
			},
			{
				"x": -1.3540634904,
				"y": 1.0781652022,
				"z": 1.4414250353,
				"element": "O" 
			},
			{
				"x": -1.9468081585,
				"y": -1.6178286466,
				"z": -1.0056142132,
				"element": "H" 
			},
			{
				"x": -2.4460108095,
				"y": -2.7383318495,
				"z": 0.2630591746,
				"element": "H" 
			},
			{
				"x": -2.5040876861,
				"y": -0.9883954221,
				"z": 0.5499150605,
				"element": "H" 
			},
			{
				"x": -0.5214715511,
				"y": -2.1641092299,
				"z": 1.6745597212,
				"element": "H" 
			},
			{
				"x": 0.0668382752,
				"y": -2.6220041012,
				"z": 0.0890357272,
				"element": "H" 
			},
			{
				"x": -0.6515552246,
				"y": 0.3706834123,
				"z": -1.1623170282,
				"element": "H" 
			},
			{
				"x": 0.9349992936,
				"y": 1.0246757115,
				"z": -0.7949144197,
				"element": "H" 
			},
			{
				"x": 1.0559262129,
				"y": -0.2822079113,
				"z": -2.8917690798,
				"element": "H" 
			},
			{
				"x": 0.4280395479,
				"y": -1.7267192536,
				"z": -2.0981262467,
				"element": "H" 
			},
			{
				"x": 2.0248523792,
				"y": -1.0918436667,
				"z": -1.6626675877,
				"element": "H" 
			},
			{
				"x": 2.2604924563,
				"y": -1.4674496819,
				"z": 0.8637724931,
				"element": "H" 
			},
			{
				"x": -0.4420922986,
				"y": 1.6330827614,
				"z": 4.0168467379,
				"element": "H" 
			},
			{
				"x": 1.301854019,
				"y": 1.4531008251,
				"z": 4.3137750458,
				"element": "H" 
			},
			{
				"x": 1.4096448449,
				"y": 4.2200237041,
				"z": 1.7536827753,
				"element": "H" 
			}
		],
		 "valence_orbital": [ 
			{
				"type": "occ",
				"energy": -0.30284,
				"method": "rhf"
			},
			{
				"type": "occ",
				"energy": -0.28948,
				"method": "rhf"
			},
			{
				"type": "occ",
				"energy": -0.27345,
				"method": "rhf"
			},
			{
				"type": "occ",
				"energy": -0.26663,
				"method": "rhf"
			},
			{
				"type": "occ",
				"energy": -0.26194,
				"method": "rhf"
			},
			{
				"type": "unocc",
				"energy": -0.01138,
				"method": "rhf"
			},
			{
				"type": "unocc",
				"energy": 0.00283,
				"method": "rhf"
			},
			{
				"type": "unocc",
				"energy": 0.05041,
				"method": "rhf"
			},
			{
				"type": "unocc",
				"energy": 0.06252,
				"method": "rhf"
			},
			{
				"type": "unocc",
				"energy": 0.06967,
				"method": "rhf"
			}
		],
		"cosmo_sigma_profile": { 
			"-0.025": 0.0,
			"-0.024": 0.0,
			"-0.023": 0.0,
			"-0.022": 0.0,
			"-0.021": 0.0,
			"-0.02": 0.0,
			"-0.019": 0.420508887688,
			"-0.018": 1.03988527144,
			"-0.017": 0.762360462382,
			"-0.016": 1.27158914146,
			"-0.015": 1.36565479737,
			"-0.014": 1.37054143573,
			"-0.013": 1.43105698636,
			"-0.012": 1.52431128954,
			"-0.011": 2.14436168674,
			"-0.01": 2.23158064171,
			"-0.009": 2.7326781052,
			"-0.008": 5.33540624794,
			"-0.007": 6.00586664597,
			"-0.006": 6.85975468095,
			"-0.005": 8.20540416172,
			"-0.004": 16.7386961231,
			"-0.003": 26.2997723826,
			"-0.002": 23.4565859619,
			"-0.001": 26.3497477756,
			"0.0": 22.1556582573,
			"0.001": 17.1141914451,
			"0.002": 9.2347479625,
			"0.003": 7.68486931055,
			"0.004": 7.86934402887,
			"0.005": 5.03427635695,
			"0.006": 5.17963181092,
			"0.007": 5.3246322045,
			"0.008": 3.15905656323,
			"0.009": 4.36061291345,
			"0.01": 6.34660066421,
			"0.011": 9.92757554169,
			"0.012": 10.0285427365,
			"0.013": 3.72070896263,
			"0.014": 0.267012504133,
			"0.015": 0.0,
			"0.016": 0.0,
			"0.017": 0.0,
			"0.018": 0.0,
			"0.019": 0.0,
			"0.02": 0.0,
			"0.021": 0.0,
			"0.022": 0.0,
			"0.023": 0.0,
			"0.024": 0.0,
			"0.025": 0.0
		}
	}
}
