{
	 "smiles": "C(OC1=CC=C2NC=CC2=C1)C1=CC=CC=C1", 
	 "Tm": 373.15, 
	 "num_atms": 30, 
	 "gaussian": { 
		 "optdone": 1, 
		 "sigma_profile": "yes", 
		 "theory": "DFT", 
		 "functional": "B3LYP", 
		 "basiset": "6-31G**", 
		 "properties": { 
			 "R2extent": 7072.0911, 
			 "electric_dipole_moment_norm": 2.6551587881, 
			 "electric_quadrupole_moment_norm": 18.146893195, 
			 "total_energy": -709.396383087, 
			 "HOMO_LUMO_gap": 0.18298, 
			 "cosmo_polarized_energy": -12.47, 
			 "cosmo_cavitation_energy": 34.0, 
			 "cosmo_dispersion_energy": -25.15, 
			 "cosmo_repulsion_energy": 1.92, 
			 "cosmo_total_nonelectrostatic_energy": 10.77, 
			 "SMD_solvation_energy": 5.68 
		},
		"coords": [
			{
				"x": -0.5808553544,
				"y": 0.7647991563,
				"z": 1.7222359535,
				"element": "C" 
			},
			{
				"x": -1.025468428,
				"y": 1.0643898146,
				"z": 0.408565721,
				"element": "O" 
			},
			{
				"x": -1.2864411106,
				"y": 0.0258004349,
				"z": -0.4547546145,
				"element": "C" 
			},
			{
				"x": -1.064457352,
				"y": -1.3320983774,
				"z": -0.1334373416,
				"element": "C" 
			},
			{
				"x": -1.3464588234,
				"y": -2.3362824454,
				"z": -1.0575207354,
				"element": "C" 
			},
			{
				"x": -1.849690166,
				"y": -1.9650439886,
				"z": -2.3034492122,
				"element": "C" 
			},
			{
				"x": -2.2143941785,
				"y": -2.7281151886,
				"z": -3.3990076881,
				"element": "N" 
			},
			{
				"x": -2.6572557854,
				"y": -1.8913832892,
				"z": -4.405150493,
				"element": "C" 
			},
			{
				"x": -2.5899353135,
				"y": -0.5879351263,
				"z": -3.987081183,
				"element": "C" 
			},
			{
				"x": -2.0762317421,
				"y": -0.6006628549,
				"z": -2.644343309,
				"element": "C" 
			},
			{
				"x": -1.7883266134,
				"y": 0.395648617,
				"z": -1.7010336626,
				"element": "C" 
			},
			{
				"x": -0.4569678683,
				"y": 2.046989604,
				"z": 2.5136189333,
				"element": "C" 
			},
			{
				"x": 0.4731830495,
				"y": 2.130487579,
				"z": 3.5560953275,
				"element": "C" 
			},
			{
				"x": 0.5642799223,
				"y": 3.283210394,
				"z": 4.337256566,
				"element": "C" 
			},
			{
				"x": -0.2698444227,
				"y": 4.3717052746,
				"z": 4.0763795146,
				"element": "C" 
			},
			{
				"x": -1.1940448219,
				"y": 4.2976274425,
				"z": 3.0323009447,
				"element": "C" 
			},
			{
				"x": -1.2907933864,
				"y": 3.1413382294,
				"z": 2.2572061666,
				"element": "C" 
			},
			{
				"x": -1.2987307352,
				"y": 0.0875146523,
				"z": 2.2128264874,
				"element": "H" 
			},
			{
				"x": 0.388363578,
				"y": 0.2449755456,
				"z": 1.6951991462,
				"element": "H" 
			},
			{
				"x": -0.6683022367,
				"y": -1.6103621569,
				"z": 0.8352219926,
				"element": "H" 
			},
			{
				"x": -1.173069557,
				"y": -3.3780360311,
				"z": -0.8024089433,
				"element": "H" 
			},
			{
				"x": -2.1635172497,
				"y": -3.7314302336,
				"z": -3.4560757089,
				"element": "H" 
			},
			{
				"x": -2.9886160429,
				"y": -2.2997309442,
				"z": -5.3494805393,
				"element": "H" 
			},
			{
				"x": -2.8723526461,
				"y": 0.2794369824,
				"z": -4.5662903588,
				"element": "H" 
			},
			{
				"x": -1.9444483254,
				"y": 1.4481722948,
				"z": -1.9141984522,
				"element": "H" 
			},
			{
				"x": 1.1339516839,
				"y": 1.2898894021,
				"z": 3.7563176633,
				"element": "H" 
			},
			{
				"x": 1.2925103034,
				"y": 3.3340006704,
				"z": 5.1418765715,
				"element": "H" 
			},
			{
				"x": -0.1964108416,
				"y": 5.2726884113,
				"z": 4.678776255,
				"element": "H" 
			},
			{
				"x": -1.8426063066,
				"y": 5.1430582394,
				"z": 2.8197125084,
				"element": "H" 
			},
			{
				"x": -2.0018692292,
				"y": 3.0832478914,
				"z": 1.4403424904,
				"element": "H" 
			}
		],
		 "valence_orbital": [ 
			{
				"type": "occ",
				"energy": -0.26997,
				"method": "rhf"
			},
			{
				"type": "occ",
				"energy": -0.24509,
				"method": "rhf"
			},
			{
				"type": "occ",
				"energy": -0.23902,
				"method": "rhf"
			},
			{
				"type": "occ",
				"energy": -0.20494,
				"method": "rhf"
			},
			{
				"type": "occ",
				"energy": -0.19053,
				"method": "rhf"
			},
			{
				"type": "unocc",
				"energy": -0.00755,
				"method": "rhf"
			},
			{
				"type": "unocc",
				"energy": 0.00294,
				"method": "rhf"
			},
			{
				"type": "unocc",
				"energy": 0.00354,
				"method": "rhf"
			},
			{
				"type": "unocc",
				"energy": 0.04309,
				"method": "rhf"
			},
			{
				"type": "unocc",
				"energy": 0.07616,
				"method": "rhf"
			}
		],
		"cosmo_sigma_profile": { 
			"-0.025": 0.0,
			"-0.024": 0.0,
			"-0.023": 0.0,
			"-0.022": 0.0,
			"-0.021": 0.0,
			"-0.02": 0.0,
			"-0.019": 0.0,
			"-0.018": 0.0,
			"-0.017": 0.0,
			"-0.016": 0.226363401445,
			"-0.015": 1.57208521875,
			"-0.014": 1.04612504914,
			"-0.013": 1.63844953918,
			"-0.012": 1.16213150701,
			"-0.011": 1.1125757393,
			"-0.01": 1.30488783885,
			"-0.009": 1.1587067015,
			"-0.008": 3.04303805017,
			"-0.007": 3.43475384682,
			"-0.006": 12.9215530865,
			"-0.005": 24.7296149689,
			"-0.004": 22.2880070967,
			"-0.003": 20.7100527236,
			"-0.002": 16.7321667621,
			"-0.001": 15.6832481956,
			"0.0": 14.4381394465,
			"0.001": 13.4493751949,
			"0.002": 13.4363340485,
			"0.003": 16.2696794285,
			"0.004": 18.6277094867,
			"0.005": 25.0236740405,
			"0.006": 28.1057107012,
			"0.007": 10.2346333165,
			"0.008": 1.97647768853,
			"0.009": 0.679524108928,
			"0.01": 0.98309107005,
			"0.011": 0.164074716658,
			"0.012": 0.0,
			"0.013": 0.0,
			"0.014": 0.0,
			"0.015": 0.0,
			"0.016": 0.0,
			"0.017": 0.0,
			"0.018": 0.0,
			"0.019": 0.0,
			"0.02": 0.0,
			"0.021": 0.0,
			"0.022": 0.0,
			"0.023": 0.0,
			"0.024": 0.0,
			"0.025": 0.0
		}
	}
}
