{
	 "smiles": "FC1=C(C=O)C=C(I)C=C1", 
	 "Tm": 317.15, 
	 "num_atms": 14, 
	 "gaussian": { 
		 "optdone": 1, 
		 "sigma_profile": "no", 
		 "theory": "DFT", 
		 "functional": "B3LYP", 
		 "basiset": "6-31G**", 
		 "properties": { 
			 "R2extent": 1611.2979, 
			 "electric_dipole_moment_norm": 2.78295710711, 
			 "electric_quadrupole_moment_norm": 8.7416199088, 
			 "total_energy": -455.581589207, 
			 "HOMO_LUMO_gap": 0.1733, 
			 "cosmo_polarized_energy": -96929.2, 
			 "cosmo_cavitation_energy": 22.7, 
			 "cosmo_dispersion_energy": -17.91, 
			 "cosmo_repulsion_energy": 1.39, 
			 "cosmo_total_nonelectrostatic_energy": 6.18, 
			 "SMD_solvation_energy": 4.56 
		},
		"coords": [
			{
				"x": 0.2111628082,
				"y": 1.7867822623,
				"z": -0.602262619,
				"element": "F" 
			},
			{
				"x": -0.0035442465,
				"y": 0.4995710598,
				"z": -0.3170580938,
				"element": "C" 
			},
			{
				"x": 0.8266314404,
				"y": -0.1690522531,
				"z": 0.5965636122,
				"element": "C" 
			},
			{
				"x": 1.9680936395,
				"y": 0.473354912,
				"z": 1.29524293,
				"element": "C" 
			},
			{
				"x": 2.3220726651,
				"y": 1.6262005979,
				"z": 1.1717573744,
				"element": "O" 
			},
			{
				"x": 0.5613005162,
				"y": -1.5217680565,
				"z": 0.8638504758,
				"element": "C" 
			},
			{
				"x": -0.4952486596,
				"y": -2.1764038501,
				"z": 0.2387473286,
				"element": "C" 
			},
			{
				"x": -0.8723041856,
				"y": -4.2164725546,
				"z": 0.6607305577,
				"element": "I" 
			},
			{
				"x": -1.3104580484,
				"y": -1.4916940564,
				"z": -0.6683853978,
				"element": "C" 
			},
			{
				"x": -1.0609533821,
				"y": -0.1476089779,
				"z": -0.9455178758,
				"element": "C" 
			},
			{
				"x": 2.5045826772,
				"y": -0.2227746468,
				"z": 1.9793557467,
				"element": "H" 
			},
			{
				"x": 1.1986716724,
				"y": -2.0465028868,
				"z": 1.5693335129,
				"element": "H" 
			},
			{
				"x": -2.1351636708,
				"y": -1.9968840072,
				"z": -1.158338006,
				"element": "H" 
			},
			{
				"x": -1.678143226,
				"y": 0.4058524574,
				"z": -1.6448195459,
				"element": "H" 
			}
		],
		 "valence_orbital": [ 
			{
				"type": "occ",
				"energy": -0.30597,
				"method": "rhf"
			},
			{
				"type": "occ",
				"energy": -0.29025,
				"method": "rhf"
			},
			{
				"type": "occ",
				"energy": -0.28292,
				"method": "rhf"
			},
			{
				"type": "occ",
				"energy": -0.26381,
				"method": "rhf"
			},
			{
				"type": "occ",
				"energy": -0.25227,
				"method": "rhf"
			},
			{
				"type": "unocc",
				"energy": -0.07897,
				"method": "rhf"
			},
			{
				"type": "unocc",
				"energy": -0.05313,
				"method": "rhf"
			},
			{
				"type": "unocc",
				"energy": -0.03395,
				"method": "rhf"
			},
			{
				"type": "unocc",
				"energy": 0.01765,
				"method": "rhf"
			},
			{
				"type": "unocc",
				"energy": 0.03329,
				"method": "rhf"
			}
		],
		"cosmo_sigma_profile": { 
			"0.0": 0.0,
			"0.0": 0.0,
			"0.0": 0.0,
			"0.0": 0.0,
			"0.0": 0.0,
			"0.0": 0.0,
			"0.0": 0.0,
			"0.0": 0.0,
			"0.0": 0.0,
			"0.0": 0.0,
			"0.0": 0.0,
			"0.0": 0.0,
			"0.0": 0.0,
			"0.0": 0.0,
			"0.0": 0.0,
			"0.0": 0.0,
			"0.0": 0.0,
			"0.0": 0.0,
			"0.0": 0.0,
			"0.0": 0.0,
			"0.0": 0.0,
			"0.0": 0.0,
			"0.0": 0.0,
			"0.0": 0.0,
			"0.0": 0.0,
			"0.0": 0.0,
			"0.0": 0.0,
			"0.0": 0.0,
			"0.0": 0.0,
			"0.0": 0.0,
			"0.0": 0.0,
			"0.0": 0.0,
			"0.0": 0.0,
			"0.0": 0.0,
			"0.0": 0.0,
			"0.0": 0.0,
			"0.0": 0.0,
			"0.0": 0.0,
			"0.0": 0.0,
			"0.0": 0.0,
			"0.0": 0.0,
			"0.0": 0.0,
			"0.0": 0.0,
			"0.0": 0.0,
			"0.0": 0.0,
			"0.0": 0.0,
			"0.0": 0.0,
			"0.0": 0.0,
			"0.0": 0.0,
			"0.0": 0.0,
			"0.0": 0.0
		}
	}
}
