{
	 "smiles": "BrC1=CC(=O)N(C1=O)C1=CC=CC=C1", 
	 "Tm": 433.15, 
	 "num_atms": 20, 
	 "gaussian": { 
		 "optdone": 1, 
		 "sigma_profile": "yes", 
		 "theory": "DFT", 
		 "functional": "B3LYP", 
		 "basiset": "6-31G**", 
		 "properties": { 
			 "R2extent": 6525.3416, 
			 "electric_dipole_moment_norm": 0.837686164384, 
			 "electric_quadrupole_moment_norm": 12.1125801669, 
			 "total_energy": -3161.27456813, 
			 "HOMO_LUMO_gap": 0.12619, 
			 "cosmo_polarized_energy": -8.11, 
			 "cosmo_cavitation_energy": 27.32, 
			 "cosmo_dispersion_energy": -20.78, 
			 "cosmo_repulsion_energy": 1.6, 
			 "cosmo_total_nonelectrostatic_energy": 8.14, 
			 "SMD_solvation_energy": 5.0 
		},
		"coords": [
			{
				"x": -2.0197850451,
				"y": -0.4911417939,
				"z": -5.1590984018,
				"element": "Br" 
			},
			{
				"x": -1.6057899232,
				"y": -0.611927278,
				"z": -3.3456569512,
				"element": "C" 
			},
			{
				"x": -2.3795997398,
				"y": -0.9358909517,
				"z": -2.3110838204,
				"element": "C" 
			},
			{
				"x": -1.5471686912,
				"y": -0.8795389978,
				"z": -1.074262367,
				"element": "C" 
			},
			{
				"x": -1.9478198026,
				"y": -1.1199151215,
				"z": 0.0443402901,
				"element": "O" 
			},
			{
				"x": -0.2306524769,
				"y": -0.4995629426,
				"z": -1.4571391168,
				"element": "N" 
			},
			{
				"x": -0.2066785929,
				"y": -0.3191430411,
				"z": -2.8586236634,
				"element": "C" 
			},
			{
				"x": 0.7258676243,
				"y": 0.0032305121,
				"z": -3.5579648521,
				"element": "O" 
			},
			{
				"x": 0.8925502182,
				"y": -0.3266489105,
				"z": -0.5699302184,
				"element": "C" 
			},
			{
				"x": 2.1464188065,
				"y": 0.053093818,
				"z": -1.0768443791,
				"element": "C" 
			},
			{
				"x": 3.2249566988,
				"y": 0.2169521146,
				"z": -0.2082538293,
				"element": "C" 
			},
			{
				"x": 3.0828747328,
				"y": 0.0100418163,
				"z": 1.1625396573,
				"element": "C" 
			},
			{
				"x": 1.8366813659,
				"y": -0.3665844457,
				"z": 1.6601398958,
				"element": "C" 
			},
			{
				"x": 0.7436751264,
				"y": -0.536535251,
				"z": 0.8112749296,
				"element": "C" 
			},
			{
				"x": -3.4257310455,
				"y": -1.2039230014,
				"z": -2.2796567414,
				"element": "H" 
			},
			{
				"x": 2.2792613114,
				"y": 0.2185505653,
				"z": -2.1345841589,
				"element": "H" 
			},
			{
				"x": 4.1860636997,
				"y": 0.5109279895,
				"z": -0.6201998334,
				"element": "H" 
			},
			{
				"x": 3.9283478693,
				"y": 0.139976395,
				"z": 1.8312701061,
				"element": "H" 
			},
			{
				"x": 1.700828314,
				"y": -0.5337160926,
				"z": 2.724796555,
				"element": "H" 
			},
			{
				"x": -0.2123004501,
				"y": -0.8284453831,
				"z": 1.2170368991,
				"element": "H" 
			}
		],
		 "valence_orbital": [ 
			{
				"type": "occ",
				"energy": -0.30189,
				"method": "rhf"
			},
			{
				"type": "occ",
				"energy": -0.29208,
				"method": "rhf"
			},
			{
				"type": "occ",
				"energy": -0.28332,
				"method": "rhf"
			},
			{
				"type": "occ",
				"energy": -0.25351,
				"method": "rhf"
			},
			{
				"type": "occ",
				"energy": -0.23615,
				"method": "rhf"
			},
			{
				"type": "unocc",
				"energy": -0.10996,
				"method": "rhf"
			},
			{
				"type": "unocc",
				"energy": -0.01635,
				"method": "rhf"
			},
			{
				"type": "unocc",
				"energy": -0.00967,
				"method": "rhf"
			},
			{
				"type": "unocc",
				"energy": -0.00408,
				"method": "rhf"
			},
			{
				"type": "unocc",
				"energy": 0.04781,
				"method": "rhf"
			}
		],
		"cosmo_sigma_profile": { 
			"-0.025": 0.0,
			"-0.024": 0.0,
			"-0.023": 0.0,
			"-0.022": 0.0,
			"-0.021": 0.0,
			"-0.02": 0.0,
			"-0.019": 0.0,
			"-0.018": 0.0,
			"-0.017": 0.0,
			"-0.016": 0.0,
			"-0.015": 0.0,
			"-0.014": 0.0,
			"-0.013": 0.0,
			"-0.012": 0.0,
			"-0.011": 1.02942626631,
			"-0.01": 1.74224347721,
			"-0.009": 1.52218633851,
			"-0.008": 2.83144178733,
			"-0.007": 4.87658740755,
			"-0.006": 11.945078443,
			"-0.005": 13.9083733748,
			"-0.004": 18.0967790579,
			"-0.003": 18.6578738606,
			"-0.002": 16.5381875041,
			"-0.001": 14.7770043628,
			"0.0": 14.550859748,
			"0.001": 17.8659404234,
			"0.002": 22.6426807702,
			"0.003": 13.8997258601,
			"0.004": 13.5533799488,
			"0.005": 13.3249135106,
			"0.006": 3.8486454578,
			"0.007": 4.14435420884,
			"0.008": 4.93759874872,
			"0.009": 5.14496302612,
			"0.01": 4.26255880542,
			"0.011": 0.868629283908,
			"0.012": 0.0,
			"0.013": 0.0,
			"0.014": 0.0,
			"0.015": 0.0,
			"0.016": 0.0,
			"0.017": 0.0,
			"0.018": 0.0,
			"0.019": 0.0,
			"0.02": 0.0,
			"0.021": 0.0,
			"0.022": 0.0,
			"0.023": 0.0,
			"0.024": 0.0,
			"0.025": 0.0
		}
	}
}
