{
	 "smiles": "CC1=C(C=C(C=C1F)C#N)[N+]([O-])=O", 
	 "Tm": 349.15, 
	 "num_atms": 18, 
	 "gaussian": { 
		 "optdone": 1, 
		 "sigma_profile": "yes", 
		 "theory": "DFT", 
		 "functional": "B3LYP", 
		 "basiset": "6-31G**", 
		 "properties": { 
			 "R2extent": 2455.5048, 
			 "electric_dipole_moment_norm": 3.6023141687, 
			 "electric_quadrupole_moment_norm": 13.8787373078, 
			 "total_energy": -667.528914059, 
			 "HOMO_LUMO_gap": 0.17492, 
			 "cosmo_polarized_energy": -11.18, 
			 "cosmo_cavitation_energy": 24.78, 
			 "cosmo_dispersion_energy": -17.46, 
			 "cosmo_repulsion_energy": 1.35, 
			 "cosmo_total_nonelectrostatic_energy": 8.67, 
			 "SMD_solvation_energy": 8.34 
		},
		"coords": [
			{
				"x": 0.123625973,
				"y": 2.4083997669,
				"z": 1.0256658166,
				"element": "C" 
			},
			{
				"x": -0.0885204687,
				"y": 0.9590045163,
				"z": 0.6725229,
				"element": "C" 
			},
			{
				"x": 0.7027140134,
				"y": 0.1865544928,
				"z": -0.199999983,
				"element": "C" 
			},
			{
				"x": 0.4641485531,
				"y": -1.160692318,
				"z": -0.4624401293,
				"element": "C" 
			},
			{
				"x": -0.6219043519,
				"y": -1.7951579215,
				"z": 0.1476415588,
				"element": "C" 
			},
			{
				"x": -1.4439979967,
				"y": -1.0724837012,
				"z": 1.0246122538,
				"element": "C" 
			},
			{
				"x": -1.155328787,
				"y": 0.2615315057,
				"z": 1.2613802548,
				"element": "C" 
			},
			{
				"x": -1.9567552105,
				"y": 0.9249590091,
				"z": 2.1159218225,
				"element": "F" 
			},
			{
				"x": -0.8947634881,
				"y": -3.1773444207,
				"z": -0.1193574713,
				"element": "C" 
			},
			{
				"x": -1.120405024,
				"y": -4.2976608254,
				"z": -0.3329067814,
				"element": "N" 
			},
			{
				"x": 1.8586753842,
				"y": 0.7802031086,
				"z": -0.9067600293,
				"element": "N" 
			},
			{
				"x": 1.9106486415,
				"y": 2.0048016127,
				"z": -1.0016508481,
				"element": "O" 
			},
			{
				"x": 2.6931668114,
				"y": 0.0062903673,
				"z": -1.3700989748,
				"element": "O" 
			},
			{
				"x": 1.1688426027,
				"y": 2.6102102913,
				"z": 1.2664631877,
				"element": "H" 
			},
			{
				"x": -0.1291574729,
				"y": 3.0533098746,
				"z": 0.1798946349,
				"element": "H" 
			},
			{
				"x": -0.5042567409,
				"y": 2.6750109485,
				"z": 1.8752437157,
				"element": "H" 
			},
			{
				"x": 1.1233090222,
				"y": -1.6939650151,
				"z": -1.1340079738,
				"element": "H" 
			},
			{
				"x": -2.291041461,
				"y": -1.5339712921,
				"z": 1.518176046,
				"element": "H" 
			}
		],
		 "valence_orbital": [ 
			{
				"type": "occ",
				"energy": -0.32887,
				"method": "rhf"
			},
			{
				"type": "occ",
				"energy": -0.32611,
				"method": "rhf"
			},
			{
				"type": "occ",
				"energy": -0.31387,
				"method": "rhf"
			},
			{
				"type": "occ",
				"energy": -0.30005,
				"method": "rhf"
			},
			{
				"type": "occ",
				"energy": -0.28508,
				"method": "rhf"
			},
			{
				"type": "unocc",
				"energy": -0.11016,
				"method": "rhf"
			},
			{
				"type": "unocc",
				"energy": -0.07502,
				"method": "rhf"
			},
			{
				"type": "unocc",
				"energy": -0.02825,
				"method": "rhf"
			},
			{
				"type": "unocc",
				"energy": 0.01525,
				"method": "rhf"
			},
			{
				"type": "unocc",
				"energy": 0.05391,
				"method": "rhf"
			}
		],
		"cosmo_sigma_profile": { 
			"-0.025": 0.0,
			"-0.024": 0.0,
			"-0.023": 0.0,
			"-0.022": 0.0,
			"-0.021": 0.0,
			"-0.02": 0.0,
			"-0.019": 0.0,
			"-0.018": 0.0,
			"-0.017": 0.0,
			"-0.016": 0.0,
			"-0.015": 0.0,
			"-0.014": 0.0,
			"-0.013": 0.0,
			"-0.012": 0.0,
			"-0.011": 0.545825396157,
			"-0.01": 2.17471515957,
			"-0.009": 4.07355387338,
			"-0.008": 5.10816303546,
			"-0.007": 4.58141646987,
			"-0.006": 7.67630638325,
			"-0.005": 11.0655425413,
			"-0.004": 15.1664581386,
			"-0.003": 27.9751150696,
			"-0.002": 24.4572718019,
			"-0.001": 12.6649066667,
			"0.0": 5.89366084429,
			"0.001": 6.95169714116,
			"0.002": 8.15208141504,
			"0.003": 11.6819077849,
			"0.004": 5.17890628557,
			"0.005": 6.71334073018,
			"0.006": 6.69388679074,
			"0.007": 11.3779223535,
			"0.008": 8.09197451496,
			"0.009": 6.3627845763,
			"0.01": 3.56792991757,
			"0.011": 2.38196179244,
			"0.012": 1.97920728611,
			"0.013": 0.196844910436,
			"0.014": 0.0,
			"0.015": 0.0,
			"0.016": 0.0,
			"0.017": 0.0,
			"0.018": 0.0,
			"0.019": 0.0,
			"0.02": 0.0,
			"0.021": 0.0,
			"0.022": 0.0,
			"0.023": 0.0,
			"0.024": 0.0,
			"0.025": 0.0
		}
	}
}
