{
	 "smiles": "[O-][N+](=O)C1=CC=CC=C1C(Cl)C(Cl)C1=NC=CC=C1", 
	 "Tm": 417.15, 
	 "num_atms": 29, 
	 "gaussian": { 
		 "optdone": 1, 
		 "sigma_profile": "yes", 
		 "theory": "DFT", 
		 "functional": "B3LYP", 
		 "basiset": "6-31G**", 
		 "properties": { 
			 "R2extent": 4944.667, 
			 "electric_dipole_moment_norm": 4.29452755376, 
			 "electric_quadrupole_moment_norm": 17.457512183, 
			 "total_energy": -1681.63727282, 
			 "HOMO_LUMO_gap": 0.17499, 
			 "cosmo_polarized_energy": -12.15, 
			 "cosmo_cavitation_energy": 36.29, 
			 "cosmo_dispersion_energy": -24.59, 
			 "cosmo_repulsion_energy": 1.89, 
			 "cosmo_total_nonelectrostatic_energy": 13.58, 
			 "SMD_solvation_energy": 6.3 
		},
		"coords": [
			{
				"x": -0.5403773898,
				"y": 0.0806154064,
				"z": -2.6556529011,
				"element": "O" 
			},
			{
				"x": 0.4482549812,
				"y": -0.5938548513,
				"z": -2.3663219486,
				"element": "N" 
			},
			{
				"x": 0.7237182521,
				"y": -1.6762798509,
				"z": -2.8797728573,
				"element": "O" 
			},
			{
				"x": 1.4041957094,
				"y": -0.0594328257,
				"z": -1.3722171888,
				"element": "C" 
			},
			{
				"x": 2.7430961202,
				"y": -0.3652879623,
				"z": -1.6273179935,
				"element": "C" 
			},
			{
				"x": 3.7358358639,
				"y": 0.1248925537,
				"z": -0.7875081489,
				"element": "C" 
			},
			{
				"x": 3.3769684018,
				"y": 0.9029506642,
				"z": 0.3133599555,
				"element": "C" 
			},
			{
				"x": 2.0362245343,
				"y": 1.1811265648,
				"z": 0.5695557063,
				"element": "C" 
			},
			{
				"x": 1.0085296367,
				"y": 0.7138980779,
				"z": -0.2628176069,
				"element": "C" 
			},
			{
				"x": -0.443712208,
				"y": 0.9800779883,
				"z": 0.0966324313,
				"element": "C" 
			},
			{
				"x": -0.6802855165,
				"y": 2.7093587269,
				"z": 0.632643138,
				"element": "Cl" 
			},
			{
				"x": -1.065487787,
				"y": 0.0186221695,
				"z": 1.1390012748,
				"element": "C" 
			},
			{
				"x": -0.2034176067,
				"y": 0.0342115468,
				"z": 2.7393922133,
				"element": "Cl" 
			},
			{
				"x": -1.1959245262,
				"y": -1.3859000898,
				"z": 0.5652018373,
				"element": "C" 
			},
			{
				"x": -2.2800293356,
				"y": -1.5281225389,
				"z": -0.2114527236,
				"element": "N" 
			},
			{
				"x": -2.4706307691,
				"y": -2.7055641934,
				"z": -0.8147894116,
				"element": "C" 
			},
			{
				"x": -1.6026594037,
				"y": -3.7894409643,
				"z": -0.6725598981,
				"element": "C" 
			},
			{
				"x": -0.4804690882,
				"y": -3.6329541067,
				"z": 0.1378658818,
				"element": "C" 
			},
			{
				"x": -0.2663834954,
				"y": -2.408540943,
				"z": 0.7708061849,
				"element": "C" 
			},
			{
				"x": 2.9804694572,
				"y": -0.9764668243,
				"z": -2.48907897,
				"element": "H" 
			},
			{
				"x": 4.7778610426,
				"y": -0.0961179363,
				"z": -0.9950126207,
				"element": "H" 
			},
			{
				"x": 4.1400870399,
				"y": 1.2952992166,
				"z": 0.9783767073,
				"element": "H" 
			},
			{
				"x": 1.7685432415,
				"y": 1.7842577507,
				"z": 1.42789614,
				"element": "H" 
			},
			{
				"x": -1.0678855979,
				"y": 0.8857784105,
				"z": -0.787843461,
				"element": "H" 
			},
			{
				"x": -2.0703517565,
				"y": 0.3837251395,
				"z": 1.3486346097,
				"element": "H" 
			},
			{
				"x": -3.3583189347,
				"y": -2.7841321697,
				"z": -1.4388260383,
				"element": "H" 
			},
			{
				"x": -1.8040295459,
				"y": -4.7244334487,
				"z": -1.1848425727,
				"element": "H" 
			},
			{
				"x": 0.2219877365,
				"y": -4.4494957887,
				"z": 0.2757760513,
				"element": "H" 
			},
			{
				"x": 0.5909909439,
				"y": -2.2511897217,
				"z": 1.4143722097,
				"element": "H" 
			}
		],
		 "valence_orbital": [ 
			{
				"type": "occ",
				"energy": -0.29397,
				"method": "rhf"
			},
			{
				"type": "occ",
				"energy": -0.27959,
				"method": "rhf"
			},
			{
				"type": "occ",
				"energy": -0.27556,
				"method": "rhf"
			},
			{
				"type": "occ",
				"energy": -0.26903,
				"method": "rhf"
			},
			{
				"type": "occ",
				"energy": -0.26858,
				"method": "rhf"
			},
			{
				"type": "unocc",
				"energy": -0.09359,
				"method": "rhf"
			},
			{
				"type": "unocc",
				"energy": -0.04578,
				"method": "rhf"
			},
			{
				"type": "unocc",
				"energy": -0.03464,
				"method": "rhf"
			},
			{
				"type": "unocc",
				"energy": -0.02978,
				"method": "rhf"
			},
			{
				"type": "unocc",
				"energy": -0.01562,
				"method": "rhf"
			}
		],
		"cosmo_sigma_profile": { 
			"-0.025": 0.0,
			"-0.024": 0.0,
			"-0.023": 0.0,
			"-0.022": 0.0,
			"-0.021": 0.0,
			"-0.02": 0.0,
			"-0.019": 0.0,
			"-0.018": 0.0,
			"-0.017": 0.0,
			"-0.016": 0.0,
			"-0.015": 0.0,
			"-0.014": 0.0,
			"-0.013": 0.0,
			"-0.012": 0.0,
			"-0.011": 0.0,
			"-0.01": 0.0,
			"-0.009": 0.13020590289,
			"-0.008": 5.81535666564,
			"-0.007": 16.9366065866,
			"-0.006": 21.5837933185,
			"-0.005": 16.9756860615,
			"-0.004": 14.7905413393,
			"-0.003": 13.7336905717,
			"-0.002": 14.9924960551,
			"-0.001": 21.4351311546,
			"0.0": 25.0829756949,
			"0.001": 30.3275870092,
			"0.002": 30.3808860486,
			"0.003": 18.6248136118,
			"0.004": 15.4690662278,
			"0.005": 17.2465998986,
			"0.006": 10.5409766769,
			"0.007": 8.41737328206,
			"0.008": 5.13828839935,
			"0.009": 4.27588817709,
			"0.01": 0.870435336004,
			"0.011": 0.201125155993,
			"0.012": 1.11173037099,
			"0.013": 0.583484386385,
			"0.014": 0.430662658913,
			"0.015": 0.0851683797229,
			"0.016": 0.0,
			"0.017": 0.0,
			"0.018": 0.0,
			"0.019": 0.0,
			"0.02": 0.0,
			"0.021": 0.0,
			"0.022": 0.0,
			"0.023": 0.0,
			"0.024": 0.0,
			"0.025": 0.0
		}
	}
}
