{
	 "smiles": "OC(=O)C1=CSC(=N1)C1=CC(=CC=C1)C(F)(F)F", 
	 "Tm": 474.15, 
	 "num_atms": 24, 
	 "gaussian": { 
		 "optdone": 1, 
		 "sigma_profile": "yes", 
		 "theory": "DFT", 
		 "functional": "B3LYP", 
		 "basiset": "6-31G**", 
		 "properties": { 
			 "R2extent": 7065.5856, 
			 "electric_dipole_moment_norm": 3.67370226883, 
			 "electric_quadrupole_moment_norm": 26.7641382878, 
			 "total_energy": -1325.71303489, 
			 "HOMO_LUMO_gap": 0.16807, 
			 "cosmo_polarized_energy": -12.81, 
			 "cosmo_cavitation_energy": 32.89, 
			 "cosmo_dispersion_energy": -23.9, 
			 "cosmo_repulsion_energy": 1.72, 
			 "cosmo_total_nonelectrostatic_energy": 10.72, 
			 "SMD_solvation_energy": 7.16 
		},
		"coords": [
			{
				"x": -1.2887767722,
				"y": 3.4964748681,
				"z": -1.7249419861,
				"element": "O" 
			},
			{
				"x": -2.2000339612,
				"y": 2.533995439,
				"z": -1.9714488838,
				"element": "C" 
			},
			{
				"x": -3.1911788295,
				"y": 2.7260068448,
				"z": -2.6361629267,
				"element": "O" 
			},
			{
				"x": -1.8698694813,
				"y": 1.2173522843,
				"z": -1.3493472634,
				"element": "C" 
			},
			{
				"x": -2.6397350224,
				"y": 0.0919524759,
				"z": -1.4565542601,
				"element": "C" 
			},
			{
				"x": -1.9014318601,
				"y": -1.2025974494,
				"z": -0.59313329,
				"element": "S" 
			},
			{
				"x": -0.5772927037,
				"y": -0.1230876926,
				"z": -0.1332270003,
				"element": "C" 
			},
			{
				"x": -0.7194800725,
				"y": 1.0877076866,
				"z": -0.6084835727,
				"element": "N" 
			},
			{
				"x": 0.5546130126,
				"y": -0.5617604727,
				"z": 0.6937943367,
				"element": "C" 
			},
			{
				"x": 0.6408937297,
				"y": -1.8699620479,
				"z": 1.1919671896,
				"element": "C" 
			},
			{
				"x": 1.7261258292,
				"y": -2.2522778845,
				"z": 1.9773977385,
				"element": "C" 
			},
			{
				"x": 2.739990681,
				"y": -1.3386629639,
				"z": 2.2791495392,
				"element": "C" 
			},
			{
				"x": 2.6583342229,
				"y": -0.0366071966,
				"z": 1.7858372999,
				"element": "C" 
			},
			{
				"x": 1.5780105082,
				"y": 0.3522519243,
				"z": 0.999165591,
				"element": "C" 
			},
			{
				"x": 1.8393456167,
				"y": -3.674538959,
				"z": 2.46203587,
				"element": "C" 
			},
			{
				"x": 2.6205597729,
				"y": -4.4143100905,
				"z": 1.6430772837,
				"element": "F" 
			},
			{
				"x": 0.635853642,
				"y": -4.2849323873,
				"z": 2.5201560825,
				"element": "F" 
			},
			{
				"x": 2.3906097322,
				"y": -3.7370164922,
				"z": 3.6931943514,
				"element": "F" 
			},
			{
				"x": -0.5873543799,
				"y": 3.105117367,
				"z": -1.1724387287,
				"element": "H" 
			},
			{
				"x": -3.5732944494,
				"y": -0.0174736727,
				"z": -1.9886017294,
				"element": "H" 
			},
			{
				"x": -0.1368014052,
				"y": -2.5969914604,
				"z": 0.9827545214,
				"element": "H" 
			},
			{
				"x": 3.5757799297,
				"y": -1.643786574,
				"z": 2.8993997017,
				"element": "H" 
			},
			{
				"x": 3.4400234451,
				"y": 0.6795710796,
				"z": 2.0185736022,
				"element": "H" 
			},
			{
				"x": 1.5093088153,
				"y": 1.3631753742,
				"z": 0.6144365333,
				"element": "H" 
			}
		],
		 "valence_orbital": [ 
			{
				"type": "occ",
				"energy": -0.31587,
				"method": "rhf"
			},
			{
				"type": "occ",
				"energy": -0.30685,
				"method": "rhf"
			},
			{
				"type": "occ",
				"energy": -0.2887,
				"method": "rhf"
			},
			{
				"type": "occ",
				"energy": -0.27708,
				"method": "rhf"
			},
			{
				"type": "occ",
				"energy": -0.25372,
				"method": "rhf"
			},
			{
				"type": "unocc",
				"energy": -0.08565,
				"method": "rhf"
			},
			{
				"type": "unocc",
				"energy": -0.05089,
				"method": "rhf"
			},
			{
				"type": "unocc",
				"energy": -0.03936,
				"method": "rhf"
			},
			{
				"type": "unocc",
				"energy": -0.00881,
				"method": "rhf"
			},
			{
				"type": "unocc",
				"energy": 0.00982,
				"method": "rhf"
			}
		],
		"cosmo_sigma_profile": { 
			"-0.025": 0.0,
			"-0.024": 0.0,
			"-0.023": 0.0,
			"-0.022": 0.0,
			"-0.021": 0.0,
			"-0.02": 0.0,
			"-0.019": 0.0,
			"-0.018": 0.0,
			"-0.017": 0.0,
			"-0.016": 0.0,
			"-0.015": 0.0,
			"-0.014": 0.249713977825,
			"-0.013": 0.818789022502,
			"-0.012": 0.612990841257,
			"-0.011": 1.08829630474,
			"-0.01": 2.97207796382,
			"-0.009": 2.10484673017,
			"-0.008": 4.43414666137,
			"-0.007": 9.82352271625,
			"-0.006": 11.977301209,
			"-0.005": 11.0264532106,
			"-0.004": 12.3687215751,
			"-0.003": 15.1098770073,
			"-0.002": 19.3320212695,
			"-0.001": 24.2068272031,
			"0.0": 28.6341268608,
			"0.001": 28.3749319527,
			"0.002": 33.3980153361,
			"0.003": 28.1784454587,
			"0.004": 3.98421100015,
			"0.005": 2.6712738147,
			"0.006": 1.86503140983,
			"0.007": 2.41879061746,
			"0.008": 2.75384306057,
			"0.009": 4.16046620571,
			"0.01": 4.99969311027,
			"0.011": 4.90229647896,
			"0.012": 4.2818890042,
			"0.013": 1.29448261408,
			"0.014": 0.00573348133901,
			"0.015": 0.0,
			"0.016": 0.0,
			"0.017": 0.0,
			"0.018": 0.0,
			"0.019": 0.0,
			"0.02": 0.0,
			"0.021": 0.0,
			"0.022": 0.0,
			"0.023": 0.0,
			"0.024": 0.0,
			"0.025": 0.0
		}
	}
}
