{
	 "smiles": "CN(C)C(N)=O", 
	 "Tm": 455.15, 
	 "num_atms": 14, 
	 "gaussian": { 
		 "optdone": 1, 
		 "sigma_profile": "yes", 
		 "theory": "DFT", 
		 "functional": "B3LYP", 
		 "basiset": "6-31G**", 
		 "properties": { 
			 "R2extent": 708.077, 
			 "electric_dipole_moment_norm": 3.7816633232, 
			 "electric_quadrupole_moment_norm": 8.50180041697, 
			 "total_energy": -303.886282272, 
			 "HOMO_LUMO_gap": 0.28869, 
			 "cosmo_polarized_energy": -12.3, 
			 "cosmo_cavitation_energy": 16.89, 
			 "cosmo_dispersion_energy": -12.77, 
			 "cosmo_repulsion_energy": 1.11, 
			 "cosmo_total_nonelectrostatic_energy": 5.24, 
			 "SMD_solvation_energy": 4.05 
		},
		"coords": [
			{
				"x": 1.4400404445,
				"y": 0.1587024444,
				"z": 0.8530263997,
				"element": "C" 
			},
			{
				"x": 0.4693579447,
				"y": 0.6605178747,
				"z": -0.1020827899,
				"element": "N" 
			},
			{
				"x": 0.8603318328,
				"y": 0.6958228027,
				"z": -1.5012742678,
				"element": "C" 
			},
			{
				"x": -0.807550195,
				"y": 1.0568906923,
				"z": 0.2392108302,
				"element": "C" 
			},
			{
				"x": -1.151193692,
				"y": 0.8804623971,
				"z": 1.5825281362,
				"element": "N" 
			},
			{
				"x": -1.5870310799,
				"y": 1.5747773324,
				"z": -0.5546676981,
				"element": "O" 
			},
			{
				"x": 1.4217876608,
				"y": -0.9384821361,
				"z": 0.9487738833,
				"element": "H" 
			},
			{
				"x": 2.445672216,
				"y": 0.4439755502,
				"z": 0.5273155482,
				"element": "H" 
			},
			{
				"x": 1.2745293962,
				"y": 0.6046492358,
				"z": 1.8361604107,
				"element": "H" 
			},
			{
				"x": 1.7466713546,
				"y": 1.3279196079,
				"z": -1.640644865,
				"element": "H" 
			},
			{
				"x": 1.0942518715,
				"y": -0.3109955797,
				"z": -1.8731187365,
				"element": "H" 
			},
			{
				"x": 0.0320473815,
				"y": 1.1093752097,
				"z": -2.074362249,
				"element": "H" 
			},
			{
				"x": -2.1363721589,
				"y": 1.0590840314,
				"z": 1.7201784311,
				"element": "H" 
			},
			{
				"x": -0.8262429768,
				"y": 0.0455005371,
				"z": 2.0499569668,
				"element": "H" 
			}
		],
		 "valence_orbital": [ 
			{
				"type": "occ",
				"energy": -0.38669,
				"method": "rhf"
			},
			{
				"type": "occ",
				"energy": -0.37286,
				"method": "rhf"
			},
			{
				"type": "occ",
				"energy": -0.26965,
				"method": "rhf"
			},
			{
				"type": "occ",
				"energy": -0.24308,
				"method": "rhf"
			},
			{
				"type": "occ",
				"energy": -0.22983,
				"method": "rhf"
			},
			{
				"type": "unocc",
				"energy": 0.05886,
				"method": "rhf"
			},
			{
				"type": "unocc",
				"energy": 0.07805,
				"method": "rhf"
			},
			{
				"type": "unocc",
				"energy": 0.11281,
				"method": "rhf"
			},
			{
				"type": "unocc",
				"energy": 0.13154,
				"method": "rhf"
			},
			{
				"type": "unocc",
				"energy": 0.14074,
				"method": "rhf"
			}
		],
		"cosmo_sigma_profile": { 
			"-0.025": 0.0,
			"-0.024": 0.0,
			"-0.023": 0.0,
			"-0.022": 0.0,
			"-0.021": 0.0,
			"-0.02": 0.0,
			"-0.019": 0.0,
			"-0.018": 0.0,
			"-0.017": 0.0,
			"-0.016": 0.0,
			"-0.015": 0.0,
			"-0.014": 0.0,
			"-0.013": 1.13291534169,
			"-0.012": 1.95594408076,
			"-0.011": 2.61997105521,
			"-0.01": 2.48382031062,
			"-0.009": 2.30898947337,
			"-0.008": 2.1646577938,
			"-0.007": 2.46589815135,
			"-0.006": 2.65441533298,
			"-0.005": 6.95248145285,
			"-0.004": 13.8387462268,
			"-0.003": 14.1240423519,
			"-0.002": 17.2937993844,
			"-0.001": 12.2367521785,
			"0.0": 5.36797370016,
			"0.001": 4.52677386688,
			"0.002": 4.03349291547,
			"0.003": 4.24312624766,
			"0.004": 2.50490242088,
			"0.005": 2.80692285807,
			"0.006": 3.18093858102,
			"0.007": 2.07160755709,
			"0.008": 1.95116124412,
			"0.009": 1.70851753671,
			"0.01": 2.56063998959,
			"0.011": 1.31274840916,
			"0.012": 1.77232419029,
			"0.013": 2.50752057921,
			"0.014": 3.47142750359,
			"0.015": 5.3168371264,
			"0.016": 0.360460945388,
			"0.017": 0.0,
			"0.018": 0.0,
			"0.019": 0.0,
			"0.02": 0.0,
			"0.021": 0.0,
			"0.022": 0.0,
			"0.023": 0.0,
			"0.024": 0.0,
			"0.025": 0.0
		}
	}
}
