{
	 "smiles": "CCC(=O)NNC(=O)C(C)Cl", 
	 "Tm": 431.15, 
	 "num_atms": 22, 
	 "gaussian": { 
		 "optdone": 1, 
		 "sigma_profile": "yes", 
		 "theory": "DFT", 
		 "functional": "B3LYP", 
		 "basiset": "6-31G**", 
		 "properties": { 
			 "R2extent": 3035.7317, 
			 "electric_dipole_moment_norm": 3.70072504923, 
			 "electric_quadrupole_moment_norm": 11.7324481064, 
			 "total_energy": -955.415963199, 
			 "HOMO_LUMO_gap": 0.24586, 
			 "cosmo_polarized_energy": -15.56, 
			 "cosmo_cavitation_energy": 27.65, 
			 "cosmo_dispersion_energy": -19.23, 
			 "cosmo_repulsion_energy": 1.6, 
			 "cosmo_total_nonelectrostatic_energy": 10.02, 
			 "SMD_solvation_energy": 6.21 
		},
		"coords": [
			{
				"x": -1.0054265863,
				"y": 1.6686242695,
				"z": 3.0126923304,
				"element": "C" 
			},
			{
				"x": 0.2153580535,
				"y": 0.7351038773,
				"z": 2.9348658899,
				"element": "C" 
			},
			{
				"x": -0.0829467645,
				"y": -0.5577968168,
				"z": 2.1951575797,
				"element": "C" 
			},
			{
				"x": -0.2546411278,
				"y": -1.6289242492,
				"z": 2.7464854586,
				"element": "O" 
			},
			{
				"x": -0.2593840396,
				"y": -0.4796905535,
				"z": 0.8086895842,
				"element": "N" 
			},
			{
				"x": 0.2383456764,
				"y": 0.567602383,
				"z": 0.0538085426,
				"element": "N" 
			},
			{
				"x": 1.5593778078,
				"y": 0.6163455589,
				"z": -0.2981910826,
				"element": "C" 
			},
			{
				"x": 2.3909684615,
				"y": -0.1838020143,
				"z": 0.0969732025,
				"element": "O" 
			},
			{
				"x": 2.0155121227,
				"y": 1.7492924302,
				"z": -1.2302635869,
				"element": "C" 
			},
			{
				"x": 2.6841536188,
				"y": 1.1908877454,
				"z": -2.4825328353,
				"element": "C" 
			},
			{
				"x": 0.6807191587,
				"y": 2.9213731383,
				"z": -1.6985271254,
				"element": "Cl" 
			},
			{
				"x": -0.7711358168,
				"y": 2.5497937742,
				"z": 3.6171033769,
				"element": "H" 
			},
			{
				"x": -1.3149549645,
				"y": 2.0165216491,
				"z": 2.0226385103,
				"element": "H" 
			},
			{
				"x": -1.856150071,
				"y": 1.1585953873,
				"z": 3.4742394298,
				"element": "H" 
			},
			{
				"x": 1.0581305542,
				"y": 1.2522855225,
				"z": 2.4659337472,
				"element": "H" 
			},
			{
				"x": 0.5234048935,
				"y": 0.4324090613,
				"z": 3.9378932523,
				"element": "H" 
			},
			{
				"x": -0.2374298194,
				"y": -1.3900038767,
				"z": 0.3585674207,
				"element": "H" 
			},
			{
				"x": -0.4295099196,
				"y": 1.2055059346,
				"z": -0.3563588419,
				"element": "H" 
			},
			{
				"x": 2.7211219888,
				"y": 2.3547388263,
				"z": -0.6578235604,
				"element": "H" 
			},
			{
				"x": 1.9665968332,
				"y": 0.640450171,
				"z": -3.0968996512,
				"element": "H" 
			},
			{
				"x": 3.1121308268,
				"y": 1.998002723,
				"z": -3.0802615104,
				"element": "H" 
			},
			{
				"x": 3.4790591136,
				"y": 0.5084850587,
				"z": -2.1716901312,
				"element": "H" 
			}
		],
		 "valence_orbital": [ 
			{
				"type": "occ",
				"energy": -0.32178,
				"method": "rhf"
			},
			{
				"type": "occ",
				"energy": -0.29733,
				"method": "rhf"
			},
			{
				"type": "occ",
				"energy": -0.28747,
				"method": "rhf"
			},
			{
				"type": "occ",
				"energy": -0.27141,
				"method": "rhf"
			},
			{
				"type": "occ",
				"energy": -0.25263,
				"method": "rhf"
			},
			{
				"type": "unocc",
				"energy": -0.00677,
				"method": "rhf"
			},
			{
				"type": "unocc",
				"energy": -0.00137,
				"method": "rhf"
			},
			{
				"type": "unocc",
				"energy": 0.01176,
				"method": "rhf"
			},
			{
				"type": "unocc",
				"energy": 0.07093,
				"method": "rhf"
			},
			{
				"type": "unocc",
				"energy": 0.09571,
				"method": "rhf"
			}
		],
		"cosmo_sigma_profile": { 
			"-0.025": 0.0,
			"-0.024": 0.0,
			"-0.023": 0.0,
			"-0.022": 0.0,
			"-0.021": 0.0,
			"-0.02": 0.0,
			"-0.019": 0.0,
			"-0.018": 0.0,
			"-0.017": 0.0,
			"-0.016": 0.0,
			"-0.015": 0.101225156411,
			"-0.014": 1.31489672546,
			"-0.013": 1.33078059344,
			"-0.012": 1.31920309564,
			"-0.011": 1.5262918459,
			"-0.01": 2.29695754898,
			"-0.009": 3.37996051681,
			"-0.008": 4.32556410662,
			"-0.007": 5.08528044471,
			"-0.006": 7.58484574119,
			"-0.005": 14.3724580919,
			"-0.004": 17.8163618064,
			"-0.003": 19.1961905157,
			"-0.002": 22.7466452531,
			"-0.001": 19.9375749201,
			"0.0": 17.0096029311,
			"0.001": 9.62795719634,
			"0.002": 8.1923488966,
			"0.003": 6.59585904677,
			"0.004": 8.84752664256,
			"0.005": 9.54993261442,
			"0.006": 6.19735994142,
			"0.007": 3.25527058204,
			"0.008": 1.73331854876,
			"0.009": 2.41727489087,
			"0.01": 3.42316787608,
			"0.011": 4.28295247201,
			"0.012": 8.52382928476,
			"0.013": 5.89295967687,
			"0.014": 1.14980303002,
			"0.015": 0.0,
			"0.016": 0.0,
			"0.017": 0.0,
			"0.018": 0.0,
			"0.019": 0.0,
			"0.02": 0.0,
			"0.021": 0.0,
			"0.022": 0.0,
			"0.023": 0.0,
			"0.024": 0.0,
			"0.025": 0.0
		}
	}
}
