{
	 "smiles": "NC1=CC=C(SC2=C(Cl)C=CC=C2)C=C1", 
	 "Tm": 351.15, 
	 "num_atms": 25, 
	 "gaussian": { 
		 "optdone": 1, 
		 "sigma_profile": "yes", 
		 "theory": "DFT", 
		 "functional": "B3LYP", 
		 "basiset": "6-31G**", 
		 "properties": { 
			 "R2extent": 5528.0667, 
			 "electric_dipole_moment_norm": 3.33630814824, 
			 "electric_quadrupole_moment_norm": 15.3766476863, 
			 "total_energy": -1376.43226341, 
			 "HOMO_LUMO_gap": 0.17333, 
			 "cosmo_polarized_energy": -11.98, 
			 "cosmo_cavitation_energy": 32.49, 
			 "cosmo_dispersion_energy": -23.5, 
			 "cosmo_repulsion_energy": 1.81, 
			 "cosmo_total_nonelectrostatic_energy": 10.8, 
			 "SMD_solvation_energy": 4.72 
		},
		"coords": [
			{
				"x": 1.9720251348,
				"y": 4.2121003748,
				"z": -1.888969575,
				"element": "N" 
			},
			{
				"x": 1.6195618587,
				"y": 3.0325067877,
				"z": -1.2359676123,
				"element": "C" 
			},
			{
				"x": 1.0473903911,
				"y": 1.9612713568,
				"z": -1.9470136491,
				"element": "C" 
			},
			{
				"x": 0.6347322283,
				"y": 0.8103440294,
				"z": -1.2856572021,
				"element": "C" 
			},
			{
				"x": 0.8063322708,
				"y": 0.6809653917,
				"z": 0.0988225443,
				"element": "C" 
			},
			{
				"x": 0.2086649462,
				"y": -0.7574699291,
				"z": 0.9926655009,
				"element": "S" 
			},
			{
				"x": 1.0784744196,
				"y": -2.1231533206,
				"z": 0.2206553721,
				"element": "C" 
			},
			{
				"x": 2.4650649787,
				"y": -2.3409727972,
				"z": 0.3213971565,
				"element": "C" 
			},
			{
				"x": 3.5024412558,
				"y": -1.2287953595,
				"z": 1.1941041957,
				"element": "Cl" 
			},
			{
				"x": 3.0628000806,
				"y": -3.4586000018,
				"z": -0.2636495423,
				"element": "C" 
			},
			{
				"x": 2.2802471696,
				"y": -4.3941197414,
				"z": -0.9393813624,
				"element": "C" 
			},
			{
				"x": 0.9010635979,
				"y": -4.2101639384,
				"z": -1.033571384,
				"element": "C" 
			},
			{
				"x": 0.3138713048,
				"y": -3.0819087145,
				"z": -0.463302497,
				"element": "C" 
			},
			{
				"x": 1.3820360629,
				"y": 1.7407480606,
				"z": 0.809131458,
				"element": "C" 
			},
			{
				"x": 1.7736894027,
				"y": 2.9050745469,
				"z": 0.1551279832,
				"element": "C" 
			},
			{
				"x": 2.6587422425,
				"y": 4.7821094777,
				"z": -1.4151312744,
				"element": "H" 
			},
			{
				"x": 2.1685254788,
				"y": 4.1207046976,
				"z": -2.8758709432,
				"element": "H" 
			},
			{
				"x": 0.9118236622,
				"y": 2.0441779672,
				"z": -3.0227234596,
				"element": "H" 
			},
			{
				"x": 0.1827034617,
				"y": 0.0011246043,
				"z": -1.8510017453,
				"element": "H" 
			},
			{
				"x": 4.1352583151,
				"y": -3.5930325043,
				"z": -0.1743272369,
				"element": "H" 
			},
			{
				"x": 2.7524211632,
				"y": -5.2639416155,
				"z": -1.3861008673,
				"element": "H" 
			},
			{
				"x": 0.2840363263,
				"y": -4.9349572091,
				"z": -1.5558768627,
				"element": "H" 
			},
			{
				"x": -0.7568399529,
				"y": -2.9232057931,
				"z": -0.541730535,
				"element": "H" 
			},
			{
				"x": 1.5311327198,
				"y": 1.6486520604,
				"z": 1.8802388939,
				"element": "H" 
			},
			{
				"x": 2.2142014809,
				"y": 3.7209415696,
				"z": 0.723032644,
				"element": "H" 
			}
		],
		 "valence_orbital": [ 
			{
				"type": "occ",
				"energy": -0.26556,
				"method": "rhf"
			},
			{
				"type": "occ",
				"energy": -0.24997,
				"method": "rhf"
			},
			{
				"type": "occ",
				"energy": -0.24663,
				"method": "rhf"
			},
			{
				"type": "occ",
				"energy": -0.23199,
				"method": "rhf"
			},
			{
				"type": "occ",
				"energy": -0.19683,
				"method": "rhf"
			},
			{
				"type": "unocc",
				"energy": -0.0235,
				"method": "rhf"
			},
			{
				"type": "unocc",
				"energy": -0.01401,
				"method": "rhf"
			},
			{
				"type": "unocc",
				"energy": -0.00305,
				"method": "rhf"
			},
			{
				"type": "unocc",
				"energy": 0.00402,
				"method": "rhf"
			},
			{
				"type": "unocc",
				"energy": 0.03362,
				"method": "rhf"
			}
		],
		"cosmo_sigma_profile": { 
			"-0.025": 0.0,
			"-0.024": 0.0,
			"-0.023": 0.0,
			"-0.022": 0.0,
			"-0.021": 0.0,
			"-0.02": 0.0,
			"-0.019": 0.0,
			"-0.018": 0.0,
			"-0.017": 0.0,
			"-0.016": 0.0,
			"-0.015": 0.0,
			"-0.014": 0.0,
			"-0.013": 0.688071526198,
			"-0.012": 2.56666905628,
			"-0.011": 3.11034279732,
			"-0.01": 3.08832552234,
			"-0.009": 3.25224031674,
			"-0.008": 2.76610185963,
			"-0.007": 8.3045394268,
			"-0.006": 14.5996122009,
			"-0.005": 15.9602579763,
			"-0.004": 14.5773383213,
			"-0.003": 13.0750905457,
			"-0.002": 13.5609696703,
			"-0.001": 15.9524918422,
			"0.0": 16.453956774,
			"0.001": 18.0911428142,
			"0.002": 24.3244808728,
			"0.003": 25.4586073462,
			"0.004": 23.2646695607,
			"0.005": 19.1194950966,
			"0.006": 12.4111319075,
			"0.007": 4.66787401203,
			"0.008": 4.16824118692,
			"0.009": 1.02400768819,
			"0.01": 0.906306611767,
			"0.011": 0.869412900536,
			"0.012": 0.22981217852,
			"0.013": 0.770205883882,
			"0.014": 0.490932524118,
			"0.015": 0.0,
			"0.016": 0.0,
			"0.017": 0.0,
			"0.018": 0.0,
			"0.019": 0.0,
			"0.02": 0.0,
			"0.021": 0.0,
			"0.022": 0.0,
			"0.023": 0.0,
			"0.024": 0.0,
			"0.025": 0.0
		}
	}
}
