{
	 "smiles": "OC(=O)C1=CC(Cl)=C(C=C1[N+]([O-])=O)[N+]([O-])=O", 
	 "Tm": 454.15, 
	 "num_atms": 19, 
	 "gaussian": { 
		 "optdone": 1, 
		 "sigma_profile": "yes", 
		 "theory": "DFT", 
		 "functional": "B3LYP", 
		 "basiset": "6-31G**", 
		 "properties": { 
			 "R2extent": 6587.0288, 
			 "electric_dipole_moment_norm": 1.06232972283, 
			 "electric_quadrupole_moment_norm": 17.6548668483, 
			 "total_energy": -1289.3676051, 
			 "HOMO_LUMO_gap": 0.15492, 
			 "cosmo_polarized_energy": -15.9, 
			 "cosmo_cavitation_energy": 27.72, 
			 "cosmo_dispersion_energy": -20.49, 
			 "cosmo_repulsion_energy": 1.57, 
			 "cosmo_total_nonelectrostatic_energy": 8.81, 
			 "SMD_solvation_energy": 10.05 
		},
		"coords": [
			{
				"x": -3.4301761621,
				"y": -1.1417473705,
				"z": -0.2695987133,
				"element": "O" 
			},
			{
				"x": -2.4781042597,
				"y": -2.0606937314,
				"z": -0.2357475217,
				"element": "C" 
			},
			{
				"x": -2.6153112144,
				"y": -3.1052554862,
				"z": 0.3599553304,
				"element": "O" 
			},
			{
				"x": -1.1717653054,
				"y": -1.8333776566,
				"z": -1.0235674303,
				"element": "C" 
			},
			{
				"x": -0.5259009171,
				"y": -3.0382001953,
				"z": -1.3236044039,
				"element": "C" 
			},
			{
				"x": 0.6884742771,
				"y": -3.1112406902,
				"z": -2.0069300637,
				"element": "C" 
			},
			{
				"x": 1.3581910569,
				"y": -4.6796782275,
				"z": -2.2959826104,
				"element": "Cl" 
			},
			{
				"x": 1.3239049226,
				"y": -1.9127002515,
				"z": -2.3630815835,
				"element": "C" 
			},
			{
				"x": 0.7477212197,
				"y": -0.696595328,
				"z": -2.0275250405,
				"element": "C" 
			},
			{
				"x": -0.4933793341,
				"y": -0.6496183155,
				"z": -1.3971447021,
				"element": "C" 
			},
			{
				"x": -0.9810214035,
				"y": 0.7268785193,
				"z": -1.1681374688,
				"element": "N" 
			},
			{
				"x": -0.1459663322,
				"y": 1.606592901,
				"z": -1.0367869288,
				"element": "O" 
			},
			{
				"x": -2.203098561,
				"y": 0.9440291411,
				"z": -1.1694485068,
				"element": "O" 
			},
			{
				"x": 2.6053558974,
				"y": -1.8475179645,
				"z": -3.0965746987,
				"element": "N" 
			},
			{
				"x": 3.3230974891,
				"y": -0.8799835521,
				"z": -2.8555346101,
				"element": "O" 
			},
			{
				"x": 2.8427821817,
				"y": -2.7357631648,
				"z": -3.9046213233,
				"element": "O" 
			},
			{
				"x": -3.1292924732,
				"y": -0.3375271295,
				"z": -0.7511223519,
				"element": "H" 
			},
			{
				"x": -1.0011212047,
				"y": -3.9503163,
				"z": -0.9844805977,
				"element": "H" 
			},
			{
				"x": 1.272910123,
				"y": 0.219114802,
				"z": -2.2638667749,
				"element": "H" 
			}
		],
		 "valence_orbital": [ 
			{
				"type": "occ",
				"energy": -0.33472,
				"method": "rhf"
			},
			{
				"type": "occ",
				"energy": -0.32951,
				"method": "rhf"
			},
			{
				"type": "occ",
				"energy": -0.31831,
				"method": "rhf"
			},
			{
				"type": "occ",
				"energy": -0.31138,
				"method": "rhf"
			},
			{
				"type": "occ",
				"energy": -0.30051,
				"method": "rhf"
			},
			{
				"type": "unocc",
				"energy": -0.14559,
				"method": "rhf"
			},
			{
				"type": "unocc",
				"energy": -0.12482,
				"method": "rhf"
			},
			{
				"type": "unocc",
				"energy": -0.07169,
				"method": "rhf"
			},
			{
				"type": "unocc",
				"energy": -0.05992,
				"method": "rhf"
			},
			{
				"type": "unocc",
				"energy": -0.01739,
				"method": "rhf"
			}
		],
		"cosmo_sigma_profile": { 
			"-0.025": 0.0,
			"-0.024": 0.0,
			"-0.023": 0.0,
			"-0.022": 0.0,
			"-0.021": 0.0,
			"-0.02": 0.0,
			"-0.019": 0.0,
			"-0.018": 0.0,
			"-0.017": 0.0,
			"-0.016": 0.0847124406595,
			"-0.015": 0.433644277865,
			"-0.014": 0.511821251607,
			"-0.013": 0.498388668572,
			"-0.012": 1.01426395815,
			"-0.011": 2.55338172832,
			"-0.01": 4.00251751631,
			"-0.009": 5.98316485194,
			"-0.008": 7.52179891777,
			"-0.007": 9.62402528421,
			"-0.006": 10.8432582556,
			"-0.005": 17.9824682703,
			"-0.004": 15.4151387306,
			"-0.003": 13.2272632776,
			"-0.002": 10.5202462518,
			"-0.001": 9.16280154182,
			"0.0": 10.3282884824,
			"0.001": 11.5006561539,
			"0.002": 13.8694058122,
			"0.003": 8.1548416464,
			"0.004": 9.35620718123,
			"0.005": 12.1245239852,
			"0.006": 16.7687436326,
			"0.007": 12.8472214762,
			"0.008": 6.96672586125,
			"0.009": 5.53457442823,
			"0.01": 5.0764273372,
			"0.011": 3.57339289152,
			"0.012": 1.43602055689,
			"0.013": 0.0459107416987,
			"0.014": 0.0,
			"0.015": 0.0,
			"0.016": 0.0,
			"0.017": 0.0,
			"0.018": 0.0,
			"0.019": 0.0,
			"0.02": 0.0,
			"0.021": 0.0,
			"0.022": 0.0,
			"0.023": 0.0,
			"0.024": 0.0,
			"0.025": 0.0
		}
	}
}
