{
	 "smiles": "OC(=O)C1=CC(=CC(Br)=C1)[N+]([O-])=O", 
	 "Tm": 433.15, 
	 "num_atms": 17, 
	 "gaussian": { 
		 "optdone": 1, 
		 "sigma_profile": "yes", 
		 "theory": "DFT", 
		 "functional": "B3LYP", 
		 "basiset": "6-31G**", 
		 "properties": { 
			 "R2extent": 5350.3328, 
			 "electric_dipole_moment_norm": 4.30513944257, 
			 "electric_quadrupole_moment_norm": 9.24477839432, 
			 "total_energy": -3196.1188017, 
			 "HOMO_LUMO_gap": 0.16985, 
			 "cosmo_polarized_energy": -12.0, 
			 "cosmo_cavitation_energy": 25.87, 
			 "cosmo_dispersion_energy": -19.26, 
			 "cosmo_repulsion_energy": 1.53, 
			 "cosmo_total_nonelectrostatic_energy": 8.13, 
			 "SMD_solvation_energy": 6.92 
		},
		"coords": [
			{
				"x": 2.3870813374,
				"y": -1.491275156,
				"z": -1.7275670361,
				"element": "O" 
			},
			{
				"x": 1.0766069578,
				"y": -1.2281794746,
				"z": -1.9337260142,
				"element": "C" 
			},
			{
				"x": 0.314121043,
				"y": -2.0245869466,
				"z": -2.4379389508,
				"element": "O" 
			},
			{
				"x": 0.6833546616,
				"y": 0.1371726899,
				"z": -1.4746978249,
				"element": "C" 
			},
			{
				"x": -0.651886352,
				"y": 0.5173026346,
				"z": -1.6392815742,
				"element": "C" 
			},
			{
				"x": -1.0318611003,
				"y": 1.7840784861,
				"z": -1.2171263927,
				"element": "C" 
			},
			{
				"x": -0.1380890924,
				"y": 2.684441381,
				"z": -0.6395304502,
				"element": "C" 
			},
			{
				"x": 1.1857022726,
				"y": 2.2816280224,
				"z": -0.4868853871,
				"element": "C" 
			},
			{
				"x": 2.4414192442,
				"y": 3.4798707841,
				"z": 0.2971721658,
				"element": "Br" 
			},
			{
				"x": 1.6079236056,
				"y": 1.0175462313,
				"z": -0.8978386145,
				"element": "C" 
			},
			{
				"x": -2.4388778541,
				"y": 2.2023808119,
				"z": -1.3834556734,
				"element": "N" 
			},
			{
				"x": -2.7424590655,
				"y": 3.3298814801,
				"z": -0.9995910695,
				"element": "O" 
			},
			{
				"x": -3.2111020305,
				"y": 1.3955441041,
				"z": -1.8936773947,
				"element": "O" 
			},
			{
				"x": 2.5396414303,
				"y": -2.3927636411,
				"z": -2.0561510213,
				"element": "H" 
			},
			{
				"x": -1.3674302845,
				"y": -0.1614889437,
				"z": -2.0847579695,
				"element": "H" 
			},
			{
				"x": -0.4818884772,
				"y": 3.6611021568,
				"z": -0.3262570342,
				"element": "H" 
			},
			{
				"x": 2.6401437039,
				"y": 0.71624538,
				"z": -0.7736897585,
				"element": "H" 
			}
		],
		 "valence_orbital": [ 
			{
				"type": "occ",
				"energy": -0.31262,
				"method": "rhf"
			},
			{
				"type": "occ",
				"energy": -0.30501,
				"method": "rhf"
			},
			{
				"type": "occ",
				"energy": -0.3048,
				"method": "rhf"
			},
			{
				"type": "occ",
				"energy": -0.30125,
				"method": "rhf"
			},
			{
				"type": "occ",
				"energy": -0.2758,
				"method": "rhf"
			},
			{
				"type": "unocc",
				"energy": -0.10595,
				"method": "rhf"
			},
			{
				"type": "unocc",
				"energy": -0.07814,
				"method": "rhf"
			},
			{
				"type": "unocc",
				"energy": -0.02743,
				"method": "rhf"
			},
			{
				"type": "unocc",
				"energy": -0.01874,
				"method": "rhf"
			},
			{
				"type": "unocc",
				"energy": 0.03297,
				"method": "rhf"
			}
		],
		"cosmo_sigma_profile": { 
			"-0.025": 0.0,
			"-0.024": 0.0,
			"-0.023": 0.0,
			"-0.022": 0.0,
			"-0.021": 0.0,
			"-0.02": 0.0,
			"-0.019": 0.54316236301,
			"-0.018": 1.22380768692,
			"-0.017": 0.535640315907,
			"-0.016": 1.09447218434,
			"-0.015": 0.457741203237,
			"-0.014": 0.800090407133,
			"-0.013": 0.966744688499,
			"-0.012": 0.669890255208,
			"-0.011": 0.567306451617,
			"-0.01": 0.618780386682,
			"-0.009": 1.19284484508,
			"-0.008": 3.53032719139,
			"-0.007": 5.63087409337,
			"-0.006": 5.57677999207,
			"-0.005": 10.0351176356,
			"-0.004": 12.8139931254,
			"-0.003": 20.3006754136,
			"-0.002": 26.2523069768,
			"-0.001": 17.841978883,
			"0.0": 11.1698700844,
			"0.001": 9.73049344747,
			"0.002": 10.8481426995,
			"0.003": 15.7542325151,
			"0.004": 9.37411366854,
			"0.005": 5.48299895882,
			"0.006": 8.57473971259,
			"0.007": 10.7074593812,
			"0.008": 6.53694241319,
			"0.009": 4.97963466285,
			"0.01": 3.25040064882,
			"0.011": 4.46165365224,
			"0.012": 0.285999297373,
			"0.013": 0.0,
			"0.014": 0.0,
			"0.015": 0.0,
			"0.016": 0.0,
			"0.017": 0.0,
			"0.018": 0.0,
			"0.019": 0.0,
			"0.02": 0.0,
			"0.021": 0.0,
			"0.022": 0.0,
			"0.023": 0.0,
			"0.024": 0.0,
			"0.025": 0.0
		}
	}
}
