{
	 "smiles": "CC(C)C1=CC=CC(C(C)C)=C1O", 
	 "Tm": 291.15, 
	 "num_atms": 31, 
	 "gaussian": { 
		 "optdone": 1, 
		 "sigma_profile": "yes", 
		 "theory": "DFT", 
		 "functional": "B3LYP", 
		 "basiset": "6-31G**", 
		 "properties": { 
			 "R2extent": 2967.8515, 
			 "electric_dipole_moment_norm": 1.64072401701, 
			 "electric_quadrupole_moment_norm": 6.35763540634, 
			 "total_energy": -543.370544453, 
			 "HOMO_LUMO_gap": 0.21844, 
			 "cosmo_polarized_energy": -6.53, 
			 "cosmo_cavitation_energy": 31.39, 
			 "cosmo_dispersion_energy": -22.37, 
			 "cosmo_repulsion_energy": 1.77, 
			 "cosmo_total_nonelectrostatic_energy": 10.8, 
			 "SMD_solvation_energy": 5.6 
		},
		"coords": [
			{
				"x": 2.0691400086,
				"y": 0.1363808841,
				"z": 3.5027961896,
				"element": "C" 
			},
			{
				"x": 0.8561996454,
				"y": -0.1597899052,
				"z": 2.608771138,
				"element": "C" 
			},
			{
				"x": -0.4460460479,
				"y": 0.3152991099,
				"z": 3.2915266138,
				"element": "C" 
			},
			{
				"x": 0.9719313787,
				"y": 0.4069770001,
				"z": 1.195349174,
				"element": "C" 
			},
			{
				"x": 1.7961641634,
				"y": 1.4970535014,
				"z": 0.8900385804,
				"element": "C" 
			},
			{
				"x": 1.8545133216,
				"y": 2.0183564245,
				"z": -0.3999382217,
				"element": "C" 
			},
			{
				"x": 1.0850950384,
				"y": 1.4476138288,
				"z": -1.4137134627,
				"element": "C" 
			},
			{
				"x": 0.2482832256,
				"y": 0.3561054113,
				"z": -1.1650199991,
				"element": "C" 
			},
			{
				"x": -0.6227588137,
				"y": -0.285449661,
				"z": -2.2391077999,
				"element": "C" 
			},
			{
				"x": -0.0935910538,
				"y": -0.0845347053,
				"z": -3.6665289265,
				"element": "C" 
			},
			{
				"x": -2.0817693532,
				"y": 0.205590852,
				"z": -2.1257885569,
				"element": "C" 
			},
			{
				"x": 0.2028427272,
				"y": -0.1440553713,
				"z": 0.1510134712,
				"element": "C" 
			},
			{
				"x": -0.646115123,
				"y": -1.2065206995,
				"z": 0.3627410966,
				"element": "O" 
			},
			{
				"x": 2.1435661411,
				"y": 1.2034017844,
				"z": 3.7376032449,
				"element": "H" 
			},
			{
				"x": 3.0050188434,
				"y": -0.1733064267,
				"z": 3.0282280031,
				"element": "H" 
			},
			{
				"x": 1.9744996815,
				"y": -0.398455748,
				"z": 4.4531966608,
				"element": "H" 
			},
			{
				"x": 0.8112674438,
				"y": -1.2602353389,
				"z": 2.5294303449,
				"element": "H" 
			},
			{
				"x": -1.3297481967,
				"y": 0.0762993987,
				"z": 2.6916231773,
				"element": "H" 
			},
			{
				"x": -0.5654296344,
				"y": -0.1479582963,
				"z": 4.2773119653,
				"element": "H" 
			},
			{
				"x": -0.4253222748,
				"y": 1.4017381782,
				"z": 3.4257937859,
				"element": "H" 
			},
			{
				"x": 2.4036910473,
				"y": 1.9429439276,
				"z": 1.6706083706,
				"element": "H" 
			},
			{
				"x": 2.5009836872,
				"y": 2.863665006,
				"z": -0.6162998874,
				"element": "H" 
			},
			{
				"x": 1.1440722974,
				"y": 1.8549866011,
				"z": -2.4177537198,
				"element": "H" 
			},
			{
				"x": -0.6302473777,
				"y": -1.3630778456,
				"z": -2.0362181857,
				"element": "H" 
			},
			{
				"x": -0.6913004985,
				"y": -0.6708667349,
				"z": -4.372196319,
				"element": "H" 
			},
			{
				"x": 0.9496848683,
				"y": -0.4027212087,
				"z": -3.7609372351,
				"element": "H" 
			},
			{
				"x": -0.1577816147,
				"y": 0.9624396373,
				"z": -3.9838322403,
				"element": "H" 
			},
			{
				"x": -2.4872590512,
				"y": 0.0040487319,
				"z": -1.1310186032,
				"element": "H" 
			},
			{
				"x": -2.7183382942,
				"y": -0.2986021184,
				"z": -2.8619290117,
				"element": "H" 
			},
			{
				"x": -2.1424777531,
				"y": 1.2845161626,
				"z": -2.3087925252,
				"element": "H" 
			},
			{
				"x": -0.5193684317,
				"y": -1.5449423801,
				"z": 1.2571428778,
				"element": "H" 
			}
		],
		 "valence_orbital": [ 
			{
				"type": "occ",
				"energy": -0.31933,
				"method": "rhf"
			},
			{
				"type": "occ",
				"energy": -0.31426,
				"method": "rhf"
			},
			{
				"type": "occ",
				"energy": -0.30753,
				"method": "rhf"
			},
			{
				"type": "occ",
				"energy": -0.232,
				"method": "rhf"
			},
			{
				"type": "occ",
				"energy": -0.20973,
				"method": "rhf"
			},
			{
				"type": "unocc",
				"energy": 0.00871,
				"method": "rhf"
			},
			{
				"type": "unocc",
				"energy": 0.01901,
				"method": "rhf"
			},
			{
				"type": "unocc",
				"energy": 0.06069,
				"method": "rhf"
			},
			{
				"type": "unocc",
				"energy": 0.09602,
				"method": "rhf"
			},
			{
				"type": "unocc",
				"energy": 0.10627,
				"method": "rhf"
			}
		],
		"cosmo_sigma_profile": { 
			"-0.025": 0.0,
			"-0.024": 0.0,
			"-0.023": 0.0,
			"-0.022": 0.0,
			"-0.021": 0.0,
			"-0.02": 0.0,
			"-0.019": 0.0,
			"-0.018": 0.0,
			"-0.017": 0.0,
			"-0.016": 0.18409055305,
			"-0.015": 0.695797153997,
			"-0.014": 0.882327348953,
			"-0.013": 0.450403568912,
			"-0.012": 1.07019897257,
			"-0.011": 0.594008403333,
			"-0.01": 1.03548795121,
			"-0.009": 1.24529695052,
			"-0.008": 1.29645286132,
			"-0.007": 0.836736070511,
			"-0.006": 0.705059348872,
			"-0.005": 4.40117352124,
			"-0.004": 10.7088746875,
			"-0.003": 22.7458836203,
			"-0.002": 32.4607292996,
			"-0.001": 33.4026113846,
			"0.0": 31.5003968224,
			"0.001": 33.8170679673,
			"0.002": 18.4653311207,
			"0.003": 9.49763040126,
			"0.004": 9.42116106885,
			"0.005": 8.80888537914,
			"0.006": 7.80230870317,
			"0.007": 7.45286508362,
			"0.008": 2.70445030291,
			"0.009": 1.73401951051,
			"0.01": 0.685869741548,
			"0.011": 0.0,
			"0.012": 0.0,
			"0.013": 0.0,
			"0.014": 0.0,
			"0.015": 0.0,
			"0.016": 0.0,
			"0.017": 0.0,
			"0.018": 0.0,
			"0.019": 0.0,
			"0.02": 0.0,
			"0.021": 0.0,
			"0.022": 0.0,
			"0.023": 0.0,
			"0.024": 0.0,
			"0.025": 0.0
		}
	}
}
