{
	 "smiles": "COC1=C(C=C(C=C1)C(O)=O)S(=O)(=O)NC1CCCC1", 
	 "Tm": 490.15, 
	 "num_atms": 37, 
	 "gaussian": { 
		 "optdone": 1, 
		 "sigma_profile": "yes", 
		 "theory": "DFT", 
		 "functional": "B3LYP", 
		 "basiset": "6-31G**", 
		 "properties": { 
			 "R2extent": 7744.3817, 
			 "electric_dipole_moment_norm": 5.7499900539, 
			 "electric_quadrupole_moment_norm": 29.5700029388, 
			 "total_energy": -1334.61292722, 
			 "HOMO_LUMO_gap": 0.19426, 
			 "cosmo_polarized_energy": -21.7, 
			 "cosmo_cavitation_energy": 40.33, 
			 "cosmo_dispersion_energy": -29.01, 
			 "cosmo_repulsion_energy": 2.2, 
			 "cosmo_total_nonelectrostatic_energy": 13.53, 
			 "SMD_solvation_energy": 6.94 
		},
		"coords": [
			{
				"x": 0.2501676851,
				"y": 3.368727368,
				"z": 0.3415674676,
				"element": "C" 
			},
			{
				"x": 0.8432683956,
				"y": 2.1890786451,
				"z": 0.9174730037,
				"element": "O" 
			},
			{
				"x": 1.7715908111,
				"y": 1.545322722,
				"z": 0.1421937685,
				"element": "C" 
			},
			{
				"x": 1.4709071591,
				"y": 0.2735225406,
				"z": -0.3635908756,
				"element": "C" 
			},
			{
				"x": 2.4159811616,
				"y": -0.4520212149,
				"z": -1.082573303,
				"element": "C" 
			},
			{
				"x": 3.6844084819,
				"y": 0.0923619935,
				"z": -1.3149432881,
				"element": "C" 
			},
			{
				"x": 3.975796105,
				"y": 1.3761167331,
				"z": -0.8298627022,
				"element": "C" 
			},
			{
				"x": 3.035608668,
				"y": 2.0937530031,
				"z": -0.0989576461,
				"element": "C" 
			},
			{
				"x": 4.7570980556,
				"y": -0.6136334518,
				"z": -2.0911715591,
				"element": "C" 
			},
			{
				"x": 4.6096120463,
				"y": -1.9487041032,
				"z": -2.2815772407,
				"element": "O" 
			},
			{
				"x": 5.7237904599,
				"y": -0.0415041009,
				"z": -2.5378519682,
				"element": "O" 
			},
			{
				"x": -0.183011296,
				"y": -0.4095042978,
				"z": -0.1860818689,
				"element": "S" 
			},
			{
				"x": -0.1598712019,
				"y": -1.7785116227,
				"z": -0.7172191692,
				"element": "O" 
			},
			{
				"x": -1.1251114904,
				"y": 0.5679741206,
				"z": -0.7505299002,
				"element": "O" 
			},
			{
				"x": -0.3029555343,
				"y": -0.5070696727,
				"z": 1.488998963,
				"element": "N" 
			},
			{
				"x": -1.2646951835,
				"y": -1.4393485315,
				"z": 2.1268816747,
				"element": "C" 
			},
			{
				"x": -0.7729086697,
				"y": -2.9046932137,
				"z": 2.2033378477,
				"element": "C" 
			},
			{
				"x": -2.0641593017,
				"y": -3.7617999471,
				"z": 2.3345215641,
				"element": "C" 
			},
			{
				"x": -3.2501887,
				"y": -2.7611389049,
				"z": 2.2927033917,
				"element": "C" 
			},
			{
				"x": -2.692048724,
				"y": -1.537240028,
				"z": 1.552325484,
				"element": "C" 
			},
			{
				"x": -0.3804598578,
				"y": 3.0897372424,
				"z": -0.5071667359,
				"element": "H" 
			},
			{
				"x": -0.3591689057,
				"y": 3.8141366475,
				"z": 1.1288576811,
				"element": "H" 
			},
			{
				"x": 1.0187782689,
				"y": 4.0829463923,
				"z": 0.0284590656,
				"element": "H" 
			},
			{
				"x": 2.1088724188,
				"y": -1.4181923968,
				"z": -1.4732270232,
				"element": "H" 
			},
			{
				"x": 4.9586813898,
				"y": 1.7881696399,
				"z": -1.0306562633,
				"element": "H" 
			},
			{
				"x": 3.2757204154,
				"y": 3.0718425834,
				"z": 0.3053343453,
				"element": "H" 
			},
			{
				"x": 3.8748504489,
				"y": -2.2951205986,
				"z": -1.7569286448,
				"element": "H" 
			},
			{
				"x": -0.3713763786,
				"y": 0.44798206,
				"z": 1.8352067544,
				"element": "H" 
			},
			{
				"x": -1.3436911671,
				"y": -1.0488439213,
				"z": 3.149135223,
				"element": "H" 
			},
			{
				"x": -0.0820627283,
				"y": -3.0421076623,
				"z": 3.0403242886,
				"element": "H" 
			},
			{
				"x": -0.2342618404,
				"y": -3.1518976375,
				"z": 1.2874071842,
				"element": "H" 
			},
			{
				"x": -2.0752378875,
				"y": -4.3603067493,
				"z": 3.250248051,
				"element": "H" 
			},
			{
				"x": -2.1336215924,
				"y": -4.4641931145,
				"z": 1.4981399012,
				"element": "H" 
			},
			{
				"x": -3.540216831,
				"y": -2.4750033098,
				"z": 3.311679414,
				"element": "H" 
			},
			{
				"x": -4.1398813253,
				"y": -3.1792934258,
				"z": 1.8131391045,
				"element": "H" 
			},
			{
				"x": -2.6472503718,
				"y": -1.7341261254,
				"z": 0.4758451614,
				"element": "H" 
			},
			{
				"x": -3.2749529834,
				"y": -0.6232176612,
				"z": 1.7030588493,
				"element": "H" 
			}
		],
		 "valence_orbital": [ 
			{
				"type": "occ",
				"energy": -0.30373,
				"method": "rhf"
			},
			{
				"type": "occ",
				"energy": -0.28903,
				"method": "rhf"
			},
			{
				"type": "occ",
				"energy": -0.28148,
				"method": "rhf"
			},
			{
				"type": "occ",
				"energy": -0.27117,
				"method": "rhf"
			},
			{
				"type": "occ",
				"energy": -0.25823,
				"method": "rhf"
			},
			{
				"type": "unocc",
				"energy": -0.06397,
				"method": "rhf"
			},
			{
				"type": "unocc",
				"energy": -0.04761,
				"method": "rhf"
			},
			{
				"type": "unocc",
				"energy": 0.02954,
				"method": "rhf"
			},
			{
				"type": "unocc",
				"energy": 0.04366,
				"method": "rhf"
			},
			{
				"type": "unocc",
				"energy": 0.05573,
				"method": "rhf"
			}
		],
		"cosmo_sigma_profile": { 
			"-0.025": 0.0,
			"-0.024": 0.0,
			"-0.023": 0.0,
			"-0.022": 0.0,
			"-0.021": 0.0,
			"-0.02": 0.361581391566,
			"-0.019": 0.594508852355,
			"-0.018": 1.13083661882,
			"-0.017": 1.00949043793,
			"-0.016": 0.954168783769,
			"-0.015": 0.854075353201,
			"-0.014": 0.943796528228,
			"-0.013": 1.10680467312,
			"-0.012": 1.715291576,
			"-0.011": 1.9482575807,
			"-0.01": 1.90164365328,
			"-0.009": 2.16160985873,
			"-0.008": 5.41095526559,
			"-0.007": 7.69574211503,
			"-0.006": 12.5480657204,
			"-0.005": 13.3710933047,
			"-0.004": 17.6041758264,
			"-0.003": 29.6076550812,
			"-0.002": 28.8732145795,
			"-0.001": 32.6935799504,
			"0.0": 33.7623992176,
			"0.001": 28.1385002541,
			"0.002": 12.1651529945,
			"0.003": 8.82717117124,
			"0.004": 7.07938889207,
			"0.005": 8.41460831129,
			"0.006": 7.21041494322,
			"0.007": 5.838290527,
			"0.008": 8.21845976199,
			"0.009": 7.88440433653,
			"0.01": 10.1449038642,
			"0.011": 11.2254687536,
			"0.012": 6.05449129287,
			"0.013": 1.02187462404,
			"0.014": 0.0,
			"0.015": 0.0,
			"0.016": 0.0,
			"0.017": 0.0,
			"0.018": 0.0,
			"0.019": 0.0,
			"0.02": 0.0,
			"0.021": 0.0,
			"0.022": 0.0,
			"0.023": 0.0,
			"0.024": 0.0,
			"0.025": 0.0
		}
	}
}
