{
	 "smiles": "CC1=NC2=C(C(=CS2)C2=CC=CC=C2)C(=O)N1NC(=O)C1=CC=CC=C1Cl", 
	 "Tm": 483.15, 
	 "num_atms": 41, 
	 "gaussian": { 
		 "optdone": 1, 
		 "sigma_profile": "yes", 
		 "theory": "DFT", 
		 "functional": "B3LYP", 
		 "basiset": "6-31G**", 
		 "properties": { 
			 "R2extent": 11035.3424, 
			 "electric_dipole_moment_norm": 3.78460919779, 
			 "electric_quadrupole_moment_norm": 20.8932057356, 
			 "total_energy": -1943.63804238, 
			 "HOMO_LUMO_gap": 0.16497, 
			 "cosmo_polarized_energy": -18.52, 
			 "cosmo_cavitation_energy": 48.24, 
			 "cosmo_dispersion_energy": -33.0, 
			 "cosmo_repulsion_energy": 2.41, 
			 "cosmo_total_nonelectrostatic_energy": 17.65, 
			 "SMD_solvation_energy": 7.19 
		},
		"coords": [
			{
				"x": -3.4492119126,
				"y": -1.3582460674,
				"z": -1.3597270728,
				"element": "C" 
			},
			{
				"x": -2.5441930148,
				"y": -0.7832717536,
				"z": -0.311863821,
				"element": "C" 
			},
			{
				"x": -3.0616926178,
				"y": -0.2458122056,
				"z": 0.7565204059,
				"element": "N" 
			},
			{
				"x": -2.1894314128,
				"y": 0.1906597909,
				"z": 1.702859879,
				"element": "C" 
			},
			{
				"x": -0.7999954341,
				"y": 0.0702209153,
				"z": 1.6939519243,
				"element": "C" 
			},
			{
				"x": -0.1787089019,
				"y": 0.5568910549,
				"z": 2.9081800506,
				"element": "C" 
			},
			{
				"x": -1.1295796879,
				"y": 1.0396634477,
				"z": 3.7715999146,
				"element": "C" 
			},
			{
				"x": -2.7615555834,
				"y": 0.9129437699,
				"z": 3.1825562194,
				"element": "S" 
			},
			{
				"x": 1.264686385,
				"y": 0.5807916888,
				"z": 3.2467545623,
				"element": "C" 
			},
			{
				"x": 1.6760272546,
				"y": 0.2404756934,
				"z": 4.5467109563,
				"element": "C" 
			},
			{
				"x": 3.0190040108,
				"y": 0.3137142516,
				"z": 4.9141560845,
				"element": "C" 
			},
			{
				"x": 3.9764660201,
				"y": 0.72569976,
				"z": 3.9862613305,
				"element": "C" 
			},
			{
				"x": 3.5799209523,
				"y": 1.0603790972,
				"z": 2.6897177289,
				"element": "C" 
			},
			{
				"x": 2.2381648708,
				"y": 0.9886964514,
				"z": 2.3209283484,
				"element": "C" 
			},
			{
				"x": -0.202581267,
				"y": -0.5792557296,
				"z": 0.5463572246,
				"element": "C" 
			},
			{
				"x": 0.9542816982,
				"y": -0.9262742246,
				"z": 0.367166283,
				"element": "O" 
			},
			{
				"x": -1.1704935005,
				"y": -0.847159048,
				"z": -0.4937136848,
				"element": "N" 
			},
			{
				"x": -0.6475817679,
				"y": -1.4809519873,
				"z": -1.623851752,
				"element": "N" 
			},
			{
				"x": -0.2766526997,
				"y": -0.7961293769,
				"z": -2.790429895,
				"element": "C" 
			},
			{
				"x": 0.4922232267,
				"y": -1.3300458909,
				"z": -3.5646076795,
				"element": "O" 
			},
			{
				"x": -0.9923784403,
				"y": 0.4858948601,
				"z": -3.1501217034,
				"element": "C" 
			},
			{
				"x": -1.9872788742,
				"y": 0.408813286,
				"z": -4.1376925519,
				"element": "C" 
			},
			{
				"x": -2.6455722394,
				"y": 1.5509203112,
				"z": -4.5870150083,
				"element": "C" 
			},
			{
				"x": -2.2976022848,
				"y": 2.799482879,
				"z": -4.0683536598,
				"element": "C" 
			},
			{
				"x": -1.2853216,
				"y": 2.9032857163,
				"z": -3.1166975206,
				"element": "C" 
			},
			{
				"x": -0.6359138229,
				"y": 1.7508755618,
				"z": -2.6700490937,
				"element": "C" 
			},
			{
				"x": 0.6845904969,
				"y": 1.928788101,
				"z": -1.5297591141,
				"element": "Cl" 
			},
			{
				"x": -3.1405619429,
				"y": -2.3717854193,
				"z": -1.630763777,
				"element": "H" 
			},
			{
				"x": -3.4407106313,
				"y": -0.756229668,
				"z": -2.2723234652,
				"element": "H" 
			},
			{
				"x": -4.4600334855,
				"y": -1.3694185756,
				"z": -0.9530003788,
				"element": "H" 
			},
			{
				"x": -0.9466623668,
				"y": 1.5053960945,
				"z": 4.7299115962,
				"element": "H" 
			},
			{
				"x": 0.9374808478,
				"y": -0.1046033468,
				"z": 5.2645195981,
				"element": "H" 
			},
			{
				"x": 3.3169378259,
				"y": 0.039559743,
				"z": 5.9222536555,
				"element": "H" 
			},
			{
				"x": 5.0240306582,
				"y": 0.7793745384,
				"z": 4.2684395234,
				"element": "H" 
			},
			{
				"x": 4.3185242805,
				"y": 1.3791397914,
				"z": 1.9598862163,
				"element": "H" 
			},
			{
				"x": 1.9431693906,
				"y": 1.2474900142,
				"z": 1.3113644419,
				"element": "H" 
			},
			{
				"x": 0.0565521201,
				"y": -2.1691360128,
				"z": -1.3646619319,
				"element": "H" 
			},
			{
				"x": -2.2328241418,
				"y": -0.5629346169,
				"z": -4.5554419874,
				"element": "H" 
			},
			{
				"x": -3.417688823,
				"y": 1.4671611822,
				"z": -5.3451532893,
				"element": "H" 
			},
			{
				"x": -2.8021270259,
				"y": 3.6970038375,
				"z": -4.4126182896,
				"element": "H" 
			},
			{
				"x": -0.9860065592,
				"y": 3.8685320854,
				"z": -2.7238502679,
				"element": "H" 
			}
		],
		 "valence_orbital": [ 
			{
				"type": "occ",
				"energy": -0.26578,
				"method": "rhf"
			},
			{
				"type": "occ",
				"energy": -0.25892,
				"method": "rhf"
			},
			{
				"type": "occ",
				"energy": -0.246,
				"method": "rhf"
			},
			{
				"type": "occ",
				"energy": -0.24217,
				"method": "rhf"
			},
			{
				"type": "occ",
				"energy": -0.21697,
				"method": "rhf"
			},
			{
				"type": "unocc",
				"energy": -0.052,
				"method": "rhf"
			},
			{
				"type": "unocc",
				"energy": -0.03817,
				"method": "rhf"
			},
			{
				"type": "unocc",
				"energy": -0.03019,
				"method": "rhf"
			},
			{
				"type": "unocc",
				"energy": -0.02618,
				"method": "rhf"
			},
			{
				"type": "unocc",
				"energy": -0.00919,
				"method": "rhf"
			}
		],
		"cosmo_sigma_profile": { 
			"-0.025": 0.0,
			"-0.024": 0.0,
			"-0.023": 0.0,
			"-0.022": 0.0,
			"-0.021": 0.0,
			"-0.02": 0.0,
			"-0.019": 0.0,
			"-0.018": 0.0,
			"-0.017": 0.0,
			"-0.016": 0.0,
			"-0.015": 0.0294647617755,
			"-0.014": 0.691914816839,
			"-0.013": 0.512484872824,
			"-0.012": 0.795693203601,
			"-0.011": 0.765735152986,
			"-0.01": 1.13286530091,
			"-0.009": 1.93624455451,
			"-0.008": 6.01820081532,
			"-0.007": 12.4495572095,
			"-0.006": 21.1363742938,
			"-0.005": 26.9751325316,
			"-0.004": 26.3664743959,
			"-0.003": 31.3282490578,
			"-0.002": 27.165196755,
			"-0.001": 26.6514353203,
			"0.0": 28.1376330949,
			"0.001": 37.3738984823,
			"0.002": 37.1235264958,
			"0.003": 30.1288128127,
			"0.004": 18.6343593996,
			"0.005": 12.783699982,
			"0.006": 9.3429048197,
			"0.007": 5.1735350962,
			"0.008": 4.70377595534,
			"0.009": 3.71889780846,
			"0.01": 6.23495727345,
			"0.011": 8.62714822299,
			"0.012": 5.91536364074,
			"0.013": 0.416882988186,
			"0.014": 0.0,
			"0.015": 0.0,
			"0.016": 0.0,
			"0.017": 0.0,
			"0.018": 0.0,
			"0.019": 0.0,
			"0.02": 0.0,
			"0.021": 0.0,
			"0.022": 0.0,
			"0.023": 0.0,
			"0.024": 0.0,
			"0.025": 0.0
		}
	}
}
