{
	 "smiles": "CN1C(S)=NN=C1C1=CC=CO1", 
	 "Tm": 453.15, 
	 "num_atms": 19, 
	 "gaussian": { 
		 "optdone": 1, 
		 "sigma_profile": "yes", 
		 "theory": "DFT", 
		 "functional": "B3LYP", 
		 "basiset": "6-31G**", 
		 "properties": { 
			 "R2extent": 2706.3346, 
			 "electric_dipole_moment_norm": 5.22087622818, 
			 "electric_quadrupole_moment_norm": 10.3409601837, 
			 "total_energy": -908.569174683, 
			 "HOMO_LUMO_gap": 0.18464, 
			 "cosmo_polarized_energy": -18.14, 
			 "cosmo_cavitation_energy": 25.34, 
			 "cosmo_dispersion_energy": -19.28, 
			 "cosmo_repulsion_energy": 1.47, 
			 "cosmo_total_nonelectrostatic_energy": 7.53, 
			 "SMD_solvation_energy": 2.94 
		},
		"coords": [
			{
				"x": 0.1219079839,
				"y": -1.2335576911,
				"z": 1.9598578332,
				"element": "C" 
			},
			{
				"x": 0.7759181899,
				"y": -0.5779462659,
				"z": 0.8374304189,
				"element": "N" 
			},
			{
				"x": 2.0994598071,
				"y": -0.2368145026,
				"z": 0.7316117226,
				"element": "C" 
			},
			{
				"x": 3.2938555556,
				"y": -0.6579797792,
				"z": 1.9641391528,
				"element": "S" 
			},
			{
				"x": 2.3370767511,
				"y": 0.4214318552,
				"z": -0.3803181209,
				"element": "N" 
			},
			{
				"x": 1.1408329271,
				"y": 0.5253315991,
				"z": -1.0516257408,
				"element": "N" 
			},
			{
				"x": 0.2169446009,
				"y": -0.073783306,
				"z": -0.3262437256,
				"element": "C" 
			},
			{
				"x": -1.1821953933,
				"y": -0.1964312928,
				"z": -0.6846803242,
				"element": "C" 
			},
			{
				"x": -2.1696699108,
				"y": -1.1056643246,
				"z": -0.3933839619,
				"element": "C" 
			},
			{
				"x": -3.3361797745,
				"y": -0.6769387318,
				"z": -1.1001987346,
				"element": "C" 
			},
			{
				"x": -2.9753025526,
				"y": 0.4530638959,
				"z": -1.7699121051,
				"element": "C" 
			},
			{
				"x": -1.6742069552,
				"y": 0.7604879369,
				"z": -1.5267250782,
				"element": "O" 
			},
			{
				"x": 0.6451185137,
				"y": -0.9754876474,
				"z": 2.8832667979,
				"element": "H" 
			},
			{
				"x": 0.1220127876,
				"y": -2.3221972614,
				"z": 1.8430442176,
				"element": "H" 
			},
			{
				"x": -0.9074857831,
				"y": -0.8793190735,
				"z": 2.0291237891,
				"element": "H" 
			},
			{
				"x": 4.2592606647,
				"y": 0.0639762558,
				"z": 1.365002954,
				"element": "H" 
			},
			{
				"x": -2.0728999077,
				"y": -1.9931812139,
				"z": 0.2139904712,
				"element": "H" 
			},
			{
				"x": -4.305530361,
				"y": -1.153473297,
				"z": -1.1113564547,
				"element": "H" 
			},
			{
				"x": -3.4994171434,
				"y": 1.1272828443,
				"z": -2.4291231114,
				"element": "H" 
			}
		],
		 "valence_orbital": [ 
			{
				"type": "occ",
				"energy": -0.29431,
				"method": "rhf"
			},
			{
				"type": "occ",
				"energy": -0.28989,
				"method": "rhf"
			},
			{
				"type": "occ",
				"energy": -0.26095,
				"method": "rhf"
			},
			{
				"type": "occ",
				"energy": -0.25359,
				"method": "rhf"
			},
			{
				"type": "occ",
				"energy": -0.21252,
				"method": "rhf"
			},
			{
				"type": "unocc",
				"energy": -0.02788,
				"method": "rhf"
			},
			{
				"type": "unocc",
				"energy": 0.00193,
				"method": "rhf"
			},
			{
				"type": "unocc",
				"energy": 0.02973,
				"method": "rhf"
			},
			{
				"type": "unocc",
				"energy": 0.0445,
				"method": "rhf"
			},
			{
				"type": "unocc",
				"energy": 0.05633,
				"method": "rhf"
			}
		],
		"cosmo_sigma_profile": { 
			"-0.025": 0.0,
			"-0.024": 0.0,
			"-0.023": 0.0,
			"-0.022": 0.0,
			"-0.021": 0.0,
			"-0.02": 0.0,
			"-0.019": 0.0,
			"-0.018": 0.0,
			"-0.017": 0.0,
			"-0.016": 0.0,
			"-0.015": 0.0,
			"-0.014": 0.0,
			"-0.013": 0.178557840675,
			"-0.012": 1.31309180481,
			"-0.011": 1.53168977831,
			"-0.01": 1.71402128426,
			"-0.009": 2.78541291676,
			"-0.008": 6.6093994588,
			"-0.007": 15.2916642318,
			"-0.006": 14.2389889261,
			"-0.005": 16.3770791799,
			"-0.004": 16.0277211866,
			"-0.003": 9.25770713885,
			"-0.002": 9.56978932089,
			"-0.001": 9.21165539359,
			"0.0": 11.4191317557,
			"0.001": 13.7198258706,
			"0.002": 13.6122685757,
			"0.003": 12.6704349787,
			"0.004": 10.6076856192,
			"0.005": 5.50995415077,
			"0.006": 4.37452568891,
			"0.007": 4.45498041751,
			"0.008": 2.84770196941,
			"0.009": 2.35968141713,
			"0.01": 2.66964855753,
			"0.011": 2.99197208255,
			"0.012": 2.93176152159,
			"0.013": 3.77658281283,
			"0.014": 3.28730666595,
			"0.015": 2.51905653543,
			"0.016": 2.24712432889,
			"0.017": 0.396284754341,
			"0.018": 0.0,
			"0.019": 0.0,
			"0.02": 0.0,
			"0.021": 0.0,
			"0.022": 0.0,
			"0.023": 0.0,
			"0.024": 0.0,
			"0.025": 0.0
		}
	}
}
