{
	 "smiles": "O=C(CC#N)NC1CC1", 
	 "Tm": 361.65, 
	 "num_atms": 17, 
	 "gaussian": { 
		 "optdone": 1, 
		 "sigma_profile": "yes", 
		 "theory": "DFT", 
		 "functional": "B3LYP", 
		 "basiset": "6-31G**", 
		 "properties": { 
			 "R2extent": 1402.1592, 
			 "electric_dipole_moment_norm": 4.07923430805, 
			 "electric_quadrupole_moment_norm": 9.88451881783, 
			 "total_energy": -418.144015098, 
			 "HOMO_LUMO_gap": 0.26258, 
			 "cosmo_polarized_energy": -14.3, 
			 "cosmo_cavitation_energy": 21.75, 
			 "cosmo_dispersion_energy": -15.0, 
			 "cosmo_repulsion_energy": 1.26, 
			 "cosmo_total_nonelectrostatic_energy": 8.0, 
			 "SMD_solvation_energy": 5.1 
		},
		"coords": [
			{
				"x": 1.0607087307,
				"y": 2.1659827023,
				"z": 0.7693131118,
				"element": "O" 
			},
			{
				"x": 0.4073358082,
				"y": 1.4197073575,
				"z": 0.0602203366,
				"element": "C" 
			},
			{
				"x": 0.6222889544,
				"y": 1.4017117697,
				"z": -1.4710457244,
				"element": "C" 
			},
			{
				"x": 1.1128591372,
				"y": 0.1200711439,
				"z": -1.9775235125,
				"element": "C" 
			},
			{
				"x": 1.4974268421,
				"y": -0.905703184,
				"z": -2.3619263493,
				"element": "N" 
			},
			{
				"x": -0.5631015372,
				"y": 0.5922505668,
				"z": 0.5544300486,
				"element": "N" 
			},
			{
				"x": -1.3225506847,
				"y": -0.3994236345,
				"z": -0.1583043119,
				"element": "C" 
			},
			{
				"x": -2.7489338043,
				"y": -0.6188429018,
				"z": 0.2706817416,
				"element": "C" 
			},
			{
				"x": -2.4630170486,
				"y": 0.0358405749,
				"z": -1.0552157334,
				"element": "C" 
			},
			{
				"x": -0.3124450448,
				"y": 1.6464149225,
				"z": -1.9873713878,
				"element": "H" 
			},
			{
				"x": 1.3536626412,
				"y": 2.1845085062,
				"z": -1.6835831434,
				"element": "H" 
			},
			{
				"x": -0.6021047607,
				"y": 0.587731019,
				"z": 1.5665823221,
				"element": "H" 
			},
			{
				"x": -0.7639437341,
				"y": -1.278616475,
				"z": -0.4725251455,
				"element": "H" 
			},
			{
				"x": -3.1188010568,
				"y": -1.6386696998,
				"z": 0.2850321494,
				"element": "H" 
			},
			{
				"x": -3.1329309017,
				"y": 0.0137873213,
				"z": 1.0654190408,
				"element": "H" 
			},
			{
				"x": -2.6597261073,
				"y": 1.1006492425,
				"z": -1.1320620077,
				"element": "H" 
			},
			{
				"x": -2.6300274335,
				"y": -0.5289992314,
				"z": -1.9667214351,
				"element": "H" 
			}
		],
		 "valence_orbital": [ 
			{
				"type": "occ",
				"energy": -0.33809,
				"method": "rhf"
			},
			{
				"type": "occ",
				"energy": -0.33442,
				"method": "rhf"
			},
			{
				"type": "occ",
				"energy": -0.32041,
				"method": "rhf"
			},
			{
				"type": "occ",
				"energy": -0.267,
				"method": "rhf"
			},
			{
				"type": "occ",
				"energy": -0.26461,
				"method": "rhf"
			},
			{
				"type": "unocc",
				"energy": -0.00203,
				"method": "rhf"
			},
			{
				"type": "unocc",
				"energy": 0.02693,
				"method": "rhf"
			},
			{
				"type": "unocc",
				"energy": 0.03938,
				"method": "rhf"
			},
			{
				"type": "unocc",
				"energy": 0.08019,
				"method": "rhf"
			},
			{
				"type": "unocc",
				"energy": 0.08543,
				"method": "rhf"
			}
		],
		"cosmo_sigma_profile": { 
			"-0.025": 0.0,
			"-0.024": 0.0,
			"-0.023": 0.0,
			"-0.022": 0.0,
			"-0.021": 0.0,
			"-0.02": 0.0,
			"-0.019": 0.0,
			"-0.018": 0.0,
			"-0.017": 0.0,
			"-0.016": 0.0,
			"-0.015": 0.0237687371504,
			"-0.014": 0.624644794535,
			"-0.013": 0.827724372652,
			"-0.012": 1.04578528473,
			"-0.011": 1.03979811187,
			"-0.01": 1.31979449505,
			"-0.009": 4.7464878238,
			"-0.008": 5.68762669091,
			"-0.007": 6.49096513175,
			"-0.006": 10.7827300969,
			"-0.005": 13.7272631965,
			"-0.004": 13.5004452795,
			"-0.003": 12.9405089221,
			"-0.002": 12.9609850421,
			"-0.001": 12.7272516033,
			"0.0": 8.958284595,
			"0.001": 8.04366636294,
			"0.002": 6.27717282941,
			"0.003": 4.94533637193,
			"0.004": 4.56279165662,
			"0.005": 3.75244374536,
			"0.006": 3.19648340316,
			"0.007": 3.43850435821,
			"0.008": 4.63917098732,
			"0.009": 3.68427984767,
			"0.01": 4.8449560403,
			"0.011": 3.92787608918,
			"0.012": 6.54486722298,
			"0.013": 6.6505181172,
			"0.014": 0.803621046883,
			"0.015": 0.0,
			"0.016": 0.0,
			"0.017": 0.0,
			"0.018": 0.0,
			"0.019": 0.0,
			"0.02": 0.0,
			"0.021": 0.0,
			"0.022": 0.0,
			"0.023": 0.0,
			"0.024": 0.0,
			"0.0": 0.0
		}
	}
}
