{
	 "smiles": "OC1=C(C=O)C=C(C=C1[N+]([O-])=O)[N+]([O-])=O", 
	 "Tm": 345.65, 
	 "num_atms": 19, 
	 "gaussian": { 
		 "optdone": 1, 
		 "sigma_profile": "yes", 
		 "theory": "DFT", 
		 "functional": "B3LYP", 
		 "basiset": "6-31G**", 
		 "properties": { 
			 "R2extent": 4004.8877, 
			 "electric_dipole_moment_norm": 0.634952360418, 
			 "electric_quadrupole_moment_norm": 14.8984123382, 
			 "total_energy": -829.782593012, 
			 "HOMO_LUMO_gap": 0.14481, 
			 "cosmo_polarized_energy": -16.82, 
			 "cosmo_cavitation_energy": 26.0, 
			 "cosmo_dispersion_energy": -19.13, 
			 "cosmo_repulsion_energy": 1.47, 
			 "cosmo_total_nonelectrostatic_energy": 8.34, 
			 "SMD_solvation_energy": 10.36 
		},
		"coords": [
			{
				"x": -0.7822112262,
				"y": -0.7234100242,
				"z": -0.6822524568,
				"element": "O" 
			},
			{
				"x": 0.0887618095,
				"y": 0.1646995509,
				"z": -0.2503973149,
				"element": "C" 
			},
			{
				"x": 1.0573801923,
				"y": 0.6954396514,
				"z": -1.1545559021,
				"element": "C" 
			},
			{
				"x": 1.1396255487,
				"y": 0.2932663473,
				"z": -2.5870309358,
				"element": "C" 
			},
			{
				"x": 0.4254443107,
				"y": -0.5036295446,
				"z": -3.1521080553,
				"element": "O" 
			},
			{
				"x": 1.9788519935,
				"y": 1.6329122688,
				"z": -0.7036387679,
				"element": "C" 
			},
			{
				"x": 1.9718940014,
				"y": 2.0651248239,
				"z": 0.6238465477,
				"element": "C" 
			},
			{
				"x": 1.0497042252,
				"y": 1.5754962858,
				"z": 1.5315298728,
				"element": "C" 
			},
			{
				"x": 0.1188218945,
				"y": 0.6348295784,
				"z": 1.0957089333,
				"element": "C" 
			},
			{
				"x": -0.8376038616,
				"y": 0.1397009787,
				"z": 2.0746489245,
				"element": "N" 
			},
			{
				"x": -1.6782553346,
				"y": -0.7061216888,
				"z": 1.6945110756,
				"element": "O" 
			},
			{
				"x": -0.786809585,
				"y": 0.5619965871,
				"z": 3.2191018414,
				"element": "O" 
			},
			{
				"x": 2.9585117126,
				"y": 3.0561638047,
				"z": 1.0681172839,
				"element": "N" 
			},
			{
				"x": 3.75999634,
				"y": 3.4655788845,
				"z": 0.2296210246,
				"element": "O" 
			},
			{
				"x": 2.917096881,
				"y": 3.4088749441,
				"z": 2.2446672215,
				"element": "O" 
			},
			{
				"x": -1.3564477033,
				"y": -0.9596358515,
				"z": 0.0922038154,
				"element": "H" 
			},
			{
				"x": 1.9603333466,
				"y": 0.8169556716,
				"z": -3.1266903103,
				"element": "H" 
			},
			{
				"x": 2.7190022889,
				"y": 2.0418976099,
				"z": -1.383725097,
				"element": "H" 
			},
			{
				"x": 1.0463031659,
				"y": 1.9121601219,
				"z": 2.5599422994,
				"element": "H" 
			}
		],
		 "valence_orbital": [ 
			{
				"type": "occ",
				"energy": -0.33113,
				"method": "rhf"
			},
			{
				"type": "occ",
				"energy": -0.3243,
				"method": "rhf"
			},
			{
				"type": "occ",
				"energy": -0.31567,
				"method": "rhf"
			},
			{
				"type": "occ",
				"energy": -0.29071,
				"method": "rhf"
			},
			{
				"type": "occ",
				"energy": -0.27837,
				"method": "rhf"
			},
			{
				"type": "unocc",
				"energy": -0.13356,
				"method": "rhf"
			},
			{
				"type": "unocc",
				"energy": -0.11324,
				"method": "rhf"
			},
			{
				"type": "unocc",
				"energy": -0.08854,
				"method": "rhf"
			},
			{
				"type": "unocc",
				"energy": -0.02209,
				"method": "rhf"
			},
			{
				"type": "unocc",
				"energy": 0.01099,
				"method": "rhf"
			}
		],
		"cosmo_sigma_profile": { 
			"-0.025": 0.0,
			"-0.024": 0.0,
			"-0.023": 0.0,
			"-0.022": 0.0,
			"-0.021": 0.0,
			"-0.02": 0.0,
			"-0.019": 0.0,
			"-0.018": 0.0,
			"-0.017": 0.0,
			"-0.016": 0.0,
			"-0.015": 0.0,
			"-0.014": 0.0,
			"-0.013": 0.0,
			"-0.012": 0.375500172733,
			"-0.011": 2.85298210742,
			"-0.01": 5.30272025034,
			"-0.009": 5.36033152086,
			"-0.008": 7.93072537568,
			"-0.007": 11.0386345974,
			"-0.006": 13.8084179112,
			"-0.005": 17.0061188405,
			"-0.004": 19.6869094948,
			"-0.003": 14.2940944697,
			"-0.002": 6.3593243806,
			"-0.001": 6.21516866294,
			"0.0": 6.05370647698,
			"0.001": 5.74078591313,
			"0.002": 6.15706704337,
			"0.003": 7.03913345799,
			"0.004": 6.92288933968,
			"0.005": 10.796522657,
			"0.006": 12.6419312627,
			"0.007": 14.5755075573,
			"0.008": 10.8654582046,
			"0.009": 6.59786976567,
			"0.01": 4.73043855428,
			"0.011": 3.98868154722,
			"0.012": 2.58444495038,
			"0.013": 1.27272759769,
			"0.014": 0.131078142821,
			"0.015": 0.0,
			"0.016": 0.0,
			"0.017": 0.0,
			"0.018": 0.0,
			"0.019": 0.0,
			"0.02": 0.0,
			"0.021": 0.0,
			"0.022": 0.0,
			"0.023": 0.0,
			"0.024": 0.0,
			"0.025": 0.0
		}
	}
}
