{
	 "smiles": "CC1=C(C(O)=O)C(=O)OC2=C1C=CC=C2", 
	 "Tm": 437.15, 
	 "num_atms": 23, 
	 "gaussian": { 
		 "optdone": 1, 
		 "sigma_profile": "yes", 
		 "theory": "DFT", 
		 "functional": "B3LYP", 
		 "basiset": "6-31G**", 
		 "properties": { 
			 "R2extent": 3753.3502, 
			 "electric_dipole_moment_norm": 4.87695965433, 
			 "electric_quadrupole_moment_norm": 17.6989097486, 
			 "total_energy": -724.905978348, 
			 "HOMO_LUMO_gap": 0.16371, 
			 "cosmo_polarized_energy": -16.44, 
			 "cosmo_cavitation_energy": 27.79, 
			 "cosmo_dispersion_energy": -20.5, 
			 "cosmo_repulsion_energy": 1.58, 
			 "cosmo_total_nonelectrostatic_energy": 8.87, 
			 "SMD_solvation_energy": 6.98 
		},
		"coords": [
			{
				"x": -1.2321136963,
				"y": -1.107021819,
				"z": -1.087531005,
				"element": "C" 
			},
			{
				"x": -1.0888227098,
				"y": -0.0691692607,
				"z": -0.005508844,
				"element": "C" 
			},
			{
				"x": -1.565513521,
				"y": 1.2081668121,
				"z": -0.1243248313,
				"element": "C" 
			},
			{
				"x": -2.2902401669,
				"y": 1.6767736131,
				"z": -1.3506223918,
				"element": "C" 
			},
			{
				"x": -1.809516669,
				"y": 2.8465442561,
				"z": -1.8106593209,
				"element": "O" 
			},
			{
				"x": -3.1891242724,
				"y": 1.0734242684,
				"z": -1.9020760455,
				"element": "O" 
			},
			{
				"x": -1.4541175779,
				"y": 2.1903694267,
				"z": 0.9657508611,
				"element": "C" 
			},
			{
				"x": -1.951077496,
				"y": 3.2898885265,
				"z": 0.9865992591,
				"element": "O" 
			},
			{
				"x": -0.7313835798,
				"y": 1.7916493203,
				"z": 2.082975141,
				"element": "O" 
			},
			{
				"x": -0.2134216877,
				"y": 0.5396946492,
				"z": 2.214100315,
				"element": "C" 
			},
			{
				"x": -0.3748877269,
				"y": -0.4338608724,
				"z": 1.2106449051,
				"element": "C" 
			},
			{
				"x": 0.1826518803,
				"y": -1.7092301429,
				"z": 1.4415356699,
				"element": "C" 
			},
			{
				"x": 0.8684967919,
				"y": -1.988941056,
				"z": 2.6147113518,
				"element": "C" 
			},
			{
				"x": 1.0178673582,
				"y": -0.9951974301,
				"z": 3.5932785622,
				"element": "C" 
			},
			{
				"x": 0.4790407256,
				"y": 0.2699420067,
				"z": 3.3971326275,
				"element": "C" 
			},
			{
				"x": -1.779205135,
				"y": -1.9748680938,
				"z": -0.7026916615,
				"element": "H" 
			},
			{
				"x": -1.7754198412,
				"y": -0.7293957216,
				"z": -1.949547819,
				"element": "H" 
			},
			{
				"x": -0.2453641078,
				"y": -1.4621776027,
				"z": -1.4046324,
				"element": "H" 
			},
			{
				"x": -2.3649561584,
				"y": 3.0879886844,
				"z": -2.5713184453,
				"element": "H" 
			},
			{
				"x": 0.0728862459,
				"y": -2.4827269854,
				"z": 0.6900544752,
				"element": "H" 
			},
			{
				"x": 1.2890010394,
				"y": -2.9766858397,
				"z": 2.7733699068,
				"element": "H" 
			},
			{
				"x": 1.5553221363,
				"y": -1.2124193616,
				"z": 4.5113233462,
				"element": "H" 
			},
			{
				"x": 0.5746981686,
				"y": 1.0578526224,
				"z": 4.1360363433,
				"element": "H" 
			}
		],
		 "valence_orbital": [ 
			{
				"type": "occ",
				"energy": -0.31613,
				"method": "rhf"
			},
			{
				"type": "occ",
				"energy": -0.28539,
				"method": "rhf"
			},
			{
				"type": "occ",
				"energy": -0.27598,
				"method": "rhf"
			},
			{
				"type": "occ",
				"energy": -0.26212,
				"method": "rhf"
			},
			{
				"type": "occ",
				"energy": -0.24303,
				"method": "rhf"
			},
			{
				"type": "unocc",
				"energy": -0.07932,
				"method": "rhf"
			},
			{
				"type": "unocc",
				"energy": -0.02156,
				"method": "rhf"
			},
			{
				"type": "unocc",
				"energy": -0.00538,
				"method": "rhf"
			},
			{
				"type": "unocc",
				"energy": 0.00459,
				"method": "rhf"
			},
			{
				"type": "unocc",
				"energy": 0.07335,
				"method": "rhf"
			}
		],
		"cosmo_sigma_profile": { 
			"-0.025": 0.0,
			"-0.024": 0.0,
			"-0.023": 0.0,
			"-0.022": 0.0,
			"-0.021": 0.0,
			"-0.02": 0.0,
			"-0.019": 0.0995848536357,
			"-0.018": 1.38466353001,
			"-0.017": 0.477648401945,
			"-0.016": 0.854405897564,
			"-0.015": 0.842972897103,
			"-0.014": 1.11677946602,
			"-0.013": 0.619975796857,
			"-0.012": 0.323729839885,
			"-0.011": 0.944950304761,
			"-0.01": 0.555815809179,
			"-0.009": 0.488099695932,
			"-0.008": 1.36366553184,
			"-0.007": 8.34888307495,
			"-0.006": 16.3438582668,
			"-0.005": 18.4976220335,
			"-0.004": 15.2151161501,
			"-0.003": 17.1365811927,
			"-0.002": 17.1229990581,
			"-0.001": 15.222549846,
			"0.0": 13.5042364797,
			"0.001": 13.9301471592,
			"0.002": 13.9410191159,
			"0.003": 12.7771532075,
			"0.004": 5.20044930824,
			"0.005": 4.29431981573,
			"0.006": 4.54267225842,
			"0.007": 4.54905506225,
			"0.008": 4.01291472683,
			"0.009": 5.29242989366,
			"0.01": 6.05454418296,
			"0.011": 9.2944085079,
			"0.012": 7.30234131035,
			"0.013": 1.42420256354,
			"0.014": 0.0,
			"0.015": 0.0,
			"0.016": 0.0,
			"0.017": 0.0,
			"0.018": 0.0,
			"0.019": 0.0,
			"0.02": 0.0,
			"0.021": 0.0,
			"0.022": 0.0,
			"0.023": 0.0,
			"0.024": 0.0,
			"0.025": 0.0
		}
	}
}
