{
	 "smiles": "CCOC(=O)C1=CC(OC)=C(OC)C=C1[N+]([O-])=O", 
	 "Tm": 374.15, 
	 "num_atms": 31, 
	 "gaussian": { 
		 "optdone": 1, 
		 "sigma_profile": "yes", 
		 "theory": "DFT", 
		 "functional": "B3LYP", 
		 "basiset": "6-31G**", 
		 "properties": { 
			 "R2extent": 6017.4709, 
			 "electric_dipole_moment_norm": 5.00168151725, 
			 "electric_quadrupole_moment_norm": 24.6016029053, 
			 "total_energy": -932.976287825, 
			 "HOMO_LUMO_gap": 0.15472, 
			 "cosmo_polarized_energy": -14.58, 
			 "cosmo_cavitation_energy": 36.36, 
			 "cosmo_dispersion_energy": -25.17, 
			 "cosmo_repulsion_energy": 1.98, 
			 "cosmo_total_nonelectrostatic_energy": 13.18, 
			 "SMD_solvation_energy": 11.07 
		},
		"coords": [
			{
				"x": -1.2696676242,
				"y": 3.9368088527,
				"z": 0.6570978948,
				"element": "C" 
			},
			{
				"x": -2.2359548442,
				"y": 2.8581915117,
				"z": 0.2078761359,
				"element": "C" 
			},
			{
				"x": -1.4630743754,
				"y": 1.653805161,
				"z": -0.0162898665,
				"element": "O" 
			},
			{
				"x": -2.1389117169,
				"y": 0.6098679937,
				"z": -0.521911513,
				"element": "C" 
			},
			{
				"x": -3.3429259162,
				"y": 0.5679180316,
				"z": -0.6598136861,
				"element": "O" 
			},
			{
				"x": -1.2369970403,
				"y": -0.5584407719,
				"z": -0.7961833554,
				"element": "C" 
			},
			{
				"x": -1.6411258947,
				"y": -1.800972952,
				"z": -0.2977309296,
				"element": "C" 
			},
			{
				"x": -0.8505180839,
				"y": -2.9416241164,
				"z": -0.4147522928,
				"element": "C" 
			},
			{
				"x": -1.3569364083,
				"y": -4.117654211,
				"z": 0.049293368,
				"element": "O" 
			},
			{
				"x": -0.6106687586,
				"y": -4.817371297,
				"z": 1.0548744282,
				"element": "C" 
			},
			{
				"x": 0.4046773768,
				"y": -2.8530051008,
				"z": -1.0689544052,
				"element": "C" 
			},
			{
				"x": 1.1132497119,
				"y": -4.0055120278,
				"z": -1.1866589243,
				"element": "O" 
			},
			{
				"x": 2.3639399469,
				"y": -3.9643745524,
				"z": -1.8672460853,
				"element": "C" 
			},
			{
				"x": 0.8184228103,
				"y": -1.6227009736,
				"z": -1.5776648025,
				"element": "C" 
			},
			{
				"x": -0.0011388657,
				"y": -0.5009915024,
				"z": -1.447874235,
				"element": "C" 
			},
			{
				"x": 0.4562931891,
				"y": 0.7203590792,
				"z": -2.1246827251,
				"element": "N" 
			},
			{
				"x": -0.3994044798,
				"y": 1.4966053171,
				"z": -2.544922513,
				"element": "O" 
			},
			{
				"x": 1.6713709979,
				"y": 0.8695329737,
				"z": -2.2661712255,
				"element": "O" 
			},
			{
				"x": -0.7647298269,
				"y": 3.6507021888,
				"z": 1.584362737,
				"element": "H" 
			},
			{
				"x": -0.5110462068,
				"y": 4.118443011,
				"z": -0.1090655867,
				"element": "H" 
			},
			{
				"x": -1.8132859047,
				"y": 4.8699069132,
				"z": 0.8349976461,
				"element": "H" 
			},
			{
				"x": -3.0036153161,
				"y": 2.64774021,
				"z": 0.9593194543,
				"element": "H" 
			},
			{
				"x": -2.743943516,
				"y": 3.1219447991,
				"z": -0.7243380893,
				"element": "H" 
			},
			{
				"x": -2.5980476275,
				"y": -1.8890418817,
				"z": 0.2039938338,
				"element": "H" 
			},
			{
				"x": -0.4366997548,
				"y": -4.1718603945,
				"z": 1.9243639173,
				"element": "H" 
			},
			{
				"x": 0.3434756771,
				"y": -5.1822096136,
				"z": 0.6693038637,
				"element": "H" 
			},
			{
				"x": -1.2371855366,
				"y": -5.6596511692,
				"z": 1.3522291862,
				"element": "H" 
			},
			{
				"x": 2.2396972267,
				"y": -3.6461808933,
				"z": -2.9090108177,
				"element": "H" 
			},
			{
				"x": 2.7480152058,
				"y": -4.9844828753,
				"z": -1.8442471088,
				"element": "H" 
			},
			{
				"x": 3.0727118662,
				"y": -3.2957922631,
				"z": -1.3642286677,
				"element": "H" 
			},
			{
				"x": 1.7555236888,
				"y": -1.507859447,
				"z": -2.104065636,
				"element": "H" 
			}
		],
		 "valence_orbital": [ 
			{
				"type": "occ",
				"energy": -0.29695,
				"method": "rhf"
			},
			{
				"type": "occ",
				"energy": -0.29013,
				"method": "rhf"
			},
			{
				"type": "occ",
				"energy": -0.27829,
				"method": "rhf"
			},
			{
				"type": "occ",
				"energy": -0.26473,
				"method": "rhf"
			},
			{
				"type": "occ",
				"energy": -0.24048,
				"method": "rhf"
			},
			{
				"type": "unocc",
				"energy": -0.08576,
				"method": "rhf"
			},
			{
				"type": "unocc",
				"energy": -0.03288,
				"method": "rhf"
			},
			{
				"type": "unocc",
				"energy": -0.00889,
				"method": "rhf"
			},
			{
				"type": "unocc",
				"energy": 0.0361,
				"method": "rhf"
			},
			{
				"type": "unocc",
				"energy": 0.0707,
				"method": "rhf"
			}
		],
		"cosmo_sigma_profile": { 
			"-0.025": 0.0,
			"-0.024": 0.0,
			"-0.023": 0.0,
			"-0.022": 0.0,
			"-0.021": 0.0,
			"-0.02": 0.0,
			"-0.019": 0.0,
			"-0.018": 0.0,
			"-0.017": 0.0,
			"-0.016": 0.0,
			"-0.015": 0.0,
			"-0.014": 0.0,
			"-0.013": 0.0,
			"-0.012": 0.0,
			"-0.011": 0.0,
			"-0.01": 0.0,
			"-0.009": 0.479980711845,
			"-0.008": 2.38464446002,
			"-0.007": 6.68794444805,
			"-0.006": 16.5101120894,
			"-0.005": 21.4844841739,
			"-0.004": 31.8705015953,
			"-0.003": 28.6409449094,
			"-0.002": 24.2087060697,
			"-0.001": 26.0264247924,
			"0.0": 23.9652630492,
			"0.001": 16.6628816206,
			"0.002": 11.5371452494,
			"0.003": 10.9806203464,
			"0.004": 8.71436799934,
			"0.005": 7.70460118801,
			"0.006": 9.37344683893,
			"0.007": 11.2954700134,
			"0.008": 10.3291977531,
			"0.009": 6.71841735469,
			"0.01": 5.69509363838,
			"0.011": 4.55264545941,
			"0.012": 2.69836671614,
			"0.013": 0.0281931321959,
			"0.014": 0.0,
			"0.015": 0.0,
			"0.016": 0.0,
			"0.017": 0.0,
			"0.018": 0.0,
			"0.019": 0.0,
			"0.02": 0.0,
			"0.021": 0.0,
			"0.022": 0.0,
			"0.023": 0.0,
			"0.024": 0.0,
			"0.025": 0.0
		}
	}
}
