{
	 "smiles": "CCCCI", 
	 "Tm": 170.15, 
	 "num_atms": 14, 
	 "gaussian": { 
		 "optdone": 1, 
		 "sigma_profile": "no", 
		 "theory": "DFT", 
		 "functional": "B3LYP", 
		 "basiset": "6-31G**", 
		 "properties": { 
			 "R2extent": 880.5575, 
			 "electric_dipole_moment_norm": 2.29148034249, 
			 "electric_quadrupole_moment_norm": 3.5995795185, 
			 "total_energy": -169.253562646, 
			 "HOMO_LUMO_gap": 0.21535, 
			 "cosmo_polarized_energy": -95260.22, 
			 "cosmo_cavitation_energy": 19.09, 
			 "cosmo_dispersion_energy": -15.48, 
			 "cosmo_repulsion_energy": 1.32, 
			 "cosmo_total_nonelectrostatic_energy": 4.92, 
			 "SMD_solvation_energy": 2.31 
		},
		"coords": [
			{
				"x": -1.3706989467,
				"y": 0.3587718055,
				"z": 2.5307140562,
				"element": "C" 
			},
			{
				"x": -1.3216063406,
				"y": 1.3955949484,
				"z": 1.4031123708,
				"element": "C" 
			},
			{
				"x": -0.3129914503,
				"y": 1.0758773663,
				"z": 0.2901875268,
				"element": "C" 
			},
			{
				"x": -0.5275338529,
				"y": -0.2292787483,
				"z": -0.4658518185,
				"element": "C" 
			},
			{
				"x": -2.3910806229,
				"y": -0.2845187754,
				"z": -1.6299614366,
				"element": "I" 
			},
			{
				"x": -1.7234669883,
				"y": -0.6156352013,
				"z": 2.176430437,
				"element": "H" 
			},
			{
				"x": -0.3825660592,
				"y": 0.2132014939,
				"z": 2.9831883662,
				"element": "H" 
			},
			{
				"x": -2.0537860865,
				"y": 0.6790425622,
				"z": 3.3236261026,
				"element": "H" 
			},
			{
				"x": -1.0583297398,
				"y": 2.3742479154,
				"z": 1.8225645036,
				"element": "H" 
			},
			{
				"x": -2.3192792021,
				"y": 1.5095483656,
				"z": 0.962672861,
				"element": "H" 
			},
			{
				"x": 0.69376018,
				"y": 1.0016314507,
				"z": 0.7317278723,
				"element": "H" 
			},
			{
				"x": -0.2753935141,
				"y": 1.9054725857,
				"z": -0.4244307716,
				"element": "H" 
			},
			{
				"x": 0.2465437519,
				"y": -0.3995130332,
				"z": -1.2126188669,
				"element": "H" 
			},
			{
				"x": -0.5951711284,
				"y": -1.0979427354,
				"z": 0.187538797,
				"element": "H" 
			}
		],
		 "valence_orbital": [ 
			{
				"type": "occ",
				"energy": -0.34097,
				"method": "rhf"
			},
			{
				"type": "occ",
				"energy": -0.33895,
				"method": "rhf"
			},
			{
				"type": "occ",
				"energy": -0.32196,
				"method": "rhf"
			},
			{
				"type": "occ",
				"energy": -0.25585,
				"method": "rhf"
			},
			{
				"type": "occ",
				"energy": -0.25423,
				"method": "rhf"
			},
			{
				"type": "unocc",
				"energy": -0.03888,
				"method": "rhf"
			},
			{
				"type": "unocc",
				"energy": 0.04093,
				"method": "rhf"
			},
			{
				"type": "unocc",
				"energy": 0.04352,
				"method": "rhf"
			},
			{
				"type": "unocc",
				"energy": 0.05588,
				"method": "rhf"
			},
			{
				"type": "unocc",
				"energy": 0.0963,
				"method": "rhf"
			}
		],
		"cosmo_sigma_profile": { 
			"0.0": 0.0,
			"0.0": 0.0,
			"0.0": 0.0,
			"0.0": 0.0,
			"0.0": 0.0,
			"0.0": 0.0,
			"0.0": 0.0,
			"0.0": 0.0,
			"0.0": 0.0,
			"0.0": 0.0,
			"0.0": 0.0,
			"0.0": 0.0,
			"0.0": 0.0,
			"0.0": 0.0,
			"0.0": 0.0,
			"0.0": 0.0,
			"0.0": 0.0,
			"0.0": 0.0,
			"0.0": 0.0,
			"0.0": 0.0,
			"0.0": 0.0,
			"0.0": 0.0,
			"0.0": 0.0,
			"0.0": 0.0,
			"0.0": 0.0,
			"0.0": 0.0,
			"0.0": 0.0,
			"0.0": 0.0,
			"0.0": 0.0,
			"0.0": 0.0,
			"0.0": 0.0,
			"0.0": 0.0,
			"0.0": 0.0,
			"0.0": 0.0,
			"0.0": 0.0,
			"0.0": 0.0,
			"0.0": 0.0,
			"0.0": 0.0,
			"0.0": 0.0,
			"0.0": 0.0,
			"0.0": 0.0,
			"0.0": 0.0,
			"0.0": 0.0,
			"0.0": 0.0,
			"0.0": 0.0,
			"0.0": 0.0,
			"0.0": 0.0,
			"0.0": 0.0,
			"0.0": 0.0,
			"0.0": 0.0,
			"0.0": 0.0
		}
	}
}
