{
	 "smiles": "OC(=O)C1=C(OC(F)F)C=C(Br)C=C1", 
	 "Tm": 407.15, 
	 "num_atms": 19, 
	 "gaussian": { 
		 "optdone": 1, 
		 "sigma_profile": "yes", 
		 "theory": "DFT", 
		 "functional": "B3LYP", 
		 "basiset": "6-31G**", 
		 "properties": { 
			 "R2extent": 6357.4823, 
			 "electric_dipole_moment_norm": 4.0210611199, 
			 "electric_quadrupole_moment_norm": 13.482556848, 
			 "total_energy": -3304.62204408, 
			 "HOMO_LUMO_gap": 0.19892, 
			 "cosmo_polarized_energy": -13.03, 
			 "cosmo_cavitation_energy": 27.38, 
			 "cosmo_dispersion_energy": -20.14, 
			 "cosmo_repulsion_energy": 1.54, 
			 "cosmo_total_nonelectrostatic_energy": 8.78, 
			 "SMD_solvation_energy": 5.9 
		},
		"coords": [
			{
				"x": 1.6322427315,
				"y": -1.4999119399,
				"z": 1.3395016162,
				"element": "O" 
			},
			{
				"x": 1.5535925312,
				"y": -2.3853671665,
				"z": 0.3313909055,
				"element": "C" 
			},
			{
				"x": 2.1667418479,
				"y": -3.4283986613,
				"z": 0.3770935538,
				"element": "O" 
			},
			{
				"x": 0.6847476277,
				"y": -2.045965772,
				"z": -0.8597371674,
				"element": "C" 
			},
			{
				"x": -0.0500767047,
				"y": -0.8627425949,
				"z": -1.0497843048,
				"element": "C" 
			},
			{
				"x": -0.0186675357,
				"y": 0.0912165875,
				"z": -0.0336746371,
				"element": "O" 
			},
			{
				"x": 0.0049177428,
				"y": 1.4362713836,
				"z": -0.3796378123,
				"element": "C" 
			},
			{
				"x": 0.5118608796,
				"y": 2.0836380714,
				"z": 0.679604169,
				"element": "F" 
			},
			{
				"x": -1.2571289741,
				"y": 1.8868837569,
				"z": -0.5847140543,
				"element": "F" 
			},
			{
				"x": -0.8226454704,
				"y": -0.6498036302,
				"z": -2.1913575771,
				"element": "C" 
			},
			{
				"x": -0.8413736235,
				"y": -1.6340944339,
				"z": -3.1776978835,
				"element": "C" 
			},
			{
				"x": -1.8846492544,
				"y": -1.3473809897,
				"z": -4.743848828,
				"element": "Br" 
			},
			{
				"x": -0.1243511278,
				"y": -2.8205533287,
				"z": -3.0312418697,
				"element": "C" 
			},
			{
				"x": 0.6221759844,
				"y": -3.0115699163,
				"z": -1.8739190077,
				"element": "C" 
			},
			{
				"x": 1.0807123261,
				"y": -0.7196999913,
				"z": 1.156620417,
				"element": "H" 
			},
			{
				"x": 0.6037904102,
				"y": 1.6239720163,
				"z": -1.2772506014,
				"element": "H" 
			},
			{
				"x": -1.4162475306,
				"y": 0.2486736884,
				"z": -2.2951911129,
				"element": "H" 
			},
			{
				"x": -0.1535798511,
				"y": -3.5785303306,
				"z": -3.8047099982,
				"element": "H" 
			},
			{
				"x": 1.1928379907,
				"y": -3.9213367486,
				"z": -1.723345807,
				"element": "H" 
			}
		],
		 "valence_orbital": [ 
			{
				"type": "occ",
				"energy": -0.31272,
				"method": "rhf"
			},
			{
				"type": "occ",
				"energy": -0.30951,
				"method": "rhf"
			},
			{
				"type": "occ",
				"energy": -0.28525,
				"method": "rhf"
			},
			{
				"type": "occ",
				"energy": -0.27996,
				"method": "rhf"
			},
			{
				"type": "occ",
				"energy": -0.26803,
				"method": "rhf"
			},
			{
				"type": "unocc",
				"energy": -0.06911,
				"method": "rhf"
			},
			{
				"type": "unocc",
				"energy": -0.03937,
				"method": "rhf"
			},
			{
				"type": "unocc",
				"energy": -0.01601,
				"method": "rhf"
			},
			{
				"type": "unocc",
				"energy": 0.03635,
				"method": "rhf"
			},
			{
				"type": "unocc",
				"energy": 0.08454,
				"method": "rhf"
			}
		],
		"cosmo_sigma_profile": { 
			"-0.025": 0.0,
			"-0.024": 0.0,
			"-0.023": 0.0,
			"-0.022": 0.0,
			"-0.021": 0.0,
			"-0.02": 0.0,
			"-0.019": 0.0,
			"-0.018": 0.0,
			"-0.017": 0.0,
			"-0.016": 0.0,
			"-0.015": 0.0,
			"-0.014": 0.0,
			"-0.013": 0.0,
			"-0.012": 1.19096419877,
			"-0.011": 3.41406454686,
			"-0.01": 3.57820430648,
			"-0.009": 4.45872294596,
			"-0.008": 6.44022837647,
			"-0.007": 8.374888477,
			"-0.006": 8.76760773002,
			"-0.005": 8.6136761125,
			"-0.004": 9.73691914851,
			"-0.003": 10.2549732121,
			"-0.002": 12.5189648809,
			"-0.001": 17.8268247647,
			"0.0": 24.4185476745,
			"0.001": 19.9437499662,
			"0.002": 21.7602635271,
			"0.003": 25.9572234444,
			"0.004": 9.22004676867,
			"0.005": 1.72772339118,
			"0.006": 1.82421994679,
			"0.007": 2.3484385754,
			"0.008": 3.37023349042,
			"0.009": 2.61266850726,
			"0.01": 4.67983369633,
			"0.011": 5.61778006594,
			"0.012": 3.89002896676,
			"0.013": 1.57809811988,
			"0.014": 0.0142267529389,
			"0.015": 0.0,
			"0.016": 0.0,
			"0.017": 0.0,
			"0.018": 0.0,
			"0.019": 0.0,
			"0.02": 0.0,
			"0.021": 0.0,
			"0.022": 0.0,
			"0.023": 0.0,
			"0.024": 0.0,
			"0.025": 0.0
		}
	}
}
