{
	 "smiles": "O=C1C=CC(=O)N1C1CCCCC1", 
	 "Tm": 363.15, 
	 "num_atms": 26, 
	 "gaussian": { 
		 "optdone": 1, 
		 "sigma_profile": "yes", 
		 "theory": "DFT", 
		 "functional": "B3LYP", 
		 "basiset": "6-31G**", 
		 "properties": { 
			 "R2extent": 2354.109, 
			 "electric_dipole_moment_norm": 1.09635719088, 
			 "electric_quadrupole_moment_norm": 12.8310379307, 
			 "total_energy": -594.113852533, 
			 "HOMO_LUMO_gap": 0.17197, 
			 "cosmo_polarized_energy": -8.12, 
			 "cosmo_cavitation_energy": 27.23, 
			 "cosmo_dispersion_energy": -20.03, 
			 "cosmo_repulsion_energy": 1.57, 
			 "cosmo_total_nonelectrostatic_energy": 8.78, 
			 "SMD_solvation_energy": 5.39 
		},
		"coords": [
			{
				"x": -1.2340689206,
				"y": -0.6077893555,
				"z": 2.9979423748,
				"element": "O" 
			},
			{
				"x": -0.9577182087,
				"y": 0.3295166778,
				"z": 2.2765251203,
				"element": "C" 
			},
			{
				"x": -1.2993276378,
				"y": 1.7731054534,
				"z": 2.4898700627,
				"element": "C" 
			},
			{
				"x": -0.811153495,
				"y": 2.4735127646,
				"z": 1.4645865673,
				"element": "C" 
			},
			{
				"x": -0.1197323664,
				"y": 1.5329203913,
				"z": 0.5164388844,
				"element": "C" 
			},
			{
				"x": 0.4334200651,
				"y": 1.847984255,
				"z": -0.520076427,
				"element": "O" 
			},
			{
				"x": -0.243952831,
				"y": 0.2514271888,
				"z": 1.0648997954,
				"element": "N" 
			},
			{
				"x": 0.24122746,
				"y": -1.0582011868,
				"z": 0.5686156991,
				"element": "C" 
			},
			{
				"x": 1.7811712817,
				"y": -1.1773582318,
				"z": 0.5207224603,
				"element": "C" 
			},
			{
				"x": 2.4351724644,
				"y": -0.657011494,
				"z": -0.7694865726,
				"element": "C" 
			},
			{
				"x": 1.7706487476,
				"y": -1.2628243015,
				"z": -2.0154402316,
				"element": "C" 
			},
			{
				"x": 0.2595164531,
				"y": -0.9848683381,
				"z": -2.0310754895,
				"element": "C" 
			},
			{
				"x": -0.4176817987,
				"y": -1.5089620413,
				"z": -0.7544401074,
				"element": "C" 
			},
			{
				"x": -1.852509102,
				"y": 2.1069882783,
				"z": 3.3577377251,
				"element": "H" 
			},
			{
				"x": -0.857176932,
				"y": 3.5363344946,
				"z": 1.2669812579,
				"element": "H" 
			},
			{
				"x": -0.1138930983,
				"y": -1.7290418501,
				"z": 1.3555122077,
				"element": "H" 
			},
			{
				"x": 2.008239719,
				"y": -2.2480881711,
				"z": 0.6173459465,
				"element": "H" 
			},
			{
				"x": 2.209858542,
				"y": -0.692302386,
				"z": 1.4050142751,
				"element": "H" 
			},
			{
				"x": 3.5036552976,
				"y": -0.9043894767,
				"z": -0.7514544464,
				"element": "H" 
			},
			{
				"x": 2.355813343,
				"y": 0.4328233264,
				"z": -0.8152114938,
				"element": "H" 
			},
			{
				"x": 1.9429348206,
				"y": -2.3496080477,
				"z": -2.0301921163,
				"element": "H" 
			},
			{
				"x": 2.2363998884,
				"y": -0.8614601034,
				"z": -2.9229802422,
				"element": "H" 
			},
			{
				"x": 0.0942778034,
				"y": 0.0920405604,
				"z": -2.1263981324,
				"element": "H" 
			},
			{
				"x": -0.2049777449,
				"y": -1.4630914146,
				"z": -2.9021233954,
				"element": "H" 
			},
			{
				"x": -1.4822175915,
				"y": -1.2492737254,
				"z": -0.7360770531,
				"element": "H" 
			},
			{
				"x": -0.3694261591,
				"y": -2.6066832663,
				"z": -0.7617366691,
				"element": "H" 
			}
		],
		 "valence_orbital": [ 
			{
				"type": "occ",
				"energy": -0.30652,
				"method": "rhf"
			},
			{
				"type": "occ",
				"energy": -0.30385,
				"method": "rhf"
			},
			{
				"type": "occ",
				"energy": -0.2899,
				"method": "rhf"
			},
			{
				"type": "occ",
				"energy": -0.26953,
				"method": "rhf"
			},
			{
				"type": "occ",
				"energy": -0.26777,
				"method": "rhf"
			},
			{
				"type": "unocc",
				"energy": -0.0958,
				"method": "rhf"
			},
			{
				"type": "unocc",
				"energy": 0.05375,
				"method": "rhf"
			},
			{
				"type": "unocc",
				"energy": 0.06492,
				"method": "rhf"
			},
			{
				"type": "unocc",
				"energy": 0.0814,
				"method": "rhf"
			},
			{
				"type": "unocc",
				"energy": 0.10001,
				"method": "rhf"
			}
		],
		"cosmo_sigma_profile": { 
			"-0.025": 0.0,
			"-0.024": 0.0,
			"-0.023": 0.0,
			"-0.022": 0.0,
			"-0.021": 0.0,
			"-0.02": 0.0,
			"-0.019": 0.0,
			"-0.018": 0.0,
			"-0.017": 0.0,
			"-0.016": 0.0,
			"-0.015": 0.0,
			"-0.014": 0.0,
			"-0.013": 0.0,
			"-0.012": 0.0,
			"-0.011": 0.0,
			"-0.01": 0.720577989395,
			"-0.009": 3.74858172085,
			"-0.008": 2.6194950723,
			"-0.007": 3.96342229944,
			"-0.006": 2.92110177054,
			"-0.005": 5.49734779969,
			"-0.004": 11.3833824633,
			"-0.003": 25.4099690717,
			"-0.002": 29.7251713156,
			"-0.001": 27.1119394076,
			"0.0": 29.1573765107,
			"0.001": 25.0335685461,
			"0.002": 8.42096269276,
			"0.003": 3.03203817432,
			"0.004": 4.04129984828,
			"0.005": 3.43352557482,
			"0.006": 2.65881191094,
			"0.007": 3.28141707114,
			"0.008": 3.83345869425,
			"0.009": 2.66903448056,
			"0.01": 5.52421422701,
			"0.011": 6.98661874184,
			"0.012": 2.76353470538,
			"0.013": 0.0504703474787,
			"0.014": 0.0,
			"0.015": 0.0,
			"0.016": 0.0,
			"0.017": 0.0,
			"0.018": 0.0,
			"0.019": 0.0,
			"0.02": 0.0,
			"0.021": 0.0,
			"0.022": 0.0,
			"0.023": 0.0,
			"0.024": 0.0,
			"0.025": 0.0
		}
	}
}
