{
	 "smiles": "CCCCCCCCCCCCCCCCC#N", 
	 "Tm": 307.15, 
	 "num_atms": 51, 
	 "gaussian": { 
		 "optdone": 1, 
		 "sigma_profile": "yes", 
		 "theory": "DFT", 
		 "functional": "B3LYP", 
		 "basiset": "6-31G**", 
		 "properties": { 
			 "R2extent": 10970.7025, 
			 "electric_dipole_moment_norm": 3.94579144533, 
			 "electric_quadrupole_moment_norm": 28.0841860311, 
			 "total_energy": -722.478908477, 
			 "HOMO_LUMO_gap": 0.33258, 
			 "cosmo_polarized_energy": -8.66, 
			 "cosmo_cavitation_energy": 50.46, 
			 "cosmo_dispersion_energy": -33.13, 
			 "cosmo_repulsion_energy": 2.69, 
			 "cosmo_total_nonelectrostatic_energy": 20.03, 
			 "SMD_solvation_energy": 7.89 
		},
		"coords": [
			{
				"x": -4.3021352159,
				"y": -2.9569835005,
				"z": -1.974665751,
				"element": "C" 
			},
			{
				"x": -3.6942007939,
				"y": -1.5941448847,
				"z": -2.3266454055,
				"element": "C" 
			},
			{
				"x": -4.3035856538,
				"y": -0.4095846758,
				"z": -1.5555987641,
				"element": "C" 
			},
			{
				"x": -4.1202041666,
				"y": -0.4345240483,
				"z": -0.0279542017,
				"element": "C" 
			},
			{
				"x": -2.6614217126,
				"y": -0.3561319351,
				"z": 0.4446000965,
				"element": "C" 
			},
			{
				"x": -2.5319199324,
				"y": -0.2905945618,
				"z": 1.9734883384,
				"element": "C" 
			},
			{
				"x": -1.0869992373,
				"y": -0.2914572181,
				"z": 2.5002346946,
				"element": "C" 
			},
			{
				"x": -0.2755371658,
				"y": 0.9604163063,
				"z": 2.1328143622,
				"element": "C" 
			},
			{
				"x": 1.1107302445,
				"y": 1.0353240007,
				"z": 2.7975741193,
				"element": "C" 
			},
			{
				"x": 2.0992061262,
				"y": -0.0841720977,
				"z": 2.420121773,
				"element": "C" 
			},
			{
				"x": 2.4474551601,
				"y": -0.192231901,
				"z": 0.923694479,
				"element": "C" 
			},
			{
				"x": 3.0993233934,
				"y": 1.0528463065,
				"z": 0.2948190405,
				"element": "C" 
			},
			{
				"x": 4.4554861705,
				"y": 1.4275107092,
				"z": 0.9142399259,
				"element": "C" 
			},
			{
				"x": 5.2902757579,
				"y": 2.4721221332,
				"z": 0.1504081967,
				"element": "C" 
			},
			{
				"x": 4.7224353416,
				"y": 3.9042753506,
				"z": 0.0960716211,
				"element": "C" 
			},
			{
				"x": 3.6964211371,
				"y": 4.184886027,
				"z": -1.0283598652,
				"element": "C" 
			},
			{
				"x": 4.250377581,
				"y": 3.9767461378,
				"z": -2.3701029472,
				"element": "C" 
			},
			{
				"x": 4.7028934465,
				"y": 3.8050771912,
				"z": -3.4254626986,
				"element": "N" 
			},
			{
				"x": -3.8767384369,
				"y": -3.7509668129,
				"z": -2.5973457442,
				"element": "H" 
			},
			{
				"x": -4.1204867543,
				"y": -3.2289413317,
				"z": -0.9295531414,
				"element": "H" 
			},
			{
				"x": -5.3872966868,
				"y": -2.9576017064,
				"z": -2.1313859313,
				"element": "H" 
			},
			{
				"x": -3.8297253637,
				"y": -1.4104757946,
				"z": -3.4001976943,
				"element": "H" 
			},
			{
				"x": -2.6090368385,
				"y": -1.6256309096,
				"z": -2.1656427873,
				"element": "H" 
			},
			{
				"x": -5.3785542654,
				"y": -0.3634094288,
				"z": -1.7785083448,
				"element": "H" 
			},
			{
				"x": -3.8736910111,
				"y": 0.5231014021,
				"z": -1.9463287145,
				"element": "H" 
			},
			{
				"x": -4.588354312,
				"y": -1.3355695564,
				"z": 0.3908058209,
				"element": "H" 
			},
			{
				"x": -4.6742671905,
				"y": 0.4124669793,
				"z": 0.399434527,
				"element": "H" 
			},
			{
				"x": -2.1871783447,
				"y": 0.5237976843,
				"z": -0.0107832798,
				"element": "H" 
			},
			{
				"x": -2.1011400375,
				"y": -1.2274364152,
				"z": 0.0785533926,
				"element": "H" 
			},
			{
				"x": -3.0516654245,
				"y": 0.605336462,
				"z": 2.3429532043,
				"element": "H" 
			},
			{
				"x": -3.0645164983,
				"y": -1.1478838002,
				"z": 2.4074764336,
				"element": "H" 
			},
			{
				"x": -0.5751512742,
				"y": -1.1911369283,
				"z": 2.1326526272,
				"element": "H" 
			},
			{
				"x": -1.1110060418,
				"y": -0.3836446544,
				"z": 3.5950706256,
				"element": "H" 
			},
			{
				"x": -0.166598721,
				"y": 1.0278764303,
				"z": 1.0431801481,
				"element": "H" 
			},
			{
				"x": -0.8492516951,
				"y": 1.8492012449,
				"z": 2.4306422322,
				"element": "H" 
			},
			{
				"x": 1.559264789,
				"y": 2.0103612816,
				"z": 2.5652336847,
				"element": "H" 
			},
			{
				"x": 0.9790590178,
				"y": 1.0234106359,
				"z": 3.8882379133,
				"element": "H" 
			},
			{
				"x": 3.0204232271,
				"y": 0.0599023387,
				"z": 2.9988473987,
				"element": "H" 
			},
			{
				"x": 1.6966819859,
				"y": -1.0503388722,
				"z": 2.7489364127,
				"element": "H" 
			},
			{
				"x": 3.1244264402,
				"y": -1.0466229689,
				"z": 0.7877615999,
				"element": "H" 
			},
			{
				"x": 1.5415384857,
				"y": -0.4377686775,
				"z": 0.3551922615,
				"element": "H" 
			},
			{
				"x": 2.4041580143,
				"y": 1.8989062693,
				"z": 0.3699833549,
				"element": "H" 
			},
			{
				"x": 3.2366872564,
				"y": 0.8651325394,
				"z": -0.7787713083,
				"element": "H" 
			},
			{
				"x": 4.3092927158,
				"y": 1.7787119446,
				"z": 1.9446863429,
				"element": "H" 
			},
			{
				"x": 5.0604655471,
				"y": 0.5136159171,
				"z": 0.9933059041,
				"element": "H" 
			},
			{
				"x": 6.2720024975,
				"y": 2.5262281972,
				"z": 0.6361996933,
				"element": "H" 
			},
			{
				"x": 5.4850018553,
				"y": 2.1192831787,
				"z": -0.8711696275,
				"element": "H" 
			},
			{
				"x": 4.2438421461,
				"y": 4.1544078305,
				"z": 1.0511793043,
				"element": "H" 
			},
			{
				"x": 5.5485871109,
				"y": 4.6126470053,
				"z": -0.0300494076,
				"element": "H" 
			},
			{
				"x": 3.3491805947,
				"y": 5.2228069929,
				"z": -0.9630531959,
				"element": "H" 
			},
			{
				"x": 2.8116467319,
				"y": 3.5492541836,
				"z": -0.9266207188,
				"element": "H" 
			}
		],
		 "valence_orbital": [ 
			{
				"type": "occ",
				"energy": -0.31031,
				"method": "rhf"
			},
			{
				"type": "occ",
				"energy": -0.30919,
				"method": "rhf"
			},
			{
				"type": "occ",
				"energy": -0.30651,
				"method": "rhf"
			},
			{
				"type": "occ",
				"energy": -0.30254,
				"method": "rhf"
			},
			{
				"type": "occ",
				"energy": -0.29826,
				"method": "rhf"
			},
			{
				"type": "unocc",
				"energy": 0.03432,
				"method": "rhf"
			},
			{
				"type": "unocc",
				"energy": 0.041,
				"method": "rhf"
			},
			{
				"type": "unocc",
				"energy": 0.06889,
				"method": "rhf"
			},
			{
				"type": "unocc",
				"energy": 0.08008,
				"method": "rhf"
			},
			{
				"type": "unocc",
				"energy": 0.08728,
				"method": "rhf"
			}
		],
		"cosmo_sigma_profile": { 
			"-0.025": 0.0,
			"-0.024": 0.0,
			"-0.023": 0.0,
			"-0.022": 0.0,
			"-0.021": 0.0,
			"-0.02": 0.0,
			"-0.019": 0.0,
			"-0.018": 0.0,
			"-0.017": 0.0,
			"-0.016": 0.0,
			"-0.015": 0.0,
			"-0.014": 0.0,
			"-0.013": 0.0,
			"-0.012": 0.0,
			"-0.011": 0.0,
			"-0.01": 0.0,
			"-0.009": 0.0,
			"-0.008": 0.882623690577,
			"-0.007": 3.85015811521,
			"-0.006": 5.49225839089,
			"-0.005": 6.8078896336,
			"-0.004": 13.4218370965,
			"-0.003": 13.3671555758,
			"-0.002": 49.0757816604,
			"-0.001": 84.745521175,
			"0.0": 85.4527693182,
			"0.001": 67.646425507,
			"0.002": 27.0790670711,
			"0.003": 1.98233471061,
			"0.004": 2.39113875566,
			"0.005": 1.80688860556,
			"0.006": 2.48358146255,
			"0.007": 2.37764649839,
			"0.008": 3.18746290219,
			"0.009": 3.08138644814,
			"0.01": 3.77729925391,
			"0.011": 2.8336941445,
			"0.012": 2.8388263672,
			"0.013": 2.39769801117,
			"0.014": 0.858620679772,
			"0.015": 0.0,
			"0.016": 0.0,
			"0.017": 0.0,
			"0.018": 0.0,
			"0.019": 0.0,
			"0.02": 0.0,
			"0.021": 0.0,
			"0.022": 0.0,
			"0.023": 0.0,
			"0.024": 0.0,
			"0.025": 0.0
		}
	}
}
