{
	 "smiles": "CC(Br)CCCBr", 
	 "Tm": 238.95, 
	 "num_atms": 17, 
	 "gaussian": { 
		 "optdone": 1, 
		 "sigma_profile": "yes", 
		 "theory": "DFT", 
		 "functional": "B3LYP", 
		 "basiset": "6-31G**", 
		 "properties": { 
			 "R2extent": 3488.8036, 
			 "electric_dipole_moment_norm": 3.03419196987, 
			 "electric_quadrupole_moment_norm": 11.158871934, 
			 "total_energy": -5339.38944951, 
			 "HOMO_LUMO_gap": 0.26475, 
			 "cosmo_polarized_energy": -7.42, 
			 "cosmo_cavitation_energy": 23.78, 
			 "cosmo_dispersion_energy": -17.92, 
			 "cosmo_repulsion_energy": 1.53, 
			 "cosmo_total_nonelectrostatic_energy": 7.39, 
			 "SMD_solvation_energy": 1.53 
		},
		"coords": [
			{
				"x": 0.5438270927,
				"y": 2.2349681585,
				"z": -1.6160177265,
				"element": "C" 
			},
			{
				"x": -0.3538366984,
				"y": 1.066370047,
				"z": -1.9972567286,
				"element": "C" 
			},
			{
				"x": 0.1770952004,
				"y": 0.4228171818,
				"z": -3.8227471235,
				"element": "Br" 
			},
			{
				"x": -0.3138367101,
				"y": -0.1241018959,
				"z": -1.0383691766,
				"element": "C" 
			},
			{
				"x": -0.8996322701,
				"y": 0.2052006745,
				"z": 0.344380782,
				"element": "C" 
			},
			{
				"x": -0.9820848502,
				"y": -0.9947663975,
				"z": 1.2778267474,
				"element": "C" 
			},
			{
				"x": 0.8078309336,
				"y": -1.6780457742,
				"z": 1.8006925572,
				"element": "Br" 
			},
			{
				"x": 0.2180687937,
				"y": 2.661423891,
				"z": -0.6599382654,
				"element": "H" 
			},
			{
				"x": 1.5833603478,
				"y": 1.9113944793,
				"z": -1.5108881439,
				"element": "H" 
			},
			{
				"x": 0.5027884249,
				"y": 3.0254144874,
				"z": -2.3684591202,
				"element": "H" 
			},
			{
				"x": -1.3818683154,
				"y": 1.4018312309,
				"z": -2.1516380585,
				"element": "H" 
			},
			{
				"x": 0.7190530924,
				"y": -0.4702706626,
				"z": -0.9292266188,
				"element": "H" 
			},
			{
				"x": -0.8809133435,
				"y": -0.9522165776,
				"z": -1.4775120724,
				"element": "H" 
			},
			{
				"x": -1.9274422161,
				"y": 0.581436815,
				"z": 0.2277331329,
				"element": "H" 
			},
			{
				"x": -0.327805148,
				"y": 0.9995194168,
				"z": 0.8348592449,
				"element": "H" 
			},
			{
				"x": -1.4881646649,
				"y": -1.8450056316,
				"z": 0.8193214384,
				"element": "H" 
			},
			{
				"x": -1.4692396689,
				"y": -0.7447694429,
				"z": 2.2195391315,
				"element": "H" 
			}
		],
		 "valence_orbital": [ 
			{
				"type": "occ",
				"energy": -0.33331,
				"method": "rhf"
			},
			{
				"type": "occ",
				"energy": -0.27728,
				"method": "rhf"
			},
			{
				"type": "occ",
				"energy": -0.27473,
				"method": "rhf"
			},
			{
				"type": "occ",
				"energy": -0.26936,
				"method": "rhf"
			},
			{
				"type": "occ",
				"energy": -0.26902,
				"method": "rhf"
			},
			{
				"type": "unocc",
				"energy": -0.00427,
				"method": "rhf"
			},
			{
				"type": "unocc",
				"energy": -0.00136,
				"method": "rhf"
			},
			{
				"type": "unocc",
				"energy": 0.07797,
				"method": "rhf"
			},
			{
				"type": "unocc",
				"energy": 0.09721,
				"method": "rhf"
			},
			{
				"type": "unocc",
				"energy": 0.11793,
				"method": "rhf"
			}
		],
		"cosmo_sigma_profile": { 
			"-0.025": 0.0,
			"-0.024": 0.0,
			"-0.023": 0.0,
			"-0.022": 0.0,
			"-0.021": 0.0,
			"-0.02": 0.0,
			"-0.019": 0.0,
			"-0.018": 0.0,
			"-0.017": 0.0,
			"-0.016": 0.0,
			"-0.015": 0.0,
			"-0.014": 0.0,
			"-0.013": 0.0,
			"-0.012": 0.0,
			"-0.011": 0.0,
			"-0.01": 0.0,
			"-0.009": 0.0,
			"-0.008": 0.0318266137193,
			"-0.007": 3.49977539835,
			"-0.006": 10.4900508641,
			"-0.005": 16.4603116667,
			"-0.004": 21.0093121704,
			"-0.003": 17.5710862642,
			"-0.002": 14.5465894672,
			"-0.001": 14.0086414299,
			"0.0": 15.4053828994,
			"0.001": 8.56864020203,
			"0.002": 8.53735119098,
			"0.003": 10.4772308968,
			"0.004": 8.2004635086,
			"0.005": 13.5160422945,
			"0.006": 17.8011150412,
			"0.007": 11.8804473384,
			"0.008": 0.0293490154377,
			"0.009": 0.0,
			"0.01": 0.0,
			"0.011": 0.0,
			"0.012": 0.0,
			"0.013": 0.0,
			"0.014": 0.0,
			"0.015": 0.0,
			"0.016": 0.0,
			"0.017": 0.0,
			"0.018": 0.0,
			"0.019": 0.0,
			"0.02": 0.0,
			"0.021": 0.0,
			"0.022": 0.0,
			"0.023": 0.0,
			"0.024": 0.0,
			"0.025": 0.0
		}
	}
}
