{
	 "smiles": "OCC1=C(OC=N1)C1=CC=CC=C1", 
	 "Tm": 369.15, 
	 "num_atms": 22, 
	 "gaussian": { 
		 "optdone": 1, 
		 "sigma_profile": "yes", 
		 "theory": "DFT", 
		 "functional": "B3LYP", 
		 "basiset": "6-31G**", 
		 "properties": { 
			 "R2extent": 2752.3962, 
			 "electric_dipole_moment_norm": 1.37686126026, 
			 "electric_quadrupole_moment_norm": 4.70159499745, 
			 "total_energy": -591.665470875, 
			 "HOMO_LUMO_gap": 0.18092, 
			 "cosmo_polarized_energy": -9.58, 
			 "cosmo_cavitation_energy": 26.15, 
			 "cosmo_dispersion_energy": -19.3, 
			 "cosmo_repulsion_energy": 1.52, 
			 "cosmo_total_nonelectrostatic_energy": 8.36, 
			 "SMD_solvation_energy": 3.83 
		},
		"coords": [
			{
				"x": 0.2002455091,
				"y": 0.9970751197,
				"z": 2.1194470523,
				"element": "O" 
			},
			{
				"x": -0.6107113442,
				"y": -0.180057507,
				"z": 2.1811618332,
				"element": "C" 
			},
			{
				"x": -0.017737524,
				"y": -1.3670874962,
				"z": 1.4829547208,
				"element": "C" 
			},
			{
				"x": 0.1319226237,
				"y": -1.6220365337,
				"z": 0.1407842089,
				"element": "C" 
			},
			{
				"x": 0.7066355027,
				"y": -2.8703257545,
				"z": 0.0334039199,
				"element": "O" 
			},
			{
				"x": 0.880408489,
				"y": -3.2877875982,
				"z": 1.3110899794,
				"element": "C" 
			},
			{
				"x": 0.4792322912,
				"y": -2.4475296009,
				"z": 2.2090570931,
				"element": "N" 
			},
			{
				"x": -0.1909674706,
				"y": -0.9130522983,
				"z": -1.0916509901,
				"element": "C" 
			},
			{
				"x": -0.3548378101,
				"y": -1.6185445348,
				"z": -2.2979147036,
				"element": "C" 
			},
			{
				"x": -0.6822044482,
				"y": -0.9412813251,
				"z": -3.4694015997,
				"element": "C" 
			},
			{
				"x": -0.8538115354,
				"y": 0.4453787759,
				"z": -3.4573370755,
				"element": "C" 
			},
			{
				"x": -0.6831478203,
				"y": 1.1524094849,
				"z": -2.2653678341,
				"element": "C" 
			},
			{
				"x": -0.3466962886,
				"y": 0.4858555072,
				"z": -1.0884054011,
				"element": "C" 
			},
			{
				"x": 1.0756562524,
				"y": 0.7629147044,
				"z": 2.4559173739,
				"element": "H" 
			},
			{
				"x": -0.8137739759,
				"y": -0.4694373844,
				"z": 3.2202555598,
				"element": "H" 
			},
			{
				"x": -1.5588554477,
				"y": 0.1046118583,
				"z": 1.7146295476,
				"element": "H" 
			},
			{
				"x": 1.3291198692,
				"y": -4.2604638556,
				"z": 1.449537179,
				"element": "H" 
			},
			{
				"x": -0.2296125181,
				"y": -2.6961800582,
				"z": -2.306398632,
				"element": "H" 
			},
			{
				"x": -0.8079705131,
				"y": -1.4977740812,
				"z": -4.3937484149,
				"element": "H" 
			},
			{
				"x": -1.1113064147,
				"y": 0.9709332166,
				"z": -4.3723002035,
				"element": "H" 
			},
			{
				"x": -0.7987369879,
				"y": 2.2323968658,
				"z": -2.2523124095,
				"element": "H" 
			},
			{
				"x": -0.1686504383,
				"y": 1.0426824952,
				"z": -0.1735012038,
				"element": "H" 
			}
		],
		 "valence_orbital": [ 
			{
				"type": "occ",
				"energy": -0.29556,
				"method": "rhf"
			},
			{
				"type": "occ",
				"energy": -0.28679,
				"method": "rhf"
			},
			{
				"type": "occ",
				"energy": -0.27669,
				"method": "rhf"
			},
			{
				"type": "occ",
				"energy": -0.25426,
				"method": "rhf"
			},
			{
				"type": "occ",
				"energy": -0.22021,
				"method": "rhf"
			},
			{
				"type": "unocc",
				"energy": -0.03929,
				"method": "rhf"
			},
			{
				"type": "unocc",
				"energy": -0.00463,
				"method": "rhf"
			},
			{
				"type": "unocc",
				"energy": 0.02014,
				"method": "rhf"
			},
			{
				"type": "unocc",
				"energy": 0.05142,
				"method": "rhf"
			},
			{
				"type": "unocc",
				"energy": 0.09467,
				"method": "rhf"
			}
		],
		"cosmo_sigma_profile": { 
			"-0.025": 0.0,
			"-0.024": 0.0,
			"-0.023": 0.0,
			"-0.022": 0.0,
			"-0.021": 0.0,
			"-0.02": 0.0,
			"-0.019": 0.0,
			"-0.018": 0.0,
			"-0.017": 0.0,
			"-0.016": 0.412691460768,
			"-0.015": 0.834041044305,
			"-0.014": 1.05632493741,
			"-0.013": 0.770476545879,
			"-0.012": 1.04200773301,
			"-0.011": 1.56346678365,
			"-0.01": 2.33126146176,
			"-0.009": 2.4372018907,
			"-0.008": 2.54306183794,
			"-0.007": 2.27008666511,
			"-0.006": 8.92331970937,
			"-0.005": 13.873154815,
			"-0.004": 15.2554261372,
			"-0.003": 15.1694089699,
			"-0.002": 14.9006056803,
			"-0.001": 15.4424471413,
			"0.0": 15.0488833377,
			"0.001": 15.9127705558,
			"0.002": 16.7051511741,
			"0.003": 13.8509660773,
			"0.004": 13.5226523888,
			"0.005": 12.9360474802,
			"0.006": 4.99590027234,
			"0.007": 2.74228703996,
			"0.008": 1.71428366635,
			"0.009": 2.19412785735,
			"0.01": 2.49347358883,
			"0.011": 1.45269503964,
			"0.012": 1.9372415854,
			"0.013": 2.45048710761,
			"0.014": 1.58327699161,
			"0.015": 0.945490230928,
			"0.016": 0.217130490512,
			"0.017": 0.0,
			"0.018": 0.0,
			"0.019": 0.0,
			"0.02": 0.0,
			"0.021": 0.0,
			"0.022": 0.0,
			"0.023": 0.0,
			"0.024": 0.0,
			"0.025": 0.0
		}
	}
}
