{
	 "smiles": "ClC1=CC=C(CC(=O)C2=NC=CC=C2)C=C1", 
	 "Tm": 323.15, 
	 "num_atms": 26, 
	 "gaussian": { 
		 "optdone": 1, 
		 "sigma_profile": "yes", 
		 "theory": "DFT", 
		 "functional": "B3LYP", 
		 "basiset": "6-31G**", 
		 "properties": { 
			 "R2extent": 6694.2106, 
			 "electric_dipole_moment_norm": 5.30596441187, 
			 "electric_quadrupole_moment_norm": 4.16958252467, 
			 "total_energy": -1091.57771651, 
			 "HOMO_LUMO_gap": 0.16327, 
			 "cosmo_polarized_energy": -11.44, 
			 "cosmo_cavitation_energy": 33.18, 
			 "cosmo_dispersion_energy": -23.88, 
			 "cosmo_repulsion_energy": 1.86, 
			 "cosmo_total_nonelectrostatic_energy": 11.17, 
			 "SMD_solvation_energy": 4.82 
		},
		"coords": [
			{
				"x": -5.5498803311,
				"y": -0.5973788894,
				"z": 2.8385229474,
				"element": "Cl" 
			},
			{
				"x": -3.9186208291,
				"y": -0.7754948083,
				"z": 2.2013845438,
				"element": "C" 
			},
			{
				"x": -2.843189685,
				"y": -0.2443111611,
				"z": 2.9110246195,
				"element": "C" 
			},
			{
				"x": -1.5545594507,
				"y": -0.39592383,
				"z": 2.4000808324,
				"element": "C" 
			},
			{
				"x": -1.3242475066,
				"y": -1.0689446678,
				"z": 1.1944355778,
				"element": "C" 
			},
			{
				"x": 0.0723706457,
				"y": -1.2184521836,
				"z": 0.6470369528,
				"element": "C" 
			},
			{
				"x": 0.5017255943,
				"y": -0.0750265526,
				"z": -0.2734076834,
				"element": "C" 
			},
			{
				"x": -0.220447892,
				"y": 0.8692984843,
				"z": -0.539255398,
				"element": "O" 
			},
			{
				"x": 1.8898428936,
				"y": -0.1569037709,
				"z": -0.8597342924,
				"element": "C" 
			},
			{
				"x": 2.6415478649,
				"y": -1.2205994349,
				"z": -0.5325572868,
				"element": "N" 
			},
			{
				"x": 3.8706936089,
				"y": -1.2939056804,
				"z": -1.0511871911,
				"element": "C" 
			},
			{
				"x": 4.4029222598,
				"y": -0.3263490337,
				"z": -1.9077371101,
				"element": "C" 
			},
			{
				"x": 3.6146498464,
				"y": 0.7751702495,
				"z": -2.2420069122,
				"element": "C" 
			},
			{
				"x": 2.3317595241,
				"y": 0.8647193792,
				"z": -1.7089478509,
				"element": "C" 
			},
			{
				"x": -2.4252668608,
				"y": -1.5901651701,
				"z": 0.5047537647,
				"element": "C" 
			},
			{
				"x": -3.7221664705,
				"y": -1.4498851844,
				"z": 0.9976682882,
				"element": "C" 
			},
			{
				"x": -3.0122478957,
				"y": 0.2761967028,
				"z": 3.8471871324,
				"element": "H" 
			},
			{
				"x": -0.7152721813,
				"y": 0.0173980217,
				"z": 2.9534210135,
				"element": "H" 
			},
			{
				"x": 0.187844295,
				"y": -2.1532314163,
				"z": 0.0857476787,
				"element": "H" 
			},
			{
				"x": 0.8150796356,
				"y": -1.2903139476,
				"z": 1.4503989252,
				"element": "H" 
			},
			{
				"x": 4.4600159638,
				"y": -2.165069468,
				"z": -0.7711329237,
				"element": "H" 
			},
			{
				"x": 5.4090741197,
				"y": -0.4386529985,
				"z": -2.2992075854,
				"element": "H" 
			},
			{
				"x": 3.9938257704,
				"y": 1.5475962208,
				"z": -2.9047986175,
				"element": "H" 
			},
			{
				"x": 1.6654100971,
				"y": 1.6918376053,
				"z": -1.9257200949,
				"element": "H" 
			},
			{
				"x": -2.2712345411,
				"y": -2.1167368664,
				"z": -0.4335505356,
				"element": "H" 
			},
			{
				"x": -4.5691284755,
				"y": -1.8591715995,
				"z": 0.4581812052,
				"element": "H" 
			}
		],
		 "valence_orbital": [ 
			{
				"type": "occ",
				"energy": -0.28308,
				"method": "rhf"
			},
			{
				"type": "occ",
				"energy": -0.27595,
				"method": "rhf"
			},
			{
				"type": "occ",
				"energy": -0.25647,
				"method": "rhf"
			},
			{
				"type": "occ",
				"energy": -0.25429,
				"method": "rhf"
			},
			{
				"type": "occ",
				"energy": -0.23353,
				"method": "rhf"
			},
			{
				"type": "unocc",
				"energy": -0.07026,
				"method": "rhf"
			},
			{
				"type": "unocc",
				"energy": -0.03505,
				"method": "rhf"
			},
			{
				"type": "unocc",
				"energy": -0.00794,
				"method": "rhf"
			},
			{
				"type": "unocc",
				"energy": -0.00716,
				"method": "rhf"
			},
			{
				"type": "unocc",
				"energy": 0.02869,
				"method": "rhf"
			}
		],
		"cosmo_sigma_profile": { 
			"-0.025": 0.0,
			"-0.024": 0.0,
			"-0.023": 0.0,
			"-0.022": 0.0,
			"-0.021": 0.0,
			"-0.02": 0.0,
			"-0.019": 0.0,
			"-0.018": 0.0,
			"-0.017": 0.0,
			"-0.016": 0.0,
			"-0.015": 0.0,
			"-0.014": 0.0,
			"-0.013": 0.0,
			"-0.012": 0.0,
			"-0.011": 0.0,
			"-0.01": 0.0,
			"-0.009": 0.0,
			"-0.008": 1.64081846098,
			"-0.007": 13.5859970361,
			"-0.006": 23.8881047928,
			"-0.005": 20.4245926493,
			"-0.004": 15.4683802343,
			"-0.003": 13.5508555133,
			"-0.002": 15.6331381328,
			"-0.001": 16.2410929671,
			"0.0": 20.536667301,
			"0.001": 27.3434762934,
			"0.002": 23.4853627556,
			"0.003": 18.0130798149,
			"0.004": 19.4917827618,
			"0.005": 13.8977117051,
			"0.006": 4.95240930549,
			"0.007": 2.59758177214,
			"0.008": 3.0908490739,
			"0.009": 3.81574816704,
			"0.01": 3.38919798026,
			"0.011": 4.41000172856,
			"0.012": 2.94865618157,
			"0.013": 0.352036541504,
			"0.014": 0.0,
			"0.015": 0.0,
			"0.016": 0.0,
			"0.017": 0.0,
			"0.018": 0.0,
			"0.019": 0.0,
			"0.02": 0.0,
			"0.021": 0.0,
			"0.022": 0.0,
			"0.023": 0.0,
			"0.024": 0.0,
			"0.025": 0.0
		}
	}
}
