{
	 "smiles": "CC(=CC=C)C=NNC1=CC=C(C=C1[N+]([O-])=O)[N+]([O-])=O", 
	 "Tm": 444.15, 
	 "num_atms": 32, 
	 "gaussian": { 
		 "optdone": 1, 
		 "sigma_profile": "yes", 
		 "theory": "DFT", 
		 "functional": "B3LYP", 
		 "basiset": "6-31G**", 
		 "properties": { 
			 "R2extent": 8171.7032, 
			 "electric_dipole_moment_norm": 9.03339852935, 
			 "electric_quadrupole_moment_norm": 9.7863048246, 
			 "total_energy": -984.118289043, 
			 "HOMO_LUMO_gap": 0.13703, 
			 "cosmo_polarized_energy": -19.75, 
			 "cosmo_cavitation_energy": 38.88, 
			 "cosmo_dispersion_energy": -26.64, 
			 "cosmo_repulsion_energy": 2.05, 
			 "cosmo_total_nonelectrostatic_energy": 14.3, 
			 "SMD_solvation_energy": 11.76 
		},
		"coords": [
			{
				"x": -3.2247813912,
				"y": -1.2207569314,
				"z": -2.7656522858,
				"element": "C" 
			},
			{
				"x": -2.2406772951,
				"y": -1.5026611375,
				"z": -1.6541951407,
				"element": "C" 
			},
			{
				"x": -1.3347296707,
				"y": -2.5122830888,
				"z": -1.6558861288,
				"element": "C" 
			},
			{
				"x": -1.08328797,
				"y": -3.5336223586,
				"z": -2.6765415506,
				"element": "C" 
			},
			{
				"x": -1.9579966521,
				"y": -4.0882224214,
				"z": -3.5294044045,
				"element": "C" 
			},
			{
				"x": -2.3664368649,
				"y": -0.6026029468,
				"z": -0.4819345925,
				"element": "C" 
			},
			{
				"x": -1.465976053,
				"y": 0.0715734874,
				"z": 0.1469310717,
				"element": "N" 
			},
			{
				"x": -0.1744792613,
				"y": 0.0072157591,
				"z": -0.2589704065,
				"element": "N" 
			},
			{
				"x": 0.808530329,
				"y": 0.745174373,
				"z": 0.3547900221,
				"element": "C" 
			},
			{
				"x": 2.1500586249,
				"y": 0.3330153921,
				"z": 0.1818992274,
				"element": "C" 
			},
			{
				"x": 3.1911717554,
				"y": 0.9534180562,
				"z": 0.8462335407,
				"element": "C" 
			},
			{
				"x": 2.9087867319,
				"y": 1.9999429925,
				"z": 1.7293989727,
				"element": "C" 
			},
			{
				"x": 1.6082418808,
				"y": 2.4538435923,
				"z": 1.9108602471,
				"element": "C" 
			},
			{
				"x": 0.5759869993,
				"y": 1.8595690206,
				"z": 1.1966200492,
				"element": "C" 
			},
			{
				"x": -0.7245954642,
				"y": 2.547396032,
				"z": 1.2682182941,
				"element": "N" 
			},
			{
				"x": -1.278388319,
				"y": 2.8000097453,
				"z": 0.2028733542,
				"element": "O" 
			},
			{
				"x": -1.1181372465,
				"y": 2.8907724641,
				"z": 2.3800353464,
				"element": "O" 
			},
			{
				"x": 3.9984899039,
				"y": 2.6393058024,
				"z": 2.461971708,
				"element": "N" 
			},
			{
				"x": 3.7106052899,
				"y": 3.5542511869,
				"z": 3.2341543469,
				"element": "O" 
			},
			{
				"x": 5.1404005377,
				"y": 2.2209355249,
				"z": 2.2606363636,
				"element": "O" 
			},
			{
				"x": -3.4212074027,
				"y": -0.1474375425,
				"z": -2.8464090939,
				"element": "H" 
			},
			{
				"x": -4.1888305397,
				"y": -1.7106754664,
				"z": -2.5753607214,
				"element": "H" 
			},
			{
				"x": -2.8543662731,
				"y": -1.5831799935,
				"z": -3.7273675945,
				"element": "H" 
			},
			{
				"x": -0.6987899906,
				"y": -2.6059705832,
				"z": -0.7748271839,
				"element": "H" 
			},
			{
				"x": -0.0588867522,
				"y": -3.9071490367,
				"z": -2.6934249167,
				"element": "H" 
			},
			{
				"x": -1.637376442,
				"y": -4.8531138817,
				"z": -4.2297612373,
				"element": "H" 
			},
			{
				"x": -3.0120836777,
				"y": -3.8349004777,
				"z": -3.5382874287,
				"element": "H" 
			},
			{
				"x": -3.3748680521,
				"y": -0.4307641103,
				"z": -0.1046585998,
				"element": "H" 
			},
			{
				"x": 0.0869949977,
				"y": -0.6039130485,
				"z": -1.0266310566,
				"element": "H" 
			},
			{
				"x": 2.3541563683,
				"y": -0.5163004029,
				"z": -0.4636733161,
				"element": "H" 
			},
			{
				"x": 4.2161330213,
				"y": 0.6286305211,
				"z": 0.7190693496,
				"element": "H" 
			},
			{
				"x": 1.4037388779,
				"y": 3.284599478,
				"z": 2.5736937646,
				"element": "H" 
			}
		],
		 "valence_orbital": [ 
			{
				"type": "occ",
				"energy": -0.29408,
				"method": "rhf"
			},
			{
				"type": "occ",
				"energy": -0.29078,
				"method": "rhf"
			},
			{
				"type": "occ",
				"energy": -0.28021,
				"method": "rhf"
			},
			{
				"type": "occ",
				"energy": -0.26141,
				"method": "rhf"
			},
			{
				"type": "occ",
				"energy": -0.23132,
				"method": "rhf"
			},
			{
				"type": "unocc",
				"energy": -0.09429,
				"method": "rhf"
			},
			{
				"type": "unocc",
				"energy": -0.07964,
				"method": "rhf"
			},
			{
				"type": "unocc",
				"energy": -0.06399,
				"method": "rhf"
			},
			{
				"type": "unocc",
				"energy": -0.03271,
				"method": "rhf"
			},
			{
				"type": "unocc",
				"energy": -0.01212,
				"method": "rhf"
			}
		],
		"cosmo_sigma_profile": { 
			"-0.025": 0.0,
			"-0.024": 0.0,
			"-0.023": 0.0,
			"-0.022": 0.0,
			"-0.021": 0.0,
			"-0.02": 0.0,
			"-0.019": 0.0,
			"-0.018": 0.0,
			"-0.017": 0.0,
			"-0.016": 0.0,
			"-0.015": 0.361873869961,
			"-0.014": 1.33474293308,
			"-0.013": 1.53430677588,
			"-0.012": 0.911733931029,
			"-0.011": 1.61553949832,
			"-0.01": 1.68839317988,
			"-0.009": 3.08644257325,
			"-0.008": 6.2831944737,
			"-0.007": 9.52242576848,
			"-0.006": 12.2023014027,
			"-0.005": 20.5071422113,
			"-0.004": 22.1433257559,
			"-0.003": 24.7455466067,
			"-0.002": 27.4111994857,
			"-0.001": 29.3731764291,
			"0.0": 24.6070172357,
			"0.001": 16.5162217126,
			"0.002": 12.0308524763,
			"0.003": 11.2630255908,
			"0.004": 10.6631548202,
			"0.005": 10.990234387,
			"0.006": 10.8915723253,
			"0.007": 16.5193205771,
			"0.008": 20.2078857569,
			"0.009": 9.54976400427,
			"0.01": 4.91733089622,
			"0.011": 0.402098989914,
			"0.012": 0.0,
			"0.013": 0.0,
			"0.014": 0.0,
			"0.015": 0.0,
			"0.016": 0.0,
			"0.017": 0.0,
			"0.018": 0.0,
			"0.019": 0.0,
			"0.02": 0.0,
			"0.021": 0.0,
			"0.022": 0.0,
			"0.023": 0.0,
			"0.024": 0.0,
			"0.025": 0.0
		}
	}
}
