{
	 "smiles": "NC1=NC(=CS1)C1=CC=C(C=C1)S(=O)(=O)N1CCCCCC1", 
	 "Tm": 516.15, 
	 "num_atms": 41, 
	 "gaussian": { 
		 "optdone": 1, 
		 "sigma_profile": "yes", 
		 "theory": "DFT", 
		 "functional": "B3LYP", 
		 "basiset": "6-31G**", 
		 "properties": { 
			 "R2extent": 12747.3323, 
			 "electric_dipole_moment_norm": 7.04403887056, 
			 "electric_quadrupole_moment_norm": 29.2447393893, 
			 "total_energy": -1694.05598984, 
			 "HOMO_LUMO_gap": 0.1603, 
			 "cosmo_polarized_energy": -20.1, 
			 "cosmo_cavitation_energy": 45.11, 
			 "cosmo_dispersion_energy": -32.79, 
			 "cosmo_repulsion_energy": 2.41, 
			 "cosmo_total_nonelectrostatic_energy": 14.73, 
			 "SMD_solvation_energy": 4.44 
		},
		"coords": [
			{
				"x": -1.5749420425,
				"y": 5.3061388661,
				"z": 5.1733854767,
				"element": "N" 
			},
			{
				"x": -0.9073697635,
				"y": 4.1053160711,
				"z": 5.1441754251,
				"element": "C" 
			},
			{
				"x": -1.0598770157,
				"y": 3.2084824149,
				"z": 4.2172743927,
				"element": "N" 
			},
			{
				"x": -0.317441141,
				"y": 2.0668192205,
				"z": 4.488921066,
				"element": "C" 
			},
			{
				"x": 0.4169825714,
				"y": 2.1129872975,
				"z": 5.6436473967,
				"element": "C" 
			},
			{
				"x": 0.1767639999,
				"y": 3.6318542657,
				"z": 6.4627651595,
				"element": "S" 
			},
			{
				"x": -0.3770333828,
				"y": 0.9419259587,
				"z": 3.5371671608,
				"element": "C" 
			},
			{
				"x": 0.3860838293,
				"y": -0.2243816039,
				"z": 3.7152967294,
				"element": "C" 
			},
			{
				"x": 0.3121844738,
				"y": -1.274426446,
				"z": 2.8045448705,
				"element": "C" 
			},
			{
				"x": -0.5278346377,
				"y": -1.160570803,
				"z": 1.6955456753,
				"element": "C" 
			},
			{
				"x": -1.3059084537,
				"y": -0.0161432732,
				"z": 1.502071382,
				"element": "C" 
			},
			{
				"x": -1.224926487,
				"y": 1.0274275833,
				"z": 2.4167670028,
				"element": "C" 
			},
			{
				"x": -0.6611253518,
				"y": -2.5279620711,
				"z": 0.54232828,
				"element": "S" 
			},
			{
				"x": -2.0773675496,
				"y": -2.7491414087,
				"z": 0.2294379612,
				"element": "O" 
			},
			{
				"x": 0.1591330629,
				"y": -3.627631052,
				"z": 1.0741435536,
				"element": "O" 
			},
			{
				"x": 0.0248235723,
				"y": -1.8692138818,
				"z": -0.8629393674,
				"element": "N" 
			},
			{
				"x": -0.5598896018,
				"y": -2.3895248128,
				"z": -2.1217076387,
				"element": "C" 
			},
			{
				"x": 0.0835949017,
				"y": -1.7390224176,
				"z": -3.3498569377,
				"element": "C" 
			},
			{
				"x": 0.1188871391,
				"y": -0.2025051247,
				"z": -3.3564910408,
				"element": "C" 
			},
			{
				"x": 0.8420204442,
				"y": 0.4352142154,
				"z": -2.1459529993,
				"element": "C" 
			},
			{
				"x": 1.9751958931,
				"y": -0.4254190801,
				"z": -1.5674770411,
				"element": "C" 
			},
			{
				"x": 1.4908734948,
				"y": -1.7128964975,
				"z": -0.8292285967,
				"element": "C" 
			},
			{
				"x": -2.0125503171,
				"y": 5.5414768293,
				"z": 4.2923602356,
				"element": "H" 
			},
			{
				"x": -1.1146077472,
				"y": 6.0811739706,
				"z": 5.6280659548,
				"element": "H" 
			},
			{
				"x": 1.0731967183,
				"y": 1.3688035991,
				"z": 6.0683428296,
				"element": "H" 
			},
			{
				"x": 1.0450093788,
				"y": -0.3210850038,
				"z": 4.5721905654,
				"element": "H" 
			},
			{
				"x": 0.8889871395,
				"y": -2.1817823997,
				"z": 2.9457171051,
				"element": "H" 
			},
			{
				"x": -1.9725463703,
				"y": 0.048569718,
				"z": 0.6487625553,
				"element": "H" 
			},
			{
				"x": -1.8195098801,
				"y": 1.9235266256,
				"z": 2.2844469865,
				"element": "H" 
			},
			{
				"x": -1.6313409588,
				"y": -2.1826160362,
				"z": -2.0914400335,
				"element": "H" 
			},
			{
				"x": -0.4366182894,
				"y": -3.4807085637,
				"z": -2.1962465737,
				"element": "H" 
			},
			{
				"x": 1.1030076727,
				"y": -2.1241263482,
				"z": -3.4726262007,
				"element": "H" 
			},
			{
				"x": -0.4704760558,
				"y": -2.0951860684,
				"z": -4.2268630424,
				"element": "H" 
			},
			{
				"x": -0.9031426669,
				"y": 0.1916194111,
				"z": -3.4174362965,
				"element": "H" 
			},
			{
				"x": 0.6193426451,
				"y": 0.107355468,
				"z": -4.2827036349,
				"element": "H" 
			},
			{
				"x": 1.2552247557,
				"y": 1.4054408619,
				"z": -2.4464654686,
				"element": "H" 
			},
			{
				"x": 0.1224665192,
				"y": 0.6382473055,
				"z": -1.347905161,
				"element": "H" 
			},
			{
				"x": 2.5508084563,
				"y": 0.1841984736,
				"z": -0.8622417678,
				"element": "H" 
			},
			{
				"x": 2.674330011,
				"y": -0.7045848452,
				"z": -2.3649960393,
				"element": "H" 
			},
			{
				"x": 1.7872069833,
				"y": -1.6571240099,
				"z": 0.2198865917,
				"element": "H" 
			},
			{
				"x": 1.9795840505,
				"y": -2.6091264082,
				"z": -1.2341665163,
				"element": "H" 
			}
		],
		 "valence_orbital": [ 
			{
				"type": "occ",
				"energy": -0.28303,
				"method": "rhf"
			},
			{
				"type": "occ",
				"energy": -0.26632,
				"method": "rhf"
			},
			{
				"type": "occ",
				"energy": -0.26181,
				"method": "rhf"
			},
			{
				"type": "occ",
				"energy": -0.23801,
				"method": "rhf"
			},
			{
				"type": "occ",
				"energy": -0.21264,
				"method": "rhf"
			},
			{
				"type": "unocc",
				"energy": -0.05234,
				"method": "rhf"
			},
			{
				"type": "unocc",
				"energy": -0.01466,
				"method": "rhf"
			},
			{
				"type": "unocc",
				"energy": -0.00226,
				"method": "rhf"
			},
			{
				"type": "unocc",
				"energy": 0.00334,
				"method": "rhf"
			},
			{
				"type": "unocc",
				"energy": 0.05579,
				"method": "rhf"
			}
		],
		"cosmo_sigma_profile": { 
			"-0.025": 0.0,
			"-0.024": 0.0,
			"-0.023": 0.0,
			"-0.022": 0.0,
			"-0.021": 0.0,
			"-0.02": 0.0,
			"-0.019": 0.0,
			"-0.018": 0.0,
			"-0.017": 0.0,
			"-0.016": 0.0,
			"-0.015": 0.816011326518,
			"-0.014": 1.93856126794,
			"-0.013": 2.54289819326,
			"-0.012": 2.91770554278,
			"-0.011": 2.80128218529,
			"-0.01": 2.99703488247,
			"-0.009": 4.76606067055,
			"-0.008": 4.25192701428,
			"-0.007": 6.33445263308,
			"-0.006": 8.1006080075,
			"-0.005": 10.8668475719,
			"-0.004": 23.5060121687,
			"-0.003": 30.609280073,
			"-0.002": 34.9618549589,
			"-0.001": 35.2841498476,
			"0.0": 32.8122554776,
			"0.001": 30.19255715,
			"0.002": 30.4821374792,
			"0.003": 28.5810477596,
			"0.004": 11.8799736699,
			"0.005": 6.85475973282,
			"0.006": 4.99968907638,
			"0.007": 5.08995360538,
			"0.008": 4.65707042158,
			"0.009": 5.9766216202,
			"0.01": 7.63247431429,
			"0.011": 9.46128265546,
			"0.012": 6.52377287304,
			"0.013": 0.433067602752,
			"0.014": 0.0,
			"0.015": 0.0,
			"0.016": 0.0,
			"0.017": 0.0,
			"0.018": 0.0,
			"0.019": 0.0,
			"0.02": 0.0,
			"0.021": 0.0,
			"0.022": 0.0,
			"0.023": 0.0,
			"0.024": 0.0,
			"0.025": 0.0
		}
	}
}
