{
	 "smiles": "COC1=CC(OC)=CC(O)=C1", 
	 "Tm": 319.15, 
	 "num_atms": 21, 
	 "gaussian": { 
		 "optdone": 1, 
		 "sigma_profile": "yes", 
		 "theory": "DFT", 
		 "functional": "B3LYP", 
		 "basiset": "6-31G**", 
		 "properties": { 
			 "R2extent": 2213.2358, 
			 "electric_dipole_moment_norm": 2.89163476255, 
			 "electric_quadrupole_moment_norm": 9.2312679205, 
			 "total_energy": -536.519128876, 
			 "HOMO_LUMO_gap": 0.22494, 
			 "cosmo_polarized_energy": -11.91, 
			 "cosmo_cavitation_energy": 24.67, 
			 "cosmo_dispersion_energy": -18.33, 
			 "cosmo_repulsion_energy": 1.48, 
			 "cosmo_total_nonelectrostatic_energy": 7.82, 
			 "SMD_solvation_energy": 6.18 
		},
		"coords": [
			{
				"x": -2.2612015138,
				"y": -2.3796212281,
				"z": 2.4423341766,
				"element": "C" 
			},
			{
				"x": -1.4756568007,
				"y": -2.6604321928,
				"z": 1.2963340319,
				"element": "O" 
			},
			{
				"x": -0.9482487008,
				"y": -1.6138222375,
				"z": 0.5938201618,
				"element": "C" 
			},
			{
				"x": -1.1387580226,
				"y": -0.2695867539,
				"z": 0.9400466928,
				"element": "C" 
			},
			{
				"x": -0.5442323129,
				"y": 0.71791715,
				"z": 0.1379219234,
				"element": "C" 
			},
			{
				"x": -0.6629981792,
				"y": 2.0569484953,
				"z": 0.3805158214,
				"element": "O" 
			},
			{
				"x": -1.4243975228,
				"y": 2.4805898789,
				"z": 1.4980116409,
				"element": "C" 
			},
			{
				"x": 0.2206919505,
				"y": 0.3813404393,
				"z": -0.980285337,
				"element": "C" 
			},
			{
				"x": 0.3926332174,
				"y": -0.9659514686,
				"z": -1.299962167,
				"element": "C" 
			},
			{
				"x": 1.1483520806,
				"y": -1.2507803291,
				"z": -2.4021590565,
				"element": "O" 
			},
			{
				"x": -0.1856843145,
				"y": -1.971405619,
				"z": -0.5222439319,
				"element": "C" 
			},
			{
				"x": -3.1529104346,
				"y": -1.7911259309,
				"z": 2.1899343192,
				"element": "H" 
			},
			{
				"x": -1.6851230125,
				"y": -1.8457688332,
				"z": 3.2093417812,
				"element": "H" 
			},
			{
				"x": -2.5724511637,
				"y": -3.3476064596,
				"z": 2.8385651258,
				"element": "H" 
			},
			{
				"x": -1.728580723,
				"y": 0.0000980679,
				"z": 1.8031344973,
				"element": "H" 
			},
			{
				"x": -1.0051365686,
				"y": 2.1076919777,
				"z": 2.4417341087,
				"element": "H" 
			},
			{
				"x": -1.3817519323,
				"y": 3.5710240258,
				"z": 1.4950685673,
				"element": "H" 
			},
			{
				"x": -2.4723798537,
				"y": 2.1623099544,
				"z": 1.4213287212,
				"element": "H" 
			},
			{
				"x": 0.6718654058,
				"y": 1.1560791398,
				"z": -1.5875505864,
				"element": "H" 
			},
			{
				"x": 1.1896404353,
				"y": -2.2092421945,
				"z": -2.5130582826,
				"element": "H" 
			},
			{
				"x": -0.059972034,
				"y": -3.0234558819,
				"z": -0.7595322082,
				"element": "H" 
			}
		],
		 "valence_orbital": [ 
			{
				"type": "occ",
				"energy": -0.33822,
				"method": "rhf"
			},
			{
				"type": "occ",
				"energy": -0.32382,
				"method": "rhf"
			},
			{
				"type": "occ",
				"energy": -0.27158,
				"method": "rhf"
			},
			{
				"type": "occ",
				"energy": -0.21369,
				"method": "rhf"
			},
			{
				"type": "occ",
				"energy": -0.20449,
				"method": "rhf"
			},
			{
				"type": "unocc",
				"energy": 0.02045,
				"method": "rhf"
			},
			{
				"type": "unocc",
				"energy": 0.02818,
				"method": "rhf"
			},
			{
				"type": "unocc",
				"energy": 0.077,
				"method": "rhf"
			},
			{
				"type": "unocc",
				"energy": 0.08958,
				"method": "rhf"
			},
			{
				"type": "unocc",
				"energy": 0.112,
				"method": "rhf"
			}
		],
		"cosmo_sigma_profile": { 
			"-0.025": 0.0,
			"-0.024": 0.0,
			"-0.023": 0.0,
			"-0.022": 0.0,
			"-0.021": 0.0,
			"-0.02": 0.0,
			"-0.019": 0.0,
			"-0.018": 0.254157021724,
			"-0.017": 0.893194157798,
			"-0.016": 1.07664346203,
			"-0.015": 1.26682369352,
			"-0.014": 0.81274340905,
			"-0.013": 1.14435766997,
			"-0.012": 0.5508733897,
			"-0.011": 0.580053282834,
			"-0.01": 1.40647091424,
			"-0.009": 1.30815894766,
			"-0.008": 0.896863702297,
			"-0.007": 1.90842204119,
			"-0.006": 9.13533639064,
			"-0.005": 19.5859619741,
			"-0.004": 20.0629903386,
			"-0.003": 20.1185964062,
			"-0.002": 10.6796739369,
			"-0.001": 8.56629446314,
			"0.0": 7.2907023214,
			"0.001": 6.12973051403,
			"0.002": 6.85443417745,
			"0.003": 9.60019506274,
			"0.004": 12.1946869005,
			"0.005": 21.2500244403,
			"0.006": 9.13664619531,
			"0.007": 5.40818732415,
			"0.008": 3.54473162279,
			"0.009": 4.37106156258,
			"0.01": 5.24391187578,
			"0.011": 2.85294315734,
			"0.012": 1.10469261697,
			"0.013": 0.0,
			"0.014": 0.0,
			"0.015": 0.0,
			"0.016": 0.0,
			"0.017": 0.0,
			"0.018": 0.0,
			"0.019": 0.0,
			"0.02": 0.0,
			"0.021": 0.0,
			"0.022": 0.0,
			"0.023": 0.0,
			"0.024": 0.0,
			"0.025": 0.0
		}
	}
}
