{
	 "smiles": "CC1=CC=C(C=C1)C1=CN=C(O1)C1=C(C=CC=C1)C(O)=O", 
	 "Tm": 493.15, 
	 "num_atms": 34, 
	 "gaussian": { 
		 "optdone": 1, 
		 "sigma_profile": "yes", 
		 "theory": "DFT", 
		 "functional": "B3LYP", 
		 "basiset": "6-31G**", 
		 "properties": { 
			 "R2extent": 8234.668, 
			 "electric_dipole_moment_norm": 3.75089238582, 
			 "electric_quadrupole_moment_norm": 25.2468203824, 
			 "total_energy": -936.078723522, 
			 "HOMO_LUMO_gap": 0.14333, 
			 "cosmo_polarized_energy": -14.73, 
			 "cosmo_cavitation_energy": 38.78, 
			 "cosmo_dispersion_energy": -27.91, 
			 "cosmo_repulsion_energy": 2.07, 
			 "cosmo_total_nonelectrostatic_energy": 12.94, 
			 "SMD_solvation_energy": 6.44 
		},
		"coords": [
			{
				"x": 4.7168795711,
				"y": 0.1936490591,
				"z": 3.6357534273,
				"element": "C" 
			},
			{
				"x": 3.5717824581,
				"y": 0.0019509843,
				"z": 2.6713287757,
				"element": "C" 
			},
			{
				"x": 3.6882245021,
				"y": -0.8678123309,
				"z": 1.5761348276,
				"element": "C" 
			},
			{
				"x": 2.6490146402,
				"y": -1.0277002317,
				"z": 0.6676185135,
				"element": "C" 
			},
			{
				"x": 1.4446415394,
				"y": -0.3184036702,
				"z": 0.8274903723,
				"element": "C" 
			},
			{
				"x": 1.3182451151,
				"y": 0.5521409755,
				"z": 1.9241308264,
				"element": "C" 
			},
			{
				"x": 2.3685675699,
				"y": 0.7030212059,
				"z": 2.8253321643,
				"element": "C" 
			},
			{
				"x": 0.3600264814,
				"y": -0.4961549787,
				"z": -0.1229489031,
				"element": "C" 
			},
			{
				"x": 0.1435378905,
				"y": -1.2611822431,
				"z": -1.2373890468,
				"element": "C" 
			},
			{
				"x": -1.1086487783,
				"y": -1.0092768476,
				"z": -1.7518810508,
				"element": "N" 
			},
			{
				"x": -1.6342178856,
				"y": -0.11275605,
				"z": -0.9602384969,
				"element": "C" 
			},
			{
				"x": -0.7911444572,
				"y": 0.2456759423,
				"z": 0.0544841839,
				"element": "O" 
			},
			{
				"x": -2.9688657582,
				"y": 0.4833024402,
				"z": -1.0687511876,
				"element": "C" 
			},
			{
				"x": -3.5811741026,
				"y": 1.3899839807,
				"z": -0.160368417,
				"element": "C" 
			},
			{
				"x": -4.9119500327,
				"y": 1.775523545,
				"z": -0.3999520589,
				"element": "C" 
			},
			{
				"x": -5.6217763551,
				"y": 1.3361175194,
				"z": -1.5105097296,
				"element": "C" 
			},
			{
				"x": -5.0114582155,
				"y": 0.4616046862,
				"z": -2.4114909905,
				"element": "C" 
			},
			{
				"x": -3.7107583922,
				"y": 0.0376754788,
				"z": -2.1832978566,
				"element": "C" 
			},
			{
				"x": -3.0226339189,
				"y": 2.0289160013,
				"z": 1.0986879925,
				"element": "C" 
			},
			{
				"x": -1.7493951594,
				"y": 2.4834137956,
				"z": 1.1046484669,
				"element": "O" 
			},
			{
				"x": -3.7299328738,
				"y": 2.2400837482,
				"z": 2.0568708725,
				"element": "O" 
			},
			{
				"x": 5.2874557468,
				"y": -0.7305971826,
				"z": 3.7693147902,
				"element": "H" 
			},
			{
				"x": 5.4166107451,
				"y": 0.9567049822,
				"z": 3.2717279112,
				"element": "H" 
			},
			{
				"x": 4.3623852897,
				"y": 0.5195364794,
				"z": 4.6178184367,
				"element": "H" 
			},
			{
				"x": 4.6084834408,
				"y": -1.4290190188,
				"z": 1.434922688,
				"element": "H" 
			},
			{
				"x": 2.7708054237,
				"y": -1.7088796675,
				"z": -0.1694364044,
				"element": "H" 
			},
			{
				"x": 0.3972891019,
				"y": 1.1067197042,
				"z": 2.0717486585,
				"element": "H" 
			},
			{
				"x": 2.2479038967,
				"y": 1.3785932759,
				"z": 3.6681930906,
				"element": "H" 
			},
			{
				"x": 0.8060329786,
				"y": -1.9794386163,
				"z": -1.697269138,
				"element": "H" 
			},
			{
				"x": -5.3768296325,
				"y": 2.4368356663,
				"z": 0.3218087709,
				"element": "H" 
			},
			{
				"x": -6.6433468658,
				"y": 1.6686052067,
				"z": -1.6667436382,
				"element": "H" 
			},
			{
				"x": -5.5491880338,
				"y": 0.1022573825,
				"z": -3.2836649152,
				"element": "H" 
			},
			{
				"x": -3.2327720657,
				"y": -0.6638056828,
				"z": -2.8571816977,
				"element": "H" 
			},
			{
				"x": -1.2472938637,
				"y": 2.1215144605,
				"z": 0.3609087625,
				"element": "H" 
			}
		],
		 "valence_orbital": [ 
			{
				"type": "occ",
				"energy": -0.27991,
				"method": "rhf"
			},
			{
				"type": "occ",
				"energy": -0.26816,
				"method": "rhf"
			},
			{
				"type": "occ",
				"energy": -0.26152,
				"method": "rhf"
			},
			{
				"type": "occ",
				"energy": -0.25878,
				"method": "rhf"
			},
			{
				"type": "occ",
				"energy": -0.21511,
				"method": "rhf"
			},
			{
				"type": "unocc",
				"energy": -0.07178,
				"method": "rhf"
			},
			{
				"type": "unocc",
				"energy": -0.0336,
				"method": "rhf"
			},
			{
				"type": "unocc",
				"energy": -0.02593,
				"method": "rhf"
			},
			{
				"type": "unocc",
				"energy": -0.01145,
				"method": "rhf"
			},
			{
				"type": "unocc",
				"energy": 0.03533,
				"method": "rhf"
			}
		],
		"cosmo_sigma_profile": { 
			"-0.025": 0.0,
			"-0.024": 0.0,
			"-0.023": 0.0,
			"-0.022": 0.0,
			"-0.021": 0.0,
			"-0.02": 0.0,
			"-0.019": 0.0,
			"-0.018": 0.0,
			"-0.017": 0.0,
			"-0.016": 0.383880161513,
			"-0.015": 0.950561888899,
			"-0.014": 0.83850598548,
			"-0.013": 0.705192812691,
			"-0.012": 0.799866558352,
			"-0.011": 0.559131811543,
			"-0.01": 0.957834024565,
			"-0.009": 1.73927382515,
			"-0.008": 4.9861541364,
			"-0.007": 7.65831805588,
			"-0.006": 13.1214276802,
			"-0.005": 19.9071413458,
			"-0.004": 25.1222384743,
			"-0.003": 22.507472539,
			"-0.002": 21.4388411697,
			"-0.001": 25.3905960094,
			"0.0": 30.3296160284,
			"0.001": 26.0476987869,
			"0.002": 26.2633699512,
			"0.003": 21.9007319157,
			"0.004": 14.3902616686,
			"0.005": 11.8110582705,
			"0.006": 3.64731253697,
			"0.007": 4.1166045019,
			"0.008": 3.39822062855,
			"0.009": 4.51384021938,
			"0.01": 5.02052158017,
			"0.011": 6.48054260107,
			"0.012": 5.1250620253,
			"0.013": 1.96451004645,
			"0.014": 0.0,
			"0.015": 0.0,
			"0.016": 0.0,
			"0.017": 0.0,
			"0.018": 0.0,
			"0.019": 0.0,
			"0.02": 0.0,
			"0.021": 0.0,
			"0.022": 0.0,
			"0.023": 0.0,
			"0.024": 0.0,
			"0.025": 0.0
		}
	}
}
