{
	 "smiles": "ClC1=C2C=CC=CC2=C(Br)C=C1", 
	 "Tm": 336.15, 
	 "num_atms": 18, 
	 "gaussian": { 
		 "optdone": 1, 
		 "sigma_profile": "yes", 
		 "theory": "DFT", 
		 "functional": "B3LYP", 
		 "basiset": "6-31G**", 
		 "properties": { 
			 "R2extent": 4012.0452, 
			 "electric_dipole_moment_norm": 0.713780701616, 
			 "electric_quadrupole_moment_norm": 8.33953427237, 
			 "total_energy": -3416.28664966, 
			 "HOMO_LUMO_gap": 0.16554, 
			 "cosmo_polarized_energy": -4.04, 
			 "cosmo_cavitation_energy": 25.59, 
			 "cosmo_dispersion_energy": -19.82, 
			 "cosmo_repulsion_energy": 1.54, 
			 "cosmo_total_nonelectrostatic_energy": 7.31, 
			 "SMD_solvation_energy": 2.78 
		},
		"coords": [
			{
				"x": -2.1281886044,
				"y": 3.7786396759,
				"z": -1.8423299667,
				"element": "Cl" 
			},
			{
				"x": -0.8920014067,
				"y": 2.5689161891,
				"z": -1.5197593258,
				"element": "C" 
			},
			{
				"x": -1.2432989514,
				"y": 1.3445074059,
				"z": -0.8788119757,
				"element": "C" 
			},
			{
				"x": -2.5684674845,
				"y": 1.0335494016,
				"z": -0.4734870299,
				"element": "C" 
			},
			{
				"x": -2.8598759666,
				"y": -0.1617310779,
				"z": 0.1421507825,
				"element": "C" 
			},
			{
				"x": -1.8373628503,
				"y": -1.106942867,
				"z": 0.3831181262,
				"element": "C" 
			},
			{
				"x": -0.5419352735,
				"y": -0.84056737,
				"z": 0.0044222203,
				"element": "C" 
			},
			{
				"x": -0.1994490631,
				"y": 0.3811147169,
				"z": -0.6335823569,
				"element": "C" 
			},
			{
				"x": 1.1255853383,
				"y": 0.7070313003,
				"z": -1.0459131929,
				"element": "C" 
			},
			{
				"x": 2.5637221918,
				"y": -0.5225786515,
				"z": -0.7538917669,
				"element": "Br" 
			},
			{
				"x": 1.4207350834,
				"y": 1.8995753355,
				"z": -1.6609284767,
				"element": "C" 
			},
			{
				"x": 0.3992473483,
				"y": 2.8435695315,
				"z": -1.9014466084,
				"element": "C" 
			},
			{
				"x": -3.3517906547,
				"y": 1.7589000863,
				"z": -0.6586718046,
				"element": "H" 
			},
			{
				"x": -3.8799135929,
				"y": -0.3794493294,
				"z": 0.4440422481,
				"element": "H" 
			},
			{
				"x": -2.0749731185,
				"y": -2.0481991407,
				"z": 0.869530088,
				"element": "H" 
			},
			{
				"x": 0.2426730068,
				"y": -1.5647615985,
				"z": 0.1888056302,
				"element": "H" 
			},
			{
				"x": 2.4371712589,
				"y": 2.1213197914,
				"z": -1.9640123136,
				"element": "H" 
			},
			{
				"x": 0.635922739,
				"y": 3.7834066008,
				"z": -2.3869342773,
				"element": "H" 
			}
		],
		 "valence_orbital": [ 
			{
				"type": "occ",
				"energy": -0.30354,
				"method": "rhf"
			},
			{
				"type": "occ",
				"energy": -0.29289,
				"method": "rhf"
			},
			{
				"type": "occ",
				"energy": -0.27502,
				"method": "rhf"
			},
			{
				"type": "occ",
				"energy": -0.26242,
				"method": "rhf"
			},
			{
				"type": "occ",
				"energy": -0.22391,
				"method": "rhf"
			},
			{
				"type": "unocc",
				"energy": -0.05837,
				"method": "rhf"
			},
			{
				"type": "unocc",
				"energy": -0.02816,
				"method": "rhf"
			},
			{
				"type": "unocc",
				"energy": 0.00161,
				"method": "rhf"
			},
			{
				"type": "unocc",
				"energy": 0.01817,
				"method": "rhf"
			},
			{
				"type": "unocc",
				"energy": 0.02726,
				"method": "rhf"
			}
		],
		"cosmo_sigma_profile": { 
			"-0.025": 0.0,
			"-0.024": 0.0,
			"-0.023": 0.0,
			"-0.022": 0.0,
			"-0.021": 0.0,
			"-0.02": 0.0,
			"-0.019": 0.0,
			"-0.018": 0.0,
			"-0.017": 0.0,
			"-0.016": 0.0,
			"-0.015": 0.0,
			"-0.014": 0.0,
			"-0.013": 0.0,
			"-0.012": 0.0,
			"-0.011": 0.0,
			"-0.01": 0.0,
			"-0.009": 0.0,
			"-0.008": 1.98874412783,
			"-0.007": 5.81705016066,
			"-0.006": 9.13007797137,
			"-0.005": 11.2668351212,
			"-0.004": 12.3688940555,
			"-0.003": 10.4853764176,
			"-0.002": 11.9610721221,
			"-0.001": 12.7030321743,
			"0.0": 18.903255593,
			"0.001": 32.6536163322,
			"0.002": 34.6187567387,
			"0.003": 23.6197986185,
			"0.004": 22.454703434,
			"0.005": 4.11524695395,
			"0.006": 0.0,
			"0.007": 0.0,
			"0.008": 0.0,
			"0.009": 0.0,
			"0.01": 0.0,
			"0.011": 0.0,
			"0.012": 0.0,
			"0.013": 0.0,
			"0.014": 0.0,
			"0.015": 0.0,
			"0.016": 0.0,
			"0.017": 0.0,
			"0.018": 0.0,
			"0.019": 0.0,
			"0.02": 0.0,
			"0.021": 0.0,
			"0.022": 0.0,
			"0.023": 0.0,
			"0.024": 0.0,
			"0.025": 0.0
		}
	}
}
