{
	 "smiles": "CC1=CC(O)=NC(N)=N1", 
	 "Tm": 573.15, 
	 "num_atms": 16, 
	 "gaussian": { 
		 "optdone": 1, 
		 "sigma_profile": "yes", 
		 "theory": "DFT", 
		 "functional": "B3LYP", 
		 "basiset": "6-31G**", 
		 "properties": { 
			 "R2extent": 2261.2796, 
			 "electric_dipole_moment_norm": 1.78701742017, 
			 "electric_quadrupole_moment_norm": 13.7563396498, 
			 "total_energy": -434.252906447, 
			 "HOMO_LUMO_gap": 0.20942, 
			 "cosmo_polarized_energy": -15.19, 
			 "cosmo_cavitation_energy": 20.23, 
			 "cosmo_dispersion_energy": -15.46, 
			 "cosmo_repulsion_energy": 1.29, 
			 "cosmo_total_nonelectrostatic_energy": 6.07, 
			 "SMD_solvation_energy": 1.16 
		},
		"coords": [
			{
				"x": 0.5368008257,
				"y": 0.5415629016,
				"z": 0.9267166845,
				"element": "C" 
			},
			{
				"x": 0.6164817478,
				"y": 0.6095718375,
				"z": -0.5756432482,
				"element": "C" 
			},
			{
				"x": -0.4599624887,
				"y": 0.2443315095,
				"z": -1.3824892074,
				"element": "C" 
			},
			{
				"x": -0.2655516418,
				"y": 0.3601627478,
				"z": -2.7690249667,
				"element": "C" 
			},
			{
				"x": -1.2346574985,
				"y": 0.0495494213,
				"z": -3.6613813807,
				"element": "O" 
			},
			{
				"x": 0.8675716095,
				"y": 0.7815453127,
				"z": -3.3074544042,
				"element": "N" 
			},
			{
				"x": 1.8423375837,
				"y": 1.0964771218,
				"z": -2.4324645266,
				"element": "C" 
			},
			{
				"x": 3.0314648802,
				"y": 1.4922947109,
				"z": -2.9727203057,
				"element": "N" 
			},
			{
				"x": 1.7778514748,
				"y": 1.0410798831,
				"z": -1.090565024,
				"element": "N" 
			},
			{
				"x": -0.4427386998,
				"y": 0.1992879655,
				"z": 1.2694795664,
				"element": "H" 
			},
			{
				"x": 0.739336867,
				"y": 1.5272486067,
				"z": 1.3576569512,
				"element": "H" 
			},
			{
				"x": 1.3039110775,
				"y": -0.1380421079,
				"z": 1.3118070635,
				"element": "H" 
			},
			{
				"x": -1.3969254954,
				"y": -0.1015798714,
				"z": -0.9584484964,
				"element": "H" 
			},
			{
				"x": -2.0192304216,
				"y": -0.2450735451,
				"z": -3.1799375411,
				"element": "H" 
			},
			{
				"x": 3.6976353905,
				"y": 1.9246117503,
				"z": -2.3537032799,
				"element": "H" 
			},
			{
				"x": 3.0381747889,
				"y": 1.7390717558,
				"z": -3.9490278846,
				"element": "H" 
			}
		],
		 "valence_orbital": [ 
			{
				"type": "occ",
				"energy": -0.30349,
				"method": "rhf"
			},
			{
				"type": "occ",
				"energy": -0.29941,
				"method": "rhf"
			},
			{
				"type": "occ",
				"energy": -0.26836,
				"method": "rhf"
			},
			{
				"type": "occ",
				"energy": -0.24384,
				"method": "rhf"
			},
			{
				"type": "occ",
				"energy": -0.21957,
				"method": "rhf"
			},
			{
				"type": "unocc",
				"energy": -0.01015,
				"method": "rhf"
			},
			{
				"type": "unocc",
				"energy": 0.01592,
				"method": "rhf"
			},
			{
				"type": "unocc",
				"energy": 0.06739,
				"method": "rhf"
			},
			{
				"type": "unocc",
				"energy": 0.09882,
				"method": "rhf"
			},
			{
				"type": "unocc",
				"energy": 0.11238,
				"method": "rhf"
			}
		],
		"cosmo_sigma_profile": { 
			"-0.025": 0.0,
			"-0.024": 0.0,
			"-0.023": 0.0,
			"-0.022": 0.0,
			"-0.021": 0.0,
			"-0.02": 0.0,
			"-0.019": 0.162775907909,
			"-0.018": 1.45195568888,
			"-0.017": 0.536497165961,
			"-0.016": 1.2989324757,
			"-0.015": 1.11831674421,
			"-0.014": 1.71299376873,
			"-0.013": 2.91188506284,
			"-0.012": 2.45980722189,
			"-0.011": 2.11913892854,
			"-0.01": 3.83463599007,
			"-0.009": 2.62236840499,
			"-0.008": 2.91865593707,
			"-0.007": 3.84481865093,
			"-0.006": 4.22613286259,
			"-0.005": 7.08082374703,
			"-0.004": 7.85684979618,
			"-0.003": 6.97752385478,
			"-0.002": 8.81275828652,
			"-0.001": 11.6326380766,
			"0.0": 12.9781616501,
			"0.001": 11.2204698018,
			"0.002": 9.7863545081,
			"0.003": 8.18628671392,
			"0.004": 4.80296797375,
			"0.005": 4.72890099945,
			"0.006": 4.38805245064,
			"0.007": 4.1397006837,
			"0.008": 4.44045779484,
			"0.009": 4.02213543577,
			"0.01": 4.30374542097,
			"0.011": 3.68609889925,
			"0.012": 3.27223395585,
			"0.013": 1.92080700133,
			"0.014": 2.29392545843,
			"0.015": 1.83948797089,
			"0.016": 0.51680156477,
			"0.017": 0.0,
			"0.018": 0.0,
			"0.019": 0.0,
			"0.02": 0.0,
			"0.021": 0.0,
			"0.022": 0.0,
			"0.023": 0.0,
			"0.024": 0.0,
			"0.025": 0.0
		}
	}
}
