{
	 "smiles": "O=C(OCC1CCC2OC2C1)C1CCC2OC2C1", 
	 "Tm": 236.15, 
	 "num_atms": 38, 
	 "gaussian": { 
		 "optdone": 1, 
		 "sigma_profile": "yes", 
		 "theory": "DFT", 
		 "functional": "B3LYP", 
		 "basiset": "6-31G**", 
		 "properties": { 
			 "R2extent": 7509.0235, 
			 "electric_dipole_moment_norm": 2.40960583084, 
			 "electric_quadrupole_moment_norm": 17.2976047403, 
			 "total_energy": -846.388720603, 
			 "HOMO_LUMO_gap": 0.26406, 
			 "cosmo_polarized_energy": -13.07, 
			 "cosmo_cavitation_energy": 38.1, 
			 "cosmo_dispersion_energy": -27.56, 
			 "cosmo_repulsion_energy": 2.16, 
			 "cosmo_total_nonelectrostatic_energy": 12.7, 
			 "SMD_solvation_energy": 5.21 
		},
		"coords": [
			{
				"x": 0.6455863282,
				"y": 1.5750635247,
				"z": -1.1378367863,
				"element": "O" 
			},
			{
				"x": 0.3094025446,
				"y": 0.4668069242,
				"z": -1.5008988153,
				"element": "C" 
			},
			{
				"x": 0.3600856685,
				"y": -0.6156892009,
				"z": -0.6898687654,
				"element": "O" 
			},
			{
				"x": 0.8460854902,
				"y": -0.3822687513,
				"z": 0.6521273379,
				"element": "C" 
			},
			{
				"x": 0.8738029855,
				"y": -1.7154930812,
				"z": 1.3880918142,
				"element": "C" 
			},
			{
				"x": 1.288745669,
				"y": -1.5132330551,
				"z": 2.8562421287,
				"element": "C" 
			},
			{
				"x": 1.1307534474,
				"y": -2.8143376572,
				"z": 3.6565251262,
				"element": "C" 
			},
			{
				"x": 1.8208143762,
				"y": -3.9822568459,
				"z": 2.9856447118,
				"element": "C" 
			},
			{
				"x": 3.1596869027,
				"y": -3.745146081,
				"z": 2.532228362,
				"element": "O" 
			},
			{
				"x": 2.1312669155,
				"y": -3.944537782,
				"z": 1.5432227556,
				"element": "C" 
			},
			{
				"x": 1.7904479542,
				"y": -2.7381613612,
				"z": 0.6839938257,
				"element": "C" 
			},
			{
				"x": -0.1569815975,
				"y": 0.0918157877,
				"z": -2.9073202983,
				"element": "C" 
			},
			{
				"x": -0.2916362112,
				"y": 1.3353230016,
				"z": -3.8026446325,
				"element": "C" 
			},
			{
				"x": -1.4318887486,
				"y": 2.2631554207,
				"z": -3.353211965,
				"element": "C" 
			},
			{
				"x": -2.7265889317,
				"y": 1.5183222575,
				"z": -3.1219640864,
				"element": "C" 
			},
			{
				"x": -3.1377538087,
				"y": 0.6120073616,
				"z": -4.155933404,
				"element": "O" 
			},
			{
				"x": -2.7310505601,
				"y": 0.0600392376,
				"z": -2.8906397691,
				"element": "C" 
			},
			{
				"x": -1.451683787,
				"y": -0.7614255865,
				"z": -2.9081865823,
				"element": "C" 
			},
			{
				"x": 0.1858026686,
				"y": 0.3379717992,
				"z": 1.1467750821,
				"element": "H" 
			},
			{
				"x": 1.843263411,
				"y": 0.0685379975,
				"z": 0.5952234973,
				"element": "H" 
			},
			{
				"x": -0.1510999452,
				"y": -2.1156317385,
				"z": 1.3835293975,
				"element": "H" 
			},
			{
				"x": 2.3333437616,
				"y": -1.183742563,
				"z": 2.9020931485,
				"element": "H" 
			},
			{
				"x": 0.6810234944,
				"y": -0.7257016402,
				"z": 3.3172958822,
				"element": "H" 
			},
			{
				"x": 0.0655516751,
				"y": -3.0613644822,
				"z": 3.7658155164,
				"element": "H" 
			},
			{
				"x": 1.5300277836,
				"y": -2.6904711567,
				"z": 4.6707736509,
				"element": "H" 
			},
			{
				"x": 1.6750298176,
				"y": -4.955570025,
				"z": 3.4599537069,
				"element": "H" 
			},
			{
				"x": 2.2233322219,
				"y": -4.894651021,
				"z": 1.013823017,
				"element": "H" 
			},
			{
				"x": 1.3188366803,
				"y": -3.0726504934,
				"z": -0.2452986579,
				"element": "H" 
			},
			{
				"x": 2.7348585935,
				"y": -2.2552084098,
				"z": 0.3982316259,
				"element": "H" 
			},
			{
				"x": 0.6492681729,
				"y": -0.5436403786,
				"z": -3.2991061729,
				"element": "H" 
			},
			{
				"x": 0.6490147013,
				"y": 1.8926001137,
				"z": -3.8054882921,
				"element": "H" 
			},
			{
				"x": -0.480897798,
				"y": 0.996444267,
				"z": -4.8265034423,
				"element": "H" 
			},
			{
				"x": -1.5961011487,
				"y": 3.044284028,
				"z": -4.1058750284,
				"element": "H" 
			},
			{
				"x": -1.1498656165,
				"y": 2.7679225075,
				"z": -2.423291583,
				"element": "H" 
			},
			{
				"x": -3.5432459833,
				"y": 2.1079413885,
				"z": -2.6988282269,
				"element": "H" 
			},
			{
				"x": -3.5577137828,
				"y": -0.3685929075,
				"z": -2.3206718728,
				"element": "H" 
			},
			{
				"x": -1.4703124403,
				"y": -1.3781602704,
				"z": -3.8139856686,
				"element": "H" 
			},
			{
				"x": -1.4409109044,
				"y": -1.4475011284,
				"z": -2.0574365374,
				"element": "H" 
			}
		],
		 "valence_orbital": [ 
			{
				"type": "occ",
				"energy": -0.28847,
				"method": "rhf"
			},
			{
				"type": "occ",
				"energy": -0.28485,
				"method": "rhf"
			},
			{
				"type": "occ",
				"energy": -0.2698,
				"method": "rhf"
			},
			{
				"type": "occ",
				"energy": -0.26379,
				"method": "rhf"
			},
			{
				"type": "occ",
				"energy": -0.25977,
				"method": "rhf"
			},
			{
				"type": "unocc",
				"energy": 0.00429,
				"method": "rhf"
			},
			{
				"type": "unocc",
				"energy": 0.07644,
				"method": "rhf"
			},
			{
				"type": "unocc",
				"energy": 0.08633,
				"method": "rhf"
			},
			{
				"type": "unocc",
				"energy": 0.09163,
				"method": "rhf"
			},
			{
				"type": "unocc",
				"energy": 0.09819,
				"method": "rhf"
			}
		],
		"cosmo_sigma_profile": { 
			"-0.025": 0.0,
			"-0.024": 0.0,
			"-0.023": 0.0,
			"-0.022": 0.0,
			"-0.021": 0.0,
			"-0.02": 0.0,
			"-0.019": 0.0,
			"-0.018": 0.0,
			"-0.017": 0.0,
			"-0.016": 0.0,
			"-0.015": 0.0,
			"-0.014": 0.0,
			"-0.013": 0.0,
			"-0.012": 0.0,
			"-0.011": 0.0,
			"-0.01": 0.0,
			"-0.009": 0.0,
			"-0.008": 0.0,
			"-0.007": 0.0276061680661,
			"-0.006": 5.22095053488,
			"-0.005": 18.6898389982,
			"-0.004": 34.8988756473,
			"-0.003": 49.1374522937,
			"-0.002": 45.5082582016,
			"-0.001": 33.8978391954,
			"0.0": 23.7042053699,
			"0.001": 11.6812783694,
			"0.002": 8.17754131334,
			"0.003": 6.6247791749,
			"0.004": 8.10452240235,
			"0.005": 6.15578216869,
			"0.006": 4.57690311444,
			"0.007": 5.08450528737,
			"0.008": 4.23270969262,
			"0.009": 4.32908963999,
			"0.01": 4.82538307533,
			"0.011": 6.86643509455,
			"0.012": 9.99297962617,
			"0.013": 3.64993179634,
			"0.014": 0.284308519514,
			"0.015": 0.0,
			"0.016": 0.0,
			"0.017": 0.0,
			"0.018": 0.0,
			"0.019": 0.0,
			"0.02": 0.0,
			"0.021": 0.0,
			"0.022": 0.0,
			"0.023": 0.0,
			"0.024": 0.0,
			"0.025": 0.0
		}
	}
}
