{
	 "smiles": "COC1=CC=C(NC2=C(C=CC=C2)C(O)=O)C=C1", 
	 "Tm": 458.15, 
	 "num_atms": 31, 
	 "gaussian": { 
		 "optdone": 1, 
		 "sigma_profile": "yes", 
		 "theory": "DFT", 
		 "functional": "B3LYP", 
		 "basiset": "6-31G**", 
		 "properties": { 
			 "R2extent": 6027.6583, 
			 "electric_dipole_moment_norm": 6.441491436, 
			 "electric_quadrupole_moment_norm": 25.2182237445, 
			 "total_energy": -821.749561212, 
			 "HOMO_LUMO_gap": 0.16561, 
			 "cosmo_polarized_energy": -18.02, 
			 "cosmo_cavitation_energy": 35.22, 
			 "cosmo_dispersion_energy": -25.21, 
			 "cosmo_repulsion_energy": 1.93, 
			 "cosmo_total_nonelectrostatic_energy": 11.95, 
			 "SMD_solvation_energy": 8.17 
		},
		"coords": [
			{
				"x": -1.5655728971,
				"y": 4.2362159517,
				"z": 2.4066219207,
				"element": "C" 
			},
			{
				"x": -2.3786647457,
				"y": 3.1898897978,
				"z": 1.9004001861,
				"element": "O" 
			},
			{
				"x": -1.7641155906,
				"y": 2.1303961984,
				"z": 1.2969142041,
				"element": "C" 
			},
			{
				"x": -0.379092592,
				"y": 1.9859057156,
				"z": 1.1490530797,
				"element": "C" 
			},
			{
				"x": 0.1429282391,
				"y": 0.8610076839,
				"z": 0.5079864084,
				"element": "C" 
			},
			{
				"x": -0.7011823311,
				"y": -0.1409291917,
				"z": 0.0221912844,
				"element": "C" 
			},
			{
				"x": -0.1697660717,
				"y": -1.2609637454,
				"z": -0.6924068281,
				"element": "N" 
			},
			{
				"x": 0.9343614047,
				"y": -2.0091140716,
				"z": -0.1204318447,
				"element": "C" 
			},
			{
				"x": 1.9613787666,
				"y": -2.4825278141,
				"z": -0.961281016,
				"element": "C" 
			},
			{
				"x": 2.9918110612,
				"y": -3.2502178009,
				"z": -0.3977540593,
				"element": "C" 
			},
			{
				"x": 3.0219004084,
				"y": -3.5283201834,
				"z": 0.9640750383,
				"element": "C" 
			},
			{
				"x": 2.0077633658,
				"y": -3.040015217,
				"z": 1.7924627124,
				"element": "C" 
			},
			{
				"x": 0.9677741646,
				"y": -2.2888438657,
				"z": 1.2506029758,
				"element": "C" 
			},
			{
				"x": 2.0746366642,
				"y": -2.2081966729,
				"z": -2.4476176269,
				"element": "C" 
			},
			{
				"x": 1.2002095283,
				"y": -1.3425518964,
				"z": -2.9789768845,
				"element": "O" 
			},
			{
				"x": 2.9343069107,
				"y": -2.7332968566,
				"z": -3.1236015848,
				"element": "O" 
			},
			{
				"x": -2.0862038256,
				"y": 0.0064067216,
				"z": 0.1795782674,
				"element": "C" 
			},
			{
				"x": -2.613342846,
				"y": 1.131223961,
				"z": 0.8021252272,
				"element": "C" 
			},
			{
				"x": -0.884587972,
				"y": 3.8784769092,
				"z": 3.1900431853,
				"element": "H" 
			},
			{
				"x": -0.9776384416,
				"y": 4.7138210693,
				"z": 1.6120605409,
				"element": "H" 
			},
			{
				"x": -2.2500175077,
				"y": 4.9696442357,
				"z": 2.8354624109,
				"element": "H" 
			},
			{
				"x": 0.3033092569,
				"y": 2.742878314,
				"z": 1.5165376184,
				"element": "H" 
			},
			{
				"x": 1.2172207905,
				"y": 0.7661885351,
				"z": 0.3850624001,
				"element": "H" 
			},
			{
				"x": -0.9165486572,
				"y": -1.8907120262,
				"z": -0.976603003,
				"element": "H" 
			},
			{
				"x": 3.7660795813,
				"y": -3.6091262255,
				"z": -1.066783388,
				"element": "H" 
			},
			{
				"x": 3.8318899867,
				"y": -4.1192237393,
				"z": 1.3807125998,
				"element": "H" 
			},
			{
				"x": 2.0196633897,
				"y": -3.2519295143,
				"z": 2.8577362286,
				"element": "H" 
			},
			{
				"x": 0.1715705776,
				"y": -1.9123708559,
				"z": 1.8848877297,
				"element": "H" 
			},
			{
				"x": 0.5861275364,
				"y": -1.039956538,
				"z": -2.2615570117,
				"element": "H" 
			},
			{
				"x": -2.7586297191,
				"y": -0.7639735509,
				"z": -0.1912410402,
				"element": "H" 
			},
			{
				"x": -3.6845684351,
				"y": 1.2520146723,
				"z": 0.923840269,
				"element": "H" 
			}
		],
		 "valence_orbital": [ 
			{
				"type": "occ",
				"energy": -0.26671,
				"method": "rhf"
			},
			{
				"type": "occ",
				"energy": -0.26441,
				"method": "rhf"
			},
			{
				"type": "occ",
				"energy": -0.2624,
				"method": "rhf"
			},
			{
				"type": "occ",
				"energy": -0.25709,
				"method": "rhf"
			},
			{
				"type": "occ",
				"energy": -0.21099,
				"method": "rhf"
			},
			{
				"type": "unocc",
				"energy": -0.04538,
				"method": "rhf"
			},
			{
				"type": "unocc",
				"energy": -0.02181,
				"method": "rhf"
			},
			{
				"type": "unocc",
				"energy": -0.01406,
				"method": "rhf"
			},
			{
				"type": "unocc",
				"energy": 0.00625,
				"method": "rhf"
			},
			{
				"type": "unocc",
				"energy": 0.06216,
				"method": "rhf"
			}
		],
		"cosmo_sigma_profile": { 
			"-0.025": 0.0,
			"-0.024": 0.0,
			"-0.023": 0.0,
			"-0.022": 0.0,
			"-0.021": 0.0,
			"-0.02": 0.0,
			"-0.019": 0.0,
			"-0.018": 0.0,
			"-0.017": 0.0,
			"-0.016": 0.0,
			"-0.015": 0.218114184706,
			"-0.014": 1.79898580008,
			"-0.013": 1.21914275835,
			"-0.012": 1.75788378523,
			"-0.011": 1.74903846094,
			"-0.01": 1.57389591406,
			"-0.009": 1.65627673859,
			"-0.008": 1.71606758905,
			"-0.007": 5.22161883716,
			"-0.006": 18.5293581285,
			"-0.005": 26.5214940604,
			"-0.004": 25.9955625145,
			"-0.003": 24.0716457306,
			"-0.002": 15.8226292658,
			"-0.001": 13.7504772661,
			"0.0": 15.7424200309,
			"0.001": 15.7829495728,
			"0.002": 18.2231844133,
			"0.003": 20.218770537,
			"0.004": 18.5217782623,
			"0.005": 12.8127415937,
			"0.006": 5.58422320002,
			"0.007": 3.59869339312,
			"0.008": 3.5561473155,
			"0.009": 4.13310685511,
			"0.01": 4.77829483149,
			"0.011": 5.47473793576,
			"0.012": 6.76593384304,
			"0.013": 3.47081839234,
			"0.014": 1.26210793262,
			"0.015": 0.0203600970032,
			"0.016": 0.0,
			"0.017": 0.0,
			"0.018": 0.0,
			"0.019": 0.0,
			"0.02": 0.0,
			"0.021": 0.0,
			"0.022": 0.0,
			"0.023": 0.0,
			"0.024": 0.0,
			"0.025": 0.0
		}
	}
}
