{
	 "smiles": "OCC1=NN=C(CC2=C(Br)C=CC=C2)N1", 
	 "Tm": 373.15, 
	 "num_atms": 25, 
	 "gaussian": { 
		 "optdone": 1, 
		 "sigma_profile": "yes", 
		 "theory": "DFT", 
		 "functional": "B3LYP", 
		 "basiset": "6-31G**", 
		 "properties": { 
			 "R2extent": 5376.4754, 
			 "electric_dipole_moment_norm": 4.01486515589, 
			 "electric_quadrupole_moment_norm": 11.7798482537, 
			 "total_energy": -3197.95160473, 
			 "HOMO_LUMO_gap": 0.21875, 
			 "cosmo_polarized_energy": -19.03, 
			 "cosmo_cavitation_energy": 31.65, 
			 "cosmo_dispersion_energy": -22.78, 
			 "cosmo_repulsion_energy": 1.8, 
			 "cosmo_total_nonelectrostatic_energy": 10.67, 
			 "SMD_solvation_energy": 1.91 
		},
		"coords": [
			{
				"x": -3.9117017738,
				"y": 0.4570384239,
				"z": -1.9978170412,
				"element": "O" 
			},
			{
				"x": -4.3970222968,
				"y": 0.4998101086,
				"z": -0.6593400524,
				"element": "C" 
			},
			{
				"x": -3.3335917936,
				"y": 0.1504002161,
				"z": 0.3355055947,
				"element": "C" 
			},
			{
				"x": -3.1296235025,
				"y": 0.7107030494,
				"z": 1.5052972423,
				"element": "N" 
			},
			{
				"x": -2.0616973906,
				"y": 0.0589955315,
				"z": 2.0966250313,
				"element": "N" 
			},
			{
				"x": -1.6502115483,
				"y": -0.8693491043,
				"z": 1.261118784,
				"element": "C" 
			},
			{
				"x": -0.4877675226,
				"y": -1.7888365954,
				"z": 1.4933101429,
				"element": "C" 
			},
			{
				"x": 0.7172044439,
				"y": -1.4757372279,
				"z": 0.6213068842,
				"element": "C" 
			},
			{
				"x": 0.9285890062,
				"y": -2.0348183793,
				"z": -0.6451903901,
				"element": "C" 
			},
			{
				"x": -0.3414065967,
				"y": -3.2767353623,
				"z": -1.3952302742,
				"element": "Br" 
			},
			{
				"x": 2.0450561307,
				"y": -1.7251720927,
				"z": -1.4211819114,
				"element": "C" 
			},
			{
				"x": 2.9873380348,
				"y": -0.8220157894,
				"z": -0.9319442006,
				"element": "C" 
			},
			{
				"x": 2.8024318671,
				"y": -0.2381524403,
				"z": 0.321975772,
				"element": "C" 
			},
			{
				"x": 1.6814286128,
				"y": -0.5654832493,
				"z": 1.0810956142,
				"element": "C" 
			},
			{
				"x": -2.4262222468,
				"y": -0.8551696352,
				"z": 0.132285851,
				"element": "N" 
			},
			{
				"x": -3.2670179334,
				"y": 1.1702659877,
				"z": -2.0985504319,
				"element": "H" 
			},
			{
				"x": -4.8177695921,
				"y": 1.4742301854,
				"z": -0.3815094807,
				"element": "H" 
			},
			{
				"x": -5.2111067265,
				"y": -0.2330087667,
				"z": -0.6238122957,
				"element": "H" 
			},
			{
				"x": -0.2128432489,
				"y": -1.6691154671,
				"z": 2.5437104146,
				"element": "H" 
			},
			{
				"x": -0.7958626399,
				"y": -2.8289929535,
				"z": 1.3473850729,
				"element": "H" 
			},
			{
				"x": 2.1705367797,
				"y": -2.1859885942,
				"z": -2.3942355142,
				"element": "H" 
			},
			{
				"x": 3.8588916492,
				"y": -0.5789846358,
				"z": -1.5320297562,
				"element": "H" 
			},
			{
				"x": 3.5296211867,
				"y": 0.4686430958,
				"z": 0.7095400223,
				"element": "H" 
			},
			{
				"x": 1.5333482885,
				"y": -0.1079071492,
				"z": 2.0553109458,
				"element": "H" 
			},
			{
				"x": -2.3181011871,
				"y": -1.4223191558,
				"z": -0.6983260235,
				"element": "H" 
			}
		],
		 "valence_orbital": [ 
			{
				"type": "occ",
				"energy": -0.28776,
				"method": "rhf"
			},
			{
				"type": "occ",
				"energy": -0.26855,
				"method": "rhf"
			},
			{
				"type": "occ",
				"energy": -0.25728,
				"method": "rhf"
			},
			{
				"type": "occ",
				"energy": -0.24833,
				"method": "rhf"
			},
			{
				"type": "occ",
				"energy": -0.24546,
				"method": "rhf"
			},
			{
				"type": "unocc",
				"energy": -0.02671,
				"method": "rhf"
			},
			{
				"type": "unocc",
				"energy": -0.02463,
				"method": "rhf"
			},
			{
				"type": "unocc",
				"energy": -0.01123,
				"method": "rhf"
			},
			{
				"type": "unocc",
				"energy": 0.01574,
				"method": "rhf"
			},
			{
				"type": "unocc",
				"energy": 0.04697,
				"method": "rhf"
			}
		],
		"cosmo_sigma_profile": { 
			"-0.025": 0.0,
			"-0.024": 0.0,
			"-0.023": 0.0,
			"-0.022": 0.0,
			"-0.021": 0.0,
			"-0.02": 0.0,
			"-0.019": 0.0,
			"-0.018": 0.0,
			"-0.017": 0.264537092095,
			"-0.016": 1.07141795648,
			"-0.015": 0.740012521331,
			"-0.014": 1.28603091167,
			"-0.013": 0.86539351997,
			"-0.012": 1.21939964313,
			"-0.011": 1.25041892108,
			"-0.01": 1.1366187634,
			"-0.009": 2.05474428875,
			"-0.008": 2.81858390145,
			"-0.007": 10.5365189866,
			"-0.006": 19.5127532833,
			"-0.005": 21.0862463699,
			"-0.004": 19.4251818188,
			"-0.003": 17.6671847131,
			"-0.002": 16.3328154345,
			"-0.001": 14.706850148,
			"0.0": 14.4550757733,
			"0.001": 17.6154796317,
			"0.002": 16.7417287749,
			"0.003": 18.1864088573,
			"0.004": 16.0287495502,
			"0.005": 4.0243677816,
			"0.006": 2.98846999091,
			"0.007": 1.99755110793,
			"0.008": 2.72694208235,
			"0.009": 2.90635333359,
			"0.01": 2.53462727444,
			"0.011": 3.79171129133,
			"0.012": 3.44602385919,
			"0.013": 4.45510210192,
			"0.014": 3.88946409917,
			"0.015": 2.94677987945,
			"0.016": 2.54086420001,
			"0.017": 1.96556055286,
			"0.018": 0.227319450387,
			"0.019": 0.0,
			"0.02": 0.0,
			"0.021": 0.0,
			"0.022": 0.0,
			"0.023": 0.0,
			"0.024": 0.0,
			"0.025": 0.0
		}
	}
}
