{
	 "smiles": "CC(=NNC(N)=S)C(=O)NC1=CC=C(Br)C=C1", 
	 "Tm": 502.15, 
	 "num_atms": 28, 
	 "gaussian": { 
		 "optdone": 1, 
		 "sigma_profile": "yes", 
		 "theory": "DFT", 
		 "functional": "B3LYP", 
		 "basiset": "6-31G**", 
		 "properties": { 
			 "R2extent": 10952.7315, 
			 "electric_dipole_moment_norm": 4.12556762761, 
			 "electric_quadrupole_moment_norm": 28.0138416525, 
			 "total_energy": -3651.4989755, 
			 "HOMO_LUMO_gap": 0.1429, 
			 "cosmo_polarized_energy": -31.97, 
			 "cosmo_cavitation_energy": 37.81, 
			 "cosmo_dispersion_energy": -27.41, 
			 "cosmo_repulsion_energy": 2.14, 
			 "cosmo_total_nonelectrostatic_energy": 12.54, 
			 "SMD_solvation_energy": 4.89 
		},
		"coords": [
			{
				"x": 0.4238478192,
				"y": -0.6930093066,
				"z": 3.2815845547,
				"element": "C" 
			},
			{
				"x": -0.1633444213,
				"y": -0.782538195,
				"z": 1.900633681,
				"element": "C" 
			},
			{
				"x": -1.2195245003,
				"y": -1.498717377,
				"z": 1.7370508581,
				"element": "N" 
			},
			{
				"x": -1.7433803881,
				"y": -1.6795338879,
				"z": 0.492694479,
				"element": "N" 
			},
			{
				"x": -2.8331119009,
				"y": -2.5183616944,
				"z": 0.3047291783,
				"element": "C" 
			},
			{
				"x": -3.0970535379,
				"y": -2.7131999988,
				"z": -1.0234358087,
				"element": "N" 
			},
			{
				"x": -3.7293306524,
				"y": -3.2244419037,
				"z": 1.5106888781,
				"element": "S" 
			},
			{
				"x": 0.6233086031,
				"y": -0.0622288548,
				"z": 0.8166622049,
				"element": "C" 
			},
			{
				"x": 1.8395980989,
				"y": -0.1654566395,
				"z": 0.7456301364,
				"element": "O" 
			},
			{
				"x": -0.1490180336,
				"y": 0.7129306538,
				"z": -0.025982115,
				"element": "N" 
			},
			{
				"x": 0.2713246852,
				"y": 1.5701907574,
				"z": -1.0686878247,
				"element": "C" 
			},
			{
				"x": 1.5964263032,
				"y": 1.6306463877,
				"z": -1.5263362082,
				"element": "C" 
			},
			{
				"x": 1.9256925967,
				"y": 2.4921267342,
				"z": -2.5722290041,
				"element": "C" 
			},
			{
				"x": 0.9462283387,
				"y": 3.2882930105,
				"z": -3.1618231499,
				"element": "C" 
			},
			{
				"x": 1.4111061589,
				"y": 4.4614146573,
				"z": -4.5944007622,
				"element": "Br" 
			},
			{
				"x": -0.3730933952,
				"y": 3.2371366215,
				"z": -2.7143178994,
				"element": "C" 
			},
			{
				"x": -0.7049989308,
				"y": 2.3790582933,
				"z": -1.6706394956,
				"element": "C" 
			},
			{
				"x": 1.4507150374,
				"y": -1.0717095623,
				"z": 3.2714999768,
				"element": "H" 
			},
			{
				"x": -0.1809449899,
				"y": -1.278404885,
				"z": 3.9748840074,
				"element": "H" 
			},
			{
				"x": 0.4686122487,
				"y": 0.3474317449,
				"z": 3.6248768613,
				"element": "H" 
			},
			{
				"x": -1.1623868896,
				"y": -1.4769063987,
				"z": -0.3184185206,
				"element": "H" 
			},
			{
				"x": -3.9571943149,
				"y": -3.1986989528,
				"z": -1.2264585661,
				"element": "H" 
			},
			{
				"x": -2.7596333348,
				"y": -2.0695194815,
				"z": -1.7268213995,
				"element": "H" 
			},
			{
				"x": -1.126303499,
				"y": 0.7895918889,
				"z": 0.2271725204,
				"element": "H" 
			},
			{
				"x": 2.352846525,
				"y": 1.015132295,
				"z": -1.0607948325,
				"element": "H" 
			},
			{
				"x": 2.9495296927,
				"y": 2.5402115667,
				"z": -2.9252299857,
				"element": "H" 
			},
			{
				"x": -1.1325113438,
				"y": 3.8601416495,
				"z": -3.1724167475,
				"element": "H" 
			},
			{
				"x": -1.7335059754,
				"y": 2.3430208774,
				"z": -1.3186150164,
				"element": "H" 
			}
		],
		 "valence_orbital": [ 
			{
				"type": "occ",
				"energy": -0.27697,
				"method": "rhf"
			},
			{
				"type": "occ",
				"energy": -0.26208,
				"method": "rhf"
			},
			{
				"type": "occ",
				"energy": -0.23911,
				"method": "rhf"
			},
			{
				"type": "occ",
				"energy": -0.22521,
				"method": "rhf"
			},
			{
				"type": "occ",
				"energy": -0.20833,
				"method": "rhf"
			},
			{
				"type": "unocc",
				"energy": -0.06543,
				"method": "rhf"
			},
			{
				"type": "unocc",
				"energy": -0.03016,
				"method": "rhf"
			},
			{
				"type": "unocc",
				"energy": -0.02613,
				"method": "rhf"
			},
			{
				"type": "unocc",
				"energy": -0.00318,
				"method": "rhf"
			},
			{
				"type": "unocc",
				"energy": -0.00229,
				"method": "rhf"
			}
		],
		"cosmo_sigma_profile": { 
			"-0.025": 0.0,
			"-0.024": 0.0,
			"-0.023": 0.0,
			"-0.022": 0.0,
			"-0.021": 0.0,
			"-0.02": 0.0,
			"-0.019": 0.380459491292,
			"-0.018": 0.877064577071,
			"-0.017": 1.28779753502,
			"-0.016": 2.42543180475,
			"-0.015": 3.65507802984,
			"-0.014": 4.93192844229,
			"-0.013": 3.95057592612,
			"-0.012": 5.15019127905,
			"-0.011": 5.13916328894,
			"-0.01": 3.57138556737,
			"-0.009": 2.8171514159,
			"-0.008": 4.53215827458,
			"-0.007": 8.60751057662,
			"-0.006": 11.3365600879,
			"-0.005": 12.5886783285,
			"-0.004": 15.0323664058,
			"-0.003": 13.8576715028,
			"-0.002": 17.3323188771,
			"-0.001": 18.883770254,
			"0.0": 17.4615658971,
			"0.001": 17.428166509,
			"0.002": 22.0431571462,
			"0.003": 26.4927677444,
			"0.004": 20.068824541,
			"0.005": 14.5125647551,
			"0.006": 6.34641932613,
			"0.007": 4.92723601417,
			"0.008": 6.74267942616,
			"0.009": 7.4188393979,
			"0.01": 9.60080622367,
			"0.011": 7.59567608995,
			"0.012": 5.1582046133,
			"0.013": 1.47280758706,
			"0.014": 1.42900275945,
			"0.015": 0.873312803327,
			"0.016": 1.27059373953,
			"0.017": 0.71736868108,
			"0.018": 0.154338825568,
			"0.019": 0.0,
			"0.02": 0.0,
			"0.021": 0.0,
			"0.022": 0.0,
			"0.023": 0.0,
			"0.024": 0.0,
			"0.025": 0.0
		}
	}
}
