{
	 "smiles": "FC(F)(F)C1=CN(CCC#N)C(=O)C=C1", 
	 "Tm": 362.65, 
	 "num_atms": 22, 
	 "gaussian": { 
		 "optdone": 1, 
		 "sigma_profile": "yes", 
		 "theory": "DFT", 
		 "functional": "B3LYP", 
		 "basiset": "6-31G**", 
		 "properties": { 
			 "R2extent": 3575.0374, 
			 "electric_dipole_moment_norm": 4.58587215805, 
			 "electric_quadrupole_moment_norm": 28.2742010814, 
			 "total_energy": -831.412161536, 
			 "HOMO_LUMO_gap": 0.17726, 
			 "cosmo_polarized_energy": -20.46, 
			 "cosmo_cavitation_energy": 29.17, 
			 "cosmo_dispersion_energy": -19.42, 
			 "cosmo_repulsion_energy": 1.47, 
			 "cosmo_total_nonelectrostatic_energy": 11.22, 
			 "SMD_solvation_energy": 8.29 
		},
		"coords": [
			{
				"x": 3.2506976435,
				"y": 0.4732610334,
				"z": -1.3607767838,
				"element": "F" 
			},
			{
				"x": 2.0280653975,
				"y": 0.3188185527,
				"z": -1.9172267583,
				"element": "C" 
			},
			{
				"x": 1.8416320015,
				"y": 1.3834029423,
				"z": -2.7313374158,
				"element": "F" 
			},
			{
				"x": 2.0723495056,
				"y": -0.7850001066,
				"z": -2.6979305945,
				"element": "F" 
			},
			{
				"x": 0.9580516037,
				"y": 0.2272217839,
				"z": -0.8770196259,
				"element": "C" 
			},
			{
				"x": 0.1376167228,
				"y": -0.8598542183,
				"z": -0.8040941557,
				"element": "C" 
			},
			{
				"x": -0.8488405972,
				"y": -0.954008186,
				"z": 0.13146148,
				"element": "N" 
			},
			{
				"x": -1.6959602516,
				"y": -2.1492143365,
				"z": 0.1837541976,
				"element": "C" 
			},
			{
				"x": -0.966656802,
				"y": -3.3902473537,
				"z": 0.7388857077,
				"element": "C" 
			},
			{
				"x": -0.4516042919,
				"y": -3.2198313217,
				"z": 2.1000221951,
				"element": "C" 
			},
			{
				"x": -0.0246799032,
				"y": -3.0974558698,
				"z": 3.1716593011,
				"element": "N" 
			},
			{
				"x": -1.1156095492,
				"y": 0.0802479725,
				"z": 1.0880438301,
				"element": "C" 
			},
			{
				"x": -2.0367845998,
				"y": -0.0396207973,
				"z": 1.8860176684,
				"element": "O" 
			},
			{
				"x": -0.2183684944,
				"y": 1.2185217279,
				"z": 0.9918750479,
				"element": "C" 
			},
			{
				"x": 0.7690970759,
				"y": 1.2904964439,
				"z": 0.0597165483,
				"element": "C" 
			},
			{
				"x": 0.233954364,
				"y": -1.6923147318,
				"z": -1.4916302811,
				"element": "H" 
			},
			{
				"x": -2.0560442621,
				"y": -2.3771529833,
				"z": -0.8238799371,
				"element": "H" 
			},
			{
				"x": -2.5436335588,
				"y": -1.8895136385,
				"z": 0.8177552837,
				"element": "H" 
			},
			{
				"x": -0.127879717,
				"y": -3.6669644129,
				"z": 0.0888853129,
				"element": "H" 
			},
			{
				"x": -1.6643872804,
				"y": -4.235729088,
				"z": 0.7301237974,
				"element": "H" 
			},
			{
				"x": -0.3887941067,
				"y": 2.0091762033,
				"z": 1.7126666706,
				"element": "H" 
			},
			{
				"x": 1.4216790997,
				"y": 2.1574603845,
				"z": 0.0157285116,
				"element": "H" 
			}
		],
		 "valence_orbital": [ 
			{
				"type": "occ",
				"energy": -0.3367,
				"method": "rhf"
			},
			{
				"type": "occ",
				"energy": -0.33316,
				"method": "rhf"
			},
			{
				"type": "occ",
				"energy": -0.31751,
				"method": "rhf"
			},
			{
				"type": "occ",
				"energy": -0.27121,
				"method": "rhf"
			},
			{
				"type": "occ",
				"energy": -0.24084,
				"method": "rhf"
			},
			{
				"type": "unocc",
				"energy": -0.06358,
				"method": "rhf"
			},
			{
				"type": "unocc",
				"energy": -0.01801,
				"method": "rhf"
			},
			{
				"type": "unocc",
				"energy": 0.01773,
				"method": "rhf"
			},
			{
				"type": "unocc",
				"energy": 0.02612,
				"method": "rhf"
			},
			{
				"type": "unocc",
				"energy": 0.06894,
				"method": "rhf"
			}
		],
		"cosmo_sigma_profile": { 
			"-0.025": 0.0,
			"-0.024": 0.0,
			"-0.023": 0.0,
			"-0.022": 0.0,
			"-0.021": 0.0,
			"-0.02": 0.0,
			"-0.019": 0.0,
			"-0.018": 0.0,
			"-0.017": 0.0,
			"-0.016": 0.0,
			"-0.015": 0.0,
			"-0.014": 0.0,
			"-0.013": 0.219581463531,
			"-0.012": 1.52653052272,
			"-0.011": 2.10954053614,
			"-0.01": 3.71982383875,
			"-0.009": 9.67896136932,
			"-0.008": 12.693477343,
			"-0.007": 12.0893084423,
			"-0.006": 12.4272725755,
			"-0.005": 9.27163580446,
			"-0.004": 9.98169847046,
			"-0.003": 10.5497081208,
			"-0.002": 9.99595340442,
			"-0.001": 12.6329986724,
			"0.0": 13.0759536096,
			"0.001": 15.7848396605,
			"0.002": 22.7149841254,
			"0.003": 27.3044318757,
			"0.004": 4.59324244612,
			"0.005": 3.76569982395,
			"0.006": 4.41795461102,
			"0.007": 4.90886249131,
			"0.008": 4.69027559227,
			"0.009": 4.29431557197,
			"0.01": 4.6796294787,
			"0.011": 4.75586871143,
			"0.012": 4.49775725099,
			"0.013": 5.96979753655,
			"0.014": 1.93014365581,
			"0.015": 0.164668492919,
			"0.016": 0.0,
			"0.017": 0.0,
			"0.018": 0.0,
			"0.019": 0.0,
			"0.02": 0.0,
			"0.021": 0.0,
			"0.022": 0.0,
			"0.023": 0.0,
			"0.024": 0.0,
			"0.025": 0.0
		}
	}
}
