{
	 "smiles": "CC(C)CC(NC(=O)C(O)C(N)CC1=CC=CC=C1)C(O)=O", 
	 "Tm": 506.15, 
	 "num_atms": 46, 
	 "gaussian": { 
		 "optdone": 1, 
		 "sigma_profile": "yes", 
		 "theory": "DFT", 
		 "functional": "B3LYP", 
		 "basiset": "6-31G**", 
		 "properties": { 
			 "R2extent": 8894.4414, 
			 "electric_dipole_moment_norm": 2.04704456229, 
			 "electric_quadrupole_moment_norm": 25.78514731, 
			 "total_energy": -1034.59914996, 
			 "HOMO_LUMO_gap": 0.23373, 
			 "cosmo_polarized_energy": -20.42, 
			 "cosmo_cavitation_energy": 45.54, 
			 "cosmo_dispersion_energy": -30.92, 
			 "cosmo_repulsion_energy": 2.37, 
			 "cosmo_total_nonelectrostatic_energy": 17.0, 
			 "SMD_solvation_energy": 8.36 
		},
		"coords": [
			{
				"x": 1.0970447771,
				"y": -3.8849714194,
				"z": -1.6941307894,
				"element": "C" 
			},
			{
				"x": 2.3021490983,
				"y": -3.4742708297,
				"z": -2.55700069,
				"element": "C" 
			},
			{
				"x": 3.564322463,
				"y": -4.2538938984,
				"z": -2.1547222071,
				"element": "C" 
			},
			{
				"x": 2.5331023964,
				"y": -1.9473045917,
				"z": -2.6434441393,
				"element": "C" 
			},
			{
				"x": 3.1264635084,
				"y": -1.2517181685,
				"z": -1.402027283,
				"element": "C" 
			},
			{
				"x": 2.2913209581,
				"y": -1.2506099594,
				"z": -0.1986504604,
				"element": "N" 
			},
			{
				"x": 1.1432081757,
				"y": -0.6117042461,
				"z": 0.184479509,
				"element": "C" 
			},
			{
				"x": 0.601596183,
				"y": -0.9392800755,
				"z": 1.2433738654,
				"element": "O" 
			},
			{
				"x": 0.5273674632,
				"y": 0.515826872,
				"z": -0.6396400113,
				"element": "C" 
			},
			{
				"x": 1.088837206,
				"y": 0.6079803916,
				"z": -1.9308333832,
				"element": "O" 
			},
			{
				"x": 0.6797418933,
				"y": 1.8987252986,
				"z": 0.0769250281,
				"element": "C" 
			},
			{
				"x": 0.348533368,
				"y": 2.9089723485,
				"z": -0.9443910331,
				"element": "N" 
			},
			{
				"x": -0.0987976106,
				"y": 2.0438381464,
				"z": 1.4093295499,
				"element": "C" 
			},
			{
				"x": -1.6078845766,
				"y": 2.0122391335,
				"z": 1.2780690559,
				"element": "C" 
			},
			{
				"x": -2.3089490873,
				"y": 0.7967098098,
				"z": 1.3444492881,
				"element": "C" 
			},
			{
				"x": -3.6970138353,
				"y": 0.7675014072,
				"z": 1.2061496324,
				"element": "C" 
			},
			{
				"x": -4.412129233,
				"y": 1.9496347717,
				"z": 0.9980942839,
				"element": "C" 
			},
			{
				"x": -3.7293081729,
				"y": 3.1645788367,
				"z": 0.936246241,
				"element": "C" 
			},
			{
				"x": -2.3395313503,
				"y": 3.1929640764,
				"z": 1.0778092576,
				"element": "C" 
			},
			{
				"x": 3.7099837861,
				"y": 0.1176081494,
				"z": -1.7571318951,
				"element": "C" 
			},
			{
				"x": 3.8721619441,
				"y": 0.9194418968,
				"z": -0.6740327866,
				"element": "O" 
			},
			{
				"x": 4.1167676565,
				"y": 0.4293134178,
				"z": -2.8531304949,
				"element": "O" 
			},
			{
				"x": 0.887883354,
				"y": -4.9541530553,
				"z": -1.8123665082,
				"element": "H" 
			},
			{
				"x": 0.1956483256,
				"y": -3.3348847021,
				"z": -1.9845474127,
				"element": "H" 
			},
			{
				"x": 1.2641087216,
				"y": -3.7000314776,
				"z": -0.6287019015,
				"element": "H" 
			},
			{
				"x": 2.0616962235,
				"y": -3.7726480802,
				"z": -3.5875760077,
				"element": "H" 
			},
			{
				"x": 3.4088526142,
				"y": -5.3316203724,
				"z": -2.2713696582,
				"element": "H" 
			},
			{
				"x": 4.426326745,
				"y": -3.9726761179,
				"z": -2.7703250883,
				"element": "H" 
			},
			{
				"x": 3.8336743378,
				"y": -4.0855538792,
				"z": -1.1043564373,
				"element": "H" 
			},
			{
				"x": 1.6018833248,
				"y": -1.4395090577,
				"z": -2.9045863401,
				"element": "H" 
			},
			{
				"x": 3.2351431947,
				"y": -1.7477831888,
				"z": -3.4594150747,
				"element": "H" 
			},
			{
				"x": 4.0185926845,
				"y": -1.8185086952,
				"z": -1.1004747014,
				"element": "H" 
			},
			{
				"x": 2.5374393838,
				"y": -1.9396768441,
				"z": 0.5002292104,
				"element": "H" 
			},
			{
				"x": -0.5449013834,
				"y": 0.2752266339,
				"z": -0.7025776543,
				"element": "H" 
			},
			{
				"x": 0.9752517848,
				"y": 1.5560462748,
				"z": -2.1589658661,
				"element": "H" 
			},
			{
				"x": 1.7462597115,
				"y": 2.0164162325,
				"z": 0.2958923316,
				"element": "H" 
			},
			{
				"x": -0.6602346514,
				"y": 3.0462034491,
				"z": -0.9880520918,
				"element": "H" 
			},
			{
				"x": 0.7644700306,
				"y": 3.8063293998,
				"z": -0.7143079561,
				"element": "H" 
			},
			{
				"x": 0.2055741298,
				"y": 2.9995517075,
				"z": 1.8548435688,
				"element": "H" 
			},
			{
				"x": 0.2304154399,
				"y": 1.2491189487,
				"z": 2.08244705,
				"element": "H" 
			},
			{
				"x": -1.7492249365,
				"y": -0.120023242,
				"z": 1.5077521482,
				"element": "H" 
			},
			{
				"x": -4.2227583007,
				"y": -0.1816109897,
				"z": 1.2654291536,
				"element": "H" 
			},
			{
				"x": -5.4930417088,
				"y": 1.9242916618,
				"z": 0.893031335,
				"element": "H" 
			},
			{
				"x": -4.2764595965,
				"y": 4.0915005519,
				"z": 0.7873688427,
				"element": "H" 
			},
			{
				"x": -1.8182906314,
				"y": 4.1478577666,
				"z": 1.0556236111,
				"element": "H" 
			},
			{
				"x": 4.3168041914,
				"y": 1.7135557079,
				"z": -1.0149850911,
				"element": "H" 
			}
		],
		 "valence_orbital": [ 
			{
				"type": "occ",
				"energy": -0.26724,
				"method": "rhf"
			},
			{
				"type": "occ",
				"energy": -0.25062,
				"method": "rhf"
			},
			{
				"type": "occ",
				"energy": -0.24709,
				"method": "rhf"
			},
			{
				"type": "occ",
				"energy": -0.24417,
				"method": "rhf"
			},
			{
				"type": "occ",
				"energy": -0.23638,
				"method": "rhf"
			},
			{
				"type": "unocc",
				"energy": -0.00265,
				"method": "rhf"
			},
			{
				"type": "unocc",
				"energy": -0.00105,
				"method": "rhf"
			},
			{
				"type": "unocc",
				"energy": 0.01238,
				"method": "rhf"
			},
			{
				"type": "unocc",
				"energy": 0.01923,
				"method": "rhf"
			},
			{
				"type": "unocc",
				"energy": 0.05854,
				"method": "rhf"
			}
		],
		"cosmo_sigma_profile": { 
			"-0.025": 0.0,
			"-0.024": 0.0,
			"-0.023": 0.0,
			"-0.022": 0.0,
			"-0.021": 0.0,
			"-0.02": 0.0,
			"-0.019": 0.0,
			"-0.018": 0.343323099872,
			"-0.017": 1.04918063193,
			"-0.016": 0.922431782149,
			"-0.015": 0.355380378153,
			"-0.014": 0.939619774726,
			"-0.013": 1.65893450466,
			"-0.012": 1.64968747504,
			"-0.011": 2.79870022783,
			"-0.01": 3.64195448731,
			"-0.009": 4.07031446051,
			"-0.008": 5.83994511061,
			"-0.007": 7.88175326721,
			"-0.006": 8.89412665716,
			"-0.005": 17.9407498553,
			"-0.004": 20.224005575,
			"-0.003": 25.910135063,
			"-0.002": 32.3291396574,
			"-0.001": 37.9584379741,
			"0.0": 33.5730472937,
			"0.001": 32.0799470998,
			"0.002": 23.3948066473,
			"0.003": 13.3431152041,
			"0.004": 12.565293773,
			"0.005": 12.5978566543,
			"0.006": 13.056443389,
			"0.007": 7.01737716471,
			"0.008": 5.42234652562,
			"0.009": 6.10087982387,
			"0.01": 4.89074887435,
			"0.011": 5.16289051791,
			"0.012": 6.6919951684,
			"0.013": 2.03765575383,
			"0.014": 2.29871495011,
			"0.015": 0.385050408086,
			"0.016": 0.0,
			"0.017": 0.0,
			"0.018": 0.0,
			"0.019": 0.0,
			"0.02": 0.0,
			"0.021": 0.0,
			"0.022": 0.0,
			"0.023": 0.0,
			"0.024": 0.0,
			"0.025": 0.0
		}
	}
}
