{
	 "smiles": "O=C(CC#N)N1CCCCC1", 
	 "Tm": 361.15, 
	 "num_atms": 23, 
	 "gaussian": { 
		 "optdone": 1, 
		 "sigma_profile": "yes", 
		 "theory": "DFT", 
		 "functional": "B3LYP", 
		 "basiset": "6-31G**", 
		 "properties": { 
			 "R2extent": 2029.7571, 
			 "electric_dipole_moment_norm": 4.15373840534, 
			 "electric_quadrupole_moment_norm": 14.156127593, 
			 "total_energy": -496.804844075, 
			 "HOMO_LUMO_gap": 0.25276, 
			 "cosmo_polarized_energy": -13.7, 
			 "cosmo_cavitation_energy": 25.56, 
			 "cosmo_dispersion_energy": -18.22, 
			 "cosmo_repulsion_energy": 1.48, 
			 "cosmo_total_nonelectrostatic_energy": 8.82, 
			 "SMD_solvation_energy": 5.09 
		},
		"coords": [
			{
				"x": 2.3975252273,
				"y": 1.5455875131,
				"z": -0.1040833347,
				"element": "O" 
			},
			{
				"x": 1.2844538422,
				"y": 1.258415257,
				"z": -0.5280608864,
				"element": "C" 
			},
			{
				"x": 0.3329572592,
				"y": 2.403382303,
				"z": -0.9602706263,
				"element": "C" 
			},
			{
				"x": -0.9394289925,
				"y": 2.4378033321,
				"z": -0.2398357352,
				"element": "C" 
			},
			{
				"x": -1.9448187004,
				"y": 2.4453418095,
				"z": 0.3408375645,
				"element": "N" 
			},
			{
				"x": 0.8405970951,
				"y": -0.0236169513,
				"z": -0.6550522239,
				"element": "N" 
			},
			{
				"x": -0.4617939246,
				"y": -0.4209348331,
				"z": -1.2161548269,
				"element": "C" 
			},
			{
				"x": -0.3512902821,
				"y": -1.8035913472,
				"z": -1.867048855,
				"element": "C" 
			},
			{
				"x": 0.0507195617,
				"y": -2.8904130961,
				"z": -0.8448000769,
				"element": "C" 
			},
			{
				"x": 0.9115188869,
				"y": -2.2982700964,
				"z": 0.2942535554,
				"element": "C" 
			},
			{
				"x": 1.7326406841,
				"y": -1.0963261314,
				"z": -0.1738583472,
				"element": "C" 
			},
			{
				"x": 0.1315839387,
				"y": 2.3536325468,
				"z": -2.0371891771,
				"element": "H" 
			},
			{
				"x": 0.8853880682,
				"y": 3.3256605369,
				"z": -0.7679331899,
				"element": "H" 
			},
			{
				"x": -1.2343423882,
				"y": -0.4265232036,
				"z": -0.4356396221,
				"element": "H" 
			},
			{
				"x": -0.7734687371,
				"y": 0.3109911852,
				"z": -1.9650698432,
				"element": "H" 
			},
			{
				"x": 0.3925134713,
				"y": -1.7461670716,
				"z": -2.6704025597,
				"element": "H" 
			},
			{
				"x": -1.3064827969,
				"y": -2.0497468809,
				"z": -2.3420391898,
				"element": "H" 
			},
			{
				"x": -0.8434488401,
				"y": -3.3584150738,
				"z": -0.4189842921,
				"element": "H" 
			},
			{
				"x": 0.5992981026,
				"y": -3.6850884153,
				"z": -1.3621314726,
				"element": "H" 
			},
			{
				"x": 1.5881457942,
				"y": -3.0555983398,
				"z": 0.7031260103,
				"element": "H" 
			},
			{
				"x": 0.2698716782,
				"y": -1.9761031919,
				"z": 1.1227964292,
				"element": "H" 
			},
			{
				"x": 2.4288444595,
				"y": -1.3892900327,
				"z": -0.9725339619,
				"element": "H" 
			},
			{
				"x": 2.3368165924,
				"y": -0.6792298185,
				"z": 0.6332746615,
				"element": "H" 
			}
		],
		 "valence_orbital": [ 
			{
				"type": "occ",
				"energy": -0.33622,
				"method": "rhf"
			},
			{
				"type": "occ",
				"energy": -0.3331,
				"method": "rhf"
			},
			{
				"type": "occ",
				"energy": -0.32625,
				"method": "rhf"
			},
			{
				"type": "occ",
				"energy": -0.25925,
				"method": "rhf"
			},
			{
				"type": "occ",
				"energy": -0.24665,
				"method": "rhf"
			},
			{
				"type": "unocc",
				"energy": 0.00611,
				"method": "rhf"
			},
			{
				"type": "unocc",
				"energy": 0.02899,
				"method": "rhf"
			},
			{
				"type": "unocc",
				"energy": 0.04191,
				"method": "rhf"
			},
			{
				"type": "unocc",
				"energy": 0.06105,
				"method": "rhf"
			},
			{
				"type": "unocc",
				"energy": 0.09183,
				"method": "rhf"
			}
		],
		"cosmo_sigma_profile": { 
			"-0.025": 0.0,
			"-0.024": 0.0,
			"-0.023": 0.0,
			"-0.022": 0.0,
			"-0.021": 0.0,
			"-0.02": 0.0,
			"-0.019": 0.0,
			"-0.018": 0.0,
			"-0.017": 0.0,
			"-0.016": 0.0,
			"-0.015": 0.0,
			"-0.014": 0.0,
			"-0.013": 0.0,
			"-0.012": 0.0,
			"-0.011": 0.840140962239,
			"-0.01": 3.80109004487,
			"-0.009": 3.84929489769,
			"-0.008": 4.64908231846,
			"-0.007": 4.38542472197,
			"-0.006": 5.10597975432,
			"-0.005": 4.65011984203,
			"-0.004": 17.5060346,
			"-0.003": 31.0644291327,
			"-0.002": 30.4079197041,
			"-0.001": 19.2606621034,
			"0.0": 15.1897103807,
			"0.001": 7.22326953454,
			"0.002": 3.43876174834,
			"0.003": 3.48076623911,
			"0.004": 3.53600204687,
			"0.005": 3.60070485665,
			"0.006": 3.40488371882,
			"0.007": 4.29868050632,
			"0.008": 3.70247387326,
			"0.009": 4.84151157438,
			"0.01": 4.70557666433,
			"0.011": 3.87330067924,
			"0.012": 4.64462669172,
			"0.013": 6.68740692715,
			"0.014": 2.41663965779,
			"0.015": 0.0,
			"0.016": 0.0,
			"0.017": 0.0,
			"0.018": 0.0,
			"0.019": 0.0,
			"0.02": 0.0,
			"0.021": 0.0,
			"0.022": 0.0,
			"0.023": 0.0,
			"0.024": 0.0,
			"0.025": 0.0
		}
	}
}
