{
	 "smiles": "BrC1=CC(=CC=C1)C1=NN(C=C1C=O)C1=CC=CC=C1", 
	 "Tm": 365.15, 
	 "num_atms": 31, 
	 "gaussian": { 
		 "optdone": 1, 
		 "sigma_profile": "yes", 
		 "theory": "DFT", 
		 "functional": "B3LYP", 
		 "basiset": "6-31G**", 
		 "properties": { 
			 "R2extent": 12517.9333, 
			 "electric_dipole_moment_norm": 2.34374925707, 
			 "electric_quadrupole_moment_norm": 19.0565437042, 
			 "total_energy": -3372.441148, 
			 "HOMO_LUMO_gap": 0.17261, 
			 "cosmo_polarized_energy": -12.31, 
			 "cosmo_cavitation_energy": 38.87, 
			 "cosmo_dispersion_energy": -28.21, 
			 "cosmo_repulsion_energy": 2.14, 
			 "cosmo_total_nonelectrostatic_energy": 12.8, 
			 "SMD_solvation_energy": 5.84 
		},
		"coords": [
			{
				"x": -2.4480814302,
				"y": -5.1385421817,
				"z": -3.204763769,
				"element": "Br" 
			},
			{
				"x": -0.7022863815,
				"y": -4.3933617505,
				"z": -2.9714315448,
				"element": "C" 
			},
			{
				"x": -0.5269159568,
				"y": -3.3440375401,
				"z": -2.0767436379,
				"element": "C" 
			},
			{
				"x": 0.7510222062,
				"y": -2.7869655618,
				"z": -1.9026613517,
				"element": "C" 
			},
			{
				"x": 1.8307351814,
				"y": -3.3131183619,
				"z": -2.6289701783,
				"element": "C" 
			},
			{
				"x": 1.6322098499,
				"y": -4.3628715533,
				"z": -3.5250480172,
				"element": "C" 
			},
			{
				"x": 0.3630080967,
				"y": -4.9119933507,
				"z": -3.7076780877,
				"element": "C" 
			},
			{
				"x": 0.9301011915,
				"y": -1.6815700786,
				"z": -0.943341879,
				"element": "C" 
			},
			{
				"x": 0.1974111293,
				"y": -1.6485366947,
				"z": 0.1672500345,
				"element": "N" 
			},
			{
				"x": 0.5860206308,
				"y": -0.5253408838,
				"z": 0.8352870028,
				"element": "N" 
			},
			{
				"x": 1.5505827954,
				"y": 0.1486290533,
				"z": 0.1667172815,
				"element": "C" 
			},
			{
				"x": 1.812395643,
				"y": -0.5530511794,
				"z": -1.0009574715,
				"element": "C" 
			},
			{
				"x": 2.7263042577,
				"y": -0.0924512361,
				"z": -2.0464977297,
				"element": "C" 
			},
			{
				"x": 3.4409202633,
				"y": 0.8907585212,
				"z": -1.931078959,
				"element": "O" 
			},
			{
				"x": -0.0169487639,
				"y": -0.2068996188,
				"z": 2.0874248583,
				"element": "C" 
			},
			{
				"x": 0.3735973271,
				"y": 0.9364415957,
				"z": 2.7936761475,
				"element": "C" 
			},
			{
				"x": -0.2313957,
				"y": 1.2299346834,
				"z": 4.0146164021,
				"element": "C" 
			},
			{
				"x": -1.2197855633,
				"y": 0.3940503116,
				"z": 4.5362999295,
				"element": "C" 
			},
			{
				"x": -1.6009451278,
				"y": -0.7446165353,
				"z": 3.8243050078,
				"element": "C" 
			},
			{
				"x": -1.0060845396,
				"y": -1.0518561192,
				"z": 2.6023822568,
				"element": "C" 
			},
			{
				"x": -1.3643224369,
				"y": -2.9483950467,
				"z": -1.5155853574,
				"element": "H" 
			},
			{
				"x": 2.8307074913,
				"y": -2.9240005689,
				"z": -2.4705161022,
				"element": "H" 
			},
			{
				"x": 2.4739663144,
				"y": -4.7661096398,
				"z": -4.0798568062,
				"element": "H" 
			},
			{
				"x": 0.202523627,
				"y": -5.7280331406,
				"z": -4.4026699987,
				"element": "H" 
			},
			{
				"x": 1.9870896744,
				"y": 1.0712423835,
				"z": 0.5127456747,
				"element": "H" 
			},
			{
				"x": 2.7238244702,
				"y": -0.6848868773,
				"z": -2.9833017636,
				"element": "H" 
			},
			{
				"x": 1.1399887682,
				"y": 1.5984837703,
				"z": 2.4072280586,
				"element": "H" 
			},
			{
				"x": 0.0757873364,
				"y": 2.1185482353,
				"z": 4.5575767182,
				"element": "H" 
			},
			{
				"x": -1.6869300622,
				"y": 0.6278959894,
				"z": 5.4878499572,
				"element": "H" 
			},
			{
				"x": -2.3679989175,
				"y": -1.4035675846,
				"z": 4.2198520882,
				"element": "H" 
			},
			{
				"x": -1.2911013743,
				"y": -1.9322790401,
				"z": 2.0413912364,
				"element": "H" 
			}
		],
		 "valence_orbital": [ 
			{
				"type": "occ",
				"energy": -0.26935,
				"method": "rhf"
			},
			{
				"type": "occ",
				"energy": -0.26052,
				"method": "rhf"
			},
			{
				"type": "occ",
				"energy": -0.25536,
				"method": "rhf"
			},
			{
				"type": "occ",
				"energy": -0.24757,
				"method": "rhf"
			},
			{
				"type": "occ",
				"energy": -0.23295,
				"method": "rhf"
			},
			{
				"type": "unocc",
				"energy": -0.06034,
				"method": "rhf"
			},
			{
				"type": "unocc",
				"energy": -0.04839,
				"method": "rhf"
			},
			{
				"type": "unocc",
				"energy": -0.02035,
				"method": "rhf"
			},
			{
				"type": "unocc",
				"energy": -0.01774,
				"method": "rhf"
			},
			{
				"type": "unocc",
				"energy": -0.00429,
				"method": "rhf"
			}
		],
		"cosmo_sigma_profile": { 
			"-0.025": 0.0,
			"-0.024": 0.0,
			"-0.023": 0.0,
			"-0.022": 0.0,
			"-0.021": 0.0,
			"-0.02": 0.0,
			"-0.019": 0.0,
			"-0.018": 0.0,
			"-0.017": 0.0,
			"-0.016": 0.0,
			"-0.015": 0.0,
			"-0.014": 0.0,
			"-0.013": 0.0111138827472,
			"-0.012": 1.07871083544,
			"-0.011": 1.4250442135,
			"-0.01": 1.96377602899,
			"-0.009": 1.11139038731,
			"-0.008": 3.76850764172,
			"-0.007": 9.16080286408,
			"-0.006": 19.2543510882,
			"-0.005": 21.7520220226,
			"-0.004": 20.8069997022,
			"-0.003": 17.9424273253,
			"-0.002": 18.973115294,
			"-0.001": 21.495009021,
			"0.0": 25.4551494873,
			"0.001": 27.8107780043,
			"0.002": 31.2292068599,
			"0.003": 31.4028201877,
			"0.004": 27.5124924568,
			"0.005": 12.1732846837,
			"0.006": 3.6675148655,
			"0.007": 2.32847479086,
			"0.008": 2.35239577803,
			"0.009": 2.84064999968,
			"0.01": 2.72436558859,
			"0.011": 3.49760369668,
			"0.012": 4.1756184443,
			"0.013": 1.31629480049,
			"0.014": 0.125281656124,
			"0.015": 0.0,
			"0.016": 0.0,
			"0.017": 0.0,
			"0.018": 0.0,
			"0.019": 0.0,
			"0.02": 0.0,
			"0.021": 0.0,
			"0.022": 0.0,
			"0.023": 0.0,
			"0.024": 0.0,
			"0.0": 0.0
		}
	}
}
