{
	 "smiles": "CC(C)(C)C1=CC=C(C=C1)C1=NN=C(S)N1C1=CC=CC(=C1)C(F)(F)F", 
	 "Tm": 531.15, 
	 "num_atms": 44, 
	 "gaussian": { 
		 "optdone": 1, 
		 "sigma_profile": "yes", 
		 "theory": "DFT", 
		 "functional": "B3LYP", 
		 "basiset": "6-31G**", 
		 "properties": { 
			 "R2extent": 12133.967, 
			 "electric_dipole_moment_norm": 4.14610136031, 
			 "electric_quadrupole_moment_norm": 23.1623462229, 
			 "total_energy": -1596.83049251, 
			 "HOMO_LUMO_gap": 0.1665, 
			 "cosmo_polarized_energy": -16.16, 
			 "cosmo_cavitation_energy": 50.13, 
			 "cosmo_dispersion_energy": -33.15, 
			 "cosmo_repulsion_energy": 2.43, 
			 "cosmo_total_nonelectrostatic_energy": 19.41, 
			 "SMD_solvation_energy": 7.33 
		},
		"coords": [
			{
				"x": 0.7809909281,
				"y": -2.2664805859,
				"z": 4.4899656525,
				"element": "C" 
			},
			{
				"x": 0.9987800452,
				"y": -2.8829647358,
				"z": 3.0871697144,
				"element": "C" 
			},
			{
				"x": -0.1587431295,
				"y": -3.8597334613,
				"z": 2.8062366989,
				"element": "C" 
			},
			{
				"x": 2.3217051334,
				"y": -3.6860367074,
				"z": 3.079849525,
				"element": "C" 
			},
			{
				"x": 1.0797495929,
				"y": -1.7561012589,
				"z": 2.0428086863,
				"element": "C" 
			},
			{
				"x": 2.081927302,
				"y": -0.7731905252,
				"z": 2.1436738042,
				"element": "C" 
			},
			{
				"x": 2.1850423544,
				"y": 0.265731393,
				"z": 1.2284466192,
				"element": "C" 
			},
			{
				"x": 1.2803365797,
				"y": 0.3676952683,
				"z": 0.1568889599,
				"element": "C" 
			},
			{
				"x": 0.2866607719,
				"y": -0.6120599914,
				"z": 0.0353799044,
				"element": "C" 
			},
			{
				"x": 0.1911939984,
				"y": -1.6487213901,
				"z": 0.9651705566,
				"element": "C" 
			},
			{
				"x": 1.4616408446,
				"y": 1.4657538458,
				"z": -0.8007781645,
				"element": "C" 
			},
			{
				"x": 2.6213765723,
				"y": 2.0260073029,
				"z": -1.0680506053,
				"element": "N" 
			},
			{
				"x": 2.4293998958,
				"y": 3.0129900203,
				"z": -2.0095063227,
				"element": "N" 
			},
			{
				"x": 1.1516421435,
				"y": 3.0255500984,
				"z": -2.2975073866,
				"element": "C" 
			},
			{
				"x": 0.3543200205,
				"y": 4.123380931,
				"z": -3.4298618463,
				"element": "S" 
			},
			{
				"x": 0.4688677611,
				"y": 2.0696947816,
				"z": -1.5736548815,
				"element": "N" 
			},
			{
				"x": -0.9497121198,
				"y": 1.8956930875,
				"z": -1.5376819865,
				"element": "C" 
			},
			{
				"x": -1.6214411558,
				"y": 1.4379459552,
				"z": -2.6750981065,
				"element": "C" 
			},
			{
				"x": -3.0096118118,
				"y": 1.2967263324,
				"z": -2.6450575861,
				"element": "C" 
			},
			{
				"x": -3.7212133287,
				"y": 1.5952617909,
				"z": -1.4848267406,
				"element": "C" 
			},
			{
				"x": -3.0394187681,
				"y": 2.0455386587,
				"z": -0.3499404365,
				"element": "C" 
			},
			{
				"x": -1.6546758703,
				"y": 2.205913889,
				"z": -0.3720352349,
				"element": "C" 
			},
			{
				"x": -3.8061951879,
				"y": 2.3165984764,
				"z": 0.9193375726,
				"element": "C" 
			},
			{
				"x": -5.0276266725,
				"y": 2.831454269,
				"z": 0.6600071965,
				"element": "F" 
			},
			{
				"x": -3.1574987275,
				"y": 3.1828032664,
				"z": 1.724712495,
				"element": "F" 
			},
			{
				"x": -4.000076185,
				"y": 1.1813171754,
				"z": 1.6277959732,
				"element": "F" 
			},
			{
				"x": -0.1534708778,
				"y": -1.6970244847,
				"z": 4.5272551369,
				"element": "H" 
			},
			{
				"x": 1.5950102565,
				"y": -1.5911838773,
				"z": 4.7694178553,
				"element": "H" 
			},
			{
				"x": 0.7282934456,
				"y": -3.0560482968,
				"z": 5.2479664939,
				"element": "H" 
			},
			{
				"x": -0.0480804675,
				"y": -4.3555973361,
				"z": 1.8361939279,
				"element": "H" 
			},
			{
				"x": -0.1763896999,
				"y": -4.639784301,
				"z": 3.5740821206,
				"element": "H" 
			},
			{
				"x": -1.1311762969,
				"y": -3.3566822709,
				"z": 2.8257516877,
				"element": "H" 
			},
			{
				"x": 2.4993364044,
				"y": -4.1400906177,
				"z": 2.0995022233,
				"element": "H" 
			},
			{
				"x": 2.2826936104,
				"y": -4.4889284334,
				"z": 3.8245649421,
				"element": "H" 
			},
			{
				"x": 3.1834974863,
				"y": -3.0551190465,
				"z": 3.3162191366,
				"element": "H" 
			},
			{
				"x": 2.7982161341,
				"y": -0.8143284988,
				"z": 2.9587700414,
				"element": "H" 
			},
			{
				"x": 2.9676392673,
				"y": 1.0105712441,
				"z": 1.3240034157,
				"element": "H" 
			},
			{
				"x": -0.4103680297,
				"y": -0.587717642,
				"z": -0.7949152099,
				"element": "H" 
			},
			{
				"x": -0.592845757,
				"y": -2.384366021,
				"z": 0.8289683206,
				"element": "H" 
			},
			{
				"x": 1.5049739556,
				"y": 4.7728540589,
				"z": -3.6905334679,
				"element": "H" 
			},
			{
				"x": -1.056911842,
				"y": 1.1966726714,
				"z": -3.5696972203,
				"element": "H" 
			},
			{
				"x": -3.534336224,
				"y": 0.9493593405,
				"z": -3.5291420485,
				"element": "H" 
			},
			{
				"x": -4.8002023788,
				"y": 1.4894923496,
				"z": -1.4582496696,
				"element": "H" 
			},
			{
				"x": -1.1266999734,
				"y": 2.5714532753,
				"z": 0.5005982533,
				"element": "H" 
			}
		],
		 "valence_orbital": [ 
			{
				"type": "occ",
				"energy": -0.28392,
				"method": "rhf"
			},
			{
				"type": "occ",
				"energy": -0.26092,
				"method": "rhf"
			},
			{
				"type": "occ",
				"energy": -0.25443,
				"method": "rhf"
			},
			{
				"type": "occ",
				"energy": -0.25371,
				"method": "rhf"
			},
			{
				"type": "occ",
				"energy": -0.21835,
				"method": "rhf"
			},
			{
				"type": "unocc",
				"energy": -0.05185,
				"method": "rhf"
			},
			{
				"type": "unocc",
				"energy": -0.04501,
				"method": "rhf"
			},
			{
				"type": "unocc",
				"energy": -0.03077,
				"method": "rhf"
			},
			{
				"type": "unocc",
				"energy": -0.00518,
				"method": "rhf"
			},
			{
				"type": "unocc",
				"energy": 0.00891,
				"method": "rhf"
			}
		],
		"cosmo_sigma_profile": { 
			"-0.025": 0.0,
			"-0.024": 0.0,
			"-0.023": 0.0,
			"-0.022": 0.0,
			"-0.021": 0.0,
			"-0.02": 0.0,
			"-0.019": 0.0,
			"-0.018": 0.0,
			"-0.017": 0.0,
			"-0.016": 0.0,
			"-0.015": 0.0,
			"-0.014": 0.0,
			"-0.013": 0.13999875139,
			"-0.012": 1.47943692462,
			"-0.011": 1.40864609659,
			"-0.01": 1.1046148789,
			"-0.009": 1.51758516627,
			"-0.008": 5.60614659295,
			"-0.007": 10.1505499612,
			"-0.006": 13.4861841891,
			"-0.005": 20.6895566685,
			"-0.004": 19.7140538477,
			"-0.003": 33.2285546824,
			"-0.002": 36.6304229776,
			"-0.001": 33.5300978093,
			"0.0": 42.6314870955,
			"0.001": 50.903226409,
			"0.002": 40.7620403703,
			"0.003": 34.351386734,
			"0.004": 15.625347178,
			"0.005": 11.1366729382,
			"0.006": 4.73986495857,
			"0.007": 1.82114231072,
			"0.008": 1.38984140042,
			"0.009": 2.60383290725,
			"0.01": 2.0794161485,
			"0.011": 2.328717577,
			"0.012": 2.71829960111,
			"0.013": 3.746095717,
			"0.014": 2.28016709762,
			"0.015": 2.46606585526,
			"0.016": 0.976905723794,
			"0.017": 0.0101717001557,
			"0.018": 0.0,
			"0.019": 0.0,
			"0.02": 0.0,
			"0.021": 0.0,
			"0.022": 0.0,
			"0.023": 0.0,
			"0.024": 0.0,
			"0.025": 0.0
		}
	}
}
