{
	 "smiles": "CSC1=NC2=C(N1C)C(=O)N=C(CC1=CC=CC=C1)N2", 
	 "Tm": 559.15, 
	 "num_atms": 34, 
	 "gaussian": { 
		 "optdone": 1, 
		 "sigma_profile": "yes", 
		 "theory": "DFT", 
		 "functional": "B3LYP", 
		 "basiset": "6-31G**", 
		 "properties": { 
			 "R2extent": 7965.8111, 
			 "electric_dipole_moment_norm": 6.10779340924, 
			 "electric_quadrupole_moment_norm": 20.3039217921, 
			 "total_energy": -1234.37027765, 
			 "HOMO_LUMO_gap": 0.18264, 
			 "cosmo_polarized_energy": -21.09, 
			 "cosmo_cavitation_energy": 39.72, 
			 "cosmo_dispersion_energy": -28.94, 
			 "cosmo_repulsion_energy": 2.18, 
			 "cosmo_total_nonelectrostatic_energy": 12.96, 
			 "SMD_solvation_energy": 4.02 
		},
		"coords": [
			{
				"x": 2.4727270759,
				"y": -3.1768068016,
				"z": -3.4706154693,
				"element": "C" 
			},
			{
				"x": 3.4555402873,
				"y": -3.3452368041,
				"z": -1.9409041774,
				"element": "S" 
			},
			{
				"x": 2.4002620227,
				"y": -2.4767750043,
				"z": -0.8306451754,
				"element": "C" 
			},
			{
				"x": 1.2364347286,
				"y": -1.9106565731,
				"z": -1.1532378954,
				"element": "N" 
			},
			{
				"x": 0.8154031032,
				"y": -1.3805037684,
				"z": 0.0258834706,
				"element": "C" 
			},
			{
				"x": 1.6939699527,
				"y": -1.6077580256,
				"z": 1.0641609901,
				"element": "C" 
			},
			{
				"x": 2.7328016895,
				"y": -2.3300273526,
				"z": 0.4858906018,
				"element": "N" 
			},
			{
				"x": 3.9244969635,
				"y": -2.8188341901,
				"z": 1.1723735992,
				"element": "C" 
			},
			{
				"x": 1.4661986437,
				"y": -1.123526445,
				"z": 2.409461286,
				"element": "C" 
			},
			{
				"x": 2.2290725613,
				"y": -1.2964913874,
				"z": 3.3592502425,
				"element": "O" 
			},
			{
				"x": 0.2553051014,
				"y": -0.4080430745,
				"z": 2.5439653983,
				"element": "N" 
			},
			{
				"x": -0.5536000841,
				"y": -0.2187338609,
				"z": 1.5439344838,
				"element": "C" 
			},
			{
				"x": -1.868294559,
				"y": 0.5090871722,
				"z": 1.7871585332,
				"element": "C" 
			},
			{
				"x": -2.3826890008,
				"y": 1.3150142421,
				"z": 0.6115026943,
				"element": "C" 
			},
			{
				"x": -3.3899080011,
				"y": 0.8105481647,
				"z": -0.2228653986,
				"element": "C" 
			},
			{
				"x": -3.8442615582,
				"y": 1.5450718543,
				"z": -1.3219078025,
				"element": "C" 
			},
			{
				"x": -3.2962518144,
				"y": 2.7971863954,
				"z": -1.5992290268,
				"element": "C" 
			},
			{
				"x": -2.2928410437,
				"y": 3.311484822,
				"z": -0.7732191105,
				"element": "C" 
			},
			{
				"x": -1.8393581204,
				"y": 2.5757683883,
				"z": 0.3205398911,
				"element": "C" 
			},
			{
				"x": -0.339039392,
				"y": -0.6756784317,
				"z": 0.2661840175,
				"element": "N" 
			},
			{
				"x": 2.3474936958,
				"y": -2.1247885341,
				"z": -3.7261995341,
				"element": "H" 
			},
			{
				"x": 3.0439100745,
				"y": -3.6899907188,
				"z": -4.2463617613,
				"element": "H" 
			},
			{
				"x": 1.4965462771,
				"y": -3.6453013991,
				"z": -3.3468685837,
				"element": "H" 
			},
			{
				"x": 4.8250459624,
				"y": -2.3937365931,
				"z": 0.7190856491,
				"element": "H" 
			},
			{
				"x": 3.845467921,
				"y": -2.5019346728,
				"z": 2.2128023241,
				"element": "H" 
			},
			{
				"x": 3.9750513608,
				"y": -3.9104430134,
				"z": 1.1164040585,
				"element": "H" 
			},
			{
				"x": -2.6132752853,
				"y": -0.2433172213,
				"z": 2.0759580855,
				"element": "H" 
			},
			{
				"x": -1.7075102925,
				"y": 1.1394331901,
				"z": 2.6645725727,
				"element": "H" 
			},
			{
				"x": -3.8329513784,
				"y": -0.157969394,
				"z": -0.0015839185,
				"element": "H" 
			},
			{
				"x": -4.6295790252,
				"y": 1.1404191797,
				"z": -1.9539051708,
				"element": "H" 
			},
			{
				"x": -3.6501135664,
				"y": 3.3718106145,
				"z": -2.4501345506,
				"element": "H" 
			},
			{
				"x": -1.8649341089,
				"y": 4.2880553615,
				"z": -0.9807906031,
				"element": "H" 
			},
			{
				"x": -1.0586288422,
				"y": 2.9803451816,
				"z": 0.9597779712,
				"element": "H" 
			},
			{
				"x": -0.9798913489,
				"y": -0.4478713007,
				"z": -0.4830376914,
				"element": "H" 
			}
		],
		 "valence_orbital": [ 
			{
				"type": "occ",
				"energy": -0.26462,
				"method": "rhf"
			},
			{
				"type": "occ",
				"energy": -0.25885,
				"method": "rhf"
			},
			{
				"type": "occ",
				"energy": -0.25019,
				"method": "rhf"
			},
			{
				"type": "occ",
				"energy": -0.2295,
				"method": "rhf"
			},
			{
				"type": "occ",
				"energy": -0.20554,
				"method": "rhf"
			},
			{
				"type": "unocc",
				"energy": -0.0229,
				"method": "rhf"
			},
			{
				"type": "unocc",
				"energy": -0.01876,
				"method": "rhf"
			},
			{
				"type": "unocc",
				"energy": -0.01652,
				"method": "rhf"
			},
			{
				"type": "unocc",
				"energy": 0.00429,
				"method": "rhf"
			},
			{
				"type": "unocc",
				"energy": 0.01543,
				"method": "rhf"
			}
		],
		"cosmo_sigma_profile": { 
			"-0.025": 0.0,
			"-0.024": 0.0,
			"-0.023": 0.0,
			"-0.022": 0.0,
			"-0.021": 0.0,
			"-0.02": 0.0,
			"-0.019": 0.0,
			"-0.018": 0.0,
			"-0.017": 0.0,
			"-0.016": 0.0,
			"-0.015": 0.0,
			"-0.014": 0.168496765552,
			"-0.013": 0.720300773485,
			"-0.012": 1.15509751048,
			"-0.011": 0.617068591859,
			"-0.01": 0.763552675429,
			"-0.009": 1.28769972486,
			"-0.008": 2.7029788352,
			"-0.007": 9.17343810827,
			"-0.006": 22.5711769383,
			"-0.005": 25.7427814827,
			"-0.004": 29.1408074434,
			"-0.003": 30.5147998464,
			"-0.002": 28.2946243321,
			"-0.001": 24.2612631238,
			"0.0": 23.017233125,
			"0.001": 16.0600434485,
			"0.002": 16.2835943332,
			"0.003": 14.8392410461,
			"0.004": 14.794600539,
			"0.005": 13.6479247086,
			"0.006": 7.26154292028,
			"0.007": 5.25481836909,
			"0.008": 2.56712459741,
			"0.009": 3.47649041086,
			"0.01": 1.81341523501,
			"0.011": 3.76385587204,
			"0.012": 3.28517283057,
			"0.013": 4.12638442507,
			"0.014": 4.25397016091,
			"0.015": 3.22761518262,
			"0.016": 2.61781104025,
			"0.017": 1.94568613764,
			"0.018": 0.0,
			"0.019": 0.0,
			"0.02": 0.0,
			"0.021": 0.0,
			"0.022": 0.0,
			"0.023": 0.0,
			"0.024": 0.0,
			"0.025": 0.0
		}
	}
}
