{
	 "smiles": "NC1=C(C#N)C(C2=CC=CC=C2)C(C#N)=C2SC3=C(C=CC=C3)N12", 
	 "Tm": 478.15, 
	 "num_atms": 36, 
	 "gaussian": { 
		 "optdone": 1, 
		 "sigma_profile": "yes", 
		 "theory": "DFT", 
		 "functional": "B3LYP", 
		 "basiset": "6-31G**", 
		 "properties": { 
			 "R2extent": 8162.0111, 
			 "electric_dipole_moment_norm": 7.30743719302, 
			 "electric_quadrupole_moment_norm": 21.9477782949, 
			 "total_energy": -1348.39825937, 
			 "HOMO_LUMO_gap": 0.15488, 
			 "cosmo_polarized_energy": -22.75, 
			 "cosmo_cavitation_energy": 43.12, 
			 "cosmo_dispersion_energy": -29.27, 
			 "cosmo_repulsion_energy": 2.17, 
			 "cosmo_total_nonelectrostatic_energy": 16.01, 
			 "SMD_solvation_energy": 9.04 
		},
		"coords": [
			{
				"x": -3.1286199983,
				"y": -0.0354684443,
				"z": -0.1596421099,
				"element": "N" 
			},
			{
				"x": -1.8972275205,
				"y": -0.2750757335,
				"z": 0.420623088,
				"element": "C" 
			},
			{
				"x": -1.7352488474,
				"y": -0.7027821605,
				"z": 1.7112947494,
				"element": "C" 
			},
			{
				"x": -2.9026513195,
				"y": -1.026098185,
				"z": 2.4497436867,
				"element": "C" 
			},
			{
				"x": -3.8824456852,
				"y": -1.2880042194,
				"z": 3.0280188322,
				"element": "N" 
			},
			{
				"x": -0.3755624322,
				"y": -0.8610725187,
				"z": 2.3743812312,
				"element": "C" 
			},
			{
				"x": 0.0248717566,
				"y": 0.2873242523,
				"z": 3.306424487,
				"element": "C" 
			},
			{
				"x": 0.7060067844,
				"y": 0.0014495994,
				"z": 4.495709012,
				"element": "C" 
			},
			{
				"x": 1.1192488677,
				"y": 1.029161018,
				"z": 5.344591356,
				"element": "C" 
			},
			{
				"x": 0.8520913501,
				"y": 2.3582832924,
				"z": 5.0142370263,
				"element": "C" 
			},
			{
				"x": 0.1703401172,
				"y": 2.6525118236,
				"z": 3.831411107,
				"element": "C" 
			},
			{
				"x": -0.2396253907,
				"y": 1.6239011449,
				"z": 2.983448699,
				"element": "C" 
			},
			{
				"x": 0.6615365394,
				"y": -1.089772505,
				"z": 1.2729976776,
				"element": "C" 
			},
			{
				"x": 1.8833748009,
				"y": -1.7327123172,
				"z": 1.5960092232,
				"element": "C" 
			},
			{
				"x": 2.8806753356,
				"y": -2.2687516778,
				"z": 1.8768271283,
				"element": "N" 
			},
			{
				"x": 0.4454565191,
				"y": -0.6366103083,
				"z": 0.0123308435,
				"element": "C" 
			},
			{
				"x": 1.5922565551,
				"y": -0.6992259452,
				"z": -1.3309056355,
				"element": "S" 
			},
			{
				"x": 0.4819852736,
				"y": 0.2394258823,
				"z": -2.339714969,
				"element": "C" 
			},
			{
				"x": -0.72537561,
				"y": 0.5261110021,
				"z": -1.6786566582,
				"element": "C" 
			},
			{
				"x": -1.6711037845,
				"y": 1.3537322556,
				"z": -2.2927020275,
				"element": "C" 
			},
			{
				"x": -1.4132006233,
				"y": 1.8261131769,
				"z": -3.5826356654,
				"element": "C" 
			},
			{
				"x": -0.2315693064,
				"y": 1.5015785771,
				"z": -4.2508649478,
				"element": "C" 
			},
			{
				"x": 0.7342184564,
				"y": 0.711253978,
				"z": -3.6233714489,
				"element": "C" 
			},
			{
				"x": -0.770745912,
				"y": -0.0587580566,
				"z": -0.3872911598,
				"element": "N" 
			},
			{
				"x": -3.9046002314,
				"y": -0.2848538672,
				"z": 0.4430767277,
				"element": "H" 
			},
			{
				"x": -3.2394918664,
				"y": -0.3896227628,
				"z": -1.1024676715,
				"element": "H" 
			},
			{
				"x": -0.4111801777,
				"y": -1.7697619755,
				"z": 2.9863122915,
				"element": "H" 
			},
			{
				"x": 0.9159707544,
				"y": -1.03240037,
				"z": 4.7583524751,
				"element": "H" 
			},
			{
				"x": 1.6448702949,
				"y": 0.7898880059,
				"z": 6.2644618603,
				"element": "H" 
			},
			{
				"x": 1.1689047827,
				"y": 3.1597064691,
				"z": 5.6753042221,
				"element": "H" 
			},
			{
				"x": -0.0459080131,
				"y": 3.6845643721,
				"z": 3.5700476434,
				"element": "H" 
			},
			{
				"x": -0.7786662802,
				"y": 1.8629486088,
				"z": 2.071279272,
				"element": "H" 
			},
			{
				"x": -2.5743134221,
				"y": 1.6418849426,
				"z": -1.7723497606,
				"element": "H" 
			},
			{
				"x": -2.1472075083,
				"y": 2.4664604457,
				"z": -4.0614542815,
				"element": "H" 
			},
			{
				"x": -0.0499086232,
				"y": 1.8770019738,
				"z": -5.2526378974,
				"element": "H" 
			},
			{
				"x": 1.6704443642,
				"y": 0.4784702266,
				"z": -4.1202884063,
				"element": "H" 
			}
		],
		 "valence_orbital": [ 
			{
				"type": "occ",
				"energy": -0.27154,
				"method": "rhf"
			},
			{
				"type": "occ",
				"energy": -0.25309,
				"method": "rhf"
			},
			{
				"type": "occ",
				"energy": -0.2513,
				"method": "rhf"
			},
			{
				"type": "occ",
				"energy": -0.2363,
				"method": "rhf"
			},
			{
				"type": "occ",
				"energy": -0.2115,
				"method": "rhf"
			},
			{
				"type": "unocc",
				"energy": -0.05662,
				"method": "rhf"
			},
			{
				"type": "unocc",
				"energy": -0.04107,
				"method": "rhf"
			},
			{
				"type": "unocc",
				"energy": -0.03385,
				"method": "rhf"
			},
			{
				"type": "unocc",
				"energy": -0.01939,
				"method": "rhf"
			},
			{
				"type": "unocc",
				"energy": -0.00514,
				"method": "rhf"
			}
		],
		"cosmo_sigma_profile": { 
			"-0.025": 0.0,
			"-0.024": 0.0,
			"-0.023": 0.0,
			"-0.022": 0.0,
			"-0.021": 0.0,
			"-0.02": 0.0,
			"-0.019": 0.0,
			"-0.018": 0.0,
			"-0.017": 0.0,
			"-0.016": 0.0,
			"-0.015": 0.394837885849,
			"-0.014": 1.78291806743,
			"-0.013": 2.47224720709,
			"-0.012": 2.68442324041,
			"-0.011": 2.50670010572,
			"-0.01": 1.7787213329,
			"-0.009": 2.85857518156,
			"-0.008": 4.68001750604,
			"-0.007": 9.64709533196,
			"-0.006": 21.816144452,
			"-0.005": 24.8110450155,
			"-0.004": 24.3321034688,
			"-0.003": 23.7579839554,
			"-0.002": 20.4416628433,
			"-0.001": 23.7989591208,
			"0.0": 27.878247441,
			"0.001": 25.202876686,
			"0.002": 23.9339862773,
			"0.003": 24.5006655983,
			"0.004": 18.5567520258,
			"0.005": 13.9017648927,
			"0.006": 9.63609730822,
			"0.007": 4.21390831538,
			"0.008": 4.88140623099,
			"0.009": 6.6443401676,
			"0.01": 6.05616378302,
			"0.011": 6.26187244831,
			"0.012": 5.44170901017,
			"0.013": 4.83205069946,
			"0.014": 1.36831375096,
			"0.015": 0.0,
			"0.016": 0.0,
			"0.017": 0.0,
			"0.018": 0.0,
			"0.019": 0.0,
			"0.02": 0.0,
			"0.021": 0.0,
			"0.022": 0.0,
			"0.023": 0.0,
			"0.024": 0.0,
			"0.025": 0.0
		}
	}
}
