{
	 "smiles": "CC1(C)C(C(=O)OC(C#N)C2=CC=CC(OC3=CC=CC=C3)=C2)C1(C)C", 
	 "Tm": 320.65, 
	 "num_atms": 49, 
	 "gaussian": { 
		 "optdone": 1, 
		 "sigma_profile": "yes", 
		 "theory": "DFT", 
		 "functional": "B3LYP", 
		 "basiset": "6-31G**", 
		 "properties": { 
			 "R2extent": 12877.343, 
			 "electric_dipole_moment_norm": 3.98310146996, 
			 "electric_quadrupole_moment_norm": 15.3199480844, 
			 "total_energy": -1132.59306593, 
			 "HOMO_LUMO_gap": 0.19548, 
			 "cosmo_polarized_energy": -12.72, 
			 "cosmo_cavitation_energy": 52.71, 
			 "cosmo_dispersion_energy": -34.37, 
			 "cosmo_repulsion_energy": 2.69, 
			 "cosmo_total_nonelectrostatic_energy": 21.03, 
			 "SMD_solvation_energy": 11.17 
		},
		"coords": [
			{
				"x": 2.6082434299,
				"y": -3.0049082256,
				"z": 1.1105260194,
				"element": "C" 
			},
			{
				"x": 1.20061269,
				"y": -2.8099502749,
				"z": 1.6623113194,
				"element": "C" 
			},
			{
				"x": 0.2007752793,
				"y": -3.7241805243,
				"z": 0.9662679785,
				"element": "C" 
			},
			{
				"x": 0.8105793717,
				"y": -1.3552890134,
				"z": 2.0021336193,
				"element": "C" 
			},
			{
				"x": -0.5012680027,
				"y": -0.7696875954,
				"z": 1.6571144116,
				"element": "C" 
			},
			{
				"x": -1.5899983511,
				"y": -1.315285369,
				"z": 1.6462831154,
				"element": "O" 
			},
			{
				"x": -0.3393503134,
				"y": 0.5513589252,
				"z": 1.3279097236,
				"element": "O" 
			},
			{
				"x": -1.5484484857,
				"y": 1.2699707317,
				"z": 0.96922596,
				"element": "C" 
			},
			{
				"x": -1.4789404393,
				"y": 2.5663204988,
				"z": 1.6610525636,
				"element": "C" 
			},
			{
				"x": -1.4427203546,
				"y": 3.5896925118,
				"z": 2.206140218,
				"element": "N" 
			},
			{
				"x": -1.6741648565,
				"y": 1.3935637835,
				"z": -0.5392396191,
				"element": "C" 
			},
			{
				"x": -2.3845318224,
				"y": 0.4086827423,
				"z": -1.2344825239,
				"element": "C" 
			},
			{
				"x": -2.4796877889,
				"y": 0.4832043159,
				"z": -2.6250242368,
				"element": "C" 
			},
			{
				"x": -1.8697395943,
				"y": 1.5229605243,
				"z": -3.3220868195,
				"element": "C" 
			},
			{
				"x": -1.1588748309,
				"y": 2.5022093766,
				"z": -2.6202227118,
				"element": "C" 
			},
			{
				"x": -0.6407641398,
				"y": 3.5296401033,
				"z": -3.3740731381,
				"element": "O" 
			},
			{
				"x": 0.4508495915,
				"y": 4.2589048302,
				"z": -2.9279064379,
				"element": "C" 
			},
			{
				"x": 1.6367126739,
				"y": 3.6364234441,
				"z": -2.5287292749,
				"element": "C" 
			},
			{
				"x": 2.729760908,
				"y": 4.4248138265,
				"z": -2.1683977135,
				"element": "C" 
			},
			{
				"x": 2.6460784438,
				"y": 5.8184566789,
				"z": -2.2157314659,
				"element": "C" 
			},
			{
				"x": 1.4578913843,
				"y": 6.4260182336,
				"z": -2.6260008072,
				"element": "C" 
			},
			{
				"x": 0.3539951474,
				"y": 5.6492956916,
				"z": -2.9802441194,
				"element": "C" 
			},
			{
				"x": -1.0609880241,
				"y": 2.4457308808,
				"z": -1.2275711442,
				"element": "C" 
			},
			{
				"x": 0.9933653217,
				"y": -2.4182101185,
				"z": 3.1074691976,
				"element": "C" 
			},
			{
				"x": -0.2162501253,
				"y": -2.9354307356,
				"z": 3.8751745618,
				"element": "C" 
			},
			{
				"x": 2.1892354991,
				"y": -2.2121463157,
				"z": 4.0301439799,
				"element": "C" 
			},
			{
				"x": 2.9603186504,
				"y": -4.0238092775,
				"z": 1.3112322553,
				"element": "H" 
			},
			{
				"x": 3.3379772705,
				"y": -2.3102786693,
				"z": 1.5306020732,
				"element": "H" 
			},
			{
				"x": 2.6076085009,
				"y": -2.8648431314,
				"z": 0.0238812681,
				"element": "H" 
			},
			{
				"x": 0.4217615399,
				"y": -4.7697142991,
				"z": 1.2112754538,
				"element": "H" 
			},
			{
				"x": -0.8332738995,
				"y": -3.5137481275,
				"z": 1.2323464836,
				"element": "H" 
			},
			{
				"x": 0.2900926643,
				"y": -3.6160663729,
				"z": -0.1206505878,
				"element": "H" 
			},
			{
				"x": 1.6148584236,
				"y": -0.6308019616,
				"z": 1.9225823654,
				"element": "H" 
			},
			{
				"x": -2.4004683227,
				"y": 0.7076810604,
				"z": 1.3629969259,
				"element": "H" 
			},
			{
				"x": -2.845044371,
				"y": -0.409231196,
				"z": -0.690055678,
				"element": "H" 
			},
			{
				"x": -3.0330550402,
				"y": -0.275221905,
				"z": -3.1706515534,
				"element": "H" 
			},
			{
				"x": -1.9357303244,
				"y": 1.5997344182,
				"z": -4.4022251208,
				"element": "H" 
			},
			{
				"x": 1.697907582,
				"y": 2.5533992368,
				"z": -2.5052579832,
				"element": "H" 
			},
			{
				"x": 3.652990467,
				"y": 3.9450865393,
				"z": -1.8565399848,
				"element": "H" 
			},
			{
				"x": 3.5013813374,
				"y": 6.4256627925,
				"z": -1.9358426639,
				"element": "H" 
			},
			{
				"x": 1.3843821616,
				"y": 7.508812931,
				"z": -2.6659870945,
				"element": "H" 
			},
			{
				"x": -0.5795743768,
				"y": 6.1000743994,
				"z": -3.2999978533,
				"element": "H" 
			},
			{
				"x": -0.5273646001,
				"y": 3.2196668768,
				"z": -0.6870140392,
				"element": "H" 
			},
			{
				"x": -0.4067537294,
				"y": -2.2970478676,
				"z": 4.7452519614,
				"element": "H" 
			},
			{
				"x": -0.0136029731,
				"y": -3.9463110436,
				"z": 4.2480865338,
				"element": "H" 
			},
			{
				"x": -1.1271896093,
				"y": -2.9580303806,
				"z": 3.2802653483,
				"element": "H" 
			},
			{
				"x": 1.9131236946,
				"y": -1.5512764212,
				"z": 4.8590976361,
				"element": "H" 
			},
			{
				"x": 3.0512269917,
				"y": -1.7673919778,
				"z": 3.5295089562,
				"element": "H" 
			},
			{
				"x": 2.507955351,
				"y": -3.16810455,
				"z": 4.462552642,
				"element": "H" 
			}
		],
		 "valence_orbital": [ 
			{
				"type": "occ",
				"energy": -0.27698,
				"method": "rhf"
			},
			{
				"type": "occ",
				"energy": -0.26371,
				"method": "rhf"
			},
			{
				"type": "occ",
				"energy": -0.25691,
				"method": "rhf"
			},
			{
				"type": "occ",
				"energy": -0.25375,
				"method": "rhf"
			},
			{
				"type": "occ",
				"energy": -0.22541,
				"method": "rhf"
			},
			{
				"type": "unocc",
				"energy": -0.02993,
				"method": "rhf"
			},
			{
				"type": "unocc",
				"energy": -0.01333,
				"method": "rhf"
			},
			{
				"type": "unocc",
				"energy": -0.00875,
				"method": "rhf"
			},
			{
				"type": "unocc",
				"energy": -0.00561,
				"method": "rhf"
			},
			{
				"type": "unocc",
				"energy": 0.00372,
				"method": "rhf"
			}
		],
		"cosmo_sigma_profile": { 
			"-0.025": 0.0,
			"-0.024": 0.0,
			"-0.023": 0.0,
			"-0.022": 0.0,
			"-0.021": 0.0,
			"-0.02": 0.0,
			"-0.019": 0.0,
			"-0.018": 0.0,
			"-0.017": 0.0,
			"-0.016": 0.0,
			"-0.015": 0.0,
			"-0.014": 0.0,
			"-0.013": 0.0,
			"-0.012": 0.0,
			"-0.011": 0.0655843089186,
			"-0.01": 0.948413643896,
			"-0.009": 1.35971623911,
			"-0.008": 1.37075094074,
			"-0.007": 5.34548872097,
			"-0.006": 17.8478973223,
			"-0.005": 21.4405962914,
			"-0.004": 28.7272672503,
			"-0.003": 37.0835401777,
			"-0.002": 39.3652583552,
			"-0.001": 44.5029258593,
			"0.0": 48.7307002645,
			"0.001": 45.3963563806,
			"0.002": 26.6615141965,
			"0.003": 27.8547849474,
			"0.004": 22.6300423487,
			"0.005": 14.9772262248,
			"0.006": 7.85569592237,
			"0.007": 6.20605310284,
			"0.008": 5.44958555165,
			"0.009": 5.39767158404,
			"0.01": 3.87697624342,
			"0.011": 3.74842269918,
			"0.012": 1.80120580385,
			"0.013": 0.143731262474,
			"0.014": 0.0,
			"0.015": 0.0,
			"0.016": 0.0,
			"0.017": 0.0,
			"0.018": 0.0,
			"0.019": 0.0,
			"0.02": 0.0,
			"0.021": 0.0,
			"0.022": 0.0,
			"0.023": 0.0,
			"0.024": 0.0,
			"0.025": 0.0
		}
	}
}
