{
	 "smiles": "CC(=O)C1=CC(N)=C(Cl)C=C1", 
	 "Tm": 377.15, 
	 "num_atms": 19, 
	 "gaussian": { 
		 "optdone": 1, 
		 "sigma_profile": "yes", 
		 "theory": "DFT", 
		 "functional": "B3LYP", 
		 "basiset": "6-31G**", 
		 "properties": { 
			 "R2extent": 2925.5579, 
			 "electric_dipole_moment_norm": 3.80891613717, 
			 "electric_quadrupole_moment_norm": 6.70668776894, 
			 "total_energy": -899.849422918, 
			 "HOMO_LUMO_gap": 0.16135, 
			 "cosmo_polarized_energy": -11.93, 
			 "cosmo_cavitation_energy": 24.77, 
			 "cosmo_dispersion_energy": -18.43, 
			 "cosmo_repulsion_energy": 1.48, 
			 "cosmo_total_nonelectrostatic_energy": 7.82, 
			 "SMD_solvation_energy": 4.62 
		},
		"coords": [
			{
				"x": -0.8676009335,
				"y": -1.0911207407,
				"z": 2.1246079318,
				"element": "C" 
			},
			{
				"x": 0.3992272125,
				"y": -0.2791172675,
				"z": 1.9099104304,
				"element": "C" 
			},
			{
				"x": 1.0500027817,
				"y": 0.1169242512,
				"z": 2.864903981,
				"element": "O" 
			},
			{
				"x": 0.839162992,
				"y": 0.0283571521,
				"z": 0.5085874844,
				"element": "C" 
			},
			{
				"x": 0.1189958853,
				"y": -0.3991114568,
				"z": -0.6108797292,
				"element": "C" 
			},
			{
				"x": 0.5415794231,
				"y": -0.1054928212,
				"z": -1.9197621457,
				"element": "C" 
			},
			{
				"x": -0.152485495,
				"y": -0.5846154625,
				"z": -3.0193479106,
				"element": "N" 
			},
			{
				"x": 1.7260809845,
				"y": 0.6454057472,
				"z": -2.053945463,
				"element": "C" 
			},
			{
				"x": 2.2967397644,
				"y": 1.0565436857,
				"z": -3.6687599246,
				"element": "Cl" 
			},
			{
				"x": 2.4546743091,
				"y": 1.0777595127,
				"z": -0.9470163352,
				"element": "C" 
			},
			{
				"x": 2.0163304183,
				"y": 0.7721998881,
				"z": 0.3349574889,
				"element": "C" 
			},
			{
				"x": -0.7895454514,
				"y": -2.0758575423,
				"z": 1.650841317,
				"element": "H" 
			},
			{
				"x": -1.0222155717,
				"y": -1.2168106072,
				"z": 3.1964837325,
				"element": "H" 
			},
			{
				"x": -1.7372718528,
				"y": -0.5857835663,
				"z": 1.6900222416,
				"element": "H" 
			},
			{
				"x": -0.7901055456,
				"y": -0.9805544543,
				"z": -0.4898987854,
				"element": "H" 
			},
			{
				"x": -1.126203899,
				"y": -0.8002124251,
				"z": -2.8637790111,
				"element": "H" 
			},
			{
				"x": 0.0218031894,
				"y": -0.1096086357,
				"z": -3.8935921633,
				"element": "H" 
			},
			{
				"x": 3.3596545882,
				"y": 1.6546687699,
				"z": -1.1040167429,
				"element": "H" 
			},
			{
				"x": 2.5639772005,
				"y": 1.0971259729,
				"z": 1.2116836037,
				"element": "H" 
			}
		],
		 "valence_orbital": [ 
			{
				"type": "occ",
				"energy": -0.32341,
				"method": "rhf"
			},
			{
				"type": "occ",
				"energy": -0.31895,
				"method": "rhf"
			},
			{
				"type": "occ",
				"energy": -0.25713,
				"method": "rhf"
			},
			{
				"type": "occ",
				"energy": -0.24926,
				"method": "rhf"
			},
			{
				"type": "occ",
				"energy": -0.21807,
				"method": "rhf"
			},
			{
				"type": "unocc",
				"energy": -0.05672,
				"method": "rhf"
			},
			{
				"type": "unocc",
				"energy": -0.00481,
				"method": "rhf"
			},
			{
				"type": "unocc",
				"energy": 0.02475,
				"method": "rhf"
			},
			{
				"type": "unocc",
				"energy": 0.03991,
				"method": "rhf"
			},
			{
				"type": "unocc",
				"energy": 0.07495,
				"method": "rhf"
			}
		],
		"cosmo_sigma_profile": { 
			"-0.025": 0.0,
			"-0.024": 0.0,
			"-0.023": 0.0,
			"-0.022": 0.0,
			"-0.021": 0.0,
			"-0.02": 0.0,
			"-0.019": 0.0,
			"-0.018": 0.0,
			"-0.017": 0.0,
			"-0.016": 0.0,
			"-0.015": 0.0,
			"-0.014": 0.255719667595,
			"-0.013": 1.40830646588,
			"-0.012": 2.07272961519,
			"-0.011": 2.66117174976,
			"-0.01": 2.49700041826,
			"-0.009": 2.9671539883,
			"-0.008": 2.89703522794,
			"-0.007": 5.11195395562,
			"-0.006": 10.6714289004,
			"-0.005": 12.1860885027,
			"-0.004": 10.4095967892,
			"-0.003": 11.6794938404,
			"-0.002": 11.3906623307,
			"-0.001": 16.0014998659,
			"0.0": 12.7061463017,
			"0.001": 12.4156177688,
			"0.002": 15.9034929733,
			"0.003": 21.4182968159,
			"0.004": 16.1611565637,
			"0.005": 5.86327039781,
			"0.006": 2.78665070676,
			"0.007": 2.66288728073,
			"0.008": 1.86729631732,
			"0.009": 2.62586412358,
			"0.01": 2.50978997007,
			"0.011": 3.80610479861,
			"0.012": 4.69811251262,
			"0.013": 1.67929562109,
			"0.014": 0.17806011214,
			"0.015": 0.0,
			"0.016": 0.0,
			"0.017": 0.0,
			"0.018": 0.0,
			"0.019": 0.0,
			"0.02": 0.0,
			"0.021": 0.0,
			"0.022": 0.0,
			"0.023": 0.0,
			"0.024": 0.0,
			"0.025": 0.0
		}
	}
}
