{
	 "smiles": "O=C1NC(=O)C2(CCCN(CC3=CC=CC=C3)C2)N1", 
	 "Tm": 483.15, 
	 "num_atms": 36, 
	 "gaussian": { 
		 "optdone": 1, 
		 "sigma_profile": "yes", 
		 "theory": "DFT", 
		 "functional": "B3LYP", 
		 "basiset": "6-31G**", 
		 "properties": { 
			 "R2extent": 5723.06, 
			 "electric_dipole_moment_norm": 2.22130255706, 
			 "electric_quadrupole_moment_norm": 19.3462691406, 
			 "total_energy": -858.468470627, 
			 "HOMO_LUMO_gap": 0.19313, 
			 "cosmo_polarized_energy": -17.21, 
			 "cosmo_cavitation_energy": 37.49, 
			 "cosmo_dispersion_energy": -26.3, 
			 "cosmo_repulsion_energy": 2.04, 
			 "cosmo_total_nonelectrostatic_energy": 13.23, 
			 "SMD_solvation_energy": 5.51 
		},
		"coords": [
			{
				"x": 0.3726900766,
				"y": -0.5756776391,
				"z": -5.1455146016,
				"element": "O" 
			},
			{
				"x": -0.2707639699,
				"y": -0.319926369,
				"z": -4.149871265,
				"element": "C" 
			},
			{
				"x": -0.6480031982,
				"y": 0.9678687092,
				"z": -3.7112528642,
				"element": "N" 
			},
			{
				"x": -1.3500699133,
				"y": 0.9561380901,
				"z": -2.5265646699,
				"element": "C" 
			},
			{
				"x": -1.8426722997,
				"y": 1.9169482337,
				"z": -1.9669027134,
				"element": "O" 
			},
			{
				"x": -1.3843087177,
				"y": -0.5121974433,
				"z": -2.0570985841,
				"element": "C" 
			},
			{
				"x": -2.8350621906,
				"y": -0.9868991839,
				"z": -1.7459596365,
				"element": "C" 
			},
			{
				"x": -3.0742180756,
				"y": -1.2098641212,
				"z": -0.2410527602,
				"element": "C" 
			},
			{
				"x": -2.41913004,
				"y": -0.1010128194,
				"z": 0.5799354633,
				"element": "C" 
			},
			{
				"x": -0.956542259,
				"y": -0.1658147906,
				"z": 0.4501547987,
				"element": "N" 
			},
			{
				"x": -0.2935887204,
				"y": 1.0604746151,
				"z": 0.9019989313,
				"element": "C" 
			},
			{
				"x": 1.1780392988,
				"y": 0.8664724161,
				"z": 1.2197382025,
				"element": "C" 
			},
			{
				"x": 1.6122379748,
				"y": -0.2437325452,
				"z": 1.9583083332,
				"element": "C" 
			},
			{
				"x": 2.958346416,
				"y": -0.3962238392,
				"z": 2.2871403605,
				"element": "C" 
			},
			{
				"x": 3.8942227104,
				"y": 0.5603399868,
				"z": 1.8828923509,
				"element": "C" 
			},
			{
				"x": 3.4733949761,
				"y": 1.6667134358,
				"z": 1.145014467,
				"element": "C" 
			},
			{
				"x": 2.1240313264,
				"y": 1.8145115083,
				"z": 0.813706554,
				"element": "C" 
			},
			{
				"x": -0.4697100824,
				"y": -0.7223343728,
				"z": -0.8073556934,
				"element": "C" 
			},
			{
				"x": -0.8015151088,
				"y": -1.1814348788,
				"z": -3.2211486529,
				"element": "N" 
			},
			{
				"x": -0.4650816584,
				"y": 1.7991082576,
				"z": -4.2549292815,
				"element": "H" 
			},
			{
				"x": -3.5425479241,
				"y": -0.2384454833,
				"z": -2.1172980485,
				"element": "H" 
			},
			{
				"x": -3.0235329592,
				"y": -1.9077139361,
				"z": -2.3066234815,
				"element": "H" 
			},
			{
				"x": -2.6739252006,
				"y": -2.180506692,
				"z": 0.0763784486,
				"element": "H" 
			},
			{
				"x": -4.1501627003,
				"y": -1.2332299512,
				"z": -0.0409737236,
				"element": "H" 
			},
			{
				"x": -2.6814416838,
				"y": -0.1995643779,
				"z": 1.6415062299,
				"element": "H" 
			},
			{
				"x": -2.8101678398,
				"y": 0.8697695781,
				"z": 0.231251695,
				"element": "H" 
			},
			{
				"x": -0.812505611,
				"y": 1.366239538,
				"z": 1.8208307708,
				"element": "H" 
			},
			{
				"x": -0.4157885664,
				"y": 1.8940370601,
				"z": 0.1921816012,
				"element": "H" 
			},
			{
				"x": 0.8819016603,
				"y": -0.9885296966,
				"z": 2.2608604203,
				"element": "H" 
			},
			{
				"x": 3.2797036706,
				"y": -1.2617468721,
				"z": 2.8603587608,
				"element": "H" 
			},
			{
				"x": 4.9432413291,
				"y": 0.4405508971,
				"z": 2.1385505931,
				"element": "H" 
			},
			{
				"x": 4.1940265353,
				"y": 2.4124076211,
				"z": 0.8207791126,
				"element": "H" 
			},
			{
				"x": 1.8008096217,
				"y": 2.6764745356,
				"z": 0.2345572888,
				"element": "H" 
			},
			{
				"x": 0.5269018907,
				"y": -0.3239917832,
				"z": -1.0160876044,
				"element": "H" 
			},
			{
				"x": -0.3483396501,
				"y": -1.8128512456,
				"z": -0.7147073439,
				"element": "H" 
			},
			{
				"x": -0.4807691175,
				"y": -2.1383564422,
				"z": -3.202003458,
				"element": "H" 
			}
		],
		 "valence_orbital": [ 
			{
				"type": "occ",
				"energy": -0.27238,
				"method": "rhf"
			},
			{
				"type": "occ",
				"energy": -0.26349,
				"method": "rhf"
			},
			{
				"type": "occ",
				"energy": -0.24728,
				"method": "rhf"
			},
			{
				"type": "occ",
				"energy": -0.24232,
				"method": "rhf"
			},
			{
				"type": "occ",
				"energy": -0.20664,
				"method": "rhf"
			},
			{
				"type": "unocc",
				"energy": -0.01351,
				"method": "rhf"
			},
			{
				"type": "unocc",
				"energy": -0.00203,
				"method": "rhf"
			},
			{
				"type": "unocc",
				"energy": 0.00191,
				"method": "rhf"
			},
			{
				"type": "unocc",
				"energy": 0.05649,
				"method": "rhf"
			},
			{
				"type": "unocc",
				"energy": 0.06632,
				"method": "rhf"
			}
		],
		"cosmo_sigma_profile": { 
			"-0.025": 0.0,
			"-0.024": 0.0,
			"-0.023": 0.0,
			"-0.022": 0.0,
			"-0.021": 0.0,
			"-0.02": 0.0,
			"-0.019": 0.0,
			"-0.018": 0.0,
			"-0.017": 0.254751031795,
			"-0.016": 1.30035172708,
			"-0.015": 1.8646893959,
			"-0.014": 2.11118974856,
			"-0.013": 1.97550025424,
			"-0.012": 2.10969543744,
			"-0.011": 1.74175124822,
			"-0.01": 1.89039430375,
			"-0.009": 2.21383453575,
			"-0.008": 2.33528802209,
			"-0.007": 2.86266912013,
			"-0.006": 5.25161956891,
			"-0.005": 15.3314096661,
			"-0.004": 25.3168142289,
			"-0.003": 33.7685422468,
			"-0.002": 30.6891911556,
			"-0.001": 29.1434939416,
			"0.0": 22.1213375596,
			"0.001": 14.8614502928,
			"0.002": 11.0353263416,
			"0.003": 14.4448197655,
			"0.004": 12.5815537899,
			"0.005": 12.5913731931,
			"0.006": 12.2749806872,
			"0.007": 4.43926449025,
			"0.008": 2.93873351316,
			"0.009": 3.60890470952,
			"0.01": 3.79484302881,
			"0.011": 4.18036078685,
			"0.012": 7.11730640921,
			"0.013": 7.50726592423,
			"0.014": 0.968701986427,
			"0.015": 0.0,
			"0.016": 0.0,
			"0.017": 0.0,
			"0.018": 0.0,
			"0.019": 0.0,
			"0.02": 0.0,
			"0.021": 0.0,
			"0.022": 0.0,
			"0.023": 0.0,
			"0.024": 0.0,
			"0.025": 0.0
		}
	}
}
