{
	 "smiles": "CC1=C(C)C(=CC=C1)N1N=NN=C1S", 
	 "Tm": 389.15, 
	 "num_atms": 24, 
	 "gaussian": { 
		 "optdone": 1, 
		 "sigma_profile": "yes", 
		 "theory": "DFT", 
		 "functional": "B3LYP", 
		 "basiset": "6-31G**", 
		 "properties": { 
			 "R2extent": 3306.7069, 
			 "electric_dipole_moment_norm": 7.05496797654, 
			 "electric_quadrupole_moment_norm": 18.7511520913, 
			 "total_energy": -966.122930285, 
			 "HOMO_LUMO_gap": 0.22007, 
			 "cosmo_polarized_energy": -14.48, 
			 "cosmo_cavitation_energy": 29.65, 
			 "cosmo_dispersion_energy": -21.2, 
			 "cosmo_repulsion_energy": 1.61, 
			 "cosmo_total_nonelectrostatic_energy": 10.05, 
			 "SMD_solvation_energy": 2.89 
		},
		"coords": [
			{
				"x": 1.7289007539,
				"y": 0.4972372304,
				"z": 2.6770289666,
				"element": "C" 
			},
			{
				"x": 0.7398594765,
				"y": 0.9384192689,
				"z": 1.6248861711,
				"element": "C" 
			},
			{
				"x": 0.6131946543,
				"y": 0.2164955183,
				"z": 0.4161809444,
				"element": "C" 
			},
			{
				"x": 1.4593941247,
				"y": -1.0078917626,
				"z": 0.1696527888,
				"element": "C" 
			},
			{
				"x": -0.3181984632,
				"y": 0.6820400155,
				"z": -0.5272691455,
				"element": "C" 
			},
			{
				"x": -1.1063508742,
				"y": 1.8163810594,
				"z": -0.304577782,
				"element": "C" 
			},
			{
				"x": -0.9778747042,
				"y": 2.5080736048,
				"z": 0.8944809749,
				"element": "C" 
			},
			{
				"x": -0.057998376,
				"y": 2.0663184261,
				"z": 1.8453528141,
				"element": "C" 
			},
			{
				"x": -0.4865273978,
				"y": -0.0078954869,
				"z": -1.7708333111,
				"element": "N" 
			},
			{
				"x": 0.4557733124,
				"y": 0.0343880146,
				"z": -2.7664484602,
				"element": "N" 
			},
			{
				"x": -0.0060173094,
				"y": -0.6771773074,
				"z": -3.7348269433,
				"element": "N" 
			},
			{
				"x": -1.2273880828,
				"y": -1.1995622691,
				"z": -3.4406137866,
				"element": "N" 
			},
			{
				"x": -1.5114418947,
				"y": -0.7768462909,
				"z": -2.2223124115,
				"element": "C" 
			},
			{
				"x": -2.9858477115,
				"y": -1.2093171615,
				"z": -1.3700073435,
				"element": "S" 
			},
			{
				"x": 1.5155315689,
				"y": -0.5172757738,
				"z": 3.0339550105,
				"element": "H" 
			},
			{
				"x": 1.7073868773,
				"y": 1.1664033953,
				"z": 3.5404386604,
				"element": "H" 
			},
			{
				"x": 2.7532489383,
				"y": 0.4850609348,
				"z": 2.286918064,
				"element": "H" 
			},
			{
				"x": 2.5241261502,
				"y": -0.7484304496,
				"z": 0.1597718411,
				"element": "H" 
			},
			{
				"x": 1.2330101143,
				"y": -1.4839453875,
				"z": -0.7833351651,
				"element": "H" 
			},
			{
				"x": 1.3190832433,
				"y": -1.7470505269,
				"z": 0.9663772464,
				"element": "H" 
			},
			{
				"x": -1.7936259545,
				"y": 2.1479238185,
				"z": -1.0762836935,
				"element": "H" 
			},
			{
				"x": -1.5805362668,
				"y": 3.3910091825,
				"z": 1.0821852202,
				"element": "H" 
			},
			{
				"x": 0.0486675138,
				"y": 2.6101670071,
				"z": 2.7800736452,
				"element": "H" 
			},
			{
				"x": -2.7220696928,
				"y": -0.4627250601,
				"z": -0.2782943056,
				"element": "H" 
			}
		],
		 "valence_orbital": [ 
			{
				"type": "occ",
				"energy": -0.29594,
				"method": "rhf"
			},
			{
				"type": "occ",
				"energy": -0.29211,
				"method": "rhf"
			},
			{
				"type": "occ",
				"energy": -0.26615,
				"method": "rhf"
			},
			{
				"type": "occ",
				"energy": -0.26337,
				"method": "rhf"
			},
			{
				"type": "occ",
				"energy": -0.25635,
				"method": "rhf"
			},
			{
				"type": "unocc",
				"energy": -0.03628,
				"method": "rhf"
			},
			{
				"type": "unocc",
				"energy": -0.02943,
				"method": "rhf"
			},
			{
				"type": "unocc",
				"energy": -0.01133,
				"method": "rhf"
			},
			{
				"type": "unocc",
				"energy": 0.00384,
				"method": "rhf"
			},
			{
				"type": "unocc",
				"energy": 0.02521,
				"method": "rhf"
			}
		],
		"cosmo_sigma_profile": { 
			"-0.025": 0.0,
			"-0.024": 0.0,
			"-0.023": 0.0,
			"-0.022": 0.0,
			"-0.021": 0.0,
			"-0.02": 0.0,
			"-0.019": 0.0,
			"-0.018": 0.0,
			"-0.017": 0.0,
			"-0.016": 0.0,
			"-0.015": 0.0,
			"-0.014": 0.0,
			"-0.013": 0.186718077195,
			"-0.012": 0.853162473185,
			"-0.011": 1.07803308364,
			"-0.01": 1.08213488375,
			"-0.009": 1.3845198479,
			"-0.008": 2.35873049559,
			"-0.007": 7.05164608027,
			"-0.006": 11.4603190657,
			"-0.005": 19.4223577709,
			"-0.004": 22.1393500125,
			"-0.003": 17.867367486,
			"-0.002": 15.8840651547,
			"-0.001": 23.5634600404,
			"0.0": 20.8086202128,
			"0.001": 15.4732635389,
			"0.002": 13.4622436072,
			"0.003": 15.0980144739,
			"0.004": 11.542498857,
			"0.005": 5.3264622127,
			"0.006": 3.8631422509,
			"0.007": 4.44814555788,
			"0.008": 5.05366051576,
			"0.009": 4.5724253931,
			"0.01": 5.17265337223,
			"0.011": 3.75808324363,
			"0.012": 3.25480970435,
			"0.013": 1.89448542339,
			"0.014": 1.37571350148,
			"0.015": 0.164838225094,
			"0.016": 0.0,
			"0.017": 0.0,
			"0.018": 0.0,
			"0.019": 0.0,
			"0.02": 0.0,
			"0.021": 0.0,
			"0.022": 0.0,
			"0.023": 0.0,
			"0.024": 0.0,
			"0.025": 0.0
		}
	}
}
