{
	 "smiles": "COC1=C(C=CC=C1F)C(O)=O", 
	 "Tm": 386.15, 
	 "num_atms": 19, 
	 "gaussian": { 
		 "optdone": 1, 
		 "sigma_profile": "yes", 
		 "theory": "DFT", 
		 "functional": "B3LYP", 
		 "basiset": "6-31G**", 
		 "properties": { 
			 "R2extent": 2211.5324, 
			 "electric_dipole_moment_norm": 1.9572154046, 
			 "electric_quadrupole_moment_norm": 10.5144086886, 
			 "total_energy": -634.567745151, 
			 "HOMO_LUMO_gap": 0.19439, 
			 "cosmo_polarized_energy": -10.22, 
			 "cosmo_cavitation_energy": 23.96, 
			 "cosmo_dispersion_energy": -17.46, 
			 "cosmo_repulsion_energy": 1.37, 
			 "cosmo_total_nonelectrostatic_energy": 7.87, 
			 "SMD_solvation_energy": 6.65 
		},
		"coords": [
			{
				"x": -0.5866141613,
				"y": 3.379214097,
				"z": -0.474329013,
				"element": "C" 
			},
			{
				"x": -0.7519052746,
				"y": 2.4495608605,
				"z": 0.6028399336,
				"element": "O" 
			},
			{
				"x": -0.1663113869,
				"y": 1.2306650657,
				"z": 0.4362432591,
				"element": "C" 
			},
			{
				"x": -0.9159808323,
				"y": 0.0529952007,
				"z": 0.2463996641,
				"element": "C" 
			},
			{
				"x": -0.2599307731,
				"y": -1.1899691823,
				"z": 0.2181831536,
				"element": "C" 
			},
			{
				"x": 1.1218868111,
				"y": -1.2751976289,
				"z": 0.3339520807,
				"element": "C" 
			},
			{
				"x": 1.8792667181,
				"y": -0.1118697847,
				"z": 0.4978414385,
				"element": "C" 
			},
			{
				"x": 1.2273271877,
				"y": 1.1092507986,
				"z": 0.5516171966,
				"element": "C" 
			},
			{
				"x": 1.948618633,
				"y": 2.2362051464,
				"z": 0.7329749551,
				"element": "F" 
			},
			{
				"x": -2.3979973592,
				"y": 0.0135196924,
				"z": 0.068606225,
				"element": "C" 
			},
			{
				"x": -2.9601416973,
				"y": 1.1931577606,
				"z": -0.2774313676,
				"element": "O" 
			},
			{
				"x": -3.0593207913,
				"y": -1.0013015967,
				"z": 0.1783446432,
				"element": "O" 
			},
			{
				"x": -1.0683176776,
				"y": 4.3029453357,
				"z": -0.1500996149,
				"element": "H" 
			},
			{
				"x": 0.4720575973,
				"y": 3.5713713296,
				"z": -0.6747673176,
				"element": "H" 
			},
			{
				"x": -1.081817232,
				"y": 3.0099263925,
				"z": -1.3790181165,
				"element": "H" 
			},
			{
				"x": -0.8691108631,
				"y": -2.0779367838,
				"z": 0.0943698113,
				"element": "H" 
			},
			{
				"x": 1.6152898071,
				"y": -2.2409534376,
				"z": 0.3001471466,
				"element": "H" 
			},
			{
				"x": 2.9592768341,
				"y": -0.136251113,
				"z": 0.598448945,
				"element": "H" 
			},
			{
				"x": -3.9087755396,
				"y": 1.0026678471,
				"z": -0.3733230228,
				"element": "H" 
			}
		],
		 "valence_orbital": [ 
			{
				"type": "occ",
				"energy": -0.31894,
				"method": "rhf"
			},
			{
				"type": "occ",
				"energy": -0.28487,
				"method": "rhf"
			},
			{
				"type": "occ",
				"energy": -0.28082,
				"method": "rhf"
			},
			{
				"type": "occ",
				"energy": -0.26313,
				"method": "rhf"
			},
			{
				"type": "occ",
				"energy": -0.24546,
				"method": "rhf"
			},
			{
				"type": "unocc",
				"energy": -0.05107,
				"method": "rhf"
			},
			{
				"type": "unocc",
				"energy": -0.00866,
				"method": "rhf"
			},
			{
				"type": "unocc",
				"energy": 0.05051,
				"method": "rhf"
			},
			{
				"type": "unocc",
				"energy": 0.07436,
				"method": "rhf"
			},
			{
				"type": "unocc",
				"energy": 0.0802,
				"method": "rhf"
			}
		],
		"cosmo_sigma_profile": { 
			"-0.025": 0.0,
			"-0.024": 0.0,
			"-0.023": 0.0,
			"-0.022": 0.0,
			"-0.021": 0.0,
			"-0.02": 0.0,
			"-0.019": 0.0449144239573,
			"-0.018": 0.654290768602,
			"-0.017": 0.876353781779,
			"-0.016": 0.802128808931,
			"-0.015": 0.722804525631,
			"-0.014": 1.14676371176,
			"-0.013": 0.501421905343,
			"-0.012": 0.320429402389,
			"-0.011": 0.978010387057,
			"-0.01": 0.739447151692,
			"-0.009": 0.428019468402,
			"-0.008": 2.48192061382,
			"-0.007": 4.44928286584,
			"-0.006": 8.72304964098,
			"-0.005": 10.7777242269,
			"-0.004": 12.0440670799,
			"-0.003": 17.1583528881,
			"-0.002": 14.0528001944,
			"-0.001": 12.7741356636,
			"0.0": 16.0756165846,
			"0.001": 15.0522502395,
			"0.002": 13.5415008313,
			"0.003": 14.8076140561,
			"0.004": 10.817994604,
			"0.005": 6.3608295759,
			"0.006": 3.28578428827,
			"0.007": 1.97971874207,
			"0.008": 3.46870063859,
			"0.009": 3.14434230074,
			"0.01": 3.74479731232,
			"0.011": 5.48762068457,
			"0.012": 4.14367307394,
			"0.013": 0.0412497591256,
			"0.014": 0.0,
			"0.015": 0.0,
			"0.016": 0.0,
			"0.017": 0.0,
			"0.018": 0.0,
			"0.019": 0.0,
			"0.02": 0.0,
			"0.021": 0.0,
			"0.022": 0.0,
			"0.023": 0.0,
			"0.024": 0.0,
			"0.025": 0.0
		}
	}
}
