{
	 "smiles": "COP(=S)(OC)OC1=C(Cl)C=C(C)C=C1Cl", 
	 "Tm": 352.15, 
	 "num_atms": 27, 
	 "gaussian": { 
		 "optdone": 1, 
		 "sigma_profile": "yes", 
		 "theory": "DFT", 
		 "functional": "B3LYP", 
		 "basiset": "6-31G**", 
		 "properties": { 
			 "R2extent": 5561.2342, 
			 "electric_dipole_moment_norm": 4.81627475649, 
			 "electric_quadrupole_moment_norm": 18.7170694466, 
			 "total_energy": -2235.23602421, 
			 "HOMO_LUMO_gap": 0.21349, 
			 "cosmo_polarized_energy": -11.85, 
			 "cosmo_cavitation_energy": 37.56, 
			 "cosmo_dispersion_energy": -26.03, 
			 "cosmo_repulsion_energy": 1.98, 
			 "cosmo_total_nonelectrostatic_energy": 13.5, 
			 "SMD_solvation_energy": 7.22 
		},
		"coords": [
			{
				"x": 0.2249458663,
				"y": 3.0633267517,
				"z": 1.2614480779,
				"element": "C" 
			},
			{
				"x": 0.4668022347,
				"y": 1.9526138199,
				"z": 0.3765985863,
				"element": "O" 
			},
			{
				"x": -0.7464856521,
				"y": 1.0982175653,
				"z": -0.2611418743,
				"element": "P" 
			},
			{
				"x": -2.2997885093,
				"y": 2.1030824473,
				"z": -0.8120144853,
				"element": "S" 
			},
			{
				"x": 0.0688317535,
				"y": 0.2255872401,
				"z": -1.3354223358,
				"element": "O" 
			},
			{
				"x": 0.5796178382,
				"y": 0.8444244851,
				"z": -2.5312681949,
				"element": "C" 
			},
			{
				"x": -1.1111056625,
				"y": -0.0600185906,
				"z": 0.8398920731,
				"element": "O" 
			},
			{
				"x": -0.4533830819,
				"y": -1.2568181689,
				"z": 1.0192879348,
				"element": "C" 
			},
			{
				"x": -0.8205341234,
				"y": -2.3947038737,
				"z": 0.2836276447,
				"element": "C" 
			},
			{
				"x": -2.0792439321,
				"y": -2.2786889441,
				"z": -0.9192347627,
				"element": "Cl" 
			},
			{
				"x": -0.2150019965,
				"y": -3.6268627439,
				"z": 0.5161706652,
				"element": "C" 
			},
			{
				"x": 0.768075107,
				"y": -3.7670395278,
				"z": 1.5016304261,
				"element": "C" 
			},
			{
				"x": 1.4476446472,
				"y": -5.0966112186,
				"z": 1.7291193406,
				"element": "C" 
			},
			{
				"x": 1.1137141252,
				"y": -2.6463067694,
				"z": 2.2615470734,
				"element": "C" 
			},
			{
				"x": 0.5081722006,
				"y": -1.4129357529,
				"z": 2.0262204128,
				"element": "C" 
			},
			{
				"x": 0.9383391068,
				"y": -0.0581660467,
				"z": 3.0457047129,
				"element": "Cl" 
			},
			{
				"x": -0.4870798814,
				"y": 3.760765858,
				"z": 0.8130787031,
				"element": "H" 
			},
			{
				"x": -0.1547091816,
				"y": 2.705554866,
				"z": 2.2218363147,
				"element": "H" 
			},
			{
				"x": 1.1912630584,
				"y": 3.5483297831,
				"z": 1.4045282694,
				"element": "H" 
			},
			{
				"x": 1.3593900614,
				"y": 1.5679388737,
				"z": -2.2783569722,
				"element": "H" 
			},
			{
				"x": -0.2277795538,
				"y": 1.3368768769,
				"z": -3.0801656076,
				"element": "H" 
			},
			{
				"x": 0.9998695309,
				"y": 0.0376456262,
				"z": -3.1321533868,
				"element": "H" 
			},
			{
				"x": -0.5255854267,
				"y": -4.4815760935,
				"z": -0.0752550096,
				"element": "H" 
			},
			{
				"x": 0.7631755062,
				"y": -5.9300827034,
				"z": 1.5466950956,
				"element": "H" 
			},
			{
				"x": 1.8229453825,
				"y": -5.1826185157,
				"z": 2.752518742,
				"element": "H" 
			},
			{
				"x": 2.3026337074,
				"y": -5.2214569741,
				"z": 1.0535886895,
				"element": "H" 
			},
			{
				"x": 1.8535768748,
				"y": -2.72377827,
				"z": 3.0509198671,
				"element": "H" 
			}
		],
		 "valence_orbital": [ 
			{
				"type": "occ",
				"energy": -0.31295,
				"method": "rhf"
			},
			{
				"type": "occ",
				"energy": -0.25298,
				"method": "rhf"
			},
			{
				"type": "occ",
				"energy": -0.24952,
				"method": "rhf"
			},
			{
				"type": "occ",
				"energy": -0.24679,
				"method": "rhf"
			},
			{
				"type": "occ",
				"energy": -0.24082,
				"method": "rhf"
			},
			{
				"type": "unocc",
				"energy": -0.02733,
				"method": "rhf"
			},
			{
				"type": "unocc",
				"energy": -0.02411,
				"method": "rhf"
			},
			{
				"type": "unocc",
				"energy": -0.0003,
				"method": "rhf"
			},
			{
				"type": "unocc",
				"energy": 0.04162,
				"method": "rhf"
			},
			{
				"type": "unocc",
				"energy": 0.04942,
				"method": "rhf"
			}
		],
		"cosmo_sigma_profile": { 
			"-0.025": 0.0,
			"-0.024": 0.0,
			"-0.023": 0.0,
			"-0.022": 0.0,
			"-0.021": 0.0,
			"-0.02": 0.0,
			"-0.019": 0.0,
			"-0.018": 0.0,
			"-0.017": 0.0,
			"-0.016": 0.0,
			"-0.015": 0.0,
			"-0.014": 0.0,
			"-0.013": 0.0,
			"-0.012": 0.0,
			"-0.011": 0.0,
			"-0.01": 0.0,
			"-0.009": 0.0,
			"-0.008": 1.23876966193,
			"-0.007": 8.47721613795,
			"-0.006": 13.8069545852,
			"-0.005": 23.9335306137,
			"-0.004": 26.6062481558,
			"-0.003": 22.4706667754,
			"-0.002": 22.5425054325,
			"-0.001": 22.2237952603,
			"0.0": 25.5407749204,
			"0.001": 23.9575165546,
			"0.002": 24.3718642323,
			"0.003": 21.5319715031,
			"0.004": 22.5100155025,
			"0.005": 12.4212444732,
			"0.006": 11.5783848496,
			"0.007": 9.26065570726,
			"0.008": 7.92674163315,
			"0.009": 3.35376758791,
			"0.01": 0.0,
			"0.011": 0.0,
			"0.012": 0.0,
			"0.013": 0.0,
			"0.014": 0.0,
			"0.015": 0.0,
			"0.016": 0.0,
			"0.017": 0.0,
			"0.018": 0.0,
			"0.019": 0.0,
			"0.02": 0.0,
			"0.021": 0.0,
			"0.022": 0.0,
			"0.023": 0.0,
			"0.024": 0.0,
			"0.025": 0.0
		}
	}
}
