{
	 "smiles": "OC(=O)CN(CC1=CN=CC=C1)C1=CC=CC=C1", 
	 "Tm": 410.15, 
	 "num_atms": 32, 
	 "gaussian": { 
		 "optdone": 1, 
		 "sigma_profile": "yes", 
		 "theory": "DFT", 
		 "functional": "B3LYP", 
		 "basiset": "6-31G**", 
		 "properties": { 
			 "R2extent": 5653.0922, 
			 "electric_dipole_moment_norm": 2.47887984783, 
			 "electric_quadrupole_moment_norm": 16.4172122235, 
			 "total_energy": -801.875295427, 
			 "HOMO_LUMO_gap": 0.17048, 
			 "cosmo_polarized_energy": -16.29, 
			 "cosmo_cavitation_energy": 35.92, 
			 "cosmo_dispersion_energy": -25.05, 
			 "cosmo_repulsion_energy": 1.94, 
			 "cosmo_total_nonelectrostatic_energy": 12.81, 
			 "SMD_solvation_energy": 5.73 
		},
		"coords": [
			{
				"x": -2.2490347043,
				"y": 3.8217264583,
				"z": -2.445301294,
				"element": "O" 
			},
			{
				"x": -1.7163136349,
				"y": 3.1322395608,
				"z": -1.4093328352,
				"element": "C" 
			},
			{
				"x": -1.5823392854,
				"y": 3.5971951453,
				"z": -0.3009636662,
				"element": "O" 
			},
			{
				"x": -1.3638861961,
				"y": 1.7039358083,
				"z": -1.8308655243,
				"element": "C" 
			},
			{
				"x": -0.5241493632,
				"y": 0.9970766658,
				"z": -0.9001034069,
				"element": "N" 
			},
			{
				"x": -1.1903415061,
				"y": 0.4681592055,
				"z": 0.2848880235,
				"element": "C" 
			},
			{
				"x": -1.8151457618,
				"y": -0.9071107786,
				"z": 0.106147516,
				"element": "C" 
			},
			{
				"x": -1.375192491,
				"y": -1.8068118089,
				"z": -0.8726092225,
				"element": "C" 
			},
			{
				"x": -1.8759017371,
				"y": -3.0374777734,
				"z": -1.0451462185,
				"element": "N" 
			},
			{
				"x": -2.8593124849,
				"y": -3.4230351722,
				"z": -0.2245146509,
				"element": "C" 
			},
			{
				"x": -3.3817584108,
				"y": -2.6091393498,
				"z": 0.7828634719,
				"element": "C" 
			},
			{
				"x": -2.8513955306,
				"y": -1.3320699471,
				"z": 0.9448413006,
				"element": "C" 
			},
			{
				"x": 0.8699815708,
				"y": 1.1502416133,
				"z": -0.9435603697,
				"element": "C" 
			},
			{
				"x": 1.7071438542,
				"y": 0.2735230598,
				"z": -0.2220061002,
				"element": "C" 
			},
			{
				"x": 3.0920991561,
				"y": 0.4041573584,
				"z": -0.2762994312,
				"element": "C" 
			},
			{
				"x": 3.6902266909,
				"y": 1.3938814889,
				"z": -1.058718828,
				"element": "C" 
			},
			{
				"x": 2.8708021916,
				"y": 2.2562962761,
				"z": -1.7857154741,
				"element": "C" 
			},
			{
				"x": 1.4816677048,
				"y": 2.1469014796,
				"z": -1.72937002,
				"element": "C" 
			},
			{
				"x": -2.4871874441,
				"y": 4.6991083078,
				"z": -2.1002757918,
				"element": "H" 
			},
			{
				"x": -0.914319737,
				"y": 1.7265306863,
				"z": -2.8272583661,
				"element": "H" 
			},
			{
				"x": -2.3125382633,
				"y": 1.16284964,
				"z": -1.9441371604,
				"element": "H" 
			},
			{
				"x": -0.4656962399,
				"y": 0.4424496567,
				"z": 1.1046261845,
				"element": "H" 
			},
			{
				"x": -1.9607033237,
				"y": 1.1796620908,
				"z": 0.6073495325,
				"element": "H" 
			},
			{
				"x": -0.5815920741,
				"y": -1.5092437595,
				"z": -1.5545498007,
				"element": "H" 
			},
			{
				"x": -3.2511012052,
				"y": -4.4267733117,
				"z": -0.3808242711,
				"element": "H" 
			},
			{
				"x": -4.1870651874,
				"y": -2.9674147285,
				"z": 1.416831131,
				"element": "H" 
			},
			{
				"x": -3.2382217332,
				"y": -0.6674183152,
				"z": 1.7146734562,
				"element": "H" 
			},
			{
				"x": 1.2749864965,
				"y": -0.5344189816,
				"z": 0.358846825,
				"element": "H" 
			},
			{
				"x": 3.708187921,
				"y": -0.289599163,
				"z": 0.2892614535,
				"element": "H" 
			},
			{
				"x": 4.7705895771,
				"y": 1.4878859655,
				"z": -1.1023858127,
				"element": "H" 
			},
			{
				"x": 3.3108968371,
				"y": 3.0386687381,
				"z": -2.39810543,
				"element": "H" 
			},
			{
				"x": 0.8814143141,
				"y": 2.8575238838,
				"z": -2.2860852203,
				"element": "H" 
			}
		],
		 "valence_orbital": [ 
			{
				"type": "occ",
				"energy": -0.28049,
				"method": "rhf"
			},
			{
				"type": "occ",
				"energy": -0.25769,
				"method": "rhf"
			},
			{
				"type": "occ",
				"energy": -0.25077,
				"method": "rhf"
			},
			{
				"type": "occ",
				"energy": -0.24472,
				"method": "rhf"
			},
			{
				"type": "occ",
				"energy": -0.19713,
				"method": "rhf"
			},
			{
				"type": "unocc",
				"energy": -0.02665,
				"method": "rhf"
			},
			{
				"type": "unocc",
				"energy": -0.01127,
				"method": "rhf"
			},
			{
				"type": "unocc",
				"energy": -0.00503,
				"method": "rhf"
			},
			{
				"type": "unocc",
				"energy": 0.00702,
				"method": "rhf"
			},
			{
				"type": "unocc",
				"energy": 0.01619,
				"method": "rhf"
			}
		],
		"cosmo_sigma_profile": { 
			"-0.025": 0.0,
			"-0.024": 0.0,
			"-0.023": 0.0,
			"-0.022": 0.0,
			"-0.021": 0.0,
			"-0.02": 0.0,
			"-0.019": 0.0464697549072,
			"-0.018": 0.917635196964,
			"-0.017": 0.759506565909,
			"-0.016": 1.1836868278,
			"-0.015": 0.728002942346,
			"-0.014": 0.729666035017,
			"-0.013": 0.421589468825,
			"-0.012": 0.47965475629,
			"-0.011": 0.888333546537,
			"-0.01": 1.25220543835,
			"-0.009": 0.584091494612,
			"-0.008": 2.48254861834,
			"-0.007": 9.50024596796,
			"-0.006": 18.4255173985,
			"-0.005": 25.7002374379,
			"-0.004": 22.7937595337,
			"-0.003": 21.9606387034,
			"-0.002": 19.914584724,
			"-0.001": 15.6283707919,
			"0.0": 15.6693297153,
			"0.001": 15.4552960095,
			"0.002": 18.3852976954,
			"0.003": 19.6709627995,
			"0.004": 11.6920997989,
			"0.005": 11.6626623417,
			"0.006": 13.4957513454,
			"0.007": 10.7019481286,
			"0.008": 4.31301450089,
			"0.009": 4.62165474973,
			"0.01": 3.6807033948,
			"0.011": 5.36743873721,
			"0.012": 2.66773646035,
			"0.013": 1.30005861983,
			"0.014": 1.13220438766,
			"0.015": 0.570193341379,
			"0.016": 0.931867630391,
			"0.017": 0.617809005561,
			"0.018": 0.00353420461122,
			"0.019": 0.0,
			"0.02": 0.0,
			"0.021": 0.0,
			"0.022": 0.0,
			"0.023": 0.0,
			"0.024": 0.0,
			"0.025": 0.0
		}
	}
}
