{
	 "smiles": "OC(=O)CCCCC1=CC=CC=C1", 
	 "Tm": 331.35, 
	 "num_atms": 27, 
	 "gaussian": { 
		 "optdone": 1, 
		 "sigma_profile": "yes", 
		 "theory": "DFT", 
		 "functional": "B3LYP", 
		 "basiset": "6-31G**", 
		 "properties": { 
			 "R2extent": 4124.2473, 
			 "electric_dipole_moment_norm": 1.40145547914, 
			 "electric_quadrupole_moment_norm": 12.6832798014, 
			 "total_energy": -578.085702836, 
			 "HOMO_LUMO_gap": 0.23977, 
			 "cosmo_polarized_energy": -10.56, 
			 "cosmo_cavitation_energy": 30.57, 
			 "cosmo_dispersion_energy": -21.46, 
			 "cosmo_repulsion_energy": 1.74, 
			 "cosmo_total_nonelectrostatic_energy": 10.85, 
			 "SMD_solvation_energy": 5.82 
		},
		"coords": [
			{
				"x": -1.0564491776,
				"y": 0.6217957313,
				"z": 4.3104470633,
				"element": "O" 
			},
			{
				"x": -0.4598330987,
				"y": -0.3971942027,
				"z": 3.6427943578,
				"element": "C" 
			},
			{
				"x": -0.8115165096,
				"y": -1.5497176906,
				"z": 3.7731051254,
				"element": "O" 
			},
			{
				"x": 0.6785685761,
				"y": 0.0985183337,
				"z": 2.7752211874,
				"element": "C" 
			},
			{
				"x": 1.19451877,
				"y": -0.9540360211,
				"z": 1.7865956144,
				"element": "C" 
			},
			{
				"x": 0.2259824152,
				"y": -1.3074073248,
				"z": 0.6457929464,
				"element": "C" 
			},
			{
				"x": -0.0277725597,
				"y": -0.1597875074,
				"z": -0.3544459224,
				"element": "C" 
			},
			{
				"x": -0.9332323402,
				"y": -0.5703672444,
				"z": -1.4965487544,
				"element": "C" 
			},
			{
				"x": -0.4018251987,
				"y": -1.0947364025,
				"z": -2.6827456473,
				"element": "C" 
			},
			{
				"x": -1.235660011,
				"y": -1.5088020869,
				"z": -3.7225595593,
				"element": "C" 
			},
			{
				"x": -2.6217119445,
				"y": -1.4049472468,
				"z": -3.5927073471,
				"element": "C" 
			},
			{
				"x": -3.1651246837,
				"y": -0.8834987691,
				"z": -2.4170447194,
				"element": "C" 
			},
			{
				"x": -2.3266562867,
				"y": -0.4706028266,
				"z": -1.380834161,
				"element": "C" 
			},
			{
				"x": -1.7471208268,
				"y": 0.2144027527,
				"z": 4.8600593735,
				"element": "H" 
			},
			{
				"x": 1.480097673,
				"y": 0.4041380659,
				"z": 3.460996055,
				"element": "H" 
			},
			{
				"x": 0.3567178756,
				"y": 1.0199838937,
				"z": 2.2785670624,
				"element": "H" 
			},
			{
				"x": 2.1408326919,
				"y": -0.594310115,
				"z": 1.3628730014,
				"element": "H" 
			},
			{
				"x": 1.4242851954,
				"y": -1.865755984,
				"z": 2.3477591131,
				"element": "H" 
			},
			{
				"x": 0.6348429834,
				"y": -2.1626773845,
				"z": 0.0941011544,
				"element": "H" 
			},
			{
				"x": -0.7268618156,
				"y": -1.64771506,
				"z": 1.0666948453,
				"element": "H" 
			},
			{
				"x": -0.4725197055,
				"y": 0.6973371079,
				"z": 0.16584872,
				"element": "H" 
			},
			{
				"x": 0.9348895811,
				"y": 0.1846387008,
				"z": -0.7543232534,
				"element": "H" 
			},
			{
				"x": 0.6773586691,
				"y": -1.1746923456,
				"z": -2.7933590024,
				"element": "H" 
			},
			{
				"x": -0.8025149428,
				"y": -1.9085124614,
				"z": -4.6354400603,
				"element": "H" 
			},
			{
				"x": -3.2725320727,
				"y": -1.7237918554,
				"z": -4.4018629629,
				"element": "H" 
			},
			{
				"x": -4.242533272,
				"y": -0.7942858746,
				"z": -2.3078542253,
				"element": "H" 
			},
			{
				"x": -2.7579299849,
				"y": -0.0617761825,
				"z": -0.4697300045,
				"element": "H" 
			}
		],
		 "valence_orbital": [ 
			{
				"type": "occ",
				"energy": -0.32094,
				"method": "rhf"
			},
			{
				"type": "occ",
				"energy": -0.31717,
				"method": "rhf"
			},
			{
				"type": "occ",
				"energy": -0.27533,
				"method": "rhf"
			},
			{
				"type": "occ",
				"energy": -0.24441,
				"method": "rhf"
			},
			{
				"type": "occ",
				"energy": -0.23596,
				"method": "rhf"
			},
			{
				"type": "unocc",
				"energy": 0.00381,
				"method": "rhf"
			},
			{
				"type": "unocc",
				"energy": 0.00442,
				"method": "rhf"
			},
			{
				"type": "unocc",
				"energy": 0.0091,
				"method": "rhf"
			},
			{
				"type": "unocc",
				"energy": 0.07849,
				"method": "rhf"
			},
			{
				"type": "unocc",
				"energy": 0.08652,
				"method": "rhf"
			}
		],
		"cosmo_sigma_profile": { 
			"-0.025": 0.0,
			"-0.024": 0.0,
			"-0.023": 0.0,
			"-0.022": 0.0,
			"-0.021": 0.0,
			"-0.02": 0.0,
			"-0.019": 0.00109559748832,
			"-0.018": 0.537193441891,
			"-0.017": 0.889521090844,
			"-0.016": 1.05765911251,
			"-0.015": 0.506030298877,
			"-0.014": 0.837919669627,
			"-0.013": 0.464785449332,
			"-0.012": 0.658136956208,
			"-0.011": 0.757473118213,
			"-0.01": 0.535268614413,
			"-0.009": 0.566094225764,
			"-0.008": 0.568184126546,
			"-0.007": 1.57745201702,
			"-0.006": 5.87671407932,
			"-0.005": 14.7142413543,
			"-0.004": 19.1737278726,
			"-0.003": 28.3342340738,
			"-0.002": 28.5420902641,
			"-0.001": 22.7747136341,
			"0.0": 18.5953262718,
			"0.001": 14.3866488549,
			"0.002": 11.213105734,
			"0.003": 10.7002489714,
			"0.004": 10.7575012256,
			"0.005": 10.0167416565,
			"0.006": 11.7985605496,
			"0.007": 7.26474251277,
			"0.008": 2.81253421284,
			"0.009": 3.37790462845,
			"0.01": 2.5877910568,
			"0.011": 3.09857806475,
			"0.012": 4.61498972338,
			"0.013": 0.543857099168,
			"0.014": 0.0,
			"0.015": 0.0,
			"0.016": 0.0,
			"0.017": 0.0,
			"0.018": 0.0,
			"0.019": 0.0,
			"0.02": 0.0,
			"0.021": 0.0,
			"0.022": 0.0,
			"0.023": 0.0,
			"0.024": 0.0,
			"0.025": 0.0
		}
	}
}
