{
	 "smiles": "O=C1NC2(CCCCC2)NC2=C1CCCC2", 
	 "Tm": 467.15, 
	 "num_atms": 36, 
	 "gaussian": { 
		 "optdone": 1, 
		 "sigma_profile": "yes", 
		 "theory": "DFT", 
		 "functional": "B3LYP", 
		 "basiset": "6-31G**", 
		 "properties": { 
			 "R2extent": 4184.9775, 
			 "electric_dipole_moment_norm": 5.28061840034, 
			 "electric_quadrupole_moment_norm": 15.1523303277, 
			 "total_energy": -692.20594257, 
			 "HOMO_LUMO_gap": 0.18937, 
			 "cosmo_polarized_energy": -15.71, 
			 "cosmo_cavitation_energy": 34.33, 
			 "cosmo_dispersion_energy": -25.16, 
			 "cosmo_repulsion_energy": 1.96, 
			 "cosmo_total_nonelectrostatic_energy": 11.14, 
			 "SMD_solvation_energy": 3.5 
		},
		"coords": [
			{
				"x": -1.2323280226,
				"y": 2.901764789,
				"z": -1.2763473733,
				"element": "O" 
			},
			{
				"x": -0.7302062356,
				"y": 1.7903822204,
				"z": -1.1124257451,
				"element": "C" 
			},
			{
				"x": -1.5046061996,
				"y": 0.6405179076,
				"z": -1.2171353169,
				"element": "N" 
			},
			{
				"x": -1.1055916538,
				"y": -0.6471295234,
				"z": -0.6530589105,
				"element": "C" 
			},
			{
				"x": -1.332189818,
				"y": -0.7074939967,
				"z": 0.8849303685,
				"element": "C" 
			},
			{
				"x": -2.8212321054,
				"y": -0.684262405,
				"z": 1.261453022,
				"element": "C" 
			},
			{
				"x": -3.5875000959,
				"y": -1.8226127807,
				"z": 0.5708473025,
				"element": "C" 
			},
			{
				"x": -3.3879696968,
				"y": -1.7870450788,
				"z": -0.9522025396,
				"element": "C" 
			},
			{
				"x": -1.8985867473,
				"y": -1.7805072001,
				"z": -1.3345773004,
				"element": "C" 
			},
			{
				"x": 0.3163123155,
				"y": -0.8006426443,
				"z": -0.981242661,
				"element": "N" 
			},
			{
				"x": 1.1682834661,
				"y": 0.2842864809,
				"z": -0.8455482799,
				"element": "C" 
			},
			{
				"x": 0.7041990083,
				"y": 1.562067572,
				"z": -0.8846772589,
				"element": "C" 
			},
			{
				"x": 1.6086982833,
				"y": 2.7695796054,
				"z": -0.80956297,
				"element": "C" 
			},
			{
				"x": 3.0695795403,
				"y": 2.4150984468,
				"z": -1.113479242,
				"element": "C" 
			},
			{
				"x": 3.4946861143,
				"y": 1.1584255183,
				"z": -0.34381113,
				"element": "C" 
			},
			{
				"x": 2.6398831464,
				"y": -0.049120468,
				"z": -0.7547753779,
				"element": "C" 
			},
			{
				"x": -2.4938803563,
				"y": 0.8357225243,
				"z": -1.2844164893,
				"element": "H" 
			},
			{
				"x": -0.8813967505,
				"y": -1.6381738172,
				"z": 1.2593367881,
				"element": "H" 
			},
			{
				"x": -0.7940060003,
				"y": 0.1232605388,
				"z": 1.3532820301,
				"element": "H" 
			},
			{
				"x": -3.2562327312,
				"y": 0.2823800137,
				"z": 0.9742327151,
				"element": "H" 
			},
			{
				"x": -2.9296005575,
				"y": -0.7551749956,
				"z": 2.3497089303,
				"element": "H" 
			},
			{
				"x": -4.6549758376,
				"y": -1.7682981937,
				"z": 0.813841847,
				"element": "H" 
			},
			{
				"x": -3.227250042,
				"y": -2.7863416424,
				"z": 0.9584442741,
				"element": "H" 
			},
			{
				"x": -3.879049092,
				"y": -2.6457889076,
				"z": -1.4238636322,
				"element": "H" 
			},
			{
				"x": -3.8842324118,
				"y": -0.8980627296,
				"z": -1.3664762228,
				"element": "H" 
			},
			{
				"x": -1.7644009378,
				"y": -1.6936720307,
				"z": -2.4170088264,
				"element": "H" 
			},
			{
				"x": -1.4495367432,
				"y": -2.7351168,
				"z": -1.0256734537,
				"element": "H" 
			},
			{
				"x": 0.7031750668,
				"y": -1.686847089,
				"z": -0.6837266798,
				"element": "H" 
			},
			{
				"x": 1.5411758008,
				"y": 3.2275661154,
				"z": 0.1888618201,
				"element": "H" 
			},
			{
				"x": 1.233849876,
				"y": 3.5295970092,
				"z": -1.5024629776,
				"element": "H" 
			},
			{
				"x": 3.7244208889,
				"y": 3.2564460723,
				"z": -0.8600254058,
				"element": "H" 
			},
			{
				"x": 3.1877639352,
				"y": 2.2344229604,
				"z": -2.1905141276,
				"element": "H" 
			},
			{
				"x": 4.553353735,
				"y": 0.9314693818,
				"z": -0.5124139293,
				"element": "H" 
			},
			{
				"x": 3.3771919647,
				"y": 1.337238275,
				"z": 0.7330519825,
				"element": "H" 
			},
			{
				"x": 2.7852440799,
				"y": -0.8784410193,
				"z": -0.0480165594,
				"element": "H" 
			},
			{
				"x": 2.965754814,
				"y": -0.4273941092,
				"z": -1.734748671,
				"element": "H" 
			}
		],
		 "valence_orbital": [ 
			{
				"type": "occ",
				"energy": -0.31206,
				"method": "rhf"
			},
			{
				"type": "occ",
				"energy": -0.29763,
				"method": "rhf"
			},
			{
				"type": "occ",
				"energy": -0.24003,
				"method": "rhf"
			},
			{
				"type": "occ",
				"energy": -0.22682,
				"method": "rhf"
			},
			{
				"type": "occ",
				"energy": -0.19501,
				"method": "rhf"
			},
			{
				"type": "unocc",
				"energy": -0.00564,
				"method": "rhf"
			},
			{
				"type": "unocc",
				"energy": 0.06299,
				"method": "rhf"
			},
			{
				"type": "unocc",
				"energy": 0.07812,
				"method": "rhf"
			},
			{
				"type": "unocc",
				"energy": 0.08851,
				"method": "rhf"
			},
			{
				"type": "unocc",
				"energy": 0.09607,
				"method": "rhf"
			}
		],
		"cosmo_sigma_profile": { 
			"-0.025": 0.0,
			"-0.024": 0.0,
			"-0.023": 0.0,
			"-0.022": 0.0,
			"-0.021": 0.0,
			"-0.02": 0.0,
			"-0.019": 0.0,
			"-0.018": 0.0,
			"-0.017": 0.0,
			"-0.016": 0.0,
			"-0.015": 0.0,
			"-0.014": 0.0,
			"-0.013": 0.448900214718,
			"-0.012": 1.37195858672,
			"-0.011": 1.44168252618,
			"-0.01": 2.83215135199,
			"-0.009": 2.95576650421,
			"-0.008": 2.93503790588,
			"-0.007": 3.74227096454,
			"-0.006": 4.80885476879,
			"-0.005": 4.75639008724,
			"-0.004": 10.0891729073,
			"-0.003": 23.3335775934,
			"-0.002": 40.2119476332,
			"-0.001": 46.2598606769,
			"0.0": 42.1287908907,
			"0.001": 25.8771894024,
			"0.002": 6.10837364686,
			"0.003": 5.47656343853,
			"0.004": 5.29158666193,
			"0.005": 3.76352880953,
			"0.006": 3.93027922727,
			"0.007": 3.05614380116,
			"0.008": 2.95940522832,
			"0.009": 2.80810787031,
			"0.01": 2.93967634779,
			"0.011": 1.63096133677,
			"0.012": 1.08966046305,
			"0.013": 1.51762482703,
			"0.014": 3.38910781144,
			"0.015": 6.06222405638,
			"0.016": 1.51151013352,
			"0.017": 0.0,
			"0.018": 0.0,
			"0.019": 0.0,
			"0.02": 0.0,
			"0.021": 0.0,
			"0.022": 0.0,
			"0.023": 0.0,
			"0.024": 0.0,
			"0.025": 0.0
		}
	}
}
