{
	 "smiles": "CC(=O)NC1=CC=C(C=C1)N=NC1=CC=C(C=C1)N=NC1=CC=C(C=C1)N=NC1=CC=C(NC(C)=O)C=C1", 
	 "Tm": 519.15, 
	 "num_atms": 62, 
	 "gaussian": { 
		 "optdone": 1, 
		 "sigma_profile": "yes", 
		 "theory": "DFT", 
		 "functional": "B3LYP", 
		 "basiset": "6-31G**", 
		 "properties": { 
			 "R2extent": 55990.4216, 
			 "electric_dipole_moment_norm": 4.93186033257, 
			 "electric_quadrupole_moment_norm": 82.5497201873, 
			 "total_energy": -1669.79981921, 
			 "HOMO_LUMO_gap": 0.09858, 
			 "cosmo_polarized_energy": -31.22, 
			 "cosmo_cavitation_energy": 70.57, 
			 "cosmo_dispersion_energy": -49.7, 
			 "cosmo_repulsion_energy": 3.68, 
			 "cosmo_total_nonelectrostatic_energy": 24.55, 
			 "SMD_solvation_energy": 8.87 
		},
		"coords": [
			{
				"x": 10.9686646926,
				"y": 0.0597196698,
				"z": 4.1156355404,
				"element": "C" 
			},
			{
				"x": 11.3421692198,
				"y": 1.5008792344,
				"z": 3.8355284995,
				"element": "C" 
			},
			{
				"x": 12.4883709495,
				"y": 1.9071559476,
				"z": 3.9492971861,
				"element": "O" 
			},
			{
				"x": 10.3593442392,
				"y": 2.3893089168,
				"z": 3.4101008032,
				"element": "N" 
			},
			{
				"x": 8.9841718191,
				"y": 2.2584431683,
				"z": 3.1615820298,
				"element": "C" 
			},
			{
				"x": 8.1417299199,
				"y": 1.3949851017,
				"z": 3.8807666864,
				"element": "C" 
			},
			{
				"x": 6.7852971385,
				"y": 1.3387733701,
				"z": 3.5786772687,
				"element": "C" 
			},
			{
				"x": 6.2291912912,
				"y": 2.1505168305,
				"z": 2.5812317738,
				"element": "C" 
			},
			{
				"x": 7.0675432222,
				"y": 3.0378090153,
				"z": 1.8791024065,
				"element": "C" 
			},
			{
				"x": 8.4198300963,
				"y": 3.0850705445,
				"z": 2.1651059624,
				"element": "C" 
			},
			{
				"x": 4.8430589887,
				"y": 2.0085201818,
				"z": 2.3717805683,
				"element": "N" 
			},
			{
				"x": 4.3613328813,
				"y": 2.7571067201,
				"z": 1.4732886919,
				"element": "N" 
			},
			{
				"x": 2.9718889283,
				"y": 2.6125179808,
				"z": 1.2647407242,
				"element": "C" 
			},
			{
				"x": 2.4218823433,
				"y": 3.4386051286,
				"z": 0.2668268609,
				"element": "C" 
			},
			{
				"x": 1.0690732291,
				"y": 3.388261173,
				"z": -0.029592372,
				"element": "C" 
			},
			{
				"x": 0.2368839757,
				"y": 2.5001320787,
				"z": 0.6765920584,
				"element": "C" 
			},
			{
				"x": 0.786816101,
				"y": 1.674551848,
				"z": 1.6750484686,
				"element": "C" 
			},
			{
				"x": 2.1397076566,
				"y": 1.7247875979,
				"z": 1.9712529227,
				"element": "C" 
			},
			{
				"x": -1.1523334053,
				"y": 2.3560097025,
				"z": 0.4684832009,
				"element": "N" 
			},
			{
				"x": -1.6330692926,
				"y": 3.102298229,
				"z": -0.4327143263,
				"element": "N" 
			},
			{
				"x": -3.0193326374,
				"y": 2.958665225,
				"z": -0.6456509103,
				"element": "C" 
			},
			{
				"x": -3.8535957633,
				"y": 2.0624345557,
				"z": 0.0520231486,
				"element": "C" 
			},
			{
				"x": -5.2028747747,
				"y": 1.9891413155,
				"z": -0.2501891414,
				"element": "C" 
			},
			{
				"x": -5.7512809207,
				"y": 2.8208858722,
				"z": -1.2485873236,
				"element": "C" 
			},
			{
				"x": -4.9335170702,
				"y": 3.7518385497,
				"z": -1.9062474407,
				"element": "C" 
			},
			{
				"x": -3.5738356332,
				"y": 3.7975057944,
				"z": -1.6254040576,
				"element": "C" 
			},
			{
				"x": -7.1573763252,
				"y": 2.9085953412,
				"z": -1.4719122821,
				"element": "N" 
			},
			{
				"x": -7.9096458193,
				"y": 1.9303741784,
				"z": -1.6798831148,
				"element": "N" 
			},
			{
				"x": -7.4488175036,
				"y": 0.6088983376,
				"z": -1.9612697954,
				"element": "C" 
			},
			{
				"x": -8.2691425084,
				"y": -0.432459073,
				"z": -1.5037561458,
				"element": "C" 
			},
			{
				"x": -7.9777880007,
				"y": -1.7630735759,
				"z": -1.7805681484,
				"element": "C" 
			},
			{
				"x": -6.872198123,
				"y": -2.0700548142,
				"z": -2.5929480091,
				"element": "C" 
			},
			{
				"x": -6.5119869921,
				"y": -3.3818681823,
				"z": -2.9474698993,
				"element": "N" 
			},
			{
				"x": -7.114331343,
				"y": -4.5743107892,
				"z": -2.5895755438,
				"element": "C" 
			},
			{
				"x": -6.4607685448,
				"y": -5.8113738675,
				"z": -3.1877480938,
				"element": "C" 
			},
			{
				"x": -8.0972868098,
				"y": -4.6517294347,
				"z": -1.8690620941,
				"element": "O" 
			},
			{
				"x": -6.0827482313,
				"y": -1.0235071905,
				"z": -3.104943375,
				"element": "C" 
			},
			{
				"x": -6.3555339475,
				"y": 0.2987476935,
				"z": -2.787934804,
				"element": "C" 
			},
			{
				"x": 10.5892217869,
				"y": -0.045016245,
				"z": 5.137727667,
				"element": "H" 
			},
			{
				"x": 10.2109241066,
				"y": -0.3240341808,
				"z": 3.4287358646,
				"element": "H" 
			},
			{
				"x": 11.8821680262,
				"y": -0.5299554741,
				"z": 4.0348441132,
				"element": "H" 
			},
			{
				"x": 10.775990921,
				"y": 3.2728760616,
				"z": 3.1402334671,
				"element": "H" 
			},
			{
				"x": 8.5323437019,
				"y": 0.7921310332,
				"z": 4.6898094633,
				"element": "H" 
			},
			{
				"x": 6.1236610978,
				"y": 0.6758252896,
				"z": 4.1269859079,
				"element": "H" 
			},
			{
				"x": 6.6348969093,
				"y": 3.6685688255,
				"z": 1.1112492635,
				"element": "H" 
			},
			{
				"x": 9.0683047583,
				"y": 3.757766005,
				"z": 1.6094296192,
				"element": "H" 
			},
			{
				"x": 3.0897191122,
				"y": 4.1132911114,
				"z": -0.2596660569,
				"element": "H" 
			},
			{
				"x": 0.632161462,
				"y": 4.0189539973,
				"z": -0.7947269643,
				"element": "H" 
			},
			{
				"x": 0.1185657325,
				"y": 1.0012389787,
				"z": 2.2027798693,
				"element": "H" 
			},
			{
				"x": 2.5761415524,
				"y": 1.0952451746,
				"z": 2.7376057838,
				"element": "H" 
			},
			{
				"x": -3.4161279513,
				"y": 1.4349876711,
				"z": 0.8200258974,
				"element": "H" 
			},
			{
				"x": -5.8482518765,
				"y": 1.3006729754,
				"z": 0.2851672837,
				"element": "H" 
			},
			{
				"x": -5.3794037604,
				"y": 4.4210487537,
				"z": -2.6350612025,
				"element": "H" 
			},
			{
				"x": -2.9156332825,
				"y": 4.4905211134,
				"z": -2.1395446164,
				"element": "H" 
			},
			{
				"x": -9.1420137502,
				"y": -0.1773294581,
				"z": -0.9110064636,
				"element": "H" 
			},
			{
				"x": -8.5964344067,
				"y": -2.5634381658,
				"z": -1.4014851986,
				"element": "H" 
			},
			{
				"x": -5.7025350238,
				"y": -3.4544341249,
				"z": -3.5465613657,
				"element": "H" 
			},
			{
				"x": -5.4911676025,
				"y": -5.6242211731,
				"z": -3.6575785542,
				"element": "H" 
			},
			{
				"x": -6.3379368012,
				"y": -6.5537149631,
				"z": -2.396126684,
				"element": "H" 
			},
			{
				"x": -7.1357478836,
				"y": -6.2393072204,
				"z": -3.935460436,
				"element": "H" 
			},
			{
				"x": -5.244458765,
				"y": -1.2528394747,
				"z": -3.7591277371,
				"element": "H" 
			},
			{
				"x": -5.7364811098,
				"y": 1.0871011142,
				"z": -3.1993568446,
				"element": "H" 
			}
		],
		 "valence_orbital": [ 
			{
				"type": "occ",
				"energy": -0.24091,
				"method": "rhf"
			},
			{
				"type": "occ",
				"energy": -0.23307,
				"method": "rhf"
			},
			{
				"type": "occ",
				"energy": -0.23093,
				"method": "rhf"
			},
			{
				"type": "occ",
				"energy": -0.22089,
				"method": "rhf"
			},
			{
				"type": "occ",
				"energy": -0.20496,
				"method": "rhf"
			},
			{
				"type": "unocc",
				"energy": -0.10638,
				"method": "rhf"
			},
			{
				"type": "unocc",
				"energy": -0.07919,
				"method": "rhf"
			},
			{
				"type": "unocc",
				"energy": -0.05832,
				"method": "rhf"
			},
			{
				"type": "unocc",
				"energy": -0.02103,
				"method": "rhf"
			},
			{
				"type": "unocc",
				"energy": -0.0201,
				"method": "rhf"
			}
		],
		"cosmo_sigma_profile": { 
			"-0.025": 0.0,
			"-0.024": 0.0,
			"-0.023": 0.0,
			"-0.022": 0.0,
			"-0.021": 0.0,
			"-0.02": 0.0,
			"-0.019": 0.0,
			"-0.018": 0.0,
			"-0.017": 0.0,
			"-0.016": 0.65671004724,
			"-0.015": 1.26910873079,
			"-0.014": 2.78428087151,
			"-0.013": 2.85496344011,
			"-0.012": 2.2210559283,
			"-0.011": 2.90978172322,
			"-0.01": 2.86827875185,
			"-0.009": 3.10561333335,
			"-0.008": 7.03708736389,
			"-0.007": 15.3654581466,
			"-0.006": 32.3357077513,
			"-0.005": 37.6321139883,
			"-0.004": 37.3122863847,
			"-0.003": 36.368703786,
			"-0.002": 36.3192426599,
			"-0.001": 33.9694089166,
			"0.0": 30.5996283553,
			"0.001": 58.4112479141,
			"0.002": 71.2973966255,
			"0.003": 56.3893935843,
			"0.004": 17.2817526742,
			"0.005": 12.6640548363,
			"0.006": 9.88653302203,
			"0.007": 11.6763734007,
			"0.008": 5.9235259109,
			"0.009": 3.67728995691,
			"0.01": 5.27879807803,
			"0.011": 6.94276979778,
			"0.012": 8.17174426101,
			"0.013": 9.93362434177,
			"0.014": 3.56230877026,
			"0.015": 0.124870327112,
			"0.016": 0.0,
			"0.017": 0.0,
			"0.018": 0.0,
			"0.019": 0.0,
			"0.02": 0.0,
			"0.021": 0.0,
			"0.022": 0.0,
			"0.023": 0.0,
			"0.024": 0.0,
			"0.025": 0.0
		}
	}
}
