{
	 "smiles": "CC1=CC=CC2=NC=C(C=O)N12", 
	 "Tm": 402.15, 
	 "num_atms": 20, 
	 "gaussian": { 
		 "optdone": 1, 
		 "sigma_profile": "yes", 
		 "theory": "DFT", 
		 "functional": "B3LYP", 
		 "basiset": "6-31G**", 
		 "properties": { 
			 "R2extent": 1954.326, 
			 "electric_dipole_moment_norm": 2.71363258014, 
			 "electric_quadrupole_moment_norm": 12.3088996295, 
			 "total_energy": -532.497120571, 
			 "HOMO_LUMO_gap": 0.1644, 
			 "cosmo_polarized_energy": -10.33, 
			 "cosmo_cavitation_energy": 23.76, 
			 "cosmo_dispersion_energy": -17.74, 
			 "cosmo_repulsion_energy": 1.36, 
			 "cosmo_total_nonelectrostatic_energy": 7.39, 
			 "SMD_solvation_energy": 3.25 
		},
		"coords": [
			{
				"x": -0.2164427035,
				"y": 1.1077380509,
				"z": 2.6924134929,
				"element": "C" 
			},
			{
				"x": -0.6992006604,
				"y": 1.0927482493,
				"z": 1.2739548677,
				"element": "C" 
			},
			{
				"x": -1.9268036481,
				"y": 1.6112867161,
				"z": 0.9265867331,
				"element": "C" 
			},
			{
				"x": -2.404369941,
				"y": 1.6088325821,
				"z": -0.4048353818,
				"element": "C" 
			},
			{
				"x": -1.6308827856,
				"y": 1.0741571418,
				"z": -1.4041011332,
				"element": "C" 
			},
			{
				"x": -0.3719604724,
				"y": 0.5375156742,
				"z": -1.0758240162,
				"element": "C" 
			},
			{
				"x": 0.5196423811,
				"y": -0.0242388991,
				"z": -1.9067362236,
				"element": "N" 
			},
			{
				"x": 1.5464539758,
				"y": -0.3736842789,
				"z": -1.121697584,
				"element": "C" 
			},
			{
				"x": 1.3537934986,
				"y": -0.0527936683,
				"z": 0.2261477082,
				"element": "C" 
			},
			{
				"x": 2.3512925402,
				"y": -0.3503125699,
				"z": 1.2343889807,
				"element": "C" 
			},
			{
				"x": 2.3525555024,
				"y": -0.1455331836,
				"z": 2.4396177102,
				"element": "O" 
			},
			{
				"x": 0.0792779306,
				"y": 0.5531900275,
				"z": 0.2601144829,
				"element": "N" 
			},
			{
				"x": 0.7192636575,
				"y": 1.6601009629,
				"z": 2.7969785984,
				"element": "H" 
			},
			{
				"x": -0.9791866578,
				"y": 1.5740034542,
				"z": 3.3192107519,
				"element": "H" 
			},
			{
				"x": -0.014850772,
				"y": 0.1010851281,
				"z": 3.0633564618,
				"element": "H" 
			},
			{
				"x": -2.535776253,
				"y": 2.0330542945,
				"z": 1.7177215508,
				"element": "H" 
			},
			{
				"x": -3.3796090999,
				"y": 2.0302092926,
				"z": -0.6259291153,
				"element": "H" 
			},
			{
				"x": -1.9376985806,
				"y": 1.0413912782,
				"z": -2.442327274,
				"element": "H" 
			},
			{
				"x": 2.428749471,
				"y": -0.857923934,
				"z": -1.5242185306,
				"element": "H" 
			},
			{
				"x": 3.2250526171,
				"y": -0.8446263185,
				"z": 0.7551779201,
				"element": "H" 
			}
		],
		 "valence_orbital": [ 
			{
				"type": "occ",
				"energy": -0.32871,
				"method": "rhf"
			},
			{
				"type": "occ",
				"energy": -0.28627,
				"method": "rhf"
			},
			{
				"type": "occ",
				"energy": -0.25995,
				"method": "rhf"
			},
			{
				"type": "occ",
				"energy": -0.24998,
				"method": "rhf"
			},
			{
				"type": "occ",
				"energy": -0.22334,
				"method": "rhf"
			},
			{
				"type": "unocc",
				"energy": -0.05894,
				"method": "rhf"
			},
			{
				"type": "unocc",
				"energy": -0.03592,
				"method": "rhf"
			},
			{
				"type": "unocc",
				"energy": 0.01644,
				"method": "rhf"
			},
			{
				"type": "unocc",
				"energy": 0.07789,
				"method": "rhf"
			},
			{
				"type": "unocc",
				"energy": 0.09524,
				"method": "rhf"
			}
		],
		"cosmo_sigma_profile": { 
			"-0.025": 0.0,
			"-0.024": 0.0,
			"-0.023": 0.0,
			"-0.022": 0.0,
			"-0.021": 0.0,
			"-0.02": 0.0,
			"-0.019": 0.0,
			"-0.018": 0.0,
			"-0.017": 0.0,
			"-0.016": 0.0,
			"-0.015": 0.0,
			"-0.014": 0.0,
			"-0.013": 0.0,
			"-0.012": 0.0,
			"-0.011": 0.0,
			"-0.01": 0.0,
			"-0.009": 0.424567002259,
			"-0.008": 4.65100004726,
			"-0.007": 10.5673691376,
			"-0.006": 11.7009837619,
			"-0.005": 11.7518689808,
			"-0.004": 12.7266566908,
			"-0.003": 13.3314609549,
			"-0.002": 17.8006564228,
			"-0.001": 20.0935125524,
			"0.0": 16.1140857983,
			"0.001": 15.1660616032,
			"0.002": 13.3972669728,
			"0.003": 7.61193722511,
			"0.004": 4.37291064758,
			"0.005": 3.2553552755,
			"0.006": 2.93454232515,
			"0.007": 2.95383238762,
			"0.008": 2.80740297534,
			"0.009": 2.99131890414,
			"0.01": 2.49116330578,
			"0.011": 2.26570963842,
			"0.012": 4.0297319851,
			"0.013": 3.30847804061,
			"0.014": 1.82247965218,
			"0.015": 0.948999825185,
			"0.016": 0.901759966415,
			"0.017": 0.471831291824,
			"0.018": 0.0,
			"0.019": 0.0,
			"0.02": 0.0,
			"0.021": 0.0,
			"0.022": 0.0,
			"0.023": 0.0,
			"0.024": 0.0,
			"0.025": 0.0
		}
	}
}
