{
	 "smiles": "CCN1C(=O)N(CC(O)=O)C2=C1C=CC=C2", 
	 "Tm": 503.15, 
	 "num_atms": 28, 
	 "gaussian": { 
		 "optdone": 1, 
		 "sigma_profile": "yes", 
		 "theory": "DFT", 
		 "functional": "B3LYP", 
		 "basiset": "6-31G**", 
		 "properties": { 
			 "R2extent": 4035.9827, 
			 "electric_dipole_moment_norm": 3.06740935318, 
			 "electric_quadrupole_moment_norm": 6.88378850561, 
			 "total_energy": -761.631089552, 
			 "HOMO_LUMO_gap": 0.19846, 
			 "cosmo_polarized_energy": -15.87, 
			 "cosmo_cavitation_energy": 32.37, 
			 "cosmo_dispersion_energy": -22.34, 
			 "cosmo_repulsion_energy": 1.76, 
			 "cosmo_total_nonelectrostatic_energy": 11.78, 
			 "SMD_solvation_energy": 7.31 
		},
		"coords": [
			{
				"x": 3.0550768551,
				"y": -2.2490342464,
				"z": 2.7976293432,
				"element": "C" 
			},
			{
				"x": 3.2341397659,
				"y": -1.3587187156,
				"z": 1.5650230508,
				"element": "C" 
			},
			{
				"x": 1.9870472034,
				"y": -0.7691784998,
				"z": 1.099000945,
				"element": "N" 
			},
			{
				"x": 1.615008979,
				"y": 0.5352113151,
				"z": 1.4133784111,
				"element": "C" 
			},
			{
				"x": 2.2483077088,
				"y": 1.3559863393,
				"z": 2.0606760443,
				"element": "O" 
			},
			{
				"x": 0.3642049473,
				"y": 0.7267610478,
				"z": 0.8155350082,
				"element": "N" 
			},
			{
				"x": -0.3667074862,
				"y": 1.9580226528,
				"z": 0.9505430931,
				"element": "C" 
			},
			{
				"x": -1.5944507263,
				"y": 1.8983205903,
				"z": 1.8543055197,
				"element": "C" 
			},
			{
				"x": -1.5033150608,
				"y": 0.9418942327,
				"z": 2.7989852499,
				"element": "O" 
			},
			{
				"x": -2.5323741334,
				"y": 2.6557724319,
				"z": 1.7514691301,
				"element": "O" 
			},
			{
				"x": -0.0405231949,
				"y": -0.436045662,
				"z": 0.164374169,
				"element": "C" 
			},
			{
				"x": 0.989717417,
				"y": -1.3833453411,
				"z": 0.3441858536,
				"element": "C" 
			},
			{
				"x": 0.8936779739,
				"y": -2.6566447425,
				"z": -0.2038368134,
				"element": "C" 
			},
			{
				"x": -0.260695595,
				"y": -2.964438419,
				"z": -0.9376679519,
				"element": "C" 
			},
			{
				"x": -1.281182699,
				"y": -2.025539225,
				"z": -1.11155239,
				"element": "C" 
			},
			{
				"x": -1.1855193387,
				"y": -0.7402383396,
				"z": -0.5594547413,
				"element": "C" 
			},
			{
				"x": 4.0182200599,
				"y": -2.6742104705,
				"z": 3.0977304601,
				"element": "H" 
			},
			{
				"x": 2.6607277922,
				"y": -1.6668718924,
				"z": 3.6351239796,
				"element": "H" 
			},
			{
				"x": 2.3650300687,
				"y": -3.0744678915,
				"z": 2.5980563645,
				"element": "H" 
			},
			{
				"x": 3.8975601077,
				"y": -0.5208224162,
				"z": 1.7926851217,
				"element": "H" 
			},
			{
				"x": 3.676473979,
				"y": -1.9221861663,
				"z": 0.7356607032,
				"element": "H" 
			},
			{
				"x": -0.6958186995,
				"y": 2.3395115856,
				"z": -0.0203976203,
				"element": "H" 
			},
			{
				"x": 0.3285202447,
				"y": 2.6852221924,
				"z": 1.3854980026,
				"element": "H" 
			},
			{
				"x": -2.3132823244,
				"y": 1.0079288569,
				"z": 3.3325635928,
				"element": "H" 
			},
			{
				"x": 1.6820705096,
				"y": -3.3899858252,
				"z": -0.0699669928,
				"element": "H" 
			},
			{
				"x": -0.3608387072,
				"y": -3.9526983632,
				"z": -1.3755821027,
				"element": "H" 
			},
			{
				"x": -2.1651324342,
				"y": -2.2921685131,
				"z": -1.6823044684,
				"element": "H" 
			},
			{
				"x": -1.9793432129,
				"y": -0.0125365158,
				"z": -0.695260962,
				"element": "H" 
			}
		],
		 "valence_orbital": [ 
			{
				"type": "occ",
				"energy": -0.30219,
				"method": "rhf"
			},
			{
				"type": "occ",
				"energy": -0.28362,
				"method": "rhf"
			},
			{
				"type": "occ",
				"energy": -0.27335,
				"method": "rhf"
			},
			{
				"type": "occ",
				"energy": -0.23591,
				"method": "rhf"
			},
			{
				"type": "occ",
				"energy": -0.20689,
				"method": "rhf"
			},
			{
				"type": "unocc",
				"energy": -0.00843,
				"method": "rhf"
			},
			{
				"type": "unocc",
				"energy": -0.0013,
				"method": "rhf"
			},
			{
				"type": "unocc",
				"energy": 0.01033,
				"method": "rhf"
			},
			{
				"type": "unocc",
				"energy": 0.06092,
				"method": "rhf"
			},
			{
				"type": "unocc",
				"energy": 0.06831,
				"method": "rhf"
			}
		],
		"cosmo_sigma_profile": { 
			"-0.025": 0.0,
			"-0.024": 0.0,
			"-0.023": 0.0,
			"-0.022": 0.0,
			"-0.021": 0.0,
			"-0.02": 0.0,
			"-0.019": 0.282087272479,
			"-0.018": 1.17611834612,
			"-0.017": 0.994254294799,
			"-0.016": 0.621095983549,
			"-0.015": 0.811350806551,
			"-0.014": 0.576385642929,
			"-0.013": 0.36734219962,
			"-0.012": 0.750337984276,
			"-0.011": 1.2123393963,
			"-0.01": 0.773889377755,
			"-0.009": 1.269688269,
			"-0.008": 4.48093373255,
			"-0.007": 7.88956155764,
			"-0.006": 12.4923178576,
			"-0.005": 16.8076179461,
			"-0.004": 21.6400837806,
			"-0.003": 23.2335489618,
			"-0.002": 19.1590768707,
			"-0.001": 20.7937108134,
			"0.0": 19.8780120025,
			"0.001": 12.9442087975,
			"0.002": 10.2949086656,
			"0.003": 10.6872548161,
			"0.004": 12.5268062084,
			"0.005": 12.2369547525,
			"0.006": 9.20997312121,
			"0.007": 5.92976414231,
			"0.008": 2.94001135277,
			"0.009": 2.65582220669,
			"0.01": 3.93164886253,
			"0.011": 6.38963226661,
			"0.012": 4.74538025963,
			"0.013": 5.56833808017,
			"0.014": 1.6321578849,
			"0.015": 0.0,
			"0.016": 0.0,
			"0.017": 0.0,
			"0.018": 0.0,
			"0.019": 0.0,
			"0.02": 0.0,
			"0.021": 0.0,
			"0.022": 0.0,
			"0.023": 0.0,
			"0.024": 0.0,
			"0.025": 0.0
		}
	}
}
