{
	 "smiles": "CCCCC1=CC=C(C=C1)N=NC1=CC=C(O)C=C1", 
	 "Tm": 322.35, 
	 "num_atms": 37, 
	 "gaussian": { 
		 "optdone": 1, 
		 "sigma_profile": "yes", 
		 "theory": "DFT", 
		 "functional": "B3LYP", 
		 "basiset": "6-31G**", 
		 "properties": { 
			 "R2extent": 7567.0799, 
			 "electric_dipole_moment_norm": 4.38658562096, 
			 "electric_quadrupole_moment_norm": 12.2003381162, 
			 "total_energy": -805.227225669, 
			 "HOMO_LUMO_gap": 0.13319, 
			 "cosmo_polarized_energy": -14.29, 
			 "cosmo_cavitation_energy": 40.66, 
			 "cosmo_dispersion_energy": -27.45, 
			 "cosmo_repulsion_energy": 2.17, 
			 "cosmo_total_nonelectrostatic_energy": 15.37, 
			 "SMD_solvation_energy": 4.86 
		},
		"coords": [
			{
				"x": 3.4979623667,
				"y": -2.0110981392,
				"z": 1.4313180975,
				"element": "C" 
			},
			{
				"x": 3.4772263354,
				"y": -1.0061144531,
				"z": 0.2751095866,
				"element": "C" 
			},
			{
				"x": 3.5378494231,
				"y": -1.6782217397,
				"z": -1.101733442,
				"element": "C" 
			},
			{
				"x": 3.5220287791,
				"y": -0.6930505044,
				"z": -2.291902663,
				"element": "C" 
			},
			{
				"x": 2.2283129549,
				"y": 0.0802025684,
				"z": -2.439274493,
				"element": "C" 
			},
			{
				"x": 1.082808215,
				"y": -0.5379419237,
				"z": -2.9668036276,
				"element": "C" 
			},
			{
				"x": -0.1240221044,
				"y": 0.1440531872,
				"z": -3.083932318,
				"element": "C" 
			},
			{
				"x": -0.2080925448,
				"y": 1.4880804186,
				"z": -2.6867245424,
				"element": "C" 
			},
			{
				"x": 0.9387931487,
				"y": 2.1340637319,
				"z": -2.2097266803,
				"element": "C" 
			},
			{
				"x": 2.1307505458,
				"y": 1.4269582605,
				"z": -2.0629010596,
				"element": "C" 
			},
			{
				"x": -1.3603461981,
				"y": 2.3019455211,
				"z": -2.941811251,
				"element": "N" 
			},
			{
				"x": -2.5309572479,
				"y": 1.9815193557,
				"z": -2.6355135704,
				"element": "N" 
			},
			{
				"x": -2.8753558287,
				"y": 0.8694853706,
				"z": -1.8028515907,
				"element": "C" 
			},
			{
				"x": -2.2051119782,
				"y": 0.5191852607,
				"z": -0.6204754032,
				"element": "C" 
			},
			{
				"x": -2.715100743,
				"y": -0.4793497691,
				"z": 0.2033887062,
				"element": "C" 
			},
			{
				"x": -3.8881174635,
				"y": -1.1582685575,
				"z": -0.1524619038,
				"element": "C" 
			},
			{
				"x": -4.4206756749,
				"y": -2.1563707139,
				"z": 0.6082146719,
				"element": "O" 
			},
			{
				"x": -4.571552593,
				"y": -0.8036580401,
				"z": -1.3229016854,
				"element": "C" 
			},
			{
				"x": -4.0816632343,
				"y": 0.2231102882,
				"z": -2.1183912916,
				"element": "C" 
			},
			{
				"x": 4.4081797053,
				"y": -2.6214727494,
				"z": 1.4121142964,
				"element": "H" 
			},
			{
				"x": 3.4580903971,
				"y": -1.5056147187,
				"z": 2.4018253367,
				"element": "H" 
			},
			{
				"x": 2.6428405772,
				"y": -2.6947982664,
				"z": 1.3771242448,
				"element": "H" 
			},
			{
				"x": 4.3254226711,
				"y": -0.314674658,
				"z": 0.3756206775,
				"element": "H" 
			},
			{
				"x": 2.5727375681,
				"y": -0.3888314698,
				"z": 0.3403307132,
				"element": "H" 
			},
			{
				"x": 4.4504612507,
				"y": -2.2860104129,
				"z": -1.1666484071,
				"element": "H" 
			},
			{
				"x": 2.6964742089,
				"y": -2.3773791317,
				"z": -1.2030676148,
				"element": "H" 
			},
			{
				"x": 4.3574383241,
				"y": 0.0100138386,
				"z": -2.1857272475,
				"element": "H" 
			},
			{
				"x": 3.7091647515,
				"y": -1.2587522419,
				"z": -3.2132059519,
				"element": "H" 
			},
			{
				"x": 1.139591033,
				"y": -1.5730023014,
				"z": -3.2960913216,
				"element": "H" 
			},
			{
				"x": -0.995335735,
				"y": -0.3516844666,
				"z": -3.4987091643,
				"element": "H" 
			},
			{
				"x": 0.879853933,
				"y": 3.1882143686,
				"z": -1.9562516187,
				"element": "H" 
			},
			{
				"x": 3.0081826117,
				"y": 1.9367791453,
				"z": -1.6730269861,
				"element": "H" 
			},
			{
				"x": -1.2980777616,
				"y": 1.0382297096,
				"z": -0.3336082446,
				"element": "H" 
			},
			{
				"x": -2.2001255082,
				"y": -0.7335370463,
				"z": 1.1276328791,
				"element": "H" 
			},
			{
				"x": -3.8674171703,
				"y": -2.29378942,
				"z": 1.3882313589,
				"element": "H" 
			},
			{
				"x": -5.4899464002,
				"y": -1.3239286673,
				"z": -1.5730188857,
				"element": "H" 
			},
			{
				"x": -4.6200706137,
				"y": 0.540208366,
				"z": -3.0060496046,
				"element": "H" 
			}
		],
		 "valence_orbital": [ 
			{
				"type": "occ",
				"energy": -0.26472,
				"method": "rhf"
			},
			{
				"type": "occ",
				"energy": -0.25524,
				"method": "rhf"
			},
			{
				"type": "occ",
				"energy": -0.24681,
				"method": "rhf"
			},
			{
				"type": "occ",
				"energy": -0.2365,
				"method": "rhf"
			},
			{
				"type": "occ",
				"energy": -0.19894,
				"method": "rhf"
			},
			{
				"type": "unocc",
				"energy": -0.06575,
				"method": "rhf"
			},
			{
				"type": "unocc",
				"energy": -0.01531,
				"method": "rhf"
			},
			{
				"type": "unocc",
				"energy": -0.00295,
				"method": "rhf"
			},
			{
				"type": "unocc",
				"energy": 0.00572,
				"method": "rhf"
			},
			{
				"type": "unocc",
				"energy": 0.03158,
				"method": "rhf"
			}
		],
		"cosmo_sigma_profile": { 
			"-0.025": 0.0,
			"-0.024": 0.0,
			"-0.023": 0.0,
			"-0.022": 0.0,
			"-0.021": 0.0,
			"-0.02": 0.0,
			"-0.019": 0.0108989617549,
			"-0.018": 0.736979156125,
			"-0.017": 1.21971558415,
			"-0.016": 1.33665189736,
			"-0.015": 0.68951534936,
			"-0.014": 1.33112069556,
			"-0.013": 1.14870091821,
			"-0.012": 0.640594637105,
			"-0.011": 0.695346795217,
			"-0.01": 1.4596792277,
			"-0.009": 1.4396336447,
			"-0.008": 0.81971645883,
			"-0.007": 2.82444436795,
			"-0.006": 9.79676051018,
			"-0.005": 17.8993034786,
			"-0.004": 18.5537225533,
			"-0.003": 22.5902756667,
			"-0.002": 32.2613476759,
			"-0.001": 33.811941645,
			"0.0": 33.4256621279,
			"0.001": 32.8966716862,
			"0.002": 23.4380170899,
			"0.003": 22.5160022918,
			"0.004": 22.1458693086,
			"0.005": 9.45602175102,
			"0.006": 3.88407726464,
			"0.007": 3.641392614,
			"0.008": 2.39809187969,
			"0.009": 3.68355051613,
			"0.01": 3.60818967759,
			"0.011": 3.91366150749,
			"0.012": 2.6522913326,
			"0.013": 1.68976812487,
			"0.014": 2.21826443412,
			"0.015": 0.390144847724,
			"0.016": 0.0,
			"0.017": 0.0,
			"0.018": 0.0,
			"0.019": 0.0,
			"0.02": 0.0,
			"0.021": 0.0,
			"0.022": 0.0,
			"0.023": 0.0,
			"0.024": 0.0,
			"0.025": 0.0
		}
	}
}
