{
	 "smiles": "C[Si](C)(C)N=[N+]=[N-]", 
	 "Tm": 178.15, 
	 "num_atms": 16, 
	 "gaussian": { 
		 "optdone": 1, 
		 "sigma_profile": "yes", 
		 "theory": "DFT", 
		 "functional": "B3LYP", 
		 "basiset": "6-31G**", 
		 "properties": { 
			 "R2extent": 1652.9113, 
			 "electric_dipole_moment_norm": 2.97517994414, 
			 "electric_quadrupole_moment_norm": 6.36588737491, 
			 "total_energy": -573.501814489, 
			 "HOMO_LUMO_gap": 0.25598, 
			 "cosmo_polarized_energy": -4.58, 
			 "cosmo_cavitation_energy": 22.03, 
			 "cosmo_dispersion_energy": -12.96, 
			 "cosmo_repulsion_energy": 1.25, 
			 "cosmo_total_nonelectrostatic_energy": 10.32, 
			 "SMD_solvation_energy": 4.26 
		},
		"coords": [
			{
				"x": -0.0406630772,
				"y": 1.8084836617,
				"z": -2.9814770829,
				"element": "C" 
			},
			{
				"x": 0.1748964716,
				"y": 1.4403634258,
				"z": -1.1457918746,
				"element": "Si" 
			},
			{
				"x": -1.2691201986,
				"y": 0.4168063025,
				"z": -0.4985993536,
				"element": "C" 
			},
			{
				"x": 0.4311289692,
				"y": 3.0041233122,
				"z": -0.1426204483,
				"element": "C" 
			},
			{
				"x": 1.6876341091,
				"y": 0.5253273268,
				"z": -0.910186271,
				"element": "N" 
			},
			{
				"x": 1.9411978144,
				"y": -0.5695236887,
				"z": -1.3975717785,
				"element": "N" 
			},
			{
				"x": 2.2653235158,
				"y": -1.5868789967,
				"z": -1.8065782665,
				"element": "N" 
			},
			{
				"x": -0.1167560193,
				"y": 0.8876570129,
				"z": -3.5700127564,
				"element": "H" 
			},
			{
				"x": -0.9543946176,
				"y": 2.3879776818,
				"z": -3.1571260528,
				"element": "H" 
			},
			{
				"x": 0.8030208277,
				"y": 2.3866548845,
				"z": -3.3718060058,
				"element": "H" 
			},
			{
				"x": -1.3667269367,
				"y": -0.5293750572,
				"z": -1.0420169078,
				"element": "H" 
			},
			{
				"x": -2.2136918562,
				"y": 0.9611218433,
				"z": -0.6129551858,
				"element": "H" 
			},
			{
				"x": -1.1442339256,
				"y": 0.1818026589,
				"z": 0.5632920377,
				"element": "H" 
			},
			{
				"x": 1.299156376,
				"y": 3.5647453936,
				"z": -0.5036255598,
				"element": "H" 
			},
			{
				"x": 0.5991259462,
				"y": 2.7704425407,
				"z": 0.9134418367,
				"element": "H" 
			},
			{
				"x": -0.4442973987,
				"y": 3.6595716978,
				"z": -0.2076663307,
				"element": "H" 
			}
		],
		 "valence_orbital": [ 
			{
				"type": "occ",
				"energy": -0.39049,
				"method": "rhf"
			},
			{
				"type": "occ",
				"energy": -0.32125,
				"method": "rhf"
			},
			{
				"type": "occ",
				"energy": -0.31953,
				"method": "rhf"
			},
			{
				"type": "occ",
				"energy": -0.27634,
				"method": "rhf"
			},
			{
				"type": "occ",
				"energy": -0.25715,
				"method": "rhf"
			},
			{
				"type": "unocc",
				"energy": -0.00117,
				"method": "rhf"
			},
			{
				"type": "unocc",
				"energy": 0.01138,
				"method": "rhf"
			},
			{
				"type": "unocc",
				"energy": 0.06696,
				"method": "rhf"
			},
			{
				"type": "unocc",
				"energy": 0.0743,
				"method": "rhf"
			},
			{
				"type": "unocc",
				"energy": 0.09286,
				"method": "rhf"
			}
		],
		"cosmo_sigma_profile": { 
			"-0.025": 0.0,
			"-0.024": 0.0,
			"-0.023": 0.0,
			"-0.022": 0.0,
			"-0.021": 0.0,
			"-0.02": 0.0,
			"-0.019": 0.0,
			"-0.018": 0.0,
			"-0.017": 0.0,
			"-0.016": 0.0,
			"-0.015": 0.0,
			"-0.014": 0.0,
			"-0.013": 0.0,
			"-0.012": 0.0,
			"-0.011": 0.0,
			"-0.01": 0.0,
			"-0.009": 0.0,
			"-0.008": 0.0,
			"-0.007": 0.0,
			"-0.006": 0.852155995505,
			"-0.005": 6.5379926881,
			"-0.004": 19.7388086813,
			"-0.003": 20.4995106981,
			"-0.002": 20.0274120859,
			"-0.001": 20.9039725788,
			"0.0": 22.7540373625,
			"0.001": 17.0024332116,
			"0.002": 8.94512094037,
			"0.003": 5.04655669132,
			"0.004": 3.61615122399,
			"0.005": 4.23730737064,
			"0.006": 4.37171335507,
			"0.007": 4.99059406133,
			"0.008": 5.4950868267,
			"0.009": 3.27797431628,
			"0.01": 1.37976663327,
			"0.011": 0.281559146095,
			"0.012": 0.0,
			"0.013": 0.0,
			"0.014": 0.0,
			"0.015": 0.0,
			"0.016": 0.0,
			"0.017": 0.0,
			"0.018": 0.0,
			"0.019": 0.0,
			"0.02": 0.0,
			"0.021": 0.0,
			"0.022": 0.0,
			"0.023": 0.0,
			"0.024": 0.0,
			"0.025": 0.0
		}
	}
}
