{
	 "smiles": "CC1=NC2=C(N=CN2C(C)=C1)C(N)=O", 
	 "Tm": 577.15, 
	 "num_atms": 24, 
	 "gaussian": { 
		 "optdone": 1, 
		 "sigma_profile": "yes", 
		 "theory": "DFT", 
		 "functional": "B3LYP", 
		 "basiset": "6-31G**", 
		 "properties": { 
			 "R2extent": 3231.7808, 
			 "electric_dipole_moment_norm": 9.09336672966, 
			 "electric_quadrupole_moment_norm": 19.9892775915, 
			 "total_energy": -643.234534019, 
			 "HOMO_LUMO_gap": 0.14728, 
			 "cosmo_polarized_energy": -25.54, 
			 "cosmo_cavitation_energy": 28.17, 
			 "cosmo_dispersion_energy": -20.74, 
			 "cosmo_repulsion_energy": 1.63, 
			 "cosmo_total_nonelectrostatic_energy": 9.05, 
			 "SMD_solvation_energy": 3.73 
		},
		"coords": [
			{
				"x": -2.4364166033,
				"y": -1.7787594588,
				"z": -2.7572569313,
				"element": "C" 
			},
			{
				"x": -1.3937074325,
				"y": -1.3116545288,
				"z": -1.7737651884,
				"element": "C" 
			},
			{
				"x": -0.7490674281,
				"y": -0.1953917716,
				"z": -2.0507187891,
				"element": "N" 
			},
			{
				"x": 0.1876433456,
				"y": 0.2349416041,
				"z": -1.1787456316,
				"element": "C" 
			},
			{
				"x": 1.0343274783,
				"y": 1.3456013496,
				"z": -1.1622851614,
				"element": "C" 
			},
			{
				"x": 1.8067557272,
				"y": 1.317137234,
				"z": -0.0335802415,
				"element": "N" 
			},
			{
				"x": 1.4757058718,
				"y": 0.2416953526,
				"z": 0.6458373958,
				"element": "C" 
			},
			{
				"x": 0.48661061,
				"y": -0.47671079,
				"z": 0.007520462,
				"element": "N" 
			},
			{
				"x": -0.1772949482,
				"y": -1.6449029432,
				"z": 0.3126870265,
				"element": "C" 
			},
			{
				"x": 0.1876498555,
				"y": -2.3466681201,
				"z": 1.5822880006,
				"element": "C" 
			},
			{
				"x": -1.1226729496,
				"y": -2.0642803149,
				"z": -0.5833592442,
				"element": "C" 
			},
			{
				"x": 1.1496627564,
				"y": 2.4401191634,
				"z": -2.1683619984,
				"element": "C" 
			},
			{
				"x": 0.3026152734,
				"y": 2.3117057498,
				"z": -3.2358778026,
				"element": "N" 
			},
			{
				"x": 1.9354993052,
				"y": 3.3699996074,
				"z": -2.0461261894,
				"element": "O" 
			},
			{
				"x": -1.9852744738,
				"y": -1.9395843866,
				"z": -3.7416233678,
				"element": "H" 
			},
			{
				"x": -2.9098836214,
				"y": -2.7092748723,
				"z": -2.4358800926,
				"element": "H" 
			},
			{
				"x": -3.2129767776,
				"y": -1.016743987,
				"z": -2.8783386357,
				"element": "H" 
			},
			{
				"x": 1.9037911516,
				"y": -0.0693357016,
				"z": 1.5872345756,
				"element": "H" 
			},
			{
				"x": 0.017799822,
				"y": -1.6981606669,
				"z": 2.4499263425,
				"element": "H" 
			},
			{
				"x": 1.248612846,
				"y": -2.6233508652,
				"z": 1.5847297259,
				"element": "H" 
			},
			{
				"x": -0.4079700825,
				"y": -3.2525686688,
				"z": 1.7036965594,
				"element": "H" 
			},
			{
				"x": -1.6701767229,
				"y": -2.9780548372,
				"z": -0.3847924814,
				"element": "H" 
			},
			{
				"x": -0.3386778819,
				"y": 1.5334130191,
				"z": -3.3154869557,
				"element": "H" 
			},
			{
				"x": 0.3411448789,
				"y": 3.0259288332,
				"z": -3.9452213774,
				"element": "H" 
			}
		],
		 "valence_orbital": [ 
			{
				"type": "occ",
				"energy": -0.27821,
				"method": "rhf"
			},
			{
				"type": "occ",
				"energy": -0.27292,
				"method": "rhf"
			},
			{
				"type": "occ",
				"energy": -0.2386,
				"method": "rhf"
			},
			{
				"type": "occ",
				"energy": -0.22592,
				"method": "rhf"
			},
			{
				"type": "occ",
				"energy": -0.21423,
				"method": "rhf"
			},
			{
				"type": "unocc",
				"energy": -0.06695,
				"method": "rhf"
			},
			{
				"type": "unocc",
				"energy": -0.01782,
				"method": "rhf"
			},
			{
				"type": "unocc",
				"energy": 0.02582,
				"method": "rhf"
			},
			{
				"type": "unocc",
				"energy": 0.07405,
				"method": "rhf"
			},
			{
				"type": "unocc",
				"energy": 0.08532,
				"method": "rhf"
			}
		],
		"cosmo_sigma_profile": { 
			"-0.025": 0.0,
			"-0.024": 0.0,
			"-0.023": 0.0,
			"-0.022": 0.0,
			"-0.021": 0.0,
			"-0.02": 0.0,
			"-0.019": 0.0,
			"-0.018": 0.0,
			"-0.017": 0.0,
			"-0.016": 0.0,
			"-0.015": 0.0,
			"-0.014": 0.0723772228226,
			"-0.013": 1.01552667652,
			"-0.012": 1.27272903173,
			"-0.011": 0.634498492046,
			"-0.01": 1.78800214791,
			"-0.009": 3.29791660725,
			"-0.008": 7.1938514055,
			"-0.007": 13.6554564259,
			"-0.006": 13.1426286769,
			"-0.005": 14.5228212553,
			"-0.004": 15.5542519422,
			"-0.003": 20.1818404729,
			"-0.002": 21.3806744756,
			"-0.001": 17.5088017652,
			"0.0": 11.9735380033,
			"0.001": 12.7336073121,
			"0.002": 9.49890654061,
			"0.003": 8.55962339992,
			"0.004": 7.31042798379,
			"0.005": 5.48592053685,
			"0.006": 4.3837927707,
			"0.007": 2.39870583084,
			"0.008": 2.52497129969,
			"0.009": 1.83087749633,
			"0.01": 1.77566979282,
			"0.011": 1.72590315646,
			"0.012": 2.68332341679,
			"0.013": 3.01726847957,
			"0.014": 5.94077174606,
			"0.015": 5.3831359681,
			"0.016": 2.4732913131,
			"0.017": 1.64816662584,
			"0.018": 1.71591519092,
			"0.019": 0.343542519578,
			"0.02": 0.0,
			"0.021": 0.0,
			"0.022": 0.0,
			"0.023": 0.0,
			"0.024": 0.0,
			"0.025": 0.0
		}
	}
}
