{
	 "smiles": "CC(C)(C(O)=O)C1=CC=C(N)C=C1", 
	 "Tm": 439.15, 
	 "num_atms": 26, 
	 "gaussian": { 
		 "optdone": 1, 
		 "sigma_profile": "yes", 
		 "theory": "DFT", 
		 "functional": "B3LYP", 
		 "basiset": "6-31G**", 
		 "properties": { 
			 "R2extent": 3252.8241, 
			 "electric_dipole_moment_norm": 2.52800910006, 
			 "electric_quadrupole_moment_norm": 11.6813657374, 
			 "total_energy": -594.123713402, 
			 "HOMO_LUMO_gap": 0.19931, 
			 "cosmo_polarized_energy": -13.9, 
			 "cosmo_cavitation_energy": 28.71, 
			 "cosmo_dispersion_energy": -20.48, 
			 "cosmo_repulsion_energy": 1.63, 
			 "cosmo_total_nonelectrostatic_energy": 9.87, 
			 "SMD_solvation_energy": 6.03 
		},
		"coords": [
			{
				"x": -3.7289939658,
				"y": 1.1268400363,
				"z": -0.4286167607,
				"element": "C" 
			},
			{
				"x": -2.2819241818,
				"y": 1.1563996741,
				"z": -0.9584726271,
				"element": "C" 
			},
			{
				"x": -2.306942489,
				"y": 1.3053040903,
				"z": -2.4949303019,
				"element": "C" 
			},
			{
				"x": -1.5404425946,
				"y": 2.3624338104,
				"z": -0.3654819736,
				"element": "C" 
			},
			{
				"x": -1.794958259,
				"y": 2.5381986898,
				"z": 0.9538067686,
				"element": "O" 
			},
			{
				"x": -0.7760747965,
				"y": 3.0864946823,
				"z": -0.9692947432,
				"element": "O" 
			},
			{
				"x": -1.4723074192,
				"y": -0.0961890879,
				"z": -0.5643642834,
				"element": "C" 
			},
			{
				"x": -2.0428976199,
				"y": -1.2049869433,
				"z": 0.0716420416,
				"element": "C" 
			},
			{
				"x": -1.290125194,
				"y": -2.3368720694,
				"z": 0.3800393972,
				"element": "C" 
			},
			{
				"x": 0.0765568893,
				"y": -2.398720532,
				"z": 0.0689131382,
				"element": "C" 
			},
			{
				"x": 0.8486639288,
				"y": -3.5051411093,
				"z": 0.4292031295,
				"element": "N" 
			},
			{
				"x": 0.6595477389,
				"y": -1.285910461,
				"z": -0.5616299991,
				"element": "C" 
			},
			{
				"x": -0.1027817671,
				"y": -0.1650961773,
				"z": -0.8692771967,
				"element": "C" 
			},
			{
				"x": -3.7656971304,
				"y": 1.0126956106,
				"z": 0.6561802042,
				"element": "H" 
			},
			{
				"x": -4.28380034,
				"y": 0.3043745816,
				"z": -0.8899534213,
				"element": "H" 
			},
			{
				"x": -4.2427314659,
				"y": 2.057638808,
				"z": -0.6879278879,
				"element": "H" 
			},
			{
				"x": -1.2997758302,
				"y": 1.3953566147,
				"z": -2.9040384726,
				"element": "H" 
			},
			{
				"x": -2.7880801701,
				"y": 0.4291604504,
				"z": -2.939335857,
				"element": "H" 
			},
			{
				"x": -2.8672067481,
				"y": 2.1985858552,
				"z": -2.7897277152,
				"element": "H" 
			},
			{
				"x": -1.2449759431,
				"y": 3.2903886916,
				"z": 1.2300735887,
				"element": "H" 
			},
			{
				"x": -3.0947017942,
				"y": -1.2042983396,
				"z": 0.3354524206,
				"element": "H" 
			},
			{
				"x": -1.7660272244,
				"y": -3.1801924977,
				"z": 0.8751072711,
				"element": "H" 
			},
			{
				"x": 1.6886660991,
				"y": -3.6376568662,
				"z": -0.1171210775,
				"element": "H" 
			},
			{
				"x": 0.3347621858,
				"y": -4.3680969867,
				"z": 0.5424634591,
				"element": "H" 
			},
			{
				"x": 1.7192875963,
				"y": -1.3015837159,
				"z": -0.8053890966,
				"element": "H" 
			},
			{
				"x": 0.3817604951,
				"y": 0.6803731912,
				"z": -1.3496200049,
				"element": "H" 
			}
		],
		 "valence_orbital": [ 
			{
				"type": "occ",
				"energy": -0.31133,
				"method": "rhf"
			},
			{
				"type": "occ",
				"energy": -0.30153,
				"method": "rhf"
			},
			{
				"type": "occ",
				"energy": -0.26487,
				"method": "rhf"
			},
			{
				"type": "occ",
				"energy": -0.24447,
				"method": "rhf"
			},
			{
				"type": "occ",
				"energy": -0.1988,
				"method": "rhf"
			},
			{
				"type": "unocc",
				"energy": 0.00051,
				"method": "rhf"
			},
			{
				"type": "unocc",
				"energy": 0.00727,
				"method": "rhf"
			},
			{
				"type": "unocc",
				"energy": 0.0317,
				"method": "rhf"
			},
			{
				"type": "unocc",
				"energy": 0.08107,
				"method": "rhf"
			},
			{
				"type": "unocc",
				"energy": 0.08158,
				"method": "rhf"
			}
		],
		"cosmo_sigma_profile": { 
			"-0.025": 0.0,
			"-0.024": 0.0,
			"-0.023": 0.0,
			"-0.022": 0.0,
			"-0.021": 0.0,
			"-0.02": 0.0,
			"-0.019": 0.0,
			"-0.018": 0.464586567137,
			"-0.017": 1.01756937915,
			"-0.016": 0.772606772378,
			"-0.015": 0.745693188023,
			"-0.014": 0.963336373788,
			"-0.013": 0.964075765176,
			"-0.012": 2.81177817049,
			"-0.011": 3.12589728209,
			"-0.01": 3.53764294903,
			"-0.009": 4.25960608295,
			"-0.008": 2.96544135864,
			"-0.007": 3.33009599829,
			"-0.006": 5.78668462571,
			"-0.005": 8.84910629861,
			"-0.004": 15.0971506991,
			"-0.003": 21.5133117128,
			"-0.002": 15.5010004624,
			"-0.001": 16.7625819445,
			"0.0": 19.4695604826,
			"0.001": 16.3345117815,
			"0.002": 8.35868186964,
			"0.003": 8.73733872988,
			"0.004": 10.1335693236,
			"0.005": 9.56245415778,
			"0.006": 13.5720429736,
			"0.007": 10.0241625944,
			"0.008": 4.45177901285,
			"0.009": 2.52981218101,
			"0.01": 2.64764858588,
			"0.011": 3.35077174765,
			"0.012": 5.57275494222,
			"0.013": 1.04521677068,
			"0.014": 0.582652121357,
			"0.015": 0.243475085181,
			"0.016": 0.0,
			"0.017": 0.0,
			"0.018": 0.0,
			"0.019": 0.0,
			"0.02": 0.0,
			"0.021": 0.0,
			"0.022": 0.0,
			"0.023": 0.0,
			"0.024": 0.0,
			"0.025": 0.0
		}
	}
}
