{
	 "smiles": "ClC1=CC=CC(Cl)=C1CS(Cl)(=O)=O", 
	 "Tm": 344.15, 
	 "num_atms": 18, 
	 "gaussian": { 
		 "optdone": 1, 
		 "sigma_profile": "yes", 
		 "theory": "DFT", 
		 "functional": "B3LYP", 
		 "basiset": "6-31G**", 
		 "properties": { 
			 "R2extent": 6148.1589, 
			 "electric_dipole_moment_norm": 5.39005290327, 
			 "electric_quadrupole_moment_norm": 25.1593545464, 
			 "total_energy": -2198.90122536, 
			 "HOMO_LUMO_gap": 0.17677, 
			 "cosmo_polarized_energy": -11.33, 
			 "cosmo_cavitation_energy": 28.9, 
			 "cosmo_dispersion_energy": -21.49, 
			 "cosmo_repulsion_energy": 1.65, 
			 "cosmo_total_nonelectrostatic_energy": 9.07, 
			 "SMD_solvation_energy": 3.05 
		},
		"coords": [
			{
				"x": -0.2922068468,
				"y": -1.2577287667,
				"z": -2.7117239283,
				"element": "Cl" 
			},
			{
				"x": 0.6413896075,
				"y": -0.865996183,
				"z": -1.2809410945,
				"element": "C" 
			},
			{
				"x": 1.7541255505,
				"y": -0.0443134348,
				"z": -1.446841357,
				"element": "C" 
			},
			{
				"x": 2.5089363446,
				"y": 0.3174149611,
				"z": -0.3340096964,
				"element": "C" 
			},
			{
				"x": 2.1483191361,
				"y": -0.1230245081,
				"z": 0.9367990192,
				"element": "C" 
			},
			{
				"x": 1.0327136376,
				"y": -0.9441664039,
				"z": 1.0851838787,
				"element": "C" 
			},
			{
				"x": 0.6048087892,
				"y": -1.4369738362,
				"z": 2.7119209996,
				"element": "Cl" 
			},
			{
				"x": 0.2487567412,
				"y": -1.3498813123,
				"z": -0.0152755897,
				"element": "C" 
			},
			{
				"x": -0.948513926,
				"y": -2.2341237362,
				"z": 0.1535540754,
				"element": "C" 
			},
			{
				"x": -0.5038027572,
				"y": -4.0256516395,
				"z": 0.0205378464,
				"element": "S" 
			},
			{
				"x": -2.463995942,
				"y": -4.8345535885,
				"z": 0.3181311988,
				"element": "Cl" 
			},
			{
				"x": -0.1111670414,
				"y": -4.3444718473,
				"z": -1.3450625477,
				"element": "O" 
			},
			{
				"x": 0.3039692796,
				"y": -4.4276912861,
				"z": 1.1635741444,
				"element": "O" 
			},
			{
				"x": 2.0178554016,
				"y": 0.3037013225,
				"z": -2.4384602775,
				"element": "H" 
			},
			{
				"x": 3.3793238818,
				"y": 0.9540518176,
				"z": -0.4569272091,
				"element": "H" 
			},
			{
				"x": 2.7206209129,
				"y": 0.1634280678,
				"z": 1.8110945739,
				"element": "H" 
			},
			{
				"x": -1.6950755109,
				"y": -2.0820692991,
				"z": -0.6256112162,
				"element": "H" 
			},
			{
				"x": -1.4028572585,
				"y": -2.1405503272,
				"z": 1.13965718,
				"element": "H" 
			}
		],
		 "valence_orbital": [ 
			{
				"type": "occ",
				"energy": -0.33165,
				"method": "rhf"
			},
			{
				"type": "occ",
				"energy": -0.33012,
				"method": "rhf"
			},
			{
				"type": "occ",
				"energy": -0.31498,
				"method": "rhf"
			},
			{
				"type": "occ",
				"energy": -0.28146,
				"method": "rhf"
			},
			{
				"type": "occ",
				"energy": -0.2699,
				"method": "rhf"
			},
			{
				"type": "unocc",
				"energy": -0.09313,
				"method": "rhf"
			},
			{
				"type": "unocc",
				"energy": -0.04431,
				"method": "rhf"
			},
			{
				"type": "unocc",
				"energy": -0.04348,
				"method": "rhf"
			},
			{
				"type": "unocc",
				"energy": -0.01173,
				"method": "rhf"
			},
			{
				"type": "unocc",
				"energy": 0.03349,
				"method": "rhf"
			}
		],
		"cosmo_sigma_profile": { 
			"-0.025": 0.0,
			"-0.024": 0.0,
			"-0.023": 0.0,
			"-0.022": 0.0,
			"-0.021": 0.0,
			"-0.02": 0.0,
			"-0.019": 0.0,
			"-0.018": 0.0,
			"-0.017": 0.0,
			"-0.016": 0.0,
			"-0.015": 0.0,
			"-0.014": 0.0,
			"-0.013": 0.0,
			"-0.012": 0.0,
			"-0.011": 0.0,
			"-0.01": 1.17266112439,
			"-0.009": 4.3924624597,
			"-0.008": 9.9866949735,
			"-0.007": 11.7028587892,
			"-0.006": 9.207409062,
			"-0.005": 8.11949483173,
			"-0.004": 10.1633635363,
			"-0.003": 10.8108469664,
			"-0.002": 12.398349367,
			"-0.001": 20.8447920922,
			"0.0": 25.6588707796,
			"0.001": 22.8486604622,
			"0.002": 21.6210603143,
			"0.003": 24.9836461757,
			"0.004": 12.8774931435,
			"0.005": 4.27266475089,
			"0.006": 4.8438598197,
			"0.007": 6.44962779287,
			"0.008": 11.9725926835,
			"0.009": 4.83833163433,
			"0.01": 0.0,
			"0.011": 0.0,
			"0.012": 0.0,
			"0.013": 0.0,
			"0.014": 0.0,
			"0.015": 0.0,
			"0.016": 0.0,
			"0.017": 0.0,
			"0.018": 0.0,
			"0.019": 0.0,
			"0.02": 0.0,
			"0.021": 0.0,
			"0.022": 0.0,
			"0.023": 0.0,
			"0.024": 0.0,
			"0.025": 0.0
		}
	}
}
