{
	 "smiles": "CC1=CC(=CC=C1[N+]([O-])=O)C(=O)NN", 
	 "Tm": 421.15, 
	 "num_atms": 23, 
	 "gaussian": { 
		 "optdone": 1, 
		 "sigma_profile": "yes", 
		 "theory": "DFT", 
		 "functional": "B3LYP", 
		 "basiset": "6-31G**", 
		 "properties": { 
			 "R2extent": 3414.4869, 
			 "electric_dipole_moment_norm": 2.91206489797, 
			 "electric_quadrupole_moment_norm": 16.4183358825, 
			 "total_energy": -700.077884184, 
			 "HOMO_LUMO_gap": 0.16197, 
			 "cosmo_polarized_energy": -17.3, 
			 "cosmo_cavitation_energy": 27.99, 
			 "cosmo_dispersion_energy": -20.26, 
			 "cosmo_repulsion_energy": 1.6, 
			 "cosmo_total_nonelectrostatic_energy": 9.33, 
			 "SMD_solvation_energy": 8.04 
		},
		"coords": [
			{
				"x": 1.2269518878,
				"y": 0.8725904076,
				"z": -2.292751108,
				"element": "C" 
			},
			{
				"x": 0.3509539401,
				"y": 0.1111979741,
				"z": -1.3283055058,
				"element": "C" 
			},
			{
				"x": 0.958805142,
				"y": -0.5730706655,
				"z": -0.2667617534,
				"element": "C" 
			},
			{
				"x": 0.2346694585,
				"y": -1.2944143989,
				"z": 0.686242407,
				"element": "C" 
			},
			{
				"x": -1.1576674703,
				"y": -1.3913793358,
				"z": 0.5605601494,
				"element": "C" 
			},
			{
				"x": -1.7954146522,
				"y": -0.7532326634,
				"z": -0.494000775,
				"element": "C" 
			},
			{
				"x": -1.0522907888,
				"y": -0.0007494809,
				"z": -1.4072196513,
				"element": "C" 
			},
			{
				"x": -1.8271813684,
				"y": 0.6666470476,
				"z": -2.4715795146,
				"element": "N" 
			},
			{
				"x": -2.9983161189,
				"y": 0.3206329212,
				"z": -2.6264342001,
				"element": "O" 
			},
			{
				"x": -1.2700712153,
				"y": 1.5380381702,
				"z": -3.1390941664,
				"element": "O" 
			},
			{
				"x": 1.0223122484,
				"y": -2.027379923,
				"z": 1.7411550281,
				"element": "C" 
			},
			{
				"x": 2.0836325933,
				"y": -2.5739520833,
				"z": 1.4696881826,
				"element": "O" 
			},
			{
				"x": 0.502230041,
				"y": -2.0849121862,
				"z": 3.0168283171,
				"element": "N" 
			},
			{
				"x": -0.3748154344,
				"y": -1.1492143787,
				"z": 3.6045218663,
				"element": "N" 
			},
			{
				"x": 2.2772826575,
				"y": 0.6680251457,
				"z": -2.0716509769,
				"element": "H" 
			},
			{
				"x": 1.0232761332,
				"y": 0.5985413965,
				"z": -3.3304508128,
				"element": "H" 
			},
			{
				"x": 1.0530340512,
				"y": 1.9493966182,
				"z": -2.2226336257,
				"element": "H" 
			},
			{
				"x": 2.0402323336,
				"y": -0.5563420396,
				"z": -0.1789538179,
				"element": "H" 
			},
			{
				"x": -1.7379234797,
				"y": -1.9910744399,
				"z": 1.2535182184,
				"element": "H" 
			},
			{
				"x": -2.8662819977,
				"y": -0.8244568337,
				"z": -0.6343055087,
				"element": "H" 
			},
			{
				"x": 1.1345586692,
				"y": -2.5196171511,
				"z": 3.6790715836,
				"element": "H" 
			},
			{
				"x": -1.3372045221,
				"y": -1.3867320558,
				"z": 3.3858579554,
				"element": "H" 
			},
			{
				"x": -0.1870721082,
				"y": -0.2125420453,
				"z": 3.2562977087,
				"element": "H" 
			}
		],
		 "valence_orbital": [ 
			{
				"type": "occ",
				"energy": -0.2976,
				"method": "rhf"
			},
			{
				"type": "occ",
				"energy": -0.28986,
				"method": "rhf"
			},
			{
				"type": "occ",
				"energy": -0.27912,
				"method": "rhf"
			},
			{
				"type": "occ",
				"energy": -0.26883,
				"method": "rhf"
			},
			{
				"type": "occ",
				"energy": -0.26077,
				"method": "rhf"
			},
			{
				"type": "unocc",
				"energy": -0.0988,
				"method": "rhf"
			},
			{
				"type": "unocc",
				"energy": -0.03589,
				"method": "rhf"
			},
			{
				"type": "unocc",
				"energy": -0.03071,
				"method": "rhf"
			},
			{
				"type": "unocc",
				"energy": 0.02911,
				"method": "rhf"
			},
			{
				"type": "unocc",
				"energy": 0.05301,
				"method": "rhf"
			}
		],
		"cosmo_sigma_profile": { 
			"-0.025": 0.0,
			"-0.024": 0.0,
			"-0.023": 0.0,
			"-0.022": 0.0,
			"-0.021": 0.0,
			"-0.02": 0.0,
			"-0.019": 0.0,
			"-0.018": 0.0,
			"-0.017": 0.0,
			"-0.016": 0.0,
			"-0.015": 0.0,
			"-0.014": 0.183087799674,
			"-0.013": 1.1555729167,
			"-0.012": 4.33258385824,
			"-0.011": 3.17793132964,
			"-0.01": 5.31434004257,
			"-0.009": 3.78713287796,
			"-0.008": 4.36560017588,
			"-0.007": 8.56385955101,
			"-0.006": 10.3831064272,
			"-0.005": 11.181607503,
			"-0.004": 13.6254678398,
			"-0.003": 14.8202611836,
			"-0.002": 16.239734557,
			"-0.001": 18.6759322916,
			"0.0": 17.9360598421,
			"0.001": 14.1664473849,
			"0.002": 7.70199273943,
			"0.003": 6.25580761929,
			"0.004": 6.18701387511,
			"0.005": 5.29823385417,
			"0.006": 6.12077576856,
			"0.007": 8.63807240004,
			"0.008": 8.64364271034,
			"0.009": 6.1411017468,
			"0.01": 4.59486385712,
			"0.011": 2.92096763641,
			"0.012": 4.105506341,
			"0.013": 5.89652796229,
			"0.014": 1.02645306934,
			"0.015": 0.65727237365,
			"0.016": 0.233534136582,
			"0.017": 0.0,
			"0.018": 0.0,
			"0.019": 0.0,
			"0.02": 0.0,
			"0.021": 0.0,
			"0.022": 0.0,
			"0.023": 0.0,
			"0.024": 0.0,
			"0.025": 0.0
		}
	}
}
