{
	 "smiles": "CC(=O)OC1=CC=CC=C1C(C)=O", 
	 "Tm": 363.15, 
	 "num_atms": 23, 
	 "gaussian": { 
		 "optdone": 1, 
		 "sigma_profile": "yes", 
		 "theory": "DFT", 
		 "functional": "B3LYP", 
		 "basiset": "6-31G**", 
		 "properties": { 
			 "R2extent": 2550.191, 
			 "electric_dipole_moment_norm": 2.91560973726, 
			 "electric_quadrupole_moment_norm": 15.6713204, 
			 "total_energy": -612.771009948, 
			 "HOMO_LUMO_gap": 0.19415, 
			 "cosmo_polarized_energy": -11.46, 
			 "cosmo_cavitation_energy": 27.57, 
			 "cosmo_dispersion_energy": -19.42, 
			 "cosmo_repulsion_energy": 1.54, 
			 "cosmo_total_nonelectrostatic_energy": 9.69, 
			 "SMD_solvation_energy": 6.63 
		},
		"coords": [
			{
				"x": 0.1787308585,
				"y": 2.7032522071,
				"z": -1.758145528,
				"element": "C" 
			},
			{
				"x": 0.2707353429,
				"y": 1.9150526756,
				"z": -0.4762345972,
				"element": "C" 
			},
			{
				"x": 0.0238429173,
				"y": 2.3198560771,
				"z": 0.6304735811,
				"element": "O" 
			},
			{
				"x": 0.6800548728,
				"y": 0.6288421609,
				"z": -0.7552475062,
				"element": "O" 
			},
			{
				"x": 0.8967017032,
				"y": -0.2829518516,
				"z": 0.2784622665,
				"element": "C" 
			},
			{
				"x": 1.7780872195,
				"y": 0.0471278572,
				"z": 1.309580492,
				"element": "C" 
			},
			{
				"x": 2.0704337326,
				"y": -0.8894934697,
				"z": 2.2964396899,
				"element": "C" 
			},
			{
				"x": 1.4926839245,
				"y": -2.1613950587,
				"z": 2.2495442164,
				"element": "C" 
			},
			{
				"x": 0.6256321637,
				"y": -2.4812006103,
				"z": 1.2137844788,
				"element": "C" 
			},
			{
				"x": 0.2977244904,
				"y": -1.5534850426,
				"z": 0.2073973248,
				"element": "C" 
			},
			{
				"x": -0.6668466015,
				"y": -2.0381326042,
				"z": -0.8481435915,
				"element": "C" 
			},
			{
				"x": -1.2292592417,
				"y": -1.0997699902,
				"z": -1.8980436759,
				"element": "C" 
			},
			{
				"x": -1.0140762794,
				"y": -3.2100796232,
				"z": -0.8412453405,
				"element": "O" 
			},
			{
				"x": 1.1453180752,
				"y": 2.7012146404,
				"z": -2.2701922954,
				"element": "H" 
			},
			{
				"x": -0.5481076988,
				"y": 2.2407389382,
				"z": -2.4326208355,
				"element": "H" 
			},
			{
				"x": -0.1237038083,
				"y": 3.7249298983,
				"z": -1.5316385139,
				"element": "H" 
			},
			{
				"x": 2.2252692561,
				"y": 1.033212818,
				"z": 1.3323184718,
				"element": "H" 
			},
			{
				"x": 2.7535584533,
				"y": -0.6249603684,
				"z": 3.0981376641,
				"element": "H" 
			},
			{
				"x": 1.7215235782,
				"y": -2.8961793534,
				"z": 3.0151547518,
				"element": "H" 
			},
			{
				"x": 0.16732672,
				"y": -3.4615198768,
				"z": 1.1447304848,
				"element": "H" 
			},
			{
				"x": -0.4338943719,
				"y": -0.698290947,
				"z": -2.5318167473,
				"element": "H" 
			},
			{
				"x": -1.731400331,
				"y": -0.2458783399,
				"z": -1.4319115868,
				"element": "H" 
			},
			{
				"x": -1.9420349755,
				"y": -1.6620901367,
				"z": -2.5025832038,
				"element": "H" 
			}
		],
		 "valence_orbital": [ 
			{
				"type": "occ",
				"energy": -0.3267,
				"method": "rhf"
			},
			{
				"type": "occ",
				"energy": -0.29028,
				"method": "rhf"
			},
			{
				"type": "occ",
				"energy": -0.26149,
				"method": "rhf"
			},
			{
				"type": "occ",
				"energy": -0.25333,
				"method": "rhf"
			},
			{
				"type": "occ",
				"energy": -0.25083,
				"method": "rhf"
			},
			{
				"type": "unocc",
				"energy": -0.05668,
				"method": "rhf"
			},
			{
				"type": "unocc",
				"energy": -0.01897,
				"method": "rhf"
			},
			{
				"type": "unocc",
				"energy": 0.00291,
				"method": "rhf"
			},
			{
				"type": "unocc",
				"energy": 0.03549,
				"method": "rhf"
			},
			{
				"type": "unocc",
				"energy": 0.08216,
				"method": "rhf"
			}
		],
		"cosmo_sigma_profile": { 
			"-0.025": 0.0,
			"-0.024": 0.0,
			"-0.023": 0.0,
			"-0.022": 0.0,
			"-0.021": 0.0,
			"-0.02": 0.0,
			"-0.019": 0.0,
			"-0.018": 0.0,
			"-0.017": 0.0,
			"-0.016": 0.0,
			"-0.015": 0.0,
			"-0.014": 0.0,
			"-0.013": 0.0,
			"-0.012": 0.0,
			"-0.011": 0.0,
			"-0.01": 0.0,
			"-0.009": 0.0,
			"-0.008": 0.118643625419,
			"-0.007": 7.34048566448,
			"-0.006": 18.1857279431,
			"-0.005": 19.184641239,
			"-0.004": 21.0235424298,
			"-0.003": 20.4059097516,
			"-0.002": 18.2557728572,
			"-0.001": 15.7468820635,
			"0.0": 13.4332649974,
			"0.001": 11.9017779282,
			"0.002": 13.9092553961,
			"0.003": 15.1850299262,
			"0.004": 7.83407580484,
			"0.005": 4.11679243512,
			"0.006": 3.98747033819,
			"0.007": 3.23144308281,
			"0.008": 3.00493810907,
			"0.009": 4.18141121044,
			"0.01": 4.91936199375,
			"0.011": 8.07199000473,
			"0.012": 4.5024295129,
			"0.013": 1.28449170806,
			"0.014": 0.0264308582982,
			"0.015": 0.0,
			"0.016": 0.0,
			"0.017": 0.0,
			"0.018": 0.0,
			"0.019": 0.0,
			"0.02": 0.0,
			"0.021": 0.0,
			"0.022": 0.0,
			"0.023": 0.0,
			"0.024": 0.0,
			"0.025": 0.0
		}
	}
}
