{
	 "smiles": "CN1C=C(C=N1)C(=O)NC1=CC=C(O)C=C1", 
	 "Tm": 505.15, 
	 "num_atms": 27, 
	 "gaussian": { 
		 "optdone": 1, 
		 "sigma_profile": "yes", 
		 "theory": "DFT", 
		 "functional": "B3LYP", 
		 "basiset": "6-31G**", 
		 "properties": { 
			 "R2extent": 6244.905, 
			 "electric_dipole_moment_norm": 4.29684320054, 
			 "electric_quadrupole_moment_norm": 28.1352738361, 
			 "total_energy": -740.491970557, 
			 "HOMO_LUMO_gap": 0.17613, 
			 "cosmo_polarized_energy": -23.33, 
			 "cosmo_cavitation_energy": 32.13, 
			 "cosmo_dispersion_energy": -23.69, 
			 "cosmo_repulsion_energy": 1.82, 
			 "cosmo_total_nonelectrostatic_energy": 10.26, 
			 "SMD_solvation_energy": 5.8 
		},
		"coords": [
			{
				"x": 1.6564161953,
				"y": -0.5002892319,
				"z": -5.5845218196,
				"element": "C" 
			},
			{
				"x": 0.9977798551,
				"y": -0.9976314906,
				"z": -4.3904329086,
				"element": "N" 
			},
			{
				"x": 1.2630276089,
				"y": -0.6901211786,
				"z": -3.0982301774,
				"element": "C" 
			},
			{
				"x": 0.3686456891,
				"y": -1.4163919105,
				"z": -2.3180370681,
				"element": "C" 
			},
			{
				"x": -0.3986441076,
				"y": -2.1374539977,
				"z": -3.2667250641,
				"element": "C" 
			},
			{
				"x": -0.019301114,
				"y": -1.8846887856,
				"z": -4.5137008328,
				"element": "N" 
			},
			{
				"x": 0.1630676946,
				"y": -1.5057140898,
				"z": -0.8546387356,
				"element": "C" 
			},
			{
				"x": -0.7088554862,
				"y": -2.2315829298,
				"z": -0.3828223908,
				"element": "O" 
			},
			{
				"x": 1.0077834777,
				"y": -0.7294406681,
				"z": -0.0893695923,
				"element": "N" 
			},
			{
				"x": 1.0602139863,
				"y": -0.5999346779,
				"z": 1.316286257,
				"element": "C" 
			},
			{
				"x": 2.0267249595,
				"y": 0.2669160095,
				"z": 1.8525936823,
				"element": "C" 
			},
			{
				"x": 2.1459882457,
				"y": 0.4520673012,
				"z": 3.2244578055,
				"element": "C" 
			},
			{
				"x": 1.2925649018,
				"y": -0.2328380039,
				"z": 4.095301423,
				"element": "C" 
			},
			{
				"x": 1.4495335346,
				"y": -0.0168612029,
				"z": 5.4379678343,
				"element": "O" 
			},
			{
				"x": 0.3291403753,
				"y": -1.0964320461,
				"z": 3.5686619183,
				"element": "C" 
			},
			{
				"x": 0.2059364276,
				"y": -1.2852649465,
				"z": 2.1921956292,
				"element": "C" 
			},
			{
				"x": 2.095681446,
				"y": -1.3311784149,
				"z": -6.142179775,
				"element": "H" 
			},
			{
				"x": 0.9334736841,
				"y": 0.0130349162,
				"z": -6.2234040359,
				"element": "H" 
			},
			{
				"x": 2.4430809629,
				"y": 0.1974527066,
				"z": -5.2931255743,
				"element": "H" 
			},
			{
				"x": 2.0512407643,
				"y": 0.0066699847,
				"z": -2.848441234,
				"element": "H" 
			},
			{
				"x": -1.2067507168,
				"y": -2.8238006404,
				"z": -3.0583965571,
				"element": "H" 
			},
			{
				"x": 1.6859527684,
				"y": -0.1731885206,
				"z": -0.5876918796,
				"element": "H" 
			},
			{
				"x": 2.6968384944,
				"y": 0.8056718525,
				"z": 1.1855438344,
				"element": "H" 
			},
			{
				"x": 2.8936329667,
				"y": 1.1223372836,
				"z": 3.6350824542,
				"element": "H" 
			},
			{
				"x": 0.8013432545,
				"y": -0.547646858,
				"z": 5.9184986141,
				"element": "H" 
			},
			{
				"x": -0.3399763832,
				"y": -1.6342438307,
				"z": 4.2376704782,
				"element": "H" 
			},
			{
				"x": -0.540439485,
				"y": -1.9540466298,
				"z": 1.7884577145,
				"element": "H" 
			}
		],
		 "valence_orbital": [ 
			{
				"type": "occ",
				"energy": -0.26314,
				"method": "rhf"
			},
			{
				"type": "occ",
				"energy": -0.25353,
				"method": "rhf"
			},
			{
				"type": "occ",
				"energy": -0.25137,
				"method": "rhf"
			},
			{
				"type": "occ",
				"energy": -0.25066,
				"method": "rhf"
			},
			{
				"type": "occ",
				"energy": -0.19816,
				"method": "rhf"
			},
			{
				"type": "unocc",
				"energy": -0.02203,
				"method": "rhf"
			},
			{
				"type": "unocc",
				"energy": -0.00157,
				"method": "rhf"
			},
			{
				"type": "unocc",
				"energy": 0.01138,
				"method": "rhf"
			},
			{
				"type": "unocc",
				"energy": 0.03837,
				"method": "rhf"
			},
			{
				"type": "unocc",
				"energy": 0.05857,
				"method": "rhf"
			}
		],
		"cosmo_sigma_profile": { 
			"-0.025": 0.0,
			"-0.024": 0.0,
			"-0.023": 0.0,
			"-0.022": 0.0,
			"-0.021": 0.0,
			"-0.02": 0.0,
			"-0.019": 0.0,
			"-0.018": 0.265431136637,
			"-0.017": 0.954888342293,
			"-0.016": 1.80959131377,
			"-0.015": 2.55867554338,
			"-0.014": 2.15315118913,
			"-0.013": 2.69008068133,
			"-0.012": 1.80490928651,
			"-0.011": 2.89789897922,
			"-0.01": 5.61897528683,
			"-0.009": 4.88742301665,
			"-0.008": 3.78836814068,
			"-0.007": 9.07902578785,
			"-0.006": 13.3219357916,
			"-0.005": 13.7863174938,
			"-0.004": 15.5139466514,
			"-0.003": 15.5404422002,
			"-0.002": 10.9628370332,
			"-0.001": 9.73369063124,
			"0.0": 10.7912032152,
			"0.001": 12.521851559,
			"0.002": 16.5084821853,
			"0.003": 20.1307310723,
			"0.004": 17.8880646279,
			"0.005": 18.1916702467,
			"0.006": 8.08618679934,
			"0.007": 5.6348524098,
			"0.008": 4.52123455487,
			"0.009": 4.22007891939,
			"0.01": 4.23641142872,
			"0.011": 4.78300759294,
			"0.012": 4.70769358861,
			"0.013": 4.6637267962,
			"0.014": 1.46237543307,
			"0.015": 1.14800403548,
			"0.016": 0.215481518511,
			"0.017": 0.0,
			"0.018": 0.0,
			"0.019": 0.0,
			"0.02": 0.0,
			"0.021": 0.0,
			"0.022": 0.0,
			"0.023": 0.0,
			"0.024": 0.0,
			"0.025": 0.0
		}
	}
}
