{
	 "smiles": "CCNC1=NC=C(Br)C=C1", 
	 "Tm": 341.15, 
	 "num_atms": 19, 
	 "gaussian": { 
		 "optdone": 1, 
		 "sigma_profile": "yes", 
		 "theory": "DFT", 
		 "functional": "B3LYP", 
		 "basiset": "6-31G**", 
		 "properties": { 
			 "R2extent": 5813.9223, 
			 "electric_dipole_moment_norm": 3.37031676998, 
			 "electric_quadrupole_moment_norm": 6.8566967127, 
			 "total_energy": -2953.08284391, 
			 "HOMO_LUMO_gap": 0.18101, 
			 "cosmo_polarized_energy": -8.04, 
			 "cosmo_cavitation_energy": 24.92, 
			 "cosmo_dispersion_energy": -18.83, 
			 "cosmo_repulsion_energy": 1.55, 
			 "cosmo_total_nonelectrostatic_energy": 7.65, 
			 "SMD_solvation_energy": 1.77 
		},
		"coords": [
			{
				"x": -2.6815725177,
				"y": 2.1221537233,
				"z": 0.1907264453,
				"element": "C" 
			},
			{
				"x": -1.9072653461,
				"y": 1.9745021744,
				"z": 1.5053924374,
				"element": "C" 
			},
			{
				"x": -0.7651148212,
				"y": 1.0710469104,
				"z": 1.4270480923,
				"element": "N" 
			},
			{
				"x": -0.8905905415,
				"y": -0.2974968993,
				"z": 1.4558909334,
				"element": "C" 
			},
			{
				"x": -2.0917832099,
				"y": -0.8060094514,
				"z": 1.7787360444,
				"element": "N" 
			},
			{
				"x": -2.2244122272,
				"y": -2.1341988646,
				"z": 1.8593939497,
				"element": "C" 
			},
			{
				"x": -1.1798828327,
				"y": -3.0171264148,
				"z": 1.6138293116,
				"element": "C" 
			},
			{
				"x": -1.4574071815,
				"y": -4.901576495,
				"z": 1.7401790149,
				"element": "Br" 
			},
			{
				"x": 0.072895503,
				"y": -2.4992830198,
				"z": 1.2673569615,
				"element": "C" 
			},
			{
				"x": 0.2257390089,
				"y": -1.1269585235,
				"z": 1.1869414684,
				"element": "C" 
			},
			{
				"x": -2.0371916062,
				"y": 2.5009566124,
				"z": -0.6104724313,
				"element": "H" 
			},
			{
				"x": -3.514385337,
				"y": 2.8231252192,
				"z": 0.3136957553,
				"element": "H" 
			},
			{
				"x": -3.0898640161,
				"y": 1.1568977277,
				"z": -0.1201544566,
				"element": "H" 
			},
			{
				"x": -2.5702039444,
				"y": 1.5946255709,
				"z": 2.2856770215,
				"element": "H" 
			},
			{
				"x": -1.5292848683,
				"y": 2.9477754884,
				"z": 1.8376064307,
				"element": "H" 
			},
			{
				"x": 0.0682626071,
				"y": 1.4286483075,
				"z": 0.9847363372,
				"element": "H" 
			},
			{
				"x": -3.2096908764,
				"y": -2.5092609949,
				"z": 2.1260713898,
				"element": "H" 
			},
			{
				"x": 0.9071823847,
				"y": -3.1629538763,
				"z": 1.0674411383,
				"element": "H" 
			},
			{
				"x": 1.1869698223,
				"y": -0.6919671944,
				"z": 0.9281041561,
				"element": "H" 
			}
		],
		 "valence_orbital": [ 
			{
				"type": "occ",
				"energy": -0.28793,
				"method": "rhf"
			},
			{
				"type": "occ",
				"energy": -0.28695,
				"method": "rhf"
			},
			{
				"type": "occ",
				"energy": -0.27544,
				"method": "rhf"
			},
			{
				"type": "occ",
				"energy": -0.25921,
				"method": "rhf"
			},
			{
				"type": "occ",
				"energy": -0.20448,
				"method": "rhf"
			},
			{
				"type": "unocc",
				"energy": -0.02347,
				"method": "rhf"
			},
			{
				"type": "unocc",
				"energy": 0.00278,
				"method": "rhf"
			},
			{
				"type": "unocc",
				"energy": 0.0131,
				"method": "rhf"
			},
			{
				"type": "unocc",
				"energy": 0.07924,
				"method": "rhf"
			},
			{
				"type": "unocc",
				"energy": 0.11571,
				"method": "rhf"
			}
		],
		"cosmo_sigma_profile": { 
			"-0.025": 0.0,
			"-0.024": 0.0,
			"-0.023": 0.0,
			"-0.022": 0.0,
			"-0.021": 0.0,
			"-0.02": 0.0,
			"-0.019": 0.0,
			"-0.018": 0.0,
			"-0.017": 0.0,
			"-0.016": 0.0,
			"-0.015": 0.0,
			"-0.014": 0.227974518942,
			"-0.013": 1.40588252296,
			"-0.012": 1.68635542163,
			"-0.011": 1.41086870313,
			"-0.01": 1.23373484038,
			"-0.009": 1.52156619051,
			"-0.008": 2.57085560442,
			"-0.007": 5.16193981966,
			"-0.006": 5.91283012282,
			"-0.005": 7.7933942873,
			"-0.004": 9.67736348451,
			"-0.003": 13.8976327993,
			"-0.002": 15.8127508126,
			"-0.001": 17.4240639447,
			"0.0": 15.5120140644,
			"0.001": 20.2339372063,
			"0.002": 21.2067804582,
			"0.003": 19.0371809935,
			"0.004": 13.516914002,
			"0.005": 13.8225084293,
			"0.006": 3.13825401275,
			"0.007": 1.97263505385,
			"0.008": 2.24207096625,
			"0.009": 1.06405535876,
			"0.01": 1.1270691094,
			"0.011": 1.17143317552,
			"0.012": 0.924745942575,
			"0.013": 0.360215304325,
			"0.014": 0.0,
			"0.015": 0.0,
			"0.016": 0.0,
			"0.017": 0.0,
			"0.018": 0.0,
			"0.019": 0.0,
			"0.02": 0.0,
			"0.021": 0.0,
			"0.022": 0.0,
			"0.023": 0.0,
			"0.024": 0.0,
			"0.025": 0.0
		}
	}
}
