{
	 "smiles": "ClC1=CC=CC(Cl)=C1N=C=S", 
	 "Tm": 316.15, 
	 "num_atms": 14, 
	 "gaussian": { 
		 "optdone": 1, 
		 "sigma_profile": "yes", 
		 "theory": "DFT", 
		 "functional": "B3LYP", 
		 "basiset": "6-31G**", 
		 "properties": { 
			 "R2extent": 5724.6002, 
			 "electric_dipole_moment_norm": 4.37511934123, 
			 "electric_quadrupole_moment_norm": 13.9797940933, 
			 "total_energy": -1641.86427163, 
			 "HOMO_LUMO_gap": 0.17551, 
			 "cosmo_polarized_energy": -5.46, 
			 "cosmo_cavitation_energy": 25.47, 
			 "cosmo_dispersion_energy": -18.9, 
			 "cosmo_repulsion_energy": 1.5, 
			 "cosmo_total_nonelectrostatic_energy": 8.07, 
			 "SMD_solvation_energy": 4.41 
		},
		"coords": [
			{
				"x": -1.3142492517,
				"y": 1.9654341853,
				"z": -2.584949355,
				"element": "Cl" 
			},
			{
				"x": -1.134621329,
				"y": 0.7444162008,
				"z": -1.3528841731,
				"element": "C" 
			},
			{
				"x": 0.1112552265,
				"y": 0.5289615326,
				"z": -0.7720822002,
				"element": "C" 
			},
			{
				"x": 0.2555147538,
				"y": -0.447399281,
				"z": 0.212894176,
				"element": "C" 
			},
			{
				"x": -0.8387014399,
				"y": -1.2094741325,
				"z": 0.6206189459,
				"element": "C" 
			},
			{
				"x": -2.0845703608,
				"y": -0.9938609184,
				"z": 0.0398819826,
				"element": "C" 
			},
			{
				"x": -3.452560114,
				"y": -1.9473402233,
				"z": 0.5502787233,
				"element": "Cl" 
			},
			{
				"x": -2.262772197,
				"y": -0.0116927924,
				"z": -0.9610237592,
				"element": "C" 
			},
			{
				"x": -3.4779606724,
				"y": 0.1987616842,
				"z": -1.52727716,
				"element": "N" 
			},
			{
				"x": -4.5428568136,
				"y": 0.3838134206,
				"z": -2.0227755812,
				"element": "C" 
			},
			{
				"x": -5.9647751911,
				"y": 0.6297416706,
				"z": -2.6834772821,
				"element": "S" 
			},
			{
				"x": 0.9564767644,
				"y": 1.1256671781,
				"z": -1.0948694501,
				"element": "H" 
			},
			{
				"x": 1.2270149154,
				"y": -0.6153881761,
				"z": 0.665863562,
				"element": "H" 
			},
			{
				"x": -0.7352942908,
				"y": -1.9704403485,
				"z": 1.3854015712,
				"element": "H" 
			}
		],
		 "valence_orbital": [ 
			{
				"type": "occ",
				"energy": -0.32947,
				"method": "rhf"
			},
			{
				"type": "occ",
				"energy": -0.30463,
				"method": "rhf"
			},
			{
				"type": "occ",
				"energy": -0.2671,
				"method": "rhf"
			},
			{
				"type": "occ",
				"energy": -0.26088,
				"method": "rhf"
			},
			{
				"type": "occ",
				"energy": -0.24038,
				"method": "rhf"
			},
			{
				"type": "unocc",
				"energy": -0.06487,
				"method": "rhf"
			},
			{
				"type": "unocc",
				"energy": -0.03968,
				"method": "rhf"
			},
			{
				"type": "unocc",
				"energy": -0.0071,
				"method": "rhf"
			},
			{
				"type": "unocc",
				"energy": -0.00652,
				"method": "rhf"
			},
			{
				"type": "unocc",
				"energy": 0.03286,
				"method": "rhf"
			}
		],
		"cosmo_sigma_profile": { 
			"-0.025": 0.0,
			"-0.024": 0.0,
			"-0.023": 0.0,
			"-0.022": 0.0,
			"-0.021": 0.0,
			"-0.02": 0.0,
			"-0.019": 0.0,
			"-0.018": 0.0,
			"-0.017": 0.0,
			"-0.016": 0.0,
			"-0.015": 0.0,
			"-0.014": 0.0,
			"-0.013": 0.0,
			"-0.012": 0.0,
			"-0.011": 0.0,
			"-0.01": 0.0,
			"-0.009": 0.786901885556,
			"-0.008": 6.06367532069,
			"-0.007": 6.18248234803,
			"-0.006": 6.62788692785,
			"-0.005": 4.80247698803,
			"-0.004": 4.85593436576,
			"-0.003": 12.1304263864,
			"-0.002": 18.3293456176,
			"-0.001": 23.7719095494,
			"0.0": 27.3099679292,
			"0.001": 28.4702833436,
			"0.002": 23.3023349143,
			"0.003": 22.3405384685,
			"0.004": 14.2429254831,
			"0.005": 13.3994822991,
			"0.006": 1.94845747969,
			"0.007": 0.0,
			"0.008": 0.0,
			"0.009": 0.0,
			"0.01": 0.0,
			"0.011": 0.0,
			"0.012": 0.0,
			"0.013": 0.0,
			"0.014": 0.0,
			"0.015": 0.0,
			"0.016": 0.0,
			"0.017": 0.0,
			"0.018": 0.0,
			"0.019": 0.0,
			"0.02": 0.0,
			"0.021": 0.0,
			"0.022": 0.0,
			"0.023": 0.0,
			"0.024": 0.0,
			"0.025": 0.0
		}
	}
}
