{
	 "smiles": "NNC(=O)NC1=CC2=C(OCO2)C=C1", 
	 "Tm": 438.15, 
	 "num_atms": 23, 
	 "gaussian": { 
		 "optdone": 1, 
		 "sigma_profile": "yes", 
		 "theory": "DFT", 
		 "functional": "B3LYP", 
		 "basiset": "6-31G**", 
		 "properties": { 
			 "R2extent": 5020.917, 
			 "electric_dipole_moment_norm": 4.00139385839, 
			 "electric_quadrupole_moment_norm": 5.24337796559, 
			 "total_energy": -700.157918172, 
			 "HOMO_LUMO_gap": 0.19312, 
			 "cosmo_polarized_energy": -20.05, 
			 "cosmo_cavitation_energy": 27.47, 
			 "cosmo_dispersion_energy": -21.0, 
			 "cosmo_repulsion_energy": 1.66, 
			 "cosmo_total_nonelectrostatic_energy": 8.13, 
			 "SMD_solvation_energy": 6.56 
		},
		"coords": [
			{
				"x": 1.4672520148,
				"y": -1.7000289257,
				"z": -1.9518211602,
				"element": "N" 
			},
			{
				"x": 1.2991516288,
				"y": -0.3362752239,
				"z": -1.7243140537,
				"element": "N" 
			},
			{
				"x": 0.6148543618,
				"y": 0.2873261536,
				"z": -0.6906568849,
				"element": "C" 
			},
			{
				"x": 0.5607229498,
				"y": 1.5100679508,
				"z": -0.6341728106,
				"element": "O" 
			},
			{
				"x": 0.0385666175,
				"y": -0.5863502658,
				"z": 0.209242247,
				"element": "N" 
			},
			{
				"x": -0.7182275573,
				"y": -0.2798187378,
				"z": 1.3617006309,
				"element": "C" 
			},
			{
				"x": -1.191386644,
				"y": -1.3850638873,
				"z": 2.1090992731,
				"element": "C" 
			},
			{
				"x": -1.9323906285,
				"y": -1.1130595256,
				"z": 3.2388007987,
				"element": "C" 
			},
			{
				"x": -2.2146267365,
				"y": 0.1867855423,
				"z": 3.6446181312,
				"element": "C" 
			},
			{
				"x": -2.9679166629,
				"y": 0.1594104841,
				"z": 4.7994324335,
				"element": "O" 
			},
			{
				"x": -3.1554804525,
				"y": -1.2220787168,
				"z": 5.1154464766,
				"element": "C" 
			},
			{
				"x": -2.4922339863,
				"y": -2.0097991723,
				"z": 4.1149273505,
				"element": "O" 
			},
			{
				"x": -1.760965372,
				"y": 1.2734497806,
				"z": 2.9271699329,
				"element": "C" 
			},
			{
				"x": -1.0011345713,
				"y": 1.0304747154,
				"z": 1.7680938918,
				"element": "C" 
			},
			{
				"x": 0.5848129714,
				"y": -2.1744886083,
				"z": -2.1242585779,
				"element": "H" 
			},
			{
				"x": 1.9882422897,
				"y": -2.154582958,
				"z": -1.2064999503,
				"element": "H" 
			},
			{
				"x": 1.7253276344,
				"y": 0.2914836733,
				"z": -2.3896059153,
				"element": "H" 
			},
			{
				"x": 0.1722759853,
				"y": -1.5688719211,
				"z": 0.0257484808,
				"element": "H" 
			},
			{
				"x": -0.9834493246,
				"y": -2.4081345,
				"z": 1.8114974432,
				"element": "H" 
			},
			{
				"x": -4.2269915244,
				"y": -1.4594607656,
				"z": 5.1118192632,
				"element": "H" 
			},
			{
				"x": -2.7160585232,
				"y": -1.4391448725,
				"z": 6.0974336306,
				"element": "H" 
			},
			{
				"x": -1.9804989326,
				"y": 2.2872022766,
				"z": 3.2427068188,
				"element": "H" 
			},
			{
				"x": -0.6259455373,
				"y": 1.8526575041,
				"z": 1.1764925497,
				"element": "H" 
			}
		],
		 "valence_orbital": [ 
			{
				"type": "occ",
				"energy": -0.27602,
				"method": "rhf"
			},
			{
				"type": "occ",
				"energy": -0.25851,
				"method": "rhf"
			},
			{
				"type": "occ",
				"energy": -0.25322,
				"method": "rhf"
			},
			{
				"type": "occ",
				"energy": -0.23714,
				"method": "rhf"
			},
			{
				"type": "occ",
				"energy": -0.19131,
				"method": "rhf"
			},
			{
				"type": "unocc",
				"energy": 0.00181,
				"method": "rhf"
			},
			{
				"type": "unocc",
				"energy": 0.01281,
				"method": "rhf"
			},
			{
				"type": "unocc",
				"energy": 0.0442,
				"method": "rhf"
			},
			{
				"type": "unocc",
				"energy": 0.07537,
				"method": "rhf"
			},
			{
				"type": "unocc",
				"energy": 0.09383,
				"method": "rhf"
			}
		],
		"cosmo_sigma_profile": { 
			"-0.025": 0.0,
			"-0.024": 0.0,
			"-0.023": 0.0,
			"-0.022": 0.0,
			"-0.021": 0.0,
			"-0.02": 0.0,
			"-0.019": 0.0,
			"-0.018": 0.0,
			"-0.017": 0.0,
			"-0.016": 0.0,
			"-0.015": 0.665999438979,
			"-0.014": 2.50140247518,
			"-0.013": 4.53649957635,
			"-0.012": 6.02601583863,
			"-0.011": 4.3846850838,
			"-0.01": 4.33490907637,
			"-0.009": 2.87148044563,
			"-0.008": 4.3672283018,
			"-0.007": 12.3371072211,
			"-0.006": 12.6622445143,
			"-0.005": 8.10747234487,
			"-0.004": 7.80468356193,
			"-0.003": 7.79683166377,
			"-0.002": 8.86713978325,
			"-0.001": 8.13033910931,
			"0.0": 10.1065323275,
			"0.001": 12.0727195512,
			"0.002": 13.3710381969,
			"0.003": 19.871634691,
			"0.004": 16.1336386684,
			"0.005": 11.3113206781,
			"0.006": 6.30141868914,
			"0.007": 6.16223953884,
			"0.008": 4.27089460789,
			"0.009": 5.60174901017,
			"0.01": 4.37551536559,
			"0.011": 1.82183965342,
			"0.012": 2.64731338373,
			"0.013": 3.54003033489,
			"0.014": 4.19411323903,
			"0.015": 1.32262113924,
			"0.016": 0.114684660651,
			"0.017": 0.0,
			"0.018": 0.0,
			"0.019": 0.0,
			"0.02": 0.0,
			"0.021": 0.0,
			"0.022": 0.0,
			"0.023": 0.0,
			"0.024": 0.0,
			"0.025": 0.0
		}
	}
}
