{
	 "smiles": "CS(=O)(=O)NCC#N", 
	 "Tm": 343.15, 
	 "num_atms": 14, 
	 "gaussian": { 
		 "optdone": 1, 
		 "sigma_profile": "yes", 
		 "theory": "DFT", 
		 "functional": "B3LYP", 
		 "basiset": "6-31G**", 
		 "properties": { 
			 "R2extent": 1267.7381, 
			 "electric_dipole_moment_norm": 2.34592189555, 
			 "electric_quadrupole_moment_norm": 17.7522086764, 
			 "total_energy": -775.978020115, 
			 "HOMO_LUMO_gap": 0.29788, 
			 "cosmo_polarized_energy": -18.18, 
			 "cosmo_cavitation_energy": 20.15, 
			 "cosmo_dispersion_energy": -14.84, 
			 "cosmo_repulsion_energy": 1.19, 
			 "cosmo_total_nonelectrostatic_energy": 6.51, 
			 "SMD_solvation_energy": 4.07 
		},
		"coords": [
			{
				"x": -0.2096250419,
				"y": -1.2506919557,
				"z": -1.3281307653,
				"element": "C" 
			},
			{
				"x": -0.2205977833,
				"y": 0.526408009,
				"z": -1.0703662031,
				"element": "S" 
			},
			{
				"x": -0.3772611167,
				"y": 1.2012970648,
				"z": -2.3596965855,
				"element": "O" 
			},
			{
				"x": 0.8731431984,
				"y": 0.8613163761,
				"z": -0.1530242423,
				"element": "O" 
			},
			{
				"x": -1.7153092242,
				"y": 0.7604656616,
				"z": -0.2700513668,
				"element": "N" 
			},
			{
				"x": -1.6813044092,
				"y": 0.8699033845,
				"z": 1.1942267768,
				"element": "C" 
			},
			{
				"x": -1.6978285009,
				"y": -0.4601462602,
				"z": 1.8251739969,
				"element": "C" 
			},
			{
				"x": -1.6866486921,
				"y": -1.5153279756,
				"z": 2.3070374801,
				"element": "N" 
			},
			{
				"x": -1.051571983,
				"y": -1.5116049213,
				"z": -1.968963854,
				"element": "H" 
			},
			{
				"x": -0.2826888185,
				"y": -1.7482468473,
				"z": -0.359950985,
				"element": "H" 
			},
			{
				"x": 0.7385551556,
				"y": -1.4912798487,
				"z": -1.8122587884,
				"element": "H" 
			},
			{
				"x": -2.1697803165,
				"y": 1.5507851821,
				"z": -0.7201648557,
				"element": "H" 
			},
			{
				"x": -2.5767652969,
				"y": 1.4134419371,
				"z": 1.510336071,
				"element": "H" 
			},
			{
				"x": -0.800717171,
				"y": 1.4154801936,
				"z": 1.5560333212,
				"element": "H" 
			}
		],
		 "valence_orbital": [ 
			{
				"type": "occ",
				"energy": -0.34682,
				"method": "rhf"
			},
			{
				"type": "occ",
				"energy": -0.33186,
				"method": "rhf"
			},
			{
				"type": "occ",
				"energy": -0.32768,
				"method": "rhf"
			},
			{
				"type": "occ",
				"energy": -0.31616,
				"method": "rhf"
			},
			{
				"type": "occ",
				"energy": -0.3009,
				"method": "rhf"
			},
			{
				"type": "unocc",
				"energy": -0.00302,
				"method": "rhf"
			},
			{
				"type": "unocc",
				"energy": 0.01735,
				"method": "rhf"
			},
			{
				"type": "unocc",
				"energy": 0.0545,
				"method": "rhf"
			},
			{
				"type": "unocc",
				"energy": 0.05615,
				"method": "rhf"
			},
			{
				"type": "unocc",
				"energy": 0.06629,
				"method": "rhf"
			}
		],
		"cosmo_sigma_profile": { 
			"-0.025": 0.0,
			"-0.024": 0.0,
			"-0.023": 0.0,
			"-0.022": 0.0,
			"-0.021": 0.0,
			"-0.02": 0.0,
			"-0.019": 0.0,
			"-0.018": 0.0,
			"-0.017": 0.0182047629556,
			"-0.016": 0.987167881933,
			"-0.015": 1.5405527515,
			"-0.014": 1.27893935167,
			"-0.013": 1.76143521786,
			"-0.012": 1.99388344581,
			"-0.011": 3.41394789453,
			"-0.01": 3.82553511809,
			"-0.009": 7.34605157422,
			"-0.008": 8.57250034643,
			"-0.007": 9.68455092772,
			"-0.006": 7.29004243651,
			"-0.005": 9.37648557986,
			"-0.004": 9.0569319522,
			"-0.003": 5.88468892141,
			"-0.002": 4.76864634053,
			"-0.001": 5.26395850811,
			"0.0": 4.65817166896,
			"0.001": 4.32251533285,
			"0.002": 5.99904910929,
			"0.003": 4.98609981006,
			"0.004": 3.09758762593,
			"0.005": 5.26645886756,
			"0.006": 4.65709600896,
			"0.007": 6.28191640149,
			"0.008": 6.38512947886,
			"0.009": 6.62254511759,
			"0.01": 10.6916847334,
			"0.011": 12.3112148181,
			"0.012": 3.22625652592,
			"0.013": 0.372484293637,
			"0.014": 0.0,
			"0.015": 0.0,
			"0.016": 0.0,
			"0.017": 0.0,
			"0.018": 0.0,
			"0.019": 0.0,
			"0.02": 0.0,
			"0.021": 0.0,
			"0.022": 0.0,
			"0.023": 0.0,
			"0.024": 0.0,
			"0.025": 0.0
		}
	}
}
