{
	 "smiles": "NOC1CCCCO1", 
	 "Tm": 308.65, 
	 "num_atms": 19, 
	 "gaussian": { 
		 "optdone": 1, 
		 "sigma_profile": "yes", 
		 "theory": "DFT", 
		 "functional": "B3LYP", 
		 "basiset": "6-31G**", 
		 "properties": { 
			 "R2extent": 1335.8486, 
			 "electric_dipole_moment_norm": 0.770363518087, 
			 "electric_quadrupole_moment_norm": 6.54778869543, 
			 "total_energy": -402.289563753, 
			 "HOMO_LUMO_gap": 0.3178, 
			 "cosmo_polarized_energy": -8.48, 
			 "cosmo_cavitation_energy": 20.64, 
			 "cosmo_dispersion_energy": -15.84, 
			 "cosmo_repulsion_energy": 1.35, 
			 "cosmo_total_nonelectrostatic_energy": 6.14, 
			 "SMD_solvation_energy": 4.0 
		},
		"coords": [
			{
				"x": 0.2632977906,
				"y": 2.752526532,
				"z": -2.7987080386,
				"element": "N" 
			},
			{
				"x": 0.7780866604,
				"y": 2.4347521451,
				"z": -1.480372543,
				"element": "O" 
			},
			{
				"x": 0.7719587984,
				"y": 1.0458991524,
				"z": -1.32062832,
				"element": "C" 
			},
			{
				"x": 1.5184281256,
				"y": 0.7330316958,
				"z": -0.0093198928,
				"element": "C" 
			},
			{
				"x": 0.5235982526,
				"y": 0.5693789397,
				"z": 1.1453691596,
				"element": "C" 
			},
			{
				"x": -0.4504681918,
				"y": -0.5909558374,
				"z": 0.8512758979,
				"element": "C" 
			},
			{
				"x": -0.7486796595,
				"y": -0.6507731817,
				"z": -0.6634893199,
				"element": "C" 
			},
			{
				"x": -0.5928065066,
				"y": 0.6301244548,
				"z": -1.2655599625,
				"element": "O" 
			},
			{
				"x": 0.6149474933,
				"y": 3.7012958597,
				"z": -2.927730503,
				"element": "H" 
			},
			{
				"x": -0.7444268358,
				"y": 2.8489048065,
				"z": -2.6523543252,
				"element": "H" 
			},
			{
				"x": 1.2450902427,
				"y": 0.5750574011,
				"z": -2.1977176214,
				"element": "H" 
			},
			{
				"x": 2.1036540526,
				"y": -0.1856454089,
				"z": -0.1367007097,
				"element": "H" 
			},
			{
				"x": 2.2291261837,
				"y": 1.5428760036,
				"z": 0.1792416628,
				"element": "H" 
			},
			{
				"x": -0.0401758003,
				"y": 1.5015614856,
				"z": 1.2524019767,
				"element": "H" 
			},
			{
				"x": 1.0499991695,
				"y": 0.4021543813,
				"z": 2.0906897178,
				"element": "H" 
			},
			{
				"x": -1.3759947751,
				"y": -0.4512701421,
				"z": 1.4199617789,
				"element": "H" 
			},
			{
				"x": -0.0202263319,
				"y": -1.5471808043,
				"z": 1.1741121727,
				"element": "H" 
			},
			{
				"x": -0.0901509834,
				"y": -1.3813860826,
				"z": -1.1607782443,
				"element": "H" 
			},
			{
				"x": -1.778657685,
				"y": -0.9584514007,
				"z": -0.862492886,
				"element": "H" 
			}
		],
		 "valence_orbital": [ 
			{
				"type": "occ",
				"energy": -0.32955,
				"method": "rhf"
			},
			{
				"type": "occ",
				"energy": -0.30352,
				"method": "rhf"
			},
			{
				"type": "occ",
				"energy": -0.2916,
				"method": "rhf"
			},
			{
				"type": "occ",
				"energy": -0.24579,
				"method": "rhf"
			},
			{
				"type": "occ",
				"energy": -0.23616,
				"method": "rhf"
			},
			{
				"type": "unocc",
				"energy": 0.08164,
				"method": "rhf"
			},
			{
				"type": "unocc",
				"energy": 0.08569,
				"method": "rhf"
			},
			{
				"type": "unocc",
				"energy": 0.10771,
				"method": "rhf"
			},
			{
				"type": "unocc",
				"energy": 0.11749,
				"method": "rhf"
			},
			{
				"type": "unocc",
				"energy": 0.13916,
				"method": "rhf"
			}
		],
		"cosmo_sigma_profile": { 
			"-0.025": 0.0,
			"-0.024": 0.0,
			"-0.023": 0.0,
			"-0.022": 0.0,
			"-0.021": 0.0,
			"-0.02": 0.0,
			"-0.019": 0.0,
			"-0.018": 0.0,
			"-0.017": 0.0,
			"-0.016": 0.0,
			"-0.015": 0.0,
			"-0.014": 0.0,
			"-0.013": 0.0145579303033,
			"-0.012": 1.42555208019,
			"-0.011": 2.8193053318,
			"-0.01": 3.36082225585,
			"-0.009": 1.92465173113,
			"-0.008": 2.12127096874,
			"-0.007": 1.19972082544,
			"-0.006": 1.35570281236,
			"-0.005": 2.18640641776,
			"-0.004": 12.370430284,
			"-0.003": 21.6619662499,
			"-0.002": 21.5828671557,
			"-0.001": 21.017045985,
			"0.0": 15.4099855715,
			"0.001": 8.17587621571,
			"0.002": 4.04508698003,
			"0.003": 3.42043976232,
			"0.004": 2.65853088891,
			"0.005": 4.07212156515,
			"0.006": 3.68395131846,
			"0.007": 3.77891329956,
			"0.008": 3.50181625556,
			"0.009": 4.19559314966,
			"0.01": 3.70553025538,
			"0.011": 4.32822459988,
			"0.012": 2.17810129677,
			"0.013": 0.999424833733,
			"0.014": 0.774600521109,
			"0.015": 0.356553411304,
			"0.016": 0.538029104499,
			"0.017": 0.120645225374,
			"0.018": 0.0,
			"0.019": 0.0,
			"0.02": 0.0,
			"0.021": 0.0,
			"0.022": 0.0,
			"0.023": 0.0,
			"0.024": 0.0,
			"0.025": 0.0
		}
	}
}
