{
	 "smiles": "ClC1=C(Cl)C=C(C=C1)C1=CSC(CC#N)=N1", 
	 "Tm": 379.15, 
	 "num_atms": 22, 
	 "gaussian": { 
		 "optdone": 1, 
		 "sigma_profile": "yes", 
		 "theory": "DFT", 
		 "functional": "B3LYP", 
		 "basiset": "6-31G**", 
		 "properties": { 
			 "R2extent": 8049.0266, 
			 "electric_dipole_moment_norm": 2.35486569681, 
			 "electric_quadrupole_moment_norm": 30.4355672868, 
			 "total_energy": -1850.83583633, 
			 "HOMO_LUMO_gap": 0.1743, 
			 "cosmo_polarized_energy": -13.14, 
			 "cosmo_cavitation_energy": 33.5, 
			 "cosmo_dispersion_energy": -24.66, 
			 "cosmo_repulsion_energy": 1.87, 
			 "cosmo_total_nonelectrostatic_energy": 10.72, 
			 "SMD_solvation_energy": 5.09 
		},
		"coords": [
			{
				"x": -0.2172890351,
				"y": 2.2461432806,
				"z": -5.9102309521,
				"element": "Cl" 
			},
			{
				"x": -0.5214671276,
				"y": 1.5944103159,
				"z": -4.3207873931,
				"element": "C" 
			},
			{
				"x": 0.4898491382,
				"y": 1.4982382153,
				"z": -3.3559210077,
				"element": "C" 
			},
			{
				"x": 2.1203417687,
				"y": 2.0282063643,
				"z": -3.6924436289,
				"element": "Cl" 
			},
			{
				"x": 0.2069077945,
				"y": 0.971540112,
				"z": -2.0970282489,
				"element": "C" 
			},
			{
				"x": -1.0837002945,
				"y": 0.5313560258,
				"z": -1.7739559393,
				"element": "C" 
			},
			{
				"x": -2.0897969758,
				"y": 0.6337532654,
				"z": -2.748030551,
				"element": "C" 
			},
			{
				"x": -1.8109552195,
				"y": 1.1577302163,
				"z": -4.0037158964,
				"element": "C" 
			},
			{
				"x": -1.3442789022,
				"y": -0.0206741513,
				"z": -0.4312512967,
				"element": "C" 
			},
			{
				"x": -2.5338231537,
				"y": -0.5254945966,
				"z": 0.0363513686,
				"element": "C" 
			},
			{
				"x": -2.3719696891,
				"y": -1.072996224,
				"z": 1.6667955996,
				"element": "S" 
			},
			{
				"x": -0.6902194487,
				"y": -0.5775400153,
				"z": 1.6185877503,
				"element": "C" 
			},
			{
				"x": 0.2388652736,
				"y": -0.6739665187,
				"z": 2.8077457788,
				"element": "C" 
			},
			{
				"x": -0.0824914446,
				"y": -1.7607775923,
				"z": 3.7359255912,
				"element": "C" 
			},
			{
				"x": -0.343223351,
				"y": -2.6132936009,
				"z": 4.4782048447,
				"element": "N" 
			},
			{
				"x": -0.3113421219,
				"y": -0.0634620613,
				"z": 0.4895350283,
				"element": "N" 
			},
			{
				"x": 0.9937166741,
				"y": 0.9003126537,
				"z": -1.3566838461,
				"element": "H" 
			},
			{
				"x": -3.1017090348,
				"y": 0.3068638948,
				"z": -2.5330423209,
				"element": "H" 
			},
			{
				"x": -2.5906753682,
				"y": 1.2353421982,
				"z": -4.7531444728,
				"element": "H" 
			},
			{
				"x": -3.4777320763,
				"y": -0.6248918109,
				"z": -0.4788069943,
				"element": "H" 
			},
			{
				"x": 0.2269461383,
				"y": 0.2715268743,
				"z": 3.366211013,
				"element": "H" 
			},
			{
				"x": 1.2572464555,
				"y": -0.8048268453,
				"z": 2.4276855738,
				"element": "H" 
			}
		],
		 "valence_orbital": [ 
			{
				"type": "occ",
				"energy": -0.30875,
				"method": "rhf"
			},
			{
				"type": "occ",
				"energy": -0.30075,
				"method": "rhf"
			},
			{
				"type": "occ",
				"energy": -0.28741,
				"method": "rhf"
			},
			{
				"type": "occ",
				"energy": -0.26453,
				"method": "rhf"
			},
			{
				"type": "occ",
				"energy": -0.23657,
				"method": "rhf"
			},
			{
				"type": "unocc",
				"energy": -0.06227,
				"method": "rhf"
			},
			{
				"type": "unocc",
				"energy": -0.0378,
				"method": "rhf"
			},
			{
				"type": "unocc",
				"energy": -0.02523,
				"method": "rhf"
			},
			{
				"type": "unocc",
				"energy": -0.01236,
				"method": "rhf"
			},
			{
				"type": "unocc",
				"energy": 0.00169,
				"method": "rhf"
			}
		],
		"cosmo_sigma_profile": { 
			"-0.025": 0.0,
			"-0.024": 0.0,
			"-0.023": 0.0,
			"-0.022": 0.0,
			"-0.021": 0.0,
			"-0.02": 0.0,
			"-0.019": 0.0,
			"-0.018": 0.0,
			"-0.017": 0.0,
			"-0.016": 0.0,
			"-0.015": 0.0,
			"-0.014": 0.0,
			"-0.013": 0.0,
			"-0.012": 0.0,
			"-0.011": 1.47674530304,
			"-0.01": 8.24073614333,
			"-0.009": 7.43853922722,
			"-0.008": 8.12636926705,
			"-0.007": 10.4984902045,
			"-0.006": 8.27600366169,
			"-0.005": 9.23647366857,
			"-0.004": 8.08206153787,
			"-0.003": 10.5383353168,
			"-0.002": 13.9240192194,
			"-0.001": 17.7303709984,
			"0.0": 27.7232700452,
			"0.001": 39.7145615701,
			"0.002": 33.2016151408,
			"0.003": 20.1449449407,
			"0.004": 19.2740933668,
			"0.005": 9.07988509703,
			"0.006": 5.37498090353,
			"0.007": 3.56558226241,
			"0.008": 4.62303477533,
			"0.009": 3.74132771429,
			"0.01": 2.85699293097,
			"0.011": 2.49456920698,
			"0.012": 2.14207916484,
			"0.013": 0.575226513084,
			"0.014": 0.0,
			"0.015": 0.0,
			"0.016": 0.0,
			"0.017": 0.0,
			"0.018": 0.0,
			"0.019": 0.0,
			"0.02": 0.0,
			"0.021": 0.0,
			"0.022": 0.0,
			"0.023": 0.0,
			"0.024": 0.0,
			"0.025": 0.0
		}
	}
}
