{
	 "smiles": "CC(C)(O)C1=CN=C(Cl)N=C1", 
	 "Tm": 372.15, 
	 "num_atms": 20, 
	 "gaussian": { 
		 "optdone": 1, 
		 "sigma_profile": "yes", 
		 "theory": "DFT", 
		 "functional": "B3LYP", 
		 "basiset": "6-31G**", 
		 "properties": { 
			 "R2extent": 4574.2009, 
			 "electric_dipole_moment_norm": 4.31894250598, 
			 "electric_quadrupole_moment_norm": 18.6765568211, 
			 "total_energy": -917.081079498, 
			 "HOMO_LUMO_gap": 0.20899, 
			 "cosmo_polarized_energy": -12.35, 
			 "cosmo_cavitation_energy": 25.35, 
			 "cosmo_dispersion_energy": -18.51, 
			 "cosmo_repulsion_energy": 1.49, 
			 "cosmo_total_nonelectrostatic_energy": 8.33, 
			 "SMD_solvation_energy": 1.37 
		},
		"coords": [
			{
				"x": 0.4337246076,
				"y": -1.6296284871,
				"z": -0.1512578691,
				"element": "C" 
			},
			{
				"x": -0.3623770907,
				"y": -1.5030691084,
				"z": 1.1583229073,
				"element": "C" 
			},
			{
				"x": 0.4425255937,
				"y": -0.7365817749,
				"z": 2.2183643451,
				"element": "C" 
			},
			{
				"x": -0.5621871748,
				"y": -2.8058278625,
				"z": 1.7192151097,
				"element": "O" 
			},
			{
				"x": -1.7145850787,
				"y": -0.8178029618,
				"z": 0.9370490199,
				"element": "C" 
			},
			{
				"x": -1.8863085301,
				"y": 0.323520737,
				"z": 0.1462507561,
				"element": "C" 
			},
			{
				"x": -3.0677493107,
				"y": 0.9286143998,
				"z": -0.0232464643,
				"element": "N" 
			},
			{
				"x": -4.0884723392,
				"y": 0.3732410618,
				"z": 0.6190714259,
				"element": "C" 
			},
			{
				"x": -5.6454454252,
				"y": 1.1501630681,
				"z": 0.4016203593,
				"element": "Cl" 
			},
			{
				"x": -4.0751603175,
				"y": -0.6954898651,
				"z": 1.4044024593,
				"element": "N" 
			},
			{
				"x": -2.8798297357,
				"y": -1.2807753688,
				"z": 1.5570337167,
				"element": "C" 
			},
			{
				"x": 0.6994469754,
				"y": -0.655354746,
				"z": -0.5712926415,
				"element": "H" 
			},
			{
				"x": -0.1422752303,
				"y": -2.1729796136,
				"z": -0.9092103071,
				"element": "H" 
			},
			{
				"x": 1.3581976596,
				"y": -2.1797740846,
				"z": 0.0439741812,
				"element": "H" 
			},
			{
				"x": -0.10705488,
				"y": -0.7126112737,
				"z": 3.1629875083,
				"element": "H" 
			},
			{
				"x": 1.4004888239,
				"y": -1.2367327358,
				"z": 2.386783664,
				"element": "H" 
			},
			{
				"x": 0.6302554153,
				"y": 0.292311204,
				"z": 1.898767147,
				"element": "H" 
			},
			{
				"x": -0.9396010957,
				"y": -3.3733157877,
				"z": 1.0324897799,
				"element": "H" 
			},
			{
				"x": -1.049214696,
				"y": 0.7813512977,
				"z": -0.3771295372,
				"element": "H" 
			},
			{
				"x": -2.8448781709,
				"y": -2.1559580987,
				"z": 2.1995044394,
				"element": "H" 
			}
		],
		 "valence_orbital": [ 
			{
				"type": "occ",
				"energy": -0.3272,
				"method": "rhf"
			},
			{
				"type": "occ",
				"energy": -0.31487,
				"method": "rhf"
			},
			{
				"type": "occ",
				"energy": -0.29194,
				"method": "rhf"
			},
			{
				"type": "occ",
				"energy": -0.27137,
				"method": "rhf"
			},
			{
				"type": "occ",
				"energy": -0.2649,
				"method": "rhf"
			},
			{
				"type": "unocc",
				"energy": -0.05591,
				"method": "rhf"
			},
			{
				"type": "unocc",
				"energy": -0.03806,
				"method": "rhf"
			},
			{
				"type": "unocc",
				"energy": 0.03901,
				"method": "rhf"
			},
			{
				"type": "unocc",
				"energy": 0.05791,
				"method": "rhf"
			},
			{
				"type": "unocc",
				"energy": 0.09479,
				"method": "rhf"
			}
		],
		"cosmo_sigma_profile": { 
			"-0.025": 0.0,
			"-0.024": 0.0,
			"-0.023": 0.0,
			"-0.022": 0.0,
			"-0.021": 0.0,
			"-0.02": 0.0,
			"-0.019": 0.0,
			"-0.018": 0.0,
			"-0.017": 0.0,
			"-0.016": 0.179121572522,
			"-0.015": 1.00414859259,
			"-0.014": 0.912680409172,
			"-0.013": 1.0680549699,
			"-0.012": 1.23998690083,
			"-0.011": 0.963291806913,
			"-0.01": 0.952102686122,
			"-0.009": 2.20808746106,
			"-0.008": 4.18671008718,
			"-0.007": 4.77355595917,
			"-0.006": 6.61275043008,
			"-0.005": 6.68238030212,
			"-0.004": 13.423856092,
			"-0.003": 19.5804526207,
			"-0.002": 22.9839186598,
			"-0.001": 20.7649728711,
			"0.0": 18.6319306624,
			"0.001": 9.80195577961,
			"0.002": 8.783268487,
			"0.003": 9.08755033674,
			"0.004": 11.4301437593,
			"0.005": 8.18452153974,
			"0.006": 4.96302628865,
			"0.007": 4.3314160254,
			"0.008": 3.6401716833,
			"0.009": 2.94416908708,
			"0.01": 3.77535724701,
			"0.011": 2.0995286839,
			"0.012": 3.47463070564,
			"0.013": 2.90534987414,
			"0.014": 1.38712060783,
			"0.015": 0.0,
			"0.016": 0.0,
			"0.017": 0.0,
			"0.018": 0.0,
			"0.019": 0.0,
			"0.02": 0.0,
			"0.021": 0.0,
			"0.022": 0.0,
			"0.023": 0.0,
			"0.024": 0.0,
			"0.025": 0.0
		}
	}
}
