{
	 "smiles": "Cl[Si](Cl)(Cl)CC=C", 
	 "Tm": 308.15, 
	 "num_atms": 12, 
	 "gaussian": { 
		 "optdone": 1, 
		 "sigma_profile": "yes", 
		 "theory": "DFT", 
		 "functional": "B3LYP", 
		 "basiset": "6-31G**", 
		 "properties": { 
			 "R2extent": 3092.6212, 
			 "electric_dipole_moment_norm": 2.44020924922, 
			 "electric_quadrupole_moment_norm": 5.01004339203, 
			 "total_energy": -1787.54577935, 
			 "HOMO_LUMO_gap": 0.24783, 
			 "cosmo_polarized_energy": -4.11, 
			 "cosmo_cavitation_energy": 23.14, 
			 "cosmo_dispersion_energy": -14.59, 
			 "cosmo_repulsion_energy": 1.35, 
			 "cosmo_total_nonelectrostatic_energy": 9.9, 
			 "SMD_solvation_energy": 3.5 
		},
		"coords": [
			{
				"x": 0.6209710633,
				"y": 1.4525836663,
				"z": -2.3308860657,
				"element": "Cl" 
			},
			{
				"x": -1.3103203977,
				"y": 0.8227093441,
				"z": -1.9739082283,
				"element": "Si" 
			},
			{
				"x": -2.2506272466,
				"y": 2.2274073238,
				"z": -0.7853234974,
				"element": "Cl" 
			},
			{
				"x": -2.3093804732,
				"y": 0.7254467176,
				"z": -3.7821642461,
				"element": "Cl" 
			},
			{
				"x": -1.3357923775,
				"y": -0.8670767597,
				"z": -1.1536064769,
				"element": "C" 
			},
			{
				"x": -0.7306662529,
				"y": -0.8805884281,
				"z": 0.2241738789,
				"element": "C" 
			},
			{
				"x": 0.4369837098,
				"y": -1.4457636283,
				"z": 0.5342935229,
				"element": "C" 
			},
			{
				"x": -0.8081651177,
				"y": -1.5536121099,
				"z": -1.8264857794,
				"element": "H" 
			},
			{
				"x": -2.3883040162,
				"y": -1.1801597966,
				"z": -1.1297680007,
				"element": "H" 
			},
			{
				"x": -1.302653021,
				"y": -0.3742256476,
				"z": 1.0000310181,
				"element": "H" 
			},
			{
				"x": 0.82733,
				"y": -1.4157146383,
				"z": 1.5466601984,
				"element": "H" 
			},
			{
				"x": 1.0418241296,
				"y": -1.9599060433,
				"z": -0.2086163238,
				"element": "H" 
			}
		],
		 "valence_orbital": [ 
			{
				"type": "occ",
				"energy": -0.3398,
				"method": "rhf"
			},
			{
				"type": "occ",
				"energy": -0.33759,
				"method": "rhf"
			},
			{
				"type": "occ",
				"energy": -0.33636,
				"method": "rhf"
			},
			{
				"type": "occ",
				"energy": -0.32553,
				"method": "rhf"
			},
			{
				"type": "occ",
				"energy": -0.26856,
				"method": "rhf"
			},
			{
				"type": "unocc",
				"energy": -0.02073,
				"method": "rhf"
			},
			{
				"type": "unocc",
				"energy": -0.0015,
				"method": "rhf"
			},
			{
				"type": "unocc",
				"energy": 0.02715,
				"method": "rhf"
			},
			{
				"type": "unocc",
				"energy": 0.03926,
				"method": "rhf"
			},
			{
				"type": "unocc",
				"energy": 0.06654,
				"method": "rhf"
			}
		],
		"cosmo_sigma_profile": { 
			"-0.025": 0.0,
			"-0.024": 0.0,
			"-0.023": 0.0,
			"-0.022": 0.0,
			"-0.021": 0.0,
			"-0.02": 0.0,
			"-0.019": 0.0,
			"-0.018": 0.0,
			"-0.017": 0.0,
			"-0.016": 0.0,
			"-0.015": 0.0,
			"-0.014": 0.0,
			"-0.013": 0.0,
			"-0.012": 0.0,
			"-0.011": 0.0,
			"-0.01": 0.0,
			"-0.009": 0.0265705246273,
			"-0.008": 2.70030143626,
			"-0.007": 5.02928950451,
			"-0.006": 6.17946830492,
			"-0.005": 10.6383863191,
			"-0.004": 10.7704102714,
			"-0.003": 9.67777351814,
			"-0.002": 10.7283285801,
			"-0.001": 14.5736988897,
			"0.0": 17.9018815392,
			"0.001": 21.1466048119,
			"0.002": 24.378808901,
			"0.003": 35.1980339855,
			"0.004": 14.5393510687,
			"0.005": 2.31164704094,
			"0.006": 1.52841847094,
			"0.007": 0.0527278090591,
			"0.008": 0.0,
			"0.009": 0.0,
			"0.01": 0.0,
			"0.011": 0.0,
			"0.012": 0.0,
			"0.013": 0.0,
			"0.014": 0.0,
			"0.015": 0.0,
			"0.016": 0.0,
			"0.017": 0.0,
			"0.018": 0.0,
			"0.019": 0.0,
			"0.02": 0.0,
			"0.021": 0.0,
			"0.022": 0.0,
			"0.023": 0.0,
			"0.024": 0.0,
			"0.025": 0.0
		}
	}
}
