{
	 "smiles": "CC(=NO)C1=CC=C(OCC2=C(C)C=CC=C2)C=C1", 
	 "Tm": 427.15, 
	 "num_atms": 36, 
	 "gaussian": { 
		 "optdone": 1, 
		 "sigma_profile": "yes", 
		 "theory": "DFT", 
		 "functional": "B3LYP", 
		 "basiset": "6-31G**", 
		 "properties": { 
			 "R2extent": 7692.9468, 
			 "electric_dipole_moment_norm": 1.72924805045, 
			 "electric_quadrupole_moment_norm": 6.64594751033, 
			 "total_energy": -825.09386705, 
			 "HOMO_LUMO_gap": 0.17937, 
			 "cosmo_polarized_energy": -11.81, 
			 "cosmo_cavitation_energy": 39.22, 
			 "cosmo_dispersion_energy": -27.8, 
			 "cosmo_repulsion_energy": 2.14, 
			 "cosmo_total_nonelectrostatic_energy": 13.56, 
			 "SMD_solvation_energy": 7.03 
		},
		"coords": [
			{
				"x": 0.7261012445,
				"y": 4.4415063129,
				"z": -2.0412021608,
				"element": "C" 
			},
			{
				"x": -0.5794604641,
				"y": 3.8747205695,
				"z": -1.5422012998,
				"element": "C" 
			},
			{
				"x": -1.7027626715,
				"y": 4.5058241176,
				"z": -1.5852152827,
				"element": "N" 
			},
			{
				"x": -1.592862391,
				"y": 5.7885174953,
				"z": -2.1480621306,
				"element": "O" 
			},
			{
				"x": -0.6158818932,
				"y": 2.5107300028,
				"z": -0.9591547527,
				"element": "C" 
			},
			{
				"x": -1.8198269035,
				"y": 1.953831461,
				"z": -0.4781179768,
				"element": "C" 
			},
			{
				"x": -1.854341317,
				"y": 0.6823744782,
				"z": 0.0663152612,
				"element": "C" 
			},
			{
				"x": -0.6819913792,
				"y": -0.0891446497,
				"z": 0.1530278144,
				"element": "C" 
			},
			{
				"x": -0.8378315284,
				"y": -1.3204436527,
				"z": 0.7240305767,
				"element": "O" 
			},
			{
				"x": 0.3006876461,
				"y": -2.1604831975,
				"z": 0.9477499342,
				"element": "C" 
			},
			{
				"x": 0.8161931594,
				"y": -2.8866380502,
				"z": -0.2794015725,
				"element": "C" 
			},
			{
				"x": -0.0317110067,
				"y": -3.6971571197,
				"z": -1.0661905352,
				"element": "C" 
			},
			{
				"x": -1.5027492565,
				"y": -3.85307044,
				"z": -0.7564923778,
				"element": "C" 
			},
			{
				"x": 0.5233489826,
				"y": -4.3745780019,
				"z": -2.1587303543,
				"element": "C" 
			},
			{
				"x": 1.8794588243,
				"y": -4.27486805,
				"z": -2.4732413022,
				"element": "C" 
			},
			{
				"x": 2.7153140887,
				"y": -3.4870450552,
				"z": -1.6849169451,
				"element": "C" 
			},
			{
				"x": 2.1763814807,
				"y": -2.7995887373,
				"z": -0.5972582033,
				"element": "C" 
			},
			{
				"x": 0.5204454298,
				"y": 0.4400594693,
				"z": -0.3223752659,
				"element": "C" 
			},
			{
				"x": 0.5409203203,
				"y": 1.7266927217,
				"z": -0.8681984127,
				"element": "C" 
			},
			{
				"x": 1.4651952877,
				"y": 4.4728472991,
				"z": -1.2334177346,
				"element": "H" 
			},
			{
				"x": 0.5865422723,
				"y": 5.448707617,
				"z": -2.4281020618,
				"element": "H" 
			},
			{
				"x": 1.1388586182,
				"y": 3.8123346568,
				"z": -2.8372891075,
				"element": "H" 
			},
			{
				"x": -2.5048723752,
				"y": 6.1023008198,
				"z": -2.098527686,
				"element": "H" 
			},
			{
				"x": -2.7277480435,
				"y": 2.5428160453,
				"z": -0.5385128126,
				"element": "H" 
			},
			{
				"x": -2.7799782748,
				"y": 0.2584145741,
				"z": 0.4425654605,
				"element": "H" 
			},
			{
				"x": -0.0575229245,
				"y": -2.8810471364,
				"z": 1.6910610013,
				"element": "H" 
			},
			{
				"x": 1.1083962925,
				"y": -1.5820361175,
				"z": 1.4131603568,
				"element": "H" 
			},
			{
				"x": -1.9435513717,
				"y": -4.6459562238,
				"z": -1.3666507299,
				"element": "H" 
			},
			{
				"x": -1.6709179346,
				"y": -4.106484901,
				"z": 0.2965515585,
				"element": "H" 
			},
			{
				"x": -2.0539920504,
				"y": -2.9270341156,
				"z": -0.9431553259,
				"element": "H" 
			},
			{
				"x": -0.123033704,
				"y": -4.9991196487,
				"z": -2.7703842343,
				"element": "H" 
			},
			{
				"x": 2.2784643414,
				"y": -4.8150458409,
				"z": -3.3270989699,
				"element": "H" 
			},
			{
				"x": 3.7738836149,
				"y": -3.4040368062,
				"z": -1.9128364008,
				"element": "H" 
			},
			{
				"x": 2.8261956353,
				"y": -2.1853517201,
				"z": 0.0227982,
				"element": "H" 
			},
			{
				"x": 1.4351584786,
				"y": -0.1372484854,
				"z": -0.2967693662,
				"element": "H" 
			},
			{
				"x": 1.4885897728,
				"y": 2.1093003095,
				"z": -1.2318571622,
				"element": "H" 
			}
		],
		 "valence_orbital": [ 
			{
				"type": "occ",
				"energy": -0.2599,
				"method": "rhf"
			},
			{
				"type": "occ",
				"energy": -0.25156,
				"method": "rhf"
			},
			{
				"type": "occ",
				"energy": -0.24627,
				"method": "rhf"
			},
			{
				"type": "occ",
				"energy": -0.24152,
				"method": "rhf"
			},
			{
				"type": "occ",
				"energy": -0.20199,
				"method": "rhf"
			},
			{
				"type": "unocc",
				"energy": -0.02262,
				"method": "rhf"
			},
			{
				"type": "unocc",
				"energy": -0.01078,
				"method": "rhf"
			},
			{
				"type": "unocc",
				"energy": -0.00219,
				"method": "rhf"
			},
			{
				"type": "unocc",
				"energy": 0.00347,
				"method": "rhf"
			},
			{
				"type": "unocc",
				"energy": 0.0622,
				"method": "rhf"
			}
		],
		"cosmo_sigma_profile": { 
			"-0.025": 0.0,
			"-0.024": 0.0,
			"-0.023": 0.0,
			"-0.022": 0.0,
			"-0.021": 0.0,
			"-0.02": 0.0,
			"-0.019": 0.0,
			"-0.018": 0.0233708292704,
			"-0.017": 0.614836574468,
			"-0.016": 0.884474298122,
			"-0.015": 1.22889316059,
			"-0.014": 0.99783687463,
			"-0.013": 0.0239571162756,
			"-0.012": 0.892159692192,
			"-0.011": 0.90245192303,
			"-0.01": 0.196374183492,
			"-0.009": 0.752445410354,
			"-0.008": 1.54124557876,
			"-0.007": 2.86536307076,
			"-0.006": 12.5294752013,
			"-0.005": 25.5037992351,
			"-0.004": 27.4873949926,
			"-0.003": 26.4763866538,
			"-0.002": 21.5547706447,
			"-0.001": 20.5208623522,
			"0.0": 26.0716416619,
			"0.001": 19.3539941954,
			"0.002": 18.9983587603,
			"0.003": 22.0311861039,
			"0.004": 24.1249617569,
			"0.005": 23.3009518207,
			"0.006": 13.4628113511,
			"0.007": 5.40712856621,
			"0.008": 5.94692636607,
			"0.009": 4.57975780183,
			"0.01": 2.7783013356,
			"0.011": 0.175480704494,
			"0.012": 0.0,
			"0.013": 0.0,
			"0.014": 0.0,
			"0.015": 0.0,
			"0.016": 0.0,
			"0.017": 0.0,
			"0.018": 0.0,
			"0.019": 0.0,
			"0.02": 0.0,
			"0.021": 0.0,
			"0.022": 0.0,
			"0.023": 0.0,
			"0.024": 0.0,
			"0.025": 0.0
		}
	}
}
