{
	 "smiles": "CCC1=CC2=CC=CC=C2C=CC1=O", 
	 "Tm": 322.15, 
	 "num_atms": 26, 
	 "gaussian": { 
		 "optdone": 1, 
		 "sigma_profile": "yes", 
		 "theory": "DFT", 
		 "functional": "B3LYP", 
		 "basiset": "6-31G**", 
		 "properties": { 
			 "R2extent": 3309.4085, 
			 "electric_dipole_moment_norm": 4.48168599859, 
			 "electric_quadrupole_moment_norm": 10.5437786268, 
			 "total_energy": -577.8292005, 
			 "HOMO_LUMO_gap": 0.1655, 
			 "cosmo_polarized_energy": -10.25, 
			 "cosmo_cavitation_energy": 28.98, 
			 "cosmo_dispersion_energy": -21.28, 
			 "cosmo_repulsion_energy": 1.64, 
			 "cosmo_total_nonelectrostatic_energy": 9.35, 
			 "SMD_solvation_energy": 5.17 
		},
		"coords": [
			{
				"x": 0.1159129246,
				"y": 4.474986769,
				"z": -0.3124367516,
				"element": "C" 
			},
			{
				"x": 0.4741668616,
				"y": 3.6718308838,
				"z": 0.9521374409,
				"element": "C" 
			},
			{
				"x": 0.6803008468,
				"y": 2.1954056116,
				"z": 0.6776161631,
				"element": "C" 
			},
			{
				"x": -0.3143527404,
				"y": 1.3250709251,
				"z": 1.0008021544,
				"element": "C" 
			},
			{
				"x": -0.4946385493,
				"y": -0.1089584704,
				"z": 0.8734483751,
				"element": "C" 
			},
			{
				"x": -1.7273045355,
				"y": -0.6174560603,
				"z": 1.3464572778,
				"element": "C" 
			},
			{
				"x": -2.0442213461,
				"y": -1.965216725,
				"z": 1.2906841507,
				"element": "C" 
			},
			{
				"x": -1.1222116493,
				"y": -2.8706902331,
				"z": 0.7503148944,
				"element": "C" 
			},
			{
				"x": 0.0938047236,
				"y": -2.402069241,
				"z": 0.2799581776,
				"element": "C" 
			},
			{
				"x": 0.4413612177,
				"y": -1.0329665736,
				"z": 0.324538599,
				"element": "C" 
			},
			{
				"x": 1.7442792721,
				"y": -0.6824601121,
				"z": -0.1985144332,
				"element": "C" 
			},
			{
				"x": 2.3836883364,
				"y": 0.5049818776,
				"z": -0.3094969173,
				"element": "C" 
			},
			{
				"x": 1.9884848021,
				"y": 1.8723229383,
				"z": 0.0531527303,
				"element": "C" 
			},
			{
				"x": 2.7920947552,
				"y": 2.7845738754,
				"z": -0.1745973474,
				"element": "O" 
			},
			{
				"x": 0.9156402209,
				"y": 4.398231376,
				"z": -1.0521947745,
				"element": "H" 
			},
			{
				"x": -0.0201043536,
				"y": 5.533162331,
				"z": -0.0660614934,
				"element": "H" 
			},
			{
				"x": -0.8131651029,
				"y": 4.1096228601,
				"z": -0.7629010696,
				"element": "H" 
			},
			{
				"x": -0.3162131767,
				"y": 3.7938213197,
				"z": 1.7009045153,
				"element": "H" 
			},
			{
				"x": 1.3996379341,
				"y": 4.0784807461,
				"z": 1.371009224,
				"element": "H" 
			},
			{
				"x": -1.1826802136,
				"y": 1.7987585879,
				"z": 1.4585619113,
				"element": "H" 
			},
			{
				"x": -2.4447558624,
				"y": 0.0820725141,
				"z": 1.7662593727,
				"element": "H" 
			},
			{
				"x": -3.0021283129,
				"y": -2.3138885334,
				"z": 1.6646454897,
				"element": "H" 
			},
			{
				"x": -1.355488445,
				"y": -3.9298295682,
				"z": 0.6997183008,
				"element": "H" 
			},
			{
				"x": 0.812148789,
				"y": -3.1011582477,
				"z": -0.1393765886,
				"element": "H" 
			},
			{
				"x": 2.3038560539,
				"y": -1.5414371636,
				"z": -0.5665308093,
				"element": "H" 
			},
			{
				"x": 3.3792875495,
				"y": 0.4936083129,
				"z": -0.7463985921,
				"element": "H" 
			}
		],
		 "valence_orbital": [ 
			{
				"type": "occ",
				"energy": -0.3106,
				"method": "rhf"
			},
			{
				"type": "occ",
				"energy": -0.30633,
				"method": "rhf"
			},
			{
				"type": "occ",
				"energy": -0.24692,
				"method": "rhf"
			},
			{
				"type": "occ",
				"energy": -0.23835,
				"method": "rhf"
			},
			{
				"type": "occ",
				"energy": -0.22985,
				"method": "rhf"
			},
			{
				"type": "unocc",
				"energy": -0.06435,
				"method": "rhf"
			},
			{
				"type": "unocc",
				"energy": -0.0629,
				"method": "rhf"
			},
			{
				"type": "unocc",
				"energy": -0.00425,
				"method": "rhf"
			},
			{
				"type": "unocc",
				"energy": 0.05319,
				"method": "rhf"
			},
			{
				"type": "unocc",
				"energy": 0.07782,
				"method": "rhf"
			}
		],
		"cosmo_sigma_profile": { 
			"-0.025": 0.0,
			"-0.024": 0.0,
			"-0.023": 0.0,
			"-0.022": 0.0,
			"-0.021": 0.0,
			"-0.02": 0.0,
			"-0.019": 0.0,
			"-0.018": 0.0,
			"-0.017": 0.0,
			"-0.016": 0.0,
			"-0.015": 0.0,
			"-0.014": 0.0,
			"-0.013": 0.0,
			"-0.012": 0.0,
			"-0.011": 0.0,
			"-0.01": 0.0,
			"-0.009": 0.0519795137095,
			"-0.008": 1.9676926748,
			"-0.007": 8.47395439312,
			"-0.006": 13.6065363118,
			"-0.005": 15.3150216132,
			"-0.004": 12.8352501274,
			"-0.003": 12.8788591129,
			"-0.002": 15.8685648201,
			"-0.001": 20.6326317467,
			"0.0": 27.5830127554,
			"0.001": 30.489489508,
			"0.002": 26.348564104,
			"0.003": 18.0366452758,
			"0.004": 6.27175476143,
			"0.005": 1.48573731435,
			"0.006": 1.78102730056,
			"0.007": 1.72576637603,
			"0.008": 1.4879953612,
			"0.009": 1.40221251617,
			"0.01": 1.9063149618,
			"0.011": 1.75452093989,
			"0.012": 1.67790818231,
			"0.013": 3.40920999911,
			"0.014": 3.22233557158,
			"0.015": 0.676648037601,
			"0.016": 0.0,
			"0.017": 0.0,
			"0.018": 0.0,
			"0.019": 0.0,
			"0.02": 0.0,
			"0.021": 0.0,
			"0.022": 0.0,
			"0.023": 0.0,
			"0.024": 0.0,
			"0.025": 0.0
		}
	}
}
