{
	 "smiles": "CCC1=C(C)C(C(O)=O)=C2C=CC=CC2=N1", 
	 "Tm": 464.15, 
	 "num_atms": 29, 
	 "gaussian": { 
		 "optdone": 1, 
		 "sigma_profile": "yes", 
		 "theory": "DFT", 
		 "functional": "B3LYP", 
		 "basiset": "6-31G**", 
		 "properties": { 
			 "R2extent": 3739.7063, 
			 "electric_dipole_moment_norm": 1.82072517421, 
			 "electric_quadrupole_moment_norm": 13.2626200899, 
			 "total_energy": -708.450473405, 
			 "HOMO_LUMO_gap": 0.16748, 
			 "cosmo_polarized_energy": -11.55, 
			 "cosmo_cavitation_energy": 31.93, 
			 "cosmo_dispersion_energy": -23.15, 
			 "cosmo_repulsion_energy": 1.8, 
			 "cosmo_total_nonelectrostatic_energy": 10.57, 
			 "SMD_solvation_energy": 4.92 
		},
		"coords": [
			{
				"x": 0.6598704784,
				"y": -0.7558564856,
				"z": -4.1845143735,
				"element": "C" 
			},
			{
				"x": 0.4373655258,
				"y": -1.6107766914,
				"z": -2.9229791989,
				"element": "C" 
			},
			{
				"x": 0.2151117613,
				"y": -0.7645889432,
				"z": -1.6837651051,
				"element": "C" 
			},
			{
				"x": -1.1043425562,
				"y": -0.3830158815,
				"z": -1.2566772033,
				"element": "C" 
			},
			{
				"x": -2.3010473261,
				"y": -0.8346418232,
				"z": -2.0643825619,
				"element": "C" 
			},
			{
				"x": -1.2098799806,
				"y": 0.4065731564,
				"z": -0.119904316,
				"element": "C" 
			},
			{
				"x": -2.5432745401,
				"y": 0.8339369835,
				"z": 0.4187621304,
				"element": "C" 
			},
			{
				"x": -3.3918770111,
				"y": -0.2074081367,
				"z": 0.599532274,
				"element": "O" 
			},
			{
				"x": -2.8541022749,
				"y": 1.9716213286,
				"z": 0.703709492,
				"element": "O" 
			},
			{
				"x": -0.0328342377,
				"y": 0.8482720434,
				"z": 0.5671082124,
				"element": "C" 
			},
			{
				"x": -0.0315991514,
				"y": 1.6740815732,
				"z": 1.7248543361,
				"element": "C" 
			},
			{
				"x": 1.1549187264,
				"y": 2.0251073258,
				"z": 2.3307909088,
				"element": "C" 
			},
			{
				"x": 2.3943042456,
				"y": 1.5735845595,
				"z": 1.8172297983,
				"element": "C" 
			},
			{
				"x": 2.4251938084,
				"y": 0.7746197614,
				"z": 0.6979424928,
				"element": "C" 
			},
			{
				"x": 1.2198166473,
				"y": 0.3962004775,
				"z": 0.0498578633,
				"element": "C" 
			},
			{
				"x": 1.3127944822,
				"y": -0.3970748356,
				"z": -1.0527360725,
				"element": "N" 
			},
			{
				"x": -0.2098661344,
				"y": -0.1307723387,
				"z": -4.4140545816,
				"element": "H" 
			},
			{
				"x": 0.8552010438,
				"y": -1.3913697276,
				"z": -5.0541429005,
				"element": "H" 
			},
			{
				"x": 1.5188567339,
				"y": -0.0934744548,
				"z": -4.0433978747,
				"element": "H" 
			},
			{
				"x": 1.3316872171,
				"y": -2.2134412478,
				"z": -2.7414000625,
				"element": "H" 
			},
			{
				"x": -0.3961002012,
				"y": -2.3021701044,
				"z": -3.0815981157,
				"element": "H" 
			},
			{
				"x": -3.2049317769,
				"y": -0.2823811466,
				"z": -1.811619273,
				"element": "H" 
			},
			{
				"x": -2.117942522,
				"y": -0.7069610618,
				"z": -3.1345086982,
				"element": "H" 
			},
			{
				"x": -2.5138738364,
				"y": -1.8968824528,
				"z": -1.8950243972,
				"element": "H" 
			},
			{
				"x": -4.2130087606,
				"y": 0.1785090386,
				"z": 0.9513646182,
				"element": "H" 
			},
			{
				"x": -0.9710330536,
				"y": 2.0433895827,
				"z": 2.1169009101,
				"element": "H" 
			},
			{
				"x": 1.1389412197,
				"y": 2.6598538067,
				"z": 3.2119931703,
				"element": "H" 
			},
			{
				"x": 3.3185718173,
				"y": 1.8616108539,
				"z": 2.3096325911,
				"element": "H" 
			},
			{
				"x": 3.354779656,
				"y": 0.4088548405,
				"z": 0.2744259367,
				"element": "H" 
			}
		],
		 "valence_orbital": [ 
			{
				"type": "occ",
				"energy": -0.30692,
				"method": "rhf"
			},
			{
				"type": "occ",
				"energy": -0.28223,
				"method": "rhf"
			},
			{
				"type": "occ",
				"energy": -0.25092,
				"method": "rhf"
			},
			{
				"type": "occ",
				"energy": -0.24307,
				"method": "rhf"
			},
			{
				"type": "occ",
				"energy": -0.22941,
				"method": "rhf"
			},
			{
				"type": "unocc",
				"energy": -0.06193,
				"method": "rhf"
			},
			{
				"type": "unocc",
				"energy": -0.01636,
				"method": "rhf"
			},
			{
				"type": "unocc",
				"energy": -0.00723,
				"method": "rhf"
			},
			{
				"type": "unocc",
				"energy": 0.03604,
				"method": "rhf"
			},
			{
				"type": "unocc",
				"energy": 0.07206,
				"method": "rhf"
			}
		],
		"cosmo_sigma_profile": { 
			"-0.025": 0.0,
			"-0.024": 0.0,
			"-0.023": 0.0,
			"-0.022": 0.0,
			"-0.021": 0.0,
			"-0.02": 0.0,
			"-0.019": 0.18079329581,
			"-0.018": 1.03370628558,
			"-0.017": 0.623960474028,
			"-0.016": 1.0052871216,
			"-0.015": 0.568566286141,
			"-0.014": 0.632596204695,
			"-0.013": 0.973943615285,
			"-0.012": 0.655748402034,
			"-0.011": 1.08030856195,
			"-0.01": 0.422155254703,
			"-0.009": 0.34129613345,
			"-0.008": 0.718536788966,
			"-0.007": 1.67720957969,
			"-0.006": 6.83455649605,
			"-0.005": 14.0758752171,
			"-0.004": 22.0935114597,
			"-0.003": 23.1419252281,
			"-0.002": 20.5187779975,
			"-0.001": 25.7462598532,
			"0.0": 26.0349767223,
			"0.001": 22.4904379385,
			"0.002": 14.6151069169,
			"0.003": 16.8427004046,
			"0.004": 15.2830590624,
			"0.005": 6.97712030827,
			"0.006": 4.86201920858,
			"0.007": 5.1259998526,
			"0.008": 4.06528987953,
			"0.009": 3.09551899557,
			"0.01": 3.09285259042,
			"0.011": 5.34928658932,
			"0.012": 1.72979387388,
			"0.013": 0.585981077476,
			"0.014": 0.715055905327,
			"0.015": 0.432469099226,
			"0.016": 0.0191787966476,
			"0.017": 0.0,
			"0.018": 0.0,
			"0.019": 0.0,
			"0.02": 0.0,
			"0.021": 0.0,
			"0.022": 0.0,
			"0.023": 0.0,
			"0.024": 0.0,
			"0.0": 0.0
		}
	}
}
