{
	 "smiles": "CN1C(=O)C(C2=NNC(=O)C2=C/NC2=CC=C(Br)C=C2)=C(O)C2=CC=CC=C12", 
	 "Tm": 566.15, 
	 "num_atms": 43, 
	 "gaussian": { 
		 "optdone": 1, 
		 "sigma_profile": "yes", 
		 "theory": "DFT", 
		 "functional": "B3LYP", 
		 "basiset": "6-31G**", 
		 "properties": { 
			 "R2extent": 20398.8723, 
			 "electric_dipole_moment_norm": 7.01789806281, 
			 "electric_quadrupole_moment_norm": 20.6695993476, 
			 "total_energy": -3787.26026541, 
			 "HOMO_LUMO_gap": 0.12711, 
			 "cosmo_polarized_energy": -26.47, 
			 "cosmo_cavitation_energy": 49.72, 
			 "cosmo_dispersion_energy": -36.43, 
			 "cosmo_repulsion_energy": 2.68, 
			 "cosmo_total_nonelectrostatic_energy": 15.98, 
			 "SMD_solvation_energy": 7.23 
		},
		"coords": [
			{
				"x": -2.2064217724,
				"y": -2.4383305768,
				"z": -1.8730500572,
				"element": "C" 
			},
			{
				"x": -1.3612731665,
				"y": -2.5809218301,
				"z": -0.6870413959,
				"element": "N" 
			},
			{
				"x": -1.0671101145,
				"y": -1.4034944925,
				"z": 0.0314681406,
				"element": "C" 
			},
			{
				"x": -1.4982238996,
				"y": -0.3203780328,
				"z": -0.3764507665,
				"element": "O" 
			},
			{
				"x": -0.2271165697,
				"y": -1.5338819039,
				"z": 1.2216297904,
				"element": "C" 
			},
			{
				"x": 0.0682851843,
				"y": -0.3250204788,
				"z": 2.0171853551,
				"element": "C" 
			},
			{
				"x": 0.0702081382,
				"y": -0.4028717175,
				"z": 3.331423197,
				"element": "N" 
			},
			{
				"x": 0.4349595968,
				"y": 0.8374210018,
				"z": 3.8001093903,
				"element": "N" 
			},
			{
				"x": 0.6917129671,
				"y": 1.7602943424,
				"z": 2.8136943465,
				"element": "C" 
			},
			{
				"x": 1.0528001494,
				"y": 2.9421664381,
				"z": 2.9621472018,
				"element": "O" 
			},
			{
				"x": 0.4356426517,
				"y": 1.01147643,
				"z": 1.5837598208,
				"element": "C" 
			},
			{
				"x": 0.5353851816,
				"y": 1.6077132908,
				"z": 0.3489925152,
				"element": "C" 
			},
			{
				"x": 0.9235481345,
				"y": 2.8913206797,
				"z": 0.2297128343,
				"element": "N" 
			},
			{
				"x": 0.9845113098,
				"y": 3.6463980138,
				"z": -0.9495446981,
				"element": "C" 
			},
			{
				"x": 1.6941874441,
				"y": 4.8573017161,
				"z": -0.9269508383,
				"element": "C" 
			},
			{
				"x": 1.7896087479,
				"y": 5.6446704253,
				"z": -2.0702740733,
				"element": "C" 
			},
			{
				"x": 1.1772780376,
				"y": 5.2201648095,
				"z": -3.2487040047,
				"element": "C" 
			},
			{
				"x": 1.3112310076,
				"y": 6.2920151397,
				"z": -4.8246084888,
				"element": "Br" 
			},
			{
				"x": 0.4601994237,
				"y": 4.025295352,
				"z": -3.2856085084,
				"element": "C" 
			},
			{
				"x": 0.3557127118,
				"y": 3.2429916467,
				"z": -2.1380370465,
				"element": "C" 
			},
			{
				"x": 0.2788289439,
				"y": -2.7654757661,
				"z": 1.569022212,
				"element": "C" 
			},
			{
				"x": 1.1319934618,
				"y": -2.8662174745,
				"z": 2.6134043556,
				"element": "O" 
			},
			{
				"x": -0.0850732098,
				"y": -3.9631507821,
				"z": 0.8380831916,
				"element": "C" 
			},
			{
				"x": 0.3305030839,
				"y": -5.2489112631,
				"z": 1.2370626141,
				"element": "C" 
			},
			{
				"x": -0.0112337353,
				"y": -6.3791573127,
				"z": 0.5120143787,
				"element": "C" 
			},
			{
				"x": -0.796837655,
				"y": -6.2396675143,
				"z": -0.6387211153,
				"element": "C" 
			},
			{
				"x": -1.2452023756,
				"y": -4.9902621895,
				"z": -1.0436876726,
				"element": "C" 
			},
			{
				"x": -0.9078459071,
				"y": -3.8342595206,
				"z": -0.3103365855,
				"element": "C" 
			},
			{
				"x": -3.1268292535,
				"y": -3.0197447316,
				"z": -1.7623659758,
				"element": "H" 
			},
			{
				"x": -2.450896582,
				"y": -1.3831890504,
				"z": -1.9659602538,
				"element": "H" 
			},
			{
				"x": -1.6745772395,
				"y": -2.7735938749,
				"z": -2.7690409158,
				"element": "H" 
			},
			{
				"x": 0.4965672366,
				"y": 0.9928070034,
				"z": 4.7939088451,
				"element": "H" 
			},
			{
				"x": 0.2871764714,
				"y": 1.0644931088,
				"z": -0.5531365457,
				"element": "H" 
			},
			{
				"x": 1.1456364634,
				"y": 3.3403605982,
				"z": 1.1297716081,
				"element": "H" 
			},
			{
				"x": 2.1800012804,
				"y": 5.1766939366,
				"z": -0.0093695625,
				"element": "H" 
			},
			{
				"x": 2.3405872048,
				"y": 6.5777943835,
				"z": -2.0457189014,
				"element": "H" 
			},
			{
				"x": -0.0288395219,
				"y": 3.7125287973,
				"z": -4.2011216144,
				"element": "H" 
			},
			{
				"x": -0.2409241026,
				"y": 2.3377065376,
				"z": -2.1682596357,
				"element": "H" 
			},
			{
				"x": 1.6052803393,
				"y": -3.7065076514,
				"z": 2.560185039,
				"element": "H" 
			},
			{
				"x": 0.9016952615,
				"y": -5.3771737204,
				"z": 2.1529850484,
				"element": "H" 
			},
			{
				"x": 0.3171856428,
				"y": -7.3595227123,
				"z": 0.8405573404,
				"element": "H" 
			},
			{
				"x": -1.0714904826,
				"y": -7.1152700886,
				"z": -1.2191502692,
				"element": "H" 
			},
			{
				"x": -1.8620304883,
				"y": -4.9111109666,
				"z": -1.9290782998,
				"element": "H" 
			}
		],
		 "valence_orbital": [ 
			{
				"type": "occ",
				"energy": -0.24991,
				"method": "rhf"
			},
			{
				"type": "occ",
				"energy": -0.24118,
				"method": "rhf"
			},
			{
				"type": "occ",
				"energy": -0.23313,
				"method": "rhf"
			},
			{
				"type": "occ",
				"energy": -0.21599,
				"method": "rhf"
			},
			{
				"type": "occ",
				"energy": -0.19231,
				"method": "rhf"
			},
			{
				"type": "unocc",
				"energy": -0.0652,
				"method": "rhf"
			},
			{
				"type": "unocc",
				"energy": -0.05105,
				"method": "rhf"
			},
			{
				"type": "unocc",
				"energy": -0.02025,
				"method": "rhf"
			},
			{
				"type": "unocc",
				"energy": -0.01787,
				"method": "rhf"
			},
			{
				"type": "unocc",
				"energy": 0.00768,
				"method": "rhf"
			}
		],
		"cosmo_sigma_profile": { 
			"-0.025": 0.0,
			"-0.024": 0.0,
			"-0.023": 0.0,
			"-0.022": 0.0,
			"-0.021": 0.0,
			"-0.02": 0.0,
			"-0.019": 0.206655173224,
			"-0.018": 0.952641166146,
			"-0.017": 0.807538815257,
			"-0.016": 1.38291313838,
			"-0.015": 2.46815943827,
			"-0.014": 1.69618744754,
			"-0.013": 1.76939609174,
			"-0.012": 2.13248279102,
			"-0.011": 2.01549797004,
			"-0.01": 2.54997630543,
			"-0.009": 3.73115651646,
			"-0.008": 6.48868527063,
			"-0.007": 14.4782748064,
			"-0.006": 23.0977494755,
			"-0.005": 22.8078769102,
			"-0.004": 22.8948889656,
			"-0.003": 21.75613216,
			"-0.002": 25.1817198809,
			"-0.001": 28.129955918,
			"0.0": 30.0145621224,
			"0.001": 30.6289524356,
			"0.002": 37.7859959954,
			"0.003": 34.9921317538,
			"0.004": 24.5931150928,
			"0.005": 11.9498105689,
			"0.006": 5.82771177878,
			"0.007": 4.96075148985,
			"0.008": 4.49888762454,
			"0.009": 4.8817586,
			"0.01": 4.0363452696,
			"0.011": 4.47461251591,
			"0.012": 6.03925412697,
			"0.013": 5.92132719794,
			"0.014": 4.05391067671,
			"0.015": 2.74103197911,
			"0.016": 1.3044083825,
			"0.017": 0.294409447332,
			"0.018": 0.0,
			"0.019": 0.0,
			"0.02": 0.0,
			"0.021": 0.0,
			"0.022": 0.0,
			"0.023": 0.0,
			"0.024": 0.0,
			"0.025": 0.0
		}
	}
}
