{
	 "smiles": "CN1C(C(CO)CCC1=O)C1=CC(Cl)=CC=C1", 
	 "Tm": 396.15, 
	 "num_atms": 33, 
	 "gaussian": { 
		 "optdone": 1, 
		 "sigma_profile": "yes", 
		 "theory": "DFT", 
		 "functional": "B3LYP", 
		 "basiset": "6-31G**", 
		 "properties": { 
			 "R2extent": 5705.7746, 
			 "electric_dipole_moment_norm": 2.71829635985, 
			 "electric_quadrupole_moment_norm": 20.5377503228, 
			 "total_energy": -1170.42952607, 
			 "HOMO_LUMO_gap": 0.2127, 
			 "cosmo_polarized_energy": -16.41, 
			 "cosmo_cavitation_energy": 36.31, 
			 "cosmo_dispersion_energy": -25.19, 
			 "cosmo_repulsion_energy": 1.98, 
			 "cosmo_total_nonelectrostatic_energy": 13.1, 
			 "SMD_solvation_energy": 6.32 
		},
		"coords": [
			{
				"x": -2.1815944817,
				"y": -0.7884667311,
				"z": -1.9011103511,
				"element": "C" 
			},
			{
				"x": -1.4272588512,
				"y": -0.8310775141,
				"z": -0.6495445627,
				"element": "N" 
			},
			{
				"x": 0.0160761955,
				"y": -0.5600214494,
				"z": -0.7745521625,
				"element": "C" 
			},
			{
				"x": 0.773878524,
				"y": -0.6477890986,
				"z": 0.5728370295,
				"element": "C" 
			},
			{
				"x": 2.2866254756,
				"y": -0.7990237276,
				"z": 0.3413373231,
				"element": "C" 
			},
			{
				"x": 3.0210387686,
				"y": -0.8142509014,
				"z": 1.5575896122,
				"element": "O" 
			},
			{
				"x": 0.2153065983,
				"y": -1.7760626573,
				"z": 1.4393099997,
				"element": "C" 
			},
			{
				"x": -1.2543804923,
				"y": -1.4986912635,
				"z": 1.7355196355,
				"element": "C" 
			},
			{
				"x": -2.0860525898,
				"y": -1.2840236344,
				"z": 0.4792691794,
				"element": "C" 
			},
			{
				"x": -3.2915030018,
				"y": -1.5094049519,
				"z": 0.4795636731,
				"element": "O" 
			},
			{
				"x": 0.2550064734,
				"y": 0.7936331407,
				"z": -1.4464967501,
				"element": "C" 
			},
			{
				"x": 1.0946726864,
				"y": 0.8888359783,
				"z": -2.5604929294,
				"element": "C" 
			},
			{
				"x": 1.3374524601,
				"y": 2.1336243716,
				"z": -3.1431466637,
				"element": "C" 
			},
			{
				"x": 2.399641532,
				"y": 2.2314618168,
				"z": -4.5410470166,
				"element": "Cl" 
			},
			{
				"x": 0.751214215,
				"y": 3.2945724532,
				"z": -2.6451953858,
				"element": "C" 
			},
			{
				"x": -0.0958301354,
				"y": 3.1929778607,
				"z": -1.5388293332,
				"element": "C" 
			},
			{
				"x": -0.3420432378,
				"y": 1.9576307299,
				"z": -0.9430299133,
				"element": "C" 
			},
			{
				"x": -1.6858848771,
				"y": -1.4066297775,
				"z": -2.6604351394,
				"element": "H" 
			},
			{
				"x": -3.1789673646,
				"y": -1.1763216904,
				"z": -1.7030104249,
				"element": "H" 
			},
			{
				"x": -2.2587140001,
				"y": 0.2327559989,
				"z": -2.2863255512,
				"element": "H" 
			},
			{
				"x": 0.4335114126,
				"y": -1.3334243951,
				"z": -1.4416312828,
				"element": "H" 
			},
			{
				"x": 0.6134507847,
				"y": 0.3007813179,
				"z": 1.1085636677,
				"element": "H" 
			},
			{
				"x": 2.4886694639,
				"y": -1.7639001758,
				"z": -0.1387076352,
				"element": "H" 
			},
			{
				"x": 2.6528307987,
				"y": -0.0137114556,
				"z": -0.3346708953,
				"element": "H" 
			},
			{
				"x": 2.9952902115,
				"y": 0.0763559523,
				"z": 1.9308314292,
				"element": "H" 
			},
			{
				"x": 0.8034050414,
				"y": -1.8550812696,
				"z": 2.3578123683,
				"element": "H" 
			},
			{
				"x": 0.320293013,
				"y": -2.7338502329,
				"z": 0.9108856373,
				"element": "H" 
			},
			{
				"x": -1.7359964191,
				"y": -2.3132447415,
				"z": 2.2820563938,
				"element": "H" 
			},
			{
				"x": -1.3536937317,
				"y": -0.6023132743,
				"z": 2.3629214703,
				"element": "H" 
			},
			{
				"x": 1.5568614247,
				"y": 0.0004501537,
				"z": -2.979413107,
				"element": "H" 
			},
			{
				"x": 0.9480398151,
				"y": 4.2513625866,
				"z": -3.1155267109,
				"element": "H" 
			},
			{
				"x": -0.5671395102,
				"y": 4.0885493658,
				"z": -1.1447573082,
				"element": "H" 
			},
			{
				"x": -1.0159062015,
				"y": 1.8878972156,
				"z": -0.0940742955,
				"element": "H" 
			}
		],
		 "valence_orbital": [ 
			{
				"type": "occ",
				"energy": -0.28144,
				"method": "rhf"
			},
			{
				"type": "occ",
				"energy": -0.26867,
				"method": "rhf"
			},
			{
				"type": "occ",
				"energy": -0.256,
				"method": "rhf"
			},
			{
				"type": "occ",
				"energy": -0.24104,
				"method": "rhf"
			},
			{
				"type": "occ",
				"energy": -0.24045,
				"method": "rhf"
			},
			{
				"type": "unocc",
				"energy": -0.02775,
				"method": "rhf"
			},
			{
				"type": "unocc",
				"energy": -0.02484,
				"method": "rhf"
			},
			{
				"type": "unocc",
				"energy": 0.01965,
				"method": "rhf"
			},
			{
				"type": "unocc",
				"energy": 0.02826,
				"method": "rhf"
			},
			{
				"type": "unocc",
				"energy": 0.06224,
				"method": "rhf"
			}
		],
		"cosmo_sigma_profile": { 
			"-0.025": 0.0,
			"-0.024": 0.0,
			"-0.023": 0.0,
			"-0.022": 0.0,
			"-0.021": 0.0,
			"-0.02": 0.0,
			"-0.019": 0.0,
			"-0.018": 0.0,
			"-0.017": 0.0,
			"-0.016": 0.28335719296,
			"-0.015": 0.876579533608,
			"-0.014": 1.00495112853,
			"-0.013": 1.56797745165,
			"-0.012": 0.647286584171,
			"-0.011": 0.268029172154,
			"-0.01": 1.34071915027,
			"-0.009": 1.15851189997,
			"-0.008": 1.15874468235,
			"-0.007": 6.39323185328,
			"-0.006": 11.5267255567,
			"-0.005": 23.9235397238,
			"-0.004": 25.0546690831,
			"-0.003": 25.3430804121,
			"-0.002": 26.8620843945,
			"-0.001": 27.197258146,
			"0.0": 20.0754365205,
			"0.001": 17.001665019,
			"0.002": 19.0404436342,
			"0.003": 16.5521428856,
			"0.004": 16.1284181262,
			"0.005": 11.0079640801,
			"0.006": 3.49976711952,
			"0.007": 2.2590391784,
			"0.008": 3.26218138369,
			"0.009": 2.10981513581,
			"0.01": 2.03543494561,
			"0.011": 3.11710883055,
			"0.012": 3.15750914365,
			"0.013": 3.55261796709,
			"0.014": 7.34468549896,
			"0.015": 2.40439752673,
			"0.016": 0.236528168335,
			"0.017": 0.0,
			"0.018": 0.0,
			"0.019": 0.0,
			"0.02": 0.0,
			"0.021": 0.0,
			"0.022": 0.0,
			"0.023": 0.0,
			"0.024": 0.0,
			"0.025": 0.0
		}
	}
}
