{
	 "smiles": "O=C(COC(=O)C1=CC=CC=C1)N1CCC1", 
	 "Tm": 347.65, 
	 "num_atms": 29, 
	 "gaussian": { 
		 "optdone": 1, 
		 "sigma_profile": "yes", 
		 "theory": "DFT", 
		 "functional": "B3LYP", 
		 "basiset": "6-31G**", 
		 "properties": { 
			 "R2extent": 4908.1522, 
			 "electric_dipole_moment_norm": 5.60055695266, 
			 "electric_quadrupole_moment_norm": 17.4002535519, 
			 "total_energy": -745.52509984, 
			 "HOMO_LUMO_gap": 0.18533, 
			 "cosmo_polarized_energy": -15.1, 
			 "cosmo_cavitation_energy": 33.25, 
			 "cosmo_dispersion_energy": -23.23, 
			 "cosmo_repulsion_energy": 1.84, 
			 "cosmo_total_nonelectrostatic_energy": 11.86, 
			 "SMD_solvation_energy": 6.09 
		},
		"coords": [
			{
				"x": 0.2528463846,
				"y": 4.4439395036,
				"z": -1.6483610766,
				"element": "O" 
			},
			{
				"x": 0.1223331298,
				"y": 3.4763750307,
				"z": -0.9064823992,
				"element": "C" 
			},
			{
				"x": 1.0302604242,
				"y": 3.3500572917,
				"z": 0.3188066869,
				"element": "C" 
			},
			{
				"x": 1.0808546926,
				"y": 2.0466956628,
				"z": 0.9207528751,
				"element": "O" 
			},
			{
				"x": 1.957731117,
				"y": 1.167194393,
				"z": 0.3616959586,
				"element": "C" 
			},
			{
				"x": 2.6573905541,
				"y": 1.4432984056,
				"z": -0.5904985111,
				"element": "O" 
			},
			{
				"x": 1.9521913052,
				"y": -0.1525461854,
				"z": 1.0527787474,
				"element": "C" 
			},
			{
				"x": 2.7764448675,
				"y": -1.1610399894,
				"z": 0.5335436783,
				"element": "C" 
			},
			{
				"x": 2.8132453292,
				"y": -2.4136673149,
				"z": 1.1404033457,
				"element": "C" 
			},
			{
				"x": 2.0293125904,
				"y": -2.6660472373,
				"z": 2.2697801542,
				"element": "C" 
			},
			{
				"x": 1.208939811,
				"y": -1.6629687314,
				"z": 2.7918696105,
				"element": "C" 
			},
			{
				"x": 1.1678012158,
				"y": -0.4074821892,
				"z": 2.1871804568,
				"element": "C" 
			},
			{
				"x": -0.8188283075,
				"y": 2.5214463354,
				"z": -1.1194465832,
				"element": "N" 
			},
			{
				"x": -1.89983583,
				"y": 2.6182372213,
				"z": -2.10950298,
				"element": "C" 
			},
			{
				"x": -2.6746745631,
				"y": 1.5272607649,
				"z": -1.3174780322,
				"element": "C" 
			},
			{
				"x": -1.5193874258,
				"y": 1.5284751265,
				"z": -0.278021982,
				"element": "C" 
			},
			{
				"x": 2.0264866135,
				"y": 3.6687052672,
				"z": 0.0103350901,
				"element": "H" 
			},
			{
				"x": 0.6590866112,
				"y": 4.0172783192,
				"z": 1.1016639451,
				"element": "H" 
			},
			{
				"x": 3.3768628838,
				"y": -0.9395925499,
				"z": -0.3422837732,
				"element": "H" 
			},
			{
				"x": 3.4519415525,
				"y": -3.193026055,
				"z": 0.7355758296,
				"element": "H" 
			},
			{
				"x": 2.0590887772,
				"y": -3.6431232315,
				"z": 2.7436404048,
				"element": "H" 
			},
			{
				"x": 0.6030891359,
				"y": -1.8586624416,
				"z": 3.671690208,
				"element": "H" 
			},
			{
				"x": 0.5385373194,
				"y": 0.3777090052,
				"z": 2.5900367701,
				"element": "H" 
			},
			{
				"x": -1.5888710346,
				"y": 2.3495471609,
				"z": -3.1240066774,
				"element": "H" 
			},
			{
				"x": -2.3622686456,
				"y": 3.6105829,
				"z": -2.1362359737,
				"element": "H" 
			},
			{
				"x": -2.7971141697,
				"y": 0.5821950259,
				"z": -1.8494879108,
				"element": "H" 
			},
			{
				"x": -3.6429172643,
				"y": 1.8448818105,
				"z": -0.9267424641,
				"element": "H" 
			},
			{
				"x": -1.7868713395,
				"y": 1.9008252874,
				"z": 0.71700619,
				"element": "H" 
			},
			{
				"x": -0.9827757348,
				"y": 0.5825514138,
				"z": -0.1642115878,
				"element": "H" 
			}
		],
		 "valence_orbital": [ 
			{
				"type": "occ",
				"energy": -0.2798,
				"method": "rhf"
			},
			{
				"type": "occ",
				"energy": -0.26652,
				"method": "rhf"
			},
			{
				"type": "occ",
				"energy": -0.2642,
				"method": "rhf"
			},
			{
				"type": "occ",
				"energy": -0.24436,
				"method": "rhf"
			},
			{
				"type": "occ",
				"energy": -0.23719,
				"method": "rhf"
			},
			{
				"type": "unocc",
				"energy": -0.05186,
				"method": "rhf"
			},
			{
				"type": "unocc",
				"energy": -0.01426,
				"method": "rhf"
			},
			{
				"type": "unocc",
				"energy": 0.02229,
				"method": "rhf"
			},
			{
				"type": "unocc",
				"energy": 0.05212,
				"method": "rhf"
			},
			{
				"type": "unocc",
				"energy": 0.07795,
				"method": "rhf"
			}
		],
		"cosmo_sigma_profile": { 
			"-0.025": 0.0,
			"-0.024": 0.0,
			"-0.023": 0.0,
			"-0.022": 0.0,
			"-0.021": 0.0,
			"-0.02": 0.0,
			"-0.019": 0.0,
			"-0.018": 0.0,
			"-0.017": 0.0,
			"-0.016": 0.0,
			"-0.015": 0.0,
			"-0.014": 0.0,
			"-0.013": 0.0,
			"-0.012": 0.0,
			"-0.011": 0.0,
			"-0.01": 0.0,
			"-0.009": 0.31680504086,
			"-0.008": 2.47212790486,
			"-0.007": 4.33751855377,
			"-0.006": 13.1866280334,
			"-0.005": 22.9141320603,
			"-0.004": 32.0050475715,
			"-0.003": 29.0002305986,
			"-0.002": 24.8192578775,
			"-0.001": 20.8740164667,
			"0.0": 15.9787202133,
			"0.001": 13.9902653969,
			"0.002": 13.5445756465,
			"0.003": 16.0063115537,
			"0.004": 16.3228123121,
			"0.005": 4.62758574662,
			"0.006": 3.40201658344,
			"0.007": 2.2005372907,
			"0.008": 3.3487712892,
			"0.009": 2.88505208008,
			"0.01": 3.40149341778,
			"0.011": 5.61412285459,
			"0.012": 3.14459849435,
			"0.013": 3.56820572185,
			"0.014": 5.56258127009,
			"0.015": 0.648330579193,
			"0.016": 0.0,
			"0.017": 0.0,
			"0.018": 0.0,
			"0.019": 0.0,
			"0.02": 0.0,
			"0.021": 0.0,
			"0.022": 0.0,
			"0.023": 0.0,
			"0.024": 0.0,
			"0.025": 0.0
		}
	}
}
