{
	 "smiles": "NC1=CC2=C(NC(CC3CCCCC3)=N2)C=C1", 
	 "Tm": 541.15, 
	 "num_atms": 36, 
	 "gaussian": { 
		 "optdone": 1, 
		 "sigma_profile": "yes", 
		 "theory": "DFT", 
		 "functional": "B3LYP", 
		 "basiset": "6-31G**", 
		 "properties": { 
			 "R2extent": 5160.9927, 
			 "electric_dipole_moment_norm": 2.72565528818, 
			 "electric_quadrupole_moment_norm": 17.5485021167, 
			 "total_energy": -709.226035189, 
			 "HOMO_LUMO_gap": 0.17828, 
			 "cosmo_polarized_energy": -16.51, 
			 "cosmo_cavitation_energy": 36.37, 
			 "cosmo_dispersion_energy": -26.2, 
			 "cosmo_repulsion_energy": 2.05, 
			 "cosmo_total_nonelectrostatic_energy": 12.21, 
			 "SMD_solvation_energy": 3.12 
		},
		"coords": [
			{
				"x": -0.621499157,
				"y": 4.3651015529,
				"z": -1.8657286101,
				"element": "N" 
			},
			{
				"x": -0.287283704,
				"y": 2.9998236502,
				"z": -1.8154203171,
				"element": "C" 
			},
			{
				"x": -1.088329431,
				"y": 2.0944711537,
				"z": -1.112583294,
				"element": "C" 
			},
			{
				"x": -0.7522717902,
				"y": 0.7362557129,
				"z": -1.1442796637,
				"element": "C" 
			},
			{
				"x": 0.3793432072,
				"y": 0.2999212158,
				"z": -1.8719606812,
				"element": "C" 
			},
			{
				"x": 0.4054095523,
				"y": -1.0748637878,
				"z": -1.6785206091,
				"element": "N" 
			},
			{
				"x": -0.6717321069,
				"y": -1.398628968,
				"z": -0.8777711325,
				"element": "C" 
			},
			{
				"x": -0.9601695805,
				"y": -2.8049861186,
				"z": -0.4468390206,
				"element": "C" 
			},
			{
				"x": -0.3419859225,
				"y": -3.2352774176,
				"z": 0.9123973561,
				"element": "C" 
			},
			{
				"x": 1.1966485641,
				"y": -3.3561168515,
				"z": 0.8460347246,
				"element": "C" 
			},
			{
				"x": 1.7951963059,
				"y": -3.4926193847,
				"z": 2.2526771553,
				"element": "C" 
			},
			{
				"x": 1.5511264861,
				"y": -2.2144973766,
				"z": 3.0960813544,
				"element": "C" 
			},
			{
				"x": 0.3294356086,
				"y": -1.4117505328,
				"z": 2.5983006301,
				"element": "C" 
			},
			{
				"x": -0.7945994879,
				"y": -2.3308999086,
				"z": 2.0992572046,
				"element": "C" 
			},
			{
				"x": -1.3835161734,
				"y": -0.343457417,
				"z": -0.5415123423,
				"element": "N" 
			},
			{
				"x": 1.1882495171,
				"y": 1.1895916469,
				"z": -2.5770089045,
				"element": "C" 
			},
			{
				"x": 0.8402776914,
				"y": 2.5361784422,
				"z": -2.5390365446,
				"element": "C" 
			},
			{
				"x": 0.1727536745,
				"y": 4.9796469959,
				"z": -1.9886010986,
				"element": "H" 
			},
			{
				"x": -1.194819346,
				"y": 4.6745105825,
				"z": -1.0916951994,
				"element": "H" 
			},
			{
				"x": -1.9578966518,
				"y": 2.428241379,
				"z": -0.5538779594,
				"element": "H" 
			},
			{
				"x": 1.065547237,
				"y": -1.727666053,
				"z": -2.0701044605,
				"element": "H" 
			},
			{
				"x": -0.6217806337,
				"y": -3.5005840053,
				"z": -1.2265611108,
				"element": "H" 
			},
			{
				"x": -2.0482474223,
				"y": -2.9004351219,
				"z": -0.3827256803,
				"element": "H" 
			},
			{
				"x": -0.7313997646,
				"y": -4.2459521824,
				"z": 1.0953600094,
				"element": "H" 
			},
			{
				"x": 1.6250969002,
				"y": -2.4696783846,
				"z": 0.3594938113,
				"element": "H" 
			},
			{
				"x": 1.4717652819,
				"y": -4.2168315307,
				"z": 0.2228672037,
				"element": "H" 
			},
			{
				"x": 2.8668376381,
				"y": -3.7141157252,
				"z": 2.1952350387,
				"element": "H" 
			},
			{
				"x": 1.3321622188,
				"y": -4.3589775427,
				"z": 2.7434746566,
				"element": "H" 
			},
			{
				"x": 2.4397392717,
				"y": -1.5724442577,
				"z": 3.0697621686,
				"element": "H" 
			},
			{
				"x": 1.4091780542,
				"y": -2.4955083013,
				"z": 4.1466224482,
				"element": "H" 
			},
			{
				"x": 0.6274696444,
				"y": -0.7416107566,
				"z": 1.7837684055,
				"element": "H" 
			},
			{
				"x": -0.0445562255,
				"y": -0.7619697799,
				"z": 3.3975934359,
				"element": "H" 
			},
			{
				"x": -1.6562999767,
				"y": -1.7264569525,
				"z": 1.8002272703,
				"element": "H" 
			},
			{
				"x": -1.1262188127,
				"y": -2.9673401196,
				"z": 2.929797851,
				"element": "H" 
			},
			{
				"x": 2.0586971418,
				"y": 0.8597970227,
				"z": -3.1367406384,
				"element": "H" 
			},
			{
				"x": 1.4428721916,
				"y": 3.2572291216,
				"z": -3.0853834569,
				"element": "H" 
			}
		],
		 "valence_orbital": [ 
			{
				"type": "occ",
				"energy": -0.28773,
				"method": "rhf"
			},
			{
				"type": "occ",
				"energy": -0.27741,
				"method": "rhf"
			},
			{
				"type": "occ",
				"energy": -0.25676,
				"method": "rhf"
			},
			{
				"type": "occ",
				"energy": -0.21167,
				"method": "rhf"
			},
			{
				"type": "occ",
				"energy": -0.18406,
				"method": "rhf"
			},
			{
				"type": "unocc",
				"energy": -0.00578,
				"method": "rhf"
			},
			{
				"type": "unocc",
				"energy": 0.0424,
				"method": "rhf"
			},
			{
				"type": "unocc",
				"energy": 0.0582,
				"method": "rhf"
			},
			{
				"type": "unocc",
				"energy": 0.07598,
				"method": "rhf"
			},
			{
				"type": "unocc",
				"energy": 0.088,
				"method": "rhf"
			}
		],
		"cosmo_sigma_profile": { 
			"-0.025": 0.0,
			"-0.024": 0.0,
			"-0.023": 0.0,
			"-0.022": 0.0,
			"-0.021": 0.0,
			"-0.02": 0.0,
			"-0.019": 0.0,
			"-0.018": 0.0,
			"-0.017": 0.0,
			"-0.016": 0.215763828033,
			"-0.015": 1.19248885865,
			"-0.014": 1.27355860681,
			"-0.013": 1.07944757231,
			"-0.012": 1.73762018983,
			"-0.011": 4.18449047429,
			"-0.01": 4.18886898496,
			"-0.009": 4.28080491682,
			"-0.008": 4.7605283096,
			"-0.007": 5.4845896295,
			"-0.006": 7.90868592312,
			"-0.005": 7.63487279376,
			"-0.004": 10.906741215,
			"-0.003": 12.1437298913,
			"-0.002": 28.7236813277,
			"-0.001": 38.4254413684,
			"0.0": 36.7347287075,
			"0.001": 26.9873368165,
			"0.002": 17.3151128703,
			"0.003": 8.52190919199,
			"0.004": 8.66678098827,
			"0.005": 9.00973447787,
			"0.006": 13.4040578567,
			"0.007": 9.91189780167,
			"0.008": 3.65445516409,
			"0.009": 2.3534626466,
			"0.01": 1.85856529949,
			"0.011": 1.50489118497,
			"0.012": 2.77727625363,
			"0.013": 1.27298623079,
			"0.014": 2.03096057531,
			"0.015": 1.01531538552,
			"0.016": 1.08945836248,
			"0.017": 0.997360125148,
			"0.018": 0.340122204772,
			"0.019": 0.0134684953838,
			"0.02": 0.0,
			"0.021": 0.0,
			"0.022": 0.0,
			"0.023": 0.0,
			"0.024": 0.0,
			"0.025": 0.0
		}
	}
}
