{
	 "smiles": "CC(=N/C1=CC(=CC=C1)C(O)=O)C1=C(O)C2=CC=CC=C2N(C2=CC=CC=C2)C1=O", 
	 "Tm": 515.15, 
	 "num_atms": 48, 
	 "gaussian": { 
		 "optdone": 1, 
		 "sigma_profile": "yes", 
		 "theory": "DFT", 
		 "functional": "B3LYP", 
		 "basiset": "6-31G**", 
		 "properties": { 
			 "R2extent": 16394.7636, 
			 "electric_dipole_moment_norm": 10.9574391173, 
			 "electric_quadrupole_moment_norm": 46.8767105628, 
			 "total_energy": -1335.81351946, 
			 "HOMO_LUMO_gap": 0.15711, 
			 "cosmo_polarized_energy": -30.1, 
			 "cosmo_cavitation_energy": 53.41, 
			 "cosmo_dispersion_energy": -36.3, 
			 "cosmo_repulsion_energy": 2.72, 
			 "cosmo_total_nonelectrostatic_energy": 19.83, 
			 "SMD_solvation_energy": 9.61 
		},
		"coords": [
			{
				"x": 1.9701428524,
				"y": -1.1314518242,
				"z": -2.2432439745,
				"element": "C" 
			},
			{
				"x": 1.517964107,
				"y": -0.9361052167,
				"z": -0.8143673072,
				"element": "C" 
			},
			{
				"x": 1.8169778863,
				"y": -1.6584341924,
				"z": 0.1964455409,
				"element": "N" 
			},
			{
				"x": 2.5781043608,
				"y": -2.8342658645,
				"z": 0.1010298315,
				"element": "C" 
			},
			{
				"x": 2.0660121689,
				"y": -3.9898278902,
				"z": -0.5089949866,
				"element": "C" 
			},
			{
				"x": 2.8018348882,
				"y": -5.1826827634,
				"z": -0.5072385371,
				"element": "C" 
			},
			{
				"x": 4.0706053826,
				"y": -5.2194991155,
				"z": 0.0836692398,
				"element": "C" 
			},
			{
				"x": 4.5750108458,
				"y": -4.0765878974,
				"z": 0.7021614387,
				"element": "C" 
			},
			{
				"x": 3.8333551627,
				"y": -2.8968783724,
				"z": 0.728265875,
				"element": "C" 
			},
			{
				"x": 2.2963739115,
				"y": -6.440986766,
				"z": -1.1484319032,
				"element": "C" 
			},
			{
				"x": 0.9521563676,
				"y": -6.5355419574,
				"z": -1.3349314388,
				"element": "O" 
			},
			{
				"x": 3.0168412077,
				"y": -7.3492785945,
				"z": -1.4920717643,
				"element": "O" 
			},
			{
				"x": 0.6437885356,
				"y": 0.2554176102,
				"z": -0.5598625057,
				"element": "C" 
			},
			{
				"x": 1.053120342,
				"y": 1.3143631185,
				"z": 0.199234972,
				"element": "C" 
			},
			{
				"x": 2.3095118632,
				"y": 1.3016444065,
				"z": 0.7059658025,
				"element": "O" 
			},
			{
				"x": 0.1718124901,
				"y": 2.4397441692,
				"z": 0.4519089334,
				"element": "C" 
			},
			{
				"x": 0.5327480726,
				"y": 3.5223660314,
				"z": 1.2777878095,
				"element": "C" 
			},
			{
				"x": -0.3250726469,
				"y": 4.5887270767,
				"z": 1.4915591804,
				"element": "C" 
			},
			{
				"x": -1.5839473161,
				"y": 4.5857685414,
				"z": 0.8759495568,
				"element": "C" 
			},
			{
				"x": -1.9778255398,
				"y": 3.5279772496,
				"z": 0.070436297,
				"element": "C" 
			},
			{
				"x": -1.1136502516,
				"y": 2.4371105127,
				"z": -0.1509324629,
				"element": "C" 
			},
			{
				"x": -1.4980993391,
				"y": 1.3594503127,
				"z": -0.9435203231,
				"element": "N" 
			},
			{
				"x": -2.8024250027,
				"y": 1.3381399021,
				"z": -1.5649283756,
				"element": "C" 
			},
			{
				"x": -3.877047285,
				"y": 0.7467918402,
				"z": -0.8992093388,
				"element": "C" 
			},
			{
				"x": -5.1358456627,
				"y": 0.7318183004,
				"z": -1.5005160917,
				"element": "C" 
			},
			{
				"x": -5.317770286,
				"y": 1.3052701681,
				"z": -2.7607657377,
				"element": "C" 
			},
			{
				"x": -4.2377799445,
				"y": 1.8927737666,
				"z": -3.4226688224,
				"element": "C" 
			},
			{
				"x": -2.9763806911,
				"y": 1.9093678704,
				"z": -2.8262850145,
				"element": "C" 
			},
			{
				"x": -0.6790672863,
				"y": 0.2292571701,
				"z": -1.1697300005,
				"element": "C" 
			},
			{
				"x": -1.0916177295,
				"y": -0.7017854528,
				"z": -1.8585445314,
				"element": "O" 
			},
			{
				"x": 2.6149666005,
				"y": -2.0034850212,
				"z": -2.3574801482,
				"element": "H" 
			},
			{
				"x": 2.5148346155,
				"y": -0.2386206599,
				"z": -2.5720720234,
				"element": "H" 
			},
			{
				"x": 1.091248292,
				"y": -1.2362451466,
				"z": -2.8853999902,
				"element": "H" 
			},
			{
				"x": 1.0995714601,
				"y": -3.9172159657,
				"z": -1.0016106427,
				"element": "H" 
			},
			{
				"x": 4.6318575727,
				"y": -6.1464884043,
				"z": 0.0551893194,
				"element": "H" 
			},
			{
				"x": 5.5522959312,
				"y": -4.1049709947,
				"z": 1.1754215134,
				"element": "H" 
			},
			{
				"x": 4.2127414724,
				"y": -2.0076037261,
				"z": 1.2215530514,
				"element": "H" 
			},
			{
				"x": 0.502188539,
				"y": -5.8100741655,
				"z": -0.879847108,
				"element": "H" 
			},
			{
				"x": 2.5255223072,
				"y": 2.1653443493,
				"z": 1.0783232096,
				"element": "H" 
			},
			{
				"x": 1.4934213401,
				"y": 3.5275512656,
				"z": 1.7879535006,
				"element": "H" 
			},
			{
				"x": -0.0266124072,
				"y": 5.4105318387,
				"z": 2.1337587528,
				"element": "H" 
			},
			{
				"x": -2.2672002662,
				"y": 5.4148636198,
				"z": 1.0334084606,
				"element": "H" 
			},
			{
				"x": -2.9567226114,
				"y": 3.5320067507,
				"z": -0.3913914551,
				"element": "H" 
			},
			{
				"x": -3.7195696738,
				"y": 0.2983287732,
				"z": 0.0764314746,
				"element": "H" 
			},
			{
				"x": -5.9724294037,
				"y": 0.2690489147,
				"z": -0.9857264587,
				"element": "H" 
			},
			{
				"x": -6.2982274159,
				"y": 1.2911272393,
				"z": -3.2274635993,
				"element": "H" 
			},
			{
				"x": -4.3745281725,
				"y": 2.3346975502,
				"z": -4.4050579978,
				"element": "H" 
			},
			{
				"x": -2.1264896437,
				"y": 2.355941643,
				"z": -3.3326612203,
				"element": "H" 
			}
		],
		 "valence_orbital": [ 
			{
				"type": "occ",
				"energy": -0.25695,
				"method": "rhf"
			},
			{
				"type": "occ",
				"energy": -0.255,
				"method": "rhf"
			},
			{
				"type": "occ",
				"energy": -0.24657,
				"method": "rhf"
			},
			{
				"type": "occ",
				"energy": -0.22835,
				"method": "rhf"
			},
			{
				"type": "occ",
				"energy": -0.21924,
				"method": "rhf"
			},
			{
				"type": "unocc",
				"energy": -0.06213,
				"method": "rhf"
			},
			{
				"type": "unocc",
				"energy": -0.03892,
				"method": "rhf"
			},
			{
				"type": "unocc",
				"energy": -0.02398,
				"method": "rhf"
			},
			{
				"type": "unocc",
				"energy": -0.0197,
				"method": "rhf"
			},
			{
				"type": "unocc",
				"energy": -0.01574,
				"method": "rhf"
			}
		],
		"cosmo_sigma_profile": { 
			"-0.025": 0.0,
			"-0.024": 0.0,
			"-0.023": 0.0,
			"-0.022": 0.0,
			"-0.021": 0.0,
			"-0.02": 0.0077369992932,
			"-0.019": 0.918023829606,
			"-0.018": 1.48081761439,
			"-0.017": 1.99740245931,
			"-0.016": 1.43577934785,
			"-0.015": 2.0811128051,
			"-0.014": 1.68120042465,
			"-0.013": 2.1731701394,
			"-0.012": 2.12504265878,
			"-0.011": 2.26872356911,
			"-0.01": 2.37924178415,
			"-0.009": 1.77018862874,
			"-0.008": 2.57664580512,
			"-0.007": 9.42781237574,
			"-0.006": 25.4981130133,
			"-0.005": 29.2701193236,
			"-0.004": 30.8798454317,
			"-0.003": 27.7548706218,
			"-0.002": 33.3022513628,
			"-0.001": 34.0888494315,
			"0.0": 32.182993415,
			"0.001": 23.5801908977,
			"0.002": 27.8287736167,
			"0.003": 31.590929553,
			"0.004": 24.8932326593,
			"0.005": 10.8556319786,
			"0.006": 6.9511321737,
			"0.007": 6.75955316329,
			"0.008": 8.29710300718,
			"0.009": 6.8357734661,
			"0.01": 8.17208830476,
			"0.011": 8.96114797365,
			"0.012": 8.67378980442,
			"0.013": 6.17798182051,
			"0.014": 3.68738416346,
			"0.015": 0.29832099879,
			"0.016": 0.0,
			"0.017": 0.0,
			"0.018": 0.0,
			"0.019": 0.0,
			"0.02": 0.0,
			"0.021": 0.0,
			"0.022": 0.0,
			"0.023": 0.0,
			"0.024": 0.0,
			"0.025": 0.0
		}
	}
}
