{
	 "smiles": "CNS(=O)(=O)C1=CC=C(SC2=C(C=CC=C2)C(O)=O)C=C1", 
	 "Tm": 473.15, 
	 "num_atms": 34, 
	 "gaussian": { 
		 "optdone": 1, 
		 "sigma_profile": "yes", 
		 "theory": "DFT", 
		 "functional": "B3LYP", 
		 "basiset": "6-31G**", 
		 "properties": { 
			 "R2extent": 8854.8526, 
			 "electric_dipole_moment_norm": 6.27290634874, 
			 "electric_quadrupole_moment_norm": 29.4509499828, 
			 "total_energy": -1693.27148594, 
			 "HOMO_LUMO_gap": 0.17174, 
			 "cosmo_polarized_energy": -26.28, 
			 "cosmo_cavitation_energy": 41.79, 
			 "cosmo_dispersion_energy": -29.27, 
			 "cosmo_repulsion_energy": 2.17, 
			 "cosmo_total_nonelectrostatic_energy": 14.69, 
			 "SMD_solvation_energy": 6.44 
		},
		"coords": [
			{
				"x": -4.2108283271,
				"y": -3.7260604741,
				"z": 1.6906309212,
				"element": "C" 
			},
			{
				"x": -3.6538376415,
				"y": -2.5469269225,
				"z": 2.3657292833,
				"element": "N" 
			},
			{
				"x": -1.9824477947,
				"y": -2.5337020109,
				"z": 2.6404109396,
				"element": "S" 
			},
			{
				"x": -1.4618999389,
				"y": -3.900841651,
				"z": 2.7640280899,
				"element": "O" 
			},
			{
				"x": -1.7938058344,
				"y": -1.5458648375,
				"z": 3.7078641713,
				"element": "O" 
			},
			{
				"x": -1.3568082971,
				"y": -1.8607472733,
				"z": 1.1016248256,
				"element": "C" 
			},
			{
				"x": -0.6829088721,
				"y": -2.6931411425,
				"z": 0.2097251101,
				"element": "C" 
			},
			{
				"x": -0.1774479719,
				"y": -2.1566302477,
				"z": -0.9761142008,
				"element": "C" 
			},
			{
				"x": -0.3643773125,
				"y": -0.8006498723,
				"z": -1.2662683983,
				"element": "C" 
			},
			{
				"x": 0.2011178017,
				"y": -0.1766602817,
				"z": -2.8478160385,
				"element": "S" 
			},
			{
				"x": 1.1268542573,
				"y": 1.2930302431,
				"z": -2.3991043865,
				"element": "C" 
			},
			{
				"x": 2.1790230122,
				"y": 1.3164646458,
				"z": -1.4565962988,
				"element": "C" 
			},
			{
				"x": 2.8505661596,
				"y": 2.5255977877,
				"z": -1.2173744085,
				"element": "C" 
			},
			{
				"x": 2.523209405,
				"y": 3.6883825326,
				"z": -1.9136395699,
				"element": "C" 
			},
			{
				"x": 1.4937565416,
				"y": 3.6573001968,
				"z": -2.8521445622,
				"element": "C" 
			},
			{
				"x": 0.7937106531,
				"y": 2.4716127963,
				"z": -3.0789466929,
				"element": "C" 
			},
			{
				"x": 2.6856647953,
				"y": 0.0803047758,
				"z": -0.7585393889,
				"element": "C" 
			},
			{
				"x": 2.9958154958,
				"y": 0.2447439739,
				"z": 0.5557748405,
				"element": "O" 
			},
			{
				"x": 2.872702792,
				"y": -0.9817177078,
				"z": -1.2967703196,
				"element": "O" 
			},
			{
				"x": -1.045570187,
				"y": 0.0260584849,
				"z": -0.3573718524,
				"element": "C" 
			},
			{
				"x": -1.5330555773,
				"y": -0.4994521761,
				"z": 0.8337582767,
				"element": "C" 
			},
			{
				"x": -5.2907612227,
				"y": -3.5830153441,
				"z": 1.6068437414,
				"element": "H" 
			},
			{
				"x": -4.0025757711,
				"y": -4.6671707639,
				"z": 2.2111712507,
				"element": "H" 
			},
			{
				"x": -3.8018483234,
				"y": -3.7859084979,
				"z": 0.6785874042,
				"element": "H" 
			},
			{
				"x": -4.0933844078,
				"y": -2.3347791416,
				"z": 3.2589277598,
				"element": "H" 
			},
			{
				"x": -0.5305456702,
				"y": -3.7369643461,
				"z": 0.4607332913,
				"element": "H" 
			},
			{
				"x": 0.3845607927,
				"y": -2.7805829859,
				"z": -1.6619651321,
				"element": "H" 
			},
			{
				"x": 3.6744339701,
				"y": 2.541682398,
				"z": -0.5088159751,
				"element": "H" 
			},
			{
				"x": 3.07097111,
				"y": 4.6062287573,
				"z": -1.7246134059,
				"element": "H" 
			},
			{
				"x": 1.2214203218,
				"y": 4.5552734993,
				"z": -3.3985903605,
				"element": "H" 
			},
			{
				"x": -0.030145879,
				"y": 2.452947331,
				"z": -3.7852217544,
				"element": "H" 
			},
			{
				"x": 2.6548347786,
				"y": 1.0937085479,
				"z": 0.8717381199,
				"element": "H" 
			},
			{
				"x": -1.1940759266,
				"y": 1.0759761092,
				"z": -0.588272468,
				"element": "H" 
			},
			{
				"x": -2.0515169315,
				"y": 0.1315035977,
				"z": 1.5476171877,
				"element": "H" 
			}
		],
		 "valence_orbital": [ 
			{
				"type": "occ",
				"energy": -0.28351,
				"method": "rhf"
			},
			{
				"type": "occ",
				"energy": -0.27552,
				"method": "rhf"
			},
			{
				"type": "occ",
				"energy": -0.26972,
				"method": "rhf"
			},
			{
				"type": "occ",
				"energy": -0.26484,
				"method": "rhf"
			},
			{
				"type": "occ",
				"energy": -0.2297,
				"method": "rhf"
			},
			{
				"type": "unocc",
				"energy": -0.05796,
				"method": "rhf"
			},
			{
				"type": "unocc",
				"energy": -0.05074,
				"method": "rhf"
			},
			{
				"type": "unocc",
				"energy": -0.03538,
				"method": "rhf"
			},
			{
				"type": "unocc",
				"energy": -0.02203,
				"method": "rhf"
			},
			{
				"type": "unocc",
				"energy": 0.02671,
				"method": "rhf"
			}
		],
		"cosmo_sigma_profile": { 
			"-0.025": 0.0,
			"-0.024": 0.0,
			"-0.023": 0.0,
			"-0.022": 0.0,
			"-0.021": 0.0,
			"-0.02": 0.0,
			"-0.019": 0.193888877378,
			"-0.018": 0.7771050667,
			"-0.017": 1.11011918124,
			"-0.016": 0.633997063309,
			"-0.015": 1.00648570391,
			"-0.014": 2.13381557968,
			"-0.013": 1.82918605066,
			"-0.012": 2.12404685952,
			"-0.011": 2.3883521338,
			"-0.01": 2.30721798504,
			"-0.009": 2.35572256023,
			"-0.008": 4.81921978862,
			"-0.007": 16.6184757026,
			"-0.006": 20.7887893522,
			"-0.005": 20.6344039928,
			"-0.004": 21.5363982406,
			"-0.003": 24.0241590279,
			"-0.002": 22.2462412494,
			"-0.001": 18.1199009782,
			"0.0": 20.7258894659,
			"0.001": 22.1195046665,
			"0.002": 27.5420346963,
			"0.003": 16.9731220114,
			"0.004": 9.10683307581,
			"0.005": 8.25156564749,
			"0.006": 8.06061829669,
			"0.007": 7.21375148406,
			"0.008": 7.72858895452,
			"0.009": 8.13408663661,
			"0.01": 12.0851610535,
			"0.011": 13.8439976424,
			"0.012": 6.77450493538,
			"0.013": 1.51029409985,
			"0.014": 0.00346280983435,
			"0.015": 0.0,
			"0.016": 0.0,
			"0.017": 0.0,
			"0.018": 0.0,
			"0.019": 0.0,
			"0.02": 0.0,
			"0.021": 0.0,
			"0.022": 0.0,
			"0.023": 0.0,
			"0.024": 0.0,
			"0.025": 0.0
		}
	}
}
