{
	 "smiles": "ClC1=CC=CC(Cl)=C1N(=O)=O", 
	 "Tm": 345.65, 
	 "num_atms": 14, 
	 "gaussian": { 
		 "optdone": 1, 
		 "sigma_profile": "yes", 
		 "theory": "DFT", 
		 "functional": "B3LYP", 
		 "basiset": "6-31G**", 
		 "properties": { 
			 "R2extent": 3448.4598, 
			 "electric_dipole_moment_norm": 4.97966862552, 
			 "electric_quadrupole_moment_norm": 13.0525810344, 
			 "total_energy": -1355.90677655, 
			 "HOMO_LUMO_gap": 0.19116, 
			 "cosmo_polarized_energy": -7.77, 
			 "cosmo_cavitation_energy": 23.31, 
			 "cosmo_dispersion_energy": -16.82, 
			 "cosmo_repulsion_energy": 1.35, 
			 "cosmo_total_nonelectrostatic_energy": 7.84, 
			 "SMD_solvation_energy": 6.2 
		},
		"coords": [
			{
				"x": -1.2328677671,
				"y": -0.12937261,
				"z": 2.1437927727,
				"element": "Cl" 
			},
			{
				"x": -1.0857796273,
				"y": -0.0922245262,
				"z": 0.4063998299,
				"element": "C" 
			},
			{
				"x": -0.262774255,
				"y": 0.8554764252,
				"z": -0.2007408928,
				"element": "C" 
			},
			{
				"x": -0.1511694821,
				"y": 0.8778949299,
				"z": -1.5901248199,
				"element": "C" 
			},
			{
				"x": -0.8508165804,
				"y": -0.0337026265,
				"z": -2.3793166191,
				"element": "C" 
			},
			{
				"x": -1.6730388532,
				"y": -0.9802003453,
				"z": -1.7692458229,
				"element": "C" 
			},
			{
				"x": -2.5530435484,
				"y": -2.1254119566,
				"z": -2.7468029293,
				"element": "Cl" 
			},
			{
				"x": -1.7893607272,
				"y": -1.0082192355,
				"z": -0.3781190256,
				"element": "C" 
			},
			{
				"x": -2.6610091679,
				"y": -2.0117809334,
				"z": 0.2667597655,
				"element": "N" 
			},
			{
				"x": -2.1408858453,
				"y": -3.079805505,
				"z": 0.5622618625,
				"element": "O" 
			},
			{
				"x": -3.8272622009,
				"y": -1.6876686175,
				"z": 0.4493300065,
				"element": "O" 
			},
			{
				"x": 0.2792506854,
				"y": 1.5621876418,
				"z": 0.4167261697,
				"element": "H" 
			},
			{
				"x": 0.4890614982,
				"y": 1.615005088,
				"z": -2.0637861685,
				"element": "H" 
			},
			{
				"x": -0.7671041288,
				"y": -0.0199777289,
				"z": -3.4597341286,
				"element": "H" 
			}
		],
		 "valence_orbital": [ 
			{
				"type": "occ",
				"energy": -0.32605,
				"method": "rhf"
			},
			{
				"type": "occ",
				"energy": -0.32422,
				"method": "rhf"
			},
			{
				"type": "occ",
				"energy": -0.31679,
				"method": "rhf"
			},
			{
				"type": "occ",
				"energy": -0.27802,
				"method": "rhf"
			},
			{
				"type": "occ",
				"energy": -0.27409,
				"method": "rhf"
			},
			{
				"type": "unocc",
				"energy": -0.08293,
				"method": "rhf"
			},
			{
				"type": "unocc",
				"energy": -0.04994,
				"method": "rhf"
			},
			{
				"type": "unocc",
				"energy": -0.04842,
				"method": "rhf"
			},
			{
				"type": "unocc",
				"energy": -0.01825,
				"method": "rhf"
			},
			{
				"type": "unocc",
				"energy": 0.03051,
				"method": "rhf"
			}
		],
		"cosmo_sigma_profile": { 
			"-0.025": 0.0,
			"-0.024": 0.0,
			"-0.023": 0.0,
			"-0.022": 0.0,
			"-0.021": 0.0,
			"-0.02": 0.0,
			"-0.019": 0.0,
			"-0.018": 0.0,
			"-0.017": 0.0,
			"-0.016": 0.0,
			"-0.015": 0.0,
			"-0.014": 0.0,
			"-0.013": 0.0,
			"-0.012": 0.0,
			"-0.011": 0.0,
			"-0.01": 0.0289457370299,
			"-0.009": 3.45166514217,
			"-0.008": 7.03677217097,
			"-0.007": 7.10860810822,
			"-0.006": 5.08339156096,
			"-0.005": 5.05526774767,
			"-0.004": 5.61290931939,
			"-0.003": 8.12053332636,
			"-0.002": 16.6863181591,
			"-0.001": 25.0926604096,
			"0.0": 23.1334817918,
			"0.001": 21.6611728552,
			"0.002": 18.2120657322,
			"0.003": 14.4567719231,
			"0.004": 4.30479037806,
			"0.005": 4.47473395334,
			"0.006": 11.2271576971,
			"0.007": 7.69363614832,
			"0.008": 3.6428867539,
			"0.009": 0.554414236443,
			"0.01": 0.0,
			"0.011": 0.0,
			"0.012": 0.0,
			"0.013": 0.0,
			"0.014": 0.0,
			"0.015": 0.0,
			"0.016": 0.0,
			"0.017": 0.0,
			"0.018": 0.0,
			"0.019": 0.0,
			"0.02": 0.0,
			"0.021": 0.0,
			"0.022": 0.0,
			"0.023": 0.0,
			"0.024": 0.0,
			"0.025": 0.0
		}
	}
}
