{
	 "smiles": "CCCCC1=CC=C(NC(=O)C2=CC=C(OC)C=C2)C=C1", 
	 "Tm": 420.15, 
	 "num_atms": 42, 
	 "gaussian": { 
		 "optdone": 1, 
		 "sigma_profile": "yes", 
		 "theory": "DFT", 
		 "functional": "B3LYP", 
		 "basiset": "6-31G**", 
		 "properties": { 
			 "R2extent": 9095.9538, 
			 "electric_dipole_moment_norm": 3.21573605571, 
			 "electric_quadrupole_moment_norm": 24.6240808409, 
			 "total_energy": -903.79190656, 
			 "HOMO_LUMO_gap": 0.18497, 
			 "cosmo_polarized_energy": -13.45, 
			 "cosmo_cavitation_energy": 44.9, 
			 "cosmo_dispersion_energy": -30.61, 
			 "cosmo_repulsion_energy": 2.39, 
			 "cosmo_total_nonelectrostatic_energy": 16.67, 
			 "SMD_solvation_energy": 8.5 
		},
		"coords": [
			{
				"x": -4.8539006446,
				"y": 1.0531942759,
				"z": 1.7464242689,
				"element": "C" 
			},
			{
				"x": -3.9368567067,
				"y": 0.1854824761,
				"z": 0.876143112,
				"element": "C" 
			},
			{
				"x": -3.9806446574,
				"y": 0.5225957207,
				"z": -0.6228838877,
				"element": "C" 
			},
			{
				"x": -3.4074638026,
				"y": 1.906746417,
				"z": -1.0074062382,
				"element": "C" 
			},
			{
				"x": -1.9240794052,
				"y": 2.0551781471,
				"z": -0.7401993327,
				"element": "C" 
			},
			{
				"x": -1.4412755855,
				"y": 2.8001494696,
				"z": 0.342914736,
				"element": "C" 
			},
			{
				"x": -0.0747663792,
				"y": 2.9072173289,
				"z": 0.599313824,
				"element": "C" 
			},
			{
				"x": 0.8559483665,
				"y": 2.2833728513,
				"z": -0.2407283326,
				"element": "C" 
			},
			{
				"x": 2.2374424992,
				"y": 2.4637650778,
				"z": 0.0246436898,
				"element": "N" 
			},
			{
				"x": 3.3329821283,
				"y": 1.664374667,
				"z": -0.273177414,
				"element": "C" 
			},
			{
				"x": 4.4371010767,
				"y": 2.1862276868,
				"z": -0.4000573461,
				"element": "O" 
			},
			{
				"x": 3.161831671,
				"y": 0.1820405366,
				"z": -0.3552658282,
				"element": "C" 
			},
			{
				"x": 2.1956653005,
				"y": -0.5364593811,
				"z": 0.3716594483,
				"element": "C" 
			},
			{
				"x": 2.1559089415,
				"y": -1.9215916497,
				"z": 0.3179339959,
				"element": "C" 
			},
			{
				"x": 3.0783182356,
				"y": -2.6255086643,
				"z": -0.4736957633,
				"element": "C" 
			},
			{
				"x": 2.946248692,
				"y": -3.9800726884,
				"z": -0.4678159805,
				"element": "O" 
			},
			{
				"x": 3.8602591061,
				"y": -4.752182149,
				"z": -1.2331025341,
				"element": "C" 
			},
			{
				"x": 4.0535375106,
				"y": -1.9229757798,
				"z": -1.1951468124,
				"element": "C" 
			},
			{
				"x": 4.0931561652,
				"y": -0.532244721,
				"z": -1.1172451427,
				"element": "C" 
			},
			{
				"x": 0.3885790316,
				"y": 1.5570311511,
				"z": -1.346084164,
				"element": "C" 
			},
			{
				"x": -0.9795024083,
				"y": 1.4381638134,
				"z": -1.5743669935,
				"element": "C" 
			},
			{
				"x": -5.8965444213,
				"y": 0.9834108326,
				"z": 1.4146156878,
				"element": "H" 
			},
			{
				"x": -4.5697943406,
				"y": 2.1104824808,
				"z": 1.7168211685,
				"element": "H" 
			},
			{
				"x": -4.8172984626,
				"y": 0.7363970561,
				"z": 2.793890522,
				"element": "H" 
			},
			{
				"x": -2.9036695528,
				"y": 0.265347397,
				"z": 1.2366192604,
				"element": "H" 
			},
			{
				"x": -4.2217360863,
				"y": -0.8668785455,
				"z": 1.0010233709,
				"element": "H" 
			},
			{
				"x": -5.0202179787,
				"y": 0.4686872438,
				"z": -0.9741625029,
				"element": "H" 
			},
			{
				"x": -3.4288869052,
				"y": -0.2472534699,
				"z": -1.1773928931,
				"element": "H" 
			},
			{
				"x": -3.9544953092,
				"y": 2.6947594122,
				"z": -0.4775540573,
				"element": "H" 
			},
			{
				"x": -3.5985311126,
				"y": 2.0693733522,
				"z": -2.0757053985,
				"element": "H" 
			},
			{
				"x": -2.1441009549,
				"y": 3.3026120857,
				"z": 1.0027550087,
				"element": "H" 
			},
			{
				"x": 0.2781116558,
				"y": 3.4749672579,
				"z": 1.4560960405,
				"element": "H" 
			},
			{
				"x": 2.531374194,
				"y": 3.4156735687,
				"z": 0.2098992767,
				"element": "H" 
			},
			{
				"x": 1.4815488859,
				"y": -0.0106486019,
				"z": 0.9955282146,
				"element": "H" 
			},
			{
				"x": 1.4228356944,
				"y": -2.4870395719,
				"z": 0.8835804912,
				"element": "H" 
			},
			{
				"x": 4.8937778413,
				"y": -4.6076885424,
				"z": -0.8942303125,
				"element": "H" 
			},
			{
				"x": 3.7957872941,
				"y": -4.5127331492,
				"z": -2.3020482235,
				"element": "H" 
			},
			{
				"x": 3.5744624008,
				"y": -5.7939141643,
				"z": -1.0807512449,
				"element": "H" 
			},
			{
				"x": 4.7825700117,
				"y": -2.4441640668,
				"z": -1.803940116,
				"element": "H" 
			},
			{
				"x": 4.8610294115,
				"y": 0.0229090849,
				"z": -1.645670718,
				"element": "H" 
			},
			{
				"x": 1.0957740362,
				"y": 1.096128844,
				"z": -2.0264948631,
				"element": "H" 
			},
			{
				"x": -1.3199854367,
				"y": 0.8717669101,
				"z": -2.4381360165,
				"element": "H" 
			}
		],
		 "valence_orbital": [ 
			{
				"type": "occ",
				"energy": -0.25919,
				"method": "rhf"
			},
			{
				"type": "occ",
				"energy": -0.25216,
				"method": "rhf"
			},
			{
				"type": "occ",
				"energy": -0.24834,
				"method": "rhf"
			},
			{
				"type": "occ",
				"energy": -0.22397,
				"method": "rhf"
			},
			{
				"type": "occ",
				"energy": -0.21557,
				"method": "rhf"
			},
			{
				"type": "unocc",
				"energy": -0.0306,
				"method": "rhf"
			},
			{
				"type": "unocc",
				"energy": -0.01178,
				"method": "rhf"
			},
			{
				"type": "unocc",
				"energy": 0.002,
				"method": "rhf"
			},
			{
				"type": "unocc",
				"energy": 0.00297,
				"method": "rhf"
			},
			{
				"type": "unocc",
				"energy": 0.06679,
				"method": "rhf"
			}
		],
		"cosmo_sigma_profile": { 
			"-0.025": 0.0,
			"-0.024": 0.0,
			"-0.023": 0.0,
			"-0.022": 0.0,
			"-0.021": 0.0,
			"-0.02": 0.0,
			"-0.019": 0.0,
			"-0.018": 0.0,
			"-0.017": 0.0,
			"-0.016": 0.0,
			"-0.015": 0.0,
			"-0.014": 0.409088908906,
			"-0.013": 0.890569729292,
			"-0.012": 1.19306115721,
			"-0.011": 0.72087436817,
			"-0.01": 1.03287929461,
			"-0.009": 1.02221127902,
			"-0.008": 1.25107438448,
			"-0.007": 3.00452202977,
			"-0.006": 13.7354492104,
			"-0.005": 23.0584506591,
			"-0.004": 26.7125272225,
			"-0.003": 30.7066491719,
			"-0.002": 32.6713420256,
			"-0.001": 33.3319970521,
			"0.0": 38.490078195,
			"0.001": 36.1367289684,
			"0.002": 25.3650767767,
			"0.003": 20.613043506,
			"0.004": 22.3895573694,
			"0.005": 13.0434576391,
			"0.006": 5.12489161774,
			"0.007": 2.85930616429,
			"0.008": 2.6528532036,
			"0.009": 2.50695525025,
			"0.01": 3.4939375753,
			"0.011": 1.23770550382,
			"0.012": 2.10441577188,
			"0.013": 4.86995403295,
			"0.014": 3.36387976545,
			"0.015": 0.0469011639152,
			"0.016": 0.0,
			"0.017": 0.0,
			"0.018": 0.0,
			"0.019": 0.0,
			"0.02": 0.0,
			"0.021": 0.0,
			"0.022": 0.0,
			"0.023": 0.0,
			"0.024": 0.0,
			"0.025": 0.0
		}
	}
}
