{
	 "smiles": "C1=CN(N=C1)C1=NC=CC=C1", 
	 "Tm": 311.15, 
	 "num_atms": 18, 
	 "gaussian": { 
		 "optdone": 1, 
		 "sigma_profile": "yes", 
		 "theory": "DFT", 
		 "functional": "B3LYP", 
		 "basiset": "6-31G**", 
		 "properties": { 
			 "R2extent": 2240.8427, 
			 "electric_dipole_moment_norm": 3.63772055276, 
			 "electric_quadrupole_moment_norm": 13.9221682191, 
			 "total_energy": -473.287912175, 
			 "HOMO_LUMO_gap": 0.19801, 
			 "cosmo_polarized_energy": -13.8, 
			 "cosmo_cavitation_energy": 22.4, 
			 "cosmo_dispersion_energy": -16.95, 
			 "cosmo_repulsion_energy": 1.33, 
			 "cosmo_total_nonelectrostatic_energy": 6.78, 
			 "SMD_solvation_energy": 2.54 
		},
		"coords": [
			{
				"x": 0.8659617854,
				"y": -3.0481320438,
				"z": 1.9219016043,
				"element": "C" 
			},
			{
				"x": 0.9758832677,
				"y": -1.8970424538,
				"z": 1.1809096328,
				"element": "C" 
			},
			{
				"x": -0.0029274853,
				"y": -1.0397205092,
				"z": 1.6235459024,
				"element": "N" 
			},
			{
				"x": -0.7414639546,
				"y": -1.593949333,
				"z": 2.6230931051,
				"element": "N" 
			},
			{
				"x": -0.2188992974,
				"y": -2.7980678026,
				"z": 2.8004329437,
				"element": "C" 
			},
			{
				"x": -0.282730308,
				"y": 0.2730946127,
				"z": 1.1583144804,
				"element": "C" 
			},
			{
				"x": -1.290298512,
				"y": 0.9090541284,
				"z": 1.7511000467,
				"element": "N" 
			},
			{
				"x": -1.5777518734,
				"y": 2.1457709012,
				"z": 1.3352975652,
				"element": "C" 
			},
			{
				"x": -0.8865495096,
				"y": 2.8061139103,
				"z": 0.3207913572,
				"element": "C" 
			},
			{
				"x": 0.1671242057,
				"y": 2.1263485231,
				"z": -0.2910226982,
				"element": "C" 
			},
			{
				"x": 0.4837064727,
				"y": 0.8382175823,
				"z": 0.1259628851,
				"element": "C" 
			},
			{
				"x": 1.4755067146,
				"y": -3.935826335,
				"z": 1.8423739277,
				"element": "H" 
			},
			{
				"x": 1.662188139,
				"y": -1.6348844711,
				"z": 0.3921940579,
				"element": "H" 
			},
			{
				"x": -0.6373082153,
				"y": -3.4514533141,
				"z": 3.5548055413,
				"element": "H" 
			},
			{
				"x": -2.4079003907,
				"y": 2.6321129609,
				"z": 1.8445812017,
				"element": "H" 
			},
			{
				"x": -1.1638614796,
				"y": 3.8117172428,
				"z": 0.0235782055,
				"element": "H" 
			},
			{
				"x": 0.7411242418,
				"y": 2.5911478014,
				"z": -1.0872243221,
				"element": "H" 
			},
			{
				"x": 1.299296199,
				"y": 0.3004985996,
				"z": -0.3412354369,
				"element": "H" 
			}
		],
		 "valence_orbital": [ 
			{
				"type": "occ",
				"energy": -0.28957,
				"method": "rhf"
			},
			{
				"type": "occ",
				"energy": -0.28802,
				"method": "rhf"
			},
			{
				"type": "occ",
				"energy": -0.25629,
				"method": "rhf"
			},
			{
				"type": "occ",
				"energy": -0.24892,
				"method": "rhf"
			},
			{
				"type": "occ",
				"energy": -0.23268,
				"method": "rhf"
			},
			{
				"type": "unocc",
				"energy": -0.03467,
				"method": "rhf"
			},
			{
				"type": "unocc",
				"energy": -0.02641,
				"method": "rhf"
			},
			{
				"type": "unocc",
				"energy": 0.03929,
				"method": "rhf"
			},
			{
				"type": "unocc",
				"energy": 0.07284,
				"method": "rhf"
			},
			{
				"type": "unocc",
				"energy": 0.07976,
				"method": "rhf"
			}
		],
		"cosmo_sigma_profile": { 
			"-0.025": 0.0,
			"-0.024": 0.0,
			"-0.023": 0.0,
			"-0.022": 0.0,
			"-0.021": 0.0,
			"-0.02": 0.0,
			"-0.019": 0.0,
			"-0.018": 0.0,
			"-0.017": 0.0,
			"-0.016": 0.0,
			"-0.015": 0.0,
			"-0.014": 0.0,
			"-0.013": 0.0,
			"-0.012": 0.169946341483,
			"-0.011": 1.48362078753,
			"-0.01": 2.39450120308,
			"-0.009": 1.61108613305,
			"-0.008": 3.22262417336,
			"-0.007": 11.6140106036,
			"-0.006": 13.2312558233,
			"-0.005": 12.3623268111,
			"-0.004": 11.3564214335,
			"-0.003": 10.4137627939,
			"-0.002": 9.57794856971,
			"-0.001": 10.143544066,
			"0.0": 13.319443887,
			"0.001": 14.0087508557,
			"0.002": 18.1980209991,
			"0.003": 11.2502899886,
			"0.004": 8.79627597565,
			"0.005": 5.4176169641,
			"0.006": 2.51026560561,
			"0.007": 2.55484724088,
			"0.008": 2.07404821519,
			"0.009": 1.74391826114,
			"0.01": 1.46388060961,
			"0.011": 1.7724162457,
			"0.012": 1.90741828315,
			"0.013": 1.02077375734,
			"0.014": 0.698160991964,
			"0.015": 1.81243626173,
			"0.016": 1.10074480851,
			"0.017": 1.37628441345,
			"0.018": 0.618982310844,
			"0.019": 0.882702114891,
			"0.02": 0.993011661894,
			"0.021": 0.145591370494,
			"0.022": 0.0,
			"0.023": 0.0,
			"0.024": 0.0,
			"0.025": 0.0
		}
	}
}
