{
	 "smiles": "O=CC1=C(N(C2=C1C=CC=C2)C1=CC=CC=C1)C1=CC=CC=C1", 
	 "Tm": 520.15, 
	 "num_atms": 38, 
	 "gaussian": { 
		 "optdone": 1, 
		 "sigma_profile": "yes", 
		 "theory": "DFT", 
		 "functional": "B3LYP", 
		 "basiset": "6-31G**", 
		 "properties": { 
			 "R2extent": 6860.5757, 
			 "electric_dipole_moment_norm": 6.29897286468, 
			 "electric_quadrupole_moment_norm": 16.213972351, 
			 "total_energy": -939.257573767, 
			 "HOMO_LUMO_gap": 0.15851, 
			 "cosmo_polarized_energy": -13.25, 
			 "cosmo_cavitation_energy": 41.82, 
			 "cosmo_dispersion_energy": -28.46, 
			 "cosmo_repulsion_energy": 2.15, 
			 "cosmo_total_nonelectrostatic_energy": 15.51, 
			 "SMD_solvation_energy": 7.5 
		},
		"coords": [
			{
				"x": -1.7932384805,
				"y": 2.7514124394,
				"z": -3.0651877341,
				"element": "O" 
			},
			{
				"x": -1.7758568434,
				"y": 2.2365141618,
				"z": -1.9537320897,
				"element": "C" 
			},
			{
				"x": -0.7168033502,
				"y": 1.3629027001,
				"z": -1.4734077767,
				"element": "C" 
			},
			{
				"x": -0.6573374734,
				"y": 0.7429936616,
				"z": -0.2246928178,
				"element": "C" 
			},
			{
				"x": 0.5662294685,
				"y": 0.0980215835,
				"z": -0.1011759011,
				"element": "N" 
			},
			{
				"x": 1.3002414112,
				"y": 0.284836956,
				"z": -1.2816490722,
				"element": "C" 
			},
			{
				"x": 0.5212212839,
				"y": 1.0743322043,
				"z": -2.1571698337,
				"element": "C" 
			},
			{
				"x": 1.0292262167,
				"y": 1.4149625629,
				"z": -3.4208220232,
				"element": "C" 
			},
			{
				"x": 2.2874960499,
				"y": 0.9440423142,
				"z": -3.7770805787,
				"element": "C" 
			},
			{
				"x": 3.040962915,
				"y": 0.1401030034,
				"z": -2.8991856485,
				"element": "C" 
			},
			{
				"x": 2.5602067696,
				"y": -0.2043816432,
				"z": -1.6394536344,
				"element": "C" 
			},
			{
				"x": 0.9863335568,
				"y": -0.7507370492,
				"z": 0.9695924146,
				"element": "C" 
			},
			{
				"x": 0.2393833228,
				"y": -1.8836543384,
				"z": 1.3089089672,
				"element": "C" 
			},
			{
				"x": 0.6686426281,
				"y": -2.7079182529,
				"z": 2.3484933987,
				"element": "C" 
			},
			{
				"x": 1.8473632912,
				"y": -2.4170363069,
				"z": 3.0387638694,
				"element": "C" 
			},
			{
				"x": 2.595667691,
				"y": -1.2910279951,
				"z": 2.6905288652,
				"element": "C" 
			},
			{
				"x": 2.1655635474,
				"y": -0.4525414978,
				"z": 1.661500306,
				"element": "C" 
			},
			{
				"x": -1.662719544,
				"y": 0.758485502,
				"z": 0.8542916211,
				"element": "C" 
			},
			{
				"x": -1.318819654,
				"y": 1.1219600686,
				"z": 2.1684446508,
				"element": "C" 
			},
			{
				"x": -2.2885435821,
				"y": 1.1637963957,
				"z": 3.1676469051,
				"element": "C" 
			},
			{
				"x": -3.6166113328,
				"y": 0.8438202205,
				"z": 2.8750208807,
				"element": "C" 
			},
			{
				"x": -3.9695797467,
				"y": 0.4793153884,
				"z": 1.5749933663,
				"element": "C" 
			},
			{
				"x": -3.0012697675,
				"y": 0.434159592,
				"z": 0.5721412238,
				"element": "C" 
			},
			{
				"x": -2.5960154665,
				"y": 2.4330764274,
				"z": -1.2328418619,
				"element": "H" 
			},
			{
				"x": 0.4330062946,
				"y": 2.0264451647,
				"z": -4.087404037,
				"element": "H" 
			},
			{
				"x": 2.6978303727,
				"y": 1.1943971021,
				"z": -4.7510275431,
				"element": "H" 
			},
			{
				"x": 4.0172517866,
				"y": -0.2204318017,
				"z": -3.2098949791,
				"element": "H" 
			},
			{
				"x": 3.1393568238,
				"y": -0.8274485306,
				"z": -0.9667891714,
				"element": "H" 
			},
			{
				"x": -0.668214081,
				"y": -2.1102219137,
				"z": 0.7599426568,
				"element": "H" 
			},
			{
				"x": 0.0845567761,
				"y": -3.5844931755,
				"z": 2.6122535655,
				"element": "H" 
			},
			{
				"x": 2.1811844795,
				"y": -3.0652484653,
				"z": 3.8433591484,
				"element": "H" 
			},
			{
				"x": 3.5118251683,
				"y": -1.0574903219,
				"z": 3.2247148251,
				"element": "H" 
			},
			{
				"x": 2.7319385271,
				"y": 0.4335751101,
				"z": 1.3933195854,
				"element": "H" 
			},
			{
				"x": -0.2919639351,
				"y": 1.3841343937,
				"z": 2.4009404579,
				"element": "H" 
			},
			{
				"x": -2.007590889,
				"y": 1.4531569906,
				"z": 4.1760739972,
				"element": "H" 
			},
			{
				"x": -4.3704744285,
				"y": 0.8778514633,
				"z": 3.656056493,
				"element": "H" 
			},
			{
				"x": -4.9985681348,
				"y": 0.2237874876,
				"z": 1.3397023518,
				"element": "H" 
			},
			{
				"x": -3.2734816714,
				"y": 0.1304483983,
				"z": -0.4336748476,
				"element": "H" 
			}
		],
		 "valence_orbital": [ 
			{
				"type": "occ",
				"energy": -0.26521,
				"method": "rhf"
			},
			{
				"type": "occ",
				"energy": -0.25886,
				"method": "rhf"
			},
			{
				"type": "occ",
				"energy": -0.23197,
				"method": "rhf"
			},
			{
				"type": "occ",
				"energy": -0.22193,
				"method": "rhf"
			},
			{
				"type": "occ",
				"energy": -0.20883,
				"method": "rhf"
			},
			{
				"type": "unocc",
				"energy": -0.05032,
				"method": "rhf"
			},
			{
				"type": "unocc",
				"energy": -0.02475,
				"method": "rhf"
			},
			{
				"type": "unocc",
				"energy": -0.02184,
				"method": "rhf"
			},
			{
				"type": "unocc",
				"energy": -0.01335,
				"method": "rhf"
			},
			{
				"type": "unocc",
				"energy": -0.00636,
				"method": "rhf"
			}
		],
		"cosmo_sigma_profile": { 
			"-0.025": 0.0,
			"-0.024": 0.0,
			"-0.023": 0.0,
			"-0.022": 0.0,
			"-0.021": 0.0,
			"-0.02": 0.0,
			"-0.019": 0.0,
			"-0.018": 0.0,
			"-0.017": 0.0,
			"-0.016": 0.0,
			"-0.015": 0.0,
			"-0.014": 0.0,
			"-0.013": 0.0,
			"-0.012": 0.0,
			"-0.011": 0.0,
			"-0.01": 0.0,
			"-0.009": 0.0,
			"-0.008": 0.0,
			"-0.007": 3.60946613647,
			"-0.006": 20.6063246913,
			"-0.005": 30.9762348366,
			"-0.004": 34.4831415235,
			"-0.003": 29.1540507665,
			"-0.002": 25.0357329464,
			"-0.001": 22.4859377815,
			"0.0": 22.6479917449,
			"0.001": 22.5867399923,
			"0.002": 22.4947409462,
			"0.003": 26.218873789,
			"0.004": 32.1527112189,
			"0.005": 18.8853970366,
			"0.006": 7.71431764481,
			"0.007": 2.41161044039,
			"0.008": 1.23586595918,
			"0.009": 1.893192491,
			"0.01": 2.18371127748,
			"0.011": 2.48790161016,
			"0.012": 3.09082355596,
			"0.013": 2.7398555974,
			"0.014": 1.34697023069,
			"0.015": 0.108690545702,
			"0.016": 0.0,
			"0.017": 0.0,
			"0.018": 0.0,
			"0.019": 0.0,
			"0.02": 0.0,
			"0.021": 0.0,
			"0.022": 0.0,
			"0.023": 0.0,
			"0.024": 0.0,
			"0.0": 0.0
		}
	}
}
