{
	 "smiles": "OC1=CC=C2C(=C1)C(=O)C1=C2C=CC=C1", 
	 "Tm": 478.15, 
	 "num_atms": 23, 
	 "gaussian": { 
		 "optdone": 1, 
		 "sigma_profile": "yes", 
		 "theory": "DFT", 
		 "functional": "B3LYP", 
		 "basiset": "6-31G**", 
		 "properties": { 
			 "R2extent": 3584.1028, 
			 "electric_dipole_moment_norm": 1.95281069487, 
			 "electric_quadrupole_moment_norm": 14.6282112758, 
			 "total_energy": -650.656944201, 
			 "HOMO_LUMO_gap": 0.1317, 
			 "cosmo_polarized_energy": -12.52, 
			 "cosmo_cavitation_energy": 27.9, 
			 "cosmo_dispersion_energy": -20.54, 
			 "cosmo_repulsion_energy": 1.56, 
			 "cosmo_total_nonelectrostatic_energy": 8.92, 
			 "SMD_solvation_energy": 5.17 
		},
		"coords": [
			{
				"x": 0.2393666648,
				"y": -4.3438666709,
				"z": -1.200984255,
				"element": "O" 
			},
			{
				"x": -0.0861929221,
				"y": -3.1201647468,
				"z": -0.6928734145,
				"element": "C" 
			},
			{
				"x": -1.1407634613,
				"y": -2.4315613097,
				"z": -1.3101303442,
				"element": "C" 
			},
			{
				"x": -1.5410063139,
				"y": -1.1715161104,
				"z": -0.8542971227,
				"element": "C" 
			},
			{
				"x": -0.877806202,
				"y": -0.5997768061,
				"z": 0.2281990208,
				"element": "C" 
			},
			{
				"x": 0.1782569832,
				"y": -1.3026423288,
				"z": 0.8371111219,
				"element": "C" 
			},
			{
				"x": 0.5879100433,
				"y": -2.5511196784,
				"z": 0.3990382869,
				"element": "C" 
			},
			{
				"x": 0.7236986962,
				"y": -0.4819210528,
				"z": 1.969682704,
				"element": "C" 
			},
			{
				"x": 1.6404381844,
				"y": -0.775213959,
				"z": 2.7174304291,
				"element": "O" 
			},
			{
				"x": -0.1031246457,
				"y": 0.7665291778,
				"z": 1.9756798458,
				"element": "C" 
			},
			{
				"x": -1.054988889,
				"y": 0.6904904959,
				"z": 0.9363727384,
				"element": "C" 
			},
			{
				"x": -1.9455446597,
				"y": 1.739590267,
				"z": 0.7385318241,
				"element": "C" 
			},
			{
				"x": -1.8685882528,
				"y": 2.8539868681,
				"z": 1.5888724139,
				"element": "C" 
			},
			{
				"x": -0.9232874275,
				"y": 2.9223115662,
				"z": 2.6161032926,
				"element": "C" 
			},
			{
				"x": -0.0244840894,
				"y": 1.8657153698,
				"z": 2.8172539138,
				"element": "C" 
			},
			{
				"x": 0.9743860468,
				"y": -4.7135482487,
				"z": -0.6945801644,
				"element": "H" 
			},
			{
				"x": -1.6376619302,
				"y": -2.9036214839,
				"z": -2.1513385969,
				"element": "H" 
			},
			{
				"x": -2.3606575538,
				"y": -0.6587413933,
				"z": -1.3495113737,
				"element": "H" 
			},
			{
				"x": 1.4088376608,
				"y": -3.0646306391,
				"z": 0.8951348867,
				"element": "H" 
			},
			{
				"x": -2.6884129436,
				"y": 1.7079741153,
				"z": -0.0534061311,
				"element": "H" 
			},
			{
				"x": -2.5592809103,
				"y": 3.6801171292,
				"z": 1.4440858548,
				"element": "H" 
			},
			{
				"x": -0.8874022314,
				"y": 3.7971020068,
				"z": 3.2581885674,
				"element": "H" 
			},
			{
				"x": 0.7194081532,
				"y": 1.8942074318,
				"z": 3.6081365024,
				"element": "H" 
			}
		],
		 "valence_orbital": [ 
			{
				"type": "occ",
				"energy": -0.27659,
				"method": "rhf"
			},
			{
				"type": "occ",
				"energy": -0.26673,
				"method": "rhf"
			},
			{
				"type": "occ",
				"energy": -0.26038,
				"method": "rhf"
			},
			{
				"type": "occ",
				"energy": -0.25032,
				"method": "rhf"
			},
			{
				"type": "occ",
				"energy": -0.2138,
				"method": "rhf"
			},
			{
				"type": "unocc",
				"energy": -0.0821,
				"method": "rhf"
			},
			{
				"type": "unocc",
				"energy": -0.03317,
				"method": "rhf"
			},
			{
				"type": "unocc",
				"energy": -0.003,
				"method": "rhf"
			},
			{
				"type": "unocc",
				"energy": 0.03545,
				"method": "rhf"
			},
			{
				"type": "unocc",
				"energy": 0.06418,
				"method": "rhf"
			}
		],
		"cosmo_sigma_profile": { 
			"-0.025": 0.0,
			"-0.024": 0.0,
			"-0.023": 0.0,
			"-0.022": 0.0,
			"-0.021": 0.0,
			"-0.02": 0.0,
			"-0.019": 0.0,
			"-0.018": 0.908158814772,
			"-0.017": 1.2274127362,
			"-0.016": 1.27224497305,
			"-0.015": 0.971697882941,
			"-0.014": 0.795349220742,
			"-0.013": 1.10731967957,
			"-0.012": 1.10263717686,
			"-0.011": 1.13675380095,
			"-0.01": 1.17442469971,
			"-0.009": 0.803668821758,
			"-0.008": 1.43518237176,
			"-0.007": 6.05794131677,
			"-0.006": 15.4673546781,
			"-0.005": 13.8884636009,
			"-0.004": 13.5900893593,
			"-0.003": 9.82458100477,
			"-0.002": 11.8571223754,
			"-0.001": 11.8981975609,
			"0.0": 14.6671970381,
			"0.001": 18.8251397872,
			"0.002": 23.7646407574,
			"0.003": 26.3423685302,
			"0.004": 16.7345617264,
			"0.005": 3.94245657778,
			"0.006": 3.07672161957,
			"0.007": 2.44892536354,
			"0.008": 3.5211980889,
			"0.009": 3.17743076716,
			"0.01": 4.36771155839,
			"0.011": 5.88045529756,
			"0.012": 3.35828699236,
			"0.013": 0.204898988057,
			"0.014": 0.0,
			"0.015": 0.0,
			"0.016": 0.0,
			"0.017": 0.0,
			"0.018": 0.0,
			"0.019": 0.0,
			"0.02": 0.0,
			"0.021": 0.0,
			"0.022": 0.0,
			"0.023": 0.0,
			"0.024": 0.0,
			"0.025": 0.0
		}
	}
}
