{
	 "smiles": "NCC1=CN=C(C=C1)N1CCN(CC1)C1=CC=CC=C1", 
	 "Tm": 385.15, 
	 "num_atms": 40, 
	 "gaussian": { 
		 "optdone": 1, 
		 "sigma_profile": "yes", 
		 "theory": "DFT", 
		 "functional": "B3LYP", 
		 "basiset": "6-31G**", 
		 "properties": { 
			 "R2extent": 10115.3201, 
			 "electric_dipole_moment_norm": 1.75631944703, 
			 "electric_quadrupole_moment_norm": 14.8386850893, 
			 "total_energy": -840.748717092, 
			 "HOMO_LUMO_gap": 0.17107, 
			 "cosmo_polarized_energy": -13.53, 
			 "cosmo_cavitation_energy": 41.18, 
			 "cosmo_dispersion_energy": -30.13, 
			 "cosmo_repulsion_energy": 2.3, 
			 "cosmo_total_nonelectrostatic_energy": 13.35, 
			 "SMD_solvation_energy": 2.43 
		},
		"coords": [
			{
				"x": 3.3103961577,
				"y": -4.0194436032,
				"z": -3.4870795085,
				"element": "N" 
			},
			{
				"x": 2.6480592868,
				"y": -2.7864593312,
				"z": -3.9503491824,
				"element": "C" 
			},
			{
				"x": 1.8705686063,
				"y": -2.0119282537,
				"z": -2.905804191,
				"element": "C" 
			},
			{
				"x": 0.4914334936,
				"y": -2.1665589548,
				"z": -2.7484442409,
				"element": "C" 
			},
			{
				"x": -0.2495482869,
				"y": -1.5621988289,
				"z": -1.8164313346,
				"element": "N" 
			},
			{
				"x": 0.3584198494,
				"y": -0.7249141363,
				"z": -0.9552795854,
				"element": "C" 
			},
			{
				"x": 1.751209724,
				"y": -0.471269119,
				"z": -1.0350319704,
				"element": "C" 
			},
			{
				"x": 2.487562352,
				"y": -1.1240687995,
				"z": -2.0108629486,
				"element": "C" 
			},
			{
				"x": -0.4325563546,
				"y": -0.1257775162,
				"z": 0.0026722424,
				"element": "N" 
			},
			{
				"x": 0.1352957662,
				"y": 0.7890758403,
				"z": 0.9832347106,
				"element": "C" 
			},
			{
				"x": -0.8964117206,
				"y": 1.1649942112,
				"z": 2.0498189134,
				"element": "C" 
			},
			{
				"x": -2.1022205402,
				"y": 1.7091987467,
				"z": 1.4486693051,
				"element": "N" 
			},
			{
				"x": -2.5652297113,
				"y": 1.0838502672,
				"z": 0.2094422431,
				"element": "C" 
			},
			{
				"x": -1.8847434605,
				"y": -0.2673087465,
				"z": -0.0105419069,
				"element": "C" 
			},
			{
				"x": -2.917684262,
				"y": 2.6025179591,
				"z": 2.137401504,
				"element": "C" 
			},
			{
				"x": -2.7217811186,
				"y": 2.8873134169,
				"z": 3.507068379,
				"element": "C" 
			},
			{
				"x": -3.5403237278,
				"y": 3.7997815532,
				"z": 4.1696703447,
				"element": "C" 
			},
			{
				"x": -4.5825804445,
				"y": 4.4487093598,
				"z": 3.5069123657,
				"element": "C" 
			},
			{
				"x": -4.7903716228,
				"y": 4.1668122841,
				"z": 2.1557139162,
				"element": "C" 
			},
			{
				"x": -3.9765632943,
				"y": 3.2644041106,
				"z": 1.4756353769,
				"element": "C" 
			},
			{
				"x": 2.6126205288,
				"y": -4.6311357584,
				"z": -3.0668944415,
				"element": "H" 
			},
			{
				"x": 3.9551349997,
				"y": -3.7891228962,
				"z": -2.732911163,
				"element": "H" 
			},
			{
				"x": 3.42275599,
				"y": -2.1448123585,
				"z": -4.3872163585,
				"element": "H" 
			},
			{
				"x": 1.9768426603,
				"y": -3.0631827503,
				"z": -4.7717677932,
				"element": "H" 
			},
			{
				"x": -0.0563672048,
				"y": -2.824578219,
				"z": -3.4251084915,
				"element": "H" 
			},
			{
				"x": 2.2361649341,
				"y": 0.2292990701,
				"z": -0.3666777147,
				"element": "H" 
			},
			{
				"x": 3.5564917506,
				"y": -0.9324318524,
				"z": -2.0878152359,
				"element": "H" 
			},
			{
				"x": 0.5023943905,
				"y": 1.7080431655,
				"z": 0.4993116624,
				"element": "H" 
			},
			{
				"x": 0.9922082876,
				"y": 0.3220245501,
				"z": 1.4872956686,
				"element": "H" 
			},
			{
				"x": -1.1016101119,
				"y": 0.2916055725,
				"z": 2.6920396793,
				"element": "H" 
			},
			{
				"x": -0.4394372218,
				"y": 1.9274508592,
				"z": 2.686424089,
				"element": "H" 
			},
			{
				"x": -2.3768416865,
				"y": 1.7317186016,
				"z": -0.6608385063,
				"element": "H" 
			},
			{
				"x": -3.6486116815,
				"y": 0.9194657216,
				"z": 0.2638942234,
				"element": "H" 
			},
			{
				"x": -2.2156853611,
				"y": -0.9789741663,
				"z": 0.7600979447,
				"element": "H" 
			},
			{
				"x": -2.1731979225,
				"y": -0.6818333636,
				"z": -0.9761581406,
				"element": "H" 
			},
			{
				"x": -1.9469742426,
				"y": 2.3778697379,
				"z": 4.0682923922,
				"element": "H" 
			},
			{
				"x": -3.3636691647,
				"y": 3.9921895696,
				"z": 5.2247472166,
				"element": "H" 
			},
			{
				"x": -5.2187395824,
				"y": 5.155012138,
				"z": 4.0307805915,
				"element": "H" 
			},
			{
				"x": -5.5920568661,
				"y": 4.661827194,
				"z": 1.6138717183,
				"element": "H" 
			},
			{
				"x": -4.1479531877,
				"y": 3.0932347249,
				"z": 0.4190182266,
				"element": "H" 
			}
		],
		 "valence_orbital": [ 
			{
				"type": "occ",
				"energy": -0.25503,
				"method": "rhf"
			},
			{
				"type": "occ",
				"energy": -0.24153,
				"method": "rhf"
			},
			{
				"type": "occ",
				"energy": -0.23546,
				"method": "rhf"
			},
			{
				"type": "occ",
				"energy": -0.1972,
				"method": "rhf"
			},
			{
				"type": "occ",
				"energy": -0.1879,
				"method": "rhf"
			},
			{
				"type": "unocc",
				"energy": -0.01683,
				"method": "rhf"
			},
			{
				"type": "unocc",
				"energy": 0.00662,
				"method": "rhf"
			},
			{
				"type": "unocc",
				"energy": 0.00947,
				"method": "rhf"
			},
			{
				"type": "unocc",
				"energy": 0.02193,
				"method": "rhf"
			},
			{
				"type": "unocc",
				"energy": 0.07565,
				"method": "rhf"
			}
		],
		"cosmo_sigma_profile": { 
			"-0.025": 0.0,
			"-0.024": 0.0,
			"-0.023": 0.0,
			"-0.022": 0.0,
			"-0.021": 0.0,
			"-0.02": 0.0,
			"-0.019": 0.0,
			"-0.018": 0.0,
			"-0.017": 0.0,
			"-0.016": 0.0,
			"-0.015": 0.0,
			"-0.014": 0.0,
			"-0.013": 0.0,
			"-0.012": 0.0,
			"-0.011": 0.0,
			"-0.01": 0.192102913698,
			"-0.009": 1.90354523154,
			"-0.008": 2.69416534981,
			"-0.007": 3.70535568733,
			"-0.006": 10.205748619,
			"-0.005": 25.2069853784,
			"-0.004": 45.3224521784,
			"-0.003": 41.5468279452,
			"-0.002": 28.8093171435,
			"-0.001": 20.2506768035,
			"0.0": 17.1020386534,
			"0.001": 16.8729836232,
			"0.002": 13.2321271456,
			"0.003": 16.7013978528,
			"0.004": 21.2312414241,
			"0.005": 17.0277438744,
			"0.006": 11.6903132554,
			"0.007": 10.9618729523,
			"0.008": 5.55361287767,
			"0.009": 2.46209603018,
			"0.01": 2.08174402839,
			"0.011": 1.67952138928,
			"0.012": 2.14204976468,
			"0.013": 1.39013350312,
			"0.014": 1.00020117467,
			"0.015": 0.478890883731,
			"0.016": 0.153504639021,
			"0.017": 0.880197559172,
			"0.018": 0.91545022895,
			"0.019": 0.571593885859,
			"0.02": 0.417219897175,
			"0.021": 0.0469939684532,
			"0.022": 0.0,
			"0.023": 0.0,
			"0.024": 0.0,
			"0.025": 0.0
		}
	}
}
