{
	 "smiles": "OC1=CC(C=O)=C(O)C(Br)=C1", 
	 "Tm": 419.15, 
	 "num_atms": 16, 
	 "gaussian": { 
		 "optdone": 1, 
		 "sigma_profile": "yes", 
		 "theory": "DFT", 
		 "functional": "B3LYP", 
		 "basiset": "6-31G**", 
		 "properties": { 
			 "R2extent": 4492.3742, 
			 "electric_dipole_moment_norm": 3.44475155127, 
			 "electric_quadrupole_moment_norm": 22.2540617342, 
			 "total_energy": -3066.80875831, 
			 "HOMO_LUMO_gap": 0.15742, 
			 "cosmo_polarized_energy": -16.28, 
			 "cosmo_cavitation_energy": 23.27, 
			 "cosmo_dispersion_energy": -17.77, 
			 "cosmo_repulsion_energy": 1.42, 
			 "cosmo_total_nonelectrostatic_energy": 6.91, 
			 "SMD_solvation_energy": 4.72 
		},
		"coords": [
			{
				"x": -1.852597242,
				"y": 4.2233166209,
				"z": 0.4344502688,
				"element": "O" 
			},
			{
				"x": -1.8990603539,
				"y": 2.9375649436,
				"z": -0.0254726925,
				"element": "C" 
			},
			{
				"x": -1.660836693,
				"y": 2.5784206249,
				"z": -1.3480275649,
				"element": "C" 
			},
			{
				"x": -1.7212274757,
				"y": 1.2401607136,
				"z": -1.7693495177,
				"element": "C" 
			},
			{
				"x": -1.4489504347,
				"y": 0.9763031962,
				"z": -3.2030794565,
				"element": "C" 
			},
			{
				"x": -1.4511364659,
				"y": -0.0996281459,
				"z": -3.7623204348,
				"element": "O" 
			},
			{
				"x": -2.0302658554,
				"y": 0.2219556437,
				"z": -0.8392715018,
				"element": "C" 
			},
			{
				"x": -2.0874752875,
				"y": -1.0599479912,
				"z": -1.2455036823,
				"element": "O" 
			},
			{
				"x": -2.2664336389,
				"y": 0.6148640761,
				"z": 0.4911271457,
				"element": "C" 
			},
			{
				"x": -2.687603659,
				"y": -0.7469006776,
				"z": 1.772990049,
				"element": "Br" 
			},
			{
				"x": -2.2061105786,
				"y": 1.9380884903,
				"z": 0.9048463249,
				"element": "C" 
			},
			{
				"x": -1.6329997231,
				"y": 4.8171861034,
				"z": -0.2948230819,
				"element": "H" 
			},
			{
				"x": -1.4204381176,
				"y": 3.340737619,
				"z": -2.0872610386,
				"element": "H" 
			},
			{
				"x": -1.225471708,
				"y": 1.9105336608,
				"z": -3.7705740853,
				"element": "H" 
			},
			{
				"x": -2.3102662068,
				"y": -1.6151443309,
				"z": -0.479686012,
				"element": "H" 
			},
			{
				"x": -2.3932265598,
				"y": 2.2081894531,
				"z": 1.9371552798,
				"element": "H" 
			}
		],
		 "valence_orbital": [ 
			{
				"type": "occ",
				"energy": -0.31608,
				"method": "rhf"
			},
			{
				"type": "occ",
				"energy": -0.31438,
				"method": "rhf"
			},
			{
				"type": "occ",
				"energy": -0.26769,
				"method": "rhf"
			},
			{
				"type": "occ",
				"energy": -0.25098,
				"method": "rhf"
			},
			{
				"type": "occ",
				"energy": -0.22445,
				"method": "rhf"
			},
			{
				"type": "unocc",
				"energy": -0.06703,
				"method": "rhf"
			},
			{
				"type": "unocc",
				"energy": -0.01455,
				"method": "rhf"
			},
			{
				"type": "unocc",
				"energy": -0.01034,
				"method": "rhf"
			},
			{
				"type": "unocc",
				"energy": 0.03851,
				"method": "rhf"
			},
			{
				"type": "unocc",
				"energy": 0.05408,
				"method": "rhf"
			}
		],
		"cosmo_sigma_profile": { 
			"-0.025": 0.0,
			"-0.024": 0.0,
			"-0.023": 0.0,
			"-0.022": 0.0,
			"-0.021": 0.0,
			"-0.02": 0.0,
			"-0.019": 0.0517969589769,
			"-0.018": 1.07103674779,
			"-0.017": 1.34156720814,
			"-0.016": 0.970006192052,
			"-0.015": 1.40186011578,
			"-0.014": 2.08667069284,
			"-0.013": 0.992733766642,
			"-0.012": 1.55668537533,
			"-0.011": 2.40190119448,
			"-0.01": 1.95788350135,
			"-0.009": 3.09476002669,
			"-0.008": 5.67672638114,
			"-0.007": 5.39607899229,
			"-0.006": 7.9471869939,
			"-0.005": 6.74390538676,
			"-0.004": 9.08791835487,
			"-0.003": 8.82369552899,
			"-0.002": 8.56643656323,
			"-0.001": 11.7461957483,
			"0.0": 15.606147967,
			"0.001": 22.595694052,
			"0.002": 16.8859060531,
			"0.003": 10.0243830132,
			"0.004": 6.44072807065,
			"0.005": 3.79359312643,
			"0.006": 3.39015136901,
			"0.007": 2.80633282857,
			"0.008": 3.82148098504,
			"0.009": 3.96301207658,
			"0.01": 4.44787928475,
			"0.011": 5.5560051737,
			"0.012": 4.38580453532,
			"0.013": 2.36697287391,
			"0.014": 1.50273062473,
			"0.015": 0.949178235377,
			"0.016": 0.348485772122,
			"0.017": 0.0,
			"0.018": 0.0,
			"0.019": 0.0,
			"0.02": 0.0,
			"0.021": 0.0,
			"0.022": 0.0,
			"0.023": 0.0,
			"0.024": 0.0,
			"0.025": 0.0
		}
	}
}
