{
	 "smiles": "CC(CC1=CC=CC=C1)=NNC1=CC=CC=C1", 
	 "Tm": 358.15, 
	 "num_atms": 33, 
	 "gaussian": { 
		 "optdone": 1, 
		 "sigma_profile": "yes", 
		 "theory": "DFT", 
		 "functional": "B3LYP", 
		 "basiset": "6-31G**", 
		 "properties": { 
			 "R2extent": 5703.9693, 
			 "electric_dipole_moment_norm": 1.03495461253, 
			 "electric_quadrupole_moment_norm": 8.26713777132, 
			 "total_energy": -690.709127295, 
			 "HOMO_LUMO_gap": 0.17913, 
			 "cosmo_polarized_energy": -9.49, 
			 "cosmo_cavitation_energy": 36.12, 
			 "cosmo_dispersion_energy": -24.76, 
			 "cosmo_repulsion_energy": 1.92, 
			 "cosmo_total_nonelectrostatic_energy": 13.28, 
			 "SMD_solvation_energy": 5.28 
		},
		"coords": [
			{
				"x": 2.5697568983,
				"y": 1.8916478987,
				"z": -1.4510677014,
				"element": "C" 
			},
			{
				"x": 2.6698719878,
				"y": 0.7019624709,
				"z": -0.5346936903,
				"element": "C" 
			},
			{
				"x": 3.1060904431,
				"y": -0.6249758589,
				"z": -1.1251180999,
				"element": "C" 
			},
			{
				"x": 2.0579441661,
				"y": -1.2290699331,
				"z": -2.0480448552,
				"element": "C" 
			},
			{
				"x": 2.2549339666,
				"y": -1.2934115352,
				"z": -3.4320067629,
				"element": "C" 
			},
			{
				"x": 1.2798262819,
				"y": -1.8425931457,
				"z": -4.2683693685,
				"element": "C" 
			},
			{
				"x": 0.0915209155,
				"y": -2.3352614855,
				"z": -3.7287477259,
				"element": "C" 
			},
			{
				"x": -0.1153167843,
				"y": -2.2773458537,
				"z": -2.3479163199,
				"element": "C" 
			},
			{
				"x": 0.859801093,
				"y": -1.7283209195,
				"z": -1.5156975383,
				"element": "C" 
			},
			{
				"x": 2.4207052764,
				"y": 0.6947486047,
				"z": 0.7280854436,
				"element": "N" 
			},
			{
				"x": 2.0043016022,
				"y": 1.9265665943,
				"z": 1.2897127181,
				"element": "N" 
			},
			{
				"x": 0.668485092,
				"y": 2.3750191211,
				"z": 1.1432839893,
				"element": "C" 
			},
			{
				"x": 0.2639247058,
				"y": 3.4657114921,
				"z": 1.9359814572,
				"element": "C" 
			},
			{
				"x": -1.0259137666,
				"y": 3.9746683304,
				"z": 1.8341729858,
				"element": "C" 
			},
			{
				"x": -1.9429614282,
				"y": 3.4153908865,
				"z": 0.9383423418,
				"element": "C" 
			},
			{
				"x": -1.5450566876,
				"y": 2.3326910349,
				"z": 0.1562695294,
				"element": "C" 
			},
			{
				"x": -0.2539736069,
				"y": 1.8073161467,
				"z": 0.2527740094,
				"element": "C" 
			},
			{
				"x": 2.7188076214,
				"y": 2.8139940838,
				"z": -0.884309463,
				"element": "H" 
			},
			{
				"x": 1.5820137988,
				"y": 1.948173692,
				"z": -1.9220540794,
				"element": "H" 
			},
			{
				"x": 3.3115892155,
				"y": 1.8213090934,
				"z": -2.2518895564,
				"element": "H" 
			},
			{
				"x": 4.0384349843,
				"y": -0.4776905314,
				"z": -1.6840763123,
				"element": "H" 
			},
			{
				"x": 3.3131458234,
				"y": -1.3043248111,
				"z": -0.2930184509,
				"element": "H" 
			},
			{
				"x": 3.181281607,
				"y": -0.9165050396,
				"z": -3.8590043221,
				"element": "H" 
			},
			{
				"x": 1.4513020247,
				"y": -1.8864147749,
				"z": -5.3403364812,
				"element": "H" 
			},
			{
				"x": -0.666955195,
				"y": -2.7640995902,
				"z": -4.3773149234,
				"element": "H" 
			},
			{
				"x": -1.0356418959,
				"y": -2.6635624221,
				"z": -1.9186241056,
				"element": "H" 
			},
			{
				"x": 0.6987685161,
				"y": -1.684945909,
				"z": -0.4413555243,
				"element": "H" 
			},
			{
				"x": 2.2564183438,
				"y": 1.8975177592,
				"z": 2.2713396439,
				"element": "H" 
			},
			{
				"x": 0.9761737416,
				"y": 3.9148380395,
				"z": 2.6241329923,
				"element": "H" 
			},
			{
				"x": -1.3154195737,
				"y": 4.8173515525,
				"z": 2.4561679498,
				"element": "H" 
			},
			{
				"x": -2.9479958122,
				"y": 3.817176932,
				"z": 0.8556352046,
				"element": "H" 
			},
			{
				"x": -2.246592554,
				"y": 1.8764988898,
				"z": -0.5371247279,
				"element": "H" 
			},
			{
				"x": 0.0207291988,
				"y": 0.9449391873,
				"z": -0.3423282565,
				"element": "H" 
			}
		],
		 "valence_orbital": [ 
			{
				"type": "occ",
				"energy": -0.26125,
				"method": "rhf"
			},
			{
				"type": "occ",
				"energy": -0.2511,
				"method": "rhf"
			},
			{
				"type": "occ",
				"energy": -0.24356,
				"method": "rhf"
			},
			{
				"type": "occ",
				"energy": -0.24311,
				"method": "rhf"
			},
			{
				"type": "occ",
				"energy": -0.19193,
				"method": "rhf"
			},
			{
				"type": "unocc",
				"energy": -0.0128,
				"method": "rhf"
			},
			{
				"type": "unocc",
				"energy": -0.00519,
				"method": "rhf"
			},
			{
				"type": "unocc",
				"energy": 0.00475,
				"method": "rhf"
			},
			{
				"type": "unocc",
				"energy": 0.01138,
				"method": "rhf"
			},
			{
				"type": "unocc",
				"energy": 0.02,
				"method": "rhf"
			}
		],
		"cosmo_sigma_profile": { 
			"-0.025": 0.0,
			"-0.024": 0.0,
			"-0.023": 0.0,
			"-0.022": 0.0,
			"-0.021": 0.0,
			"-0.02": 0.0,
			"-0.019": 0.0,
			"-0.018": 0.0,
			"-0.017": 0.0,
			"-0.016": 0.0,
			"-0.015": 0.0,
			"-0.014": 0.0,
			"-0.013": 0.715987528084,
			"-0.012": 1.05611629985,
			"-0.011": 0.969294216844,
			"-0.01": 1.29785712868,
			"-0.009": 1.13463460482,
			"-0.008": 0.764140489591,
			"-0.007": 1.39018021037,
			"-0.006": 7.45158700422,
			"-0.005": 23.9637489714,
			"-0.004": 26.5619282085,
			"-0.003": 28.5069541463,
			"-0.002": 26.2741478183,
			"-0.001": 26.7773842089,
			"0.0": 20.0337197189,
			"0.001": 17.4477084042,
			"0.002": 16.9710847814,
			"0.003": 15.9423707679,
			"0.004": 17.9862482173,
			"0.005": 19.1963077774,
			"0.006": 17.4459743911,
			"0.007": 7.56258963793,
			"0.008": 1.76898516595,
			"0.009": 1.67679320031,
			"0.01": 0.770350999736,
			"0.011": 0.51992730484,
			"0.012": 0.518880216844,
			"0.013": 1.04313965791,
			"0.014": 0.595099944954,
			"0.015": 0.55439187771,
			"0.016": 0.12061753987,
			"0.017": 0.0,
			"0.018": 0.0,
			"0.019": 0.0,
			"0.02": 0.0,
			"0.021": 0.0,
			"0.022": 0.0,
			"0.023": 0.0,
			"0.024": 0.0,
			"0.025": 0.0
		}
	}
}
