{
	 "smiles": "OCC1OC(OC2=CC(O)=CC(O)=C2C(=O)CCC2=CC=C(O)C=C2)C(O)C(O)C1O", 
	 "Tm": 383.15, 
	 "num_atms": 55, 
	 "gaussian": { 
		 "optdone": 1, 
		 "sigma_profile": "yes", 
		 "theory": "DFT", 
		 "functional": "B3LYP", 
		 "basiset": "6-31G**", 
		 "properties": { 
			 "R2extent": 12892.5951, 
			 "electric_dipole_moment_norm": 7.58419339548, 
			 "electric_quadrupole_moment_norm": 31.3711009716, 
			 "total_energy": -1566.8847569, 
			 "HOMO_LUMO_gap": 0.16064, 
			 "cosmo_polarized_energy": -36.46, 
			 "cosmo_cavitation_energy": 55.96, 
			 "cosmo_dispersion_energy": -37.07, 
			 "cosmo_repulsion_energy": 2.77, 
			 "cosmo_total_nonelectrostatic_energy": 21.67, 
			 "SMD_solvation_energy": 9.59 
		},
		"coords": [
			{
				"x": 3.3186172903,
				"y": -3.7605532875,
				"z": -2.7118156062,
				"element": "O" 
			},
			{
				"x": 1.9190081136,
				"y": -3.6131420651,
				"z": -2.5416772731,
				"element": "C" 
			},
			{
				"x": 1.5453838209,
				"y": -3.5622327413,
				"z": -1.0634957399,
				"element": "C" 
			},
			{
				"x": 2.2622992138,
				"y": -2.4167630687,
				"z": -0.5380953142,
				"element": "O" 
			},
			{
				"x": 1.8925340325,
				"y": -1.9305758709,
				"z": 0.7192001161,
				"element": "C" 
			},
			{
				"x": 1.1227114618,
				"y": -0.7233745782,
				"z": 0.5972617392,
				"element": "O" 
			},
			{
				"x": 1.7221345349,
				"y": 0.4851915836,
				"z": 0.7507471545,
				"element": "C" 
			},
			{
				"x": 2.9981101391,
				"y": 0.7313965074,
				"z": 0.2510648557,
				"element": "C" 
			},
			{
				"x": 3.5479391509,
				"y": 2.0076300423,
				"z": 0.396455965,
				"element": "C" 
			},
			{
				"x": 4.7992833172,
				"y": 2.1989006628,
				"z": -0.0966557119,
				"element": "O" 
			},
			{
				"x": 2.8229652008,
				"y": 3.0317946136,
				"z": 1.0119482734,
				"element": "C" 
			},
			{
				"x": 1.5319549367,
				"y": 2.7749695915,
				"z": 1.4796725368,
				"element": "C" 
			},
			{
				"x": 0.8160483408,
				"y": 3.7490562259,
				"z": 2.1113231997,
				"element": "O" 
			},
			{
				"x": 0.9455174485,
				"y": 1.4977283442,
				"z": 1.3719909456,
				"element": "C" 
			},
			{
				"x": -0.4143139876,
				"y": 1.1874502756,
				"z": 1.904142028,
				"element": "C" 
			},
			{
				"x": -0.6628373706,
				"y": 0.1145242278,
				"z": 2.4513414431,
				"element": "O" 
			},
			{
				"x": -1.5449599417,
				"y": 2.2024341406,
				"z": 1.7390268024,
				"element": "C" 
			},
			{
				"x": -2.8795868739,
				"y": 1.538861119,
				"z": 1.3255724087,
				"element": "C" 
			},
			{
				"x": -3.0180290086,
				"y": 1.2775057372,
				"z": -0.1632073068,
				"element": "C" 
			},
			{
				"x": -2.127885429,
				"y": 0.4451566343,
				"z": -0.8649554973,
				"element": "C" 
			},
			{
				"x": -2.2631855581,
				"y": 0.2201126366,
				"z": -2.2324731909,
				"element": "C" 
			},
			{
				"x": -3.3103189136,
				"y": 0.8237285011,
				"z": -2.93886606,
				"element": "C" 
			},
			{
				"x": -3.4006400749,
				"y": 0.5677884752,
				"z": -4.2797288877,
				"element": "O" 
			},
			{
				"x": -4.209145477,
				"y": 1.6514029575,
				"z": -2.2624695643,
				"element": "C" 
			},
			{
				"x": -4.0540342213,
				"y": 1.87165005,
				"z": -0.8920840826,
				"element": "C" 
			},
			{
				"x": 1.0007147953,
				"y": -2.8976987192,
				"z": 1.4987150251,
				"element": "C" 
			},
			{
				"x": 0.6824198917,
				"y": -2.4125467714,
				"z": 2.7825660882,
				"element": "O" 
			},
			{
				"x": -0.264608285,
				"y": -3.2387894245,
				"z": 0.6966617796,
				"element": "C" 
			},
			{
				"x": -0.8987028766,
				"y": -4.3769147044,
				"z": 1.2610335577,
				"element": "O" 
			},
			{
				"x": 0.0390862182,
				"y": -3.5185657591,
				"z": -0.7968797561,
				"element": "C" 
			},
			{
				"x": -0.5321735217,
				"y": -2.5364490692,
				"z": -1.654033184,
				"element": "O" 
			},
			{
				"x": 3.7226529441,
				"y": -3.0273175347,
				"z": -2.2275947775,
				"element": "H" 
			},
			{
				"x": 1.4463651739,
				"y": -4.4849560438,
				"z": -3.0054416598,
				"element": "H" 
			},
			{
				"x": 1.533787787,
				"y": -2.7125122377,
				"z": -3.035568637,
				"element": "H" 
			},
			{
				"x": 1.9428074072,
				"y": -4.4648646112,
				"z": -0.5777686481,
				"element": "H" 
			},
			{
				"x": 2.8031432036,
				"y": -1.69549951,
				"z": 1.2806117739,
				"element": "H" 
			},
			{
				"x": 3.5461213736,
				"y": -0.0331377422,
				"z": -0.2844949797,
				"element": "H" 
			},
			{
				"x": 5.0617697232,
				"y": 3.1203063753,
				"z": 0.0277988073,
				"element": "H" 
			},
			{
				"x": 3.2598276748,
				"y": 4.021114597,
				"z": 1.1340705568,
				"element": "H" 
			},
			{
				"x": 1.331312564,
				"y": 4.565753184,
				"z": 2.1286249351,
				"element": "H" 
			},
			{
				"x": -1.2661321456,
				"y": 2.9913663919,
				"z": 1.0388282434,
				"element": "H" 
			},
			{
				"x": -1.6675952724,
				"y": 2.6815008781,
				"z": 2.7191978358,
				"element": "H" 
			},
			{
				"x": -2.9802451547,
				"y": 0.6083735369,
				"z": 1.8954206894,
				"element": "H" 
			},
			{
				"x": -3.7002933852,
				"y": 2.190832169,
				"z": 1.6421677521,
				"element": "H" 
			},
			{
				"x": -1.3051285411,
				"y": -0.0424122394,
				"z": -0.3510347777,
				"element": "H" 
			},
			{
				"x": -1.5595925197,
				"y": -0.4148069396,
				"z": -2.761001851,
				"element": "H" 
			},
			{
				"x": -4.1600376623,
				"y": 1.0436748266,
				"z": -4.6399549606,
				"element": "H" 
			},
			{
				"x": -5.0266452698,
				"y": 2.1265244843,
				"z": -2.801762787,
				"element": "H" 
			},
			{
				"x": -4.7613353345,
				"y": 2.5215373191,
				"z": -0.3820922846,
				"element": "H" 
			},
			{
				"x": 1.5641099247,
				"y": -3.8270527141,
				"z": 1.6479975969,
				"element": "H" 
			},
			{
				"x": 0.2697933313,
				"y": -1.5294044172,
				"z": 2.6790218074,
				"element": "H" 
			},
			{
				"x": -0.9269670957,
				"y": -2.3618819529,
				"z": 0.7404138801,
				"element": "H" 
			},
			{
				"x": -0.9464358908,
				"y": -4.2057296467,
				"z": 2.2138292664,
				"element": "H" 
			},
			{
				"x": -0.3596057398,
				"y": -4.5189429492,
				"z": -1.0244529841,
				"element": "H" 
			},
			{
				"x": -1.4846834633,
				"y": -2.5082414901,
				"z": -1.4941015411,
				"element": "H" 
			}
		],
		 "valence_orbital": [ 
			{
				"type": "occ",
				"energy": -0.24704,
				"method": "rhf"
			},
			{
				"type": "occ",
				"energy": -0.24596,
				"method": "rhf"
			},
			{
				"type": "occ",
				"energy": -0.23686,
				"method": "rhf"
			},
			{
				"type": "occ",
				"energy": -0.23475,
				"method": "rhf"
			},
			{
				"type": "occ",
				"energy": -0.21113,
				"method": "rhf"
			},
			{
				"type": "unocc",
				"energy": -0.05049,
				"method": "rhf"
			},
			{
				"type": "unocc",
				"energy": -0.00401,
				"method": "rhf"
			},
			{
				"type": "unocc",
				"energy": 0.00205,
				"method": "rhf"
			},
			{
				"type": "unocc",
				"energy": 0.01518,
				"method": "rhf"
			},
			{
				"type": "unocc",
				"energy": 0.02612,
				"method": "rhf"
			}
		],
		"cosmo_sigma_profile": { 
			"-0.025": 0.0,
			"-0.024": 0.0,
			"-0.023": 0.0,
			"-0.022": 0.0,
			"-0.021": 0.0,
			"-0.02": 0.0,
			"-0.019": 0.860160351639,
			"-0.018": 2.16982965141,
			"-0.017": 3.82392951424,
			"-0.016": 3.23959922321,
			"-0.015": 2.97504289368,
			"-0.014": 4.07818935141,
			"-0.013": 3.66876669834,
			"-0.012": 4.92103121838,
			"-0.011": 6.01421571217,
			"-0.01": 5.35102292267,
			"-0.009": 5.37384481534,
			"-0.008": 5.19216183462,
			"-0.007": 9.27526538814,
			"-0.006": 18.0454996498,
			"-0.005": 24.3535966351,
			"-0.004": 21.162019865,
			"-0.003": 23.4060266475,
			"-0.002": 24.5706648296,
			"-0.001": 27.3304116702,
			"0.0": 27.3020646689,
			"0.001": 28.2003356058,
			"0.002": 30.8498673957,
			"0.003": 31.7033603701,
			"0.004": 22.9005257282,
			"0.005": 20.4656737915,
			"0.006": 19.907775723,
			"0.007": 11.4813316922,
			"0.008": 9.60010180853,
			"0.009": 8.32853196658,
			"0.01": 9.29022910504,
			"0.011": 8.80885472458,
			"0.012": 5.41585607481,
			"0.013": 4.66051685705,
			"0.014": 4.22733759788,
			"0.015": 0.371825372516,
			"0.016": 0.0,
			"0.017": 0.0,
			"0.018": 0.0,
			"0.019": 0.0,
			"0.02": 0.0,
			"0.021": 0.0,
			"0.022": 0.0,
			"0.023": 0.0,
			"0.024": 0.0,
			"0.025": 0.0
		}
	}
}
