{
	 "smiles": "OC(=O)C=CC1=CC(=CC=C1)C#N", 
	 "Tm": 520.15, 
	 "num_atms": 20, 
	 "gaussian": { 
		 "optdone": 1, 
		 "sigma_profile": "yes", 
		 "theory": "DFT", 
		 "functional": "B3LYP", 
		 "basiset": "6-31G**", 
		 "properties": { 
			 "R2extent": 3774.5979, 
			 "electric_dipole_moment_norm": 4.8981463698, 
			 "electric_quadrupole_moment_norm": 12.2005396754, 
			 "total_energy": -590.467952133, 
			 "HOMO_LUMO_gap": 0.17058, 
			 "cosmo_polarized_energy": -15.63, 
			 "cosmo_cavitation_energy": 27.08, 
			 "cosmo_dispersion_energy": -18.99, 
			 "cosmo_repulsion_energy": 1.5, 
			 "cosmo_total_nonelectrostatic_energy": 9.59, 
			 "SMD_solvation_energy": 7.44 
		},
		"coords": [
			{
				"x": -2.86660983,
				"y": 0.4174077136,
				"z": -3.889120438,
				"element": "O" 
			},
			{
				"x": -2.1669391729,
				"y": -0.5474317675,
				"z": -3.2399757533,
				"element": "C" 
			},
			{
				"x": -2.0203510986,
				"y": -1.666464879,
				"z": -3.692508346,
				"element": "O" 
			},
			{
				"x": -1.6333990017,
				"y": -0.0516746058,
				"z": -1.9544268652,
				"element": "C" 
			},
			{
				"x": -0.9110298914,
				"y": -0.871296277,
				"z": -1.1710951631,
				"element": "C" 
			},
			{
				"x": -0.3054140088,
				"y": -0.5610954885,
				"z": 0.1259441796,
				"element": "C" 
			},
			{
				"x": 0.4169718528,
				"y": -1.5682696383,
				"z": 0.7832528377,
				"element": "C" 
			},
			{
				"x": 1.0176552774,
				"y": -1.325968404,
				"z": 2.027072198,
				"element": "C" 
			},
			{
				"x": 0.9007116985,
				"y": -0.0638527643,
				"z": 2.6305915051,
				"element": "C" 
			},
			{
				"x": 0.1834207613,
				"y": 0.9407187962,
				"z": 1.9811494346,
				"element": "C" 
			},
			{
				"x": -0.4120588873,
				"y": 0.6990454698,
				"z": 0.7470824884,
				"element": "C" 
			},
			{
				"x": 1.7522287006,
				"y": -2.3702287067,
				"z": 2.6824192518,
				"element": "C" 
			},
			{
				"x": 2.3480921359,
				"y": -3.2146554005,
				"z": 3.2157658752,
				"element": "N" 
			},
			{
				"x": -3.1788312398,
				"y": 0.0122626012,
				"z": -4.7152391497,
				"element": "H" 
			},
			{
				"x": -1.8567753974,
				"y": 0.9785228296,
				"z": -1.6982326812,
				"element": "H" 
			},
			{
				"x": -0.7575975033,
				"y": -1.8831262529,
				"z": -1.5428684008,
				"element": "H" 
			},
			{
				"x": 0.5142569351,
				"y": -2.5480778419,
				"z": 0.3265180538,
				"element": "H" 
			},
			{
				"x": 1.3671339524,
				"y": 0.1184513595,
				"z": 3.5926384181,
				"element": "H" 
			},
			{
				"x": 0.0899030325,
				"y": 1.9182855898,
				"z": 2.4435105577,
				"element": "H" 
			},
			{
				"x": -0.9654683154,
				"y": 1.4953476666,
				"z": 0.2602219973,
				"element": "H" 
			}
		],
		 "valence_orbital": [ 
			{
				"type": "occ",
				"energy": -0.33014,
				"method": "rhf"
			},
			{
				"type": "occ",
				"energy": -0.31727,
				"method": "rhf"
			},
			{
				"type": "occ",
				"energy": -0.28327,
				"method": "rhf"
			},
			{
				"type": "occ",
				"energy": -0.27974,
				"method": "rhf"
			},
			{
				"type": "occ",
				"energy": -0.25775,
				"method": "rhf"
			},
			{
				"type": "unocc",
				"energy": -0.08717,
				"method": "rhf"
			},
			{
				"type": "unocc",
				"energy": -0.05593,
				"method": "rhf"
			},
			{
				"type": "unocc",
				"energy": -0.00663,
				"method": "rhf"
			},
			{
				"type": "unocc",
				"energy": 0.02961,
				"method": "rhf"
			},
			{
				"type": "unocc",
				"energy": 0.06082,
				"method": "rhf"
			}
		],
		"cosmo_sigma_profile": { 
			"-0.025": 0.0,
			"-0.024": 0.0,
			"-0.023": 0.0,
			"-0.022": 0.0,
			"-0.021": 0.0,
			"-0.02": 0.0,
			"-0.019": 0.0473342631011,
			"-0.018": 0.778421258651,
			"-0.017": 0.778646288543,
			"-0.016": 0.954978047435,
			"-0.015": 1.08346249449,
			"-0.014": 0.336892930783,
			"-0.013": 0.122946240148,
			"-0.012": 0.703869212954,
			"-0.011": 0.784366754427,
			"-0.01": 1.71887904317,
			"-0.009": 4.77592915187,
			"-0.008": 9.29165175418,
			"-0.007": 12.173666219,
			"-0.006": 10.8486110279,
			"-0.005": 8.30303871023,
			"-0.004": 9.19210738168,
			"-0.003": 9.92943857386,
			"-0.002": 14.1622186622,
			"-0.001": 17.2509993039,
			"0.0": 19.1076530046,
			"0.001": 24.6752360293,
			"0.002": 12.8528841405,
			"0.003": 5.89634332732,
			"0.004": 4.3523521686,
			"0.005": 5.77488616301,
			"0.006": 4.23966872671,
			"0.007": 5.83817217356,
			"0.008": 5.55463572913,
			"0.009": 6.99228590433,
			"0.01": 5.29500389349,
			"0.011": 5.69313361491,
			"0.012": 7.479586613,
			"0.013": 1.78647894117,
			"0.014": 0.0112760647873,
			"0.015": 0.0,
			"0.016": 0.0,
			"0.017": 0.0,
			"0.018": 0.0,
			"0.019": 0.0,
			"0.02": 0.0,
			"0.021": 0.0,
			"0.022": 0.0,
			"0.023": 0.0,
			"0.024": 0.0,
			"0.025": 0.0
		}
	}
}
