{
	 "smiles": "CN1C=NN=C1C1=CN=C(N)C=C1", 
	 "Tm": 523.15, 
	 "num_atms": 22, 
	 "gaussian": { 
		 "optdone": 1, 
		 "sigma_profile": "yes", 
		 "theory": "DFT", 
		 "functional": "B3LYP", 
		 "basiset": "6-31G**", 
		 "properties": { 
			 "R2extent": 2892.8116, 
			 "electric_dipole_moment_norm": 7.75233840528, 
			 "electric_quadrupole_moment_norm": 16.2928398531, 
			 "total_energy": -584.014886153, 
			 "HOMO_LUMO_gap": 0.18473, 
			 "cosmo_polarized_energy": -24.54, 
			 "cosmo_cavitation_energy": 26.36, 
			 "cosmo_dispersion_energy": -19.53, 
			 "cosmo_repulsion_energy": 1.53, 
			 "cosmo_total_nonelectrostatic_energy": 8.36, 
			 "SMD_solvation_energy": 1.67 
		},
		"coords": [
			{
				"x": 2.0051827912,
				"y": 0.1754035591,
				"z": 2.0093760898,
				"element": "C" 
			},
			{
				"x": 2.3253759035,
				"y": 0.7436735686,
				"z": 0.7091957363,
				"element": "N" 
			},
			{
				"x": 3.466821937,
				"y": 1.4311620757,
				"z": 0.3882708262,
				"element": "C" 
			},
			{
				"x": 3.4951684737,
				"y": 1.7358323627,
				"z": -0.8845149663,
				"element": "N" 
			},
			{
				"x": 2.3372824328,
				"y": 1.2442151102,
				"z": -1.4422867048,
				"element": "N" 
			},
			{
				"x": 1.6404976,
				"y": 0.651477971,
				"z": -0.4874852299,
				"element": "C" 
			},
			{
				"x": 0.3625394152,
				"y": -0.0297254747,
				"z": -0.7059052267,
				"element": "C" 
			},
			{
				"x": 0.1262992345,
				"y": -0.6446524528,
				"z": -1.9471294836,
				"element": "C" 
			},
			{
				"x": -1.0007817929,
				"y": -1.2739173776,
				"z": -2.27454116,
				"element": "N" 
			},
			{
				"x": -1.9897254051,
				"y": -1.3210947916,
				"z": -1.3643528719,
				"element": "C" 
			},
			{
				"x": -3.1508493368,
				"y": -1.9426409383,
				"z": -1.7644730187,
				"element": "N" 
			},
			{
				"x": -1.8686044171,
				"y": -0.7293885373,
				"z": -0.0898509984,
				"element": "C" 
			},
			{
				"x": -0.6871290243,
				"y": -0.0807182156,
				"z": 0.2287588292,
				"element": "C" 
			},
			{
				"x": 2.930466266,
				"y": 0.03549386,
				"z": 2.5718811931,
				"element": "H" 
			},
			{
				"x": 1.5243167071,
				"y": -0.7963836418,
				"z": 1.8818630276,
				"element": "H" 
			},
			{
				"x": 1.3417571288,
				"y": 0.8290740446,
				"z": 2.585038226,
				"element": "H" 
			},
			{
				"x": 4.228156028,
				"y": 1.6739617748,
				"z": 1.1167542224,
				"element": "H" 
			},
			{
				"x": 0.9059135141,
				"y": -0.616452855,
				"z": -2.7042661942,
				"element": "H" 
			},
			{
				"x": -3.7715651427,
				"y": -2.3031089467,
				"z": -1.0568641976,
				"element": "H" 
			},
			{
				"x": -3.0656674618,
				"y": -2.4980103049,
				"z": -2.6034626245,
				"element": "H" 
			},
			{
				"x": -2.693780179,
				"y": -0.7631156538,
				"z": 0.6150424154,
				"element": "H" 
			},
			{
				"x": -0.5959746723,
				"y": 0.4085148634,
				"z": 1.1933521107,
				"element": "H" 
			}
		],
		 "valence_orbital": [ 
			{
				"type": "occ",
				"energy": -0.28369,
				"method": "rhf"
			},
			{
				"type": "occ",
				"energy": -0.26581,
				"method": "rhf"
			},
			{
				"type": "occ",
				"energy": -0.25734,
				"method": "rhf"
			},
			{
				"type": "occ",
				"energy": -0.24143,
				"method": "rhf"
			},
			{
				"type": "occ",
				"energy": -0.20922,
				"method": "rhf"
			},
			{
				"type": "unocc",
				"energy": -0.02449,
				"method": "rhf"
			},
			{
				"type": "unocc",
				"energy": -0.01915,
				"method": "rhf"
			},
			{
				"type": "unocc",
				"energy": 0.03493,
				"method": "rhf"
			},
			{
				"type": "unocc",
				"energy": 0.06075,
				"method": "rhf"
			},
			{
				"type": "unocc",
				"energy": 0.07327,
				"method": "rhf"
			}
		],
		"cosmo_sigma_profile": { 
			"-0.025": 0.0,
			"-0.024": 0.0,
			"-0.023": 0.0,
			"-0.022": 0.0,
			"-0.021": 0.0,
			"-0.02": 0.0,
			"-0.019": 0.0,
			"-0.018": 0.0,
			"-0.017": 0.0,
			"-0.016": 0.0,
			"-0.015": 0.0,
			"-0.014": 0.574648794575,
			"-0.013": 1.99652207532,
			"-0.012": 2.58390930513,
			"-0.011": 2.71715360443,
			"-0.01": 4.42924578861,
			"-0.009": 6.40651297835,
			"-0.008": 7.40949090313,
			"-0.007": 13.0309751443,
			"-0.006": 12.5666624855,
			"-0.005": 15.587365835,
			"-0.004": 14.9217079813,
			"-0.003": 10.2294204671,
			"-0.002": 7.89946135756,
			"-0.001": 8.57156364798,
			"0.0": 10.4614551958,
			"0.001": 9.62225758698,
			"0.002": 13.0298031419,
			"0.003": 12.9712385218,
			"0.004": 6.25949013302,
			"0.005": 5.15460953824,
			"0.006": 4.47065782514,
			"0.007": 5.12379185787,
			"0.008": 4.03468822608,
			"0.009": 3.19143478768,
			"0.01": 3.91342387099,
			"0.011": 4.33482856929,
			"0.012": 3.68324891372,
			"0.013": 2.3899104172,
			"0.014": 4.91431690143,
			"0.015": 4.12621037601,
			"0.016": 2.27129897625,
			"0.017": 1.80732348612,
			"0.018": 0.144122356237,
			"0.019": 0.0,
			"0.02": 0.0,
			"0.021": 0.0,
			"0.022": 0.0,
			"0.023": 0.0,
			"0.024": 0.0,
			"0.025": 0.0
		}
	}
}
