{
	 "smiles": "S=C(NNC1=CC=CC=C1)N=NC1=CC=CC=C1", 
	 "Tm": 441.15, 
	 "num_atms": 30, 
	 "gaussian": { 
		 "optdone": 1, 
		 "sigma_profile": "yes", 
		 "theory": "DFT", 
		 "functional": "B3LYP", 
		 "basiset": "6-31G**", 
		 "properties": { 
			 "R2extent": 7696.4485, 
			 "electric_dipole_moment_norm": 4.67587208657, 
			 "electric_quadrupole_moment_norm": 21.3214190668, 
			 "total_energy": -1119.73257276, 
			 "HOMO_LUMO_gap": 0.0979, 
			 "cosmo_polarized_energy": -14.66, 
			 "cosmo_cavitation_energy": 37.45, 
			 "cosmo_dispersion_energy": -27.23, 
			 "cosmo_repulsion_energy": 2.08, 
			 "cosmo_total_nonelectrostatic_energy": 12.3, 
			 "SMD_solvation_energy": 4.41 
		},
		"coords": [
			{
				"x": -1.411930838,
				"y": 1.7011627215,
				"z": 1.6949397543,
				"element": "S" 
			},
			{
				"x": -0.8570749835,
				"y": 0.5257887974,
				"z": 0.6559163533,
				"element": "C" 
			},
			{
				"x": 0.0122362114,
				"y": -0.4560096353,
				"z": 0.9684422452,
				"element": "N" 
			},
			{
				"x": 0.4006581939,
				"y": -0.7026356047,
				"z": 2.2759821073,
				"element": "N" 
			},
			{
				"x": 1.7861655671,
				"y": -0.6536585032,
				"z": 2.5710067828,
				"element": "C" 
			},
			{
				"x": 2.165139547,
				"y": -0.7189279533,
				"z": 3.9208376716,
				"element": "C" 
			},
			{
				"x": 3.512966001,
				"y": -0.7309701514,
				"z": 4.2661625646,
				"element": "C" 
			},
			{
				"x": 4.5008626574,
				"y": -0.6913708879,
				"z": 3.2777593656,
				"element": "C" 
			},
			{
				"x": 4.1195191496,
				"y": -0.6312865914,
				"z": 1.93778173,
				"element": "C" 
			},
			{
				"x": 2.7709919002,
				"y": -0.6088778466,
				"z": 1.5773901074,
				"element": "C" 
			},
			{
				"x": -1.3285370433,
				"y": 0.5102299977,
				"z": -0.6898329357,
				"element": "N" 
			},
			{
				"x": -1.3110950972,
				"y": -0.6363299197,
				"z": -1.2176635759,
				"element": "N" 
			},
			{
				"x": -1.7508868484,
				"y": -0.6937564626,
				"z": -2.5596145087,
				"element": "C" 
			},
			{
				"x": -1.7136471304,
				"y": -1.963883088,
				"z": -3.1523633562,
				"element": "C" 
			},
			{
				"x": -2.1196129715,
				"y": -2.1271932324,
				"z": -4.4750729229,
				"element": "C" 
			},
			{
				"x": -2.5680384958,
				"y": -1.0232693737,
				"z": -5.2030749747,
				"element": "C" 
			},
			{
				"x": -2.6109016982,
				"y": 0.245496186,
				"z": -4.6085223585,
				"element": "C" 
			},
			{
				"x": -2.2054962474,
				"y": 0.418377379,
				"z": -3.2912999771,
				"element": "C" 
			},
			{
				"x": 0.0112461116,
				"y": -1.2528590208,
				"z": 0.3335209615,
				"element": "H" 
			},
			{
				"x": -0.1786104187,
				"y": -0.1359373076,
				"z": 2.8966509646,
				"element": "H" 
			},
			{
				"x": 1.3992827489,
				"y": -0.7645770412,
				"z": 4.6905832982,
				"element": "H" 
			},
			{
				"x": 3.7924956538,
				"y": -0.7744062165,
				"z": 5.3149506999,
				"element": "H" 
			},
			{
				"x": 5.5513951688,
				"y": -0.7048104274,
				"z": 3.5505490184,
				"element": "H" 
			},
			{
				"x": 4.8753289548,
				"y": -0.591483007,
				"z": 1.1583768154,
				"element": "H" 
			},
			{
				"x": 2.4856028978,
				"y": -0.536946079,
				"z": 0.5336784423,
				"element": "H" 
			},
			{
				"x": -1.3636415952,
				"y": -2.8021605255,
				"z": -2.5584071009,
				"element": "H" 
			},
			{
				"x": -2.0892894421,
				"y": -3.1099009562,
				"z": -4.9353372128,
				"element": "H" 
			},
			{
				"x": -2.8878558551,
				"y": -1.1474436065,
				"z": -6.2335734509,
				"element": "H" 
			},
			{
				"x": -2.9642984918,
				"y": 1.0985767559,
				"z": -5.1800306709,
				"element": "H" 
			},
			{
				"x": -2.2335736068,
				"y": 1.3887616004,
				"z": -2.8090358373,
				"element": "H" 
			}
		],
		 "valence_orbital": [ 
			{
				"type": "occ",
				"energy": -0.25939,
				"method": "rhf"
			},
			{
				"type": "occ",
				"energy": -0.25224,
				"method": "rhf"
			},
			{
				"type": "occ",
				"energy": -0.24499,
				"method": "rhf"
			},
			{
				"type": "occ",
				"energy": -0.22511,
				"method": "rhf"
			},
			{
				"type": "occ",
				"energy": -0.20717,
				"method": "rhf"
			},
			{
				"type": "unocc",
				"energy": -0.10927,
				"method": "rhf"
			},
			{
				"type": "unocc",
				"energy": -0.02205,
				"method": "rhf"
			},
			{
				"type": "unocc",
				"energy": -0.0154,
				"method": "rhf"
			},
			{
				"type": "unocc",
				"energy": -0.0033,
				"method": "rhf"
			},
			{
				"type": "unocc",
				"energy": 0.01015,
				"method": "rhf"
			}
		],
		"cosmo_sigma_profile": { 
			"-0.025": 0.0,
			"-0.024": 0.0,
			"-0.023": 0.0,
			"-0.022": 0.0,
			"-0.021": 0.0,
			"-0.02": 0.0,
			"-0.019": 0.0,
			"-0.018": 0.0,
			"-0.017": 0.0,
			"-0.016": 0.0,
			"-0.015": 0.116068384874,
			"-0.014": 0.520576165026,
			"-0.013": 0.540659284765,
			"-0.012": 0.769451749179,
			"-0.011": 1.87506335433,
			"-0.01": 2.22268010183,
			"-0.009": 1.50060244816,
			"-0.008": 2.3885399832,
			"-0.007": 9.20840288828,
			"-0.006": 18.1975613613,
			"-0.005": 23.44729972,
			"-0.004": 22.1376144766,
			"-0.003": 19.7999529478,
			"-0.002": 17.3929040821,
			"-0.001": 20.3109654208,
			"0.0": 20.4040058053,
			"0.001": 23.2223823737,
			"0.002": 25.9034839906,
			"0.003": 23.7919249002,
			"0.004": 14.9729105185,
			"0.005": 14.7304306295,
			"0.006": 14.3291715011,
			"0.007": 8.59952131329,
			"0.008": 6.67242335084,
			"0.009": 3.90226423195,
			"0.01": 2.44506172908,
			"0.011": 2.43793174176,
			"0.012": 1.92998351776,
			"0.013": 0.285979787992,
			"0.014": 0.0,
			"0.015": 0.0,
			"0.016": 0.0,
			"0.017": 0.0,
			"0.018": 0.0,
			"0.019": 0.0,
			"0.02": 0.0,
			"0.021": 0.0,
			"0.022": 0.0,
			"0.023": 0.0,
			"0.024": 0.0,
			"0.025": 0.0
		}
	}
}
