{
	 "smiles": "CC1(NC(=O)NC1=O)C1=CC=C(C=C1)C(O)=O", 
	 "Tm": 553.15, 
	 "num_atms": 27, 
	 "gaussian": { 
		 "optdone": 1, 
		 "sigma_profile": "yes", 
		 "theory": "DFT", 
		 "functional": "B3LYP", 
		 "basiset": "6-31G**", 
		 "properties": { 
			 "R2extent": 4955.482, 
			 "electric_dipole_moment_norm": 2.58724330707, 
			 "electric_quadrupole_moment_norm": 9.62137776724, 
			 "total_energy": -835.658878334, 
			 "HOMO_LUMO_gap": 0.20402, 
			 "cosmo_polarized_energy": -21.7, 
			 "cosmo_cavitation_energy": 32.07, 
			 "cosmo_dispersion_energy": -22.89, 
			 "cosmo_repulsion_energy": 1.78, 
			 "cosmo_total_nonelectrostatic_energy": 10.95, 
			 "SMD_solvation_energy": 8.44 
		},
		"coords": [
			{
				"x": 1.8097847777,
				"y": -1.8923943693,
				"z": -0.7697420843,
				"element": "C" 
			},
			{
				"x": 1.3501026873,
				"y": -0.4510763606,
				"z": -1.0764470677,
				"element": "C" 
			},
			{
				"x": 0.9704277685,
				"y": -0.2969032793,
				"z": -2.4791846793,
				"element": "N" 
			},
			{
				"x": 1.8313168307,
				"y": 0.4928726957,
				"z": -3.2047119878,
				"element": "C" 
			},
			{
				"x": 1.8333389282,
				"y": 0.7108947525,
				"z": -4.3966655576,
				"element": "O" 
			},
			{
				"x": 2.7423881367,
				"y": 1.0151882423,
				"z": -2.2626667015,
				"element": "N" 
			},
			{
				"x": 2.5773939367,
				"y": 0.5018829306,
				"z": -0.997163871,
				"element": "C" 
			},
			{
				"x": 3.2601280054,
				"y": 0.7223337656,
				"z": -0.0198455324,
				"element": "O" 
			},
			{
				"x": 0.2550219551,
				"y": 0.0025105467,
				"z": -0.1035016013,
				"element": "C" 
			},
			{
				"x": 0.5240749573,
				"y": 0.051239597,
				"z": 1.2735566291,
				"element": "C" 
			},
			{
				"x": -0.4651874947,
				"y": 0.4324280163,
				"z": 2.1748142922,
				"element": "C" 
			},
			{
				"x": -1.7462265929,
				"y": 0.766827888,
				"z": 1.7145294519,
				"element": "C" 
			},
			{
				"x": -2.0153383647,
				"y": 0.729061441,
				"z": 0.3420142195,
				"element": "C" 
			},
			{
				"x": -1.0215852188,
				"y": 0.3551116511,
				"z": -0.5585058015,
				"element": "C" 
			},
			{
				"x": -2.8434086248,
				"y": 1.172452719,
				"z": 2.6321883471,
				"element": "C" 
			},
			{
				"x": -2.4705082683,
				"y": 1.1781401648,
				"z": 3.9365631169,
				"element": "O" 
			},
			{
				"x": -3.9675345212,
				"y": 1.472368523,
				"z": 2.2808930838,
				"element": "O" 
			},
			{
				"x": 2.586239541,
				"y": -2.2035842906,
				"z": -1.4749057695,
				"element": "H" 
			},
			{
				"x": 0.9625881314,
				"y": -2.5804073732,
				"z": -0.8487757537,
				"element": "H" 
			},
			{
				"x": 2.2134331483,
				"y": -1.956653198,
				"z": 0.2423357754,
				"element": "H" 
			},
			{
				"x": 0.3903538226,
				"y": -0.9600770489,
				"z": -2.9710012945,
				"element": "H" 
			},
			{
				"x": 3.4832009605,
				"y": 1.6499106433,
				"z": -2.5249230433,
				"element": "H" 
			},
			{
				"x": 1.5200987975,
				"y": -0.1773594563,
				"z": 1.6352136846,
				"element": "H" 
			},
			{
				"x": -0.2477475087,
				"y": 0.4745052623,
				"z": 3.2359299518,
				"element": "H" 
			},
			{
				"x": -3.0078762081,
				"y": 0.999679768,
				"z": -0.0019831436,
				"element": "H" 
			},
			{
				"x": -1.2352238192,
				"y": 0.348961718,
				"z": -1.6213737489,
				"element": "H" 
			},
			{
				"x": -3.2566557635,
				"y": 1.4568850512,
				"z": 4.4341590856,
				"element": "H" 
			}
		],
		 "valence_orbital": [ 
			{
				"type": "occ",
				"energy": -0.28171,
				"method": "rhf"
			},
			{
				"type": "occ",
				"energy": -0.2802,
				"method": "rhf"
			},
			{
				"type": "occ",
				"energy": -0.27461,
				"method": "rhf"
			},
			{
				"type": "occ",
				"energy": -0.2663,
				"method": "rhf"
			},
			{
				"type": "occ",
				"energy": -0.26099,
				"method": "rhf"
			},
			{
				"type": "unocc",
				"energy": -0.05697,
				"method": "rhf"
			},
			{
				"type": "unocc",
				"energy": -0.01817,
				"method": "rhf"
			},
			{
				"type": "unocc",
				"energy": -0.0156,
				"method": "rhf"
			},
			{
				"type": "unocc",
				"energy": 0.04389,
				"method": "rhf"
			},
			{
				"type": "unocc",
				"energy": 0.0557,
				"method": "rhf"
			}
		],
		"cosmo_sigma_profile": { 
			"-0.025": 0.0,
			"-0.024": 0.0,
			"-0.023": 0.0,
			"-0.022": 0.0,
			"-0.021": 0.0,
			"-0.02": 0.0,
			"-0.019": 0.00930018428825,
			"-0.018": 0.550403790773,
			"-0.017": 1.95599381954,
			"-0.016": 2.16328594343,
			"-0.015": 2.9129508772,
			"-0.014": 2.53662794844,
			"-0.013": 2.75009173767,
			"-0.012": 3.22322071092,
			"-0.011": 3.0982635629,
			"-0.01": 2.41379303853,
			"-0.009": 2.47596962693,
			"-0.008": 3.33766671436,
			"-0.007": 5.19574513015,
			"-0.006": 11.497042853,
			"-0.005": 15.0386293879,
			"-0.004": 14.0111159417,
			"-0.003": 16.8251049375,
			"-0.002": 21.4137028637,
			"-0.001": 16.0495180754,
			"0.0": 15.207640773,
			"0.001": 13.6422954646,
			"0.002": 14.7724260679,
			"0.003": 17.5739550448,
			"0.004": 7.80174272049,
			"0.005": 6.0034985401,
			"0.006": 4.96612947704,
			"0.007": 5.70342778739,
			"0.008": 4.8895344687,
			"0.009": 4.89721766147,
			"0.01": 5.02221345826,
			"0.011": 10.2376652607,
			"0.012": 12.1044328894,
			"0.013": 4.70232575181,
			"0.014": 0.234206806837,
			"0.015": 0.0,
			"0.016": 0.0,
			"0.017": 0.0,
			"0.018": 0.0,
			"0.019": 0.0,
			"0.02": 0.0,
			"0.021": 0.0,
			"0.022": 0.0,
			"0.023": 0.0,
			"0.024": 0.0,
			"0.025": 0.0
		}
	}
}
