{
	 "smiles": "CC(C)S(O)(=O)=O", 
	 "Tm": 236.15, 
	 "num_atms": 15, 
	 "gaussian": { 
		 "optdone": 1, 
		 "sigma_profile": "yes", 
		 "theory": "DFT", 
		 "functional": "B3LYP", 
		 "basiset": "6-31G**", 
		 "properties": { 
			 "R2extent": 1031.5038, 
			 "electric_dipole_moment_norm": 3.67026549448, 
			 "electric_quadrupole_moment_norm": 9.54236803891, 
			 "total_energy": -742.946173376, 
			 "HOMO_LUMO_gap": 0.33544, 
			 "cosmo_polarized_energy": -13.04, 
			 "cosmo_cavitation_energy": 19.33, 
			 "cosmo_dispersion_energy": -14.82, 
			 "cosmo_repulsion_energy": 1.2, 
			 "cosmo_total_nonelectrostatic_energy": 5.7, 
			 "SMD_solvation_energy": 2.65 
		},
		"coords": [
			{
				"x": -1.3111369208,
				"y": 0.2047496405,
				"z": 0.9346471052,
				"element": "C" 
			},
			{
				"x": -0.7836093675,
				"y": 0.3805885254,
				"z": -0.4888339178,
				"element": "C" 
			},
			{
				"x": -1.5427756958,
				"y": 1.438122791,
				"z": -1.2971633691,
				"element": "C" 
			},
			{
				"x": 0.9814875282,
				"y": 0.84533673,
				"z": -0.4681655788,
				"element": "S" 
			},
			{
				"x": 1.6186279748,
				"y": -0.5150416345,
				"z": 0.2184681981,
				"element": "O" 
			},
			{
				"x": 1.4639836924,
				"y": 0.9274256134,
				"z": -1.8414759142,
				"element": "O" 
			},
			{
				"x": 1.2175013383,
				"y": 1.9390649498,
				"z": 0.4800286122,
				"element": "O" 
			},
			{
				"x": -1.240275843,
				"y": 1.1422438467,
				"z": 1.492526834,
				"element": "H" 
			},
			{
				"x": -2.3632031479,
				"y": -0.0930315594,
				"z": 0.8912024567,
				"element": "H" 
			},
			{
				"x": -0.7593205091,
				"y": -0.5686995928,
				"z": 1.4734913903,
				"element": "H" 
			},
			{
				"x": -0.7831006817,
				"y": -0.5752649972,
				"z": -1.0236226055,
				"element": "H" 
			},
			{
				"x": -1.493602503,
				"y": 2.4132558019,
				"z": -0.8034698138,
				"element": "H" 
			},
			{
				"x": -1.1373535408,
				"y": 1.5344474426,
				"z": -2.3063375343,
				"element": "H" 
			},
			{
				"x": -2.5939038724,
				"y": 1.1438706429,
				"z": -1.3692319654,
				"element": "H" 
			},
			{
				"x": 2.1548815483,
				"y": -0.2104682004,
				"z": 0.9699361026,
				"element": "H" 
			}
		],
		 "valence_orbital": [ 
			{
				"type": "occ",
				"energy": -0.36855,
				"method": "rhf"
			},
			{
				"type": "occ",
				"energy": -0.34323,
				"method": "rhf"
			},
			{
				"type": "occ",
				"energy": -0.32145,
				"method": "rhf"
			},
			{
				"type": "occ",
				"energy": -0.31256,
				"method": "rhf"
			},
			{
				"type": "occ",
				"energy": -0.30254,
				"method": "rhf"
			},
			{
				"type": "unocc",
				"energy": 0.0329,
				"method": "rhf"
			},
			{
				"type": "unocc",
				"energy": 0.05331,
				"method": "rhf"
			},
			{
				"type": "unocc",
				"energy": 0.07924,
				"method": "rhf"
			},
			{
				"type": "unocc",
				"energy": 0.08801,
				"method": "rhf"
			},
			{
				"type": "unocc",
				"energy": 0.1077,
				"method": "rhf"
			}
		],
		"cosmo_sigma_profile": { 
			"-0.025": 0.0,
			"-0.024": 0.0,
			"-0.023": 0.0,
			"-0.022": 0.0,
			"-0.021": 0.0,
			"-0.02": 0.204255277617,
			"-0.019": 0.930892727675,
			"-0.018": 0.645112906412,
			"-0.017": 1.01620725254,
			"-0.016": 0.792002818404,
			"-0.015": 0.834469612629,
			"-0.014": 0.754313930294,
			"-0.013": 0.766177229702,
			"-0.012": 0.575035512928,
			"-0.011": 0.561371130051,
			"-0.01": 0.769318497366,
			"-0.009": 0.958019004362,
			"-0.008": 3.12072615168,
			"-0.007": 2.57138516445,
			"-0.006": 5.59360249288,
			"-0.005": 10.2881420652,
			"-0.004": 13.9597595645,
			"-0.003": 13.6866912023,
			"-0.002": 14.3318279601,
			"-0.001": 16.8869139187,
			"0.0": 7.40817767174,
			"0.001": 3.79189621776,
			"0.002": 3.27754124182,
			"0.003": 2.99929497184,
			"0.004": 3.82257633262,
			"0.005": 2.20325826724,
			"0.006": 2.56181832939,
			"0.007": 5.31221294409,
			"0.008": 4.60903670149,
			"0.009": 6.03783662906,
			"0.01": 11.6104998592,
			"0.011": 7.61616387386,
			"0.012": 0.536023183058,
			"0.013": 0.0,
			"0.014": 0.0,
			"0.015": 0.0,
			"0.016": 0.0,
			"0.017": 0.0,
			"0.018": 0.0,
			"0.019": 0.0,
			"0.02": 0.0,
			"0.021": 0.0,
			"0.022": 0.0,
			"0.023": 0.0,
			"0.024": 0.0,
			"0.025": 0.0
		}
	}
}
