{
	 "smiles": "OC(=O)C1=CC2=C(O1)C(Br)=CC(Cl)=C2", 
	 "Tm": 539.15, 
	 "num_atms": 18, 
	 "gaussian": { 
		 "optdone": 1, 
		 "sigma_profile": "yes", 
		 "theory": "DFT", 
		 "functional": "B3LYP", 
		 "basiset": "6-31G**", 
		 "properties": { 
			 "R2extent": 4915.9644, 
			 "electric_dipole_moment_norm": 2.86549686616, 
			 "electric_quadrupole_moment_norm": 18.8452703493, 
			 "total_energy": -3602.63053598, 
			 "HOMO_LUMO_gap": 0.17444, 
			 "cosmo_polarized_energy": -11.8, 
			 "cosmo_cavitation_energy": 28.13, 
			 "cosmo_dispersion_energy": -21.14, 
			 "cosmo_repulsion_energy": 1.67, 
			 "cosmo_total_nonelectrostatic_energy": 8.65, 
			 "SMD_solvation_energy": 4.93 
		},
		"coords": [
			{
				"x": -4.2568051835,
				"y": -0.251735102,
				"z": -1.1471037575,
				"element": "O" 
			},
			{
				"x": -3.3616922249,
				"y": 0.4171737612,
				"z": -1.9061112549,
				"element": "C" 
			},
			{
				"x": -3.637745992,
				"y": 0.8521385115,
				"z": -2.9987694941,
				"element": "O" 
			},
			{
				"x": -2.0181679519,
				"y": 0.5821926269,
				"z": -1.3105606112,
				"element": "C" 
			},
			{
				"x": -0.9011059693,
				"y": 1.1909278159,
				"z": -1.790437401,
				"element": "C" 
			},
			{
				"x": 0.1076443878,
				"y": 1.0405427746,
				"z": -0.7758837383,
				"element": "C" 
			},
			{
				"x": -0.5155564826,
				"y": 0.32593649,
				"z": 0.2674224944,
				"element": "C" 
			},
			{
				"x": -1.8095096791,
				"y": 0.0442612987,
				"z": -0.0524571693,
				"element": "O" 
			},
			{
				"x": 0.1484292293,
				"y": -0.0173098364,
				"z": 1.4404095926,
				"element": "C" 
			},
			{
				"x": -0.7332948247,
				"y": -0.9793122941,
				"z": 2.8146406139,
				"element": "Br" 
			},
			{
				"x": 1.4777912707,
				"y": 0.3701545399,
				"z": 1.5664172052,
				"element": "C" 
			},
			{
				"x": 2.1044612128,
				"y": 1.0842207966,
				"z": 0.5267049359,
				"element": "C" 
			},
			{
				"x": 3.7837584043,
				"y": 1.5469151881,
				"z": 0.7412026619,
				"element": "Cl" 
			},
			{
				"x": 1.4497348425,
				"y": 1.4310751711,
				"z": -0.6474451435,
				"element": "C" 
			},
			{
				"x": -3.8501748568,
				"y": -0.5204483186,
				"z": -0.3076121285,
				"element": "H" 
			},
			{
				"x": -0.8205692095,
				"y": 1.6815337295,
				"z": -2.7489318696,
				"element": "H" 
			},
			{
				"x": 2.0323952066,
				"y": 0.1237339283,
				"z": 2.4629671702,
				"element": "H" 
			},
			{
				"x": 1.9605078205,
				"y": 1.9810989189,
				"z": -1.4287521062,
				"element": "H" 
			}
		],
		 "valence_orbital": [ 
			{
				"type": "occ",
				"energy": -0.31234,
				"method": "rhf"
			},
			{
				"type": "occ",
				"energy": -0.30208,
				"method": "rhf"
			},
			{
				"type": "occ",
				"energy": -0.29184,
				"method": "rhf"
			},
			{
				"type": "occ",
				"energy": -0.26344,
				"method": "rhf"
			},
			{
				"type": "occ",
				"energy": -0.25647,
				"method": "rhf"
			},
			{
				"type": "unocc",
				"energy": -0.08203,
				"method": "rhf"
			},
			{
				"type": "unocc",
				"energy": -0.03137,
				"method": "rhf"
			},
			{
				"type": "unocc",
				"energy": -0.02472,
				"method": "rhf"
			},
			{
				"type": "unocc",
				"energy": -0.01106,
				"method": "rhf"
			},
			{
				"type": "unocc",
				"energy": 0.02335,
				"method": "rhf"
			}
		],
		"cosmo_sigma_profile": { 
			"-0.025": 0.0,
			"-0.024": 0.0,
			"-0.023": 0.0,
			"-0.022": 0.0,
			"-0.021": 0.0,
			"-0.02": 0.0,
			"-0.019": 0.0,
			"-0.018": 0.0,
			"-0.017": 0.613485283972,
			"-0.016": 0.698973518532,
			"-0.015": 0.445932590791,
			"-0.014": 0.609454485405,
			"-0.013": 0.814149235767,
			"-0.012": 1.21358644683,
			"-0.011": 0.75495780661,
			"-0.01": 1.8209221733,
			"-0.009": 4.66709474985,
			"-0.008": 6.8094143484,
			"-0.007": 5.88065028778,
			"-0.006": 7.35182669511,
			"-0.005": 8.29035050061,
			"-0.004": 8.61793725621,
			"-0.003": 11.9408630767,
			"-0.002": 18.1866719143,
			"-0.001": 22.048425095,
			"0.0": 27.634928733,
			"0.001": 23.2395683264,
			"0.002": 16.2742120717,
			"0.003": 20.355472727,
			"0.004": 15.5721487199,
			"0.005": 3.45952118517,
			"0.006": 2.11045842387,
			"0.007": 3.27473645708,
			"0.008": 2.75713050614,
			"0.009": 4.52097034012,
			"0.01": 4.64288083196,
			"0.011": 5.58337239427,
			"0.012": 2.73835207616,
			"0.013": 0.270165288062,
			"0.014": 0.0,
			"0.015": 0.0,
			"0.016": 0.0,
			"0.017": 0.0,
			"0.018": 0.0,
			"0.019": 0.0,
			"0.02": 0.0,
			"0.021": 0.0,
			"0.022": 0.0,
			"0.023": 0.0,
			"0.024": 0.0,
			"0.025": 0.0
		}
	}
}
