{
	 "smiles": "CC(=O)N(C1CC1)C1=NC(C=O)=CS1", 
	 "Tm": 386.15, 
	 "num_atms": 24, 
	 "gaussian": { 
		 "optdone": 1, 
		 "sigma_profile": "yes", 
		 "theory": "DFT", 
		 "functional": "B3LYP", 
		 "basiset": "6-31G**", 
		 "properties": { 
			 "R2extent": 4829.9323, 
			 "electric_dipole_moment_norm": 2.36774790888, 
			 "electric_quadrupole_moment_norm": 25.307701268, 
			 "total_energy": -1007.07613858, 
			 "HOMO_LUMO_gap": 0.16839, 
			 "cosmo_polarized_energy": -12.29, 
			 "cosmo_cavitation_energy": 29.9, 
			 "cosmo_dispersion_energy": -21.39, 
			 "cosmo_repulsion_energy": 1.65, 
			 "cosmo_total_nonelectrostatic_energy": 10.16, 
			 "SMD_solvation_energy": 5.6 
		},
		"coords": [
			{
				"x": 0.7257343588,
				"y": 0.9868261626,
				"z": 0.5272172831,
				"element": "C" 
			},
			{
				"x": 0.8813404443,
				"y": -0.0929799948,
				"z": 1.5731325508,
				"element": "C" 
			},
			{
				"x": 1.0710338547,
				"y": 0.1633743468,
				"z": 2.7468511121,
				"element": "O" 
			},
			{
				"x": 0.8100654564,
				"y": -1.4584256669,
				"z": 1.1744975973,
				"element": "N" 
			},
			{
				"x": 1.0611564792,
				"y": -2.440468646,
				"z": 2.2150162348,
				"element": "C" 
			},
			{
				"x": 0.1834380919,
				"y": -3.6694761926,
				"z": 2.2965102057,
				"element": "C" 
			},
			{
				"x": 0.066115625,
				"y": -2.5853485654,
				"z": 3.3313886765,
				"element": "C" 
			},
			{
				"x": 0.7777002704,
				"y": -1.888727379,
				"z": -0.1492521226,
				"element": "C" 
			},
			{
				"x": 0.1873969036,
				"y": -1.2859501636,
				"z": -1.1372256887,
				"element": "N" 
			},
			{
				"x": 0.3961019605,
				"y": -1.9541796907,
				"z": -2.3274849127,
				"element": "C" 
			},
			{
				"x": -0.2043708681,
				"y": -1.4324010319,
				"z": -3.5711315307,
				"element": "C" 
			},
			{
				"x": -0.0859681782,
				"y": -1.9652947382,
				"z": -4.6582405905,
				"element": "O" 
			},
			{
				"x": 1.142883272,
				"y": -3.1003735957,
				"z": -2.251851388,
				"element": "C" 
			},
			{
				"x": 1.6430884569,
				"y": -3.3779909182,
				"z": -0.6256617446,
				"element": "S" 
			},
			{
				"x": 0.8697842359,
				"y": 1.9403278885,
				"z": 1.0351497954,
				"element": "H" 
			},
			{
				"x": 1.4577345766,
				"y": 0.8770984861,
				"z": -0.2773963691,
				"element": "H" 
			},
			{
				"x": -0.2591885075,
				"y": 0.9468640757,
				"z": 0.0587536654,
				"element": "H" 
			},
			{
				"x": 2.1114589442,
				"y": -2.5458880745,
				"z": 2.4794643949,
				"element": "H" 
			},
			{
				"x": -0.6208804449,
				"y": -3.7637994064,
				"z": 1.5739332842,
				"element": "H" 
			},
			{
				"x": 0.6630262326,
				"y": -4.6076747639,
				"z": 2.5571645298,
				"element": "H" 
			},
			{
				"x": -0.8092281882,
				"y": -1.9468284682,
				"z": 3.2946475343,
				"element": "H" 
			},
			{
				"x": 0.4621883088,
				"y": -2.7499804633,
				"z": 4.3277955673,
				"element": "H" 
			},
			{
				"x": -0.7834943804,
				"y": -0.4963130296,
				"z": -3.431421892,
				"element": "H" 
			},
			{
				"x": 1.3771830955,
				"y": -3.7803901709,
				"z": -3.0581561925,
				"element": "H" 
			}
		],
		 "valence_orbital": [ 
			{
				"type": "occ",
				"energy": -0.29957,
				"method": "rhf"
			},
			{
				"type": "occ",
				"energy": -0.29161,
				"method": "rhf"
			},
			{
				"type": "occ",
				"energy": -0.26833,
				"method": "rhf"
			},
			{
				"type": "occ",
				"energy": -0.26105,
				"method": "rhf"
			},
			{
				"type": "occ",
				"energy": -0.23785,
				"method": "rhf"
			},
			{
				"type": "unocc",
				"energy": -0.06946,
				"method": "rhf"
			},
			{
				"type": "unocc",
				"energy": -0.02825,
				"method": "rhf"
			},
			{
				"type": "unocc",
				"energy": -0.00378,
				"method": "rhf"
			},
			{
				"type": "unocc",
				"energy": 0.01659,
				"method": "rhf"
			},
			{
				"type": "unocc",
				"energy": 0.0723,
				"method": "rhf"
			}
		],
		"cosmo_sigma_profile": { 
			"-0.025": 0.0,
			"-0.024": 0.0,
			"-0.023": 0.0,
			"-0.022": 0.0,
			"-0.021": 0.0,
			"-0.02": 0.0,
			"-0.019": 0.0,
			"-0.018": 0.0,
			"-0.017": 0.0,
			"-0.016": 0.0,
			"-0.015": 0.0,
			"-0.014": 0.0,
			"-0.013": 0.0,
			"-0.012": 0.0,
			"-0.011": 0.130213734184,
			"-0.01": 1.65988113406,
			"-0.009": 1.41315475496,
			"-0.008": 1.61681211755,
			"-0.007": 3.20296734389,
			"-0.006": 13.3650539725,
			"-0.005": 22.8213878354,
			"-0.004": 20.7187895416,
			"-0.003": 21.8706519823,
			"-0.002": 21.4871903944,
			"-0.001": 24.6926490427,
			"0.0": 22.6537311406,
			"0.001": 17.4728674029,
			"0.002": 11.1984254071,
			"0.003": 7.08774568195,
			"0.004": 5.39960908596,
			"0.005": 4.84665261779,
			"0.006": 4.10255529982,
			"0.007": 3.85405982715,
			"0.008": 4.15382607528,
			"0.009": 3.99263491365,
			"0.01": 5.34495440151,
			"0.011": 6.66475075091,
			"0.012": 7.08221363288,
			"0.013": 3.05129228644,
			"0.014": 0.110672925383,
			"0.015": 0.0,
			"0.016": 0.0,
			"0.017": 0.0,
			"0.018": 0.0,
			"0.019": 0.0,
			"0.02": 0.0,
			"0.021": 0.0,
			"0.022": 0.0,
			"0.023": 0.0,
			"0.024": 0.0,
			"0.025": 0.0
		}
	}
}
