{
	 "smiles": "CCC(C1CCC(CC1)OC)C(=O)NC1=CC=CC2=C1C=CC=C2", 
	 "Tm": 436.15, 
	 "num_atms": 51, 
	 "gaussian": { 
		 "optdone": 1, 
		 "sigma_profile": "yes", 
		 "theory": "DFT", 
		 "functional": "B3LYP", 
		 "basiset": "6-31G**", 
		 "properties": { 
			 "R2extent": 11475.3491, 
			 "electric_dipole_moment_norm": 4.22581808648, 
			 "electric_quadrupole_moment_norm": 14.266375204, 
			 "total_energy": -1021.74200321, 
			 "HOMO_LUMO_gap": 0.16154, 
			 "cosmo_polarized_energy": -15.48, 
			 "cosmo_cavitation_energy": 50.03, 
			 "cosmo_dispersion_energy": -34.31, 
			 "cosmo_repulsion_energy": 2.6, 
			 "cosmo_total_nonelectrostatic_energy": 18.32, 
			 "SMD_solvation_energy": 8.12 
		},
		"coords": [
			{
				"x": 1.4772605807,
				"y": -2.3772393692,
				"z": -2.5025251883,
				"element": "C" 
			},
			{
				"x": 1.0124385041,
				"y": -1.0396259139,
				"z": -1.9115772521,
				"element": "C" 
			},
			{
				"x": -0.3321164103,
				"y": -1.1249441964,
				"z": -1.1291769824,
				"element": "C" 
			},
			{
				"x": -0.1681712954,
				"y": -1.2177966634,
				"z": 0.4165235431,
				"element": "C" 
			},
			{
				"x": 0.7183695939,
				"y": -2.4018958703,
				"z": 0.8519302901,
				"element": "C" 
			},
			{
				"x": 0.8653608986,
				"y": -2.4803538241,
				"z": 2.37970231,
				"element": "C" 
			},
			{
				"x": -0.4994752005,
				"y": -2.5648466389,
				"z": 3.0830300713,
				"element": "C" 
			},
			{
				"x": -1.389785333,
				"y": -1.3949662948,
				"z": 2.6554953709,
				"element": "C" 
			},
			{
				"x": -1.5340134306,
				"y": -1.3036394542,
				"z": 1.12913981,
				"element": "C" 
			},
			{
				"x": -1.2025738249,
				"y": -3.7620936945,
				"z": 2.744254915,
				"element": "O" 
			},
			{
				"x": -0.7337897871,
				"y": -4.9265656674,
				"z": 3.3897116608,
				"element": "C" 
			},
			{
				"x": -1.2743196365,
				"y": 0.0292874666,
				"z": -1.5028608853,
				"element": "C" 
			},
			{
				"x": -2.3986144088,
				"y": -0.1653137449,
				"z": -1.9443303067,
				"element": "O" 
			},
			{
				"x": -0.7384573758,
				"y": 1.2867068921,
				"z": -1.2894318648,
				"element": "N" 
			},
			{
				"x": -1.3230843253,
				"y": 2.5534678899,
				"z": -1.4960319042,
				"element": "C" 
			},
			{
				"x": -2.6730936831,
				"y": 2.7047765964,
				"z": -1.7691906388,
				"element": "C" 
			},
			{
				"x": -3.2298450827,
				"y": 3.9927730161,
				"z": -1.9266323406,
				"element": "C" 
			},
			{
				"x": -2.4578141465,
				"y": 5.1229745471,
				"z": -1.8043855921,
				"element": "C" 
			},
			{
				"x": -1.0677982251,
				"y": 5.0093972569,
				"z": -1.539729542,
				"element": "C" 
			},
			{
				"x": -0.4718875276,
				"y": 3.7108756216,
				"z": -1.3990054593,
				"element": "C" 
			},
			{
				"x": 0.9322341735,
				"y": 3.6434596297,
				"z": -1.1794328533,
				"element": "C" 
			},
			{
				"x": 1.7006387708,
				"y": 4.7826064118,
				"z": -1.0739658909,
				"element": "C" 
			},
			{
				"x": 1.1053573035,
				"y": 6.0595840006,
				"z": -1.1865695166,
				"element": "C" 
			},
			{
				"x": -0.2463318092,
				"y": 6.1629488346,
				"z": -1.4199526437,
				"element": "C" 
			},
			{
				"x": 2.4231103159,
				"y": -2.2575602777,
				"z": -3.0412986975,
				"element": "H" 
			},
			{
				"x": 1.6248818461,
				"y": -3.1396156631,
				"z": -1.732760471,
				"element": "H" 
			},
			{
				"x": 0.7367107905,
				"y": -2.7621885158,
				"z": -3.2116349659,
				"element": "H" 
			},
			{
				"x": 1.7983487671,
				"y": -0.6315691923,
				"z": -1.259992486,
				"element": "H" 
			},
			{
				"x": 0.9073870883,
				"y": -0.3258371499,
				"z": -2.7367295708,
				"element": "H" 
			},
			{
				"x": -0.8762287474,
				"y": -2.0155245228,
				"z": -1.4622526246,
				"element": "H" 
			},
			{
				"x": 0.3331498029,
				"y": -0.2952468653,
				"z": 0.7577222545,
				"element": "H" 
			},
			{
				"x": 1.7131465122,
				"y": -2.3278191945,
				"z": 0.4001364219,
				"element": "H" 
			},
			{
				"x": 0.2685711028,
				"y": -3.3351407996,
				"z": 0.4901898807,
				"element": "H" 
			},
			{
				"x": 1.3873921846,
				"y": -1.5882449411,
				"z": 2.7522580786,
				"element": "H" 
			},
			{
				"x": 1.4924564281,
				"y": -3.3366731468,
				"z": 2.653611998,
				"element": "H" 
			},
			{
				"x": -0.3514436616,
				"y": -2.5355484985,
				"z": 4.1758706263,
				"element": "H" 
			},
			{
				"x": -0.9508031292,
				"y": -0.466967202,
				"z": 3.0459173967,
				"element": "H" 
			},
			{
				"x": -2.3742105151,
				"y": -1.5073757412,
				"z": 3.121791398,
				"element": "H" 
			},
			{
				"x": -2.1567761679,
				"y": -0.4401765909,
				"z": 0.8734659518,
				"element": "H" 
			},
			{
				"x": -2.0672928441,
				"y": -2.1904093577,
				"z": 0.7664768404,
				"element": "H" 
			},
			{
				"x": -1.4145344878,
				"y": -5.7382039205,
				"z": 3.120111611,
				"element": "H" 
			},
			{
				"x": -0.7368164809,
				"y": -4.8125827022,
				"z": 4.4855404925,
				"element": "H" 
			},
			{
				"x": 0.2825445182,
				"y": -5.210252328,
				"z": 3.0783682152,
				"element": "H" 
			},
			{
				"x": 0.1903177096,
				"y": 1.2957024507,
				"z": -0.8985079512,
				"element": "H" 
			},
			{
				"x": -3.2902924618,
				"y": 1.8229338402,
				"z": -1.8609582521,
				"element": "H" 
			},
			{
				"x": -4.2920169561,
				"y": 4.0772834391,
				"z": -2.1375205209,
				"element": "H" 
			},
			{
				"x": -2.8929976206,
				"y": 6.112364322,
				"z": -1.913773178,
				"element": "H" 
			},
			{
				"x": 1.4388810084,
				"y": 2.6843429596,
				"z": -1.1217735784,
				"element": "H" 
			},
			{
				"x": 2.7712044805,
				"y": 4.6976391075,
				"z": -0.9120003967,
				"element": "H" 
			},
			{
				"x": 1.7174860175,
				"y": 6.9523280992,
				"z": -1.0988251998,
				"element": "H" 
			},
			{
				"x": -0.713363823,
				"y": 7.1391655602,
				"z": -1.5222223826,
				"element": "H" 
			}
		],
		 "valence_orbital": [ 
			{
				"type": "occ",
				"energy": -0.25946,
				"method": "rhf"
			},
			{
				"type": "occ",
				"energy": -0.24992,
				"method": "rhf"
			},
			{
				"type": "occ",
				"energy": -0.2435,
				"method": "rhf"
			},
			{
				"type": "occ",
				"energy": -0.24066,
				"method": "rhf"
			},
			{
				"type": "occ",
				"energy": -0.20047,
				"method": "rhf"
			},
			{
				"type": "unocc",
				"energy": -0.03893,
				"method": "rhf"
			},
			{
				"type": "unocc",
				"energy": -0.00783,
				"method": "rhf"
			},
			{
				"type": "unocc",
				"energy": 0.01301,
				"method": "rhf"
			},
			{
				"type": "unocc",
				"energy": 0.05289,
				"method": "rhf"
			},
			{
				"type": "unocc",
				"energy": 0.05693,
				"method": "rhf"
			}
		],
		"cosmo_sigma_profile": { 
			"-0.025": 0.0,
			"-0.024": 0.0,
			"-0.023": 0.0,
			"-0.022": 0.0,
			"-0.021": 0.0,
			"-0.02": 0.0,
			"-0.019": 0.0,
			"-0.018": 0.0,
			"-0.017": 0.0,
			"-0.016": 0.0,
			"-0.015": 0.0,
			"-0.014": 0.157158376709,
			"-0.013": 0.616320305198,
			"-0.012": 1.22169750116,
			"-0.011": 1.25697394049,
			"-0.01": 1.34749811991,
			"-0.009": 1.93131084474,
			"-0.008": 1.80975131943,
			"-0.007": 2.21683952687,
			"-0.006": 8.84702253682,
			"-0.005": 15.1255772596,
			"-0.004": 20.312389737,
			"-0.003": 48.2687820186,
			"-0.002": 59.4970456003,
			"-0.001": 46.8816690228,
			"0.0": 38.9739982415,
			"0.001": 29.0503100412,
			"0.002": 18.6650213086,
			"0.003": 18.3698613666,
			"0.004": 26.0825132682,
			"0.005": 20.7333056262,
			"0.006": 5.48114704261,
			"0.007": 4.9183141552,
			"0.008": 2.29775710854,
			"0.009": 2.40666343297,
			"0.01": 3.52595049722,
			"0.011": 3.19305535676,
			"0.012": 3.25558469133,
			"0.013": 3.47320152892,
			"0.014": 1.74479694612,
			"0.015": 0.187117019304,
			"0.016": 0.0,
			"0.017": 0.0,
			"0.018": 0.0,
			"0.019": 0.0,
			"0.02": 0.0,
			"0.021": 0.0,
			"0.022": 0.0,
			"0.023": 0.0,
			"0.024": 0.0,
			"0.025": 0.0
		}
	}
}
