{
	 "smiles": "CC(C)N1C(C(CC1=O)C(O)=O)C1=CC(F)=C(Cl)C=C1", 
	 "Tm": 437.15, 
	 "num_atms": 35, 
	 "gaussian": { 
		 "optdone": 1, 
		 "sigma_profile": "yes", 
		 "theory": "DFT", 
		 "functional": "B3LYP", 
		 "basiset": "6-31G**", 
		 "properties": { 
			 "R2extent": 6781.1343, 
			 "electric_dipole_moment_norm": 0.746488539765, 
			 "electric_quadrupole_moment_norm": 23.1405303386, 
			 "total_energy": -1383.0178149, 
			 "HOMO_LUMO_gap": 0.21491, 
			 "cosmo_polarized_energy": -17.31, 
			 "cosmo_cavitation_energy": 39.86, 
			 "cosmo_dispersion_energy": -26.38, 
			 "cosmo_repulsion_energy": 2.04, 
			 "cosmo_total_nonelectrostatic_energy": 15.52, 
			 "SMD_solvation_energy": 8.63 
		},
		"coords": [
			{
				"x": -3.1955465644,
				"y": 1.2093717069,
				"z": -0.1451626857,
				"element": "C" 
			},
			{
				"x": -1.8417274054,
				"y": 1.3407711988,
				"z": -0.8600558038,
				"element": "C" 
			},
			{
				"x": -1.0392369462,
				"y": 2.5417000928,
				"z": -0.3475361525,
				"element": "C" 
			},
			{
				"x": -1.0882433656,
				"y": 0.0774049682,
				"z": -0.7964886816,
				"element": "N" 
			},
			{
				"x": -0.5182009325,
				"y": -0.4839652866,
				"z": 0.4256105562,
				"element": "C" 
			},
			{
				"x": -0.5296311955,
				"y": -2.0250378306,
				"z": 0.0948844853,
				"element": "C" 
			},
			{
				"x": -0.361493729,
				"y": -2.0684854412,
				"z": -1.4257918322,
				"element": "C" 
			},
			{
				"x": -1.0349571458,
				"y": -0.77385046,
				"z": -1.8820043383,
				"element": "C" 
			},
			{
				"x": -1.4563288788,
				"y": -0.5246197548,
				"z": -2.9994320367,
				"element": "O" 
			},
			{
				"x": 0.4230799328,
				"y": -2.8187627695,
				"z": 0.9639026115,
				"element": "C" 
			},
			{
				"x": 1.4969320447,
				"y": -3.2922873394,
				"z": 0.2968882817,
				"element": "O" 
			},
			{
				"x": 0.2484322257,
				"y": -3.0074108314,
				"z": 2.1487586534,
				"element": "O" 
			},
			{
				"x": 0.8653647037,
				"y": 0.0594076234,
				"z": 0.7796120504,
				"element": "C" 
			},
			{
				"x": 1.2440815356,
				"y": 0.1269633638,
				"z": 2.1253349236,
				"element": "C" 
			},
			{
				"x": 2.5113163962,
				"y": 0.5789733487,
				"z": 2.4716714868,
				"element": "C" 
			},
			{
				"x": 2.8524196946,
				"y": 0.6407454626,
				"z": 3.7672379894,
				"element": "F" 
			},
			{
				"x": 3.427281084,
				"y": 0.9720569036,
				"z": 1.4945086534,
				"element": "C" 
			},
			{
				"x": 5.0085142585,
				"y": 1.5412578565,
				"z": 1.963425122,
				"element": "Cl" 
			},
			{
				"x": 3.0554021744,
				"y": 0.90662149,
				"z": 0.1518814155,
				"element": "C" 
			},
			{
				"x": 1.7847662779,
				"y": 0.4540003675,
				"z": -0.2006988614,
				"element": "C" 
			},
			{
				"x": -3.7835401979,
				"y": 2.1225697773,
				"z": -0.2813016775,
				"element": "H" 
			},
			{
				"x": -3.7699038984,
				"y": 0.3717230632,
				"z": -0.5510871581,
				"element": "H" 
			},
			{
				"x": -3.0737160769,
				"y": 1.0568505619,
				"z": 0.9334068815,
				"element": "H" 
			},
			{
				"x": -2.0290213396,
				"y": 1.4704150649,
				"z": -1.9301941582,
				"element": "H" 
			},
			{
				"x": -0.0942354801,
				"y": 2.650659151,
				"z": -0.8852456662,
				"element": "H" 
			},
			{
				"x": -0.8140582351,
				"y": 2.4576730505,
				"z": 0.7208474607,
				"element": "H" 
			},
			{
				"x": -1.6221042741,
				"y": 3.4568385367,
				"z": -0.4917625923,
				"element": "H" 
			},
			{
				"x": -1.1817628365,
				"y": -0.3013635815,
				"z": 1.2765078123,
				"element": "H" 
			},
			{
				"x": -1.5300923265,
				"y": -2.3831737525,
				"z": 0.3598902299,
				"element": "H" 
			},
			{
				"x": -0.8377980931,
				"y": -2.9279992161,
				"z": -1.9006307245,
				"element": "H" 
			},
			{
				"x": 0.6913279948,
				"y": -2.0644924196,
				"z": -1.7240593552,
				"element": "H" 
			},
			{
				"x": 2.0419829563,
				"y": -3.7587583747,
				"z": 0.9537872835,
				"element": "H" 
			},
			{
				"x": 0.5713514146,
				"y": -0.1819945049,
				"z": 2.9187605223,
				"element": "H" 
			},
			{
				"x": 3.7639654696,
				"y": 1.2152866661,
				"z": -0.6089604756,
				"element": "H" 
			},
			{
				"x": 1.504280758,
				"y": 0.4279113086,
				"z": -1.2480042196,
				"element": "H" 
			}
		],
		 "valence_orbital": [ 
			{
				"type": "occ",
				"energy": -0.2919,
				"method": "rhf"
			},
			{
				"type": "occ",
				"energy": -0.26946,
				"method": "rhf"
			},
			{
				"type": "occ",
				"energy": -0.25627,
				"method": "rhf"
			},
			{
				"type": "occ",
				"energy": -0.25241,
				"method": "rhf"
			},
			{
				"type": "occ",
				"energy": -0.24754,
				"method": "rhf"
			},
			{
				"type": "unocc",
				"energy": -0.03263,
				"method": "rhf"
			},
			{
				"type": "unocc",
				"energy": -0.02107,
				"method": "rhf"
			},
			{
				"type": "unocc",
				"energy": -0.01256,
				"method": "rhf"
			},
			{
				"type": "unocc",
				"energy": 0.01737,
				"method": "rhf"
			},
			{
				"type": "unocc",
				"energy": 0.02264,
				"method": "rhf"
			}
		],
		"cosmo_sigma_profile": { 
			"-0.025": 0.0,
			"-0.024": 0.0,
			"-0.023": 0.0,
			"-0.022": 0.0,
			"-0.021": 0.0,
			"-0.02": 0.0,
			"-0.019": 0.129932199244,
			"-0.018": 1.06796009928,
			"-0.017": 0.886786818501,
			"-0.016": 0.96231788919,
			"-0.015": 0.876990806796,
			"-0.014": 0.678028724409,
			"-0.013": 0.00865359858292,
			"-0.012": 0.791982089441,
			"-0.011": 1.34442767721,
			"-0.01": 0.446084869398,
			"-0.009": 0.540420215261,
			"-0.008": 3.49251558641,
			"-0.007": 12.5102038706,
			"-0.006": 17.8275311731,
			"-0.005": 14.1240853342,
			"-0.004": 16.9322653572,
			"-0.003": 27.0486936513,
			"-0.002": 24.5668294476,
			"-0.001": 27.3286059668,
			"0.0": 33.4641317337,
			"0.001": 27.015778623,
			"0.002": 18.1803384802,
			"0.003": 20.4052309428,
			"0.004": 20.510117653,
			"0.005": 8.89574019444,
			"0.006": 4.54622056029,
			"0.007": 3.6571674248,
			"0.008": 3.16981056826,
			"0.009": 1.90770993969,
			"0.01": 3.46309705911,
			"0.011": 5.56287953083,
			"0.012": 4.82766484482,
			"0.013": 5.31511782236,
			"0.014": 3.74767813034,
			"0.015": 0.520890472909,
			"0.016": 0.0,
			"0.017": 0.0,
			"0.018": 0.0,
			"0.019": 0.0,
			"0.02": 0.0,
			"0.021": 0.0,
			"0.022": 0.0,
			"0.023": 0.0,
			"0.024": 0.0,
			"0.025": 0.0
		}
	}
}
