{
	 "smiles": "COC1=C(C=C(Cl)C(=C1)N1C=NN=N1)C(O)=O", 
	 "Tm": 605.15, 
	 "num_atms": 24, 
	 "gaussian": { 
		 "optdone": 1, 
		 "sigma_profile": "yes", 
		 "theory": "DFT", 
		 "functional": "B3LYP", 
		 "basiset": "6-31G**", 
		 "properties": { 
			 "R2extent": 4979.2985, 
			 "electric_dipole_moment_norm": 4.26179687573, 
			 "electric_quadrupole_moment_norm": 27.9646021724, 
			 "total_energy": -1251.95981321, 
			 "HOMO_LUMO_gap": 0.17793, 
			 "cosmo_polarized_energy": -24.31, 
			 "cosmo_cavitation_energy": 31.79, 
			 "cosmo_dispersion_energy": -22.7, 
			 "cosmo_repulsion_energy": 1.75, 
			 "cosmo_total_nonelectrostatic_energy": 10.84, 
			 "SMD_solvation_energy": 5.91 
		},
		"coords": [
			{
				"x": -0.4264811147,
				"y": 2.7762552478,
				"z": -3.0301216448,
				"element": "C" 
			},
			{
				"x": -0.6376202619,
				"y": 1.4139687834,
				"z": -2.6391068029,
				"element": "O" 
			},
			{
				"x": -0.0129973401,
				"y": 0.8561203128,
				"z": -1.58189796,
				"element": "C" 
			},
			{
				"x": 1.2340017287,
				"y": 1.2194191183,
				"z": -1.0225570896,
				"element": "C" 
			},
			{
				"x": 1.6886802931,
				"y": 0.5350423707,
				"z": 0.1203725965,
				"element": "C" 
			},
			{
				"x": 0.969940437,
				"y": -0.5011298889,
				"z": 0.6995422002,
				"element": "C" 
			},
			{
				"x": 1.6328851924,
				"y": -1.354123477,
				"z": 2.066231991,
				"element": "Cl" 
			},
			{
				"x": -0.262565193,
				"y": -0.8655560424,
				"z": 0.1309055906,
				"element": "C" 
			},
			{
				"x": -0.7397657845,
				"y": -0.1861654653,
				"z": -0.9820358863,
				"element": "C" 
			},
			{
				"x": -1.0473138228,
				"y": -1.9176091068,
				"z": 0.6769137713,
				"element": "N" 
			},
			{
				"x": -1.425229107,
				"y": -3.0952452656,
				"z": 0.1247782472,
				"element": "C" 
			},
			{
				"x": -2.184944105,
				"y": -3.7429878224,
				"z": 0.9778982569,
				"element": "N" 
			},
			{
				"x": -2.2773216715,
				"y": -2.9358200626,
				"z": 2.0749097242,
				"element": "N" 
			},
			{
				"x": -1.6091441547,
				"y": -1.8458423789,
				"z": 1.91949113,
				"element": "N" 
			},
			{
				"x": 2.1948667653,
				"y": 2.1728839084,
				"z": -1.6720915212,
				"element": "C" 
			},
			{
				"x": 2.8776832189,
				"y": 2.9892326271,
				"z": -0.8274194414,
				"element": "O" 
			},
			{
				"x": 2.4183493451,
				"y": 2.2033833224,
				"z": -2.8582721185,
				"element": "O" 
			},
			{
				"x": -0.2634105649,
				"y": 3.4134325771,
				"z": -2.1533092652,
				"element": "H" 
			},
			{
				"x": -1.3488190014,
				"y": 3.0789859849,
				"z": -3.5284238001,
				"element": "H" 
			},
			{
				"x": 0.4229739362,
				"y": 2.8623315612,
				"z": -3.7076975127,
				"element": "H" 
			},
			{
				"x": 2.6642790827,
				"y": 0.7740246932,
				"z": 0.5305526644,
				"element": "H" 
			},
			{
				"x": -1.7116017052,
				"y": -0.4331091222,
				"z": -1.3938289785,
				"element": "H" 
			},
			{
				"x": -1.1218163223,
				"y": -3.4277154846,
				"z": -0.8562049027,
				"element": "H" 
			},
			{
				"x": 2.4983701494,
				"y": 2.9442236095,
				"z": 0.0621707515,
				"element": "H" 
			}
		],
		 "valence_orbital": [ 
			{
				"type": "occ",
				"energy": -0.31069,
				"method": "rhf"
			},
			{
				"type": "occ",
				"energy": -0.30509,
				"method": "rhf"
			},
			{
				"type": "occ",
				"energy": -0.2987,
				"method": "rhf"
			},
			{
				"type": "occ",
				"energy": -0.28516,
				"method": "rhf"
			},
			{
				"type": "occ",
				"energy": -0.25682,
				"method": "rhf"
			},
			{
				"type": "unocc",
				"energy": -0.07889,
				"method": "rhf"
			},
			{
				"type": "unocc",
				"energy": -0.04862,
				"method": "rhf"
			},
			{
				"type": "unocc",
				"energy": -0.02723,
				"method": "rhf"
			},
			{
				"type": "unocc",
				"energy": -0.00238,
				"method": "rhf"
			},
			{
				"type": "unocc",
				"energy": 0.00836,
				"method": "rhf"
			}
		],
		"cosmo_sigma_profile": { 
			"-0.025": 0.0,
			"-0.024": 0.0,
			"-0.023": 0.0,
			"-0.022": 0.0,
			"-0.021": 0.0,
			"-0.02": 0.130365289128,
			"-0.019": 0.951693115852,
			"-0.018": 0.930172880244,
			"-0.017": 0.978068005551,
			"-0.016": 0.596884485509,
			"-0.015": 1.20161136991,
			"-0.014": 0.872538839274,
			"-0.013": 2.87304992307,
			"-0.012": 3.49465784513,
			"-0.011": 3.17128949826,
			"-0.01": 3.38329751525,
			"-0.009": 6.83608023251,
			"-0.008": 7.75004637209,
			"-0.007": 8.46609203663,
			"-0.006": 10.0628269366,
			"-0.005": 11.2224256805,
			"-0.004": 14.7940057353,
			"-0.003": 15.9600746959,
			"-0.002": 15.3017111604,
			"-0.001": 20.1908247849,
			"0.0": 14.739005558,
			"0.001": 11.4648022531,
			"0.002": 11.6562905703,
			"0.003": 14.414499,
			"0.004": 9.27575813156,
			"0.005": 8.12479618176,
			"0.006": 7.3964126896,
			"0.007": 9.15725045681,
			"0.008": 8.23420392416,
			"0.009": 10.3545106072,
			"0.01": 9.28363386659,
			"0.011": 7.50067620131,
			"0.012": 4.39099358466,
			"0.013": 1.9224656429,
			"0.014": 1.15483729856,
			"0.015": 0.104937443507,
			"0.016": 0.0,
			"0.017": 0.0,
			"0.018": 0.0,
			"0.019": 0.0,
			"0.02": 0.0,
			"0.021": 0.0,
			"0.022": 0.0,
			"0.023": 0.0,
			"0.024": 0.0,
			"0.025": 0.0
		}
	}
}
