{
	 "smiles": "CC1=C(C)C=C(S1)C(O)=O", 
	 "Tm": 482.15, 
	 "num_atms": 18, 
	 "gaussian": { 
		 "optdone": 1, 
		 "sigma_profile": "yes", 
		 "theory": "DFT", 
		 "functional": "B3LYP", 
		 "basiset": "6-31G**", 
		 "properties": { 
			 "R2extent": 2358.3936, 
			 "electric_dipole_moment_norm": 2.69724382472, 
			 "electric_quadrupole_moment_norm": 5.67272866176, 
			 "total_energy": -820.218060759, 
			 "HOMO_LUMO_gap": 0.18094, 
			 "cosmo_polarized_energy": -9.61, 
			 "cosmo_cavitation_energy": 23.75, 
			 "cosmo_dispersion_energy": -17.86, 
			 "cosmo_repulsion_energy": 1.42, 
			 "cosmo_total_nonelectrostatic_energy": 7.31, 
			 "SMD_solvation_energy": 5.23 
		},
		"coords": [
			{
				"x": 1.4732729509,
				"y": -1.8046323186,
				"z": -0.9927768585,
				"element": "C" 
			},
			{
				"x": 0.9423851372,
				"y": -0.4744654216,
				"z": -0.544703007,
				"element": "C" 
			},
			{
				"x": 0.1677227404,
				"y": -0.1985189955,
				"z": 0.5675182793,
				"element": "C" 
			},
			{
				"x": -0.2976623953,
				"y": -1.230672063,
				"z": 1.5655719085,
				"element": "C" 
			},
			{
				"x": -0.1454077075,
				"y": 1.1862216408,
				"z": 0.6665175386,
				"element": "C" 
			},
			{
				"x": 0.3788482967,
				"y": 1.9506455014,
				"z": -0.3480674314,
				"element": "C" 
			},
			{
				"x": 1.2838965277,
				"y": 0.9632246996,
				"z": -1.4643368775,
				"element": "S" 
			},
			{
				"x": 0.2112079981,
				"y": 3.3978929505,
				"z": -0.4895624342,
				"element": "C" 
			},
			{
				"x": 0.8394542234,
				"y": 3.8919437055,
				"z": -1.589140261,
				"element": "O" 
			},
			{
				"x": -0.4159098884,
				"y": 4.1027581617,
				"z": 0.2781361405,
				"element": "O" 
			},
			{
				"x": 2.5683174345,
				"y": -1.8112120572,
				"z": -1.0360420398,
				"element": "H" 
			},
			{
				"x": 1.105698494,
				"y": -2.0737626161,
				"z": -1.9895191588,
				"element": "H" 
			},
			{
				"x": 1.1626994085,
				"y": -2.5902353101,
				"z": -0.3000452047,
				"element": "H" 
			},
			{
				"x": -0.8947449279,
				"y": -0.7622890297,
				"z": 2.3521590228,
				"element": "H" 
			},
			{
				"x": -0.9192793018,
				"y": -2.0016518966,
				"z": 1.0966664366,
				"element": "H" 
			},
			{
				"x": 0.5433837635,
				"y": -1.738849375,
				"z": 2.050433409,
				"element": "H" 
			},
			{
				"x": -0.7410497038,
				"y": 1.6243102666,
				"z": 1.4594429633,
				"element": "H" 
			},
			{
				"x": 0.6669669498,
				"y": 4.8474921574,
				"z": -1.5877524257,
				"element": "H" 
			}
		],
		 "valence_orbital": [ 
			{
				"type": "occ",
				"energy": -0.34035,
				"method": "rhf"
			},
			{
				"type": "occ",
				"energy": -0.31419,
				"method": "rhf"
			},
			{
				"type": "occ",
				"energy": -0.27352,
				"method": "rhf"
			},
			{
				"type": "occ",
				"energy": -0.25166,
				"method": "rhf"
			},
			{
				"type": "occ",
				"energy": -0.23132,
				"method": "rhf"
			},
			{
				"type": "unocc",
				"energy": -0.05038,
				"method": "rhf"
			},
			{
				"type": "unocc",
				"energy": 0.026,
				"method": "rhf"
			},
			{
				"type": "unocc",
				"energy": 0.03564,
				"method": "rhf"
			},
			{
				"type": "unocc",
				"energy": 0.07977,
				"method": "rhf"
			},
			{
				"type": "unocc",
				"energy": 0.09493,
				"method": "rhf"
			}
		],
		"cosmo_sigma_profile": { 
			"-0.025": 0.0,
			"-0.024": 0.0,
			"-0.023": 0.0,
			"-0.022": 0.0,
			"-0.021": 0.0,
			"-0.02": 0.0,
			"-0.019": 0.116697195355,
			"-0.018": 0.754089126253,
			"-0.017": 0.820830877503,
			"-0.016": 0.971641169556,
			"-0.015": 0.715279430426,
			"-0.014": 0.538463178908,
			"-0.013": 0.347721476867,
			"-0.012": 1.11540976834,
			"-0.011": 0.753093308,
			"-0.01": 0.77373806448,
			"-0.009": 0.381151250459,
			"-0.008": 0.668111845483,
			"-0.007": 2.19346699101,
			"-0.006": 3.04534601071,
			"-0.005": 10.2152579318,
			"-0.004": 18.1443568655,
			"-0.003": 16.424001756,
			"-0.002": 17.2736690214,
			"-0.001": 20.1966568817,
			"0.0": 14.4992627061,
			"0.001": 10.6857377663,
			"0.002": 13.5190589505,
			"0.003": 20.6458240832,
			"0.004": 9.90982974841,
			"0.005": 3.68124748796,
			"0.006": 2.7065059977,
			"0.007": 3.45146017947,
			"0.008": 3.15440529492,
			"0.009": 1.77676224814,
			"0.01": 1.53813977854,
			"0.011": 3.03512921116,
			"0.012": 5.61234440463,
			"0.013": 0.743380340103,
			"0.014": 0.0,
			"0.015": 0.0,
			"0.016": 0.0,
			"0.017": 0.0,
			"0.018": 0.0,
			"0.019": 0.0,
			"0.02": 0.0,
			"0.021": 0.0,
			"0.022": 0.0,
			"0.023": 0.0,
			"0.024": 0.0,
			"0.025": 0.0
		}
	}
}
