{
	 "smiles": "CCC1=CC=C(O1)C(C1=CC=C(CC)O1)C1=CC2=C(OCCO2)C=C1[N+]([O-])=O", 
	 "Tm": 359.15, 
	 "num_atms": 49, 
	 "gaussian": { 
		 "optdone": 1, 
		 "sigma_profile": "yes", 
		 "theory": "DFT", 
		 "functional": "B3LYP", 
		 "basiset": "6-31G**", 
		 "properties": { 
			 "R2extent": 11159.2062, 
			 "electric_dipole_moment_norm": 6.1477121159, 
			 "electric_quadrupole_moment_norm": 24.7566692489, 
			 "total_energy": -1318.83777928, 
			 "HOMO_LUMO_gap": 0.12884, 
			 "cosmo_polarized_energy": -14.81, 
			 "cosmo_cavitation_energy": 52.86, 
			 "cosmo_dispersion_energy": -34.44, 
			 "cosmo_repulsion_energy": 2.64, 
			 "cosmo_total_nonelectrostatic_energy": 21.07, 
			 "SMD_solvation_energy": 11.71 
		},
		"coords": [
			{
				"x": 1.7955205233,
				"y": -4.6645219999,
				"z": -1.3120354124,
				"element": "C" 
			},
			{
				"x": 1.834842922,
				"y": -4.5912009323,
				"z": 0.2248655322,
				"element": "C" 
			},
			{
				"x": 1.1809735345,
				"y": -3.3702646845,
				"z": 0.7813940954,
				"element": "C" 
			},
			{
				"x": 0.1616686993,
				"y": -3.1505203988,
				"z": 1.6598224803,
				"element": "C" 
			},
			{
				"x": 0.0136791237,
				"y": -1.7270668118,
				"z": 1.7828640194,
				"element": "C" 
			},
			{
				"x": 0.9574626114,
				"y": -1.1716629135,
				"z": 0.9722090695,
				"element": "C" 
			},
			{
				"x": 1.6757226928,
				"y": -2.1634716838,
				"z": 0.3555016945,
				"element": "O" 
			},
			{
				"x": 1.3675335356,
				"y": 0.2260240441,
				"z": 0.5803352474,
				"element": "C" 
			},
			{
				"x": 0.843758421,
				"y": 1.2816382731,
				"z": 1.5048953584,
				"element": "C" 
			},
			{
				"x": 1.4794778883,
				"y": 2.283153843,
				"z": 2.1749157765,
				"element": "C" 
			},
			{
				"x": 0.4745701395,
				"y": 2.9903951759,
				"z": 2.9134773257,
				"element": "C" 
			},
			{
				"x": -0.7134687842,
				"y": 2.3756998909,
				"z": 2.6517336093,
				"element": "C" 
			},
			{
				"x": -2.1182774897,
				"y": 2.6087927391,
				"z": 3.0988492573,
				"element": "C" 
			},
			{
				"x": -3.0815751784,
				"y": 2.9882927727,
				"z": 1.9600681283,
				"element": "C" 
			},
			{
				"x": -0.5021459216,
				"y": 1.3275914715,
				"z": 1.7876312011,
				"element": "O" 
			},
			{
				"x": 1.0388858528,
				"y": 0.4562958887,
				"z": -0.9103150159,
				"element": "C" 
			},
			{
				"x": -0.2025513177,
				"y": 0.9827060876,
				"z": -1.273865735,
				"element": "C" 
			},
			{
				"x": -0.5868097209,
				"y": 1.1314163148,
				"z": -2.6058446563,
				"element": "C" 
			},
			{
				"x": 0.2661259594,
				"y": 0.6964753491,
				"z": -3.6361532694,
				"element": "C" 
			},
			{
				"x": -0.0802043566,
				"y": 0.7956667301,
				"z": -4.9584873288,
				"element": "O" 
			},
			{
				"x": -1.4790308816,
				"y": 1.0008475723,
				"z": -5.1665514038,
				"element": "C" 
			},
			{
				"x": -1.992876357,
				"y": 2.082481906,
				"z": -4.230955023,
				"element": "C" 
			},
			{
				"x": -1.8061994603,
				"y": 1.6891300176,
				"z": -2.867407564,
				"element": "O" 
			},
			{
				"x": 1.4968928798,
				"y": 0.1500527447,
				"z": -3.3046615669,
				"element": "C" 
			},
			{
				"x": 1.883162624,
				"y": 0.0545404596,
				"z": -1.9660045432,
				"element": "C" 
			},
			{
				"x": 3.225815467,
				"y": -0.5059155503,
				"z": -1.7516537173,
				"element": "N" 
			},
			{
				"x": 3.624849729,
				"y": -1.3433428277,
				"z": -2.5621256269,
				"element": "O" 
			},
			{
				"x": 3.9007659299,
				"y": -0.0877834844,
				"z": -0.8085840504,
				"element": "O" 
			},
			{
				"x": 2.2987940805,
				"y": -3.8012144591,
				"z": -1.7561919143,
				"element": "H" 
			},
			{
				"x": 0.7634325535,
				"y": -4.6812924221,
				"z": -1.6766666392,
				"element": "H" 
			},
			{
				"x": 2.2979482817,
				"y": -5.5700824355,
				"z": -1.6663583359,
				"element": "H" 
			},
			{
				"x": 1.3370723538,
				"y": -5.4637309103,
				"z": 0.6616106018,
				"element": "H" 
			},
			{
				"x": 2.8809332736,
				"y": -4.6289686764,
				"z": 0.5586677682,
				"element": "H" 
			},
			{
				"x": -0.4179602724,
				"y": -3.9110703368,
				"z": 2.1639453197,
				"element": "H" 
			},
			{
				"x": -0.7010804269,
				"y": -1.1892886953,
				"z": 2.3860405502,
				"element": "H" 
			},
			{
				"x": 2.4529534456,
				"y": 0.2816446507,
				"z": 0.6757786698,
				"element": "H" 
			},
			{
				"x": 2.5400073086,
				"y": 2.4896073373,
				"z": 2.146456984,
				"element": "H" 
			},
			{
				"x": 0.618559025,
				"y": 3.8429338493,
				"z": 3.562071053,
				"element": "H" 
			},
			{
				"x": -2.0964549114,
				"y": 3.4037671426,
				"z": 3.8517802792,
				"element": "H" 
			},
			{
				"x": -2.4948811541,
				"y": 1.7101738393,
				"z": 3.6061214636,
				"element": "H" 
			},
			{
				"x": -2.7558773577,
				"y": 3.9062318986,
				"z": 1.4611139477,
				"element": "H" 
			},
			{
				"x": -3.1312101044,
				"y": 2.1948228786,
				"z": 1.208680336,
				"element": "H" 
			},
			{
				"x": -4.0924960387,
				"y": 3.1494056398,
				"z": 2.3476107722,
				"element": "H" 
			},
			{
				"x": -0.9045780202,
				"y": 1.2923160623,
				"z": -0.5095287506,
				"element": "H" 
			},
			{
				"x": -1.5968489815,
				"y": 1.2932663648,
				"z": -6.2125684587,
				"element": "H" 
			},
			{
				"x": -2.0232261987,
				"y": 0.0628175596,
				"z": -4.9926349262,
				"element": "H" 
			},
			{
				"x": -3.0655589783,
				"y": 2.2449531672,
				"z": -4.359928415,
				"element": "H" 
			},
			{
				"x": -1.4618926858,
				"y": 3.0250017218,
				"z": -4.4180987563,
				"element": "H" 
			},
			{
				"x": 2.1576957426,
				"y": -0.2010441704,
				"z": -4.0867194315,
				"element": "H" 
			}
		],
		 "valence_orbital": [ 
			{
				"type": "occ",
				"energy": -0.26458,
				"method": "rhf"
			},
			{
				"type": "occ",
				"energy": -0.25068,
				"method": "rhf"
			},
			{
				"type": "occ",
				"energy": -0.22935,
				"method": "rhf"
			},
			{
				"type": "occ",
				"energy": -0.21484,
				"method": "rhf"
			},
			{
				"type": "occ",
				"energy": -0.20257,
				"method": "rhf"
			},
			{
				"type": "unocc",
				"energy": -0.07373,
				"method": "rhf"
			},
			{
				"type": "unocc",
				"energy": -0.01393,
				"method": "rhf"
			},
			{
				"type": "unocc",
				"energy": 0.00557,
				"method": "rhf"
			},
			{
				"type": "unocc",
				"energy": 0.01113,
				"method": "rhf"
			},
			{
				"type": "unocc",
				"energy": 0.03212,
				"method": "rhf"
			}
		],
		"cosmo_sigma_profile": { 
			"-0.025": 0.0,
			"-0.024": 0.0,
			"-0.023": 0.0,
			"-0.022": 0.0,
			"-0.021": 0.0,
			"-0.02": 0.0,
			"-0.019": 0.0,
			"-0.018": 0.0,
			"-0.017": 0.0,
			"-0.016": 0.0,
			"-0.015": 0.0,
			"-0.014": 0.0,
			"-0.013": 0.0,
			"-0.012": 0.0,
			"-0.011": 0.0,
			"-0.01": 0.0,
			"-0.009": 0.0,
			"-0.008": 3.31202649709,
			"-0.007": 13.310375564,
			"-0.006": 19.9328640837,
			"-0.005": 22.6531083705,
			"-0.004": 27.8730770558,
			"-0.003": 33.0194765496,
			"-0.002": 35.7202293097,
			"-0.001": 40.7260159821,
			"0.0": 40.7448038946,
			"0.001": 45.4445343867,
			"0.002": 32.7261157514,
			"0.003": 24.8367717416,
			"0.004": 18.377943284,
			"0.005": 18.1456384335,
			"0.006": 14.3798460645,
			"0.007": 9.75683510582,
			"0.008": 8.26201294256,
			"0.009": 6.92446334668,
			"0.01": 3.52465128461,
			"0.011": 0.231163950715,
			"0.012": 0.0,
			"0.013": 0.0,
			"0.014": 0.0,
			"0.015": 0.0,
			"0.016": 0.0,
			"0.017": 0.0,
			"0.018": 0.0,
			"0.019": 0.0,
			"0.02": 0.0,
			"0.021": 0.0,
			"0.022": 0.0,
			"0.023": 0.0,
			"0.024": 0.0,
			"0.025": 0.0
		}
	}
}
