{
	 "smiles": "CC1CO1", 
	 "Tm": 161.15, 
	 "num_atms": 10, 
	 "gaussian": { 
		 "optdone": 1, 
		 "sigma_profile": "yes", 
		 "theory": "DFT", 
		 "functional": "B3LYP", 
		 "basiset": "6-31G**", 
		 "properties": { 
			 "R2extent": 739.6524, 
			 "electric_dipole_moment_norm": 1.97028770742, 
			 "electric_quadrupole_moment_norm": 6.74130807781, 
			 "total_energy": -193.113267288, 
			 "HOMO_LUMO_gap": 0.36807, 
			 "cosmo_polarized_energy": -4.73, 
			 "cosmo_cavitation_energy": 12.96, 
			 "cosmo_dispersion_energy": -9.81, 
			 "cosmo_repulsion_energy": 0.91, 
			 "cosmo_total_nonelectrostatic_energy": 4.06, 
			 "SMD_solvation_energy": 2.64 
		},
		"coords": [
			{
				"x": 1.9584256096,
				"y": -0.8631130869,
				"z": -1.6560219253,
				"element": "C" 
			},
			{
				"x": 0.8368865673,
				"y": 0.1078975906,
				"z": -1.3866755067,
				"element": "C" 
			},
			{
				"x": -0.4568527013,
				"y": 0.025659678,
				"z": -2.0808271892,
				"element": "C" 
			},
			{
				"x": 0.5090978426,
				"y": 1.0191367021,
				"z": -2.4447047603,
				"element": "O" 
			},
			{
				"x": 1.8641951763,
				"y": -1.2925117821,
				"z": -2.657510808,
				"element": "H" 
			},
			{
				"x": 1.9505825692,
				"y": -1.6776240267,
				"z": -0.9230168024,
				"element": "H" 
			},
			{
				"x": 2.9291422857,
				"y": -0.3602709407,
				"z": -1.5905613866,
				"element": "H" 
			},
			{
				"x": 0.8446370847,
				"y": 0.5716610068,
				"z": -0.3971706031,
				"element": "H" 
			},
			{
				"x": -0.6191335649,
				"y": -0.7617690127,
				"z": -2.8179503425,
				"element": "H" 
			},
			{
				"x": -1.3605808691,
				"y": 0.4014338716,
				"z": -1.6000606759,
				"element": "H" 
			}
		],
		 "valence_orbital": [ 
			{
				"type": "occ",
				"energy": -0.40152,
				"method": "rhf"
			},
			{
				"type": "occ",
				"energy": -0.37237,
				"method": "rhf"
			},
			{
				"type": "occ",
				"energy": -0.36512,
				"method": "rhf"
			},
			{
				"type": "occ",
				"energy": -0.29728,
				"method": "rhf"
			},
			{
				"type": "occ",
				"energy": -0.26198,
				"method": "rhf"
			},
			{
				"type": "unocc",
				"energy": 0.10609,
				"method": "rhf"
			},
			{
				"type": "unocc",
				"energy": 0.10965,
				"method": "rhf"
			},
			{
				"type": "unocc",
				"energy": 0.12785,
				"method": "rhf"
			},
			{
				"type": "unocc",
				"energy": 0.13352,
				"method": "rhf"
			},
			{
				"type": "unocc",
				"energy": 0.14272,
				"method": "rhf"
			}
		],
		"cosmo_sigma_profile": { 
			"-0.025": 0.0,
			"-0.024": 0.0,
			"-0.023": 0.0,
			"-0.022": 0.0,
			"-0.021": 0.0,
			"-0.02": 0.0,
			"-0.019": 0.0,
			"-0.018": 0.0,
			"-0.017": 0.0,
			"-0.016": 0.0,
			"-0.015": 0.0,
			"-0.014": 0.0,
			"-0.013": 0.0,
			"-0.012": 0.0,
			"-0.011": 0.0,
			"-0.01": 0.0,
			"-0.009": 0.0,
			"-0.008": 0.0,
			"-0.007": 0.0,
			"-0.006": 3.19770972564,
			"-0.005": 8.14289090772,
			"-0.004": 13.2253587815,
			"-0.003": 14.6872266983,
			"-0.002": 11.9238049789,
			"-0.001": 10.9310629601,
			"0.0": 11.6868340117,
			"0.001": 5.05283055437,
			"0.002": 1.98516663753,
			"0.003": 1.65739828693,
			"0.004": 1.24775660629,
			"0.005": 1.42240535721,
			"0.006": 1.62289137457,
			"0.007": 1.14705482043,
			"0.008": 2.12920115224,
			"0.009": 1.57294907012,
			"0.01": 1.50262796187,
			"0.011": 2.70989052247,
			"0.012": 3.64864444828,
			"0.013": 2.00641970252,
			"0.014": 0.107788227266,
			"0.015": 0.0,
			"0.016": 0.0,
			"0.017": 0.0,
			"0.018": 0.0,
			"0.019": 0.0,
			"0.02": 0.0,
			"0.021": 0.0,
			"0.022": 0.0,
			"0.023": 0.0,
			"0.024": 0.0,
			"0.025": 0.0
		}
	}
}
