{
	 "smiles": "CCN(CC)C1=C(C2=NON=C2C(Cl)=C1)[N+]([O-])=O", 
	 "Tm": 407.15, 
	 "num_atms": 29, 
	 "gaussian": { 
		 "optdone": 1, 
		 "sigma_profile": "yes", 
		 "theory": "DFT", 
		 "functional": "B3LYP", 
		 "basiset": "6-31G**", 
		 "properties": { 
			 "R2extent": 6437.5198, 
			 "electric_dipole_moment_norm": 7.7705063741, 
			 "electric_quadrupole_moment_norm": 16.2284735712, 
			 "total_energy": -1292.34431528, 
			 "HOMO_LUMO_gap": 0.12461, 
			 "cosmo_polarized_energy": -17.33, 
			 "cosmo_cavitation_energy": 34.25, 
			 "cosmo_dispersion_energy": -24.39, 
			 "cosmo_repulsion_energy": 1.87, 
			 "cosmo_total_nonelectrostatic_energy": 11.72, 
			 "SMD_solvation_energy": 7.13 
		},
		"coords": [
			{
				"x": 0.018108012,
				"y": -2.5151900219,
				"z": 0.1361449333,
				"element": "C" 
			},
			{
				"x": -1.1525103586,
				"y": -1.6709934673,
				"z": 0.6449543359,
				"element": "C" 
			},
			{
				"x": -0.95737109,
				"y": -0.2241448623,
				"z": 0.4535804438,
				"element": "N" 
			},
			{
				"x": -2.0643567741,
				"y": 0.4568751665,
				"z": -0.2508591248,
				"element": "C" 
			},
			{
				"x": -2.2235745457,
				"y": 0.0814234628,
				"z": -1.7255634533,
				"element": "C" 
			},
			{
				"x": -0.0114887926,
				"y": 0.4645941279,
				"z": 1.1727172889,
				"element": "C" 
			},
			{
				"x": 0.4594937046,
				"y": 1.7475251911,
				"z": 0.8445406231,
				"element": "C" 
			},
			{
				"x": 1.2827313471,
				"y": 2.4510806352,
				"z": 1.776515138,
				"element": "C" 
			},
			{
				"x": 1.8093232057,
				"y": 3.6652343512,
				"z": 1.7297669258,
				"element": "N" 
			},
			{
				"x": 2.5648018574,
				"y": 3.7576359375,
				"z": 2.8786107279,
				"element": "O" 
			},
			{
				"x": 2.5248435983,
				"y": 2.6356695515,
				"z": 3.6423264654,
				"element": "N" 
			},
			{
				"x": 1.7389100721,
				"y": 1.8141604447,
				"z": 2.9780596468,
				"element": "C" 
			},
			{
				"x": 1.3322848003,
				"y": 0.4783612598,
				"z": 3.2664108349,
				"element": "C" 
			},
			{
				"x": 1.8845794001,
				"y": -0.3020072403,
				"z": 4.7167560464,
				"element": "Cl" 
			},
			{
				"x": 0.4935795406,
				"y": -0.1487667048,
				"z": 2.3969291941,
				"element": "C" 
			},
			{
				"x": 0.2689888731,
				"y": 2.3631801532,
				"z": -0.458890498,
				"element": "N" 
			},
			{
				"x": 0.3521005905,
				"y": 1.6358758219,
				"z": -1.453772082,
				"element": "O" 
			},
			{
				"x": 0.0913881011,
				"y": 3.5795542074,
				"z": -0.4929603333,
				"element": "O" 
			},
			{
				"x": 0.1921974219,
				"y": -2.3236963167,
				"z": -0.9259863025,
				"element": "H" 
			},
			{
				"x": -0.2030372523,
				"y": -3.5791077871,
				"z": 0.2680114461,
				"element": "H" 
			},
			{
				"x": 0.9459406566,
				"y": -2.2956558713,
				"z": 0.6719170948,
				"element": "H" 
			},
			{
				"x": -2.0507420549,
				"y": -1.9348885358,
				"z": 0.0846614104,
				"element": "H" 
			},
			{
				"x": -1.3838076627,
				"y": -1.9038733344,
				"z": 1.6931120097,
				"element": "H" 
			},
			{
				"x": -1.9401778312,
				"y": 1.5336556302,
				"z": -0.1426774348,
				"element": "H" 
			},
			{
				"x": -2.9872309936,
				"y": 0.2030326753,
				"z": 0.2916505119,
				"element": "H" 
			},
			{
				"x": -1.3351283972,
				"y": 0.3471486958,
				"z": -2.2971250873,
				"element": "H" 
			},
			{
				"x": -2.4217799366,
				"y": -0.98760024,
				"z": -1.8530212093,
				"element": "H" 
			},
			{
				"x": -3.0809375237,
				"y": 0.6220570814,
				"z": -2.1391111302,
				"element": "H" 
			},
			{
				"x": 0.1631720318,
				"y": -1.1444400113,
				"z": 2.6522015783,
				"element": "H" 
			}
		],
		 "valence_orbital": [ 
			{
				"type": "occ",
				"energy": -0.30737,
				"method": "rhf"
			},
			{
				"type": "occ",
				"energy": -0.30477,
				"method": "rhf"
			},
			{
				"type": "occ",
				"energy": -0.2929,
				"method": "rhf"
			},
			{
				"type": "occ",
				"energy": -0.2723,
				"method": "rhf"
			},
			{
				"type": "occ",
				"energy": -0.23416,
				"method": "rhf"
			},
			{
				"type": "unocc",
				"energy": -0.10955,
				"method": "rhf"
			},
			{
				"type": "unocc",
				"energy": -0.06982,
				"method": "rhf"
			},
			{
				"type": "unocc",
				"energy": -0.01329,
				"method": "rhf"
			},
			{
				"type": "unocc",
				"energy": -0.00179,
				"method": "rhf"
			},
			{
				"type": "unocc",
				"energy": 0.00645,
				"method": "rhf"
			}
		],
		"cosmo_sigma_profile": { 
			"-0.025": 0.0,
			"-0.024": 0.0,
			"-0.023": 0.0,
			"-0.022": 0.0,
			"-0.021": 0.0,
			"-0.02": 0.0,
			"-0.019": 0.0,
			"-0.018": 0.0,
			"-0.017": 0.0,
			"-0.016": 0.0,
			"-0.015": 0.0,
			"-0.014": 0.0,
			"-0.013": 0.0,
			"-0.012": 0.0,
			"-0.011": 0.568158163336,
			"-0.01": 1.51305077799,
			"-0.009": 1.63667429596,
			"-0.008": 1.87801805037,
			"-0.007": 5.56260085309,
			"-0.006": 12.740911799,
			"-0.005": 19.2147187451,
			"-0.004": 32.3875874913,
			"-0.003": 29.8791474727,
			"-0.002": 22.6744392803,
			"-0.001": 20.7252533952,
			"0.0": 19.9852616266,
			"0.001": 13.7890740831,
			"0.002": 14.4454688214,
			"0.003": 12.8015757607,
			"0.004": 11.1095509055,
			"0.005": 9.97732503329,
			"0.006": 7.54716999077,
			"0.007": 8.33917921286,
			"0.008": 10.6550648136,
			"0.009": 7.48841019594,
			"0.01": 6.19414886356,
			"0.011": 2.28934717954,
			"0.012": 1.64247865195,
			"0.013": 0.47023560385,
			"0.014": 0.0,
			"0.015": 0.0,
			"0.016": 0.0,
			"0.017": 0.0,
			"0.018": 0.0,
			"0.019": 0.0,
			"0.02": 0.0,
			"0.021": 0.0,
			"0.022": 0.0,
			"0.023": 0.0,
			"0.024": 0.0,
			"0.025": 0.0
		}
	}
}
