{
	 "smiles": "N#CC1=CC2=C(C=C1)N=CC=C2", 
	 "Tm": 409.15, 
	 "num_atms": 18, 
	 "gaussian": { 
		 "optdone": 1, 
		 "sigma_profile": "yes", 
		 "theory": "DFT", 
		 "functional": "B3LYP", 
		 "basiset": "6-31G**", 
		 "properties": { 
			 "R2extent": 2292.4293, 
			 "electric_dipole_moment_norm": 4.27518397499, 
			 "electric_quadrupole_moment_norm": 18.5255204361, 
			 "total_energy": -494.170988363, 
			 "HOMO_LUMO_gap": 0.17443, 
			 "cosmo_polarized_energy": -11.07, 
			 "cosmo_cavitation_energy": 23.64, 
			 "cosmo_dispersion_energy": -17.09, 
			 "cosmo_repulsion_energy": 1.33, 
			 "cosmo_total_nonelectrostatic_energy": 7.88, 
			 "SMD_solvation_energy": 3.87 
		},
		"coords": [
			{
				"x": -2.7180053477,
				"y": -1.4225433911,
				"z": 3.9681453579,
				"element": "N" 
			},
			{
				"x": -2.3217177749,
				"y": -1.0880716862,
				"z": 2.9267587043,
				"element": "C" 
			},
			{
				"x": -1.8404423535,
				"y": -0.6764100189,
				"z": 1.6400794085,
				"element": "C" 
			},
			{
				"x": -0.4959155174,
				"y": -0.3923240042,
				"z": 1.4606091041,
				"element": "C" 
			},
			{
				"x": -0.0163303278,
				"y": 0.0142452694,
				"z": 0.1926337942,
				"element": "C" 
			},
			{
				"x": -0.93252338,
				"y": 0.1292033486,
				"z": -0.901900218,
				"element": "C" 
			},
			{
				"x": -2.3055387594,
				"y": -0.1689632861,
				"z": -0.6867296779,
				"element": "C" 
			},
			{
				"x": -2.7536891007,
				"y": -0.5620798768,
				"z": 0.5500469281,
				"element": "C" 
			},
			{
				"x": -0.5402179889,
				"y": 0.5152146099,
				"z": -2.1499701609,
				"element": "N" 
			},
			{
				"x": 0.7363921425,
				"y": 0.7880315027,
				"z": -2.333042405,
				"element": "C" 
			},
			{
				"x": 1.7259919483,
				"y": 0.7064849208,
				"z": -1.3190848902,
				"element": "C" 
			},
			{
				"x": 1.347757223,
				"y": 0.3193549484,
				"z": -0.0565122951,
				"element": "C" 
			},
			{
				"x": 0.19492173,
				"y": -0.4809561212,
				"z": 2.2935814867,
				"element": "H" 
			},
			{
				"x": -2.9793280832,
				"y": -0.0743291663,
				"z": -1.5314934412,
				"element": "H" 
			},
			{
				"x": -3.8011999304,
				"y": -0.7898809995,
				"z": 0.7154164586,
				"element": "H" 
			},
			{
				"x": 1.0246762291,
				"y": 1.0939517125,
				"z": -3.3380610364,
				"element": "H" 
			},
			{
				"x": 2.7579600326,
				"y": 0.9484331265,
				"z": -1.5515742524,
				"element": "H" 
			},
			{
				"x": 2.0706092584,
				"y": 0.2427391117,
				"z": 0.7514971349,
				"element": "H" 
			}
		],
		 "valence_orbital": [ 
			{
				"type": "occ",
				"energy": -0.33368,
				"method": "rhf"
			},
			{
				"type": "occ",
				"energy": -0.32611,
				"method": "rhf"
			},
			{
				"type": "occ",
				"energy": -0.27173,
				"method": "rhf"
			},
			{
				"type": "occ",
				"energy": -0.26921,
				"method": "rhf"
			},
			{
				"type": "occ",
				"energy": -0.25368,
				"method": "rhf"
			},
			{
				"type": "unocc",
				"energy": -0.07925,
				"method": "rhf"
			},
			{
				"type": "unocc",
				"energy": -0.04934,
				"method": "rhf"
			},
			{
				"type": "unocc",
				"energy": -0.00513,
				"method": "rhf"
			},
			{
				"type": "unocc",
				"energy": 0.03339,
				"method": "rhf"
			},
			{
				"type": "unocc",
				"energy": 0.04123,
				"method": "rhf"
			}
		],
		"cosmo_sigma_profile": { 
			"-0.025": 0.0,
			"-0.024": 0.0,
			"-0.023": 0.0,
			"-0.022": 0.0,
			"-0.021": 0.0,
			"-0.02": 0.0,
			"-0.019": 0.0,
			"-0.018": 0.0,
			"-0.017": 0.0,
			"-0.016": 0.0,
			"-0.015": 0.0,
			"-0.014": 0.0,
			"-0.013": 0.0,
			"-0.012": 0.0,
			"-0.011": 0.0,
			"-0.01": 0.0,
			"-0.009": 1.97053771553,
			"-0.008": 7.46851735707,
			"-0.007": 12.1819995298,
			"-0.006": 13.157845346,
			"-0.005": 11.1684328295,
			"-0.004": 9.45744655715,
			"-0.003": 8.92030495784,
			"-0.002": 11.0310011864,
			"-0.001": 15.3426871193,
			"0.0": 22.8486966325,
			"0.001": 21.659190867,
			"0.002": 12.6417323463,
			"0.003": 4.75087133268,
			"0.004": 4.21440860777,
			"0.005": 4.12933468864,
			"0.006": 3.47116097799,
			"0.007": 4.23817988368,
			"0.008": 4.39394688269,
			"0.009": 4.55101827441,
			"0.01": 4.53260446219,
			"0.011": 3.23712497266,
			"0.012": 3.19363101932,
			"0.013": 1.91353298221,
			"0.014": 0.872198131547,
			"0.015": 0.815433174725,
			"0.016": 0.19297654315,
			"0.017": 0.0,
			"0.018": 0.0,
			"0.019": 0.0,
			"0.02": 0.0,
			"0.021": 0.0,
			"0.022": 0.0,
			"0.023": 0.0,
			"0.024": 0.0,
			"0.025": 0.0
		}
	}
}
