{
	 "smiles": "O=C(NC1=C2C=CC=C(C#N)C2=CC=C1)C1=CC=CC=C1", 
	 "Tm": 485.15, 
	 "num_atms": 33, 
	 "gaussian": { 
		 "optdone": 1, 
		 "sigma_profile": "yes", 
		 "theory": "DFT", 
		 "functional": "B3LYP", 
		 "basiset": "6-31G**", 
		 "properties": { 
			 "R2extent": 8912.9623, 
			 "electric_dipole_moment_norm": 6.56302055688, 
			 "electric_quadrupole_moment_norm": 26.749481146, 
			 "total_energy": -877.888150182, 
			 "HOMO_LUMO_gap": 0.14551, 
			 "cosmo_polarized_energy": -17.95, 
			 "cosmo_cavitation_energy": 38.42, 
			 "cosmo_dispersion_energy": -27.42, 
			 "cosmo_repulsion_energy": 2.02, 
			 "cosmo_total_nonelectrostatic_energy": 13.03, 
			 "SMD_solvation_energy": 7.76 
		},
		"coords": [
			{
				"x": 1.6119732186,
				"y": 0.0723578414,
				"z": -1.9407052445,
				"element": "O" 
			},
			{
				"x": 1.352198992,
				"y": 0.1851156389,
				"z": -0.7487457335,
				"element": "C" 
			},
			{
				"x": 0.2028588327,
				"y": 0.7816903695,
				"z": -0.2597462999,
				"element": "N" 
			},
			{
				"x": -0.8744062569,
				"y": 1.3395204093,
				"z": -0.9751973364,
				"element": "C" 
			},
			{
				"x": -2.0161506554,
				"y": 1.7952035698,
				"z": -0.2229552546,
				"element": "C" 
			},
			{
				"x": -2.1274763213,
				"y": 1.6548157235,
				"z": 1.1867172026,
				"element": "C" 
			},
			{
				"x": -3.2242403639,
				"y": 2.1201812277,
				"z": 1.8806463216,
				"element": "C" 
			},
			{
				"x": -4.2800425623,
				"y": 2.751090665,
				"z": 1.1982227016,
				"element": "C" 
			},
			{
				"x": -4.2238704009,
				"y": 2.8904840932,
				"z": -0.1795305967,
				"element": "C" 
			},
			{
				"x": -5.3172151007,
				"y": 3.522532795,
				"z": -0.8580035663,
				"element": "C" 
			},
			{
				"x": -6.2063906169,
				"y": 4.0364782103,
				"z": -1.4054066473,
				"element": "N" 
			},
			{
				"x": -3.100067415,
				"y": 2.4125863008,
				"z": -0.9335929187,
				"element": "C" 
			},
			{
				"x": -3.0464146455,
				"y": 2.5300904773,
				"z": -2.3442523086,
				"element": "C" 
			},
			{
				"x": -1.9533519976,
				"y": 2.0507331153,
				"z": -3.027121695,
				"element": "C" 
			},
			{
				"x": -0.862784916,
				"y": 1.4604412822,
				"z": -2.3556574194,
				"element": "C" 
			},
			{
				"x": 2.2966765253,
				"y": -0.3142466076,
				"z": 0.3093318515,
				"element": "C" 
			},
			{
				"x": 1.8894191026,
				"y": -0.7014252123,
				"z": 1.5948579188,
				"element": "C" 
			},
			{
				"x": 2.8239822743,
				"y": -1.1686608129,
				"z": 2.5191952166,
				"element": "C" 
			},
			{
				"x": 4.1724020907,
				"y": -1.2529859159,
				"z": 2.1681118703,
				"element": "C" 
			},
			{
				"x": 4.5821587674,
				"y": -0.8841073062,
				"z": 0.8839627004,
				"element": "C" 
			},
			{
				"x": 3.6490403667,
				"y": -0.4259483091,
				"z": -0.0426306371,
				"element": "C" 
			},
			{
				"x": 0.2071504396,
				"y": 0.9533751761,
				"z": 0.7324578305,
				"element": "H" 
			},
			{
				"x": -1.3531406629,
				"y": 1.1479254821,
				"z": 1.753909961,
				"element": "H" 
			},
			{
				"x": -3.2798844469,
				"y": 1.9941718471,
				"z": 2.9570077966,
				"element": "H" 
			},
			{
				"x": -5.1427401988,
				"y": 3.1216271319,
				"z": 1.7412782214,
				"element": "H" 
			},
			{
				"x": -3.8735448947,
				"y": 2.9945182737,
				"z": -2.870336714,
				"element": "H" 
			},
			{
				"x": -1.9130610003,
				"y": 2.1342680965,
				"z": -4.1089987907,
				"element": "H" 
			},
			{
				"x": -0.0050411375,
				"y": 1.1029172716,
				"z": -2.9058043411,
				"element": "H" 
			},
			{
				"x": 0.8381627465,
				"y": -0.6852785871,
				"z": 1.870228076,
				"element": "H" 
			},
			{
				"x": 2.4972734565,
				"y": -1.4767948678,
				"z": 3.5079404622,
				"element": "H" 
			},
			{
				"x": 4.8996401008,
				"y": -1.614507994,
				"z": 2.8892221949,
				"element": "H" 
			},
			{
				"x": 5.6292004632,
				"y": -0.9570467805,
				"z": 0.6051872476,
				"element": "H" 
			},
			{
				"x": 3.9438862165,
				"y": -0.1489226048,
				"z": -1.0489920698,
				"element": "H" 
			}
		],
		 "valence_orbital": [ 
			{
				"type": "occ",
				"energy": -0.27346,
				"method": "rhf"
			},
			{
				"type": "occ",
				"energy": -0.27077,
				"method": "rhf"
			},
			{
				"type": "occ",
				"energy": -0.26395,
				"method": "rhf"
			},
			{
				"type": "occ",
				"energy": -0.26104,
				"method": "rhf"
			},
			{
				"type": "occ",
				"energy": -0.21963,
				"method": "rhf"
			},
			{
				"type": "unocc",
				"energy": -0.07412,
				"method": "rhf"
			},
			{
				"type": "unocc",
				"energy": -0.05008,
				"method": "rhf"
			},
			{
				"type": "unocc",
				"energy": -0.02909,
				"method": "rhf"
			},
			{
				"type": "unocc",
				"energy": -0.02152,
				"method": "rhf"
			},
			{
				"type": "unocc",
				"energy": 0.00062,
				"method": "rhf"
			}
		],
		"cosmo_sigma_profile": { 
			"-0.025": 0.0,
			"-0.024": 0.0,
			"-0.023": 0.0,
			"-0.022": 0.0,
			"-0.021": 0.0,
			"-0.02": 0.0,
			"-0.019": 0.0,
			"-0.018": 0.0,
			"-0.017": 0.0,
			"-0.016": 0.0936108977971,
			"-0.015": 0.860753733119,
			"-0.014": 1.07914902615,
			"-0.013": 1.06752018013,
			"-0.012": 1.47969791259,
			"-0.011": 1.5628499713,
			"-0.01": 1.43430452631,
			"-0.009": 2.59151267835,
			"-0.008": 5.09969484602,
			"-0.007": 9.29709229872,
			"-0.006": 18.9312924649,
			"-0.005": 19.3503389509,
			"-0.004": 20.1822397817,
			"-0.003": 16.1597618881,
			"-0.002": 20.6740227181,
			"-0.001": 20.864816471,
			"0.0": 24.1938133692,
			"0.001": 29.2249735309,
			"0.002": 29.2039351674,
			"0.003": 24.2776673374,
			"0.004": 21.7609875669,
			"0.005": 6.38434560667,
			"0.006": 3.78314468937,
			"0.007": 4.43183055174,
			"0.008": 4.57309442111,
			"0.009": 5.57670882949,
			"0.01": 4.29087027912,
			"0.011": 5.20678640776,
			"0.012": 4.94005862051,
			"0.013": 2.95068286559,
			"0.014": 0.0867633696049,
			"0.015": 0.0,
			"0.016": 0.0,
			"0.017": 0.0,
			"0.018": 0.0,
			"0.019": 0.0,
			"0.02": 0.0,
			"0.021": 0.0,
			"0.022": 0.0,
			"0.023": 0.0,
			"0.024": 0.0,
			"0.025": 0.0
		}
	}
}
