{
	 "smiles": "COC(=O)C1(CCCCC1)S(=O)(=O)C1=CC=C(Br)C=C1", 
	 "Tm": 385.15, 
	 "num_atms": 37, 
	 "gaussian": { 
		 "optdone": 1, 
		 "sigma_profile": "yes", 
		 "theory": "DFT", 
		 "functional": "B3LYP", 
		 "basiset": "6-31G**", 
		 "properties": { 
			 "R2extent": 10017.4753, 
			 "electric_dipole_moment_norm": 3.69382839071, 
			 "electric_quadrupole_moment_norm": 12.4597983567, 
			 "total_energy": -3814.17470173, 
			 "HOMO_LUMO_gap": 0.20806, 
			 "cosmo_polarized_energy": -16.83, 
			 "cosmo_cavitation_energy": 41.59, 
			 "cosmo_dispersion_energy": -29.32, 
			 "cosmo_repulsion_energy": 2.23, 
			 "cosmo_total_nonelectrostatic_energy": 14.5, 
			 "SMD_solvation_energy": 5.69 
		},
		"coords": [
			{
				"x": 2.7465021583,
				"y": 3.5413844348,
				"z": 1.8970982655,
				"element": "C" 
			},
			{
				"x": 2.3044714941,
				"y": 2.490268691,
				"z": 1.018083112,
				"element": "O" 
			},
			{
				"x": 0.9860691307,
				"y": 2.2361465668,
				"z": 1.0402525448,
				"element": "C" 
			},
			{
				"x": 0.1856512966,
				"y": 2.8693337895,
				"z": 1.6914594439,
				"element": "O" 
			},
			{
				"x": 0.6219139169,
				"y": 1.0423847072,
				"z": 0.1332487498,
				"element": "C" 
			},
			{
				"x": -0.9081920435,
				"y": 0.9498570333,
				"z": -0.0104610732,
				"element": "C" 
			},
			{
				"x": -1.4626606399,
				"y": 2.0888755669,
				"z": -0.8882132428,
				"element": "C" 
			},
			{
				"x": -0.762710273,
				"y": 2.1549301874,
				"z": -2.2528523632,
				"element": "C" 
			},
			{
				"x": 0.7606891432,
				"y": 2.2590313277,
				"z": -2.0921166907,
				"element": "C" 
			},
			{
				"x": 1.3193246752,
				"y": 1.1064690413,
				"z": -1.2398215585,
				"element": "C" 
			},
			{
				"x": 1.2822238144,
				"y": -0.4522811418,
				"z": 1.0871538266,
				"element": "S" 
			},
			{
				"x": 0.7515980157,
				"y": -0.3419915027,
				"z": 2.4571213703,
				"element": "O" 
			},
			{
				"x": 2.7280569049,
				"y": -0.5592739053,
				"z": 0.8315423963,
				"element": "O" 
			},
			{
				"x": 0.5223144692,
				"y": -1.9094436376,
				"z": 0.3385699392,
				"element": "C" 
			},
			{
				"x": 1.1728840597,
				"y": -2.5543175654,
				"z": -0.7157442608,
				"element": "C" 
			},
			{
				"x": 0.613693887,
				"y": -3.7083648195,
				"z": -1.2633036146,
				"element": "C" 
			},
			{
				"x": -0.5813914184,
				"y": -4.2008922014,
				"z": -0.7371975308,
				"element": "C" 
			},
			{
				"x": -1.3477751147,
				"y": -5.7783167661,
				"z": -1.4849032857,
				"element": "Br" 
			},
			{
				"x": -1.2224099964,
				"y": -3.572005389,
				"z": 0.3316108551,
				"element": "C" 
			},
			{
				"x": -0.6630099132,
				"y": -2.4167972196,
				"z": 0.875405527,
				"element": "C" 
			},
			{
				"x": 2.4916604705,
				"y": 3.2998100805,
				"z": 2.9312089807,
				"element": "H" 
			},
			{
				"x": 3.8268098971,
				"y": 3.5930569575,
				"z": 1.7680357569,
				"element": "H" 
			},
			{
				"x": 2.2767728419,
				"y": 4.4896280002,
				"z": 1.6248786267,
				"element": "H" 
			},
			{
				"x": -1.3688587846,
				"y": 0.9753339467,
				"z": 0.9797237496,
				"element": "H" 
			},
			{
				"x": -1.158620457,
				"y": -0.0078000672,
				"z": -0.4789556724,
				"element": "H" 
			},
			{
				"x": -1.3406032898,
				"y": 3.0395913053,
				"z": -0.3589074603,
				"element": "H" 
			},
			{
				"x": -2.5402319272,
				"y": 1.9377422472,
				"z": -1.0194289248,
				"element": "H" 
			},
			{
				"x": -1.141485427,
				"y": 3.0062068369,
				"z": -2.8300900304,
				"element": "H" 
			},
			{
				"x": -1.0022780533,
				"y": 1.2521956702,
				"z": -2.8328798595,
				"element": "H" 
			},
			{
				"x": 1.0193191046,
				"y": 3.2187372763,
				"z": -1.6246508915,
				"element": "H" 
			},
			{
				"x": 1.2535281541,
				"y": 2.2499358131,
				"z": -3.0709549954,
				"element": "H" 
			},
			{
				"x": 1.1334319013,
				"y": 0.1601015616,
				"z": -1.7636006804,
				"element": "H" 
			},
			{
				"x": 2.397418148,
				"y": 1.1991121528,
				"z": -1.1010736418,
				"element": "H" 
			},
			{
				"x": 2.1194523433,
				"y": -2.1720231281,
				"z": -1.0815757863,
				"element": "H" 
			},
			{
				"x": 1.1044311807,
				"y": -4.2251436997,
				"z": -2.0798335785,
				"element": "H" 
			},
			{
				"x": -2.1396536835,
				"y": -3.9836848335,
				"z": 0.7363330733,
				"element": "H" 
			},
			{
				"x": -1.1265359862,
				"y": -1.9217973172,
				"z": 1.7217389239,
				"element": "H" 
			}
		],
		 "valence_orbital": [ 
			{
				"type": "occ",
				"energy": -0.29869,
				"method": "rhf"
			},
			{
				"type": "occ",
				"energy": -0.28714,
				"method": "rhf"
			},
			{
				"type": "occ",
				"energy": -0.285,
				"method": "rhf"
			},
			{
				"type": "occ",
				"energy": -0.27326,
				"method": "rhf"
			},
			{
				"type": "occ",
				"energy": -0.26445,
				"method": "rhf"
			},
			{
				"type": "unocc",
				"energy": -0.05639,
				"method": "rhf"
			},
			{
				"type": "unocc",
				"energy": -0.03676,
				"method": "rhf"
			},
			{
				"type": "unocc",
				"energy": -0.01433,
				"method": "rhf"
			},
			{
				"type": "unocc",
				"energy": -0.0075,
				"method": "rhf"
			},
			{
				"type": "unocc",
				"energy": 0.0558,
				"method": "rhf"
			}
		],
		"cosmo_sigma_profile": { 
			"-0.025": 0.0,
			"-0.024": 0.0,
			"-0.023": 0.0,
			"-0.022": 0.0,
			"-0.021": 0.0,
			"-0.02": 0.0,
			"-0.019": 0.0,
			"-0.018": 0.0,
			"-0.017": 0.0,
			"-0.016": 0.0,
			"-0.015": 0.0,
			"-0.014": 0.0,
			"-0.013": 0.0,
			"-0.012": 0.0,
			"-0.011": 0.0,
			"-0.01": 0.0,
			"-0.009": 0.280331437128,
			"-0.008": 6.03417097505,
			"-0.007": 9.84275429482,
			"-0.006": 13.9588058958,
			"-0.005": 17.1635350136,
			"-0.004": 29.9345618474,
			"-0.003": 32.4386523774,
			"-0.002": 34.6661072809,
			"-0.001": 33.5106783597,
			"0.0": 32.6269099065,
			"0.001": 29.1777351785,
			"0.002": 11.1172898387,
			"0.003": 14.3962966526,
			"0.004": 14.3927978912,
			"0.005": 4.5586330943,
			"0.006": 5.33716152642,
			"0.007": 4.86027795128,
			"0.008": 5.92107908494,
			"0.009": 5.71452050068,
			"0.01": 9.92498521455,
			"0.011": 11.6965558519,
			"0.012": 3.83278142553,
			"0.013": 0.0,
			"0.014": 0.0,
			"0.015": 0.0,
			"0.016": 0.0,
			"0.017": 0.0,
			"0.018": 0.0,
			"0.019": 0.0,
			"0.02": 0.0,
			"0.021": 0.0,
			"0.022": 0.0,
			"0.023": 0.0,
			"0.024": 0.0,
			"0.025": 0.0
		}
	}
}
