{
	 "smiles": "OS(=O)C1=CC=CC=C1", 
	 "Tm": 357.15, 
	 "num_atms": 15, 
	 "gaussian": { 
		 "optdone": 1, 
		 "sigma_profile": "yes", 
		 "theory": "DFT", 
		 "functional": "B3LYP", 
		 "basiset": "6-31G**", 
		 "properties": { 
			 "R2extent": 1519.7972, 
			 "electric_dipole_moment_norm": 3.88440264391, 
			 "electric_quadrupole_moment_norm": 4.74106897545, 
			 "total_energy": -780.830477777, 
			 "HOMO_LUMO_gap": 0.20877, 
			 "cosmo_polarized_energy": -10.93, 
			 "cosmo_cavitation_energy": 20.68, 
			 "cosmo_dispersion_energy": -16.01, 
			 "cosmo_repulsion_energy": 1.26, 
			 "cosmo_total_nonelectrostatic_energy": 5.93, 
			 "SMD_solvation_energy": 2.78 
		},
		"coords": [
			{
				"x": -0.6293467001,
				"y": 1.2396777785,
				"z": -2.207991735,
				"element": "O" 
			},
			{
				"x": -0.8183843153,
				"y": 1.0748020344,
				"z": -0.5437883905,
				"element": "S" 
			},
			{
				"x": -0.3398620161,
				"y": 2.2985097763,
				"z": 0.1625590567,
				"element": "O" 
			},
			{
				"x": 0.5023938412,
				"y": -0.1571403387,
				"z": -0.3025105585,
				"element": "C" 
			},
			{
				"x": 0.4586942051,
				"y": -1.3694055583,
				"z": -0.9972962797,
				"element": "C" 
			},
			{
				"x": 1.4494830941,
				"y": -2.3217618392,
				"z": -0.7604888131,
				"element": "C" 
			},
			{
				"x": 2.4647892079,
				"y": -2.0608745879,
				"z": 0.1651962338,
				"element": "C" 
			},
			{
				"x": 2.49339256,
				"y": -0.8480635221,
				"z": 0.856727273,
				"element": "C" 
			},
			{
				"x": 1.5038245903,
				"y": 0.1108671582,
				"z": 0.6293023332,
				"element": "C" 
			},
			{
				"x": 0.289248577,
				"y": 1.5078185406,
				"z": -2.392396704,
				"element": "H" 
			},
			{
				"x": -0.3278715017,
				"y": -1.5571863912,
				"z": -1.7224943144,
				"element": "H" 
			},
			{
				"x": 1.4315408244,
				"y": -3.2654276754,
				"z": -1.2977411592,
				"element": "H" 
			},
			{
				"x": 3.2327944526,
				"y": -2.8067441791,
				"z": 0.3482771942,
				"element": "H" 
			},
			{
				"x": 3.283551839,
				"y": -0.6492543174,
				"z": 1.5748530873,
				"element": "H" 
			},
			{
				"x": 1.4974513415,
				"y": 1.0629831214,
				"z": 1.150892776,
				"element": "H" 
			}
		],
		 "valence_orbital": [ 
			{
				"type": "occ",
				"energy": -0.33725,
				"method": "rhf"
			},
			{
				"type": "occ",
				"energy": -0.30052,
				"method": "rhf"
			},
			{
				"type": "occ",
				"energy": -0.27131,
				"method": "rhf"
			},
			{
				"type": "occ",
				"energy": -0.26994,
				"method": "rhf"
			},
			{
				"type": "occ",
				"energy": -0.25035,
				"method": "rhf"
			},
			{
				"type": "unocc",
				"energy": -0.04158,
				"method": "rhf"
			},
			{
				"type": "unocc",
				"energy": -0.0203,
				"method": "rhf"
			},
			{
				"type": "unocc",
				"energy": 0.02625,
				"method": "rhf"
			},
			{
				"type": "unocc",
				"energy": 0.04734,
				"method": "rhf"
			},
			{
				"type": "unocc",
				"energy": 0.07693,
				"method": "rhf"
			}
		],
		"cosmo_sigma_profile": { 
			"-0.025": 0.0,
			"-0.024": 0.0,
			"-0.023": 0.0,
			"-0.022": 0.0,
			"-0.021": 0.0,
			"-0.02": 0.0,
			"-0.019": 0.0555288451353,
			"-0.018": 0.667127342892,
			"-0.017": 1.04136015652,
			"-0.016": 0.552043320759,
			"-0.015": 0.864201481646,
			"-0.014": 0.847400423815,
			"-0.013": 0.781351257337,
			"-0.012": 0.937029798891,
			"-0.011": 0.42125499776,
			"-0.01": 0.764231709238,
			"-0.009": 0.924570588236,
			"-0.008": 0.634713648587,
			"-0.007": 4.68717580217,
			"-0.006": 11.1566959313,
			"-0.005": 12.6178270161,
			"-0.004": 11.9940074015,
			"-0.003": 10.1199015339,
			"-0.002": 9.04062009542,
			"-0.001": 11.7872244562,
			"0.0": 11.769214724,
			"0.001": 12.2001355763,
			"0.002": 11.0923102065,
			"0.003": 12.5827727707,
			"0.004": 11.546921898,
			"0.005": 3.20135173919,
			"0.006": 2.8197224522,
			"0.007": 1.67621853861,
			"0.008": 1.79022817268,
			"0.009": 3.31921551169,
			"0.01": 3.12504076337,
			"0.011": 3.19442525481,
			"0.012": 4.20875950354,
			"0.013": 3.79285131939,
			"0.014": 0.56578065748,
			"0.015": 0.0,
			"0.016": 0.0,
			"0.017": 0.0,
			"0.018": 0.0,
			"0.019": 0.0,
			"0.02": 0.0,
			"0.021": 0.0,
			"0.022": 0.0,
			"0.023": 0.0,
			"0.024": 0.0,
			"0.025": 0.0
		}
	}
}
