{
	 "smiles": "CCC(=O)C(C[C@H](C)N(C)C)(C1=CC=CC=C1)C1=CC=CC=C1", 
	 "Tm": 373.15, 
	 "num_atms": 50, 
	 "gaussian": { 
		 "optdone": 1, 
		 "sigma_profile": "yes", 
		 "theory": "DFT", 
		 "functional": "B3LYP", 
		 "basiset": "6-31G**", 
		 "properties": { 
			 "R2extent": 7623.6141, 
			 "electric_dipole_moment_norm": 2.81048798076, 
			 "electric_quadrupole_moment_norm": 12.4466695441, 
			 "total_energy": -946.458361535, 
			 "HOMO_LUMO_gap": 0.16682, 
			 "cosmo_polarized_energy": -9.84, 
			 "cosmo_cavitation_energy": 47.39, 
			 "cosmo_dispersion_energy": -30.83, 
			 "cosmo_repulsion_energy": 2.36, 
			 "cosmo_total_nonelectrostatic_energy": 18.92, 
			 "SMD_solvation_energy": 6.45 
		},
		"coords": [
			{
				"x": -0.0372191356,
				"y": 1.3126042169,
				"z": 4.3607548946,
				"element": "C" 
			},
			{
				"x": 0.4869812192,
				"y": -0.1155557014,
				"z": 4.1143455802,
				"element": "C" 
			},
			{
				"x": 1.37334504,
				"y": -0.2365300547,
				"z": 2.874343459,
				"element": "C" 
			},
			{
				"x": 2.582728267,
				"y": -0.2186903613,
				"z": 3.0134421422,
				"element": "O" 
			},
			{
				"x": 0.7423449473,
				"y": -0.3585172202,
				"z": 1.4235323154,
				"element": "C" 
			},
			{
				"x": 1.8557802233,
				"y": -1.0045578638,
				"z": 0.5234780773,
				"element": "C" 
			},
			{
				"x": 1.698995665,
				"y": -1.0199269993,
				"z": -1.018327454,
				"element": "C" 
			},
			{
				"x": 0.6686468425,
				"y": -2.0550001591,
				"z": -1.4841503256,
				"element": "C" 
			},
			{
				"x": 3.0517517186,
				"y": -1.2689572435,
				"z": -1.58637431,
				"element": "N" 
			},
			{
				"x": 3.861509111,
				"y": -0.0538398085,
				"z": -1.5926122953,
				"element": "C" 
			},
			{
				"x": 3.0848029097,
				"y": -1.8682080749,
				"z": -2.915445068,
				"element": "C" 
			},
			{
				"x": -0.5311982188,
				"y": -1.220269773,
				"z": 1.5734503037,
				"element": "C" 
			},
			{
				"x": -0.4247894972,
				"y": -2.6184676585,
				"z": 1.6759793007,
				"element": "C" 
			},
			{
				"x": -1.5380709596,
				"y": -3.4210503892,
				"z": 1.9268840577,
				"element": "C" 
			},
			{
				"x": -2.7987883416,
				"y": -2.8478699339,
				"z": 2.0924701064,
				"element": "C" 
			},
			{
				"x": -2.9241752101,
				"y": -1.4612994081,
				"z": 2.0155831389,
				"element": "C" 
			},
			{
				"x": -1.806848997,
				"y": -0.6619401934,
				"z": 1.7669772399,
				"element": "C" 
			},
			{
				"x": 0.493389683,
				"y": 1.0743556543,
				"z": 0.8871924677,
				"element": "C" 
			},
			{
				"x": -0.4731062593,
				"y": 1.3360887161,
				"z": -0.0998381959,
				"element": "C" 
			},
			{
				"x": -0.6256345298,
				"y": 2.6105233323,
				"z": -0.6470170856,
				"element": "C" 
			},
			{
				"x": 0.1923740751,
				"y": 3.6609990605,
				"z": -0.2296244871,
				"element": "C" 
			},
			{
				"x": 1.1729506201,
				"y": 3.4145394861,
				"z": 0.7296953481,
				"element": "C" 
			},
			{
				"x": 1.3248091765,
				"y": 2.1378028704,
				"z": 1.2750400163,
				"element": "C" 
			},
			{
				"x": -0.7043950906,
				"y": 1.6491726056,
				"z": 3.5638337603,
				"element": "H" 
			},
			{
				"x": 0.7877180032,
				"y": 2.0273567008,
				"z": 4.433383136,
				"element": "H" 
			},
			{
				"x": -0.5934906392,
				"y": 1.3415834344,
				"z": 5.302725755,
				"element": "H" 
			},
			{
				"x": -0.3554156703,
				"y": -0.8074261568,
				"z": 4.0595791264,
				"element": "H" 
			},
			{
				"x": 1.1227574339,
				"y": -0.4138292223,
				"z": 4.9527989494,
				"element": "H" 
			},
			{
				"x": 2.7651396359,
				"y": -0.4608715661,
				"z": 0.7748424413,
				"element": "H" 
			},
			{
				"x": 2.0530242291,
				"y": -2.0299162126,
				"z": 0.8501255723,
				"element": "H" 
			},
			{
				"x": 1.3433416167,
				"y": -0.0324505277,
				"z": -1.3585204625,
				"element": "H" 
			},
			{
				"x": 0.5094018244,
				"y": -2.0153758758,
				"z": -2.5647622107,
				"element": "H" 
			},
			{
				"x": 0.9765381103,
				"y": -3.0722225612,
				"z": -1.2172194256,
				"element": "H" 
			},
			{
				"x": -0.2936262999,
				"y": -1.8682143582,
				"z": -1.0045560574,
				"element": "H" 
			},
			{
				"x": 4.892538873,
				"y": -0.2994016379,
				"z": -1.8680832546,
				"element": "H" 
			},
			{
				"x": 3.8865431821,
				"y": 0.4085577669,
				"z": -0.6036607689,
				"element": "H" 
			},
			{
				"x": 3.4897625843,
				"y": 0.7066929578,
				"z": -2.3070768127,
				"element": "H" 
			},
			{
				"x": 2.6047545058,
				"y": -2.8482555055,
				"z": -2.9216998591,
				"element": "H" 
			},
			{
				"x": 4.1311445496,
				"y": -2.0166847339,
				"z": -3.2021833408,
				"element": "H" 
			},
			{
				"x": 2.6136466786,
				"y": -1.2462073828,
				"z": -3.7024907776,
				"element": "H" 
			},
			{
				"x": 0.5404686723,
				"y": -3.0984374963,
				"z": 1.5631455435,
				"element": "H" 
			},
			{
				"x": -1.4144884207,
				"y": -4.4982968424,
				"z": 1.9947297402,
				"element": "H" 
			},
			{
				"x": -3.6673374942,
				"y": -3.4709406169,
				"z": 2.2845756452,
				"element": "H" 
			},
			{
				"x": -3.8943550892,
				"y": -0.9920736507,
				"z": 2.154035351,
				"element": "H" 
			},
			{
				"x": -1.9365734508,
				"y": 0.4131755781,
				"z": 1.7330437637,
				"element": "H" 
			},
			{
				"x": -1.1126057989,
				"y": 0.5354393775,
				"z": -0.4540733275,
				"element": "H" 
			},
			{
				"x": -1.383771873,
				"y": 2.7771679745,
				"z": -1.4072603517,
				"element": "H" 
			},
			{
				"x": 0.0721746325,
				"y": 4.6539757925,
				"z": -0.6528921663,
				"element": "H" 
			},
			{
				"x": 1.8297088912,
				"y": 4.2153101239,
				"z": 1.0579684291,
				"element": "H" 
			},
			{
				"x": 2.1118180547,
				"y": 1.9713395415,
				"z": 2.0021123755,
				"element": "H" 
			}
		],
		 "valence_orbital": [ 
			{
				"type": "occ",
				"energy": -0.25475,
				"method": "rhf"
			},
			{
				"type": "occ",
				"energy": -0.25061,
				"method": "rhf"
			},
			{
				"type": "occ",
				"energy": -0.24964,
				"method": "rhf"
			},
			{
				"type": "occ",
				"energy": -0.22699,
				"method": "rhf"
			},
			{
				"type": "occ",
				"energy": -0.1976,
				"method": "rhf"
			},
			{
				"type": "unocc",
				"energy": -0.03078,
				"method": "rhf"
			},
			{
				"type": "unocc",
				"energy": -0.01037,
				"method": "rhf"
			},
			{
				"type": "unocc",
				"energy": -0.00467,
				"method": "rhf"
			},
			{
				"type": "unocc",
				"energy": 0.00016,
				"method": "rhf"
			},
			{
				"type": "unocc",
				"energy": 0.00246,
				"method": "rhf"
			}
		],
		"cosmo_sigma_profile": { 
			"-0.025": 0.0,
			"-0.024": 0.0,
			"-0.023": 0.0,
			"-0.022": 0.0,
			"-0.021": 0.0,
			"-0.02": 0.0,
			"-0.019": 0.0,
			"-0.018": 0.0,
			"-0.017": 0.0,
			"-0.016": 0.0,
			"-0.015": 0.0,
			"-0.014": 0.0,
			"-0.013": 0.0,
			"-0.012": 0.0,
			"-0.011": 0.0,
			"-0.01": 0.0,
			"-0.009": 0.0,
			"-0.008": 0.0,
			"-0.007": 0.155207942091,
			"-0.006": 7.59647090498,
			"-0.005": 17.3532061408,
			"-0.004": 29.5440135752,
			"-0.003": 42.6144849824,
			"-0.002": 42.4821493087,
			"-0.001": 51.5577266952,
			"0.0": 48.2469893877,
			"0.001": 34.7999260966,
			"0.002": 20.7262087165,
			"0.003": 18.0443711591,
			"0.004": 17.2522594885,
			"0.005": 15.0513743585,
			"0.006": 7.49991135372,
			"0.007": 1.69325830601,
			"0.008": 2.79905468889,
			"0.009": 2.37003248167,
			"0.01": 2.25254152116,
			"0.011": 3.66536640505,
			"0.012": 3.76104378881,
			"0.013": 1.00718928776,
			"0.014": 0.215018557434,
			"0.015": 0.562818064219,
			"0.016": 0.206498993758,
			"0.017": 0.266874354242,
			"0.018": 0.0,
			"0.019": 0.0,
			"0.02": 0.0,
			"0.021": 0.0,
			"0.022": 0.0,
			"0.023": 0.0,
			"0.024": 0.0,
			"0.025": 0.0
		}
	}
}
