{
	 "smiles": "CCOC(=O)C1=C(N)N(N=C1SC)S(=O)(=O)C1=CC=C(C)C=C1", 
	 "Tm": 425.15, 
	 "num_atms": 40, 
	 "gaussian": { 
		 "optdone": 1, 
		 "sigma_profile": "yes", 
		 "theory": "DFT", 
		 "functional": "B3LYP", 
		 "basiset": "6-31G**", 
		 "properties": { 
			 "R2extent": 11130.3699, 
			 "electric_dipole_moment_norm": 4.9032588867, 
			 "electric_quadrupole_moment_norm": 22.990708787, 
			 "total_energy": -1805.20236754, 
			 "HOMO_LUMO_gap": 0.16155, 
			 "cosmo_polarized_energy": -17.26, 
			 "cosmo_cavitation_energy": 47.12, 
			 "cosmo_dispersion_energy": -33.13, 
			 "cosmo_repulsion_energy": 2.49, 
			 "cosmo_total_nonelectrostatic_energy": 16.48, 
			 "SMD_solvation_energy": 7.83 
		},
		"coords": [
			{
				"x": -1.41477003,
				"y": 2.340039269,
				"z": 5.7792608937,
				"element": "C" 
			},
			{
				"x": -0.1932935197,
				"y": 1.4629552285,
				"z": 5.5811131365,
				"element": "C" 
			},
			{
				"x": 0.096762974,
				"y": 1.4379855406,
				"z": 4.165609341,
				"element": "O" 
			},
			{
				"x": 1.1614937778,
				"y": 0.6998139363,
				"z": 3.788201615,
				"element": "C" 
			},
			{
				"x": 1.8558946967,
				"y": 0.0716674635,
				"z": 4.5863286936,
				"element": "O" 
			},
			{
				"x": 1.3981913699,
				"y": 0.725636287,
				"z": 2.360242805,
				"element": "C" 
			},
			{
				"x": 2.4642389531,
				"y": 0.027853327,
				"z": 1.7730869084,
				"element": "C" 
			},
			{
				"x": 3.3546154237,
				"y": -0.7852429214,
				"z": 2.3662837021,
				"element": "N" 
			},
			{
				"x": 2.4155166902,
				"y": 0.3353337619,
				"z": 0.4299509859,
				"element": "N" 
			},
			{
				"x": 1.3337750274,
				"y": 1.1595373792,
				"z": 0.1108521416,
				"element": "N" 
			},
			{
				"x": 0.7478324739,
				"y": 1.3933238826,
				"z": 1.2679213522,
				"element": "C" 
			},
			{
				"x": -0.6705541711,
				"y": 2.4323111289,
				"z": 1.3864708142,
				"element": "S" 
			},
			{
				"x": -0.8608439468,
				"y": 2.8943291067,
				"z": -0.369985059,
				"element": "C" 
			},
			{
				"x": 3.2988199357,
				"y": -0.3461798411,
				"z": -0.8806695129,
				"element": "S" 
			},
			{
				"x": 4.3676427077,
				"y": -1.1092249729,
				"z": -0.2253538699,
				"element": "O" 
			},
			{
				"x": 3.5815278618,
				"y": 0.7341696307,
				"z": -1.8115470872,
				"element": "O" 
			},
			{
				"x": 2.1451536946,
				"y": -1.4769132684,
				"z": -1.6303911344,
				"element": "C" 
			},
			{
				"x": 2.1856775649,
				"y": -2.8273011449,
				"z": -1.2796683702,
				"element": "C" 
			},
			{
				"x": 1.2786586476,
				"y": -3.7020061992,
				"z": -1.8740047941,
				"element": "C" 
			},
			{
				"x": 0.3330164482,
				"y": -3.2459479105,
				"z": -2.8035223279,
				"element": "C" 
			},
			{
				"x": -0.666388445,
				"y": -4.1949941645,
				"z": -3.4183123744,
				"element": "C" 
			},
			{
				"x": 0.3226168337,
				"y": -1.8824310783,
				"z": -3.1370047192,
				"element": "C" 
			},
			{
				"x": 1.2211042046,
				"y": -0.9905512429,
				"z": -2.558895174,
				"element": "C" 
			},
			{
				"x": -2.2748945461,
				"y": 1.9401045687,
				"z": 5.2349640584,
				"element": "H" 
			},
			{
				"x": -1.6690093748,
				"y": 2.3857517433,
				"z": 6.8429446265,
				"element": "H" 
			},
			{
				"x": -1.2263539877,
				"y": 3.3572097908,
				"z": 5.4246383057,
				"element": "H" 
			},
			{
				"x": -0.3620469439,
				"y": 0.4376326617,
				"z": 5.9252921516,
				"element": "H" 
			},
			{
				"x": 0.6814608597,
				"y": 1.8489034484,
				"z": 6.1140176621,
				"element": "H" 
			},
			{
				"x": 3.3008237613,
				"y": -0.7977129539,
				"z": 3.3787672573,
				"element": "H" 
			},
			{
				"x": 4.1695887768,
				"y": -1.0894779204,
				"z": 1.8558447907,
				"element": "H" 
			},
			{
				"x": -1.0617166757,
				"y": 2.014396508,
				"z": -0.9825902648,
				"element": "H" 
			},
			{
				"x": -1.7124942738,
				"y": 3.5766711013,
				"z": -0.4061088662,
				"element": "H" 
			},
			{
				"x": 0.0368803966,
				"y": 3.3945108189,
				"z": -0.735094646,
				"element": "H" 
			},
			{
				"x": 2.9242527332,
				"y": -3.1826727282,
				"z": -0.5699612428,
				"element": "H" 
			},
			{
				"x": 1.3094903987,
				"y": -4.7567274096,
				"z": -1.6151062715,
				"element": "H" 
			},
			{
				"x": -1.6086789952,
				"y": -4.1846927119,
				"z": -2.8566224633,
				"element": "H" 
			},
			{
				"x": -0.2960294811,
				"y": -5.2237641604,
				"z": -3.4171286885,
				"element": "H" 
			},
			{
				"x": -0.9005986905,
				"y": -3.9161955962,
				"z": -4.4498528478,
				"element": "H" 
			},
			{
				"x": -0.3964122415,
				"y": -1.5156920288,
				"z": -3.8644746388,
				"element": "H" 
			},
			{
				"x": 1.2191491111,
				"y": 0.0606916705,
				"z": -2.8221968887,
				"element": "H" 
			}
		],
		 "valence_orbital": [ 
			{
				"type": "occ",
				"energy": -0.27623,
				"method": "rhf"
			},
			{
				"type": "occ",
				"energy": -0.27128,
				"method": "rhf"
			},
			{
				"type": "occ",
				"energy": -0.26917,
				"method": "rhf"
			},
			{
				"type": "occ",
				"energy": -0.22495,
				"method": "rhf"
			},
			{
				"type": "occ",
				"energy": -0.21256,
				"method": "rhf"
			},
			{
				"type": "unocc",
				"energy": -0.05101,
				"method": "rhf"
			},
			{
				"type": "unocc",
				"energy": -0.02677,
				"method": "rhf"
			},
			{
				"type": "unocc",
				"energy": -0.00782,
				"method": "rhf"
			},
			{
				"type": "unocc",
				"energy": 0.01432,
				"method": "rhf"
			},
			{
				"type": "unocc",
				"energy": 0.03609,
				"method": "rhf"
			}
		],
		"cosmo_sigma_profile": { 
			"-0.025": 0.0,
			"-0.024": 0.0,
			"-0.023": 0.0,
			"-0.022": 0.0,
			"-0.021": 0.0,
			"-0.02": 0.0,
			"-0.019": 0.0,
			"-0.018": 0.0,
			"-0.017": 0.0,
			"-0.016": 0.0,
			"-0.015": 0.0,
			"-0.014": 0.0,
			"-0.013": 0.0347005549076,
			"-0.012": 0.756392805443,
			"-0.011": 1.40119521208,
			"-0.01": 1.72620066141,
			"-0.009": 1.61508126874,
			"-0.008": 1.8490363132,
			"-0.007": 7.92387562583,
			"-0.006": 15.6791439192,
			"-0.005": 27.4728669434,
			"-0.004": 31.2706042882,
			"-0.003": 32.7332219967,
			"-0.002": 34.5844656717,
			"-0.001": 36.4116361558,
			"0.0": 32.7902338419,
			"0.001": 26.0198020603,
			"0.002": 26.9947003615,
			"0.003": 19.6089515484,
			"0.004": 11.7093079473,
			"0.005": 12.4222298684,
			"0.006": 10.7279701163,
			"0.007": 10.6691228739,
			"0.008": 9.04414384373,
			"0.009": 10.1947380347,
			"0.01": 7.25409153941,
			"0.011": 3.39427927748,
			"0.012": 2.01517326954,
			"0.013": 0.561196303469,
			"0.014": 0.0,
			"0.015": 0.0,
			"0.016": 0.0,
			"0.017": 0.0,
			"0.018": 0.0,
			"0.019": 0.0,
			"0.02": 0.0,
			"0.021": 0.0,
			"0.022": 0.0,
			"0.023": 0.0,
			"0.024": 0.0,
			"0.025": 0.0
		}
	}
}
