{
	 "smiles": "CC1=CC=C(C=C1)S(=O)(=O)NC1CCCCC1", 
	 "Tm": 359.35, 
	 "num_atms": 36, 
	 "gaussian": { 
		 "optdone": 1, 
		 "sigma_profile": "yes", 
		 "theory": "DFT", 
		 "functional": "B3LYP", 
		 "basiset": "6-31G**", 
		 "properties": { 
			 "R2extent": 6021.5676, 
			 "electric_dipole_moment_norm": 4.79684860195, 
			 "electric_quadrupole_moment_norm": 25.3488881656, 
			 "total_energy": -1110.16882618, 
			 "HOMO_LUMO_gap": 0.21508, 
			 "cosmo_polarized_energy": -13.47, 
			 "cosmo_cavitation_energy": 37.97, 
			 "cosmo_dispersion_energy": -27.23, 
			 "cosmo_repulsion_energy": 2.09, 
			 "cosmo_total_nonelectrostatic_energy": 12.84, 
			 "SMD_solvation_energy": 4.45 
		},
		"coords": [
			{
				"x": -1.8940238401,
				"y": 5.2829562921,
				"z": 1.5799681056,
				"element": "C" 
			},
			{
				"x": -1.9582635003,
				"y": 3.8706973599,
				"z": 1.0501694789,
				"element": "C" 
			},
			{
				"x": -1.7526935259,
				"y": 3.5964299737,
				"z": -0.3065106735,
				"element": "C" 
			},
			{
				"x": -1.8286684016,
				"y": 2.292033762,
				"z": -0.7996226849,
				"element": "C" 
			},
			{
				"x": -2.1081892409,
				"y": 1.2495767849,
				"z": 0.081020603,
				"element": "C" 
			},
			{
				"x": -2.3228937783,
				"y": 1.4947839231,
				"z": 1.4410491619,
				"element": "C" 
			},
			{
				"x": -2.2439971819,
				"y": 2.7993300764,
				"z": 1.9143726124,
				"element": "C" 
			},
			{
				"x": -2.2477848836,
				"y": -0.4230170811,
				"z": -0.5480467762,
				"element": "S" 
			},
			{
				"x": -2.040306318,
				"y": -0.351252569,
				"z": -2.0015304747,
				"element": "O" 
			},
			{
				"x": -3.4495966694,
				"y": -1.0545107987,
				"z": 0.0097263261,
				"element": "O" 
			},
			{
				"x": -0.9681269516,
				"y": -1.2030135123,
				"z": 0.2241737766,
				"element": "N" 
			},
			{
				"x": 0.3868961673,
				"y": -1.1525751373,
				"z": -0.3757800943,
				"element": "C" 
			},
			{
				"x": 0.612488762,
				"y": -2.1498511566,
				"z": -1.5503595045,
				"element": "C" 
			},
			{
				"x": 1.3334616706,
				"y": -3.4467490197,
				"z": -1.1185960255,
				"element": "C" 
			},
			{
				"x": 0.9249829027,
				"y": -3.8773539482,
				"z": 0.2969434151,
				"element": "C" 
			},
			{
				"x": 1.3174890474,
				"y": -2.8059626675,
				"z": 1.3469281752,
				"element": "C" 
			},
			{
				"x": 1.4193673193,
				"y": -1.3883638859,
				"z": 0.7372226355,
				"element": "C" 
			},
			{
				"x": -1.5013761838,
				"y": 5.9750626812,
				"z": 0.8305082625,
				"element": "H" 
			},
			{
				"x": -2.8891780155,
				"y": 5.638670039,
				"z": 1.8724844565,
				"element": "H" 
			},
			{
				"x": -1.2563607968,
				"y": 5.3466858191,
				"z": 2.4681463482,
				"element": "H" 
			},
			{
				"x": -1.5329292453,
				"y": 4.4121439421,
				"z": -0.9900456508,
				"element": "H" 
			},
			{
				"x": -1.6805221964,
				"y": 2.0769400973,
				"z": -1.8520218766,
				"element": "H" 
			},
			{
				"x": -2.5489553882,
				"y": 0.6730659155,
				"z": 2.1120795711,
				"element": "H" 
			},
			{
				"x": -2.4085842887,
				"y": 2.9945356648,
				"z": 2.9710194894,
				"element": "H" 
			},
			{
				"x": -1.2939403301,
				"y": -2.130940165,
				"z": 0.4827031017,
				"element": "H" 
			},
			{
				"x": 0.498939951,
				"y": -0.1298903692,
				"z": -0.7480488697,
				"element": "H" 
			},
			{
				"x": -0.3565064842,
				"y": -2.3777056472,
				"z": -2.0026039017,
				"element": "H" 
			},
			{
				"x": 1.1967886111,
				"y": -1.6508745842,
				"z": -2.3317634304,
				"element": "H" 
			},
			{
				"x": 1.121638501,
				"y": -4.2438976627,
				"z": -1.8395353267,
				"element": "H" 
			},
			{
				"x": 2.4210159956,
				"y": -3.297140451,
				"z": -1.1420610712,
				"element": "H" 
			},
			{
				"x": -0.160561243,
				"y": -4.0497616174,
				"z": 0.3146394235,
				"element": "H" 
			},
			{
				"x": 1.3782987778,
				"y": -4.8408756985,
				"z": 0.553631925,
				"element": "H" 
			},
			{
				"x": 2.2829431963,
				"y": -3.0621498858,
				"z": 1.7974483182,
				"element": "H" 
			},
			{
				"x": 0.5920995895,
				"y": -2.807070103,
				"z": 2.1681170427,
				"element": "H" 
			},
			{
				"x": 1.308545844,
				"y": -0.6274988139,
				"z": 1.5157734056,
				"element": "H" 
			},
			{
				"x": 2.4129021276,
				"y": -1.2490575569,
				"z": 0.2937007261,
				"element": "H" 
			}
		],
		 "valence_orbital": [ 
			{
				"type": "occ",
				"energy": -0.30021,
				"method": "rhf"
			},
			{
				"type": "occ",
				"energy": -0.2884,
				"method": "rhf"
			},
			{
				"type": "occ",
				"energy": -0.27015,
				"method": "rhf"
			},
			{
				"type": "occ",
				"energy": -0.2649,
				"method": "rhf"
			},
			{
				"type": "occ",
				"energy": -0.24696,
				"method": "rhf"
			},
			{
				"type": "unocc",
				"energy": -0.03188,
				"method": "rhf"
			},
			{
				"type": "unocc",
				"energy": -0.01572,
				"method": "rhf"
			},
			{
				"type": "unocc",
				"energy": 0.05373,
				"method": "rhf"
			},
			{
				"type": "unocc",
				"energy": 0.07775,
				"method": "rhf"
			},
			{
				"type": "unocc",
				"energy": 0.08249,
				"method": "rhf"
			}
		],
		"cosmo_sigma_profile": { 
			"-0.025": 0.0,
			"-0.024": 0.0,
			"-0.023": 0.0,
			"-0.022": 0.0,
			"-0.021": 0.0,
			"-0.02": 0.0,
			"-0.019": 0.0,
			"-0.018": 0.0,
			"-0.017": 0.0,
			"-0.016": 0.0,
			"-0.015": 0.0,
			"-0.014": 0.0,
			"-0.013": 0.0,
			"-0.012": 0.336588981613,
			"-0.011": 1.10873221495,
			"-0.01": 1.49151219651,
			"-0.009": 1.40336716292,
			"-0.008": 1.32540878091,
			"-0.007": 3.78097787072,
			"-0.006": 9.21026815223,
			"-0.005": 13.6208127135,
			"-0.004": 19.1937551679,
			"-0.003": 31.5721626113,
			"-0.002": 37.1507012151,
			"-0.001": 39.0320169958,
			"0.0": 36.5218542952,
			"0.001": 25.1877739015,
			"0.002": 11.5148483895,
			"0.003": 16.6069067968,
			"0.004": 9.31121299173,
			"0.005": 3.58805723482,
			"0.006": 4.43442685849,
			"0.007": 3.21045565052,
			"0.008": 3.31742558093,
			"0.009": 3.87892283613,
			"0.01": 5.44967717511,
			"0.011": 9.01186244216,
			"0.012": 5.82544822226,
			"0.013": 0.206145542435,
			"0.014": 0.0,
			"0.015": 0.0,
			"0.016": 0.0,
			"0.017": 0.0,
			"0.018": 0.0,
			"0.019": 0.0,
			"0.02": 0.0,
			"0.021": 0.0,
			"0.022": 0.0,
			"0.023": 0.0,
			"0.024": 0.0,
			"0.025": 0.0
		}
	}
}
