{
	 "smiles": "CC(=O)NC(CC1=CC=CC=C1)C(=O)NC(CC1=CC(I)=C(O)C(I)=C1)C(O)=O", 
	 "Tm": 493.15, 
	 "num_atms": 49, 
	 "gaussian": { 
		 "optdone": 1, 
		 "sigma_profile": "no", 
		 "theory": "DFT", 
		 "functional": "B3LYP", 
		 "basiset": "6-31G**", 
		 "properties": { 
			 "R2extent": 14157.0452, 
			 "electric_dipole_moment_norm": 3.49192102574, 
			 "electric_quadrupole_moment_norm": 16.6496036022, 
			 "total_energy": -1282.62040912, 
			 "HOMO_LUMO_gap": 0.17201, 
			 "cosmo_polarized_energy": -212204.49, 
			 "cosmo_cavitation_energy": 60.17, 
			 "cosmo_dispersion_energy": -39.96, 
			 "cosmo_repulsion_energy": 3.01, 
			 "cosmo_total_nonelectrostatic_energy": 23.21, 
			 "SMD_solvation_energy": 10.74 
		},
		"coords": [
			{
				"x": -0.5103336835,
				"y": 1.0319225542,
				"z": 1.8634471367,
				"element": "C" 
			},
			{
				"x": -1.289484253,
				"y": 1.5806180954,
				"z": 0.6828463472,
				"element": "C" 
			},
			{
				"x": -1.5693693049,
				"y": 2.7658115729,
				"z": 0.5757397097,
				"element": "O" 
			},
			{
				"x": -1.6860510601,
				"y": 0.6906820352,
				"z": -0.3053904395,
				"element": "N" 
			},
			{
				"x": -1.6630050293,
				"y": -0.7737885606,
				"z": -0.2795267382,
				"element": "C" 
			},
			{
				"x": -2.4515491337,
				"y": -1.4391143001,
				"z": 0.8893622297,
				"element": "C" 
			},
			{
				"x": -3.3247537771,
				"y": -2.60161177,
				"z": 0.4545425674,
				"element": "C" 
			},
			{
				"x": -4.7064970385,
				"y": -2.4241126687,
				"z": 0.2983824834,
				"element": "C" 
			},
			{
				"x": -5.5235770652,
				"y": -3.4778995048,
				"z": -0.1153374649,
				"element": "C" 
			},
			{
				"x": -4.9673341878,
				"y": -4.7300860489,
				"z": -0.3795119373,
				"element": "C" 
			},
			{
				"x": -3.5919343862,
				"y": -4.9186558428,
				"z": -0.2260071744,
				"element": "C" 
			},
			{
				"x": -2.7758867587,
				"y": -3.8647880207,
				"z": 0.1869898171,
				"element": "C" 
			},
			{
				"x": -0.2293400973,
				"y": -1.3413593742,
				"z": -0.4125999002,
				"element": "C" 
			},
			{
				"x": 0.0920591002,
				"y": -2.4207446676,
				"z": 0.0701571678,
				"element": "O" 
			},
			{
				"x": 0.6233487317,
				"y": -0.5739076567,
				"z": -1.1530336514,
				"element": "N" 
			},
			{
				"x": 1.9061060114,
				"y": -1.0726696939,
				"z": -1.5966719993,
				"element": "C" 
			},
			{
				"x": 3.0380183564,
				"y": -0.0252328399,
				"z": -1.475533341,
				"element": "C" 
			},
			{
				"x": 3.3474599491,
				"y": 0.3862702352,
				"z": -0.0527627302,
				"element": "C" 
			},
			{
				"x": 3.0382925421,
				"y": 1.6662030061,
				"z": 0.412709563,
				"element": "C" 
			},
			{
				"x": 3.3467796665,
				"y": 2.0373353955,
				"z": 1.7213768372,
				"element": "C" 
			},
			{
				"x": 2.8672621753,
				"y": 3.9982811637,
				"z": 2.383443094,
				"element": "I" 
			},
			{
				"x": 3.9677971839,
				"y": 1.1500301605,
				"z": 2.6167013547,
				"element": "C" 
			},
			{
				"x": 4.2876224475,
				"y": 1.4574532343,
				"z": 3.8898436918,
				"element": "O" 
			},
			{
				"x": 4.269770315,
				"y": -0.1386166057,
				"z": 2.1354905935,
				"element": "C" 
			},
			{
				"x": 5.2086103807,
				"y": -1.5275594611,
				"z": 3.4207853825,
				"element": "I" 
			},
			{
				"x": 3.9690709523,
				"y": -0.5088610211,
				"z": 0.8293121586,
				"element": "C" 
			},
			{
				"x": 1.8854982611,
				"y": -1.6387184214,
				"z": -3.0233707407,
				"element": "C" 
			},
			{
				"x": 0.6430897461,
				"y": -1.7371674576,
				"z": -3.542617812,
				"element": "O" 
			},
			{
				"x": 2.8816503694,
				"y": -1.9773528804,
				"z": -3.6224760229,
				"element": "O" 
			},
			{
				"x": 0.2202307605,
				"y": 0.2702622785,
				"z": 1.5830384253,
				"element": "H" 
			},
			{
				"x": -1.2009422187,
				"y": 0.5866678201,
				"z": 2.5872580595,
				"element": "H" 
			},
			{
				"x": -0.0006806629,
				"y": 1.867271957,
				"z": 2.3433120989,
				"element": "H" 
			},
			{
				"x": -2.3266769161,
				"y": 1.1272710493,
				"z": -0.9567765425,
				"element": "H" 
			},
			{
				"x": -2.1499540188,
				"y": -1.074931303,
				"z": -1.2146748987,
				"element": "H" 
			},
			{
				"x": -3.0864162603,
				"y": -0.6682708941,
				"z": 1.3358564245,
				"element": "H" 
			},
			{
				"x": -1.7418809846,
				"y": -1.7727988154,
				"z": 1.6511005543,
				"element": "H" 
			},
			{
				"x": -5.1491946866,
				"y": -1.4534558268,
				"z": 0.5114178186,
				"element": "H" 
			},
			{
				"x": -6.5930366246,
				"y": -3.3208274917,
				"z": -0.2256260104,
				"element": "H" 
			},
			{
				"x": -5.6005339167,
				"y": -5.5532216847,
				"z": -0.6983535695,
				"element": "H" 
			},
			{
				"x": -3.1516424616,
				"y": -5.8918947267,
				"z": -0.4253513738,
				"element": "H" 
			},
			{
				"x": -1.7059538779,
				"y": -4.006691946,
				"z": 0.3002400779,
				"element": "H" 
			},
			{
				"x": 0.2547644967,
				"y": 0.2820384335,
				"z": -1.5443829385,
				"element": "H" 
			},
			{
				"x": 2.1309201787,
				"y": -1.9284023673,
				"z": -0.9496034904,
				"element": "H" 
			},
			{
				"x": 3.9226407229,
				"y": -0.4592638739,
				"z": -1.9505189932,
				"element": "H" 
			},
			{
				"x": 2.7710704009,
				"y": 0.8597459987,
				"z": -2.0661201093,
				"element": "H" 
			},
			{
				"x": 2.5618973675,
				"y": 2.3832459354,
				"z": -0.247256117,
				"element": "H" 
			},
			{
				"x": 4.031181376,
				"y": 2.3755432187,
				"z": 4.0761606535,
				"element": "H" 
			},
			{
				"x": 4.2277803636,
				"y": -1.5071055053,
				"z": 0.4913603378,
				"element": "H" 
			},
			{
				"x": 0.7516065485,
				"y": -2.1374429128,
				"z": -4.4224705891,
				"element": "H" 
			}
		],
		 "valence_orbital": [ 
			{
				"type": "occ",
				"energy": -0.25489,
				"method": "rhf"
			},
			{
				"type": "occ",
				"energy": -0.24816,
				"method": "rhf"
			},
			{
				"type": "occ",
				"energy": -0.24765,
				"method": "rhf"
			},
			{
				"type": "occ",
				"energy": -0.23823,
				"method": "rhf"
			},
			{
				"type": "occ",
				"energy": -0.23585,
				"method": "rhf"
			},
			{
				"type": "unocc",
				"energy": -0.06384,
				"method": "rhf"
			},
			{
				"type": "unocc",
				"energy": -0.03663,
				"method": "rhf"
			},
			{
				"type": "unocc",
				"energy": -0.02995,
				"method": "rhf"
			},
			{
				"type": "unocc",
				"energy": -0.02102,
				"method": "rhf"
			},
			{
				"type": "unocc",
				"energy": -0.00627,
				"method": "rhf"
			}
		],
		"cosmo_sigma_profile": { 
			"0.0": 0.0,
			"0.0": 0.0,
			"0.0": 0.0,
			"0.0": 0.0,
			"0.0": 0.0,
			"0.0": 0.0,
			"0.0": 0.0,
			"0.0": 0.0,
			"0.0": 0.0,
			"0.0": 0.0,
			"0.0": 0.0,
			"0.0": 0.0,
			"0.0": 0.0,
			"0.0": 0.0,
			"0.0": 0.0,
			"0.0": 0.0,
			"0.0": 0.0,
			"0.0": 0.0,
			"0.0": 0.0,
			"0.0": 0.0,
			"0.0": 0.0,
			"0.0": 0.0,
			"0.0": 0.0,
			"0.0": 0.0,
			"0.0": 0.0,
			"0.0": 0.0,
			"0.0": 0.0,
			"0.0": 0.0,
			"0.0": 0.0,
			"0.0": 0.0,
			"0.0": 0.0,
			"0.0": 0.0,
			"0.0": 0.0,
			"0.0": 0.0,
			"0.0": 0.0,
			"0.0": 0.0,
			"0.0": 0.0,
			"0.0": 0.0,
			"0.0": 0.0,
			"0.0": 0.0,
			"0.0": 0.0,
			"0.0": 0.0,
			"0.0": 0.0,
			"0.0": 0.0,
			"0.0": 0.0,
			"0.0": 0.0,
			"0.0": 0.0,
			"0.0": 0.0,
			"0.0": 0.0,
			"0.0": 0.0,
			"0.0": 0.0
		}
	}
}
