{
	 "smiles": "FC1=CC(NN=C(C#N)C2=NC3=C(S2)C=CC=C3)=CC=C1", 
	 "Tm": 469.15, 
	 "num_atms": 30, 
	 "gaussian": { 
		 "optdone": 1, 
		 "sigma_profile": "yes", 
		 "theory": "DFT", 
		 "functional": "B3LYP", 
		 "basiset": "6-31G**", 
		 "properties": { 
			 "R2extent": 8783.981, 
			 "electric_dipole_moment_norm": 6.86501036343, 
			 "electric_quadrupole_moment_norm": 15.4364801218, 
			 "total_energy": -1294.01064637, 
			 "HOMO_LUMO_gap": 0.1275, 
			 "cosmo_polarized_energy": -12.19, 
			 "cosmo_cavitation_energy": 38.96, 
			 "cosmo_dispersion_energy": -27.91, 
			 "cosmo_repulsion_energy": 2.03, 
			 "cosmo_total_nonelectrostatic_energy": 13.09, 
			 "SMD_solvation_energy": 6.34 
		},
		"coords": [
			{
				"x": -2.1626459254,
				"y": -5.5030533781,
				"z": 1.8431674248,
				"element": "F" 
			},
			{
				"x": -1.6012862739,
				"y": -4.3198496475,
				"z": 2.1592115768,
				"element": "C" 
			},
			{
				"x": -1.3202820151,
				"y": -3.4300503,
				"z": 1.1334021918,
				"element": "C" 
			},
			{
				"x": -0.7367993015,
				"y": -2.2026348335,
				"z": 1.4719967344,
				"element": "C" 
			},
			{
				"x": -0.4222654443,
				"y": -1.2488595909,
				"z": 0.4932213021,
				"element": "N" 
			},
			{
				"x": -0.6660700852,
				"y": -1.4787929687,
				"z": -0.7742979671,
				"element": "N" 
			},
			{
				"x": -0.364403022,
				"y": -0.5716469631,
				"z": -1.6821239691,
				"element": "C" 
			},
			{
				"x": -0.6730812543,
				"y": -0.9253538089,
				"z": -3.0368297659,
				"element": "C" 
			},
			{
				"x": -0.9061513864,
				"y": -1.1696788056,
				"z": -4.150629867,
				"element": "N" 
			},
			{
				"x": 0.2414403838,
				"y": 0.7277061699,
				"z": -1.4286962761,
				"element": "C" 
			},
			{
				"x": 0.5642190493,
				"y": 1.152926015,
				"z": -0.2308598169,
				"element": "N" 
			},
			{
				"x": 1.1215830362,
				"y": 2.417006393,
				"z": -0.2721055871,
				"element": "C" 
			},
			{
				"x": 1.226753037,
				"y": 2.9791966056,
				"z": -1.5682049845,
				"element": "C" 
			},
			{
				"x": 0.595138683,
				"y": 1.8565624929,
				"z": -2.7543989229,
				"element": "S" 
			},
			{
				"x": 1.7702710439,
				"y": 4.251205765,
				"z": -1.7656442083,
				"element": "C" 
			},
			{
				"x": 2.2088940731,
				"y": 4.9570164044,
				"z": -0.6488205163,
				"element": "C" 
			},
			{
				"x": 2.1092188354,
				"y": 4.4083537635,
				"z": 0.6426939688,
				"element": "C" 
			},
			{
				"x": 1.5695515484,
				"y": 3.1447141244,
				"z": 0.8415812366,
				"element": "C" 
			},
			{
				"x": -0.4492804911,
				"y": -1.8920253728,
				"z": 2.8092538153,
				"element": "C" 
			},
			{
				"x": -0.7482300042,
				"y": -2.8156697883,
				"z": 3.8088098988,
				"element": "C" 
			},
			{
				"x": -1.3295982288,
				"y": -4.0450187006,
				"z": 3.4973095997,
				"element": "C" 
			},
			{
				"x": -1.5455759226,
				"y": -3.6781329324,
				"z": 0.104494972,
				"element": "H" 
			},
			{
				"x": 0.0063329346,
				"y": -0.3498790835,
				"z": 0.7517834323,
				"element": "H" 
			},
			{
				"x": 1.8493527468,
				"y": 4.6788309359,
				"z": -2.7597134387,
				"element": "H" 
			},
			{
				"x": 2.634625723,
				"y": 5.9471718325,
				"z": -0.7789602051,
				"element": "H" 
			},
			{
				"x": 2.4596586698,
				"y": 4.9824032626,
				"z": 1.4948171535,
				"element": "H" 
			},
			{
				"x": 1.4873239565,
				"y": 2.7108172652,
				"z": 1.8326458002,
				"element": "H" 
			},
			{
				"x": 0.0031811963,
				"y": -0.9369897732,
				"z": 3.0590929242,
				"element": "H" 
			},
			{
				"x": -0.5252764829,
				"y": -2.5741999025,
				"z": 4.8433518196,
				"element": "H" 
			},
			{
				"x": -1.5706990793,
				"y": -4.7785751805,
				"z": 4.257851674,
				"element": "H" 
			}
		],
		 "valence_orbital": [ 
			{
				"type": "occ",
				"energy": -0.29344,
				"method": "rhf"
			},
			{
				"type": "occ",
				"energy": -0.26472,
				"method": "rhf"
			},
			{
				"type": "occ",
				"energy": -0.2591,
				"method": "rhf"
			},
			{
				"type": "occ",
				"energy": -0.25276,
				"method": "rhf"
			},
			{
				"type": "occ",
				"energy": -0.2199,
				"method": "rhf"
			},
			{
				"type": "unocc",
				"energy": -0.0924,
				"method": "rhf"
			},
			{
				"type": "unocc",
				"energy": -0.02833,
				"method": "rhf"
			},
			{
				"type": "unocc",
				"energy": -0.02271,
				"method": "rhf"
			},
			{
				"type": "unocc",
				"energy": -0.01223,
				"method": "rhf"
			},
			{
				"type": "unocc",
				"energy": -0.0083,
				"method": "rhf"
			}
		],
		"cosmo_sigma_profile": { 
			"-0.025": 0.0,
			"-0.024": 0.0,
			"-0.023": 0.0,
			"-0.022": 0.0,
			"-0.021": 0.0,
			"-0.02": 0.0,
			"-0.019": 0.0,
			"-0.018": 0.0,
			"-0.017": 0.0,
			"-0.016": 0.0,
			"-0.015": 0.0,
			"-0.014": 0.0,
			"-0.013": 0.0,
			"-0.012": 0.0360928460989,
			"-0.011": 0.810180101769,
			"-0.01": 1.20677184759,
			"-0.009": 0.807433205476,
			"-0.008": 3.54206554373,
			"-0.007": 12.4171094763,
			"-0.006": 16.3389102986,
			"-0.005": 16.6226344197,
			"-0.004": 18.720412157,
			"-0.003": 18.7520826616,
			"-0.002": 22.0633972844,
			"-0.001": 23.1494970265,
			"0.0": 29.5250779745,
			"0.001": 35.0505174897,
			"0.002": 34.5823750915,
			"0.003": 31.913179886,
			"0.004": 26.462389261,
			"0.005": 6.69479791046,
			"0.006": 3.00255001887,
			"0.007": 2.44166921962,
			"0.008": 3.39545051621,
			"0.009": 2.946735752,
			"0.01": 2.89719450115,
			"0.011": 2.51068754779,
			"0.012": 2.39985382061,
			"0.013": 0.468968150917,
			"0.014": 0.0,
			"0.015": 0.0,
			"0.016": 0.0,
			"0.017": 0.0,
			"0.018": 0.0,
			"0.019": 0.0,
			"0.02": 0.0,
			"0.021": 0.0,
			"0.022": 0.0,
			"0.023": 0.0,
			"0.024": 0.0,
			"0.025": 0.0
		}
	}
}
