{
	 "smiles": "OC(=O)COC1=CC=CC(Cl)=C1Cl", 
	 "Tm": 447.15, 
	 "num_atms": 19, 
	 "gaussian": { 
		 "optdone": 1, 
		 "sigma_profile": "yes", 
		 "theory": "DFT", 
		 "functional": "B3LYP", 
		 "basiset": "6-31G**", 
		 "properties": { 
			 "R2extent": 3845.787, 
			 "electric_dipole_moment_norm": 2.69759894721, 
			 "electric_quadrupole_moment_norm": 10.5851656794, 
			 "total_energy": -1454.51221585, 
			 "HOMO_LUMO_gap": 0.22725, 
			 "cosmo_polarized_energy": -11.24, 
			 "cosmo_cavitation_energy": 27.44, 
			 "cosmo_dispersion_energy": -20.23, 
			 "cosmo_repulsion_energy": 1.62, 
			 "cosmo_total_nonelectrostatic_energy": 8.83, 
			 "SMD_solvation_energy": 5.64 
		},
		"coords": [
			{
				"x": -2.5092605892,
				"y": -3.9016906781,
				"z": -0.1086883524,
				"element": "O" 
			},
			{
				"x": -2.4796298268,
				"y": -2.747773552,
				"z": -0.8134937331,
				"element": "C" 
			},
			{
				"x": -2.3801972642,
				"y": -2.7013100627,
				"z": -2.0165020193,
				"element": "O" 
			},
			{
				"x": -2.5956977663,
				"y": -1.5612699658,
				"z": 0.1365075362,
				"element": "C" 
			},
			{
				"x": -2.6438386141,
				"y": -0.3242602466,
				"z": -0.5472615332,
				"element": "O" 
			},
			{
				"x": -1.4405238148,
				"y": 0.2630703256,
				"z": -0.8649350819,
				"element": "C" 
			},
			{
				"x": -0.9335802,
				"y": 0.1376773488,
				"z": -2.1584671851,
				"element": "C" 
			},
			{
				"x": 0.2435882702,
				"y": 0.794826163,
				"z": -2.509788321,
				"element": "C" 
			},
			{
				"x": 0.923216477,
				"y": 1.5754826127,
				"z": -1.5773342232,
				"element": "C" 
			},
			{
				"x": 0.418408763,
				"y": 1.705765395,
				"z": -0.2823852487,
				"element": "C" 
			},
			{
				"x": 1.2908299877,
				"y": 2.7004050474,
				"z": 0.8608617547,
				"element": "Cl" 
			},
			{
				"x": -0.7679729788,
				"y": 1.0546805403,
				"z": 0.0851701262,
				"element": "C" 
			},
			{
				"x": -1.4395394147,
				"y": 1.2222212884,
				"z": 1.685780354,
				"element": "Cl" 
			},
			{
				"x": -2.4373767015,
				"y": -4.6245586248,
				"z": -0.7546213934,
				"element": "H" 
			},
			{
				"x": -1.7754592899,
				"y": -1.60685277,
				"z": 0.8630119749,
				"element": "H" 
			},
			{
				"x": -3.530889963,
				"y": -1.6590333826,
				"z": 0.6964408184,
				"element": "H" 
			},
			{
				"x": -1.4766888541,
				"y": -0.4890899809,
				"z": -2.855068583,
				"element": "H" 
			},
			{
				"x": 0.6382418827,
				"y": 0.696821471,
				"z": -3.5160618453,
				"element": "H" 
			},
			{
				"x": 1.8406698969,
				"y": 2.0897890712,
				"z": -1.8394650448,
				"element": "H" 
			}
		],
		 "valence_orbital": [ 
			{
				"type": "occ",
				"energy": -0.313,
				"method": "rhf"
			},
			{
				"type": "occ",
				"energy": -0.30665,
				"method": "rhf"
			},
			{
				"type": "occ",
				"energy": -0.28682,
				"method": "rhf"
			},
			{
				"type": "occ",
				"energy": -0.25361,
				"method": "rhf"
			},
			{
				"type": "occ",
				"energy": -0.2515,
				"method": "rhf"
			},
			{
				"type": "unocc",
				"energy": -0.02425,
				"method": "rhf"
			},
			{
				"type": "unocc",
				"energy": -0.02045,
				"method": "rhf"
			},
			{
				"type": "unocc",
				"energy": -0.00533,
				"method": "rhf"
			},
			{
				"type": "unocc",
				"energy": -0.00093,
				"method": "rhf"
			},
			{
				"type": "unocc",
				"energy": 0.06215,
				"method": "rhf"
			}
		],
		"cosmo_sigma_profile": { 
			"-0.025": 0.0,
			"-0.024": 0.0,
			"-0.023": 0.0,
			"-0.022": 0.0,
			"-0.021": 0.0,
			"-0.02": 0.0,
			"-0.019": 0.468510973827,
			"-0.018": 0.990118750536,
			"-0.017": 0.964825479841,
			"-0.016": 0.93109131902,
			"-0.015": 0.444987425443,
			"-0.014": 0.435844780154,
			"-0.013": 0.465953677009,
			"-0.012": 1.17954217104,
			"-0.011": 0.953578480041,
			"-0.01": 0.704562568109,
			"-0.009": 1.85401292351,
			"-0.008": 6.71442371854,
			"-0.007": 9.13537190348,
			"-0.006": 9.99429739421,
			"-0.005": 10.2149233717,
			"-0.004": 8.52088319608,
			"-0.003": 9.8405859885,
			"-0.002": 12.3173579749,
			"-0.001": 13.3149880752,
			"0.0": 18.7684547676,
			"0.001": 22.7888031579,
			"0.002": 20.7162458331,
			"0.003": 18.9879273168,
			"0.004": 19.0052160394,
			"0.005": 8.74911218529,
			"0.006": 4.13940943854,
			"0.007": 4.651462079,
			"0.008": 5.11878627731,
			"0.009": 4.55935102645,
			"0.01": 4.07709110383,
			"0.011": 2.65608296475,
			"0.012": 0.362446826807,
			"0.013": 0.0,
			"0.014": 0.0,
			"0.015": 0.0,
			"0.016": 0.0,
			"0.017": 0.0,
			"0.018": 0.0,
			"0.019": 0.0,
			"0.02": 0.0,
			"0.021": 0.0,
			"0.022": 0.0,
			"0.023": 0.0,
			"0.024": 0.0,
			"0.025": 0.0
		}
	}
}
