{
	 "smiles": "ClC(=O)C1=CC2=NON=C2C=C1", 
	 "Tm": 329.65, 
	 "num_atms": 15, 
	 "gaussian": { 
		 "optdone": 1, 
		 "sigma_profile": "yes", 
		 "theory": "DFT", 
		 "functional": "B3LYP", 
		 "basiset": "6-31G**", 
		 "properties": { 
			 "R2extent": 3088.3259, 
			 "electric_dipole_moment_norm": 1.98340759805, 
			 "electric_quadrupole_moment_norm": 12.6002262186, 
			 "total_energy": -988.597884909, 
			 "HOMO_LUMO_gap": 0.15119, 
			 "cosmo_polarized_energy": -8.16, 
			 "cosmo_cavitation_energy": 22.69, 
			 "cosmo_dispersion_energy": -17.13, 
			 "cosmo_repulsion_energy": 1.34, 
			 "cosmo_total_nonelectrostatic_energy": 6.89, 
			 "SMD_solvation_energy": 3.74 
		},
		"coords": [
			{
				"x": -4.0537839921,
				"y": 2.1525523291,
				"z": -0.7191516944,
				"element": "Cl" 
			},
			{
				"x": -2.2576453104,
				"y": 2.0275022538,
				"z": -0.980814856,
				"element": "C" 
			},
			{
				"x": -1.7425866862,
				"y": 2.7139925959,
				"z": -1.8106627332,
				"element": "O" 
			},
			{
				"x": -1.5499185666,
				"y": 1.0450222548,
				"z": -0.1096039375,
				"element": "C" 
			},
			{
				"x": -0.1894428071,
				"y": 0.9526303989,
				"z": -0.3114048856,
				"element": "C" 
			},
			{
				"x": 0.5199350584,
				"y": 0.0278357181,
				"z": 0.4990651252,
				"element": "C" 
			},
			{
				"x": 1.8118719584,
				"y": -0.2666723182,
				"z": 0.5231672868,
				"element": "N" 
			},
			{
				"x": 1.9264833703,
				"y": -1.2157525965,
				"z": 1.490338738,
				"element": "O" 
			},
			{
				"x": 0.7354028181,
				"y": -1.5383580104,
				"z": 2.0876739418,
				"element": "N" 
			},
			{
				"x": -0.1546308438,
				"y": -0.7709358164,
				"z": 1.4813822207,
				"element": "C" 
			},
			{
				"x": -1.5633798115,
				"y": -0.6551190702,
				"z": 1.6692874473,
				"element": "C" 
			},
			{
				"x": -2.2288814567,
				"y": 0.2400803103,
				"z": 0.8801024111,
				"element": "C" 
			},
			{
				"x": 0.3111694312,
				"y": 1.5599488943,
				"z": -1.0556600004,
				"element": "H" 
			},
			{
				"x": -2.0745702403,
				"y": -1.2577006533,
				"z": 2.4107425008,
				"element": "H" 
			},
			{
				"x": -3.2991229217,
				"y": 0.36047371,
				"z": 0.9889384356,
				"element": "H" 
			}
		],
		 "valence_orbital": [ 
			{
				"type": "occ",
				"energy": -0.33853,
				"method": "rhf"
			},
			{
				"type": "occ",
				"energy": -0.338,
				"method": "rhf"
			},
			{
				"type": "occ",
				"energy": -0.31792,
				"method": "rhf"
			},
			{
				"type": "occ",
				"energy": -0.31273,
				"method": "rhf"
			},
			{
				"type": "occ",
				"energy": -0.27581,
				"method": "rhf"
			},
			{
				"type": "unocc",
				"energy": -0.12462,
				"method": "rhf"
			},
			{
				"type": "unocc",
				"energy": -0.07109,
				"method": "rhf"
			},
			{
				"type": "unocc",
				"energy": -0.01727,
				"method": "rhf"
			},
			{
				"type": "unocc",
				"energy": 0.00277,
				"method": "rhf"
			},
			{
				"type": "unocc",
				"energy": 0.02217,
				"method": "rhf"
			}
		],
		"cosmo_sigma_profile": { 
			"-0.025": 0.0,
			"-0.024": 0.0,
			"-0.023": 0.0,
			"-0.022": 0.0,
			"-0.021": 0.0,
			"-0.02": 0.0,
			"-0.019": 0.0,
			"-0.018": 0.0,
			"-0.017": 0.0,
			"-0.016": 0.0,
			"-0.015": 0.0,
			"-0.014": 0.0,
			"-0.013": 0.0,
			"-0.012": 0.0,
			"-0.011": 0.0,
			"-0.01": 0.65176786688,
			"-0.009": 3.53267069973,
			"-0.008": 5.07076145391,
			"-0.007": 5.06698184137,
			"-0.006": 7.14926759597,
			"-0.005": 10.2884941944,
			"-0.004": 14.1282692623,
			"-0.003": 18.3968549027,
			"-0.002": 16.8817648859,
			"-0.001": 12.2744141926,
			"0.0": 12.3472613722,
			"0.001": 11.5819817026,
			"0.002": 8.79797395185,
			"0.003": 12.4350606702,
			"0.004": 15.0419860983,
			"0.005": 8.96993928801,
			"0.006": 4.72390625366,
			"0.007": 6.32367717231,
			"0.008": 6.17245367802,
			"0.009": 3.4089401464,
			"0.01": 2.47429763064,
			"0.011": 1.27045504379,
			"0.012": 0.0391484853876,
			"0.013": 0.0,
			"0.014": 0.0,
			"0.015": 0.0,
			"0.016": 0.0,
			"0.017": 0.0,
			"0.018": 0.0,
			"0.019": 0.0,
			"0.02": 0.0,
			"0.021": 0.0,
			"0.022": 0.0,
			"0.023": 0.0,
			"0.024": 0.0,
			"0.025": 0.0
		}
	}
}
