{
	 "smiles": "ClC1=CC(=CC=C1)P(C1=CC(Cl)=CC=C1)C1=CC=CC(Cl)=C1", 
	 "Tm": 338.15, 
	 "num_atms": 34, 
	 "gaussian": { 
		 "optdone": 1, 
		 "sigma_profile": "yes", 
		 "theory": "DFT", 
		 "functional": "B3LYP", 
		 "basiset": "6-31G**", 
		 "properties": { 
			 "R2extent": 10867.8735, 
			 "electric_dipole_moment_norm": 2.12727924589, 
			 "electric_quadrupole_moment_norm": 18.4087176015, 
			 "total_energy": -2415.07750194, 
			 "HOMO_LUMO_gap": 0.19064, 
			 "cosmo_polarized_energy": -8.73, 
			 "cosmo_cavitation_energy": 45.69, 
			 "cosmo_dispersion_energy": -31.39, 
			 "cosmo_repulsion_energy": 2.56, 
			 "cosmo_total_nonelectrostatic_energy": 16.86, 
			 "SMD_solvation_energy": 6.82 
		},
		"coords": [
			{
				"x": 2.4547632882,
				"y": -0.1007762205,
				"z": 4.8487384662,
				"element": "Cl" 
			},
			{
				"x": 2.0310266572,
				"y": -1.2755734835,
				"z": 3.6096749126,
				"element": "C" 
			},
			{
				"x": 1.0283026823,
				"y": -0.9628423023,
				"z": 2.6920095996,
				"element": "C" 
			},
			{
				"x": 0.6807478263,
				"y": -1.8942462581,
				"z": 1.7027021769,
				"element": "C" 
			},
			{
				"x": 1.3490473865,
				"y": -3.1293522452,
				"z": 1.6643845622,
				"element": "C" 
			},
			{
				"x": 2.3576738563,
				"y": -3.4196118552,
				"z": 2.5820111982,
				"element": "C" 
			},
			{
				"x": 2.7062904829,
				"y": -2.4944097225,
				"z": 3.5671254206,
				"element": "C" 
			},
			{
				"x": -0.653285282,
				"y": -1.6258223715,
				"z": 0.4439597187,
				"element": "P" 
			},
			{
				"x": -1.5673331364,
				"y": -0.1648857523,
				"z": 1.1285156113,
				"element": "C" 
			},
			{
				"x": -2.6747497696,
				"y": -0.4507575607,
				"z": 1.9435973775,
				"element": "C" 
			},
			{
				"x": -3.4186189689,
				"y": 0.5915061436,
				"z": 2.4924328445,
				"element": "C" 
			},
			{
				"x": -4.7986236161,
				"y": 0.2173096514,
				"z": 3.5158274989,
				"element": "Cl" 
			},
			{
				"x": -3.098865913,
				"y": 1.9247135414,
				"z": 2.2364339547,
				"element": "C" 
			},
			{
				"x": -2.0065125413,
				"y": 2.2062090746,
				"z": 1.4156449412,
				"element": "C" 
			},
			{
				"x": -1.2437572422,
				"y": 1.1746963349,
				"z": 0.8651867997,
				"element": "C" 
			},
			{
				"x": 0.2778063631,
				"y": -0.8769837517,
				"z": -0.9742217519,
				"element": "C" 
			},
			{
				"x": -0.3790178769,
				"y": -0.8414740927,
				"z": -2.2155880466,
				"element": "C" 
			},
			{
				"x": 0.2526743797,
				"y": -0.3088478424,
				"z": -3.3383727751,
				"element": "C" 
			},
			{
				"x": 1.5570889869,
				"y": 0.1804315466,
				"z": -3.2517070217,
				"element": "C" 
			},
			{
				"x": 2.2096510466,
				"y": 0.1306788357,
				"z": -2.0209110819,
				"element": "C" 
			},
			{
				"x": 3.8560980516,
				"y": 0.7386995314,
				"z": -1.895794005,
				"element": "Cl" 
			},
			{
				"x": 1.5888654552,
				"y": -0.3871808893,
				"z": -0.884141771,
				"element": "C" 
			},
			{
				"x": 0.5253051789,
				"y": -0.0048091592,
				"z": 2.7551966686,
				"element": "H" 
			},
			{
				"x": 1.0732988958,
				"y": -3.8672099571,
				"z": 0.9160051683,
				"element": "H" 
			},
			{
				"x": 2.8708881429,
				"y": -4.3757904665,
				"z": 2.5407547021,
				"element": "H" 
			},
			{
				"x": 3.4812166381,
				"y": -2.7135471648,
				"z": 4.293132579,
				"element": "H" 
			},
			{
				"x": -2.9601332216,
				"y": -1.4783797383,
				"z": 2.1452806427,
				"element": "H" 
			},
			{
				"x": -3.6962449475,
				"y": 2.7205270352,
				"z": 2.6671306721,
				"element": "H" 
			},
			{
				"x": -1.7487530838,
				"y": 3.2403674448,
				"z": 1.2063895225,
				"element": "H" 
			},
			{
				"x": -0.3989550741,
				"y": 1.4135648594,
				"z": 0.2279114388,
				"element": "H" 
			},
			{
				"x": -1.3868998751,
				"y": -1.2380201721,
				"z": -2.3023932272,
				"element": "H" 
			},
			{
				"x": -0.2658730547,
				"y": -0.2829304317,
				"z": -4.2922672872,
				"element": "H" 
			},
			{
				"x": 2.0628481702,
				"y": 0.586248872,
				"z": -4.1207188912,
				"element": "H" 
			},
			{
				"x": 2.1272301146,
				"y": -0.4090014336,
				"z": 0.0563693819,
				"element": "H" 
			}
		],
		 "valence_orbital": [ 
			{
				"type": "occ",
				"energy": -0.27292,
				"method": "rhf"
			},
			{
				"type": "occ",
				"energy": -0.25798,
				"method": "rhf"
			},
			{
				"type": "occ",
				"energy": -0.25501,
				"method": "rhf"
			},
			{
				"type": "occ",
				"energy": -0.25234,
				"method": "rhf"
			},
			{
				"type": "occ",
				"energy": -0.23116,
				"method": "rhf"
			},
			{
				"type": "unocc",
				"energy": -0.04052,
				"method": "rhf"
			},
			{
				"type": "unocc",
				"energy": -0.03995,
				"method": "rhf"
			},
			{
				"type": "unocc",
				"energy": -0.02897,
				"method": "rhf"
			},
			{
				"type": "unocc",
				"energy": -0.01991,
				"method": "rhf"
			},
			{
				"type": "unocc",
				"energy": -0.01707,
				"method": "rhf"
			}
		],
		"cosmo_sigma_profile": { 
			"-0.025": 0.0,
			"-0.024": 0.0,
			"-0.023": 0.0,
			"-0.022": 0.0,
			"-0.021": 0.0,
			"-0.02": 0.0,
			"-0.019": 0.0,
			"-0.018": 0.0,
			"-0.017": 0.0,
			"-0.016": 0.0,
			"-0.015": 0.0,
			"-0.014": 0.0,
			"-0.013": 0.0,
			"-0.012": 0.0,
			"-0.011": 0.0,
			"-0.01": 0.0,
			"-0.009": 0.0,
			"-0.008": 0.966399086702,
			"-0.007": 12.0916938909,
			"-0.006": 19.3660859049,
			"-0.005": 23.3098591926,
			"-0.004": 20.9502441486,
			"-0.003": 24.1979613289,
			"-0.002": 23.5204938872,
			"-0.001": 26.6601119129,
			"0.0": 30.8589806329,
			"0.001": 41.9419416118,
			"0.002": 46.1311562779,
			"0.003": 46.7168951482,
			"0.004": 33.9952434487,
			"0.005": 20.0320522512,
			"0.006": 0.688833493584,
			"0.007": 0.965789120848,
			"0.008": 0.71450484291,
			"0.009": 0.555884227626,
			"0.01": 0.552902942913,
			"0.011": 0.611930853389,
			"0.012": 0.51371689139,
			"0.013": 0.0,
			"0.014": 0.0,
			"0.015": 0.0,
			"0.016": 0.0,
			"0.017": 0.0,
			"0.018": 0.0,
			"0.019": 0.0,
			"0.02": 0.0,
			"0.021": 0.0,
			"0.022": 0.0,
			"0.023": 0.0,
			"0.024": 0.0,
			"0.025": 0.0
		}
	}
}
