{
	 "smiles": "COC1=C(OC)C=C(C=O)C(SC)=C1", 
	 "Tm": 385.15, 
	 "num_atms": 26, 
	 "gaussian": { 
		 "optdone": 1, 
		 "sigma_profile": "yes", 
		 "theory": "DFT", 
		 "functional": "B3LYP", 
		 "basiset": "6-31G**", 
		 "properties": { 
			 "R2extent": 4381.4238, 
			 "electric_dipole_moment_norm": 4.84693475921, 
			 "electric_quadrupole_moment_norm": 10.9861028227, 
			 "total_energy": -1012.11081713, 
			 "HOMO_LUMO_gap": 0.15453, 
			 "cosmo_polarized_energy": -12.12, 
			 "cosmo_cavitation_energy": 31.08, 
			 "cosmo_dispersion_energy": -22.69, 
			 "cosmo_repulsion_energy": 1.75, 
			 "cosmo_total_nonelectrostatic_energy": 10.14, 
			 "SMD_solvation_energy": 8.03 
		},
		"coords": [
			{
				"x": -2.1593119241,
				"y": -2.3783352165,
				"z": -0.5369598622,
				"element": "C" 
			},
			{
				"x": -0.8873514909,
				"y": -2.233930534,
				"z": -1.1606319046,
				"element": "O" 
			},
			{
				"x": 0.1151152745,
				"y": -1.640597153,
				"z": -0.4647064936,
				"element": "C" 
			},
			{
				"x": 1.3727335276,
				"y": -1.5758060391,
				"z": -1.1095673231,
				"element": "C" 
			},
			{
				"x": 1.5853655385,
				"y": -2.1221710946,
				"z": -2.3474671231,
				"element": "O" 
			},
			{
				"x": 0.9157962959,
				"y": -1.4886806665,
				"z": -3.4425935063,
				"element": "C" 
			},
			{
				"x": 2.4377390737,
				"y": -1.0154745474,
				"z": -0.424685436,
				"element": "C" 
			},
			{
				"x": 2.3224013135,
				"y": -0.4959926088,
				"z": 0.8797435754,
				"element": "C" 
			},
			{
				"x": 3.5864790538,
				"y": -0.0313777487,
				"z": 1.4842149631,
				"element": "C" 
			},
			{
				"x": 3.743757633,
				"y": 0.5035357642,
				"z": 2.5672301737,
				"element": "O" 
			},
			{
				"x": 1.0504343218,
				"y": -0.5187279912,
				"z": 1.5036168275,
				"element": "C" 
			},
			{
				"x": 0.6837217627,
				"y": 0.0147593117,
				"z": 3.1728957825,
				"element": "S" 
			},
			{
				"x": 1.0834595526,
				"y": 1.8003113816,
				"z": 3.1693879285,
				"element": "C" 
			},
			{
				"x": -0.0267149362,
				"y": -1.0979729724,
				"z": 0.817124417,
				"element": "C" 
			},
			{
				"x": -2.6118709099,
				"y": -1.4042946744,
				"z": -0.3157472798,
				"element": "H" 
			},
			{
				"x": -2.7826239443,
				"y": -2.9120383647,
				"z": -1.2551190711,
				"element": "H" 
			},
			{
				"x": -2.0858663612,
				"y": -2.9629209159,
				"z": 0.387330986,
				"element": "H" 
			},
			{
				"x": 1.2085116581,
				"y": -0.4337785798,
				"z": -3.521045201,
				"element": "H" 
			},
			{
				"x": -0.1710648793,
				"y": -1.5615435221,
				"z": -3.3463752398,
				"element": "H" 
			},
			{
				"x": 1.2394096799,
				"y": -2.0188487827,
				"z": -4.3402422944,
				"element": "H" 
			},
			{
				"x": 3.4036215956,
				"y": -1.0056783229,
				"z": -0.9228150044,
				"element": "H" 
			},
			{
				"x": 4.4675869267,
				"y": -0.2297915325,
				"z": 0.8330293495,
				"element": "H" 
			},
			{
				"x": 2.1601388832,
				"y": 1.943649897,
				"z": 3.0940142993,
				"element": "H" 
			},
			{
				"x": 0.7225187463,
				"y": 2.1782384894,
				"z": 4.1291806656,
				"element": "H" 
			},
			{
				"x": 0.5542126484,
				"y": 2.3118426958,
				"z": 2.3629581326,
				"element": "H" 
			},
			{
				"x": -0.9912990399,
				"y": -1.1122762724,
				"z": 1.3084286386,
				"element": "H" 
			}
		],
		 "valence_orbital": [ 
			{
				"type": "occ",
				"energy": -0.28686,
				"method": "rhf"
			},
			{
				"type": "occ",
				"energy": -0.26225,
				"method": "rhf"
			},
			{
				"type": "occ",
				"energy": -0.25079,
				"method": "rhf"
			},
			{
				"type": "occ",
				"energy": -0.23548,
				"method": "rhf"
			},
			{
				"type": "occ",
				"energy": -0.21366,
				"method": "rhf"
			},
			{
				"type": "unocc",
				"energy": -0.05913,
				"method": "rhf"
			},
			{
				"type": "unocc",
				"energy": -0.01623,
				"method": "rhf"
			},
			{
				"type": "unocc",
				"energy": 0.04039,
				"method": "rhf"
			},
			{
				"type": "unocc",
				"energy": 0.05294,
				"method": "rhf"
			},
			{
				"type": "unocc",
				"energy": 0.07909,
				"method": "rhf"
			}
		],
		"cosmo_sigma_profile": { 
			"-0.025": 0.0,
			"-0.024": 0.0,
			"-0.023": 0.0,
			"-0.022": 0.0,
			"-0.021": 0.0,
			"-0.02": 0.0,
			"-0.019": 0.0,
			"-0.018": 0.0,
			"-0.017": 0.0,
			"-0.016": 0.0,
			"-0.015": 0.0,
			"-0.014": 0.0,
			"-0.013": 0.0,
			"-0.012": 0.0,
			"-0.011": 0.0,
			"-0.01": 0.0,
			"-0.009": 0.0,
			"-0.008": 1.62445987793,
			"-0.007": 7.22588505648,
			"-0.006": 16.8177638532,
			"-0.005": 19.6600353043,
			"-0.004": 22.7212257104,
			"-0.003": 22.8835590892,
			"-0.002": 20.5375749642,
			"-0.001": 22.1766492361,
			"0.0": 17.3643431436,
			"0.001": 17.875039062,
			"0.002": 18.5017841659,
			"0.003": 9.93979852493,
			"0.004": 6.16815668981,
			"0.005": 7.40915485239,
			"0.006": 6.86374598379,
			"0.007": 5.14618493571,
			"0.008": 5.58798051734,
			"0.009": 5.33701015099,
			"0.01": 4.92951000705,
			"0.011": 4.86535267296,
			"0.012": 3.90244107189,
			"0.013": 1.44905195188,
			"0.014": 0.00102898502621,
			"0.015": 0.0,
			"0.016": 0.0,
			"0.017": 0.0,
			"0.018": 0.0,
			"0.019": 0.0,
			"0.02": 0.0,
			"0.021": 0.0,
			"0.022": 0.0,
			"0.023": 0.0,
			"0.024": 0.0,
			"0.025": 0.0
		}
	}
}
