{
	 "smiles": "CCCCSP(=O)(SCCCC)SCCCC", 
	 "Tm": 248.15, 
	 "num_atms": 44, 
	 "gaussian": { 
		 "optdone": 1, 
		 "sigma_profile": "yes", 
		 "theory": "DFT", 
		 "functional": "B3LYP", 
		 "basiset": "6-31G**", 
		 "properties": { 
			 "R2extent": 8749.8474, 
			 "electric_dipole_moment_norm": 3.40527571424, 
			 "electric_quadrupole_moment_norm": 13.2566896305, 
			 "total_energy": -2084.77727598, 
			 "HOMO_LUMO_gap": 0.20907, 
			 "cosmo_polarized_energy": -11.13, 
			 "cosmo_cavitation_energy": 49.87, 
			 "cosmo_dispersion_energy": -33.88, 
			 "cosmo_repulsion_energy": 2.63, 
			 "cosmo_total_nonelectrostatic_energy": 18.62, 
			 "SMD_solvation_energy": 6.96 
		},
		"coords": [
			{
				"x": 3.8256342247,
				"y": -2.9094248545,
				"z": 0.0282519109,
				"element": "C" 
			},
			{
				"x": 2.7843080355,
				"y": -3.7315045739,
				"z": 0.797261082,
				"element": "C" 
			},
			{
				"x": 1.8070284739,
				"y": -2.9318267496,
				"z": 1.6774946197,
				"element": "C" 
			},
			{
				"x": 0.6689568205,
				"y": -2.1903581987,
				"z": 0.9609468506,
				"element": "C" 
			},
			{
				"x": 1.2323904572,
				"y": -0.6134260576,
				"z": 0.1484398228,
				"element": "S" 
			},
			{
				"x": -0.6337324971,
				"y": -0.0119269627,
				"z": -0.6802478817,
				"element": "P" 
			},
			{
				"x": -1.4511157763,
				"y": -1.1652294745,
				"z": -1.1692730638,
				"element": "O" 
			},
			{
				"x": -0.0660957931,
				"y": 1.4507515174,
				"z": -2.1062107458,
				"element": "S" 
			},
			{
				"x": 0.782223528,
				"y": 0.3923065051,
				"z": -3.3809425678,
				"element": "C" 
			},
			{
				"x": -0.1662047471,
				"y": -0.3853199245,
				"z": -4.2965776191,
				"element": "C" 
			},
			{
				"x": -1.0221533466,
				"y": 0.491149606,
				"z": -5.2180085991,
				"element": "C" 
			},
			{
				"x": -1.9351640816,
				"y": -0.331778323,
				"z": -6.1322612,
				"element": "C" 
			},
			{
				"x": -1.7380869916,
				"y": 1.101789703,
				"z": 0.7465611431,
				"element": "S" 
			},
			{
				"x": -0.501866706,
				"y": 2.2730564482,
				"z": 1.487916234,
				"element": "C" 
			},
			{
				"x": -0.0468883924,
				"y": 1.8516717117,
				"z": 2.8864130601,
				"element": "C" 
			},
			{
				"x": 0.9379919688,
				"y": 2.8462898135,
				"z": 3.5276257293,
				"element": "C" 
			},
			{
				"x": 0.3387052119,
				"y": 4.2194424389,
				"z": 3.8554998098,
				"element": "C" 
			},
			{
				"x": 4.5249862348,
				"y": -3.5689383016,
				"z": -0.4965974161,
				"element": "H" 
			},
			{
				"x": 3.3648961509,
				"y": -2.2536115881,
				"z": -0.7150689929,
				"element": "H" 
			},
			{
				"x": 4.4115183612,
				"y": -2.2803392455,
				"z": 0.7084399867,
				"element": "H" 
			},
			{
				"x": 3.3123467215,
				"y": -4.4374054552,
				"z": 1.4509860221,
				"element": "H" 
			},
			{
				"x": 2.2068246576,
				"y": -4.3477128921,
				"z": 0.095116307,
				"element": "H" 
			},
			{
				"x": 2.361135999,
				"y": -2.2360558896,
				"z": 2.3211962299,
				"element": "H" 
			},
			{
				"x": 1.3102197568,
				"y": -3.6368856283,
				"z": 2.3570299413,
				"element": "H" 
			},
			{
				"x": 0.2067652003,
				"y": -2.8083062225,
				"z": 0.1883568366,
				"element": "H" 
			},
			{
				"x": -0.1040283125,
				"y": -1.9134340437,
				"z": 1.6824400631,
				"element": "H" 
			},
			{
				"x": 1.4713405266,
				"y": -0.272030949,
				"z": -2.8536711897,
				"element": "H" 
			},
			{
				"x": 1.3844304376,
				"y": 1.1131797954,
				"z": -3.9439809897,
				"element": "H" 
			},
			{
				"x": 0.4583923839,
				"y": -1.0528811433,
				"z": -4.9084665883,
				"element": "H" 
			},
			{
				"x": -0.8071597761,
				"y": -1.0282198657,
				"z": -3.6835776206,
				"element": "H" 
			},
			{
				"x": -1.6298939241,
				"y": 1.170198567,
				"z": -4.6083295326,
				"element": "H" 
			},
			{
				"x": -0.3651752018,
				"y": 1.1268976023,
				"z": -5.8284166938,
				"element": "H" 
			},
			{
				"x": -1.3550878571,
				"y": -1.0022459232,
				"z": -6.7770431625,
				"element": "H" 
			},
			{
				"x": -2.6242144529,
				"y": -0.9500928379,
				"z": -5.5465826134,
				"element": "H" 
			},
			{
				"x": -2.536077189,
				"y": 0.3144923535,
				"z": -6.7801268222,
				"element": "H" 
			},
			{
				"x": -1.0155829925,
				"y": 3.2373700863,
				"z": 1.4991518979,
				"element": "H" 
			},
			{
				"x": 0.3477735955,
				"y": 2.3665316515,
				"z": 0.805697735,
				"element": "H" 
			},
			{
				"x": -0.9253680332,
				"y": 1.7329065624,
				"z": 3.5334962305,
				"element": "H" 
			},
			{
				"x": 0.4287971114,
				"y": 0.8677031603,
				"z": 2.8146721726,
				"element": "H" 
			},
			{
				"x": 1.3211186128,
				"y": 2.3947864512,
				"z": 4.4511754248,
				"element": "H" 
			},
			{
				"x": 1.8079773105,
				"y": 2.9697560274,
				"z": 2.8686870711,
				"element": "H" 
			},
			{
				"x": 0.0180869557,
				"y": 4.7561859715,
				"z": 2.9564682537,
				"element": "H" 
			},
			{
				"x": 1.0702575835,
				"y": 4.85313272,
				"z": 4.3670199014,
				"element": "H" 
			},
			{
				"x": -0.5333102488,
				"y": 4.1225564123,
				"z": 4.5125389629,
				"element": "H" 
			}
		],
		 "valence_orbital": [ 
			{
				"type": "occ",
				"energy": -0.28129,
				"method": "rhf"
			},
			{
				"type": "occ",
				"energy": -0.2779,
				"method": "rhf"
			},
			{
				"type": "occ",
				"energy": -0.26018,
				"method": "rhf"
			},
			{
				"type": "occ",
				"energy": -0.25209,
				"method": "rhf"
			},
			{
				"type": "occ",
				"energy": -0.24568,
				"method": "rhf"
			},
			{
				"type": "unocc",
				"energy": -0.03661,
				"method": "rhf"
			},
			{
				"type": "unocc",
				"energy": -0.00257,
				"method": "rhf"
			},
			{
				"type": "unocc",
				"energy": 0.012,
				"method": "rhf"
			},
			{
				"type": "unocc",
				"energy": 0.02761,
				"method": "rhf"
			},
			{
				"type": "unocc",
				"energy": 0.04939,
				"method": "rhf"
			}
		],
		"cosmo_sigma_profile": { 
			"-0.025": 0.0,
			"-0.024": 0.0,
			"-0.023": 0.0,
			"-0.022": 0.0,
			"-0.021": 0.0,
			"-0.02": 0.0,
			"-0.019": 0.0,
			"-0.018": 0.0,
			"-0.017": 0.0,
			"-0.016": 0.0,
			"-0.015": 0.0,
			"-0.014": 0.0,
			"-0.013": 0.0,
			"-0.012": 0.0,
			"-0.011": 0.0,
			"-0.01": 0.0,
			"-0.009": 0.0,
			"-0.008": 0.0,
			"-0.007": 0.829855191105,
			"-0.006": 4.71785058734,
			"-0.005": 9.21378077943,
			"-0.004": 21.6738886279,
			"-0.003": 47.4306034314,
			"-0.002": 61.3797913208,
			"-0.001": 54.2190161023,
			"0.0": 52.5441843727,
			"0.001": 47.9200762855,
			"0.002": 24.5171110701,
			"0.003": 14.6727688842,
			"0.004": 14.5337616546,
			"0.005": 11.0882717909,
			"0.006": 7.47887811524,
			"0.007": 3.53982784173,
			"0.008": 2.35286118891,
			"0.009": 1.53189798181,
			"0.01": 1.61951583833,
			"0.011": 1.12519668569,
			"0.012": 1.82635537361,
			"0.013": 4.15284403901,
			"0.014": 1.91958701431,
			"0.015": 0.0123224503424,
			"0.016": 0.0,
			"0.017": 0.0,
			"0.018": 0.0,
			"0.019": 0.0,
			"0.02": 0.0,
			"0.021": 0.0,
			"0.022": 0.0,
			"0.023": 0.0,
			"0.024": 0.0,
			"0.025": 0.0
		}
	}
}
