{
	 "smiles": "CCC1=C(CC2=C(O1)C=CC=C2)C(O)=O", 
	 "Tm": 497.15, 
	 "num_atms": 27, 
	 "gaussian": { 
		 "optdone": 1, 
		 "sigma_profile": "yes", 
		 "theory": "DFT", 
		 "functional": "B3LYP", 
		 "basiset": "6-31G**", 
		 "properties": { 
			 "R2extent": 3599.7158, 
			 "electric_dipole_moment_norm": 4.16519662441, 
			 "electric_quadrupole_moment_norm": 17.4568638996, 
			 "total_energy": -690.181881889, 
			 "HOMO_LUMO_gap": 0.18581, 
			 "cosmo_polarized_energy": -13.45, 
			 "cosmo_cavitation_energy": 30.29, 
			 "cosmo_dispersion_energy": -22.0, 
			 "cosmo_repulsion_energy": 1.73, 
			 "cosmo_total_nonelectrostatic_energy": 10.02, 
			 "SMD_solvation_energy": 6.2 
		},
		"coords": [
			{
				"x": -2.0864602736,
				"y": 0.7907209063,
				"z": 2.9453988745,
				"element": "C" 
			},
			{
				"x": -2.6801571682,
				"y": 0.3411490363,
				"z": 1.5971008668,
				"element": "C" 
			},
			{
				"x": -1.6298807621,
				"y": 0.2222878067,
				"z": 0.520150106,
				"element": "C" 
			},
			{
				"x": -1.5370450715,
				"y": 0.8940537506,
				"z": -0.6506048602,
				"element": "C" 
			},
			{
				"x": -0.2979045849,
				"y": 0.8141584835,
				"z": -1.5206927015,
				"element": "C" 
			},
			{
				"x": 0.6343604026,
				"y": -0.2875881984,
				"z": -1.0794092794,
				"element": "C" 
			},
			{
				"x": 0.4042345806,
				"y": -0.9654614492,
				"z": 0.1178862726,
				"element": "C" 
			},
			{
				"x": -0.6734697377,
				"y": -0.6672067197,
				"z": 0.9342570139,
				"element": "O" 
			},
			{
				"x": 1.2465505742,
				"y": -1.9825450764,
				"z": 0.5675026204,
				"element": "C" 
			},
			{
				"x": 2.3552849947,
				"y": -2.3354853647,
				"z": -0.1976558527,
				"element": "C" 
			},
			{
				"x": 2.6098669074,
				"y": -1.6753192281,
				"z": -1.4029738346,
				"element": "C" 
			},
			{
				"x": 1.752036714,
				"y": -0.6637393581,
				"z": -1.83308512,
				"element": "C" 
			},
			{
				"x": -2.5330820419,
				"y": 1.8934021905,
				"z": -1.1305173101,
				"element": "C" 
			},
			{
				"x": -3.8597971426,
				"y": 1.6165734919,
				"z": -0.9531781891,
				"element": "O" 
			},
			{
				"x": -2.2103795386,
				"y": 2.9062994592,
				"z": -1.7083507185,
				"element": "O" 
			},
			{
				"x": -1.3283257984,
				"y": 0.087245897,
				"z": 3.2956242299,
				"element": "H" 
			},
			{
				"x": -1.6240396856,
				"y": 1.77837024,
				"z": 2.8564835591,
				"element": "H" 
			},
			{
				"x": -2.8764162934,
				"y": 0.8519566633,
				"z": 3.6994870593,
				"element": "H" 
			},
			{
				"x": -3.4511436518,
				"y": 1.0490761209,
				"z": 1.2916947729,
				"element": "H" 
			},
			{
				"x": -3.1572231431,
				"y": -0.639757565,
				"z": 1.7267217784,
				"element": "H" 
			},
			{
				"x": -0.5876487754,
				"y": 0.6659735867,
				"z": -2.5692062337,
				"element": "H" 
			},
			{
				"x": 0.2075758066,
				"y": 1.7895287172,
				"z": -1.5005467818,
				"element": "H" 
			},
			{
				"x": 1.0186683513,
				"y": -2.4773325528,
				"z": 1.5058603328,
				"element": "H" 
			},
			{
				"x": 3.01657138,
				"y": -3.1251407105,
				"z": 0.1458987822,
				"element": "H" 
			},
			{
				"x": 3.4713864919,
				"y": -1.9481105687,
				"z": -2.0045808535,
				"element": "H" 
			},
			{
				"x": 1.9472644759,
				"y": -0.1494942361,
				"z": -2.7709650694,
				"element": "H" 
			},
			{
				"x": -3.9552270106,
				"y": 0.6953846774,
				"z": -0.6739994642,
				"element": "H" 
			}
		],
		 "valence_orbital": [ 
			{
				"type": "occ",
				"energy": -0.31218,
				"method": "rhf"
			},
			{
				"type": "occ",
				"energy": -0.27627,
				"method": "rhf"
			},
			{
				"type": "occ",
				"energy": -0.26457,
				"method": "rhf"
			},
			{
				"type": "occ",
				"energy": -0.25448,
				"method": "rhf"
			},
			{
				"type": "occ",
				"energy": -0.22191,
				"method": "rhf"
			},
			{
				"type": "unocc",
				"energy": -0.0361,
				"method": "rhf"
			},
			{
				"type": "unocc",
				"energy": -0.01319,
				"method": "rhf"
			},
			{
				"type": "unocc",
				"energy": 0.00953,
				"method": "rhf"
			},
			{
				"type": "unocc",
				"energy": 0.0577,
				"method": "rhf"
			},
			{
				"type": "unocc",
				"energy": 0.07095,
				"method": "rhf"
			}
		],
		"cosmo_sigma_profile": { 
			"-0.025": 0.0,
			"-0.024": 0.0,
			"-0.023": 0.0,
			"-0.022": 0.0,
			"-0.021": 0.0,
			"-0.02": 0.0,
			"-0.019": 0.00996566853989,
			"-0.018": 0.467908315115,
			"-0.017": 0.631629386723,
			"-0.016": 0.736342092915,
			"-0.015": 0.817599066022,
			"-0.014": 1.06176625141,
			"-0.013": 0.718774750826,
			"-0.012": 0.88151242667,
			"-0.011": 1.12460186123,
			"-0.01": 0.772975770262,
			"-0.009": 0.908600655345,
			"-0.008": 1.17212114536,
			"-0.007": 1.56357153936,
			"-0.006": 8.62726878329,
			"-0.005": 16.7303032323,
			"-0.004": 21.9886626239,
			"-0.003": 22.9649552088,
			"-0.002": 23.508894758,
			"-0.001": 18.1294086728,
			"0.0": 21.7946451472,
			"0.001": 14.6218658517,
			"0.002": 12.6419724303,
			"0.003": 13.8597630271,
			"0.004": 13.0734639264,
			"0.005": 11.3966658716,
			"0.006": 4.28956622202,
			"0.007": 3.09746623099,
			"0.008": 2.46895979575,
			"0.009": 2.63299440221,
			"0.01": 4.28783838893,
			"0.011": 5.26018120836,
			"0.012": 5.64975663775,
			"0.013": 2.40325028818,
			"0.014": 0.198480249451,
			"0.015": 0.0,
			"0.016": 0.0,
			"0.017": 0.0,
			"0.018": 0.0,
			"0.019": 0.0,
			"0.02": 0.0,
			"0.021": 0.0,
			"0.022": 0.0,
			"0.023": 0.0,
			"0.024": 0.0,
			"0.025": 0.0
		}
	}
}
