{
	 "smiles": "NC1=CC=CC=C1OC1=CC=CC=C1", 
	 "Tm": 319.55, 
	 "num_atms": 25, 
	 "gaussian": { 
		 "optdone": 1, 
		 "sigma_profile": "yes", 
		 "theory": "DFT", 
		 "functional": "B3LYP", 
		 "basiset": "6-31G**", 
		 "properties": { 
			 "R2extent": 3202.4933, 
			 "electric_dipole_moment_norm": 1.07285165331, 
			 "electric_quadrupole_moment_norm": 8.71661991428, 
			 "total_energy": -593.87591611, 
			 "HOMO_LUMO_gap": 0.19808, 
			 "cosmo_polarized_energy": -8.75, 
			 "cosmo_cavitation_energy": 29.01, 
			 "cosmo_dispersion_energy": -20.94, 
			 "cosmo_repulsion_energy": 1.66, 
			 "cosmo_total_nonelectrostatic_energy": 9.73, 
			 "SMD_solvation_energy": 5.0 
		},
		"coords": [
			{
				"x": -2.2625778114,
				"y": 0.1278421289,
				"z": -0.7949297796,
				"element": "N" 
			},
			{
				"x": -1.9329743799,
				"y": 0.4602948268,
				"z": 0.5147906075,
				"element": "C" 
			},
			{
				"x": -2.7420926394,
				"y": 0.1071568655,
				"z": 1.6078048015,
				"element": "C" 
			},
			{
				"x": -2.3538558538,
				"y": 0.4104302481,
				"z": 2.9112538495,
				"element": "C" 
			},
			{
				"x": -1.1533125337,
				"y": 1.0796075016,
				"z": 3.1604602713,
				"element": "C" 
			},
			{
				"x": -0.3420831238,
				"y": 1.4464759796,
				"z": 2.0851315481,
				"element": "C" 
			},
			{
				"x": -0.7265228526,
				"y": 1.1348814037,
				"z": 0.7850402478,
				"element": "C" 
			},
			{
				"x": 0.020766828,
				"y": 1.564535673,
				"z": -0.3089944794,
				"element": "O" 
			},
			{
				"x": 1.2253733336,
				"y": 0.9525836225,
				"z": -0.6046559301,
				"element": "C" 
			},
			{
				"x": 2.0185768603,
				"y": 1.6044778851,
				"z": -1.5544627669,
				"element": "C" 
			},
			{
				"x": 3.2372515881,
				"y": 1.0461697789,
				"z": -1.9332123999,
				"element": "C" 
			},
			{
				"x": 3.6721194495,
				"y": -0.1564686519,
				"z": -1.3691859429,
				"element": "C" 
			},
			{
				"x": 2.8710954784,
				"y": -0.7962483664,
				"z": -0.422889678,
				"element": "C" 
			},
			{
				"x": 1.645246004,
				"y": -0.2512928263,
				"z": -0.0337115453,
				"element": "C" 
			},
			{
				"x": -1.7916057,
				"y": 0.689099507,
				"z": -1.491619204,
				"element": "H" 
			},
			{
				"x": -3.2498290383,
				"y": 0.0163538757,
				"z": -0.9769680661,
				"element": "H" 
			},
			{
				"x": -3.6772847566,
				"y": -0.4156837578,
				"z": 1.423203759,
				"element": "H" 
			},
			{
				"x": -2.9985488066,
				"y": 0.1242219324,
				"z": 3.7372979112,
				"element": "H" 
			},
			{
				"x": -0.8542135158,
				"y": 1.3205946573,
				"z": 4.175354176,
				"element": "H" 
			},
			{
				"x": 0.5904325075,
				"y": 1.9807413792,
				"z": 2.2388212465,
				"element": "H" 
			},
			{
				"x": 1.6659686871,
				"y": 2.539551004,
				"z": -1.9777337611,
				"element": "H" 
			},
			{
				"x": 3.8509047159,
				"y": 1.5563556792,
				"z": -2.6703671546,
				"element": "H" 
			},
			{
				"x": 4.6235666214,
				"y": -0.5881060679,
				"z": -1.6641339846,
				"element": "H" 
			},
			{
				"x": 3.1961027195,
				"y": -1.7334486012,
				"z": 0.0203282422,
				"element": "H" 
			},
			{
				"x": 1.0236962187,
				"y": -0.7526256771,
				"z": 0.6990780319,
				"element": "H" 
			}
		],
		 "valence_orbital": [ 
			{
				"type": "occ",
				"energy": -0.30874,
				"method": "rhf"
			},
			{
				"type": "occ",
				"energy": -0.24858,
				"method": "rhf"
			},
			{
				"type": "occ",
				"energy": -0.24355,
				"method": "rhf"
			},
			{
				"type": "occ",
				"energy": -0.21995,
				"method": "rhf"
			},
			{
				"type": "occ",
				"energy": -0.20063,
				"method": "rhf"
			},
			{
				"type": "unocc",
				"energy": -0.00255,
				"method": "rhf"
			},
			{
				"type": "unocc",
				"energy": 0.0053,
				"method": "rhf"
			},
			{
				"type": "unocc",
				"energy": 0.01306,
				"method": "rhf"
			},
			{
				"type": "unocc",
				"energy": 0.02004,
				"method": "rhf"
			},
			{
				"type": "unocc",
				"energy": 0.0865,
				"method": "rhf"
			}
		],
		"cosmo_sigma_profile": { 
			"-0.025": 0.0,
			"-0.024": 0.0,
			"-0.023": 0.0,
			"-0.022": 0.0,
			"-0.021": 0.0,
			"-0.02": 0.0,
			"-0.019": 0.0,
			"-0.018": 0.0,
			"-0.017": 0.0,
			"-0.016": 0.0,
			"-0.015": 0.0,
			"-0.014": 0.0,
			"-0.013": 0.468668960304,
			"-0.012": 1.27712843032,
			"-0.011": 1.89159743743,
			"-0.01": 2.53203211886,
			"-0.009": 2.53159301849,
			"-0.008": 1.91932731008,
			"-0.007": 3.24895489668,
			"-0.006": 10.1976843847,
			"-0.005": 17.2651344177,
			"-0.004": 17.3207595715,
			"-0.003": 20.9702206414,
			"-0.002": 14.1680255911,
			"-0.001": 14.9335822546,
			"0.0": 13.1451038604,
			"0.001": 12.9864466614,
			"0.002": 17.320700451,
			"0.003": 17.0277109209,
			"0.004": 17.9394481896,
			"0.005": 18.6117008857,
			"0.006": 16.0830825295,
			"0.007": 3.82551093296,
			"0.008": 1.56768347943,
			"0.009": 1.54948488626,
			"0.01": 0.816404057867,
			"0.011": 0.3288903998,
			"0.012": 0.868414634923,
			"0.013": 0.599039301492,
			"0.014": 0.437401881587,
			"0.015": 0.0,
			"0.016": 0.0,
			"0.017": 0.0,
			"0.018": 0.0,
			"0.019": 0.0,
			"0.02": 0.0,
			"0.021": 0.0,
			"0.022": 0.0,
			"0.023": 0.0,
			"0.024": 0.0,
			"0.025": 0.0
		}
	}
}
