{
	 "smiles": "COC1=CC=C(C=C1)C(=O)C1=CC=CS1", 
	 "Tm": 347.65, 
	 "num_atms": 25, 
	 "gaussian": { 
		 "optdone": 1, 
		 "sigma_profile": "yes", 
		 "theory": "DFT", 
		 "functional": "B3LYP", 
		 "basiset": "6-31G**", 
		 "properties": { 
			 "R2extent": 5309.7445, 
			 "electric_dipole_moment_norm": 5.02061034238, 
			 "electric_quadrupole_moment_norm": 13.321986913, 
			 "total_energy": -1011.91471831, 
			 "HOMO_LUMO_gap": 0.16481, 
			 "cosmo_polarized_energy": -12.43, 
			 "cosmo_cavitation_energy": 31.01, 
			 "cosmo_dispersion_energy": -23.27, 
			 "cosmo_repulsion_energy": 1.76, 
			 "cosmo_total_nonelectrostatic_energy": 9.5, 
			 "SMD_solvation_energy": 6.51 
		},
		"coords": [
			{
				"x": 0.1430625641,
				"y": 2.3946416311,
				"z": -4.4512105563,
				"element": "C" 
			},
			{
				"x": 0.5368615654,
				"y": 1.1539703384,
				"z": -3.8820443776,
				"element": "O" 
			},
			{
				"x": 0.509719618,
				"y": 1.022325336,
				"z": -2.5293398742,
				"element": "C" 
			},
			{
				"x": 0.1197779123,
				"y": 2.0307705964,
				"z": -1.6386452607,
				"element": "C" 
			},
			{
				"x": 0.1200167678,
				"y": 1.7757250061,
				"z": -0.2661629591,
				"element": "C" 
			},
			{
				"x": 0.5113549651,
				"y": 0.5303513167,
				"z": 0.2411014867,
				"element": "C" 
			},
			{
				"x": 0.9302987886,
				"y": -0.4608532854,
				"z": -0.6680405843,
				"element": "C" 
			},
			{
				"x": 0.9180908593,
				"y": -0.2283313888,
				"z": -2.0315635224,
				"element": "C" 
			},
			{
				"x": 0.5921886843,
				"y": 0.2129520084,
				"z": 1.6975397144,
				"element": "C" 
			},
			{
				"x": 1.3979620824,
				"y": -0.6205886857,
				"z": 2.1102345023,
				"element": "O" 
			},
			{
				"x": -0.3100657595,
				"y": 0.8888663241,
				"z": 2.6546223259,
				"element": "C" 
			},
			{
				"x": -1.514935296,
				"y": 1.5393468842,
				"z": 2.4764096015,
				"element": "C" 
			},
			{
				"x": -2.1049400022,
				"y": 1.9690002354,
				"z": 3.6957844137,
				"element": "C" 
			},
			{
				"x": -1.344068961,
				"y": 1.6359712482,
				"z": 4.7885446882,
				"element": "C" 
			},
			{
				"x": 0.0878511113,
				"y": 0.7769285844,
				"z": 4.3538254364,
				"element": "S" 
			},
			{
				"x": -0.897465951,
				"y": 2.6396922163,
				"z": -4.2038838604,
				"element": "H" 
			},
			{
				"x": 0.2368418525,
				"y": 2.2724939928,
				"z": -5.5310628018,
				"element": "H" 
			},
			{
				"x": 0.7942709043,
				"y": 3.2141200928,
				"z": -4.122331248,
				"element": "H" 
			},
			{
				"x": -0.1722902097,
				"y": 3.010466508,
				"z": -1.9971520917,
				"element": "H" 
			},
			{
				"x": -0.153781997,
				"y": 2.5752264716,
				"z": 0.413462947,
				"element": "H" 
			},
			{
				"x": 1.2633544998,
				"y": -1.4144533997,
				"z": -0.2723860468,
				"element": "H" 
			},
			{
				"x": 1.2244963371,
				"y": -0.9909547652,
				"z": -2.7399366346,
				"element": "H" 
			},
			{
				"x": -1.9751158921,
				"y": 1.6747487733,
				"z": 1.5056870542,
				"element": "H" 
			},
			{
				"x": -3.0502450041,
				"y": 2.4957479495,
				"z": 3.7591631322,
				"element": "H" 
			},
			{
				"x": -1.55313944,
				"y": 1.8478360111,
				"z": 5.8286845154,
				"element": "H" 
			}
		],
		 "valence_orbital": [ 
			{
				"type": "occ",
				"energy": -0.26108,
				"method": "rhf"
			},
			{
				"type": "occ",
				"energy": -0.25832,
				"method": "rhf"
			},
			{
				"type": "occ",
				"energy": -0.25082,
				"method": "rhf"
			},
			{
				"type": "occ",
				"energy": -0.23942,
				"method": "rhf"
			},
			{
				"type": "occ",
				"energy": -0.22844,
				"method": "rhf"
			},
			{
				"type": "unocc",
				"energy": -0.06363,
				"method": "rhf"
			},
			{
				"type": "unocc",
				"energy": -0.01216,
				"method": "rhf"
			},
			{
				"type": "unocc",
				"energy": -0.0061,
				"method": "rhf"
			},
			{
				"type": "unocc",
				"energy": 0.03566,
				"method": "rhf"
			},
			{
				"type": "unocc",
				"energy": 0.04099,
				"method": "rhf"
			}
		],
		"cosmo_sigma_profile": { 
			"-0.025": 0.0,
			"-0.024": 0.0,
			"-0.023": 0.0,
			"-0.022": 0.0,
			"-0.021": 0.0,
			"-0.02": 0.0,
			"-0.019": 0.0,
			"-0.018": 0.0,
			"-0.017": 0.0,
			"-0.016": 0.0,
			"-0.015": 0.0,
			"-0.014": 0.0,
			"-0.013": 0.0,
			"-0.012": 0.0,
			"-0.011": 0.0,
			"-0.01": 0.0932484516139,
			"-0.009": 1.99615593109,
			"-0.008": 2.24697067086,
			"-0.007": 7.55599586559,
			"-0.006": 18.2192803435,
			"-0.005": 22.2822710915,
			"-0.004": 20.2163270214,
			"-0.003": 17.7266826201,
			"-0.002": 13.7225129638,
			"-0.001": 15.9397456983,
			"0.0": 13.7857504552,
			"0.001": 15.3918556498,
			"0.002": 24.0561213297,
			"0.003": 27.8880572592,
			"0.004": 20.3683262295,
			"0.005": 4.48850327858,
			"0.006": 3.41205596498,
			"0.007": 3.05363082747,
			"0.008": 3.71510492061,
			"0.009": 3.4792699578,
			"0.01": 2.27845784157,
			"0.011": 3.03208429016,
			"0.012": 4.02563251851,
			"0.013": 2.14900422411,
			"0.014": 0.0,
			"0.015": 0.0,
			"0.016": 0.0,
			"0.017": 0.0,
			"0.018": 0.0,
			"0.019": 0.0,
			"0.02": 0.0,
			"0.021": 0.0,
			"0.022": 0.0,
			"0.023": 0.0,
			"0.024": 0.0,
			"0.025": 0.0
		}
	}
}
