{
	 "smiles": "CNC(C1=CC=C(Cl)C=C1)C1=NC=CC=N1", 
	 "Tm": 341.15, 
	 "num_atms": 28, 
	 "gaussian": { 
		 "optdone": 1, 
		 "sigma_profile": "yes", 
		 "theory": "DFT", 
		 "functional": "B3LYP", 
		 "basiset": "6-31G**", 
		 "properties": { 
			 "R2extent": 6483.9827, 
			 "electric_dipole_moment_norm": 4.45890856825, 
			 "electric_quadrupole_moment_norm": 12.0676989551, 
			 "total_energy": -1088.9443271, 
			 "HOMO_LUMO_gap": 0.17008, 
			 "cosmo_polarized_energy": -9.73, 
			 "cosmo_cavitation_energy": 33.69, 
			 "cosmo_dispersion_energy": -24.04, 
			 "cosmo_repulsion_energy": 1.91, 
			 "cosmo_total_nonelectrostatic_energy": 11.55, 
			 "SMD_solvation_energy": 2.77 
		},
		"coords": [
			{
				"x": 3.4073434612,
				"y": 0.4730286346,
				"z": 1.9957346062,
				"element": "C" 
			},
			{
				"x": 2.2276653375,
				"y": -0.0100637124,
				"z": 1.2950821205,
				"element": "N" 
			},
			{
				"x": 1.3105416006,
				"y": 1.0358730582,
				"z": 0.8803199928,
				"element": "C" 
			},
			{
				"x": 0.3909030656,
				"y": 1.4671696491,
				"z": 2.0274395981,
				"element": "C" 
			},
			{
				"x": -0.0616359987,
				"y": 2.7864339571,
				"z": 2.1284212239,
				"element": "C" 
			},
			{
				"x": -0.915435228,
				"y": 3.1766803829,
				"z": 3.1599018504,
				"element": "C" 
			},
			{
				"x": -1.3171824436,
				"y": 2.2286076346,
				"z": 4.099665883,
				"element": "C" 
			},
			{
				"x": -2.3909733149,
				"y": 2.7108417956,
				"z": 5.410604965,
				"element": "Cl" 
			},
			{
				"x": -0.877516911,
				"y": 0.9079446653,
				"z": 4.023650576,
				"element": "C" 
			},
			{
				"x": -0.0236765629,
				"y": 0.5358853518,
				"z": 2.9851800373,
				"element": "C" 
			},
			{
				"x": 0.494332391,
				"y": 0.5876816958,
				"z": -0.3364001562,
				"element": "C" 
			},
			{
				"x": 0.7959482756,
				"y": -0.5901048098,
				"z": -0.894354089,
				"element": "N" 
			},
			{
				"x": 0.0800982162,
				"y": -0.9513894847,
				"z": -1.9674256527,
				"element": "C" 
			},
			{
				"x": -0.9260987977,
				"y": -0.1486972413,
				"z": -2.4926255569,
				"element": "C" 
			},
			{
				"x": -1.1402554931,
				"y": 1.0693603634,
				"z": -1.8461370042,
				"element": "C" 
			},
			{
				"x": -0.439761481,
				"y": 1.4448856643,
				"z": -0.7744184909,
				"element": "N" 
			},
			{
				"x": 3.9950589549,
				"y": 1.2193612542,
				"z": 1.4294891019,
				"element": "H" 
			},
			{
				"x": 3.1143076969,
				"y": 0.9370611595,
				"z": 2.9437270422,
				"element": "H" 
			},
			{
				"x": 4.062247544,
				"y": -0.371502754,
				"z": 2.2290884883,
				"element": "H" 
			},
			{
				"x": 2.4605585025,
				"y": -0.5904556346,
				"z": 0.4961369124,
				"element": "H" 
			},
			{
				"x": 1.8450497049,
				"y": 1.9460225076,
				"z": 0.5399280903,
				"element": "H" 
			},
			{
				"x": 0.2492476212,
				"y": 3.5187403486,
				"z": 1.3892175033,
				"element": "H" 
			},
			{
				"x": -1.2619343233,
				"y": 4.2013797594,
				"z": 3.2374523058,
				"element": "H" 
			},
			{
				"x": -1.1963920719,
				"y": 0.1850158129,
				"z": 4.7667407746,
				"element": "H" 
			},
			{
				"x": 0.346785121,
				"y": -0.4815461853,
				"z": 2.9139835861,
				"element": "H" 
			},
			{
				"x": 0.3289906749,
				"y": -1.9122848031,
				"z": -2.4144856374,
				"element": "H" 
			},
			{
				"x": -1.5046174119,
				"y": -0.4472808412,
				"z": -3.3596616657,
				"element": "H" 
			},
			{
				"x": -1.8962981299,
				"y": 1.7683517716,
				"z": -2.2005564052,
				"element": "H" 
			}
		],
		 "valence_orbital": [ 
			{
				"type": "occ",
				"energy": -0.28691,
				"method": "rhf"
			},
			{
				"type": "occ",
				"energy": -0.26042,
				"method": "rhf"
			},
			{
				"type": "occ",
				"energy": -0.25031,
				"method": "rhf"
			},
			{
				"type": "occ",
				"energy": -0.23312,
				"method": "rhf"
			},
			{
				"type": "occ",
				"energy": -0.21886,
				"method": "rhf"
			},
			{
				"type": "unocc",
				"energy": -0.04878,
				"method": "rhf"
			},
			{
				"type": "unocc",
				"energy": -0.0358,
				"method": "rhf"
			},
			{
				"type": "unocc",
				"energy": -0.00252,
				"method": "rhf"
			},
			{
				"type": "unocc",
				"energy": -0.00026,
				"method": "rhf"
			},
			{
				"type": "unocc",
				"energy": 0.03952,
				"method": "rhf"
			}
		],
		"cosmo_sigma_profile": { 
			"-0.025": 0.0,
			"-0.024": 0.0,
			"-0.023": 0.0,
			"-0.022": 0.0,
			"-0.021": 0.0,
			"-0.02": 0.0,
			"-0.019": 0.0,
			"-0.018": 0.0,
			"-0.017": 0.0,
			"-0.016": 0.0,
			"-0.015": 0.0,
			"-0.014": 0.0,
			"-0.013": 0.0,
			"-0.012": 0.0,
			"-0.011": 0.0,
			"-0.01": 0.0,
			"-0.009": 0.0282483765708,
			"-0.008": 4.51828788164,
			"-0.007": 10.5602808264,
			"-0.006": 12.85016485,
			"-0.005": 14.542121199,
			"-0.004": 17.1713241509,
			"-0.003": 17.4047256709,
			"-0.002": 23.8720398531,
			"-0.001": 26.2514917499,
			"0.0": 29.6941452947,
			"0.001": 19.8004097498,
			"0.002": 18.057751998,
			"0.003": 17.9454182414,
			"0.004": 20.7984787455,
			"0.005": 15.414409223,
			"0.006": 5.16366406607,
			"0.007": 3.60702913469,
			"0.008": 3.32025691731,
			"0.009": 3.08723643822,
			"0.01": 3.18617290469,
			"0.011": 2.58969378519,
			"0.012": 1.26491269637,
			"0.013": 0.0645121936509,
			"0.014": 0.0,
			"0.015": 0.0,
			"0.016": 0.0,
			"0.017": 0.0,
			"0.018": 0.0,
			"0.019": 0.0,
			"0.02": 0.0,
			"0.021": 0.0,
			"0.022": 0.0,
			"0.023": 0.0,
			"0.024": 0.0,
			"0.025": 0.0
		}
	}
}
