{
	 "smiles": "[O-][N+](=O)C1=C(N=CN1)C1=CC=C(F)C=C1", 
	 "Tm": 564.15, 
	 "num_atms": 21, 
	 "gaussian": { 
		 "optdone": 1, 
		 "sigma_profile": "yes", 
		 "theory": "DFT", 
		 "functional": "B3LYP", 
		 "basiset": "6-31G**", 
		 "properties": { 
			 "R2extent": 3694.1632, 
			 "electric_dipole_moment_norm": 3.81976665779, 
			 "electric_quadrupole_moment_norm": 14.9223688019, 
			 "total_energy": -761.006218977, 
			 "HOMO_LUMO_gap": 0.1368, 
			 "cosmo_polarized_energy": -13.05, 
			 "cosmo_cavitation_energy": 26.89, 
			 "cosmo_dispersion_energy": -20.02, 
			 "cosmo_repulsion_energy": 1.51, 
			 "cosmo_total_nonelectrostatic_energy": 8.38, 
			 "SMD_solvation_energy": 6.3 
		},
		"coords": [
			{
				"x": -1.2336387201,
				"y": 1.7950345427,
				"z": -2.4132169387,
				"element": "O" 
			},
			{
				"x": -0.6962053954,
				"y": 0.9540587431,
				"z": -1.6715162433,
				"element": "N" 
			},
			{
				"x": -0.3641377862,
				"y": -0.1772710136,
				"z": -2.0338564436,
				"element": "O" 
			},
			{
				"x": -0.4782312367,
				"y": 1.3580613585,
				"z": -0.3268559855,
				"element": "C" 
			},
			{
				"x": 0.0248314903,
				"y": 0.7838849232,
				"z": 0.8526712184,
				"element": "C" 
			},
			{
				"x": -0.1172423395,
				"y": 1.7175927432,
				"z": 1.8561932417,
				"element": "N" 
			},
			{
				"x": -0.6671171143,
				"y": 2.7892137011,
				"z": 1.3194166041,
				"element": "C" 
			},
			{
				"x": -0.9048691009,
				"y": 2.6288069614,
				"z": 0.0022596907,
				"element": "N" 
			},
			{
				"x": 0.6189351361,
				"y": -0.5189579804,
				"z": 1.1864670335,
				"element": "C" 
			},
			{
				"x": 1.1191001382,
				"y": -1.4241928556,
				"z": 0.2328709481,
				"element": "C" 
			},
			{
				"x": 1.6981874718,
				"y": -2.626953956,
				"z": 0.6291082983,
				"element": "C" 
			},
			{
				"x": 1.7734088844,
				"y": -2.9266441511,
				"z": 1.9839934355,
				"element": "C" 
			},
			{
				"x": 2.3280442561,
				"y": -4.0921863636,
				"z": 2.3684794419,
				"element": "F" 
			},
			{
				"x": 1.2930150548,
				"y": -2.0543024339,
				"z": 2.956434451,
				"element": "C" 
			},
			{
				"x": 0.7233489518,
				"y": -0.8533483977,
				"z": 2.5528295225,
				"element": "C" 
			},
			{
				"x": -0.9037081124,
				"y": 3.7017699647,
				"z": 1.8493817182,
				"element": "H" 
			},
			{
				"x": -1.3208932482,
				"y": 3.2543569576,
				"z": -0.6746441749,
				"element": "H" 
			},
			{
				"x": 1.0519580668,
				"y": -1.1876465593,
				"z": -0.8190259624,
				"element": "H" 
			},
			{
				"x": 2.0891057399,
				"y": -3.3298669313,
				"z": -0.0983178393,
				"element": "H" 
			},
			{
				"x": 1.3710779049,
				"y": -2.3222456718,
				"z": 4.0044381007,
				"element": "H" 
			},
			{
				"x": 0.3529299584,
				"y": -0.1519635813,
				"z": 3.2906898831,
				"element": "H" 
			}
		],
		 "valence_orbital": [ 
			{
				"type": "occ",
				"energy": -0.30515,
				"method": "rhf"
			},
			{
				"type": "occ",
				"energy": -0.28903,
				"method": "rhf"
			},
			{
				"type": "occ",
				"energy": -0.28594,
				"method": "rhf"
			},
			{
				"type": "occ",
				"energy": -0.26422,
				"method": "rhf"
			},
			{
				"type": "occ",
				"energy": -0.23452,
				"method": "rhf"
			},
			{
				"type": "unocc",
				"energy": -0.09772,
				"method": "rhf"
			},
			{
				"type": "unocc",
				"energy": -0.01779,
				"method": "rhf"
			},
			{
				"type": "unocc",
				"energy": -0.01427,
				"method": "rhf"
			},
			{
				"type": "unocc",
				"energy": 0.01055,
				"method": "rhf"
			},
			{
				"type": "unocc",
				"energy": 0.07176,
				"method": "rhf"
			}
		],
		"cosmo_sigma_profile": { 
			"-0.025": 0.0,
			"-0.024": 0.0,
			"-0.023": 0.0,
			"-0.022": 0.0,
			"-0.021": 0.0,
			"-0.02": 0.0,
			"-0.019": 0.0,
			"-0.018": 0.416344962902,
			"-0.017": 0.89823787641,
			"-0.016": 0.967398428923,
			"-0.015": 1.21675463298,
			"-0.014": 0.764773041212,
			"-0.013": 0.940004638838,
			"-0.012": 1.21669605452,
			"-0.011": 3.71577823532,
			"-0.01": 2.1238792038,
			"-0.009": 2.69402264003,
			"-0.008": 3.30009437089,
			"-0.007": 5.81109900038,
			"-0.006": 7.29172508175,
			"-0.005": 12.1774477907,
			"-0.004": 10.9459009836,
			"-0.003": 11.5332229804,
			"-0.002": 15.1939969305,
			"-0.001": 11.5747103141,
			"0.0": 16.6079086997,
			"0.001": 16.167274457,
			"0.002": 15.3759055374,
			"0.003": 22.6377329237,
			"0.004": 16.9042454515,
			"0.005": 5.83657688761,
			"0.006": 5.28574338464,
			"0.007": 5.969881506,
			"0.008": 6.86214974521,
			"0.009": 5.86647441305,
			"0.01": 4.87298460448,
			"0.011": 1.22914517382,
			"0.012": 0.557410721076,
			"0.013": 0.728597583628,
			"0.014": 0.0130861510088,
			"0.015": 0.0,
			"0.016": 0.0,
			"0.017": 0.0,
			"0.018": 0.0,
			"0.019": 0.0,
			"0.02": 0.0,
			"0.021": 0.0,
			"0.022": 0.0,
			"0.023": 0.0,
			"0.024": 0.0,
			"0.025": 0.0
		}
	}
}
