{
	 "smiles": "CC1(C)C(NC2=CC=CC=C12)C(N)=O", 
	 "Tm": 442.15, 
	 "num_atms": 28, 
	 "gaussian": { 
		 "optdone": 1, 
		 "sigma_profile": "yes", 
		 "theory": "DFT", 
		 "functional": "B3LYP", 
		 "basiset": "6-31G**", 
		 "properties": { 
			 "R2extent": 3018.6037, 
			 "electric_dipole_moment_norm": 2.36765062034, 
			 "electric_quadrupole_moment_norm": 16.8970522761, 
			 "total_energy": -612.356635709, 
			 "HOMO_LUMO_gap": 0.21232, 
			 "cosmo_polarized_energy": -13.06, 
			 "cosmo_cavitation_energy": 29.72, 
			 "cosmo_dispersion_energy": -21.28, 
			 "cosmo_repulsion_energy": 1.66, 
			 "cosmo_total_nonelectrostatic_energy": 10.1, 
			 "SMD_solvation_energy": 4.59 
		},
		"coords": [
			{
				"x": -1.2092512882,
				"y": -2.4496078785,
				"z": 0.255023387,
				"element": "C" 
			},
			{
				"x": -0.9997348227,
				"y": -0.9212932361,
				"z": 0.3478328218,
				"element": "C" 
			},
			{
				"x": -1.7566211574,
				"y": -0.3545568929,
				"z": 1.5555596919,
				"element": "C" 
			},
			{
				"x": -1.3858785143,
				"y": -0.1806995383,
				"z": -0.9768151367,
				"element": "C" 
			},
			{
				"x": -0.1932360698,
				"y": -0.2017217223,
				"z": -1.8631361485,
				"element": "N" 
			},
			{
				"x": 0.9106269267,
				"y": -0.2769486902,
				"z": -0.9515123929,
				"element": "C" 
			},
			{
				"x": 2.2472782832,
				"y": -0.035451314,
				"z": -1.2523014585,
				"element": "C" 
			},
			{
				"x": 3.1856579123,
				"y": -0.136066052,
				"z": -0.2187064333,
				"element": "C" 
			},
			{
				"x": 2.7857285906,
				"y": -0.4603598775,
				"z": 1.0804628668,
				"element": "C" 
			},
			{
				"x": 1.436757036,
				"y": -0.7068451986,
				"z": 1.3676526812,
				"element": "C" 
			},
			{
				"x": 0.4983251006,
				"y": -0.6179131164,
				"z": 0.3446546228,
				"element": "C" 
			},
			{
				"x": -2.6710568771,
				"y": -0.6071233061,
				"z": -1.6791777043,
				"element": "C" 
			},
			{
				"x": -2.6526686271,
				"y": -0.436881633,
				"z": -3.0374597282,
				"element": "N" 
			},
			{
				"x": -3.6456644419,
				"y": -1.0381188482,
				"z": -1.0774795741,
				"element": "O" 
			},
			{
				"x": -0.7762030486,
				"y": -2.9404308481,
				"z": 1.1324403581,
				"element": "H" 
			},
			{
				"x": -0.71469907,
				"y": -2.8672916795,
				"z": -0.6294439715,
				"element": "H" 
			},
			{
				"x": -2.2733855443,
				"y": -2.6898242554,
				"z": 0.2029007323,
				"element": "H" 
			},
			{
				"x": -1.5793492212,
				"y": 0.7207557517,
				"z": 1.6664944025,
				"element": "H" 
			},
			{
				"x": -2.8301956405,
				"y": -0.520540258,
				"z": 1.4329397404,
				"element": "H" 
			},
			{
				"x": -1.4380159488,
				"y": -0.8433586797,
				"z": 2.4826972685,
				"element": "H" 
			},
			{
				"x": -1.5418489629,
				"y": 0.8755252809,
				"z": -0.7057229797,
				"element": "H" 
			},
			{
				"x": -0.2095399964,
				"y": -1.0243412615,
				"z": -2.4659042259,
				"element": "H" 
			},
			{
				"x": 2.5475997393,
				"y": 0.235837304,
				"z": -2.2600333654,
				"element": "H" 
			},
			{
				"x": 4.23458195,
				"y": 0.0538797601,
				"z": -0.4279875067,
				"element": "H" 
			},
			{
				"x": 3.5255360827,
				"y": -0.5199230022,
				"z": 1.8734587393,
				"element": "H" 
			},
			{
				"x": 1.1335562688,
				"y": -0.9708979223,
				"z": 2.37758404,
				"element": "H" 
			},
			{
				"x": -1.9252731704,
				"y": 0.1198303565,
				"z": -3.4627385384,
				"element": "H" 
			},
			{
				"x": -3.5281254883,
				"y": -0.5540332423,
				"z": -3.5268821885,
				"element": "H" 
			}
		],
		 "valence_orbital": [ 
			{
				"type": "occ",
				"energy": -0.27995,
				"method": "rhf"
			},
			{
				"type": "occ",
				"energy": -0.27454,
				"method": "rhf"
			},
			{
				"type": "occ",
				"energy": -0.25113,
				"method": "rhf"
			},
			{
				"type": "occ",
				"energy": -0.24415,
				"method": "rhf"
			},
			{
				"type": "occ",
				"energy": -0.21429,
				"method": "rhf"
			},
			{
				"type": "unocc",
				"energy": -0.00197,
				"method": "rhf"
			},
			{
				"type": "unocc",
				"energy": 0.00659,
				"method": "rhf"
			},
			{
				"type": "unocc",
				"energy": 0.01953,
				"method": "rhf"
			},
			{
				"type": "unocc",
				"energy": 0.0797,
				"method": "rhf"
			},
			{
				"type": "unocc",
				"energy": 0.09666,
				"method": "rhf"
			}
		],
		"cosmo_sigma_profile": { 
			"-0.025": 0.0,
			"-0.024": 0.0,
			"-0.023": 0.0,
			"-0.022": 0.0,
			"-0.021": 0.0,
			"-0.02": 0.0,
			"-0.019": 0.0,
			"-0.018": 0.0,
			"-0.017": 0.0,
			"-0.016": 0.0,
			"-0.015": 0.0,
			"-0.014": 0.757151437551,
			"-0.013": 1.51932236904,
			"-0.012": 1.96821275269,
			"-0.011": 3.18621391792,
			"-0.01": 2.94544523815,
			"-0.009": 3.16137440686,
			"-0.008": 3.43536924844,
			"-0.007": 3.7966946469,
			"-0.006": 5.62313969401,
			"-0.005": 13.9316008383,
			"-0.004": 16.4901085139,
			"-0.003": 21.065346105,
			"-0.002": 17.0658028876,
			"-0.001": 17.6706436489,
			"0.0": 18.7965423696,
			"0.001": 22.7815883509,
			"0.002": 13.7447320474,
			"0.003": 9.66391157433,
			"0.004": 10.525026225,
			"0.005": 10.3060521864,
			"0.006": 11.2141237117,
			"0.007": 5.03246568064,
			"0.008": 3.18556890276,
			"0.009": 2.06994419017,
			"0.01": 1.51769967025,
			"0.011": 2.19066384082,
			"0.012": 2.65958650027,
			"0.013": 3.15328858161,
			"0.014": 3.42036351976,
			"0.015": 0.283999623197,
			"0.016": 0.0,
			"0.017": 0.0,
			"0.018": 0.0,
			"0.019": 0.0,
			"0.02": 0.0,
			"0.021": 0.0,
			"0.022": 0.0,
			"0.023": 0.0,
			"0.024": 0.0,
			"0.025": 0.0
		}
	}
}
