{
	 "smiles": "CCOP(=S)(OC1=CC=C(C=C1)C#N)C1=CC=CC=C1", 
	 "Tm": 356.15, 
	 "num_atms": 34, 
	 "gaussian": { 
		 "optdone": 1, 
		 "sigma_profile": "yes", 
		 "theory": "DFT", 
		 "functional": "B3LYP", 
		 "basiset": "6-31G**", 
		 "properties": { 
			 "R2extent": 7592.0271, 
			 "electric_dipole_moment_norm": 6.49083157538, 
			 "electric_quadrupole_moment_norm": 31.8204746834, 
			 "total_energy": -1524.8145805, 
			 "HOMO_LUMO_gap": 0.19627, 
			 "cosmo_polarized_energy": -15.52, 
			 "cosmo_cavitation_energy": 43.07, 
			 "cosmo_dispersion_energy": -28.85, 
			 "cosmo_repulsion_energy": 2.21, 
			 "cosmo_total_nonelectrostatic_energy": 16.43, 
			 "SMD_solvation_energy": 8.69 
		},
		"coords": [
			{
				"x": 5.0185750103,
				"y": -0.5895984504,
				"z": -0.5021387578,
				"element": "C" 
			},
			{
				"x": 3.8217319935,
				"y": -0.2225146292,
				"z": 0.3534870063,
				"element": "C" 
			},
			{
				"x": 2.6967586117,
				"y": 0.0039424638,
				"z": -0.5381813882,
				"element": "O" 
			},
			{
				"x": 1.2926803344,
				"y": 0.5706158378,
				"z": 0.0229844201,
				"element": "P" 
			},
			{
				"x": 1.3255868105,
				"y": 2.1347476862,
				"z": 1.1710326822,
				"element": "S" 
			},
			{
				"x": 0.76520329,
				"y": -0.8324608786,
				"z": 0.7481659814,
				"element": "O" 
			},
			{
				"x": -0.3078407404,
				"y": -0.9665273363,
				"z": 1.6033491899,
				"element": "C" 
			},
			{
				"x": -1.5034770747,
				"y": -0.2596014254,
				"z": 1.4410529046,
				"element": "C" 
			},
			{
				"x": -2.5580847928,
				"y": -0.4923272665,
				"z": 2.3174329229,
				"element": "C" 
			},
			{
				"x": -2.4302670631,
				"y": -1.4342461511,
				"z": 3.3515864272,
				"element": "C" 
			},
			{
				"x": -1.2244468463,
				"y": -2.1419082317,
				"z": 3.4994322382,
				"element": "C" 
			},
			{
				"x": -0.1677691872,
				"y": -1.9054039782,
				"z": 2.6298134592,
				"element": "C" 
			},
			{
				"x": -3.5223735373,
				"y": -1.6751564795,
				"z": 4.2473269633,
				"element": "C" 
			},
			{
				"x": -4.4095347975,
				"y": -1.873681777,
				"z": 4.9735628674,
				"element": "N" 
			},
			{
				"x": 0.3287492629,
				"y": 0.671477632,
				"z": -1.5059219108,
				"element": "C" 
			},
			{
				"x": -0.1560842614,
				"y": 1.9074881533,
				"z": -1.9525722349,
				"element": "C" 
			},
			{
				"x": -0.8859820496,
				"y": 1.9793486633,
				"z": -3.1396645273,
				"element": "C" 
			},
			{
				"x": -1.1331476123,
				"y": 0.8223431987,
				"z": -3.8802249303,
				"element": "C" 
			},
			{
				"x": -0.6517416817,
				"y": -0.4122618478,
				"z": -3.4356658885,
				"element": "C" 
			},
			{
				"x": 0.0776289563,
				"y": -0.4922796965,
				"z": -2.251260318,
				"element": "C" 
			},
			{
				"x": 5.2629483378,
				"y": 0.2214481141,
				"z": -1.1934396913,
				"element": "H" 
			},
			{
				"x": 5.886994686,
				"y": -0.7723645402,
				"z": 0.1387022795,
				"element": "H" 
			},
			{
				"x": 4.8209644216,
				"y": -1.494499993,
				"z": -1.0834977943,
				"element": "H" 
			},
			{
				"x": 4.0013229253,
				"y": 0.689907824,
				"z": 0.9308120021,
				"element": "H" 
			},
			{
				"x": 3.5576482599,
				"y": -1.0292873513,
				"z": 1.0454514077,
				"element": "H" 
			},
			{
				"x": -1.6126975329,
				"y": 0.4613439416,
				"z": 0.6399247837,
				"element": "H" 
			},
			{
				"x": -3.4883187302,
				"y": 0.0532377509,
				"z": 2.2013119202,
				"element": "H" 
			},
			{
				"x": -1.1223275151,
				"y": -2.8690920306,
				"z": 4.297704228,
				"element": "H" 
			},
			{
				"x": 0.7712941135,
				"y": -2.4381972137,
				"z": 2.7302457344,
				"element": "H" 
			},
			{
				"x": 0.0389402246,
				"y": 2.8009291178,
				"z": -1.3677972167,
				"element": "H" 
			},
			{
				"x": -1.2607985852,
				"y": 2.9384124287,
				"z": -3.4841173227,
				"element": "H" 
			},
			{
				"x": -1.7029151672,
				"y": 0.8803942729,
				"z": -4.8031398751,
				"element": "H" 
			},
			{
				"x": -0.846831238,
				"y": -1.3124622336,
				"z": -4.0107739094,
				"element": "H" 
			},
			{
				"x": 0.4479111745,
				"y": -1.4510655746,
				"z": -1.9033836534,
				"element": "H" 
			}
		],
		 "valence_orbital": [ 
			{
				"type": "occ",
				"energy": -0.27938,
				"method": "rhf"
			},
			{
				"type": "occ",
				"energy": -0.27337,
				"method": "rhf"
			},
			{
				"type": "occ",
				"energy": -0.25546,
				"method": "rhf"
			},
			{
				"type": "occ",
				"energy": -0.24771,
				"method": "rhf"
			},
			{
				"type": "occ",
				"energy": -0.24581,
				"method": "rhf"
			},
			{
				"type": "unocc",
				"energy": -0.04954,
				"method": "rhf"
			},
			{
				"type": "unocc",
				"energy": -0.04695,
				"method": "rhf"
			},
			{
				"type": "unocc",
				"energy": -0.02786,
				"method": "rhf"
			},
			{
				"type": "unocc",
				"energy": -0.02281,
				"method": "rhf"
			},
			{
				"type": "unocc",
				"energy": 0.03701,
				"method": "rhf"
			}
		],
		"cosmo_sigma_profile": { 
			"-0.025": 0.0,
			"-0.024": 0.0,
			"-0.023": 0.0,
			"-0.022": 0.0,
			"-0.021": 0.0,
			"-0.02": 0.0,
			"-0.019": 0.0,
			"-0.018": 0.0,
			"-0.017": 0.0,
			"-0.016": 0.0,
			"-0.015": 0.0,
			"-0.014": 0.0,
			"-0.013": 0.0,
			"-0.012": 0.0,
			"-0.011": 0.0,
			"-0.01": 0.0,
			"-0.009": 0.659763457449,
			"-0.008": 5.58177025372,
			"-0.007": 12.86650502,
			"-0.006": 18.0289567568,
			"-0.005": 24.7029113627,
			"-0.004": 28.3823785111,
			"-0.003": 24.932062676,
			"-0.002": 24.778559473,
			"-0.001": 31.046131665,
			"0.0": 28.7259230072,
			"0.001": 27.9708978772,
			"0.002": 24.8885180813,
			"0.003": 21.2007706775,
			"0.004": 15.4471205707,
			"0.005": 10.2174820163,
			"0.006": 10.5560609667,
			"0.007": 10.5557527656,
			"0.008": 10.2680080103,
			"0.009": 6.4206898932,
			"0.01": 2.95930801368,
			"0.011": 3.02132585539,
			"0.012": 2.33629498036,
			"0.013": 1.63672870379,
			"0.014": 0.105013335063,
			"0.015": 0.0,
			"0.016": 0.0,
			"0.017": 0.0,
			"0.018": 0.0,
			"0.019": 0.0,
			"0.02": 0.0,
			"0.021": 0.0,
			"0.022": 0.0,
			"0.023": 0.0,
			"0.024": 0.0,
			"0.025": 0.0
		}
	}
}
