{
	 "smiles": "OC(=O)CCC(=O)NCC(=O)C1=C(F)C=CC=C1", 
	 "Tm": 430.15, 
	 "num_atms": 30, 
	 "gaussian": { 
		 "optdone": 1, 
		 "sigma_profile": "yes", 
		 "theory": "DFT", 
		 "functional": "B3LYP", 
		 "basiset": "6-31G**", 
		 "properties": { 
			 "R2extent": 6222.8426, 
			 "electric_dipole_moment_norm": 5.9086771286, 
			 "electric_quadrupole_moment_norm": 19.4051079046, 
			 "total_energy": -920.025191566, 
			 "HOMO_LUMO_gap": 0.16523, 
			 "cosmo_polarized_energy": -18.66, 
			 "cosmo_cavitation_energy": 35.35, 
			 "cosmo_dispersion_energy": -24.92, 
			 "cosmo_repulsion_energy": 1.92, 
			 "cosmo_total_nonelectrostatic_energy": 12.35, 
			 "SMD_solvation_energy": 7.5 
		},
		"coords": [
			{
				"x": 3.6646765304,
				"y": 1.5729879877,
				"z": -3.3711191608,
				"element": "O" 
			},
			{
				"x": 3.0631421144,
				"y": 0.9302460258,
				"z": -2.3463928288,
				"element": "C" 
			},
			{
				"x": 1.8571351804,
				"y": 0.9349045169,
				"z": -2.1968452411,
				"element": "O" 
			},
			{
				"x": 4.0644506496,
				"y": 0.2402985124,
				"z": -1.4481157289,
				"element": "C" 
			},
			{
				"x": 3.3879328598,
				"y": -0.5099994253,
				"z": -0.2997732215,
				"element": "C" 
			},
			{
				"x": 2.708337375,
				"y": -1.7815798521,
				"z": -0.8170511032,
				"element": "C" 
			},
			{
				"x": 3.3366150603,
				"y": -2.5726812239,
				"z": -1.5134825265,
				"element": "O" 
			},
			{
				"x": 1.4205958996,
				"y": -2.024007133,
				"z": -0.4386648925,
				"element": "N" 
			},
			{
				"x": 0.4765552964,
				"y": -1.0777927994,
				"z": 0.1103770382,
				"element": "C" 
			},
			{
				"x": -0.9325718289,
				"y": -1.649518122,
				"z": -0.0043344535,
				"element": "C" 
			},
			{
				"x": -1.1089565646,
				"y": -2.7447136101,
				"z": -0.5191344483,
				"element": "O" 
			},
			{
				"x": -2.1005246754,
				"y": -0.8692126549,
				"z": 0.5139942485,
				"element": "C" 
			},
			{
				"x": -2.0359073927,
				"y": 0.3921399952,
				"z": 1.1200833345,
				"element": "C" 
			},
			{
				"x": -0.8421743542,
				"y": 1.0069019003,
				"z": 1.2828376382,
				"element": "F" 
			},
			{
				"x": -3.1643549,
				"y": 1.0627951974,
				"z": 1.5766916508,
				"element": "C" 
			},
			{
				"x": -4.4125819895,
				"y": 0.4618099045,
				"z": 1.4282311107,
				"element": "C" 
			},
			{
				"x": -4.519602918,
				"y": -0.7975353939,
				"z": 0.8279107478,
				"element": "C" 
			},
			{
				"x": -3.37671475,
				"y": -1.4476182232,
				"z": 0.3796356622,
				"element": "C" 
			},
			{
				"x": 2.9530564536,
				"y": 1.9761113851,
				"z": -3.8964757145,
				"element": "H" 
			},
			{
				"x": 4.6426455827,
				"y": -0.4645620983,
				"z": -2.0548945563,
				"element": "H" 
			},
			{
				"x": 4.7684193389,
				"y": 0.9961999469,
				"z": -1.0820980765,
				"element": "H" 
			},
			{
				"x": 2.7070870662,
				"y": 0.1501342194,
				"z": 0.2404980473,
				"element": "H" 
			},
			{
				"x": 4.1579820171,
				"y": -0.841298411,
				"z": 0.4056888622,
				"element": "H" 
			},
			{
				"x": 1.0034947581,
				"y": -2.8618597823,
				"z": -0.8318111506,
				"element": "H" 
			},
			{
				"x": 0.6665908584,
				"y": -0.8578711155,
				"z": 1.1698972301,
				"element": "H" 
			},
			{
				"x": 0.5102668719,
				"y": -0.1187620476,
				"z": -0.4212194674,
				"element": "H" 
			},
			{
				"x": -3.0452289912,
				"y": 2.0376220399,
				"z": 2.0365244692,
				"element": "H" 
			},
			{
				"x": -5.3002112291,
				"y": 0.9779739457,
				"z": 1.7813571622,
				"element": "H" 
			},
			{
				"x": -5.4916382122,
				"y": -1.2658223952,
				"z": 0.7118443847,
				"element": "H" 
			},
			{
				"x": -3.429716107,
				"y": -2.4236912897,
				"z": -0.0902590162,
				"element": "H" 
			}
		],
		 "valence_orbital": [ 
			{
				"type": "occ",
				"energy": -0.27828,
				"method": "rhf"
			},
			{
				"type": "occ",
				"energy": -0.27297,
				"method": "rhf"
			},
			{
				"type": "occ",
				"energy": -0.26699,
				"method": "rhf"
			},
			{
				"type": "occ",
				"energy": -0.24411,
				"method": "rhf"
			},
			{
				"type": "occ",
				"energy": -0.23602,
				"method": "rhf"
			},
			{
				"type": "unocc",
				"energy": -0.07079,
				"method": "rhf"
			},
			{
				"type": "unocc",
				"energy": -0.01931,
				"method": "rhf"
			},
			{
				"type": "unocc",
				"energy": 0.00444,
				"method": "rhf"
			},
			{
				"type": "unocc",
				"energy": 0.0208,
				"method": "rhf"
			},
			{
				"type": "unocc",
				"energy": 0.03514,
				"method": "rhf"
			}
		],
		"cosmo_sigma_profile": { 
			"-0.025": 0.0,
			"-0.024": 0.0,
			"-0.023": 0.0,
			"-0.022": 0.0,
			"-0.021": 0.0,
			"-0.02": 0.0,
			"-0.019": 0.0382274509758,
			"-0.018": 0.810142634066,
			"-0.017": 0.836096731583,
			"-0.016": 1.02636105067,
			"-0.015": 0.656625735418,
			"-0.014": 0.781896923792,
			"-0.013": 0.445232218989,
			"-0.012": 0.690609980735,
			"-0.011": 1.23532851735,
			"-0.01": 0.682013020597,
			"-0.009": 0.600148436472,
			"-0.008": 3.02349228227,
			"-0.007": 11.9039811045,
			"-0.006": 19.547454455,
			"-0.005": 21.9241659065,
			"-0.004": 20.4051214023,
			"-0.003": 18.8020311609,
			"-0.002": 19.9102769415,
			"-0.001": 18.4579531359,
			"0.0": 18.6695157586,
			"0.001": 19.4065711131,
			"0.002": 20.9894339747,
			"0.003": 18.1719945132,
			"0.004": 10.546823023,
			"0.005": 6.16932289856,
			"0.006": 4.96264959099,
			"0.007": 6.0842489867,
			"0.008": 5.631198552,
			"0.009": 6.42085372153,
			"0.01": 5.89468813986,
			"0.011": 3.94512811962,
			"0.012": 2.86361417863,
			"0.013": 3.16006733192,
			"0.014": 5.36552146245,
			"0.015": 1.15279534567,
			"0.016": 0.0,
			"0.017": 0.0,
			"0.018": 0.0,
			"0.019": 0.0,
			"0.02": 0.0,
			"0.021": 0.0,
			"0.022": 0.0,
			"0.023": 0.0,
			"0.024": 0.0,
			"0.025": 0.0
		}
	}
}
