{
	 "smiles": "NC1=C(N=CN=C1Cl)N1CCCC1", 
	 "Tm": 377.15, 
	 "num_atms": 24, 
	 "gaussian": { 
		 "optdone": 1, 
		 "sigma_profile": "yes", 
		 "theory": "DFT", 
		 "functional": "B3LYP", 
		 "basiset": "6-31G**", 
		 "properties": { 
			 "R2extent": 4019.93, 
			 "electric_dipole_moment_norm": 4.98014400695, 
			 "electric_quadrupole_moment_norm": 16.5750180953, 
			 "total_energy": -990.683188656, 
			 "HOMO_LUMO_gap": 0.18558, 
			 "cosmo_polarized_energy": -11.3, 
			 "cosmo_cavitation_energy": 27.7, 
			 "cosmo_dispersion_energy": -21.25, 
			 "cosmo_repulsion_energy": 1.69, 
			 "cosmo_total_nonelectrostatic_energy": 8.15, 
			 "SMD_solvation_energy": 0.71 
		},
		"coords": [
			{
				"x": -2.0138951101,
				"y": 2.5064678814,
				"z": -0.2786458845,
				"element": "N" 
			},
			{
				"x": -2.2688270363,
				"y": 1.1353954395,
				"z": -0.1909587407,
				"element": "C" 
			},
			{
				"x": -1.2160476007,
				"y": 0.1740139177,
				"z": -0.0683816187,
				"element": "C" 
			},
			{
				"x": -1.4915435797,
				"y": -1.1263094273,
				"z": 0.1211758487,
				"element": "N" 
			},
			{
				"x": -2.7711657221,
				"y": -1.4991488042,
				"z": 0.1011845254,
				"element": "C" 
			},
			{
				"x": -3.8248211056,
				"y": -0.7111791541,
				"z": -0.1025622253,
				"element": "N" 
			},
			{
				"x": -3.5459149444,
				"y": 0.5785711875,
				"z": -0.2304238059,
				"element": "C" 
			},
			{
				"x": -4.9311681204,
				"y": 1.6658807534,
				"z": -0.427694042,
				"element": "Cl" 
			},
			{
				"x": 0.1115517179,
				"y": 0.544264464,
				"z": -0.0707820605,
				"element": "N" 
			},
			{
				"x": 0.6658662222,
				"y": 1.5895332266,
				"z": -0.9687441559,
				"element": "C" 
			},
			{
				"x": 2.0579819501,
				"y": 1.0571519587,
				"z": -1.3435808701,
				"element": "C" 
			},
			{
				"x": 2.4483796016,
				"y": 0.2088878962,
				"z": -0.1252577766,
				"element": "C" 
			},
			{
				"x": 1.1297872316,
				"y": -0.4833605746,
				"z": 0.2267232801,
				"element": "C" 
			},
			{
				"x": -1.2909119299,
				"y": 2.8137377366,
				"z": 0.3605075726,
				"element": "H" 
			},
			{
				"x": -2.8528900338,
				"y": 3.0650992599,
				"z": -0.1779691134,
				"element": "H" 
			},
			{
				"x": -2.974986568,
				"y": -2.5562232179,
				"z": 0.2555029071,
				"element": "H" 
			},
			{
				"x": 0.7568436869,
				"y": 2.5508436165,
				"z": -0.4464660523,
				"element": "H" 
			},
			{
				"x": 0.0224177512,
				"y": 1.7477858648,
				"z": -1.8364848863,
				"element": "H" 
			},
			{
				"x": 1.9886678555,
				"y": 0.4215933789,
				"z": -2.2336951597,
				"element": "H" 
			},
			{
				"x": 2.7620460623,
				"y": 1.8647053314,
				"z": -1.5624230215,
				"element": "H" 
			},
			{
				"x": 2.7774795361,
				"y": 0.8527163603,
				"z": 0.6988436502,
				"element": "H" 
			},
			{
				"x": 3.247880454,
				"y": -0.5069353936,
				"z": -0.3334188645,
				"element": "H" 
			},
			{
				"x": 1.0583851894,
				"y": -0.7960404435,
				"z": 1.2724491086,
				"element": "H" 
			},
			{
				"x": 0.9684844923,
				"y": -1.3763512581,
				"z": -0.3894986147,
				"element": "H" 
			}
		],
		 "valence_orbital": [ 
			{
				"type": "occ",
				"energy": -0.3024,
				"method": "rhf"
			},
			{
				"type": "occ",
				"energy": -0.29889,
				"method": "rhf"
			},
			{
				"type": "occ",
				"energy": -0.25533,
				"method": "rhf"
			},
			{
				"type": "occ",
				"energy": -0.24933,
				"method": "rhf"
			},
			{
				"type": "occ",
				"energy": -0.20397,
				"method": "rhf"
			},
			{
				"type": "unocc",
				"energy": -0.01839,
				"method": "rhf"
			},
			{
				"type": "unocc",
				"energy": -0.00758,
				"method": "rhf"
			},
			{
				"type": "unocc",
				"energy": 0.03544,
				"method": "rhf"
			},
			{
				"type": "unocc",
				"energy": 0.06672,
				"method": "rhf"
			},
			{
				"type": "unocc",
				"energy": 0.08339,
				"method": "rhf"
			}
		],
		"cosmo_sigma_profile": { 
			"-0.025": 0.0,
			"-0.024": 0.0,
			"-0.023": 0.0,
			"-0.022": 0.0,
			"-0.021": 0.0,
			"-0.02": 0.0,
			"-0.019": 0.0,
			"-0.018": 0.0,
			"-0.017": 0.0,
			"-0.016": 0.0,
			"-0.015": 0.0,
			"-0.014": 0.0,
			"-0.013": 0.514471040107,
			"-0.012": 1.45315807468,
			"-0.011": 1.85783989772,
			"-0.01": 2.61978099379,
			"-0.009": 2.13963699136,
			"-0.008": 2.65737426554,
			"-0.007": 3.36613367936,
			"-0.006": 4.2617783675,
			"-0.005": 5.0841886119,
			"-0.004": 15.150822381,
			"-0.003": 25.2808152419,
			"-0.002": 27.1243500712,
			"-0.001": 24.0767306824,
			"0.0": 21.8469205334,
			"0.001": 15.5983383828,
			"0.002": 11.3455673296,
			"0.003": 9.47238694211,
			"0.004": 11.8147051157,
			"0.005": 8.86768764305,
			"0.006": 4.69286095106,
			"0.007": 3.66077114742,
			"0.008": 4.51281495074,
			"0.009": 3.16151686795,
			"0.01": 2.90261576111,
			"0.011": 2.39477732647,
			"0.012": 1.61307227062,
			"0.013": 1.83373886341,
			"0.014": 1.04340752761,
			"0.015": 0.598733367992,
			"0.016": 0.0636692145723,
			"0.017": 0.0,
			"0.018": 0.0,
			"0.019": 0.0,
			"0.02": 0.0,
			"0.021": 0.0,
			"0.022": 0.0,
			"0.023": 0.0,
			"0.024": 0.0,
			"0.025": 0.0
		}
	}
}
