{
	 "smiles": "CCC(NC(=O)OC(C)(C)C)C#N", 
	 "Tm": 352.15, 
	 "num_atms": 29, 
	 "gaussian": { 
		 "optdone": 1, 
		 "sigma_profile": "yes", 
		 "theory": "DFT", 
		 "functional": "B3LYP", 
		 "basiset": "6-31G**", 
		 "properties": { 
			 "R2extent": 3120.8405, 
			 "electric_dipole_moment_norm": 4.93621421841, 
			 "electric_quadrupole_moment_norm": 18.6830487408, 
			 "total_energy": -612.569601193, 
			 "HOMO_LUMO_gap": 0.29459, 
			 "cosmo_polarized_energy": -15.94, 
			 "cosmo_cavitation_energy": 31.71, 
			 "cosmo_dispersion_energy": -21.51, 
			 "cosmo_repulsion_energy": 1.76, 
			 "cosmo_total_nonelectrostatic_energy": 11.95, 
			 "SMD_solvation_energy": 6.98 
		},
		"coords": [
			{
				"x": 0.9387059217,
				"y": 1.8321613913,
				"z": -2.320849121,
				"element": "C" 
			},
			{
				"x": 0.9064059367,
				"y": 2.8816895678,
				"z": -1.2085908973,
				"element": "C" 
			},
			{
				"x": 1.0195387707,
				"y": 2.3575501638,
				"z": 0.2460139549,
				"element": "C" 
			},
			{
				"x": -0.1481979327,
				"y": 1.6256975819,
				"z": 0.7319595593,
				"element": "N" 
			},
			{
				"x": -0.3530618249,
				"y": 0.2800856169,
				"z": 0.5228239383,
				"element": "C" 
			},
			{
				"x": 0.2999491563,
				"y": -0.4031006745,
				"z": -0.2448574345,
				"element": "O" 
			},
			{
				"x": -1.3877794147,
				"y": -0.1234962599,
				"z": 1.2931913056,
				"element": "O" 
			},
			{
				"x": -1.850708523,
				"y": -1.5244408707,
				"z": 1.2651586653,
				"element": "C" 
			},
			{
				"x": -2.3449330702,
				"y": -1.8833278908,
				"z": -0.1397742504,
				"element": "C" 
			},
			{
				"x": -3.0106750801,
				"y": -1.5081891344,
				"z": 2.2635001936,
				"element": "C" 
			},
			{
				"x": -0.7297901824,
				"y": -2.4523268448,
				"z": 1.7439678862,
				"element": "C" 
			},
			{
				"x": 2.2876293591,
				"y": 1.6255381469,
				"z": 0.4677105835,
				"element": "C" 
			},
			{
				"x": 3.3173579271,
				"y": 1.1233709097,
				"z": 0.6508923061,
				"element": "N" 
			},
			{
				"x": 1.8597484308,
				"y": 1.2439653925,
				"z": -2.2833138593,
				"element": "H" 
			},
			{
				"x": 0.8904443643,
				"y": 2.3296428342,
				"z": -3.2948949933,
				"element": "H" 
			},
			{
				"x": 0.1031695932,
				"y": 1.1348134495,
				"z": -2.2449879007,
				"element": "H" 
			},
			{
				"x": 1.7281056202,
				"y": 3.5949090521,
				"z": -1.3501698398,
				"element": "H" 
			},
			{
				"x": -0.0248767253,
				"y": 3.4584961763,
				"z": -1.2531912414,
				"element": "H" 
			},
			{
				"x": 1.0834858353,
				"y": 3.2446552289,
				"z": 0.8876581481,
				"element": "H" 
			},
			{
				"x": -0.6584046741,
				"y": 2.0289658189,
				"z": 1.5032637427,
				"element": "H" 
			},
			{
				"x": -2.7952964596,
				"y": -2.8810340601,
				"z": -0.1250503475,
				"element": "H" 
			},
			{
				"x": -1.524063245,
				"y": -1.8796658417,
				"z": -0.8572677275,
				"element": "H" 
			},
			{
				"x": -3.1089111278,
				"y": -1.1713800218,
				"z": -0.4681039608,
				"element": "H" 
			},
			{
				"x": -3.4509972939,
				"y": -2.5065057832,
				"z": 2.341687607,
				"element": "H" 
			},
			{
				"x": -2.6630822852,
				"y": -1.2048876632,
				"z": 3.2553517473,
				"element": "H" 
			},
			{
				"x": -3.7892875658,
				"y": -0.8104948939,
				"z": 1.941483221,
				"element": "H" 
			},
			{
				"x": -1.1118088118,
				"y": -3.4750073869,
				"z": 1.8261782266,
				"element": "H" 
			},
			{
				"x": 0.1100046072,
				"y": -2.4454278499,
				"z": 1.0487613145,
				"element": "H" 
			},
			{
				"x": -0.3748713059,
				"y": -2.1423561549,
				"z": 2.7318491736,
				"element": "H" 
			}
		],
		 "valence_orbital": [ 
			{
				"type": "occ",
				"energy": -0.32677,
				"method": "rhf"
			},
			{
				"type": "occ",
				"energy": -0.32057,
				"method": "rhf"
			},
			{
				"type": "occ",
				"energy": -0.29502,
				"method": "rhf"
			},
			{
				"type": "occ",
				"energy": -0.27259,
				"method": "rhf"
			},
			{
				"type": "occ",
				"energy": -0.2707,
				"method": "rhf"
			},
			{
				"type": "unocc",
				"energy": 0.02389,
				"method": "rhf"
			},
			{
				"type": "unocc",
				"energy": 0.03316,
				"method": "rhf"
			},
			{
				"type": "unocc",
				"energy": 0.04732,
				"method": "rhf"
			},
			{
				"type": "unocc",
				"energy": 0.07581,
				"method": "rhf"
			},
			{
				"type": "unocc",
				"energy": 0.08467,
				"method": "rhf"
			}
		],
		"cosmo_sigma_profile": { 
			"-0.025": 0.0,
			"-0.024": 0.0,
			"-0.023": 0.0,
			"-0.022": 0.0,
			"-0.021": 0.0,
			"-0.02": 0.0,
			"-0.019": 0.0,
			"-0.018": 0.0,
			"-0.017": 0.0,
			"-0.016": 0.0815741410634,
			"-0.015": 1.43418558172,
			"-0.014": 1.61368638135,
			"-0.013": 0.931627246546,
			"-0.012": 1.49453580375,
			"-0.011": 1.67481574724,
			"-0.01": 2.76935273372,
			"-0.009": 3.46241623715,
			"-0.008": 2.32746163817,
			"-0.007": 2.50712381911,
			"-0.006": 3.3686665812,
			"-0.005": 5.65978164914,
			"-0.004": 18.711149136,
			"-0.003": 24.6188470792,
			"-0.002": 25.7699501723,
			"-0.001": 29.4185889713,
			"0.0": 34.2310866623,
			"0.001": 22.6030971527,
			"0.002": 8.04867488805,
			"0.003": 7.17483927308,
			"0.004": 5.24819859491,
			"0.005": 5.71440691446,
			"0.006": 5.01837751,
			"0.007": 5.60415425422,
			"0.008": 4.66818863268,
			"0.009": 6.2347789539,
			"0.01": 5.21118991299,
			"0.011": 4.75311994309,
			"0.012": 4.46393894168,
			"0.013": 2.71639985488,
			"0.014": 0.102650193996,
			"0.015": 0.0,
			"0.016": 0.0,
			"0.017": 0.0,
			"0.018": 0.0,
			"0.019": 0.0,
			"0.02": 0.0,
			"0.021": 0.0,
			"0.022": 0.0,
			"0.023": 0.0,
			"0.024": 0.0,
			"0.025": 0.0
		}
	}
}
