{
	 "smiles": "C(CSC1=NN=CN1)SC1=NN=CN1", 
	 "Tm": 471.15, 
	 "num_atms": 22, 
	 "gaussian": { 
		 "optdone": 1, 
		 "sigma_profile": "yes", 
		 "theory": "DFT", 
		 "functional": "B3LYP", 
		 "basiset": "6-31G**", 
		 "properties": { 
			 "R2extent": 5342.2001, 
			 "electric_dipole_moment_norm": 0.00434281015012, 
			 "electric_quadrupole_moment_norm": 42.2216007379, 
			 "total_energy": -1358.28523172, 
			 "HOMO_LUMO_gap": 0.22837, 
			 "cosmo_polarized_energy": -29.97, 
			 "cosmo_cavitation_energy": 30.3, 
			 "cosmo_dispersion_energy": -23.15, 
			 "cosmo_repulsion_energy": 1.74, 
			 "cosmo_total_nonelectrostatic_energy": 8.89, 
			 "SMD_solvation_energy": 1.91 
		},
		"coords": [
			{
				"x": 0.8256212608,
				"y": -1.2126072846,
				"z": 0.0250570015,
				"element": "C" 
			},
			{
				"x": 0.6048937719,
				"y": 0.2954011818,
				"z": -0.0608781396,
				"element": "C" 
			},
			{
				"x": -0.5443540488,
				"y": 0.9121853866,
				"z": 1.2388971133,
				"element": "S" 
			},
			{
				"x": -2.0751623807,
				"y": 0.3312695744,
				"z": 0.5871996043,
				"element": "C" 
			},
			{
				"x": -2.262790831,
				"y": -0.4622599459,
				"z": -0.4444447381,
				"element": "N" 
			},
			{
				"x": -3.6316109693,
				"y": -0.6429545585,
				"z": -0.5866284342,
				"element": "N" 
			},
			{
				"x": -4.2151101611,
				"y": 0.039778607,
				"z": 0.3615704382,
				"element": "C" 
			},
			{
				"x": -3.2810413911,
				"y": 0.6783819536,
				"z": 1.1397408278,
				"element": "N" 
			},
			{
				"x": 1.9747016806,
				"y": -1.8294544018,
				"z": -1.2747578831,
				"element": "S" 
			},
			{
				"x": 3.5056081669,
				"y": -1.2488906875,
				"z": -0.6229450767,
				"element": "C" 
			},
			{
				"x": 3.6932698488,
				"y": -0.4545577968,
				"z": 0.4080852641,
				"element": "N" 
			},
			{
				"x": 5.0621228123,
				"y": -0.2745891092,
				"z": 0.5506799797,
				"element": "N" 
			},
			{
				"x": 5.6456545418,
				"y": -0.9584542483,
				"z": -0.3966862438,
				"element": "C" 
			},
			{
				"x": 4.7115074912,
				"y": -1.597293829,
				"z": -1.1745820617,
				"element": "N" 
			},
			{
				"x": 1.2298217348,
				"y": -1.5009536919,
				"z": 0.9964964229,
				"element": "H" 
			},
			{
				"x": -0.1071348091,
				"y": -1.7448969014,
				"z": -0.1692186162,
				"element": "H" 
			},
			{
				"x": 0.2007980625,
				"y": 0.5838682001,
				"z": -1.0323283675,
				"element": "H" 
			},
			{
				"x": 1.5376318427,
				"y": 0.8276940803,
				"z": 0.1334942881,
				"element": "H" 
			},
			{
				"x": -5.2794813991,
				"y": 0.1083928053,
				"z": 0.5336846596,
				"element": "H" 
			},
			{
				"x": -3.4415575402,
				"y": 1.2906656769,
				"z": 1.9256402582,
				"element": "H" 
			},
			{
				"x": 6.7100551853,
				"y": -1.0278736343,
				"z": -0.5682963398,
				"element": "H" 
			},
			{
				"x": 4.8719571309,
				"y": -2.2098513769,
				"z": -1.9602799571,
				"element": "H" 
			}
		],
		 "valence_orbital": [ 
			{
				"type": "occ",
				"energy": -0.2997,
				"method": "rhf"
			},
			{
				"type": "occ",
				"energy": -0.26141,
				"method": "rhf"
			},
			{
				"type": "occ",
				"energy": -0.26122,
				"method": "rhf"
			},
			{
				"type": "occ",
				"energy": -0.23152,
				"method": "rhf"
			},
			{
				"type": "occ",
				"energy": -0.22652,
				"method": "rhf"
			},
			{
				"type": "unocc",
				"energy": 0.00185,
				"method": "rhf"
			},
			{
				"type": "unocc",
				"energy": 0.01057,
				"method": "rhf"
			},
			{
				"type": "unocc",
				"energy": 0.0145,
				"method": "rhf"
			},
			{
				"type": "unocc",
				"energy": 0.02295,
				"method": "rhf"
			},
			{
				"type": "unocc",
				"energy": 0.03828,
				"method": "rhf"
			}
		],
		"cosmo_sigma_profile": { 
			"-0.025": 0.0,
			"-0.024": 0.0,
			"-0.023": 0.0,
			"-0.022": 0.0,
			"-0.021": 0.0,
			"-0.02": 0.0,
			"-0.019": 0.0264626242457,
			"-0.018": 2.86138155439,
			"-0.017": 3.20028464776,
			"-0.016": 3.27134598721,
			"-0.015": 2.5931721592,
			"-0.014": 2.41848933926,
			"-0.013": 2.92338682482,
			"-0.012": 1.67714667833,
			"-0.011": 4.95991560827,
			"-0.01": 7.35662591909,
			"-0.009": 3.95100608866,
			"-0.008": 6.14671646252,
			"-0.007": 3.90619535435,
			"-0.006": 6.91712148468,
			"-0.005": 9.21341370536,
			"-0.004": 10.3778223527,
			"-0.003": 12.4825436548,
			"-0.002": 14.0279434545,
			"-0.001": 15.8630116857,
			"0.0": 18.7793466038,
			"0.001": 15.4002307609,
			"0.002": 13.5680307651,
			"0.003": 11.725631152,
			"0.004": 9.81411283148,
			"0.005": 9.20400776138,
			"0.006": 8.09717460604,
			"0.007": 7.3714872018,
			"0.008": 3.27753855607,
			"0.009": 3.89752387671,
			"0.01": 3.81834368075,
			"0.011": 4.08830800113,
			"0.012": 5.28133457481,
			"0.013": 6.02294383104,
			"0.014": 6.06939811781,
			"0.015": 2.75164359382,
			"0.016": 2.87497605614,
			"0.017": 0.762375848427,
			"0.018": 0.0,
			"0.019": 0.0,
			"0.02": 0.0,
			"0.021": 0.0,
			"0.022": 0.0,
			"0.023": 0.0,
			"0.024": 0.0,
			"0.025": 0.0
		}
	}
}
