{
	 "smiles": "COCCOC1=CC=C(C=C1)C(O)=O", 
	 "Tm": 425.15, 
	 "num_atms": 26, 
	 "gaussian": { 
		 "optdone": 1, 
		 "sigma_profile": "yes", 
		 "theory": "DFT", 
		 "functional": "B3LYP", 
		 "basiset": "6-31G**", 
		 "properties": { 
			 "R2extent": 5279.0914, 
			 "electric_dipole_moment_norm": 2.08781399794, 
			 "electric_quadrupole_moment_norm": 11.4522770793, 
			 "total_energy": -689.185088806, 
			 "HOMO_LUMO_gap": 0.19452, 
			 "cosmo_polarized_energy": -12.77, 
			 "cosmo_cavitation_energy": 30.41, 
			 "cosmo_dispersion_energy": -22.04, 
			 "cosmo_repulsion_energy": 1.75, 
			 "cosmo_total_nonelectrostatic_energy": 10.12, 
			 "SMD_solvation_energy": 7.2 
		},
		"coords": [
			{
				"x": -3.3087365675,
				"y": 1.2943129029,
				"z": -2.5654424291,
				"element": "C" 
			},
			{
				"x": -2.7593012515,
				"y": 2.312908241,
				"z": -1.7438267835,
				"element": "O" 
			},
			{
				"x": -1.3717992721,
				"y": 2.5219521946,
				"z": -1.8948684199,
				"element": "C" 
			},
			{
				"x": -0.499225657,
				"y": 1.5568673866,
				"z": -1.102246375,
				"element": "C" 
			},
			{
				"x": -0.4767185573,
				"y": 0.2931646922,
				"z": -1.7703141588,
				"element": "O" 
			},
			{
				"x": 0.2446391031,
				"y": -0.7267851303,
				"z": -1.2322175001,
				"element": "C" 
			},
			{
				"x": 0.9795435676,
				"y": -0.6377755167,
				"z": -0.0402557374,
				"element": "C" 
			},
			{
				"x": 1.6838997818,
				"y": -1.7498944867,
				"z": 0.4127378499,
				"element": "C" 
			},
			{
				"x": 1.6699021761,
				"y": -2.9533092644,
				"z": -0.3009949576,
				"element": "C" 
			},
			{
				"x": 0.9303128471,
				"y": -3.0323452298,
				"z": -1.4940613753,
				"element": "C" 
			},
			{
				"x": 0.2253764148,
				"y": -1.9320615773,
				"z": -1.955235957,
				"element": "C" 
			},
			{
				"x": 2.4408532238,
				"y": -4.0961539139,
				"z": 0.2375262067,
				"element": "C" 
			},
			{
				"x": 2.3539547645,
				"y": -5.2108411833,
				"z": -0.5360998233,
				"element": "O" 
			},
			{
				"x": 3.0965097704,
				"y": -4.0787196331,
				"z": 1.2625307827,
				"element": "O" 
			},
			{
				"x": -3.0614943312,
				"y": 1.4585563022,
				"z": -3.6255036455,
				"element": "H" 
			},
			{
				"x": -2.9617445041,
				"y": 0.2943981621,
				"z": -2.2807250124,
				"element": "H" 
			},
			{
				"x": -4.3936909231,
				"y": 1.3478853083,
				"z": -2.445281269,
				"element": "H" 
			},
			{
				"x": -1.0735814383,
				"y": 2.492405628,
				"z": -2.9549716353,
				"element": "H" 
			},
			{
				"x": -1.1736713182,
				"y": 3.531475665,
				"z": -1.5159017568,
				"element": "H" 
			},
			{
				"x": -0.904292409,
				"y": 1.445730485,
				"z": -0.0881316107,
				"element": "H" 
			},
			{
				"x": 0.5220731817,
				"y": 1.9585255399,
				"z": -1.0315663585,
				"element": "H" 
			},
			{
				"x": 1.0061271925,
				"y": 0.2809890606,
				"z": 0.5325202019,
				"element": "H" 
			},
			{
				"x": 2.2576894712,
				"y": -1.7007129128,
				"z": 1.3321903771,
				"element": "H" 
			},
			{
				"x": 0.9141849619,
				"y": -3.960779363,
				"z": -2.0534828249,
				"element": "H" 
			},
			{
				"x": -0.3490397361,
				"y": -1.9743565807,
				"z": -2.8746275036,
				"element": "H" 
			},
			{
				"x": 2.892929509,
				"y": -5.8812367763,
				"z": -0.0856502846,
				"element": "H" 
			}
		],
		 "valence_orbital": [ 
			{
				"type": "occ",
				"energy": -0.31078,
				"method": "rhf"
			},
			{
				"type": "occ",
				"energy": -0.27113,
				"method": "rhf"
			},
			{
				"type": "occ",
				"energy": -0.26294,
				"method": "rhf"
			},
			{
				"type": "occ",
				"energy": -0.25899,
				"method": "rhf"
			},
			{
				"type": "occ",
				"energy": -0.23303,
				"method": "rhf"
			},
			{
				"type": "unocc",
				"energy": -0.03851,
				"method": "rhf"
			},
			{
				"type": "unocc",
				"energy": -0.01074,
				"method": "rhf"
			},
			{
				"type": "unocc",
				"energy": 0.0661,
				"method": "rhf"
			},
			{
				"type": "unocc",
				"energy": 0.08028,
				"method": "rhf"
			},
			{
				"type": "unocc",
				"energy": 0.08983,
				"method": "rhf"
			}
		],
		"cosmo_sigma_profile": { 
			"-0.025": 0.0,
			"-0.024": 0.0,
			"-0.023": 0.0,
			"-0.022": 0.0,
			"-0.021": 0.0,
			"-0.02": 0.0,
			"-0.019": 0.0016788087985,
			"-0.018": 0.530401576513,
			"-0.017": 1.04171311924,
			"-0.016": 0.998295655998,
			"-0.015": 0.32030184269,
			"-0.014": 0.421696962559,
			"-0.013": 0.488235569586,
			"-0.012": 1.03498172101,
			"-0.011": 1.23407398137,
			"-0.01": 0.615633199519,
			"-0.009": 0.559836842185,
			"-0.008": 0.447222286649,
			"-0.007": 4.05274759744,
			"-0.006": 16.2160355881,
			"-0.005": 19.1912781695,
			"-0.004": 19.5710164496,
			"-0.003": 17.074133918,
			"-0.002": 19.1981718334,
			"-0.001": 16.1660805138,
			"0.0": 14.6563908811,
			"0.001": 16.3123869201,
			"0.002": 19.3782774287,
			"0.003": 19.0981991185,
			"0.004": 13.2284345619,
			"0.005": 4.81063300974,
			"0.006": 4.46928435249,
			"0.007": 6.59614054586,
			"0.008": 4.62954333377,
			"0.009": 2.27438404967,
			"0.01": 2.27549212635,
			"0.011": 4.3942996658,
			"0.012": 6.47687471769,
			"0.013": 2.56701095778,
			"0.014": 0.336612683565,
			"0.015": 0.0,
			"0.016": 0.0,
			"0.017": 0.0,
			"0.018": 0.0,
			"0.019": 0.0,
			"0.02": 0.0,
			"0.021": 0.0,
			"0.022": 0.0,
			"0.023": 0.0,
			"0.024": 0.0,
			"0.025": 0.0
		}
	}
}
