{
	 "smiles": "COC(=O)COC(=O)C1=CC=C2C(O)=C(OC2=C1)C(=O)OC", 
	 "Tm": 403.15, 
	 "num_atms": 34, 
	 "gaussian": { 
		 "optdone": 1, 
		 "sigma_profile": "yes", 
		 "theory": "DFT", 
		 "functional": "B3LYP", 
		 "basiset": "6-31G**", 
		 "properties": { 
			 "R2extent": 11567.2652, 
			 "electric_dipole_moment_norm": 3.62027654192, 
			 "electric_quadrupole_moment_norm": 12.3594588004, 
			 "total_energy": -1142.52665623, 
			 "HOMO_LUMO_gap": 0.15183, 
			 "cosmo_polarized_energy": -15.69, 
			 "cosmo_cavitation_energy": 41.02, 
			 "cosmo_dispersion_energy": -29.42, 
			 "cosmo_repulsion_energy": 2.26, 
			 "cosmo_total_nonelectrostatic_energy": 13.86, 
			 "SMD_solvation_energy": 11.72 
		},
		"coords": [
			{
				"x": -4.7505501958,
				"y": -3.2040500149,
				"z": 1.6554230681,
				"element": "C" 
			},
			{
				"x": -3.5401344828,
				"y": -3.1258374124,
				"z": 0.879938571,
				"element": "O" 
			},
			{
				"x": -3.379400012,
				"y": -4.1028138584,
				"z": -0.023667235,
				"element": "C" 
			},
			{
				"x": -4.1788213591,
				"y": -4.9844890188,
				"z": -0.2447865601,
				"element": "O" 
			},
			{
				"x": -2.076823245,
				"y": -3.9846312662,
				"z": -0.8063521591,
				"element": "C" 
			},
			{
				"x": -1.1826973649,
				"y": -2.9755191562,
				"z": -0.3407063253,
				"element": "O" 
			},
			{
				"x": -0.4933144802,
				"y": -3.2868147691,
				"z": 0.789616046,
				"element": "C" 
			},
			{
				"x": -0.6032952046,
				"y": -4.3560604355,
				"z": 1.3546498876,
				"element": "O" 
			},
			{
				"x": 0.4027501052,
				"y": -2.1830672443,
				"z": 1.2297206471,
				"element": "C" 
			},
			{
				"x": 1.1976505769,
				"y": -2.415685226,
				"z": 2.3784443834,
				"element": "C" 
			},
			{
				"x": 2.0609837968,
				"y": -1.4467979109,
				"z": 2.8626101747,
				"element": "C" 
			},
			{
				"x": 2.1265107,
				"y": -0.2203907368,
				"z": 2.1809373338,
				"element": "C" 
			},
			{
				"x": 2.8607347016,
				"y": 1.0021736593,
				"z": 2.3459852595,
				"element": "C" 
			},
			{
				"x": 3.7521787794,
				"y": 1.2707207266,
				"z": 3.3027165739,
				"element": "O" 
			},
			{
				"x": 2.4623453147,
				"y": 1.8378588202,
				"z": 1.3240082707,
				"element": "C" 
			},
			{
				"x": 1.5192991542,
				"y": 1.2343181364,
				"z": 0.5108661038,
				"element": "O" 
			},
			{
				"x": 1.3253546232,
				"y": -0.0082778671,
				"z": 1.0390735077,
				"element": "C" 
			},
			{
				"x": 0.4550094208,
				"y": -0.9677657547,
				"z": 0.5392613785,
				"element": "C" 
			},
			{
				"x": 2.9688153983,
				"y": 3.1748174905,
				"z": 1.1299434774,
				"element": "C" 
			},
			{
				"x": 3.8116470737,
				"y": 3.6407324084,
				"z": 1.9030497237,
				"element": "O" 
			},
			{
				"x": 2.4645650172,
				"y": 3.835914608,
				"z": 0.0817469551,
				"element": "O" 
			},
			{
				"x": 2.9709376618,
				"y": 5.169408003,
				"z": -0.1111538322,
				"element": "C" 
			},
			{
				"x": -4.7801830148,
				"y": -4.1388530623,
				"z": 2.2198291445,
				"element": "H" 
			},
			{
				"x": -4.7218345011,
				"y": -2.3485701837,
				"z": 2.329336572,
				"element": "H" 
			},
			{
				"x": -5.625804103,
				"y": -3.1539608784,
				"z": 1.0034623619,
				"element": "H" 
			},
			{
				"x": -2.319976034,
				"y": -3.7152483865,
				"z": -1.8368309743,
				"element": "H" 
			},
			{
				"x": -1.600239104,
				"y": -4.9672515428,
				"z": -0.79319694,
				"element": "H" 
			},
			{
				"x": 1.1079706145,
				"y": -3.3789423477,
				"z": 2.8674020126,
				"element": "H" 
			},
			{
				"x": 2.6708213424,
				"y": -1.6238443821,
				"z": 3.7419685017,
				"element": "H" 
			},
			{
				"x": 4.0644811226,
				"y": 2.1869093198,
				"z": 3.1260889113,
				"element": "H" 
			},
			{
				"x": -0.1528575629,
				"y": -0.7850587633,
				"z": -0.3373825988,
				"element": "H" 
			},
			{
				"x": 2.7509571179,
				"y": 5.7927323215,
				"z": 0.7587402265,
				"element": "H" 
			},
			{
				"x": 2.4584720596,
				"y": 5.5478672477,
				"z": -0.9947343687,
				"element": "H" 
			},
			{
				"x": 4.0515460833,
				"y": 5.1498774767,
				"z": -0.2709080989,
				"element": "H" 
			}
		],
		 "valence_orbital": [ 
			{
				"type": "occ",
				"energy": -0.28831,
				"method": "rhf"
			},
			{
				"type": "occ",
				"energy": -0.28499,
				"method": "rhf"
			},
			{
				"type": "occ",
				"energy": -0.27505,
				"method": "rhf"
			},
			{
				"type": "occ",
				"energy": -0.25695,
				"method": "rhf"
			},
			{
				"type": "occ",
				"energy": -0.22894,
				"method": "rhf"
			},
			{
				"type": "unocc",
				"energy": -0.07711,
				"method": "rhf"
			},
			{
				"type": "unocc",
				"energy": -0.0209,
				"method": "rhf"
			},
			{
				"type": "unocc",
				"energy": -0.00654,
				"method": "rhf"
			},
			{
				"type": "unocc",
				"energy": 0.00612,
				"method": "rhf"
			},
			{
				"type": "unocc",
				"energy": 0.05858,
				"method": "rhf"
			}
		],
		"cosmo_sigma_profile": { 
			"-0.025": 0.0,
			"-0.024": 0.0,
			"-0.023": 0.0,
			"-0.022": 0.0,
			"-0.021": 0.0,
			"-0.02": 0.0,
			"-0.019": 0.0,
			"-0.018": 0.0,
			"-0.017": 0.0,
			"-0.016": 0.0,
			"-0.015": 0.0,
			"-0.014": 0.0,
			"-0.013": 0.0,
			"-0.012": 0.0,
			"-0.011": 0.102007195518,
			"-0.01": 1.10562333686,
			"-0.009": 3.33362866571,
			"-0.008": 5.37638743218,
			"-0.007": 11.4215106762,
			"-0.006": 21.4164249172,
			"-0.005": 24.6842165009,
			"-0.004": 28.1168827994,
			"-0.003": 26.2278905276,
			"-0.002": 21.9446728213,
			"-0.001": 24.3365217836,
			"0.0": 28.9612319504,
			"0.001": 23.7611463133,
			"0.002": 17.3832761007,
			"0.003": 13.6315090524,
			"0.004": 12.6630172841,
			"0.005": 8.07868789615,
			"0.006": 8.85570691396,
			"0.007": 9.68993818459,
			"0.008": 9.31303846801,
			"0.009": 7.63606125356,
			"0.01": 6.97202846804,
			"0.011": 9.89466292019,
			"0.012": 3.46497902534,
			"0.013": 0.0676687477432,
			"0.014": 0.0,
			"0.015": 0.0,
			"0.016": 0.0,
			"0.017": 0.0,
			"0.018": 0.0,
			"0.019": 0.0,
			"0.02": 0.0,
			"0.021": 0.0,
			"0.022": 0.0,
			"0.023": 0.0,
			"0.024": 0.0,
			"0.025": 0.0
		}
	}
}
