{
	 "smiles": "OC(=O)CC=CC1=CC(F)=CC=C1", 
	 "Tm": 338.15, 
	 "num_atms": 22, 
	 "gaussian": { 
		 "optdone": 1, 
		 "sigma_profile": "yes", 
		 "theory": "DFT", 
		 "functional": "B3LYP", 
		 "basiset": "6-31G**", 
		 "properties": { 
			 "R2extent": 3856.4628, 
			 "electric_dipole_moment_norm": 2.10039405351, 
			 "electric_quadrupole_moment_norm": 3.93827856176, 
			 "total_energy": -636.769385928, 
			 "HOMO_LUMO_gap": 0.19336, 
			 "cosmo_polarized_energy": -9.68, 
			 "cosmo_cavitation_energy": 27.09, 
			 "cosmo_dispersion_energy": -19.34, 
			 "cosmo_repulsion_energy": 1.51, 
			 "cosmo_total_nonelectrostatic_energy": 9.26, 
			 "SMD_solvation_energy": 6.28 
		},
		"coords": [
			{
				"x": 1.7895896437,
				"y": 2.3591211874,
				"z": 3.2079902243,
				"element": "O" 
			},
			{
				"x": 2.0657974559,
				"y": 2.0741952543,
				"z": 1.9142076695,
				"element": "C" 
			},
			{
				"x": 2.103745226,
				"y": 2.9265439436,
				"z": 1.0527618914,
				"element": "O" 
			},
			{
				"x": 2.27408439,
				"y": 0.5850880616,
				"z": 1.6972629538,
				"element": "C" 
			},
			{
				"x": 0.9523270969,
				"y": -0.143179766,
				"z": 1.6118046098,
				"element": "C" 
			},
			{
				"x": 0.344049651,
				"y": -0.6023890801,
				"z": 0.5055434355,
				"element": "C" 
			},
			{
				"x": 0.7608628056,
				"y": -0.4959781113,
				"z": -0.9056863308,
				"element": "C" 
			},
			{
				"x": 0.4550116221,
				"y": -1.5675699077,
				"z": -1.7651237456,
				"element": "C" 
			},
			{
				"x": 0.8310134375,
				"y": -1.508714662,
				"z": -3.0984219449,
				"element": "C" 
			},
			{
				"x": 0.538855706,
				"y": -2.5537063666,
				"z": -3.9031474449,
				"element": "F" 
			},
			{
				"x": 1.4936036598,
				"y": -0.4100290409,
				"z": -3.6351821201,
				"element": "C" 
			},
			{
				"x": 1.774345425,
				"y": 0.6630917919,
				"z": -2.7889748294,
				"element": "C" 
			},
			{
				"x": 1.41256215,
				"y": 0.6319729168,
				"z": -1.4411120881,
				"element": "C" 
			},
			{
				"x": 1.6264590118,
				"y": 3.316921605,
				"z": 3.2478178387,
				"element": "H" 
			},
			{
				"x": 2.8573082162,
				"y": 0.4596712707,
				"z": 0.7843770784,
				"element": "H" 
			},
			{
				"x": 2.8445088986,
				"y": 0.1919156618,
				"z": 2.5458562026,
				"element": "H" 
			},
			{
				"x": 0.4660159071,
				"y": -0.3269144749,
				"z": 2.5672632027,
				"element": "H" 
			},
			{
				"x": -0.5695222896,
				"y": -1.1756567444,
				"z": 0.6611136725,
				"element": "H" 
			},
			{
				"x": -0.0608643071,
				"y": -2.4497044905,
				"z": -1.3993708051,
				"element": "H" 
			},
			{
				"x": 1.7625254684,
				"y": -0.4030358225,
				"z": -4.68578248,
				"element": "H" 
			},
			{
				"x": 2.2716352123,
				"y": 1.542218546,
				"z": -3.1879384121,
				"element": "H" 
			},
			{
				"x": 1.6052856127,
				"y": 1.4986382278,
				"z": -0.8184585782,
				"element": "H" 
			}
		],
		 "valence_orbital": [ 
			{
				"type": "occ",
				"energy": -0.32456,
				"method": "rhf"
			},
			{
				"type": "occ",
				"energy": -0.29894,
				"method": "rhf"
			},
			{
				"type": "occ",
				"energy": -0.28002,
				"method": "rhf"
			},
			{
				"type": "occ",
				"energy": -0.24673,
				"method": "rhf"
			},
			{
				"type": "occ",
				"energy": -0.23078,
				"method": "rhf"
			},
			{
				"type": "unocc",
				"energy": -0.03742,
				"method": "rhf"
			},
			{
				"type": "unocc",
				"energy": -0.00058,
				"method": "rhf"
			},
			{
				"type": "unocc",
				"energy": 0.00479,
				"method": "rhf"
			},
			{
				"type": "unocc",
				"energy": 0.04696,
				"method": "rhf"
			},
			{
				"type": "unocc",
				"energy": 0.07172,
				"method": "rhf"
			}
		],
		"cosmo_sigma_profile": { 
			"-0.025": 0.0,
			"-0.024": 0.0,
			"-0.023": 0.0,
			"-0.022": 0.0,
			"-0.021": 0.0,
			"-0.02": 0.0,
			"-0.019": 0.0470160201381,
			"-0.018": 0.861294433732,
			"-0.017": 0.937784960834,
			"-0.016": 0.700523762529,
			"-0.015": 0.83950168241,
			"-0.014": 0.942112098129,
			"-0.013": 0.558951613653,
			"-0.012": 0.489482609123,
			"-0.011": 0.6977036398,
			"-0.01": 0.71042976834,
			"-0.009": 0.803142554203,
			"-0.008": 0.486572162105,
			"-0.007": 4.97937047149,
			"-0.006": 12.7553368725,
			"-0.005": 14.8811033206,
			"-0.004": 15.4040863697,
			"-0.003": 13.0958531081,
			"-0.002": 12.7997235826,
			"-0.001": 11.7991599717,
			"0.0": 13.4473116654,
			"0.001": 18.6861188921,
			"0.002": 18.7388841033,
			"0.003": 18.9593402105,
			"0.004": 22.9776057524,
			"0.005": 10.3824159819,
			"0.006": 3.00311982718,
			"0.007": 2.97743322287,
			"0.008": 2.29525196494,
			"0.009": 3.11804043861,
			"0.01": 2.28082203134,
			"0.011": 4.06105122447,
			"0.012": 1.69216722045,
			"0.013": 0.0,
			"0.014": 0.0,
			"0.015": 0.0,
			"0.016": 0.0,
			"0.017": 0.0,
			"0.018": 0.0,
			"0.019": 0.0,
			"0.02": 0.0,
			"0.021": 0.0,
			"0.022": 0.0,
			"0.023": 0.0,
			"0.024": 0.0,
			"0.025": 0.0
		}
	}
}
