{
	 "smiles": "NC1=NN(CC2=NC=CC=C2)C=C1", 
	 "Tm": 362.15, 
	 "num_atms": 23, 
	 "gaussian": { 
		 "optdone": 1, 
		 "sigma_profile": "yes", 
		 "theory": "DFT", 
		 "functional": "B3LYP", 
		 "basiset": "6-31G**", 
		 "properties": { 
			 "R2extent": 3195.0432, 
			 "electric_dipole_moment_norm": 2.65668107796, 
			 "electric_quadrupole_moment_norm": 5.69770917211, 
			 "total_energy": -567.964512588, 
			 "HOMO_LUMO_gap": 0.17517, 
			 "cosmo_polarized_energy": -12.8, 
			 "cosmo_cavitation_energy": 27.41, 
			 "cosmo_dispersion_energy": -19.93, 
			 "cosmo_repulsion_energy": 1.59, 
			 "cosmo_total_nonelectrostatic_energy": 9.07, 
			 "SMD_solvation_energy": 2.83 
		},
		"coords": [
			{
				"x": 3.2964333343,
				"y": -1.8383289304,
				"z": 2.2547381057,
				"element": "N" 
			},
			{
				"x": 2.0075031748,
				"y": -1.3030048882,
				"z": 2.209990798,
				"element": "C" 
			},
			{
				"x": 1.4098033866,
				"y": -1.0630696134,
				"z": 1.0413580811,
				"element": "N" 
			},
			{
				"x": 0.1516579707,
				"y": -0.6490440554,
				"z": 1.375315721,
				"element": "N" 
			},
			{
				"x": -0.7639335066,
				"y": -0.2166512756,
				"z": 0.3363777209,
				"element": "C" 
			},
			{
				"x": -0.6228515502,
				"y": 1.2452845397,
				"z": -0.0635019049,
				"element": "C" 
			},
			{
				"x": -1.7752331503,
				"y": 1.8938852613,
				"z": -0.2843553024,
				"element": "N" 
			},
			{
				"x": -1.7066191989,
				"y": 3.1757220485,
				"z": -0.6677949303,
				"element": "C" 
			},
			{
				"x": -0.508243567,
				"y": 3.8667131591,
				"z": -0.8403174365,
				"element": "C" 
			},
			{
				"x": 0.6857171553,
				"y": 3.1829468211,
				"z": -0.6058190809,
				"element": "C" 
			},
			{
				"x": 0.6323258209,
				"y": 1.8481262854,
				"z": -0.2132357259,
				"element": "C" 
			},
			{
				"x": -0.0257972889,
				"y": -0.6000421522,
				"z": 2.7188598073,
				"element": "C" 
			},
			{
				"x": 1.1498606756,
				"y": -1.0247220323,
				"z": 3.306020359,
				"element": "C" 
			},
			{
				"x": 3.7653545237,
				"y": -1.7617257889,
				"z": 1.3601089563,
				"element": "H" 
			},
			{
				"x": 3.8672974616,
				"y": -1.454030142,
				"z": 2.996807124,
				"element": "H" 
			},
			{
				"x": -1.7901036873,
				"y": -0.3774084096,
				"z": 0.6741460251,
				"element": "H" 
			},
			{
				"x": -0.5883286894,
				"y": -0.8636762387,
				"z": -0.5292864554,
				"element": "H" 
			},
			{
				"x": -2.6597266115,
				"y": 3.6733856536,
				"z": -0.8393456058,
				"element": "H" 
			},
			{
				"x": -0.5133451875,
				"y": 4.9077980642,
				"z": -1.1474478044,
				"element": "H" 
			},
			{
				"x": 1.6429797391,
				"y": 3.6816896936,
				"z": -0.7296478116,
				"element": "H" 
			},
			{
				"x": 1.5298906117,
				"y": 1.269166191,
				"z": -0.0234325325,
				"element": "H" 
			},
			{
				"x": -0.9641288937,
				"y": -0.2828830783,
				"z": 3.1515007243,
				"element": "H" 
			},
			{
				"x": 1.3521874768,
				"y": -1.1499311126,
				"z": 4.3591611679,
				"element": "H" 
			}
		],
		 "valence_orbital": [ 
			{
				"type": "occ",
				"energy": -0.28231,
				"method": "rhf"
			},
			{
				"type": "occ",
				"energy": -0.25749,
				"method": "rhf"
			},
			{
				"type": "occ",
				"energy": -0.2563,
				"method": "rhf"
			},
			{
				"type": "occ",
				"energy": -0.2361,
				"method": "rhf"
			},
			{
				"type": "occ",
				"energy": -0.19843,
				"method": "rhf"
			},
			{
				"type": "unocc",
				"energy": -0.02326,
				"method": "rhf"
			},
			{
				"type": "unocc",
				"energy": -0.01275,
				"method": "rhf"
			},
			{
				"type": "unocc",
				"energy": 0.02929,
				"method": "rhf"
			},
			{
				"type": "unocc",
				"energy": 0.07961,
				"method": "rhf"
			},
			{
				"type": "unocc",
				"energy": 0.10117,
				"method": "rhf"
			}
		],
		"cosmo_sigma_profile": { 
			"-0.025": 0.0,
			"-0.024": 0.0,
			"-0.023": 0.0,
			"-0.022": 0.0,
			"-0.021": 0.0,
			"-0.02": 0.0,
			"-0.019": 0.0,
			"-0.018": 0.0,
			"-0.017": 0.0,
			"-0.016": 0.0,
			"-0.015": 0.0,
			"-0.014": 0.0,
			"-0.013": 0.124406997392,
			"-0.012": 1.66573040409,
			"-0.011": 2.46870728811,
			"-0.01": 1.94869951238,
			"-0.009": 3.45427829501,
			"-0.008": 5.28342210585,
			"-0.007": 8.88284780063,
			"-0.006": 16.0939314312,
			"-0.005": 14.8039830057,
			"-0.004": 15.4617265549,
			"-0.003": 13.3712731689,
			"-0.002": 11.7500887377,
			"-0.001": 10.4824404273,
			"0.0": 11.7734365687,
			"0.001": 12.9883814583,
			"0.002": 18.1983496766,
			"0.003": 18.548009424,
			"0.004": 8.89775395128,
			"0.005": 8.50161983006,
			"0.006": 7.48418225197,
			"0.007": 4.9038274862,
			"0.008": 3.55302607535,
			"0.009": 3.26033668306,
			"0.01": 2.99927396442,
			"0.011": 1.79313084831,
			"0.012": 3.08420809895,
			"0.013": 2.08416683057,
			"0.014": 1.96645654394,
			"0.015": 2.00537267149,
			"0.016": 1.04260797655,
			"0.017": 0.0,
			"0.018": 0.0,
			"0.019": 0.0,
			"0.02": 0.0,
			"0.021": 0.0,
			"0.022": 0.0,
			"0.023": 0.0,
			"0.024": 0.0,
			"0.025": 0.0
		}
	}
}
