{
	 "smiles": "CC1=NN(C(Cl)=C1CO)C1=CC=C(F)C=C1", 
	 "Tm": 408.15, 
	 "num_atms": 26, 
	 "gaussian": { 
		 "optdone": 1, 
		 "sigma_profile": "yes", 
		 "theory": "DFT", 
		 "functional": "B3LYP", 
		 "basiset": "6-31G**", 
		 "properties": { 
			 "R2extent": 5011.6783, 
			 "electric_dipole_moment_norm": 1.26988274656, 
			 "electric_quadrupole_moment_norm": 12.7248125299, 
			 "total_energy": -1169.91731059, 
			 "HOMO_LUMO_gap": 0.20666, 
			 "cosmo_polarized_energy": -11.13, 
			 "cosmo_cavitation_energy": 32.83, 
			 "cosmo_dispersion_energy": -23.21, 
			 "cosmo_repulsion_energy": 1.8, 
			 "cosmo_total_nonelectrostatic_energy": 11.43, 
			 "SMD_solvation_energy": 5.21 
		},
		"coords": [
			{
				"x": -2.5650091331,
				"y": -1.9641364954,
				"z": 1.9959565231,
				"element": "C" 
			},
			{
				"x": -1.9192852274,
				"y": -0.8494962955,
				"z": 1.2289919692,
				"element": "C" 
			},
			{
				"x": -0.7807753572,
				"y": -1.0677058328,
				"z": 0.57592082,
				"element": "N" 
			},
			{
				"x": -0.443356551,
				"y": 0.1268603758,
				"z": 0.0068248624,
				"element": "N" 
			},
			{
				"x": -1.3808305103,
				"y": 1.0765109208,
				"z": 0.301160021,
				"element": "C" 
			},
			{
				"x": -1.3355191692,
				"y": 2.6908684383,
				"z": -0.3068079138,
				"element": "Cl" 
			},
			{
				"x": -2.3536507587,
				"y": 0.4989277369,
				"z": 1.0976849459,
				"element": "C" 
			},
			{
				"x": -3.5997463861,
				"y": 1.1410856214,
				"z": 1.6297399633,
				"element": "C" 
			},
			{
				"x": -4.600352711,
				"y": 1.3665337513,
				"z": 0.6373896498,
				"element": "O" 
			},
			{
				"x": 0.7285550206,
				"y": 0.2008485368,
				"z": -0.7996216787,
				"element": "C" 
			},
			{
				"x": 0.9983358358,
				"y": -0.851290956,
				"z": -1.6819017675,
				"element": "C" 
			},
			{
				"x": 2.1485053476,
				"y": -0.8238719431,
				"z": -2.4654283327,
				"element": "C" 
			},
			{
				"x": 3.0079170427,
				"y": 0.2651351817,
				"z": -2.3601794377,
				"element": "C" 
			},
			{
				"x": 4.1174804162,
				"y": 0.2989369628,
				"z": -3.1246437113,
				"element": "F" 
			},
			{
				"x": 2.7595120918,
				"y": 1.3156809323,
				"z": -1.4847533773,
				"element": "C" 
			},
			{
				"x": 1.615497721,
				"y": 1.2761234929,
				"z": -0.6890282887,
				"element": "C" 
			},
			{
				"x": -2.6238588821,
				"y": -1.7355450398,
				"z": 3.0658053243,
				"element": "H" 
			},
			{
				"x": -3.5853577762,
				"y": -2.1599158796,
				"z": 1.6477233949,
				"element": "H" 
			},
			{
				"x": -1.9786681563,
				"y": -2.877052244,
				"z": 1.8724509442,
				"element": "H" 
			},
			{
				"x": -3.9909115655,
				"y": 0.5309111499,
				"z": 2.4579119677,
				"element": "H" 
			},
			{
				"x": -3.3747924085,
				"y": 2.1313890929,
				"z": 2.0374315706,
				"element": "H" 
			},
			{
				"x": -4.7432255122,
				"y": 0.5304472791,
				"z": 0.1748084998,
				"element": "H" 
			},
			{
				"x": 0.3086107305,
				"y": -1.6850477753,
				"z": -1.7349101097,
				"element": "H" 
			},
			{
				"x": 2.3811882752,
				"y": -1.6266396497,
				"z": -3.1562079777,
				"element": "H" 
			},
			{
				"x": 3.4623241674,
				"y": 2.1387482024,
				"z": -1.4202593213,
				"element": "H" 
			},
			{
				"x": 1.423313456,
				"y": 2.072294436,
				"z": 0.0196414603,
				"element": "H" 
			}
		],
		 "valence_orbital": [ 
			{
				"type": "occ",
				"energy": -0.28354,
				"method": "rhf"
			},
			{
				"type": "occ",
				"energy": -0.27219,
				"method": "rhf"
			},
			{
				"type": "occ",
				"energy": -0.27031,
				"method": "rhf"
			},
			{
				"type": "occ",
				"energy": -0.24398,
				"method": "rhf"
			},
			{
				"type": "occ",
				"energy": -0.23323,
				"method": "rhf"
			},
			{
				"type": "unocc",
				"energy": -0.02657,
				"method": "rhf"
			},
			{
				"type": "unocc",
				"energy": -0.02157,
				"method": "rhf"
			},
			{
				"type": "unocc",
				"energy": 0.01884,
				"method": "rhf"
			},
			{
				"type": "unocc",
				"energy": 0.02958,
				"method": "rhf"
			},
			{
				"type": "unocc",
				"energy": 0.03742,
				"method": "rhf"
			}
		],
		"cosmo_sigma_profile": { 
			"-0.025": 0.0,
			"-0.024": 0.0,
			"-0.023": 0.0,
			"-0.022": 0.0,
			"-0.021": 0.0,
			"-0.02": 0.0,
			"-0.019": 0.0,
			"-0.018": 0.0,
			"-0.017": 0.0,
			"-0.016": 0.0536498796039,
			"-0.015": 0.664921140037,
			"-0.014": 1.01153204964,
			"-0.013": 1.07394184121,
			"-0.012": 0.302580624021,
			"-0.011": 0.715863375986,
			"-0.01": 1.03955096281,
			"-0.009": 1.07661445051,
			"-0.008": 3.14051816411,
			"-0.007": 8.00808598416,
			"-0.006": 10.0917393446,
			"-0.005": 14.4092266952,
			"-0.004": 19.4937380922,
			"-0.003": 18.6312118835,
			"-0.002": 19.6059338671,
			"-0.001": 20.0968960919,
			"0.0": 25.8359861601,
			"0.001": 23.0685144369,
			"0.002": 27.8936135239,
			"0.003": 21.7603500145,
			"0.004": 15.7777581189,
			"0.005": 5.4654235388,
			"0.006": 3.999964969,
			"0.007": 3.00117613238,
			"0.008": 2.7208163929,
			"0.009": 3.00031765969,
			"0.01": 2.5675494514,
			"0.011": 1.85860334046,
			"0.012": 2.06797549284,
			"0.013": 2.73060709145,
			"0.014": 2.64148971824,
			"0.015": 0.403568932136,
			"0.016": 0.0,
			"0.017": 0.0,
			"0.018": 0.0,
			"0.019": 0.0,
			"0.02": 0.0,
			"0.021": 0.0,
			"0.022": 0.0,
			"0.023": 0.0,
			"0.024": 0.0,
			"0.025": 0.0
		}
	}
}
