{
	 "smiles": "CC1(C)COC(=N1)C1=CC=CC=C1", 
	 "Tm": 295.15, 
	 "num_atms": 26, 
	 "gaussian": { 
		 "optdone": 1, 
		 "sigma_profile": "yes", 
		 "theory": "DFT", 
		 "functional": "B3LYP", 
		 "basiset": "6-31G**", 
		 "properties": { 
			 "R2extent": 4004.0468, 
			 "electric_dipole_moment_norm": 0.903252533902, 
			 "electric_quadrupole_moment_norm": 7.12200876088, 
			 "total_energy": -556.987272709, 
			 "HOMO_LUMO_gap": 0.19672, 
			 "cosmo_polarized_energy": -7.23, 
			 "cosmo_cavitation_energy": 28.75, 
			 "cosmo_dispersion_energy": -20.98, 
			 "cosmo_repulsion_energy": 1.66, 
			 "cosmo_total_nonelectrostatic_energy": 9.43, 
			 "SMD_solvation_energy": 3.16 
		},
		"coords": [
			{
				"x": 1.0937075876,
				"y": 2.5926724217,
				"z": 0.3596034061,
				"element": "C" 
			},
			{
				"x": 0.6657114124,
				"y": 1.1284530395,
				"z": 0.5376827267,
				"element": "C" 
			},
			{
				"x": 0.5903837042,
				"y": 0.7630245456,
				"z": 2.0274118758,
				"element": "C" 
			},
			{
				"x": -0.6701936348,
				"y": 0.8141483562,
				"z": -0.2103397275,
				"element": "C" 
			},
			{
				"x": -0.3125806389,
				"y": -0.1769459014,
				"z": -1.1974093462,
				"element": "O" 
			},
			{
				"x": 1.0288117885,
				"y": -0.4022490514,
				"z": -1.0374582902,
				"element": "C" 
			},
			{
				"x": 1.6471459481,
				"y": 0.2502065731,
				"z": -0.1302037162,
				"element": "N" 
			},
			{
				"x": 1.6263767753,
				"y": -1.3933659984,
				"z": -1.9483409216,
				"element": "C" 
			},
			{
				"x": 0.8475725645,
				"y": -2.0510511054,
				"z": -2.9106325145,
				"element": "C" 
			},
			{
				"x": 1.4353851327,
				"y": -2.985819523,
				"z": -3.7627451503,
				"element": "C" 
			},
			{
				"x": 2.7984623718,
				"y": -3.2690683206,
				"z": -3.6603452658,
				"element": "C" 
			},
			{
				"x": 3.5771809519,
				"y": -2.6140598198,
				"z": -2.7009114702,
				"element": "C" 
			},
			{
				"x": 2.9964678751,
				"y": -1.6803222095,
				"z": -1.8478471735,
				"element": "C" 
			},
			{
				"x": 1.1571439358,
				"y": 2.8511774553,
				"z": -0.7019556768,
				"element": "H" 
			},
			{
				"x": 2.0776316562,
				"y": 2.7571058455,
				"z": 0.8077778313,
				"element": "H" 
			},
			{
				"x": 0.3771584352,
				"y": 3.2699313786,
				"z": 0.8384968597,
				"element": "H" 
			},
			{
				"x": -0.1397061513,
				"y": 1.3936843124,
				"z": 2.5477015563,
				"element": "H" 
			},
			{
				"x": 0.2962645634,
				"y": -0.2833747343,
				"z": 2.1549922625,
				"element": "H" 
			},
			{
				"x": 1.5662965136,
				"y": 0.9009216812,
				"z": 2.5013178358,
				"element": "H" 
			},
			{
				"x": -1.0878054166,
				"y": 1.6817323019,
				"z": -0.7315467605,
				"element": "H" 
			},
			{
				"x": -1.4393779679,
				"y": 0.3867801112,
				"z": 0.441265325,
				"element": "H" 
			},
			{
				"x": -0.2103621243,
				"y": -1.8255127072,
				"z": -2.9837648004,
				"element": "H" 
			},
			{
				"x": 0.8282118374,
				"y": -3.4930649816,
				"z": -4.5069163327,
				"element": "H" 
			},
			{
				"x": 3.2539717225,
				"y": -3.9975740255,
				"z": -4.32516851,
				"element": "H" 
			},
			{
				"x": 4.6379432447,
				"y": -2.8330100173,
				"z": -2.6195519708,
				"element": "H" 
			},
			{
				"x": 3.5827979131,
				"y": -1.1614196269,
				"z": -1.0972120523,
				"element": "H" 
			}
		],
		 "valence_orbital": [ 
			{
				"type": "occ",
				"energy": -0.32315,
				"method": "rhf"
			},
			{
				"type": "occ",
				"energy": -0.26773,
				"method": "rhf"
			},
			{
				"type": "occ",
				"energy": -0.26338,
				"method": "rhf"
			},
			{
				"type": "occ",
				"energy": -0.25176,
				"method": "rhf"
			},
			{
				"type": "occ",
				"energy": -0.23005,
				"method": "rhf"
			},
			{
				"type": "unocc",
				"energy": -0.03333,
				"method": "rhf"
			},
			{
				"type": "unocc",
				"energy": -0.00068,
				"method": "rhf"
			},
			{
				"type": "unocc",
				"energy": 0.06979,
				"method": "rhf"
			},
			{
				"type": "unocc",
				"energy": 0.09012,
				"method": "rhf"
			},
			{
				"type": "unocc",
				"energy": 0.09549,
				"method": "rhf"
			}
		],
		"cosmo_sigma_profile": { 
			"-0.025": 0.0,
			"-0.024": 0.0,
			"-0.023": 0.0,
			"-0.022": 0.0,
			"-0.021": 0.0,
			"-0.02": 0.0,
			"-0.019": 0.0,
			"-0.018": 0.0,
			"-0.017": 0.0,
			"-0.016": 0.0,
			"-0.015": 0.0,
			"-0.014": 0.0,
			"-0.013": 0.0,
			"-0.012": 0.0,
			"-0.011": 0.0,
			"-0.01": 0.0,
			"-0.009": 0.0,
			"-0.008": 0.0,
			"-0.007": 0.349405170449,
			"-0.006": 6.71877592498,
			"-0.005": 14.8313313263,
			"-0.004": 26.0930669293,
			"-0.003": 27.5920634413,
			"-0.002": 17.9520081681,
			"-0.001": 19.3406910746,
			"0.0": 21.7744205745,
			"0.001": 19.4184910552,
			"0.002": 15.756660824,
			"0.003": 14.7090905315,
			"0.004": 15.5127839552,
			"0.005": 10.6817777116,
			"0.006": 2.45242969728,
			"0.007": 3.61104054961,
			"0.008": 3.24486489839,
			"0.009": 1.83002982301,
			"0.01": 1.19994782035,
			"0.011": 0.822809080575,
			"0.012": 1.30608708732,
			"0.013": 0.737369688305,
			"0.014": 0.741710123141,
			"0.015": 0.570722172583,
			"0.016": 0.110420243387,
			"0.017": 0.0,
			"0.018": 0.0,
			"0.019": 0.0,
			"0.02": 0.0,
			"0.021": 0.0,
			"0.022": 0.0,
			"0.023": 0.0,
			"0.024": 0.0,
			"0.025": 0.0
		}
	}
}
