{
	 "smiles": "OC(=O)CC1=CC=CC=C1NC1=C(Cl)C=CC=C1Cl", 
	 "Tm": 430.15, 
	 "num_atms": 30, 
	 "gaussian": { 
		 "optdone": 1, 
		 "sigma_profile": "yes", 
		 "theory": "DFT", 
		 "functional": "B3LYP", 
		 "basiset": "6-31G**", 
		 "properties": { 
			 "R2extent": 7112.9069, 
			 "electric_dipole_moment_norm": 0.460511259363, 
			 "electric_quadrupole_moment_norm": 16.1195657448, 
			 "total_energy": -1665.72388313, 
			 "HOMO_LUMO_gap": 0.18178, 
			 "cosmo_polarized_energy": -12.13, 
			 "cosmo_cavitation_energy": 37.5, 
			 "cosmo_dispersion_energy": -26.03, 
			 "cosmo_repulsion_energy": 2.0, 
			 "cosmo_total_nonelectrostatic_energy": 13.48, 
			 "SMD_solvation_energy": 6.62 
		},
		"coords": [
			{
				"x": -1.2821979475,
				"y": -4.3961072099,
				"z": -0.3074804703,
				"element": "O" 
			},
			{
				"x": -1.4569112992,
				"y": -3.1393638453,
				"z": 0.1464787579,
				"element": "C" 
			},
			{
				"x": -1.4480289942,
				"y": -2.8739617431,
				"z": 1.3345654198,
				"element": "O" 
			},
			{
				"x": -1.6559969181,
				"y": -2.1303387646,
				"z": -0.9679260949,
				"element": "C" 
			},
			{
				"x": -0.5762539987,
				"y": -1.0630454316,
				"z": -0.9895009321,
				"element": "C" 
			},
			{
				"x": 0.4345798718,
				"y": -1.1112088271,
				"z": -1.9538519111,
				"element": "C" 
			},
			{
				"x": 1.402855299,
				"y": -0.1117754261,
				"z": -2.0438050336,
				"element": "C" 
			},
			{
				"x": 1.3622067539,
				"y": 0.9564020078,
				"z": -1.1474928876,
				"element": "C" 
			},
			{
				"x": 0.3758452188,
				"y": 1.0136923167,
				"z": -0.1660626284,
				"element": "C" 
			},
			{
				"x": -0.5986106706,
				"y": 0.0102604791,
				"z": -0.0719317059,
				"element": "C" 
			},
			{
				"x": -1.6021969009,
				"y": 0.0286400825,
				"z": 0.9263973152,
				"element": "N" 
			},
			{
				"x": -1.9465206185,
				"y": 1.1638230955,
				"z": 1.6628668197,
				"element": "C" 
			},
			{
				"x": -1.8758307237,
				"y": 1.1808703868,
				"z": 3.074421447,
				"element": "C" 
			},
			{
				"x": -1.2664099764,
				"y": -0.2364532125,
				"z": 3.9161810566,
				"element": "Cl" 
			},
			{
				"x": -2.271367702,
				"y": 2.2791694482,
				"z": 3.833027257,
				"element": "C" 
			},
			{
				"x": -2.7402875439,
				"y": 3.4239676699,
				"z": 3.1933393984,
				"element": "C" 
			},
			{
				"x": -2.8362300858,
				"y": 3.4503771058,
				"z": 1.8035534305,
				"element": "C" 
			},
			{
				"x": -2.4654358705,
				"y": 2.3329903964,
				"z": 1.0594985907,
				"element": "C" 
			},
			{
				"x": -2.7119267699,
				"y": 2.3860419697,
				"z": -0.6762434681,
				"element": "Cl" 
			},
			{
				"x": -1.1580607243,
				"y": -4.9574858559,
				"z": 0.4775929819,
				"element": "H" 
			},
			{
				"x": -1.6948594993,
				"y": -2.6531281931,
				"z": -1.9248919032,
				"element": "H" 
			},
			{
				"x": -2.6282171996,
				"y": -1.6548190636,
				"z": -0.7876336013,
				"element": "H" 
			},
			{
				"x": 0.447553538,
				"y": -1.9403881226,
				"z": -2.6569330193,
				"element": "H" 
			},
			{
				"x": 2.1726312286,
				"y": -0.1642001517,
				"z": -2.8073800523,
				"element": "H" 
			},
			{
				"x": 2.1078229235,
				"y": 1.7445470389,
				"z": -1.2008169316,
				"element": "H" 
			},
			{
				"x": 0.3613136183,
				"y": 1.8345585503,
				"z": 0.5433176044,
				"element": "H" 
			},
			{
				"x": -1.6684737501,
				"y": -0.8525035582,
				"z": 1.4334650729,
				"element": "H" 
			},
			{
				"x": -2.1946597065,
				"y": 2.2328522638,
				"z": 4.9133341044,
				"element": "H" 
			},
			{
				"x": -3.0393503866,
				"y": 4.2892307133,
				"z": 3.77573489,
				"element": "H" 
			},
			{
				"x": -3.2216811656,
				"y": 4.3224558805,
				"z": 1.2876764933,
				"element": "H" 
			}
		],
		 "valence_orbital": [ 
			{
				"type": "occ",
				"energy": -0.29251,
				"method": "rhf"
			},
			{
				"type": "occ",
				"energy": -0.25329,
				"method": "rhf"
			},
			{
				"type": "occ",
				"energy": -0.24633,
				"method": "rhf"
			},
			{
				"type": "occ",
				"energy": -0.24455,
				"method": "rhf"
			},
			{
				"type": "occ",
				"energy": -0.20381,
				"method": "rhf"
			},
			{
				"type": "unocc",
				"energy": -0.02203,
				"method": "rhf"
			},
			{
				"type": "unocc",
				"energy": -0.0192,
				"method": "rhf"
			},
			{
				"type": "unocc",
				"energy": -0.00666,
				"method": "rhf"
			},
			{
				"type": "unocc",
				"energy": 0.00501,
				"method": "rhf"
			},
			{
				"type": "unocc",
				"energy": 0.01139,
				"method": "rhf"
			}
		],
		"cosmo_sigma_profile": { 
			"-0.025": 0.0,
			"-0.024": 0.0,
			"-0.023": 0.0,
			"-0.022": 0.0,
			"-0.021": 0.0,
			"-0.02": 0.0,
			"-0.019": 0.0578195663154,
			"-0.018": 0.965500456061,
			"-0.017": 1.11964983149,
			"-0.016": 0.698157924133,
			"-0.015": 1.08389102677,
			"-0.014": 0.643605565826,
			"-0.013": 0.2572932565,
			"-0.012": 0.628384814779,
			"-0.011": 1.51730222038,
			"-0.01": 0.512773780914,
			"-0.009": 0.349067143116,
			"-0.008": 1.99786071112,
			"-0.007": 8.1924032733,
			"-0.006": 14.8159170472,
			"-0.005": 19.8302523047,
			"-0.004": 17.5579650505,
			"-0.003": 20.0225387717,
			"-0.002": 20.3381607681,
			"-0.001": 18.97419208,
			"0.0": 19.4775636222,
			"0.001": 27.2730549562,
			"0.002": 27.9196293974,
			"0.003": 28.0334708328,
			"0.004": 27.9771388356,
			"0.005": 18.7539913476,
			"0.006": 11.7663257981,
			"0.007": 4.15999224358,
			"0.008": 3.41707384783,
			"0.009": 2.75481662621,
			"0.01": 2.0059428764,
			"0.011": 1.13763846347,
			"0.012": 0.346214478613,
			"0.013": 0.0,
			"0.014": 0.0,
			"0.015": 0.0,
			"0.016": 0.0,
			"0.017": 0.0,
			"0.018": 0.0,
			"0.019": 0.0,
			"0.02": 0.0,
			"0.021": 0.0,
			"0.022": 0.0,
			"0.023": 0.0,
			"0.024": 0.0,
			"0.025": 0.0
		}
	}
}
