{
	 "smiles": "CCOC(=O)C1C(C2=CC=C(Br)C=C2)C2=C(OC1=N)C1=C(OC2=O)C=CC=C1", 
	 "Tm": 465.15, 
	 "num_atms": 44, 
	 "gaussian": { 
		 "optdone": 1, 
		 "sigma_profile": "yes", 
		 "theory": "DFT", 
		 "functional": "B3LYP", 
		 "basiset": "6-31G**", 
		 "properties": { 
			 "R2extent": 15855.2027, 
			 "electric_dipole_moment_norm": 3.95883761349, 
			 "electric_quadrupole_moment_norm": 34.6171023646, 
			 "total_energy": -3812.162244, 
			 "HOMO_LUMO_gap": 0.16867, 
			 "cosmo_polarized_energy": -20.47, 
			 "cosmo_cavitation_energy": 50.95, 
			 "cosmo_dispersion_energy": -34.4, 
			 "cosmo_repulsion_energy": 2.6, 
			 "cosmo_total_nonelectrostatic_energy": 19.15, 
			 "SMD_solvation_energy": 8.36 
		},
		"coords": [
			{
				"x": -1.259688286,
				"y": -4.3305678201,
				"z": 2.2405774857,
				"element": "C" 
			},
			{
				"x": 0.0645205253,
				"y": -3.6409261867,
				"z": 1.9548087086,
				"element": "C" 
			},
			{
				"x": -0.1424565342,
				"y": -2.3520214345,
				"z": 1.3127274063,
				"element": "O" 
			},
			{
				"x": -0.2476596212,
				"y": -2.3499580747,
				"z": -0.0226328002,
				"element": "C" 
			},
			{
				"x": -0.2203967841,
				"y": -3.3418121469,
				"z": -0.7252904688,
				"element": "O" 
			},
			{
				"x": -0.3874433358,
				"y": -0.9353917017,
				"z": -0.5612859982,
				"element": "C" 
			},
			{
				"x": 0.9110345056,
				"y": -0.5001580982,
				"z": -1.3189159094,
				"element": "C" 
			},
			{
				"x": 2.0861868519,
				"y": -0.4778268776,
				"z": -0.3470924964,
				"element": "C" 
			},
			{
				"x": 2.1931148427,
				"y": 0.5079590487,
				"z": 0.6413765648,
				"element": "C" 
			},
			{
				"x": 3.2322190009,
				"y": 0.486595072,
				"z": 1.5692605966,
				"element": "C" 
			},
			{
				"x": 4.1738094259,
				"y": -0.5400037165,
				"z": 1.5101141025,
				"element": "C" 
			},
			{
				"x": 5.5991865948,
				"y": -0.5829610332,
				"z": 2.7838364686,
				"element": "Br" 
			},
			{
				"x": 4.0912759115,
				"y": -1.5331109785,
				"z": 0.5377336056,
				"element": "C" 
			},
			{
				"x": 3.0456246328,
				"y": -1.493889771,
				"z": -0.385511417,
				"element": "C" 
			},
			{
				"x": 0.6261468362,
				"y": 0.8248852373,
				"z": -1.9986719563,
				"element": "C" 
			},
			{
				"x": -0.6499796209,
				"y": 1.2653859877,
				"z": -2.2008211166,
				"element": "C" 
			},
			{
				"x": -1.7587341687,
				"y": 0.5380682676,
				"z": -1.8954311348,
				"element": "O" 
			},
			{
				"x": -1.595799428,
				"y": -0.7786037492,
				"z": -1.4655174827,
				"element": "C" 
			},
			{
				"x": -2.4783708442,
				"y": -1.5911910934,
				"z": -1.8426197949,
				"element": "N" 
			},
			{
				"x": -0.9275986677,
				"y": 2.5541301128,
				"z": -2.7947998275,
				"element": "C" 
			},
			{
				"x": 0.1812445245,
				"y": 3.3191858216,
				"z": -3.1934827543,
				"element": "C" 
			},
			{
				"x": 1.4543598564,
				"y": 2.85118346,
				"z": -3.0654687607,
				"element": "O" 
			},
			{
				"x": 1.7450178788,
				"y": 1.5921367053,
				"z": -2.5379390957,
				"element": "C" 
			},
			{
				"x": 2.8977419126,
				"y": 1.2287706078,
				"z": -2.5701717569,
				"element": "O" 
			},
			{
				"x": 0.013856778,
				"y": 4.586559642,
				"z": -3.7565402591,
				"element": "C" 
			},
			{
				"x": -1.2724956576,
				"y": 5.0866420942,
				"z": -3.9241153951,
				"element": "C" 
			},
			{
				"x": -2.3917018655,
				"y": 4.3313397072,
				"z": -3.5406299455,
				"element": "C" 
			},
			{
				"x": -2.2220271548,
				"y": 3.0722851182,
				"z": -2.9825698353,
				"element": "C" 
			},
			{
				"x": -1.91230771,
				"y": -3.6906123711,
				"z": 2.8413304002,
				"element": "H" 
			},
			{
				"x": -1.0792204491,
				"y": -5.2555279031,
				"z": 2.7978431898,
				"element": "H" 
			},
			{
				"x": -1.7720889959,
				"y": -4.5884442117,
				"z": 1.3104478611,
				"element": "H" 
			},
			{
				"x": 0.7026393095,
				"y": -4.250693139,
				"z": 1.3118116355,
				"element": "H" 
			},
			{
				"x": 0.5999522575,
				"y": -3.3952863194,
				"z": 2.873914602,
				"element": "H" 
			},
			{
				"x": -0.5256170642,
				"y": -0.2537530199,
				"z": 0.2847914278,
				"element": "H" 
			},
			{
				"x": 1.1187918568,
				"y": -1.2628443119,
				"z": -2.0800490953,
				"element": "H" 
			},
			{
				"x": 1.4649112762,
				"y": 1.3138329756,
				"z": 0.6852463684,
				"element": "H" 
			},
			{
				"x": 3.3118113426,
				"y": 1.2573784927,
				"z": 2.327317269,
				"element": "H" 
			},
			{
				"x": 4.8339783601,
				"y": -2.3216193926,
				"z": 0.4964737679,
				"element": "H" 
			},
			{
				"x": 2.9837036563,
				"y": -2.2638856733,
				"z": -1.1494768082,
				"element": "H" 
			},
			{
				"x": -2.2771616492,
				"y": -2.5256075086,
				"z": -1.4852313142,
				"element": "H" 
			},
			{
				"x": 0.8926603835,
				"y": 5.1479037701,
				"z": -4.0539022895,
				"element": "H" 
			},
			{
				"x": -1.4084615532,
				"y": 6.0709682118,
				"z": -4.3618667079,
				"element": "H" 
			},
			{
				"x": -3.3907399805,
				"y": 4.7303070896,
				"z": -3.6829912554,
				"element": "H" 
			},
			{
				"x": -3.0737391495,
				"y": 2.4710791108,
				"z": -2.6856857845,
				"element": "H" 
			}
		],
		 "valence_orbital": [ 
			{
				"type": "occ",
				"energy": -0.27924,
				"method": "rhf"
			},
			{
				"type": "occ",
				"energy": -0.26484,
				"method": "rhf"
			},
			{
				"type": "occ",
				"energy": -0.25755,
				"method": "rhf"
			},
			{
				"type": "occ",
				"energy": -0.24087,
				"method": "rhf"
			},
			{
				"type": "occ",
				"energy": -0.23709,
				"method": "rhf"
			},
			{
				"type": "unocc",
				"energy": -0.06842,
				"method": "rhf"
			},
			{
				"type": "unocc",
				"energy": -0.0244,
				"method": "rhf"
			},
			{
				"type": "unocc",
				"energy": -0.02048,
				"method": "rhf"
			},
			{
				"type": "unocc",
				"energy": -0.01756,
				"method": "rhf"
			},
			{
				"type": "unocc",
				"energy": -0.01251,
				"method": "rhf"
			}
		],
		"cosmo_sigma_profile": { 
			"-0.025": 0.0,
			"-0.024": 0.0,
			"-0.023": 0.0,
			"-0.022": 0.0,
			"-0.021": 0.0,
			"-0.02": 0.0,
			"-0.019": 0.0,
			"-0.018": 0.0,
			"-0.017": 0.0,
			"-0.016": 0.0,
			"-0.015": 0.0,
			"-0.014": 0.0,
			"-0.013": 0.0,
			"-0.012": 0.0,
			"-0.011": 0.0,
			"-0.01": 0.890558171094,
			"-0.009": 4.45779109216,
			"-0.008": 4.91266656392,
			"-0.007": 18.2474211909,
			"-0.006": 25.2179488663,
			"-0.005": 28.7501789652,
			"-0.004": 32.8219328216,
			"-0.003": 31.9810205545,
			"-0.002": 26.890613636,
			"-0.001": 29.3311838331,
			"0.0": 31.4074112611,
			"0.001": 29.0443397813,
			"0.002": 29.3708002772,
			"0.003": 30.1977889294,
			"0.004": 22.0319160692,
			"0.005": 14.7435339945,
			"0.006": 6.60411227611,
			"0.007": 6.11948970686,
			"0.008": 5.48810310561,
			"0.009": 6.09961441586,
			"0.01": 7.08828178524,
			"0.011": 8.12463874717,
			"0.012": 5.6731652737,
			"0.013": 2.52823149645,
			"0.014": 1.50250413276,
			"0.015": 0.967324689871,
			"0.016": 0.345224404954,
			"0.017": 0.0,
			"0.018": 0.0,
			"0.019": 0.0,
			"0.02": 0.0,
			"0.021": 0.0,
			"0.022": 0.0,
			"0.023": 0.0,
			"0.024": 0.0,
			"0.025": 0.0
		}
	}
}
