{
	 "smiles": "OC(=O)C=C(/Br)C(O)=O", 
	 "Tm": 457.15, 
	 "num_atms": 12, 
	 "gaussian": { 
		 "optdone": 1, 
		 "sigma_profile": "yes", 
		 "theory": "DFT", 
		 "functional": "B3LYP", 
		 "basiset": "6-31G**", 
		 "properties": { 
			 "R2extent": 3132.8612, 
			 "electric_dipole_moment_norm": 2.3481969466, 
			 "electric_quadrupole_moment_norm": 10.3077473543, 
			 "total_energy": -3026.52455634, 
			 "HOMO_LUMO_gap": 0.18571, 
			 "cosmo_polarized_energy": -13.84, 
			 "cosmo_cavitation_energy": 20.02, 
			 "cosmo_dispersion_energy": -15.27, 
			 "cosmo_repulsion_energy": 1.26, 
			 "cosmo_total_nonelectrostatic_energy": 6.02, 
			 "SMD_solvation_energy": 5.44 
		},
		"coords": [
			{
				"x": -2.3351344562,
				"y": 1.4203034475,
				"z": 0.2569965931,
				"element": "O" 
			},
			{
				"x": -1.4949750673,
				"y": 1.4196046777,
				"z": -0.8044833755,
				"element": "C" 
			},
			{
				"x": -1.8654840526,
				"y": 1.6076583471,
				"z": -1.9434767398,
				"element": "O" 
			},
			{
				"x": -0.1091887191,
				"y": 1.1609652263,
				"z": -0.3483977617,
				"element": "C" 
			},
			{
				"x": 0.9911061478,
				"y": 1.0863931454,
				"z": -1.1079611569,
				"element": "C" 
			},
			{
				"x": 0.9978595953,
				"y": 1.3063149153,
				"z": -3.0031012466,
				"element": "Br" 
			},
			{
				"x": 2.3294611965,
				"y": 0.8098588978,
				"z": -0.4386471755,
				"element": "C" 
			},
			{
				"x": 3.408969586,
				"y": 0.7411768586,
				"z": -1.2268057981,
				"element": "O" 
			},
			{
				"x": 2.3987751827,
				"y": 0.660097487,
				"z": 0.7578189603,
				"element": "O" 
			},
			{
				"x": -3.2240090972,
				"y": 1.5933608856,
				"z": -0.0961989783,
				"element": "H" 
			},
			{
				"x": 0.0421128971,
				"y": 1.0143415991,
				"z": 0.7164916446,
				"element": "H" 
			},
			{
				"x": 3.1541067868,
				"y": 0.8871245126,
				"z": -2.1559349655,
				"element": "H" 
			}
		],
		 "valence_orbital": [ 
			{
				"type": "occ",
				"energy": -0.3375,
				"method": "rhf"
			},
			{
				"type": "occ",
				"energy": -0.33579,
				"method": "rhf"
			},
			{
				"type": "occ",
				"energy": -0.29798,
				"method": "rhf"
			},
			{
				"type": "occ",
				"energy": -0.29134,
				"method": "rhf"
			},
			{
				"type": "occ",
				"energy": -0.28858,
				"method": "rhf"
			},
			{
				"type": "unocc",
				"energy": -0.10287,
				"method": "rhf"
			},
			{
				"type": "unocc",
				"energy": -0.02354,
				"method": "rhf"
			},
			{
				"type": "unocc",
				"energy": 0.01841,
				"method": "rhf"
			},
			{
				"type": "unocc",
				"energy": 0.06674,
				"method": "rhf"
			},
			{
				"type": "unocc",
				"energy": 0.07838,
				"method": "rhf"
			}
		],
		"cosmo_sigma_profile": { 
			"-0.025": 0.0,
			"-0.024": 0.0,
			"-0.023": 0.0,
			"-0.022": 0.0,
			"-0.021": 0.0,
			"-0.02": 0.0488838409406,
			"-0.019": 0.669613358735,
			"-0.018": 0.951448685081,
			"-0.017": 0.74526978078,
			"-0.016": 0.873059234177,
			"-0.015": 1.65627617768,
			"-0.014": 0.618331616462,
			"-0.013": 1.86755566165,
			"-0.012": 1.8619004594,
			"-0.011": 2.12537581494,
			"-0.01": 1.77225757132,
			"-0.009": 2.92677063801,
			"-0.008": 3.44660638148,
			"-0.007": 4.74116320409,
			"-0.006": 5.85055067734,
			"-0.005": 7.50417785576,
			"-0.004": 11.1141453697,
			"-0.003": 12.8471224945,
			"-0.002": 12.2921033743,
			"-0.001": 7.77537357494,
			"0.0": 8.64167539419,
			"0.001": 7.32920213123,
			"0.002": 8.45882338904,
			"0.003": 5.62622069876,
			"0.004": 4.82836707811,
			"0.005": 5.76547859229,
			"0.006": 5.14631469094,
			"0.007": 5.47225561646,
			"0.008": 7.7864486998,
			"0.009": 7.20572514834,
			"0.01": 8.42417706704,
			"0.011": 6.63754776255,
			"0.012": 0.734268262022,
			"0.013": 0.0,
			"0.014": 0.0,
			"0.015": 0.0,
			"0.016": 0.0,
			"0.017": 0.0,
			"0.018": 0.0,
			"0.019": 0.0,
			"0.02": 0.0,
			"0.021": 0.0,
			"0.022": 0.0,
			"0.023": 0.0,
			"0.024": 0.0,
			"0.025": 0.0
		}
	}
}
