{
	 "smiles": "CCOC(=O)C1=NN(C(C)=C1C(=O)C1=NOC2C1C(=O)N(C2=O)C1=CC=CC=C1C)C1=CC=C(C)C=C1", 
	 "Tm": 473.15, 
	 "num_atms": 61, 
	 "gaussian": { 
		 "optdone": 1, 
		 "sigma_profile": "yes", 
		 "theory": "DFT", 
		 "functional": "B3LYP", 
		 "basiset": "6-31G**", 
		 "properties": { 
			 "R2extent": 24567.7874, 
			 "electric_dipole_moment_norm": 4.44322824644, 
			 "electric_quadrupole_moment_norm": 24.4282037162, 
			 "total_energy": -1713.64853255, 
			 "HOMO_LUMO_gap": 0.1591, 
			 "cosmo_polarized_energy": -29.8, 
			 "cosmo_cavitation_energy": 66.85, 
			 "cosmo_dispersion_energy": -43.78, 
			 "cosmo_repulsion_energy": 3.29, 
			 "cosmo_total_nonelectrostatic_energy": 26.35, 
			 "SMD_solvation_energy": 13.05 
		},
		"coords": [
			{
				"x": 5.4912441926,
				"y": -3.5690074209,
				"z": 1.651689295,
				"element": "C" 
			},
			{
				"x": 4.2174290979,
				"y": -4.0882782358,
				"z": 2.301687897,
				"element": "C" 
			},
			{
				"x": 3.0406194836,
				"y": -3.5934354221,
				"z": 1.6180895564,
				"element": "O" 
			},
			{
				"x": 2.5977182796,
				"y": -2.3821830285,
				"z": 2.0024140429,
				"element": "C" 
			},
			{
				"x": 3.1200923113,
				"y": -1.6881454053,
				"z": 2.8505222771,
				"element": "O" 
			},
			{
				"x": 1.358078002,
				"y": -1.9921105055,
				"z": 1.2774234809,
				"element": "C" 
			},
			{
				"x": 0.4787849005,
				"y": -2.9045772608,
				"z": 0.885309593,
				"element": "N" 
			},
			{
				"x": -0.5674661406,
				"y": -2.1961492188,
				"z": 0.3887935551,
				"element": "N" 
			},
			{
				"x": -0.3710166563,
				"y": -0.8399932509,
				"z": 0.4563978474,
				"element": "C" 
			},
			{
				"x": -1.3143744993,
				"y": 0.163475115,
				"z": -0.1310162907,
				"element": "C" 
			},
			{
				"x": 0.8780034029,
				"y": -0.670052435,
				"z": 1.0482477941,
				"element": "C" 
			},
			{
				"x": 1.631972213,
				"y": 0.5815597588,
				"z": 1.2523662672,
				"element": "C" 
			},
			{
				"x": 2.827494658,
				"y": 0.6853430675,
				"z": 1.0193042139,
				"element": "O" 
			},
			{
				"x": 0.9307886851,
				"y": 1.7743139517,
				"z": 1.8153876181,
				"element": "C" 
			},
			{
				"x": -0.18671874,
				"y": 1.7050004789,
				"z": 2.4480526689,
				"element": "N" 
			},
			{
				"x": -0.5067246253,
				"y": 2.9314246157,
				"z": 3.0022024076,
				"element": "O" 
			},
			{
				"x": 0.5882461747,
				"y": 3.8801891379,
				"z": 2.7688040604,
				"element": "C" 
			},
			{
				"x": 1.5271568204,
				"y": 3.1613630869,
				"z": 1.8086504395,
				"element": "C" 
			},
			{
				"x": 1.317934669,
				"y": 3.8627199462,
				"z": 0.4517961028,
				"element": "C" 
			},
			{
				"x": 1.7971139631,
				"y": 3.5478933493,
				"z": -0.6097413518,
				"element": "O" 
			},
			{
				"x": 0.4439046047,
				"y": 4.9470707738,
				"z": 0.6638104771,
				"element": "N" 
			},
			{
				"x": 0.0382133677,
				"y": 5.0828316753,
				"z": 1.9977467642,
				"element": "C" 
			},
			{
				"x": -0.6379608556,
				"y": 5.9778067155,
				"z": 2.4485709328,
				"element": "O" 
			},
			{
				"x": 0.0590650805,
				"y": 5.8539935627,
				"z": -0.3818477862,
				"element": "C" 
			},
			{
				"x": 1.0646106704,
				"y": 6.5710520646,
				"z": -1.0347671574,
				"element": "C" 
			},
			{
				"x": 0.7368406882,
				"y": 7.4545446327,
				"z": -2.0593364424,
				"element": "C" 
			},
			{
				"x": -0.6001433805,
				"y": 7.6180877708,
				"z": -2.4230403169,
				"element": "C" 
			},
			{
				"x": -1.594197694,
				"y": 6.892198325,
				"z": -1.7691581695,
				"element": "C" 
			},
			{
				"x": -1.2937199577,
				"y": 5.9895322643,
				"z": -0.7401315291,
				"element": "C" 
			},
			{
				"x": -2.393479266,
				"y": 5.2139530521,
				"z": -0.0595246024,
				"element": "C" 
			},
			{
				"x": -1.6781197678,
				"y": -2.9146203415,
				"z": -0.1472648855,
				"element": "C" 
			},
			{
				"x": -2.9886399107,
				"y": -2.539281503,
				"z": 0.1544611619,
				"element": "C" 
			},
			{
				"x": -4.0528423858,
				"y": -3.2659676316,
				"z": -0.3799379342,
				"element": "C" 
			},
			{
				"x": -3.8356385796,
				"y": -4.3792565034,
				"z": -1.2001125291,
				"element": "C" 
			},
			{
				"x": -4.9902699451,
				"y": -5.1517907536,
				"z": -1.7917501734,
				"element": "C" 
			},
			{
				"x": -2.5091658346,
				"y": -4.751613719,
				"z": -1.4675550533,
				"element": "C" 
			},
			{
				"x": -1.4360007828,
				"y": -4.0304722454,
				"z": -0.9546866865,
				"element": "C" 
			},
			{
				"x": 6.3647843879,
				"y": -4.0154140114,
				"z": 2.1388197399,
				"element": "H" 
			},
			{
				"x": 5.5576723126,
				"y": -2.4831776014,
				"z": 1.7524084686,
				"element": "H" 
			},
			{
				"x": 5.5194309141,
				"y": -3.8285779485,
				"z": 0.5893819941,
				"element": "H" 
			},
			{
				"x": 4.1642980221,
				"y": -3.796816483,
				"z": 3.3534482303,
				"element": "H" 
			},
			{
				"x": 4.1381512952,
				"y": -5.174927408,
				"z": 2.2204563566,
				"element": "H" 
			},
			{
				"x": -0.7544407539,
				"y": 1.0213747656,
				"z": -0.509742122,
				"element": "H" 
			},
			{
				"x": -1.8799871168,
				"y": -0.267362029,
				"z": -0.960130934,
				"element": "H" 
			},
			{
				"x": -2.0225744542,
				"y": 0.5366702015,
				"z": 0.615574015,
				"element": "H" 
			},
			{
				"x": 0.9893492481,
				"y": 4.1801135282,
				"z": 3.7388748312,
				"element": "H" 
			},
			{
				"x": 2.5899445838,
				"y": 3.1528070924,
				"z": 2.0592465287,
				"element": "H" 
			},
			{
				"x": 2.0979781169,
				"y": 6.4287927152,
				"z": -0.7376636916,
				"element": "H" 
			},
			{
				"x": 1.5196315343,
				"y": 8.0099337661,
				"z": -2.566169603,
				"element": "H" 
			},
			{
				"x": -0.8694065366,
				"y": 8.3057040191,
				"z": -3.2193673717,
				"element": "H" 
			},
			{
				"x": -2.6327742032,
				"y": 7.0176083868,
				"z": -2.0631872278,
				"element": "H" 
			},
			{
				"x": -3.2990629491,
				"y": 5.2137768218,
				"z": -0.6711647824,
				"element": "H" 
			},
			{
				"x": -2.6351843089,
				"y": 5.6526913125,
				"z": 0.9140786989,
				"element": "H" 
			},
			{
				"x": -2.1060095561,
				"y": 4.1730296197,
				"z": 0.120967764,
				"element": "H" 
			},
			{
				"x": -3.1782592816,
				"y": -1.7063074946,
				"z": 0.8223807507,
				"element": "H" 
			},
			{
				"x": -5.0697496,
				"y": -2.9692491126,
				"z": -0.1375817192,
				"element": "H" 
			},
			{
				"x": -4.801317959,
				"y": -6.2297354095,
				"z": -1.7726952925,
				"element": "H" 
			},
			{
				"x": -5.1581268216,
				"y": -4.8716077106,
				"z": -2.8390855104,
				"element": "H" 
			},
			{
				"x": -5.9198988934,
				"y": -4.9611024452,
				"z": -1.2483870222,
				"element": "H" 
			},
			{
				"x": -2.313073861,
				"y": -5.6198755691,
				"z": -2.0913025865,
				"element": "H" 
			},
			{
				"x": -0.412606363,
				"y": -4.3242674701,
				"z": -1.1577170598,
				"element": "H" 
			}
		],
		 "valence_orbital": [ 
			{
				"type": "occ",
				"energy": -0.26297,
				"method": "rhf"
			},
			{
				"type": "occ",
				"energy": -0.25665,
				"method": "rhf"
			},
			{
				"type": "occ",
				"energy": -0.25572,
				"method": "rhf"
			},
			{
				"type": "occ",
				"energy": -0.25,
				"method": "rhf"
			},
			{
				"type": "occ",
				"energy": -0.23881,
				"method": "rhf"
			},
			{
				"type": "unocc",
				"energy": -0.07971,
				"method": "rhf"
			},
			{
				"type": "unocc",
				"energy": -0.0466,
				"method": "rhf"
			},
			{
				"type": "unocc",
				"energy": -0.03664,
				"method": "rhf"
			},
			{
				"type": "unocc",
				"energy": -0.02626,
				"method": "rhf"
			},
			{
				"type": "unocc",
				"energy": -0.01739,
				"method": "rhf"
			}
		],
		"cosmo_sigma_profile": { 
			"-0.025": 0.0,
			"-0.024": 0.0,
			"-0.023": 0.0,
			"-0.022": 0.0,
			"-0.021": 0.0,
			"-0.02": 0.0,
			"-0.019": 0.0,
			"-0.018": 0.0,
			"-0.017": 0.0,
			"-0.016": 0.0,
			"-0.015": 0.0,
			"-0.014": 0.0,
			"-0.013": 0.0088597895177,
			"-0.012": 0.694007715253,
			"-0.011": 1.91606795558,
			"-0.01": 8.37153375481,
			"-0.009": 5.95427026846,
			"-0.008": 7.40555186575,
			"-0.007": 12.2024799679,
			"-0.006": 25.3659006521,
			"-0.005": 37.7066893277,
			"-0.004": 47.23169865,
			"-0.003": 44.1388389113,
			"-0.002": 46.1632657185,
			"-0.001": 44.6771898782,
			"0.0": 41.9248110198,
			"0.001": 28.0549157063,
			"0.002": 22.6872587734,
			"0.003": 26.4943452214,
			"0.004": 31.2234128196,
			"0.005": 15.1030943189,
			"0.006": 12.3001995128,
			"0.007": 12.2870897929,
			"0.008": 13.271262484,
			"0.009": 11.3867312014,
			"0.01": 17.0239553759,
			"0.011": 13.9858854613,
			"0.012": 3.72548088226,
			"0.013": 1.31996309762,
			"0.014": 0.33175301441,
			"0.015": 0.0,
			"0.016": 0.0,
			"0.017": 0.0,
			"0.018": 0.0,
			"0.019": 0.0,
			"0.02": 0.0,
			"0.021": 0.0,
			"0.022": 0.0,
			"0.023": 0.0,
			"0.024": 0.0,
			"0.025": 0.0
		}
	}
}
