{
	 "smiles": "CC1=CC(=CC(F)=C1)S(N)(=O)=O", 
	 "Tm": 416.15, 
	 "num_atms": 20, 
	 "gaussian": { 
		 "optdone": 1, 
		 "sigma_profile": "yes", 
		 "theory": "DFT", 
		 "functional": "B3LYP", 
		 "basiset": "6-31G**", 
		 "properties": { 
			 "R2extent": 2644.2858, 
			 "electric_dipole_moment_norm": 5.79362393843, 
			 "electric_quadrupole_moment_norm": 14.6631071192, 
			 "total_energy": -974.722411164, 
			 "HOMO_LUMO_gap": 0.21659, 
			 "cosmo_polarized_energy": -17.71, 
			 "cosmo_cavitation_energy": 26.17, 
			 "cosmo_dispersion_energy": -19.41, 
			 "cosmo_repulsion_energy": 1.49, 
			 "cosmo_total_nonelectrostatic_energy": 8.25, 
			 "SMD_solvation_energy": 4.77 
		},
		"coords": [
			{
				"x": -2.3123015176,
				"y": -1.9331794284,
				"z": 0.6227938408,
				"element": "C" 
			},
			{
				"x": -1.2936897683,
				"y": -0.8359263012,
				"z": 0.8203297209,
				"element": "C" 
			},
			{
				"x": -0.3944410411,
				"y": -0.4970680816,
				"z": -0.1992264238,
				"element": "C" 
			},
			{
				"x": 0.5619086616,
				"y": 0.4964635161,
				"z": 0.0169685378,
				"element": "C" 
			},
			{
				"x": 0.6649032881,
				"y": 1.17132257,
				"z": 1.2332210354,
				"element": "C" 
			},
			{
				"x": -0.2404475459,
				"y": 0.8220065533,
				"z": 2.2278292375,
				"element": "C" 
			},
			{
				"x": -0.1739589573,
				"y": 1.4524593006,
				"z": 3.4160426439,
				"element": "F" 
			},
			{
				"x": -1.2110752771,
				"y": -0.1556433739,
				"z": 2.0427155245,
				"element": "C" 
			},
			{
				"x": 1.6842578392,
				"y": 0.9445342861,
				"z": -1.3209680856,
				"element": "S" 
			},
			{
				"x": 0.9375566866,
				"y": 2.1815144913,
				"z": -2.1794879966,
				"element": "N" 
			},
			{
				"x": 2.8688099212,
				"y": 1.5461185811,
				"z": -0.7128178487,
				"element": "O" 
			},
			{
				"x": 1.7443697994,
				"y": -0.1917196981,
				"z": -2.2378134226,
				"element": "O" 
			},
			{
				"x": -1.9799075221,
				"y": -2.8638446062,
				"z": 1.0978393204,
				"element": "H" 
			},
			{
				"x": -3.2763775068,
				"y": -1.6676693765,
				"z": 1.0672973326,
				"element": "H" 
			},
			{
				"x": -2.4710628604,
				"y": -2.14381871,
				"z": -0.4378550878,
				"element": "H" 
			},
			{
				"x": -0.4160908573,
				"y": -1.0186096923,
				"z": -1.1503443892,
				"element": "H" 
			},
			{
				"x": 1.4309521559,
				"y": 1.916923002,
				"z": 1.4101879229,
				"element": "H" 
			},
			{
				"x": -1.8883115546,
				"y": -0.383860785,
				"z": 2.8597574877,
				"element": "H" 
			},
			{
				"x": 0.8276971639,
				"y": 3.0315409297,
				"z": -1.6357791088,
				"element": "H" 
			},
			{
				"x": 0.0824088925,
				"y": 1.885656823,
				"z": -2.6391902414,
				"element": "H" 
			}
		],
		 "valence_orbital": [ 
			{
				"type": "occ",
				"energy": -0.31905,
				"method": "rhf"
			},
			{
				"type": "occ",
				"energy": -0.30724,
				"method": "rhf"
			},
			{
				"type": "occ",
				"energy": -0.30564,
				"method": "rhf"
			},
			{
				"type": "occ",
				"energy": -0.27221,
				"method": "rhf"
			},
			{
				"type": "occ",
				"energy": -0.26399,
				"method": "rhf"
			},
			{
				"type": "unocc",
				"energy": -0.0474,
				"method": "rhf"
			},
			{
				"type": "unocc",
				"energy": -0.02151,
				"method": "rhf"
			},
			{
				"type": "unocc",
				"energy": 0.04651,
				"method": "rhf"
			},
			{
				"type": "unocc",
				"energy": 0.07145,
				"method": "rhf"
			},
			{
				"type": "unocc",
				"energy": 0.08494,
				"method": "rhf"
			}
		],
		"cosmo_sigma_profile": { 
			"-0.025": 0.0,
			"-0.024": 0.0,
			"-0.023": 0.0,
			"-0.022": 0.0,
			"-0.021": 0.0,
			"-0.02": 0.0,
			"-0.019": 0.0,
			"-0.018": 0.0,
			"-0.017": 0.0,
			"-0.016": 0.246094828123,
			"-0.015": 2.31216336177,
			"-0.014": 2.59399821514,
			"-0.013": 2.5659603496,
			"-0.012": 3.25254621896,
			"-0.011": 2.47105420762,
			"-0.01": 2.64088668246,
			"-0.009": 1.36856707641,
			"-0.008": 3.27111744707,
			"-0.007": 6.56427715827,
			"-0.006": 7.10763120391,
			"-0.005": 11.6021393114,
			"-0.004": 11.2801536318,
			"-0.003": 11.5340702516,
			"-0.002": 13.1838102927,
			"-0.001": 16.6202716866,
			"0.0": 16.9702678502,
			"0.001": 15.9818444744,
			"0.002": 13.436665668,
			"0.003": 8.90656475285,
			"0.004": 11.7497903722,
			"0.005": 2.77966163981,
			"0.006": 3.36969830806,
			"0.007": 5.00970651972,
			"0.008": 4.48178524216,
			"0.009": 4.39912204308,
			"0.01": 7.97885662222,
			"0.011": 10.8583284203,
			"0.012": 3.74680573386,
			"0.013": 0.118154056733,
			"0.014": 0.0,
			"0.015": 0.0,
			"0.016": 0.0,
			"0.017": 0.0,
			"0.018": 0.0,
			"0.019": 0.0,
			"0.02": 0.0,
			"0.021": 0.0,
			"0.022": 0.0,
			"0.023": 0.0,
			"0.024": 0.0,
			"0.025": 0.0
		}
	}
}
