{
	 "smiles": "NC(=O)C1=COC2=C1C=CC=C2", 
	 "Tm": 418.15, 
	 "num_atms": 19, 
	 "gaussian": { 
		 "optdone": 1, 
		 "sigma_profile": "yes", 
		 "theory": "DFT", 
		 "functional": "B3LYP", 
		 "basiset": "6-31G**", 
		 "properties": { 
			 "R2extent": 2652.6049, 
			 "electric_dipole_moment_norm": 3.47983984258, 
			 "electric_quadrupole_moment_norm": 9.35394640566, 
			 "total_energy": -552.38055873, 
			 "HOMO_LUMO_gap": 0.19447, 
			 "cosmo_polarized_energy": -12.84, 
			 "cosmo_cavitation_energy": 23.51, 
			 "cosmo_dispersion_energy": -17.68, 
			 "cosmo_repulsion_energy": 1.39, 
			 "cosmo_total_nonelectrostatic_energy": 7.22, 
			 "SMD_solvation_energy": 5.48 
		},
		"coords": [
			{
				"x": 0.4920396671,
				"y": -2.1843256619,
				"z": -0.9041660093,
				"element": "N" 
			},
			{
				"x": 1.4007112274,
				"y": -1.1827044318,
				"z": -1.1613670072,
				"element": "C" 
			},
			{
				"x": 2.6103136557,
				"y": -1.376268912,
				"z": -1.1421387397,
				"element": "O" 
			},
			{
				"x": 0.8182118795,
				"y": 0.1509434219,
				"z": -1.449462934,
				"element": "C" 
			},
			{
				"x": 1.5429513459,
				"y": 1.1479915802,
				"z": -2.0305941654,
				"element": "C" 
			},
			{
				"x": 0.811281768,
				"y": 2.2767963362,
				"z": -2.2358098065,
				"element": "O" 
			},
			{
				"x": -0.4483003682,
				"y": 2.0118842856,
				"z": -1.7548629599,
				"element": "C" 
			},
			{
				"x": -0.5112067478,
				"y": 0.7013304474,
				"z": -1.2441571767,
				"element": "C" 
			},
			{
				"x": -1.7186023335,
				"y": 0.2665632377,
				"z": -0.6733135792,
				"element": "C" 
			},
			{
				"x": -2.8035138336,
				"y": 1.1398775869,
				"z": -0.6628662525,
				"element": "C" 
			},
			{
				"x": -2.7076950518,
				"y": 2.4367006379,
				"z": -1.1990449778,
				"element": "C" 
			},
			{
				"x": -1.5154291085,
				"y": 2.900284989,
				"z": -1.753616352,
				"element": "C" 
			},
			{
				"x": 0.8814689669,
				"y": -3.1152799533,
				"z": -0.8523756425,
				"element": "H" 
			},
			{
				"x": -0.4516992138,
				"y": -2.1045125917,
				"z": -1.2518615798,
				"element": "H" 
			},
			{
				"x": 2.5726782243,
				"y": 1.1760975887,
				"z": -2.3519172618,
				"element": "H" 
			},
			{
				"x": -1.804045937,
				"y": -0.7164028257,
				"z": -0.2209365303,
				"element": "H" 
			},
			{
				"x": -3.7423353046,
				"y": 0.8165947348,
				"z": -0.2233612848,
				"element": "H" 
			},
			{
				"x": -3.5733009884,
				"y": 3.0913009194,
				"z": -1.1727739063,
				"element": "H" 
			},
			{
				"x": -1.4154278472,
				"y": 3.9006286107,
				"z": -2.1601738344,
				"element": "H" 
			}
		],
		 "valence_orbital": [ 
			{
				"type": "occ",
				"energy": -0.29905,
				"method": "rhf"
			},
			{
				"type": "occ",
				"energy": -0.27368,
				"method": "rhf"
			},
			{
				"type": "occ",
				"energy": -0.2534,
				"method": "rhf"
			},
			{
				"type": "occ",
				"energy": -0.24956,
				"method": "rhf"
			},
			{
				"type": "occ",
				"energy": -0.23103,
				"method": "rhf"
			},
			{
				"type": "unocc",
				"energy": -0.03656,
				"method": "rhf"
			},
			{
				"type": "unocc",
				"energy": -0.00303,
				"method": "rhf"
			},
			{
				"type": "unocc",
				"energy": 0.00137,
				"method": "rhf"
			},
			{
				"type": "unocc",
				"energy": 0.07231,
				"method": "rhf"
			},
			{
				"type": "unocc",
				"energy": 0.09428,
				"method": "rhf"
			}
		],
		"cosmo_sigma_profile": { 
			"-0.025": 0.0,
			"-0.024": 0.0,
			"-0.023": 0.0,
			"-0.022": 0.0,
			"-0.021": 0.0,
			"-0.02": 0.0,
			"-0.019": 0.0,
			"-0.018": 0.0,
			"-0.017": 0.0,
			"-0.016": 0.0,
			"-0.015": 0.0,
			"-0.014": 0.875102393562,
			"-0.013": 2.38619658807,
			"-0.012": 2.44645932455,
			"-0.011": 2.20232626233,
			"-0.01": 3.7768891023,
			"-0.009": 3.64930025034,
			"-0.008": 4.20852851549,
			"-0.007": 4.77750385593,
			"-0.006": 9.54357593279,
			"-0.005": 10.7065936158,
			"-0.004": 9.6072431845,
			"-0.003": 9.00650143622,
			"-0.002": 10.0107240418,
			"-0.001": 9.78890946365,
			"0.0": 15.4139847327,
			"0.001": 16.01382453,
			"0.002": 14.789707164,
			"0.003": 12.2148176892,
			"0.004": 12.6747608016,
			"0.005": 9.95210262812,
			"0.006": 3.27020510309,
			"0.007": 3.35463466063,
			"0.008": 2.82795122428,
			"0.009": 1.37679332326,
			"0.01": 1.75231486358,
			"0.011": 1.30410008523,
			"0.012": 1.91268804081,
			"0.013": 4.87175277354,
			"0.014": 3.96598293742,
			"0.015": 0.262894355303,
			"0.016": 0.0,
			"0.017": 0.0,
			"0.018": 0.0,
			"0.019": 0.0,
			"0.02": 0.0,
			"0.021": 0.0,
			"0.022": 0.0,
			"0.023": 0.0,
			"0.024": 0.0,
			"0.025": 0.0
		}
	}
}
