{
	 "smiles": "OC(=O)C1=CC=C(NS(=O)(=O)C2=CC=C(F)C=C2)C=C1", 
	 "Tm": 514.15, 
	 "num_atms": 30, 
	 "gaussian": { 
		 "optdone": 1, 
		 "sigma_profile": "yes", 
		 "theory": "DFT", 
		 "functional": "B3LYP", 
		 "basiset": "6-31G**", 
		 "properties": { 
			 "R2extent": 7267.6328, 
			 "electric_dipole_moment_norm": 4.73555107775, 
			 "electric_quadrupole_moment_norm": 14.5330744982, 
			 "total_energy": -1355.0281404, 
			 "HOMO_LUMO_gap": 0.18488, 
			 "cosmo_polarized_energy": -20.31, 
			 "cosmo_cavitation_energy": 37.48, 
			 "cosmo_dispersion_energy": -26.54, 
			 "cosmo_repulsion_energy": 1.97, 
			 "cosmo_total_nonelectrostatic_energy": 12.9, 
			 "SMD_solvation_energy": 7.3 
		},
		"coords": [
			{
				"x": -5.0129356908,
				"y": 1.4053021866,
				"z": -2.1629018884,
				"element": "O" 
			},
			{
				"x": -4.3441963523,
				"y": 2.1223056281,
				"z": -1.2228846498,
				"element": "C" 
			},
			{
				"x": -4.5333546487,
				"y": 3.3130375704,
				"z": -1.0663641726,
				"element": "O" 
			},
			{
				"x": -3.3873259503,
				"y": 1.3036672935,
				"z": -0.4397853034,
				"element": "C" 
			},
			{
				"x": -3.2012979212,
				"y": -0.0658096972,
				"z": -0.6728850869,
				"element": "C" 
			},
			{
				"x": -2.2808792967,
				"y": -0.7836315318,
				"z": 0.0810314334,
				"element": "C" 
			},
			{
				"x": -1.5467162503,
				"y": -0.1503285593,
				"z": 1.0971407575,
				"element": "C" 
			},
			{
				"x": -0.6617745816,
				"y": -0.9263117696,
				"z": 1.8793691103,
				"element": "N" 
			},
			{
				"x": 0.9137308717,
				"y": -0.4683580532,
				"z": 2.3323324653,
				"element": "S" 
			},
			{
				"x": 0.8197249346,
				"y": 0.8325222413,
				"z": 2.9906963047,
				"element": "O" 
			},
			{
				"x": 1.4299219657,
				"y": -1.6608638957,
				"z": 3.0025245943,
				"element": "O" 
			},
			{
				"x": 1.830828859,
				"y": -0.2423575752,
				"z": 0.8100964587,
				"element": "C" 
			},
			{
				"x": 2.5150195722,
				"y": -1.3323175577,
				"z": 0.2625779304,
				"element": "C" 
			},
			{
				"x": 3.2121622237,
				"y": -1.172419657,
				"z": -0.9320278869,
				"element": "C" 
			},
			{
				"x": 3.2034879879,
				"y": 0.0761064364,
				"z": -1.5491037163,
				"element": "C" 
			},
			{
				"x": 3.8749580214,
				"y": 0.2313335921,
				"z": -2.7023824613,
				"element": "F" 
			},
			{
				"x": 2.5331632864,
				"y": 1.1708960002,
				"z": -1.0107102794,
				"element": "C" 
			},
			{
				"x": 1.8398833527,
				"y": 1.0094080429,
				"z": 0.1866912152,
				"element": "C" 
			},
			{
				"x": -1.7450633108,
				"y": 1.2180417935,
				"z": 1.3489695994,
				"element": "C" 
			},
			{
				"x": -2.6499165358,
				"y": 1.9318870792,
				"z": 0.5735879391,
				"element": "C" 
			},
			{
				"x": -5.6018618877,
				"y": 2.0383260138,
				"z": -2.6051374333,
				"element": "H" 
			},
			{
				"x": -3.7683402439,
				"y": -0.5609681689,
				"z": -1.4527611782,
				"element": "H" 
			},
			{
				"x": -2.126732401,
				"y": -1.8416070902,
				"z": -0.1150683912,
				"element": "H" 
			},
			{
				"x": -0.6880065232,
				"y": -1.9260644224,
				"z": 1.7082860134,
				"element": "H" 
			},
			{
				"x": 2.5175399022,
				"y": -2.2842860836,
				"z": 0.7820599462,
				"element": "H" 
			},
			{
				"x": 3.7634080538,
				"y": -1.9897863866,
				"z": -1.3833197105,
				"element": "H" 
			},
			{
				"x": 2.5676380633,
				"y": 2.1259309848,
				"z": -1.5227805507,
				"element": "H" 
			},
			{
				"x": 1.3267063026,
				"y": 1.8472114725,
				"z": 0.6437012656,
				"element": "H" 
			},
			{
				"x": -1.2034960768,
				"y": 1.6981722119,
				"z": 2.1543992042,
				"element": "H" 
			},
			{
				"x": -2.8150757264,
				"y": 2.988861901,
				"z": 0.7534484712,
				"element": "H" 
			}
		],
		 "valence_orbital": [ 
			{
				"type": "occ",
				"energy": -0.28977,
				"method": "rhf"
			},
			{
				"type": "occ",
				"energy": -0.27994,
				"method": "rhf"
			},
			{
				"type": "occ",
				"energy": -0.27654,
				"method": "rhf"
			},
			{
				"type": "occ",
				"energy": -0.27205,
				"method": "rhf"
			},
			{
				"type": "occ",
				"energy": -0.2437,
				"method": "rhf"
			},
			{
				"type": "unocc",
				"energy": -0.05882,
				"method": "rhf"
			},
			{
				"type": "unocc",
				"energy": -0.04294,
				"method": "rhf"
			},
			{
				"type": "unocc",
				"energy": -0.039,
				"method": "rhf"
			},
			{
				"type": "unocc",
				"energy": -0.02103,
				"method": "rhf"
			},
			{
				"type": "unocc",
				"energy": 0.03635,
				"method": "rhf"
			}
		],
		"cosmo_sigma_profile": { 
			"-0.025": 0.0,
			"-0.024": 0.0,
			"-0.023": 0.0,
			"-0.022": 0.0,
			"-0.021": 0.0,
			"-0.02": 0.0,
			"-0.019": 0.0,
			"-0.018": 0.633156316608,
			"-0.017": 1.40891803823,
			"-0.016": 1.67474558608,
			"-0.015": 1.59720597294,
			"-0.014": 1.64466617432,
			"-0.013": 1.80330725751,
			"-0.012": 2.45692946021,
			"-0.011": 2.22222582413,
			"-0.01": 2.04756917922,
			"-0.009": 3.22165040151,
			"-0.008": 8.24324613031,
			"-0.007": 11.6826337062,
			"-0.006": 12.7534900814,
			"-0.005": 12.9534956329,
			"-0.004": 12.0623064112,
			"-0.003": 13.2735275153,
			"-0.002": 16.2899016896,
			"-0.001": 21.7034788763,
			"0.0": 28.6603151416,
			"0.001": 29.7807046609,
			"0.002": 24.1170076485,
			"0.003": 23.1045600005,
			"0.004": 13.4078491985,
			"0.005": 6.9121653501,
			"0.006": 7.39631091031,
			"0.007": 6.19801150514,
			"0.008": 4.71962420476,
			"0.009": 6.49528364726,
			"0.01": 9.71352722505,
			"0.011": 8.18178958477,
			"0.012": 4.7691501331,
			"0.013": 0.213372263654,
			"0.014": 0.0,
			"0.015": 0.0,
			"0.016": 0.0,
			"0.017": 0.0,
			"0.018": 0.0,
			"0.019": 0.0,
			"0.02": 0.0,
			"0.021": 0.0,
			"0.022": 0.0,
			"0.023": 0.0,
			"0.024": 0.0,
			"0.0": 0.0
		}
	}
}
