{
	 "smiles": "NC1=NC(=CN1)C(F)(F)F", 
	 "Tm": 395.15, 
	 "num_atms": 14, 
	 "gaussian": { 
		 "optdone": 1, 
		 "sigma_profile": "yes", 
		 "theory": "DFT", 
		 "functional": "B3LYP", 
		 "basiset": "6-31G**", 
		 "properties": { 
			 "R2extent": 1943.3408, 
			 "electric_dipole_moment_norm": 5.70672788207, 
			 "electric_quadrupole_moment_norm": 8.08123740216, 
			 "total_energy": -618.613253517, 
			 "HOMO_LUMO_gap": 0.2377, 
			 "cosmo_polarized_energy": -16.16, 
			 "cosmo_cavitation_energy": 20.24, 
			 "cosmo_dispersion_energy": -14.74, 
			 "cosmo_repulsion_energy": 1.17, 
			 "cosmo_total_nonelectrostatic_energy": 6.66, 
			 "SMD_solvation_energy": 3.18 
		},
		"coords": [
			{
				"x": 1.5978664721,
				"y": -0.2495863258,
				"z": 2.4977047961,
				"element": "N" 
			},
			{
				"x": 0.714432884,
				"y": 0.1216788717,
				"z": 1.4886583745,
				"element": "C" 
			},
			{
				"x": 0.5516531941,
				"y": 1.3332351727,
				"z": 1.007459861,
				"element": "N" 
			},
			{
				"x": -0.4872267832,
				"y": 1.2162372172,
				"z": 0.1053698504,
				"element": "C" 
			},
			{
				"x": -0.9451452312,
				"y": -0.0696088629,
				"z": 0.0284721665,
				"element": "C" 
			},
			{
				"x": -0.1614301761,
				"y": -0.7737959786,
				"z": 0.9276260234,
				"element": "N" 
			},
			{
				"x": -0.9820188287,
				"y": 2.3854347042,
				"z": -0.6707603362,
				"element": "C" 
			},
			{
				"x": -0.0214125296,
				"y": 2.9283580902,
				"z": -1.4500899955,
				"element": "F" 
			},
			{
				"x": -2.0013088706,
				"y": 2.013394717,
				"z": -1.4840543661,
				"element": "F" 
			},
			{
				"x": -1.439815717,
				"y": 3.3727920474,
				"z": 0.1278348201,
				"element": "F" 
			},
			{
				"x": 2.1538596255,
				"y": 0.5508919257,
				"z": 2.7755782383,
				"element": "H" 
			},
			{
				"x": 2.2024645202,
				"y": -1.0262603758,
				"z": 2.251298619,
				"element": "H" 
			},
			{
				"x": -1.7140627366,
				"y": -0.5345711542,
				"z": -0.5662044658,
				"element": "H" 
			},
			{
				"x": -0.2929558229,
				"y": -1.7325000489,
				"z": 1.2114064143,
				"element": "H" 
			}
		],
		 "valence_orbital": [ 
			{
				"type": "occ",
				"energy": -0.37201,
				"method": "rhf"
			},
			{
				"type": "occ",
				"energy": -0.3238,
				"method": "rhf"
			},
			{
				"type": "occ",
				"energy": -0.29076,
				"method": "rhf"
			},
			{
				"type": "occ",
				"energy": -0.28391,
				"method": "rhf"
			},
			{
				"type": "occ",
				"energy": -0.21825,
				"method": "rhf"
			},
			{
				"type": "unocc",
				"energy": 0.01945,
				"method": "rhf"
			},
			{
				"type": "unocc",
				"energy": 0.05008,
				"method": "rhf"
			},
			{
				"type": "unocc",
				"energy": 0.05734,
				"method": "rhf"
			},
			{
				"type": "unocc",
				"energy": 0.08828,
				"method": "rhf"
			},
			{
				"type": "unocc",
				"energy": 0.12952,
				"method": "rhf"
			}
		],
		"cosmo_sigma_profile": { 
			"-0.025": 0.0,
			"-0.024": 0.0,
			"-0.023": 0.0,
			"-0.022": 0.0,
			"-0.021": 0.0,
			"-0.02": 0.0,
			"-0.019": 0.0,
			"-0.018": 0.00757177695996,
			"-0.017": 0.951979757366,
			"-0.016": 1.70028471562,
			"-0.015": 1.40057141102,
			"-0.014": 2.14180107119,
			"-0.013": 3.92993000654,
			"-0.012": 4.08849604261,
			"-0.011": 3.41130853727,
			"-0.01": 3.7155361973,
			"-0.009": 5.16378011634,
			"-0.008": 4.27880740934,
			"-0.007": 3.20824873919,
			"-0.006": 2.46673083814,
			"-0.005": 2.60436171654,
			"-0.004": 3.80125934603,
			"-0.003": 3.09589627405,
			"-0.002": 3.35921512005,
			"-0.001": 3.5399149747,
			"0.0": 8.17633816135,
			"0.001": 9.20917970347,
			"0.002": 15.0191123988,
			"0.003": 36.0333027697,
			"0.004": 15.0837836372,
			"0.005": 4.34586834572,
			"0.006": 3.50653711324,
			"0.007": 2.78639202616,
			"0.008": 2.68333077021,
			"0.009": 2.19152952283,
			"0.01": 1.59013300807,
			"0.011": 1.74078021902,
			"0.012": 1.80814998245,
			"0.013": 1.37992665672,
			"0.014": 1.27436533678,
			"0.015": 0.893363448867,
			"0.016": 0.748081654515,
			"0.017": 0.170568996689,
			"0.018": 0.0,
			"0.019": 0.0,
			"0.02": 0.0,
			"0.021": 0.0,
			"0.022": 0.0,
			"0.023": 0.0,
			"0.024": 0.0,
			"0.025": 0.0
		}
	}
}
