{
	 "smiles": "ClC1=CC2=C(OC3=C(O2)C=CC=C3)C=C1", 
	 "Tm": 361.15, 
	 "num_atms": 22, 
	 "gaussian": { 
		 "optdone": 1, 
		 "sigma_profile": "yes", 
		 "theory": "DFT", 
		 "functional": "B3LYP", 
		 "basiset": "6-31G**", 
		 "properties": { 
			 "R2extent": 4373.4436, 
			 "electric_dipole_moment_norm": 2.16857369485, 
			 "electric_quadrupole_moment_norm": 7.61471765793, 
			 "total_energy": -1072.11809008, 
			 "HOMO_LUMO_gap": 0.17947, 
			 "cosmo_polarized_energy": -5.39, 
			 "cosmo_cavitation_energy": 28.26, 
			 "cosmo_dispersion_energy": -21.7, 
			 "cosmo_repulsion_energy": 1.66, 
			 "cosmo_total_nonelectrostatic_energy": 8.22, 
			 "SMD_solvation_energy": 4.95 
		},
		"coords": [
			{
				"x": -3.5391765851,
				"y": -0.9593072159,
				"z": -3.1575289173,
				"element": "Cl" 
			},
			{
				"x": -1.9977838889,
				"y": -0.7601253843,
				"z": -2.3392764439,
				"element": "C" 
			},
			{
				"x": -1.8278877927,
				"y": 0.3183528104,
				"z": -1.4697096954,
				"element": "C" 
			},
			{
				"x": -0.6081400268,
				"y": 0.4770833498,
				"z": -0.8214188989,
				"element": "C" 
			},
			{
				"x": 0.4336070799,
				"y": -0.4333538492,
				"z": -1.0393350321,
				"element": "C" 
			},
			{
				"x": 1.6543916701,
				"y": -0.3049278244,
				"z": -0.4129830332,
				"element": "O" 
			},
			{
				"x": 1.795342276,
				"y": 0.7713188671,
				"z": 0.4422615636,
				"element": "C" 
			},
			{
				"x": 0.7545179724,
				"y": 1.6806707146,
				"z": 0.6597577242,
				"element": "C" 
			},
			{
				"x": -0.4699286709,
				"y": 1.5498837541,
				"z": 0.0301304925,
				"element": "O" 
			},
			{
				"x": 0.9327675843,
				"y": 2.7518212335,
				"z": 1.5274644022,
				"element": "C" 
			},
			{
				"x": 2.1554299462,
				"y": 2.9184677648,
				"z": 2.1828285032,
				"element": "C" 
			},
			{
				"x": 3.1932604442,
				"y": 2.012141313,
				"z": 1.9662772501,
				"element": "C" 
			},
			{
				"x": 3.0123753376,
				"y": 0.9360290352,
				"z": 1.0937512852,
				"element": "C" 
			},
			{
				"x": 0.2475704051,
				"y": -1.5017805238,
				"z": -1.9085111143,
				"element": "C" 
			},
			{
				"x": -0.9719600556,
				"y": -1.6742367213,
				"z": -2.5668513781,
				"element": "C" 
			},
			{
				"x": -2.6214096134,
				"y": 1.0332315517,
				"z": -1.2879259228,
				"element": "H" 
			},
			{
				"x": 0.1067802445,
				"y": 3.4396971027,
				"z": 1.6751518305,
				"element": "H" 
			},
			{
				"x": 2.2901657761,
				"y": 3.7561596367,
				"z": 2.8593888141,
				"element": "H" 
			},
			{
				"x": 4.1451148762,
				"y": 2.1363972533,
				"z": 2.4724405056,
				"element": "H" 
			},
			{
				"x": 3.8006446969,
				"y": 0.2147396464,
				"z": 0.9049859636,
				"element": "H" 
			},
			{
				"x": 1.0685725918,
				"y": -2.1940962498,
				"z": -2.061680762,
				"element": "H" 
			},
			{
				"x": -1.119354268,
				"y": -2.5063662645,
				"z": -3.2449171369,
				"element": "H" 
			}
		],
		 "valence_orbital": [ 
			{
				"type": "occ",
				"energy": -0.31519,
				"method": "rhf"
			},
			{
				"type": "occ",
				"energy": -0.27335,
				"method": "rhf"
			},
			{
				"type": "occ",
				"energy": -0.26249,
				"method": "rhf"
			},
			{
				"type": "occ",
				"energy": -0.24477,
				"method": "rhf"
			},
			{
				"type": "occ",
				"energy": -0.20398,
				"method": "rhf"
			},
			{
				"type": "unocc",
				"energy": -0.02451,
				"method": "rhf"
			},
			{
				"type": "unocc",
				"energy": -0.01751,
				"method": "rhf"
			},
			{
				"type": "unocc",
				"energy": -0.0105,
				"method": "rhf"
			},
			{
				"type": "unocc",
				"energy": 0.01936,
				"method": "rhf"
			},
			{
				"type": "unocc",
				"energy": 0.02472,
				"method": "rhf"
			}
		],
		"cosmo_sigma_profile": { 
			"-0.025": 0.0,
			"-0.024": 0.0,
			"-0.023": 0.0,
			"-0.022": 0.0,
			"-0.021": 0.0,
			"-0.02": 0.0,
			"-0.019": 0.0,
			"-0.018": 0.0,
			"-0.017": 0.0,
			"-0.016": 0.0,
			"-0.015": 0.0,
			"-0.014": 0.0,
			"-0.013": 0.0,
			"-0.012": 0.0,
			"-0.011": 0.0,
			"-0.01": 0.0,
			"-0.009": 0.112029381199,
			"-0.008": 2.91935670158,
			"-0.007": 8.46021329954,
			"-0.006": 11.8954035869,
			"-0.005": 13.1575639091,
			"-0.004": 14.1976673253,
			"-0.003": 11.6029318288,
			"-0.002": 13.7402183405,
			"-0.001": 14.2514717163,
			"0.0": 18.2876920197,
			"0.001": 25.7193181721,
			"0.002": 31.9336554546,
			"0.003": 23.822373251,
			"0.004": 22.3015321318,
			"0.005": 12.6255371564,
			"0.006": 2.23980131701,
			"0.007": 3.10557996649,
			"0.008": 0.489551016664,
			"0.009": 0.0,
			"0.01": 0.0,
			"0.011": 0.0,
			"0.012": 0.0,
			"0.013": 0.0,
			"0.014": 0.0,
			"0.015": 0.0,
			"0.016": 0.0,
			"0.017": 0.0,
			"0.018": 0.0,
			"0.019": 0.0,
			"0.02": 0.0,
			"0.021": 0.0,
			"0.022": 0.0,
			"0.023": 0.0,
			"0.024": 0.0,
			"0.025": 0.0
		}
	}
}
