{
	 "smiles": "FC1=CC=C(C=C1)N1N=CCC1=O", 
	 "Tm": 395.15, 
	 "num_atms": 20, 
	 "gaussian": { 
		 "optdone": 1, 
		 "sigma_profile": "yes", 
		 "theory": "DFT", 
		 "functional": "B3LYP", 
		 "basiset": "6-31G**", 
		 "properties": { 
			 "R2extent": 2741.356, 
			 "electric_dipole_moment_norm": 3.80793263202, 
			 "electric_quadrupole_moment_norm": 10.357861944, 
			 "total_energy": -631.709862157, 
			 "HOMO_LUMO_gap": 0.17424, 
			 "cosmo_polarized_energy": -10.08, 
			 "cosmo_cavitation_energy": 24.93, 
			 "cosmo_dispersion_energy": -18.64, 
			 "cosmo_repulsion_energy": 1.43, 
			 "cosmo_total_nonelectrostatic_energy": 7.72, 
			 "SMD_solvation_energy": 5.07 
		},
		"coords": [
			{
				"x": -0.1025807123,
				"y": 3.9238204983,
				"z": -0.9528161449,
				"element": "F" 
			},
			{
				"x": 0.0386989228,
				"y": 2.6501022315,
				"z": -0.5264737387,
				"element": "C" 
			},
			{
				"x": 0.4678208764,
				"y": 2.4137522506,
				"z": 0.7739494683,
				"element": "C" 
			},
			{
				"x": 0.6136321768,
				"y": 1.100724032,
				"z": 1.2141174235,
				"element": "C" 
			},
			{
				"x": 0.3289010332,
				"y": 0.0330444952,
				"z": 0.349615135,
				"element": "C" 
			},
			{
				"x": -0.1035545413,
				"y": 0.289283855,
				"z": -0.9611081909,
				"element": "C" 
			},
			{
				"x": -0.2476292306,
				"y": 1.6060123057,
				"z": -1.396011231,
				"element": "C" 
			},
			{
				"x": 0.4836167798,
				"y": -1.2997813282,
				"z": 0.8172567072,
				"element": "N" 
			},
			{
				"x": 0.9173456374,
				"y": -1.5035596663,
				"z": 2.1295117394,
				"element": "N" 
			},
			{
				"x": 0.9873404209,
				"y": -2.7686167208,
				"z": 2.3408646694,
				"element": "C" 
			},
			{
				"x": 0.5955901757,
				"y": -3.5881873935,
				"z": 1.1553529984,
				"element": "C" 
			},
			{
				"x": 0.258604757,
				"y": -2.4989741668,
				"z": 0.1365754318,
				"element": "C" 
			},
			{
				"x": -0.1206879125,
				"y": -2.6382719137,
				"z": -1.0114225416,
				"element": "O" 
			},
			{
				"x": 0.6837139149,
				"y": 3.25039835,
				"z": 1.429516763,
				"element": "H" 
			},
			{
				"x": 0.946500071,
				"y": 0.8953461805,
				"z": 2.2228963786,
				"element": "H" 
			},
			{
				"x": -0.3223467662,
				"y": -0.5346509057,
				"z": -1.6255261866,
				"element": "H" 
			},
			{
				"x": -0.5805550085,
				"y": 1.8239293988,
				"z": -2.405011336,
				"element": "H" 
			},
			{
				"x": 1.3076461353,
				"y": -3.135634854,
				"z": 3.3096282906,
				"element": "H" 
			},
			{
				"x": -0.273651357,
				"y": -4.2310745392,
				"z": 1.3345058176,
				"element": "H" 
			},
			{
				"x": 1.4004946272,
				"y": -4.2308621094,
				"z": 0.7810785467,
				"element": "H" 
			}
		],
		 "valence_orbital": [ 
			{
				"type": "occ",
				"energy": -0.32452,
				"method": "rhf"
			},
			{
				"type": "occ",
				"energy": -0.2844,
				"method": "rhf"
			},
			{
				"type": "occ",
				"energy": -0.26439,
				"method": "rhf"
			},
			{
				"type": "occ",
				"energy": -0.25913,
				"method": "rhf"
			},
			{
				"type": "occ",
				"energy": -0.21606,
				"method": "rhf"
			},
			{
				"type": "unocc",
				"energy": -0.04182,
				"method": "rhf"
			},
			{
				"type": "unocc",
				"energy": -0.01379,
				"method": "rhf"
			},
			{
				"type": "unocc",
				"energy": -0.00737,
				"method": "rhf"
			},
			{
				"type": "unocc",
				"energy": 0.05112,
				"method": "rhf"
			},
			{
				"type": "unocc",
				"energy": 0.09386,
				"method": "rhf"
			}
		],
		"cosmo_sigma_profile": { 
			"-0.025": 0.0,
			"-0.024": 0.0,
			"-0.023": 0.0,
			"-0.022": 0.0,
			"-0.021": 0.0,
			"-0.02": 0.0,
			"-0.019": 0.0,
			"-0.018": 0.0,
			"-0.017": 0.0,
			"-0.016": 0.0,
			"-0.015": 0.0,
			"-0.014": 0.0,
			"-0.013": 0.0,
			"-0.012": 0.0,
			"-0.011": 0.0,
			"-0.01": 0.374280508384,
			"-0.009": 5.35473179599,
			"-0.008": 7.58822188986,
			"-0.007": 11.2782552178,
			"-0.006": 11.5986569402,
			"-0.005": 13.5687154856,
			"-0.004": 10.1484978553,
			"-0.003": 7.67580786965,
			"-0.002": 10.3893754443,
			"-0.001": 9.134772198,
			"0.0": 10.9999181454,
			"0.001": 16.5367531181,
			"0.002": 18.9133331006,
			"0.003": 19.5570306469,
			"0.004": 18.6614834027,
			"0.005": 8.05705734715,
			"0.006": 3.59987573777,
			"0.007": 2.67336398883,
			"0.008": 2.71838248682,
			"0.009": 2.76631833279,
			"0.01": 2.47743272488,
			"0.011": 2.91478805549,
			"0.012": 2.91261579113,
			"0.013": 1.20281492649,
			"0.014": 0.00759956987647,
			"0.015": 0.0,
			"0.016": 0.0,
			"0.017": 0.0,
			"0.018": 0.0,
			"0.019": 0.0,
			"0.02": 0.0,
			"0.021": 0.0,
			"0.022": 0.0,
			"0.023": 0.0,
			"0.024": 0.0,
			"0.025": 0.0
		}
	}
}
