{
	 "smiles": "NNC1=NC=C(C=C1)S(=O)(=O)N1CCOCC1", 
	 "Tm": 453.15, 
	 "num_atms": 31, 
	 "gaussian": { 
		 "optdone": 1, 
		 "sigma_profile": "yes", 
		 "theory": "DFT", 
		 "functional": "B3LYP", 
		 "basiset": "6-31G**", 
		 "properties": { 
			 "R2extent": 5449.3661, 
			 "electric_dipole_moment_norm": 4.59907106925, 
			 "electric_quadrupole_moment_norm": 24.3366792143, 
			 "total_energy": -1194.13063323, 
			 "HOMO_LUMO_gap": 0.18927, 
			 "cosmo_polarized_energy": -21.41, 
			 "cosmo_cavitation_energy": 34.82, 
			 "cosmo_dispersion_energy": -25.51, 
			 "cosmo_repulsion_energy": 1.95, 
			 "cosmo_total_nonelectrostatic_energy": 11.27, 
			 "SMD_solvation_energy": 3.16 
		},
		"coords": [
			{
				"x": 1.521485582,
				"y": 1.6878969337,
				"z": -4.603498681,
				"element": "N" 
			},
			{
				"x": 1.507982154,
				"y": 2.2865563611,
				"z": -3.3315357154,
				"element": "N" 
			},
			{
				"x": 1.6403436434,
				"y": 1.57446167,
				"z": -2.1687335991,
				"element": "C" 
			},
			{
				"x": 1.9656051518,
				"y": 0.2754488178,
				"z": -2.2851511261,
				"element": "N" 
			},
			{
				"x": 2.1174711419,
				"y": -0.434096886,
				"z": -1.1619362847,
				"element": "C" 
			},
			{
				"x": 1.9437673847,
				"y": 0.1003434739,
				"z": 0.1144498565,
				"element": "C" 
			},
			{
				"x": 1.6174751561,
				"y": 1.4641380677,
				"z": 0.2319239759,
				"element": "C" 
			},
			{
				"x": 1.4616088401,
				"y": 2.2136088127,
				"z": -0.9147217296,
				"element": "C" 
			},
			{
				"x": 2.1260626115,
				"y": -0.9215171521,
				"z": 1.5672211131,
				"element": "S" 
			},
			{
				"x": 2.4306222874,
				"y": -0.0247780865,
				"z": 2.6856991153,
				"element": "O" 
			},
			{
				"x": 2.9858900513,
				"y": -2.0460105869,
				"z": 1.1927909533,
				"element": "O" 
			},
			{
				"x": 0.6267955659,
				"y": -1.5966216222,
				"z": 1.9101902589,
				"element": "N" 
			},
			{
				"x": -0.3986496609,
				"y": -0.7822172999,
				"z": 2.5914249303,
				"element": "C" 
			},
			{
				"x": -1.6619047187,
				"y": -0.6895799693,
				"z": 1.7402037484,
				"element": "C" 
			},
			{
				"x": -2.2111161375,
				"y": -1.9698382958,
				"z": 1.4307270375,
				"element": "O" 
			},
			{
				"x": -1.2718554755,
				"y": -3.0408110364,
				"z": 1.4363388398,
				"element": "C" 
			},
			{
				"x": 0.1172265923,
				"y": -2.6137101624,
				"z": 0.9725389006,
				"element": "C" 
			},
			{
				"x": 0.9991335504,
				"y": 0.812920665,
				"z": -4.5470432308,
				"element": "H" 
			},
			{
				"x": 2.4823930521,
				"y": 1.4139374355,
				"z": -4.8048809564,
				"element": "H" 
			},
			{
				"x": 1.0599576627,
				"y": 3.1894636625,
				"z": -3.3022467114,
				"element": "H" 
			},
			{
				"x": 2.4130643409,
				"y": -1.4733512355,
				"z": -1.2801607564,
				"element": "H" 
			},
			{
				"x": 1.5227102033,
				"y": 1.9159544883,
				"z": 1.2137130691,
				"element": "H" 
			},
			{
				"x": 1.2265296625,
				"y": 3.2726193419,
				"z": -0.8656831772,
				"element": "H" 
			},
			{
				"x": 0.0019758675,
				"y": 0.2114121513,
				"z": 2.8015512254,
				"element": "H" 
			},
			{
				"x": -0.6309316984,
				"y": -1.2408215211,
				"z": 3.5601920985,
				"element": "H" 
			},
			{
				"x": -1.4382366339,
				"y": -0.143421079,
				"z": 0.8106900969,
				"element": "H" 
			},
			{
				"x": -2.4354677307,
				"y": -0.1303011289,
				"z": 2.2782042285,
				"element": "H" 
			},
			{
				"x": -1.6642971863,
				"y": -3.8057776618,
				"z": 0.7593819201,
				"element": "H" 
			},
			{
				"x": -1.1992938728,
				"y": -3.4857879357,
				"z": 2.4403068891,
				"element": "H" 
			},
			{
				"x": 0.0485074358,
				"y": -2.222795596,
				"z": -0.0547360282,
				"element": "H" 
			},
			{
				"x": 0.7973451772,
				"y": -3.468724626,
				"z": 0.9676797394,
				"element": "H" 
			}
		],
		 "valence_orbital": [ 
			{
				"type": "occ",
				"energy": -0.28793,
				"method": "rhf"
			},
			{
				"type": "occ",
				"energy": -0.27293,
				"method": "rhf"
			},
			{
				"type": "occ",
				"energy": -0.26359,
				"method": "rhf"
			},
			{
				"type": "occ",
				"energy": -0.25437,
				"method": "rhf"
			},
			{
				"type": "occ",
				"energy": -0.22877,
				"method": "rhf"
			},
			{
				"type": "unocc",
				"energy": -0.0395,
				"method": "rhf"
			},
			{
				"type": "unocc",
				"energy": -0.02991,
				"method": "rhf"
			},
			{
				"type": "unocc",
				"energy": 0.05563,
				"method": "rhf"
			},
			{
				"type": "unocc",
				"energy": 0.07147,
				"method": "rhf"
			},
			{
				"type": "unocc",
				"energy": 0.07959,
				"method": "rhf"
			}
		],
		"cosmo_sigma_profile": { 
			"-0.025": 0.0,
			"-0.024": 0.0,
			"-0.023": 0.0,
			"-0.022": 0.0,
			"-0.021": 0.0,
			"-0.02": 0.0,
			"-0.019": 0.0,
			"-0.018": 0.0,
			"-0.017": 0.0,
			"-0.016": 0.0,
			"-0.015": 0.217651174024,
			"-0.014": 1.28202529359,
			"-0.013": 1.50872277496,
			"-0.012": 1.39645391823,
			"-0.011": 2.69998897963,
			"-0.01": 3.28658345283,
			"-0.009": 3.53868200186,
			"-0.008": 5.49795652142,
			"-0.007": 7.19318323689,
			"-0.006": 16.6091597192,
			"-0.005": 27.2568537888,
			"-0.004": 28.7265393089,
			"-0.003": 19.8968029518,
			"-0.002": 14.0415879601,
			"-0.001": 12.6080603431,
			"0.0": 15.9508328393,
			"0.001": 16.3129920781,
			"0.002": 13.2182824903,
			"0.003": 9.54430776991,
			"0.004": 7.81252868655,
			"0.005": 7.25088598276,
			"0.006": 7.82711370726,
			"0.007": 7.22798840007,
			"0.008": 6.44012191679,
			"0.009": 6.0840148077,
			"0.01": 8.58135964614,
			"0.011": 10.0355356351,
			"0.012": 7.29339972654,
			"0.013": 2.92371321263,
			"0.014": 0.841716824929,
			"0.015": 0.616158330934,
			"0.016": 0.505074175139,
			"0.017": 0.241588451578,
			"0.018": 0.0,
			"0.019": 0.0,
			"0.02": 0.0,
			"0.021": 0.0,
			"0.022": 0.0,
			"0.023": 0.0,
			"0.024": 0.0,
			"0.025": 0.0
		}
	}
}
