{
	 "smiles": "CC1(C)OC2OC(CO)C3OC(C)(C)OC3C2O1", 
	 "Tm": 394.15, 
	 "num_atms": 38, 
	 "gaussian": { 
		 "optdone": 1, 
		 "sigma_profile": "yes", 
		 "theory": "DFT", 
		 "functional": "B3LYP", 
		 "basiset": "6-31G**", 
		 "properties": { 
			 "R2extent": 5032.8816, 
			 "electric_dipole_moment_norm": 2.09092700494, 
			 "electric_quadrupole_moment_norm": 10.1913344166, 
			 "total_energy": -920.657033086, 
			 "HOMO_LUMO_gap": 0.31702, 
			 "cosmo_polarized_energy": -12.88, 
			 "cosmo_cavitation_energy": 37.82, 
			 "cosmo_dispersion_energy": -26.34, 
			 "cosmo_repulsion_energy": 2.04, 
			 "cosmo_total_nonelectrostatic_energy": 13.52, 
			 "SMD_solvation_energy": 5.92 
		},
		"coords": [
			{
				"x": -3.7949230028,
				"y": -1.6483648744,
				"z": -1.5132551205,
				"element": "C" 
			},
			{
				"x": -2.2802660394,
				"y": -1.576659594,
				"z": -1.6790625751,
				"element": "C" 
			},
			{
				"x": -1.825320738,
				"y": -1.5708868809,
				"z": -3.1329119817,
				"element": "C" 
			},
			{
				"x": -1.7083321833,
				"y": -2.7058034888,
				"z": -0.9789672915,
				"element": "O" 
			},
			{
				"x": -0.7237166027,
				"y": -2.2481113499,
				"z": -0.1112253763,
				"element": "C" 
			},
			{
				"x": 0.5323163596,
				"y": -2.2868438999,
				"z": -0.7783405089,
				"element": "O" 
			},
			{
				"x": 1.5814994657,
				"y": -1.6819507749,
				"z": -0.0154501384,
				"element": "C" 
			},
			{
				"x": 2.8860382189,
				"y": -2.0499024,
				"z": -0.7163805989,
				"element": "C" 
			},
			{
				"x": 2.8792387679,
				"y": -1.6468448715,
				"z": -2.0747707118,
				"element": "O" 
			},
			{
				"x": 1.3490601662,
				"y": -0.1653019272,
				"z": 0.0489898517,
				"element": "C" 
			},
			{
				"x": 2.2011130611,
				"y": 0.4268323874,
				"z": 1.0309096934,
				"element": "O" 
			},
			{
				"x": 1.427601967,
				"y": 0.7146547424,
				"z": 2.2127758391,
				"element": "C" 
			},
			{
				"x": 1.3686470833,
				"y": 2.2320728008,
				"z": 2.3978292666,
				"element": "C" 
			},
			{
				"x": 2.0251613916,
				"y": -0.0008746296,
				"z": 3.4175401409,
				"element": "C" 
			},
			{
				"x": 0.1275924319,
				"y": 0.1772655108,
				"z": 1.9686498874,
				"element": "O" 
			},
			{
				"x": -0.0594815516,
				"y": 0.1799374787,
				"z": 0.5530137262,
				"element": "C" 
			},
			{
				"x": -1.1659964891,
				"y": -0.8094778479,
				"z": 0.1989050889,
				"element": "C" 
			},
			{
				"x": -1.7543757055,
				"y": -0.4130611638,
				"z": -1.0362473158,
				"element": "O" 
			},
			{
				"x": -4.2709418622,
				"y": -0.8083041059,
				"z": -2.0260439155,
				"element": "H" 
			},
			{
				"x": -4.1782682329,
				"y": -2.5820180129,
				"z": -1.9341887694,
				"element": "H" 
			},
			{
				"x": -4.0597320695,
				"y": -1.6114121928,
				"z": -0.4533874822,
				"element": "H" 
			},
			{
				"x": -2.2254361096,
				"y": -0.6944879672,
				"z": -3.6506246283,
				"element": "H" 
			},
			{
				"x": -0.7350604351,
				"y": -1.5392908562,
				"z": -3.1690449383,
				"element": "H" 
			},
			{
				"x": -2.1754616489,
				"y": -2.4721216414,
				"z": -3.6431537576,
				"element": "H" 
			},
			{
				"x": -0.6916054416,
				"y": -2.9017179819,
				"z": 0.7709360446,
				"element": "H" 
			},
			{
				"x": 1.5890827986,
				"y": -2.0878740141,
				"z": 1.0084874287,
				"element": "H" 
			},
			{
				"x": 3.0504718433,
				"y": -3.1338602972,
				"z": -0.6186310106,
				"element": "H" 
			},
			{
				"x": 3.7143837929,
				"y": -1.5292026778,
				"z": -0.2272645929,
				"element": "H" 
			},
			{
				"x": 2.093183591,
				"y": -2.0516352591,
				"z": -2.4683695733,
				"element": "H" 
			},
			{
				"x": 1.5697660322,
				"y": 0.2697545227,
				"z": -0.929351584,
				"element": "H" 
			},
			{
				"x": 2.3795623596,
				"y": 2.6366517068,
				"z": 2.4975549342,
				"element": "H" 
			},
			{
				"x": 0.7955479612,
				"y": 2.4858241386,
				"z": 3.2941485814,
				"element": "H" 
			},
			{
				"x": 0.8975320791,
				"y": 2.706308407,
				"z": 1.5330351592,
				"element": "H" 
			},
			{
				"x": 3.0457279821,
				"y": 0.3493442316,
				"z": 3.5924082919,
				"element": "H" 
			},
			{
				"x": 2.0470860669,
				"y": -1.0786454068,
				"z": 3.2414350549,
				"element": "H" 
			},
			{
				"x": 1.4281466921,
				"y": 0.1973725715,
				"z": 4.3120567854,
				"element": "H" 
			},
			{
				"x": -0.3676791498,
				"y": 1.1737952541,
				"z": 0.1996385999,
				"element": "H" 
			},
			{
				"x": -1.9061628503,
				"y": -0.8140596366,
				"z": 1.0127574962,
				"element": "H" 
			}
		],
		 "valence_orbital": [ 
			{
				"type": "occ",
				"energy": -0.28957,
				"method": "rhf"
			},
			{
				"type": "occ",
				"energy": -0.27301,
				"method": "rhf"
			},
			{
				"type": "occ",
				"energy": -0.26652,
				"method": "rhf"
			},
			{
				"type": "occ",
				"energy": -0.26255,
				"method": "rhf"
			},
			{
				"type": "occ",
				"energy": -0.24664,
				"method": "rhf"
			},
			{
				"type": "unocc",
				"energy": 0.07038,
				"method": "rhf"
			},
			{
				"type": "unocc",
				"energy": 0.07189,
				"method": "rhf"
			},
			{
				"type": "unocc",
				"energy": 0.08582,
				"method": "rhf"
			},
			{
				"type": "unocc",
				"energy": 0.09685,
				"method": "rhf"
			},
			{
				"type": "unocc",
				"energy": 0.10151,
				"method": "rhf"
			}
		],
		"cosmo_sigma_profile": { 
			"-0.025": 0.0,
			"-0.024": 0.0,
			"-0.023": 0.0,
			"-0.022": 0.0,
			"-0.021": 0.0,
			"-0.02": 0.0,
			"-0.019": 0.0,
			"-0.018": 0.0,
			"-0.017": 0.0,
			"-0.016": 0.0,
			"-0.015": 0.0,
			"-0.014": 0.0,
			"-0.013": 0.0850924775167,
			"-0.012": 0.630552518643,
			"-0.011": 0.720208076347,
			"-0.01": 0.360198092414,
			"-0.009": 0.89274190539,
			"-0.008": 0.505800225957,
			"-0.007": 3.49173960285,
			"-0.006": 9.09238766067,
			"-0.005": 20.4266438653,
			"-0.004": 38.8086376533,
			"-0.003": 31.4691795843,
			"-0.002": 28.8426215286,
			"-0.001": 29.0259801362,
			"0.0": 31.833201781,
			"0.001": 17.6311009688,
			"0.002": 8.90022537224,
			"0.003": 9.05444158594,
			"0.004": 8.36324799817,
			"0.005": 7.29109943745,
			"0.006": 7.00657342926,
			"0.007": 6.62317559604,
			"0.008": 5.43626907328,
			"0.009": 5.35890365759,
			"0.01": 7.5313224033,
			"0.011": 6.79937577116,
			"0.012": 2.89630250763,
			"0.013": 1.47830291302,
			"0.014": 2.11691830836,
			"0.015": 0.052145921153,
			"0.016": 0.0,
			"0.017": 0.0,
			"0.018": 0.0,
			"0.019": 0.0,
			"0.02": 0.0,
			"0.021": 0.0,
			"0.022": 0.0,
			"0.023": 0.0,
			"0.024": 0.0,
			"0.025": 0.0
		}
	}
}
