{
	 "smiles": "ClC1C2OC2C2C1C1(Cl)C(Cl)=C(Cl)C2(Cl)C1(Cl)Cl", 
	 "Tm": 433.15, 
	 "num_atms": 23, 
	 "gaussian": { 
		 "optdone": 1, 
		 "sigma_profile": "yes", 
		 "theory": "DFT", 
		 "functional": "B3LYP", 
		 "basiset": "6-31G**", 
		 "properties": { 
			 "R2extent": 6827.4297, 
			 "electric_dipole_moment_norm": 1.64577651581, 
			 "electric_quadrupole_moment_norm": 5.68519253764, 
			 "total_energy": -3680.5365504, 
			 "HOMO_LUMO_gap": 0.21362, 
			 "cosmo_polarized_energy": -8.73, 
			 "cosmo_cavitation_energy": 35.43, 
			 "cosmo_dispersion_energy": -25.33, 
			 "cosmo_repulsion_energy": 1.91, 
			 "cosmo_total_nonelectrostatic_energy": 12.01, 
			 "SMD_solvation_energy": 3.19 
		},
		"coords": [
			{
				"x": -1.0749002525,
				"y": 0.1883923052,
				"z": 2.3505631427,
				"element": "Cl" 
			},
			{
				"x": -0.2667892262,
				"y": -1.2610534422,
				"z": 1.6280102727,
				"element": "C" 
			},
			{
				"x": 1.0014055345,
				"y": -1.6309098067,
				"z": 2.390342184,
				"element": "C" 
			},
			{
				"x": 1.3783938634,
				"y": -2.9862586781,
				"z": 2.1065367973,
				"element": "O" 
			},
			{
				"x": 2.0915442055,
				"y": -1.9280875152,
				"z": 1.4511273323,
				"element": "C" 
			},
			{
				"x": 1.6085876584,
				"y": -1.7426814753,
				"z": 0.0250080451,
				"element": "C" 
			},
			{
				"x": 0.1403847678,
				"y": -1.1720701274,
				"z": 0.1258094334,
				"element": "C" 
			},
			{
				"x": 0.2718855424,
				"y": 0.2112728833,
				"z": -0.6158212636,
				"element": "C" 
			},
			{
				"x": -1.2722912444,
				"y": 0.9220769316,
				"z": -1.1216236296,
				"element": "Cl" 
			},
			{
				"x": 1.2315300128,
				"y": 1.1427243993,
				"z": 0.1395196554,
				"element": "C" 
			},
			{
				"x": 0.8108093489,
				"y": 2.629440358,
				"z": 0.8734139957,
				"element": "Cl" 
			},
			{
				"x": 2.4607648689,
				"y": 0.6112457652,
				"z": 0.045592956,
				"element": "C" 
			},
			{
				"x": 3.9126881937,
				"y": 1.1988196893,
				"z": 0.7413050004,
				"element": "Cl" 
			},
			{
				"x": 2.3600776046,
				"y": -0.6585129188,
				"z": -0.8014254595,
				"element": "C" 
			},
			{
				"x": 3.8805878247,
				"y": -1.2288616791,
				"z": -1.5221209706,
				"element": "Cl" 
			},
			{
				"x": 1.2406549875,
				"y": -0.1992834315,
				"z": -1.7975364511,
				"element": "C" 
			},
			{
				"x": 0.6174802091,
				"y": -1.5162119533,
				"z": -2.8502857852,
				"element": "Cl" 
			},
			{
				"x": 1.7097778099,
				"y": 1.1620769905,
				"z": -2.8577949104,
				"element": "Cl" 
			},
			{
				"x": -0.9938222894,
				"y": -2.0650127659,
				"z": 1.7473069518,
				"element": "H" 
			},
			{
				"x": 1.1409468433,
				"y": -1.2905542265,
				"z": 3.4129463514,
				"element": "H" 
			},
			{
				"x": 3.1460658072,
				"y": -1.8360510545,
				"z": 1.7012661877,
				"element": "H" 
			},
			{
				"x": 1.6353112945,
				"y": -2.6919807037,
				"z": -0.5132772365,
				"element": "H" 
			},
			{
				"x": -0.5516933645,
				"y": -1.7706195442,
				"z": -0.4653625994,
				"element": "H" 
			}
		],
		 "valence_orbital": [ 
			{
				"type": "occ",
				"energy": -0.31843,
				"method": "rhf"
			},
			{
				"type": "occ",
				"energy": -0.31493,
				"method": "rhf"
			},
			{
				"type": "occ",
				"energy": -0.30584,
				"method": "rhf"
			},
			{
				"type": "occ",
				"energy": -0.29174,
				"method": "rhf"
			},
			{
				"type": "occ",
				"energy": -0.2677,
				"method": "rhf"
			},
			{
				"type": "unocc",
				"energy": -0.05408,
				"method": "rhf"
			},
			{
				"type": "unocc",
				"energy": -0.04588,
				"method": "rhf"
			},
			{
				"type": "unocc",
				"energy": -0.01439,
				"method": "rhf"
			},
			{
				"type": "unocc",
				"energy": -0.0045,
				"method": "rhf"
			},
			{
				"type": "unocc",
				"energy": -5e-05,
				"method": "rhf"
			}
		],
		"cosmo_sigma_profile": { 
			"-0.025": 0.0,
			"-0.024": 0.0,
			"-0.023": 0.0,
			"-0.022": 0.0,
			"-0.021": 0.0,
			"-0.02": 0.0,
			"-0.019": 0.0,
			"-0.018": 0.0,
			"-0.017": 0.0,
			"-0.016": 0.0,
			"-0.015": 0.0,
			"-0.014": 0.0,
			"-0.013": 0.0,
			"-0.012": 0.0,
			"-0.011": 0.0,
			"-0.01": 0.287290159753,
			"-0.009": 3.97268902122,
			"-0.008": 8.03302876542,
			"-0.007": 8.11254784073,
			"-0.006": 9.64190525206,
			"-0.005": 10.4604396124,
			"-0.004": 17.8688989146,
			"-0.003": 17.5646514019,
			"-0.002": 16.6537696002,
			"-0.001": 23.9841887143,
			"0.0": 26.4300645761,
			"0.001": 28.7024724126,
			"0.002": 42.3881488575,
			"0.003": 43.8214513532,
			"0.004": 17.0976116907,
			"0.005": 9.65695795225,
			"0.006": 2.77481856871,
			"0.007": 1.32089577105,
			"0.008": 1.64882714791,
			"0.009": 2.0578528251,
			"0.01": 3.13364114465,
			"0.011": 0.902702739998,
			"0.012": 0.000641524683624,
			"0.013": 0.0,
			"0.014": 0.0,
			"0.015": 0.0,
			"0.016": 0.0,
			"0.017": 0.0,
			"0.018": 0.0,
			"0.019": 0.0,
			"0.02": 0.0,
			"0.021": 0.0,
			"0.022": 0.0,
			"0.023": 0.0,
			"0.024": 0.0,
			"0.025": 0.0
		}
	}
}
