{
	 "smiles": "CC1=CC(=O)N2N=C(Br)SC2=N1", 
	 "Tm": 441.15, 
	 "num_atms": 16, 
	 "gaussian": { 
		 "optdone": 1, 
		 "sigma_profile": "yes", 
		 "theory": "DFT", 
		 "functional": "B3LYP", 
		 "basiset": "6-31G**", 
		 "properties": { 
			 "R2extent": 4848.2518, 
			 "electric_dipole_moment_norm": 3.44555223731, 
			 "electric_quadrupole_moment_norm": 15.840014892, 
			 "total_energy": -3440.08330543, 
			 "HOMO_LUMO_gap": 0.17372, 
			 "cosmo_polarized_energy": -11.88, 
			 "cosmo_cavitation_energy": 25.3, 
			 "cosmo_dispersion_energy": -19.9, 
			 "cosmo_repulsion_energy": 1.54, 
			 "cosmo_total_nonelectrostatic_energy": 6.94, 
			 "SMD_solvation_energy": 1.51 
		},
		"coords": [
			{
				"x": 0.324545674,
				"y": -3.3350607169,
				"z": 0.5984710681,
				"element": "C" 
			},
			{
				"x": 0.4851830637,
				"y": -1.8416259876,
				"z": 0.6076829899,
				"element": "C" 
			},
			{
				"x": 0.2216112702,
				"y": -1.0808694217,
				"z": 1.7168622979,
				"element": "C" 
			},
			{
				"x": 0.370803008,
				"y": 0.3570850862,
				"z": 1.744167668,
				"element": "C" 
			},
			{
				"x": 0.1689437791,
				"y": 1.1281428331,
				"z": 2.6582216192,
				"element": "O" 
			},
			{
				"x": 0.8279613802,
				"y": 0.8401514025,
				"z": 0.4507343636,
				"element": "N" 
			},
			{
				"x": 1.0406774741,
				"y": 2.1759073274,
				"z": 0.2382864876,
				"element": "N" 
			},
			{
				"x": 1.4377165992,
				"y": 2.3642853678,
				"z": -0.9664897005,
				"element": "C" 
			},
			{
				"x": 1.8356306392,
				"y": 4.070964491,
				"z": -1.6380369542,
				"element": "Br" 
			},
			{
				"x": 1.6029774975,
				"y": 0.9389840001,
				"z": -1.9927996251,
				"element": "S" 
			},
			{
				"x": 1.0634870648,
				"y": -0.0183204696,
				"z": -0.603226772,
				"element": "C" 
			},
			{
				"x": 0.9184656883,
				"y": -1.3014026243,
				"z": -0.5885590022,
				"element": "N" 
			},
			{
				"x": 1.2775921696,
				"y": -3.8121764323,
				"z": 0.3464522022,
				"element": "H" 
			},
			{
				"x": -0.0184120346,
				"y": -3.7119160444,
				"z": 1.5638758731,
				"element": "H" 
			},
			{
				"x": -0.3923557474,
				"y": -3.6293453355,
				"z": -0.1754147604,
				"element": "H" 
			},
			{
				"x": -0.116927526,
				"y": -1.5355034758,
				"z": 2.6399722447,
				"element": "H" 
			}
		],
		 "valence_orbital": [ 
			{
				"type": "occ",
				"energy": -0.31809,
				"method": "rhf"
			},
			{
				"type": "occ",
				"energy": -0.29606,
				"method": "rhf"
			},
			{
				"type": "occ",
				"energy": -0.28773,
				"method": "rhf"
			},
			{
				"type": "occ",
				"energy": -0.27079,
				"method": "rhf"
			},
			{
				"type": "occ",
				"energy": -0.24092,
				"method": "rhf"
			},
			{
				"type": "unocc",
				"energy": -0.0672,
				"method": "rhf"
			},
			{
				"type": "unocc",
				"energy": -0.04503,
				"method": "rhf"
			},
			{
				"type": "unocc",
				"energy": -0.02973,
				"method": "rhf"
			},
			{
				"type": "unocc",
				"energy": -0.02143,
				"method": "rhf"
			},
			{
				"type": "unocc",
				"energy": -0.01244,
				"method": "rhf"
			}
		],
		"cosmo_sigma_profile": { 
			"-0.025": 0.0,
			"-0.024": 0.0,
			"-0.023": 0.0,
			"-0.022": 0.0,
			"-0.021": 0.0,
			"-0.02": 0.0,
			"-0.019": 0.0,
			"-0.018": 0.0,
			"-0.017": 0.0,
			"-0.016": 0.0,
			"-0.015": 0.0,
			"-0.014": 0.0,
			"-0.013": 0.0,
			"-0.012": 0.0,
			"-0.011": 0.0,
			"-0.01": 0.0,
			"-0.009": 0.144151648121,
			"-0.008": 2.90936790286,
			"-0.007": 5.67789202933,
			"-0.006": 9.77626384581,
			"-0.005": 18.3026691013,
			"-0.004": 17.2581941801,
			"-0.003": 19.3502707624,
			"-0.002": 22.9970393364,
			"-0.001": 23.1935337041,
			"0.0": 19.4370287877,
			"0.001": 17.973547226,
			"0.002": 11.1663791236,
			"0.003": 3.47286652202,
			"0.004": 3.29818532312,
			"0.005": 3.02971576347,
			"0.006": 3.02516642199,
			"0.007": 4.16122446545,
			"0.008": 2.60560837774,
			"0.009": 2.52667976176,
			"0.01": 2.12634056722,
			"0.011": 3.89192999658,
			"0.012": 6.98984175263,
			"0.013": 4.74095094518,
			"0.014": 1.71002755924,
			"0.015": 0.261365423924,
			"0.016": 0.0,
			"0.017": 0.0,
			"0.018": 0.0,
			"0.019": 0.0,
			"0.02": 0.0,
			"0.021": 0.0,
			"0.022": 0.0,
			"0.023": 0.0,
			"0.024": 0.0,
			"0.025": 0.0
		}
	}
}
