{
	 "smiles": "BrC1=CC=C(C=C1)N1C=CC=N1", 
	 "Tm": 343.15, 
	 "num_atms": 19, 
	 "gaussian": { 
		 "optdone": 1, 
		 "sigma_profile": "yes", 
		 "theory": "DFT", 
		 "functional": "B3LYP", 
		 "basiset": "6-31G**", 
		 "properties": { 
			 "R2extent": 4277.784, 
			 "electric_dipole_moment_norm": 2.40149934832, 
			 "electric_quadrupole_moment_norm": 6.5381528913, 
			 "total_energy": -3028.05782238, 
			 "HOMO_LUMO_gap": 0.1894, 
			 "cosmo_polarized_energy": -7.72, 
			 "cosmo_cavitation_energy": 25.69, 
			 "cosmo_dispersion_energy": -19.67, 
			 "cosmo_repulsion_energy": 1.53, 
			 "cosmo_total_nonelectrostatic_energy": 7.55, 
			 "SMD_solvation_energy": 3.15 
		},
		"coords": [
			{
				"x": -1.9749150866,
				"y": -2.0635675733,
				"z": 2.9278231613,
				"element": "Br" 
			},
			{
				"x": -0.8719764639,
				"y": -1.2794554307,
				"z": 1.580394725,
				"element": "C" 
			},
			{
				"x": -0.1294582753,
				"y": -0.1388314145,
				"z": 1.8760901574,
				"element": "C" 
			},
			{
				"x": 0.6755993881,
				"y": 0.4337439889,
				"z": 0.893269405,
				"element": "C" 
			},
			{
				"x": 0.7380211375,
				"y": -0.134286976,
				"z": -0.3848914464,
				"element": "C" 
			},
			{
				"x": -0.0130280105,
				"y": -1.2814032079,
				"z": -0.6711366733,
				"element": "C" 
			},
			{
				"x": -0.8168938185,
				"y": -1.8528077555,
				"z": 0.3108587769,
				"element": "C" 
			},
			{
				"x": 1.5514332978,
				"y": 0.4338099275,
				"z": -1.3981789104,
				"element": "N" 
			},
			{
				"x": 2.3557491068,
				"y": 1.540333837,
				"z": -1.3307369298,
				"element": "C" 
			},
			{
				"x": 2.9405801969,
				"y": 1.6897151912,
				"z": -2.5677887241,
				"element": "C" 
			},
			{
				"x": 2.427032653,
				"y": 0.6154775158,
				"z": -3.3324057933,
				"element": "C" 
			},
			{
				"x": 1.5919230617,
				"y": -0.1398070196,
				"z": -2.6298488612,
				"element": "N" 
			},
			{
				"x": -0.1758959316,
				"y": 0.3029914056,
				"z": 2.8647005003,
				"element": "H" 
			},
			{
				"x": 1.2468021521,
				"y": 1.3210671298,
				"z": 1.1401416721,
				"element": "H" 
			},
			{
				"x": 0.0439976031,
				"y": -1.7107149473,
				"z": -1.6629667419,
				"element": "H" 
			},
			{
				"x": -1.3974209244,
				"y": -2.7405714134,
				"z": 0.0874880971,
				"element": "H" 
			},
			{
				"x": 2.4530054562,
				"y": 2.1278021424,
				"z": -0.4321446182,
				"element": "H" 
			},
			{
				"x": 3.6340735824,
				"y": 2.4588161292,
				"z": -2.8727961753,
				"element": "H" 
			},
			{
				"x": 2.6322708751,
				"y": 0.3633884707,
				"z": -4.3641716213,
				"element": "H" 
			}
		],
		 "valence_orbital": [ 
			{
				"type": "occ",
				"energy": -0.28847,
				"method": "rhf"
			},
			{
				"type": "occ",
				"energy": -0.27979,
				"method": "rhf"
			},
			{
				"type": "occ",
				"energy": -0.27136,
				"method": "rhf"
			},
			{
				"type": "occ",
				"energy": -0.25621,
				"method": "rhf"
			},
			{
				"type": "occ",
				"energy": -0.22479,
				"method": "rhf"
			},
			{
				"type": "unocc",
				"energy": -0.03539,
				"method": "rhf"
			},
			{
				"type": "unocc",
				"energy": -0.02032,
				"method": "rhf"
			},
			{
				"type": "unocc",
				"energy": 0.00575,
				"method": "rhf"
			},
			{
				"type": "unocc",
				"energy": 0.03238,
				"method": "rhf"
			},
			{
				"type": "unocc",
				"energy": 0.06526,
				"method": "rhf"
			}
		],
		"cosmo_sigma_profile": { 
			"-0.025": 0.0,
			"-0.024": 0.0,
			"-0.023": 0.0,
			"-0.022": 0.0,
			"-0.021": 0.0,
			"-0.02": 0.0,
			"-0.019": 0.0,
			"-0.018": 0.0,
			"-0.017": 0.0,
			"-0.016": 0.0,
			"-0.015": 0.0,
			"-0.014": 0.0,
			"-0.013": 0.0,
			"-0.012": 0.0705609785042,
			"-0.011": 1.13870780299,
			"-0.01": 2.19480677179,
			"-0.009": 2.127635985,
			"-0.008": 3.4426457266,
			"-0.007": 10.000248976,
			"-0.006": 10.4747588221,
			"-0.005": 10.2101188682,
			"-0.004": 11.324230615,
			"-0.003": 11.0833585127,
			"-0.002": 11.1174537093,
			"-0.001": 12.6652010995,
			"0.0": 13.4435811218,
			"0.001": 17.5533886596,
			"0.002": 26.6362415863,
			"0.003": 25.6723277134,
			"0.004": 19.5451124547,
			"0.005": 11.1601188128,
			"0.006": 2.19601608943,
			"0.007": 1.63754870149,
			"0.008": 1.89516407866,
			"0.009": 1.3957424639,
			"0.01": 1.38203393391,
			"0.011": 1.48155689127,
			"0.012": 1.07379078739,
			"0.013": 0.0108528306448,
			"0.014": 0.0,
			"0.015": 0.0,
			"0.016": 0.0,
			"0.017": 0.0,
			"0.018": 0.0,
			"0.019": 0.0,
			"0.02": 0.0,
			"0.021": 0.0,
			"0.022": 0.0,
			"0.023": 0.0,
			"0.024": 0.0,
			"0.025": 0.0
		}
	}
}
