{
	 "smiles": "NC1=NN(CC2=CC=CC=C2)C=C1", 
	 "Tm": 330.15, 
	 "num_atms": 24, 
	 "gaussian": { 
		 "optdone": 1, 
		 "sigma_profile": "yes", 
		 "theory": "DFT", 
		 "functional": "B3LYP", 
		 "basiset": "6-31G**", 
		 "properties": { 
			 "R2extent": 3050.5671, 
			 "electric_dipole_moment_norm": 1.73657162824, 
			 "electric_quadrupole_moment_norm": 10.8791587869, 
			 "total_energy": -551.926862264, 
			 "HOMO_LUMO_gap": 0.19172, 
			 "cosmo_polarized_energy": -12.04, 
			 "cosmo_cavitation_energy": 28.05, 
			 "cosmo_dispersion_energy": -20.24, 
			 "cosmo_repulsion_energy": 1.62, 
			 "cosmo_total_nonelectrostatic_energy": 9.43, 
			 "SMD_solvation_energy": 4.12 
		},
		"coords": [
			{
				"x": 3.2420393388,
				"y": -2.6190150764,
				"z": 1.241370081,
				"element": "N" 
			},
			{
				"x": 2.2409851114,
				"y": -1.6654183016,
				"z": 1.443158318,
				"element": "C" 
			},
			{
				"x": 1.7598505808,
				"y": -0.9563269287,
				"z": 0.4208399477,
				"element": "N" 
			},
			{
				"x": 0.8922315122,
				"y": -0.0704005417,
				"z": 0.9923195324,
				"element": "N" 
			},
			{
				"x": 0.0988068847,
				"y": 0.8031250924,
				"z": 0.1425163864,
				"element": "C" 
			},
			{
				"x": -1.2327997554,
				"y": 0.2137427342,
				"z": -0.2940259539,
				"element": "C" 
			},
			{
				"x": -1.2931520461,
				"y": -1.0607899583,
				"z": -0.8743355258,
				"element": "C" 
			},
			{
				"x": -2.5147081946,
				"y": -1.5854676919,
				"z": -1.2936197463,
				"element": "C" 
			},
			{
				"x": -3.6899354852,
				"y": -0.8433602034,
				"z": -1.1444439969,
				"element": "C" 
			},
			{
				"x": -3.6367186393,
				"y": 0.426200426,
				"z": -0.569564101,
				"element": "C" 
			},
			{
				"x": -2.4129260258,
				"y": 0.9489201974,
				"z": -0.1441629328,
				"element": "C" 
			},
			{
				"x": 0.8044331317,
				"y": -0.2410905184,
				"z": 2.3344354005,
				"element": "C" 
			},
			{
				"x": 1.6713879323,
				"y": -1.2598694696,
				"z": 2.6781238055,
				"element": "C" 
			},
			{
				"x": 3.1235973079,
				"y": -3.4499531061,
				"z": 1.8072129558,
				"element": "H" 
			},
			{
				"x": 3.332753686,
				"y": -2.8613097344,
				"z": 0.2617976282,
				"element": "H" 
			},
			{
				"x": -0.0667435552,
				"y": 1.7418733246,
				"z": 0.6804271835,
				"element": "H" 
			},
			{
				"x": 0.7252677682,
				"y": 1.0266570591,
				"z": -0.7263540959,
				"element": "H" 
			},
			{
				"x": -0.3770947247,
				"y": -1.6337895095,
				"z": -0.9836101475,
				"element": "H" 
			},
			{
				"x": -2.5508440204,
				"y": -2.5752564196,
				"z": -1.7403211244,
				"element": "H" 
			},
			{
				"x": -4.6402650109,
				"y": -1.2541303052,
				"z": -1.4733882949,
				"element": "H" 
			},
			{
				"x": -4.5454719951,
				"y": 1.0086055695,
				"z": -0.4459779027,
				"element": "H" 
			},
			{
				"x": -2.3768275493,
				"y": 1.9378470683,
				"z": 0.3076331947,
				"element": "H" 
			},
			{
				"x": 0.1494230825,
				"y": 0.3700027525,
				"z": 2.9392477756,
				"element": "H" 
			},
			{
				"x": 1.8886106654,
				"y": -1.6341964594,
				"z": 3.6673216126,
				"element": "H" 
			}
		],
		 "valence_orbital": [ 
			{
				"type": "occ",
				"energy": -0.27972,
				"method": "rhf"
			},
			{
				"type": "occ",
				"energy": -0.24944,
				"method": "rhf"
			},
			{
				"type": "occ",
				"energy": -0.24538,
				"method": "rhf"
			},
			{
				"type": "occ",
				"energy": -0.23436,
				"method": "rhf"
			},
			{
				"type": "occ",
				"energy": -0.19612,
				"method": "rhf"
			},
			{
				"type": "unocc",
				"energy": -0.0044,
				"method": "rhf"
			},
			{
				"type": "unocc",
				"energy": 9e-05,
				"method": "rhf"
			},
			{
				"type": "unocc",
				"energy": 0.03135,
				"method": "rhf"
			},
			{
				"type": "unocc",
				"energy": 0.08135,
				"method": "rhf"
			},
			{
				"type": "unocc",
				"energy": 0.09451,
				"method": "rhf"
			}
		],
		"cosmo_sigma_profile": { 
			"-0.025": 0.0,
			"-0.024": 0.0,
			"-0.023": 0.0,
			"-0.022": 0.0,
			"-0.021": 0.0,
			"-0.02": 0.0,
			"-0.019": 0.0,
			"-0.018": 0.0,
			"-0.017": 0.0,
			"-0.016": 0.0,
			"-0.015": 0.0,
			"-0.014": 0.0,
			"-0.013": 0.135068547142,
			"-0.012": 1.35880419274,
			"-0.011": 2.61392572951,
			"-0.01": 2.22409981762,
			"-0.009": 2.34562349648,
			"-0.008": 4.73032775185,
			"-0.007": 7.70901639437,
			"-0.006": 13.5873825755,
			"-0.005": 16.5510715058,
			"-0.004": 16.4087586169,
			"-0.003": 19.0981247417,
			"-0.002": 11.6220997746,
			"-0.001": 13.0768815302,
			"0.0": 11.2218246631,
			"0.001": 10.9445209615,
			"0.002": 10.7861482261,
			"0.003": 13.1594179392,
			"0.004": 15.1101455852,
			"0.005": 16.3316960912,
			"0.006": 14.7911224153,
			"0.007": 5.19955169034,
			"0.008": 2.05140632486,
			"0.009": 1.93351579542,
			"0.01": 2.47737449698,
			"0.011": 1.15605511251,
			"0.012": 2.06721231559,
			"0.013": 1.18672752455,
			"0.014": 1.13487428958,
			"0.015": 1.54892736736,
			"0.016": 0.863897264828,
			"0.017": 0.0,
			"0.018": 0.0,
			"0.019": 0.0,
			"0.02": 0.0,
			"0.021": 0.0,
			"0.022": 0.0,
			"0.023": 0.0,
			"0.024": 0.0,
			"0.025": 0.0
		}
	}
}
