{
	 "smiles": "COC1=CC2=C(C=C1)C(C)=CC(NN)=N2", 
	 "Tm": 524.15, 
	 "num_atms": 28, 
	 "gaussian": { 
		 "optdone": 1, 
		 "sigma_profile": "yes", 
		 "theory": "DFT", 
		 "functional": "B3LYP", 
		 "basiset": "6-31G**", 
		 "properties": { 
			 "R2extent": 4480.2294, 
			 "electric_dipole_moment_norm": 2.56714589768, 
			 "electric_quadrupole_moment_norm": 11.5415546249, 
			 "total_energy": -666.462330164, 
			 "HOMO_LUMO_gap": 0.16926, 
			 "cosmo_polarized_energy": -13.78, 
			 "cosmo_cavitation_energy": 31.29, 
			 "cosmo_dispersion_energy": -23.34, 
			 "cosmo_repulsion_energy": 1.84, 
			 "cosmo_total_nonelectrostatic_energy": 9.79, 
			 "SMD_solvation_energy": 5.06 
		},
		"coords": [
			{
				"x": -3.4968582136,
				"y": -0.6478164426,
				"z": 2.8025006841,
				"element": "C" 
			},
			{
				"x": -3.9001846533,
				"y": -0.1525141458,
				"z": 1.535915418,
				"element": "O" 
			},
			{
				"x": -2.9313465949,
				"y": 0.305935914,
				"z": 0.6913970339,
				"element": "C" 
			},
			{
				"x": -1.5788286643,
				"y": 0.3279406158,
				"z": 0.9762977525,
				"element": "C" 
			},
			{
				"x": -0.6529103752,
				"y": 0.8262046966,
				"z": 0.0216041342,
				"element": "C" 
			},
			{
				"x": -1.1292228212,
				"y": 1.3074334723,
				"z": -1.2387935879,
				"element": "C" 
			},
			{
				"x": -2.5256619826,
				"y": 1.2686729544,
				"z": -1.4911701547,
				"element": "C" 
			},
			{
				"x": -3.409253787,
				"y": 0.782346238,
				"z": -0.5574129121,
				"element": "C" 
			},
			{
				"x": -0.1622025067,
				"y": 1.8041519264,
				"z": -2.1706196117,
				"element": "C" 
			},
			{
				"x": -0.5819996904,
				"y": 2.3322791604,
				"z": -3.5195000765,
				"element": "C" 
			},
			{
				"x": 1.1645343338,
				"y": 1.7869326902,
				"z": -1.8104184984,
				"element": "C" 
			},
			{
				"x": 1.531072897,
				"y": 1.2827176624,
				"z": -0.5298737361,
				"element": "C" 
			},
			{
				"x": 2.865593023,
				"y": 1.1953210973,
				"z": -0.1531446064,
				"element": "N" 
			},
			{
				"x": 3.8091847313,
				"y": 2.0235506495,
				"z": -0.7829817612,
				"element": "N" 
			},
			{
				"x": 0.6666499562,
				"y": 0.8302491057,
				"z": 0.3622788601,
				"element": "N" 
			},
			{
				"x": -2.9966660121,
				"y": 0.1266545667,
				"z": 3.3980353563,
				"element": "H" 
			},
			{
				"x": -2.824069581,
				"y": -1.5092338413,
				"z": 2.703166292,
				"element": "H" 
			},
			{
				"x": -4.4108038173,
				"y": -0.9599290579,
				"z": 3.3105981992,
				"element": "H" 
			},
			{
				"x": -1.1737330352,
				"y": -0.0259634278,
				"z": 1.9157479876,
				"element": "H" 
			},
			{
				"x": -2.9071088649,
				"y": 1.6290085688,
				"z": -2.4414317101,
				"element": "H" 
			},
			{
				"x": -4.4771202741,
				"y": 0.7495126926,
				"z": -0.7457735633,
				"element": "H" 
			},
			{
				"x": -1.2686492338,
				"y": 3.1809720512,
				"z": -3.4203166672,
				"element": "H" 
			},
			{
				"x": 0.2848890208,
				"y": 2.6646535069,
				"z": -4.0954683578,
				"element": "H" 
			},
			{
				"x": -1.1030607795,
				"y": 1.5652392175,
				"z": -4.1039846684,
				"element": "H" 
			},
			{
				"x": 1.9410560613,
				"y": 2.1485615518,
				"z": -2.4731447015,
				"element": "H" 
			},
			{
				"x": 2.9690152026,
				"y": 1.0053282443,
				"z": 0.8396420079,
				"element": "H" 
			},
			{
				"x": 4.6712094354,
				"y": 1.5038496331,
				"z": -0.9140101167,
				"element": "H" 
			},
			{
				"x": 4.0087762256,
				"y": 2.8527406994,
				"z": -0.2244389959,
				"element": "H" 
			}
		],
		 "valence_orbital": [ 
			{
				"type": "occ",
				"energy": -0.27015,
				"method": "rhf"
			},
			{
				"type": "occ",
				"energy": -0.25836,
				"method": "rhf"
			},
			{
				"type": "occ",
				"energy": -0.24422,
				"method": "rhf"
			},
			{
				"type": "occ",
				"energy": -0.20555,
				"method": "rhf"
			},
			{
				"type": "occ",
				"energy": -0.19563,
				"method": "rhf"
			},
			{
				"type": "unocc",
				"energy": -0.02637,
				"method": "rhf"
			},
			{
				"type": "unocc",
				"energy": 0.0122,
				"method": "rhf"
			},
			{
				"type": "unocc",
				"energy": 0.04272,
				"method": "rhf"
			},
			{
				"type": "unocc",
				"energy": 0.07369,
				"method": "rhf"
			},
			{
				"type": "unocc",
				"energy": 0.10272,
				"method": "rhf"
			}
		],
		"cosmo_sigma_profile": { 
			"-0.025": 0.0,
			"-0.024": 0.0,
			"-0.023": 0.0,
			"-0.022": 0.0,
			"-0.021": 0.0,
			"-0.02": 0.0,
			"-0.019": 0.0,
			"-0.018": 0.0,
			"-0.017": 0.0,
			"-0.016": 0.0,
			"-0.015": 0.0,
			"-0.014": 0.0,
			"-0.013": 0.00831730002405,
			"-0.012": 1.40284233714,
			"-0.011": 4.46526655725,
			"-0.01": 5.32310602126,
			"-0.009": 4.44226777238,
			"-0.008": 3.23192333214,
			"-0.007": 3.39010644733,
			"-0.006": 6.04488537314,
			"-0.005": 19.6982903064,
			"-0.004": 24.2784644628,
			"-0.003": 20.6012993654,
			"-0.002": 15.1436131647,
			"-0.001": 13.4808759616,
			"0.0": 14.0673842711,
			"0.001": 10.394737916,
			"0.002": 11.2143309069,
			"0.003": 18.4236246027,
			"0.004": 21.0752133551,
			"0.005": 18.0946924815,
			"0.006": 7.51816149719,
			"0.007": 5.65431255837,
			"0.008": 4.89387062824,
			"0.009": 3.83790901567,
			"0.01": 4.16051259842,
			"0.011": 2.63087022184,
			"0.012": 1.38713032082,
			"0.013": 0.992333586186,
			"0.014": 0.746214332156,
			"0.015": 0.764391179163,
			"0.016": 0.132097948991,
			"0.017": 0.0,
			"0.018": 0.0,
			"0.019": 0.0,
			"0.02": 0.0,
			"0.021": 0.0,
			"0.022": 0.0,
			"0.023": 0.0,
			"0.024": 0.0,
			"0.025": 0.0
		}
	}
}
