{
	 "smiles": "NC(C(O)=O)(C1=CC(F)=CC=C1)C(F)(F)F", 
	 "Tm": 405.15, 
	 "num_atms": 23, 
	 "gaussian": { 
		 "optdone": 1, 
		 "sigma_profile": "yes", 
		 "theory": "DFT", 
		 "functional": "B3LYP", 
		 "basiset": "6-31G**", 
		 "properties": { 
			 "R2extent": 3283.0781, 
			 "electric_dipole_moment_norm": 4.82255539522, 
			 "electric_quadrupole_moment_norm": 9.59289322155, 
			 "total_energy": -951.731877578, 
			 "HOMO_LUMO_gap": 0.21885, 
			 "cosmo_polarized_energy": -15.44, 
			 "cosmo_cavitation_energy": 28.59, 
			 "cosmo_dispersion_energy": -19.76, 
			 "cosmo_repulsion_energy": 1.46, 
			 "cosmo_total_nonelectrostatic_energy": 10.29, 
			 "SMD_solvation_energy": 6.99 
		},
		"coords": [
			{
				"x": -1.5458445492,
				"y": 1.351742391,
				"z": -1.5172189368,
				"element": "N" 
			},
			{
				"x": -0.6651462222,
				"y": 0.3158859059,
				"z": -0.9681927816,
				"element": "C" 
			},
			{
				"x": -0.2892284947,
				"y": -0.6631343498,
				"z": -2.1248187841,
				"element": "C" 
			},
			{
				"x": 0.8217326335,
				"y": -0.3369273493,
				"z": -2.8268388965,
				"element": "O" 
			},
			{
				"x": -1.0031217203,
				"y": -1.5653426017,
				"z": -2.4806300214,
				"element": "O" 
			},
			{
				"x": 0.5591436746,
				"y": 0.940238999,
				"z": -0.2908750308,
				"element": "C" 
			},
			{
				"x": 1.6495215058,
				"y": 0.1296823037,
				"z": 0.0671725303,
				"element": "C" 
			},
			{
				"x": 2.7406481393,
				"y": 0.7082053439,
				"z": 0.7044717312,
				"element": "C" 
			},
			{
				"x": 3.7812849298,
				"y": -0.0766522109,
				"z": 1.0412304776,
				"element": "F" 
			},
			{
				"x": 2.7935341476,
				"y": 2.0653714073,
				"z": 1.002041139,
				"element": "C" 
			},
			{
				"x": 1.7020861817,
				"y": 2.8595827657,
				"z": 0.652306857,
				"element": "C" 
			},
			{
				"x": 0.5895704307,
				"y": 2.3065749167,
				"z": 0.0152118,
				"element": "C" 
			},
			{
				"x": -1.4901632983,
				"y": -0.4481600589,
				"z": 0.0978288375,
				"element": "C" 
			},
			{
				"x": -2.6956442965,
				"y": -0.814862614,
				"z": -0.3720524489,
				"element": "F" 
			},
			{
				"x": -0.8397711276,
				"y": -1.5573925446,
				"z": 0.501584653,
				"element": "F" 
			},
			{
				"x": -1.6992216487,
				"y": 0.3227590194,
				"z": 1.1794317159,
				"element": "F" 
			},
			{
				"x": -2.3784674063,
				"y": 0.9103961269,
				"z": -1.8994297607,
				"element": "H" 
			},
			{
				"x": -1.0787523332,
				"y": 1.8399215346,
				"z": -2.2771404818,
				"element": "H" 
			},
			{
				"x": 1.3381533917,
				"y": 0.3268226958,
				"z": -2.3412200419,
				"element": "H" 
			},
			{
				"x": 1.6577361049,
				"y": -0.9382431643,
				"z": -0.1222484801,
				"element": "H" 
			},
			{
				"x": 3.6679406204,
				"y": 2.4728126909,
				"z": 1.4973887009,
				"element": "H" 
			},
			{
				"x": 1.7162089554,
				"y": 3.9201110217,
				"z": 0.8841524094,
				"element": "H" 
			},
			{
				"x": -0.2680996184,
				"y": 2.9208077709,
				"z": -0.2303551873,
				"element": "H" 
			}
		],
		 "valence_orbital": [ 
			{
				"type": "occ",
				"energy": -0.33228,
				"method": "rhf"
			},
			{
				"type": "occ",
				"energy": -0.30918,
				"method": "rhf"
			},
			{
				"type": "occ",
				"energy": -0.28538,
				"method": "rhf"
			},
			{
				"type": "occ",
				"energy": -0.26837,
				"method": "rhf"
			},
			{
				"type": "occ",
				"energy": -0.26149,
				"method": "rhf"
			},
			{
				"type": "unocc",
				"energy": -0.04264,
				"method": "rhf"
			},
			{
				"type": "unocc",
				"energy": -0.02428,
				"method": "rhf"
			},
			{
				"type": "unocc",
				"energy": -0.01088,
				"method": "rhf"
			},
			{
				"type": "unocc",
				"energy": 0.05914,
				"method": "rhf"
			},
			{
				"type": "unocc",
				"energy": 0.07568,
				"method": "rhf"
			}
		],
		"cosmo_sigma_profile": { 
			"-0.025": 0.0,
			"-0.024": 0.0,
			"-0.023": 0.0,
			"-0.022": 0.0,
			"-0.021": 0.0,
			"-0.02": 0.0,
			"-0.019": 0.0,
			"-0.018": 0.0,
			"-0.017": 0.0634583985593,
			"-0.016": 0.47789057509,
			"-0.015": 1.00119156057,
			"-0.014": 1.20716687221,
			"-0.013": 2.64058551549,
			"-0.012": 3.47307332699,
			"-0.011": 3.58226363643,
			"-0.01": 3.40120814005,
			"-0.009": 3.26332815508,
			"-0.008": 5.53044328494,
			"-0.007": 8.30648133836,
			"-0.006": 8.42953902972,
			"-0.005": 11.0353007734,
			"-0.004": 8.52906240229,
			"-0.003": 8.68908983787,
			"-0.002": 7.50962782366,
			"-0.001": 10.2380278887,
			"0.0": 16.2412356499,
			"0.001": 19.691557178,
			"0.002": 30.4923378407,
			"0.003": 24.4073158163,
			"0.004": 14.5159738169,
			"0.005": 4.55139614443,
			"0.006": 3.97843546937,
			"0.007": 4.23037255357,
			"0.008": 4.42645507806,
			"0.009": 6.05483715805,
			"0.01": 5.30218896598,
			"0.011": 4.97310565383,
			"0.012": 1.7176351758,
			"0.013": 0.30728335359,
			"0.014": 0.0,
			"0.015": 0.0,
			"0.016": 0.0,
			"0.017": 0.0,
			"0.018": 0.0,
			"0.019": 0.0,
			"0.02": 0.0,
			"0.021": 0.0,
			"0.022": 0.0,
			"0.023": 0.0,
			"0.024": 0.0,
			"0.025": 0.0
		}
	}
}
