{
	 "smiles": "NC1=NC(=CS1)C1=CC(=CC=C1)C(F)(F)F", 
	 "Tm": 359.15, 
	 "num_atms": 23, 
	 "gaussian": { 
		 "optdone": 1, 
		 "sigma_profile": "yes", 
		 "theory": "DFT", 
		 "functional": "B3LYP", 
		 "basiset": "6-31G**", 
		 "properties": { 
			 "R2extent": 5413.1816, 
			 "electric_dipole_moment_norm": 4.30305929892, 
			 "electric_quadrupole_moment_norm": 11.2543103112, 
			 "total_energy": -1192.50429941, 
			 "HOMO_LUMO_gap": 0.16925, 
			 "cosmo_polarized_energy": -11.12, 
			 "cosmo_cavitation_energy": 30.87, 
			 "cosmo_dispersion_energy": -22.8, 
			 "cosmo_repulsion_energy": 1.66, 
			 "cosmo_total_nonelectrostatic_energy": 9.74, 
			 "SMD_solvation_energy": 5.02 
		},
		"coords": [
			{
				"x": 3.178729221,
				"y": -1.9612979127,
				"z": -3.6820307655,
				"element": "N" 
			},
			{
				"x": 2.010740699,
				"y": -1.5682198473,
				"z": -3.0715891003,
				"element": "C" 
			},
			{
				"x": 1.9598020636,
				"y": -0.8535960399,
				"z": -1.9881898233,
				"element": "N" 
			},
			{
				"x": 0.6499585871,
				"y": -0.5439055744,
				"z": -1.6462313301,
				"element": "C" 
			},
			{
				"x": -0.3044097598,
				"y": -1.0460837555,
				"z": -2.4890583936,
				"element": "C" 
			},
			{
				"x": 0.4358944417,
				"y": -1.9360926597,
				"z": -3.7923411611,
				"element": "S" 
			},
			{
				"x": 0.4093284782,
				"y": 0.2659718942,
				"z": -0.4363179288,
				"element": "C" 
			},
			{
				"x": -0.887822981,
				"y": 0.5984479528,
				"z": -0.0150467591,
				"element": "C" 
			},
			{
				"x": -1.0858366343,
				"y": 1.3696292588,
				"z": 1.1276454904,
				"element": "C" 
			},
			{
				"x": 0.0038870695,
				"y": 1.8264783752,
				"z": 1.8767930917,
				"element": "C" 
			},
			{
				"x": 1.2938009278,
				"y": 1.499564924,
				"z": 1.4648860182,
				"element": "C" 
			},
			{
				"x": 1.4974640107,
				"y": 0.7271937223,
				"z": 0.3223300298,
				"element": "C" 
			},
			{
				"x": -2.4834954684,
				"y": 1.6677662637,
				"z": 1.5983255453,
				"element": "C" 
			},
			{
				"x": -2.8933677088,
				"y": 0.7840875934,
				"z": 2.5393739187,
				"element": "F" 
			},
			{
				"x": -3.3842577156,
				"y": 1.6120210437,
				"z": 0.5912028207,
				"element": "F" 
			},
			{
				"x": -2.574203143,
				"y": 2.8966888765,
				"z": 2.1552284587,
				"element": "F" 
			},
			{
				"x": 3.9907652161,
				"y": -1.8594924013,
				"z": -3.0874481313,
				"element": "H" 
			},
			{
				"x": 3.1566891145,
				"y": -2.8245618063,
				"z": -4.2054080876,
				"element": "H" 
			},
			{
				"x": -1.3789554039,
				"y": -0.9599576197,
				"z": -2.4359233529,
				"element": "H" 
			},
			{
				"x": -1.7527254738,
				"y": 0.2667694001,
				"z": -0.5778354973,
				"element": "H" 
			},
			{
				"x": -0.1612345533,
				"y": 2.4339523549,
				"z": 2.760032638,
				"element": "H" 
			},
			{
				"x": 2.1480919876,
				"y": 1.8516448888,
				"z": 2.035405621,
				"element": "H" 
			},
			{
				"x": 2.499157025,
				"y": 0.4718910683,
				"z": -0.0032033016,
				"element": "H" 
			}
		],
		 "valence_orbital": [ 
			{
				"type": "occ",
				"energy": -0.29276,
				"method": "rhf"
			},
			{
				"type": "occ",
				"energy": -0.28075,
				"method": "rhf"
			},
			{
				"type": "occ",
				"energy": -0.26351,
				"method": "rhf"
			},
			{
				"type": "occ",
				"energy": -0.25795,
				"method": "rhf"
			},
			{
				"type": "occ",
				"energy": -0.2094,
				"method": "rhf"
			},
			{
				"type": "unocc",
				"energy": -0.04015,
				"method": "rhf"
			},
			{
				"type": "unocc",
				"energy": -0.02054,
				"method": "rhf"
			},
			{
				"type": "unocc",
				"energy": 0.00235,
				"method": "rhf"
			},
			{
				"type": "unocc",
				"energy": 0.00973,
				"method": "rhf"
			},
			{
				"type": "unocc",
				"energy": 0.06336,
				"method": "rhf"
			}
		],
		"cosmo_sigma_profile": { 
			"-0.025": 0.0,
			"-0.024": 0.0,
			"-0.023": 0.0,
			"-0.022": 0.0,
			"-0.021": 0.0,
			"-0.02": 0.0,
			"-0.019": 0.0,
			"-0.018": 0.0,
			"-0.017": 0.0,
			"-0.016": 0.0,
			"-0.015": 0.521250187082,
			"-0.014": 2.04700731507,
			"-0.013": 2.97029927683,
			"-0.012": 2.22510365425,
			"-0.011": 2.74796855122,
			"-0.01": 3.6643522338,
			"-0.009": 4.10247704101,
			"-0.008": 3.22161546004,
			"-0.007": 5.89115797601,
			"-0.006": 8.53789888172,
			"-0.005": 9.7993052572,
			"-0.004": 9.97970159592,
			"-0.003": 8.74249164452,
			"-0.002": 11.0769718378,
			"-0.001": 11.2033713874,
			"0.0": 15.1824671224,
			"0.001": 21.3897758906,
			"0.002": 34.1253593307,
			"0.003": 55.7689557522,
			"0.004": 19.463128541,
			"0.005": 4.4009492259,
			"0.006": 2.54776685398,
			"0.007": 2.47739325166,
			"0.008": 2.72131796283,
			"0.009": 1.81662318091,
			"0.01": 2.42004111948,
			"0.011": 1.28696165269,
			"0.012": 0.148767997725,
			"0.013": 0.0,
			"0.014": 0.0,
			"0.015": 0.0,
			"0.016": 0.0,
			"0.017": 0.0,
			"0.018": 0.0,
			"0.019": 0.0,
			"0.02": 0.0,
			"0.021": 0.0,
			"0.022": 0.0,
			"0.023": 0.0,
			"0.024": 0.0,
			"0.025": 0.0
		}
	}
}
