{
	 "smiles": "ClC1=CC=C(CN2CCNCC2=O)C=C1", 
	 "Tm": 357.15, 
	 "num_atms": 28, 
	 "gaussian": { 
		 "optdone": 1, 
		 "sigma_profile": "yes", 
		 "theory": "DFT", 
		 "functional": "B3LYP", 
		 "basiset": "6-31G**", 
		 "properties": { 
			 "R2extent": 5164.6902, 
			 "electric_dipole_moment_norm": 3.67198262523, 
			 "electric_quadrupole_moment_norm": 9.64868137105, 
			 "total_energy": -1071.92737662, 
			 "HOMO_LUMO_gap": 0.20243, 
			 "cosmo_polarized_energy": -13.5, 
			 "cosmo_cavitation_energy": 32.33, 
			 "cosmo_dispersion_energy": -23.39, 
			 "cosmo_repulsion_energy": 1.84, 
			 "cosmo_total_nonelectrostatic_energy": 10.77, 
			 "SMD_solvation_energy": 2.07 
		},
		"coords": [
			{
				"x": -0.6366971351,
				"y": -5.548527121,
				"z": -1.5053535601,
				"element": "Cl" 
			},
			{
				"x": -0.7452292217,
				"y": -3.8855063566,
				"z": -0.9415076055,
				"element": "C" 
			},
			{
				"x": 0.097365205,
				"y": -3.4522946955,
				"z": 0.083867133,
				"element": "C" 
			},
			{
				"x": 0.0066553389,
				"y": -2.1349229117,
				"z": 0.5281339366,
				"element": "C" 
			},
			{
				"x": -0.9155010531,
				"y": -1.2443562472,
				"z": -0.0434137332,
				"element": "C" 
			},
			{
				"x": -0.9934742376,
				"y": 0.1918719872,
				"z": 0.4430132882,
				"element": "C" 
			},
			{
				"x": 0.1544118387,
				"y": 1.01949429,
				"z": 0.0575354037,
				"element": "N" 
			},
			{
				"x": 0.3440784149,
				"y": 1.3727991444,
				"z": -1.3497353573,
				"element": "C" 
			},
			{
				"x": 1.0046155886,
				"y": 2.7709528818,
				"z": -1.5081034437,
				"element": "C" 
			},
			{
				"x": 1.851526848,
				"y": 3.1630816277,
				"z": -0.3754975776,
				"element": "N" 
			},
			{
				"x": 2.3491800641,
				"y": 2.0094513631,
				"z": 0.3746692049,
				"element": "C" 
			},
			{
				"x": 1.2248781789,
				"y": 1.1225721634,
				"z": 0.9149054216,
				"element": "C" 
			},
			{
				"x": 1.2566253124,
				"y": 0.6058878323,
				"z": 2.0286816956,
				"element": "O" 
			},
			{
				"x": -1.7486669982,
				"y": -1.7067427044,
				"z": -1.0671716016,
				"element": "C" 
			},
			{
				"x": -1.6726816611,
				"y": -3.0246750424,
				"z": -1.5230211699,
				"element": "C" 
			},
			{
				"x": 0.8078819002,
				"y": -4.1400301703,
				"z": 0.529273408,
				"element": "H" 
			},
			{
				"x": 0.6522314898,
				"y": -1.7852531385,
				"z": 1.3283311396,
				"element": "H" 
			},
			{
				"x": -1.0329264855,
				"y": 0.2171864183,
				"z": 1.53403372,
				"element": "H" 
			},
			{
				"x": -1.8992851038,
				"y": 0.6685661568,
				"z": 0.0516128292,
				"element": "H" 
			},
			{
				"x": 0.9546704872,
				"y": 0.6110480406,
				"z": -1.8538048066,
				"element": "H" 
			},
			{
				"x": -0.6335303594,
				"y": 1.3588009551,
				"z": -1.8410488608,
				"element": "H" 
			},
			{
				"x": 1.6006685259,
				"y": 2.7593770455,
				"z": -2.4300992817,
				"element": "H" 
			},
			{
				"x": 0.2360460476,
				"y": 3.5387240166,
				"z": -1.6379890469,
				"element": "H" 
			},
			{
				"x": 1.3036286529,
				"y": 3.7341075565,
				"z": 0.2609823094,
				"element": "H" 
			},
			{
				"x": 2.9457355901,
				"y": 2.3391798621,
				"z": 1.2279753737,
				"element": "H" 
			},
			{
				"x": 3.0102678691,
				"y": 1.4153994589,
				"z": -0.2719369307,
				"element": "H" 
			},
			{
				"x": -2.476273919,
				"y": -1.0344746872,
				"z": -1.515820266,
				"element": "H" 
			},
			{
				"x": -2.3229011777,
				"y": -3.3782177253,
				"z": -2.3156116218,
				"element": "H" 
			}
		],
		 "valence_orbital": [ 
			{
				"type": "occ",
				"energy": -0.27595,
				"method": "rhf"
			},
			{
				"type": "occ",
				"energy": -0.26424,
				"method": "rhf"
			},
			{
				"type": "occ",
				"energy": -0.25126,
				"method": "rhf"
			},
			{
				"type": "occ",
				"energy": -0.24032,
				"method": "rhf"
			},
			{
				"type": "occ",
				"energy": -0.22115,
				"method": "rhf"
			},
			{
				"type": "unocc",
				"energy": -0.01872,
				"method": "rhf"
			},
			{
				"type": "unocc",
				"energy": -0.01467,
				"method": "rhf"
			},
			{
				"type": "unocc",
				"energy": 0.01762,
				"method": "rhf"
			},
			{
				"type": "unocc",
				"energy": 0.03051,
				"method": "rhf"
			},
			{
				"type": "unocc",
				"energy": 0.06127,
				"method": "rhf"
			}
		],
		"cosmo_sigma_profile": { 
			"-0.025": 0.0,
			"-0.024": 0.0,
			"-0.023": 0.0,
			"-0.022": 0.0,
			"-0.021": 0.0,
			"-0.02": 0.0,
			"-0.019": 0.0,
			"-0.018": 0.0,
			"-0.017": 0.0,
			"-0.016": 0.0,
			"-0.015": 0.0,
			"-0.014": 0.0,
			"-0.013": 0.0,
			"-0.012": 0.0,
			"-0.011": 0.670596396771,
			"-0.01": 1.72446146307,
			"-0.009": 1.28127409468,
			"-0.008": 2.04926047644,
			"-0.007": 6.76855009727,
			"-0.006": 17.2760955047,
			"-0.005": 21.7989822579,
			"-0.004": 24.3090380248,
			"-0.003": 21.2362151552,
			"-0.002": 18.4266786939,
			"-0.001": 15.4121790654,
			"0.0": 16.447797316,
			"0.001": 16.2966997879,
			"0.002": 19.1742351572,
			"0.003": 18.2909785223,
			"0.004": 19.945731513,
			"0.005": 12.2117521589,
			"0.006": 2.09874129073,
			"0.007": 2.25781878001,
			"0.008": 2.04431017015,
			"0.009": 1.05255212692,
			"0.01": 1.88661666181,
			"0.011": 2.23312683007,
			"0.012": 2.34627119552,
			"0.013": 3.06249385889,
			"0.014": 4.211561006,
			"0.015": 1.8008400616,
			"0.016": 0.584855406018,
			"0.017": 0.586484763048,
			"0.018": 0.15033467183,
			"0.019": 0.0,
			"0.02": 0.0,
			"0.021": 0.0,
			"0.022": 0.0,
			"0.023": 0.0,
			"0.024": 0.0,
			"0.025": 0.0
		}
	}
}
