{
	 "smiles": "ClC(Cl)C(=O)N(CC=C)CC=C", 
	 "Tm": 278.65, 
	 "num_atms": 23, 
	 "gaussian": { 
		 "optdone": 1, 
		 "sigma_profile": "yes", 
		 "theory": "DFT", 
		 "functional": "B3LYP", 
		 "basiset": "6-31G**", 
		 "properties": { 
			 "R2extent": 4754.0484, 
			 "electric_dipole_moment_norm": 4.72503590039, 
			 "electric_quadrupole_moment_norm": 12.975486955, 
			 "total_energy": -1361.7839984, 
			 "HOMO_LUMO_gap": 0.22013, 
			 "cosmo_polarized_energy": -13.12, 
			 "cosmo_cavitation_energy": 30.48, 
			 "cosmo_dispersion_energy": -20.75, 
			 "cosmo_repulsion_energy": 1.68, 
			 "cosmo_total_nonelectrostatic_energy": 11.4, 
			 "SMD_solvation_energy": 6.14 
		},
		"coords": [
			{
				"x": -0.7744360377,
				"y": -0.7046376938,
				"z": 3.8022997237,
				"element": "Cl" 
			},
			{
				"x": -2.123607615,
				"y": -0.116795506,
				"z": 2.7392019323,
				"element": "C" 
			},
			{
				"x": -3.6920883482,
				"y": -0.2538532637,
				"z": 3.5659811189,
				"element": "Cl" 
			},
			{
				"x": -2.1292147662,
				"y": -0.9157279796,
				"z": 1.4048685364,
				"element": "C" 
			},
			{
				"x": -2.960295559,
				"y": -1.7868364795,
				"z": 1.2138604578,
				"element": "O" 
			},
			{
				"x": -1.1701635258,
				"y": -0.584839903,
				"z": 0.4844428901,
				"element": "N" 
			},
			{
				"x": -1.2070984509,
				"y": -1.3237191948,
				"z": -0.7949807727,
				"element": "C" 
			},
			{
				"x": -2.0872306882,
				"y": -0.6525664699,
				"z": -1.8194234341,
				"element": "C" 
			},
			{
				"x": -3.2147957082,
				"y": -1.1846568922,
				"z": -2.2889076676,
				"element": "C" 
			},
			{
				"x": -0.1105464798,
				"y": 0.4226666526,
				"z": 0.6271019916,
				"element": "C" 
			},
			{
				"x": 1.2654743626,
				"y": -0.1887871261,
				"z": 0.7274893113,
				"element": "C" 
			},
			{
				"x": 2.2657788407,
				"y": 0.0901959201,
				"z": -0.1079426353,
				"element": "C" 
			},
			{
				"x": -1.9501505216,
				"y": 0.9467744816,
				"z": 2.5944264813,
				"element": "H" 
			},
			{
				"x": -0.1740555356,
				"y": -1.3926432934,
				"z": -1.1521595212,
				"element": "H" 
			},
			{
				"x": -1.5695578678,
				"y": -2.3313864854,
				"z": -0.5887195686,
				"element": "H" 
			},
			{
				"x": -1.7617207191,
				"y": 0.3251379267,
				"z": -2.1756688254,
				"element": "H" 
			},
			{
				"x": -3.8219314507,
				"y": -0.6732596528,
				"z": -3.030259607,
				"element": "H" 
			},
			{
				"x": -3.5722692321,
				"y": -2.1500441984,
				"z": -1.9409984564,
				"element": "H" 
			},
			{
				"x": -0.1536756073,
				"y": 1.1044948304,
				"z": -0.2315196313,
				"element": "H" 
			},
			{
				"x": -0.3009552932,
				"y": 1.0273705656,
				"z": 1.5155891524,
				"element": "H" 
			},
			{
				"x": 1.4092537946,
				"y": -0.8872096814,
				"z": 1.5497420185,
				"element": "H" 
			},
			{
				"x": 3.2489120868,
				"y": -0.3550134965,
				"z": 0.0102550216,
				"element": "H" 
			},
			{
				"x": 2.1416743216,
				"y": 0.7839369395,
				"z": -0.9367785162,
				"element": "H" 
			}
		],
		 "valence_orbital": [ 
			{
				"type": "occ",
				"energy": -0.30733,
				"method": "rhf"
			},
			{
				"type": "occ",
				"energy": -0.2867,
				"method": "rhf"
			},
			{
				"type": "occ",
				"energy": -0.27319,
				"method": "rhf"
			},
			{
				"type": "occ",
				"energy": -0.26177,
				"method": "rhf"
			},
			{
				"type": "occ",
				"energy": -0.25411,
				"method": "rhf"
			},
			{
				"type": "unocc",
				"energy": -0.03398,
				"method": "rhf"
			},
			{
				"type": "unocc",
				"energy": -0.00773,
				"method": "rhf"
			},
			{
				"type": "unocc",
				"energy": 0.00117,
				"method": "rhf"
			},
			{
				"type": "unocc",
				"energy": 0.01343,
				"method": "rhf"
			},
			{
				"type": "unocc",
				"energy": 0.05208,
				"method": "rhf"
			}
		],
		"cosmo_sigma_profile": { 
			"-0.025": 0.0,
			"-0.024": 0.0,
			"-0.023": 0.0,
			"-0.022": 0.0,
			"-0.021": 0.0,
			"-0.02": 0.0,
			"-0.019": 0.0,
			"-0.018": 0.0,
			"-0.017": 0.0,
			"-0.016": 0.0,
			"-0.015": 0.0,
			"-0.014": 0.0,
			"-0.013": 1.04378041717,
			"-0.012": 2.53625088242,
			"-0.011": 1.7131881276,
			"-0.01": 1.68912776018,
			"-0.009": 1.67910671869,
			"-0.008": 1.7806719417,
			"-0.007": 2.61540316374,
			"-0.006": 9.5790975486,
			"-0.005": 16.2753310576,
			"-0.004": 18.3669384472,
			"-0.003": 19.2685026496,
			"-0.002": 21.6421671304,
			"-0.001": 21.0867274016,
			"0.0": 20.6954055928,
			"0.001": 15.7087793496,
			"0.002": 16.5122771282,
			"0.003": 18.0165242371,
			"0.004": 22.9628993713,
			"0.005": 8.53587752063,
			"0.006": 5.23879959876,
			"0.007": 2.97795082972,
			"0.008": 3.11695628571,
			"0.009": 2.29226429466,
			"0.01": 1.50297246158,
			"0.011": 2.55607049745,
			"0.012": 3.52032814585,
			"0.013": 2.78135452171,
			"0.014": 0.412124239451,
			"0.015": 0.0,
			"0.016": 0.0,
			"0.017": 0.0,
			"0.018": 0.0,
			"0.019": 0.0,
			"0.02": 0.0,
			"0.021": 0.0,
			"0.022": 0.0,
			"0.023": 0.0,
			"0.024": 0.0,
			"0.025": 0.0
		}
	}
}
