{
	 "smiles": "CC1=C(C=O)C(=NO1)C1=CC=CC=C1", 
	 "Tm": 315.15, 
	 "num_atms": 23, 
	 "gaussian": { 
		 "optdone": 1, 
		 "sigma_profile": "yes", 
		 "theory": "DFT", 
		 "functional": "B3LYP", 
		 "basiset": "6-31G**", 
		 "properties": { 
			 "R2extent": 3558.8422, 
			 "electric_dipole_moment_norm": 2.46224597471, 
			 "electric_quadrupole_moment_norm": 15.7522951099, 
			 "total_energy": -629.740742379, 
			 "HOMO_LUMO_gap": 0.17731, 
			 "cosmo_polarized_energy": -10.85, 
			 "cosmo_cavitation_energy": 27.49, 
			 "cosmo_dispersion_energy": -20.32, 
			 "cosmo_repulsion_energy": 1.56, 
			 "cosmo_total_nonelectrostatic_energy": 8.74, 
			 "SMD_solvation_energy": 5.9 
		},
		"coords": [
			{
				"x": -2.2164504253,
				"y": -1.9502720757,
				"z": 1.8035430313,
				"element": "C" 
			},
			{
				"x": -1.3434011487,
				"y": -1.1486513592,
				"z": 0.8958649351,
				"element": "C" 
			},
			{
				"x": -0.9746052158,
				"y": -1.2670050963,
				"z": -0.430003355,
				"element": "C" 
			},
			{
				"x": -1.4749271066,
				"y": -2.3738372306,
				"z": -1.2426333316,
				"element": "C" 
			},
			{
				"x": -1.2447101951,
				"y": -2.623130461,
				"z": -2.4141966759,
				"element": "O" 
			},
			{
				"x": -0.0992998145,
				"y": -0.1232148709,
				"z": -0.6464553604,
				"element": "C" 
			},
			{
				"x": 0.0119272802,
				"y": 0.5753010429,
				"z": 0.4665585446,
				"element": "N" 
			},
			{
				"x": -0.770533187,
				"y": -0.0719480774,
				"z": 1.4314882332,
				"element": "O" 
			},
			{
				"x": 0.6419873769,
				"y": 0.3615034475,
				"z": -1.8327039939,
				"element": "C" 
			},
			{
				"x": 1.4037950367,
				"y": 1.541855157,
				"z": -1.7154815053,
				"element": "C" 
			},
			{
				"x": 2.1172593975,
				"y": 2.032771068,
				"z": -2.802571723,
				"element": "C" 
			},
			{
				"x": 2.0866957885,
				"y": 1.3590769462,
				"z": -4.0277469944,
				"element": "C" 
			},
			{
				"x": 1.3354539128,
				"y": 0.1918206487,
				"z": -4.151016499,
				"element": "C" 
			},
			{
				"x": 0.6154876014,
				"y": -0.3089754648,
				"z": -3.0644474032,
				"element": "C" 
			},
			{
				"x": -2.2168407031,
				"y": -1.4978309022,
				"z": 2.797014387,
				"element": "H" 
			},
			{
				"x": -3.2465395625,
				"y": -1.9826937683,
				"z": 1.4356266613,
				"element": "H" 
			},
			{
				"x": -1.8586591989,
				"y": -2.9806164127,
				"z": 1.8899254448,
				"element": "H" 
			},
			{
				"x": -2.1488652764,
				"y": -3.0472730225,
				"z": -0.6706156469,
				"element": "H" 
			},
			{
				"x": 1.4277202573,
				"y": 2.0646733454,
				"z": -0.7662090164,
				"element": "H" 
			},
			{
				"x": 2.6989737881,
				"y": 2.9437505745,
				"z": -2.6949407977,
				"element": "H" 
			},
			{
				"x": 2.6446910244,
				"y": 1.7441237488,
				"z": -4.876651919,
				"element": "H" 
			},
			{
				"x": 1.3044017391,
				"y": -0.3391958524,
				"z": -5.098072942,
				"element": "H" 
			},
			{
				"x": 0.0330386312,
				"y": -1.2159313847,
				"z": -3.1695740736,
				"element": "H" 
			}
		],
		 "valence_orbital": [ 
			{
				"type": "occ",
				"energy": -0.312,
				"method": "rhf"
			},
			{
				"type": "occ",
				"energy": -0.27524,
				"method": "rhf"
			},
			{
				"type": "occ",
				"energy": -0.26377,
				"method": "rhf"
			},
			{
				"type": "occ",
				"energy": -0.2489,
				"method": "rhf"
			},
			{
				"type": "occ",
				"energy": -0.23906,
				"method": "rhf"
			},
			{
				"type": "unocc",
				"energy": -0.06175,
				"method": "rhf"
			},
			{
				"type": "unocc",
				"energy": -0.0426,
				"method": "rhf"
			},
			{
				"type": "unocc",
				"energy": 0.0017,
				"method": "rhf"
			},
			{
				"type": "unocc",
				"energy": 0.02483,
				"method": "rhf"
			},
			{
				"type": "unocc",
				"energy": 0.07753,
				"method": "rhf"
			}
		],
		"cosmo_sigma_profile": { 
			"-0.025": 0.0,
			"-0.024": 0.0,
			"-0.023": 0.0,
			"-0.022": 0.0,
			"-0.021": 0.0,
			"-0.02": 0.0,
			"-0.019": 0.0,
			"-0.018": 0.0,
			"-0.017": 0.0,
			"-0.016": 0.0,
			"-0.015": 0.0,
			"-0.014": 0.0,
			"-0.013": 0.0,
			"-0.012": 0.0,
			"-0.011": 0.0,
			"-0.01": 0.0,
			"-0.009": 0.189744696281,
			"-0.008": 4.23568837013,
			"-0.007": 11.1376379704,
			"-0.006": 13.0624658571,
			"-0.005": 16.8090375121,
			"-0.004": 17.9983127895,
			"-0.003": 19.1100949665,
			"-0.002": 14.9297002804,
			"-0.001": 14.3808357249,
			"0.0": 12.8793614447,
			"0.001": 11.2061692999,
			"0.002": 13.9540402826,
			"0.003": 16.32502052,
			"0.004": 15.0123877118,
			"0.005": 12.2754983297,
			"0.006": 5.76305353589,
			"0.007": 5.60074035642,
			"0.008": 3.82220664263,
			"0.009": 3.01838418984,
			"0.01": 3.80715805148,
			"0.011": 3.09111188316,
			"0.012": 2.49176625167,
			"0.013": 0.410150845025,
			"0.014": 0.0,
			"0.015": 0.0,
			"0.016": 0.0,
			"0.017": 0.0,
			"0.018": 0.0,
			"0.019": 0.0,
			"0.02": 0.0,
			"0.021": 0.0,
			"0.022": 0.0,
			"0.023": 0.0,
			"0.024": 0.0,
			"0.025": 0.0
		}
	}
}
