{
	 "smiles": "CC1=C(C=C(O1)C1=CC=C(Cl)C=C1)C(O)=O", 
	 "Tm": 505.15, 
	 "num_atms": 25, 
	 "gaussian": { 
		 "optdone": 1, 
		 "sigma_profile": "yes", 
		 "theory": "DFT", 
		 "functional": "B3LYP", 
		 "basiset": "6-31G**", 
		 "properties": { 
			 "R2extent": 6174.7966, 
			 "electric_dipole_moment_norm": 2.43820571117, 
			 "electric_quadrupole_moment_norm": 25.8279366512, 
			 "total_energy": -1148.57054863, 
			 "HOMO_LUMO_gap": 0.16754, 
			 "cosmo_polarized_energy": -15.36, 
			 "cosmo_cavitation_energy": 32.05, 
			 "cosmo_dispersion_energy": -23.63, 
			 "cosmo_repulsion_energy": 1.83, 
			 "cosmo_total_nonelectrostatic_energy": 10.25, 
			 "SMD_solvation_energy": 6.73 
		},
		"coords": [
			{
				"x": 0.4758689561,
				"y": 0.7315423797,
				"z": -3.9563782533,
				"element": "C" 
			},
			{
				"x": 0.4861643462,
				"y": 0.8022097742,
				"z": -2.4733139396,
				"element": "C" 
			},
			{
				"x": 1.0774413781,
				"y": 1.65327043,
				"z": -1.5656132463,
				"element": "C" 
			},
			{
				"x": 0.6933244612,
				"y": 1.1804452118,
				"z": -0.2620505293,
				"element": "C" 
			},
			{
				"x": -0.1012941067,
				"y": 0.0852996376,
				"z": -0.4527667171,
				"element": "C" 
			},
			{
				"x": -0.2294409065,
				"y": -0.1388255476,
				"z": -1.805476141,
				"element": "O" 
			},
			{
				"x": -0.7895384326,
				"y": -0.8362809718,
				"z": 0.4411774908,
				"element": "C" 
			},
			{
				"x": -0.7143075846,
				"y": -0.6735111156,
				"z": 1.8361317827,
				"element": "C" 
			},
			{
				"x": -1.3682812335,
				"y": -1.5486931822,
				"z": 2.6963417814,
				"element": "C" 
			},
			{
				"x": -2.1108766841,
				"y": -2.6039714444,
				"z": 2.1637735519,
				"element": "C" 
			},
			{
				"x": -2.9388917912,
				"y": -3.7112739262,
				"z": 3.2451578528,
				"element": "Cl" 
			},
			{
				"x": -2.2024821937,
				"y": -2.7883491517,
				"z": 0.7846528055,
				"element": "C" 
			},
			{
				"x": -1.5437708875,
				"y": -1.9074861923,
				"z": -0.0686937627,
				"element": "C" 
			},
			{
				"x": 1.9299879934,
				"y": 2.8079812394,
				"z": -1.9230814685,
				"element": "C" 
			},
			{
				"x": 2.2324680215,
				"y": 3.6639772856,
				"z": -0.9087765018,
				"element": "O" 
			},
			{
				"x": 2.361835278,
				"y": 3.0252788712,
				"z": -3.033973632,
				"element": "O" 
			},
			{
				"x": 1.0974081431,
				"y": 1.5325629252,
				"z": -4.3548023463,
				"element": "H" 
			},
			{
				"x": 0.8694374446,
				"y": -0.2321351278,
				"z": -4.299101863,
				"element": "H" 
			},
			{
				"x": -0.5446100741,
				"y": 0.8276263916,
				"z": -4.3444555812,
				"element": "H" 
			},
			{
				"x": 0.9951912297,
				"y": 1.5743481463,
				"z": 0.6988127209,
				"element": "H" 
			},
			{
				"x": -0.139674556,
				"y": 0.1449584082,
				"z": 2.258495904,
				"element": "H" 
			},
			{
				"x": -1.3050244626,
				"y": -1.4164581064,
				"z": 3.7706401726,
				"element": "H" 
			},
			{
				"x": -2.7824131854,
				"y": -3.6123446348,
				"z": 0.384078378,
				"element": "H" 
			},
			{
				"x": -1.6128149505,
				"y": -2.0491982943,
				"z": -1.1412545873,
				"element": "H" 
			},
			{
				"x": 1.7390937972,
				"y": 3.4314269942,
				"z": -0.1107238711,
				"element": "H" 
			}
		],
		 "valence_orbital": [ 
			{
				"type": "occ",
				"energy": -0.30229,
				"method": "rhf"
			},
			{
				"type": "occ",
				"energy": -0.28082,
				"method": "rhf"
			},
			{
				"type": "occ",
				"energy": -0.27569,
				"method": "rhf"
			},
			{
				"type": "occ",
				"energy": -0.27502,
				"method": "rhf"
			},
			{
				"type": "occ",
				"energy": -0.22115,
				"method": "rhf"
			},
			{
				"type": "unocc",
				"energy": -0.05361,
				"method": "rhf"
			},
			{
				"type": "unocc",
				"energy": -0.03369,
				"method": "rhf"
			},
			{
				"type": "unocc",
				"energy": -0.02321,
				"method": "rhf"
			},
			{
				"type": "unocc",
				"energy": 0.02232,
				"method": "rhf"
			},
			{
				"type": "unocc",
				"energy": 0.03906,
				"method": "rhf"
			}
		],
		"cosmo_sigma_profile": { 
			"-0.025": 0.0,
			"-0.024": 0.0,
			"-0.023": 0.0,
			"-0.022": 0.0,
			"-0.021": 0.0,
			"-0.02": 0.0,
			"-0.019": 0.295774028503,
			"-0.018": 0.80376710804,
			"-0.017": 1.06925157952,
			"-0.016": 0.995103358217,
			"-0.015": 1.42498453272,
			"-0.014": 0.768848781079,
			"-0.013": 1.12894180158,
			"-0.012": 0.912833626463,
			"-0.011": 1.44648454316,
			"-0.01": 1.49946360028,
			"-0.009": 3.02911966105,
			"-0.008": 3.29415311028,
			"-0.007": 7.27922611168,
			"-0.006": 11.9719359488,
			"-0.005": 12.3773822992,
			"-0.004": 11.0160579902,
			"-0.003": 12.5387249063,
			"-0.002": 18.6561793882,
			"-0.001": 20.8773315197,
			"0.0": 20.3816012555,
			"0.001": 26.0637209255,
			"0.002": 25.3637214556,
			"0.003": 25.9898006572,
			"0.004": 16.5530811898,
			"0.005": 8.0406896742,
			"0.006": 2.58683442602,
			"0.007": 1.82025048451,
			"0.008": 3.24390406796,
			"0.009": 2.95134525654,
			"0.01": 4.26913333561,
			"0.011": 5.3073902791,
			"0.012": 3.54654694018,
			"0.013": 2.10965257411,
			"0.014": 0.251774493236,
			"0.015": 0.0,
			"0.016": 0.0,
			"0.017": 0.0,
			"0.018": 0.0,
			"0.019": 0.0,
			"0.02": 0.0,
			"0.021": 0.0,
			"0.022": 0.0,
			"0.023": 0.0,
			"0.024": 0.0,
			"0.025": 0.0
		}
	}
}
