{
	 "smiles": "COC1C(O)C(O)C(O)C(O)C1O", 
	 "Tm": 467.15, 
	 "num_atms": 27, 
	 "gaussian": { 
		 "optdone": 1, 
		 "sigma_profile": "yes", 
		 "theory": "DFT", 
		 "functional": "B3LYP", 
		 "basiset": "6-31G**", 
		 "properties": { 
			 "R2extent": 2631.0445, 
			 "electric_dipole_moment_norm": 3.12548653812, 
			 "electric_quadrupole_moment_norm": 12.8074151276, 
			 "total_energy": -726.479353811, 
			 "HOMO_LUMO_gap": 0.29656, 
			 "cosmo_polarized_energy": -18.69, 
			 "cosmo_cavitation_energy": 26.75, 
			 "cosmo_dispersion_energy": -20.23, 
			 "cosmo_repulsion_energy": 1.58, 
			 "cosmo_total_nonelectrostatic_energy": 8.1, 
			 "SMD_solvation_energy": 4.44 
		},
		"coords": [
			{
				"x": -0.8805524476,
				"y": -3.5350660425,
				"z": -1.8775837704,
				"element": "C" 
			},
			{
				"x": -0.8783308095,
				"y": -2.1994257644,
				"z": -1.3783378977,
				"element": "O" 
			},
			{
				"x": 0.1869459221,
				"y": -1.3663305401,
				"z": -1.8596828862,
				"element": "C" 
			},
			{
				"x": 1.407406476,
				"y": -1.4103957547,
				"z": -0.919048549,
				"element": "C" 
			},
			{
				"x": 1.9286862654,
				"y": -2.7277544014,
				"z": -0.7739513095,
				"element": "O" 
			},
			{
				"x": 1.0510809541,
				"y": -0.8751945246,
				"z": 0.4774130562,
				"element": "C" 
			},
			{
				"x": 0.1209216841,
				"y": -1.688936787,
				"z": 1.1699003209,
				"element": "O" 
			},
			{
				"x": 0.4962298867,
				"y": 0.5569901863,
				"z": 0.3699666678,
				"element": "C" 
			},
			{
				"x": 1.5458690564,
				"y": 1.4204614128,
				"z": -0.1107365274,
				"element": "O" 
			},
			{
				"x": -0.7121938096,
				"y": 0.6563465574,
				"z": -0.5806080509,
				"element": "C" 
			},
			{
				"x": -1.0772758983,
				"y": 2.0291059902,
				"z": -0.723554683,
				"element": "O" 
			},
			{
				"x": -0.3882495814,
				"y": 0.0597452336,
				"z": -1.9644427585,
				"element": "C" 
			},
			{
				"x": 0.4966766046,
				"y": 0.9323669284,
				"z": -2.6718053206,
				"element": "O" 
			},
			{
				"x": -0.0013699408,
				"y": -4.0893380857,
				"z": -1.5364666404,
				"element": "H" 
			},
			{
				"x": -1.7869369184,
				"y": -4.0099866283,
				"z": -1.4948933029,
				"element": "H" 
			},
			{
				"x": -0.9160453584,
				"y": -3.5385376896,
				"z": -2.9761650964,
				"element": "H" 
			},
			{
				"x": 0.481074913,
				"y": -1.6890946767,
				"z": -2.8694666781,
				"element": "H" 
			},
			{
				"x": 2.1719868067,
				"y": -0.7387579353,
				"z": -1.3345968876,
				"element": "H" 
			},
			{
				"x": 2.4067933551,
				"y": -2.9488411266,
				"z": -1.5835493345,
				"element": "H" 
			},
			{
				"x": 1.9686488355,
				"y": -0.8470549565,
				"z": 1.0757260186,
				"element": "H" 
			},
			{
				"x": -0.4701862472,
				"y": -2.0723412344,
				"z": 0.5012118199,
				"element": "H" 
			},
			{
				"x": 0.1882284101,
				"y": 0.8724519427,
				"z": 1.3746396073,
				"element": "H" 
			},
			{
				"x": 1.1629184849,
				"y": 2.3110169625,
				"z": -0.0852479463,
				"element": "H" 
			},
			{
				"x": -1.5553763416,
				"y": 0.1150327726,
				"z": -0.1404002009,
				"element": "H" 
			},
			{
				"x": -0.7546528313,
				"y": 2.2922365042,
				"z": -1.6005255604,
				"element": "H" 
			},
			{
				"x": -1.3054143974,
				"y": 0.0092598457,
				"z": -2.5603637751,
				"element": "H" 
			},
			{
				"x": 1.2070169268,
				"y": 1.1634418113,
				"z": -2.0445303149,
				"element": "H" 
			}
		],
		 "valence_orbital": [ 
			{
				"type": "occ",
				"energy": -0.29888,
				"method": "rhf"
			},
			{
				"type": "occ",
				"energy": -0.29544,
				"method": "rhf"
			},
			{
				"type": "occ",
				"energy": -0.26756,
				"method": "rhf"
			},
			{
				"type": "occ",
				"energy": -0.2545,
				"method": "rhf"
			},
			{
				"type": "occ",
				"energy": -0.25331,
				"method": "rhf"
			},
			{
				"type": "unocc",
				"energy": 0.04325,
				"method": "rhf"
			},
			{
				"type": "unocc",
				"energy": 0.06344,
				"method": "rhf"
			},
			{
				"type": "unocc",
				"energy": 0.0862,
				"method": "rhf"
			},
			{
				"type": "unocc",
				"energy": 0.10446,
				"method": "rhf"
			},
			{
				"type": "unocc",
				"energy": 0.11177,
				"method": "rhf"
			}
		],
		"cosmo_sigma_profile": { 
			"-0.025": 0.0,
			"-0.024": 0.0,
			"-0.023": 0.0,
			"-0.022": 0.0,
			"-0.021": 0.0,
			"-0.02": 0.0,
			"-0.019": 0.0,
			"-0.018": 0.0,
			"-0.017": 0.0769920168595,
			"-0.016": 0.841578128244,
			"-0.015": 1.29168211989,
			"-0.014": 1.56871640662,
			"-0.013": 1.90526945016,
			"-0.012": 2.50210227423,
			"-0.011": 3.60487794311,
			"-0.01": 2.6223754949,
			"-0.009": 3.26997571027,
			"-0.008": 3.55391824047,
			"-0.007": 5.31320198605,
			"-0.006": 8.10973816473,
			"-0.005": 16.1783916604,
			"-0.004": 18.4331506129,
			"-0.003": 22.0851978824,
			"-0.002": 18.1735672319,
			"-0.001": 9.33568872767,
			"0.0": 8.41166592542,
			"0.001": 7.35951621372,
			"0.002": 6.4411440204,
			"0.003": 5.29079954883,
			"0.004": 5.84095117198,
			"0.005": 5.17531274447,
			"0.006": 6.18358964538,
			"0.007": 3.60505267027,
			"0.008": 4.94250658986,
			"0.009": 5.86703876612,
			"0.01": 4.53555642276,
			"0.011": 4.81910618951,
			"0.012": 5.56306058943,
			"0.013": 6.80213923878,
			"0.014": 5.59278258087,
			"0.015": 0.947124136391,
			"0.016": 0.0,
			"0.017": 0.0,
			"0.018": 0.0,
			"0.019": 0.0,
			"0.02": 0.0,
			"0.021": 0.0,
			"0.022": 0.0,
			"0.023": 0.0,
			"0.024": 0.0,
			"0.025": 0.0
		}
	}
}
