{
	 "smiles": "COC1=C(N)C=CC(=C1)S(N)(=O)=O", 
	 "Tm": 416.15, 
	 "num_atms": 23, 
	 "gaussian": { 
		 "optdone": 1, 
		 "sigma_profile": "yes", 
		 "theory": "DFT", 
		 "functional": "B3LYP", 
		 "basiset": "6-31G**", 
		 "properties": { 
			 "R2extent": 3965.6534, 
			 "electric_dipole_moment_norm": 6.91126178422, 
			 "electric_quadrupole_moment_norm": 34.0865954085, 
			 "total_energy": -1006.05720424, 
			 "HOMO_LUMO_gap": 0.1902, 
			 "cosmo_polarized_energy": -22.81, 
			 "cosmo_cavitation_energy": 28.29, 
			 "cosmo_dispersion_energy": -21.27, 
			 "cosmo_repulsion_energy": 1.66, 
			 "cosmo_total_nonelectrostatic_energy": 8.67, 
			 "SMD_solvation_energy": 5.21 
		},
		"coords": [
			{
				"x": 1.1495963723,
				"y": 1.8566736221,
				"z": -0.7451099866,
				"element": "C" 
			},
			{
				"x": 1.0687547424,
				"y": 0.4496723831,
				"z": -0.9256759855,
				"element": "O" 
			},
			{
				"x": 0.2579161313,
				"y": -0.2622128713,
				"z": -0.0818251587,
				"element": "C" 
			},
			{
				"x": 0.2836621119,
				"y": -1.6669377783,
				"z": -0.2962669615,
				"element": "C" 
			},
			{
				"x": 1.0361894616,
				"y": -2.1681631422,
				"z": -1.341283893,
				"element": "N" 
			},
			{
				"x": -0.4842466438,
				"y": -2.4860604417,
				"z": 0.5414568262,
				"element": "C" 
			},
			{
				"x": -1.2709219071,
				"y": -1.943830722,
				"z": 1.556681711,
				"element": "C" 
			},
			{
				"x": -1.293718681,
				"y": -0.5631556518,
				"z": 1.7365889279,
				"element": "C" 
			},
			{
				"x": -0.5256283438,
				"y": 0.2855507578,
				"z": 0.9239776891,
				"element": "C" 
			},
			{
				"x": -2.3305281156,
				"y": 0.1562518073,
				"z": 3.0017517742,
				"element": "S" 
			},
			{
				"x": -3.8550403576,
				"y": 0.4093412616,
				"z": 2.3187921143,
				"element": "N" 
			},
			{
				"x": -1.8130525114,
				"y": 1.4955259456,
				"z": 3.2883726436,
				"element": "O" 
			},
			{
				"x": -2.5389043358,
				"y": -0.854168718,
				"z": 4.0386731376,
				"element": "O" 
			},
			{
				"x": 0.1752541802,
				"y": 2.3363670398,
				"z": -0.9005012195,
				"element": "H" 
			},
			{
				"x": 1.8525422756,
				"y": 2.2184400984,
				"z": -1.4966698126,
				"element": "H" 
			},
			{
				"x": 1.5208214895,
				"y": 2.1119943814,
				"z": 0.2550069905,
				"element": "H" 
			},
			{
				"x": 1.3190031523,
				"y": -3.1342020529,
				"z": -1.2712233308,
				"element": "H" 
			},
			{
				"x": 1.7480295179,
				"y": -1.545838804,
				"z": -1.695606207,
				"element": "H" 
			},
			{
				"x": -0.4555052912,
				"y": -3.5623989562,
				"z": 0.3944804022,
				"element": "H" 
			},
			{
				"x": -1.8406268316,
				"y": -2.587471973,
				"z": 2.217828632,
				"element": "H" 
			},
			{
				"x": -0.5323594414,
				"y": 1.3501752891,
				"z": 1.1213909264,
				"element": "H" 
			},
			{
				"x": -4.2996370754,
				"y": -0.4635953704,
				"z": 2.0502853361,
				"element": "H" 
			},
			{
				"x": -3.8224998993,
				"y": 1.0747438956,
				"z": 1.5520754444,
				"element": "H" 
			}
		],
		 "valence_orbital": [ 
			{
				"type": "occ",
				"energy": -0.2953,
				"method": "rhf"
			},
			{
				"type": "occ",
				"energy": -0.29318,
				"method": "rhf"
			},
			{
				"type": "occ",
				"energy": -0.2921,
				"method": "rhf"
			},
			{
				"type": "occ",
				"energy": -0.25002,
				"method": "rhf"
			},
			{
				"type": "occ",
				"energy": -0.20998,
				"method": "rhf"
			},
			{
				"type": "unocc",
				"energy": -0.01978,
				"method": "rhf"
			},
			{
				"type": "unocc",
				"energy": -0.00503,
				"method": "rhf"
			},
			{
				"type": "unocc",
				"energy": 0.05903,
				"method": "rhf"
			},
			{
				"type": "unocc",
				"energy": 0.07271,
				"method": "rhf"
			},
			{
				"type": "unocc",
				"energy": 0.08448,
				"method": "rhf"
			}
		],
		"cosmo_sigma_profile": { 
			"-0.025": 0.0,
			"-0.024": 0.0,
			"-0.023": 0.0,
			"-0.022": 0.0,
			"-0.021": 0.0,
			"-0.02": 0.0,
			"-0.019": 0.0,
			"-0.018": 0.0,
			"-0.017": 0.0,
			"-0.016": 0.0,
			"-0.015": 0.977709248591,
			"-0.014": 3.03844225926,
			"-0.013": 3.75436486844,
			"-0.012": 3.79304521338,
			"-0.011": 5.79025535904,
			"-0.01": 4.68192236385,
			"-0.009": 4.27912419516,
			"-0.008": 3.98894034066,
			"-0.007": 6.17992849931,
			"-0.006": 13.1491467149,
			"-0.005": 16.5340597932,
			"-0.004": 14.4819655472,
			"-0.003": 11.9348745109,
			"-0.002": 9.31979445063,
			"-0.001": 8.33582235484,
			"0.0": 8.0223536046,
			"0.001": 8.60314725018,
			"0.002": 11.1928407778,
			"0.003": 13.0445174535,
			"0.004": 13.9157219207,
			"0.005": 8.21857170232,
			"0.006": 5.47794710105,
			"0.007": 5.73034627983,
			"0.008": 6.07138750103,
			"0.009": 5.75454462409,
			"0.01": 5.37907131208,
			"0.011": 10.8460915514,
			"0.012": 10.0233709577,
			"0.013": 1.56942691499,
			"0.014": 0.0134416794256,
			"0.015": 0.0,
			"0.016": 0.0,
			"0.017": 0.0,
			"0.018": 0.0,
			"0.019": 0.0,
			"0.02": 0.0,
			"0.021": 0.0,
			"0.022": 0.0,
			"0.023": 0.0,
			"0.024": 0.0,
			"0.025": 0.0
		}
	}
}
