{
	 "smiles": "NC(=O)C1=CC=C(C=C1)C(N)=S", 
	 "Tm": 514.15, 
	 "num_atms": 20, 
	 "gaussian": { 
		 "optdone": 1, 
		 "sigma_profile": "yes", 
		 "theory": "DFT", 
		 "functional": "B3LYP", 
		 "basiset": "6-31G**", 
		 "properties": { 
			 "R2extent": 4810.9362, 
			 "electric_dipole_moment_norm": 5.74187657565, 
			 "electric_quadrupole_moment_norm": 20.5379343085, 
			 "total_energy": -892.614734016, 
			 "HOMO_LUMO_gap": 0.13853, 
			 "cosmo_polarized_energy": -23.89, 
			 "cosmo_cavitation_energy": 26.42, 
			 "cosmo_dispersion_energy": -19.92, 
			 "cosmo_repulsion_energy": 1.56, 
			 "cosmo_total_nonelectrostatic_energy": 8.05, 
			 "SMD_solvation_energy": 4.44 
		},
		"coords": [
			{
				"x": -0.984989758,
				"y": -2.5961011558,
				"z": -0.0376656522,
				"element": "N" 
			},
			{
				"x": -1.4489419412,
				"y": -2.0017442967,
				"z": 1.1124429187,
				"element": "C" 
			},
			{
				"x": -1.902774419,
				"y": -2.6552512003,
				"z": 2.0426491131,
				"element": "O" 
			},
			{
				"x": -1.3953506193,
				"y": -0.4994285576,
				"z": 1.1521076179,
				"element": "C" 
			},
			{
				"x": -1.3024890964,
				"y": 0.2989578418,
				"z": 0.0050613067,
				"element": "C" 
			},
			{
				"x": -1.2765804031,
				"y": 1.6876213782,
				"z": 0.1136883842,
				"element": "C" 
			},
			{
				"x": -1.3268149638,
				"y": 2.3082828765,
				"z": 1.3737075033,
				"element": "C" 
			},
			{
				"x": -1.4122462035,
				"y": 1.5024043892,
				"z": 2.5209201212,
				"element": "C" 
			},
			{
				"x": -1.463951723,
				"y": 0.1191911986,
				"z": 2.4083264986,
				"element": "C" 
			},
			{
				"x": -1.2879581015,
				"y": 3.7934458526,
				"z": 1.4980481788,
				"element": "C" 
			},
			{
				"x": -1.8671477633,
				"y": 4.4669557202,
				"z": 0.4767579711,
				"element": "N" 
			},
			{
				"x": -0.5548580736,
				"y": 4.5859334508,
				"z": 2.7681319359,
				"element": "S" 
			},
			{
				"x": -0.3201525719,
				"y": -2.1169815148,
				"z": -0.6250010472,
				"element": "H" 
			},
			{
				"x": -0.9156202785,
				"y": -3.6032962721,
				"z": -0.0017532154,
				"element": "H" 
			},
			{
				"x": -1.2782819175,
				"y": -0.1548120553,
				"z": -0.9812076886,
				"element": "H" 
			},
			{
				"x": -1.1785785074,
				"y": 2.2888226785,
				"z": -0.7853055243,
				"element": "H" 
			},
			{
				"x": -1.4425437826,
				"y": 1.9819508691,
				"z": 3.4929787398,
				"element": "H" 
			},
			{
				"x": -1.5570431671,
				"y": -0.5105833625,
				"z": 3.2863888643,
				"element": "H" 
			},
			{
				"x": -2.4895624633,
				"y": 4.0029418922,
				"z": -0.1684920674,
				"element": "H" 
			},
			{
				"x": -1.891414246,
				"y": 5.4751902674,
				"z": 0.5273160415,
				"element": "H" 
			}
		],
		 "valence_orbital": [ 
			{
				"type": "occ",
				"energy": -0.27379,
				"method": "rhf"
			},
			{
				"type": "occ",
				"energy": -0.27171,
				"method": "rhf"
			},
			{
				"type": "occ",
				"energy": -0.25701,
				"method": "rhf"
			},
			{
				"type": "occ",
				"energy": -0.23558,
				"method": "rhf"
			},
			{
				"type": "occ",
				"energy": -0.2127,
				"method": "rhf"
			},
			{
				"type": "unocc",
				"energy": -0.07417,
				"method": "rhf"
			},
			{
				"type": "unocc",
				"energy": -0.0243,
				"method": "rhf"
			},
			{
				"type": "unocc",
				"energy": -0.01069,
				"method": "rhf"
			},
			{
				"type": "unocc",
				"energy": 0.05298,
				"method": "rhf"
			},
			{
				"type": "unocc",
				"energy": 0.06531,
				"method": "rhf"
			}
		],
		"cosmo_sigma_profile": { 
			"-0.025": 0.0,
			"-0.024": 0.0,
			"-0.023": 0.0,
			"-0.022": 0.0,
			"-0.021": 0.0,
			"-0.02": 0.0,
			"-0.019": 0.0,
			"-0.018": 0.0,
			"-0.017": 0.0,
			"-0.016": 0.274523069468,
			"-0.015": 2.2956895432,
			"-0.014": 4.31536846106,
			"-0.013": 4.88482108896,
			"-0.012": 5.54090002679,
			"-0.011": 4.45485485425,
			"-0.01": 5.2702373096,
			"-0.009": 4.03274128576,
			"-0.008": 5.47272873236,
			"-0.007": 6.11330164051,
			"-0.006": 7.43901041461,
			"-0.005": 8.81200043853,
			"-0.004": 8.15853933872,
			"-0.003": 6.69041380485,
			"-0.002": 9.70584048172,
			"-0.001": 11.9432790282,
			"0.0": 11.115306553,
			"0.001": 11.7222791623,
			"0.002": 15.9527647913,
			"0.003": 15.1594581434,
			"0.004": 7.3274716378,
			"0.005": 6.72876583532,
			"0.006": 5.68556775412,
			"0.007": 7.16324483095,
			"0.008": 8.73395741018,
			"0.009": 7.04544448315,
			"0.01": 5.16531856421,
			"0.011": 5.1672944587,
			"0.012": 3.39556982964,
			"0.013": 4.95346596297,
			"0.014": 2.69095902876,
			"0.015": 0.0664005977311,
			"0.016": 0.0,
			"0.017": 0.0,
			"0.018": 0.0,
			"0.019": 0.0,
			"0.02": 0.0,
			"0.021": 0.0,
			"0.022": 0.0,
			"0.023": 0.0,
			"0.024": 0.0,
			"0.025": 0.0
		}
	}
}
