{
	 "smiles": "COC1=CC=C(Br)C=C1C", 
	 "Tm": 341.15, 
	 "num_atms": 19, 
	 "gaussian": { 
		 "optdone": 1, 
		 "sigma_profile": "yes", 
		 "theory": "DFT", 
		 "functional": "B3LYP", 
		 "basiset": "6-31G**", 
		 "properties": { 
			 "R2extent": 3192.3498, 
			 "electric_dipole_moment_norm": 3.04635447215, 
			 "electric_quadrupole_moment_norm": 7.18638734483, 
			 "total_energy": -2956.89920693, 
			 "HOMO_LUMO_gap": 0.20775, 
			 "cosmo_polarized_energy": -5.58, 
			 "cosmo_cavitation_energy": 24.7, 
			 "cosmo_dispersion_energy": -18.64, 
			 "cosmo_repulsion_energy": 1.52, 
			 "cosmo_total_nonelectrostatic_energy": 7.57, 
			 "SMD_solvation_energy": 3.92 
		},
		"coords": [
			{
				"x": 2.43941696,
				"y": 1.9237098542,
				"z": -0.5972082634,
				"element": "C" 
			},
			{
				"x": 1.66452417,
				"y": 1.3971315524,
				"z": 0.4680792714,
				"element": "O" 
			},
			{
				"x": 0.7897272937,
				"y": 0.3828021904,
				"z": 0.1973589721,
				"element": "C" 
			},
			{
				"x": 0.6034239503,
				"y": -0.1776786854,
				"z": -1.0691072625,
				"element": "C" 
			},
			{
				"x": -0.3167928431,
				"y": -1.214997386,
				"z": -1.2503190514,
				"element": "C" 
			},
			{
				"x": -1.0396848787,
				"y": -1.6786180636,
				"z": -0.1601551704,
				"element": "C" 
			},
			{
				"x": -2.303202604,
				"y": -3.0980408789,
				"z": -0.3915724665,
				"element": "Br" 
			},
			{
				"x": -0.8575562842,
				"y": -1.1222467501,
				"z": 1.1076941364,
				"element": "C" 
			},
			{
				"x": 0.0549984092,
				"y": -0.0877586195,
				"z": 1.3078565632,
				"element": "C" 
			},
			{
				"x": 0.2677018793,
				"y": 0.5273105032,
				"z": 2.6669442511,
				"element": "C" 
			},
			{
				"x": 1.8065100709,
				"y": 2.3564044698,
				"z": -1.3826833884,
				"element": "H" 
			},
			{
				"x": 3.0571588251,
				"y": 2.7099151252,
				"z": -0.1606424037,
				"element": "H" 
			},
			{
				"x": 3.089419349,
				"y": 1.158909591,
				"z": -1.0414394326,
				"element": "H" 
			},
			{
				"x": 1.1646532752,
				"y": 0.1798262223,
				"z": -1.9240368119,
				"element": "H" 
			},
			{
				"x": -0.4614409621,
				"y": -1.6498865738,
				"z": -2.2326008731,
				"element": "H" 
			},
			{
				"x": -1.4315337583,
				"y": -1.4975193646,
				"z": 1.9483045793,
				"element": "H" 
			},
			{
				"x": 0.0506386317,
				"y": 1.6009220138,
				"z": 2.6530742698,
				"element": "H" 
			},
			{
				"x": 1.3099448338,
				"y": 0.4249328774,
				"z": 2.9882037055,
				"element": "H" 
			},
			{
				"x": -0.3733063178,
				"y": 0.053981922,
				"z": 3.414749375,
				"element": "H" 
			}
		],
		 "valence_orbital": [ 
			{
				"type": "occ",
				"energy": -0.33152,
				"method": "rhf"
			},
			{
				"type": "occ",
				"energy": -0.28547,
				"method": "rhf"
			},
			{
				"type": "occ",
				"energy": -0.27946,
				"method": "rhf"
			},
			{
				"type": "occ",
				"energy": -0.2524,
				"method": "rhf"
			},
			{
				"type": "occ",
				"energy": -0.21474,
				"method": "rhf"
			},
			{
				"type": "unocc",
				"energy": -0.00699,
				"method": "rhf"
			},
			{
				"type": "unocc",
				"energy": 0.00365,
				"method": "rhf"
			},
			{
				"type": "unocc",
				"energy": 0.01469,
				"method": "rhf"
			},
			{
				"type": "unocc",
				"energy": 0.09573,
				"method": "rhf"
			},
			{
				"type": "unocc",
				"energy": 0.10322,
				"method": "rhf"
			}
		],
		"cosmo_sigma_profile": { 
			"-0.025": 0.0,
			"-0.024": 0.0,
			"-0.023": 0.0,
			"-0.022": 0.0,
			"-0.021": 0.0,
			"-0.02": 0.0,
			"-0.019": 0.0,
			"-0.018": 0.0,
			"-0.017": 0.0,
			"-0.016": 0.0,
			"-0.015": 0.0,
			"-0.014": 0.0,
			"-0.013": 0.0,
			"-0.012": 0.0,
			"-0.011": 0.0,
			"-0.01": 0.0,
			"-0.009": 0.0,
			"-0.008": 0.0,
			"-0.007": 2.18773311138,
			"-0.006": 10.5490626971,
			"-0.005": 15.2919873694,
			"-0.004": 17.4263629131,
			"-0.003": 17.1221766982,
			"-0.002": 15.2090293488,
			"-0.001": 13.3473311034,
			"0.0": 16.1001297487,
			"0.001": 13.2788570974,
			"0.002": 14.5886265417,
			"0.003": 19.6736895995,
			"0.004": 21.2350209056,
			"0.005": 15.7055812701,
			"0.006": 3.82707274396,
			"0.007": 1.40143743206,
			"0.008": 1.80788633865,
			"0.009": 0.728673506014,
			"0.01": 0.0,
			"0.011": 0.0,
			"0.012": 0.0,
			"0.013": 0.0,
			"0.014": 0.0,
			"0.015": 0.0,
			"0.016": 0.0,
			"0.017": 0.0,
			"0.018": 0.0,
			"0.019": 0.0,
			"0.02": 0.0,
			"0.021": 0.0,
			"0.022": 0.0,
			"0.023": 0.0,
			"0.024": 0.0,
			"0.025": 0.0
		}
	}
}
