{
	 "smiles": "O=C(NC1CCCCCC1)C1=CC=CO1", 
	 "Tm": 373.15, 
	 "num_atms": 32, 
	 "gaussian": { 
		 "optdone": 1, 
		 "sigma_profile": "yes", 
		 "theory": "DFT", 
		 "functional": "B3LYP", 
		 "basiset": "6-31G**", 
		 "properties": { 
			 "R2extent": 3968.9741, 
			 "electric_dipole_moment_norm": 3.77439368641, 
			 "electric_quadrupole_moment_norm": 18.3133222497, 
			 "total_energy": -672.712983629, 
			 "HOMO_LUMO_gap": 0.20554, 
			 "cosmo_polarized_energy": -11.06, 
			 "cosmo_cavitation_energy": 32.82, 
			 "cosmo_dispersion_energy": -23.34, 
			 "cosmo_repulsion_energy": 1.82, 
			 "cosmo_total_nonelectrostatic_energy": 11.29, 
			 "SMD_solvation_energy": 5.84 
		},
		"coords": [
			{
				"x": 2.7543037485,
				"y": -1.2110448273,
				"z": 2.936166302,
				"element": "O" 
			},
			{
				"x": 2.0400344205,
				"y": -0.6491874517,
				"z": 2.10393498,
				"element": "C" 
			},
			{
				"x": 1.3202355554,
				"y": -1.3765547474,
				"z": 1.1948636421,
				"element": "N" 
			},
			{
				"x": 0.4268375628,
				"y": -0.9857138937,
				"z": 0.098597166,
				"element": "C" 
			},
			{
				"x": 1.2203029349,
				"y": -0.7457724371,
				"z": -1.2063052805,
				"element": "C" 
			},
			{
				"x": 0.415990585,
				"y": -0.130600962,
				"z": -2.3902771985,
				"element": "C" 
			},
			{
				"x": -0.9530539936,
				"y": 0.4648568735,
				"z": -2.014264998,
				"element": "C" 
			},
			{
				"x": -2.0485626811,
				"y": -0.5884118358,
				"z": -1.6807630242,
				"element": "C" 
			},
			{
				"x": -1.5310801294,
				"y": -1.9829142037,
				"z": -1.2872933983,
				"element": "C" 
			},
			{
				"x": -0.6781468528,
				"y": -2.0545365775,
				"z": -0.0107189955,
				"element": "C" 
			},
			{
				"x": 1.9772022805,
				"y": 0.8303436463,
				"z": 2.1322469644,
				"element": "C" 
			},
			{
				"x": 2.5748760983,
				"y": 1.6658639956,
				"z": 3.0362619646,
				"element": "C" 
			},
			{
				"x": 2.2500489429,
				"y": 2.9982873911,
				"z": 2.643023733,
				"element": "C" 
			},
			{
				"x": 1.4800214436,
				"y": 2.8848905831,
				"z": 1.523388426,
				"element": "C" 
			},
			{
				"x": 1.3018546905,
				"y": 1.5767224568,
				"z": 1.194972415,
				"element": "O" 
			},
			{
				"x": 1.5217748138,
				"y": -2.3650273343,
				"z": 1.2879846011,
				"element": "H" 
			},
			{
				"x": -0.0400192596,
				"y": -0.0462249467,
				"z": 0.3902942335,
				"element": "H" 
			},
			{
				"x": 2.0436797462,
				"y": -0.0736585506,
				"z": -0.9454155282,
				"element": "H" 
			},
			{
				"x": 1.6867695225,
				"y": -1.6901266682,
				"z": -1.5149327576,
				"element": "H" 
			},
			{
				"x": 0.2733661063,
				"y": -0.8788840534,
				"z": -3.1784063737,
				"element": "H" 
			},
			{
				"x": 1.0229073153,
				"y": 0.6597671669,
				"z": -2.8460041004,
				"element": "H" 
			},
			{
				"x": -0.822528808,
				"y": 1.1569715898,
				"z": -1.1744322547,
				"element": "H" 
			},
			{
				"x": -1.3043707517,
				"y": 1.0846765182,
				"z": -2.8473872042,
				"element": "H" 
			},
			{
				"x": -2.701430209,
				"y": -0.2005813679,
				"z": -0.8883326171,
				"element": "H" 
			},
			{
				"x": -2.6927138483,
				"y": -0.7195979265,
				"z": -2.5587820955,
				"element": "H" 
			},
			{
				"x": -2.3900562662,
				"y": -2.6536187801,
				"z": -1.1637261198,
				"element": "H" 
			},
			{
				"x": -0.9569644442,
				"y": -2.3961690873,
				"z": -2.1248134837,
				"element": "H" 
			},
			{
				"x": -0.2154582516,
				"y": -3.0512565381,
				"z": 0.0348241433,
				"element": "H" 
			},
			{
				"x": -1.3157922611,
				"y": -1.97380513,
				"z": 0.8782008289,
				"element": "H" 
			},
			{
				"x": 3.1727527616,
				"y": 1.3400933177,
				"z": 3.8734280899,
				"element": "H" 
			},
			{
				"x": 2.5495782422,
				"y": 3.9176783813,
				"z": 3.1249385515,
				"element": "H" 
			},
			{
				"x": 1.0045409856,
				"y": 3.601435399,
				"z": 0.8712293885,
				"element": "H" 
			}
		],
		 "valence_orbital": [ 
			{
				"type": "occ",
				"energy": -0.3077,
				"method": "rhf"
			},
			{
				"type": "occ",
				"energy": -0.28536,
				"method": "rhf"
			},
			{
				"type": "occ",
				"energy": -0.24588,
				"method": "rhf"
			},
			{
				"type": "occ",
				"energy": -0.23905,
				"method": "rhf"
			},
			{
				"type": "occ",
				"energy": -0.23273,
				"method": "rhf"
			},
			{
				"type": "unocc",
				"energy": -0.02719,
				"method": "rhf"
			},
			{
				"type": "unocc",
				"energy": 0.04715,
				"method": "rhf"
			},
			{
				"type": "unocc",
				"energy": 0.06937,
				"method": "rhf"
			},
			{
				"type": "unocc",
				"energy": 0.08933,
				"method": "rhf"
			},
			{
				"type": "unocc",
				"energy": 0.10058,
				"method": "rhf"
			}
		],
		"cosmo_sigma_profile": { 
			"-0.025": 0.0,
			"-0.024": 0.0,
			"-0.023": 0.0,
			"-0.022": 0.0,
			"-0.021": 0.0,
			"-0.02": 0.0,
			"-0.019": 0.0,
			"-0.018": 0.0,
			"-0.017": 0.0,
			"-0.016": 0.0,
			"-0.015": 0.0,
			"-0.014": 0.0,
			"-0.013": 0.0822630912156,
			"-0.012": 0.841931494223,
			"-0.011": 0.958475180676,
			"-0.01": 1.3366629465,
			"-0.009": 3.00191074979,
			"-0.008": 3.49694392024,
			"-0.007": 5.82037859155,
			"-0.006": 5.84853739014,
			"-0.005": 5.91271901929,
			"-0.004": 6.87675707651,
			"-0.003": 16.3499768846,
			"-0.002": 37.3574339871,
			"-0.001": 38.9635992255,
			"0.0": 35.9555121678,
			"0.001": 32.487125826,
			"0.002": 17.6560849467,
			"0.003": 11.6516974408,
			"0.004": 9.08995222762,
			"0.005": 2.29062098206,
			"0.006": 1.55320588949,
			"0.007": 1.5262364359,
			"0.008": 1.15434354098,
			"0.009": 1.71593609366,
			"0.01": 1.00658451959,
			"0.011": 1.59964312384,
			"0.012": 1.53178674472,
			"0.013": 2.59042786996,
			"0.014": 5.93801199755,
			"0.015": 1.98732599695,
			"0.016": 0.0,
			"0.017": 0.0,
			"0.018": 0.0,
			"0.019": 0.0,
			"0.02": 0.0,
			"0.021": 0.0,
			"0.022": 0.0,
			"0.023": 0.0,
			"0.024": 0.0,
			"0.025": 0.0
		}
	}
}
