{
	 "smiles": "N1C2=CC=CC=C2N=C1C1=CC=CC=C1", 
	 "Tm": 567.15, 
	 "num_atms": 25, 
	 "gaussian": { 
		 "optdone": 1, 
		 "sigma_profile": "yes", 
		 "theory": "DFT", 
		 "functional": "B3LYP", 
		 "basiset": "6-31G**", 
		 "properties": { 
			 "R2extent": 4322.3205, 
			 "electric_dipole_moment_norm": 3.06963482682, 
			 "electric_quadrupole_moment_norm": 11.8685902364, 
			 "total_energy": -610.935258946, 
			 "HOMO_LUMO_gap": 0.1659, 
			 "cosmo_polarized_energy": -13.12, 
			 "cosmo_cavitation_energy": 29.04, 
			 "cosmo_dispersion_energy": -21.93, 
			 "cosmo_repulsion_energy": 1.67, 
			 "cosmo_total_nonelectrostatic_energy": 8.78, 
			 "SMD_solvation_energy": 2.77 
		},
		"coords": [
			{
				"x": -1.4839535917,
				"y": 0.0004080898,
				"z": 0.7851612277,
				"element": "N" 
			},
			{
				"x": -2.0056623454,
				"y": 0.0727549068,
				"z": 2.0630455946,
				"element": "C" 
			},
			{
				"x": -3.2883815459,
				"y": -0.1204572943,
				"z": 2.5789379381,
				"element": "C" 
			},
			{
				"x": -3.4402537629,
				"y": 0.0422513899,
				"z": 3.9540524057,
				"element": "C" 
			},
			{
				"x": -2.3505693121,
				"y": 0.385078979,
				"z": 4.7808959377,
				"element": "C" 
			},
			{
				"x": -1.0756451607,
				"y": 0.5759340723,
				"z": 4.2592151116,
				"element": "C" 
			},
			{
				"x": -0.8977529714,
				"y": 0.4177139658,
				"z": 2.8774821496,
				"element": "C" 
			},
			{
				"x": 0.2432595161,
				"y": 0.5458516617,
				"z": 2.1085570175,
				"element": "N" 
			},
			{
				"x": -0.1330229398,
				"y": 0.2928874472,
				"z": 0.8703870978,
				"element": "C" 
			},
			{
				"x": 0.7619658771,
				"y": 0.3145716494,
				"z": -0.2915478289,
				"element": "C" 
			},
			{
				"x": 2.1172533101,
				"y": 0.629370652,
				"z": -0.091910209,
				"element": "C" 
			},
			{
				"x": 2.9994864734,
				"y": 0.6608316417,
				"z": -1.1673454123,
				"element": "C" 
			},
			{
				"x": 2.5484275296,
				"y": 0.3795649337,
				"z": -2.4601929155,
				"element": "C" 
			},
			{
				"x": 1.2043930278,
				"y": 0.0657580001,
				"z": -2.6684169061,
				"element": "C" 
			},
			{
				"x": 0.3173188221,
				"y": 0.0331410057,
				"z": -1.5936422553,
				"element": "C" 
			},
			{
				"x": -1.9965913569,
				"y": -0.2233974192,
				"z": -0.0520240076,
				"element": "H" 
			},
			{
				"x": -4.1301075074,
				"y": -0.384537382,
				"z": 1.9456052332,
				"element": "H" 
			},
			{
				"x": -4.4208340985,
				"y": -0.0983236733,
				"z": 4.3991304545,
				"element": "H" 
			},
			{
				"x": -2.5151746539,
				"y": 0.5016167765,
				"z": 5.8480233984,
				"element": "H" 
			},
			{
				"x": -0.2339085569,
				"y": 0.8398209623,
				"z": 4.8911492015,
				"element": "H" 
			},
			{
				"x": 2.4517124553,
				"y": 0.845104657,
				"z": 0.9166838667,
				"element": "H" 
			},
			{
				"x": 4.0438746682,
				"y": 0.9058394723,
				"z": -0.997038893,
				"element": "H" 
			},
			{
				"x": 3.2384766594,
				"y": 0.4046209422,
				"z": -3.2984126511,
				"element": "H" 
			},
			{
				"x": 0.8439448189,
				"y": -0.1545334892,
				"z": -3.6689814216,
				"element": "H" 
			},
			{
				"x": -0.7234553544,
				"y": -0.2147719474,
				"z": -1.7848141341,
				"element": "H" 
			}
		],
		 "valence_orbital": [ 
			{
				"type": "occ",
				"energy": -0.26888,
				"method": "rhf"
			},
			{
				"type": "occ",
				"energy": -0.26849,
				"method": "rhf"
			},
			{
				"type": "occ",
				"energy": -0.25721,
				"method": "rhf"
			},
			{
				"type": "occ",
				"energy": -0.22467,
				"method": "rhf"
			},
			{
				"type": "occ",
				"energy": -0.20962,
				"method": "rhf"
			},
			{
				"type": "unocc",
				"energy": -0.04372,
				"method": "rhf"
			},
			{
				"type": "unocc",
				"energy": -0.00666,
				"method": "rhf"
			},
			{
				"type": "unocc",
				"energy": 0.01293,
				"method": "rhf"
			},
			{
				"type": "unocc",
				"energy": 0.02763,
				"method": "rhf"
			},
			{
				"type": "unocc",
				"energy": 0.05942,
				"method": "rhf"
			}
		],
		"cosmo_sigma_profile": { 
			"-0.025": 0.0,
			"-0.024": 0.0,
			"-0.023": 0.0,
			"-0.022": 0.0,
			"-0.021": 0.0,
			"-0.02": 0.0,
			"-0.019": 0.0,
			"-0.018": 0.0,
			"-0.017": 0.43338456199,
			"-0.016": 1.4708658483,
			"-0.015": 0.785779939154,
			"-0.014": 1.41272809155,
			"-0.013": 1.54572477017,
			"-0.012": 1.4448135719,
			"-0.011": 1.35196773278,
			"-0.01": 1.4114619415,
			"-0.009": 1.49426295319,
			"-0.008": 1.84972393683,
			"-0.007": 2.53546257641,
			"-0.006": 11.211293802,
			"-0.005": 16.7869834268,
			"-0.004": 18.2983303489,
			"-0.003": 17.0630587505,
			"-0.002": 12.5976025936,
			"-0.001": 11.080372582,
			"0.0": 13.8993917065,
			"0.001": 17.5797912459,
			"0.002": 15.963005837,
			"0.003": 19.2782268751,
			"0.004": 21.2711863548,
			"0.005": 20.6332905686,
			"0.006": 9.4943782796,
			"0.007": 3.34585163433,
			"0.008": 1.39416098528,
			"0.009": 1.45509814251,
			"0.01": 1.38722973502,
			"0.011": 1.50315799651,
			"0.012": 0.912414904308,
			"0.013": 0.91332267311,
			"0.014": 1.2553114142,
			"0.015": 0.713840952205,
			"0.016": 0.187821043199,
			"0.017": 0.0,
			"0.018": 0.0,
			"0.019": 0.0,
			"0.02": 0.0,
			"0.021": 0.0,
			"0.022": 0.0,
			"0.023": 0.0,
			"0.024": 0.0,
			"0.025": 0.0
		}
	}
}
