{
	 "smiles": "CC1=CC=C(O1)C(O)=O", 
	 "Tm": 383.15, 
	 "num_atms": 15, 
	 "gaussian": { 
		 "optdone": 1, 
		 "sigma_profile": "yes", 
		 "theory": "DFT", 
		 "functional": "B3LYP", 
		 "basiset": "6-31G**", 
		 "properties": { 
			 "R2extent": 1682.3037, 
			 "electric_dipole_moment_norm": 5.71475290279, 
			 "electric_quadrupole_moment_norm": 18.6123617805, 
			 "total_energy": -457.918951113, 
			 "HOMO_LUMO_gap": 0.19661, 
			 "cosmo_polarized_energy": -12.36, 
			 "cosmo_cavitation_energy": 19.92, 
			 "cosmo_dispersion_energy": -14.8, 
			 "cosmo_repulsion_energy": 1.24, 
			 "cosmo_total_nonelectrostatic_energy": 6.35, 
			 "SMD_solvation_energy": 5.46 
		},
		"coords": [
			{
				"x": -1.8149110757,
				"y": 1.0219786707,
				"z": -0.4122603408,
				"element": "C" 
			},
			{
				"x": -0.605721284,
				"y": 0.4548675086,
				"z": 0.2425486502,
				"element": "C" 
			},
			{
				"x": -0.3988796567,
				"y": -0.5977823643,
				"z": 1.0929983733,
				"element": "C" 
			},
			{
				"x": 0.9990296996,
				"y": -0.6382393076,
				"z": 1.3745302809,
				"element": "C" 
			},
			{
				"x": 1.5617423323,
				"y": 0.3929544075,
				"z": 0.6785435564,
				"element": "C" 
			},
			{
				"x": 0.5859253069,
				"y": 1.070550636,
				"z": -0.0198120169,
				"element": "O" 
			},
			{
				"x": 2.9501964013,
				"y": 0.8606007211,
				"z": 0.5658979967,
				"element": "C" 
			},
			{
				"x": 3.1384633817,
				"y": 1.94038382,
				"z": -0.2349666825,
				"element": "O" 
			},
			{
				"x": 3.8715269573,
				"y": 0.3285274674,
				"z": 1.1414701232,
				"element": "O" 
			},
			{
				"x": -1.7267850192,
				"y": 0.9951886175,
				"z": -1.5042308656,
				"element": "H" 
			},
			{
				"x": -1.9749697259,
				"y": 2.0656247195,
				"z": -0.1188888363,
				"element": "H" 
			},
			{
				"x": -2.6964454563,
				"y": 0.445363871,
				"z": -0.1246536473,
				"element": "H" 
			},
			{
				"x": -1.1617728194,
				"y": -1.2633899474,
				"z": 1.4706893559,
				"element": "H" 
			},
			{
				"x": 1.5344618548,
				"y": -1.3313446726,
				"z": 2.0059917858,
				"element": "H" 
			},
			{
				"x": 2.2870391034,
				"y": 2.2219158526,
				"z": -0.6047577331,
				"element": "H" 
			}
		],
		 "valence_orbital": [ 
			{
				"type": "occ",
				"energy": -0.37858,
				"method": "rhf"
			},
			{
				"type": "occ",
				"energy": -0.31352,
				"method": "rhf"
			},
			{
				"type": "occ",
				"energy": -0.29764,
				"method": "rhf"
			},
			{
				"type": "occ",
				"energy": -0.27269,
				"method": "rhf"
			},
			{
				"type": "occ",
				"energy": -0.24169,
				"method": "rhf"
			},
			{
				"type": "unocc",
				"energy": -0.04508,
				"method": "rhf"
			},
			{
				"type": "unocc",
				"energy": 0.03495,
				"method": "rhf"
			},
			{
				"type": "unocc",
				"energy": 0.07787,
				"method": "rhf"
			},
			{
				"type": "unocc",
				"energy": 0.09817,
				"method": "rhf"
			},
			{
				"type": "unocc",
				"energy": 0.10943,
				"method": "rhf"
			}
		],
		"cosmo_sigma_profile": { 
			"-0.025": 0.0,
			"-0.024": 0.0,
			"-0.023": 0.0,
			"-0.022": 0.0,
			"-0.021": 0.0,
			"-0.02": 0.0,
			"-0.019": 0.0,
			"-0.018": 0.0,
			"-0.017": 0.0364354379085,
			"-0.016": 0.464340325282,
			"-0.015": 0.905393106198,
			"-0.014": 0.978978865949,
			"-0.013": 0.420846342136,
			"-0.012": 0.333541298596,
			"-0.011": 0.82131171302,
			"-0.01": 0.991758849097,
			"-0.009": 1.37147990055,
			"-0.008": 3.08783828942,
			"-0.007": 4.72233882549,
			"-0.006": 10.0213108745,
			"-0.005": 10.2724474566,
			"-0.004": 12.0891299459,
			"-0.003": 12.3370796377,
			"-0.002": 13.5104060035,
			"-0.001": 12.2744959024,
			"0.0": 10.1934804689,
			"0.001": 11.0570106588,
			"0.002": 11.0035075679,
			"0.003": 7.82116227245,
			"0.004": 3.73141167738,
			"0.005": 2.07686352442,
			"0.006": 2.25975744989,
			"0.007": 2.25809022322,
			"0.008": 3.05068225333,
			"0.009": 3.38364976551,
			"0.01": 4.45845009718,
			"0.011": 4.86362595917,
			"0.012": 5.84326612953,
			"0.013": 2.38613905197,
			"0.014": 0.208853232034,
			"0.015": 0.0,
			"0.016": 0.0,
			"0.017": 0.0,
			"0.018": 0.0,
			"0.019": 0.0,
			"0.02": 0.0,
			"0.021": 0.0,
			"0.022": 0.0,
			"0.023": 0.0,
			"0.024": 0.0,
			"0.025": 0.0
		}
	}
}
