{
	 "smiles": "CCC(CCCC1=CC=CC=C1)=N/NC(N)=O", 
	 "Tm": 422.15, 
	 "num_atms": 36, 
	 "gaussian": { 
		 "optdone": 1, 
		 "sigma_profile": "yes", 
		 "theory": "DFT", 
		 "functional": "B3LYP", 
		 "basiset": "6-31G**", 
		 "properties": { 
			 "R2extent": 7451.5683, 
			 "electric_dipole_moment_norm": 4.97734192215, 
			 "electric_quadrupole_moment_norm": 25.9537679796, 
			 "total_energy": -746.312369899, 
			 "HOMO_LUMO_gap": 0.2198, 
			 "cosmo_polarized_energy": -22.95, 
			 "cosmo_cavitation_energy": 39.42, 
			 "cosmo_dispersion_energy": -26.95, 
			 "cosmo_repulsion_energy": 2.16, 
			 "cosmo_total_nonelectrostatic_energy": 14.63, 
			 "SMD_solvation_energy": 6.57 
		},
		"coords": [
			{
				"x": 1.2085476759,
				"y": 1.7613323159,
				"z": -2.5861647336,
				"element": "C" 
			},
			{
				"x": 0.7111627473,
				"y": 0.4897993018,
				"z": -1.8661292467,
				"element": "C" 
			},
			{
				"x": -0.7598997845,
				"y": 0.5226905766,
				"z": -1.4826171156,
				"element": "C" 
			},
			{
				"x": -1.127838345,
				"y": 0.7829709507,
				"z": -0.0400373727,
				"element": "C" 
			},
			{
				"x": -0.7560611635,
				"y": 2.1906209356,
				"z": 0.4624313793,
				"element": "C" 
			},
			{
				"x": -1.1338169974,
				"y": 2.4320572932,
				"z": 1.9412059166,
				"element": "C" 
			},
			{
				"x": -0.3494583776,
				"y": 1.5871743955,
				"z": 2.9246150009,
				"element": "C" 
			},
			{
				"x": 0.9805920332,
				"y": 1.9088066607,
				"z": 3.2356133182,
				"element": "C" 
			},
			{
				"x": 1.7208844505,
				"y": 1.128405864,
				"z": 4.1233722187,
				"element": "C" 
			},
			{
				"x": 1.1419818426,
				"y": 0.0063311181,
				"z": 4.7212338433,
				"element": "C" 
			},
			{
				"x": -0.180650668,
				"y": -0.324309251,
				"z": 4.4247443033,
				"element": "C" 
			},
			{
				"x": -0.9174061107,
				"y": 0.4607894819,
				"z": 3.5349453596,
				"element": "C" 
			},
			{
				"x": -1.7422115757,
				"y": 0.3252954274,
				"z": -2.2891728948,
				"element": "N" 
			},
			{
				"x": -1.4784932086,
				"y": 0.0400669924,
				"z": -3.5981068585,
				"element": "N" 
			},
			{
				"x": -2.5364129144,
				"y": -0.0286548017,
				"z": -4.5067054303,
				"element": "C" 
			},
			{
				"x": -2.0838489237,
				"y": -0.3241819881,
				"z": -5.7951667729,
				"element": "N" 
			},
			{
				"x": -3.7019435556,
				"y": 0.175952953,
				"z": -4.2362807087,
				"element": "O" 
			},
			{
				"x": 2.2653991931,
				"y": 1.6639683427,
				"z": -2.8543242867,
				"element": "H" 
			},
			{
				"x": 1.102991875,
				"y": 2.6410279484,
				"z": -1.9456296549,
				"element": "H" 
			},
			{
				"x": 0.6461812506,
				"y": 1.9643111741,
				"z": -3.5033236802,
				"element": "H" 
			},
			{
				"x": 0.9043708088,
				"y": -0.3895409517,
				"z": -2.4977330908,
				"element": "H" 
			},
			{
				"x": 1.3059688947,
				"y": 0.3384424478,
				"z": -0.9594404361,
				"element": "H" 
			},
			{
				"x": -0.6300598492,
				"y": 0.0367826171,
				"z": 0.5951338873,
				"element": "H" 
			},
			{
				"x": -2.2070206379,
				"y": 0.6304859731,
				"z": 0.0592966081,
				"element": "H" 
			},
			{
				"x": -1.266439405,
				"y": 2.9363691183,
				"z": -0.1592769121,
				"element": "H" 
			},
			{
				"x": 0.3213730447,
				"y": 2.3631509417,
				"z": 0.3423749355,
				"element": "H" 
			},
			{
				"x": -0.9725091567,
				"y": 3.4932194465,
				"z": 2.1680021719,
				"element": "H" 
			},
			{
				"x": -2.2069510425,
				"y": 2.2464329787,
				"z": 2.0700724128,
				"element": "H" 
			},
			{
				"x": 1.4370156191,
				"y": 2.7861795166,
				"z": 2.7822096147,
				"element": "H" 
			},
			{
				"x": 2.7476874823,
				"y": 1.3991695921,
				"z": 4.3539798859,
				"element": "H" 
			},
			{
				"x": 1.7157749887,
				"y": -0.6007208331,
				"z": 5.4156293683,
				"element": "H" 
			},
			{
				"x": -0.6426468241,
				"y": -1.1918454946,
				"z": 4.887892585,
				"element": "H" 
			},
			{
				"x": -1.9494487063,
				"y": 0.1994199326,
				"z": 3.3140031722,
				"element": "H" 
			},
			{
				"x": -0.5406944472,
				"y": 0.1406003817,
				"z": -3.9701318532,
				"element": "H" 
			},
			{
				"x": -1.3154353636,
				"y": -0.977323137,
				"z": -5.8769948418,
				"element": "H" 
			},
			{
				"x": -2.8527848493,
				"y": -0.529678221,
				"z": -6.4181200921,
				"element": "H" 
			}
		],
		 "valence_orbital": [ 
			{
				"type": "occ",
				"energy": -0.26474,
				"method": "rhf"
			},
			{
				"type": "occ",
				"energy": -0.24969,
				"method": "rhf"
			},
			{
				"type": "occ",
				"energy": -0.24802,
				"method": "rhf"
			},
			{
				"type": "occ",
				"energy": -0.24147,
				"method": "rhf"
			},
			{
				"type": "occ",
				"energy": -0.22417,
				"method": "rhf"
			},
			{
				"type": "unocc",
				"energy": -0.00437,
				"method": "rhf"
			},
			{
				"type": "unocc",
				"energy": 0.00077,
				"method": "rhf"
			},
			{
				"type": "unocc",
				"energy": 0.00624,
				"method": "rhf"
			},
			{
				"type": "unocc",
				"energy": 0.05657,
				"method": "rhf"
			},
			{
				"type": "unocc",
				"energy": 0.06128,
				"method": "rhf"
			}
		],
		"cosmo_sigma_profile": { 
			"-0.025": 0.0,
			"-0.024": 0.0,
			"-0.023": 0.0,
			"-0.022": 0.0,
			"-0.021": 0.0,
			"-0.02": 0.0,
			"-0.019": 0.0,
			"-0.018": 0.0,
			"-0.017": 0.0,
			"-0.016": 0.0,
			"-0.015": 0.728449352801,
			"-0.014": 2.09196680593,
			"-0.013": 3.30001233287,
			"-0.012": 3.86573336202,
			"-0.011": 3.0094667323,
			"-0.01": 3.0588074366,
			"-0.009": 3.13126901378,
			"-0.008": 2.79342794057,
			"-0.007": 2.42279829547,
			"-0.006": 5.1443326284,
			"-0.005": 12.9262819908,
			"-0.004": 23.8355849833,
			"-0.003": 38.517748267,
			"-0.002": 33.9068315955,
			"-0.001": 32.9943548819,
			"0.0": 26.6606925695,
			"0.001": 17.1290518159,
			"0.002": 13.0346411963,
			"0.003": 10.6724260092,
			"0.004": 11.5292854183,
			"0.005": 11.3310591005,
			"0.006": 10.9690912978,
			"0.007": 6.42572423108,
			"0.008": 2.70762352645,
			"0.009": 2.33178713037,
			"0.01": 2.7031482573,
			"0.011": 2.81402306471,
			"0.012": 2.35602337268,
			"0.013": 4.31501457185,
			"0.014": 6.26922282739,
			"0.015": 2.05513976694,
			"0.016": 1.26599279122,
			"0.017": 1.2860168718,
			"0.018": 1.09945480354,
			"0.019": 0.564913348165,
			"0.02": 0.0034862686048,
			"0.021": 0.0,
			"0.022": 0.0,
			"0.023": 0.0,
			"0.024": 0.0,
			"0.025": 0.0
		}
	}
}
