{
	 "smiles": "COC(=O)CCNC(=O)C1=CC=C(N)C=C1", 
	 "Tm": 373.15, 
	 "num_atms": 30, 
	 "gaussian": { 
		 "optdone": 1, 
		 "sigma_profile": "yes", 
		 "theory": "DFT", 
		 "functional": "B3LYP", 
		 "basiset": "6-31G**", 
		 "properties": { 
			 "R2extent": 5975.11, 
			 "electric_dipole_moment_norm": 6.06682494473, 
			 "electric_quadrupole_moment_norm": 28.2366170552, 
			 "total_energy": -762.811745266, 
			 "HOMO_LUMO_gap": 0.19118, 
			 "cosmo_polarized_energy": -20.67, 
			 "cosmo_cavitation_energy": 34.45, 
			 "cosmo_dispersion_energy": -24.47, 
			 "cosmo_repulsion_energy": 1.95, 
			 "cosmo_total_nonelectrostatic_energy": 11.93, 
			 "SMD_solvation_energy": 7.05 
		},
		"coords": [
			{
				"x": 2.5031317934,
				"y": 3.1607952959,
				"z": 4.0630161222,
				"element": "C" 
			},
			{
				"x": 2.4031670788,
				"y": 2.4263634826,
				"z": 2.8293310258,
				"element": "O" 
			},
			{
				"x": 1.2929317406,
				"y": 1.6766524679,
				"z": 2.689220801,
				"element": "C" 
			},
			{
				"x": 0.4295230679,
				"y": 1.5927670586,
				"z": 3.5405295904,
				"element": "O" 
			},
			{
				"x": 1.2707144636,
				"y": 0.9709454793,
				"z": 1.3475516492,
				"element": "C" 
			},
			{
				"x": 0.0817951924,
				"y": 0.0090430084,
				"z": 1.1985087301,
				"element": "C" 
			},
			{
				"x": -1.2149869194,
				"y": 0.674567158,
				"z": 1.2551500545,
				"element": "N" 
			},
			{
				"x": -1.8883291032,
				"y": 1.2520833931,
				"z": 0.1924250768,
				"element": "C" 
			},
			{
				"x": -2.5640312708,
				"y": 2.2649233414,
				"z": 0.3580580528,
				"element": "O" 
			},
			{
				"x": -1.824939806,
				"y": 0.5798894427,
				"z": -1.1434005496,
				"element": "C" 
			},
			{
				"x": -1.9174409658,
				"y": 1.3834037337,
				"z": -2.2900505268,
				"element": "C" 
			},
			{
				"x": -1.9222774133,
				"y": 0.8265328616,
				"z": -3.5608454906,
				"element": "C" 
			},
			{
				"x": -1.8669943575,
				"y": -0.5706973618,
				"z": -3.7298680611,
				"element": "C" 
			},
			{
				"x": -1.9322741038,
				"y": -1.135620834,
				"z": -4.9979471518,
				"element": "N" 
			},
			{
				"x": -1.8109117027,
				"y": -1.3824734261,
				"z": -2.5820995536,
				"element": "C" 
			},
			{
				"x": -1.7883395614,
				"y": -0.8125069374,
				"z": -1.3137774697,
				"element": "C" 
			},
			{
				"x": 2.5154018947,
				"y": 2.4784039402,
				"z": 4.9163585739,
				"element": "H" 
			},
			{
				"x": 3.4404451738,
				"y": 3.7130215581,
				"z": 4.0003469984,
				"element": "H" 
			},
			{
				"x": 1.6590072144,
				"y": 3.8460775183,
				"z": 4.1707413163,
				"element": "H" 
			},
			{
				"x": 1.2501856142,
				"y": 1.7343703464,
				"z": 0.5603560023,
				"element": "H" 
			},
			{
				"x": 2.2195530705,
				"y": 0.4339088884,
				"z": 1.2276219054,
				"element": "H" 
			},
			{
				"x": 0.1762920014,
				"y": -0.5137119668,
				"z": 0.247002561,
				"element": "H" 
			},
			{
				"x": 0.1231642592,
				"y": -0.7430410745,
				"z": 1.9939769656,
				"element": "H" 
			},
			{
				"x": -1.3544714658,
				"y": 1.200125086,
				"z": 2.1123555988,
				"element": "H" 
			},
			{
				"x": -1.9906273092,
				"y": 2.4585702752,
				"z": -2.1619595531,
				"element": "H" 
			},
			{
				"x": -1.9851581099,
				"y": 1.4683524753,
				"z": -4.4363332694,
				"element": "H" 
			},
			{
				"x": -1.5724026101,
				"y": -2.0749682295,
				"z": -5.0862075998,
				"element": "H" 
			},
			{
				"x": -1.6602642166,
				"y": -0.5376061364,
				"z": -5.764835794,
				"element": "H" 
			},
			{
				"x": -1.8027882675,
				"y": -2.4642027594,
				"z": -2.6916114301,
				"element": "H" 
			},
			{
				"x": -1.776875382,
				"y": -1.4619680851,
				"z": -0.4435145748,
				"element": "H" 
			}
		],
		 "valence_orbital": [ 
			{
				"type": "occ",
				"energy": -0.28119,
				"method": "rhf"
			},
			{
				"type": "occ",
				"energy": -0.25126,
				"method": "rhf"
			},
			{
				"type": "occ",
				"energy": -0.24673,
				"method": "rhf"
			},
			{
				"type": "occ",
				"energy": -0.22804,
				"method": "rhf"
			},
			{
				"type": "occ",
				"energy": -0.20521,
				"method": "rhf"
			},
			{
				"type": "unocc",
				"energy": -0.01403,
				"method": "rhf"
			},
			{
				"type": "unocc",
				"energy": -0.00069,
				"method": "rhf"
			},
			{
				"type": "unocc",
				"energy": 0.00434,
				"method": "rhf"
			},
			{
				"type": "unocc",
				"energy": 0.06427,
				"method": "rhf"
			},
			{
				"type": "unocc",
				"energy": 0.07915,
				"method": "rhf"
			}
		],
		"cosmo_sigma_profile": { 
			"-0.025": 0.0,
			"-0.024": 0.0,
			"-0.023": 0.0,
			"-0.022": 0.0,
			"-0.021": 0.0,
			"-0.02": 0.0,
			"-0.019": 0.0,
			"-0.018": 0.0,
			"-0.017": 0.0,
			"-0.016": 0.0,
			"-0.015": 0.0,
			"-0.014": 0.0162208514977,
			"-0.013": 1.40054994685,
			"-0.012": 3.19085386966,
			"-0.011": 2.13135981325,
			"-0.01": 3.19690695518,
			"-0.009": 3.14079985589,
			"-0.008": 3.04382890029,
			"-0.007": 6.47968357981,
			"-0.006": 17.0608130391,
			"-0.005": 26.5289978767,
			"-0.004": 26.2644164125,
			"-0.003": 26.421534856,
			"-0.002": 16.3176912067,
			"-0.001": 13.0784381953,
			"0.0": 12.2026352299,
			"0.001": 12.0541723828,
			"0.002": 11.6412831444,
			"0.003": 10.8226942541,
			"0.004": 13.4264848624,
			"0.005": 14.8776638915,
			"0.006": 9.03098360847,
			"0.007": 6.45638579674,
			"0.008": 5.29201288937,
			"0.009": 4.29244715092,
			"0.01": 3.74649668813,
			"0.011": 5.28845584682,
			"0.012": 3.23277923672,
			"0.013": 3.66192471683,
			"0.014": 5.87539748399,
			"0.015": 1.97720683342,
			"0.016": 0.00345997166145,
			"0.017": 0.0,
			"0.018": 0.0,
			"0.019": 0.0,
			"0.02": 0.0,
			"0.021": 0.0,
			"0.022": 0.0,
			"0.023": 0.0,
			"0.024": 0.0,
			"0.025": 0.0
		}
	}
}
