{
	 "smiles": "CC(NC(CCC1=CC=CC=C1)C(O)=O)C(=O)N1CCCC1C(O)=O", 
	 "Tm": 423.15, 
	 "num_atms": 49, 
	 "gaussian": { 
		 "optdone": 1, 
		 "sigma_profile": "yes", 
		 "theory": "DFT", 
		 "functional": "B3LYP", 
		 "basiset": "6-31G**", 
		 "properties": { 
			 "R2extent": 10368.0638, 
			 "electric_dipole_moment_norm": 3.50431245896, 
			 "electric_quadrupole_moment_norm": 20.1439795703, 
			 "total_energy": -1186.04731914, 
			 "HOMO_LUMO_gap": 0.20432, 
			 "cosmo_polarized_energy": -23.23, 
			 "cosmo_cavitation_energy": 49.41, 
			 "cosmo_dispersion_energy": -32.28, 
			 "cosmo_repulsion_energy": 2.43, 
			 "cosmo_total_nonelectrostatic_energy": 19.56, 
			 "SMD_solvation_energy": 8.35 
		},
		"coords": [
			{
				"x": -0.9056912103,
				"y": 1.2563975847,
				"z": 1.7329412655,
				"element": "C" 
			},
			{
				"x": 0.0533779137,
				"y": 0.7181858917,
				"z": 0.6675664935,
				"element": "C" 
			},
			{
				"x": -0.6388234853,
				"y": -0.2241651903,
				"z": -0.2393189086,
				"element": "N" 
			},
			{
				"x": -0.8875253432,
				"y": -1.5826168066,
				"z": 0.2679953075,
				"element": "C" 
			},
			{
				"x": -1.7682275652,
				"y": -2.3639638338,
				"z": -0.719064907,
				"element": "C" 
			},
			{
				"x": -3.1788697058,
				"y": -1.7649538066,
				"z": -0.9019783412,
				"element": "C" 
			},
			{
				"x": -4.0483860517,
				"y": -1.8541813102,
				"z": 0.3358865207,
				"element": "C" 
			},
			{
				"x": -4.2991095055,
				"y": -0.7250927412,
				"z": 1.1272622541,
				"element": "C" 
			},
			{
				"x": -5.0880444041,
				"y": -0.8145836299,
				"z": 2.2767050974,
				"element": "C" 
			},
			{
				"x": -5.6416555188,
				"y": -2.038466697,
				"z": 2.6537771935,
				"element": "C" 
			},
			{
				"x": -5.402555172,
				"y": -3.1717078345,
				"z": 1.8725914517,
				"element": "C" 
			},
			{
				"x": -4.6142597616,
				"y": -3.0774930464,
				"z": 0.7258963211,
				"element": "C" 
			},
			{
				"x": 0.4380150594,
				"y": -2.2817052826,
				"z": 0.5712685593,
				"element": "C" 
			},
			{
				"x": 1.0475863079,
				"y": -2.779150985,
				"z": -0.5428072683,
				"element": "O" 
			},
			{
				"x": 0.9726177905,
				"y": -2.3079689724,
				"z": 1.6589805969,
				"element": "O" 
			},
			{
				"x": 0.5520167184,
				"y": 1.8937410758,
				"z": -0.1987492829,
				"element": "C" 
			},
			{
				"x": -0.2122422452,
				"y": 2.7775287808,
				"z": -0.5696538892,
				"element": "O" 
			},
			{
				"x": 1.8753452454,
				"y": 1.9260004984,
				"z": -0.5666155787,
				"element": "N" 
			},
			{
				"x": 2.339554733,
				"y": 3.0231316881,
				"z": -1.4377359279,
				"element": "C" 
			},
			{
				"x": 3.7779264528,
				"y": 2.6264726197,
				"z": -1.7955066029,
				"element": "C" 
			},
			{
				"x": 4.2271545878,
				"y": 1.7839969957,
				"z": -0.5918097354,
				"element": "C" 
			},
			{
				"x": 2.9460378491,
				"y": 0.9970889395,
				"z": -0.2174095854,
				"element": "C" 
			},
			{
				"x": 2.9100014587,
				"y": -0.3463691357,
				"z": -0.9494767117,
				"element": "C" 
			},
			{
				"x": 2.083465828,
				"y": -0.3658681026,
				"z": -2.0171120367,
				"element": "O" 
			},
			{
				"x": 3.566770657,
				"y": -1.3061819766,
				"z": -0.6036867653,
				"element": "O" 
			},
			{
				"x": -0.3721564512,
				"y": 1.9090756681,
				"z": 2.4315853582,
				"element": "H" 
			},
			{
				"x": -1.3487745738,
				"y": 0.4414040579,
				"z": 2.3106226144,
				"element": "H" 
			},
			{
				"x": -1.6953263762,
				"y": 1.8339164462,
				"z": 1.2493441588,
				"element": "H" 
			},
			{
				"x": 0.9018779636,
				"y": 0.2383935819,
				"z": 1.1780448995,
				"element": "H" 
			},
			{
				"x": -0.1412332784,
				"y": -0.2844119728,
				"z": -1.1242325201,
				"element": "H" 
			},
			{
				"x": -1.4010848425,
				"y": -1.4997376784,
				"z": 1.2290002295,
				"element": "H" 
			},
			{
				"x": -1.8488716584,
				"y": -3.4007307996,
				"z": -0.3705971228,
				"element": "H" 
			},
			{
				"x": -1.2618642578,
				"y": -2.4050247979,
				"z": -1.6910357262,
				"element": "H" 
			},
			{
				"x": -3.0773117025,
				"y": -0.7203594766,
				"z": -1.2092869755,
				"element": "H" 
			},
			{
				"x": -3.6658256932,
				"y": -2.2993224346,
				"z": -1.7270066115,
				"element": "H" 
			},
			{
				"x": -3.8730047024,
				"y": 0.231081561,
				"z": 0.8359587497,
				"element": "H" 
			},
			{
				"x": -5.2717820356,
				"y": 0.0739785239,
				"z": 2.8745028133,
				"element": "H" 
			},
			{
				"x": -6.2574701607,
				"y": -2.1094936616,
				"z": 3.5458186389,
				"element": "H" 
			},
			{
				"x": -5.8347584646,
				"y": -4.1281016838,
				"z": 2.1541555387,
				"element": "H" 
			},
			{
				"x": -4.4410573735,
				"y": -3.9639423571,
				"z": 0.1192020041,
				"element": "H" 
			},
			{
				"x": 1.953778832,
				"y": -3.0152977976,
				"z": -0.2711212601,
				"element": "H" 
			},
			{
				"x": 1.6813879836,
				"y": 3.1179621442,
				"z": -2.3045214914,
				"element": "H" 
			},
			{
				"x": 2.2935368572,
				"y": 3.9722713515,
				"z": -0.8901959509,
				"element": "H" 
			},
			{
				"x": 3.7873698865,
				"y": 2.0185371606,
				"z": -2.706478151,
				"element": "H" 
			},
			{
				"x": 4.4188839304,
				"y": 3.494788755,
				"z": -1.9670227782,
				"element": "H" 
			},
			{
				"x": 4.4971359189,
				"y": 2.4289221307,
				"z": 0.2505698709,
				"element": "H" 
			},
			{
				"x": 5.071019071,
				"y": 1.1206546231,
				"z": -0.79378235,
				"element": "H" 
			},
			{
				"x": 2.9467695889,
				"y": 0.7444229495,
				"z": 0.8462041196,
				"element": "H" 
			},
			{
				"x": 2.0793809057,
				"y": -1.2831610166,
				"z": -2.3424735779,
				"element": "H" 
			}
		],
		 "valence_orbital": [ 
			{
				"type": "occ",
				"energy": -0.24849,
				"method": "rhf"
			},
			{
				"type": "occ",
				"energy": -0.24575,
				"method": "rhf"
			},
			{
				"type": "occ",
				"energy": -0.24371,
				"method": "rhf"
			},
			{
				"type": "occ",
				"energy": -0.23663,
				"method": "rhf"
			},
			{
				"type": "occ",
				"energy": -0.22713,
				"method": "rhf"
			},
			{
				"type": "unocc",
				"energy": -0.02281,
				"method": "rhf"
			},
			{
				"type": "unocc",
				"energy": 0.00054,
				"method": "rhf"
			},
			{
				"type": "unocc",
				"energy": 0.00254,
				"method": "rhf"
			},
			{
				"type": "unocc",
				"energy": 0.00554,
				"method": "rhf"
			},
			{
				"type": "unocc",
				"energy": 0.01489,
				"method": "rhf"
			}
		],
		"cosmo_sigma_profile": { 
			"-0.025": 0.0,
			"-0.024": 0.0,
			"-0.023": 0.0,
			"-0.022": 0.0,
			"-0.021": 0.0,
			"-0.02": 0.0,
			"-0.019": 0.0,
			"-0.018": 0.102685213189,
			"-0.017": 0.584847489514,
			"-0.016": 0.855253067101,
			"-0.015": 0.838483502763,
			"-0.014": 1.33208086385,
			"-0.013": 1.25817148077,
			"-0.012": 1.01765748404,
			"-0.011": 1.06632131546,
			"-0.01": 1.96741070829,
			"-0.009": 1.16959867247,
			"-0.008": 4.74479237765,
			"-0.007": 6.28713947141,
			"-0.006": 9.12137697359,
			"-0.005": 25.7042621516,
			"-0.004": 41.6406338408,
			"-0.003": 45.5667373593,
			"-0.002": 37.8302947265,
			"-0.001": 33.6367925808,
			"0.0": 29.0320497035,
			"0.001": 22.0692108507,
			"0.002": 15.6122410625,
			"0.003": 14.9697880029,
			"0.004": 14.0843174744,
			"0.005": 13.7914422405,
			"0.006": 12.8381732334,
			"0.007": 9.02752947936,
			"0.008": 5.28902958538,
			"0.009": 4.91870494336,
			"0.01": 6.47635557834,
			"0.011": 8.00394449728,
			"0.012": 7.10599714815,
			"0.013": 5.04987394552,
			"0.014": 3.856212049,
			"0.015": 0.0716944966789,
			"0.016": 0.0,
			"0.017": 0.0,
			"0.018": 0.0,
			"0.019": 0.0,
			"0.02": 0.0,
			"0.021": 0.0,
			"0.022": 0.0,
			"0.023": 0.0,
			"0.024": 0.0,
			"0.025": 0.0
		}
	}
}
