{
	 "smiles": "OC1=CC=C(C=C1)C1=CC(=O)C2=C(O)C=C(O)C=C2O1", 
	 "Tm": 621.15, 
	 "num_atms": 30, 
	 "gaussian": { 
		 "optdone": 1, 
		 "sigma_profile": "yes", 
		 "theory": "DFT", 
		 "functional": "B3LYP", 
		 "basiset": "6-31G**", 
		 "properties": { 
			 "R2extent": 8012.1721, 
			 "electric_dipole_moment_norm": 4.29496224198, 
			 "electric_quadrupole_moment_norm": 33.1668243724, 
			 "total_energy": -953.725416487, 
			 "HOMO_LUMO_gap": 0.16452, 
			 "cosmo_polarized_energy": -28.69, 
			 "cosmo_cavitation_energy": 35.5, 
			 "cosmo_dispersion_energy": -26.3, 
			 "cosmo_repulsion_energy": 1.96, 
			 "cosmo_total_nonelectrostatic_energy": 11.17, 
			 "SMD_solvation_energy": 7.83 
		},
		"coords": [
			{
				"x": 2.5510958442,
				"y": 1.8875700785,
				"z": -4.2123660265,
				"element": "O" 
			},
			{
				"x": 1.6557432014,
				"y": 1.6404100147,
				"z": -3.2164454235,
				"element": "C" 
			},
			{
				"x": 1.7074540759,
				"y": 0.3867424679,
				"z": -2.595810229,
				"element": "C" 
			},
			{
				"x": 0.8179379528,
				"y": 0.0828866969,
				"z": -1.5737946787,
				"element": "C" 
			},
			{
				"x": -0.1474455089,
				"y": 1.0133236186,
				"z": -1.146043433,
				"element": "C" 
			},
			{
				"x": -0.1776615471,
				"y": 2.270318684,
				"z": -1.7723701247,
				"element": "C" 
			},
			{
				"x": 0.7081656777,
				"y": 2.5828420312,
				"z": -2.7968326653,
				"element": "C" 
			},
			{
				"x": -1.0985683593,
				"y": 0.6767840845,
				"z": -0.0747867498,
				"element": "C" 
			},
			{
				"x": -2.2608136005,
				"y": 1.3096183115,
				"z": 0.2079598344,
				"element": "C" 
			},
			{
				"x": -3.1426452344,
				"y": 0.9127785783,
				"z": 1.3075443163,
				"element": "C" 
			},
			{
				"x": -4.1831315267,
				"y": 1.522174954,
				"z": 1.5474128194,
				"element": "O" 
			},
			{
				"x": -2.6623209243,
				"y": -0.2681075794,
				"z": 2.0631858677,
				"element": "C" 
			},
			{
				"x": -3.3528629001,
				"y": -0.8516406814,
				"z": 3.161811502,
				"element": "C" 
			},
			{
				"x": -4.5216232032,
				"y": -0.2937348768,
				"z": 3.5508880282,
				"element": "O" 
			},
			{
				"x": -2.840028631,
				"y": -1.9673036286,
				"z": 3.8194701586,
				"element": "C" 
			},
			{
				"x": -1.6288974167,
				"y": -2.5357250468,
				"z": 3.4066294632,
				"element": "C" 
			},
			{
				"x": -1.1943040357,
				"y": -3.62252856,
				"z": 4.1001634931,
				"element": "O" 
			},
			{
				"x": -0.920809092,
				"y": -1.9970520141,
				"z": 2.3361023699,
				"element": "C" 
			},
			{
				"x": -1.4517318506,
				"y": -0.8793361708,
				"z": 1.6897712945,
				"element": "C" 
			},
			{
				"x": -0.6914928547,
				"y": -0.4083842649,
				"z": 0.6529225524,
				"element": "O" 
			},
			{
				"x": 2.4092594287,
				"y": 2.7788083292,
				"z": -4.5576338758,
				"element": "H" 
			},
			{
				"x": 2.4473110298,
				"y": -0.3330302253,
				"z": -2.9294659745,
				"element": "H" 
			},
			{
				"x": 0.8622000193,
				"y": -0.8908487761,
				"z": -1.1003969474,
				"element": "H" 
			},
			{
				"x": -0.8875794307,
				"y": 3.0226723085,
				"z": -1.4457483174,
				"element": "H" 
			},
			{
				"x": 0.6719614413,
				"y": 3.5644335268,
				"z": -3.2642845336,
				"element": "H" 
			},
			{
				"x": -2.5935531717,
				"y": 2.145381281,
				"z": -0.3940124989,
				"element": "H" 
			},
			{
				"x": -4.8694826649,
				"y": -0.7966894401,
				"z": 4.2999431211,
				"element": "H" 
			},
			{
				"x": -3.3670068455,
				"y": -2.4120520594,
				"z": 4.6584970657,
				"element": "H" 
			},
			{
				"x": -0.3549639682,
				"y": -3.9239423505,
				"z": 3.7285176454,
				"element": "H" 
			},
			{
				"x": 0.021294095,
				"y": -2.4142692913,
				"z": 1.9958719464,
				"element": "H" 
			}
		],
		 "valence_orbital": [ 
			{
				"type": "occ",
				"energy": -0.26581,
				"method": "rhf"
			},
			{
				"type": "occ",
				"energy": -0.23149,
				"method": "rhf"
			},
			{
				"type": "occ",
				"energy": -0.22908,
				"method": "rhf"
			},
			{
				"type": "occ",
				"energy": -0.22078,
				"method": "rhf"
			},
			{
				"type": "occ",
				"energy": -0.21538,
				"method": "rhf"
			},
			{
				"type": "unocc",
				"energy": -0.05086,
				"method": "rhf"
			},
			{
				"type": "unocc",
				"energy": -0.0182,
				"method": "rhf"
			},
			{
				"type": "unocc",
				"energy": -0.01148,
				"method": "rhf"
			},
			{
				"type": "unocc",
				"energy": 0.00595,
				"method": "rhf"
			},
			{
				"type": "unocc",
				"energy": 0.03997,
				"method": "rhf"
			}
		],
		"cosmo_sigma_profile": { 
			"-0.025": 0.0,
			"-0.024": 0.0,
			"-0.023": 0.0,
			"-0.022": 0.0,
			"-0.021": 0.0,
			"-0.02": 0.0,
			"-0.019": 0.34717416244,
			"-0.018": 3.4801940119,
			"-0.017": 2.73582379494,
			"-0.016": 3.82495096217,
			"-0.015": 3.53519277898,
			"-0.014": 2.83688354848,
			"-0.013": 2.34263932167,
			"-0.012": 2.53059872573,
			"-0.011": 3.66236379669,
			"-0.01": 3.54780468945,
			"-0.009": 3.23517980439,
			"-0.008": 5.55385021906,
			"-0.007": 8.9099954585,
			"-0.006": 10.3704486492,
			"-0.005": 10.6394367411,
			"-0.004": 9.27436207037,
			"-0.003": 9.01057431701,
			"-0.002": 12.3711496355,
			"-0.001": 13.8073763099,
			"0.0": 18.9551452093,
			"0.001": 26.5791201608,
			"0.002": 31.5182475312,
			"0.003": 27.0941680675,
			"0.004": 16.4058748082,
			"0.005": 6.87577676787,
			"0.006": 4.78079236347,
			"0.007": 4.36420394165,
			"0.008": 5.20479602614,
			"0.009": 4.07651842346,
			"0.01": 5.45370597999,
			"0.011": 3.67474755928,
			"0.012": 2.58543815141,
			"0.013": 3.22829129739,
			"0.014": 5.09614378183,
			"0.015": 3.11950706706,
			"0.016": 1.86014522596,
			"0.017": 1.34181638482,
			"0.018": 0.573079158177,
			"0.019": 0.0,
			"0.02": 0.0,
			"0.021": 0.0,
			"0.022": 0.0,
			"0.023": 0.0,
			"0.024": 0.0,
			"0.025": 0.0
		}
	}
}
