{
	 "smiles": "CSC1=NC(=O)NC2=C1CCCC2", 
	 "Tm": 538.15, 
	 "num_atms": 25, 
	 "gaussian": { 
		 "optdone": 1, 
		 "sigma_profile": "yes", 
		 "theory": "DFT", 
		 "functional": "B3LYP", 
		 "basiset": "6-31G**", 
		 "properties": { 
			 "R2extent": 2998.9904, 
			 "electric_dipole_moment_norm": 5.31570544237, 
			 "electric_quadrupole_moment_norm": 20.437405647, 
			 "total_energy": -933.137675886, 
			 "HOMO_LUMO_gap": 0.17962, 
			 "cosmo_polarized_energy": -17.29, 
			 "cosmo_cavitation_energy": 28.5, 
			 "cosmo_dispersion_energy": -21.9, 
			 "cosmo_repulsion_energy": 1.7, 
			 "cosmo_total_nonelectrostatic_energy": 8.3, 
			 "SMD_solvation_energy": 4.12 
		},
		"coords": [
			{
				"x": -2.8335718783,
				"y": 2.9344508004,
				"z": -0.5169391293,
				"element": "C" 
			},
			{
				"x": -1.0717210462,
				"y": 2.5261263319,
				"z": -0.2900669031,
				"element": "S" 
			},
			{
				"x": -1.1461528248,
				"y": 0.7484436561,
				"z": -0.2205037569,
				"element": "C" 
			},
			{
				"x": -2.3205455395,
				"y": 0.1825810214,
				"z": -0.3310886452,
				"element": "N" 
			},
			{
				"x": -2.4338996259,
				"y": -1.1943619918,
				"z": -0.2730230842,
				"element": "C" 
			},
			{
				"x": -3.4764316853,
				"y": -1.8189849162,
				"z": -0.3755515833,
				"element": "O" 
			},
			{
				"x": -1.2204568147,
				"y": -1.8929629625,
				"z": -0.0699903178,
				"element": "N" 
			},
			{
				"x": 0.0070905467,
				"y": -1.3089355241,
				"z": 0.0445168327,
				"element": "C" 
			},
			{
				"x": 0.1063843294,
				"y": 0.0560722173,
				"z": -0.0398501733,
				"element": "C" 
			},
			{
				"x": 1.436076614,
				"y": 0.7701534692,
				"z": 0.0734728858,
				"element": "C" 
			},
			{
				"x": 2.629055108,
				"y": -0.1839541834,
				"z": -0.092040377,
				"element": "C" 
			},
			{
				"x": 2.4310027307,
				"y": -1.4634783524,
				"z": 0.7285097536,
				"element": "C" 
			},
			{
				"x": 1.189368451,
				"y": -2.2243818339,
				"z": 0.2440656479,
				"element": "C" 
			},
			{
				"x": -3.4190824413,
				"y": 2.5662404347,
				"z": 0.3251382371,
				"element": "H" 
			},
			{
				"x": -2.8808169836,
				"y": 4.0241287554,
				"z": -0.5703375869,
				"element": "H" 
			},
			{
				"x": -3.2096782905,
				"y": 2.4890120289,
				"z": -1.4376073204,
				"element": "H" 
			},
			{
				"x": -1.31780473,
				"y": -2.898721983,
				"z": -0.0097806419,
				"element": "H" 
			},
			{
				"x": 1.5006315016,
				"y": 1.2764035868,
				"z": 1.047605118,
				"element": "H" 
			},
			{
				"x": 1.4947599188,
				"y": 1.5651745173,
				"z": -0.6793179774,
				"element": "H" 
			},
			{
				"x": 2.7421759188,
				"y": -0.4491521872,
				"z": -1.1515743812,
				"element": "H" 
			},
			{
				"x": 3.5519014295,
				"y": 0.3245415566,
				"z": 0.2060583612,
				"element": "H" 
			},
			{
				"x": 3.3093756665,
				"y": -2.1134297502,
				"z": 0.6583645471,
				"element": "H" 
			},
			{
				"x": 2.3105231928,
				"y": -1.2044160625,
				"z": 1.7880965081,
				"element": "H" 
			},
			{
				"x": 0.9163019925,
				"y": -3.0176999232,
				"z": 0.9515250974,
				"element": "H" 
			},
			{
				"x": 1.4038144598,
				"y": -2.7252487057,
				"z": -0.711081111,
				"element": "H" 
			}
		],
		 "valence_orbital": [ 
			{
				"type": "occ",
				"energy": -0.32621,
				"method": "rhf"
			},
			{
				"type": "occ",
				"energy": -0.26591,
				"method": "rhf"
			},
			{
				"type": "occ",
				"energy": -0.24702,
				"method": "rhf"
			},
			{
				"type": "occ",
				"energy": -0.23884,
				"method": "rhf"
			},
			{
				"type": "occ",
				"energy": -0.2229,
				"method": "rhf"
			},
			{
				"type": "unocc",
				"energy": -0.04328,
				"method": "rhf"
			},
			{
				"type": "unocc",
				"energy": 0.01521,
				"method": "rhf"
			},
			{
				"type": "unocc",
				"energy": 0.03598,
				"method": "rhf"
			},
			{
				"type": "unocc",
				"energy": 0.07049,
				"method": "rhf"
			},
			{
				"type": "unocc",
				"energy": 0.07786,
				"method": "rhf"
			}
		],
		"cosmo_sigma_profile": { 
			"-0.025": 0.0,
			"-0.024": 0.0,
			"-0.023": 0.0,
			"-0.022": 0.0,
			"-0.021": 0.0,
			"-0.02": 0.0,
			"-0.019": 0.0,
			"-0.018": 0.0,
			"-0.017": 0.0,
			"-0.016": 0.329716315259,
			"-0.015": 1.08506966757,
			"-0.014": 0.944639179818,
			"-0.013": 0.835921241204,
			"-0.012": 1.04960704699,
			"-0.011": 1.74390674372,
			"-0.01": 1.11453947743,
			"-0.009": 1.10217876909,
			"-0.008": 1.36000736374,
			"-0.007": 3.67498710183,
			"-0.006": 6.54396879003,
			"-0.005": 10.1270062492,
			"-0.004": 17.4661302476,
			"-0.003": 28.9096046612,
			"-0.002": 32.4473641772,
			"-0.001": 28.7350661479,
			"0.0": 18.8769470643,
			"0.001": 10.673526298,
			"0.002": 7.50219733537,
			"0.003": 5.75098668713,
			"0.004": 5.852127216,
			"0.005": 5.37148113647,
			"0.006": 5.04466627471,
			"0.007": 3.41689858136,
			"0.008": 2.74618613252,
			"0.009": 1.96873291263,
			"0.01": 1.24643211725,
			"0.011": 1.75521577534,
			"0.012": 2.60905110598,
			"0.013": 3.2183722035,
			"0.014": 6.94956143442,
			"0.015": 3.38271828709,
			"0.016": 1.99625588221,
			"0.017": 0.131411625914,
			"0.018": 0.0,
			"0.019": 0.0,
			"0.02": 0.0,
			"0.021": 0.0,
			"0.022": 0.0,
			"0.023": 0.0,
			"0.024": 0.0,
			"0.025": 0.0
		}
	}
}
