{
	 "smiles": "ClCN1N=NC2=C(C=CC=C2)C1=O", 
	 "Tm": 404.15, 
	 "num_atms": 19, 
	 "gaussian": { 
		 "optdone": 1, 
		 "sigma_profile": "yes", 
		 "theory": "DFT", 
		 "functional": "B3LYP", 
		 "basiset": "6-31G**", 
		 "properties": { 
			 "R2extent": 3817.7656, 
			 "electric_dipole_moment_norm": 4.01558772286, 
			 "electric_quadrupole_moment_norm": 12.3542458151, 
			 "total_energy": -1008.10047682, 
			 "HOMO_LUMO_gap": 0.17933, 
			 "cosmo_polarized_energy": -11.48, 
			 "cosmo_cavitation_energy": 25.72, 
			 "cosmo_dispersion_energy": -19.13, 
			 "cosmo_repulsion_energy": 1.5, 
			 "cosmo_total_nonelectrostatic_energy": 8.08, 
			 "SMD_solvation_energy": 3.11 
		},
		"coords": [
			{
				"x": 2.9675904413,
				"y": 3.5271632438,
				"z": -0.9022771962,
				"element": "Cl" 
			},
			{
				"x": 1.4768907701,
				"y": 3.2772031882,
				"z": -1.9197026667,
				"element": "C" 
			},
			{
				"x": 0.7755280106,
				"y": 2.0721289521,
				"z": -1.5801510814,
				"element": "N" 
			},
			{
				"x": -0.1722932701,
				"y": 2.2375067855,
				"z": -0.5897916616,
				"element": "N" 
			},
			{
				"x": -0.8284747413,
				"y": 1.243301653,
				"z": -0.1754948507,
				"element": "N" 
			},
			{
				"x": -0.5970764235,
				"y": -0.0313073433,
				"z": -0.7002898893,
				"element": "C" 
			},
			{
				"x": 0.3527171505,
				"y": -0.2712445643,
				"z": -1.7109499491,
				"element": "C" 
			},
			{
				"x": 0.5455765849,
				"y": -1.5675150827,
				"z": -2.207868572,
				"element": "C" 
			},
			{
				"x": -0.2085429954,
				"y": -2.6135670916,
				"z": -1.6934225633,
				"element": "C" 
			},
			{
				"x": -1.1581626871,
				"y": -2.3768516142,
				"z": -0.6825409899,
				"element": "C" 
			},
			{
				"x": -1.3558388468,
				"y": -1.0968103262,
				"z": -0.1859299571,
				"element": "C" 
			},
			{
				"x": 1.1265766441,
				"y": 0.8610618315,
				"z": -2.2171213517,
				"element": "C" 
			},
			{
				"x": 1.9790052855,
				"y": 0.8261728752,
				"z": -3.0904390671,
				"element": "O" 
			},
			{
				"x": 1.8134681745,
				"y": 3.2125764593,
				"z": -2.9506770997,
				"element": "H" 
			},
			{
				"x": 0.8241747248,
				"y": 4.1261461485,
				"z": -1.7349346082,
				"element": "H" 
			},
			{
				"x": 1.2850251405,
				"y": -1.7219711669,
				"z": -2.9861035275,
				"element": "H" 
			},
			{
				"x": -0.065843297,
				"y": -3.6210183374,
				"z": -2.0719252534,
				"element": "H" 
			},
			{
				"x": -1.7407202197,
				"y": -3.2040555059,
				"z": -0.2885621432,
				"element": "H" 
			},
			{
				"x": -2.0812004459,
				"y": -0.8864201048,
				"z": 0.5925824282,
				"element": "H" 
			}
		],
		 "valence_orbital": [ 
			{
				"type": "occ",
				"energy": -0.30257,
				"method": "rhf"
			},
			{
				"type": "occ",
				"energy": -0.29319,
				"method": "rhf"
			},
			{
				"type": "occ",
				"energy": -0.28475,
				"method": "rhf"
			},
			{
				"type": "occ",
				"energy": -0.26501,
				"method": "rhf"
			},
			{
				"type": "occ",
				"energy": -0.26336,
				"method": "rhf"
			},
			{
				"type": "unocc",
				"energy": -0.08403,
				"method": "rhf"
			},
			{
				"type": "unocc",
				"energy": -0.0658,
				"method": "rhf"
			},
			{
				"type": "unocc",
				"energy": -0.00059,
				"method": "rhf"
			},
			{
				"type": "unocc",
				"energy": 0.01302,
				"method": "rhf"
			},
			{
				"type": "unocc",
				"energy": 0.05592,
				"method": "rhf"
			}
		],
		"cosmo_sigma_profile": { 
			"-0.025": 0.0,
			"-0.024": 0.0,
			"-0.023": 0.0,
			"-0.022": 0.0,
			"-0.021": 0.0,
			"-0.02": 0.0,
			"-0.019": 0.0,
			"-0.018": 0.0,
			"-0.017": 0.0,
			"-0.016": 0.0,
			"-0.015": 0.0,
			"-0.014": 0.0,
			"-0.013": 0.0,
			"-0.012": 0.0,
			"-0.011": 0.0198104008537,
			"-0.01": 1.08078336411,
			"-0.009": 3.27555416124,
			"-0.008": 7.18013731074,
			"-0.007": 14.3947547998,
			"-0.006": 14.9936592694,
			"-0.005": 11.872897598,
			"-0.004": 8.96395559209,
			"-0.003": 10.2618751299,
			"-0.002": 10.4845488491,
			"-0.001": 14.2434066897,
			"0.0": 18.8419512277,
			"0.001": 17.8693171824,
			"0.002": 14.4729166899,
			"0.003": 7.1900617,
			"0.004": 9.45039944042,
			"0.005": 13.1118777757,
			"0.006": 7.85863149626,
			"0.007": 3.88505937933,
			"0.008": 3.91691026103,
			"0.009": 4.10815141272,
			"0.01": 4.07779599889,
			"0.011": 5.13389282234,
			"0.012": 2.6916732099,
			"0.013": 0.400686410509,
			"0.014": 0.0,
			"0.015": 0.0,
			"0.016": 0.0,
			"0.017": 0.0,
			"0.018": 0.0,
			"0.019": 0.0,
			"0.02": 0.0,
			"0.021": 0.0,
			"0.022": 0.0,
			"0.023": 0.0,
			"0.024": 0.0,
			"0.025": 0.0
		}
	}
}
