{
	 "smiles": "CCCCCNCC(N)=O", 
	 "Tm": 338.15, 
	 "num_atms": 26, 
	 "gaussian": { 
		 "optdone": 1, 
		 "sigma_profile": "yes", 
		 "theory": "DFT", 
		 "functional": "B3LYP", 
		 "basiset": "6-31G**", 
		 "properties": { 
			 "R2extent": 2239.891, 
			 "electric_dipole_moment_norm": 4.00720028574, 
			 "electric_quadrupole_moment_norm": 17.2790492707, 
			 "total_energy": -461.127578417, 
			 "HOMO_LUMO_gap": 0.25006, 
			 "cosmo_polarized_energy": -17.43, 
			 "cosmo_cavitation_energy": 27.85, 
			 "cosmo_dispersion_energy": -19.43, 
			 "cosmo_repulsion_energy": 1.64, 
			 "cosmo_total_nonelectrostatic_energy": 10.07, 
			 "SMD_solvation_energy": 3.26 
		},
		"coords": [
			{
				"x": -2.9111281164,
				"y": -0.7714970902,
				"z": 1.1992346748,
				"element": "C" 
			},
			{
				"x": -2.810526507,
				"y": 0.7556892448,
				"z": 1.1085788,
				"element": "C" 
			},
			{
				"x": -2.4127533479,
				"y": 1.2842746585,
				"z": -0.2822705561,
				"element": "C" 
			},
			{
				"x": -1.0356548506,
				"y": 0.8455592149,
				"z": -0.8090290541,
				"element": "C" 
			},
			{
				"x": 0.1381217231,
				"y": 1.3427781978,
				"z": 0.0442676061,
				"element": "C" 
			},
			{
				"x": 1.4378435943,
				"y": 1.1466646738,
				"z": -0.6018160068,
				"element": "N" 
			},
			{
				"x": 1.9125593978,
				"y": -0.2209039378,
				"z": -0.6507007038,
				"element": "C" 
			},
			{
				"x": 1.4243867301,
				"y": -0.9936767599,
				"z": -1.8919924778,
				"element": "C" 
			},
			{
				"x": 1.3371089882,
				"y": -2.3486638853,
				"z": -1.6971256289,
				"element": "N" 
			},
			{
				"x": 1.1997295484,
				"y": -0.4716916853,
				"z": -2.9692363632,
				"element": "O" 
			},
			{
				"x": -3.6144823739,
				"y": -1.1657022794,
				"z": 0.4563804994,
				"element": "H" 
			},
			{
				"x": -3.2612712023,
				"y": -1.0862028388,
				"z": 2.1880122303,
				"element": "H" 
			},
			{
				"x": -1.9440984969,
				"y": -1.2553837448,
				"z": 1.0251746178,
				"element": "H" 
			},
			{
				"x": -2.1029431635,
				"y": 1.1194155364,
				"z": 1.8648374153,
				"element": "H" 
			},
			{
				"x": -3.7813499629,
				"y": 1.1921620116,
				"z": 1.37650233,
				"element": "H" 
			},
			{
				"x": -2.4503651621,
				"y": 2.3823887276,
				"z": -0.2643689134,
				"element": "H" 
			},
			{
				"x": -3.1757663352,
				"y": 0.9688665867,
				"z": -1.0066131884,
				"element": "H" 
			},
			{
				"x": -0.8926892628,
				"y": 1.2226706311,
				"z": -1.8266554068,
				"element": "H" 
			},
			{
				"x": -1.0030782287,
				"y": -0.2481239219,
				"z": -0.8881045064,
				"element": "H" 
			},
			{
				"x": 0.0215145634,
				"y": 2.4216199723,
				"z": 0.2075198357,
				"element": "H" 
			},
			{
				"x": 0.1006934176,
				"y": 0.865480265,
				"z": 1.0433711947,
				"element": "H" 
			},
			{
				"x": 2.1316765042,
				"y": 1.7266966641,
				"z": -0.1445776476,
				"element": "H" 
			},
			{
				"x": 3.006986482,
				"y": -0.2081894821,
				"z": -0.7259098331,
				"element": "H" 
			},
			{
				"x": 1.6689772893,
				"y": -0.8007683294,
				"z": 0.2626865962,
				"element": "H" 
			},
			{
				"x": 1.3897152481,
				"y": -2.766280489,
				"z": -0.7823171371,
				"element": "H" 
			},
			{
				"x": 1.0262935239,
				"y": -2.9158819408,
				"z": -2.4711483766,
				"element": "H" 
			}
		],
		 "valence_orbital": [ 
			{
				"type": "occ",
				"energy": -0.31263,
				"method": "rhf"
			},
			{
				"type": "occ",
				"energy": -0.30995,
				"method": "rhf"
			},
			{
				"type": "occ",
				"energy": -0.26211,
				"method": "rhf"
			},
			{
				"type": "occ",
				"energy": -0.24118,
				"method": "rhf"
			},
			{
				"type": "occ",
				"energy": -0.21867,
				"method": "rhf"
			},
			{
				"type": "unocc",
				"energy": 0.03139,
				"method": "rhf"
			},
			{
				"type": "unocc",
				"energy": 0.06605,
				"method": "rhf"
			},
			{
				"type": "unocc",
				"energy": 0.08683,
				"method": "rhf"
			},
			{
				"type": "unocc",
				"energy": 0.09307,
				"method": "rhf"
			},
			{
				"type": "unocc",
				"energy": 0.11511,
				"method": "rhf"
			}
		],
		"cosmo_sigma_profile": { 
			"-0.025": 0.0,
			"-0.024": 0.0,
			"-0.023": 0.0,
			"-0.022": 0.0,
			"-0.021": 0.0,
			"-0.02": 0.0,
			"-0.019": 0.0,
			"-0.018": 0.0,
			"-0.017": 0.0,
			"-0.016": 0.0,
			"-0.015": 0.0142674229699,
			"-0.014": 1.11867175801,
			"-0.013": 2.28803590964,
			"-0.012": 2.79232999056,
			"-0.011": 2.14411695389,
			"-0.01": 3.42785558605,
			"-0.009": 3.61729756157,
			"-0.008": 4.70869527202,
			"-0.007": 4.30373096413,
			"-0.006": 5.71451559444,
			"-0.005": 5.23895329437,
			"-0.004": 5.03370598572,
			"-0.003": 12.4497971405,
			"-0.002": 27.1045325754,
			"-0.001": 30.7771728529,
			"0.0": 29.3000745043,
			"0.001": 24.2251719062,
			"0.002": 11.127405448,
			"0.003": 4.08733927386,
			"0.004": 3.54303904606,
			"0.005": 2.57227399826,
			"0.006": 2.00123520918,
			"0.007": 1.73238117806,
			"0.008": 1.80257370745,
			"0.009": 2.26271717353,
			"0.01": 1.11714737476,
			"0.011": 1.7551824947,
			"0.012": 2.78973601373,
			"0.013": 2.3094184593,
			"0.014": 5.30242007045,
			"0.015": 2.78983452363,
			"0.016": 1.80946649274,
			"0.017": 0.705427589502,
			"0.018": 0.281248183837,
			"0.019": 1.27675672846,
			"0.02": 0.521078301329,
			"0.021": 0.227260562526,
			"0.022": 0.0,
			"0.023": 0.0,
			"0.024": 0.0,
			"0.025": 0.0
		}
	}
}
