{
	 "smiles": "NC1=CC(=O)NN1C1=CC=CC=C1", 
	 "Tm": 383.15, 
	 "num_atms": 22, 
	 "gaussian": { 
		 "optdone": 1, 
		 "sigma_profile": "yes", 
		 "theory": "DFT", 
		 "functional": "B3LYP", 
		 "basiset": "6-31G**", 
		 "properties": { 
			 "R2extent": 3078.787, 
			 "electric_dipole_moment_norm": 6.3398866717, 
			 "electric_quadrupole_moment_norm": 25.3477364595, 
			 "total_energy": -587.830649213, 
			 "HOMO_LUMO_gap": 0.18181, 
			 "cosmo_polarized_energy": -18.92, 
			 "cosmo_cavitation_energy": 26.1, 
			 "cosmo_dispersion_energy": -19.29, 
			 "cosmo_repulsion_energy": 1.53, 
			 "cosmo_total_nonelectrostatic_energy": 8.35, 
			 "SMD_solvation_energy": 5.28 
		},
		"coords": [
			{
				"x": 1.6945459014,
				"y": 1.469220705,
				"z": -0.5780341725,
				"element": "N" 
			},
			{
				"x": 1.3622357246,
				"y": 1.7495464965,
				"z": 0.7243552795,
				"element": "C" 
			},
			{
				"x": 2.1024012779,
				"y": 2.3655988453,
				"z": 1.6965539674,
				"element": "C" 
			},
			{
				"x": 1.3108222858,
				"y": 2.4132377349,
				"z": 2.9026265228,
				"element": "C" 
			},
			{
				"x": 1.4848633086,
				"y": 2.9445406982,
				"z": 3.9885398011,
				"element": "O" 
			},
			{
				"x": 0.1245830953,
				"y": 1.6554622115,
				"z": 2.6037178834,
				"element": "N" 
			},
			{
				"x": 0.0915255684,
				"y": 1.4209537073,
				"z": 1.202881169,
				"element": "N" 
			},
			{
				"x": -0.6422321604,
				"y": 0.2814066832,
				"z": 0.7543117225,
				"element": "C" 
			},
			{
				"x": -1.1831090236,
				"y": 0.2945810603,
				"z": -0.5399011591,
				"element": "C" 
			},
			{
				"x": -1.9009238875,
				"y": -0.8093849878,
				"z": -1.0037687462,
				"element": "C" 
			},
			{
				"x": -2.1131249139,
				"y": -1.9112003496,
				"z": -0.1744332655,
				"element": "C" 
			},
			{
				"x": -1.598499382,
				"y": -1.9052539314,
				"z": 1.1250500298,
				"element": "C" 
			},
			{
				"x": -0.8603987371,
				"y": -0.8198471305,
				"z": 1.5935041846,
				"element": "C" 
			},
			{
				"x": 2.6873144949,
				"y": 1.472403262,
				"z": -0.7620086228,
				"element": "H" 
			},
			{
				"x": 1.206742206,
				"y": 0.6929195921,
				"z": -1.0063198597,
				"element": "H" 
			},
			{
				"x": 3.089591049,
				"y": 2.7874650102,
				"z": 1.5885761506,
				"element": "H" 
			},
			{
				"x": -0.7309072267,
				"y": 2.096927245,
				"z": 2.9301958625,
				"element": "H" 
			},
			{
				"x": -1.0644925247,
				"y": 1.1779717816,
				"z": -1.1598159659,
				"element": "H" 
			},
			{
				"x": -2.3143352395,
				"y": -0.7935175985,
				"z": -2.0079742956,
				"element": "H" 
			},
			{
				"x": -2.6844076224,
				"y": -2.7623498065,
				"z": -0.5319767481,
				"element": "H" 
			},
			{
				"x": -1.7648130538,
				"y": -2.7568351658,
				"z": 1.7785301597,
				"element": "H" 
			},
			{
				"x": -0.4521811403,
				"y": -0.806646063,
				"z": 2.5974901024,
				"element": "H" 
			}
		],
		 "valence_orbital": [ 
			{
				"type": "occ",
				"energy": -0.27249,
				"method": "rhf"
			},
			{
				"type": "occ",
				"energy": -0.26869,
				"method": "rhf"
			},
			{
				"type": "occ",
				"energy": -0.24187,
				"method": "rhf"
			},
			{
				"type": "occ",
				"energy": -0.22876,
				"method": "rhf"
			},
			{
				"type": "occ",
				"energy": -0.20344,
				"method": "rhf"
			},
			{
				"type": "unocc",
				"energy": -0.02163,
				"method": "rhf"
			},
			{
				"type": "unocc",
				"energy": -0.02075,
				"method": "rhf"
			},
			{
				"type": "unocc",
				"energy": 0.01178,
				"method": "rhf"
			},
			{
				"type": "unocc",
				"energy": 0.0699,
				"method": "rhf"
			},
			{
				"type": "unocc",
				"energy": 0.0808,
				"method": "rhf"
			}
		],
		"cosmo_sigma_profile": { 
			"-0.025": 0.0,
			"-0.024": 0.0,
			"-0.023": 0.0,
			"-0.022": 0.0,
			"-0.021": 0.0,
			"-0.02": 0.0,
			"-0.019": 0.0,
			"-0.018": 0.0,
			"-0.017": 0.0,
			"-0.016": 0.0,
			"-0.015": 0.54411414954,
			"-0.014": 2.68319503078,
			"-0.013": 2.7953970039,
			"-0.012": 2.92562073411,
			"-0.011": 3.99047391909,
			"-0.01": 2.50414937514,
			"-0.009": 3.18189442152,
			"-0.008": 2.72247128022,
			"-0.007": 6.06620459747,
			"-0.006": 12.5043415132,
			"-0.005": 13.8045017565,
			"-0.004": 14.3532533602,
			"-0.003": 11.5204261287,
			"-0.002": 11.3473319391,
			"-0.001": 11.1720359388,
			"0.0": 11.2506199603,
			"0.001": 10.0987800485,
			"0.002": 11.9159362422,
			"0.003": 14.4439634994,
			"0.004": 15.8778339787,
			"0.005": 12.1852112806,
			"0.006": 3.34016089112,
			"0.007": 2.77932961208,
			"0.008": 3.19142735597,
			"0.009": 1.58359780823,
			"0.01": 2.32656174272,
			"0.011": 1.40861885655,
			"0.012": 1.55412135292,
			"0.013": 2.04462840552,
			"0.014": 5.0734855829,
			"0.015": 6.01294665985,
			"0.016": 1.28175487611,
			"0.017": 0.0,
			"0.018": 0.0,
			"0.019": 0.0,
			"0.02": 0.0,
			"0.021": 0.0,
			"0.022": 0.0,
			"0.023": 0.0,
			"0.024": 0.0,
			"0.025": 0.0
		}
	}
}
