{
	 "smiles": "BrC1=C(N=CC=N1)C#N", 
	 "Tm": 318.15, 
	 "num_atms": 11, 
	 "gaussian": { 
		 "optdone": 1, 
		 "sigma_profile": "yes", 
		 "theory": "DFT", 
		 "functional": "B3LYP", 
		 "basiset": "6-31G**", 
		 "properties": { 
			 "R2extent": 1941.3184, 
			 "electric_dipole_moment_norm": 4.46911806288, 
			 "electric_quadrupole_moment_norm": 15.3217416291, 
			 "total_energy": -2927.34724138, 
			 "HOMO_LUMO_gap": 0.18591, 
			 "cosmo_polarized_energy": -9.95, 
			 "cosmo_cavitation_energy": 19.6, 
			 "cosmo_dispersion_energy": -14.48, 
			 "cosmo_repulsion_energy": 1.19, 
			 "cosmo_total_nonelectrostatic_energy": 6.3, 
			 "SMD_solvation_energy": 0.98 
		},
		"coords": [
			{
				"x": -0.6028649462,
				"y": -2.127254935,
				"z": -0.2255099068,
				"element": "Br" 
			},
			{
				"x": -0.596993,
				"y": -0.2805945051,
				"z": -0.6794226518,
				"element": "C" 
			},
			{
				"x": 0.278184443,
				"y": 0.2078905148,
				"z": -1.6753156757,
				"element": "C" 
			},
			{
				"x": 0.2863637194,
				"y": 1.5081499098,
				"z": -1.9991395102,
				"element": "N" 
			},
			{
				"x": -0.5592676816,
				"y": 2.304779751,
				"z": -1.3448992569,
				"element": "C" 
			},
			{
				"x": -1.4195179757,
				"y": 1.8083416964,
				"z": -0.3621957666,
				"element": "C" 
			},
			{
				"x": -1.432259154,
				"y": 0.5117646642,
				"z": -0.0346389163,
				"element": "N" 
			},
			{
				"x": 1.1914064576,
				"y": -0.6493630227,
				"z": -2.3828511382,
				"element": "C" 
			},
			{
				"x": 1.9344302097,
				"y": -1.3284372731,
				"z": -2.9629560994,
				"element": "N" 
			},
			{
				"x": -0.5510997895,
				"y": 3.3588503803,
				"z": -1.6088523775,
				"element": "H" 
			},
			{
				"x": -2.1086822827,
				"y": 2.4581728194,
				"z": 0.1708812995,
				"element": "H" 
			}
		],
		 "valence_orbital": [ 
			{
				"type": "occ",
				"energy": -0.34856,
				"method": "rhf"
			},
			{
				"type": "occ",
				"energy": -0.32928,
				"method": "rhf"
			},
			{
				"type": "occ",
				"energy": -0.30724,
				"method": "rhf"
			},
			{
				"type": "occ",
				"energy": -0.29196,
				"method": "rhf"
			},
			{
				"type": "occ",
				"energy": -0.28493,
				"method": "rhf"
			},
			{
				"type": "unocc",
				"energy": -0.09902,
				"method": "rhf"
			},
			{
				"type": "unocc",
				"energy": -0.07442,
				"method": "rhf"
			},
			{
				"type": "unocc",
				"energy": -0.01544,
				"method": "rhf"
			},
			{
				"type": "unocc",
				"energy": 0.01391,
				"method": "rhf"
			},
			{
				"type": "unocc",
				"energy": 0.04207,
				"method": "rhf"
			}
		],
		"cosmo_sigma_profile": { 
			"-0.025": 0.0,
			"-0.024": 0.0,
			"-0.023": 0.0,
			"-0.022": 0.0,
			"-0.021": 0.0,
			"-0.02": 0.0,
			"-0.019": 0.0,
			"-0.018": 0.0,
			"-0.017": 0.0,
			"-0.016": 0.0,
			"-0.015": 0.0,
			"-0.014": 0.0,
			"-0.013": 0.0,
			"-0.012": 0.0,
			"-0.011": 0.0,
			"-0.01": 2.68477996678,
			"-0.009": 6.42780501559,
			"-0.008": 4.303944828,
			"-0.007": 5.18600049439,
			"-0.006": 10.1650989552,
			"-0.005": 9.44012943174,
			"-0.004": 11.2676296372,
			"-0.003": 12.3513481973,
			"-0.002": 7.94095700335,
			"-0.001": 7.68812687101,
			"0.0": 10.1170261103,
			"0.001": 8.62690861722,
			"0.002": 15.0955501146,
			"0.003": 11.311352938,
			"0.004": 6.99587278614,
			"0.005": 5.37619431545,
			"0.006": 6.09755958776,
			"0.007": 4.7981652756,
			"0.008": 4.70298904933,
			"0.009": 4.59722653329,
			"0.01": 3.74954665498,
			"0.011": 3.9537679469,
			"0.012": 0.839784549909,
			"0.013": 0.0,
			"0.014": 0.0,
			"0.015": 0.0,
			"0.016": 0.0,
			"0.017": 0.0,
			"0.018": 0.0,
			"0.019": 0.0,
			"0.02": 0.0,
			"0.021": 0.0,
			"0.022": 0.0,
			"0.023": 0.0,
			"0.024": 0.0,
			"0.025": 0.0
		}
	}
}
