{
	 "smiles": "NC1=C(NCC2CCCO2)C(=O)NC(=O)N1CC1=CC=CC=C1", 
	 "Tm": 495.15, 
	 "num_atms": 43, 
	 "gaussian": { 
		 "optdone": 1, 
		 "sigma_profile": "yes", 
		 "theory": "DFT", 
		 "functional": "B3LYP", 
		 "basiset": "6-31G**", 
		 "properties": { 
			 "R2extent": 9934.8185, 
			 "electric_dipole_moment_norm": 4.86575141782, 
			 "electric_quadrupole_moment_norm": 11.3492311488, 
			 "total_energy": -1066.47171334, 
			 "HOMO_LUMO_gap": 0.19031, 
			 "cosmo_polarized_energy": -19.7, 
			 "cosmo_cavitation_energy": 44.84, 
			 "cosmo_dispersion_energy": -31.76, 
			 "cosmo_repulsion_energy": 2.44, 
			 "cosmo_total_nonelectrostatic_energy": 15.52, 
			 "SMD_solvation_energy": 7.64 
		},
		"coords": [
			{
				"x": 0.8286291627,
				"y": 0.8787059005,
				"z": 1.559338256,
				"element": "N" 
			},
			{
				"x": -0.2181263502,
				"y": 0.1289375914,
				"z": 1.0862912962,
				"element": "C" 
			},
			{
				"x": 0.011237249,
				"y": -1.0752242215,
				"z": 0.451675221,
				"element": "C" 
			},
			{
				"x": 1.3683130745,
				"y": -1.4586808875,
				"z": 0.2256696361,
				"element": "N" 
			},
			{
				"x": 1.7356801407,
				"y": -1.6769705005,
				"z": -1.1827134157,
				"element": "C" 
			},
			{
				"x": 3.1906951285,
				"y": -2.138966848,
				"z": -1.2651915772,
				"element": "C" 
			},
			{
				"x": 3.6009459833,
				"y": -2.6026604583,
				"z": -2.6768949755,
				"element": "C" 
			},
			{
				"x": 3.3992232402,
				"y": -4.1259472706,
				"z": -2.6083544385,
				"element": "C" 
			},
			{
				"x": 3.7871409671,
				"y": -4.4191879751,
				"z": -1.1582441373,
				"element": "C" 
			},
			{
				"x": 3.3591392834,
				"y": -3.2825133598,
				"z": -0.4028864934,
				"element": "O" 
			},
			{
				"x": -1.1010269584,
				"y": -1.8967905175,
				"z": 0.0434010589,
				"element": "C" 
			},
			{
				"x": -1.0459189068,
				"y": -2.9963656582,
				"z": -0.500206353,
				"element": "O" 
			},
			{
				"x": -2.3642047829,
				"y": -1.3096682006,
				"z": 0.298363092,
				"element": "N" 
			},
			{
				"x": -2.6365101663,
				"y": -0.105170801,
				"z": 0.9001674043,
				"element": "C" 
			},
			{
				"x": -3.7731143377,
				"y": 0.3222264836,
				"z": 1.0588668873,
				"element": "O" 
			},
			{
				"x": -1.5019309442,
				"y": 0.6005716569,
				"z": 1.3295707011,
				"element": "N" 
			},
			{
				"x": -1.7318343174,
				"y": 1.8189578028,
				"z": 2.1274075989,
				"element": "C" 
			},
			{
				"x": -1.5067598901,
				"y": 3.1125339894,
				"z": 1.365077425,
				"element": "C" 
			},
			{
				"x": -2.2224214385,
				"y": 3.3761417306,
				"z": 0.1876807417,
				"element": "C" 
			},
			{
				"x": -2.0267310243,
				"y": 4.5711556243,
				"z": -0.5017988721,
				"element": "C" 
			},
			{
				"x": -1.1188426958,
				"y": 5.5216555748,
				"z": -0.0240596905,
				"element": "C" 
			},
			{
				"x": -0.4106739536,
				"y": 5.2724214626,
				"z": 1.1506315969,
				"element": "C" 
			},
			{
				"x": -0.6047619319,
				"y": 4.0720439094,
				"z": 1.8408568884,
				"element": "C" 
			},
			{
				"x": 0.7560934581,
				"y": 1.8831435858,
				"z": 1.4600960219,
				"element": "H" 
			},
			{
				"x": 1.7055030271,
				"y": 0.4695249861,
				"z": 1.2446266616,
				"element": "H" 
			},
			{
				"x": 1.5934083589,
				"y": -2.3158458478,
				"z": 0.7278231163,
				"element": "H" 
			},
			{
				"x": 1.627818828,
				"y": -0.7285624937,
				"z": -1.7241220431,
				"element": "H" 
			},
			{
				"x": 1.0821611035,
				"y": -2.4185390307,
				"z": -1.6623145409,
				"element": "H" 
			},
			{
				"x": 3.8422982648,
				"y": -1.3385512846,
				"z": -0.8892107728,
				"element": "H" 
			},
			{
				"x": 3.0072361161,
				"y": -2.1247981914,
				"z": -3.4618563487,
				"element": "H" 
			},
			{
				"x": 4.6539160568,
				"y": -2.3660963024,
				"z": -2.8638407615,
				"element": "H" 
			},
			{
				"x": 4.0085406162,
				"y": -4.6749112125,
				"z": -3.3319227393,
				"element": "H" 
			},
			{
				"x": 2.3492426264,
				"y": -4.384063853,
				"z": -2.7804161876,
				"element": "H" 
			},
			{
				"x": 4.8771939123,
				"y": -4.5452642102,
				"z": -1.0603682446,
				"element": "H" 
			},
			{
				"x": 3.3023173974,
				"y": -5.3090716777,
				"z": -0.7445060791,
				"element": "H" 
			},
			{
				"x": -3.1726108647,
				"y": -1.8395762945,
				"z": -0.0026563738,
				"element": "H" 
			},
			{
				"x": -1.0812920703,
				"y": 1.7737273323,
				"z": 3.0048979698,
				"element": "H" 
			},
			{
				"x": -2.7700923103,
				"y": 1.7537100167,
				"z": 2.4567424342,
				"element": "H" 
			},
			{
				"x": -2.9408483408,
				"y": 2.6450486799,
				"z": -0.1716760307,
				"element": "H" 
			},
			{
				"x": -2.587838552,
				"y": 4.7658883577,
				"z": -1.4113011241,
				"element": "H" 
			},
			{
				"x": -0.9696357913,
				"y": 6.4521788351,
				"z": -0.5639255209,
				"element": "H" 
			},
			{
				"x": 0.2916315236,
				"y": 6.0078118424,
				"z": 1.5325138321,
				"element": "H" 
			},
			{
				"x": -0.0592898912,
				"y": 3.8861417348,
				"z": 2.7641688804,
				"element": "H" 
			}
		],
		 "valence_orbital": [ 
			{
				"type": "occ",
				"energy": -0.25833,
				"method": "rhf"
			},
			{
				"type": "occ",
				"energy": -0.25486,
				"method": "rhf"
			},
			{
				"type": "occ",
				"energy": -0.24739,
				"method": "rhf"
			},
			{
				"type": "occ",
				"energy": -0.22813,
				"method": "rhf"
			},
			{
				"type": "occ",
				"energy": -0.20897,
				"method": "rhf"
			},
			{
				"type": "unocc",
				"energy": -0.01866,
				"method": "rhf"
			},
			{
				"type": "unocc",
				"energy": -0.01601,
				"method": "rhf"
			},
			{
				"type": "unocc",
				"energy": -0.00741,
				"method": "rhf"
			},
			{
				"type": "unocc",
				"energy": 0.02247,
				"method": "rhf"
			},
			{
				"type": "unocc",
				"energy": 0.0803,
				"method": "rhf"
			}
		],
		"cosmo_sigma_profile": { 
			"-0.025": 0.0,
			"-0.024": 0.0,
			"-0.023": 0.0,
			"-0.022": 0.0,
			"-0.021": 0.0,
			"-0.02": 0.0,
			"-0.019": 0.0,
			"-0.018": 0.0,
			"-0.017": 0.0,
			"-0.016": 0.0249509004926,
			"-0.015": 0.83637564584,
			"-0.014": 0.709576042134,
			"-0.013": 0.817087462489,
			"-0.012": 0.898793181847,
			"-0.011": 1.08648639001,
			"-0.01": 2.5687935219,
			"-0.009": 2.79579002367,
			"-0.008": 4.27406161666,
			"-0.007": 5.86780853051,
			"-0.006": 12.405088024,
			"-0.005": 14.913172379,
			"-0.004": 32.4900602432,
			"-0.003": 46.7573988558,
			"-0.002": 41.0154059374,
			"-0.001": 31.4357053635,
			"0.0": 27.4107762412,
			"0.001": 20.805015451,
			"0.002": 15.7317757344,
			"0.003": 13.1515246042,
			"0.004": 14.9949159585,
			"0.005": 13.7480764126,
			"0.006": 7.81978205409,
			"0.007": 5.17009375916,
			"0.008": 4.34453365299,
			"0.009": 4.34065688992,
			"0.01": 3.86327200127,
			"0.011": 4.03191568802,
			"0.012": 5.96631657827,
			"0.013": 6.80935286629,
			"0.014": 5.8631462262,
			"0.015": 0.72343369342,
			"0.016": 0.0,
			"0.017": 0.0,
			"0.018": 0.0,
			"0.019": 0.0,
			"0.02": 0.0,
			"0.021": 0.0,
			"0.022": 0.0,
			"0.023": 0.0,
			"0.024": 0.0,
			"0.025": 0.0
		}
	}
}
