{
	 "smiles": "CC1=CC(=CC=C1)C(O)C1=CC=CC=C1", 
	 "Tm": 326.15, 
	 "num_atms": 29, 
	 "gaussian": { 
		 "optdone": 1, 
		 "sigma_profile": "yes", 
		 "theory": "DFT", 
		 "functional": "B3LYP", 
		 "basiset": "6-31G**", 
		 "properties": { 
			 "R2extent": 4281.3893, 
			 "electric_dipole_moment_norm": 2.00776522034, 
			 "electric_quadrupole_moment_norm": 8.52807112482, 
			 "total_energy": -617.153134017, 
			 "HOMO_LUMO_gap": 0.22128, 
			 "cosmo_polarized_energy": -8.88, 
			 "cosmo_cavitation_energy": 32.3, 
			 "cosmo_dispersion_energy": -22.82, 
			 "cosmo_repulsion_energy": 1.81, 
			 "cosmo_total_nonelectrostatic_energy": 11.29, 
			 "SMD_solvation_energy": 5.43 
		},
		"coords": [
			{
				"x": -2.0986485727,
				"y": 4.1306489837,
				"z": -1.5611886615,
				"element": "C" 
			},
			{
				"x": -1.576860912,
				"y": 2.9061955292,
				"z": -0.8455304807,
				"element": "C" 
			},
			{
				"x": -0.2068506594,
				"y": 2.6025254321,
				"z": -0.8545753672,
				"element": "C" 
			},
			{
				"x": 0.3019489,
				"y": 1.4892212931,
				"z": -0.1817882787,
				"element": "C" 
			},
			{
				"x": -0.5771477657,
				"y": 0.6608026957,
				"z": 0.5305625615,
				"element": "C" 
			},
			{
				"x": -1.9384545549,
				"y": 0.9500293186,
				"z": 0.5520932487,
				"element": "C" 
			},
			{
				"x": -2.435591224,
				"y": 2.0621013242,
				"z": -0.1340076699,
				"element": "C" 
			},
			{
				"x": 1.7949269112,
				"y": 1.1801097688,
				"z": -0.2036411161,
				"element": "C" 
			},
			{
				"x": 2.30111757,
				"y": 0.9984843173,
				"z": 1.1172709562,
				"element": "O" 
			},
			{
				"x": 2.1198973538,
				"y": -0.071309667,
				"z": -1.0123832572,
				"element": "C" 
			},
			{
				"x": 1.8583959576,
				"y": -0.091817436,
				"z": -2.3889704588,
				"element": "C" 
			},
			{
				"x": 2.1496062861,
				"y": -1.2215906088,
				"z": -3.1508330017,
				"element": "C" 
			},
			{
				"x": 2.7083868107,
				"y": -2.3503511459,
				"z": -2.5451685301,
				"element": "C" 
			},
			{
				"x": 2.972951284,
				"y": -2.3348826569,
				"z": -1.1761574957,
				"element": "C" 
			},
			{
				"x": 2.6823189843,
				"y": -1.2014448196,
				"z": -0.4118172659,
				"element": "C" 
			},
			{
				"x": -1.5950936501,
				"y": 4.2788668037,
				"z": -2.5219429904,
				"element": "H" 
			},
			{
				"x": -1.93428827,
				"y": 5.0387144816,
				"z": -0.9674995465,
				"element": "H" 
			},
			{
				"x": -3.1731131729,
				"y": 4.0547535427,
				"z": -1.7510125103,
				"element": "H" 
			},
			{
				"x": 0.4771609797,
				"y": 3.2527867135,
				"z": -1.3977669092,
				"element": "H" 
			},
			{
				"x": -0.1854269086,
				"y": -0.2039283238,
				"z": 1.0574683656,
				"element": "H" 
			},
			{
				"x": -2.6206920366,
				"y": 0.3052006364,
				"z": 1.099301669,
				"element": "H" 
			},
			{
				"x": -3.5013913298,
				"y": 2.2761933443,
				"z": -0.1146538389,
				"element": "H" 
			},
			{
				"x": 2.3053154015,
				"y": 2.0309062317,
				"z": -0.6855193174,
				"element": "H" 
			},
			{
				"x": 1.9486660252,
				"y": 1.7154524407,
				"z": 1.6594595003,
				"element": "H" 
			},
			{
				"x": 1.416512106,
				"y": 0.7800720639,
				"z": -2.8652051646,
				"element": "H" 
			},
			{
				"x": 1.9403974487,
				"y": -1.2217835981,
				"z": -4.217034567,
				"element": "H" 
			},
			{
				"x": 2.936424123,
				"y": -3.2319038485,
				"z": -3.1376498308,
				"element": "H" 
			},
			{
				"x": 3.4104643819,
				"y": -3.2065928831,
				"z": -0.696946377,
				"element": "H" 
			},
			{
				"x": 2.8959685327,
				"y": -1.1828599335,
				"z": 0.6502363343,
				"element": "H" 
			}
		],
		 "valence_orbital": [ 
			{
				"type": "occ",
				"energy": -0.2816,
				"method": "rhf"
			},
			{
				"type": "occ",
				"energy": -0.24794,
				"method": "rhf"
			},
			{
				"type": "occ",
				"energy": -0.24154,
				"method": "rhf"
			},
			{
				"type": "occ",
				"energy": -0.23999,
				"method": "rhf"
			},
			{
				"type": "occ",
				"energy": -0.22999,
				"method": "rhf"
			},
			{
				"type": "unocc",
				"energy": -0.00871,
				"method": "rhf"
			},
			{
				"type": "unocc",
				"energy": -0.00384,
				"method": "rhf"
			},
			{
				"type": "unocc",
				"energy": 0.00645,
				"method": "rhf"
			},
			{
				"type": "unocc",
				"energy": 0.01427,
				"method": "rhf"
			},
			{
				"type": "unocc",
				"energy": 0.08992,
				"method": "rhf"
			}
		],
		"cosmo_sigma_profile": { 
			"-0.025": 0.0,
			"-0.024": 0.0,
			"-0.023": 0.0,
			"-0.022": 0.0,
			"-0.021": 0.0,
			"-0.02": 0.0,
			"-0.019": 0.0,
			"-0.018": 0.0,
			"-0.017": 0.0,
			"-0.016": 0.132009448796,
			"-0.015": 0.72503190575,
			"-0.014": 1.02664628218,
			"-0.013": 0.595349570672,
			"-0.012": 0.85160496308,
			"-0.011": 0.839616454509,
			"-0.01": 0.611843518192,
			"-0.009": 0.796611585459,
			"-0.008": 0.734557959066,
			"-0.007": 1.32344290326,
			"-0.006": 3.46589188291,
			"-0.005": 18.8304221154,
			"-0.004": 27.5273564113,
			"-0.003": 26.4643392213,
			"-0.002": 21.3712425951,
			"-0.001": 20.766931554,
			"0.0": 21.5765322242,
			"0.001": 15.8361672762,
			"0.002": 14.9117788456,
			"0.003": 14.8043683975,
			"0.004": 15.5278525395,
			"0.005": 19.4959785671,
			"0.006": 16.4762500059,
			"0.007": 4.69854696024,
			"0.008": 1.20149816174,
			"0.009": 1.57812510933,
			"0.01": 1.70964936458,
			"0.011": 0.942409568683,
			"0.012": 0.707096813237,
			"0.013": 0.651152622018,
			"0.014": 0.0332216362806,
			"0.015": 0.0,
			"0.016": 0.0,
			"0.017": 0.0,
			"0.018": 0.0,
			"0.019": 0.0,
			"0.02": 0.0,
			"0.021": 0.0,
			"0.022": 0.0,
			"0.023": 0.0,
			"0.024": 0.0,
			"0.025": 0.0
		}
	}
}
