{
	 "smiles": "COC1=CC2=C(C(OC(C)=O)=C1)C(=O)C(O[C@@H]1O[C@H](COC(C)=O)C(OC(C)=O)[C@H](OC(C)=O)C1O[C@@H]1OC(C)[C@H](OC(C)=O)C(OC(C)=O)C1OC(C)=O)=C(O2)C1=CC=C(OC(C)=O)C=C1", 
	 "Tm": 392.15, 
	 "num_atms": 115, 
	 "gaussian": { 
		 "optdone": 1, 
		 "sigma_profile": "yes", 
		 "theory": "DFT", 
		 "functional": "B3LYP", 
		 "basiset": "6-31G**", 
		 "properties": { 
			 "R2extent": 56499.1809, 
			 "electric_dipole_moment_norm": 5.24789778197, 
			 "electric_quadrupole_moment_norm": 51.4385042496, 
			 "total_energy": -3435.80163586, 
			 "HOMO_LUMO_gap": 0.1597, 
			 "cosmo_polarized_energy": -50.19, 
			 "cosmo_cavitation_energy": 116.82, 
			 "cosmo_dispersion_energy": -65.17, 
			 "cosmo_repulsion_energy": 4.83, 
			 "cosmo_total_nonelectrostatic_energy": 56.47, 
			 "SMD_solvation_energy": 27.6 
		},
		"coords": [
			{
				"x": 4.4490012222,
				"y": 8.1539721995,
				"z": 1.0885733577,
				"element": "C" 
			},
			{
				"x": 3.1513623723,
				"y": 8.2659860459,
				"z": 0.5162480644,
				"element": "O" 
			},
			{
				"x": 2.3479902694,
				"y": 7.1750785346,
				"z": 0.521515122,
				"element": "C" 
			},
			{
				"x": 2.6977755147,
				"y": 5.9390370052,
				"z": 1.0569229261,
				"element": "C" 
			},
			{
				"x": 1.7617728207,
				"y": 4.9007472822,
				"z": 0.9946449795,
				"element": "C" 
			},
			{
				"x": 0.4899777383,
				"y": 5.0334175516,
				"z": 0.4206157791,
				"element": "C" 
			},
			{
				"x": 0.1817121394,
				"y": 6.3133296701,
				"z": -0.1131249906,
				"element": "C" 
			},
			{
				"x": -1.071468386,
				"y": 6.5817289914,
				"z": -0.6290565321,
				"element": "O" 
			},
			{
				"x": -1.417978942,
				"y": 6.0268793802,
				"z": -1.8456751829,
				"element": "C" 
			},
			{
				"x": -2.891135776,
				"y": 6.2063772249,
				"z": -2.076401656,
				"element": "C" 
			},
			{
				"x": -0.6172789841,
				"y": 5.5105425575,
				"z": -2.5820476666,
				"element": "O" 
			},
			{
				"x": 1.0808849615,
				"y": 7.3566985953,
				"z": -0.0688170625,
				"element": "C" 
			},
			{
				"x": -0.4364802186,
				"y": 3.8855560734,
				"z": 0.4300352841,
				"element": "C" 
			},
			{
				"x": -1.6061410423,
				"y": 3.9469513775,
				"z": 0.0500769665,
				"element": "O" 
			},
			{
				"x": 0.1478109812,
				"y": 2.6374628394,
				"z": 0.9540602151,
				"element": "C" 
			},
			{
				"x": -0.6173910454,
				"y": 1.493821957,
				"z": 0.9091227034,
				"element": "O" 
			},
			{
				"x": -0.3914481133,
				"y": 0.628142402,
				"z": -0.2193599237,
				"element": "C" 
			},
			{
				"x": -1.0947991817,
				"y": 1.0303578863,
				"z": -1.3489883527,
				"element": "O" 
			},
			{
				"x": -2.5084781923,
				"y": 0.7754293567,
				"z": -1.424371942,
				"element": "C" 
			},
			{
				"x": -3.2510684216,
				"y": 2.0777751852,
				"z": -1.7238449379,
				"element": "C" 
			},
			{
				"x": -2.6391921124,
				"y": 2.7992869569,
				"z": -2.8050870396,
				"element": "O" 
			},
			{
				"x": -2.9000104909,
				"y": 2.3759387856,
				"z": -4.0615809904,
				"element": "C" 
			},
			{
				"x": -2.1562400099,
				"y": 3.21241708,
				"z": -5.0769056384,
				"element": "C" 
			},
			{
				"x": -3.6365566142,
				"y": 1.4465082373,
				"z": -4.3223359661,
				"element": "O" 
			},
			{
				"x": -3.0638613095,
				"y": 0.1085567957,
				"z": -0.1531700133,
				"element": "C" 
			},
			{
				"x": -4.4052086671,
				"y": -0.3043155867,
				"z": -0.495625175,
				"element": "O" 
			},
			{
				"x": -5.3543130474,
				"y": -0.3024828124,
				"z": 0.4756595386,
				"element": "C" 
			},
			{
				"x": -6.6815390987,
				"y": -0.7406368142,
				"z": -0.0932940408,
				"element": "C" 
			},
			{
				"x": -5.1509350368,
				"y": 0.0097009406,
				"z": 1.6279103052,
				"element": "O" 
			},
			{
				"x": -2.2245434967,
				"y": -1.1322879114,
				"z": 0.1503191969,
				"element": "C" 
			},
			{
				"x": -2.750169181,
				"y": -1.8984111306,
				"z": 1.2550812713,
				"element": "O" 
			},
			{
				"x": -2.6478429928,
				"y": -1.427802786,
				"z": 2.5285086738,
				"element": "C" 
			},
			{
				"x": -3.4709627258,
				"y": -2.270452709,
				"z": 3.4677781398,
				"element": "C" 
			},
			{
				"x": -1.9976589106,
				"y": -0.4579055696,
				"z": 2.8464155961,
				"element": "O" 
			},
			{
				"x": -0.7104657737,
				"y": -0.8135346851,
				"z": 0.2259840302,
				"element": "C" 
			},
			{
				"x": 0.0164272226,
				"y": -1.6390039535,
				"z": -0.6997886219,
				"element": "O" 
			},
			{
				"x": 0.1191815133,
				"y": -2.9920098592,
				"z": -0.3528613366,
				"element": "C" 
			},
			{
				"x": 0.7589890124,
				"y": -3.0884156414,
				"z": 0.9131775501,
				"element": "O" 
			},
			{
				"x": 1.5198257863,
				"y": -4.2927140065,
				"z": 1.1042778904,
				"element": "C" 
			},
			{
				"x": 1.8345840914,
				"y": -4.413752773,
				"z": 2.5864017094,
				"element": "C" 
			},
			{
				"x": 2.7592984245,
				"y": -4.2791389662,
				"z": 0.1890073161,
				"element": "C" 
			},
			{
				"x": 3.8189714219,
				"y": -3.5308822589,
				"z": 0.8353250088,
				"element": "O" 
			},
			{
				"x": 5.0974866673,
				"y": -3.9309665813,
				"z": 0.633023064,
				"element": "C" 
			},
			{
				"x": 6.0544736969,
				"y": -3.0150566705,
				"z": 1.3583091764,
				"element": "C" 
			},
			{
				"x": 5.419668376,
				"y": -4.8797442856,
				"z": -0.04872522,
				"element": "O" 
			},
			{
				"x": 2.407020172,
				"y": -3.5547085829,
				"z": -1.1205648176,
				"element": "C" 
			},
			{
				"x": 3.3401357787,
				"y": -3.793564833,
				"z": -2.1913290097,
				"element": "O" 
			},
			{
				"x": 3.633486921,
				"y": -5.0539495349,
				"z": -2.6078247866,
				"element": "C" 
			},
			{
				"x": 4.7993467064,
				"y": -5.026165254,
				"z": -3.5612660992,
				"element": "C" 
			},
			{
				"x": 3.0544596193,
				"y": -6.0520812654,
				"z": -2.2395358003,
				"element": "O" 
			},
			{
				"x": 0.9236373837,
				"y": -3.6692094599,
				"z": -1.4860730681,
				"element": "C" 
			},
			{
				"x": 0.4551585766,
				"y": -5.0228071188,
				"z": -1.5849527296,
				"element": "O" 
			},
			{
				"x": 0.2771352198,
				"y": -5.5330608149,
				"z": -2.8407682871,
				"element": "C" 
			},
			{
				"x": -0.0804850764,
				"y": -6.9925478331,
				"z": -2.7675980622,
				"element": "C" 
			},
			{
				"x": 0.412471087,
				"y": -4.8833972817,
				"z": -3.8507905574,
				"element": "O" 
			},
			{
				"x": 1.3732860282,
				"y": 2.616886788,
				"z": 1.5559880725,
				"element": "C" 
			},
			{
				"x": 2.1659685778,
				"y": 3.7310727071,
				"z": 1.5690522779,
				"element": "O" 
			},
			{
				"x": 2.0208422023,
				"y": 1.4974962607,
				"z": 2.265639555,
				"element": "C" 
			},
			{
				"x": 1.2693140459,
				"y": 0.5437876401,
				"z": 2.9750218449,
				"element": "C" 
			},
			{
				"x": 1.9132758527,
				"y": -0.4648369588,
				"z": 3.6856887867,
				"element": "C" 
			},
			{
				"x": 3.3048618595,
				"y": -0.5287478525,
				"z": 3.6951268988,
				"element": "C" 
			},
			{
				"x": 3.8779031348,
				"y": -1.6105088335,
				"z": 4.3678023041,
				"element": "O" 
			},
			{
				"x": 4.8610715086,
				"y": -1.3987736164,
				"z": 5.3089883592,
				"element": "C" 
			},
			{
				"x": 5.2576021144,
				"y": -2.7136523344,
				"z": 5.9316403116,
				"element": "C" 
			},
			{
				"x": 5.3143589364,
				"y": -0.3161478126,
				"z": 5.5792922954,
				"element": "O" 
			},
			{
				"x": 4.0714951831,
				"y": 0.4078922626,
				"z": 3.0030237448,
				"element": "C" 
			},
			{
				"x": 3.4247427865,
				"y": 1.4175671933,
				"z": 2.2978647968,
				"element": "C" 
			},
			{
				"x": 4.9126036436,
				"y": 9.1339549335,
				"z": 0.971591442,
				"element": "H" 
			},
			{
				"x": 4.3960022101,
				"y": 7.9017140306,
				"z": 2.154638194,
				"element": "H" 
			},
			{
				"x": 5.0526343872,
				"y": 7.4014636482,
				"z": 0.5667972925,
				"element": "H" 
			},
			{
				"x": 3.6522990744,
				"y": 5.7476648916,
				"z": 1.5280709028,
				"element": "H" 
			},
			{
				"x": -3.1938963627,
				"y": 7.2322615566,
				"z": -1.8514083348,
				"element": "H" 
			},
			{
				"x": -3.4198274114,
				"y": 5.5389933535,
				"z": -1.3907906806,
				"element": "H" 
			},
			{
				"x": -3.1376205239,
				"y": 5.9492945079,
				"z": -3.1053119437,
				"element": "H" 
			},
			{
				"x": 0.8166012815,
				"y": 8.321709908,
				"z": -0.4835031916,
				"element": "H" 
			},
			{
				"x": 0.6639331064,
				"y": 0.6763257373,
				"z": -0.5010117654,
				"element": "H" 
			},
			{
				"x": -2.6583554587,
				"y": 0.0846266466,
				"z": -2.2626202442,
				"element": "H" 
			},
			{
				"x": -4.2891709454,
				"y": 1.8450341885,
				"z": -1.9725437148,
				"element": "H" 
			},
			{
				"x": -3.1766869204,
				"y": 2.7487483017,
				"z": -0.8707678686,
				"element": "H" 
			},
			{
				"x": -2.8758986643,
				"y": 3.6446685315,
				"z": -5.7784040061,
				"element": "H" 
			},
			{
				"x": -1.4976362574,
				"y": 2.5565374793,
				"z": -5.6538526267,
				"element": "H" 
			},
			{
				"x": -1.5698462207,
				"y": 3.9965206444,
				"z": -4.5966381608,
				"element": "H" 
			},
			{
				"x": -3.0884762794,
				"y": 0.7946974263,
				"z": 0.6949408308,
				"element": "H" 
			},
			{
				"x": -6.9643848328,
				"y": -0.0964116606,
				"z": -0.9305531883,
				"element": "H" 
			},
			{
				"x": -7.4414990898,
				"y": -0.6994732777,
				"z": 0.6861961701,
				"element": "H" 
			},
			{
				"x": -6.5997832528,
				"y": -1.7601178357,
				"z": -0.4820108575,
				"element": "H" 
			},
			{
				"x": -2.3681654109,
				"y": -1.8094755445,
				"z": -0.6962251275,
				"element": "H" 
			},
			{
				"x": -3.1091228603,
				"y": -2.1381449791,
				"z": 4.4875864081,
				"element": "H" 
			},
			{
				"x": -4.5051278295,
				"y": -1.9159520288,
				"z": 3.4082084841,
				"element": "H" 
			},
			{
				"x": -3.450628755,
				"y": -3.3238593964,
				"z": 3.1811572439,
				"element": "H" 
			},
			{
				"x": -0.3298685746,
				"y": -0.9641255105,
				"z": 1.2328169784,
				"element": "H" 
			},
			{
				"x": -0.872636456,
				"y": -3.4681952656,
				"z": -0.289866001,
				"element": "H" 
			},
			{
				"x": 0.9139647158,
				"y": -5.1523107868,
				"z": 0.7902024309,
				"element": "H" 
			},
			{
				"x": 2.417972415,
				"y": -3.5594129236,
				"z": 2.9332258093,
				"element": "H" 
			},
			{
				"x": 0.9024588711,
				"y": -4.464410247,
				"z": 3.1551498962,
				"element": "H" 
			},
			{
				"x": 2.406614408,
				"y": -5.3273247338,
				"z": 2.7772472408,
				"element": "H" 
			},
			{
				"x": 3.1065096541,
				"y": -5.2946514147,
				"z": 0.0027879483,
				"element": "H" 
			},
			{
				"x": 5.6438915093,
				"y": -2.7121165587,
				"z": 2.3236646912,
				"element": "H" 
			},
			{
				"x": 7.0155843517,
				"y": -3.5150655943,
				"z": 1.4790478641,
				"element": "H" 
			},
			{
				"x": 6.2012388135,
				"y": -2.1086528019,
				"z": 0.7610274581,
				"element": "H" 
			},
			{
				"x": 2.5441544972,
				"y": -2.4881692485,
				"z": -0.9197488025,
				"element": "H" 
			},
			{
				"x": 4.8357589853,
				"y": -5.962864553,
				"z": -4.1170932339,
				"element": "H" 
			},
			{
				"x": 4.7319971272,
				"y": -4.1748276075,
				"z": -4.2416509268,
				"element": "H" 
			},
			{
				"x": 5.7151876872,
				"y": -4.9222865881,
				"z": -2.9699794979,
				"element": "H" 
			},
			{
				"x": 0.7297815113,
				"y": -3.152381927,
				"z": -2.4271011993,
				"element": "H" 
			},
			{
				"x": -0.7828282659,
				"y": -7.1868685765,
				"z": -1.9538401032,
				"element": "H" 
			},
			{
				"x": 0.84006371,
				"y": -7.5483384395,
				"z": -2.5635891803,
				"element": "H" 
			},
			{
				"x": -0.4967554134,
				"y": -7.3149015444,
				"z": -3.7218175405,
				"element": "H" 
			},
			{
				"x": 0.1871493201,
				"y": 0.59186801,
				"z": 2.9817607188,
				"element": "H" 
			},
			{
				"x": 1.3410729123,
				"y": -1.2012527254,
				"z": 4.2390135664,
				"element": "H" 
			},
			{
				"x": 6.0545596484,
				"y": -2.5438116931,
				"z": 6.6545394396,
				"element": "H" 
			},
			{
				"x": 5.5928763557,
				"y": -3.4137082627,
				"z": 5.1609119649,
				"element": "H" 
			},
			{
				"x": 4.3939298863,
				"y": -3.1661073173,
				"z": 6.4278283559,
				"element": "H" 
			},
			{
				"x": 5.1527294423,
				"y": 0.355505833,
				"z": 3.0249473425,
				"element": "H" 
			},
			{
				"x": 4.0138311805,
				"y": 2.1560000385,
				"z": 1.7662119164,
				"element": "H" 
			}
		],
		 "valence_orbital": [ 
			{
				"type": "occ",
				"energy": -0.25356,
				"method": "rhf"
			},
			{
				"type": "occ",
				"energy": -0.25013,
				"method": "rhf"
			},
			{
				"type": "occ",
				"energy": -0.24196,
				"method": "rhf"
			},
			{
				"type": "occ",
				"energy": -0.23793,
				"method": "rhf"
			},
			{
				"type": "occ",
				"energy": -0.22442,
				"method": "rhf"
			},
			{
				"type": "unocc",
				"energy": -0.06472,
				"method": "rhf"
			},
			{
				"type": "unocc",
				"energy": -0.02967,
				"method": "rhf"
			},
			{
				"type": "unocc",
				"energy": -0.01527,
				"method": "rhf"
			},
			{
				"type": "unocc",
				"energy": -0.01229,
				"method": "rhf"
			},
			{
				"type": "unocc",
				"energy": -0.00416,
				"method": "rhf"
			}
		],
		"cosmo_sigma_profile": { 
			"-0.025": 0.0,
			"-0.024": 0.0,
			"-0.023": 0.0,
			"-0.022": 0.0,
			"-0.021": 0.0,
			"-0.02": 0.0,
			"-0.019": 0.0,
			"-0.018": 0.0,
			"-0.017": 0.0,
			"-0.016": 0.0,
			"-0.015": 0.0,
			"-0.014": 0.0,
			"-0.013": 0.0,
			"-0.012": 0.0,
			"-0.011": 0.0,
			"-0.01": 0.0220414786843,
			"-0.009": 1.36780325219,
			"-0.008": 6.03752196169,
			"-0.007": 22.0009781034,
			"-0.006": 57.6913840163,
			"-0.005": 77.1086153232,
			"-0.004": 85.8126323685,
			"-0.003": 87.9039726233,
			"-0.002": 101.431568414,
			"-0.001": 73.101878228,
			"0.0": 56.046812922,
			"0.001": 57.1460556636,
			"0.002": 52.5443143974,
			"0.003": 42.2606665913,
			"0.004": 30.6383184092,
			"0.005": 27.5149394153,
			"0.006": 24.845145764,
			"0.007": 21.7667920013,
			"0.008": 19.4104078992,
			"0.009": 21.1071670596,
			"0.01": 20.9582494759,
			"0.011": 23.0729560229,
			"0.012": 12.6791426587,
			"0.013": 2.00565499901,
			"0.014": 0.0339593278519,
			"0.015": 0.0,
			"0.016": 0.0,
			"0.017": 0.0,
			"0.018": 0.0,
			"0.019": 0.0,
			"0.02": 0.0,
			"0.021": 0.0,
			"0.022": 0.0,
			"0.023": 0.0,
			"0.024": 0.0,
			"0.025": 0.0
		}
	}
}
