{
	 "smiles": "CC1CCC2=C(C1)SC1=C2C(=O)N(C(S)=N1)C1=C(C)C=CC=C1", 
	 "Tm": 504.15, 
	 "num_atms": 41, 
	 "gaussian": { 
		 "optdone": 1, 
		 "sigma_profile": "yes", 
		 "theory": "DFT", 
		 "functional": "B3LYP", 
		 "basiset": "6-31G**", 
		 "properties": { 
			 "R2extent": 10852.52, 
			 "electric_dipole_moment_norm": 1.92543362908, 
			 "electric_quadrupole_moment_norm": 23.9126351367, 
			 "total_energy": -1677.90209337, 
			 "HOMO_LUMO_gap": 0.16323, 
			 "cosmo_polarized_energy": -12.47, 
			 "cosmo_cavitation_energy": 45.51, 
			 "cosmo_dispersion_energy": -32.57, 
			 "cosmo_repulsion_energy": 2.38, 
			 "cosmo_total_nonelectrostatic_energy": 15.32, 
			 "SMD_solvation_energy": 4.85 
		},
		"coords": [
			{
				"x": -2.2330184147,
				"y": -3.0472335203,
				"z": -4.7502197593,
				"element": "C" 
			},
			{
				"x": -1.8466506225,
				"y": -2.2421163128,
				"z": -3.505298085,
				"element": "C" 
			},
			{
				"x": -0.3549727064,
				"y": -1.8631791734,
				"z": -3.4995909079,
				"element": "C" 
			},
			{
				"x": 0.0710736593,
				"y": -1.1859433584,
				"z": -2.1869778417,
				"element": "C" 
			},
			{
				"x": -0.9237867189,
				"y": -0.1328986288,
				"z": -1.7646222771,
				"element": "C" 
			},
			{
				"x": -2.1765639074,
				"y": -0.0600533212,
				"z": -2.3089212085,
				"element": "C" 
			},
			{
				"x": -2.7157528463,
				"y": -0.9723079732,
				"z": -3.3751841016,
				"element": "C" 
			},
			{
				"x": -3.1326570439,
				"y": 1.2572551996,
				"z": -1.6353026088,
				"element": "S" 
			},
			{
				"x": -1.810041305,
				"y": 1.7203608223,
				"z": -0.5925035702,
				"element": "C" 
			},
			{
				"x": -0.7101937329,
				"y": 0.8896219376,
				"z": -0.7742025907,
				"element": "C" 
			},
			{
				"x": 0.4731508388,
				"y": 1.1364722384,
				"z": 0.0129937538,
				"element": "C" 
			},
			{
				"x": 1.519729187,
				"y": 0.5023004072,
				"z": 0.0026754237,
				"element": "O" 
			},
			{
				"x": 0.3419997115,
				"y": 2.2783416974,
				"z": 0.8943403525,
				"element": "N" 
			},
			{
				"x": -0.8345329274,
				"y": 3.0030447988,
				"z": 0.9829669551,
				"element": "C" 
			},
			{
				"x": -1.0248998141,
				"y": 4.3551010504,
				"z": 2.1264568684,
				"element": "S" 
			},
			{
				"x": -1.8987677741,
				"y": 2.7591259423,
				"z": 0.2733676321,
				"element": "N" 
			},
			{
				"x": 1.5250757595,
				"y": 2.6243123249,
				"z": 1.6525917959,
				"element": "C" 
			},
			{
				"x": 1.8295625541,
				"y": 1.9304786244,
				"z": 2.8365274243,
				"element": "C" 
			},
			{
				"x": 0.9621804839,
				"y": 0.8027566446,
				"z": 3.3338174221,
				"element": "C" 
			},
			{
				"x": 2.9867585752,
				"y": 2.314404502,
				"z": 3.5258012163,
				"element": "C" 
			},
			{
				"x": 3.8141106466,
				"y": 3.3347774153,
				"z": 3.0554583014,
				"element": "C" 
			},
			{
				"x": 3.5013127835,
				"y": 3.9986559952,
				"z": 1.8691641994,
				"element": "C" 
			},
			{
				"x": 2.3545215174,
				"y": 3.6363507086,
				"z": 1.16443052,
				"element": "C" 
			},
			{
				"x": -2.0300084342,
				"y": -2.4773508783,
				"z": -5.6650033141,
				"element": "H" 
			},
			{
				"x": -1.6649571784,
				"y": -3.9817580759,
				"z": -4.8076484083,
				"element": "H" 
			},
			{
				"x": -3.2984541671,
				"y": -3.3030312681,
				"z": -4.7472012747,
				"element": "H" 
			},
			{
				"x": -2.036661602,
				"y": -2.8640201659,
				"z": -2.6180482521,
				"element": "H" 
			},
			{
				"x": 0.257964888,
				"y": -2.7563713606,
				"z": -3.6683392763,
				"element": "H" 
			},
			{
				"x": -0.159838621,
				"y": -1.1857199751,
				"z": -4.3429575183,
				"element": "H" 
			},
			{
				"x": 0.1622102244,
				"y": -1.9352991341,
				"z": -1.3883318102,
				"element": "H" 
			},
			{
				"x": 1.0665229889,
				"y": -0.7415315715,
				"z": -2.2774142946,
				"element": "H" 
			},
			{
				"x": -2.739000845,
				"y": -0.4462431967,
				"z": -4.3419510134,
				"element": "H" 
			},
			{
				"x": -3.7545118348,
				"y": -1.2525280221,
				"z": -3.1584077929,
				"element": "H" 
			},
			{
				"x": 0.2144522912,
				"y": 4.3161011728,
				"z": 2.6490812412,
				"element": "H" 
			},
			{
				"x": 1.2911340536,
				"y": 0.4649702928,
				"z": 4.31949672,
				"element": "H" 
			},
			{
				"x": 1.0161717622,
				"y": -0.0462487795,
				"z": 2.6441682782,
				"element": "H" 
			},
			{
				"x": -0.0894088695,
				"y": 1.0988847108,
				"z": 3.4094863193,
				"element": "H" 
			},
			{
				"x": 3.2425152691,
				"y": 1.7960222874,
				"z": 4.445873483,
				"element": "H" 
			},
			{
				"x": 4.704642647,
				"y": 3.6071395398,
				"z": 3.6142735836,
				"element": "H" 
			},
			{
				"x": 4.1438298283,
				"y": 4.7876319959,
				"z": 1.491139383,
				"element": "H" 
			},
			{
				"x": 2.0912596961,
				"y": 4.1328244075,
				"z": 0.2356150325,
				"element": "H" 
			}
		],
		 "valence_orbital": [ 
			{
				"type": "occ",
				"energy": -0.26439,
				"method": "rhf"
			},
			{
				"type": "occ",
				"energy": -0.26096,
				"method": "rhf"
			},
			{
				"type": "occ",
				"energy": -0.25492,
				"method": "rhf"
			},
			{
				"type": "occ",
				"energy": -0.24842,
				"method": "rhf"
			},
			{
				"type": "occ",
				"energy": -0.20418,
				"method": "rhf"
			},
			{
				"type": "unocc",
				"energy": -0.04095,
				"method": "rhf"
			},
			{
				"type": "unocc",
				"energy": -0.02413,
				"method": "rhf"
			},
			{
				"type": "unocc",
				"energy": -0.01497,
				"method": "rhf"
			},
			{
				"type": "unocc",
				"energy": -0.00485,
				"method": "rhf"
			},
			{
				"type": "unocc",
				"energy": 0.01306,
				"method": "rhf"
			}
		],
		"cosmo_sigma_profile": { 
			"-0.025": 0.0,
			"-0.024": 0.0,
			"-0.023": 0.0,
			"-0.022": 0.0,
			"-0.021": 0.0,
			"-0.02": 0.0,
			"-0.019": 0.0,
			"-0.018": 0.0,
			"-0.017": 0.0,
			"-0.016": 0.0,
			"-0.015": 0.0,
			"-0.014": 0.0,
			"-0.013": 0.0,
			"-0.012": 0.0619097225622,
			"-0.011": 0.598164984641,
			"-0.01": 0.756029087949,
			"-0.009": 1.18244762558,
			"-0.008": 0.951258004526,
			"-0.007": 3.3192575013,
			"-0.006": 12.5199296431,
			"-0.005": 16.9742561387,
			"-0.004": 24.495177847,
			"-0.003": 36.6846921085,
			"-0.002": 45.1579516805,
			"-0.001": 40.0259858564,
			"0.0": 38.1465463709,
			"0.001": 34.0161669974,
			"0.002": 29.3799602504,
			"0.003": 23.146463537,
			"0.004": 17.8949822361,
			"0.005": 10.7756002862,
			"0.006": 5.98809202887,
			"0.007": 4.21187557742,
			"0.008": 3.43554182471,
			"0.009": 2.58632240883,
			"0.01": 3.02481078827,
			"0.011": 3.08793099748,
			"0.012": 3.77249113922,
			"0.013": 2.99465467219,
			"0.014": 0.0722384272237,
			"0.015": 0.0,
			"0.016": 0.0,
			"0.017": 0.0,
			"0.018": 0.0,
			"0.019": 0.0,
			"0.02": 0.0,
			"0.021": 0.0,
			"0.022": 0.0,
			"0.023": 0.0,
			"0.024": 0.0,
			"0.025": 0.0
		}
	}
}
