{
	 "smiles": "CC(Cl)C(=O)NC1=C(Cl)C(C)=CC=C1Cl", 
	 "Tm": 423.15, 
	 "num_atms": 25, 
	 "gaussian": { 
		 "optdone": 1, 
		 "sigma_profile": "yes", 
		 "theory": "DFT", 
		 "functional": "B3LYP", 
		 "basiset": "6-31G**", 
		 "properties": { 
			 "R2extent": 4440.7082, 
			 "electric_dipole_moment_norm": 4.85384493469, 
			 "electric_quadrupole_moment_norm": 10.085234035, 
			 "total_energy": -1897.66375294, 
			 "HOMO_LUMO_gap": 0.21295, 
			 "cosmo_polarized_energy": -11.7, 
			 "cosmo_cavitation_energy": 33.82, 
			 "cosmo_dispersion_energy": -23.22, 
			 "cosmo_repulsion_energy": 1.82, 
			 "cosmo_total_nonelectrostatic_energy": 12.42, 
			 "SMD_solvation_energy": 5.81 
		},
		"coords": [
			{
				"x": -1.1874755347,
				"y": 3.5101794103,
				"z": -0.9241976048,
				"element": "C" 
			},
			{
				"x": -0.5832454357,
				"y": 2.1184506699,
				"z": -0.9249447889,
				"element": "C" 
			},
			{
				"x": -1.1171343819,
				"y": 1.1911816292,
				"z": -2.4184897325,
				"element": "Cl" 
			},
			{
				"x": 0.9515748097,
				"y": 2.1672414911,
				"z": -0.9512470937,
				"element": "C" 
			},
			{
				"x": 1.5532764472,
				"y": 3.1205162172,
				"z": -1.4125757023,
				"element": "O" 
			},
			{
				"x": 1.6398214688,
				"y": 1.0799972051,
				"z": -0.4446634646,
				"element": "N" 
			},
			{
				"x": 1.1365429966,
				"y": -0.1326511068,
				"z": 0.077572562,
				"element": "C" 
			},
			{
				"x": 1.2870652372,
				"y": -1.3390363502,
				"z": -0.6354740557,
				"element": "C" 
			},
			{
				"x": 2.0866733845,
				"y": -1.281187539,
				"z": -2.19409498,
				"element": "Cl" 
			},
			{
				"x": 0.8386486803,
				"y": -2.5742008391,
				"z": -0.1449750303,
				"element": "C" 
			},
			{
				"x": 1.0035144066,
				"y": -3.8507159501,
				"z": -0.9280163559,
				"element": "C" 
			},
			{
				"x": 0.2169109011,
				"y": -2.5741317092,
				"z": 1.1090406728,
				"element": "C" 
			},
			{
				"x": 0.065981288,
				"y": -1.4102640271,
				"z": 1.8564635971,
				"element": "C" 
			},
			{
				"x": 0.5399453058,
				"y": -0.2036924758,
				"z": 1.3498422857,
				"element": "C" 
			},
			{
				"x": 0.4066218844,
				"y": 1.2357903121,
				"z": 2.3431343684,
				"element": "Cl" 
			},
			{
				"x": -0.796256618,
				"y": 4.0939455807,
				"z": -1.758293126,
				"element": "H" 
			},
			{
				"x": -0.914361392,
				"y": 4.0186437125,
				"z": 0.0067110901,
				"element": "H" 
			},
			{
				"x": -2.2760893817,
				"y": 3.4541797489,
				"z": -0.9879458567,
				"element": "H" 
			},
			{
				"x": -0.9518559351,
				"y": 1.5231775028,
				"z": -0.0918612103,
				"element": "H" 
			},
			{
				"x": 2.6283915466,
				"y": 1.1161070947,
				"z": -0.6661326198,
				"element": "H" 
			},
			{
				"x": 2.0595607788,
				"y": -4.0639133299,
				"z": -1.1241355338,
				"element": "H" 
			},
			{
				"x": 0.506810808,
				"y": -3.786158215,
				"z": -1.9016280638,
				"element": "H" 
			},
			{
				"x": 0.5785297551,
				"y": -4.695141792,
				"z": -0.3805521682,
				"element": "H" 
			},
			{
				"x": -0.149345461,
				"y": -3.513518685,
				"z": 1.5123410298,
				"element": "H" 
			},
			{
				"x": -0.3993055586,
				"y": -1.4350985553,
				"z": 2.8350217816,
				"element": "H" 
			}
		],
		 "valence_orbital": [ 
			{
				"type": "occ",
				"energy": -0.29907,
				"method": "rhf"
			},
			{
				"type": "occ",
				"energy": -0.29199,
				"method": "rhf"
			},
			{
				"type": "occ",
				"energy": -0.26648,
				"method": "rhf"
			},
			{
				"type": "occ",
				"energy": -0.25849,
				"method": "rhf"
			},
			{
				"type": "occ",
				"energy": -0.25415,
				"method": "rhf"
			},
			{
				"type": "unocc",
				"energy": -0.0412,
				"method": "rhf"
			},
			{
				"type": "unocc",
				"energy": -0.0346,
				"method": "rhf"
			},
			{
				"type": "unocc",
				"energy": -0.01987,
				"method": "rhf"
			},
			{
				"type": "unocc",
				"energy": -0.00367,
				"method": "rhf"
			},
			{
				"type": "unocc",
				"energy": 0.04195,
				"method": "rhf"
			}
		],
		"cosmo_sigma_profile": { 
			"-0.025": 0.0,
			"-0.024": 0.0,
			"-0.023": 0.0,
			"-0.022": 0.0,
			"-0.021": 0.0,
			"-0.02": 0.0,
			"-0.019": 0.0,
			"-0.018": 0.0,
			"-0.017": 0.0,
			"-0.016": 0.0,
			"-0.015": 0.423289503518,
			"-0.014": 1.1174414434,
			"-0.013": 0.829930763856,
			"-0.012": 0.443803438921,
			"-0.011": 0.469871137657,
			"-0.01": 1.23043923804,
			"-0.009": 1.17752457754,
			"-0.008": 2.85770098111,
			"-0.007": 6.33338813084,
			"-0.006": 8.93610268558,
			"-0.005": 15.2222798358,
			"-0.004": 16.6788674248,
			"-0.003": 20.7699780281,
			"-0.002": 21.2063466699,
			"-0.001": 29.9842637323,
			"0.0": 26.9256955728,
			"0.001": 22.7461226889,
			"0.002": 24.8359384769,
			"0.003": 20.4248901367,
			"0.004": 19.2123689951,
			"0.005": 11.5887397563,
			"0.006": 6.47924171374,
			"0.007": 1.16765043654,
			"0.008": 1.36837384286,
			"0.009": 1.78722014245,
			"0.01": 1.54750511877,
			"0.011": 2.61837934291,
			"0.012": 5.33750945786,
			"0.013": 1.19839610072,
			"0.014": 0.0,
			"0.015": 0.0,
			"0.016": 0.0,
			"0.017": 0.0,
			"0.018": 0.0,
			"0.019": 0.0,
			"0.02": 0.0,
			"0.021": 0.0,
			"0.022": 0.0,
			"0.023": 0.0,
			"0.024": 0.0,
			"0.025": 0.0
		}
	}
}
