{
	 "smiles": "COC1=C(F)C=C(C=O)C=C1F", 
	 "Tm": 312.15, 
	 "num_atms": 18, 
	 "gaussian": { 
		 "optdone": 1, 
		 "sigma_profile": "yes", 
		 "theory": "DFT", 
		 "functional": "B3LYP", 
		 "basiset": "6-31G**", 
		 "properties": { 
			 "R2extent": 2639.456, 
			 "electric_dipole_moment_norm": 4.07715331328, 
			 "electric_quadrupole_moment_norm": 9.95452317391, 
			 "total_energy": -658.548896149, 
			 "HOMO_LUMO_gap": 0.17425, 
			 "cosmo_polarized_energy": -8.78, 
			 "cosmo_cavitation_energy": 23.89, 
			 "cosmo_dispersion_energy": -17.23, 
			 "cosmo_repulsion_energy": 1.32, 
			 "cosmo_total_nonelectrostatic_energy": 7.98, 
			 "SMD_solvation_energy": 6.99 
		},
		"coords": [
			{
				"x": -2.2132685132,
				"y": -1.7012446383,
				"z": 0.4366506056,
				"element": "C" 
			},
			{
				"x": -1.0804376117,
				"y": -1.255152113,
				"z": -0.3178492244,
				"element": "O" 
			},
			{
				"x": -0.0119392321,
				"y": -0.6926324601,
				"z": 0.2793831846,
				"element": "C" 
			},
			{
				"x": 0.1933008402,
				"y": -0.4483986692,
				"z": 1.6476986187,
				"element": "C" 
			},
			{
				"x": -0.76172301,
				"y": -0.7955235144,
				"z": 2.5444988041,
				"element": "F" 
			},
			{
				"x": 1.3539397907,
				"y": 0.1436631794,
				"z": 2.1237884236,
				"element": "C" 
			},
			{
				"x": 2.3633980324,
				"y": 0.5168823758,
				"z": 1.2321766444,
				"element": "C" 
			},
			{
				"x": 3.5993178084,
				"y": 1.1471622178,
				"z": 1.7374602069,
				"element": "C" 
			},
			{
				"x": 4.5276530889,
				"y": 1.5034613096,
				"z": 1.0366781864,
				"element": "O" 
			},
			{
				"x": 2.1959280912,
				"y": 0.2896127686,
				"z": -0.1435301211,
				"element": "C" 
			},
			{
				"x": 1.033579758,
				"y": -0.3000438904,
				"z": -0.5892917259,
				"element": "C" 
			},
			{
				"x": 0.8517094602,
				"y": -0.5270015276,
				"z": -1.9000226487,
				"element": "F" 
			},
			{
				"x": -1.9371186224,
				"y": -2.4853935795,
				"z": 1.1461807323,
				"element": "H" 
			},
			{
				"x": -2.687269987,
				"y": -0.8747686552,
				"z": 0.9721894936,
				"element": "H" 
			},
			{
				"x": -2.9021977486,
				"y": -2.1024969792,
				"z": -0.307209935,
				"element": "H" 
			},
			{
				"x": 1.4543988814,
				"y": 0.3064891888,
				"z": 3.1926545064,
				"element": "H" 
			},
			{
				"x": 3.6296171732,
				"y": 1.2811648229,
				"z": 2.841750828,
				"element": "H" 
			},
			{
				"x": 2.9734118005,
				"y": 0.5758201641,
				"z": -0.8426065794,
				"element": "H" 
			}
		],
		 "valence_orbital": [ 
			{
				"type": "occ",
				"energy": -0.349,
				"method": "rhf"
			},
			{
				"type": "occ",
				"energy": -0.33606,
				"method": "rhf"
			},
			{
				"type": "occ",
				"energy": -0.26365,
				"method": "rhf"
			},
			{
				"type": "occ",
				"energy": -0.2599,
				"method": "rhf"
			},
			{
				"type": "occ",
				"energy": -0.24067,
				"method": "rhf"
			},
			{
				"type": "unocc",
				"energy": -0.06642,
				"method": "rhf"
			},
			{
				"type": "unocc",
				"energy": -0.01449,
				"method": "rhf"
			},
			{
				"type": "unocc",
				"energy": 0.03944,
				"method": "rhf"
			},
			{
				"type": "unocc",
				"energy": 0.05131,
				"method": "rhf"
			},
			{
				"type": "unocc",
				"energy": 0.10421,
				"method": "rhf"
			}
		],
		"cosmo_sigma_profile": { 
			"-0.025": 0.0,
			"-0.024": 0.0,
			"-0.023": 0.0,
			"-0.022": 0.0,
			"-0.021": 0.0,
			"-0.02": 0.0,
			"-0.019": 0.0,
			"-0.018": 0.0,
			"-0.017": 0.0,
			"-0.016": 0.0,
			"-0.015": 0.0,
			"-0.014": 0.0,
			"-0.013": 0.0,
			"-0.012": 0.0,
			"-0.011": 0.0,
			"-0.01": 0.0,
			"-0.009": 1.78467658616,
			"-0.008": 3.7515153309,
			"-0.007": 5.18867623416,
			"-0.006": 12.0769861055,
			"-0.005": 13.6309450395,
			"-0.004": 13.6655931958,
			"-0.003": 13.000128634,
			"-0.002": 13.4258408337,
			"-0.001": 18.2118357894,
			"0.0": 18.3986309314,
			"0.001": 15.8724229888,
			"0.002": 9.12119433548,
			"0.003": 13.131837478,
			"0.004": 13.0494400514,
			"0.005": 3.94154845893,
			"0.006": 3.08863659381,
			"0.007": 3.63265894099,
			"0.008": 3.04891435137,
			"0.009": 3.63816954311,
			"0.01": 2.63101945237,
			"0.011": 4.18510721351,
			"0.012": 2.78937887808,
			"0.013": 0.692666673391,
			"0.014": 0.0,
			"0.015": 0.0,
			"0.016": 0.0,
			"0.017": 0.0,
			"0.018": 0.0,
			"0.019": 0.0,
			"0.02": 0.0,
			"0.021": 0.0,
			"0.022": 0.0,
			"0.023": 0.0,
			"0.024": 0.0,
			"0.025": 0.0
		}
	}
}
