{
	 "smiles": "C1CNCC(C1)C1=NN=CN1", 
	 "Tm": 423.15, 
	 "num_atms": 23, 
	 "gaussian": { 
		 "optdone": 1, 
		 "sigma_profile": "yes", 
		 "theory": "DFT", 
		 "functional": "B3LYP", 
		 "basiset": "6-31G**", 
		 "properties": { 
			 "R2extent": 2143.0158, 
			 "electric_dipole_moment_norm": 5.80132003858, 
			 "electric_quadrupole_moment_norm": 19.1874400609, 
			 "total_energy": -492.950444458, 
			 "HOMO_LUMO_gap": 0.24016, 
			 "cosmo_polarized_energy": -22.75, 
			 "cosmo_cavitation_energy": 25.01, 
			 "cosmo_dispersion_energy": -18.53, 
			 "cosmo_repulsion_energy": 1.49, 
			 "cosmo_total_nonelectrostatic_energy": 7.97, 
			 "SMD_solvation_energy": -0.49 
		},
		"coords": [
			{
				"x": -0.8706043051,
				"y": 0.4723921428,
				"z": -2.8271030231,
				"element": "C" 
			},
			{
				"x": -0.307334304,
				"y": 1.8547201415,
				"z": -2.394415285,
				"element": "C" 
			},
			{
				"x": -0.7798862461,
				"y": 2.2929909834,
				"z": -1.0796249361,
				"element": "N" 
			},
			{
				"x": -0.3592770704,
				"y": 1.3800058185,
				"z": -0.0116929076,
				"element": "C" 
			},
			{
				"x": -0.2884532984,
				"y": -0.1289310513,
				"z": -0.4377970721,
				"element": "C" 
			},
			{
				"x": -1.2732025309,
				"y": -0.37256696,
				"z": -1.5990955784,
				"element": "C" 
			},
			{
				"x": -0.478639272,
				"y": -1.0528231031,
				"z": 0.7218483781,
				"element": "C" 
			},
			{
				"x": 0.4553766565,
				"y": -1.7949376664,
				"z": 1.2753503452,
				"element": "N" 
			},
			{
				"x": -0.1155469085,
				"y": -2.4901589299,
				"z": 2.3281886849,
				"element": "N" 
			},
			{
				"x": -1.3767961385,
				"y": -2.1473335162,
				"z": 2.3788407753,
				"element": "C" 
			},
			{
				"x": -1.6654233162,
				"y": -1.2410561078,
				"z": 1.3925502596,
				"element": "N" 
			},
			{
				"x": -0.1178123725,
				"y": -0.0657024417,
				"z": -3.4158760445,
				"element": "H" 
			},
			{
				"x": -1.7417240344,
				"y": 0.6008994651,
				"z": -3.4802677541,
				"element": "H" 
			},
			{
				"x": -0.555736724,
				"y": 2.6229812075,
				"z": -3.1338037255,
				"element": "H" 
			},
			{
				"x": 0.7878460631,
				"y": 1.8157559619,
				"z": -2.3467294528,
				"element": "H" 
			},
			{
				"x": -1.7940283243,
				"y": 2.3608263676,
				"z": -1.0956234204,
				"element": "H" 
			},
			{
				"x": 0.6285545538,
				"y": 1.68329343,
				"z": 0.3565437132,
				"element": "H" 
			},
			{
				"x": -1.0538086163,
				"y": 1.5007652299,
				"z": 0.8274148196,
				"element": "H" 
			},
			{
				"x": 0.7230813182,
				"y": -0.3441158444,
				"z": -0.7984613134,
				"element": "H" 
			},
			{
				"x": -2.2882480733,
				"y": -0.0962736775,
				"z": -1.2779064543,
				"element": "H" 
			},
			{
				"x": -1.3104657069,
				"y": -1.4352801236,
				"z": -1.8579767132,
				"element": "H" 
			},
			{
				"x": -2.1078863851,
				"y": -2.5131804626,
				"z": 3.0856987092,
				"element": "H" 
			},
			{
				"x": -2.5598849647,
				"y": -0.8212708635,
				"z": 1.1905379955,
				"element": "H" 
			}
		],
		 "valence_orbital": [ 
			{
				"type": "occ",
				"energy": -0.29952,
				"method": "rhf"
			},
			{
				"type": "occ",
				"energy": -0.29836,
				"method": "rhf"
			},
			{
				"type": "occ",
				"energy": -0.25733,
				"method": "rhf"
			},
			{
				"type": "occ",
				"energy": -0.24771,
				"method": "rhf"
			},
			{
				"type": "occ",
				"energy": -0.22141,
				"method": "rhf"
			},
			{
				"type": "unocc",
				"energy": 0.01875,
				"method": "rhf"
			},
			{
				"type": "unocc",
				"energy": 0.04264,
				"method": "rhf"
			},
			{
				"type": "unocc",
				"energy": 0.04847,
				"method": "rhf"
			},
			{
				"type": "unocc",
				"energy": 0.07831,
				"method": "rhf"
			},
			{
				"type": "unocc",
				"energy": 0.09416,
				"method": "rhf"
			}
		],
		"cosmo_sigma_profile": { 
			"-0.025": 0.0,
			"-0.024": 0.0,
			"-0.023": 0.0,
			"-0.022": 0.0,
			"-0.021": 0.0,
			"-0.02": 0.0,
			"-0.019": 0.0,
			"-0.018": 0.0,
			"-0.017": 0.873671028596,
			"-0.016": 1.20460173261,
			"-0.015": 1.46756221905,
			"-0.014": 1.10112228639,
			"-0.013": 1.14067344591,
			"-0.012": 2.12274673416,
			"-0.011": 1.68844887585,
			"-0.01": 4.6752017435,
			"-0.009": 4.78274788212,
			"-0.008": 3.91693464253,
			"-0.007": 6.25676050825,
			"-0.006": 5.02134383454,
			"-0.005": 4.52333404986,
			"-0.004": 10.4952530042,
			"-0.003": 21.598665789,
			"-0.002": 25.3364736257,
			"-0.001": 18.611547523,
			"0.0": 17.3987049487,
			"0.001": 10.101107725,
			"0.002": 4.54719973349,
			"0.003": 3.62806250481,
			"0.004": 3.44703500203,
			"0.005": 2.56649504961,
			"0.006": 3.16084640821,
			"0.007": 2.39138631912,
			"0.008": 2.75866933661,
			"0.009": 2.69612811759,
			"0.01": 2.52126354617,
			"0.011": 3.79779921144,
			"0.012": 2.42699278979,
			"0.013": 3.32464446153,
			"0.014": 3.65842710784,
			"0.015": 4.26646198101,
			"0.016": 3.55232192661,
			"0.017": 2.91093934206,
			"0.018": 1.18148716228,
			"0.019": 0.112849897813,
			"0.02": 0.0,
			"0.021": 0.0,
			"0.022": 0.0,
			"0.023": 0.0,
			"0.024": 0.0,
			"0.025": 0.0
		}
	}
}
