{
	 "smiles": "CN(N)C(N)=O", 
	 "Tm": 382.15, 
	 "num_atms": 13, 
	 "gaussian": { 
		 "optdone": 1, 
		 "sigma_profile": "yes", 
		 "theory": "DFT", 
		 "functional": "B3LYP", 
		 "basiset": "6-31G**", 
		 "properties": { 
			 "R2extent": 919.4917, 
			 "electric_dipole_moment_norm": 3.02653201206, 
			 "electric_quadrupole_moment_norm": 7.47941793858, 
			 "total_energy": -319.895704279, 
			 "HOMO_LUMO_gap": 0.2906, 
			 "cosmo_polarized_energy": -13.15, 
			 "cosmo_cavitation_energy": 16.43, 
			 "cosmo_dispersion_energy": -12.39, 
			 "cosmo_repulsion_energy": 1.1, 
			 "cosmo_total_nonelectrostatic_energy": 5.14, 
			 "SMD_solvation_energy": 4.37 
		},
		"coords": [
			{
				"x": 0.184641516,
				"y": -0.7774381921,
				"z": -0.0733620663,
				"element": "C" 
			},
			{
				"x": 1.1994990639,
				"y": 0.1998995818,
				"z": -0.4364082912,
				"element": "N" 
			},
			{
				"x": 2.3532840286,
				"y": -0.3080211838,
				"z": -1.0791650994,
				"element": "N" 
			},
			{
				"x": 1.2531574644,
				"y": 1.4916294554,
				"z": 0.045550347,
				"element": "C" 
			},
			{
				"x": 0.1140624138,
				"y": 1.924904375,
				"z": 0.7181243628,
				"element": "N" 
			},
			{
				"x": 2.2544164102,
				"y": 2.1922951865,
				"z": -0.0731336534,
				"element": "O" 
			},
			{
				"x": 0.6478978175,
				"y": -1.763811924,
				"z": -0.1096819935,
				"element": "H" 
			},
			{
				"x": -0.6702407265,
				"y": -0.7751032535,
				"z": -0.7653804983,
				"element": "H" 
			},
			{
				"x": -0.1826199679,
				"y": -0.5945223399,
				"z": 0.9415421243,
				"element": "H" 
			},
			{
				"x": 2.4243008625,
				"y": 0.1460414777,
				"z": -1.9903164933,
				"element": "H" 
			},
			{
				"x": 3.1555762546,
				"y": 0.0413403329,
				"z": -0.5533404512,
				"element": "H" 
			},
			{
				"x": 0.1440740112,
				"y": 2.9193928367,
				"z": 0.8940169478,
				"element": "H" 
			},
			{
				"x": -0.7848491482,
				"y": 1.5888936475,
				"z": 0.4022547647,
				"element": "H" 
			}
		],
		 "valence_orbital": [ 
			{
				"type": "occ",
				"energy": -0.39055,
				"method": "rhf"
			},
			{
				"type": "occ",
				"energy": -0.2767,
				"method": "rhf"
			},
			{
				"type": "occ",
				"energy": -0.27045,
				"method": "rhf"
			},
			{
				"type": "occ",
				"energy": -0.25178,
				"method": "rhf"
			},
			{
				"type": "occ",
				"energy": -0.2353,
				"method": "rhf"
			},
			{
				"type": "unocc",
				"energy": 0.0553,
				"method": "rhf"
			},
			{
				"type": "unocc",
				"energy": 0.07719,
				"method": "rhf"
			},
			{
				"type": "unocc",
				"energy": 0.09346,
				"method": "rhf"
			},
			{
				"type": "unocc",
				"energy": 0.12698,
				"method": "rhf"
			},
			{
				"type": "unocc",
				"energy": 0.14229,
				"method": "rhf"
			}
		],
		"cosmo_sigma_profile": { 
			"-0.025": 0.0,
			"-0.024": 0.0,
			"-0.023": 0.0,
			"-0.022": 0.0,
			"-0.021": 0.0,
			"-0.02": 0.0,
			"-0.019": 0.0,
			"-0.018": 0.0,
			"-0.017": 0.0,
			"-0.016": 0.0,
			"-0.015": 0.0,
			"-0.014": 0.168881270318,
			"-0.013": 2.07520664422,
			"-0.012": 1.61201900428,
			"-0.011": 3.57298912562,
			"-0.01": 4.10261807859,
			"-0.009": 4.02320295306,
			"-0.008": 5.65146389613,
			"-0.007": 4.02804692125,
			"-0.006": 2.86278195641,
			"-0.005": 7.32142586831,
			"-0.004": 8.75724270527,
			"-0.003": 8.90470614695,
			"-0.002": 11.4959717544,
			"-0.001": 6.93334202366,
			"0.0": 7.09544026706,
			"0.001": 5.76799591851,
			"0.002": 4.63511116027,
			"0.003": 3.40986703534,
			"0.004": 2.10494043927,
			"0.005": 2.76390831924,
			"0.006": 4.1695156765,
			"0.007": 2.60420438268,
			"0.008": 1.98424814529,
			"0.009": 2.61082235289,
			"0.01": 1.70972754162,
			"0.011": 2.88059140551,
			"0.012": 2.23524859591,
			"0.013": 2.49880754161,
			"0.014": 5.42530666812,
			"0.015": 4.14056232713,
			"0.016": 0.482168843585,
			"0.017": 0.0,
			"0.018": 0.0,
			"0.019": 0.0,
			"0.02": 0.0,
			"0.021": 0.0,
			"0.022": 0.0,
			"0.023": 0.0,
			"0.024": 0.0,
			"0.025": 0.0
		}
	}
}
