{
	 "smiles": "CN1N=C(C)C(=C1C)S(Cl)(=O)=O", 
	 "Tm": 313.65, 
	 "num_atms": 21, 
	 "gaussian": { 
		 "optdone": 1, 
		 "sigma_profile": "yes", 
		 "theory": "DFT", 
		 "functional": "B3LYP", 
		 "basiset": "6-31G**", 
		 "properties": { 
			 "R2extent": 2667.953, 
			 "electric_dipole_moment_norm": 6.04981302438, 
			 "electric_quadrupole_moment_norm": 10.8002965964, 
			 "total_energy": -1352.32150199, 
			 "HOMO_LUMO_gap": 0.18977, 
			 "cosmo_polarized_energy": -12.0, 
			 "cosmo_cavitation_energy": 27.84, 
			 "cosmo_dispersion_energy": -20.4, 
			 "cosmo_repulsion_energy": 1.59, 
			 "cosmo_total_nonelectrostatic_energy": 9.02, 
			 "SMD_solvation_energy": 2.89 
		},
		"coords": [
			{
				"x": 0.6914236392,
				"y": -2.9169245132,
				"z": -1.3383312794,
				"element": "C" 
			},
			{
				"x": 0.5976628767,
				"y": -1.6798126319,
				"z": -0.5803855841,
				"element": "N" 
			},
			{
				"x": 1.0921503695,
				"y": -1.6448957528,
				"z": 0.6914343556,
				"element": "N" 
			},
			{
				"x": 0.9038525615,
				"y": -0.4063653681,
				"z": 1.1236559195,
				"element": "C" 
			},
			{
				"x": 1.3185063009,
				"y": -0.0035614459,
				"z": 2.5025999993,
				"element": "C" 
			},
			{
				"x": 0.2919133436,
				"y": 0.3652212399,
				"z": 0.0900567711,
				"element": "C" 
			},
			{
				"x": 0.0966538837,
				"y": -0.4960946811,
				"z": -0.9958376007,
				"element": "C" 
			},
			{
				"x": -0.4995995129,
				"y": -0.3022667095,
				"z": -2.3515596517,
				"element": "C" 
			},
			{
				"x": -0.1741045416,
				"y": 2.0375832053,
				"z": 0.1817440053,
				"element": "S" 
			},
			{
				"x": -2.1782752687,
				"y": 1.9213119467,
				"z": 0.9525531499,
				"element": "Cl" 
			},
			{
				"x": -0.3116872176,
				"y": 2.602195839,
				"z": -1.1578090727,
				"element": "O" 
			},
			{
				"x": 0.600444008,
				"y": 2.7046496774,
				"z": 1.2206442288,
				"element": "O" 
			},
			{
				"x": 1.0274033959,
				"y": -3.6882522186,
				"z": -0.6470914682,
				"element": "H" 
			},
			{
				"x": 1.4121831293,
				"y": -2.8226366614,
				"z": -2.1566309689,
				"element": "H" 
			},
			{
				"x": -0.2841233358,
				"y": -3.1913645221,
				"z": -1.7482263067,
				"element": "H" 
			},
			{
				"x": 1.7512915645,
				"y": -0.8670619633,
				"z": 3.0109352268,
				"element": "H" 
			},
			{
				"x": 2.051703022,
				"y": 0.8065685068,
				"z": 2.4722499727,
				"element": "H" 
			},
			{
				"x": 0.4645597304,
				"y": 0.3604692867,
				"z": 3.0822921849,
				"element": "H" 
			},
			{
				"x": 0.2238136845,
				"y": -0.5505391091,
				"z": -3.1363064309,
				"element": "H" 
			},
			{
				"x": -1.3743279093,
				"y": -0.948109778,
				"z": -2.4895990333,
				"element": "H" 
			},
			{
				"x": -0.8054437238,
				"y": 0.7341856533,
				"z": -2.4845884173,
				"element": "H" 
			}
		],
		 "valence_orbital": [ 
			{
				"type": "occ",
				"energy": -0.32683,
				"method": "rhf"
			},
			{
				"type": "occ",
				"energy": -0.30778,
				"method": "rhf"
			},
			{
				"type": "occ",
				"energy": -0.30561,
				"method": "rhf"
			},
			{
				"type": "occ",
				"energy": -0.27522,
				"method": "rhf"
			},
			{
				"type": "occ",
				"energy": -0.26912,
				"method": "rhf"
			},
			{
				"type": "unocc",
				"energy": -0.07935,
				"method": "rhf"
			},
			{
				"type": "unocc",
				"energy": -0.01252,
				"method": "rhf"
			},
			{
				"type": "unocc",
				"energy": 0.0142,
				"method": "rhf"
			},
			{
				"type": "unocc",
				"energy": 0.06477,
				"method": "rhf"
			},
			{
				"type": "unocc",
				"energy": 0.07368,
				"method": "rhf"
			}
		],
		"cosmo_sigma_profile": { 
			"-0.025": 0.0,
			"-0.024": 0.0,
			"-0.023": 0.0,
			"-0.022": 0.0,
			"-0.021": 0.0,
			"-0.02": 0.0,
			"-0.019": 0.0,
			"-0.018": 0.0,
			"-0.017": 0.0,
			"-0.016": 0.0,
			"-0.015": 0.0,
			"-0.014": 0.0,
			"-0.013": 0.0,
			"-0.012": 0.0,
			"-0.011": 0.0,
			"-0.01": 0.0,
			"-0.009": 0.0438731910248,
			"-0.008": 2.24966440224,
			"-0.007": 11.0934997462,
			"-0.006": 11.6022751794,
			"-0.005": 15.0046287143,
			"-0.004": 21.1714625677,
			"-0.003": 19.108507711,
			"-0.002": 19.0970594036,
			"-0.001": 19.3995626205,
			"0.0": 14.1624702083,
			"0.001": 10.5875633226,
			"0.002": 10.8057970124,
			"0.003": 12.7194584304,
			"0.004": 17.2346147459,
			"0.005": 8.13460560759,
			"0.006": 5.17717141434,
			"0.007": 5.3439823872,
			"0.008": 8.29828505848,
			"0.009": 7.933600013,
			"0.01": 1.6935776654,
			"0.011": 0.519338745463,
			"0.012": 1.22368552884,
			"0.013": 0.782555921158,
			"0.014": 0.401612549822,
			"0.015": 0.00152147587905,
			"0.016": 0.0,
			"0.017": 0.0,
			"0.018": 0.0,
			"0.019": 0.0,
			"0.02": 0.0,
			"0.021": 0.0,
			"0.022": 0.0,
			"0.023": 0.0,
			"0.024": 0.0,
			"0.025": 0.0
		}
	}
}
