{
	 "smiles": "CN1N=C(C)C(C(O)C(F)(F)F)=C1C", 
	 "Tm": 414.15, 
	 "num_atms": 25, 
	 "gaussian": { 
		 "optdone": 1, 
		 "sigma_profile": "yes", 
		 "theory": "DFT", 
		 "functional": "B3LYP", 
		 "basiset": "6-31G**", 
		 "properties": { 
			 "R2extent": 3492.0819, 
			 "electric_dipole_moment_norm": 3.27919138356, 
			 "electric_quadrupole_moment_norm": 10.5775361285, 
			 "total_energy": -795.722626632, 
			 "HOMO_LUMO_gap": 0.25346, 
			 "cosmo_polarized_energy": -11.91, 
			 "cosmo_cavitation_energy": 29.04, 
			 "cosmo_dispersion_energy": -20.27, 
			 "cosmo_repulsion_energy": 1.55, 
			 "cosmo_total_nonelectrostatic_energy": 10.32, 
			 "SMD_solvation_energy": 5.21 
		},
		"coords": [
			{
				"x": 1.8373095753,
				"y": 1.0153537595,
				"z": 2.1000950271,
				"element": "C" 
			},
			{
				"x": 0.9117834043,
				"y": 0.3251818388,
				"z": 1.2240055472,
				"element": "N" 
			},
			{
				"x": -0.402902481,
				"y": 0.260440598,
				"z": 1.5588764536,
				"element": "N" 
			},
			{
				"x": -0.987178882,
				"y": -0.425296247,
				"z": 0.5793039337,
				"element": "C" 
			},
			{
				"x": -2.4616837755,
				"y": -0.6890128085,
				"z": 0.6234242769,
				"element": "C" 
			},
			{
				"x": -0.0321200054,
				"y": -0.8002635968,
				"z": -0.4087673356,
				"element": "C" 
			},
			{
				"x": -0.2522593783,
				"y": -1.5908223809,
				"z": -1.659079833,
				"element": "C" 
			},
			{
				"x": -1.4993275751,
				"y": -1.2458176549,
				"z": -2.2346563101,
				"element": "O" 
			},
			{
				"x": -0.2073586244,
				"y": -3.104274581,
				"z": -1.4086301739,
				"element": "C" 
			},
			{
				"x": -0.5050839776,
				"y": -3.7674656515,
				"z": -2.5610698862,
				"element": "F" 
			},
			{
				"x": -1.0807310045,
				"y": -3.5203335352,
				"z": -0.4770264295,
				"element": "F" 
			},
			{
				"x": 1.0271232827,
				"y": -3.4913281036,
				"z": -1.0285353393,
				"element": "F" 
			},
			{
				"x": 1.1822015849,
				"y": -0.2998128649,
				"z": 0.0458115928,
				"element": "C" 
			},
			{
				"x": 2.5648172067,
				"y": -0.3756705743,
				"z": -0.5198169125,
				"element": "C" 
			},
			{
				"x": 1.2647796589,
				"y": 1.3574058966,
				"z": 2.9613032849,
				"element": "H" 
			},
			{
				"x": 2.6349483785,
				"y": 0.3458398048,
				"z": 2.4390335261,
				"element": "H" 
			},
			{
				"x": 2.2890366454,
				"y": 1.8799570372,
				"z": 1.6016272678,
				"element": "H" 
			},
			{
				"x": -2.9748285439,
				"y": -0.1985084533,
				"z": -0.2085681701,
				"element": "H" 
			},
			{
				"x": -2.8689260831,
				"y": -0.3150570558,
				"z": 1.5654325132,
				"element": "H" 
			},
			{
				"x": -2.6717954644,
				"y": -1.759280571,
				"z": 0.5441143935,
				"element": "H" 
			},
			{
				"x": 0.5740163749,
				"y": -1.4064982141,
				"z": -2.3647212433,
				"element": "H" 
			},
			{
				"x": -1.64769288,
				"y": -1.833656977,
				"z": -2.9884555136,
				"element": "H" 
			},
			{
				"x": 2.5540176326,
				"y": -0.8498541677,
				"z": -1.5031427575,
				"element": "H" 
			},
			{
				"x": 3.0138160909,
				"y": 0.6180593958,
				"z": -0.6313891953,
				"element": "H" 
			},
			{
				"x": 3.2315388402,
				"y": -0.968784893,
				"z": 0.1177312834,
				"element": "H" 
			}
		],
		 "valence_orbital": [ 
			{
				"type": "occ",
				"energy": -0.3464,
				"method": "rhf"
			},
			{
				"type": "occ",
				"energy": -0.29142,
				"method": "rhf"
			},
			{
				"type": "occ",
				"energy": -0.27666,
				"method": "rhf"
			},
			{
				"type": "occ",
				"energy": -0.23324,
				"method": "rhf"
			},
			{
				"type": "occ",
				"energy": -0.2308,
				"method": "rhf"
			},
			{
				"type": "unocc",
				"energy": 0.02266,
				"method": "rhf"
			},
			{
				"type": "unocc",
				"energy": 0.0541,
				"method": "rhf"
			},
			{
				"type": "unocc",
				"energy": 0.07386,
				"method": "rhf"
			},
			{
				"type": "unocc",
				"energy": 0.08575,
				"method": "rhf"
			},
			{
				"type": "unocc",
				"energy": 0.10781,
				"method": "rhf"
			}
		],
		"cosmo_sigma_profile": { 
			"-0.025": 0.0,
			"-0.024": 0.0,
			"-0.023": 0.0,
			"-0.022": 0.0,
			"-0.021": 0.0,
			"-0.02": 0.0,
			"-0.019": 0.0,
			"-0.018": 0.0,
			"-0.017": 0.0,
			"-0.016": 0.113141884911,
			"-0.015": 0.821741022071,
			"-0.014": 1.01087124317,
			"-0.013": 0.606363121352,
			"-0.012": 0.531325052273,
			"-0.011": 0.809701479567,
			"-0.01": 0.98453173926,
			"-0.009": 0.994774295831,
			"-0.008": 3.78819111045,
			"-0.007": 4.78549931659,
			"-0.006": 10.8920968778,
			"-0.005": 16.08512712,
			"-0.004": 13.761476883,
			"-0.003": 19.3580617111,
			"-0.002": 16.7252219505,
			"-0.001": 15.6070991091,
			"0.0": 15.4482974289,
			"0.001": 15.4057052886,
			"0.002": 24.0710575759,
			"0.003": 29.1192582934,
			"0.004": 6.52899747772,
			"0.005": 6.25914417081,
			"0.006": 4.7040397361,
			"0.007": 3.99279389511,
			"0.008": 3.74908975333,
			"0.009": 2.64024413178,
			"0.01": 2.25857414524,
			"0.011": 2.0375371372,
			"0.012": 2.23061722743,
			"0.013": 1.10601309682,
			"0.014": 0.940874182675,
			"0.015": 1.02872546359,
			"0.016": 0.503701362983,
			"0.017": 0.0365623703755,
			"0.018": 0.0,
			"0.019": 0.0,
			"0.02": 0.0,
			"0.021": 0.0,
			"0.022": 0.0,
			"0.023": 0.0,
			"0.024": 0.0,
			"0.025": 0.0
		}
	}
}
