{
	 "smiles": "NNC(=O)C1CC2=C(O1)C=CC=C2", 
	 "Tm": 424.15, 
	 "num_atms": 23, 
	 "gaussian": { 
		 "optdone": 1, 
		 "sigma_profile": "yes", 
		 "theory": "DFT", 
		 "functional": "B3LYP", 
		 "basiset": "6-31G**", 
		 "properties": { 
			 "R2extent": 3415.9041, 
			 "electric_dipole_moment_norm": 2.52012334619, 
			 "electric_quadrupole_moment_norm": 11.3801477548, 
			 "total_energy": -608.904293912, 
			 "HOMO_LUMO_gap": 0.21174, 
			 "cosmo_polarized_energy": -13.22, 
			 "cosmo_cavitation_energy": 26.5, 
			 "cosmo_dispersion_energy": -19.79, 
			 "cosmo_repulsion_energy": 1.58, 
			 "cosmo_total_nonelectrostatic_energy": 8.29, 
			 "SMD_solvation_energy": 5.48 
		},
		"coords": [
			{
				"x": -1.7891540294,
				"y": 2.9913167673,
				"z": -2.6453293756,
				"element": "N" 
			},
			{
				"x": -2.5248367185,
				"y": 1.8435917582,
				"z": -2.2958952884,
				"element": "N" 
			},
			{
				"x": -2.1570994,
				"y": 0.8508933715,
				"z": -1.4330601364,
				"element": "C" 
			},
			{
				"x": -2.9280647118,
				"y": -0.0468919375,
				"z": -1.1206090096,
				"element": "O" 
			},
			{
				"x": -0.7097084512,
				"y": 0.9233449055,
				"z": -0.9008815931,
				"element": "C" 
			},
			{
				"x": -0.3836461624,
				"y": -0.2124815172,
				"z": 0.0958562003,
				"element": "C" 
			},
			{
				"x": -0.0041295931,
				"y": 0.5484287127,
				"z": 1.3434417879,
				"element": "C" 
			},
			{
				"x": -0.13891372,
				"y": 1.9130861644,
				"z": 1.0926626312,
				"element": "C" 
			},
			{
				"x": -0.5390347126,
				"y": 2.1897969464,
				"z": -0.1926337009,
				"element": "O" 
			},
			{
				"x": 0.1171370772,
				"y": 2.8839609499,
				"z": 2.0525380491,
				"element": "C" 
			},
			{
				"x": 0.5298611182,
				"y": 2.4407130482,
				"z": 3.3147001611,
				"element": "C" 
			},
			{
				"x": 0.6742400201,
				"y": 1.0781487034,
				"z": 3.590324609,
				"element": "C" 
			},
			{
				"x": 0.4042919294,
				"y": 0.1220676193,
				"z": 2.6019121684,
				"element": "C" 
			},
			{
				"x": -1.041813173,
				"y": 2.7372925312,
				"z": -3.2879118933,
				"element": "H" 
			},
			{
				"x": -1.3732730274,
				"y": 3.3878143214,
				"z": -1.8067815745,
				"element": "H" 
			},
			{
				"x": -3.4990915105,
				"y": 1.849767314,
				"z": -2.5693401798,
				"element": "H" 
			},
			{
				"x": -0.0164393739,
				"y": 0.9412847199,
				"z": -1.7503903009,
				"element": "H" 
			},
			{
				"x": 0.4261962209,
				"y": -0.8499196393,
				"z": -0.2732544432,
				"element": "H" 
			},
			{
				"x": -1.2719987437,
				"y": -0.8372933289,
				"z": 0.2332001385,
				"element": "H" 
			},
			{
				"x": 0.0007534821,
				"y": 3.9382000188,
				"z": 1.825544002,
				"element": "H" 
			},
			{
				"x": 0.7405110272,
				"y": 3.1719756874,
				"z": 4.0896605822,
				"element": "H" 
			},
			{
				"x": 0.9953322607,
				"y": 0.7578505386,
				"z": 4.5766422748,
				"element": "H" 
			},
			{
				"x": 0.5121801915,
				"y": -0.9372476553,
				"z": 2.8185048912,
				"element": "H" 
			}
		],
		 "valence_orbital": [ 
			{
				"type": "occ",
				"energy": -0.29311,
				"method": "rhf"
			},
			{
				"type": "occ",
				"energy": -0.26201,
				"method": "rhf"
			},
			{
				"type": "occ",
				"energy": -0.25437,
				"method": "rhf"
			},
			{
				"type": "occ",
				"energy": -0.24674,
				"method": "rhf"
			},
			{
				"type": "occ",
				"energy": -0.21749,
				"method": "rhf"
			},
			{
				"type": "unocc",
				"energy": -0.00575,
				"method": "rhf"
			},
			{
				"type": "unocc",
				"energy": 0.0031,
				"method": "rhf"
			},
			{
				"type": "unocc",
				"energy": 0.01405,
				"method": "rhf"
			},
			{
				"type": "unocc",
				"energy": 0.07151,
				"method": "rhf"
			},
			{
				"type": "unocc",
				"energy": 0.0959,
				"method": "rhf"
			}
		],
		"cosmo_sigma_profile": { 
			"-0.025": 0.0,
			"-0.024": 0.0,
			"-0.023": 0.0,
			"-0.022": 0.0,
			"-0.021": 0.0,
			"-0.02": 0.0,
			"-0.019": 0.0,
			"-0.018": 0.0,
			"-0.017": 0.0,
			"-0.016": 0.0,
			"-0.015": 0.000623163650452,
			"-0.014": 0.62865339664,
			"-0.013": 0.847036050025,
			"-0.012": 1.65934385675,
			"-0.011": 3.32575451907,
			"-0.01": 3.29875214517,
			"-0.009": 2.6236037497,
			"-0.008": 4.4522921626,
			"-0.007": 6.31745973378,
			"-0.006": 10.0745108813,
			"-0.005": 14.331108884,
			"-0.004": 14.305042394,
			"-0.003": 15.6371891876,
			"-0.002": 14.2850732512,
			"-0.001": 12.2882742745,
			"0.0": 13.691307793,
			"0.001": 11.7444694068,
			"0.002": 10.9642599989,
			"0.003": 13.8030774537,
			"0.004": 12.2483319265,
			"0.005": 11.1966442056,
			"0.006": 9.02687687977,
			"0.007": 3.43221286319,
			"0.008": 2.22275141005,
			"0.009": 1.68607958266,
			"0.01": 2.0653578943,
			"0.011": 2.45685869164,
			"0.012": 3.64128914697,
			"0.013": 5.49141705559,
			"0.014": 1.61745127191,
			"0.015": 0.317084611153,
			"0.016": 0.499755339445,
			"0.017": 0.0170253776887,
			"0.018": 0.0,
			"0.019": 0.0,
			"0.02": 0.0,
			"0.021": 0.0,
			"0.022": 0.0,
			"0.023": 0.0,
			"0.024": 0.0,
			"0.025": 0.0
		}
	}
}
