{
	 "smiles": "CC1=CC(C)=C(C=C1S(N)(=O)=O)C(O)=O", 
	 "Tm": 526.15, 
	 "num_atms": 26, 
	 "gaussian": { 
		 "optdone": 1, 
		 "sigma_profile": "yes", 
		 "theory": "DFT", 
		 "functional": "B3LYP", 
		 "basiset": "6-31G**", 
		 "properties": { 
			 "R2extent": 4432.6015, 
			 "electric_dipole_moment_norm": 5.17188737116, 
			 "electric_quadrupole_moment_norm": 24.3119569134, 
			 "total_energy": -1103.37061793, 
			 "HOMO_LUMO_gap": 0.20465, 
			 "cosmo_polarized_energy": -25.57, 
			 "cosmo_cavitation_energy": 30.78, 
			 "cosmo_dispersion_energy": -22.9, 
			 "cosmo_repulsion_energy": 1.73, 
			 "cosmo_total_nonelectrostatic_energy": 9.61, 
			 "SMD_solvation_energy": 6.0 
		},
		"coords": [
			{
				"x": 1.9775129581,
				"y": -0.2327197327,
				"z": -2.5204535109,
				"element": "C" 
			},
			{
				"x": 0.9830812878,
				"y": 0.3228397418,
				"z": -1.5302134834,
				"element": "C" 
			},
			{
				"x": -0.3833870717,
				"y": 0.2879862785,
				"z": -1.8328420551,
				"element": "C" 
			},
			{
				"x": -1.3870176925,
				"y": 0.7622414247,
				"z": -0.9800153465,
				"element": "C" 
			},
			{
				"x": -2.8296289239,
				"y": 0.6544129692,
				"z": -1.4061846736,
				"element": "C" 
			},
			{
				"x": -0.9881427244,
				"y": 1.3343671075,
				"z": 0.2489688953,
				"element": "C" 
			},
			{
				"x": 0.3712988244,
				"y": 1.3753691122,
				"z": 0.5788935088,
				"element": "C" 
			},
			{
				"x": 1.342619162,
				"y": 0.8748086939,
				"z": -0.2855572024,
				"element": "C" 
			},
			{
				"x": 3.0565139985,
				"y": 1.0200539491,
				"z": 0.2721328598,
				"element": "S" 
			},
			{
				"x": 3.6269345376,
				"y": -0.5286903233,
				"z": 0.5607972425,
				"element": "N" 
			},
			{
				"x": 3.8598085721,
				"y": 1.539959751,
				"z": -0.8336614677,
				"element": "O" 
			},
			{
				"x": 3.0139053569,
				"y": 1.6750431113,
				"z": 1.5788662805,
				"element": "O" 
			},
			{
				"x": -2.0024494732,
				"y": 1.8544791793,
				"z": 1.2261904806,
				"element": "C" 
			},
			{
				"x": -1.5952882268,
				"y": 2.8675532627,
				"z": 2.0353921964,
				"element": "O" 
			},
			{
				"x": -3.124881523,
				"y": 1.4175603344,
				"z": 1.3323461623,
				"element": "O" 
			},
			{
				"x": 2.4219968895,
				"y": -1.1671401554,
				"z": -2.1533123083,
				"element": "H" 
			},
			{
				"x": 1.4855602003,
				"y": -0.4641175529,
				"z": -3.4676208111,
				"element": "H" 
			},
			{
				"x": 2.7946202729,
				"y": 0.4683395968,
				"z": -2.7021411193,
				"element": "H" 
			},
			{
				"x": -0.6814345719,
				"y": -0.1323155555,
				"z": -2.7899244858,
				"element": "H" 
			},
			{
				"x": -2.8974071821,
				"y": 0.3190611323,
				"z": -2.4441088118,
				"element": "H" 
			},
			{
				"x": -3.352316291,
				"y": 1.6099887423,
				"z": -1.3100320535,
				"element": "H" 
			},
			{
				"x": -3.3706273126,
				"y": -0.0483628333,
				"z": -0.7672503695,
				"element": "H" 
			},
			{
				"x": 0.7039699847,
				"y": 1.7734297561,
				"z": 1.5321386114,
				"element": "H" 
			},
			{
				"x": 3.1338898621,
				"y": -1.0142933769,
				"z": 1.3026352422,
				"element": "H" 
			},
			{
				"x": 3.7669814122,
				"y": -1.08046814,
				"z": -0.2780445243,
				"element": "H" 
			},
			{
				"x": -0.741812326,
				"y": 3.2164135269,
				"z": 1.7418007436,
				"element": "H" 
			}
		],
		 "valence_orbital": [ 
			{
				"type": "occ",
				"energy": -0.31579,
				"method": "rhf"
			},
			{
				"type": "occ",
				"energy": -0.3136,
				"method": "rhf"
			},
			{
				"type": "occ",
				"energy": -0.28492,
				"method": "rhf"
			},
			{
				"type": "occ",
				"energy": -0.27763,
				"method": "rhf"
			},
			{
				"type": "occ",
				"energy": -0.27032,
				"method": "rhf"
			},
			{
				"type": "unocc",
				"energy": -0.06567,
				"method": "rhf"
			},
			{
				"type": "unocc",
				"energy": -0.04628,
				"method": "rhf"
			},
			{
				"type": "unocc",
				"energy": 0.02305,
				"method": "rhf"
			},
			{
				"type": "unocc",
				"energy": 0.03841,
				"method": "rhf"
			},
			{
				"type": "unocc",
				"energy": 0.05592,
				"method": "rhf"
			}
		],
		"cosmo_sigma_profile": { 
			"-0.025": 0.0,
			"-0.024": 0.0,
			"-0.023": 0.0,
			"-0.022": 0.0,
			"-0.021": 0.0,
			"-0.02": 0.0,
			"-0.019": 0.173441250448,
			"-0.018": 0.963594589778,
			"-0.017": 1.0473767357,
			"-0.016": 1.33820767395,
			"-0.015": 2.90087080603,
			"-0.014": 3.21691691504,
			"-0.013": 4.62386193744,
			"-0.012": 3.74238515101,
			"-0.011": 3.41687368395,
			"-0.01": 2.44248212146,
			"-0.009": 3.40439846949,
			"-0.008": 4.15521389642,
			"-0.007": 6.86858443159,
			"-0.006": 8.49098600553,
			"-0.005": 10.4950980721,
			"-0.004": 12.8380967037,
			"-0.003": 15.2309360898,
			"-0.002": 18.2533191653,
			"-0.001": 20.8327024856,
			"0.0": 17.5383586425,
			"0.001": 15.8113240255,
			"0.002": 9.35672263565,
			"0.003": 4.78837338259,
			"0.004": 5.20191511283,
			"0.005": 5.06592211878,
			"0.006": 6.04863546611,
			"0.007": 6.24853993397,
			"0.008": 7.91967799112,
			"0.009": 8.04046507754,
			"0.01": 11.7191650274,
			"0.011": 14.3740104772,
			"0.012": 6.39445397023,
			"0.013": 1.29085167868,
			"0.014": 0.0132616375836,
			"0.015": 0.0,
			"0.016": 0.0,
			"0.017": 0.0,
			"0.018": 0.0,
			"0.019": 0.0,
			"0.02": 0.0,
			"0.021": 0.0,
			"0.022": 0.0,
			"0.023": 0.0,
			"0.024": 0.0,
			"0.025": 0.0
		}
	}
}
