{
	 "smiles": "CN1N=CC2=C1N=CC(C(O)=O)=C2O", 
	 "Tm": 467.15, 
	 "num_atms": 21, 
	 "gaussian": { 
		 "optdone": 1, 
		 "sigma_profile": "yes", 
		 "theory": "DFT", 
		 "functional": "B3LYP", 
		 "basiset": "6-31G**", 
		 "properties": { 
			 "R2extent": 2899.4926, 
			 "electric_dipole_moment_norm": 3.36587720216, 
			 "electric_quadrupole_moment_norm": 7.60533419055, 
			 "total_energy": -699.002754641, 
			 "HOMO_LUMO_gap": 0.18741, 
			 "cosmo_polarized_energy": -15.35, 
			 "cosmo_cavitation_energy": 25.55, 
			 "cosmo_dispersion_energy": -19.63, 
			 "cosmo_repulsion_energy": 1.5, 
			 "cosmo_total_nonelectrostatic_energy": 7.42, 
			 "SMD_solvation_energy": 3.81 
		},
		"coords": [
			{
				"x": 3.2186249186,
				"y": 1.571796315,
				"z": 0.6623366348,
				"element": "C" 
			},
			{
				"x": 1.7703522015,
				"y": 1.5128513372,
				"z": 0.6871234766,
				"element": "N" 
			},
			{
				"x": 1.0332496134,
				"y": 2.6162852087,
				"z": 1.0055413476,
				"element": "N" 
			},
			{
				"x": -0.2367442812,
				"y": 2.252151398,
				"z": 0.9425807267,
				"element": "C" 
			},
			{
				"x": -0.3552611061,
				"y": 0.8826934852,
				"z": 0.576277954,
				"element": "C" 
			},
			{
				"x": 0.9784391113,
				"y": 0.4408831561,
				"z": 0.4198265202,
				"element": "C" 
			},
			{
				"x": 1.3983998765,
				"y": -0.7933727323,
				"z": 0.0747317833,
				"element": "N" 
			},
			{
				"x": 0.4091702127,
				"y": -1.6457749091,
				"z": -0.1273951697,
				"element": "C" 
			},
			{
				"x": -0.9800572484,
				"y": -1.3656998362,
				"z": -0.012336084,
				"element": "C" 
			},
			{
				"x": -2.0377337444,
				"y": -2.3584943171,
				"z": -0.2497669959,
				"element": "C" 
			},
			{
				"x": -1.7167743445,
				"y": -3.6201476569,
				"z": -0.5948570719,
				"element": "O" 
			},
			{
				"x": -3.2331378899,
				"y": -2.0832784773,
				"z": -0.1449732744,
				"element": "O" 
			},
			{
				"x": -1.3850308167,
				"y": -0.0490370192,
				"z": 0.3535878577,
				"element": "C" 
			},
			{
				"x": -2.6517441959,
				"y": 0.3099603748,
				"z": 0.4853230305,
				"element": "O" 
			},
			{
				"x": 3.5863299451,
				"y": 0.583204148,
				"z": 0.3860218854,
				"element": "H" 
			},
			{
				"x": 3.5523252043,
				"y": 2.3105920078,
				"z": -0.0708519114,
				"element": "H" 
			},
			{
				"x": 3.6004809745,
				"y": 1.8479848852,
				"z": 1.6485547188,
				"element": "H" 
			},
			{
				"x": -1.0194454605,
				"y": 2.9659926398,
				"z": 1.1570859035,
				"element": "H" 
			},
			{
				"x": 0.7354203553,
				"y": -2.649235576,
				"z": -0.4082560301,
				"element": "H" 
			},
			{
				"x": -0.7591421947,
				"y": -3.7400080271,
				"z": -0.6480405832,
				"element": "H" 
			},
			{
				"x": -3.1928211309,
				"y": -0.5066464045,
				"z": 0.2792852816,
				"element": "H" 
			}
		],
		 "valence_orbital": [ 
			{
				"type": "occ",
				"energy": -0.29906,
				"method": "rhf"
			},
			{
				"type": "occ",
				"energy": -0.29163,
				"method": "rhf"
			},
			{
				"type": "occ",
				"energy": -0.28458,
				"method": "rhf"
			},
			{
				"type": "occ",
				"energy": -0.26636,
				"method": "rhf"
			},
			{
				"type": "occ",
				"energy": -0.24081,
				"method": "rhf"
			},
			{
				"type": "unocc",
				"energy": -0.0534,
				"method": "rhf"
			},
			{
				"type": "unocc",
				"energy": -0.04709,
				"method": "rhf"
			},
			{
				"type": "unocc",
				"energy": 0.02941,
				"method": "rhf"
			},
			{
				"type": "unocc",
				"energy": 0.03821,
				"method": "rhf"
			},
			{
				"type": "unocc",
				"energy": 0.05692,
				"method": "rhf"
			}
		],
		"cosmo_sigma_profile": { 
			"-0.025": 0.0,
			"-0.024": 0.0,
			"-0.023": 0.0,
			"-0.022": 0.0,
			"-0.021": 0.0152650587308,
			"-0.02": 0.726521757602,
			"-0.019": 1.31580834584,
			"-0.018": 0.94539356065,
			"-0.017": 1.24744610763,
			"-0.016": 0.727295490565,
			"-0.015": 0.736035835485,
			"-0.014": 0.81553343137,
			"-0.013": 1.79873449543,
			"-0.012": 1.24510497197,
			"-0.011": 0.524780680415,
			"-0.01": 1.10093471777,
			"-0.009": 2.21714330661,
			"-0.008": 3.30313513168,
			"-0.007": 4.52942064234,
			"-0.006": 9.87884973364,
			"-0.005": 10.5110964679,
			"-0.004": 13.8212085814,
			"-0.003": 16.4173605345,
			"-0.002": 14.1136522236,
			"-0.001": 17.0813813194,
			"0.0": 15.9574522531,
			"0.001": 14.1284545973,
			"0.002": 9.4353932649,
			"0.003": 6.96361870888,
			"0.004": 5.95294727405,
			"0.005": 6.86513264794,
			"0.006": 5.78907226281,
			"0.007": 7.06991797402,
			"0.008": 6.85391676038,
			"0.009": 7.24378039417,
			"0.01": 6.10166733854,
			"0.011": 4.02715095695,
			"0.012": 3.76045585236,
			"0.013": 1.41927089457,
			"0.014": 1.05453865029,
			"0.015": 0.121296284172,
			"0.016": 0.0,
			"0.017": 0.0,
			"0.018": 0.0,
			"0.019": 0.0,
			"0.02": 0.0,
			"0.021": 0.0,
			"0.022": 0.0,
			"0.023": 0.0,
			"0.024": 0.0,
			"0.025": 0.0
		}
	}
}
