{
	 "smiles": "NC1=NC2=C(CCCC2)S1", 
	 "Tm": 304.15, 
	 "num_atms": 20, 
	 "gaussian": { 
		 "optdone": 1, 
		 "sigma_profile": "yes", 
		 "theory": "DFT", 
		 "functional": "B3LYP", 
		 "basiset": "6-31G**", 
		 "properties": { 
			 "R2extent": 2511.1795, 
			 "electric_dipole_moment_norm": 1.20596130535, 
			 "electric_quadrupole_moment_norm": 11.33092963, 
			 "total_energy": -780.474749895, 
			 "HOMO_LUMO_gap": 0.20153, 
			 "cosmo_polarized_energy": -9.05, 
			 "cosmo_cavitation_energy": 23.57, 
			 "cosmo_dispersion_energy": -18.65, 
			 "cosmo_repulsion_energy": 1.49, 
			 "cosmo_total_nonelectrostatic_energy": 6.41, 
			 "SMD_solvation_energy": 1.21 
		},
		"coords": [
			{
				"x": 2.799696718,
				"y": 3.8468946495,
				"z": -0.0723258969,
				"element": "N" 
			},
			{
				"x": 1.8451292501,
				"y": 2.8840862032,
				"z": 0.1864813174,
				"element": "C" 
			},
			{
				"x": 1.9717229276,
				"y": 1.6301884457,
				"z": -0.1292822267,
				"element": "N" 
			},
			{
				"x": 0.815753005,
				"y": 0.929029329,
				"z": 0.1786619768,
				"element": "C" 
			},
			{
				"x": -0.1994371509,
				"y": 1.6373947438,
				"z": 0.7495491943,
				"element": "C" 
			},
			{
				"x": -1.5241621233,
				"y": 1.0820495201,
				"z": 1.1883978761,
				"element": "C" 
			},
			{
				"x": -1.4443713369,
				"y": -0.4571214673,
				"z": 1.2439691479,
				"element": "C" 
			},
			{
				"x": -0.7384953482,
				"y": -1.0331997512,
				"z": 0.0061700714,
				"element": "C" 
			},
			{
				"x": 0.718659384,
				"y": -0.5481609895,
				"z": -0.0927728362,
				"element": "C" 
			},
			{
				"x": 0.2823919859,
				"y": 3.3254624087,
				"z": 0.8982692993,
				"element": "S" 
			},
			{
				"x": 3.6993081155,
				"y": 3.4424423679,
				"z": -0.3000501693,
				"element": "H" 
			},
			{
				"x": 2.8577877716,
				"y": 4.6103378148,
				"z": 0.5871487748,
				"element": "H" 
			},
			{
				"x": -1.8112985086,
				"y": 1.4771583872,
				"z": 2.1709160384,
				"element": "H" 
			},
			{
				"x": -2.3182052123,
				"y": 1.3896177032,
				"z": 0.4919113277,
				"element": "H" 
			},
			{
				"x": -0.892741266,
				"y": -0.7555265435,
				"z": 2.1449137405,
				"element": "H" 
			},
			{
				"x": -2.4540813601,
				"y": -0.8726182299,
				"z": 1.3371015122,
				"element": "H" 
			},
			{
				"x": -1.2851444225,
				"y": -0.7231404911,
				"z": -0.8943339513,
				"element": "H" 
			},
			{
				"x": -0.7664183525,
				"y": -2.1283085865,
				"z": 0.0295377282,
				"element": "H" 
			},
			{
				"x": 1.3503852905,
				"y": -1.0923961133,
				"z": 0.6242297194,
				"element": "H" 
			},
			{
				"x": 1.1345206331,
				"y": -0.7631894008,
				"z": -1.083992644,
				"element": "H" 
			}
		],
		 "valence_orbital": [ 
			{
				"type": "occ",
				"energy": -0.31143,
				"method": "rhf"
			},
			{
				"type": "occ",
				"energy": -0.29882,
				"method": "rhf"
			},
			{
				"type": "occ",
				"energy": -0.26195,
				"method": "rhf"
			},
			{
				"type": "occ",
				"energy": -0.25986,
				"method": "rhf"
			},
			{
				"type": "occ",
				"energy": -0.19525,
				"method": "rhf"
			},
			{
				"type": "unocc",
				"energy": 0.00628,
				"method": "rhf"
			},
			{
				"type": "unocc",
				"energy": 0.01763,
				"method": "rhf"
			},
			{
				"type": "unocc",
				"energy": 0.06959,
				"method": "rhf"
			},
			{
				"type": "unocc",
				"energy": 0.07753,
				"method": "rhf"
			},
			{
				"type": "unocc",
				"energy": 0.09783,
				"method": "rhf"
			}
		],
		"cosmo_sigma_profile": { 
			"-0.025": 0.0,
			"-0.024": 0.0,
			"-0.023": 0.0,
			"-0.022": 0.0,
			"-0.021": 0.0,
			"-0.02": 0.0,
			"-0.019": 0.0,
			"-0.018": 0.0,
			"-0.017": 0.0,
			"-0.016": 0.0,
			"-0.015": 0.0,
			"-0.014": 1.14870802684,
			"-0.013": 2.30779283512,
			"-0.012": 2.91674333082,
			"-0.011": 2.34672514468,
			"-0.01": 3.07314747946,
			"-0.009": 1.982611595,
			"-0.008": 1.2600191106,
			"-0.007": 1.84300770685,
			"-0.006": 2.20975094582,
			"-0.005": 1.59872611444,
			"-0.004": 4.67483104328,
			"-0.003": 17.1247484255,
			"-0.002": 25.0569692537,
			"-0.001": 26.1632190194,
			"0.0": 21.6528086633,
			"0.001": 11.5392583733,
			"0.002": 8.86936528684,
			"0.003": 10.6753811165,
			"0.004": 10.7035932759,
			"0.005": 9.89896477373,
			"0.006": 4.25746131346,
			"0.007": 2.24519784783,
			"0.008": 2.26257780613,
			"0.009": 2.34976179372,
			"0.01": 2.12287787261,
			"0.011": 1.49630926688,
			"0.012": 1.61372848689,
			"0.013": 0.863921990679,
			"0.014": 1.13563769546,
			"0.015": 0.887143270482,
			"0.016": 0.575603068207,
			"0.017": 0.0952163964488,
			"0.018": 0.0,
			"0.019": 0.0,
			"0.02": 0.0,
			"0.021": 0.0,
			"0.022": 0.0,
			"0.023": 0.0,
			"0.024": 0.0,
			"0.025": 0.0
		}
	}
}
