{
	 "smiles": "COC1=C(OCC(=O)NC2=CC(N)=CC=C2)C=CC=C1", 
	 "Tm": 378.15, 
	 "num_atms": 36, 
	 "gaussian": { 
		 "optdone": 1, 
		 "sigma_profile": "yes", 
		 "theory": "DFT", 
		 "functional": "B3LYP", 
		 "basiset": "6-31G**", 
		 "properties": { 
			 "R2extent": 5779.0378, 
			 "electric_dipole_moment_norm": 4.24283709209, 
			 "electric_quadrupole_moment_norm": 8.30929573309, 
			 "total_energy": -916.391512062, 
			 "HOMO_LUMO_gap": 0.19609, 
			 "cosmo_polarized_energy": -18.69, 
			 "cosmo_cavitation_energy": 40.18, 
			 "cosmo_dispersion_energy": -26.64, 
			 "cosmo_repulsion_energy": 2.07, 
			 "cosmo_total_nonelectrostatic_energy": 15.61, 
			 "SMD_solvation_energy": 8.15 
		},
		"coords": [
			{
				"x": -2.6879914993,
				"y": 0.4249229403,
				"z": -2.9832265112,
				"element": "C" 
			},
			{
				"x": -1.6288669315,
				"y": 1.3676704715,
				"z": -2.7702370751,
				"element": "O" 
			},
			{
				"x": -1.5219453612,
				"y": 1.8367592734,
				"z": -1.4797452066,
				"element": "C" 
			},
			{
				"x": -1.0873501799,
				"y": 1.0091162427,
				"z": -0.426911072,
				"element": "C" 
			},
			{
				"x": -0.7957939182,
				"y": -0.3250512056,
				"z": -0.6268494109,
				"element": "O" 
			},
			{
				"x": 0.3156509583,
				"y": -0.5954887381,
				"z": -1.4899631283,
				"element": "C" 
			},
			{
				"x": 0.6171732568,
				"y": -2.0932599947,
				"z": -1.437071788,
				"element": "C" 
			},
			{
				"x": 0.6648749547,
				"y": -2.7566905181,
				"z": -2.4637457216,
				"element": "O" 
			},
			{
				"x": 0.8061072437,
				"y": -2.6764639896,
				"z": -0.2062909634,
				"element": "N" 
			},
			{
				"x": 0.912631241,
				"y": -2.0887233317,
				"z": 1.0859812731,
				"element": "C" 
			},
			{
				"x": 1.8752581607,
				"y": -1.109524159,
				"z": 1.3398425987,
				"element": "C" 
			},
			{
				"x": 1.9939790988,
				"y": -0.5372170211,
				"z": 2.6179098756,
				"element": "C" 
			},
			{
				"x": 2.9852204095,
				"y": 0.4085942953,
				"z": 2.8756733238,
				"element": "N" 
			},
			{
				"x": 1.1517339986,
				"y": -0.9967744286,
				"z": 3.6458750946,
				"element": "C" 
			},
			{
				"x": 0.2196940941,
				"y": -2.0002960464,
				"z": 3.3896032922,
				"element": "C" 
			},
			{
				"x": 0.0840462777,
				"y": -2.5500326276,
				"z": 2.1156266066,
				"element": "C" 
			},
			{
				"x": -0.9912646113,
				"y": 1.523894289,
				"z": 0.8673120461,
				"element": "C" 
			},
			{
				"x": -1.3031101553,
				"y": 2.8614049772,
				"z": 1.1171585186,
				"element": "C" 
			},
			{
				"x": -1.7009694698,
				"y": 3.6932506198,
				"z": 0.0690223588,
				"element": "C" 
			},
			{
				"x": -1.8141359657,
				"y": 3.177866891,
				"z": -1.2229897838,
				"element": "C" 
			},
			{
				"x": -2.5539846942,
				"y": -0.4730359599,
				"z": -2.3719515783,
				"element": "H" 
			},
			{
				"x": -3.6606099246,
				"y": 0.8789642661,
				"z": -2.756202951,
				"element": "H" 
			},
			{
				"x": -2.6502817763,
				"y": 0.1580116549,
				"z": -4.0409794285,
				"element": "H" 
			},
			{
				"x": 1.1862331923,
				"y": -0.0052938798,
				"z": -1.1766311685,
				"element": "H" 
			},
			{
				"x": 0.0843547774,
				"y": -0.3549490929,
				"z": -2.5291638043,
				"element": "H" 
			},
			{
				"x": 0.8503981802,
				"y": -3.6868032727,
				"z": -0.2624055372,
				"element": "H" 
			},
			{
				"x": 2.5585105934,
				"y": -0.8093265364,
				"z": 0.5510470615,
				"element": "H" 
			},
			{
				"x": 2.8295207172,
				"y": 0.9871236971,
				"z": 3.689232795,
				"element": "H" 
			},
			{
				"x": 3.2885513084,
				"y": 0.9495377874,
				"z": 2.0779436718,
				"element": "H" 
			},
			{
				"x": 1.2427063898,
				"y": -0.5755632653,
				"z": 4.6437082909,
				"element": "H" 
			},
			{
				"x": -0.421800943,
				"y": -2.3476652304,
				"z": 4.1945080509,
				"element": "H" 
			},
			{
				"x": -0.6654704229,
				"y": -3.3063040127,
				"z": 1.9076246991,
				"element": "H" 
			},
			{
				"x": -0.6686186767,
				"y": 0.8571805715,
				"z": 1.6605192573,
				"element": "H" 
			},
			{
				"x": -1.2255249539,
				"y": 3.2528250521,
				"z": 2.1272468005,
				"element": "H" 
			},
			{
				"x": -1.9355082465,
				"y": 4.7369676941,
				"z": 0.2558149518,
				"element": "H" 
			},
			{
				"x": -2.1346171223,
				"y": 3.7975725872,
				"z": -2.054685438,
				"element": "H" 
			}
		],
		 "valence_orbital": [ 
			{
				"type": "occ",
				"energy": -0.25055,
				"method": "rhf"
			},
			{
				"type": "occ",
				"energy": -0.24323,
				"method": "rhf"
			},
			{
				"type": "occ",
				"energy": -0.23554,
				"method": "rhf"
			},
			{
				"type": "occ",
				"energy": -0.22927,
				"method": "rhf"
			},
			{
				"type": "occ",
				"energy": -0.20981,
				"method": "rhf"
			},
			{
				"type": "unocc",
				"energy": -0.01372,
				"method": "rhf"
			},
			{
				"type": "unocc",
				"energy": -0.0002,
				"method": "rhf"
			},
			{
				"type": "unocc",
				"energy": 0.00168,
				"method": "rhf"
			},
			{
				"type": "unocc",
				"energy": 0.00544,
				"method": "rhf"
			},
			{
				"type": "unocc",
				"energy": 0.02371,
				"method": "rhf"
			}
		],
		"cosmo_sigma_profile": { 
			"-0.025": 0.0,
			"-0.024": 0.0,
			"-0.023": 0.0,
			"-0.022": 0.0,
			"-0.021": 0.0,
			"-0.02": 0.0,
			"-0.019": 0.0,
			"-0.018": 0.0,
			"-0.017": 0.0,
			"-0.016": 0.0,
			"-0.015": 0.0293167587146,
			"-0.014": 0.917281063459,
			"-0.013": 1.03084483062,
			"-0.012": 3.70716821124,
			"-0.011": 4.22377508274,
			"-0.01": 2.82693043178,
			"-0.009": 4.72681828654,
			"-0.008": 6.55878057411,
			"-0.007": 7.75378733469,
			"-0.006": 14.2849465385,
			"-0.005": 19.9043939617,
			"-0.004": 22.698752122,
			"-0.003": 27.3256632038,
			"-0.002": 21.751153025,
			"-0.001": 20.0027270954,
			"0.0": 17.1269417788,
			"0.001": 19.9257215951,
			"0.002": 21.0028320829,
			"0.003": 20.5357275898,
			"0.004": 18.9932777831,
			"0.005": 19.2787585792,
			"0.006": 10.9028009818,
			"0.007": 4.74288475236,
			"0.008": 4.26470106047,
			"0.009": 4.50276042074,
			"0.01": 2.73160034518,
			"0.011": 3.6567648274,
			"0.012": 4.29198209335,
			"0.013": 6.17653491757,
			"0.014": 2.85199370435,
			"0.015": 0.243317649592,
			"0.016": 0.0,
			"0.017": 0.0,
			"0.018": 0.0,
			"0.019": 0.0,
			"0.02": 0.0,
			"0.021": 0.0,
			"0.022": 0.0,
			"0.023": 0.0,
			"0.024": 0.0,
			"0.025": 0.0
		}
	}
}
