{
	 "smiles": "[O-][N+](=O)C1=C(Cl)C(Cl)=CC=C1", 
	 "Tm": 334.95, 
	 "num_atms": 14, 
	 "gaussian": { 
		 "optdone": 1, 
		 "sigma_profile": "yes", 
		 "theory": "DFT", 
		 "functional": "B3LYP", 
		 "basiset": "6-31G**", 
		 "properties": { 
			 "R2extent": 3831.424, 
			 "electric_dipole_moment_norm": 4.30085282822, 
			 "electric_quadrupole_moment_norm": 12.8587103082, 
			 "total_energy": -1355.90950301, 
			 "HOMO_LUMO_gap": 0.17603, 
			 "cosmo_polarized_energy": -8.41, 
			 "cosmo_cavitation_energy": 22.78, 
			 "cosmo_dispersion_energy": -17.12, 
			 "cosmo_repulsion_energy": 1.37, 
			 "cosmo_total_nonelectrostatic_energy": 7.03, 
			 "SMD_solvation_energy": 5.76 
		},
		"coords": [
			{
				"x": -2.9081224605,
				"y": 2.3188507366,
				"z": -2.1520141838,
				"element": "O" 
			},
			{
				"x": -2.3997126188,
				"y": 1.4053736827,
				"z": -2.7905713145,
				"element": "N" 
			},
			{
				"x": -2.8547825867,
				"y": 0.9160806069,
				"z": -3.8235882052,
				"element": "O" 
			},
			{
				"x": -1.1616611395,
				"y": 0.7927438231,
				"z": -2.2661677015,
				"element": "C" 
			},
			{
				"x": -0.1503728214,
				"y": 1.548796164,
				"z": -1.6488962247,
				"element": "C" 
			},
			{
				"x": -0.2136462254,
				"y": 3.2767443704,
				"z": -1.5421301171,
				"element": "Cl" 
			},
			{
				"x": 0.9709717501,
				"y": 0.853268093,
				"z": -1.1604074229,
				"element": "C" 
			},
			{
				"x": 2.2893703571,
				"y": 1.7033233021,
				"z": -0.3992943433,
				"element": "Cl" 
			},
			{
				"x": 1.0614957518,
				"y": -0.5351870773,
				"z": -1.27574552,
				"element": "C" 
			},
			{
				"x": 0.0471108079,
				"y": -1.2558383499,
				"z": -1.9005268046,
				"element": "C" 
			},
			{
				"x": -1.0617077145,
				"y": -0.5897235371,
				"z": -2.4094215336,
				"element": "C" 
			},
			{
				"x": 1.9369032787,
				"y": -1.036468714,
				"z": -0.87874505,
				"element": "H" 
			},
			{
				"x": 0.1250648635,
				"y": -2.3336851288,
				"z": -1.9930422301,
				"element": "H" 
			},
			{
				"x": -1.8616112422,
				"y": -1.1150779718,
				"z": -2.9161493487,
				"element": "H" 
			}
		],
		 "valence_orbital": [ 
			{
				"type": "occ",
				"energy": -0.31787,
				"method": "rhf"
			},
			{
				"type": "occ",
				"energy": -0.31676,
				"method": "rhf"
			},
			{
				"type": "occ",
				"energy": -0.30335,
				"method": "rhf"
			},
			{
				"type": "occ",
				"energy": -0.28444,
				"method": "rhf"
			},
			{
				"type": "occ",
				"energy": -0.27297,
				"method": "rhf"
			},
			{
				"type": "unocc",
				"energy": -0.09694,
				"method": "rhf"
			},
			{
				"type": "unocc",
				"energy": -0.04895,
				"method": "rhf"
			},
			{
				"type": "unocc",
				"energy": -0.0297,
				"method": "rhf"
			},
			{
				"type": "unocc",
				"energy": -0.01819,
				"method": "rhf"
			},
			{
				"type": "unocc",
				"energy": 0.04535,
				"method": "rhf"
			}
		],
		"cosmo_sigma_profile": { 
			"-0.025": 0.0,
			"-0.024": 0.0,
			"-0.023": 0.0,
			"-0.022": 0.0,
			"-0.021": 0.0,
			"-0.02": 0.0,
			"-0.019": 0.0,
			"-0.018": 0.0,
			"-0.017": 0.0,
			"-0.016": 0.0,
			"-0.015": 0.0,
			"-0.014": 0.0,
			"-0.013": 0.0,
			"-0.012": 0.0,
			"-0.011": 0.0,
			"-0.01": 0.00244950787474,
			"-0.009": 3.46100478276,
			"-0.008": 8.37884825193,
			"-0.007": 8.30925743002,
			"-0.006": 6.21868139428,
			"-0.005": 6.28038391219,
			"-0.004": 7.4798952431,
			"-0.003": 9.98100289434,
			"-0.002": 18.1024775334,
			"-0.001": 20.7094362243,
			"0.0": 15.2742228029,
			"0.001": 13.5600004592,
			"0.002": 13.839781151,
			"0.003": 16.0343775084,
			"0.004": 10.1699824135,
			"0.005": 4.12803617679,
			"0.006": 5.78328951429,
			"0.007": 11.2933720393,
			"0.008": 6.09298619827,
			"0.009": 2.87039131596,
			"0.01": 0.322976811219,
			"0.011": 0.0,
			"0.012": 0.0,
			"0.013": 0.0,
			"0.014": 0.0,
			"0.015": 0.0,
			"0.016": 0.0,
			"0.017": 0.0,
			"0.018": 0.0,
			"0.019": 0.0,
			"0.02": 0.0,
			"0.021": 0.0,
			"0.022": 0.0,
			"0.023": 0.0,
			"0.024": 0.0,
			"0.025": 0.0
		}
	}
}
