{
	 "smiles": "CC1=NNC(=O)CC1", 
	 "Tm": 354.15, 
	 "num_atms": 16, 
	 "gaussian": { 
		 "optdone": 1, 
		 "sigma_profile": "yes", 
		 "theory": "DFT", 
		 "functional": "B3LYP", 
		 "basiset": "6-31G**", 
		 "properties": { 
			 "R2extent": 1005.5299, 
			 "electric_dipole_moment_norm": 3.5184661445, 
			 "electric_quadrupole_moment_norm": 9.1204587571, 
			 "total_energy": -380.067764998, 
			 "HOMO_LUMO_gap": 0.21494, 
			 "cosmo_polarized_energy": -11.43, 
			 "cosmo_cavitation_energy": 19.23, 
			 "cosmo_dispersion_energy": -14.59, 
			 "cosmo_repulsion_energy": 1.24, 
			 "cosmo_total_nonelectrostatic_energy": 5.88, 
			 "SMD_solvation_energy": 3.3 
		},
		"coords": [
			{
				"x": -1.7985580954,
				"y": 1.4837719653,
				"z": -1.3470094991,
				"element": "C" 
			},
			{
				"x": -0.7433538608,
				"y": 0.805354896,
				"z": -0.5228670733,
				"element": "C" 
			},
			{
				"x": -0.8239351254,
				"y": -0.468201523,
				"z": -0.3691985824,
				"element": "N" 
			},
			{
				"x": 0.1493115023,
				"y": -1.0687042948,
				"z": 0.416371858,
				"element": "N" 
			},
			{
				"x": 1.411452671,
				"y": -0.5872898675,
				"z": 0.7016264775,
				"element": "C" 
			},
			{
				"x": 2.2440292358,
				"y": -1.2735217154,
				"z": 1.2725405519,
				"element": "O" 
			},
			{
				"x": 1.6519562645,
				"y": 0.8268243428,
				"z": 0.2025101186,
				"element": "C" 
			},
			{
				"x": 0.3464002707,
				"y": 1.6276979494,
				"z": 0.1276917651,
				"element": "C" 
			},
			{
				"x": -2.2991457521,
				"y": 2.2682539709,
				"z": -0.7650360242,
				"element": "H" 
			},
			{
				"x": -1.3586036521,
				"y": 1.973054785,
				"z": -2.2249961686,
				"element": "H" 
			},
			{
				"x": -2.5429858929,
				"y": 0.7590171502,
				"z": -1.6808558812,
				"element": "H" 
			},
			{
				"x": -0.0013741434,
				"y": -2.0559968708,
				"z": 0.573613218,
				"element": "H" 
			},
			{
				"x": 2.1020682535,
				"y": 0.7397031373,
				"z": -0.7956648978,
				"element": "H" 
			},
			{
				"x": 2.3955722258,
				"y": 1.2962081853,
				"z": 0.8497687064,
				"element": "H" 
			},
			{
				"x": 0.4921751341,
				"y": 2.5724237585,
				"z": -0.4049841,
				"element": "H" 
			},
			{
				"x": 0.0112909644,
				"y": 1.8917041309,
				"z": 1.1423895312,
				"element": "H" 
			}
		],
		 "valence_orbital": [ 
			{
				"type": "occ",
				"energy": -0.36881,
				"method": "rhf"
			},
			{
				"type": "occ",
				"energy": -0.33352,
				"method": "rhf"
			},
			{
				"type": "occ",
				"energy": -0.29628,
				"method": "rhf"
			},
			{
				"type": "occ",
				"energy": -0.24527,
				"method": "rhf"
			},
			{
				"type": "occ",
				"energy": -0.2339,
				"method": "rhf"
			},
			{
				"type": "unocc",
				"energy": -0.01896,
				"method": "rhf"
			},
			{
				"type": "unocc",
				"energy": 0.04059,
				"method": "rhf"
			},
			{
				"type": "unocc",
				"energy": 0.08821,
				"method": "rhf"
			},
			{
				"type": "unocc",
				"energy": 0.10305,
				"method": "rhf"
			},
			{
				"type": "unocc",
				"energy": 0.12232,
				"method": "rhf"
			}
		],
		"cosmo_sigma_profile": { 
			"-0.025": 0.0,
			"-0.024": 0.0,
			"-0.023": 0.0,
			"-0.022": 0.0,
			"-0.021": 0.0,
			"-0.02": 0.0,
			"-0.019": 0.0,
			"-0.018": 0.0,
			"-0.017": 0.0,
			"-0.016": 0.0,
			"-0.015": 0.228314428647,
			"-0.014": 0.914526375878,
			"-0.013": 1.16025093933,
			"-0.012": 0.70987838085,
			"-0.011": 0.487870991904,
			"-0.01": 0.964558341926,
			"-0.009": 0.679054877896,
			"-0.008": 0.995727555533,
			"-0.007": 1.29201100645,
			"-0.006": 7.18566681289,
			"-0.005": 18.7902538089,
			"-0.004": 20.4633022957,
			"-0.003": 14.8669759516,
			"-0.002": 13.7953810105,
			"-0.001": 10.3822271922,
			"0.0": 8.54221900415,
			"0.001": 3.96821479387,
			"0.002": 3.80387531469,
			"0.003": 3.82930028786,
			"0.004": 4.96054137044,
			"0.005": 3.72639374493,
			"0.006": 2.39334574063,
			"0.007": 2.63386590928,
			"0.008": 2.27823786499,
			"0.009": 2.44114567244,
			"0.01": 2.16417847641,
			"0.011": 3.00498273378,
			"0.012": 3.0448603558,
			"0.013": 6.67584746106,
			"0.014": 4.25277744228,
			"0.015": 0.389118656171,
			"0.016": 0.0,
			"0.017": 0.0,
			"0.018": 0.0,
			"0.019": 0.0,
			"0.02": 0.0,
			"0.021": 0.0,
			"0.022": 0.0,
			"0.023": 0.0,
			"0.024": 0.0,
			"0.025": 0.0
		}
	}
}
