{
	 "smiles": "[O-][N+](=O)C1=CC2=C(C=C1)N=C(S)O2", 
	 "Tm": 466.15, 
	 "num_atms": 17, 
	 "gaussian": { 
		 "optdone": 1, 
		 "sigma_profile": "yes", 
		 "theory": "DFT", 
		 "functional": "B3LYP", 
		 "basiset": "6-31G**", 
		 "properties": { 
			 "R2extent": 4412.6684, 
			 "electric_dipole_moment_norm": 3.95919262855, 
			 "electric_quadrupole_moment_norm": 18.9950711657, 
			 "total_energy": -1002.40409251, 
			 "HOMO_LUMO_gap": 0.16028, 
			 "cosmo_polarized_energy": -11.2, 
			 "cosmo_cavitation_energy": 24.85, 
			 "cosmo_dispersion_energy": -19.26, 
			 "cosmo_repulsion_energy": 1.46, 
			 "cosmo_total_nonelectrostatic_energy": 7.04, 
			 "SMD_solvation_energy": 4.41 
		},
		"coords": [
			{
				"x": -1.8285538493,
				"y": -1.9196147308,
				"z": 1.9425795528,
				"element": "O" 
			},
			{
				"x": -1.693369969,
				"y": -1.2536183681,
				"z": 0.915271646,
				"element": "N" 
			},
			{
				"x": -2.5099160455,
				"y": -1.2116894286,
				"z": -0.0046095955,
				"element": "O" 
			},
			{
				"x": -0.4690130861,
				"y": -0.4529329192,
				"z": 0.7811181764,
				"element": "C" 
			},
			{
				"x": 0.4596456037,
				"y": -0.4995392813,
				"z": 1.8258366145,
				"element": "C" 
			},
			{
				"x": 1.5794409686,
				"y": 0.2790362913,
				"z": 1.6218386932,
				"element": "C" 
			},
			{
				"x": 1.8040650506,
				"y": 1.0641588104,
				"z": 0.478112886,
				"element": "C" 
			},
			{
				"x": 0.8536327046,
				"y": 1.0869612955,
				"z": -0.5474092628,
				"element": "C" 
			},
			{
				"x": -0.2920488561,
				"y": 0.3145461331,
				"z": -0.3810582229,
				"element": "C" 
			},
			{
				"x": 3.0278273086,
				"y": 1.7139987066,
				"z": 0.6076808257,
				"element": "N" 
			},
			{
				"x": 3.4677425884,
				"y": 1.3173480484,
				"z": 1.7593685641,
				"element": "C" 
			},
			{
				"x": 4.9856080178,
				"y": 1.7989947512,
				"z": 2.488653288,
				"element": "S" 
			},
			{
				"x": 2.6658032378,
				"y": 0.4463885487,
				"z": 2.4549089259,
				"element": "O" 
			},
			{
				"x": 0.2869252775,
				"y": -1.1037211286,
				"z": 2.7061022246,
				"element": "H" 
			},
			{
				"x": 1.0089895341,
				"y": 1.6862558134,
				"z": -1.4371113164,
				"element": "H" 
			},
			{
				"x": -1.067247999,
				"y": 0.2867377186,
				"z": -1.13612545,
				"element": "H" 
			},
			{
				"x": 4.8119695135,
				"y": 1.0611897394,
				"z": 3.6022424504,
				"element": "H" 
			}
		],
		 "valence_orbital": [ 
			{
				"type": "occ",
				"energy": -0.31202,
				"method": "rhf"
			},
			{
				"type": "occ",
				"energy": -0.31061,
				"method": "rhf"
			},
			{
				"type": "occ",
				"energy": -0.29318,
				"method": "rhf"
			},
			{
				"type": "occ",
				"energy": -0.27811,
				"method": "rhf"
			},
			{
				"type": "occ",
				"energy": -0.25475,
				"method": "rhf"
			},
			{
				"type": "unocc",
				"energy": -0.09447,
				"method": "rhf"
			},
			{
				"type": "unocc",
				"energy": -0.0398,
				"method": "rhf"
			},
			{
				"type": "unocc",
				"energy": -0.0159,
				"method": "rhf"
			},
			{
				"type": "unocc",
				"energy": -0.01555,
				"method": "rhf"
			},
			{
				"type": "unocc",
				"energy": 0.02237,
				"method": "rhf"
			}
		],
		"cosmo_sigma_profile": { 
			"-0.025": 0.0,
			"-0.024": 0.0,
			"-0.023": 0.0,
			"-0.022": 0.0,
			"-0.021": 0.0,
			"-0.02": 0.0,
			"-0.019": 0.0,
			"-0.018": 0.0,
			"-0.017": 0.0,
			"-0.016": 0.0,
			"-0.015": 0.0,
			"-0.014": 0.338390514966,
			"-0.013": 2.06516398035,
			"-0.012": 1.33948589149,
			"-0.011": 1.51391323663,
			"-0.01": 1.51942768513,
			"-0.009": 2.45706453584,
			"-0.008": 5.29076092797,
			"-0.007": 6.69986322982,
			"-0.006": 7.93937501808,
			"-0.005": 8.87031107992,
			"-0.004": 11.3939787164,
			"-0.003": 11.6081995111,
			"-0.002": 16.9604879602,
			"-0.001": 20.6913211379,
			"0.0": 20.1847021198,
			"0.001": 16.3144827678,
			"0.002": 11.8733636949,
			"0.003": 7.31746481176,
			"0.004": 7.82604585679,
			"0.005": 6.54647728352,
			"0.006": 6.04698137911,
			"0.007": 7.97950154144,
			"0.008": 8.26454091543,
			"0.009": 5.59025684462,
			"0.01": 4.3214965738,
			"0.011": 0.893579179865,
			"0.012": 0.474287027888,
			"0.013": 1.28618085784,
			"0.014": 0.335118432539,
			"0.015": 0.0,
			"0.016": 0.0,
			"0.017": 0.0,
			"0.018": 0.0,
			"0.019": 0.0,
			"0.02": 0.0,
			"0.021": 0.0,
			"0.022": 0.0,
			"0.023": 0.0,
			"0.024": 0.0,
			"0.025": 0.0
		}
	}
}
