{
	 "smiles": "OC(=O)C1=CN(N=N1)C1=CC=C(F)C=C1", 
	 "Tm": 433.15, 
	 "num_atms": 21, 
	 "gaussian": { 
		 "optdone": 1, 
		 "sigma_profile": "yes", 
		 "theory": "DFT", 
		 "functional": "B3LYP", 
		 "basiset": "6-31G**", 
		 "properties": { 
			 "R2extent": 4582.6659, 
			 "electric_dipole_moment_norm": 4.78376459914, 
			 "electric_quadrupole_moment_norm": 21.0050456586, 
			 "total_energy": -761.078636945, 
			 "HOMO_LUMO_gap": 0.19322, 
			 "cosmo_polarized_energy": -15.11, 
			 "cosmo_cavitation_energy": 27.52, 
			 "cosmo_dispersion_energy": -20.33, 
			 "cosmo_repulsion_energy": 1.53, 
			 "cosmo_total_nonelectrostatic_energy": 8.72, 
			 "SMD_solvation_energy": 5.69 
		},
		"coords": [
			{
				"x": 4.171562985,
				"y": 0.1373077374,
				"z": 3.5114827163,
				"element": "O" 
			},
			{
				"x": 2.8330004529,
				"y": -0.0007802768,
				"z": 3.4258657429,
				"element": "C" 
			},
			{
				"x": 2.1348550147,
				"y": -0.2159668843,
				"z": 4.3895122266,
				"element": "O" 
			},
			{
				"x": 2.3011736971,
				"y": 0.1380696825,
				"z": 2.0503386978,
				"element": "C" 
			},
			{
				"x": 1.0018150499,
				"y": 0.058047324,
				"z": 1.6012911242,
				"element": "C" 
			},
			{
				"x": 1.0964107888,
				"y": 0.2613332401,
				"z": 0.2626184727,
				"element": "N" 
			},
			{
				"x": 2.3996514694,
				"y": 0.4584042113,
				"z": -0.0969030081,
				"element": "N" 
			},
			{
				"x": 3.1141793867,
				"y": 0.3824130621,
				"z": 0.9825070739,
				"element": "N" 
			},
			{
				"x": 0.0705050421,
				"y": 0.2901375898,
				"z": -0.7303448481,
				"element": "C" 
			},
			{
				"x": 0.420361057,
				"y": 0.5232898811,
				"z": -2.0655395849,
				"element": "C" 
			},
			{
				"x": -0.5704891436,
				"y": 0.5537854018,
				"z": -3.0421091476,
				"element": "C" 
			},
			{
				"x": -1.8957519946,
				"y": 0.3510645359,
				"z": -2.6710276605,
				"element": "C" 
			},
			{
				"x": -2.8529038607,
				"y": 0.3807434477,
				"z": -3.6155126297,
				"element": "F" 
			},
			{
				"x": -2.2579814339,
				"y": 0.1184343043,
				"z": -1.3493208051,
				"element": "C" 
			},
			{
				"x": -1.2656838176,
				"y": 0.0879381779,
				"z": -0.3718006602,
				"element": "C" 
			},
			{
				"x": 4.5243555118,
				"y": 0.3049054842,
				"z": 2.6185736993,
				"element": "H" 
			},
			{
				"x": 0.0820526236,
				"y": -0.1206237146,
				"z": 2.1311616105,
				"element": "H" 
			},
			{
				"x": 1.4597245965,
				"y": 0.6777328037,
				"z": -2.3249245866,
				"element": "H" 
			},
			{
				"x": -0.3259363135,
				"y": 0.7324209606,
				"z": -4.0831486209,
				"element": "H" 
			},
			{
				"x": -3.3006791949,
				"y": -0.0355052609,
				"z": -1.0959585742,
				"element": "H" 
			},
			{
				"x": -1.5483219164,
				"y": -0.0935517079,
				"z": 0.6586387616,
				"element": "H" 
			}
		],
		 "valence_orbital": [ 
			{
				"type": "occ",
				"energy": -0.30514,
				"method": "rhf"
			},
			{
				"type": "occ",
				"energy": -0.2943,
				"method": "rhf"
			},
			{
				"type": "occ",
				"energy": -0.2884,
				"method": "rhf"
			},
			{
				"type": "occ",
				"energy": -0.27754,
				"method": "rhf"
			},
			{
				"type": "occ",
				"energy": -0.25829,
				"method": "rhf"
			},
			{
				"type": "unocc",
				"energy": -0.06507,
				"method": "rhf"
			},
			{
				"type": "unocc",
				"energy": -0.04452,
				"method": "rhf"
			},
			{
				"type": "unocc",
				"energy": -0.03179,
				"method": "rhf"
			},
			{
				"type": "unocc",
				"energy": 0.00776,
				"method": "rhf"
			},
			{
				"type": "unocc",
				"energy": 0.0562,
				"method": "rhf"
			}
		],
		"cosmo_sigma_profile": { 
			"-0.025": 0.0,
			"-0.024": 0.0,
			"-0.023": 0.0,
			"-0.022": 0.0,
			"-0.021": 0.0,
			"-0.02": 0.0,
			"-0.019": 0.0,
			"-0.018": 0.0,
			"-0.017": 0.0,
			"-0.016": 0.127062729934,
			"-0.015": 0.45879344313,
			"-0.014": 0.77442043944,
			"-0.013": 1.93671418609,
			"-0.012": 3.44795175195,
			"-0.011": 2.08840343077,
			"-0.01": 2.20415713448,
			"-0.009": 2.70078720121,
			"-0.008": 6.81938596747,
			"-0.007": 8.90347843359,
			"-0.006": 9.54175847554,
			"-0.005": 9.29950150329,
			"-0.004": 11.6360735854,
			"-0.003": 13.5638733569,
			"-0.002": 15.186485872,
			"-0.001": 16.6487252484,
			"0.0": 17.3596810966,
			"0.001": 18.5482123791,
			"0.002": 15.1550865414,
			"0.003": 10.1056323932,
			"0.004": 12.7489119467,
			"0.005": 3.99035751244,
			"0.006": 5.19191686871,
			"0.007": 4.2731179529,
			"0.008": 6.70293451838,
			"0.009": 7.54337173163,
			"0.01": 6.14342974657,
			"0.011": 5.1430827575,
			"0.012": 3.82124328845,
			"0.013": 0.784076123916,
			"0.014": 0.0,
			"0.015": 0.0,
			"0.016": 0.0,
			"0.017": 0.0,
			"0.018": 0.0,
			"0.019": 0.0,
			"0.02": 0.0,
			"0.021": 0.0,
			"0.022": 0.0,
			"0.023": 0.0,
			"0.024": 0.0,
			"0.025": 0.0
		}
	}
}
