{
	 "smiles": "FC1=CC=C(C=C1)C(=O)CCCN1CCC(CC1)N1C(=O)NC2=C1C=CC=C2", 
	 "Tm": 443.15, 
	 "num_atms": 52, 
	 "gaussian": { 
		 "optdone": 1, 
		 "sigma_profile": "yes", 
		 "theory": "DFT", 
		 "functional": "B3LYP", 
		 "basiset": "6-31G**", 
		 "properties": { 
			 "R2extent": 20450.489, 
			 "electric_dipole_moment_norm": 3.69323858152, 
			 "electric_quadrupole_moment_norm": 14.0957048781, 
			 "total_energy": -1267.37610264, 
			 "HOMO_LUMO_gap": 0.14587, 
			 "cosmo_polarized_energy": -18.48, 
			 "cosmo_cavitation_energy": 53.69, 
			 "cosmo_dispersion_energy": -37.37, 
			 "cosmo_repulsion_energy": 2.76, 
			 "cosmo_total_nonelectrostatic_energy": 19.08, 
			 "SMD_solvation_energy": 8.09 
		},
		"coords": [
			{
				"x": 3.1406148252,
				"y": 4.9186463888,
				"z": 5.5339761162,
				"element": "F" 
			},
			{
				"x": 2.3286990026,
				"y": 3.8818905171,
				"z": 5.252669314,
				"element": "C" 
			},
			{
				"x": 2.5490512581,
				"y": 2.6619571522,
				"z": 5.8877715596,
				"element": "C" 
			},
			{
				"x": 1.7057983561,
				"y": 1.5980307466,
				"z": 5.5903076826,
				"element": "C" 
			},
			{
				"x": 0.6529271225,
				"y": 1.7434960983,
				"z": 4.6712179843,
				"element": "C" 
			},
			{
				"x": 0.4614351294,
				"y": 2.988006686,
				"z": 4.0502531355,
				"element": "C" 
			},
			{
				"x": 1.2979591492,
				"y": 4.065017174,
				"z": 4.3368612501,
				"element": "C" 
			},
			{
				"x": -0.2171383949,
				"y": 0.5509717404,
				"z": 4.4020168703,
				"element": "C" 
			},
			{
				"x": 0.0110889708,
				"y": -0.5121803368,
				"z": 4.9643204115,
				"element": "O" 
			},
			{
				"x": -1.3832537332,
				"y": 0.7004581907,
				"z": 3.4320328837,
				"element": "C" 
			},
			{
				"x": -2.1696886612,
				"y": -0.594059673,
				"z": 3.2061332891,
				"element": "C" 
			},
			{
				"x": -1.4350366118,
				"y": -1.596718774,
				"z": 2.3008299218,
				"element": "C" 
			},
			{
				"x": -1.0963647835,
				"y": -1.0445532454,
				"z": 0.9862641792,
				"element": "N" 
			},
			{
				"x": 0.0089940888,
				"y": -1.7498602668,
				"z": 0.3050947896,
				"element": "C" 
			},
			{
				"x": -0.4410498288,
				"y": -2.5752803047,
				"z": -0.9086623297,
				"element": "C" 
			},
			{
				"x": -1.0243670321,
				"y": -1.6276398749,
				"z": -1.9742657689,
				"element": "C" 
			},
			{
				"x": -1.9021354818,
				"y": -0.5292089801,
				"z": -1.3053288596,
				"element": "C" 
			},
			{
				"x": -2.2862271596,
				"y": -0.8735576356,
				"z": 0.1355958785,
				"element": "C" 
			},
			{
				"x": -1.7176192065,
				"y": -2.3605507633,
				"z": -3.0413543744,
				"element": "N" 
			},
			{
				"x": -2.8717306792,
				"y": -3.1200241469,
				"z": -2.8349015519,
				"element": "C" 
			},
			{
				"x": -3.4906197955,
				"y": -3.2741936907,
				"z": -1.7908617869,
				"element": "O" 
			},
			{
				"x": -3.1767453228,
				"y": -3.6697981348,
				"z": -4.0771553505,
				"element": "N" 
			},
			{
				"x": -2.2518646822,
				"y": -3.2829971265,
				"z": -5.0380285251,
				"element": "C" 
			},
			{
				"x": -1.3204265692,
				"y": -2.4515185953,
				"z": -4.3782117513,
				"element": "C" 
			},
			{
				"x": -0.2528722701,
				"y": -1.8944266194,
				"z": -5.0746005424,
				"element": "C" 
			},
			{
				"x": -0.1375946312,
				"y": -2.1852554543,
				"z": -6.4402830986,
				"element": "C" 
			},
			{
				"x": -1.0630225406,
				"y": -3.0083658297,
				"z": -7.0886194812,
				"element": "C" 
			},
			{
				"x": -2.1393918755,
				"y": -3.5716060079,
				"z": -6.3914277716,
				"element": "C" 
			},
			{
				"x": 3.3659343425,
				"y": 2.5666300336,
				"z": 6.5949747183,
				"element": "H" 
			},
			{
				"x": 1.8409154601,
				"y": 0.6304164959,
				"z": 6.0614759461,
				"element": "H" 
			},
			{
				"x": -0.3420335636,
				"y": 3.1261527652,
				"z": 3.3350450966,
				"element": "H" 
			},
			{
				"x": 1.1654173762,
				"y": 5.0331177713,
				"z": 3.8664163855,
				"element": "H" 
			},
			{
				"x": -0.9960529576,
				"y": 1.057599903,
				"z": 2.4689695035,
				"element": "H" 
			},
			{
				"x": -2.0384894803,
				"y": 1.4937556869,
				"z": 3.8169879123,
				"element": "H" 
			},
			{
				"x": -3.148025776,
				"y": -0.3460684829,
				"z": 2.7799394064,
				"element": "H" 
			},
			{
				"x": -2.3574268271,
				"y": -1.0836904775,
				"z": 4.1669902321,
				"element": "H" 
			},
			{
				"x": -0.505913777,
				"y": -1.8788322463,
				"z": 2.8031130304,
				"element": "H" 
			},
			{
				"x": -2.0521153484,
				"y": -2.5123626249,
				"z": 2.2169579678,
				"element": "H" 
			},
			{
				"x": 0.7634737424,
				"y": -1.0186258453,
				"z": -0.0276655222,
				"element": "H" 
			},
			{
				"x": 0.5144369957,
				"y": -2.4004979746,
				"z": 1.0249743359,
				"element": "H" 
			},
			{
				"x": -1.2043352119,
				"y": -3.299821392,
				"z": -0.6105861953,
				"element": "H" 
			},
			{
				"x": 0.4031635986,
				"y": -3.1346253681,
				"z": -1.3272513599,
				"element": "H" 
			},
			{
				"x": -0.1900952523,
				"y": -1.1304638582,
				"z": -2.4762584785,
				"element": "H" 
			},
			{
				"x": -2.808924101,
				"y": -0.3670228137,
				"z": -1.8939755741,
				"element": "H" 
			},
			{
				"x": -1.3454817739,
				"y": 0.4149446543,
				"z": -1.3064344839,
				"element": "H" 
			},
			{
				"x": -2.9199842865,
				"y": -1.775049426,
				"z": 0.1279909044,
				"element": "H" 
			},
			{
				"x": -2.8954041893,
				"y": -0.0568636432,
				"z": 0.5399383891,
				"element": "H" 
			},
			{
				"x": -3.9766268052,
				"y": -4.2683550485,
				"z": -4.2041998066,
				"element": "H" 
			},
			{
				"x": 0.4729411523,
				"y": -1.2543525635,
				"z": -4.5842675663,
				"element": "H" 
			},
			{
				"x": 0.6886883523,
				"y": -1.7607413001,
				"z": -7.0019863465,
				"element": "H" 
			},
			{
				"x": -0.9487827168,
				"y": -3.2166933282,
				"z": -8.1477545562,
				"element": "H" 
			},
			{
				"x": -2.8599975962,
				"y": -4.2117301512,
				"z": -6.8909380128,
				"element": "H" 
			}
		],
		 "valence_orbital": [ 
			{
				"type": "occ",
				"energy": -0.25173,
				"method": "rhf"
			},
			{
				"type": "occ",
				"energy": -0.24599,
				"method": "rhf"
			},
			{
				"type": "occ",
				"energy": -0.23635,
				"method": "rhf"
			},
			{
				"type": "occ",
				"energy": -0.20606,
				"method": "rhf"
			},
			{
				"type": "occ",
				"energy": -0.19735,
				"method": "rhf"
			},
			{
				"type": "unocc",
				"energy": -0.05148,
				"method": "rhf"
			},
			{
				"type": "unocc",
				"energy": -0.01728,
				"method": "rhf"
			},
			{
				"type": "unocc",
				"energy": -0.00677,
				"method": "rhf"
			},
			{
				"type": "unocc",
				"energy": 0.01311,
				"method": "rhf"
			},
			{
				"type": "unocc",
				"energy": 0.04385,
				"method": "rhf"
			}
		],
		"cosmo_sigma_profile": { 
			"-0.025": 0.0,
			"-0.024": 0.0,
			"-0.023": 0.0,
			"-0.022": 0.0,
			"-0.021": 0.0,
			"-0.02": 0.0,
			"-0.019": 0.0,
			"-0.018": 0.0,
			"-0.017": 0.0,
			"-0.016": 0.750818797044,
			"-0.015": 1.53964939586,
			"-0.014": 0.900383732189,
			"-0.013": 1.15098226968,
			"-0.012": 0.84990144038,
			"-0.011": 1.42514786669,
			"-0.01": 1.16594330323,
			"-0.009": 0.917106085433,
			"-0.008": 2.51330175009,
			"-0.007": 10.2686086048,
			"-0.006": 16.5373888079,
			"-0.005": 22.4816150031,
			"-0.004": 26.8548314952,
			"-0.003": 34.7947130354,
			"-0.002": 36.868932075,
			"-0.001": 47.159675835,
			"0.0": 48.5047929223,
			"0.001": 33.8506071001,
			"0.002": 28.4927619704,
			"0.003": 27.0394643564,
			"0.004": 22.1248771953,
			"0.005": 13.1923470154,
			"0.006": 12.2756589208,
			"0.007": 4.82279012803,
			"0.008": 4.16940765791,
			"0.009": 4.5211253345,
			"0.01": 2.92666629341,
			"0.011": 4.0478355523,
			"0.012": 4.83082808508,
			"0.013": 2.87186981257,
			"0.014": 3.66863138359,
			"0.015": 0.900866939922,
			"0.016": 0.0,
			"0.017": 0.0,
			"0.018": 0.0,
			"0.019": 0.0,
			"0.02": 0.0,
			"0.021": 0.0,
			"0.022": 0.0,
			"0.023": 0.0,
			"0.024": 0.0,
			"0.025": 0.0
		}
	}
}
