{
	 "smiles": "COC1=CC(=CC(OC)=C1OC)C#N", 
	 "Tm": 366.65, 
	 "num_atms": 25, 
	 "gaussian": { 
		 "optdone": 1, 
		 "sigma_profile": "yes", 
		 "theory": "DFT", 
		 "functional": "B3LYP", 
		 "basiset": "6-31G**", 
		 "properties": { 
			 "R2extent": 3273.8135, 
			 "electric_dipole_moment_norm": 5.92344208463, 
			 "electric_quadrupole_moment_norm": 16.2462397305, 
			 "total_energy": -668.046885222, 
			 "HOMO_LUMO_gap": 0.19864, 
			 "cosmo_polarized_energy": -10.77, 
			 "cosmo_cavitation_energy": 30.09, 
			 "cosmo_dispersion_energy": -20.5, 
			 "cosmo_repulsion_energy": 1.65, 
			 "cosmo_total_nonelectrostatic_energy": 11.24, 
			 "SMD_solvation_energy": 9.03 
		},
		"coords": [
			{
				"x": 0.476918413,
				"y": -3.4773005343,
				"z": -0.6481508077,
				"element": "C" 
			},
			{
				"x": -0.3789661192,
				"y": -2.4879953723,
				"z": -0.0612782625,
				"element": "O" 
			},
			{
				"x": -0.3276990679,
				"y": -1.2377757869,
				"z": -0.6155969284,
				"element": "C" 
			},
			{
				"x": -1.4808350838,
				"y": -0.729882154,
				"z": -1.2139251438,
				"element": "C" 
			},
			{
				"x": -1.4913274227,
				"y": 0.581642974,
				"z": -1.7116366593,
				"element": "C" 
			},
			{
				"x": -0.3381385588,
				"y": 1.3783026603,
				"z": -1.638724963,
				"element": "C" 
			},
			{
				"x": 0.8156746364,
				"y": 0.868140188,
				"z": -1.0478804804,
				"element": "C" 
			},
			{
				"x": 1.9119120693,
				"y": 1.684836125,
				"z": -0.9261693335,
				"element": "O" 
			},
			{
				"x": 3.0510181008,
				"y": 1.3080278855,
				"z": -1.7130561477,
				"element": "C" 
			},
			{
				"x": 0.8271643826,
				"y": -0.4376668477,
				"z": -0.5204303512,
				"element": "C" 
			},
			{
				"x": 1.9559775179,
				"y": -0.941475059,
				"z": 0.0771263176,
				"element": "O" 
			},
			{
				"x": 2.1760367039,
				"y": -0.4652458741,
				"z": 1.4157973063,
				"element": "C" 
			},
			{
				"x": -2.6823703868,
				"y": 1.1059594704,
				"z": -2.3140538138,
				"element": "C" 
			},
			{
				"x": -3.6477088842,
				"y": 1.5312288301,
				"z": -2.804720234,
				"element": "N" 
			},
			{
				"x": 1.5297975561,
				"y": -3.1987845769,
				"z": -0.5560889832,
				"element": "H" 
			},
			{
				"x": 0.2887893795,
				"y": -4.4005312952,
				"z": -0.0972142896,
				"element": "H" 
			},
			{
				"x": 0.223919583,
				"y": -3.6296948851,
				"z": -1.7048051927,
				"element": "H" 
			},
			{
				"x": -2.3639584208,
				"y": -1.3558352033,
				"z": -1.265358756,
				"element": "H" 
			},
			{
				"x": -0.329588486,
				"y": 2.3908725013,
				"z": -2.0247854241,
				"element": "H" 
			},
			{
				"x": 2.8060967465,
				"y": 1.3309272827,
				"z": -2.7819371813,
				"element": "H" 
			},
			{
				"x": 3.8215233207,
				"y": 2.0521784107,
				"z": -1.5039264286,
				"element": "H" 
			},
			{
				"x": 3.4122975502,
				"y": 0.3128053886,
				"z": -1.4388605794,
				"element": "H" 
			},
			{
				"x": 3.0993687779,
				"y": -0.9361324249,
				"z": 1.7577007077,
				"element": "H" 
			},
			{
				"x": 1.3490358957,
				"y": -0.76285442,
				"z": 2.0697202006,
				"element": "H" 
			},
			{
				"x": 2.2888617968,
				"y": 0.623152717,
				"z": 1.427055428,
				"element": "H" 
			}
		],
		 "valence_orbital": [ 
			{
				"type": "occ",
				"energy": -0.3116,
				"method": "rhf"
			},
			{
				"type": "occ",
				"energy": -0.29466,
				"method": "rhf"
			},
			{
				"type": "occ",
				"energy": -0.27806,
				"method": "rhf"
			},
			{
				"type": "occ",
				"energy": -0.25104,
				"method": "rhf"
			},
			{
				"type": "occ",
				"energy": -0.24629,
				"method": "rhf"
			},
			{
				"type": "unocc",
				"energy": -0.04765,
				"method": "rhf"
			},
			{
				"type": "unocc",
				"energy": -0.01548,
				"method": "rhf"
			},
			{
				"type": "unocc",
				"energy": 0.04058,
				"method": "rhf"
			},
			{
				"type": "unocc",
				"energy": 0.05912,
				"method": "rhf"
			},
			{
				"type": "unocc",
				"energy": 0.0771,
				"method": "rhf"
			}
		],
		"cosmo_sigma_profile": { 
			"-0.025": 0.0,
			"-0.024": 0.0,
			"-0.023": 0.0,
			"-0.022": 0.0,
			"-0.021": 0.0,
			"-0.02": 0.0,
			"-0.019": 0.0,
			"-0.018": 0.0,
			"-0.017": 0.0,
			"-0.016": 0.0,
			"-0.015": 0.0,
			"-0.014": 0.0,
			"-0.013": 0.0,
			"-0.012": 0.0,
			"-0.011": 0.0,
			"-0.01": 0.0,
			"-0.009": 0.15409684925,
			"-0.008": 2.7184950426,
			"-0.007": 3.79850893024,
			"-0.006": 9.20421226707,
			"-0.005": 16.1061148884,
			"-0.004": 22.6228679349,
			"-0.003": 33.3880389009,
			"-0.002": 25.928692289,
			"-0.001": 21.0688196371,
			"0.0": 18.2644751697,
			"0.001": 18.3433946013,
			"0.002": 11.1156623169,
			"0.003": 7.90271499368,
			"0.004": 6.96768510843,
			"0.005": 6.16487606252,
			"0.006": 5.99008765749,
			"0.007": 4.76822734377,
			"0.008": 6.3393605726,
			"0.009": 5.41267816856,
			"0.01": 5.2397486336,
			"0.011": 4.79463261172,
			"0.012": 2.56591323917,
			"0.013": 1.54405322616,
			"0.014": 0.0509074179713,
			"0.015": 0.0,
			"0.016": 0.0,
			"0.017": 0.0,
			"0.018": 0.0,
			"0.019": 0.0,
			"0.02": 0.0,
			"0.021": 0.0,
			"0.022": 0.0,
			"0.023": 0.0,
			"0.024": 0.0,
			"0.025": 0.0
		}
	}
}
