{
	 "smiles": "OC(=O)CCOC1=CC=C(C=C1)C1=CC=CC=C1", 
	 "Tm": 448.15, 
	 "num_atms": 32, 
	 "gaussian": { 
		 "optdone": 1, 
		 "sigma_profile": "yes", 
		 "theory": "DFT", 
		 "functional": "B3LYP", 
		 "basiset": "6-31G**", 
		 "properties": { 
			 "R2extent": 8180.2453, 
			 "electric_dipole_moment_norm": 2.3403830178, 
			 "electric_quadrupole_moment_norm": 17.772797075, 
			 "total_energy": -805.720652015, 
			 "HOMO_LUMO_gap": 0.18766, 
			 "cosmo_polarized_energy": -14.39, 
			 "cosmo_cavitation_energy": 36.77, 
			 "cosmo_dispersion_energy": -26.4, 
			 "cosmo_repulsion_energy": 2.06, 
			 "cosmo_total_nonelectrostatic_energy": 12.42, 
			 "SMD_solvation_energy": 7.32 
		},
		"coords": [
			{
				"x": 4.394034792,
				"y": 3.3073931556,
				"z": 2.3165123016,
				"element": "O" 
			},
			{
				"x": 4.8010440326,
				"y": 2.1742942082,
				"z": 2.9409039394,
				"element": "C" 
			},
			{
				"x": 4.9696567005,
				"y": 2.1114400466,
				"z": 4.1364827629,
				"element": "O" 
			},
			{
				"x": 5.0505281569,
				"y": 1.046222199,
				"z": 1.958273164,
				"element": "C" 
			},
			{
				"x": 3.9331946456,
				"y": 0.8554777335,
				"z": 0.9399095076,
				"element": "C" 
			},
			{
				"x": 2.7587183775,
				"y": 0.5135851932,
				"z": 1.6669863709,
				"element": "O" 
			},
			{
				"x": 1.5929349625,
				"y": 0.3231834356,
				"z": 0.9787548962,
				"element": "C" 
			},
			{
				"x": 0.4688495083,
				"y": 0.0115896993,
				"z": 1.7568208114,
				"element": "C" 
			},
			{
				"x": -0.7611004531,
				"y": -0.2028653207,
				"z": 1.1510193018,
				"element": "C" 
			},
			{
				"x": -0.9178277033,
				"y": -0.1165220786,
				"z": -0.2459486621,
				"element": "C" 
			},
			{
				"x": 0.2188098601,
				"y": 0.1950173315,
				"z": -1.0043834448,
				"element": "C" 
			},
			{
				"x": 1.4637461136,
				"y": 0.4148500538,
				"z": -0.4113046777,
				"element": "C" 
			},
			{
				"x": -2.2354687477,
				"y": -0.3476644548,
				"z": -0.8889914741,
				"element": "C" 
			},
			{
				"x": -2.6425907745,
				"y": 0.4114792417,
				"z": -2.0000543464,
				"element": "C" 
			},
			{
				"x": -3.878503557,
				"y": 0.1915525749,
				"z": -2.6065766602,
				"element": "C" 
			},
			{
				"x": -4.7403816562,
				"y": -0.7897468816,
				"z": -2.113027147,
				"element": "C" 
			},
			{
				"x": -4.3521242065,
				"y": -1.5500346841,
				"z": -1.008258081,
				"element": "C" 
			},
			{
				"x": -3.1139132856,
				"y": -1.333002164,
				"z": -0.4053030381,
				"element": "C" 
			},
			{
				"x": 4.2611777184,
				"y": 3.9680976315,
				"z": 3.0167352005,
				"element": "H" 
			},
			{
				"x": 5.9794488169,
				"y": 1.2693227854,
				"z": 1.4187404737,
				"element": "H" 
			},
			{
				"x": 5.2049863405,
				"y": 0.1351763422,
				"z": 2.5392487485,
				"element": "H" 
			},
			{
				"x": 3.7747242221,
				"y": 1.777238631,
				"z": 0.367275135,
				"element": "H" 
			},
			{
				"x": 4.1982406972,
				"y": 0.0509351871,
				"z": 0.239950374,
				"element": "H" 
			},
			{
				"x": 0.5838919514,
				"y": -0.0453597728,
				"z": 2.8343672616,
				"element": "H" 
			},
			{
				"x": -1.6250640384,
				"y": -0.4170319605,
				"z": 1.7730947684,
				"element": "H" 
			},
			{
				"x": 0.141224853,
				"y": 0.2432255107,
				"z": -2.0865796394,
				"element": "H" 
			},
			{
				"x": 2.3167659934,
				"y": 0.643032652,
				"z": -1.0394187249,
				"element": "H" 
			},
			{
				"x": -1.9937339205,
				"y": 1.1981191706,
				"z": -2.3741275078,
				"element": "H" 
			},
			{
				"x": -4.173342572,
				"y": 0.7959839603,
				"z": -3.4599990764,
				"element": "H" 
			},
			{
				"x": -5.7042940509,
				"y": -0.9597332903,
				"z": -2.5838719193,
				"element": "H" 
			},
			{
				"x": -5.0106738684,
				"y": -2.32215717,
				"z": -0.6200641946,
				"element": "H" 
			},
			{
				"x": -2.8111589083,
				"y": -1.9506989662,
				"z": 0.4352335763,
				"element": "H" 
			}
		],
		 "valence_orbital": [ 
			{
				"type": "occ",
				"energy": -0.27621,
				"method": "rhf"
			},
			{
				"type": "occ",
				"energy": -0.25787,
				"method": "rhf"
			},
			{
				"type": "occ",
				"energy": -0.25178,
				"method": "rhf"
			},
			{
				"type": "occ",
				"energy": -0.24732,
				"method": "rhf"
			},
			{
				"type": "occ",
				"energy": -0.20783,
				"method": "rhf"
			},
			{
				"type": "unocc",
				"energy": -0.02017,
				"method": "rhf"
			},
			{
				"type": "unocc",
				"energy": -0.00431,
				"method": "rhf"
			},
			{
				"type": "unocc",
				"energy": 0.00198,
				"method": "rhf"
			},
			{
				"type": "unocc",
				"energy": 0.00587,
				"method": "rhf"
			},
			{
				"type": "unocc",
				"energy": 0.03796,
				"method": "rhf"
			}
		],
		"cosmo_sigma_profile": { 
			"-0.025": 0.0,
			"-0.024": 0.0,
			"-0.023": 0.0,
			"-0.022": 0.0,
			"-0.021": 0.0,
			"-0.02": 0.0,
			"-0.019": 0.0148365378757,
			"-0.018": 0.720745869964,
			"-0.017": 0.939083694941,
			"-0.016": 0.801006436006,
			"-0.015": 1.19102107647,
			"-0.014": 0.66049844674,
			"-0.013": 0.130052981778,
			"-0.012": 0.65159205976,
			"-0.011": 0.899721276134,
			"-0.01": 1.1526791878,
			"-0.009": 0.34169981978,
			"-0.008": 2.2407693462,
			"-0.007": 5.60963619198,
			"-0.006": 18.2601461041,
			"-0.005": 27.6356672212,
			"-0.004": 27.0030335147,
			"-0.003": 22.7367847082,
			"-0.002": 15.4505229762,
			"-0.001": 15.7582151748,
			"0.0": 13.1105113423,
			"0.001": 15.1250963339,
			"0.002": 16.1931854651,
			"0.003": 21.2016636364,
			"0.004": 22.793378017,
			"0.005": 25.2579335703,
			"0.006": 15.2220123568,
			"0.007": 5.09315607118,
			"0.008": 2.79383236132,
			"0.009": 2.13072203117,
			"0.01": 2.44959459827,
			"0.011": 4.26380425237,
			"0.012": 4.26132099674,
			"0.013": 0.681460772491,
			"0.014": 0.0,
			"0.015": 0.0,
			"0.016": 0.0,
			"0.017": 0.0,
			"0.018": 0.0,
			"0.019": 0.0,
			"0.02": 0.0,
			"0.021": 0.0,
			"0.022": 0.0,
			"0.023": 0.0,
			"0.024": 0.0,
			"0.025": 0.0
		}
	}
}
