{
	 "smiles": "CCCCCCCCCCCCCCCCCC(=O)OCC", 
	 "Tm": 307.15, 
	 "num_atms": 62, 
	 "gaussian": { 
		 "optdone": 1, 
		 "sigma_profile": "yes", 
		 "theory": "DFT", 
		 "functional": "B3LYP", 
		 "basiset": "6-31G**", 
		 "properties": { 
			 "R2extent": 17458.044, 
			 "electric_dipole_moment_norm": 1.97834639282, 
			 "electric_quadrupole_moment_norm": 18.5567207486, 
			 "total_energy": -936.74999413, 
			 "HOMO_LUMO_gap": 0.27634, 
			 "cosmo_polarized_energy": -6.89, 
			 "cosmo_cavitation_energy": 59.79, 
			 "cosmo_dispersion_energy": -39.19, 
			 "cosmo_repulsion_energy": 3.15, 
			 "cosmo_total_nonelectrostatic_energy": 23.75, 
			 "SMD_solvation_energy": 8.78 
		},
		"coords": [
			{
				"x": 1.7319793199,
				"y": 6.4536792888,
				"z": 0.1863470981,
				"element": "C" 
			},
			{
				"x": 2.8173175471,
				"y": 5.6265575827,
				"z": -0.5109355491,
				"element": "C" 
			},
			{
				"x": 2.276402576,
				"y": 4.3270216996,
				"z": -1.1241256032,
				"element": "C" 
			},
			{
				"x": 3.3132706,
				"y": 3.4982344187,
				"z": -1.9039908568,
				"element": "C" 
			},
			{
				"x": 4.4591461427,
				"y": 2.8990856287,
				"z": -1.0631486051,
				"element": "C" 
			},
			{
				"x": 4.0706231853,
				"y": 1.7966539689,
				"z": -0.0505206022,
				"element": "C" 
			},
			{
				"x": 4.1560192654,
				"y": 0.3484233943,
				"z": -0.5722415324,
				"element": "C" 
			},
			{
				"x": 3.1738023608,
				"y": -0.059201428,
				"z": -1.685959774,
				"element": "C" 
			},
			{
				"x": 1.6792717128,
				"y": 0.0128341901,
				"z": -1.3263553021,
				"element": "C" 
			},
			{
				"x": 1.2441957413,
				"y": -0.9338493907,
				"z": -0.1986691573,
				"element": "C" 
			},
			{
				"x": -0.2662406082,
				"y": -0.9026065406,
				"z": 0.0691875482,
				"element": "C" 
			},
			{
				"x": -0.7108740339,
				"y": -1.8412170621,
				"z": 1.1985864706,
				"element": "C" 
			},
			{
				"x": -2.2234496607,
				"y": -1.8020950767,
				"z": 1.4584122606,
				"element": "C" 
			},
			{
				"x": -2.6963768837,
				"y": -2.6555155592,
				"z": 2.6491457205,
				"element": "C" 
			},
			{
				"x": -2.4673343679,
				"y": -4.1735615429,
				"z": 2.52197041,
				"element": "C" 
			},
			{
				"x": -3.1891445492,
				"y": -4.8907700408,
				"z": 1.3665768045,
				"element": "C" 
			},
			{
				"x": -4.7283566998,
				"y": -4.9433089956,
				"z": 1.480004347,
				"element": "C" 
			},
			{
				"x": -5.4640022328,
				"y": -3.6597197819,
				"z": 1.1461954822,
				"element": "C" 
			},
			{
				"x": -6.2359805708,
				"y": -3.0780561706,
				"z": 1.8797038916,
				"element": "O" 
			},
			{
				"x": -5.1812929416,
				"y": -3.2436727907,
				"z": -0.1115966704,
				"element": "O" 
			},
			{
				"x": -5.8591975704,
				"y": -2.0421626982,
				"z": -0.5459746086,
				"element": "C" 
			},
			{
				"x": -5.4408417513,
				"y": -1.7731905541,
				"z": -1.9790031285,
				"element": "C" 
			},
			{
				"x": 1.2668496942,
				"y": 5.8891031601,
				"z": 1.002738757,
				"element": "H" 
			},
			{
				"x": 2.1410451154,
				"y": 7.3759019364,
				"z": 0.612097913,
				"element": "H" 
			},
			{
				"x": 0.9364916058,
				"y": 6.7345471253,
				"z": -0.5135628173,
				"element": "H" 
			},
			{
				"x": 3.2861491777,
				"y": 6.2290359721,
				"z": -1.3014091255,
				"element": "H" 
			},
			{
				"x": 3.6133843826,
				"y": 5.3991396287,
				"z": 0.2091086439,
				"element": "H" 
			},
			{
				"x": 1.4528013518,
				"y": 4.5795714853,
				"z": -1.8061735466,
				"element": "H" 
			},
			{
				"x": 1.8248744805,
				"y": 3.7159669992,
				"z": -0.3301402796,
				"element": "H" 
			},
			{
				"x": 3.7539261245,
				"y": 4.138665614,
				"z": -2.6808474708,
				"element": "H" 
			},
			{
				"x": 2.7901898429,
				"y": 2.6974082535,
				"z": -2.4391874566,
				"element": "H" 
			},
			{
				"x": 4.9546127013,
				"y": 3.7158369995,
				"z": -0.5241479265,
				"element": "H" 
			},
			{
				"x": 5.2215532544,
				"y": 2.4981353476,
				"z": -1.7450105513,
				"element": "H" 
			},
			{
				"x": 4.7473350371,
				"y": 1.865058967,
				"z": 0.8104807343,
				"element": "H" 
			},
			{
				"x": 3.0696051369,
				"y": 1.9918942044,
				"z": 0.3546865163,
				"element": "H" 
			},
			{
				"x": 5.1775538657,
				"y": 0.1762906001,
				"z": -0.9386726272,
				"element": "H" 
			},
			{
				"x": 4.0312624334,
				"y": -0.3317975881,
				"z": 0.280230947,
				"element": "H" 
			},
			{
				"x": 3.4100733162,
				"y": -1.0893700562,
				"z": -1.9872427775,
				"element": "H" 
			},
			{
				"x": 3.3557250314,
				"y": 0.5563082487,
				"z": -2.5757297352,
				"element": "H" 
			},
			{
				"x": 1.4065966769,
				"y": 1.0421232956,
				"z": -1.0571845184,
				"element": "H" 
			},
			{
				"x": 1.0960752131,
				"y": -0.2223461198,
				"z": -2.2273897997,
				"element": "H" 
			},
			{
				"x": 1.5473678047,
				"y": -1.9605079293,
				"z": -0.4511317653,
				"element": "H" 
			},
			{
				"x": 1.7750625287,
				"y": -0.6815363586,
				"z": 0.7288960938,
				"element": "H" 
			},
			{
				"x": -0.570225131,
				"y": 0.1257899111,
				"z": 0.312223049,
				"element": "H" 
			},
			{
				"x": -0.8037175977,
				"y": -1.1652946148,
				"z": -0.8535782244,
				"element": "H" 
			},
			{
				"x": -0.1782001382,
				"y": -1.5743443273,
				"z": 2.1230639169,
				"element": "H" 
			},
			{
				"x": -0.3972162697,
				"y": -2.864994925,
				"z": 0.9539334633,
				"element": "H" 
			},
			{
				"x": -2.7563276239,
				"y": -2.104670285,
				"z": 0.5474801516,
				"element": "H" 
			},
			{
				"x": -2.520097265,
				"y": -0.7609198416,
				"z": 1.6458335653,
				"element": "H" 
			},
			{
				"x": -3.7601095216,
				"y": -2.4602421792,
				"z": 2.8278057067,
				"element": "H" 
			},
			{
				"x": -2.1766084547,
				"y": -2.3114228864,
				"z": 3.553926046,
				"element": "H" 
			},
			{
				"x": -2.7692929381,
				"y": -4.6476945284,
				"z": 3.4658050678,
				"element": "H" 
			},
			{
				"x": -1.3923451835,
				"y": -4.3705360334,
				"z": 2.4231431353,
				"element": "H" 
			},
			{
				"x": -2.8297292552,
				"y": -5.926429005,
				"z": 1.3382042246,
				"element": "H" 
			},
			{
				"x": -2.9170369422,
				"y": -4.4497520731,
				"z": 0.4016690876,
				"element": "H" 
			},
			{
				"x": -5.0363936176,
				"y": -5.2340025436,
				"z": 2.4880904183,
				"element": "H" 
			},
			{
				"x": -5.1028907773,
				"y": -5.7054414747,
				"z": 0.7851400788,
				"element": "H" 
			},
			{
				"x": -5.5855557481,
				"y": -1.2204359651,
				"z": 0.1233439575,
				"element": "H" 
			},
			{
				"x": -6.9391384409,
				"y": -2.1941781948,
				"z": -0.453771952,
				"element": "H" 
			},
			{
				"x": -5.7147687148,
				"y": -2.6083977293,
				"z": -2.6301088137,
				"element": "H" 
			},
			{
				"x": -4.3598417542,
				"y": -1.6214116211,
				"z": -2.0506624333,
				"element": "H" 
			},
			{
				"x": -5.9391759824,
				"y": -0.8713140083,
				"z": -2.3481582968,
				"element": "H" 
			}
		],
		 "valence_orbital": [ 
			{
				"type": "occ",
				"energy": -0.29946,
				"method": "rhf"
			},
			{
				"type": "occ",
				"energy": -0.29718,
				"method": "rhf"
			},
			{
				"type": "occ",
				"energy": -0.29517,
				"method": "rhf"
			},
			{
				"type": "occ",
				"energy": -0.28988,
				"method": "rhf"
			},
			{
				"type": "occ",
				"energy": -0.2618,
				"method": "rhf"
			},
			{
				"type": "unocc",
				"energy": 0.01454,
				"method": "rhf"
			},
			{
				"type": "unocc",
				"energy": 0.07326,
				"method": "rhf"
			},
			{
				"type": "unocc",
				"energy": 0.0754,
				"method": "rhf"
			},
			{
				"type": "unocc",
				"energy": 0.09381,
				"method": "rhf"
			},
			{
				"type": "unocc",
				"energy": 0.09616,
				"method": "rhf"
			}
		],
		"cosmo_sigma_profile": { 
			"-0.025": 0.0,
			"-0.024": 0.0,
			"-0.023": 0.0,
			"-0.022": 0.0,
			"-0.021": 0.0,
			"-0.02": 0.0,
			"-0.019": 0.0,
			"-0.018": 0.0,
			"-0.017": 0.0,
			"-0.016": 0.0,
			"-0.015": 0.0,
			"-0.014": 0.0,
			"-0.013": 0.0,
			"-0.012": 0.0,
			"-0.011": 0.0,
			"-0.01": 0.0,
			"-0.009": 0.0,
			"-0.008": 0.0,
			"-0.007": 0.0,
			"-0.006": 1.27241129214,
			"-0.005": 6.27015295775,
			"-0.004": 14.7440054787,
			"-0.003": 23.1796207491,
			"-0.002": 58.3799735695,
			"-0.001": 99.5630154516,
			"0.0": 109.083379535,
			"0.001": 79.4298701285,
			"0.002": 35.4110944283,
			"0.003": 5.19724983667,
			"0.004": 3.22659279194,
			"0.005": 2.5493244501,
			"0.006": 2.64347698075,
			"0.007": 2.41101705841,
			"0.008": 2.08955485608,
			"0.009": 1.58126280855,
			"0.01": 1.95945388405,
			"0.011": 1.82900215756,
			"0.012": 4.71073393481,
			"0.013": 2.28846215481,
			"0.014": 0.233345187945,
			"0.015": 0.0,
			"0.016": 0.0,
			"0.017": 0.0,
			"0.018": 0.0,
			"0.019": 0.0,
			"0.02": 0.0,
			"0.021": 0.0,
			"0.022": 0.0,
			"0.023": 0.0,
			"0.024": 0.0,
			"0.025": 0.0
		}
	}
}
