{
	 "smiles": "CC(COS(=O)(=O)C1=CC=C(C)C=C1)OS(=O)(=O)C1=CC=C(C)C=C1", 
	 "Tm": 342.15, 
	 "num_atms": 45, 
	 "gaussian": { 
		 "optdone": 1, 
		 "sigma_profile": "yes", 
		 "theory": "DFT", 
		 "functional": "B3LYP", 
		 "basiset": "6-31G**", 
		 "properties": { 
			 "R2extent": 10121.1649, 
			 "electric_dipole_moment_norm": 8.8953021472, 
			 "electric_quadrupole_moment_norm": 22.767597693, 
			 "total_energy": -1907.44942931, 
			 "HOMO_LUMO_gap": 0.21082, 
			 "cosmo_polarized_energy": -22.91, 
			 "cosmo_cavitation_energy": 50.81, 
			 "cosmo_dispersion_energy": -33.23, 
			 "cosmo_repulsion_energy": 2.43, 
			 "cosmo_total_nonelectrostatic_energy": 20.02, 
			 "SMD_solvation_energy": 6.69 
		},
		"coords": [
			{
				"x": -4.5330910845,
				"y": -0.23582148,
				"z": -1.0444088333,
				"element": "C" 
			},
			{
				"x": -3.6982038214,
				"y": 0.3340980656,
				"z": 0.0979496836,
				"element": "C" 
			},
			{
				"x": -2.481674683,
				"y": 1.1299004027,
				"z": -0.3579355024,
				"element": "C" 
			},
			{
				"x": -1.588655139,
				"y": 0.2716849079,
				"z": -1.0983171693,
				"element": "O" 
			},
			{
				"x": -0.7149323377,
				"y": 0.9246794667,
				"z": -2.3294282383,
				"element": "S" 
			},
			{
				"x": -0.014134943,
				"y": -0.2238464703,
				"z": -2.8850587721,
				"element": "O" 
			},
			{
				"x": -1.5977990743,
				"y": 1.7610153324,
				"z": -3.1410551669,
				"element": "O" 
			},
			{
				"x": 0.4363900391,
				"y": 1.9893267397,
				"z": -1.4743472914,
				"element": "C" 
			},
			{
				"x": 0.4085865551,
				"y": 3.3613592808,
				"z": -1.7229644007,
				"element": "C" 
			},
			{
				"x": 1.325057077,
				"y": 4.1852789102,
				"z": -1.0695464489,
				"element": "C" 
			},
			{
				"x": 2.2640164967,
				"y": 3.6579002069,
				"z": -0.1738789353,
				"element": "C" 
			},
			{
				"x": 3.270728915,
				"y": 4.549900207,
				"z": 0.5107661797,
				"element": "C" 
			},
			{
				"x": 2.2635579704,
				"y": 2.2723995196,
				"z": 0.0584045343,
				"element": "C" 
			},
			{
				"x": 1.362662396,
				"y": 1.4319320519,
				"z": -0.5873157554,
				"element": "C" 
			},
			{
				"x": -3.3324319055,
				"y": -0.6010821939,
				"z": 1.1588851773,
				"element": "O" 
			},
			{
				"x": -2.8987385561,
				"y": -2.1862327454,
				"z": 1.0085601115,
				"element": "S" 
			},
			{
				"x": -3.4831473125,
				"y": -2.7991823986,
				"z": 2.1947819831,
				"element": "O" 
			},
			{
				"x": -3.2013377858,
				"y": -2.6843757078,
				"z": -0.3298063954,
				"element": "O" 
			},
			{
				"x": -1.1249329614,
				"y": -2.1578943097,
				"z": 1.2240477457,
				"element": "C" 
			},
			{
				"x": -0.5985575017,
				"y": -2.0282318406,
				"z": 2.5119681383,
				"element": "C" 
			},
			{
				"x": 0.7822823387,
				"y": -2.0641870292,
				"z": 2.684096554,
				"element": "C" 
			},
			{
				"x": 1.6453285977,
				"y": -2.2432216874,
				"z": 1.5912618386,
				"element": "C" 
			},
			{
				"x": 3.1384232126,
				"y": -2.3342707527,
				"z": 1.7974277432,
				"element": "C" 
			},
			{
				"x": 1.086637144,
				"y": -2.3720619495,
				"z": 0.3115925498,
				"element": "C" 
			},
			{
				"x": -0.2944278658,
				"y": -2.3303087422,
				"z": 0.1170395154,
				"element": "C" 
			},
			{
				"x": -4.9355406706,
				"y": 0.6044125132,
				"z": -1.6200611145,
				"element": "H" 
			},
			{
				"x": -3.9465980033,
				"y": -0.8694580067,
				"z": -1.706438002,
				"element": "H" 
			},
			{
				"x": -5.3693991723,
				"y": -0.8182722133,
				"z": -0.6527762716,
				"element": "H" 
			},
			{
				"x": -4.3157891285,
				"y": 1.0459041214,
				"z": 0.6593941339,
				"element": "H" 
			},
			{
				"x": -2.8213520159,
				"y": 1.9528370508,
				"z": -0.9952369795,
				"element": "H" 
			},
			{
				"x": -1.9432415682,
				"y": 1.5295452051,
				"z": 0.50728875,
				"element": "H" 
			},
			{
				"x": -0.3174751332,
				"y": 3.7676576887,
				"z": -2.4182260037,
				"element": "H" 
			},
			{
				"x": 1.3087121716,
				"y": 5.2548466625,
				"z": -1.2601176707,
				"element": "H" 
			},
			{
				"x": 2.9490707608,
				"y": 5.5946982458,
				"z": 0.5073029698,
				"element": "H" 
			},
			{
				"x": 3.4334014223,
				"y": 4.2454778033,
				"z": 1.5492462591,
				"element": "H" 
			},
			{
				"x": 4.2420989941,
				"y": 4.5024215127,
				"z": 0.0034730135,
				"element": "H" 
			},
			{
				"x": 2.9814162821,
				"y": 1.847479329,
				"z": 0.7549539345,
				"element": "H" 
			},
			{
				"x": 1.3698657464,
				"y": 0.3631532901,
				"z": -0.4010804299,
				"element": "H" 
			},
			{
				"x": -1.2637156094,
				"y": -1.9198495563,
				"z": 3.3617164397,
				"element": "H" 
			},
			{
				"x": 1.1973837976,
				"y": -1.9655176667,
				"z": 3.6837360748,
				"element": "H" 
			},
			{
				"x": 3.4333745463,
				"y": -3.3575014618,
				"z": 2.0608997136,
				"element": "H" 
			},
			{
				"x": 3.6869057003,
				"y": -2.0614877982,
				"z": 0.8913883694,
				"element": "H" 
			},
			{
				"x": 3.4720765915,
				"y": -1.6830899357,
				"z": 2.6112090419,
				"element": "H" 
			},
			{
				"x": 1.7362430333,
				"y": -2.5141670259,
				"z": -0.5479717208,
				"element": "H" 
			},
			{
				"x": -0.7202435156,
				"y": -2.4270475418,
				"z": -0.8742193527,
				"element": "H" 
			}
		],
		 "valence_orbital": [ 
			{
				"type": "occ",
				"energy": -0.29061,
				"method": "rhf"
			},
			{
				"type": "occ",
				"energy": -0.27993,
				"method": "rhf"
			},
			{
				"type": "occ",
				"energy": -0.2721,
				"method": "rhf"
			},
			{
				"type": "occ",
				"energy": -0.26738,
				"method": "rhf"
			},
			{
				"type": "occ",
				"energy": -0.25972,
				"method": "rhf"
			},
			{
				"type": "unocc",
				"energy": -0.0489,
				"method": "rhf"
			},
			{
				"type": "unocc",
				"energy": -0.03778,
				"method": "rhf"
			},
			{
				"type": "unocc",
				"energy": -0.03047,
				"method": "rhf"
			},
			{
				"type": "unocc",
				"energy": -0.01893,
				"method": "rhf"
			},
			{
				"type": "unocc",
				"energy": 0.03204,
				"method": "rhf"
			}
		],
		"cosmo_sigma_profile": { 
			"-0.025": 0.0,
			"-0.024": 0.0,
			"-0.023": 0.0,
			"-0.022": 0.0,
			"-0.021": 0.0,
			"-0.02": 0.0,
			"-0.019": 0.0,
			"-0.018": 0.0,
			"-0.017": 0.0,
			"-0.016": 0.0,
			"-0.015": 0.0,
			"-0.014": 0.0,
			"-0.013": 0.0,
			"-0.012": 0.0,
			"-0.011": 0.0,
			"-0.01": 0.0,
			"-0.009": 1.51292800927,
			"-0.008": 5.98612023953,
			"-0.007": 11.9411078076,
			"-0.006": 19.935448094,
			"-0.005": 32.2584759043,
			"-0.004": 34.280933961,
			"-0.003": 33.7210841429,
			"-0.002": 32.8173753322,
			"-0.001": 40.5372405685,
			"0.0": 35.1217522103,
			"0.001": 22.97940594,
			"0.002": 28.3092297233,
			"0.003": 26.2081506649,
			"0.004": 9.22218697083,
			"0.005": 8.42345238284,
			"0.006": 6.95607583217,
			"0.007": 8.10736129889,
			"0.008": 7.21657083305,
			"0.009": 11.654621297,
			"0.01": 17.0547365178,
			"0.011": 8.79672393091,
			"0.012": 0.503544750787,
			"0.013": 0.0,
			"0.014": 0.0,
			"0.015": 0.0,
			"0.016": 0.0,
			"0.017": 0.0,
			"0.018": 0.0,
			"0.019": 0.0,
			"0.02": 0.0,
			"0.021": 0.0,
			"0.022": 0.0,
			"0.023": 0.0,
			"0.024": 0.0,
			"0.025": 0.0
		}
	}
}
