{
	 "smiles": "CC(=C)C(=O)OC1CC2CCC1(C)C2(C)C", 
	 "Tm": 213.15, 
	 "num_atms": 38, 
	 "gaussian": { 
		 "optdone": 1, 
		 "sigma_profile": "yes", 
		 "theory": "DFT", 
		 "functional": "B3LYP", 
		 "basiset": "6-31G**", 
		 "properties": { 
			 "R2extent": 4035.1865, 
			 "electric_dipole_moment_norm": 1.76623605161, 
			 "electric_quadrupole_moment_norm": 8.12972955885, 
			 "total_energy": -697.203738763, 
			 "HOMO_LUMO_gap": 0.22744, 
			 "cosmo_polarized_energy": -6.15, 
			 "cosmo_cavitation_energy": 36.59, 
			 "cosmo_dispersion_energy": -24.92, 
			 "cosmo_repulsion_energy": 1.89, 
			 "cosmo_total_nonelectrostatic_energy": 13.57, 
			 "SMD_solvation_energy": 7.38 
		},
		"coords": [
			{
				"x": 1.2212730051,
				"y": 4.1018596305,
				"z": 2.3910069016,
				"element": "C" 
			},
			{
				"x": 0.2788670998,
				"y": 2.9861329675,
				"z": 2.0246836263,
				"element": "C" 
			},
			{
				"x": -0.8859482093,
				"y": 2.7586470251,
				"z": 2.6445943772,
				"element": "C" 
			},
			{
				"x": 0.7440166554,
				"y": 2.1228486992,
				"z": 0.8940221069,
				"element": "C" 
			},
			{
				"x": 1.8039436582,
				"y": 2.297559201,
				"z": 0.3212406983,
				"element": "O" 
			},
			{
				"x": -0.1244285654,
				"y": 1.1361791329,
				"z": 0.5739370849,
				"element": "O" 
			},
			{
				"x": 0.2591308053,
				"y": 0.2756986862,
				"z": -0.5299312711,
				"element": "C" 
			},
			{
				"x": 1.2089588018,
				"y": -0.8708210948,
				"z": -0.0829513335,
				"element": "C" 
			},
			{
				"x": 0.4517131666,
				"y": -2.1449139561,
				"z": -0.5244025872,
				"element": "C" 
			},
			{
				"x": 0.5006233472,
				"y": -2.1800375558,
				"z": -2.0701575115,
				"element": "C" 
			},
			{
				"x": -0.4696520211,
				"y": -1.0240808169,
				"z": -2.4657563763,
				"element": "C" 
			},
			{
				"x": -0.9792092326,
				"y": -0.4670056363,
				"z": -1.1013134737,
				"element": "C" 
			},
			{
				"x": -2.2383271681,
				"y": 0.3822486182,
				"z": -1.2149941844,
				"element": "C" 
			},
			{
				"x": -1.0383736244,
				"y": -1.7821924997,
				"z": -0.2314132633,
				"element": "C" 
			},
			{
				"x": -1.3515840378,
				"y": -1.5692591563,
				"z": 1.2619518672,
				"element": "C" 
			},
			{
				"x": -2.0459826431,
				"y": -2.8299605314,
				"z": -0.7431356037,
				"element": "C" 
			},
			{
				"x": 0.8256337153,
				"y": 4.6901590093,
				"z": 3.2224053548,
				"element": "H" 
			},
			{
				"x": 1.3906410857,
				"y": 4.7650495815,
				"z": 1.5364224138,
				"element": "H" 
			},
			{
				"x": 2.2029293219,
				"y": 3.7062918617,
				"z": 2.6712927168,
				"element": "H" 
			},
			{
				"x": -1.5363287626,
				"y": 1.9435460952,
				"z": 2.3505576127,
				"element": "H" 
			},
			{
				"x": -1.2140213439,
				"y": 3.3890307331,
				"z": 3.46621392,
				"element": "H" 
			},
			{
				"x": 0.7194474282,
				"y": 0.9212998142,
				"z": -1.2806673117,
				"element": "H" 
			},
			{
				"x": 1.3538006075,
				"y": -0.8329265566,
				"z": 0.9995243052,
				"element": "H" 
			},
			{
				"x": 2.1967979043,
				"y": -0.787644812,
				"z": -0.5443021086,
				"element": "H" 
			},
			{
				"x": 0.8145953488,
				"y": -3.0592538184,
				"z": -0.0444404585,
				"element": "H" 
			},
			{
				"x": 0.1637742092,
				"y": -3.1424517363,
				"z": -2.4657389962,
				"element": "H" 
			},
			{
				"x": 1.5170992774,
				"y": -2.0212328847,
				"z": -2.4437101711,
				"element": "H" 
			},
			{
				"x": -1.3095437669,
				"y": -1.3871028292,
				"z": -3.0653159244,
				"element": "H" 
			},
			{
				"x": 0.0206316419,
				"y": -0.2428449362,
				"z": -3.0561398407,
				"element": "H" 
			},
			{
				"x": -3.0622237513,
				"y": -0.1977039169,
				"z": -1.6443587217,
				"element": "H" 
			},
			{
				"x": -2.5580375794,
				"y": 0.7651124182,
				"z": -0.2423714719,
				"element": "H" 
			},
			{
				"x": -2.0693770553,
				"y": 1.2462369433,
				"z": -1.8682688132,
				"element": "H" 
			},
			{
				"x": -2.3885538765,
				"y": -1.2387677418,
				"z": 1.3908243186,
				"element": "H" 
			},
			{
				"x": -0.7147047698,
				"y": -0.8304891308,
				"z": 1.7462987089,
				"element": "H" 
			},
			{
				"x": -1.2464124025,
				"y": -2.5169495455,
				"z": 1.8031835803,
				"element": "H" 
			},
			{
				"x": -1.9300558073,
				"y": -3.7649438589,
				"z": -0.1831219089,
				"element": "H" 
			},
			{
				"x": -3.0736306386,
				"y": -2.4852733753,
				"z": -0.5833296346,
				"element": "H" 
			},
			{
				"x": -1.9424818239,
				"y": -3.0695440272,
				"z": -1.8028386276,
				"element": "H" 
			}
		],
		 "valence_orbital": [ 
			{
				"type": "occ",
				"energy": -0.30126,
				"method": "rhf"
			},
			{
				"type": "occ",
				"energy": -0.2864,
				"method": "rhf"
			},
			{
				"type": "occ",
				"energy": -0.28039,
				"method": "rhf"
			},
			{
				"type": "occ",
				"energy": -0.26694,
				"method": "rhf"
			},
			{
				"type": "occ",
				"energy": -0.26467,
				"method": "rhf"
			},
			{
				"type": "unocc",
				"energy": -0.03723,
				"method": "rhf"
			},
			{
				"type": "unocc",
				"energy": 0.07236,
				"method": "rhf"
			},
			{
				"type": "unocc",
				"energy": 0.08182,
				"method": "rhf"
			},
			{
				"type": "unocc",
				"energy": 0.09035,
				"method": "rhf"
			},
			{
				"type": "unocc",
				"energy": 0.09865,
				"method": "rhf"
			}
		],
		"cosmo_sigma_profile": { 
			"-0.025": 0.0,
			"-0.024": 0.0,
			"-0.023": 0.0,
			"-0.022": 0.0,
			"-0.021": 0.0,
			"-0.02": 0.0,
			"-0.019": 0.0,
			"-0.018": 0.0,
			"-0.017": 0.0,
			"-0.016": 0.0,
			"-0.015": 0.0,
			"-0.014": 0.0,
			"-0.013": 0.0,
			"-0.012": 0.0,
			"-0.011": 0.0,
			"-0.01": 0.0,
			"-0.009": 0.0,
			"-0.008": 0.0,
			"-0.007": 0.200686234762,
			"-0.006": 2.15408828916,
			"-0.005": 4.40159484794,
			"-0.004": 12.1464693656,
			"-0.003": 27.5620944282,
			"-0.002": 48.5157748876,
			"-0.001": 46.600797255,
			"0.0": 43.6333955172,
			"0.001": 41.5825840915,
			"0.002": 23.1237456266,
			"0.003": 9.50986057635,
			"0.004": 5.03392662453,
			"0.005": 2.59344271028,
			"0.006": 1.61603847901,
			"0.007": 1.3255856797,
			"0.008": 1.7383114769,
			"0.009": 2.1767913532,
			"0.01": 1.53842547374,
			"0.011": 2.08504882867,
			"0.012": 4.46353227122,
			"0.013": 1.38960539379,
			"0.014": 0.0,
			"0.015": 0.0,
			"0.016": 0.0,
			"0.017": 0.0,
			"0.018": 0.0,
			"0.019": 0.0,
			"0.02": 0.0,
			"0.021": 0.0,
			"0.022": 0.0,
			"0.023": 0.0,
			"0.024": 0.0,
			"0.025": 0.0
		}
	}
}
