{
	 "smiles": "ClCC1=NC(=NO1)C1=CC2=C(OCO2)C=C1", 
	 "Tm": 324.15, 
	 "num_atms": 23, 
	 "gaussian": { 
		 "optdone": 1, 
		 "sigma_profile": "yes", 
		 "theory": "DFT", 
		 "functional": "B3LYP", 
		 "basiset": "6-31G**", 
		 "properties": { 
			 "R2extent": 5987.3952, 
			 "electric_dipole_moment_norm": 2.8028372286, 
			 "electric_quadrupole_moment_norm": 13.1149205392, 
			 "total_energy": -1180.58500053, 
			 "HOMO_LUMO_gap": 0.15614, 
			 "cosmo_polarized_energy": -11.23, 
			 "cosmo_cavitation_energy": 30.42, 
			 "cosmo_dispersion_energy": -23.13, 
			 "cosmo_repulsion_energy": 1.8, 
			 "cosmo_total_nonelectrostatic_energy": 9.09, 
			 "SMD_solvation_energy": 3.98 
		},
		"coords": [
			{
				"x": 0.1668954752,
				"y": 4.8333501214,
				"z": -0.3767459575,
				"element": "Cl" 
			},
			{
				"x": 0.4490134972,
				"y": 3.4951765502,
				"z": -1.5728921557,
				"element": "C" 
			},
			{
				"x": 0.9733978247,
				"y": 2.269916942,
				"z": -0.9148508522,
				"element": "C" 
			},
			{
				"x": 0.3168906516,
				"y": 1.1974279371,
				"z": -0.5927404112,
				"element": "N" 
			},
			{
				"x": 1.3007136864,
				"y": 0.4063805102,
				"z": -0.0238449403,
				"element": "C" 
			},
			{
				"x": 2.4922843627,
				"y": 0.9695415886,
				"z": -0.003394181,
				"element": "N" 
			},
			{
				"x": 2.2771132541,
				"y": 2.2183833582,
				"z": -0.6022465315,
				"element": "O" 
			},
			{
				"x": 1.0349506839,
				"y": -0.9355491848,
				"z": 0.5032732502,
				"element": "C" 
			},
			{
				"x": -0.2838805794,
				"y": -1.4427490231,
				"z": 0.4367658016,
				"element": "C" 
			},
			{
				"x": -0.4882812697,
				"y": -2.7067504824,
				"z": 0.9436676788,
				"element": "C" 
			},
			{
				"x": 0.5453485354,
				"y": -3.4604063816,
				"z": 1.4983769139,
				"element": "C" 
			},
			{
				"x": 0.0641900818,
				"y": -4.6703166238,
				"z": 1.9199897583,
				"element": "O" 
			},
			{
				"x": -1.3404222852,
				"y": -4.6677880038,
				"z": 1.6232276428,
				"element": "C" 
			},
			{
				"x": -1.6605617055,
				"y": -3.4206788523,
				"z": 0.9974747321,
				"element": "O" 
			},
			{
				"x": 1.8408764521,
				"y": -2.9811551922,
				"z": 1.5721928685,
				"element": "C" 
			},
			{
				"x": 2.0722616844,
				"y": -1.6962312855,
				"z": 1.0619268453,
				"element": "C" 
			},
			{
				"x": 1.1564599742,
				"y": 3.8772457153,
				"z": -2.3086410985,
				"element": "H" 
			},
			{
				"x": -0.5077632316,
				"y": 3.2702376646,
				"z": -2.0399343144,
				"element": "H" 
			},
			{
				"x": -1.0852379872,
				"y": -0.8552914525,
				"z": 0.0067132232,
				"element": "H" 
			},
			{
				"x": -1.9089184028,
				"y": -4.7686098809,
				"z": 2.5558348565,
				"element": "H" 
			},
			{
				"x": -1.5681090174,
				"y": -5.4926774464,
				"z": 0.9375494943,
				"element": "H" 
			},
			{
				"x": 2.6376118635,
				"y": -3.5745313556,
				"z": 2.0054411904,
				"element": "H" 
			},
			{
				"x": 3.0714664517,
				"y": -1.2769252229,
				"z": 1.0978561865,
				"element": "H" 
			}
		],
		 "valence_orbital": [ 
			{
				"type": "occ",
				"energy": -0.31307,
				"method": "rhf"
			},
			{
				"type": "occ",
				"energy": -0.30405,
				"method": "rhf"
			},
			{
				"type": "occ",
				"energy": -0.29248,
				"method": "rhf"
			},
			{
				"type": "occ",
				"energy": -0.25465,
				"method": "rhf"
			},
			{
				"type": "occ",
				"energy": -0.2138,
				"method": "rhf"
			},
			{
				"type": "unocc",
				"energy": -0.05766,
				"method": "rhf"
			},
			{
				"type": "unocc",
				"energy": -0.03094,
				"method": "rhf"
			},
			{
				"type": "unocc",
				"energy": -0.00567,
				"method": "rhf"
			},
			{
				"type": "unocc",
				"energy": 0.03742,
				"method": "rhf"
			},
			{
				"type": "unocc",
				"energy": 0.0707,
				"method": "rhf"
			}
		],
		"cosmo_sigma_profile": { 
			"-0.025": 0.0,
			"-0.024": 0.0,
			"-0.023": 0.0,
			"-0.022": 0.0,
			"-0.021": 0.0,
			"-0.02": 0.0,
			"-0.019": 0.0,
			"-0.018": 0.0,
			"-0.017": 0.0,
			"-0.016": 0.0,
			"-0.015": 0.0,
			"-0.014": 0.0,
			"-0.013": 0.0,
			"-0.012": 0.0,
			"-0.011": 0.159829789537,
			"-0.01": 3.98628927922,
			"-0.009": 4.49933219363,
			"-0.008": 9.96405913865,
			"-0.007": 14.4331414784,
			"-0.006": 13.2203374187,
			"-0.005": 11.3257318621,
			"-0.004": 10.87303109,
			"-0.003": 8.84981327664,
			"-0.002": 11.6260538863,
			"-0.001": 14.9019257775,
			"0.0": 16.3691774031,
			"0.001": 24.95651303,
			"0.002": 20.9806311231,
			"0.003": 20.4130364055,
			"0.004": 15.1353475143,
			"0.005": 16.2213471471,
			"0.006": 9.24307561109,
			"0.007": 4.72667485102,
			"0.008": 5.41087837168,
			"0.009": 5.66171614716,
			"0.01": 2.15537835653,
			"0.011": 1.87658683972,
			"0.012": 0.613278185942,
			"0.013": 0.0,
			"0.014": 0.0,
			"0.015": 0.0,
			"0.016": 0.0,
			"0.017": 0.0,
			"0.018": 0.0,
			"0.019": 0.0,
			"0.02": 0.0,
			"0.021": 0.0,
			"0.022": 0.0,
			"0.023": 0.0,
			"0.024": 0.0,
			"0.025": 0.0
		}
	}
}
