{
	 "smiles": "OC(=O)CNC1=CC=CC=C1C(O)=O", 
	 "Tm": 491.15, 
	 "num_atms": 23, 
	 "gaussian": { 
		 "optdone": 1, 
		 "sigma_profile": "yes", 
		 "theory": "DFT", 
		 "functional": "B3LYP", 
		 "basiset": "6-31G**", 
		 "properties": { 
			 "R2extent": 3864.0108, 
			 "electric_dipole_moment_norm": 8.85340486197, 
			 "electric_quadrupole_moment_norm": 22.2236648596, 
			 "total_energy": -704.040637201, 
			 "HOMO_LUMO_gap": 0.17006, 
			 "cosmo_polarized_energy": -21.4, 
			 "cosmo_cavitation_energy": 27.11, 
			 "cosmo_dispersion_energy": -20.07, 
			 "cosmo_repulsion_energy": 1.56, 
			 "cosmo_total_nonelectrostatic_energy": 8.61, 
			 "SMD_solvation_energy": 6.21 
		},
		"coords": [
			{
				"x": -1.8253730023,
				"y": -3.894279045,
				"z": 0.3977101975,
				"element": "O" 
			},
			{
				"x": -1.4799423571,
				"y": -3.1360010702,
				"z": 1.4466391929,
				"element": "C" 
			},
			{
				"x": -1.6821455855,
				"y": -3.4790386427,
				"z": 2.5886386895,
				"element": "O" 
			},
			{
				"x": -0.8072560924,
				"y": -1.8042893324,
				"z": 1.093011634,
				"element": "C" 
			},
			{
				"x": 0.3803546118,
				"y": -2.0245763322,
				"z": 0.2437129049,
				"element": "N" 
			},
			{
				"x": 0.8463863322,
				"y": -0.9624228285,
				"z": -0.5520810075,
				"element": "C" 
			},
			{
				"x": 2.0376501133,
				"y": -0.3018883216,
				"z": -0.198692713,
				"element": "C" 
			},
			{
				"x": 2.5406408711,
				"y": 0.7552665321,
				"z": -0.9477852949,
				"element": "C" 
			},
			{
				"x": 1.8523325441,
				"y": 1.2023472009,
				"z": -2.0787268289,
				"element": "C" 
			},
			{
				"x": 0.7013422868,
				"y": 0.5327265014,
				"z": -2.4732326561,
				"element": "C" 
			},
			{
				"x": 0.1968834483,
				"y": -0.5686588772,
				"z": -1.7545795935,
				"element": "C" 
			},
			{
				"x": -0.939339016,
				"y": -1.3518236543,
				"z": -2.3211585904,
				"element": "C" 
			},
			{
				"x": -1.0909825061,
				"y": -1.2991982807,
				"z": -3.6668993348,
				"element": "O" 
			},
			{
				"x": -1.7205247081,
				"y": -2.0340103244,
				"z": -1.6851398165,
				"element": "O" 
			},
			{
				"x": -1.6516341221,
				"y": -3.3998597285,
				"z": -0.4283520518,
				"element": "H" 
			},
			{
				"x": -0.5584505852,
				"y": -1.2982053645,
				"z": 2.0326974293,
				"element": "H" 
			},
			{
				"x": -1.5193686684,
				"y": -1.1897729737,
				"z": 0.5392126697,
				"element": "H" 
			},
			{
				"x": 1.1361165351,
				"y": -2.3879016016,
				"z": 0.815391438,
				"element": "H" 
			},
			{
				"x": 2.556080759,
				"y": -0.6187624408,
				"z": 0.7027121134,
				"element": "H" 
			},
			{
				"x": 3.4543882609,
				"y": 1.2499880822,
				"z": -0.6320495949,
				"element": "H" 
			},
			{
				"x": 2.2112943414,
				"y": 2.0548058964,
				"z": -2.6457216829,
				"element": "H" 
			},
			{
				"x": 0.1630244527,
				"y": 0.8897459432,
				"z": -3.3478779589,
				"element": "H" 
			},
			{
				"x": -0.3200779135,
				"y": -0.882991338,
				"z": -4.0767291452,
				"element": "H" 
			}
		],
		 "valence_orbital": [ 
			{
				"type": "occ",
				"energy": -0.29944,
				"method": "rhf"
			},
			{
				"type": "occ",
				"energy": -0.29333,
				"method": "rhf"
			},
			{
				"type": "occ",
				"energy": -0.2866,
				"method": "rhf"
			},
			{
				"type": "occ",
				"energy": -0.25425,
				"method": "rhf"
			},
			{
				"type": "occ",
				"energy": -0.24066,
				"method": "rhf"
			},
			{
				"type": "unocc",
				"energy": -0.0706,
				"method": "rhf"
			},
			{
				"type": "unocc",
				"energy": -0.03442,
				"method": "rhf"
			},
			{
				"type": "unocc",
				"energy": 0.01676,
				"method": "rhf"
			},
			{
				"type": "unocc",
				"energy": 0.02469,
				"method": "rhf"
			},
			{
				"type": "unocc",
				"energy": 0.05551,
				"method": "rhf"
			}
		],
		"cosmo_sigma_profile": { 
			"-0.025": 0.0,
			"-0.024": 0.0,
			"-0.023": 0.0,
			"-0.022": 0.0,
			"-0.021": 0.0,
			"-0.02": 0.0,
			"-0.019": 0.0340305389283,
			"-0.018": 0.783499617667,
			"-0.017": 1.17374001529,
			"-0.016": 0.431281948454,
			"-0.015": 1.33929119949,
			"-0.014": 0.83179362439,
			"-0.013": 2.68581548347,
			"-0.012": 2.58104030954,
			"-0.011": 2.85770573784,
			"-0.01": 2.71954244885,
			"-0.009": 2.88995467507,
			"-0.008": 3.66368172617,
			"-0.007": 8.73172397544,
			"-0.006": 13.72650823,
			"-0.005": 14.3698257151,
			"-0.004": 13.6641971928,
			"-0.003": 12.9132144436,
			"-0.002": 11.5081512267,
			"-0.001": 9.41777108809,
			"0.0": 11.7403774372,
			"0.001": 11.2644163007,
			"0.002": 12.1956916678,
			"0.003": 14.2208130905,
			"0.004": 9.00891780371,
			"0.005": 4.82837217522,
			"0.006": 5.65072977025,
			"0.007": 3.57401522559,
			"0.008": 5.68101056566,
			"0.009": 5.97910911142,
			"0.01": 7.91437775253,
			"0.011": 7.47206191561,
			"0.012": 6.69804805305,
			"0.013": 3.40839910354,
			"0.014": 0.445277933424,
			"0.015": 0.0,
			"0.016": 0.0,
			"0.017": 0.0,
			"0.018": 0.0,
			"0.019": 0.0,
			"0.02": 0.0,
			"0.021": 0.0,
			"0.022": 0.0,
			"0.023": 0.0,
			"0.024": 0.0,
			"0.025": 0.0
		}
	}
}
