{
	 "smiles": "OC(=O)C1=C2C=CC=CC2=NC(=C1)C1=CC=CO1", 
	 "Tm": 483.15, 
	 "num_atms": 27, 
	 "gaussian": { 
		 "optdone": 1, 
		 "sigma_profile": "yes", 
		 "theory": "DFT", 
		 "functional": "B3LYP", 
		 "basiset": "6-31G**", 
		 "properties": { 
			 "R2extent": 4958.923, 
			 "electric_dipole_moment_norm": 1.58576563842, 
			 "electric_quadrupole_moment_norm": 11.9895234271, 
			 "total_energy": -819.339540811, 
			 "HOMO_LUMO_gap": 0.13185, 
			 "cosmo_polarized_energy": -11.04, 
			 "cosmo_cavitation_energy": 32.31, 
			 "cosmo_dispersion_energy": -23.95, 
			 "cosmo_repulsion_energy": 1.8, 
			 "cosmo_total_nonelectrostatic_energy": 10.16, 
			 "SMD_solvation_energy": 6.06 
		},
		"coords": [
			{
				"x": -2.7808243419,
				"y": -0.2690924254,
				"z": -2.6777057121,
				"element": "O" 
			},
			{
				"x": -2.4344660985,
				"y": 0.8829755341,
				"z": -2.050282674,
				"element": "C" 
			},
			{
				"x": -2.9971406078,
				"y": 1.9292939936,
				"z": -2.3097249431,
				"element": "O" 
			},
			{
				"x": -1.3318008856,
				"y": 0.6863005804,
				"z": -1.0586619183,
				"element": "C" 
			},
			{
				"x": -0.8037949023,
				"y": 1.7674433752,
				"z": -0.2735724613,
				"element": "C" 
			},
			{
				"x": -1.2409225197,
				"y": 3.1182643906,
				"z": -0.3304877472,
				"element": "C" 
			},
			{
				"x": -0.6602552564,
				"y": 4.077232461,
				"z": 0.4725726145,
				"element": "C" 
			},
			{
				"x": 0.3811974946,
				"y": 3.7442331028,
				"z": 1.3705204104,
				"element": "C" 
			},
			{
				"x": 0.8289728655,
				"y": 2.4471977472,
				"z": 1.4516393969,
				"element": "C" 
			},
			{
				"x": 0.2553272907,
				"y": 1.4305343598,
				"z": 0.6399340189,
				"element": "C" 
			},
			{
				"x": 0.7544529266,
				"y": 0.1742709229,
				"z": 0.7802725001,
				"element": "N" 
			},
			{
				"x": 0.2425617647,
				"y": -0.7976412359,
				"z": 0.0389567551,
				"element": "C" 
			},
			{
				"x": -0.8065348398,
				"y": -0.5788561167,
				"z": -0.8958124679,
				"element": "C" 
			},
			{
				"x": 0.8071957751,
				"y": -2.1283310193,
				"z": 0.2214224186,
				"element": "C" 
			},
			{
				"x": 1.800389615,
				"y": -2.6095134982,
				"z": 1.0342046854,
				"element": "C" 
			},
			{
				"x": 1.9048425809,
				"y": -4.006945586,
				"z": 0.7635489732,
				"element": "C" 
			},
			{
				"x": 0.9710338467,
				"y": -4.2803192161,
				"z": -0.1929104505,
				"element": "C" 
			},
			{
				"x": 0.2939613224,
				"y": -3.1513111791,
				"z": -0.5349999348,
				"element": "O" 
			},
			{
				"x": -3.4945385771,
				"y": -0.025951819,
				"z": -3.2898041794,
				"element": "H" 
			},
			{
				"x": -2.0359763641,
				"y": 3.3803203808,
				"z": -1.0141569841,
				"element": "H" 
			},
			{
				"x": -1.009023499,
				"y": 5.1042047112,
				"z": 0.4137060617,
				"element": "H" 
			},
			{
				"x": 0.8243192654,
				"y": 4.5155363839,
				"z": 1.9938371439,
				"element": "H" 
			},
			{
				"x": 1.6249306349,
				"y": 2.1520625034,
				"z": 2.1270831434,
				"element": "H" 
			},
			{
				"x": -1.1857872374,
				"y": -1.4101163453,
				"z": -1.4740692965,
				"element": "H" 
			},
			{
				"x": 2.3739331871,
				"y": -2.0201169026,
				"z": 1.7329673662,
				"element": "H" 
			},
			{
				"x": 2.5830756881,
				"y": -4.7143456957,
				"z": 1.2184990823,
				"element": "H" 
			},
			{
				"x": 0.676270872,
				"y": -5.1802294077,
				"z": -0.7100758015,
				"element": "H" 
			}
		],
		 "valence_orbital": [ 
			{
				"type": "occ",
				"energy": -0.28408,
				"method": "rhf"
			},
			{
				"type": "occ",
				"energy": -0.27025,
				"method": "rhf"
			},
			{
				"type": "occ",
				"energy": -0.25961,
				"method": "rhf"
			},
			{
				"type": "occ",
				"energy": -0.23928,
				"method": "rhf"
			},
			{
				"type": "occ",
				"energy": -0.21273,
				"method": "rhf"
			},
			{
				"type": "unocc",
				"energy": -0.08088,
				"method": "rhf"
			},
			{
				"type": "unocc",
				"energy": -0.03553,
				"method": "rhf"
			},
			{
				"type": "unocc",
				"energy": -0.00476,
				"method": "rhf"
			},
			{
				"type": "unocc",
				"energy": 0.01877,
				"method": "rhf"
			},
			{
				"type": "unocc",
				"energy": 0.04928,
				"method": "rhf"
			}
		],
		"cosmo_sigma_profile": { 
			"-0.025": 0.0,
			"-0.024": 0.0,
			"-0.023": 0.0,
			"-0.022": 0.0,
			"-0.021": 0.0,
			"-0.02": 0.0,
			"-0.019": 0.0783305717024,
			"-0.018": 1.22682115429,
			"-0.017": 0.58354239964,
			"-0.016": 0.633360446527,
			"-0.015": 1.09035896416,
			"-0.014": 0.942280809795,
			"-0.013": 0.44439585723,
			"-0.012": 0.641607832223,
			"-0.011": 1.0135037064,
			"-0.01": 0.825110976351,
			"-0.009": 2.39550359408,
			"-0.008": 2.44078830674,
			"-0.007": 6.49877396138,
			"-0.006": 11.1640755588,
			"-0.005": 11.1172789191,
			"-0.004": 15.4307786087,
			"-0.003": 16.3948211876,
			"-0.002": 14.7746587609,
			"-0.001": 21.215776026,
			"0.0": 24.6401445225,
			"0.001": 22.4308301583,
			"0.002": 25.0378717555,
			"0.003": 25.4623466482,
			"0.004": 22.6593430365,
			"0.005": 9.28919093972,
			"0.006": 5.26214968883,
			"0.007": 3.52121851369,
			"0.008": 3.40225920556,
			"0.009": 2.86291407194,
			"0.01": 3.73595959056,
			"0.011": 3.67808865102,
			"0.012": 0.39367209686,
			"0.013": 0.0,
			"0.014": 0.0,
			"0.015": 0.0,
			"0.016": 0.0,
			"0.017": 0.0,
			"0.018": 0.0,
			"0.019": 0.0,
			"0.02": 0.0,
			"0.021": 0.0,
			"0.022": 0.0,
			"0.023": 0.0,
			"0.024": 0.0,
			"0.0": 0.0
		}
	}
}
