{
	 "smiles": "CC(C)C1=CC=C(C=C1)N1N=NN=C1S", 
	 "Tm": 374.15, 
	 "num_atms": 27, 
	 "gaussian": { 
		 "optdone": 1, 
		 "sigma_profile": "yes", 
		 "theory": "DFT", 
		 "functional": "B3LYP", 
		 "basiset": "6-31G**", 
		 "properties": { 
			 "R2extent": 5024.3591, 
			 "electric_dipole_moment_norm": 7.52825323166, 
			 "electric_quadrupole_moment_norm": 27.8869433375, 
			 "total_energy": -1005.43539765, 
			 "HOMO_LUMO_gap": 0.21104, 
			 "cosmo_polarized_energy": -14.71, 
			 "cosmo_cavitation_energy": 32.65, 
			 "cosmo_dispersion_energy": -23.44, 
			 "cosmo_repulsion_energy": 1.8, 
			 "cosmo_total_nonelectrostatic_energy": 11.0, 
			 "SMD_solvation_energy": 3.24 
		},
		"coords": [
			{
				"x": 1.4116268362,
				"y": 3.5122617167,
				"z": 0.3436165568,
				"element": "C" 
			},
			{
				"x": 1.7139306733,
				"y": 2.3569571838,
				"z": 1.3167466063,
				"element": "C" 
			},
			{
				"x": 3.2147015173,
				"y": 2.2973614044,
				"z": 1.6598974361,
				"element": "C" 
			},
			{
				"x": 1.2037614116,
				"y": 1.0239735283,
				"z": 0.7870807202,
				"element": "C" 
			},
			{
				"x": 1.6975901534,
				"y": 0.4751663907,
				"z": -0.4062891694,
				"element": "C" 
			},
			{
				"x": 1.2371482942,
				"y": -0.7492567189,
				"z": -0.8859449699,
				"element": "C" 
			},
			{
				"x": 0.2481216122,
				"y": -1.4368162735,
				"z": -0.1754724887,
				"element": "C" 
			},
			{
				"x": -0.2577813905,
				"y": -0.9163916188,
				"z": 1.0165512725,
				"element": "C" 
			},
			{
				"x": 0.2272996549,
				"y": 0.3019788841,
				"z": 1.4873709313,
				"element": "C" 
			},
			{
				"x": -0.2359409788,
				"y": -2.6921988665,
				"z": -0.6478166545,
				"element": "N" 
			},
			{
				"x": -0.2523632005,
				"y": -3.7960005372,
				"z": 0.1646257702,
				"element": "N" 
			},
			{
				"x": -0.7562422599,
				"y": -4.7546016953,
				"z": -0.5301237607,
				"element": "N" 
			},
			{
				"x": -1.095207536,
				"y": -4.3448356394,
				"z": -1.7818157,
				"element": "N" 
			},
			{
				"x": -0.7724114403,
				"y": -3.0661257153,
				"z": -1.8408948157,
				"element": "C" 
			},
			{
				"x": -1.0569503768,
				"y": -2.081741444,
				"z": -3.2698573892,
				"element": "S" 
			},
			{
				"x": 1.9408178932,
				"y": 3.3818048216,
				"z": -0.6067780332,
				"element": "H" 
			},
			{
				"x": 1.7320050495,
				"y": 4.4677154228,
				"z": 0.7719942465,
				"element": "H" 
			},
			{
				"x": 0.3414850149,
				"y": 3.5791128597,
				"z": 0.1246273278,
				"element": "H" 
			},
			{
				"x": 1.1703670412,
				"y": 2.5595815122,
				"z": 2.248524187,
				"element": "H" 
			},
			{
				"x": 3.5454570206,
				"y": 3.2454143243,
				"z": 2.0968364143,
				"element": "H" 
			},
			{
				"x": 3.821136822,
				"y": 2.1150175061,
				"z": 0.7659434019,
				"element": "H" 
			},
			{
				"x": 3.4274098832,
				"y": 1.4985676196,
				"z": 2.3767491029,
				"element": "H" 
			},
			{
				"x": 2.4663663389,
				"y": 0.999475282,
				"z": -0.9663775912,
				"element": "H" 
			},
			{
				"x": 1.6557635258,
				"y": -1.1800328365,
				"z": -1.7899282311,
				"element": "H" 
			},
			{
				"x": -1.0137961336,
				"y": -1.4692989076,
				"z": 1.5630297213,
				"element": "H" 
			},
			{
				"x": -0.1662707603,
				"y": 0.7026261889,
				"z": 2.4177145989,
				"element": "H" 
			},
			{
				"x": -0.741224666,
				"y": -0.9077143921,
				"z": -2.6867094901,
				"element": "H" 
			}
		],
		 "valence_orbital": [ 
			{
				"type": "occ",
				"energy": -0.29656,
				"method": "rhf"
			},
			{
				"type": "occ",
				"energy": -0.28837,
				"method": "rhf"
			},
			{
				"type": "occ",
				"energy": -0.27933,
				"method": "rhf"
			},
			{
				"type": "occ",
				"energy": -0.26388,
				"method": "rhf"
			},
			{
				"type": "occ",
				"energy": -0.25462,
				"method": "rhf"
			},
			{
				"type": "unocc",
				"energy": -0.04358,
				"method": "rhf"
			},
			{
				"type": "unocc",
				"energy": -0.03338,
				"method": "rhf"
			},
			{
				"type": "unocc",
				"energy": -0.00443,
				"method": "rhf"
			},
			{
				"type": "unocc",
				"energy": 0.00255,
				"method": "rhf"
			},
			{
				"type": "unocc",
				"energy": 0.02377,
				"method": "rhf"
			}
		],
		"cosmo_sigma_profile": { 
			"-0.025": 0.0,
			"-0.024": 0.0,
			"-0.023": 0.0,
			"-0.022": 0.0,
			"-0.021": 0.0,
			"-0.02": 0.0,
			"-0.019": 0.0,
			"-0.018": 0.0,
			"-0.017": 0.0,
			"-0.016": 0.0,
			"-0.015": 0.0,
			"-0.014": 0.0,
			"-0.013": 0.272308244672,
			"-0.012": 0.964348096545,
			"-0.011": 0.99355472691,
			"-0.01": 1.85351115534,
			"-0.009": 1.80021229598,
			"-0.008": 3.38316185246,
			"-0.007": 7.39614894395,
			"-0.006": 12.8153240837,
			"-0.005": 15.4606662317,
			"-0.004": 14.1769111134,
			"-0.003": 21.3958354643,
			"-0.002": 22.0135054574,
			"-0.001": 26.8661772252,
			"0.0": 24.2386692714,
			"0.001": 28.0615528332,
			"0.002": 16.3251132187,
			"0.003": 17.128855041,
			"0.004": 8.51787444213,
			"0.005": 5.16037924487,
			"0.006": 4.67646577934,
			"0.007": 3.97757907384,
			"0.008": 4.95916711402,
			"0.009": 4.78601646721,
			"0.01": 5.17264756987,
			"0.011": 3.80546555764,
			"0.012": 2.63596853548,
			"0.013": 2.05151460524,
			"0.014": 1.30959401545,
			"0.015": 0.108365744236,
			"0.016": 0.0,
			"0.017": 0.0,
			"0.018": 0.0,
			"0.019": 0.0,
			"0.02": 0.0,
			"0.021": 0.0,
			"0.022": 0.0,
			"0.023": 0.0,
			"0.024": 0.0,
			"0.025": 0.0
		}
	}
}
