{
	 "smiles": "OC(=O)CC1=CSC2=CC=CC=C12", 
	 "Tm": 383.15, 
	 "num_atms": 21, 
	 "gaussian": { 
		 "optdone": 1, 
		 "sigma_profile": "yes", 
		 "theory": "DFT", 
		 "functional": "B3LYP", 
		 "basiset": "6-31G**", 
		 "properties": { 
			 "R2extent": 3335.3526, 
			 "electric_dipole_moment_norm": 1.8076166712, 
			 "electric_quadrupole_moment_norm": 12.191245484, 
			 "total_energy": -934.537670663, 
			 "HOMO_LUMO_gap": 0.19048, 
			 "cosmo_polarized_energy": -12.61, 
			 "cosmo_cavitation_energy": 27.01, 
			 "cosmo_dispersion_energy": -20.12, 
			 "cosmo_repulsion_energy": 1.55, 
			 "cosmo_total_nonelectrostatic_energy": 8.44, 
			 "SMD_solvation_energy": 5.3 
		},
		"coords": [
			{
				"x": -4.134095816,
				"y": 1.7950363479,
				"z": 1.3876748465,
				"element": "O" 
			},
			{
				"x": -3.0342606761,
				"y": 1.0521233875,
				"z": 1.1049413537,
				"element": "C" 
			},
			{
				"x": -2.0937323823,
				"y": 0.9635642752,
				"z": 1.8589178111,
				"element": "O" 
			},
			{
				"x": -3.1708080127,
				"y": 0.4014549676,
				"z": -0.2637740091,
				"element": "C" 
			},
			{
				"x": -2.1122513206,
				"y": -0.6162837422,
				"z": -0.5840768391,
				"element": "C" 
			},
			{
				"x": -2.3623845379,
				"y": -1.9495693495,
				"z": -0.6892714996,
				"element": "C" 
			},
			{
				"x": -0.9635470526,
				"y": -2.9025264589,
				"z": -1.1228757915,
				"element": "S" 
			},
			{
				"x": 0.030622009,
				"y": -1.4551308061,
				"z": -1.1831647047,
				"element": "C" 
			},
			{
				"x": 1.3909059787,
				"y": -1.3809019589,
				"z": -1.4997806225,
				"element": "C" 
			},
			{
				"x": 2.0016703554,
				"y": -0.1319579786,
				"z": -1.5000114562,
				"element": "C" 
			},
			{
				"x": 1.2685592115,
				"y": 1.0262653726,
				"z": -1.1847057817,
				"element": "C" 
			},
			{
				"x": -0.080184995,
				"y": 0.9490401502,
				"z": -0.8665776223,
				"element": "C" 
			},
			{
				"x": -0.726015302,
				"y": -0.3011367191,
				"z": -0.8648548715,
				"element": "C" 
			},
			{
				"x": -3.9731395591,
				"y": 2.1924517683,
				"z": 2.2600315915,
				"element": "H" 
			},
			{
				"x": -4.1699842965,
				"y": -0.0411304136,
				"z": -0.3240823574,
				"element": "H" 
			},
			{
				"x": -3.1664060192,
				"y": 1.2170932824,
				"z": -1.0004409387,
				"element": "H" 
			},
			{
				"x": -3.3114210146,
				"y": -2.4477019217,
				"z": -0.53833555,
				"element": "H" 
			},
			{
				"x": 1.956167968,
				"y": -2.2761620361,
				"z": -1.7401616479,
				"element": "H" 
			},
			{
				"x": 3.0569707528,
				"y": -0.0517886773,
				"z": -1.7434189774,
				"element": "H" 
			},
			{
				"x": 1.7666737189,
				"y": 1.9912034993,
				"z": -1.1841276916,
				"element": "H" 
			},
			{
				"x": -0.6315390096,
				"y": 1.8467570113,
				"z": -0.6051052417,
				"element": "H" 
			}
		],
		 "valence_orbital": [ 
			{
				"type": "occ",
				"energy": -0.32262,
				"method": "rhf"
			},
			{
				"type": "occ",
				"energy": -0.2806,
				"method": "rhf"
			},
			{
				"type": "occ",
				"energy": -0.27707,
				"method": "rhf"
			},
			{
				"type": "occ",
				"energy": -0.2341,
				"method": "rhf"
			},
			{
				"type": "occ",
				"energy": -0.21483,
				"method": "rhf"
			},
			{
				"type": "unocc",
				"energy": -0.02435,
				"method": "rhf"
			},
			{
				"type": "unocc",
				"energy": 0.00033,
				"method": "rhf"
			},
			{
				"type": "unocc",
				"energy": 0.00666,
				"method": "rhf"
			},
			{
				"type": "unocc",
				"energy": 0.02382,
				"method": "rhf"
			},
			{
				"type": "unocc",
				"energy": 0.04428,
				"method": "rhf"
			}
		],
		"cosmo_sigma_profile": { 
			"-0.025": 0.0,
			"-0.024": 0.0,
			"-0.023": 0.0,
			"-0.022": 0.0,
			"-0.021": 0.0,
			"-0.02": 0.0,
			"-0.019": 0.00382470882391,
			"-0.018": 0.659581761774,
			"-0.017": 1.0414209937,
			"-0.016": 0.72285830568,
			"-0.015": 0.76243359192,
			"-0.014": 0.934711974594,
			"-0.013": 0.639311242995,
			"-0.012": 0.562969836398,
			"-0.011": 1.09009801589,
			"-0.01": 0.662370803541,
			"-0.009": 1.09168130504,
			"-0.008": 4.70243242527,
			"-0.007": 10.4300711465,
			"-0.006": 13.8963583458,
			"-0.005": 13.2797292192,
			"-0.004": 15.9406947098,
			"-0.003": 12.398253526,
			"-0.002": 11.0355487621,
			"-0.001": 10.939981738,
			"0.0": 10.6934783153,
			"0.001": 11.1666520563,
			"0.002": 13.328427901,
			"0.003": 19.4067709293,
			"0.004": 17.3157121135,
			"0.005": 16.3020648068,
			"0.006": 7.80376449437,
			"0.007": 2.96189206796,
			"0.008": 3.27816247437,
			"0.009": 3.56822637009,
			"0.01": 3.31769701552,
			"0.011": 4.40406201041,
			"0.012": 3.78826897011,
			"0.013": 0.0954776839283,
			"0.014": 0.0,
			"0.015": 0.0,
			"0.016": 0.0,
			"0.017": 0.0,
			"0.018": 0.0,
			"0.019": 0.0,
			"0.02": 0.0,
			"0.021": 0.0,
			"0.022": 0.0,
			"0.023": 0.0,
			"0.024": 0.0,
			"0.025": 0.0
		}
	}
}
