{
	 "smiles": "FC(F)(F)COC(=O)NC1=C(C=CC=C1)C(F)(F)F", 
	 "Tm": 342.15, 
	 "num_atms": 26, 
	 "gaussian": { 
		 "optdone": 1, 
		 "sigma_profile": "yes", 
		 "theory": "DFT", 
		 "functional": "B3LYP", 
		 "basiset": "6-31G**", 
		 "properties": { 
			 "R2extent": 4937.1635, 
			 "electric_dipole_moment_norm": 3.97401729362, 
			 "electric_quadrupole_moment_norm": 12.3025816014, 
			 "total_energy": -1189.54823949, 
			 "HOMO_LUMO_gap": 0.21376, 
			 "cosmo_polarized_energy": -11.55, 
			 "cosmo_cavitation_energy": 33.53, 
			 "cosmo_dispersion_energy": -22.35, 
			 "cosmo_repulsion_energy": 1.62, 
			 "cosmo_total_nonelectrostatic_energy": 12.8, 
			 "SMD_solvation_energy": 8.98 
		},
		"coords": [
			{
				"x": 2.0206388833,
				"y": -1.6847697463,
				"z": 2.5269679778,
				"element": "F" 
			},
			{
				"x": 2.6642928687,
				"y": -1.3350322454,
				"z": 1.3988733667,
				"element": "C" 
			},
			{
				"x": 3.8141786029,
				"y": -2.0400944309,
				"z": 1.3313994835,
				"element": "F" 
			},
			{
				"x": 2.9833138788,
				"y": -0.0306867484,
				"z": 1.4956411202,
				"element": "F" 
			},
			{
				"x": 1.828828883,
				"y": -1.6236363168,
				"z": 0.1642591391,
				"element": "C" 
			},
			{
				"x": 0.6173604006,
				"y": -0.8830538932,
				"z": 0.2257612427,
				"element": "O" 
			},
			{
				"x": -0.52012919,
				"y": -1.5973874487,
				"z": 0.4468722244,
				"element": "C" 
			},
			{
				"x": -0.5691899296,
				"y": -2.7842218469,
				"z": 0.6893915039,
				"element": "O" 
			},
			{
				"x": -1.6217090247,
				"y": -0.7840719886,
				"z": 0.361560674,
				"element": "N" 
			},
			{
				"x": -1.6747499096,
				"y": 0.607323437,
				"z": 0.0853668529,
				"element": "C" 
			},
			{
				"x": -1.1707995473,
				"y": 1.1995949922,
				"z": -1.0911292048,
				"element": "C" 
			},
			{
				"x": -1.2943742431,
				"y": 2.5846822876,
				"z": -1.2620868468,
				"element": "C" 
			},
			{
				"x": -1.9361271826,
				"y": 3.3792528306,
				"z": -0.3176118011,
				"element": "C" 
			},
			{
				"x": -2.470771007,
				"y": 2.7864376954,
				"z": 0.8260809958,
				"element": "C" 
			},
			{
				"x": -2.3316355898,
				"y": 1.4164445381,
				"z": 1.0231364485,
				"element": "C" 
			},
			{
				"x": -0.4922859575,
				"y": 0.4516944216,
				"z": -2.2182589776,
				"element": "C" 
			},
			{
				"x": -0.8186077517,
				"y": -0.8543467483,
				"z": -2.2786774418,
				"element": "F" 
			},
			{
				"x": -0.8328433895,
				"y": 0.9931112979,
				"z": -3.4125637081,
				"element": "F" 
			},
			{
				"x": 0.8581901559,
				"y": 0.5284202644,
				"z": -2.1430669344,
				"element": "F" 
			},
			{
				"x": 2.3734621045,
				"y": -1.290777819,
				"z": -0.7213249175,
				"element": "H" 
			},
			{
				"x": 1.6240251436,
				"y": -2.6944710303,
				"z": 0.1173307746,
				"element": "H" 
			},
			{
				"x": -2.4683716336,
				"y": -1.2329095264,
				"z": 0.6799931986,
				"element": "H" 
			},
			{
				"x": -0.9017580642,
				"y": 3.0335527051,
				"z": -2.1676157544,
				"element": "H" 
			},
			{
				"x": -2.0250270764,
				"y": 4.4486414058,
				"z": -0.4789827335,
				"element": "H" 
			},
			{
				"x": -2.9820959531,
				"y": 3.3882563153,
				"z": 1.5711654127,
				"element": "H" 
			},
			{
				"x": -2.7180154715,
				"y": 0.9505475982,
				"z": 1.9248179045,
				"element": "H" 
			}
		],
		 "valence_orbital": [ 
			{
				"type": "occ",
				"energy": -0.31808,
				"method": "rhf"
			},
			{
				"type": "occ",
				"energy": -0.3093,
				"method": "rhf"
			},
			{
				"type": "occ",
				"energy": -0.29068,
				"method": "rhf"
			},
			{
				"type": "occ",
				"energy": -0.27886,
				"method": "rhf"
			},
			{
				"type": "occ",
				"energy": -0.25352,
				"method": "rhf"
			},
			{
				"type": "unocc",
				"energy": -0.03976,
				"method": "rhf"
			},
			{
				"type": "unocc",
				"energy": -0.02991,
				"method": "rhf"
			},
			{
				"type": "unocc",
				"energy": 0.04165,
				"method": "rhf"
			},
			{
				"type": "unocc",
				"energy": 0.07249,
				"method": "rhf"
			},
			{
				"type": "unocc",
				"energy": 0.0796,
				"method": "rhf"
			}
		],
		"cosmo_sigma_profile": { 
			"-0.025": 0.0,
			"-0.024": 0.0,
			"-0.023": 0.0,
			"-0.022": 0.0,
			"-0.021": 0.0,
			"-0.02": 0.0,
			"-0.019": 0.0,
			"-0.018": 0.0,
			"-0.017": 0.0,
			"-0.016": 0.359356490213,
			"-0.015": 1.27377883779,
			"-0.014": 0.713061546427,
			"-0.013": 1.37148204284,
			"-0.012": 0.880836583591,
			"-0.011": 1.3423355118,
			"-0.01": 1.37956250853,
			"-0.009": 2.41192814718,
			"-0.008": 5.29653616652,
			"-0.007": 11.0895715721,
			"-0.006": 12.8893580068,
			"-0.005": 12.2173643932,
			"-0.004": 10.5793208079,
			"-0.003": 9.98281750627,
			"-0.002": 13.1284499327,
			"-0.001": 13.5962493067,
			"0.0": 17.178200959,
			"0.001": 22.8403203698,
			"0.002": 49.8111507714,
			"0.003": 53.6646889865,
			"0.004": 8.13765035925,
			"0.005": 3.52047572911,
			"0.006": 1.66325125196,
			"0.007": 0.81760757594,
			"0.008": 1.42957718824,
			"0.009": 1.69370647826,
			"0.01": 1.49050093353,
			"0.011": 3.11587842197,
			"0.012": 4.27471776791,
			"0.013": 0.439837595616,
			"0.014": 0.0,
			"0.015": 0.0,
			"0.016": 0.0,
			"0.017": 0.0,
			"0.018": 0.0,
			"0.019": 0.0,
			"0.02": 0.0,
			"0.021": 0.0,
			"0.022": 0.0,
			"0.023": 0.0,
			"0.024": 0.0,
			"0.025": 0.0
		}
	}
}
