{
	 "smiles": "CC(N)C1=NC(=CN1)C1=CC=CC=C1", 
	 "Tm": 403.15, 
	 "num_atms": 27, 
	 "gaussian": { 
		 "optdone": 1, 
		 "sigma_profile": "yes", 
		 "theory": "DFT", 
		 "functional": "B3LYP", 
		 "basiset": "6-31G**", 
		 "properties": { 
			 "R2extent": 4002.5197, 
			 "electric_dipole_moment_norm": 3.73836030634, 
			 "electric_quadrupole_moment_norm": 12.3489491261, 
			 "total_energy": -591.27432293, 
			 "HOMO_LUMO_gap": 0.18871, 
			 "cosmo_polarized_energy": -13.66, 
			 "cosmo_cavitation_energy": 30.32, 
			 "cosmo_dispersion_energy": -22.3, 
			 "cosmo_repulsion_energy": 1.76, 
			 "cosmo_total_nonelectrostatic_energy": 9.79, 
			 "SMD_solvation_energy": 3.3 
		},
		"coords": [
			{
				"x": 1.2543399687,
				"y": -2.0205895977,
				"z": 2.3072346078,
				"element": "C" 
			},
			{
				"x": 0.263024317,
				"y": -2.5649828897,
				"z": 1.2712221731,
				"element": "C" 
			},
			{
				"x": 0.523437008,
				"y": -3.9435398801,
				"z": 0.8104059479,
				"element": "N" 
			},
			{
				"x": 0.1893707138,
				"y": -1.6746442267,
				"z": 0.0567496728,
				"element": "C" 
			},
			{
				"x": 0.375337309,
				"y": -0.3726088299,
				"z": 0.0055482949,
				"element": "N" 
			},
			{
				"x": 0.147742815,
				"y": -0.0046518985,
				"z": -1.3107460773,
				"element": "C" 
			},
			{
				"x": -0.1792803426,
				"y": -1.1242690625,
				"z": -2.0533387936,
				"element": "C" 
			},
			{
				"x": -0.150008826,
				"y": -2.1754427882,
				"z": -1.1670306349,
				"element": "N" 
			},
			{
				"x": 0.2685608927,
				"y": 1.3926368203,
				"z": -1.7483920747,
				"element": "C" 
			},
			{
				"x": 0.6311555681,
				"y": 2.3865751576,
				"z": -0.8240366328,
				"element": "C" 
			},
			{
				"x": 0.7518590779,
				"y": 3.7170361743,
				"z": -1.2204753517,
				"element": "C" 
			},
			{
				"x": 0.5136945697,
				"y": 4.0848807601,
				"z": -2.5465238514,
				"element": "C" 
			},
			{
				"x": 0.1519945029,
				"y": 3.1049480757,
				"z": -3.4742429536,
				"element": "C" 
			},
			{
				"x": 0.0305554589,
				"y": 1.7742773513,
				"z": -3.0801034116,
				"element": "C" 
			},
			{
				"x": 1.2297811046,
				"y": -2.6308503191,
				"z": 3.2162742747,
				"element": "H" 
			},
			{
				"x": 1.0133840975,
				"y": -0.9866794892,
				"z": 2.5660784088,
				"element": "H" 
			},
			{
				"x": 2.2738593716,
				"y": -2.0318268174,
				"z": 1.9062366967,
				"element": "H" 
			},
			{
				"x": -0.7360137641,
				"y": -2.5865600884,
				"z": 1.7312522562,
				"element": "H" 
			},
			{
				"x": 1.5111453872,
				"y": -4.0371125788,
				"z": 0.5765637107,
				"element": "H" 
			},
			{
				"x": 0.3488275969,
				"y": -4.5954806952,
				"z": 1.5710318089,
				"element": "H" 
			},
			{
				"x": -0.4125330321,
				"y": -1.2643667875,
				"z": -3.0970529169,
				"element": "H" 
			},
			{
				"x": -0.3087017219,
				"y": -3.1586843151,
				"z": -1.3353270735,
				"element": "H" 
			},
			{
				"x": 0.8143186932,
				"y": 2.0928422399,
				"z": 0.2037391767,
				"element": "H" 
			},
			{
				"x": 1.0334206398,
				"y": 4.4707621584,
				"z": -0.4899020657,
				"element": "H" 
			},
			{
				"x": 0.6079857409,
				"y": 5.1223174294,
				"z": -2.8545067612,
				"element": "H" 
			},
			{
				"x": -0.0368322828,
				"y": 3.3778406734,
				"z": -4.5090379468,
				"element": "H" 
			},
			{
				"x": -0.2531248637,
				"y": 1.0262734236,
				"z": -3.8155204834,
				"element": "H" 
			}
		],
		 "valence_orbital": [ 
			{
				"type": "occ",
				"energy": -0.26498,
				"method": "rhf"
			},
			{
				"type": "occ",
				"energy": -0.25604,
				"method": "rhf"
			},
			{
				"type": "occ",
				"energy": -0.24719,
				"method": "rhf"
			},
			{
				"type": "occ",
				"energy": -0.23492,
				"method": "rhf"
			},
			{
				"type": "occ",
				"energy": -0.19421,
				"method": "rhf"
			},
			{
				"type": "unocc",
				"energy": -0.0055,
				"method": "rhf"
			},
			{
				"type": "unocc",
				"energy": 0.01351,
				"method": "rhf"
			},
			{
				"type": "unocc",
				"energy": 0.03425,
				"method": "rhf"
			},
			{
				"type": "unocc",
				"energy": 0.07772,
				"method": "rhf"
			},
			{
				"type": "unocc",
				"energy": 0.09895,
				"method": "rhf"
			}
		],
		"cosmo_sigma_profile": { 
			"-0.025": 0.0,
			"-0.024": 0.0,
			"-0.023": 0.0,
			"-0.022": 0.0,
			"-0.021": 0.0,
			"-0.02": 0.0,
			"-0.019": 0.0,
			"-0.018": 0.0,
			"-0.017": 0.0,
			"-0.016": 0.0,
			"-0.015": 0.0609134836877,
			"-0.014": 0.559526532876,
			"-0.013": 1.11912648689,
			"-0.012": 0.784798414042,
			"-0.011": 0.892471153044,
			"-0.01": 3.18993015563,
			"-0.009": 3.23577057398,
			"-0.008": 6.2537955596,
			"-0.007": 8.62937973377,
			"-0.006": 7.0717683014,
			"-0.005": 14.7733549415,
			"-0.004": 16.4407444475,
			"-0.003": 21.2367938802,
			"-0.002": 15.4621360732,
			"-0.001": 16.4805867722,
			"0.0": 15.5069784001,
			"0.001": 16.0873749962,
			"0.002": 10.9175109753,
			"0.003": 12.916896903,
			"0.004": 13.944264982,
			"0.005": 18.9087252939,
			"0.006": 14.4203711862,
			"0.007": 6.59579183302,
			"0.008": 2.95832952838,
			"0.009": 2.98013211381,
			"0.01": 2.17886764366,
			"0.011": 2.04453212455,
			"0.012": 2.43904430828,
			"0.013": 1.65605304241,
			"0.014": 0.342320767633,
			"0.015": 0.0,
			"0.016": 0.0,
			"0.017": 0.0,
			"0.018": 0.0,
			"0.019": 0.0,
			"0.02": 0.0,
			"0.021": 0.0,
			"0.022": 0.0,
			"0.023": 0.0,
			"0.024": 0.0,
			"0.025": 0.0
		}
	}
}
