{
	 "smiles": "CCOC1=C(N)C=C(C=C1)S(=O)(=O)N(CC)CC", 
	 "Tm": 393.15, 
	 "num_atms": 38, 
	 "gaussian": { 
		 "optdone": 1, 
		 "sigma_profile": "yes", 
		 "theory": "DFT", 
		 "functional": "B3LYP", 
		 "basiset": "6-31G**", 
		 "properties": { 
			 "R2extent": 6943.6582, 
			 "electric_dipole_moment_norm": 6.65794709877, 
			 "electric_quadrupole_moment_norm": 18.3707095802, 
			 "total_energy": -1202.62902496, 
			 "HOMO_LUMO_gap": 0.18817, 
			 "cosmo_polarized_energy": -17.88, 
			 "cosmo_cavitation_energy": 40.77, 
			 "cosmo_dispersion_energy": -28.87, 
			 "cosmo_repulsion_energy": 2.24, 
			 "cosmo_total_nonelectrostatic_energy": 14.14, 
			 "SMD_solvation_energy": 6.21 
		},
		"coords": [
			{
				"x": -0.6597316859,
				"y": -3.9029845877,
				"z": 4.9317944616,
				"element": "C" 
			},
			{
				"x": -0.9964016185,
				"y": -3.0825016931,
				"z": 3.6994962496,
				"element": "C" 
			},
			{
				"x": 0.0043712142,
				"y": -2.0713672727,
				"z": 3.5652027492,
				"element": "O" 
			},
			{
				"x": -0.0822887191,
				"y": -1.1899655568,
				"z": 2.5243693672,
				"element": "C" 
			},
			{
				"x": 0.9600840392,
				"y": -0.2227349598,
				"z": 2.4961230865,
				"element": "C" 
			},
			{
				"x": 1.8915498993,
				"y": -0.2091583468,
				"z": 3.5264372095,
				"element": "N" 
			},
			{
				"x": 0.9712912025,
				"y": 0.7098173376,
				"z": 1.4603832015,
				"element": "C" 
			},
			{
				"x": -0.0293118467,
				"y": 0.6838991113,
				"z": 0.4816791197,
				"element": "C" 
			},
			{
				"x": -1.0569342601,
				"y": -0.2506425318,
				"z": 0.5151433973,
				"element": "C" 
			},
			{
				"x": -1.0742719632,
				"y": -1.1968608756,
				"z": 1.5478186503,
				"element": "C" 
			},
			{
				"x": -0.0129413184,
				"y": 1.9267444081,
				"z": -0.8078429762,
				"element": "S" 
			},
			{
				"x": -1.2320905547,
				"y": 1.7332247475,
				"z": -1.6100713457,
				"element": "O" 
			},
			{
				"x": 0.2676523942,
				"y": 3.2366945889,
				"z": -0.2064595885,
				"element": "O" 
			},
			{
				"x": 1.3775204402,
				"y": 1.5030347217,
				"z": -1.6853216784,
				"element": "N" 
			},
			{
				"x": 1.2575913033,
				"y": 0.2811077246,
				"z": -2.5040593936,
				"element": "C" 
			},
			{
				"x": 0.64370686,
				"y": 0.4599200544,
				"z": -3.8971658492,
				"element": "C" 
			},
			{
				"x": 2.187761268,
				"y": 2.6123445436,
				"z": -2.2243380283,
				"element": "C" 
			},
			{
				"x": 3.6715311126,
				"y": 2.2474038909,
				"z": -2.2906971445,
				"element": "C" 
			},
			{
				"x": -1.4066941579,
				"y": -4.6899003629,
				"z": 5.0730132475,
				"element": "H" 
			},
			{
				"x": 0.3220424928,
				"y": -4.373746076,
				"z": 4.8275494569,
				"element": "H" 
			},
			{
				"x": -0.6487152412,
				"y": -3.271698877,
				"z": 5.8246139431,
				"element": "H" 
			},
			{
				"x": -1.9838279063,
				"y": -2.6115634297,
				"z": 3.7980148589,
				"element": "H" 
			},
			{
				"x": -1.010091479,
				"y": -3.7116162001,
				"z": 2.7986093383,
				"element": "H" 
			},
			{
				"x": 1.9667991838,
				"y": -1.0780220951,
				"z": 4.0356009892,
				"element": "H" 
			},
			{
				"x": 2.7810676903,
				"y": 0.2152826877,
				"z": 3.308348332,
				"element": "H" 
			},
			{
				"x": 1.7495314171,
				"y": 1.4653031461,
				"z": 1.4215096316,
				"element": "H" 
			},
			{
				"x": -1.8302800382,
				"y": -0.2337004533,
				"z": -0.2431734498,
				"element": "H" 
			},
			{
				"x": -1.8685703268,
				"y": -1.9328551631,
				"z": 1.5787170589,
				"element": "H" 
			},
			{
				"x": 2.2635455285,
				"y": -0.1456655281,
				"z": -2.5849011166,
				"element": "H" 
			},
			{
				"x": 0.671243233,
				"y": -0.4403589657,
				"z": -1.9271576557,
				"element": "H" 
			},
			{
				"x": 1.2511257359,
				"y": 1.1152802533,
				"z": -4.529255849,
				"element": "H" 
			},
			{
				"x": 0.5828357454,
				"y": -0.5124895445,
				"z": -4.3977990515,
				"element": "H" 
			},
			{
				"x": -0.3619481542,
				"y": 0.8788130085,
				"z": -3.8236613523,
				"element": "H" 
			},
			{
				"x": 1.8296627936,
				"y": 2.918916595,
				"z": -3.2171706676,
				"element": "H" 
			},
			{
				"x": 2.0459682242,
				"y": 3.4618282078,
				"z": -1.5556168841,
				"element": "H" 
			},
			{
				"x": 3.8708488052,
				"y": 1.4327874491,
				"z": -2.9940964424,
				"element": "H" 
			},
			{
				"x": 4.2474287744,
				"y": 3.1163608908,
				"z": -2.6253630578,
				"element": "H" 
			},
			{
				"x": 4.0406399125,
				"y": 1.9467691528,
				"z": -1.3055728177,
				"element": "H" 
			}
		],
		 "valence_orbital": [ 
			{
				"type": "occ",
				"energy": -0.29136,
				"method": "rhf"
			},
			{
				"type": "occ",
				"energy": -0.28441,
				"method": "rhf"
			},
			{
				"type": "occ",
				"energy": -0.25018,
				"method": "rhf"
			},
			{
				"type": "occ",
				"energy": -0.22978,
				"method": "rhf"
			},
			{
				"type": "occ",
				"energy": -0.20373,
				"method": "rhf"
			},
			{
				"type": "unocc",
				"energy": -0.01556,
				"method": "rhf"
			},
			{
				"type": "unocc",
				"energy": 0.00353,
				"method": "rhf"
			},
			{
				"type": "unocc",
				"energy": 0.07048,
				"method": "rhf"
			},
			{
				"type": "unocc",
				"energy": 0.07968,
				"method": "rhf"
			},
			{
				"type": "unocc",
				"energy": 0.08406,
				"method": "rhf"
			}
		],
		"cosmo_sigma_profile": { 
			"-0.025": 0.0,
			"-0.024": 0.0,
			"-0.023": 0.0,
			"-0.022": 0.0,
			"-0.021": 0.0,
			"-0.02": 0.0,
			"-0.019": 0.0,
			"-0.018": 0.0,
			"-0.017": 0.0,
			"-0.016": 0.0,
			"-0.015": 0.0,
			"-0.014": 0.0,
			"-0.013": 0.730450696203,
			"-0.012": 1.7185059154,
			"-0.011": 2.0722252943,
			"-0.01": 2.63891130192,
			"-0.009": 2.66125032068,
			"-0.008": 2.68704306988,
			"-0.007": 4.01126034835,
			"-0.006": 6.09442548663,
			"-0.005": 16.3336062007,
			"-0.004": 30.0768604289,
			"-0.003": 37.5923898056,
			"-0.002": 33.8297599038,
			"-0.001": 27.6057043159,
			"0.0": 30.4812269761,
			"0.001": 23.5507990517,
			"0.002": 16.2908103067,
			"0.003": 15.9418680934,
			"0.004": 15.5588517562,
			"0.005": 8.72230509269,
			"0.006": 5.29633413223,
			"0.007": 4.96002885312,
			"0.008": 5.10679317012,
			"0.009": 3.49666757173,
			"0.01": 6.5990080128,
			"0.011": 7.49452753887,
			"0.012": 6.44670538999,
			"0.013": 1.80580798717,
			"0.014": 0.187513806749,
			"0.015": 0.0,
			"0.016": 0.0,
			"0.017": 0.0,
			"0.018": 0.0,
			"0.019": 0.0,
			"0.02": 0.0,
			"0.021": 0.0,
			"0.022": 0.0,
			"0.023": 0.0,
			"0.024": 0.0,
			"0.025": 0.0
		}
	}
}
