{
	 "smiles": "CC1=CC=C(O1)C(C1=CC=C(C)O1)C1=CC(Br)=CC(Br)=C1O", 
	 "Tm": 361.15, 
	 "num_atms": 36, 
	 "gaussian": { 
		 "optdone": 1, 
		 "sigma_profile": "yes", 
		 "theory": "DFT", 
		 "functional": "B3LYP", 
		 "basiset": "6-31G**", 
		 "properties": { 
			 "R2extent": 11746.2694, 
			 "electric_dipole_moment_norm": 1.53356448837, 
			 "electric_quadrupole_moment_norm": 10.294575186, 
			 "total_energy": -6024.69517438, 
			 "HOMO_LUMO_gap": 0.18241, 
			 "cosmo_polarized_energy": -9.83, 
			 "cosmo_cavitation_energy": 45.61, 
			 "cosmo_dispersion_energy": -31.36, 
			 "cosmo_repulsion_energy": 2.5, 
			 "cosmo_total_nonelectrostatic_energy": 16.75, 
			 "SMD_solvation_energy": 6.61 
		},
		"coords": [
			{
				"x": 2.4386689647,
				"y": -4.0088661112,
				"z": -0.5536377692,
				"element": "C" 
			},
			{
				"x": 2.2743718046,
				"y": -2.6343990015,
				"z": -0.0067447655,
				"element": "C" 
			},
			{
				"x": 2.829849266,
				"y": -1.9618072633,
				"z": 1.0406771479,
				"element": "C" 
			},
			{
				"x": 2.25086128,
				"y": -0.6482444612,
				"z": 1.0438173915,
				"element": "C" 
			},
			{
				"x": 1.3819564754,
				"y": -0.6074095823,
				"z": -0.0056002811,
				"element": "C" 
			},
			{
				"x": 1.3862880168,
				"y": -1.8158862037,
				"z": -0.6554435353,
				"element": "O" 
			},
			{
				"x": 0.4559666526,
				"y": 0.4288995195,
				"z": -0.5784132409,
				"element": "C" 
			},
			{
				"x": 0.7989104911,
				"y": 1.8215085433,
				"z": -0.1343549895,
				"element": "C" 
			},
			{
				"x": 1.170710327,
				"y": 2.9432529484,
				"z": -0.8109023474,
				"element": "C" 
			},
			{
				"x": 1.3206948481,
				"y": 3.9801244828,
				"z": 0.1693197212,
				"element": "C" 
			},
			{
				"x": 1.0261490508,
				"y": 3.4233845668,
				"z": 1.3783612218,
				"element": "C" 
			},
			{
				"x": 0.9889696947,
				"y": 3.9437712866,
				"z": 2.7722315702,
				"element": "C" 
			},
			{
				"x": 0.7025900591,
				"y": 2.101135894,
				"z": 1.2056318959,
				"element": "O" 
			},
			{
				"x": -1.0245722514,
				"y": 0.1154726001,
				"z": -0.3108614439,
				"element": "C" 
			},
			{
				"x": -1.4436152357,
				"y": -0.4556188292,
				"z": 0.8898244739,
				"element": "C" 
			},
			{
				"x": -2.7950893343,
				"y": -0.7002092695,
				"z": 1.1237195172,
				"element": "C" 
			},
			{
				"x": -3.3446761243,
				"y": -1.4835765628,
				"z": 2.7783796729,
				"element": "Br" 
			},
			{
				"x": -3.7576075841,
				"y": -0.387013917,
				"z": 0.1695434405,
				"element": "C" 
			},
			{
				"x": -3.3331788455,
				"y": 0.1833329344,
				"z": -1.0265015212,
				"element": "C" 
			},
			{
				"x": -4.6249221393,
				"y": 0.6258912311,
				"z": -2.3742539043,
				"element": "Br" 
			},
			{
				"x": -1.9819256986,
				"y": 0.4483688929,
				"z": -1.2876587809,
				"element": "C" 
			},
			{
				"x": -1.548459221,
				"y": 1.0100448289,
				"z": -2.4441087149,
				"element": "O" 
			},
			{
				"x": 3.1674686783,
				"y": -4.5606622245,
				"z": 0.0445831791,
				"element": "H" 
			},
			{
				"x": 2.7911761427,
				"y": -3.9896443497,
				"z": -1.5915192549,
				"element": "H" 
			},
			{
				"x": 1.492968994,
				"y": -4.5630143119,
				"z": -0.5389616503,
				"element": "H" 
			},
			{
				"x": 3.5654741863,
				"y": -2.3522455007,
				"z": 1.7296250556,
				"element": "H" 
			},
			{
				"x": 2.4515281347,
				"y": 0.1587341289,
				"z": 1.7318368451,
				"element": "H" 
			},
			{
				"x": 0.5894775545,
				"y": 0.4233497664,
				"z": -1.6649684081,
				"element": "H" 
			},
			{
				"x": 1.3138821017,
				"y": 3.0224405884,
				"z": -1.8789479207,
				"element": "H" 
			},
			{
				"x": 1.6075762437,
				"y": 5.0076447476,
				"z": -0.004237241,
				"element": "H" 
			},
			{
				"x": -0.0076621967,
				"y": 3.8345291813,
				"z": 3.2152344332,
				"element": "H" 
			},
			{
				"x": 1.6957588142,
				"y": 3.4131825869,
				"z": 3.4210896377,
				"element": "H" 
			},
			{
				"x": 1.2516743636,
				"y": 5.0041714204,
				"z": 2.7779751149,
				"element": "H" 
			},
			{
				"x": -0.7036336634,
				"y": -0.7137584512,
				"z": 1.6382326152,
				"element": "H" 
			},
			{
				"x": -4.807681401,
				"y": -0.5808952153,
				"z": 0.3456971633,
				"element": "H" 
			},
			{
				"x": -2.3145484494,
				"y": 1.1634111062,
				"z": -3.0207643277,
				"element": "H" 
			}
		],
		 "valence_orbital": [ 
			{
				"type": "occ",
				"energy": -0.26991,
				"method": "rhf"
			},
			{
				"type": "occ",
				"energy": -0.25665,
				"method": "rhf"
			},
			{
				"type": "occ",
				"energy": -0.22601,
				"method": "rhf"
			},
			{
				"type": "occ",
				"energy": -0.21405,
				"method": "rhf"
			},
			{
				"type": "occ",
				"energy": -0.2069,
				"method": "rhf"
			},
			{
				"type": "unocc",
				"energy": -0.02449,
				"method": "rhf"
			},
			{
				"type": "unocc",
				"energy": -0.02067,
				"method": "rhf"
			},
			{
				"type": "unocc",
				"energy": -0.00754,
				"method": "rhf"
			},
			{
				"type": "unocc",
				"energy": 0.01534,
				"method": "rhf"
			},
			{
				"type": "unocc",
				"energy": 0.02334,
				"method": "rhf"
			}
		],
		"cosmo_sigma_profile": { 
			"-0.025": 0.0,
			"-0.024": 0.0,
			"-0.023": 0.0,
			"-0.022": 0.0,
			"-0.021": 0.0,
			"-0.02": 0.0,
			"-0.019": 0.0,
			"-0.018": 0.0,
			"-0.017": 0.0,
			"-0.016": 5.15365629172e-05,
			"-0.015": 0.420514745086,
			"-0.014": 0.362258535395,
			"-0.013": 0.22577252199,
			"-0.012": 0.656723034977,
			"-0.011": 1.3188152238,
			"-0.01": 1.10944049021,
			"-0.009": 0.885689900716,
			"-0.008": 2.03611153546,
			"-0.007": 4.29603354712,
			"-0.006": 10.1873507676,
			"-0.005": 21.4281317496,
			"-0.004": 29.461456561,
			"-0.003": 25.4742248516,
			"-0.002": 29.5043585356,
			"-0.001": 36.2246010278,
			"0.0": 32.9258297131,
			"0.001": 34.5315525369,
			"0.002": 36.5814968783,
			"0.003": 32.3917316537,
			"0.004": 29.520860115,
			"0.005": 21.2107267119,
			"0.006": 14.3796382314,
			"0.007": 4.53313966168,
			"0.008": 1.33731756858,
			"0.009": 0.281089281966,
			"0.01": 0.0,
			"0.011": 0.0,
			"0.012": 0.0,
			"0.013": 0.0,
			"0.014": 0.0,
			"0.015": 0.0,
			"0.016": 0.0,
			"0.017": 0.0,
			"0.018": 0.0,
			"0.019": 0.0,
			"0.02": 0.0,
			"0.021": 0.0,
			"0.022": 0.0,
			"0.023": 0.0,
			"0.024": 0.0,
			"0.025": 0.0
		}
	}
}
