{
	 "smiles": "O=C1NC(=O)C2(CCCC2)N1", 
	 "Tm": 414.15, 
	 "num_atms": 21, 
	 "gaussian": { 
		 "optdone": 1, 
		 "sigma_profile": "yes", 
		 "theory": "DFT", 
		 "functional": "B3LYP", 
		 "basiset": "6-31G**", 
		 "properties": { 
			 "R2extent": 1736.6335, 
			 "electric_dipole_moment_norm": 2.86122625809, 
			 "electric_quadrupole_moment_norm": 11.1369075182, 
			 "total_energy": -532.769771593, 
			 "HOMO_LUMO_gap": 0.25064, 
			 "cosmo_polarized_energy": -14.93, 
			 "cosmo_cavitation_energy": 23.58, 
			 "cosmo_dispersion_energy": -17.54, 
			 "cosmo_repulsion_energy": 1.43, 
			 "cosmo_total_nonelectrostatic_energy": 7.47, 
			 "SMD_solvation_energy": 4.69 
		},
		"coords": [
			{
				"x": 2.6565935888,
				"y": -1.177468727,
				"z": 1.7815273088,
				"element": "O" 
			},
			{
				"x": 1.7041433892,
				"y": -0.9691267782,
				"z": 1.0592057038,
				"element": "C" 
			},
			{
				"x": 1.7519752813,
				"y": -0.7423083261,
				"z": -0.3343627643,
				"element": "N" 
			},
			{
				"x": 0.5153961353,
				"y": -0.4929859225,
				"z": -0.8864937981,
				"element": "C" 
			},
			{
				"x": 0.2616735785,
				"y": -0.2829977128,
				"z": -2.0556581985,
				"element": "O" 
			},
			{
				"x": -0.4939568937,
				"y": -0.5203882815,
				"z": 0.2785183651,
				"element": "C" 
			},
			{
				"x": -1.1637648624,
				"y": 0.8786887056,
				"z": 0.4527497568,
				"element": "C" 
			},
			{
				"x": -2.5049991034,
				"y": 0.7610380432,
				"z": -0.2815561745,
				"element": "C" 
			},
			{
				"x": -2.9676981311,
				"y": -0.6595816682,
				"z": 0.0797367194,
				"element": "C" 
			},
			{
				"x": -1.6782695557,
				"y": -1.5006021,
				"z": -0.0201807268,
				"element": "C" 
			},
			{
				"x": 0.3734698064,
				"y": -0.9071006042,
				"z": 1.3856298654,
				"element": "N" 
			},
			{
				"x": 2.6149538239,
				"y": -0.7778819396,
				"z": -0.8573594391,
				"element": "H" 
			},
			{
				"x": -1.3339151555,
				"y": 1.0421481728,
				"z": 1.5246055292,
				"element": "H" 
			},
			{
				"x": -0.5283916849,
				"y": 1.693404004,
				"z": 0.0942202448,
				"element": "H" 
			},
			{
				"x": -2.3398235323,
				"y": 0.8390318243,
				"z": -1.3617028604,
				"element": "H" 
			},
			{
				"x": -3.2169451308,
				"y": 1.5391253414,
				"z": 0.010311494,
				"element": "H" 
			},
			{
				"x": -3.7621870206,
				"y": -1.0343387449,
				"z": -0.571944628,
				"element": "H" 
			},
			{
				"x": -3.3550961698,
				"y": -0.6734071402,
				"z": 1.1064812847,
				"element": "H" 
			},
			{
				"x": -1.5658526061,
				"y": -1.8911653738,
				"z": -1.0359226705,
				"element": "H" 
			},
			{
				"x": -1.6540425057,
				"y": -2.3496869941,
				"z": 0.6676597623,
				"element": "H" 
			},
			{
				"x": 0.1005367486,
				"y": -0.8734957783,
				"z": 2.3558352257,
				"element": "H" 
			}
		],
		 "valence_orbital": [ 
			{
				"type": "occ",
				"energy": -0.33613,
				"method": "rhf"
			},
			{
				"type": "occ",
				"energy": -0.2878,
				"method": "rhf"
			},
			{
				"type": "occ",
				"energy": -0.28725,
				"method": "rhf"
			},
			{
				"type": "occ",
				"energy": -0.2638,
				"method": "rhf"
			},
			{
				"type": "occ",
				"energy": -0.2595,
				"method": "rhf"
			},
			{
				"type": "unocc",
				"energy": -0.00886,
				"method": "rhf"
			},
			{
				"type": "unocc",
				"energy": 0.06333,
				"method": "rhf"
			},
			{
				"type": "unocc",
				"energy": 0.06964,
				"method": "rhf"
			},
			{
				"type": "unocc",
				"energy": 0.07805,
				"method": "rhf"
			},
			{
				"type": "unocc",
				"energy": 0.09601,
				"method": "rhf"
			}
		],
		"cosmo_sigma_profile": { 
			"-0.025": 0.0,
			"-0.024": 0.0,
			"-0.023": 0.0,
			"-0.022": 0.0,
			"-0.021": 0.0,
			"-0.02": 0.0,
			"-0.019": 0.0,
			"-0.018": 0.0,
			"-0.017": 0.217804087541,
			"-0.016": 1.11174694474,
			"-0.015": 2.1964245233,
			"-0.014": 2.12931874866,
			"-0.013": 1.86280507147,
			"-0.012": 1.80052545468,
			"-0.011": 1.5466366274,
			"-0.01": 1.6608432197,
			"-0.009": 2.59560550935,
			"-0.008": 2.08965125714,
			"-0.007": 2.81020041582,
			"-0.006": 2.5934604587,
			"-0.005": 6.25401313918,
			"-0.004": 11.3698986212,
			"-0.003": 19.6260940946,
			"-0.002": 22.2730136286,
			"-0.001": 25.0411790287,
			"0.0": 17.372918368,
			"0.001": 9.64017431846,
			"0.002": 3.94210976008,
			"0.003": 3.98310124537,
			"0.004": 2.62835211974,
			"0.005": 3.54603072389,
			"0.006": 3.17653027162,
			"0.007": 2.52611712598,
			"0.008": 2.18293812688,
			"0.009": 2.33028952647,
			"0.01": 3.55449013995,
			"0.011": 4.0803529955,
			"0.012": 8.67309585085,
			"0.013": 8.27581910634,
			"0.014": 1.41448209816,
			"0.015": 0.0,
			"0.016": 0.0,
			"0.017": 0.0,
			"0.018": 0.0,
			"0.019": 0.0,
			"0.02": 0.0,
			"0.021": 0.0,
			"0.022": 0.0,
			"0.023": 0.0,
			"0.024": 0.0,
			"0.025": 0.0
		}
	}
}
