{
	 "smiles": "OC(=O)C1=C(NC(=O)C(F)(F)F)C=CC=C1", 
	 "Tm": 441.15, 
	 "num_atms": 22, 
	 "gaussian": { 
		 "optdone": 1, 
		 "sigma_profile": "yes", 
		 "theory": "DFT", 
		 "functional": "B3LYP", 
		 "basiset": "6-31G**", 
		 "properties": { 
			 "R2extent": 4618.899, 
			 "electric_dipole_moment_norm": 4.32148123911, 
			 "electric_quadrupole_moment_norm": 16.6802163496, 
			 "total_energy": -926.536759517, 
			 "HOMO_LUMO_gap": 0.19611, 
			 "cosmo_polarized_energy": -16.53, 
			 "cosmo_cavitation_energy": 29.0, 
			 "cosmo_dispersion_energy": -20.24, 
			 "cosmo_repulsion_energy": 1.53, 
			 "cosmo_total_nonelectrostatic_energy": 10.29, 
			 "SMD_solvation_energy": 7.82 
		},
		"coords": [
			{
				"x": 1.8510816069,
				"y": -2.8964124403,
				"z": -1.3185132828,
				"element": "O" 
			},
			{
				"x": 1.1944381309,
				"y": -2.0233795935,
				"z": -0.5177592174,
				"element": "C" 
			},
			{
				"x": 0.7255346491,
				"y": -2.3525419392,
				"z": 0.5509736642,
				"element": "O" 
			},
			{
				"x": 1.0626065097,
				"y": -0.6743550402,
				"z": -1.14457533,
				"element": "C" 
			},
			{
				"x": 0.878222104,
				"y": 0.4930849456,
				"z": -0.3756840869,
				"element": "C" 
			},
			{
				"x": 0.9901613964,
				"y": 0.5089381548,
				"z": 1.0372833123,
				"element": "N" 
			},
			{
				"x": 2.025417271,
				"y": -0.025686396,
				"z": 1.7478762801,
				"element": "C" 
			},
			{
				"x": 2.9825712094,
				"y": -0.6255404402,
				"z": 1.3038180733,
				"element": "O" 
			},
			{
				"x": 1.9012099219,
				"y": 0.192341365,
				"z": 3.2755141784,
				"element": "C" 
			},
			{
				"x": 3.0184645679,
				"y": 0.7573842,
				"z": 3.7503491311,
				"element": "F" 
			},
			{
				"x": 1.7151840666,
				"y": -0.9759960822,
				"z": 3.8994269593,
				"element": "F" 
			},
			{
				"x": 0.8581700741,
				"y": 1.0061524718,
				"z": 3.5969795106,
				"element": "F" 
			},
			{
				"x": 0.5848631192,
				"y": 1.7033775895,
				"z": -1.0132356672,
				"element": "C" 
			},
			{
				"x": 0.4827771248,
				"y": 1.7717190797,
				"z": -2.4004903665,
				"element": "C" 
			},
			{
				"x": 0.7059073182,
				"y": 0.6304138186,
				"z": -3.1713618808,
				"element": "C" 
			},
			{
				"x": 0.9986672153,
				"y": -0.5767862459,
				"z": -2.5427042223,
				"element": "C" 
			},
			{
				"x": 1.8491850625,
				"y": -3.7421358128,
				"z": -0.8399648113,
				"element": "H" 
			},
			{
				"x": 0.3296806883,
				"y": 1.0741104028,
				"z": 1.5517730486,
				"element": "H" 
			},
			{
				"x": 0.4592354644,
				"y": 2.5983420855,
				"z": -0.4103146606,
				"element": "H" 
			},
			{
				"x": 0.249530447,
				"y": 2.7196816117,
				"z": -2.8757337647,
				"element": "H" 
			},
			{
				"x": 0.6480293623,
				"y": 0.6784041316,
				"z": -4.2540795799,
				"element": "H" 
			},
			{
				"x": 1.1586626901,
				"y": -1.4736158662,
				"z": -3.1296772871,
				"element": "H" 
			}
		],
		 "valence_orbital": [ 
			{
				"type": "occ",
				"energy": -0.31147,
				"method": "rhf"
			},
			{
				"type": "occ",
				"energy": -0.28483,
				"method": "rhf"
			},
			{
				"type": "occ",
				"energy": -0.27601,
				"method": "rhf"
			},
			{
				"type": "occ",
				"energy": -0.2705,
				"method": "rhf"
			},
			{
				"type": "occ",
				"energy": -0.25232,
				"method": "rhf"
			},
			{
				"type": "unocc",
				"energy": -0.05621,
				"method": "rhf"
			},
			{
				"type": "unocc",
				"energy": -0.03209,
				"method": "rhf"
			},
			{
				"type": "unocc",
				"energy": 0.00384,
				"method": "rhf"
			},
			{
				"type": "unocc",
				"energy": 0.04158,
				"method": "rhf"
			},
			{
				"type": "unocc",
				"energy": 0.07259,
				"method": "rhf"
			}
		],
		"cosmo_sigma_profile": { 
			"-0.025": 0.0,
			"-0.024": 0.0,
			"-0.023": 0.0,
			"-0.022": 0.0,
			"-0.021": 0.0,
			"-0.02": 0.0,
			"-0.019": 0.0898616073475,
			"-0.018": 0.842397708157,
			"-0.017": 1.15734100181,
			"-0.016": 0.851568124552,
			"-0.015": 1.7377780078,
			"-0.014": 1.74628012664,
			"-0.013": 1.58770753929,
			"-0.012": 1.89801558977,
			"-0.011": 2.79625390891,
			"-0.01": 1.79810317362,
			"-0.009": 2.25846120408,
			"-0.008": 4.03749069469,
			"-0.007": 8.30148284354,
			"-0.006": 10.739118192,
			"-0.005": 11.1608964686,
			"-0.004": 8.13264428882,
			"-0.003": 10.7084083691,
			"-0.002": 11.2742072599,
			"-0.001": 10.7078765787,
			"0.0": 13.0063979135,
			"0.001": 23.8817836637,
			"0.002": 39.0513433688,
			"0.003": 17.6455926899,
			"0.004": 6.85703676183,
			"0.005": 5.70449069563,
			"0.006": 5.3061781668,
			"0.007": 5.64635230958,
			"0.008": 4.63168486499,
			"0.009": 4.14768898003,
			"0.01": 5.32842682115,
			"0.011": 7.2885267861,
			"0.012": 2.4161088217,
			"0.013": 0.0,
			"0.014": 0.0,
			"0.015": 0.0,
			"0.016": 0.0,
			"0.017": 0.0,
			"0.018": 0.0,
			"0.019": 0.0,
			"0.02": 0.0,
			"0.021": 0.0,
			"0.022": 0.0,
			"0.023": 0.0,
			"0.024": 0.0,
			"0.025": 0.0
		}
	}
}
