{
	 "smiles": "O=CC1=CC2=C(OC3=C2C=CC=C3)C=C1", 
	 "Tm": 347.15, 
	 "num_atms": 23, 
	 "gaussian": { 
		 "optdone": 1, 
		 "sigma_profile": "yes", 
		 "theory": "DFT", 
		 "functional": "B3LYP", 
		 "basiset": "6-31G**", 
		 "properties": { 
			 "R2extent": 4308.6849, 
			 "electric_dipole_moment_norm": 3.85038903099, 
			 "electric_quadrupole_moment_norm": 12.3772742128, 
			 "total_energy": -650.654143352, 
			 "HOMO_LUMO_gap": 0.177, 
			 "cosmo_polarized_energy": -9.14, 
			 "cosmo_cavitation_energy": 27.99, 
			 "cosmo_dispersion_energy": -20.73, 
			 "cosmo_repulsion_energy": 1.57, 
			 "cosmo_total_nonelectrostatic_energy": 8.83, 
			 "SMD_solvation_energy": 5.77 
		},
		"coords": [
			{
				"x": -2.1326070503,
				"y": 2.6083204566,
				"z": 3.9145969826,
				"element": "O" 
			},
			{
				"x": -2.2047533753,
				"y": 1.9764774143,
				"z": 2.8770331802,
				"element": "C" 
			},
			{
				"x": -1.3085683377,
				"y": 0.8631450145,
				"z": 2.5020826438,
				"element": "C" 
			},
			{
				"x": -1.495911709,
				"y": 0.2111060873,
				"z": 1.2770598104,
				"element": "C" 
			},
			{
				"x": -0.6420427283,
				"y": -0.8384286824,
				"z": 0.9360274751,
				"element": "C" 
			},
			{
				"x": 0.3785893114,
				"y": -1.2032964683,
				"z": 1.8391920137,
				"element": "C" 
			},
			{
				"x": 1.1271471999,
				"y": -2.2452050982,
				"z": 1.3607310522,
				"element": "O" 
			},
			{
				"x": 0.592746062,
				"y": -2.5685644024,
				"z": 0.1299041374,
				"element": "C" 
			},
			{
				"x": -0.4990115506,
				"y": -1.7415418191,
				"z": -0.192737001,
				"element": "C" 
			},
			{
				"x": -1.1603513005,
				"y": -1.9346687504,
				"z": -1.4108497786,
				"element": "C" 
			},
			{
				"x": -0.7091720381,
				"y": -2.9435762086,
				"z": -2.260444255,
				"element": "C" 
			},
			{
				"x": 0.3843646493,
				"y": -3.7530684477,
				"z": -1.9094539992,
				"element": "C" 
			},
			{
				"x": 1.0589922751,
				"y": -3.5781616221,
				"z": -0.6994270902,
				"element": "C" 
			},
			{
				"x": 0.585971891,
				"y": -0.5714936552,
				"z": 3.0627877584,
				"element": "C" 
			},
			{
				"x": -0.2754191619,
				"y": 0.4705245858,
				"z": 3.3820736856,
				"element": "C" 
			},
			{
				"x": -2.9880508351,
				"y": 2.2103708982,
				"z": 2.120540653,
				"element": "H" 
			},
			{
				"x": -2.2959890628,
				"y": 0.5255866587,
				"z": 0.6110445662,
				"element": "H" 
			},
			{
				"x": -2.0062582526,
				"y": -1.3134216061,
				"z": -1.6895962054,
				"element": "H" 
			},
			{
				"x": -1.2094799799,
				"y": -3.1085317107,
				"z": -3.2096992171,
				"element": "H" 
			},
			{
				"x": 0.7129243786,
				"y": -4.531001818,
				"z": -2.5918003468,
				"element": "H" 
			},
			{
				"x": 1.9042813276,
				"y": -4.1947148285,
				"z": -0.4145840551,
				"element": "H" 
			},
			{
				"x": 1.3842064658,
				"y": -0.8862116728,
				"z": 3.7258546397,
				"element": "H" 
			},
			{
				"x": -0.1764081786,
				"y": 1.0108556751,
				"z": 4.3178633501,
				"element": "H" 
			}
		],
		 "valence_orbital": [ 
			{
				"type": "occ",
				"energy": -0.29898,
				"method": "rhf"
			},
			{
				"type": "occ",
				"energy": -0.2725,
				"method": "rhf"
			},
			{
				"type": "occ",
				"energy": -0.25365,
				"method": "rhf"
			},
			{
				"type": "occ",
				"energy": -0.24051,
				"method": "rhf"
			},
			{
				"type": "occ",
				"energy": -0.23478,
				"method": "rhf"
			},
			{
				"type": "unocc",
				"energy": -0.05778,
				"method": "rhf"
			},
			{
				"type": "unocc",
				"energy": -0.0473,
				"method": "rhf"
			},
			{
				"type": "unocc",
				"energy": -0.00447,
				"method": "rhf"
			},
			{
				"type": "unocc",
				"energy": 0.0166,
				"method": "rhf"
			},
			{
				"type": "unocc",
				"energy": 0.0534,
				"method": "rhf"
			}
		],
		"cosmo_sigma_profile": { 
			"-0.025": 0.0,
			"-0.024": 0.0,
			"-0.023": 0.0,
			"-0.022": 0.0,
			"-0.021": 0.0,
			"-0.02": 0.0,
			"-0.019": 0.0,
			"-0.018": 0.0,
			"-0.017": 0.0,
			"-0.016": 0.0,
			"-0.015": 0.0,
			"-0.014": 0.0,
			"-0.013": 0.0,
			"-0.012": 0.0,
			"-0.011": 0.0,
			"-0.01": 0.0,
			"-0.009": 0.0,
			"-0.008": 3.44479040311,
			"-0.007": 10.6165289021,
			"-0.006": 15.942243154,
			"-0.005": 16.1683383483,
			"-0.004": 15.0178272506,
			"-0.003": 12.3174021436,
			"-0.002": 13.7659682504,
			"-0.001": 13.1815876183,
			"0.0": 18.2765456939,
			"0.001": 23.2863554078,
			"0.002": 25.1468050226,
			"0.003": 18.0339708362,
			"0.004": 12.3168920628,
			"0.005": 7.48180782873,
			"0.006": 2.8617957054,
			"0.007": 2.6433382912,
			"0.008": 2.79339787408,
			"0.009": 2.11854636954,
			"0.01": 2.50868748799,
			"0.011": 3.89985193174,
			"0.012": 3.46210905059,
			"0.013": 1.04625593612,
			"0.014": 0.0,
			"0.015": 0.0,
			"0.016": 0.0,
			"0.017": 0.0,
			"0.018": 0.0,
			"0.019": 0.0,
			"0.02": 0.0,
			"0.021": 0.0,
			"0.022": 0.0,
			"0.023": 0.0,
			"0.024": 0.0,
			"0.025": 0.0
		}
	}
}
