{
	 "smiles": "OC(=O)C(N1CCC2=C1C=CC=C2)C1=CC=CC=C1", 
	 "Tm": 455.15, 
	 "num_atms": 34, 
	 "gaussian": { 
		 "optdone": 1, 
		 "sigma_profile": "yes", 
		 "theory": "DFT", 
		 "functional": "B3LYP", 
		 "basiset": "6-31G**", 
		 "properties": { 
			 "R2extent": 4696.3094, 
			 "electric_dipole_moment_norm": 2.746457613, 
			 "electric_quadrupole_moment_norm": 7.36616893371, 
			 "total_energy": -823.945176598, 
			 "HOMO_LUMO_gap": 0.17341, 
			 "cosmo_polarized_energy": -14.78, 
			 "cosmo_cavitation_energy": 36.16, 
			 "cosmo_dispersion_energy": -25.48, 
			 "cosmo_repulsion_energy": 1.98, 
			 "cosmo_total_nonelectrostatic_energy": 12.66, 
			 "SMD_solvation_energy": 5.5 
		},
		"coords": [
			{
				"x": 1.6368574695,
				"y": -1.6937140161,
				"z": -2.7526682366,
				"element": "O" 
			},
			{
				"x": 0.5968549365,
				"y": -0.9104455403,
				"z": -2.3787904978,
				"element": "C" 
			},
			{
				"x": -0.0351482116,
				"y": -0.2460325051,
				"z": -3.1661597251,
				"element": "O" 
			},
			{
				"x": 0.3514966221,
				"y": -1.0481300322,
				"z": -0.8735223568,
				"element": "C" 
			},
			{
				"x": -0.8938473594,
				"y": -0.415355789,
				"z": -0.4442071281,
				"element": "N" 
			},
			{
				"x": -1.4991730561,
				"y": -1.0243626774,
				"z": 0.7609167985,
				"element": "C" 
			},
			{
				"x": -2.6064196872,
				"y": -0.040878611,
				"z": 1.1802527755,
				"element": "C" 
			},
			{
				"x": -2.1132603668,
				"y": 1.2583066945,
				"z": 0.5854777719,
				"element": "C" 
			},
			{
				"x": -1.1281314743,
				"y": 0.9760932815,
				"z": -0.3806151812,
				"element": "C" 
			},
			{
				"x": -0.5884460718,
				"y": 2.0144103754,
				"z": -1.1463662327,
				"element": "C" 
			},
			{
				"x": -1.0194125907,
				"y": 3.323031306,
				"z": -0.9008974681,
				"element": "C" 
			},
			{
				"x": -1.9773592081,
				"y": 3.6067012127,
				"z": 0.0729183045,
				"element": "C" 
			},
			{
				"x": -2.5394712891,
				"y": 2.5584842245,
				"z": 0.8129243035,
				"element": "C" 
			},
			{
				"x": 1.5918994374,
				"y": -0.7212438592,
				"z": -0.0350795074,
				"element": "C" 
			},
			{
				"x": 1.9876299361,
				"y": -1.6109804343,
				"z": 0.9727390639,
				"element": "C" 
			},
			{
				"x": 3.0792151848,
				"y": -1.3265341631,
				"z": 1.7948765535,
				"element": "C" 
			},
			{
				"x": 3.7965965929,
				"y": -0.1438212876,
				"z": 1.615976925,
				"element": "C" 
			},
			{
				"x": 3.4175552058,
				"y": 0.7464799046,
				"z": 0.6092818151,
				"element": "C" 
			},
			{
				"x": 2.3254255409,
				"y": 0.4611873747,
				"z": -0.2098166747,
				"element": "C" 
			},
			{
				"x": 1.7297832185,
				"y": -1.5767919986,
				"z": -3.7129977923,
				"element": "H" 
			},
			{
				"x": 0.1791370149,
				"y": -2.1249710381,
				"z": -0.7488023134,
				"element": "H" 
			},
			{
				"x": -0.7517875617,
				"y": -1.1156655333,
				"z": 1.5647210709,
				"element": "H" 
			},
			{
				"x": -1.8737237855,
				"y": -2.0271889918,
				"z": 0.5289064979,
				"element": "H" 
			},
			{
				"x": -2.7425385587,
				"y": -0.0101856569,
				"z": 2.2653603273,
				"element": "H" 
			},
			{
				"x": -3.5694608201,
				"y": -0.3244929394,
				"z": 0.7349304842,
				"element": "H" 
			},
			{
				"x": 0.115431785,
				"y": 1.8171690394,
				"z": -1.9431095538,
				"element": "H" 
			},
			{
				"x": -0.5964754931,
				"y": 4.1314738032,
				"z": -1.4912202266,
				"element": "H" 
			},
			{
				"x": -2.2934944046,
				"y": 4.6304375274,
				"z": 0.2483518561,
				"element": "H" 
			},
			{
				"x": -3.3014297446,
				"y": 2.760250662,
				"z": 1.5619546811,
				"element": "H" 
			},
			{
				"x": 1.4429876828,
				"y": -2.5422049343,
				"z": 1.1086065943,
				"element": "H" 
			},
			{
				"x": 3.3702236357,
				"y": -2.0312834671,
				"z": 2.5686070138,
				"element": "H" 
			},
			{
				"x": 4.6480972923,
				"y": 0.0809098663,
				"z": 2.2516948836,
				"element": "H" 
			},
			{
				"x": 3.9748307182,
				"y": 1.6665571696,
				"z": 0.4583283083,
				"element": "H" 
			},
			{
				"x": 2.0484574099,
				"y": 1.1639910333,
				"z": -0.9874731342,
				"element": "H" 
			}
		],
		 "valence_orbital": [ 
			{
				"type": "occ",
				"energy": -0.27921,
				"method": "rhf"
			},
			{
				"type": "occ",
				"energy": -0.25443,
				"method": "rhf"
			},
			{
				"type": "occ",
				"energy": -0.2504,
				"method": "rhf"
			},
			{
				"type": "occ",
				"energy": -0.23117,
				"method": "rhf"
			},
			{
				"type": "occ",
				"energy": -0.18498,
				"method": "rhf"
			},
			{
				"type": "unocc",
				"energy": -0.01157,
				"method": "rhf"
			},
			{
				"type": "unocc",
				"energy": -0.00847,
				"method": "rhf"
			},
			{
				"type": "unocc",
				"energy": 0.00059,
				"method": "rhf"
			},
			{
				"type": "unocc",
				"energy": 0.01353,
				"method": "rhf"
			},
			{
				"type": "unocc",
				"energy": 0.02673,
				"method": "rhf"
			}
		],
		"cosmo_sigma_profile": { 
			"-0.025": 0.0,
			"-0.024": 0.0,
			"-0.023": 0.0,
			"-0.022": 0.0,
			"-0.021": 0.0,
			"-0.02": 0.0,
			"-0.019": 0.241538870681,
			"-0.018": 0.662408479284,
			"-0.017": 1.01092306962,
			"-0.016": 0.827411172166,
			"-0.015": 1.27716902934,
			"-0.014": 0.53072312614,
			"-0.013": 0.468308375034,
			"-0.012": 0.62005571389,
			"-0.011": 0.875114175492,
			"-0.01": 0.373715508775,
			"-0.009": 0.580492171686,
			"-0.008": 4.21938323291,
			"-0.007": 5.65055352432,
			"-0.006": 10.8230273074,
			"-0.005": 19.1010651876,
			"-0.004": 26.8253975587,
			"-0.003": 28.96826831,
			"-0.002": 26.3462417567,
			"-0.001": 20.6540772245,
			"0.0": 15.8905338108,
			"0.001": 12.2547998977,
			"0.002": 14.1665780801,
			"0.003": 14.1696502131,
			"0.004": 16.1274241866,
			"0.005": 18.1734712647,
			"0.006": 14.612817348,
			"0.007": 11.5031377543,
			"0.008": 5.62175103501,
			"0.009": 3.55021751963,
			"0.01": 3.11879826079,
			"0.011": 4.80649913665,
			"0.012": 3.01071754966,
			"0.013": 0.365671135965,
			"0.014": 0.0,
			"0.015": 0.0,
			"0.016": 0.0,
			"0.017": 0.0,
			"0.018": 0.0,
			"0.019": 0.0,
			"0.02": 0.0,
			"0.021": 0.0,
			"0.022": 0.0,
			"0.023": 0.0,
			"0.024": 0.0,
			"0.025": 0.0
		}
	}
}
