{
	 "smiles": "CC1=CC(N)=NN1C1=C(Cl)C=C(Cl)C=C1", 
	 "Tm": 375.15, 
	 "num_atms": 24, 
	 "gaussian": { 
		 "optdone": 1, 
		 "sigma_profile": "yes", 
		 "theory": "DFT", 
		 "functional": "B3LYP", 
		 "basiset": "6-31G**", 
		 "properties": { 
			 "R2extent": 4667.4259, 
			 "electric_dipole_moment_norm": 2.27689688831, 
			 "electric_quadrupole_moment_norm": 8.3582924895, 
			 "total_energy": -1471.10733172, 
			 "HOMO_LUMO_gap": 0.16648, 
			 "cosmo_polarized_energy": -13.09, 
			 "cosmo_cavitation_energy": 32.29, 
			 "cosmo_dispersion_energy": -22.86, 
			 "cosmo_repulsion_energy": 1.82, 
			 "cosmo_total_nonelectrostatic_energy": 11.26, 
			 "SMD_solvation_energy": 4.35 
		},
		"coords": [
			{
				"x": 2.2230085139,
				"y": -1.3314655045,
				"z": 1.290131202,
				"element": "C" 
			},
			{
				"x": 1.0166600347,
				"y": -1.7200348531,
				"z": 0.4950682751,
				"element": "C" 
			},
			{
				"x": 0.5969329333,
				"y": -2.9561487424,
				"z": 0.0481478668,
				"element": "C" 
			},
			{
				"x": -0.6001829235,
				"y": -2.7044352142,
				"z": -0.6767522837,
				"element": "C" 
			},
			{
				"x": -1.4442363349,
				"y": -3.6473793665,
				"z": -1.2643791521,
				"element": "N" 
			},
			{
				"x": -0.9088185675,
				"y": -1.4133217457,
				"z": -0.6936793355,
				"element": "N" 
			},
			{
				"x": 0.0898978367,
				"y": -0.8168122409,
				"z": 0.0410934244,
				"element": "N" 
			},
			{
				"x": 0.0644858323,
				"y": 0.5843084224,
				"z": 0.2454356771,
				"element": "C" 
			},
			{
				"x": 0.3182400839,
				"y": 1.4887852364,
				"z": -0.7994662611,
				"element": "C" 
			},
			{
				"x": 0.7283578978,
				"y": 0.9160646576,
				"z": -2.3963976133,
				"element": "Cl" 
			},
			{
				"x": 0.2733537541,
				"y": 2.8658239717,
				"z": -0.580075361,
				"element": "C" 
			},
			{
				"x": -0.0127215154,
				"y": 3.339037765,
				"z": 0.6991461101,
				"element": "C" 
			},
			{
				"x": -0.0598413172,
				"y": 5.0704493064,
				"z": 0.9749925279,
				"element": "Cl" 
			},
			{
				"x": -0.2593883117,
				"y": 2.4658997216,
				"z": 1.7574222573,
				"element": "C" 
			},
			{
				"x": -0.2263304173,
				"y": 1.0951633711,
				"z": 1.5148890612,
				"element": "C" 
			},
			{
				"x": 1.9607512722,
				"y": -0.9371599983,
				"z": 2.2782353197,
				"element": "H" 
			},
			{
				"x": 2.8608496796,
				"y": -2.2054150639,
				"z": 1.4380496108,
				"element": "H" 
			},
			{
				"x": 2.8138303117,
				"y": -0.5633525914,
				"z": 0.7791259022,
				"element": "H" 
			},
			{
				"x": 1.0800743265,
				"y": -3.9059941514,
				"z": 0.2251316243,
				"element": "H" 
			},
			{
				"x": -0.9479432893,
				"y": -4.3968466928,
				"z": -1.7296458864,
				"element": "H" 
			},
			{
				"x": -2.1106613207,
				"y": -3.2114544244,
				"z": -1.8909202692,
				"element": "H" 
			},
			{
				"x": 0.4694879723,
				"y": 3.5530825801,
				"z": -1.393607951,
				"element": "H" 
			},
			{
				"x": -0.4873704537,
				"y": 2.8511509026,
				"z": 2.7443466857,
				"element": "H" 
			},
			{
				"x": -0.4457359979,
				"y": 0.3946546548,
				"z": 2.3138085685,
				"element": "H" 
			}
		],
		 "valence_orbital": [ 
			{
				"type": "occ",
				"energy": -0.27938,
				"method": "rhf"
			},
			{
				"type": "occ",
				"energy": -0.26935,
				"method": "rhf"
			},
			{
				"type": "occ",
				"energy": -0.25761,
				"method": "rhf"
			},
			{
				"type": "occ",
				"energy": -0.23252,
				"method": "rhf"
			},
			{
				"type": "occ",
				"energy": -0.2014,
				"method": "rhf"
			},
			{
				"type": "unocc",
				"energy": -0.03492,
				"method": "rhf"
			},
			{
				"type": "unocc",
				"energy": -0.03146,
				"method": "rhf"
			},
			{
				"type": "unocc",
				"energy": 0.00376,
				"method": "rhf"
			},
			{
				"type": "unocc",
				"energy": 0.02667,
				"method": "rhf"
			},
			{
				"type": "unocc",
				"energy": 0.04726,
				"method": "rhf"
			}
		],
		"cosmo_sigma_profile": { 
			"-0.025": 0.0,
			"-0.024": 0.0,
			"-0.023": 0.0,
			"-0.022": 0.0,
			"-0.021": 0.0,
			"-0.02": 0.0,
			"-0.019": 0.0,
			"-0.018": 0.0,
			"-0.017": 0.0,
			"-0.016": 0.0,
			"-0.015": 0.0,
			"-0.014": 0.0,
			"-0.013": 0.205936207339,
			"-0.012": 1.77294451605,
			"-0.011": 2.55256376337,
			"-0.01": 2.74201788156,
			"-0.009": 3.03599191017,
			"-0.008": 6.61615520228,
			"-0.007": 7.77301547315,
			"-0.006": 10.7409639844,
			"-0.005": 14.3737128229,
			"-0.004": 14.475298442,
			"-0.003": 16.8175453352,
			"-0.002": 17.2512293213,
			"-0.001": 21.882283059,
			"0.0": 24.0387605335,
			"0.001": 25.3097809113,
			"0.002": 16.7149974464,
			"0.003": 18.4644988913,
			"0.004": 19.4804577087,
			"0.005": 8.47142152407,
			"0.006": 7.12001141404,
			"0.007": 3.97665728371,
			"0.008": 3.4321473458,
			"0.009": 2.58085670558,
			"0.01": 2.41910972992,
			"0.011": 2.27146410389,
			"0.012": 2.1578638614,
			"0.013": 1.80268045475,
			"0.014": 1.76265956227,
			"0.015": 1.2433621098,
			"0.016": 0.842146848047,
			"0.017": 0.118968867836,
			"0.018": 0.0,
			"0.019": 0.0,
			"0.02": 0.0,
			"0.021": 0.0,
			"0.022": 0.0,
			"0.023": 0.0,
			"0.024": 0.0,
			"0.025": 0.0
		}
	}
}
