{
	 "smiles": "BrCC1=CC=C(C=C1)N1C=NC=N1", 
	 "Tm": 553.15, 
	 "num_atms": 21, 
	 "gaussian": { 
		 "optdone": 1, 
		 "sigma_profile": "yes", 
		 "theory": "DFT", 
		 "functional": "B3LYP", 
		 "basiset": "6-31G**", 
		 "properties": { 
			 "R2extent": 5330.1105, 
			 "electric_dipole_moment_norm": 2.16988129629, 
			 "electric_quadrupole_moment_norm": 13.5400314675, 
			 "total_energy": -3083.42466811, 
			 "HOMO_LUMO_gap": 0.1873, 
			 "cosmo_polarized_energy": -12.57, 
			 "cosmo_cavitation_energy": 28.1, 
			 "cosmo_dispersion_energy": -20.86, 
			 "cosmo_repulsion_energy": 1.63, 
			 "cosmo_total_nonelectrostatic_energy": 8.87, 
			 "SMD_solvation_energy": 1.72 
		},
		"coords": [
			{
				"x": 3.1436276105,
				"y": 2.8378882246,
				"z": 1.531331403,
				"element": "Br" 
			},
			{
				"x": 1.1726753655,
				"y": 2.7302071933,
				"z": 1.9013506816,
				"element": "C" 
			},
			{
				"x": 0.4727751502,
				"y": 1.8002373587,
				"z": 0.9669093893,
				"element": "C" 
			},
			{
				"x": 0.3442165569,
				"y": 0.4391499682,
				"z": 1.2740954204,
				"element": "C" 
			},
			{
				"x": -0.3239615975,
				"y": -0.4299723509,
				"z": 0.4172930885,
				"element": "C" 
			},
			{
				"x": -0.8598093169,
				"y": 0.057683448,
				"z": -0.7798455839,
				"element": "C" 
			},
			{
				"x": -0.7451128885,
				"y": 1.4134312442,
				"z": -1.1036707646,
				"element": "C" 
			},
			{
				"x": -0.0845266113,
				"y": 2.2707719025,
				"z": -0.2304526233,
				"element": "C" 
			},
			{
				"x": -1.5261194369,
				"y": -0.8184392088,
				"z": -1.6747776456,
				"element": "N" 
			},
			{
				"x": -1.4248553955,
				"y": -2.1702196765,
				"z": -1.805756505,
				"element": "C" 
			},
			{
				"x": -2.2032819849,
				"y": -2.602010921,
				"z": -2.7784575953,
				"element": "N" 
			},
			{
				"x": -2.7752948074,
				"y": -1.4490269299,
				"z": -3.2324432727,
				"element": "C" 
			},
			{
				"x": -2.4017284782,
				"y": -0.3451513426,
				"z": -2.6077928324,
				"element": "N" 
			},
			{
				"x": 1.1147779532,
				"y": 2.4083301602,
				"z": 2.9394605726,
				"element": "H" 
			},
			{
				"x": 0.8273968136,
				"y": 3.7581977651,
				"z": 1.8096618221,
				"element": "H" 
			},
			{
				"x": 0.7627670917,
				"y": 0.0551657006,
				"z": 2.2001438752,
				"element": "H" 
			},
			{
				"x": -0.4446550167,
				"y": -1.4719954194,
				"z": 0.6928775042,
				"element": "H" 
			},
			{
				"x": -1.1782755838,
				"y": 1.7732697533,
				"z": -2.0286659339,
				"element": "H" 
			},
			{
				"x": 0.0066695026,
				"y": 3.3225234787,
				"z": -0.4872536057,
				"element": "H" 
			},
			{
				"x": -0.7690885461,
				"y": -2.7766532673,
				"z": -1.1986174681,
				"element": "H" 
			},
			{
				"x": -3.4881963808,
				"y": -1.4233870809,
				"z": -4.0449899265,
				"element": "H" 
			}
		],
		 "valence_orbital": [ 
			{
				"type": "occ",
				"energy": -0.28446,
				"method": "rhf"
			},
			{
				"type": "occ",
				"energy": -0.27864,
				"method": "rhf"
			},
			{
				"type": "occ",
				"energy": -0.27665,
				"method": "rhf"
			},
			{
				"type": "occ",
				"energy": -0.27174,
				"method": "rhf"
			},
			{
				"type": "occ",
				"energy": -0.2447,
				"method": "rhf"
			},
			{
				"type": "unocc",
				"energy": -0.0574,
				"method": "rhf"
			},
			{
				"type": "unocc",
				"energy": -0.02631,
				"method": "rhf"
			},
			{
				"type": "unocc",
				"energy": -0.00675,
				"method": "rhf"
			},
			{
				"type": "unocc",
				"energy": 0.03443,
				"method": "rhf"
			},
			{
				"type": "unocc",
				"energy": 0.04606,
				"method": "rhf"
			}
		],
		"cosmo_sigma_profile": { 
			"-0.025": 0.0,
			"-0.024": 0.0,
			"-0.023": 0.0,
			"-0.022": 0.0,
			"-0.021": 0.0,
			"-0.02": 0.0,
			"-0.019": 0.0,
			"-0.018": 0.0,
			"-0.017": 0.0,
			"-0.016": 0.0,
			"-0.015": 0.0,
			"-0.014": 0.0,
			"-0.013": 0.0,
			"-0.012": 0.0486229609838,
			"-0.011": 2.25917672907,
			"-0.01": 2.48390732347,
			"-0.009": 3.99052596136,
			"-0.008": 8.53313978503,
			"-0.007": 13.8321922754,
			"-0.006": 13.710061612,
			"-0.005": 12.4660460286,
			"-0.004": 11.5588421307,
			"-0.003": 11.3516557955,
			"-0.002": 12.1875165315,
			"-0.001": 12.245411441,
			"0.0": 14.0919290241,
			"0.001": 15.0974779434,
			"0.002": 18.2699489629,
			"0.003": 18.9891518682,
			"0.004": 11.9056894704,
			"0.005": 9.68293210527,
			"0.006": 14.8735434306,
			"0.007": 6.06255225719,
			"0.008": 2.8271180922,
			"0.009": 2.78289066781,
			"0.01": 1.82331544503,
			"0.011": 2.37805674206,
			"0.012": 1.74401765759,
			"0.013": 1.20111533211,
			"0.014": 1.27045814452,
			"0.015": 1.08494417565,
			"0.016": 0.679788888983,
			"0.017": 0.0170771472122,
			"0.018": 0.0,
			"0.019": 0.0,
			"0.02": 0.0,
			"0.021": 0.0,
			"0.022": 0.0,
			"0.023": 0.0,
			"0.024": 0.0,
			"0.025": 0.0
		}
	}
}
