{
	 "smiles": "IC1=CC2=C(C=CC=C2)C2=C1C=CC=C2", 
	 "Tm": 365.15, 
	 "num_atms": 24, 
	 "gaussian": { 
		 "optdone": 1, 
		 "sigma_profile": "no", 
		 "theory": "DFT", 
		 "functional": "B3LYP", 
		 "basiset": "6-31G**", 
		 "properties": { 
			 "R2extent": 3282.7912, 
			 "electric_dipole_moment_norm": 2.02437560497, 
			 "electric_quadrupole_moment_norm": 12.2306835148, 
			 "total_energy": -550.322746157, 
			 "HOMO_LUMO_gap": 0.16719, 
			 "cosmo_polarized_energy": -87943.17, 
			 "cosmo_cavitation_energy": 30.04, 
			 "cosmo_dispersion_energy": -23.94, 
			 "cosmo_repulsion_energy": 1.78, 
			 "cosmo_total_nonelectrostatic_energy": 7.87, 
			 "SMD_solvation_energy": 3.68 
		},
		"coords": [
			{
				"x": 1.8207523161,
				"y": 3.5885427229,
				"z": 1.5147585273,
				"element": "I" 
			},
			{
				"x": 1.0138091635,
				"y": 1.6759232487,
				"z": 1.023784046,
				"element": "C" 
			},
			{
				"x": -0.3084673944,
				"y": 1.4831051743,
				"z": 1.2773284551,
				"element": "C" 
			},
			{
				"x": -0.9438300841,
				"y": 0.2326244622,
				"z": 0.9822518418,
				"element": "C" 
			},
			{
				"x": -0.1854076005,
				"y": -0.8296426182,
				"z": 0.4143705361,
				"element": "C" 
			},
			{
				"x": -0.8564173124,
				"y": -2.0449681908,
				"z": 0.1405916625,
				"element": "C" 
			},
			{
				"x": -2.20351753,
				"y": -2.2015732475,
				"z": 0.4132587614,
				"element": "C" 
			},
			{
				"x": -2.9461619954,
				"y": -1.1458545868,
				"z": 0.9748907534,
				"element": "C" 
			},
			{
				"x": -2.3206936035,
				"y": 0.0526303285,
				"z": 1.2537549992,
				"element": "C" 
			},
			{
				"x": 1.2308286213,
				"y": -0.6180130065,
				"z": 0.1446519887,
				"element": "C" 
			},
			{
				"x": 1.8428378446,
				"y": 0.6428602296,
				"z": 0.4493772066,
				"element": "C" 
			},
			{
				"x": 3.2192192314,
				"y": 0.819516139,
				"z": 0.1770209984,
				"element": "C" 
			},
			{
				"x": 3.9808780262,
				"y": -0.1921197385,
				"z": -0.3734364824,
				"element": "C" 
			},
			{
				"x": 3.3868232425,
				"y": -1.4291623751,
				"z": -0.6741623894,
				"element": "C" 
			},
			{
				"x": 2.0439120815,
				"y": -1.6295960317,
				"z": -0.4184228608,
				"element": "C" 
			},
			{
				"x": -0.9124588679,
				"y": 2.2736707734,
				"z": 1.7094407668,
				"element": "H" 
			},
			{
				"x": -0.3158494844,
				"y": -2.8789755848,
				"z": -0.2917521444,
				"element": "H" 
			},
			{
				"x": -2.6898310407,
				"y": -3.1470093758,
				"z": 0.1915715198,
				"element": "H" 
			},
			{
				"x": -4.0033398386,
				"y": -1.2748725323,
				"z": 1.186668784,
				"element": "H" 
			},
			{
				"x": -2.8789708658,
				"y": 0.8781373192,
				"z": 1.6874396263,
				"element": "H" 
			},
			{
				"x": 3.6785273065,
				"y": 1.7734544624,
				"z": 0.408648906,
				"element": "H" 
			},
			{
				"x": 5.0357623708,
				"y": -0.028591221,
				"z": -0.5720526164,
				"element": "H" 
			},
			{
				"x": 3.9800107894,
				"y": -2.2290664417,
				"z": -1.1072881629,
				"element": "H" 
			},
			{
				"x": 1.6085846237,
				"y": -2.5924199093,
				"z": -0.6590947234,
				"element": "H" 
			}
		],
		 "valence_orbital": [ 
			{
				"type": "occ",
				"energy": -0.27621,
				"method": "rhf"
			},
			{
				"type": "occ",
				"energy": -0.26546,
				"method": "rhf"
			},
			{
				"type": "occ",
				"energy": -0.25959,
				"method": "rhf"
			},
			{
				"type": "occ",
				"energy": -0.2307,
				"method": "rhf"
			},
			{
				"type": "occ",
				"energy": -0.21738,
				"method": "rhf"
			},
			{
				"type": "unocc",
				"energy": -0.05019,
				"method": "rhf"
			},
			{
				"type": "unocc",
				"energy": -0.04007,
				"method": "rhf"
			},
			{
				"type": "unocc",
				"energy": -0.03719,
				"method": "rhf"
			},
			{
				"type": "unocc",
				"energy": -0.00132,
				"method": "rhf"
			},
			{
				"type": "unocc",
				"energy": 0.02884,
				"method": "rhf"
			}
		],
		"cosmo_sigma_profile": { 
			"0.0": 0.0,
			"0.0": 0.0,
			"0.0": 0.0,
			"0.0": 0.0,
			"0.0": 0.0,
			"0.0": 0.0,
			"0.0": 0.0,
			"0.0": 0.0,
			"0.0": 0.0,
			"0.0": 0.0,
			"0.0": 0.0,
			"0.0": 0.0,
			"0.0": 0.0,
			"0.0": 0.0,
			"0.0": 0.0,
			"0.0": 0.0,
			"0.0": 0.0,
			"0.0": 0.0,
			"0.0": 0.0,
			"0.0": 0.0,
			"0.0": 0.0,
			"0.0": 0.0,
			"0.0": 0.0,
			"0.0": 0.0,
			"0.0": 0.0,
			"0.0": 0.0,
			"0.0": 0.0,
			"0.0": 0.0,
			"0.0": 0.0,
			"0.0": 0.0,
			"0.0": 0.0,
			"0.0": 0.0,
			"0.0": 0.0,
			"0.0": 0.0,
			"0.0": 0.0,
			"0.0": 0.0,
			"0.0": 0.0,
			"0.0": 0.0,
			"0.0": 0.0,
			"0.0": 0.0,
			"0.0": 0.0,
			"0.0": 0.0,
			"0.0": 0.0,
			"0.0": 0.0,
			"0.0": 0.0,
			"0.0": 0.0,
			"0.0": 0.0,
			"0.0": 0.0,
			"0.0": 0.0,
			"0.0": 0.0,
			"0.0": 0.0
		}
	}
}
