{
	 "smiles": "CC(=C)CC(C)(C)C", 
	 "Tm": 179.65, 
	 "num_atms": 24, 
	 "gaussian": { 
		 "optdone": 1, 
		 "sigma_profile": "yes", 
		 "theory": "DFT", 
		 "functional": "B3LYP", 
		 "basiset": "6-31G**", 
		 "properties": { 
			 "R2extent": 1333.8616, 
			 "electric_dipole_moment_norm": 0.433882806758, 
			 "electric_quadrupole_moment_norm": 0.98702317602, 
			 "total_energy": -314.494591193, 
			 "HOMO_LUMO_gap": 0.26123, 
			 "cosmo_polarized_energy": -1.58, 
			 "cosmo_cavitation_energy": 24.51, 
			 "cosmo_dispersion_energy": -17.01, 
			 "cosmo_repulsion_energy": 1.38, 
			 "cosmo_total_nonelectrostatic_energy": 8.88, 
			 "SMD_solvation_energy": 4.89 
		},
		"coords": [
			{
				"x": -1.1947857978,
				"y": 1.2522549283,
				"z": -0.7087023105,
				"element": "C" 
			},
			{
				"x": -0.1151566636,
				"y": 1.179766002,
				"z": 0.3463136675,
				"element": "C" 
			},
			{
				"x": 0.5396153738,
				"y": 2.2786250903,
				"z": 0.7409619882,
				"element": "C" 
			},
			{
				"x": 0.1459873848,
				"y": -0.1765948185,
				"z": 0.9801649157,
				"element": "C" 
			},
			{
				"x": 1.2685221372,
				"y": -1.0665875522,
				"z": 0.3536498354,
				"element": "C" 
			},
			{
				"x": 1.0245379068,
				"y": -1.3176360663,
				"z": -1.14605425,
				"element": "C" 
			},
			{
				"x": 1.2548577397,
				"y": -2.4174093387,
				"z": 1.0965231498,
				"element": "C" 
			},
			{
				"x": 2.6464522729,
				"y": -0.4053209305,
				"z": 0.5382339559,
				"element": "C" 
			},
			{
				"x": -2.1643465894,
				"y": 0.9589615432,
				"z": -0.2844824263,
				"element": "H" 
			},
			{
				"x": -1.0031418724,
				"y": 0.568038698,
				"z": -1.5422704093,
				"element": "H" 
			},
			{
				"x": -1.2955728147,
				"y": 2.2631322261,
				"z": -1.1136109582,
				"element": "H" 
			},
			{
				"x": 1.2841580795,
				"y": 2.2484772203,
				"z": 1.5316798192,
				"element": "H" 
			},
			{
				"x": 0.3478026736,
				"y": 3.2494552943,
				"z": 0.2916329748,
				"element": "H" 
			},
			{
				"x": 0.402237286,
				"y": -0.0304408897,
				"z": 2.0367715427,
				"element": "H" 
			},
			{
				"x": -0.7864755478,
				"y": -0.75740296,
				"z": 0.9668508523,
				"element": "H" 
			},
			{
				"x": 0.0382857368,
				"y": -1.7619731989,
				"z": -1.3238533325,
				"element": "H" 
			},
			{
				"x": 1.7752405376,
				"y": -2.0091078093,
				"z": -1.5454754281,
				"element": "H" 
			},
			{
				"x": 1.0912980005,
				"y": -0.3911270654,
				"z": -1.7248813655,
				"element": "H" 
			},
			{
				"x": 1.4162105427,
				"y": -2.2809850481,
				"z": 2.1720347848,
				"element": "H" 
			},
			{
				"x": 0.2973590943,
				"y": -2.9345607174,
				"z": 0.9646813058,
				"element": "H" 
			},
			{
				"x": 2.0451875183,
				"y": -3.0778091191,
				"z": 0.7221539063,
				"element": "H" 
			},
			{
				"x": 3.4367634788,
				"y": -1.0366285667,
				"z": 0.1163497557,
				"element": "H" 
			},
			{
				"x": 2.6907018669,
				"y": 0.5686306336,
				"z": 0.0424118949,
				"element": "H" 
			},
			{
				"x": 2.8739616554,
				"y": -0.2530575554,
				"z": 1.5999161311,
				"element": "H" 
			}
		],
		 "valence_orbital": [ 
			{
				"type": "occ",
				"energy": -0.34054,
				"method": "rhf"
			},
			{
				"type": "occ",
				"energy": -0.32133,
				"method": "rhf"
			},
			{
				"type": "occ",
				"energy": -0.31485,
				"method": "rhf"
			},
			{
				"type": "occ",
				"energy": -0.30667,
				"method": "rhf"
			},
			{
				"type": "occ",
				"energy": -0.23735,
				"method": "rhf"
			},
			{
				"type": "unocc",
				"energy": 0.02388,
				"method": "rhf"
			},
			{
				"type": "unocc",
				"energy": 0.07877,
				"method": "rhf"
			},
			{
				"type": "unocc",
				"energy": 0.12156,
				"method": "rhf"
			},
			{
				"type": "unocc",
				"energy": 0.13007,
				"method": "rhf"
			},
			{
				"type": "unocc",
				"energy": 0.13126,
				"method": "rhf"
			}
		],
		"cosmo_sigma_profile": { 
			"-0.025": 0.0,
			"-0.024": 0.0,
			"-0.023": 0.0,
			"-0.022": 0.0,
			"-0.021": 0.0,
			"-0.02": 0.0,
			"-0.019": 0.0,
			"-0.018": 0.0,
			"-0.017": 0.0,
			"-0.016": 0.0,
			"-0.015": 0.0,
			"-0.014": 0.0,
			"-0.013": 0.0,
			"-0.012": 0.0,
			"-0.011": 0.0,
			"-0.01": 0.0,
			"-0.009": 0.0,
			"-0.008": 0.0,
			"-0.007": 0.0,
			"-0.006": 0.0,
			"-0.005": 0.0222338555063,
			"-0.004": 2.25752479636,
			"-0.003": 11.7776062321,
			"-0.002": 38.3617850997,
			"-0.001": 34.0277324347,
			"0.0": 30.0034130628,
			"0.001": 31.7422436544,
			"0.002": 23.3285260831,
			"0.003": 5.47853916135,
			"0.004": 4.16645041475,
			"0.005": 2.77449161627,
			"0.006": 2.68404727235,
			"0.007": 1.61027464431,
			"0.008": 0.32305415825,
			"0.009": 0.0,
			"0.01": 0.0,
			"0.011": 0.0,
			"0.012": 0.0,
			"0.013": 0.0,
			"0.014": 0.0,
			"0.015": 0.0,
			"0.016": 0.0,
			"0.017": 0.0,
			"0.018": 0.0,
			"0.019": 0.0,
			"0.02": 0.0,
			"0.021": 0.0,
			"0.022": 0.0,
			"0.023": 0.0,
			"0.024": 0.0,
			"0.025": 0.0
		}
	}
}
