{
	 "smiles": "CC1=C(SC2=C1C=C(F)C=C2)C(O)=O", 
	 "Tm": 563.15, 
	 "num_atms": 21, 
	 "gaussian": { 
		 "optdone": 1, 
		 "sigma_profile": "yes", 
		 "theory": "DFT", 
		 "functional": "B3LYP", 
		 "basiset": "6-31G**", 
		 "properties": { 
			 "R2extent": 3432.8674, 
			 "electric_dipole_moment_norm": 3.70110226419, 
			 "electric_quadrupole_moment_norm": 17.3100221921, 
			 "total_energy": -1033.76560613, 
			 "HOMO_LUMO_gap": 0.16341, 
			 "cosmo_polarized_energy": -12.25, 
			 "cosmo_cavitation_energy": 27.18, 
			 "cosmo_dispersion_energy": -20.6, 
			 "cosmo_repulsion_energy": 1.51, 
			 "cosmo_total_nonelectrostatic_energy": 8.09, 
			 "SMD_solvation_energy": 5.78 
		},
		"coords": [
			{
				"x": -1.3098291221,
				"y": -1.2506070595,
				"z": 1.5170436924,
				"element": "C" 
			},
			{
				"x": -0.4855362227,
				"y": -0.1424085601,
				"z": 0.9234748153,
				"element": "C" 
			},
			{
				"x": -0.3637091676,
				"y": 1.1198096671,
				"z": 1.4579080386,
				"element": "C" 
			},
			{
				"x": 0.6845184751,
				"y": 2.1771436879,
				"z": 0.5039939618,
				"element": "S" 
			},
			{
				"x": 0.976179464,
				"y": 0.899436221,
				"z": -0.6524270633,
				"element": "C" 
			},
			{
				"x": 0.2823687009,
				"y": -0.2833165865,
				"z": -0.294374907,
				"element": "C" 
			},
			{
				"x": 0.4080331673,
				"y": -1.4168759745,
				"z": -1.1230150657,
				"element": "C" 
			},
			{
				"x": 1.2026325815,
				"y": -1.3236974601,
				"z": -2.2479812954,
				"element": "C" 
			},
			{
				"x": 1.3307459532,
				"y": -2.4016668335,
				"z": -3.0487748281,
				"element": "F" 
			},
			{
				"x": 1.8892344691,
				"y": -0.153580433,
				"z": -2.6024826677,
				"element": "C" 
			},
			{
				"x": 1.7767385158,
				"y": 0.9718817696,
				"z": -1.7978605947,
				"element": "C" 
			},
			{
				"x": -1.0222494554,
				"y": 1.5891660278,
				"z": 2.6988389834,
				"element": "C" 
			},
			{
				"x": -0.7980103677,
				"y": 2.8718072611,
				"z": 3.0901941654,
				"element": "O" 
			},
			{
				"x": -1.743045298,
				"y": 0.8822414936,
				"z": 3.3687206877,
				"element": "O" 
			},
			{
				"x": -2.3585112238,
				"y": -0.9543381029,
				"z": 1.6029666237,
				"element": "H" 
			},
			{
				"x": -0.9794699535,
				"y": -1.4819128879,
				"z": 2.5330397174,
				"element": "H" 
			},
			{
				"x": -1.2482401619,
				"y": -2.1570140556,
				"z": 0.911595271,
				"element": "H" 
			},
			{
				"x": -0.0974361855,
				"y": -2.3497465598,
				"z": -0.9025042303,
				"element": "H" 
			},
			{
				"x": 2.4968242351,
				"y": -0.1491149344,
				"z": -3.5005300629,
				"element": "H" 
			},
			{
				"x": 2.3008892994,
				"y": 1.8859904549,
				"z": -2.0566659116,
				"element": "H" 
			},
			{
				"x": -0.210227703,
				"y": 3.3460028647,
				"z": 2.4849406701,
				"element": "H" 
			}
		],
		 "valence_orbital": [ 
			{
				"type": "occ",
				"energy": -0.31914,
				"method": "rhf"
			},
			{
				"type": "occ",
				"energy": -0.30059,
				"method": "rhf"
			},
			{
				"type": "occ",
				"energy": -0.27829,
				"method": "rhf"
			},
			{
				"type": "occ",
				"energy": -0.25203,
				"method": "rhf"
			},
			{
				"type": "occ",
				"energy": -0.23587,
				"method": "rhf"
			},
			{
				"type": "unocc",
				"energy": -0.07246,
				"method": "rhf"
			},
			{
				"type": "unocc",
				"energy": -0.01958,
				"method": "rhf"
			},
			{
				"type": "unocc",
				"energy": -0.01555,
				"method": "rhf"
			},
			{
				"type": "unocc",
				"energy": 0.00861,
				"method": "rhf"
			},
			{
				"type": "unocc",
				"energy": 0.05853,
				"method": "rhf"
			}
		],
		"cosmo_sigma_profile": { 
			"-0.025": 0.0,
			"-0.024": 0.0,
			"-0.023": 0.0,
			"-0.022": 0.0,
			"-0.021": 0.0,
			"-0.02": 0.0,
			"-0.019": 0.0,
			"-0.018": 0.25537605999,
			"-0.017": 0.767739360545,
			"-0.016": 1.00992769404,
			"-0.015": 0.881517248675,
			"-0.014": 0.386162982031,
			"-0.013": 0.583164360182,
			"-0.012": 1.68879954435,
			"-0.011": 0.882007467391,
			"-0.01": 0.501236094946,
			"-0.009": 1.70569155044,
			"-0.008": 6.66276426229,
			"-0.007": 8.2493840992,
			"-0.006": 6.9924554336,
			"-0.005": 8.96730957368,
			"-0.004": 10.8100598361,
			"-0.003": 11.4655106906,
			"-0.002": 13.9437755614,
			"-0.001": 18.7283366505,
			"0.0": 22.3270731762,
			"0.001": 24.5178451312,
			"0.002": 23.120078242,
			"0.003": 11.8996892562,
			"0.004": 14.8703865786,
			"0.005": 4.41498377025,
			"0.006": 2.73359732809,
			"0.007": 1.84306745786,
			"0.008": 2.81759224894,
			"0.009": 3.81860966418,
			"0.01": 4.08449806349,
			"0.011": 4.63969070953,
			"0.012": 3.54104198651,
			"0.013": 1.45773901646,
			"0.014": 0.017837926438,
			"0.015": 0.0,
			"0.016": 0.0,
			"0.017": 0.0,
			"0.018": 0.0,
			"0.019": 0.0,
			"0.02": 0.0,
			"0.021": 0.0,
			"0.022": 0.0,
			"0.023": 0.0,
			"0.024": 0.0,
			"0.025": 0.0
		}
	}
}
