{
	 "smiles": "OC(C#N)C1=CC=C(C=C1)[N+]([O-])=O", 
	 "Tm": 383.15, 
	 "num_atms": 19, 
	 "gaussian": { 
		 "optdone": 1, 
		 "sigma_profile": "yes", 
		 "theory": "DFT", 
		 "functional": "B3LYP", 
		 "basiset": "6-31G**", 
		 "properties": { 
			 "R2extent": 3647.3229, 
			 "electric_dipole_moment_norm": 4.48745980372, 
			 "electric_quadrupole_moment_norm": 24.2654287205, 
			 "total_energy": -643.501109098, 
			 "HOMO_LUMO_gap": 0.19023, 
			 "cosmo_polarized_energy": -18.44, 
			 "cosmo_cavitation_energy": 25.82, 
			 "cosmo_dispersion_energy": -18.02, 
			 "cosmo_repulsion_energy": 1.44, 
			 "cosmo_total_nonelectrostatic_energy": 9.24, 
			 "SMD_solvation_energy": 8.28 
		},
		"coords": [
			{
				"x": 0.1650355478,
				"y": -0.9842912808,
				"z": -2.1082977011,
				"element": "O" 
			},
			{
				"x": -0.716488439,
				"y": 0.1112279711,
				"z": -1.9319686423,
				"element": "C" 
			},
			{
				"x": -2.0201843187,
				"y": -0.2927225481,
				"z": -2.4979329704,
				"element": "C" 
			},
			{
				"x": -3.058740049,
				"y": -0.5724653158,
				"z": -2.9316212833,
				"element": "N" 
			},
			{
				"x": -0.8803604568,
				"y": 0.5230899329,
				"z": -0.46861824,
				"element": "C" 
			},
			{
				"x": -0.8316224002,
				"y": -0.4517943802,
				"z": 0.5355037092,
				"element": "C" 
			},
			{
				"x": -0.9820161267,
				"y": -0.0902111243,
				"z": 1.8710190937,
				"element": "C" 
			},
			{
				"x": -1.1821433962,
				"y": 1.2538094551,
				"z": 2.1808566676,
				"element": "C" 
			},
			{
				"x": -1.2362933554,
				"y": 2.2420326494,
				"z": 1.2008375631,
				"element": "C" 
			},
			{
				"x": -1.0811147369,
				"y": 1.8660583194,
				"z": -0.1309801577,
				"element": "C" 
			},
			{
				"x": -1.3362482485,
				"y": 1.644466786,
				"z": 3.5940447013,
				"element": "N" 
			},
			{
				"x": -1.2796374755,
				"y": 0.7530287103,
				"z": 4.4390150901,
				"element": "O" 
			},
			{
				"x": -1.5103474903,
				"y": 2.8371788107,
				"z": 3.8379267199,
				"element": "O" 
			},
			{
				"x": 1.0341503974,
				"y": -0.7124521073,
				"z": -1.7814321542,
				"element": "H" 
			},
			{
				"x": -0.3836195191,
				"y": 0.9890984326,
				"z": -2.508437079,
				"element": "H" 
			},
			{
				"x": -0.6704804502,
				"y": -1.4890840076,
				"z": 0.2620704022,
				"element": "H" 
			},
			{
				"x": -0.9489552282,
				"y": -0.8216698739,
				"z": 2.668670363,
				"element": "H" 
			},
			{
				"x": -1.3902277253,
				"y": 3.2736673832,
				"z": 1.4909482016,
				"element": "H" 
			},
			{
				"x": -1.1165065294,
				"y": 2.6236321872,
				"z": -0.9091042836,
				"element": "H" 
			}
		],
		 "valence_orbital": [ 
			{
				"type": "occ",
				"energy": -0.32049,
				"method": "rhf"
			},
			{
				"type": "occ",
				"energy": -0.31739,
				"method": "rhf"
			},
			{
				"type": "occ",
				"energy": -0.30191,
				"method": "rhf"
			},
			{
				"type": "occ",
				"energy": -0.29527,
				"method": "rhf"
			},
			{
				"type": "occ",
				"energy": -0.29331,
				"method": "rhf"
			},
			{
				"type": "unocc",
				"energy": -0.10308,
				"method": "rhf"
			},
			{
				"type": "unocc",
				"energy": -0.04625,
				"method": "rhf"
			},
			{
				"type": "unocc",
				"energy": -0.02701,
				"method": "rhf"
			},
			{
				"type": "unocc",
				"energy": 0.00379,
				"method": "rhf"
			},
			{
				"type": "unocc",
				"energy": 0.02775,
				"method": "rhf"
			}
		],
		"cosmo_sigma_profile": { 
			"-0.025": 0.0,
			"-0.024": 0.0,
			"-0.023": 0.0,
			"-0.022": 0.0,
			"-0.021": 0.0,
			"-0.02": 0.0,
			"-0.019": 0.0124870956811,
			"-0.018": 0.878869135059,
			"-0.017": 1.07097436084,
			"-0.016": 0.947238227918,
			"-0.015": 1.03576052296,
			"-0.014": 0.79963495803,
			"-0.013": 1.31399509134,
			"-0.012": 0.662864614874,
			"-0.011": 2.30311888794,
			"-0.01": 5.22909394924,
			"-0.009": 4.70446647584,
			"-0.008": 6.45883908938,
			"-0.007": 9.68178145314,
			"-0.006": 8.33654282112,
			"-0.005": 9.2643524571,
			"-0.004": 10.046989709,
			"-0.003": 8.71713617329,
			"-0.002": 12.3695100504,
			"-0.001": 14.6402591928,
			"0.0": 16.814278624,
			"0.001": 13.9837716914,
			"0.002": 6.52763186815,
			"0.003": 5.94369390304,
			"0.004": 6.30308756758,
			"0.005": 6.98682372999,
			"0.006": 7.529353381,
			"0.007": 13.6895499283,
			"0.008": 11.5011097215,
			"0.009": 7.93649247284,
			"0.01": 6.18161209837,
			"0.011": 3.9962234262,
			"0.012": 1.82726374794,
			"0.013": 0.220863070703,
			"0.014": 0.0,
			"0.015": 0.0,
			"0.016": 0.0,
			"0.017": 0.0,
			"0.018": 0.0,
			"0.019": 0.0,
			"0.02": 0.0,
			"0.021": 0.0,
			"0.022": 0.0,
			"0.023": 0.0,
			"0.024": 0.0,
			"0.025": 0.0
		}
	}
}
