{
	 "smiles": "OC(=O)C1CCCN1C1=C2C=CSC2=NC=N1", 
	 "Tm": 485.15, 
	 "num_atms": 28, 
	 "gaussian": { 
		 "optdone": 1, 
		 "sigma_profile": "yes", 
		 "theory": "DFT", 
		 "functional": "B3LYP", 
		 "basiset": "6-31G**", 
		 "properties": { 
			 "R2extent": 4238.6775, 
			 "electric_dipole_moment_norm": 5.65024483452, 
			 "electric_quadrupole_moment_norm": 12.4288699181, 
			 "total_energy": -1138.7018383, 
			 "HOMO_LUMO_gap": 0.17938, 
			 "cosmo_polarized_energy": -16.65, 
			 "cosmo_cavitation_energy": 32.3, 
			 "cosmo_dispersion_energy": -24.01, 
			 "cosmo_repulsion_energy": 1.81, 
			 "cosmo_total_nonelectrostatic_energy": 10.09, 
			 "SMD_solvation_energy": 2.89 
		},
		"coords": [
			{
				"x": 0.3914517455,
				"y": -1.7365744742,
				"z": 3.0071752139,
				"element": "O" 
			},
			{
				"x": -0.4223676303,
				"y": -0.8406877213,
				"z": 2.3949485111,
				"element": "C" 
			},
			{
				"x": -1.6152598013,
				"y": -0.9891790649,
				"z": 2.2872105647,
				"element": "O" 
			},
			{
				"x": 0.3747111729,
				"y": 0.3815194958,
				"z": 1.9413983836,
				"element": "C" 
			},
			{
				"x": 0.4509436692,
				"y": 1.398181502,
				"z": 3.1206650845,
				"element": "C" 
			},
			{
				"x": 0.2968412533,
				"y": 2.7650292402,
				"z": 2.4403135016,
				"element": "C" 
			},
			{
				"x": -0.6761428628,
				"y": 2.4749265652,
				"z": 1.2963348003,
				"element": "C" 
			},
			{
				"x": -0.2794198343,
				"y": 1.1224097212,
				"z": 0.8726779442,
				"element": "N" 
			},
			{
				"x": -0.635064167,
				"y": 0.6367099032,
				"z": -0.356803826,
				"element": "C" 
			},
			{
				"x": -0.202407622,
				"y": -0.6113131969,
				"z": -0.9091248237,
				"element": "C" 
			},
			{
				"x": 0.655004295,
				"y": -1.6785283562,
				"z": -0.4520504409,
				"element": "C" 
			},
			{
				"x": 0.7832707439,
				"y": -2.6807725977,
				"z": -1.3622456701,
				"element": "C" 
			},
			{
				"x": -0.1159909444,
				"y": -2.4032545682,
				"z": -2.8317660218,
				"element": "S" 
			},
			{
				"x": -0.6967469367,
				"y": -0.8682920024,
				"z": -2.2089025189,
				"element": "C" 
			},
			{
				"x": -1.4915797268,
				"y": -0.0717984679,
				"z": -2.9310976091,
				"element": "N" 
			},
			{
				"x": -1.8022392272,
				"y": 1.0593841638,
				"z": -2.3041395283,
				"element": "C" 
			},
			{
				"x": -1.426535005,
				"y": 1.4483793319,
				"z": -1.0820695426,
				"element": "N" 
			},
			{
				"x": -0.1791217378,
				"y": -2.4623778587,
				"z": 3.312700882,
				"element": "H" 
			},
			{
				"x": 1.3830117022,
				"y": 0.0636293892,
				"z": 1.6543877129,
				"element": "H" 
			},
			{
				"x": 1.3768249725,
				"y": 1.2820774137,
				"z": 3.6875910875,
				"element": "H" 
			},
			{
				"x": -0.3866680793,
				"y": 1.2292400605,
				"z": 3.8054509571,
				"element": "H" 
			},
			{
				"x": 1.2577260101,
				"y": 3.103955491,
				"z": 2.0379502373,
				"element": "H" 
			},
			{
				"x": -0.0747990601,
				"y": 3.5330167625,
				"z": 3.1237409982,
				"element": "H" 
			},
			{
				"x": -0.5950839182,
				"y": 3.1651245903,
				"z": 0.4567512939,
				"element": "H" 
			},
			{
				"x": -1.7211959458,
				"y": 2.4849808295,
				"z": 1.6338157087,
				"element": "H" 
			},
			{
				"x": 1.155285004,
				"y": -1.7215276909,
				"z": 0.5047146267,
				"element": "H" 
			},
			{
				"x": 1.3644038974,
				"y": -3.5864152287,
				"z": -1.2555265124,
				"element": "H" 
			},
			{
				"x": -2.4420519669,
				"y": 1.753456768,
				"z": -2.8462010142,
				"element": "H" 
			}
		],
		 "valence_orbital": [ 
			{
				"type": "occ",
				"energy": -0.28902,
				"method": "rhf"
			},
			{
				"type": "occ",
				"energy": -0.26195,
				"method": "rhf"
			},
			{
				"type": "occ",
				"energy": -0.25377,
				"method": "rhf"
			},
			{
				"type": "occ",
				"energy": -0.24697,
				"method": "rhf"
			},
			{
				"type": "occ",
				"energy": -0.20788,
				"method": "rhf"
			},
			{
				"type": "unocc",
				"energy": -0.0285,
				"method": "rhf"
			},
			{
				"type": "unocc",
				"energy": -0.00988,
				"method": "rhf"
			},
			{
				"type": "unocc",
				"energy": -0.00521,
				"method": "rhf"
			},
			{
				"type": "unocc",
				"energy": 0.0278,
				"method": "rhf"
			},
			{
				"type": "unocc",
				"energy": 0.03746,
				"method": "rhf"
			}
		],
		"cosmo_sigma_profile": { 
			"-0.025": 0.0,
			"-0.024": 0.0,
			"-0.023": 0.0,
			"-0.022": 0.0,
			"-0.021": 0.0,
			"-0.02": 0.0,
			"-0.019": 0.195731213985,
			"-0.018": 1.4164096809,
			"-0.017": 0.376474611645,
			"-0.016": 0.929927559285,
			"-0.015": 0.817131888084,
			"-0.014": 0.643384409078,
			"-0.013": 0.914965821949,
			"-0.012": 0.693540760895,
			"-0.011": 0.684918662164,
			"-0.01": 0.8329101937,
			"-0.009": 1.95764586997,
			"-0.008": 4.74173589559,
			"-0.007": 6.25258222872,
			"-0.006": 9.53802652235,
			"-0.005": 16.1145686395,
			"-0.004": 23.0835592973,
			"-0.003": 21.4082283569,
			"-0.002": 19.4148149735,
			"-0.001": 15.6923137225,
			"0.0": 17.4710631251,
			"0.001": 20.0206873438,
			"0.002": 19.5557204881,
			"0.003": 17.124488602,
			"0.004": 14.0320627707,
			"0.005": 6.30387302809,
			"0.006": 6.22749204322,
			"0.007": 6.08767983592,
			"0.008": 5.03447642602,
			"0.009": 3.63737755679,
			"0.01": 5.11482686061,
			"0.011": 7.04076197016,
			"0.012": 2.76192250628,
			"0.013": 1.41679718217,
			"0.014": 0.858977149453,
			"0.015": 0.734244340134,
			"0.016": 0.109215025528,
			"0.017": 0.0,
			"0.018": 0.0,
			"0.019": 0.0,
			"0.02": 0.0,
			"0.021": 0.0,
			"0.022": 0.0,
			"0.023": 0.0,
			"0.024": 0.0,
			"0.025": 0.0
		}
	}
}
