{
	 "smiles": "CC12CC(O)C3C(CC(F)C4=CC(=O)C=CC34C)C1CCC2(O)C(=O)CO", 
	 "Tm": 483.15, 
	 "num_atms": 54, 
	 "gaussian": { 
		 "optdone": 1, 
		 "sigma_profile": "yes", 
		 "theory": "DFT", 
		 "functional": "B3LYP", 
		 "basiset": "6-31G**", 
		 "properties": { 
			 "R2extent": 10612.4129, 
			 "electric_dipole_moment_norm": 5.33221314653, 
			 "electric_quadrupole_moment_norm": 34.6220492347, 
			 "total_energy": -1292.41771488, 
			 "HOMO_LUMO_gap": 0.1768, 
			 "cosmo_polarized_energy": -26.21, 
			 "cosmo_cavitation_energy": 48.14, 
			 "cosmo_dispersion_energy": -33.36, 
			 "cosmo_repulsion_energy": 2.41, 
			 "cosmo_total_nonelectrostatic_energy": 17.2, 
			 "SMD_solvation_energy": 8.9 
		},
		"coords": [
			{
				"x": -1.0921828418,
				"y": -0.2968850555,
				"z": 2.0827873213,
				"element": "C" 
			},
			{
				"x": 0.3555216854,
				"y": 0.0671349463,
				"z": 1.7066340177,
				"element": "C" 
			},
			{
				"x": 0.420345896,
				"y": 1.5442917062,
				"z": 1.2312957999,
				"element": "C" 
			},
			{
				"x": -0.0421953756,
				"y": 1.7896177783,
				"z": -0.2152289007,
				"element": "C" 
			},
			{
				"x": -1.439668981,
				"y": 1.563704271,
				"z": -0.4092204807,
				"element": "O" 
			},
			{
				"x": 0.7469916398,
				"y": 0.91105338,
				"z": -1.204042618,
				"element": "C" 
			},
			{
				"x": 0.6742553914,
				"y": -0.5943680244,
				"z": -0.8395659465,
				"element": "C" 
			},
			{
				"x": -0.6579144885,
				"y": -1.2379689773,
				"z": -1.2729472255,
				"element": "C" 
			},
			{
				"x": -0.9123622131,
				"y": -1.0218041735,
				"z": -2.7648707972,
				"element": "C" 
			},
			{
				"x": -2.1482922475,
				"y": -1.5735754398,
				"z": -3.0953899136,
				"element": "F" 
			},
			{
				"x": -0.8709675592,
				"y": 0.4436239657,
				"z": -3.1189944209,
				"element": "C" 
			},
			{
				"x": -1.8985724313,
				"y": 1.0440787339,
				"z": -3.7419394555,
				"element": "C" 
			},
			{
				"x": -1.9104260881,
				"y": 2.4870499279,
				"z": -4.0379097926,
				"element": "C" 
			},
			{
				"x": -2.8520196959,
				"y": 3.0344781751,
				"z": -4.6069691961,
				"element": "O" 
			},
			{
				"x": -0.7184515823,
				"y": 3.2501801621,
				"z": -3.6027213203,
				"element": "C" 
			},
			{
				"x": 0.3145262626,
				"y": 2.6543564915,
				"z": -2.9930754169,
				"element": "C" 
			},
			{
				"x": 0.4016089492,
				"y": 1.1731552703,
				"z": -2.7206671044,
				"element": "C" 
			},
			{
				"x": 1.5812987017,
				"y": 0.6566995566,
				"z": -3.6073376293,
				"element": "C" 
			},
			{
				"x": 1.0236541328,
				"y": -0.8580332266,
				"z": 0.6486582704,
				"element": "C" 
			},
			{
				"x": 2.5559646111,
				"y": -0.7681711844,
				"z": 0.9274369227,
				"element": "C" 
			},
			{
				"x": 2.7344720797,
				"y": -0.1960629716,
				"z": 2.3520012258,
				"element": "C" 
			},
			{
				"x": 1.3129184715,
				"y": -0.0648320633,
				"z": 2.966015459,
				"element": "C" 
			},
			{
				"x": 1.2185976067,
				"y": 1.07427143,
				"z": 3.7918186029,
				"element": "O" 
			},
			{
				"x": 0.9914670377,
				"y": -1.2848043081,
				"z": 3.8530733442,
				"element": "C" 
			},
			{
				"x": 0.5942772375,
				"y": -1.0885329416,
				"z": 4.9962507901,
				"element": "O" 
			},
			{
				"x": 1.1825218503,
				"y": -2.7323655173,
				"z": 3.4159529712,
				"element": "C" 
			},
			{
				"x": 1.0196799011,
				"y": -3.615605418,
				"z": 4.4891421518,
				"element": "O" 
			},
			{
				"x": -1.2169147204,
				"y": -1.3686193591,
				"z": 2.2718807337,
				"element": "H" 
			},
			{
				"x": -1.789942441,
				"y": -0.0094510914,
				"z": 1.2971982741,
				"element": "H" 
			},
			{
				"x": -1.3769343462,
				"y": 0.2395760464,
				"z": 2.9952896593,
				"element": "H" 
			},
			{
				"x": 1.4469269333,
				"y": 1.9203785276,
				"z": 1.3061159024,
				"element": "H" 
			},
			{
				"x": -0.1629275694,
				"y": 2.1686842258,
				"z": 1.9156598361,
				"element": "H" 
			},
			{
				"x": 0.1826472248,
				"y": 2.8404106535,
				"z": -0.4519201314,
				"element": "H" 
			},
			{
				"x": -1.9262343177,
				"y": 2.2406406456,
				"z": 0.0782981425,
				"element": "H" 
			},
			{
				"x": 1.7913541085,
				"y": 1.2296605648,
				"z": -1.0803183664,
				"element": "H" 
			},
			{
				"x": 1.4629088643,
				"y": -1.1037372457,
				"z": -1.411867533,
				"element": "H" 
			},
			{
				"x": -0.6366271647,
				"y": -2.3153077561,
				"z": -1.0712206474,
				"element": "H" 
			},
			{
				"x": -1.501582451,
				"y": -0.8058998722,
				"z": -0.7335708128,
				"element": "H" 
			},
			{
				"x": -0.1602517479,
				"y": -1.5692835182,
				"z": -3.3529869848,
				"element": "H" 
			},
			{
				"x": -2.7825300541,
				"y": 0.4825056514,
				"z": -4.0225369562,
				"element": "H" 
			},
			{
				"x": -0.7265757928,
				"y": 4.3155352097,
				"z": -3.8154921882,
				"element": "H" 
			},
			{
				"x": 1.189996782,
				"y": 3.237385463,
				"z": -2.7063171896,
				"element": "H" 
			},
			{
				"x": 1.3489110502,
				"y": 0.8062538368,
				"z": -4.6648700546,
				"element": "H" 
			},
			{
				"x": 2.4972711611,
				"y": 1.2107422198,
				"z": -3.3767779494,
				"element": "H" 
			},
			{
				"x": 1.7865091174,
				"y": -0.4052171113,
				"z": -3.4517964915,
				"element": "H" 
			},
			{
				"x": 0.7073098221,
				"y": -1.8880664001,
				"z": 0.8510641608,
				"element": "H" 
			},
			{
				"x": 3.0198706933,
				"y": -1.753346677,
				"z": 0.8149447358,
				"element": "H" 
			},
			{
				"x": 3.0493532012,
				"y": -0.1190623427,
				"z": 0.1969122876,
				"element": "H" 
			},
			{
				"x": 3.1571140114,
				"y": 0.8112779252,
				"z": 2.3339808476,
				"element": "H" 
			},
			{
				"x": 3.4034174647,
				"y": -0.7957457703,
				"z": 2.9769118541,
				"element": "H" 
			},
			{
				"x": 0.86544351,
				"y": 0.7616170952,
				"z": 4.6438324181,
				"element": "H" 
			},
			{
				"x": 0.4573499622,
				"y": -2.9434276774,
				"z": 2.6129596861,
				"element": "H" 
			},
			{
				"x": 2.1800306044,
				"y": -2.8537663519,
				"z": 2.9713194986,
				"element": "H" 
			},
			{
				"x": 0.6670581442,
				"y": -3.0790233852,
				"z": 5.2197206096,
				"element": "H" 
			}
		],
		 "valence_orbital": [ 
			{
				"type": "occ",
				"energy": -0.28007,
				"method": "rhf"
			},
			{
				"type": "occ",
				"energy": -0.27176,
				"method": "rhf"
			},
			{
				"type": "occ",
				"energy": -0.2682,
				"method": "rhf"
			},
			{
				"type": "occ",
				"energy": -0.25198,
				"method": "rhf"
			},
			{
				"type": "occ",
				"energy": -0.23312,
				"method": "rhf"
			},
			{
				"type": "unocc",
				"energy": -0.05632,
				"method": "rhf"
			},
			{
				"type": "unocc",
				"energy": -0.05016,
				"method": "rhf"
			},
			{
				"type": "unocc",
				"energy": -0.00177,
				"method": "rhf"
			},
			{
				"type": "unocc",
				"energy": 0.0396,
				"method": "rhf"
			},
			{
				"type": "unocc",
				"energy": 0.05005,
				"method": "rhf"
			}
		],
		"cosmo_sigma_profile": { 
			"-0.025": 0.0,
			"-0.024": 0.0,
			"-0.023": 0.0,
			"-0.022": 0.0,
			"-0.021": 0.0,
			"-0.02": 0.0,
			"-0.019": 0.0,
			"-0.018": 0.0,
			"-0.017": 0.0,
			"-0.016": 0.0745571941788,
			"-0.015": 0.99242098092,
			"-0.014": 0.996921759086,
			"-0.013": 1.02133991858,
			"-0.012": 0.88848874652,
			"-0.011": 1.27222385896,
			"-0.01": 1.16585234139,
			"-0.009": 2.60370374585,
			"-0.008": 3.24812368106,
			"-0.007": 12.1472076435,
			"-0.006": 20.6961536157,
			"-0.005": 26.506588608,
			"-0.004": 36.3062519701,
			"-0.003": 34.4030436699,
			"-0.002": 30.9232180776,
			"-0.001": 33.1528442647,
			"0.0": 28.9439501725,
			"0.001": 18.2539871211,
			"0.002": 18.8589023803,
			"0.003": 13.6508658135,
			"0.004": 10.3866423245,
			"0.005": 11.7643921416,
			"0.006": 12.80942835,
			"0.007": 9.49470421642,
			"0.008": 7.68035203525,
			"0.009": 5.97173266336,
			"0.01": 4.61056400816,
			"0.011": 4.09994305298,
			"0.012": 5.69454484484,
			"0.013": 8.26364137717,
			"0.014": 5.48718290543,
			"0.015": 1.1630691869,
			"0.016": 0.0,
			"0.017": 0.0,
			"0.018": 0.0,
			"0.019": 0.0,
			"0.02": 0.0,
			"0.021": 0.0,
			"0.022": 0.0,
			"0.023": 0.0,
			"0.024": 0.0,
			"0.025": 0.0
		}
	}
}
