{
	 "smiles": "CN1C2CC3CC1C(O)C2O3", 
	 "Tm": 381.15, 
	 "num_atms": 24, 
	 "gaussian": { 
		 "optdone": 1, 
		 "sigma_profile": "yes", 
		 "theory": "DFT", 
		 "functional": "B3LYP", 
		 "basiset": "6-31G**", 
		 "properties": { 
			 "R2extent": 1785.0525, 
			 "electric_dipole_moment_norm": 0.576123649922, 
			 "electric_quadrupole_moment_norm": 7.89975870454, 
			 "total_energy": -517.848176117, 
			 "HOMO_LUMO_gap": 0.27074, 
			 "cosmo_polarized_energy": -8.74, 
			 "cosmo_cavitation_energy": 23.4, 
			 "cosmo_dispersion_energy": -18.38, 
			 "cosmo_repulsion_energy": 1.47, 
			 "cosmo_total_nonelectrostatic_energy": 6.49, 
			 "SMD_solvation_energy": 1.59 
		},
		"coords": [
			{
				"x": -1.563118664,
				"y": 1.2758595516,
				"z": -0.3402362231,
				"element": "C" 
			},
			{
				"x": -0.1881648202,
				"y": 0.7811143577,
				"z": -0.3323129726,
				"element": "N" 
			},
			{
				"x": 0.8587838314,
				"y": 1.7648610748,
				"z": 0.0035460246,
				"element": "C" 
			},
			{
				"x": 2.1061977368,
				"y": 1.3742195258,
				"z": -0.8112453571,
				"element": "C" 
			},
			{
				"x": 2.5584022784,
				"y": 0.1892328789,
				"z": 0.0508139231,
				"element": "C" 
			},
			{
				"x": 1.4894326613,
				"y": -0.9316640264,
				"z": 0.077400135,
				"element": "C" 
			},
			{
				"x": 0.1337225,
				"y": -0.3432704185,
				"z": 0.5630191014,
				"element": "C" 
			},
			{
				"x": 0.3711948433,
				"y": 0.3084344487,
				"z": 1.9405547012,
				"element": "C" 
			},
			{
				"x": -0.867249558,
				"y": 0.7590886955,
				"z": 2.4726104112,
				"element": "O" 
			},
			{
				"x": 1.328708765,
				"y": 1.4279581965,
				"z": 1.4870277154,
				"element": "C" 
			},
			{
				"x": 2.6183353916,
				"y": 0.8114949923,
				"z": 1.3512663688,
				"element": "O" 
			},
			{
				"x": -1.879650258,
				"y": 1.7710628064,
				"z": 0.5867423163,
				"element": "H" 
			},
			{
				"x": -1.6804443398,
				"y": 1.9743753172,
				"z": -1.1769874204,
				"element": "H" 
			},
			{
				"x": -2.2397762413,
				"y": 0.4344396057,
				"z": -0.5208977629,
				"element": "H" 
			},
			{
				"x": 0.5141054717,
				"y": 2.7903629298,
				"z": -0.1428234717,
				"element": "H" 
			},
			{
				"x": 1.841540193,
				"y": 1.1282515745,
				"z": -1.8410564278,
				"element": "H" 
			},
			{
				"x": 2.8810024248,
				"y": 2.1477774716,
				"z": -0.7966076337,
				"element": "H" 
			},
			{
				"x": 3.5558052821,
				"y": -0.197396026,
				"z": -0.1735991674,
				"element": "H" 
			},
			{
				"x": 1.3608855167,
				"y": -1.3562609974,
				"z": -0.9237176691,
				"element": "H" 
			},
			{
				"x": 1.8212230629,
				"y": -1.7311223853,
				"z": 0.7494084925,
				"element": "H" 
			},
			{
				"x": -0.6626378293,
				"y": -1.0930445364,
				"z": 0.5642812754,
				"element": "H" 
			},
			{
				"x": 0.8895757855,
				"y": -0.3530044777,
				"z": 2.6473825269,
				"element": "H" 
			},
			{
				"x": -0.6834013143,
				"y": 1.199526375,
				"z": 3.3123849705,
				"element": "H" 
			},
			{
				"x": 1.4091272807,
				"y": 2.2791030658,
				"z": 2.1694461434,
				"element": "H" 
			}
		],
		 "valence_orbital": [ 
			{
				"type": "occ",
				"energy": -0.31705,
				"method": "rhf"
			},
			{
				"type": "occ",
				"energy": -0.30585,
				"method": "rhf"
			},
			{
				"type": "occ",
				"energy": -0.27536,
				"method": "rhf"
			},
			{
				"type": "occ",
				"energy": -0.23924,
				"method": "rhf"
			},
			{
				"type": "occ",
				"energy": -0.19871,
				"method": "rhf"
			},
			{
				"type": "unocc",
				"energy": 0.07203,
				"method": "rhf"
			},
			{
				"type": "unocc",
				"energy": 0.08711,
				"method": "rhf"
			},
			{
				"type": "unocc",
				"energy": 0.12101,
				"method": "rhf"
			},
			{
				"type": "unocc",
				"energy": 0.12937,
				"method": "rhf"
			},
			{
				"type": "unocc",
				"energy": 0.12987,
				"method": "rhf"
			}
		],
		"cosmo_sigma_profile": { 
			"-0.025": 0.0,
			"-0.024": 0.0,
			"-0.023": 0.0,
			"-0.022": 0.0,
			"-0.021": 0.0,
			"-0.02": 0.0,
			"-0.019": 0.0,
			"-0.018": 0.0,
			"-0.017": 0.0,
			"-0.016": 0.383800950383,
			"-0.015": 1.12001320559,
			"-0.014": 1.01034087986,
			"-0.013": 0.676367078691,
			"-0.012": 1.30246365669,
			"-0.011": 1.08171258764,
			"-0.01": 0.613389086051,
			"-0.009": 0.702704188791,
			"-0.008": 1.18267789337,
			"-0.007": 1.06046047698,
			"-0.006": 2.29016366189,
			"-0.005": 5.54936090104,
			"-0.004": 12.3332778972,
			"-0.003": 24.6676019017,
			"-0.002": 25.8322353902,
			"-0.001": 22.3991490712,
			"0.0": 19.7799006475,
			"0.001": 12.322378278,
			"0.002": 5.94290472136,
			"0.003": 4.25537603126,
			"0.004": 4.70352928113,
			"0.005": 4.34283165422,
			"0.006": 3.50930105552,
			"0.007": 3.90725680628,
			"0.008": 3.01538633329,
			"0.009": 2.85378668579,
			"0.01": 2.62988837209,
			"0.011": 2.35405407655,
			"0.012": 2.72731248361,
			"0.013": 3.23199836371,
			"0.014": 2.65383873478,
			"0.015": 0.170255449647,
			"0.016": 0.0,
			"0.017": 0.0,
			"0.018": 0.0,
			"0.019": 0.0,
			"0.02": 0.0,
			"0.021": 0.0,
			"0.022": 0.0,
			"0.023": 0.0,
			"0.024": 0.0,
			"0.025": 0.0
		}
	}
}
