{
	 "smiles": "OC(=O)CN1CSC(=S)N(CC2=CC=CC=C2)C1", 
	 "Tm": 425.15, 
	 "num_atms": 32, 
	 "gaussian": { 
		 "optdone": 1, 
		 "sigma_profile": "yes", 
		 "theory": "DFT", 
		 "functional": "B3LYP", 
		 "basiset": "6-31G**", 
		 "properties": { 
			 "R2extent": 6104.813, 
			 "electric_dipole_moment_norm": 4.69879288967, 
			 "electric_quadrupole_moment_norm": 28.0749081475, 
			 "total_energy": -1522.02747031, 
			 "HOMO_LUMO_gap": 0.17403, 
			 "cosmo_polarized_energy": -22.95, 
			 "cosmo_cavitation_energy": 37.22, 
			 "cosmo_dispersion_energy": -26.47, 
			 "cosmo_repulsion_energy": 1.95, 
			 "cosmo_total_nonelectrostatic_energy": 12.69, 
			 "SMD_solvation_energy": 3.15 
		},
		"coords": [
			{
				"x": -3.0006131276,
				"y": 1.9826814964,
				"z": 2.9871445395,
				"element": "O" 
			},
			{
				"x": -2.1128457123,
				"y": 1.0617790795,
				"z": 3.4388670807,
				"element": "C" 
			},
			{
				"x": -2.2173999478,
				"y": 0.5923813544,
				"z": 4.5424665391,
				"element": "O" 
			},
			{
				"x": -1.0030112888,
				"y": 0.6723467126,
				"z": 2.4560393768,
				"element": "C" 
			},
			{
				"x": 0.1428161707,
				"y": 1.6027311083,
				"z": 2.4916237174,
				"element": "N" 
			},
			{
				"x": -0.1438466027,
				"y": 3.0107311591,
				"z": 2.4371529262,
				"element": "C" 
			},
			{
				"x": -0.8900872286,
				"y": 3.5183752071,
				"z": 0.7898660699,
				"element": "S" 
			},
			{
				"x": -0.0908584676,
				"y": 2.4017184315,
				"z": -0.3604753556,
				"element": "C" 
			},
			{
				"x": -0.5398182075,
				"y": 2.6348330288,
				"z": -1.9551690503,
				"element": "S" 
			},
			{
				"x": 0.7609705254,
				"y": 1.456004363,
				"z": 0.099383433,
				"element": "N" 
			},
			{
				"x": 1.4873138245,
				"y": 0.5628815003,
				"z": -0.8309787518,
				"element": "C" 
			},
			{
				"x": 1.0063449116,
				"y": -0.8721659194,
				"z": -0.7621839569,
				"element": "C" 
			},
			{
				"x": -0.3071417347,
				"y": -1.197848024,
				"z": -1.135887206,
				"element": "C" 
			},
			{
				"x": -0.7486555846,
				"y": -2.5187199624,
				"z": -1.0767168607,
				"element": "C" 
			},
			{
				"x": 0.1138338362,
				"y": -3.5320246003,
				"z": -0.6473418892,
				"element": "C" 
			},
			{
				"x": 1.4216170964,
				"y": -3.2179907113,
				"z": -0.2790327408,
				"element": "C" 
			},
			{
				"x": 1.8632239062,
				"y": -1.8933695611,
				"z": -0.3348889376,
				"element": "C" 
			},
			{
				"x": 1.1518755795,
				"y": 1.2614065299,
				"z": 1.5281032115,
				"element": "C" 
			},
			{
				"x": -2.7854493447,
				"y": 2.2597471489,
				"z": 2.0786638241,
				"element": "H" 
			},
			{
				"x": -1.4277386753,
				"y": 0.5776808944,
				"z": 1.4442392806,
				"element": "H" 
			},
			{
				"x": -0.6374407682,
				"y": -0.3097099713,
				"z": 2.7614963373,
				"element": "H" 
			},
			{
				"x": -0.8647330221,
				"y": 3.3119065525,
				"z": 3.1980076389,
				"element": "H" 
			},
			{
				"x": 0.7808717066,
				"y": 3.5705642714,
				"z": 2.58801024,
				"element": "H" 
			},
			{
				"x": 1.3578147371,
				"y": 0.9756358221,
				"z": -1.8323190704,
				"element": "H" 
			},
			{
				"x": 2.5522800376,
				"y": 0.6169402338,
				"z": -0.5737577418,
				"element": "H" 
			},
			{
				"x": -0.9716370196,
				"y": -0.4124286191,
				"z": -1.4851980309,
				"element": "H" 
			},
			{
				"x": -1.7655288896,
				"y": -2.7602675559,
				"z": -1.3725212269,
				"element": "H" 
			},
			{
				"x": -0.2328957304,
				"y": -4.5603201689,
				"z": -0.6037375521,
				"element": "H" 
			},
			{
				"x": 2.0985783399,
				"y": -3.9996371975,
				"z": 0.0532676102,
				"element": "H" 
			},
			{
				"x": 2.885777061,
				"y": -1.6534132933,
				"z": -0.0516944624,
				"element": "H" 
			},
			{
				"x": 1.4041216341,
				"y": 0.203211142,
				"z": 1.6286952462,
				"element": "H" 
			},
			{
				"x": 2.0528619853,
				"y": 1.8547395485,
				"z": 1.729575762,
				"element": "H" 
			}
		],
		 "valence_orbital": [ 
			{
				"type": "occ",
				"energy": -0.26877,
				"method": "rhf"
			},
			{
				"type": "occ",
				"energy": -0.26389,
				"method": "rhf"
			},
			{
				"type": "occ",
				"energy": -0.26105,
				"method": "rhf"
			},
			{
				"type": "occ",
				"energy": -0.23287,
				"method": "rhf"
			},
			{
				"type": "occ",
				"energy": -0.22102,
				"method": "rhf"
			},
			{
				"type": "unocc",
				"energy": -0.04699,
				"method": "rhf"
			},
			{
				"type": "unocc",
				"energy": -0.0239,
				"method": "rhf"
			},
			{
				"type": "unocc",
				"energy": -0.0168,
				"method": "rhf"
			},
			{
				"type": "unocc",
				"energy": -0.01419,
				"method": "rhf"
			},
			{
				"type": "unocc",
				"energy": 0.00898,
				"method": "rhf"
			}
		],
		"cosmo_sigma_profile": { 
			"-0.025": 0.0,
			"-0.024": 0.0,
			"-0.023": 0.0,
			"-0.022": 0.0,
			"-0.021": 0.0,
			"-0.02": 0.0,
			"-0.019": 0.0,
			"-0.018": 0.0,
			"-0.017": 0.0,
			"-0.016": 0.0,
			"-0.015": 0.209392218913,
			"-0.014": 0.80524752965,
			"-0.013": 0.96416255722,
			"-0.012": 0.974491817656,
			"-0.011": 1.27090691168,
			"-0.01": 2.36788469103,
			"-0.009": 6.65945507327,
			"-0.008": 14.686811665,
			"-0.007": 15.5822500249,
			"-0.006": 19.6513704461,
			"-0.005": 19.2280809073,
			"-0.004": 19.8716865691,
			"-0.003": 20.7398659752,
			"-0.002": 16.4483581833,
			"-0.001": 12.9577347771,
			"0.0": 10.7939169967,
			"0.001": 13.4929972574,
			"0.002": 13.0379910287,
			"0.003": 15.4487965654,
			"0.004": 17.0501478522,
			"0.005": 16.7673167005,
			"0.006": 11.6004166499,
			"0.007": 8.63213564486,
			"0.008": 10.7670126606,
			"0.009": 9.98088058124,
			"0.01": 8.83125403966,
			"0.011": 7.87005382785,
			"0.012": 3.27151848675,
			"0.013": 0.226502241923,
			"0.014": 0.0,
			"0.015": 0.0,
			"0.016": 0.0,
			"0.017": 0.0,
			"0.018": 0.0,
			"0.019": 0.0,
			"0.02": 0.0,
			"0.021": 0.0,
			"0.022": 0.0,
			"0.023": 0.0,
			"0.024": 0.0,
			"0.025": 0.0
		}
	}
}
