{
	 "smiles": "CC1=CC(C)=C(N)C=C1C(O)=O", 
	 "Tm": 477.15, 
	 "num_atms": 23, 
	 "gaussian": { 
		 "optdone": 1, 
		 "sigma_profile": "yes", 
		 "theory": "DFT", 
		 "functional": "B3LYP", 
		 "basiset": "6-31G**", 
		 "properties": { 
			 "R2extent": 2373.1117, 
			 "electric_dipole_moment_norm": 3.30910038228, 
			 "electric_quadrupole_moment_norm": 7.77649093036, 
			 "total_energy": -554.821798238, 
			 "HOMO_LUMO_gap": 0.16534, 
			 "cosmo_polarized_energy": -12.63, 
			 "cosmo_cavitation_energy": 26.23, 
			 "cosmo_dispersion_energy": -19.45, 
			 "cosmo_repulsion_energy": 1.55, 
			 "cosmo_total_nonelectrostatic_energy": 8.33, 
			 "SMD_solvation_energy": 5.55 
		},
		"coords": [
			{
				"x": 2.9204045907,
				"y": -0.5541482102,
				"z": 1.4136225587,
				"element": "C" 
			},
			{
				"x": 1.6660107913,
				"y": -0.0792910081,
				"z": 0.7193274026,
				"element": "C" 
			},
			{
				"x": 1.652582498,
				"y": 1.1916777696,
				"z": 0.1324377388,
				"element": "C" 
			},
			{
				"x": 0.5495051733,
				"y": 1.7314859046,
				"z": -0.5302436765,
				"element": "C" 
			},
			{
				"x": 0.5949540913,
				"y": 3.1158643188,
				"z": -1.1239728355,
				"element": "C" 
			},
			{
				"x": -0.6257662911,
				"y": 0.9540957494,
				"z": -0.6265916321,
				"element": "C" 
			},
			{
				"x": -1.7756672021,
				"y": 1.4776619642,
				"z": -1.231050524,
				"element": "N" 
			},
			{
				"x": -0.6395170009,
				"y": -0.3181975713,
				"z": -0.0512536943,
				"element": "C" 
			},
			{
				"x": 0.4782427294,
				"y": -0.839882731,
				"z": 0.6176910261,
				"element": "C" 
			},
			{
				"x": 0.3904650758,
				"y": -2.2002094643,
				"z": 1.2061824632,
				"element": "C" 
			},
			{
				"x": -0.8213520213,
				"y": -2.7925378361,
				"z": 1.0088737809,
				"element": "O" 
			},
			{
				"x": 1.2715188511,
				"y": -2.7826148851,
				"z": 1.812562508,
				"element": "O" 
			},
			{
				"x": 3.3083675665,
				"y": -1.4744057906,
				"z": 0.9679668809,
				"element": "H" 
			},
			{
				"x": 2.7387263676,
				"y": -0.787154372,
				"z": 2.4664673929,
				"element": "H" 
			},
			{
				"x": 3.6943529809,
				"y": 0.2168604262,
				"z": 1.3540568972,
				"element": "H" 
			},
			{
				"x": 2.5533937385,
				"y": 1.7976330737,
				"z": 0.1996772572,
				"element": "H" 
			},
			{
				"x": 0.481069586,
				"y": 3.0969425024,
				"z": -2.2174413646,
				"element": "H" 
			},
			{
				"x": -0.2139408445,
				"y": 3.7432157498,
				"z": -0.7296851849,
				"element": "H" 
			},
			{
				"x": 1.5453704491,
				"y": 3.6088102939,
				"z": -0.9062873024,
				"element": "H" 
			},
			{
				"x": -1.6072172466,
				"y": 2.1175737772,
				"z": -1.9953706268,
				"element": "H" 
			},
			{
				"x": -2.4673604885,
				"y": 0.7831214286,
				"z": -1.4795167139,
				"element": "H" 
			},
			{
				"x": -1.5376810963,
				"y": -0.9224228676,
				"z": -0.1175292008,
				"element": "H" 
			},
			{
				"x": -0.7480622983,
				"y": -3.6606782221,
				"z": 1.4371768493,
				"element": "H" 
			}
		],
		 "valence_orbital": [ 
			{
				"type": "occ",
				"energy": -0.30971,
				"method": "rhf"
			},
			{
				"type": "occ",
				"energy": -0.30013,
				"method": "rhf"
			},
			{
				"type": "occ",
				"energy": -0.26346,
				"method": "rhf"
			},
			{
				"type": "occ",
				"energy": -0.24603,
				"method": "rhf"
			},
			{
				"type": "occ",
				"energy": -0.20218,
				"method": "rhf"
			},
			{
				"type": "unocc",
				"energy": -0.03684,
				"method": "rhf"
			},
			{
				"type": "unocc",
				"energy": 0.01442,
				"method": "rhf"
			},
			{
				"type": "unocc",
				"energy": 0.06693,
				"method": "rhf"
			},
			{
				"type": "unocc",
				"energy": 0.07412,
				"method": "rhf"
			},
			{
				"type": "unocc",
				"energy": 0.08725,
				"method": "rhf"
			}
		],
		"cosmo_sigma_profile": { 
			"-0.025": 0.0,
			"-0.024": 0.0,
			"-0.023": 0.0,
			"-0.022": 0.0,
			"-0.021": 0.0,
			"-0.02": 0.0,
			"-0.019": 0.0,
			"-0.018": 0.392355402561,
			"-0.017": 0.808661232195,
			"-0.016": 0.828229545138,
			"-0.015": 0.81677711171,
			"-0.014": 0.637273219245,
			"-0.013": 0.671042287573,
			"-0.012": 2.41077500323,
			"-0.011": 3.05717165219,
			"-0.01": 4.18181970141,
			"-0.009": 3.22289151838,
			"-0.008": 4.01638796966,
			"-0.007": 3.90511761545,
			"-0.006": 3.96637324875,
			"-0.005": 7.42827901998,
			"-0.004": 11.7799355482,
			"-0.003": 12.5742119097,
			"-0.002": 14.4093024018,
			"-0.001": 16.7738169198,
			"0.0": 20.532514301,
			"0.001": 16.5621928329,
			"0.002": 12.7945759258,
			"0.003": 11.75236136,
			"0.004": 11.8473162579,
			"0.005": 13.3177851125,
			"0.006": 5.78801149478,
			"0.007": 4.39214174564,
			"0.008": 3.80237052092,
			"0.009": 1.96718133601,
			"0.01": 2.00810096875,
			"0.011": 3.56202625409,
			"0.012": 4.16780669604,
			"0.013": 1.54058466903,
			"0.014": 0.408401679588,
			"0.015": 0.343257824019,
			"0.016": 0.0,
			"0.017": 0.0,
			"0.018": 0.0,
			"0.019": 0.0,
			"0.02": 0.0,
			"0.021": 0.0,
			"0.022": 0.0,
			"0.023": 0.0,
			"0.024": 0.0,
			"0.025": 0.0
		}
	}
}
