{
	 "smiles": "CCOC(=O)C1=NC=CN1", 
	 "Tm": 450.15, 
	 "num_atms": 18, 
	 "gaussian": { 
		 "optdone": 1, 
		 "sigma_profile": "yes", 
		 "theory": "DFT", 
		 "functional": "B3LYP", 
		 "basiset": "6-31G**", 
		 "properties": { 
			 "R2extent": 2070.2208, 
			 "electric_dipole_moment_norm": 1.5542271906, 
			 "electric_quadrupole_moment_norm": 15.9808824866, 
			 "total_energy": -493.42025773, 
			 "HOMO_LUMO_gap": 0.20246, 
			 "cosmo_polarized_energy": -13.45, 
			 "cosmo_cavitation_energy": 22.81, 
			 "cosmo_dispersion_energy": -16.94, 
			 "cosmo_repulsion_energy": 1.41, 
			 "cosmo_total_nonelectrostatic_energy": 7.28, 
			 "SMD_solvation_energy": 3.9 
		},
		"coords": [
			{
				"x": 2.5387171646,
				"y": 2.490455321,
				"z": -0.0856452138,
				"element": "C" 
			},
			{
				"x": 1.1436043631,
				"y": 1.940503003,
				"z": -0.3102134166,
				"element": "C" 
			},
			{
				"x": 1.2489342458,
				"y": 0.4976602162,
				"z": -0.3390979928,
				"element": "O" 
			},
			{
				"x": 0.1023619345,
				"y": -0.1641189629,
				"z": -0.5300660808,
				"element": "C" 
			},
			{
				"x": -0.9921102706,
				"y": 0.3590419702,
				"z": -0.6771136903,
				"element": "O" 
			},
			{
				"x": 0.272069172,
				"y": -1.626718239,
				"z": -0.5506476772,
				"element": "C" 
			},
			{
				"x": 1.36475264,
				"y": -2.3608923509,
				"z": -0.4110936012,
				"element": "N" 
			},
			{
				"x": 0.9393750055,
				"y": -3.6558236255,
				"z": -0.514985744,
				"element": "C" 
			},
			{
				"x": -0.427080651,
				"y": -3.709898092,
				"z": -0.7200360256,
				"element": "C" 
			},
			{
				"x": -0.8374914711,
				"y": -2.4066242482,
				"z": -0.7402064205,
				"element": "N" 
			},
			{
				"x": 2.5052272787,
				"y": 3.5840378158,
				"z": -0.0568643277,
				"element": "H" 
			},
			{
				"x": 2.9515865394,
				"y": 2.1317930503,
				"z": 0.8612854343,
				"element": "H" 
			},
			{
				"x": 3.2123887938,
				"y": 2.1859030209,
				"z": -0.8913680432,
				"element": "H" 
			},
			{
				"x": 0.712262932,
				"y": 2.2812996176,
				"z": -1.2569209879,
				"element": "H" 
			},
			{
				"x": 0.4525167353,
				"y": 2.2273985306,
				"z": 0.4888754555,
				"element": "H" 
			},
			{
				"x": 1.6286593476,
				"y": -4.4854156875,
				"z": -0.4384146452,
				"element": "H" 
			},
			{
				"x": -1.1105473973,
				"y": -4.5352221457,
				"z": -0.8476109393,
				"element": "H" 
			},
			{
				"x": -1.7681263621,
				"y": -2.034479194,
				"z": -0.8669760837,
				"element": "H" 
			}
		],
		 "valence_orbital": [ 
			{
				"type": "occ",
				"energy": -0.30163,
				"method": "rhf"
			},
			{
				"type": "occ",
				"energy": -0.29093,
				"method": "rhf"
			},
			{
				"type": "occ",
				"energy": -0.28509,
				"method": "rhf"
			},
			{
				"type": "occ",
				"energy": -0.27217,
				"method": "rhf"
			},
			{
				"type": "occ",
				"energy": -0.23783,
				"method": "rhf"
			},
			{
				"type": "unocc",
				"energy": -0.03537,
				"method": "rhf"
			},
			{
				"type": "unocc",
				"energy": 0.04849,
				"method": "rhf"
			},
			{
				"type": "unocc",
				"energy": 0.08562,
				"method": "rhf"
			},
			{
				"type": "unocc",
				"energy": 0.10383,
				"method": "rhf"
			},
			{
				"type": "unocc",
				"energy": 0.10927,
				"method": "rhf"
			}
		],
		"cosmo_sigma_profile": { 
			"-0.025": 0.0,
			"-0.024": 0.0,
			"-0.023": 0.0,
			"-0.022": 0.0,
			"-0.021": 0.0,
			"-0.02": 0.0,
			"-0.019": 0.0,
			"-0.018": 0.0,
			"-0.017": 0.433014582053,
			"-0.016": 0.962575128886,
			"-0.015": 0.891353866403,
			"-0.014": 0.970049794328,
			"-0.013": 0.794645117184,
			"-0.012": 0.975458604105,
			"-0.011": 0.830416396507,
			"-0.01": 1.40638547021,
			"-0.009": 3.46459296805,
			"-0.008": 3.14980854483,
			"-0.007": 3.98643031663,
			"-0.006": 5.05498815315,
			"-0.005": 10.5299597608,
			"-0.004": 17.9397240808,
			"-0.003": 17.5750159054,
			"-0.002": 15.7434166046,
			"-0.001": 14.6380878649,
			"0.0": 13.3281168701,
			"0.001": 9.67463345413,
			"0.002": 7.98265637547,
			"0.003": 7.22543057501,
			"0.004": 6.37788959508,
			"0.005": 4.69925664462,
			"0.006": 3.25994972067,
			"0.007": 3.5115390371,
			"0.008": 4.04606591499,
			"0.009": 2.47047660431,
			"0.01": 3.98116432638,
			"0.011": 4.44089383415,
			"0.012": 4.6560453881,
			"0.013": 1.6563472174,
			"0.014": 1.78576484561,
			"0.015": 0.812614282342,
			"0.016": 1.47888509137,
			"0.017": 0.663584202439,
			"0.018": 0.00400755594115,
			"0.019": 0.0,
			"0.02": 0.0,
			"0.021": 0.0,
			"0.022": 0.0,
			"0.023": 0.0,
			"0.024": 0.0,
			"0.025": 0.0
		}
	}
}
