{
	 "smiles": "OC(=O)C1=C(Br)C=CC=C1Br", 
	 "Tm": 423.15, 
	 "num_atms": 15, 
	 "gaussian": { 
		 "optdone": 1, 
		 "sigma_profile": "yes", 
		 "theory": "DFT", 
		 "functional": "B3LYP", 
		 "basiset": "6-31G**", 
		 "properties": { 
			 "R2extent": 3567.5654, 
			 "electric_dipole_moment_norm": 2.39749255265, 
			 "electric_quadrupole_moment_norm": 15.73160853, 
			 "total_energy": -5562.41186955, 
			 "HOMO_LUMO_gap": 0.2173, 
			 "cosmo_polarized_energy": -10.46, 
			 "cosmo_cavitation_energy": 24.82, 
			 "cosmo_dispersion_energy": -18.5, 
			 "cosmo_repulsion_energy": 1.5, 
			 "cosmo_total_nonelectrostatic_energy": 7.82, 
			 "SMD_solvation_energy": 3.17 
		},
		"coords": [
			{
				"x": 1.3997486493,
				"y": -0.5416707029,
				"z": -1.0075908916,
				"element": "O" 
			},
			{
				"x": 0.9636636698,
				"y": 0.6966181331,
				"z": -0.7062121494,
				"element": "C" 
			},
			{
				"x": 1.5744642039,
				"y": 1.7084598987,
				"z": -0.951743333,
				"element": "O" 
			},
			{
				"x": -0.3805536416,
				"y": 0.6577404944,
				"z": -0.0254666716,
				"element": "C" 
			},
			{
				"x": -0.4842028133,
				"y": 0.5924338908,
				"z": 1.3691947199,
				"element": "C" 
			},
			{
				"x": 1.0957725959,
				"y": 0.4816727008,
				"z": 2.4343236288,
				"element": "Br" 
			},
			{
				"x": -1.7201679983,
				"y": 0.6042816558,
				"z": 2.0118152498,
				"element": "C" 
			},
			{
				"x": -2.8836756204,
				"y": 0.681384837,
				"z": 1.2483349473,
				"element": "C" 
			},
			{
				"x": -2.8150820802,
				"y": 0.7434594531,
				"z": -0.1423619505,
				"element": "C" 
			},
			{
				"x": -1.5681309861,
				"y": 0.730183605,
				"z": -0.7633646227,
				"element": "C" 
			},
			{
				"x": -1.4981653457,
				"y": 0.8111143398,
				"z": -2.6690638111,
				"element": "Br" 
			},
			{
				"x": 2.2645536793,
				"y": -0.4313889022,
				"z": -1.4402194178,
				"element": "H" 
			},
			{
				"x": -1.7654942366,
				"y": 0.5532394229,
				"z": 3.0931120132,
				"element": "H" 
			},
			{
				"x": -3.8510748627,
				"y": 0.6923014914,
				"z": 1.7407506469,
				"element": "H" 
			},
			{
				"x": -3.7151552134,
				"y": 0.8010696824,
				"z": -0.7427083583,
				"element": "H" 
			}
		],
		 "valence_orbital": [ 
			{
				"type": "occ",
				"energy": -0.3037,
				"method": "rhf"
			},
			{
				"type": "occ",
				"energy": -0.29631,
				"method": "rhf"
			},
			{
				"type": "occ",
				"energy": -0.29256,
				"method": "rhf"
			},
			{
				"type": "occ",
				"energy": -0.26448,
				"method": "rhf"
			},
			{
				"type": "occ",
				"energy": -0.2544,
				"method": "rhf"
			},
			{
				"type": "unocc",
				"energy": -0.0371,
				"method": "rhf"
			},
			{
				"type": "unocc",
				"energy": -0.03408,
				"method": "rhf"
			},
			{
				"type": "unocc",
				"energy": -0.02414,
				"method": "rhf"
			},
			{
				"type": "unocc",
				"energy": -0.00709,
				"method": "rhf"
			},
			{
				"type": "unocc",
				"energy": 0.01947,
				"method": "rhf"
			}
		],
		"cosmo_sigma_profile": { 
			"-0.025": 0.0,
			"-0.024": 0.0,
			"-0.023": 0.0,
			"-0.022": 0.0,
			"-0.021": 0.0,
			"-0.02": 0.0303159084545,
			"-0.019": 0.617374396653,
			"-0.018": 1.04156584927,
			"-0.017": 1.02248813906,
			"-0.016": 0.865232123641,
			"-0.015": 0.524386030114,
			"-0.014": 0.47441230489,
			"-0.013": 0.620949535569,
			"-0.012": 1.12052032491,
			"-0.011": 0.970744581304,
			"-0.01": 0.526576997942,
			"-0.009": 0.740042802341,
			"-0.008": 5.72107824769,
			"-0.007": 8.21535281717,
			"-0.006": 6.79496611619,
			"-0.005": 7.20873807023,
			"-0.004": 8.56629480598,
			"-0.003": 9.05156372734,
			"-0.002": 9.26111023399,
			"-0.001": 10.6193627032,
			"0.0": 24.3550863424,
			"0.001": 24.8360756209,
			"0.002": 21.3250361617,
			"0.003": 22.6363435398,
			"0.004": 14.8146634386,
			"0.005": 3.36125551585,
			"0.006": 2.47000979729,
			"0.007": 3.36075109664,
			"0.008": 3.31954503096,
			"0.009": 2.64752694453,
			"0.01": 3.99036204959,
			"0.011": 4.19448472069,
			"0.012": 0.477872369064,
			"0.013": 0.0,
			"0.014": 0.0,
			"0.015": 0.0,
			"0.016": 0.0,
			"0.017": 0.0,
			"0.018": 0.0,
			"0.019": 0.0,
			"0.02": 0.0,
			"0.021": 0.0,
			"0.022": 0.0,
			"0.023": 0.0,
			"0.024": 0.0,
			"0.025": 0.0
		}
	}
}
