{
	 "smiles": "NC1=CC=C2N=CC=NC2=C1", 
	 "Tm": 432.15, 
	 "num_atms": 18, 
	 "gaussian": { 
		 "optdone": 1, 
		 "sigma_profile": "yes", 
		 "theory": "DFT", 
		 "functional": "B3LYP", 
		 "basiset": "6-31G**", 
		 "properties": { 
			 "R2extent": 2317.8729, 
			 "electric_dipole_moment_norm": 2.79638444782, 
			 "electric_quadrupole_moment_norm": 10.9605953333, 
			 "total_energy": -473.324505641, 
			 "HOMO_LUMO_gap": 0.15005, 
			 "cosmo_polarized_energy": -12.18, 
			 "cosmo_cavitation_energy": 22.15, 
			 "cosmo_dispersion_energy": -16.91, 
			 "cosmo_repulsion_energy": 1.34, 
			 "cosmo_total_nonelectrostatic_energy": 6.58, 
			 "SMD_solvation_energy": 0.74 
		},
		"coords": [
			{
				"x": 0.4878322377,
				"y": 0.6878593433,
				"z": 1.9768955071,
				"element": "N" 
			},
			{
				"x": -0.0980536706,
				"y": -0.1861534141,
				"z": 1.070495533,
				"element": "C" 
			},
			{
				"x": -0.7693779586,
				"y": -1.348469034,
				"z": 1.5643516348,
				"element": "C" 
			},
			{
				"x": -1.4070026155,
				"y": -2.2152982427,
				"z": 0.7140915478,
				"element": "C" 
			},
			{
				"x": -1.419136881,
				"y": -1.9741971285,
				"z": -0.6855413119,
				"element": "C" 
			},
			{
				"x": -2.0558192318,
				"y": -2.8428727776,
				"z": -1.5152574446,
				"element": "N" 
			},
			{
				"x": -2.0229672524,
				"y": -2.5527228429,
				"z": -2.8020008775,
				"element": "C" 
			},
			{
				"x": -1.3609372172,
				"y": -1.4016734463,
				"z": -3.3026202515,
				"element": "C" 
			},
			{
				"x": -0.7341808083,
				"y": -0.540327717,
				"z": -2.5269057851,
				"element": "N" 
			},
			{
				"x": -0.7511846782,
				"y": -0.810265693,
				"z": -1.1868027042,
				"element": "C" 
			},
			{
				"x": -0.0963367417,
				"y": 0.0664531604,
				"z": -0.2940351894,
				"element": "C" 
			},
			{
				"x": 1.1680797739,
				"y": 1.3303905813,
				"z": 1.5968256119,
				"element": "H" 
			},
			{
				"x": 0.7738913889,
				"y": 0.2895171337,
				"z": 2.8596844174,
				"element": "H" 
			},
			{
				"x": -0.7723664579,
				"y": -1.5341778939,
				"z": 2.6356666125,
				"element": "H" 
			},
			{
				"x": -1.9160130448,
				"y": -3.1001209622,
				"z": 1.0826777446,
				"element": "H" 
			},
			{
				"x": -2.5274068375,
				"y": -3.2343913641,
				"z": -3.484891421,
				"element": "H" 
			},
			{
				"x": -1.3576982302,
				"y": -1.2011717934,
				"z": -4.3736321941,
				"element": "H" 
			},
			{
				"x": 0.4011782252,
				"y": 0.9380220911,
				"z": -0.7090014297,
				"element": "H" 
			}
		],
		 "valence_orbital": [ 
			{
				"type": "occ",
				"energy": -0.30156,
				"method": "rhf"
			},
			{
				"type": "occ",
				"energy": -0.29778,
				"method": "rhf"
			},
			{
				"type": "occ",
				"energy": -0.24676,
				"method": "rhf"
			},
			{
				"type": "occ",
				"energy": -0.23677,
				"method": "rhf"
			},
			{
				"type": "occ",
				"energy": -0.20969,
				"method": "rhf"
			},
			{
				"type": "unocc",
				"energy": -0.05964,
				"method": "rhf"
			},
			{
				"type": "unocc",
				"energy": -0.01037,
				"method": "rhf"
			},
			{
				"type": "unocc",
				"energy": 0.01839,
				"method": "rhf"
			},
			{
				"type": "unocc",
				"energy": 0.07056,
				"method": "rhf"
			},
			{
				"type": "unocc",
				"energy": 0.09505,
				"method": "rhf"
			}
		],
		"cosmo_sigma_profile": { 
			"-0.025": 0.0,
			"-0.024": 0.0,
			"-0.023": 0.0,
			"-0.022": 0.0,
			"-0.021": 0.0,
			"-0.02": 0.0,
			"-0.019": 0.0,
			"-0.018": 0.0,
			"-0.017": 0.0,
			"-0.016": 0.0,
			"-0.015": 0.0,
			"-0.014": 0.0630321354847,
			"-0.013": 2.00344830794,
			"-0.012": 3.24122221686,
			"-0.011": 2.22556753091,
			"-0.01": 4.13082276129,
			"-0.009": 2.9868286692,
			"-0.008": 3.41368776026,
			"-0.007": 7.24263055935,
			"-0.006": 10.7588689265,
			"-0.005": 9.61582555524,
			"-0.004": 8.76296179188,
			"-0.003": 6.87375914991,
			"-0.002": 7.76308473972,
			"-0.001": 8.9370468368,
			"0.0": 13.8280046488,
			"0.001": 11.8191903384,
			"0.002": 12.6876433618,
			"0.003": 15.7521409282,
			"0.004": 13.4055818832,
			"0.005": 5.64972213072,
			"0.006": 3.68014093605,
			"0.007": 3.87687932601,
			"0.008": 3.93817459945,
			"0.009": 2.29819672009,
			"0.01": 2.2534318515,
			"0.011": 2.18138631052,
			"0.012": 3.04706152628,
			"0.013": 1.87152737807,
			"0.014": 1.27544186396,
			"0.015": 1.80178759062,
			"0.016": 0.36157173195,
			"0.017": 0.0,
			"0.018": 0.0,
			"0.019": 0.0,
			"0.02": 0.0,
			"0.021": 0.0,
			"0.022": 0.0,
			"0.023": 0.0,
			"0.024": 0.0,
			"0.025": 0.0
		}
	}
}
