{
	 "smiles": "OCCN(CCO)CCC1=CC=C(CSC2=CC=CC=C2)C=C1", 
	 "Tm": 353.15, 
	 "num_atms": 48, 
	 "gaussian": { 
		 "optdone": 1, 
		 "sigma_profile": "yes", 
		 "theory": "DFT", 
		 "functional": "B3LYP", 
		 "basiset": "6-31G**", 
		 "properties": { 
			 "R2extent": 11762.7837, 
			 "electric_dipole_moment_norm": 4.41766129756, 
			 "electric_quadrupole_moment_norm": 11.2891444499, 
			 "total_energy": -1342.44704863, 
			 "HOMO_LUMO_gap": 0.18813, 
			 "cosmo_polarized_energy": -17.37, 
			 "cosmo_cavitation_energy": 51.52, 
			 "cosmo_dispersion_energy": -33.94, 
			 "cosmo_repulsion_energy": 2.6, 
			 "cosmo_total_nonelectrostatic_energy": 20.18, 
			 "SMD_solvation_energy": 6.49 
		},
		"coords": [
			{
				"x": 0.053719336,
				"y": -0.38284812,
				"z": 4.4279543466,
				"element": "O" 
			},
			{
				"x": 1.4036798835,
				"y": -0.4571824566,
				"z": 4.875281574,
				"element": "C" 
			},
			{
				"x": 2.4012627155,
				"y": -1.0064562563,
				"z": 3.849011496,
				"element": "C" 
			},
			{
				"x": 2.6752928385,
				"y": -0.1140281136,
				"z": 2.7288142623,
				"element": "N" 
			},
			{
				"x": 3.9802118971,
				"y": -0.3236466574,
				"z": 2.1057498946,
				"element": "C" 
			},
			{
				"x": 4.5833636505,
				"y": 0.9357773184,
				"z": 1.4895886588,
				"element": "C" 
			},
			{
				"x": 3.8805060669,
				"y": 1.2774515759,
				"z": 0.2976364852,
				"element": "O" 
			},
			{
				"x": 1.5612936026,
				"y": 0.0135045916,
				"z": 1.7708790988,
				"element": "C" 
			},
			{
				"x": 0.9068490038,
				"y": 1.4090620917,
				"z": 1.7940053121,
				"element": "C" 
			},
			{
				"x": -0.2888132186,
				"y": 1.4869678148,
				"z": 0.8729660222,
				"element": "C" 
			},
			{
				"x": -1.5749705836,
				"y": 1.175058392,
				"z": 1.3417747928,
				"element": "C" 
			},
			{
				"x": -2.6768525041,
				"y": 1.2111479087,
				"z": 0.4915325989,
				"element": "C" 
			},
			{
				"x": -2.5325174456,
				"y": 1.5600032442,
				"z": -0.8596599891,
				"element": "C" 
			},
			{
				"x": -3.722159955,
				"y": 1.6066633844,
				"z": -1.7790942938,
				"element": "C" 
			},
			{
				"x": -4.3575217231,
				"y": -0.0501742987,
				"z": -2.3548353125,
				"element": "S" 
			},
			{
				"x": -3.0196157032,
				"y": -0.6053705687,
				"z": -3.4144248302,
				"element": "C" 
			},
			{
				"x": -1.9288385826,
				"y": -1.3049912418,
				"z": -2.8792776367,
				"element": "C" 
			},
			{
				"x": -0.9099245615,
				"y": -1.7609043073,
				"z": -3.7175597362,
				"element": "C" 
			},
			{
				"x": -0.9749737388,
				"y": -1.5289442524,
				"z": -5.0928665374,
				"element": "C" 
			},
			{
				"x": -2.0625141882,
				"y": -0.8377662571,
				"z": -5.6313142392,
				"element": "C" 
			},
			{
				"x": -3.0816401565,
				"y": -0.3768425809,
				"z": -4.7965183815,
				"element": "C" 
			},
			{
				"x": -1.2494156482,
				"y": 1.8644408708,
				"z": -1.3310788874,
				"element": "C" 
			},
			{
				"x": -0.1456888476,
				"y": 1.827542529,
				"z": -0.4774159332,
				"element": "C" 
			},
			{
				"x": -0.2377895154,
				"y": -1.2796757189,
				"z": 4.2173077365,
				"element": "H" 
			},
			{
				"x": 1.4741671593,
				"y": -1.0722195395,
				"z": 5.787497138,
				"element": "H" 
			},
			{
				"x": 1.6885313309,
				"y": 0.5661028423,
				"z": 5.1363566798,
				"element": "H" 
			},
			{
				"x": 2.0506957221,
				"y": -2.0089805043,
				"z": 3.5216196374,
				"element": "H" 
			},
			{
				"x": 3.3402333224,
				"y": -1.1734579527,
				"z": 4.3905080484,
				"element": "H" 
			},
			{
				"x": 4.6811129831,
				"y": -0.6530728989,
				"z": 2.881199764,
				"element": "H" 
			},
			{
				"x": 3.9645435167,
				"y": -1.1141544859,
				"z": 1.332349079,
				"element": "H" 
			},
			{
				"x": 5.6452103375,
				"y": 0.7377449488,
				"z": 1.2681186227,
				"element": "H" 
			},
			{
				"x": 4.5318771698,
				"y": 1.7455716012,
				"z": 2.2318834952,
				"element": "H" 
			},
			{
				"x": 4.2184397528,
				"y": 2.1246924105,
				"z": -0.0166337484,
				"element": "H" 
			},
			{
				"x": 0.7933726096,
				"y": -0.7370608748,
				"z": 1.9939878627,
				"element": "H" 
			},
			{
				"x": 1.9239780701,
				"y": -0.1857151875,
				"z": 0.757284856,
				"element": "H" 
			},
			{
				"x": 1.6642646427,
				"y": 2.1416041948,
				"z": 1.4988106151,
				"element": "H" 
			},
			{
				"x": 0.6015252383,
				"y": 1.6301418368,
				"z": 2.8202413436,
				"element": "H" 
			},
			{
				"x": -1.702078618,
				"y": 0.9075239785,
				"z": 2.3880266775,
				"element": "H" 
			},
			{
				"x": -3.6639282415,
				"y": 0.9663595375,
				"z": 0.8770071224,
				"element": "H" 
			},
			{
				"x": -4.5946997924,
				"y": 2.0364552755,
				"z": -1.2772095263,
				"element": "H" 
			},
			{
				"x": -3.5158118439,
				"y": 2.2097954446,
				"z": -2.6667023676,
				"element": "H" 
			},
			{
				"x": -1.8856816383,
				"y": -1.4871227673,
				"z": -1.8109159034,
				"element": "H" 
			},
			{
				"x": -0.0665185065,
				"y": -2.2997901473,
				"z": -3.2951145407,
				"element": "H" 
			},
			{
				"x": -0.1829565451,
				"y": -1.8888709265,
				"z": -5.7435552086,
				"element": "H" 
			},
			{
				"x": -2.1196569216,
				"y": -0.6592082751,
				"z": -6.7014921742,
				"element": "H" 
			},
			{
				"x": -3.9323254579,
				"y": 0.1561953866,
				"z": -5.2098827262,
				"element": "H" 
			},
			{
				"x": -1.1143628929,
				"y": 2.1375644154,
				"z": -2.3746804967,
				"element": "H" 
			},
			{
				"x": 0.8429259803,
				"y": 2.0663127953,
				"z": -0.8623607515,
				"element": "H" 
			}
		],
		 "valence_orbital": [ 
			{
				"type": "occ",
				"energy": -0.24757,
				"method": "rhf"
			},
			{
				"type": "occ",
				"energy": -0.23639,
				"method": "rhf"
			},
			{
				"type": "occ",
				"energy": -0.22665,
				"method": "rhf"
			},
			{
				"type": "occ",
				"energy": -0.21425,
				"method": "rhf"
			},
			{
				"type": "occ",
				"energy": -0.20389,
				"method": "rhf"
			},
			{
				"type": "unocc",
				"energy": -0.01576,
				"method": "rhf"
			},
			{
				"type": "unocc",
				"energy": -0.00056,
				"method": "rhf"
			},
			{
				"type": "unocc",
				"energy": 0.00706,
				"method": "rhf"
			},
			{
				"type": "unocc",
				"energy": 0.01232,
				"method": "rhf"
			},
			{
				"type": "unocc",
				"energy": 0.06124,
				"method": "rhf"
			}
		],
		"cosmo_sigma_profile": { 
			"-0.025": 0.0,
			"-0.024": 0.0,
			"-0.023": 0.0,
			"-0.022": 0.0,
			"-0.021": 0.0,
			"-0.02": 0.0,
			"-0.019": 0.0,
			"-0.018": 0.0,
			"-0.017": 0.0,
			"-0.016": 0.178248101861,
			"-0.015": 1.71728822052,
			"-0.014": 1.66446668999,
			"-0.013": 2.07875657118,
			"-0.012": 1.62439049422,
			"-0.011": 1.78149078034,
			"-0.01": 1.90787217759,
			"-0.009": 1.44938428226,
			"-0.008": 1.82596707824,
			"-0.007": 2.40521757526,
			"-0.006": 12.7548782258,
			"-0.005": 25.7272138088,
			"-0.004": 31.2863572749,
			"-0.003": 38.73062287,
			"-0.002": 37.6838704652,
			"-0.001": 34.5233217354,
			"0.0": 32.4970144812,
			"0.001": 28.5025609367,
			"0.002": 27.2270779133,
			"0.003": 24.6445045879,
			"0.004": 27.0802279522,
			"0.005": 26.8023448147,
			"0.006": 14.9004688319,
			"0.007": 6.69521245044,
			"0.008": 4.37855717279,
			"0.009": 4.95978556327,
			"0.01": 3.25459758325,
			"0.011": 1.99383744171,
			"0.012": 1.9859954403,
			"0.013": 1.23664916166,
			"0.014": 1.90884881211,
			"0.015": 0.23722052992,
			"0.016": 0.0,
			"0.017": 0.0,
			"0.018": 0.0,
			"0.019": 0.0,
			"0.02": 0.0,
			"0.021": 0.0,
			"0.022": 0.0,
			"0.023": 0.0,
			"0.024": 0.0,
			"0.025": 0.0
		}
	}
}
