{
	 "smiles": "OC(=O)CCCOC1=C(Cl)C=C(C=C1)S(Cl)(=O)=O", 
	 "Tm": 408.15, 
	 "num_atms": 28, 
	 "gaussian": { 
		 "optdone": 1, 
		 "sigma_profile": "yes", 
		 "theory": "DFT", 
		 "functional": "B3LYP", 
		 "basiset": "6-31G**", 
		 "properties": { 
			 "R2extent": 10626.0031, 
			 "electric_dipole_moment_norm": 7.07167760153, 
			 "electric_quadrupole_moment_norm": 33.007259904, 
			 "total_energy": -2081.71741617, 
			 "HOMO_LUMO_gap": 0.17073, 
			 "cosmo_polarized_energy": -21.56, 
			 "cosmo_cavitation_energy": 38.53, 
			 "cosmo_dispersion_energy": -27.55, 
			 "cosmo_repulsion_energy": 2.14, 
			 "cosmo_total_nonelectrostatic_energy": 13.12, 
			 "SMD_solvation_energy": 6.13 
		},
		"coords": [
			{
				"x": 1.9035955132,
				"y": 3.7994270119,
				"z": 0.9935028846,
				"element": "O" 
			},
			{
				"x": 2.0450756035,
				"y": 2.8133704091,
				"z": 0.072196183,
				"element": "C" 
			},
			{
				"x": 2.8305031856,
				"y": 1.9165712725,
				"z": 0.2638172861,
				"element": "O" 
			},
			{
				"x": 1.1695697136,
				"y": 2.94414135,
				"z": -1.1689756196,
				"element": "C" 
			},
			{
				"x": 1.3295335441,
				"y": 1.7728101488,
				"z": -2.1434946891,
				"element": "C" 
			},
			{
				"x": 0.7781351627,
				"y": 0.4565594649,
				"z": -1.6127895367,
				"element": "C" 
			},
			{
				"x": -0.632798003,
				"y": 0.6412629413,
				"z": -1.3945940734,
				"element": "O" 
			},
			{
				"x": -1.3660554132,
				"y": -0.3664897445,
				"z": -0.8903190679,
				"element": "C" 
			},
			{
				"x": -2.7435287779,
				"y": -0.1109857951,
				"z": -0.6891477357,
				"element": "C" 
			},
			{
				"x": -3.392430479,
				"y": 1.4582744253,
				"z": -1.096851902,
				"element": "Cl" 
			},
			{
				"x": -3.5835459631,
				"y": -1.087525704,
				"z": -0.1783277318,
				"element": "C" 
			},
			{
				"x": -3.0432844088,
				"y": -2.3382346128,
				"z": 0.1348810923,
				"element": "C" 
			},
			{
				"x": -1.6918367702,
				"y": -2.6219893761,
				"z": -0.0486634637,
				"element": "C" 
			},
			{
				"x": -0.8576838641,
				"y": -1.6343929857,
				"z": -0.5638488063,
				"element": "C" 
			},
			{
				"x": -4.1183074018,
				"y": -3.5992850328,
				"z": 0.7782601886,
				"element": "S" 
			},
			{
				"x": -3.9968863085,
				"y": -3.2433783925,
				"z": 2.882374985,
				"element": "Cl" 
			},
			{
				"x": -3.5124359613,
				"y": -4.9067263527,
				"z": 0.5584865626,
				"element": "O" 
			},
			{
				"x": -5.4943724711,
				"y": -3.3005948002,
				"z": 0.4016610727,
				"element": "O" 
			},
			{
				"x": 1.2346585981,
				"y": 4.4376783515,
				"z": 0.7065852724,
				"element": "H" 
			},
			{
				"x": 0.1209898749,
				"y": 3.0382093415,
				"z": -0.8601441298,
				"element": "H" 
			},
			{
				"x": 1.4317363039,
				"y": 3.8857326005,
				"z": -1.6693092726,
				"element": "H" 
			},
			{
				"x": 2.391040218,
				"y": 1.6224802216,
				"z": -2.3629674483,
				"element": "H" 
			},
			{
				"x": 0.8250623973,
				"y": 2.0161976874,
				"z": -3.0841581461,
				"element": "H" 
			},
			{
				"x": 0.9312483663,
				"y": -0.3465682763,
				"z": -2.3443044962,
				"element": "H" 
			},
			{
				"x": 1.269429703,
				"y": 0.184149201,
				"z": -0.6734755054,
				"element": "H" 
			},
			{
				"x": -4.6387179948,
				"y": -0.886464434,
				"z": -0.0367688826,
				"element": "H" 
			},
			{
				"x": -1.3007751701,
				"y": -3.6025485958,
				"z": 0.1971482751,
				"element": "H" 
			},
			{
				"x": 0.1920808024,
				"y": -1.852580325,
				"z": -0.7129732952,
				"element": "H" 
			}
		],
		 "valence_orbital": [ 
			{
				"type": "occ",
				"energy": -0.32591,
				"method": "rhf"
			},
			{
				"type": "occ",
				"energy": -0.31194,
				"method": "rhf"
			},
			{
				"type": "occ",
				"energy": -0.28822,
				"method": "rhf"
			},
			{
				"type": "occ",
				"energy": -0.28576,
				"method": "rhf"
			},
			{
				"type": "occ",
				"energy": -0.25973,
				"method": "rhf"
			},
			{
				"type": "unocc",
				"energy": -0.089,
				"method": "rhf"
			},
			{
				"type": "unocc",
				"energy": -0.04583,
				"method": "rhf"
			},
			{
				"type": "unocc",
				"energy": -0.04002,
				"method": "rhf"
			},
			{
				"type": "unocc",
				"energy": -0.00625,
				"method": "rhf"
			},
			{
				"type": "unocc",
				"energy": 0.00685,
				"method": "rhf"
			}
		],
		"cosmo_sigma_profile": { 
			"-0.025": 0.0,
			"-0.024": 0.0,
			"-0.023": 0.0,
			"-0.022": 0.0,
			"-0.021": 0.0,
			"-0.02": 0.00307439823384,
			"-0.019": 0.576269819976,
			"-0.018": 1.45454254623,
			"-0.017": 0.656569040005,
			"-0.016": 1.02109447312,
			"-0.015": 1.26059146025,
			"-0.014": 1.37087959424,
			"-0.013": 1.11390370591,
			"-0.012": 0.764098189636,
			"-0.011": 1.34989706161,
			"-0.01": 1.23094688303,
			"-0.009": 4.27837182875,
			"-0.008": 8.855667649,
			"-0.007": 10.4670380104,
			"-0.006": 13.7134631962,
			"-0.005": 16.8175143705,
			"-0.004": 19.4607180026,
			"-0.003": 18.1085535276,
			"-0.002": 18.9637036874,
			"-0.001": 27.1670297928,
			"0.0": 23.2726129753,
			"0.001": 17.9485968432,
			"0.002": 16.5899124697,
			"0.003": 25.5498313904,
			"0.004": 20.690906924,
			"0.005": 7.0340458833,
			"0.006": 6.60555083561,
			"0.007": 9.60295350811,
			"0.008": 13.4320173719,
			"0.009": 6.96953453443,
			"0.01": 4.97909199482,
			"0.011": 4.83846214565,
			"0.012": 4.15010340353,
			"0.013": 1.54688334116,
			"0.014": 0.107086346515,
			"0.015": 0.0,
			"0.016": 0.0,
			"0.017": 0.0,
			"0.018": 0.0,
			"0.019": 0.0,
			"0.02": 0.0,
			"0.021": 0.0,
			"0.022": 0.0,
			"0.023": 0.0,
			"0.024": 0.0,
			"0.025": 0.0
		}
	}
}
