{
	 "smiles": "OC(=O)CCC(NC(=O)C1=CC=CC=C1)C(O)=O", 
	 "Tm": 407.15, 
	 "num_atms": 31, 
	 "gaussian": { 
		 "optdone": 1, 
		 "sigma_profile": "yes", 
		 "theory": "DFT", 
		 "functional": "B3LYP", 
		 "basiset": "6-31G**", 
		 "properties": { 
			 "R2extent": 5386.7238, 
			 "electric_dipole_moment_norm": 2.61119173942, 
			 "electric_quadrupole_moment_norm": 29.3326631871, 
			 "total_energy": -896.017814626, 
			 "HOMO_LUMO_gap": 0.2091, 
			 "cosmo_polarized_energy": -27.73, 
			 "cosmo_cavitation_energy": 35.57, 
			 "cosmo_dispersion_energy": -24.1, 
			 "cosmo_repulsion_energy": 1.89, 
			 "cosmo_total_nonelectrostatic_energy": 13.36, 
			 "SMD_solvation_energy": 8.72 
		},
		"coords": [
			{
				"x": 2.9618027148,
				"y": 0.7330750378,
				"z": -2.0248963659,
				"element": "O" 
			},
			{
				"x": 1.7858109045,
				"y": 1.1586971295,
				"z": -1.4983404895,
				"element": "C" 
			},
			{
				"x": 0.8642288222,
				"y": 1.4284230904,
				"z": -2.2324434194,
				"element": "O" 
			},
			{
				"x": 1.736665796,
				"y": 1.231547716,
				"z": 0.0210655636,
				"element": "C" 
			},
			{
				"x": 0.4889938596,
				"y": 1.9222110927,
				"z": 0.5782606608,
				"element": "C" 
			},
			{
				"x": -0.8249981247,
				"y": 1.1461103227,
				"z": 0.3626720749,
				"element": "C" 
			},
			{
				"x": -0.7348244104,
				"y": -0.1969047719,
				"z": 0.9243529568,
				"element": "N" 
			},
			{
				"x": -1.5615569879,
				"y": -1.2856588354,
				"z": 0.6625171742,
				"element": "C" 
			},
			{
				"x": -1.7419654045,
				"y": -2.1232321158,
				"z": 1.5380290231,
				"element": "O" 
			},
			{
				"x": -2.180335029,
				"y": -1.4434652412,
				"z": -0.6950081838,
				"element": "C" 
			},
			{
				"x": -3.4414569915,
				"y": -2.0563257304,
				"z": -0.7437811133,
				"element": "C" 
			},
			{
				"x": -4.0680240671,
				"y": -2.2844101407,
				"z": -1.9659463726,
				"element": "C" 
			},
			{
				"x": -3.4304357368,
				"y": -1.9255798516,
				"z": -3.1570104427,
				"element": "C" 
			},
			{
				"x": -2.1640113428,
				"y": -1.3412408543,
				"z": -3.1181332833,
				"element": "C" 
			},
			{
				"x": -1.5398060345,
				"y": -1.0977911077,
				"z": -1.8933145341,
				"element": "C" 
			},
			{
				"x": -1.994424324,
				"y": 1.9795163889,
				"z": 0.9085752594,
				"element": "C" 
			},
			{
				"x": -3.0139977033,
				"y": 1.216145868,
				"z": 1.3533341513,
				"element": "O" 
			},
			{
				"x": -2.0252793588,
				"y": 3.1906239815,
				"z": 0.9128420112,
				"element": "O" 
			},
			{
				"x": 3.6032076458,
				"y": 0.5559438658,
				"z": -1.3219238954,
				"element": "H" 
			},
			{
				"x": 2.6329448965,
				"y": 1.7580606695,
				"z": 0.374214034,
				"element": "H" 
			},
			{
				"x": 1.805648687,
				"y": 0.2043190567,
				"z": 0.4035611285,
				"element": "H" 
			},
			{
				"x": 0.3685549358,
				"y": 2.9114851682,
				"z": 0.1328068184,
				"element": "H" 
			},
			{
				"x": 0.6351877235,
				"y": 2.0806872487,
				"z": 1.654067171,
				"element": "H" 
			},
			{
				"x": -0.9990833043,
				"y": 1.0701770925,
				"z": -0.7127349027,
				"element": "H" 
			},
			{
				"x": -0.4744986419,
				"y": -0.2222410283,
				"z": 1.9058712085,
				"element": "H" 
			},
			{
				"x": -3.9105522877,
				"y": -2.3502676563,
				"z": 0.1889925698,
				"element": "H" 
			},
			{
				"x": -5.0497721154,
				"y": -2.7484771747,
				"z": -1.9918330676,
				"element": "H" 
			},
			{
				"x": -3.916450351,
				"y": -2.1078568786,
				"z": -4.1113189657,
				"element": "H" 
			},
			{
				"x": -1.6550639063,
				"y": -1.0743449186,
				"z": -4.0394317894,
				"element": "H" 
			},
			{
				"x": -0.5493316071,
				"y": -0.6573646863,
				"z": -1.8876280348,
				"element": "H" 
			},
			{
				"x": -3.7156782568,
				"y": 1.8298372629,
				"z": 1.6294830545,
				"element": "H" 
			}
		],
		 "valence_orbital": [ 
			{
				"type": "occ",
				"energy": -0.28586,
				"method": "rhf"
			},
			{
				"type": "occ",
				"energy": -0.26361,
				"method": "rhf"
			},
			{
				"type": "occ",
				"energy": -0.25451,
				"method": "rhf"
			},
			{
				"type": "occ",
				"energy": -0.25204,
				"method": "rhf"
			},
			{
				"type": "occ",
				"energy": -0.24166,
				"method": "rhf"
			},
			{
				"type": "unocc",
				"energy": -0.03256,
				"method": "rhf"
			},
			{
				"type": "unocc",
				"energy": -0.00816,
				"method": "rhf"
			},
			{
				"type": "unocc",
				"energy": -0.00334,
				"method": "rhf"
			},
			{
				"type": "unocc",
				"energy": 0.00058,
				"method": "rhf"
			},
			{
				"type": "unocc",
				"energy": 0.04165,
				"method": "rhf"
			}
		],
		"cosmo_sigma_profile": { 
			"-0.025": 0.0,
			"-0.024": 0.0,
			"-0.023": 0.0,
			"-0.022": 0.0,
			"-0.021": 0.0,
			"-0.02": 0.00985848243064,
			"-0.019": 0.999223013316,
			"-0.018": 2.49781765076,
			"-0.017": 1.65830522355,
			"-0.016": 2.09405657216,
			"-0.015": 1.95573064239,
			"-0.014": 1.94989143408,
			"-0.013": 2.91680620074,
			"-0.012": 3.54549623268,
			"-0.011": 2.84188510827,
			"-0.01": 3.07997326983,
			"-0.009": 3.61637528329,
			"-0.008": 4.20071770889,
			"-0.007": 7.39722335877,
			"-0.006": 16.0936677066,
			"-0.005": 18.4490123173,
			"-0.004": 20.9425732989,
			"-0.003": 15.4836023965,
			"-0.002": 14.4209311741,
			"-0.001": 13.4314835892,
			"0.0": 12.6272935738,
			"0.001": 12.0890880972,
			"0.002": 13.7330987065,
			"0.003": 16.239217979,
			"0.004": 18.3936007392,
			"0.005": 11.7654428716,
			"0.006": 5.74147460616,
			"0.007": 7.09533783142,
			"0.008": 5.59636127385,
			"0.009": 6.86554652822,
			"0.01": 7.56813921359,
			"0.011": 11.12220422,
			"0.012": 7.11477623111,
			"0.013": 6.55077585794,
			"0.014": 1.76286226231,
			"0.015": 0.00710754747263,
			"0.016": 0.0,
			"0.017": 0.0,
			"0.018": 0.0,
			"0.019": 0.0,
			"0.02": 0.0,
			"0.021": 0.0,
			"0.022": 0.0,
			"0.023": 0.0,
			"0.024": 0.0,
			"0.025": 0.0
		}
	}
}
