{
	 "smiles": "COC(=O)C1=C(N)C=C(S1)C1=CC=C(C=C1)C(C)(C)C", 
	 "Tm": 429.15, 
	 "num_atms": 39, 
	 "gaussian": { 
		 "optdone": 1, 
		 "sigma_profile": "yes", 
		 "theory": "DFT", 
		 "functional": "B3LYP", 
		 "basiset": "6-31G**", 
		 "properties": { 
			 "R2extent": 10410.546, 
			 "electric_dipole_moment_norm": 2.53163577554, 
			 "electric_quadrupole_moment_norm": 13.8406744099, 
			 "total_energy": -1224.57216832, 
			 "HOMO_LUMO_gap": 0.14571, 
			 "cosmo_polarized_energy": -12.01, 
			 "cosmo_cavitation_energy": 42.91, 
			 "cosmo_dispersion_energy": -31.09, 
			 "cosmo_repulsion_energy": 2.33, 
			 "cosmo_total_nonelectrostatic_energy": 14.15, 
			 "SMD_solvation_energy": 8.25 
		},
		"coords": [
			{
				"x": 0.4799110549,
				"y": 3.3140169288,
				"z": -5.8774761291,
				"element": "C" 
			},
			{
				"x": 0.5129733287,
				"y": 2.6617511775,
				"z": -4.601714751,
				"element": "O" 
			},
			{
				"x": 1.6682715459,
				"y": 2.8037184608,
				"z": -3.9039918278,
				"element": "C" 
			},
			{
				"x": 2.6245043356,
				"y": 3.4489746303,
				"z": -4.3316518511,
				"element": "O" 
			},
			{
				"x": 1.6479788083,
				"y": 2.1175682765,
				"z": -2.6348523547,
				"element": "C" 
			},
			{
				"x": 2.7157935455,
				"y": 2.0883879675,
				"z": -1.7341541874,
				"element": "C" 
			},
			{
				"x": 3.8754022801,
				"y": 2.7953630532,
				"z": -1.9013319207,
				"element": "N" 
			},
			{
				"x": 2.4268803671,
				"y": 1.2811158318,
				"z": -0.5910788494,
				"element": "C" 
			},
			{
				"x": 1.1728550514,
				"y": 0.7150142018,
				"z": -0.6141074235,
				"element": "C" 
			},
			{
				"x": 0.2987338532,
				"y": 1.1539660497,
				"z": -2.0619097191,
				"element": "S" 
			},
			{
				"x": 0.5685684159,
				"y": -0.1551567294,
				"z": 0.4021105872,
				"element": "C" 
			},
			{
				"x": 1.3748417023,
				"y": -0.953510908,
				"z": 1.234230722,
				"element": "C" 
			},
			{
				"x": 0.8101668406,
				"y": -1.7704381117,
				"z": 2.2058373631,
				"element": "C" 
			},
			{
				"x": -0.5814848065,
				"y": -1.8455544443,
				"z": 2.3965545605,
				"element": "C" 
			},
			{
				"x": -1.3785335548,
				"y": -1.0532855021,
				"z": 1.558963269,
				"element": "C" 
			},
			{
				"x": -0.8202873826,
				"y": -0.2249115153,
				"z": 0.5862854835,
				"element": "C" 
			},
			{
				"x": -1.1620538676,
				"y": -2.7688934751,
				"z": 3.481664906,
				"element": "C" 
			},
			{
				"x": -2.7003553802,
				"y": -2.7101745027,
				"z": 3.5377795975,
				"element": "C" 
			},
			{
				"x": -0.6117482588,
				"y": -2.3460976025,
				"z": 4.8649101283,
				"element": "C" 
			},
			{
				"x": -0.7449924402,
				"y": -4.2304081938,
				"z": 3.1894622146,
				"element": "C" 
			},
			{
				"x": 1.2586715384,
				"y": 2.919779016,
				"z": -6.5357856446,
				"element": "H" 
			},
			{
				"x": 0.6271415515,
				"y": 4.3915517187,
				"z": -5.7665508683,
				"element": "H" 
			},
			{
				"x": -0.5078492915,
				"y": 3.1044764048,
				"z": -6.2884950395,
				"element": "H" 
			},
			{
				"x": 3.99979766,
				"y": 3.2014360044,
				"z": -2.8221843738,
				"element": "H" 
			},
			{
				"x": 4.6981104743,
				"y": 2.4772153136,
				"z": -1.4141548293,
				"element": "H" 
			},
			{
				"x": 3.1145637274,
				"y": 1.1673713962,
				"z": 0.2394305367,
				"element": "H" 
			},
			{
				"x": 2.4523235531,
				"y": -0.9494200154,
				"z": 1.1003819991,
				"element": "H" 
			},
			{
				"x": 1.472357751,
				"y": -2.3718577724,
				"z": 2.8217740955,
				"element": "H" 
			},
			{
				"x": -2.4574485598,
				"y": -1.0654570561,
				"z": 1.6611155129,
				"element": "H" 
			},
			{
				"x": -1.4743847995,
				"y": 0.3916588304,
				"z": -0.0236574171,
				"element": "H" 
			},
			{
				"x": -3.1554999593,
				"y": -3.0285974488,
				"z": 2.5941830622,
				"element": "H" 
			},
			{
				"x": -3.0659744103,
				"y": -3.3805776075,
				"z": 4.3222346659,
				"element": "H" 
			},
			{
				"x": -3.0620776948,
				"y": -1.7031608135,
				"z": 3.7703145501,
				"element": "H" 
			},
			{
				"x": 0.4798683857,
				"y": -2.4067633782,
				"z": 4.9054796121,
				"element": "H" 
			},
			{
				"x": -0.8980971878,
				"y": -1.3163228482,
				"z": 5.1024262215,
				"element": "H" 
			},
			{
				"x": -1.0106296621,
				"y": -2.9994645355,
				"z": 5.6490543787,
				"element": "H" 
			},
			{
				"x": 0.3424493953,
				"y": -4.3498875641,
				"z": 3.1793835449,
				"element": "H" 
			},
			{
				"x": -1.1261862804,
				"y": -4.559685163,
				"z": 2.2173277443,
				"element": "H" 
			},
			{
				"x": -1.14646163,
				"y": -4.9013400747,
				"z": 3.9572924306,
				"element": "H" 
			}
		],
		 "valence_orbital": [ 
			{
				"type": "occ",
				"energy": -0.26788,
				"method": "rhf"
			},
			{
				"type": "occ",
				"energy": -0.26298,
				"method": "rhf"
			},
			{
				"type": "occ",
				"energy": -0.25356,
				"method": "rhf"
			},
			{
				"type": "occ",
				"energy": -0.22427,
				"method": "rhf"
			},
			{
				"type": "occ",
				"energy": -0.1967,
				"method": "rhf"
			},
			{
				"type": "unocc",
				"energy": -0.05099,
				"method": "rhf"
			},
			{
				"type": "unocc",
				"energy": -0.00664,
				"method": "rhf"
			},
			{
				"type": "unocc",
				"energy": 0.00751,
				"method": "rhf"
			},
			{
				"type": "unocc",
				"energy": 0.03535,
				"method": "rhf"
			},
			{
				"type": "unocc",
				"energy": 0.05524,
				"method": "rhf"
			}
		],
		"cosmo_sigma_profile": { 
			"-0.025": 0.0,
			"-0.024": 0.0,
			"-0.023": 0.0,
			"-0.022": 0.0,
			"-0.021": 0.0,
			"-0.02": 0.0,
			"-0.019": 0.0,
			"-0.018": 0.0,
			"-0.017": 0.0,
			"-0.016": 0.0,
			"-0.015": 0.0,
			"-0.014": 0.622825363378,
			"-0.013": 1.50915273427,
			"-0.012": 1.10279942064,
			"-0.011": 1.35035356784,
			"-0.01": 1.38566203234,
			"-0.009": 2.14598568761,
			"-0.008": 2.69836267043,
			"-0.007": 3.29530975803,
			"-0.006": 9.78886319559,
			"-0.005": 18.4097923822,
			"-0.004": 20.9551728039,
			"-0.003": 32.9838581808,
			"-0.002": 30.8698471285,
			"-0.001": 30.5179387102,
			"0.0": 27.0718506454,
			"0.001": 35.8035538008,
			"0.002": 27.6832314286,
			"0.003": 27.5126539176,
			"0.004": 24.0002044893,
			"0.005": 17.6339423806,
			"0.006": 5.74149387094,
			"0.007": 4.00999785122,
			"0.008": 2.87970139333,
			"0.009": 2.41682401529,
			"0.01": 2.16410971673,
			"0.011": 2.36222998797,
			"0.012": 2.36265310797,
			"0.013": 1.14600303442,
			"0.014": 0.0,
			"0.015": 0.0,
			"0.016": 0.0,
			"0.017": 0.0,
			"0.018": 0.0,
			"0.019": 0.0,
			"0.02": 0.0,
			"0.021": 0.0,
			"0.022": 0.0,
			"0.023": 0.0,
			"0.024": 0.0,
			"0.025": 0.0
		}
	}
}
