{
	 "smiles": "NC1=C2C(=O)N(CC3=CC=CC=C3)C(=O)C2=CC=C1", 
	 "Tm": 421.15, 
	 "num_atms": 31, 
	 "gaussian": { 
		 "optdone": 1, 
		 "sigma_profile": "yes", 
		 "theory": "DFT", 
		 "functional": "B3LYP", 
		 "basiset": "6-31G**", 
		 "properties": { 
			 "R2extent": 5457.7285, 
			 "electric_dipole_moment_norm": 3.47139549749, 
			 "electric_quadrupole_moment_norm": 12.7308536018, 
			 "total_energy": -838.828046457, 
			 "HOMO_LUMO_gap": 0.1455, 
			 "cosmo_polarized_energy": -13.31, 
			 "cosmo_cavitation_energy": 35.6, 
			 "cosmo_dispersion_energy": -25.37, 
			 "cosmo_repulsion_energy": 1.92, 
			 "cosmo_total_nonelectrostatic_energy": 12.15, 
			 "SMD_solvation_energy": 6.52 
		},
		"coords": [
			{
				"x": 0.507317628,
				"y": 2.446298752,
				"z": 2.4428135458,
				"element": "N" 
			},
			{
				"x": -0.2529148202,
				"y": 1.3096649781,
				"z": 2.4513297325,
				"element": "C" 
			},
			{
				"x": -0.5892189283,
				"y": 0.6539704214,
				"z": 1.2590296384,
				"element": "C" 
			},
			{
				"x": -0.1743736761,
				"y": 0.9699608011,
				"z": -0.1178124299,
				"element": "C" 
			},
			{
				"x": 0.551971423,
				"y": 1.876371206,
				"z": -0.5095758256,
				"element": "O" 
			},
			{
				"x": -0.7831771159,
				"y": 0.0093641907,
				"z": -0.9371085596,
				"element": "N" 
			},
			{
				"x": -0.6101511145,
				"y": -0.0624084812,
				"z": -2.3873240821,
				"element": "C" 
			},
			{
				"x": 0.5747354473,
				"y": -0.9101558884,
				"z": -2.8114557719,
				"element": "C" 
			},
			{
				"x": 0.4229544816,
				"y": -2.2875935295,
				"z": -3.0153892796,
				"element": "C" 
			},
			{
				"x": 1.5151070408,
				"y": -3.0691372567,
				"z": -3.3946335644,
				"element": "C" 
			},
			{
				"x": 2.769309418,
				"y": -2.4812999306,
				"z": -3.5728606063,
				"element": "C" 
			},
			{
				"x": 2.9282872228,
				"y": -1.1094588725,
				"z": -3.3661185861,
				"element": "C" 
			},
			{
				"x": 1.8362650693,
				"y": -0.3277540175,
				"z": -2.9863263778,
				"element": "C" 
			},
			{
				"x": -1.5388671578,
				"y": -0.9110358791,
				"z": -0.1905835108,
				"element": "C" 
			},
			{
				"x": -2.1604229008,
				"y": -1.8463181292,
				"z": -0.6580166511,
				"element": "O" 
			},
			{
				"x": -1.4046368649,
				"y": -0.481377832,
				"z": 1.2366599065,
				"element": "C" 
			},
			{
				"x": -1.9278409713,
				"y": -1.0337937888,
				"z": 2.3907721383,
				"element": "C" 
			},
			{
				"x": -1.5910453869,
				"y": -0.3927910278,
				"z": 3.5989527704,
				"element": "C" 
			},
			{
				"x": -0.7824009524,
				"y": 0.7390430522,
				"z": 3.6377398014,
				"element": "C" 
			},
			{
				"x": 0.9512182214,
				"y": 2.6943129632,
				"z": 1.5681415559,
				"element": "H" 
			},
			{
				"x": 0.9411471895,
				"y": 2.757757362,
				"z": 3.29647408,
				"element": "H" 
			},
			{
				"x": -0.4927920979,
				"y": 0.9648297928,
				"z": -2.7408108149,
				"element": "H" 
			},
			{
				"x": -1.5389961724,
				"y": -0.4713904487,
				"z": -2.7923363337,
				"element": "H" 
			},
			{
				"x": -0.5518592052,
				"y": -2.7430948907,
				"z": -2.8646223842,
				"element": "H" 
			},
			{
				"x": 1.3862390115,
				"y": -4.1362231807,
				"z": -3.5528292821,
				"element": "H" 
			},
			{
				"x": 3.6185727629,
				"y": -3.0893801871,
				"z": -3.8716840484,
				"element": "H" 
			},
			{
				"x": 3.9020600199,
				"y": -0.6472787257,
				"z": -3.5023554289,
				"element": "H" 
			},
			{
				"x": 1.958620953,
				"y": 0.7379619183,
				"z": -2.813232567,
				"element": "H" 
			},
			{
				"x": -2.5581860788,
				"y": -1.9153216332,
				"z": 2.3646799475,
				"element": "H" 
			},
			{
				"x": -1.9718126042,
				"y": -0.7896398791,
				"z": 4.535826888,
				"element": "H" 
			},
			{
				"x": -0.5530098416,
				"y": 1.2032181405,
				"z": 4.5934560997,
				"element": "H" 
			}
		],
		 "valence_orbital": [ 
			{
				"type": "occ",
				"energy": -0.26305,
				"method": "rhf"
			},
			{
				"type": "occ",
				"energy": -0.25989,
				"method": "rhf"
			},
			{
				"type": "occ",
				"energy": -0.24577,
				"method": "rhf"
			},
			{
				"type": "occ",
				"energy": -0.24207,
				"method": "rhf"
			},
			{
				"type": "occ",
				"energy": -0.22011,
				"method": "rhf"
			},
			{
				"type": "unocc",
				"energy": -0.07461,
				"method": "rhf"
			},
			{
				"type": "unocc",
				"energy": -0.01666,
				"method": "rhf"
			},
			{
				"type": "unocc",
				"energy": -0.00083,
				"method": "rhf"
			},
			{
				"type": "unocc",
				"energy": 0.00233,
				"method": "rhf"
			},
			{
				"type": "unocc",
				"energy": 0.03721,
				"method": "rhf"
			}
		],
		"cosmo_sigma_profile": { 
			"-0.025": 0.0,
			"-0.024": 0.0,
			"-0.023": 0.0,
			"-0.022": 0.0,
			"-0.021": 0.0,
			"-0.02": 0.0,
			"-0.019": 0.0,
			"-0.018": 0.0,
			"-0.017": 0.0,
			"-0.016": 0.0,
			"-0.015": 0.0,
			"-0.014": 0.952648886509,
			"-0.013": 1.30094557288,
			"-0.012": 1.51913284958,
			"-0.011": 1.95140909944,
			"-0.01": 2.24730498832,
			"-0.009": 2.47189542065,
			"-0.008": 2.17007068721,
			"-0.007": 5.02826413105,
			"-0.006": 12.6293326762,
			"-0.005": 19.2216501086,
			"-0.004": 22.5750388103,
			"-0.003": 25.3634671591,
			"-0.002": 19.5547481391,
			"-0.001": 18.7964324239,
			"0.0": 17.9185398354,
			"0.001": 20.1940496202,
			"0.002": 22.0059990362,
			"0.003": 24.4914020229,
			"0.004": 17.3490611351,
			"0.005": 14.2075543987,
			"0.006": 9.44096795187,
			"0.007": 2.53808346534,
			"0.008": 4.04826579642,
			"0.009": 4.24596670381,
			"0.01": 4.18505023487,
			"0.011": 5.62207330864,
			"0.012": 2.99061150448,
			"0.013": 0.226000672258,
			"0.014": 0.0,
			"0.015": 0.0,
			"0.016": 0.0,
			"0.017": 0.0,
			"0.018": 0.0,
			"0.019": 0.0,
			"0.02": 0.0,
			"0.021": 0.0,
			"0.022": 0.0,
			"0.023": 0.0,
			"0.024": 0.0,
			"0.025": 0.0
		}
	}
}
