{
	 "smiles": "COC1=CC=C(C=C1OC)C1=CC(=O)C2=C(O1)C=CC=C2", 
	 "Tm": 428.15, 
	 "num_atms": 35, 
	 "gaussian": { 
		 "optdone": 1, 
		 "sigma_profile": "yes", 
		 "theory": "DFT", 
		 "functional": "B3LYP", 
		 "basiset": "6-31G**", 
		 "properties": { 
			 "R2extent": 8657.3296, 
			 "electric_dipole_moment_norm": 4.46069484049, 
			 "electric_quadrupole_moment_norm": 27.0384220011, 
			 "total_energy": -957.110603887, 
			 "HOMO_LUMO_gap": 0.1634, 
			 "cosmo_polarized_energy": -13.53, 
			 "cosmo_cavitation_energy": 39.4, 
			 "cosmo_dispersion_energy": -28.38, 
			 "cosmo_repulsion_energy": 2.13, 
			 "cosmo_total_nonelectrostatic_energy": 13.15, 
			 "SMD_solvation_energy": 8.85 
		},
		"coords": [
			{
				"x": -0.2765709154,
				"y": 5.8830190095,
				"z": -0.6113475169,
				"element": "C" 
			},
			{
				"x": -0.2153089264,
				"y": 5.0448435121,
				"z": 0.5522971603,
				"element": "O" 
			},
			{
				"x": 0.0147812995,
				"y": 3.7143984721,
				"z": 0.3086706143,
				"element": "C" 
			},
			{
				"x": -0.9693835204,
				"y": 2.7866835676,
				"z": 0.6543736756,
				"element": "C" 
			},
			{
				"x": -0.7702629762,
				"y": 1.4243271281,
				"z": 0.449544323,
				"element": "C" 
			},
			{
				"x": 0.4240064223,
				"y": 0.9593102909,
				"z": -0.1250066453,
				"element": "C" 
			},
			{
				"x": 1.4250723292,
				"y": 1.8923271739,
				"z": -0.4445011982,
				"element": "C" 
			},
			{
				"x": 1.2352024125,
				"y": 3.253081513,
				"z": -0.2283047456,
				"element": "C" 
			},
			{
				"x": 2.2445514347,
				"y": 4.1230311944,
				"z": -0.5721122476,
				"element": "O" 
			},
			{
				"x": 2.8950377865,
				"y": 4.7577667999,
				"z": 0.5375270026,
				"element": "C" 
			},
			{
				"x": 0.6275911123,
				"y": -0.4780512871,
				"z": -0.3780026577,
				"element": "C" 
			},
			{
				"x": 1.5462500049,
				"y": -1.0211756865,
				"z": -1.2196168843,
				"element": "C" 
			},
			{
				"x": 1.6847006893,
				"y": -2.4599039869,
				"z": -1.4058963136,
				"element": "C" 
			},
			{
				"x": 2.5189328953,
				"y": -2.9711590935,
				"z": -2.1534521074,
				"element": "O" 
			},
			{
				"x": 0.7183693719,
				"y": -3.261563346,
				"z": -0.6185595066,
				"element": "C" 
			},
			{
				"x": -0.2074578073,
				"y": -2.6179853986,
				"z": 0.2118566325,
				"element": "C" 
			},
			{
				"x": -0.2440119218,
				"y": -1.2515799275,
				"z": 0.3329057739,
				"element": "O" 
			},
			{
				"x": -1.1382779914,
				"y": -3.3389414092,
				"z": 0.9668244087,
				"element": "C" 
			},
			{
				"x": -1.1369975113,
				"y": -4.7256324456,
				"z": 0.8822413684,
				"element": "C" 
			},
			{
				"x": -0.2182700249,
				"y": -5.3929610542,
				"z": 0.0547963886,
				"element": "C" 
			},
			{
				"x": 0.6991781256,
				"y": -4.6636417488,
				"z": -0.687333571,
				"element": "C" 
			},
			{
				"x": 0.6564181382,
				"y": 5.8461846274,
				"z": -1.1805258587,
				"element": "H" 
			},
			{
				"x": -1.1113740769,
				"y": 5.5830661646,
				"z": -1.256365847,
				"element": "H" 
			},
			{
				"x": -0.4497220992,
				"y": 6.896394569,
				"z": -0.2447729033,
				"element": "H" 
			},
			{
				"x": -1.8959716269,
				"y": 3.1590792952,
				"z": 1.0792392937,
				"element": "H" 
			},
			{
				"x": -1.5480783071,
				"y": 0.718676984,
				"z": 0.7146751858,
				"element": "H" 
			},
			{
				"x": 2.3824540685,
				"y": 1.5788586837,
				"z": -0.8454419609,
				"element": "H" 
			},
			{
				"x": 3.3778512094,
				"y": 4.0114973717,
				"z": 1.1802722549,
				"element": "H" 
			},
			{
				"x": 3.6565079152,
				"y": 5.4126580376,
				"z": 0.1099195535,
				"element": "H" 
			},
			{
				"x": 2.1888669326,
				"y": 5.3474450263,
				"z": 1.1302626814,
				"element": "H" 
			},
			{
				"x": 2.2011303003,
				"y": -0.3811365022,
				"z": -1.7967476301,
				"element": "H" 
			},
			{
				"x": -1.8375798195,
				"y": -2.8037698609,
				"z": 1.6003860525,
				"element": "H" 
			},
			{
				"x": -1.8554612716,
				"y": -5.2953220928,
				"z": 1.4642126777,
				"element": "H" 
			},
			{
				"x": -0.2291082046,
				"y": -6.4770506417,
				"z": -0.0011447743,
				"element": "H" 
			},
			{
				"x": 1.4245345524,
				"y": -5.1406749396,
				"z": -1.3384726788,
				"element": "H" 
			}
		],
		 "valence_orbital": [ 
			{
				"type": "occ",
				"energy": -0.26062,
				"method": "rhf"
			},
			{
				"type": "occ",
				"energy": -0.25445,
				"method": "rhf"
			},
			{
				"type": "occ",
				"energy": -0.24008,
				"method": "rhf"
			},
			{
				"type": "occ",
				"energy": -0.23533,
				"method": "rhf"
			},
			{
				"type": "occ",
				"energy": -0.22725,
				"method": "rhf"
			},
			{
				"type": "unocc",
				"energy": -0.06385,
				"method": "rhf"
			},
			{
				"type": "unocc",
				"energy": -0.02927,
				"method": "rhf"
			},
			{
				"type": "unocc",
				"energy": -0.01154,
				"method": "rhf"
			},
			{
				"type": "unocc",
				"energy": -0.00398,
				"method": "rhf"
			},
			{
				"type": "unocc",
				"energy": 0.02818,
				"method": "rhf"
			}
		],
		"cosmo_sigma_profile": { 
			"-0.025": 0.0,
			"-0.024": 0.0,
			"-0.023": 0.0,
			"-0.022": 0.0,
			"-0.021": 0.0,
			"-0.02": 0.0,
			"-0.019": 0.0,
			"-0.018": 0.0,
			"-0.017": 0.0,
			"-0.016": 0.0,
			"-0.015": 0.0,
			"-0.014": 0.0,
			"-0.013": 0.0,
			"-0.012": 0.0,
			"-0.011": 0.0,
			"-0.01": 0.0,
			"-0.009": 0.657329612086,
			"-0.008": 2.43778403426,
			"-0.007": 7.50993503145,
			"-0.006": 14.7215446875,
			"-0.005": 21.8793002278,
			"-0.004": 25.7307940125,
			"-0.003": 31.0605089284,
			"-0.002": 28.0223740572,
			"-0.001": 27.0925653956,
			"0.0": 27.1519259109,
			"0.001": 27.1326675086,
			"0.002": 30.1234632607,
			"0.003": 24.3505091082,
			"0.004": 11.3345994473,
			"0.005": 4.73351448806,
			"0.006": 3.78130289887,
			"0.007": 3.06416711583,
			"0.008": 3.47678918,
			"0.009": 3.1904203618,
			"0.01": 4.19541755571,
			"0.011": 2.63778668048,
			"0.012": 2.86199241713,
			"0.013": 4.53045987005,
			"0.014": 3.62240220607,
			"0.015": 0.703726194532,
			"0.016": 0.0,
			"0.017": 0.0,
			"0.018": 0.0,
			"0.019": 0.0,
			"0.02": 0.0,
			"0.021": 0.0,
			"0.022": 0.0,
			"0.023": 0.0,
			"0.024": 0.0,
			"0.025": 0.0
		}
	}
}
