{
	 "smiles": "CC(C)(C)C1=CC=C(CBr)C=C1", 
	 "Tm": 283.15, 
	 "num_atms": 27, 
	 "gaussian": { 
		 "optdone": 1, 
		 "sigma_profile": "yes", 
		 "theory": "DFT", 
		 "functional": "B3LYP", 
		 "basiset": "6-31G**", 
		 "properties": { 
			 "R2extent": 5751.2884, 
			 "electric_dipole_moment_norm": 2.75876867098, 
			 "electric_quadrupole_moment_norm": 13.8562724529, 
			 "total_energy": -2999.63715459, 
			 "HOMO_LUMO_gap": 0.20487, 
			 "cosmo_polarized_energy": -6.28, 
			 "cosmo_cavitation_energy": 30.89, 
			 "cosmo_dispersion_energy": -22.16, 
			 "cosmo_repulsion_energy": 1.77, 
			 "cosmo_total_nonelectrostatic_energy": 10.5, 
			 "SMD_solvation_energy": 4.1 
		},
		"coords": [
			{
				"x": -2.2801352904,
				"y": 1.0381734085,
				"z": 1.3157349553,
				"element": "C" 
			},
			{
				"x": -0.7397249353,
				"y": 1.0281120427,
				"z": 1.3260415291,
				"element": "C" 
			},
			{
				"x": -0.2487798393,
				"y": 2.4864293946,
				"z": 1.4907213,
				"element": "C" 
			},
			{
				"x": -0.2705626419,
				"y": 0.1891121262,
				"z": 2.538855359,
				"element": "C" 
			},
			{
				"x": -0.1499124928,
				"y": 0.4338076273,
				"z": 0.0345639645,
				"element": "C" 
			},
			{
				"x": -0.9438682808,
				"y": -0.0428986204,
				"z": -1.0178986257,
				"element": "C" 
			},
			{
				"x": -0.3747747334,
				"y": -0.5754106778,
				"z": -2.1753038139,
				"element": "C" 
			},
			{
				"x": 1.0132030456,
				"y": -0.6540728586,
				"z": -2.324268225,
				"element": "C" 
			},
			{
				"x": 1.6217786418,
				"y": -1.23987259,
				"z": -3.553555963,
				"element": "C" 
			},
			{
				"x": 2.0034491858,
				"y": 0.1479302817,
				"z": -4.9613757846,
				"element": "Br" 
			},
			{
				"x": 1.8166534617,
				"y": -0.1794786248,
				"z": -1.2779395916,
				"element": "C" 
			},
			{
				"x": 1.2450672297,
				"y": 0.3505349988,
				"z": -0.1265418661,
				"element": "C" 
			},
			{
				"x": -2.6514363395,
				"y": 1.4698010131,
				"z": 2.2507592506,
				"element": "H" 
			},
			{
				"x": -2.6946267012,
				"y": 0.0280750492,
				"z": 1.2322615286,
				"element": "H" 
			},
			{
				"x": -2.6786876734,
				"y": 1.6415072672,
				"z": 0.4935168596,
				"element": "H" 
			},
			{
				"x": -0.6554562131,
				"y": 2.9229279428,
				"z": 2.4099192728,
				"element": "H" 
			},
			{
				"x": -0.5719948793,
				"y": 3.1061528756,
				"z": 0.6480182747,
				"element": "H" 
			},
			{
				"x": 0.8420186975,
				"y": 2.5456463743,
				"z": 1.5490147577,
				"element": "H" 
			},
			{
				"x": 0.8196281748,
				"y": 0.1771317566,
				"z": 2.6293529339,
				"element": "H" 
			},
			{
				"x": -0.6770604068,
				"y": 0.6036349351,
				"z": 3.4682349441,
				"element": "H" 
			},
			{
				"x": -0.6100715899,
				"y": -0.8483384979,
				"z": 2.4527415472,
				"element": "H" 
			},
			{
				"x": -2.0246378257,
				"y": -0.0053771279,
				"z": -0.946539193,
				"element": "H" 
			},
			{
				"x": -1.0211538172,
				"y": -0.9319100672,
				"z": -2.9735567313,
				"element": "H" 
			},
			{
				"x": 2.5925263728,
				"y": -1.696610728,
				"z": -3.3697856317,
				"element": "H" 
			},
			{
				"x": 0.9642007583,
				"y": -1.9472574121,
				"z": -4.0552813878,
				"element": "H" 
			},
			{
				"x": 2.8990306131,
				"y": -0.2235653161,
				"z": -1.3701096767,
				"element": "H" 
			},
			{
				"x": 1.901627479,
				"y": 0.7049154271,
				"z": 0.6625200132,
				"element": "H" 
			}
		],
		 "valence_orbital": [ 
			{
				"type": "occ",
				"energy": -0.31925,
				"method": "rhf"
			},
			{
				"type": "occ",
				"energy": -0.2682,
				"method": "rhf"
			},
			{
				"type": "occ",
				"energy": -0.26602,
				"method": "rhf"
			},
			{
				"type": "occ",
				"energy": -0.25298,
				"method": "rhf"
			},
			{
				"type": "occ",
				"energy": -0.23912,
				"method": "rhf"
			},
			{
				"type": "unocc",
				"energy": -0.03425,
				"method": "rhf"
			},
			{
				"type": "unocc",
				"energy": -0.0058,
				"method": "rhf"
			},
			{
				"type": "unocc",
				"energy": 0.0322,
				"method": "rhf"
			},
			{
				"type": "unocc",
				"energy": 0.07761,
				"method": "rhf"
			},
			{
				"type": "unocc",
				"energy": 0.0975,
				"method": "rhf"
			}
		],
		"cosmo_sigma_profile": { 
			"-0.025": 0.0,
			"-0.024": 0.0,
			"-0.023": 0.0,
			"-0.022": 0.0,
			"-0.021": 0.0,
			"-0.02": 0.0,
			"-0.019": 0.0,
			"-0.018": 0.0,
			"-0.017": 0.0,
			"-0.016": 0.0,
			"-0.015": 0.0,
			"-0.014": 0.0,
			"-0.013": 0.0,
			"-0.012": 0.0,
			"-0.011": 0.0,
			"-0.01": 0.0,
			"-0.009": 0.0,
			"-0.008": 0.729765213732,
			"-0.007": 5.78505898109,
			"-0.006": 9.15973278513,
			"-0.005": 12.0532519196,
			"-0.004": 13.1672581658,
			"-0.003": 24.0198612097,
			"-0.002": 27.7997432378,
			"-0.001": 23.8745046948,
			"0.0": 22.4924431857,
			"0.001": 28.6053929271,
			"0.002": 17.5101906509,
			"0.003": 9.83054365422,
			"0.004": 11.8227154878,
			"0.005": 16.0019811323,
			"0.006": 14.3296006373,
			"0.007": 8.23849216406,
			"0.008": 0.0,
			"0.009": 0.0,
			"0.01": 0.0,
			"0.011": 0.0,
			"0.012": 0.0,
			"0.013": 0.0,
			"0.014": 0.0,
			"0.015": 0.0,
			"0.016": 0.0,
			"0.017": 0.0,
			"0.018": 0.0,
			"0.019": 0.0,
			"0.02": 0.0,
			"0.021": 0.0,
			"0.022": 0.0,
			"0.023": 0.0,
			"0.024": 0.0,
			"0.025": 0.0
		}
	}
}
