{
	 "smiles": "CCCCNC(=O)COC(=O)C1=CC=CC=C1", 
	 "Tm": 342.65, 
	 "num_atms": 34, 
	 "gaussian": { 
		 "optdone": 1, 
		 "sigma_profile": "yes", 
		 "theory": "DFT", 
		 "functional": "B3LYP", 
		 "basiset": "6-31G**", 
		 "properties": { 
			 "R2extent": 7021.6005, 
			 "electric_dipole_moment_norm": 5.15465137618, 
			 "electric_quadrupole_moment_norm": 12.356477636, 
			 "total_energy": -786.093046549, 
			 "HOMO_LUMO_gap": 0.18998, 
			 "cosmo_polarized_energy": -14.3, 
			 "cosmo_cavitation_energy": 38.31, 
			 "cosmo_dispersion_energy": -26.76, 
			 "cosmo_repulsion_energy": 2.14, 
			 "cosmo_total_nonelectrostatic_energy": 13.69, 
			 "SMD_solvation_energy": 7.41 
		},
		"coords": [
			{
				"x": -3.2366006582,
				"y": 1.0694827455,
				"z": -3.3408610582,
				"element": "C" 
			},
			{
				"x": -1.9726601776,
				"y": 1.9333743424,
				"z": -3.2422334311,
				"element": "C" 
			},
			{
				"x": -1.0717961666,
				"y": 1.6138390826,
				"z": -2.0382206601,
				"element": "C" 
			},
			{
				"x": -0.4092806443,
				"y": 0.2296576401,
				"z": -2.1109724032,
				"element": "C" 
			},
			{
				"x": 0.4707864323,
				"y": -0.0422059981,
				"z": -0.9816628543,
				"element": "N" 
			},
			{
				"x": 1.8072944471,
				"y": 0.190773312,
				"z": -1.0343801518,
				"element": "C" 
			},
			{
				"x": 2.4096378569,
				"y": 0.5906914141,
				"z": -2.0235668583,
				"element": "O" 
			},
			{
				"x": 2.5921207716,
				"y": -0.1066895199,
				"z": 0.2431527968,
				"element": "C" 
			},
			{
				"x": 1.7356322103,
				"y": -0.4117660838,
				"z": 1.3597568126,
				"element": "O" 
			},
			{
				"x": 1.9407842442,
				"y": -1.5970310364,
				"z": 2.0063676756,
				"element": "C" 
			},
			{
				"x": 2.7956327423,
				"y": -2.3951905652,
				"z": 1.6849273314,
				"element": "O" 
			},
			{
				"x": 0.991763769,
				"y": -1.786966802,
				"z": 3.1378242074,
				"element": "C" 
			},
			{
				"x": 1.0400599563,
				"y": -3.0064224553,
				"z": 3.8283776791,
				"element": "C" 
			},
			{
				"x": 0.1752235406,
				"y": -3.2390867039,
				"z": 4.8944357511,
				"element": "C" 
			},
			{
				"x": -0.7394101883,
				"y": -2.2548571139,
				"z": 5.2794745398,
				"element": "C" 
			},
			{
				"x": -0.7870128194,
				"y": -1.0365883141,
				"z": 4.5972813545,
				"element": "C" 
			},
			{
				"x": 0.0751716403,
				"y": -0.7996639572,
				"z": 3.5279307473,
				"element": "C" 
			},
			{
				"x": -3.8422293675,
				"y": 1.1506916253,
				"z": -2.4304976488,
				"element": "H" 
			},
			{
				"x": -3.0024153086,
				"y": 0.0100814153,
				"z": -3.4892206077,
				"element": "H" 
			},
			{
				"x": -3.8616993179,
				"y": 1.3838899224,
				"z": -4.1828527241,
				"element": "H" 
			},
			{
				"x": -1.3867176957,
				"y": 1.8351811767,
				"z": -4.1659642243,
				"element": "H" 
			},
			{
				"x": -2.2668343219,
				"y": 2.9884338898,
				"z": -3.1832725457,
				"element": "H" 
			},
			{
				"x": -0.2743188399,
				"y": 2.3627221865,
				"z": -1.9698607709,
				"element": "H" 
			},
			{
				"x": -1.6567135639,
				"y": 1.6900429358,
				"z": -1.110427122,
				"element": "H" 
			},
			{
				"x": 0.2071321212,
				"y": 0.1609297732,
				"z": -3.0114122996,
				"element": "H" 
			},
			{
				"x": -1.1616271458,
				"y": -0.5648974197,
				"z": -2.1559966736,
				"element": "H" 
			},
			{
				"x": 0.0761948599,
				"y": -0.2933319057,
				"z": -0.0871514285,
				"element": "H" 
			},
			{
				"x": 3.2709758329,
				"y": -0.9418373732,
				"z": 0.059602428,
				"element": "H" 
			},
			{
				"x": 3.1786787897,
				"y": 0.7796604068,
				"z": 0.4978515126,
				"element": "H" 
			},
			{
				"x": 1.7603062158,
				"y": -3.7534385385,
				"z": 3.5126217308,
				"element": "H" 
			},
			{
				"x": 0.2133210235,
				"y": -4.1851324684,
				"z": 5.4260722927,
				"element": "H" 
			},
			{
				"x": -1.4130900164,
				"y": -2.4362213913,
				"z": 6.1121024238,
				"element": "H" 
			},
			{
				"x": -1.4943059686,
				"y": -0.2703971888,
				"z": 4.9005416046,
				"element": "H" 
			},
			{
				"x": 0.0492957464,
				"y": 0.1469729671,
				"z": 3.0004325739,
				"element": "H" 
			}
		],
		 "valence_orbital": [ 
			{
				"type": "occ",
				"energy": -0.28775,
				"method": "rhf"
			},
			{
				"type": "occ",
				"energy": -0.26964,
				"method": "rhf"
			},
			{
				"type": "occ",
				"energy": -0.26727,
				"method": "rhf"
			},
			{
				"type": "occ",
				"energy": -0.25124,
				"method": "rhf"
			},
			{
				"type": "occ",
				"energy": -0.24592,
				"method": "rhf"
			},
			{
				"type": "unocc",
				"energy": -0.05594,
				"method": "rhf"
			},
			{
				"type": "unocc",
				"energy": -0.01712,
				"method": "rhf"
			},
			{
				"type": "unocc",
				"energy": 0.03121,
				"method": "rhf"
			},
			{
				"type": "unocc",
				"energy": 0.04802,
				"method": "rhf"
			},
			{
				"type": "unocc",
				"energy": 0.07728,
				"method": "rhf"
			}
		],
		"cosmo_sigma_profile": { 
			"-0.025": 0.0,
			"-0.024": 0.0,
			"-0.023": 0.0,
			"-0.022": 0.0,
			"-0.021": 0.0,
			"-0.02": 0.0,
			"-0.019": 0.0,
			"-0.018": 0.0,
			"-0.017": 0.0,
			"-0.016": 0.0,
			"-0.015": 0.0,
			"-0.014": 0.0,
			"-0.013": 0.00347730146849,
			"-0.012": 0.676490924435,
			"-0.011": 0.787439496991,
			"-0.01": 0.900147384692,
			"-0.009": 1.08663954245,
			"-0.008": 2.55495978502,
			"-0.007": 6.20131131135,
			"-0.006": 13.7643505469,
			"-0.005": 18.1326488494,
			"-0.004": 21.4415183294,
			"-0.003": 25.7693529816,
			"-0.002": 32.5282667653,
			"-0.001": 30.7960910599,
			"0.0": 33.3810324882,
			"0.001": 29.8126111993,
			"0.002": 18.7132223859,
			"0.003": 15.8911678183,
			"0.004": 14.0857460555,
			"0.005": 3.68866123282,
			"0.006": 3.19207640772,
			"0.007": 2.16788195427,
			"0.008": 2.0376254119,
			"0.009": 3.45560949339,
			"0.01": 3.97157618641,
			"0.011": 5.29843255084,
			"0.012": 2.72663653059,
			"0.013": 2.87415245881,
			"0.014": 5.62640958911,
			"0.015": 0.843149702952,
			"0.016": 0.0,
			"0.017": 0.0,
			"0.018": 0.0,
			"0.019": 0.0,
			"0.02": 0.0,
			"0.021": 0.0,
			"0.022": 0.0,
			"0.023": 0.0,
			"0.024": 0.0,
			"0.025": 0.0
		}
	}
}
