{
	 "smiles": "COC(=O)C=CC1=CC=CS1", 
	 "Tm": 322.15, 
	 "num_atms": 19, 
	 "gaussian": { 
		 "optdone": 1, 
		 "sigma_profile": "yes", 
		 "theory": "DFT", 
		 "functional": "B3LYP", 
		 "basiset": "6-31G**", 
		 "properties": { 
			 "R2extent": 3217.6705, 
			 "electric_dipole_moment_norm": 2.66548728003, 
			 "electric_quadrupole_moment_norm": 14.0463399642, 
			 "total_energy": -858.285424948, 
			 "HOMO_LUMO_gap": 0.15544, 
			 "cosmo_polarized_energy": -9.19, 
			 "cosmo_cavitation_energy": 25.78, 
			 "cosmo_dispersion_energy": -19.32, 
			 "cosmo_repulsion_energy": 1.51, 
			 "cosmo_total_nonelectrostatic_energy": 7.97, 
			 "SMD_solvation_energy": 6.22 
		},
		"coords": [
			{
				"x": -0.2457979037,
				"y": -4.2751396013,
				"z": 1.3200100364,
				"element": "C" 
			},
			{
				"x": -0.1545939856,
				"y": -2.8511774035,
				"z": 1.1788105485,
				"element": "O" 
			},
			{
				"x": 1.0206773088,
				"y": -2.39852509,
				"z": 0.6694410853,
				"element": "C" 
			},
			{
				"x": 1.9347897802,
				"y": -3.1376966118,
				"z": 0.3526491738,
				"element": "O" 
			},
			{
				"x": 1.0723228951,
				"y": -0.9327024745,
				"z": 0.5404363909,
				"element": "C" 
			},
			{
				"x": 0.0643296396,
				"y": -0.1056078239,
				"z": 0.8881650387,
				"element": "C" 
			},
			{
				"x": 0.076836886,
				"y": 1.337965979,
				"z": 0.7766318655,
				"element": "C" 
			},
			{
				"x": 1.0593600897,
				"y": 2.1937928109,
				"z": 0.3150121772,
				"element": "C" 
			},
			{
				"x": 0.6870034371,
				"y": 3.5621854447,
				"z": 0.3652008885,
				"element": "C" 
			},
			{
				"x": -0.5774299458,
				"y": 3.7528044554,
				"z": 0.8640446366,
				"element": "C" 
			},
			{
				"x": -1.330296534,
				"y": 2.2557653922,
				"z": 1.2797145782,
				"element": "S" 
			},
			{
				"x": -1.2352655931,
				"y": -4.4677473995,
				"z": 1.7352525316,
				"element": "H" 
			},
			{
				"x": 0.5308977882,
				"y": -4.6485401182,
				"z": 1.9926600549,
				"element": "H" 
			},
			{
				"x": -0.1347112823,
				"y": -4.7687197619,
				"z": 0.3508928371,
				"element": "H" 
			},
			{
				"x": 2.0087446183,
				"y": -0.5655337384,
				"z": 0.133627074,
				"element": "H" 
			},
			{
				"x": -0.840499908,
				"y": -0.5563154082,
				"z": 1.2882941498,
				"element": "H" 
			},
			{
				"x": 2.0194579827,
				"y": 1.8464001338,
				"z": -0.0488365737,
				"element": "H" 
			},
			{
				"x": 1.3287676976,
				"y": 4.3749047868,
				"z": 0.0450063562,
				"element": "H" 
			},
			{
				"x": -1.1050929709,
				"y": 4.6851864283,
				"z": 1.0093871505,
				"element": "H" 
			}
		],
		 "valence_orbital": [ 
			{
				"type": "occ",
				"energy": -0.30837,
				"method": "rhf"
			},
			{
				"type": "occ",
				"energy": -0.29464,
				"method": "rhf"
			},
			{
				"type": "occ",
				"energy": -0.26625,
				"method": "rhf"
			},
			{
				"type": "occ",
				"energy": -0.26367,
				"method": "rhf"
			},
			{
				"type": "occ",
				"energy": -0.22522,
				"method": "rhf"
			},
			{
				"type": "unocc",
				"energy": -0.06978,
				"method": "rhf"
			},
			{
				"type": "unocc",
				"energy": 0.00717,
				"method": "rhf"
			},
			{
				"type": "unocc",
				"energy": 0.01547,
				"method": "rhf"
			},
			{
				"type": "unocc",
				"energy": 0.0588,
				"method": "rhf"
			},
			{
				"type": "unocc",
				"energy": 0.09045,
				"method": "rhf"
			}
		],
		"cosmo_sigma_profile": { 
			"-0.025": 0.0,
			"-0.024": 0.0,
			"-0.023": 0.0,
			"-0.022": 0.0,
			"-0.021": 0.0,
			"-0.02": 0.0,
			"-0.019": 0.0,
			"-0.018": 0.0,
			"-0.017": 0.0,
			"-0.016": 0.0,
			"-0.015": 0.0,
			"-0.014": 0.0,
			"-0.013": 0.0,
			"-0.012": 0.0,
			"-0.011": 0.0,
			"-0.01": 0.0177772859431,
			"-0.009": 1.4874140409,
			"-0.008": 4.86427870761,
			"-0.007": 8.9122202884,
			"-0.006": 10.9563003951,
			"-0.005": 14.2004355061,
			"-0.004": 15.7346846231,
			"-0.003": 15.682947403,
			"-0.002": 13.8315088872,
			"-0.001": 12.3979885865,
			"0.0": 14.1899926035,
			"0.001": 15.8991265315,
			"0.002": 18.7060375757,
			"0.003": 23.7842029127,
			"0.004": 14.0327280382,
			"0.005": 4.11888183851,
			"0.006": 3.06300595959,
			"0.007": 2.11436690323,
			"0.008": 1.26257055872,
			"0.009": 1.63679930355,
			"0.01": 1.21536525223,
			"0.011": 2.46897186097,
			"0.012": 4.47417306443,
			"0.013": 3.33724600468,
			"0.014": 0.294099871657,
			"0.015": 0.0,
			"0.016": 0.0,
			"0.017": 0.0,
			"0.018": 0.0,
			"0.019": 0.0,
			"0.02": 0.0,
			"0.021": 0.0,
			"0.022": 0.0,
			"0.023": 0.0,
			"0.024": 0.0,
			"0.025": 0.0
		}
	}
}
