{
	 "smiles": "OC(=O)C1CCCCN1C(=O)OCC1C2=C(C=CC=C2)C2=C1C=CC=C2", 
	 "Tm": 424.15, 
	 "num_atms": 47, 
	 "gaussian": { 
		 "optdone": 1, 
		 "sigma_profile": "yes", 
		 "theory": "DFT", 
		 "functional": "B3LYP", 
		 "basiset": "6-31G**", 
		 "properties": { 
			 "R2extent": 12040.3697, 
			 "electric_dipole_moment_norm": 1.62213474779, 
			 "electric_quadrupole_moment_norm": 21.9472682086, 
			 "total_energy": -1168.59317616, 
			 "HOMO_LUMO_gap": 0.1843, 
			 "cosmo_polarized_energy": -17.1, 
			 "cosmo_cavitation_energy": 48.93, 
			 "cosmo_dispersion_energy": -33.25, 
			 "cosmo_repulsion_energy": 2.51, 
			 "cosmo_total_nonelectrostatic_energy": 18.18, 
			 "SMD_solvation_energy": 8.52 
		},
		"coords": [
			{
				"x": 2.2321677376,
				"y": -1.8729537519,
				"z": -0.4552487223,
				"element": "O" 
			},
			{
				"x": 2.4736538603,
				"y": -1.4817701795,
				"z": 0.8143269066,
				"element": "C" 
			},
			{
				"x": 3.5129553829,
				"y": -0.9628554833,
				"z": 1.1576501447,
				"element": "O" 
			},
			{
				"x": 1.3287872977,
				"y": -1.7675319602,
				"z": 1.7955380774,
				"element": "C" 
			},
			{
				"x": 1.7852283955,
				"y": -2.797641406,
				"z": 2.8477869786,
				"element": "C" 
			},
			{
				"x": 1.9833200763,
				"y": -4.20843045,
				"z": 2.2565156289,
				"element": "C" 
			},
			{
				"x": 0.9531270997,
				"y": -4.5190340554,
				"z": 1.140582121,
				"element": "C" 
			},
			{
				"x": -0.2898643382,
				"y": -3.6333496448,
				"z": 1.2469075575,
				"element": "C" 
			},
			{
				"x": 0.081959263,
				"y": -2.212193739,
				"z": 1.1777536692,
				"element": "N" 
			},
			{
				"x": -0.7100253257,
				"y": -1.36612891,
				"z": 0.4523984259,
				"element": "C" 
			},
			{
				"x": -1.7323715161,
				"y": -1.6871363761,
				"z": -0.1328225936,
				"element": "O" 
			},
			{
				"x": -0.211908027,
				"y": -0.0950510937,
				"z": 0.4707565771,
				"element": "O" 
			},
			{
				"x": -0.9442260882,
				"y": 0.8684529995,
				"z": -0.3106125522,
				"element": "C" 
			},
			{
				"x": -2.1662766533,
				"y": 1.4329584719,
				"z": 0.4357803617,
				"element": "C" 
			},
			{
				"x": -1.8207318357,
				"y": 2.2910141188,
				"z": 1.6427617683,
				"element": "C" 
			},
			{
				"x": -2.300798876,
				"y": 3.6058934887,
				"z": 1.4606960632,
				"element": "C" 
			},
			{
				"x": -2.0951963967,
				"y": 4.579521629,
				"z": 2.4403679554,
				"element": "C" 
			},
			{
				"x": -1.4070229681,
				"y": 4.230181132,
				"z": 3.6043281391,
				"element": "C" 
			},
			{
				"x": -0.934810301,
				"y": 2.9262820521,
				"z": 3.7879761203,
				"element": "C" 
			},
			{
				"x": -1.1408990844,
				"y": 1.9485836939,
				"z": 2.8075043031,
				"element": "C" 
			},
			{
				"x": -2.9900217947,
				"y": 3.678487471,
				"z": 0.1655323409,
				"element": "C" 
			},
			{
				"x": -2.9346794678,
				"y": 2.4077139087,
				"z": -0.4431641937,
				"element": "C" 
			},
			{
				"x": -3.5289977101,
				"y": 2.190635609,
				"z": -1.6819257944,
				"element": "C" 
			},
			{
				"x": -4.1804491,
				"y": 3.254932254,
				"z": -2.3167716313,
				"element": "C" 
			},
			{
				"x": -4.2335931997,
				"y": 4.5167908854,
				"z": -1.7147574379,
				"element": "C" 
			},
			{
				"x": -3.6413798525,
				"y": 4.7382768681,
				"z": -0.4691072198,
				"element": "C" 
			},
			{
				"x": 3.0243614276,
				"y": -1.6285190034,
				"z": -0.9634866918,
				"element": "H" 
			},
			{
				"x": 1.1634204966,
				"y": -0.8106244127,
				"z": 2.2981619146,
				"element": "H" 
			},
			{
				"x": 1.0190652286,
				"y": -2.8208166763,
				"z": 3.6301943234,
				"element": "H" 
			},
			{
				"x": 2.7050237899,
				"y": -2.4298929064,
				"z": 3.3090646557,
				"element": "H" 
			},
			{
				"x": 2.9983066125,
				"y": -4.3048483536,
				"z": 1.8557332597,
				"element": "H" 
			},
			{
				"x": 1.9045062048,
				"y": -4.9399483245,
				"z": 3.0678256045,
				"element": "H" 
			},
			{
				"x": 0.647473873,
				"y": -5.569830699,
				"z": 1.177086508,
				"element": "H" 
			},
			{
				"x": 1.404241847,
				"y": -4.3516474945,
				"z": 0.1577768649,
				"element": "H" 
			},
			{
				"x": -0.9856900625,
				"y": -3.82112705,
				"z": 0.4288613925,
				"element": "H" 
			},
			{
				"x": -0.8276176354,
				"y": -3.8352524245,
				"z": 2.1846348711,
				"element": "H" 
			},
			{
				"x": -1.2631310808,
				"y": 0.3965517719,
				"z": -1.2420468298,
				"element": "H" 
			},
			{
				"x": -0.2251410617,
				"y": 1.6620171039,
				"z": -0.5240083806,
				"element": "H" 
			},
			{
				"x": -2.7970022985,
				"y": 0.5792655535,
				"z": 0.7142514616,
				"element": "H" 
			},
			{
				"x": -2.4653138315,
				"y": 5.5921679102,
				"z": 2.3051412403,
				"element": "H" 
			},
			{
				"x": -1.2400220132,
				"y": 4.976599706,
				"z": 4.3757873014,
				"element": "H" 
			},
			{
				"x": -0.4046104544,
				"y": 2.6696706114,
				"z": 4.700711088,
				"element": "H" 
			},
			{
				"x": -0.7761370122,
				"y": 0.9374478373,
				"z": 2.9571402214,
				"element": "H" 
			},
			{
				"x": -3.499478623,
				"y": 1.209959343,
				"z": -2.1497144786,
				"element": "H" 
			},
			{
				"x": -4.6512967524,
				"y": 3.0988154524,
				"z": -3.2830639873,
				"element": "H" 
			},
			{
				"x": -4.7439623762,
				"y": 5.3319303863,
				"z": -2.2200133947,
				"element": "H" 
			},
			{
				"x": -3.6908428561,
				"y": 5.7197341371,
				"z": -0.0054899377,
				"element": "H" 
			}
		],
		 "valence_orbital": [ 
			{
				"type": "occ",
				"energy": -0.27179,
				"method": "rhf"
			},
			{
				"type": "occ",
				"energy": -0.24766,
				"method": "rhf"
			},
			{
				"type": "occ",
				"energy": -0.24064,
				"method": "rhf"
			},
			{
				"type": "occ",
				"energy": -0.23876,
				"method": "rhf"
			},
			{
				"type": "occ",
				"energy": -0.2128,
				"method": "rhf"
			},
			{
				"type": "unocc",
				"energy": -0.0285,
				"method": "rhf"
			},
			{
				"type": "unocc",
				"energy": -0.00925,
				"method": "rhf"
			},
			{
				"type": "unocc",
				"energy": 0.00079,
				"method": "rhf"
			},
			{
				"type": "unocc",
				"energy": 0.01005,
				"method": "rhf"
			},
			{
				"type": "unocc",
				"energy": 0.04244,
				"method": "rhf"
			}
		],
		"cosmo_sigma_profile": { 
			"-0.025": 0.0,
			"-0.024": 0.0,
			"-0.023": 0.0,
			"-0.022": 0.0,
			"-0.021": 0.0,
			"-0.02": 0.0,
			"-0.019": 0.0701453270864,
			"-0.018": 1.02593801621,
			"-0.017": 0.923270889174,
			"-0.016": 0.520357615011,
			"-0.015": 1.22782332884,
			"-0.014": 0.812377834521,
			"-0.013": 0.411487751627,
			"-0.012": 0.437344854796,
			"-0.011": 0.818446547115,
			"-0.01": 0.889348818574,
			"-0.009": 0.567363090226,
			"-0.008": 0.506888050346,
			"-0.007": 1.11090379754,
			"-0.006": 12.5612148984,
			"-0.005": 25.8198269624,
			"-0.004": 40.0255030673,
			"-0.003": 48.4782482032,
			"-0.002": 38.3854632693,
			"-0.001": 31.3629595789,
			"0.0": 27.1718360023,
			"0.001": 20.2140385751,
			"0.002": 18.0399101906,
			"0.003": 23.801801257,
			"0.004": 23.9137160613,
			"0.005": 23.0793756452,
			"0.006": 15.3361529377,
			"0.007": 3.98314220189,
			"0.008": 2.39550893108,
			"0.009": 3.32232327648,
			"0.01": 3.62360419759,
			"0.011": 5.00853883207,
			"0.012": 6.15662053714,
			"0.013": 4.50856667147,
			"0.014": 0.24438393448,
			"0.015": 0.0,
			"0.016": 0.0,
			"0.017": 0.0,
			"0.018": 0.0,
			"0.019": 0.0,
			"0.02": 0.0,
			"0.021": 0.0,
			"0.022": 0.0,
			"0.023": 0.0,
			"0.024": 0.0,
			"0.025": 0.0
		}
	}
}
