{
	 "smiles": "CCOC(=O)C(C#N)=C(SC)N(C)C", 
	 "Tm": 365.15, 
	 "num_atms": 28, 
	 "gaussian": { 
		 "optdone": 1, 
		 "sigma_profile": "yes", 
		 "theory": "DFT", 
		 "functional": "B3LYP", 
		 "basiset": "6-31G**", 
		 "properties": { 
			 "R2extent": 3442.092, 
			 "electric_dipole_moment_norm": 7.90299564849, 
			 "electric_quadrupole_moment_norm": 21.9330013765, 
			 "total_energy": -1009.50400076, 
			 "HOMO_LUMO_gap": 0.16794, 
			 "cosmo_polarized_energy": -19.27, 
			 "cosmo_cavitation_energy": 33.25, 
			 "cosmo_dispersion_energy": -22.44, 
			 "cosmo_repulsion_energy": 1.76, 
			 "cosmo_total_nonelectrostatic_energy": 12.57, 
			 "SMD_solvation_energy": 8.45 
		},
		"coords": [
			{
				"x": -1.2402927996,
				"y": 2.0019463875,
				"z": -2.9145127407,
				"element": "C" 
			},
			{
				"x": -1.0589521616,
				"y": 0.506222662,
				"z": -2.7341780108,
				"element": "C" 
			},
			{
				"x": -0.5825048137,
				"y": 0.2826436112,
				"z": -1.3880019665,
				"element": "O" 
			},
			{
				"x": -0.4244967205,
				"y": -1.0272141272,
				"z": -1.0467884289,
				"element": "C" 
			},
			{
				"x": -0.6549453264,
				"y": -1.9375645358,
				"z": -1.8198019441,
				"element": "O" 
			},
			{
				"x": -0.0393124369,
				"y": -1.2241237432,
				"z": 0.3676836231,
				"element": "C" 
			},
			{
				"x": -0.2113183788,
				"y": -2.5568827446,
				"z": 0.8403225324,
				"element": "C" 
			},
			{
				"x": -0.3443088766,
				"y": -3.6383451594,
				"z": 1.2552215743,
				"element": "N" 
			},
			{
				"x": 0.3886926009,
				"y": -0.2268723675,
				"z": 1.2505841178,
				"element": "C" 
			},
			{
				"x": 0.1405864743,
				"y": -0.3426251605,
				"z": 3.009825714,
				"element": "S" 
			},
			{
				"x": -1.5011099712,
				"y": -1.1283181462,
				"z": 3.1957279048,
				"element": "C" 
			},
			{
				"x": 1.1287533559,
				"y": 0.8453639357,
				"z": 0.8648290514,
				"element": "N" 
			},
			{
				"x": 2.0259758899,
				"y": 0.7896502616,
				"z": -0.2860015911,
				"element": "C" 
			},
			{
				"x": 1.1090391982,
				"y": 2.1458827084,
				"z": 1.5328284726,
				"element": "C" 
			},
			{
				"x": -0.292519392,
				"y": 2.5358558794,
				"z": -2.7929791979,
				"element": "H" 
			},
			{
				"x": -1.6202019542,
				"y": 2.2102042838,
				"z": -3.9195627721,
				"element": "H" 
			},
			{
				"x": -1.955109772,
				"y": 2.3999011649,
				"z": -2.1883802665,
				"element": "H" 
			},
			{
				"x": -1.9980960858,
				"y": -0.0379773505,
				"z": -2.8715070561,
				"element": "H" 
			},
			{
				"x": -0.3370197286,
				"y": 0.0908354415,
				"z": -3.444820224,
				"element": "H" 
			},
			{
				"x": -1.8437149738,
				"y": -0.8498040489,
				"z": 4.1944712992,
				"element": "H" 
			},
			{
				"x": -1.4318642845,
				"y": -2.2116088505,
				"z": 3.1038033643,
				"element": "H" 
			},
			{
				"x": -2.1899364051,
				"y": -0.7304734922,
				"z": 2.4491781127,
				"element": "H" 
			},
			{
				"x": 2.9797555875,
				"y": 1.2494070081,
				"z": -0.0027233894,
				"element": "H" 
			},
			{
				"x": 2.1999723516,
				"y": -0.249291454,
				"z": -0.5663642694,
				"element": "H" 
			},
			{
				"x": 1.6099740485,
				"y": 1.3243650106,
				"z": -1.1445653185,
				"element": "H" 
			},
			{
				"x": 2.0668069051,
				"y": 2.348534549,
				"z": 2.0272230387,
				"element": "H" 
			},
			{
				"x": 0.3143697907,
				"y": 2.1811545588,
				"z": 2.2747507448,
				"element": "H" 
			},
			{
				"x": 0.9354778786,
				"y": 2.9263337183,
				"z": 0.7827376258,
				"element": "H" 
			}
		],
		 "valence_orbital": [ 
			{
				"type": "occ",
				"energy": -0.30859,
				"method": "rhf"
			},
			{
				"type": "occ",
				"energy": -0.29501,
				"method": "rhf"
			},
			{
				"type": "occ",
				"energy": -0.26867,
				"method": "rhf"
			},
			{
				"type": "occ",
				"energy": -0.25738,
				"method": "rhf"
			},
			{
				"type": "occ",
				"energy": -0.22088,
				"method": "rhf"
			},
			{
				"type": "unocc",
				"energy": -0.05294,
				"method": "rhf"
			},
			{
				"type": "unocc",
				"energy": 0.02274,
				"method": "rhf"
			},
			{
				"type": "unocc",
				"energy": 0.03017,
				"method": "rhf"
			},
			{
				"type": "unocc",
				"energy": 0.0518,
				"method": "rhf"
			},
			{
				"type": "unocc",
				"energy": 0.05549,
				"method": "rhf"
			}
		],
		"cosmo_sigma_profile": { 
			"-0.025": 0.0,
			"-0.024": 0.0,
			"-0.023": 0.0,
			"-0.022": 0.0,
			"-0.021": 0.0,
			"-0.02": 0.0,
			"-0.019": 0.0,
			"-0.018": 0.0,
			"-0.017": 0.0,
			"-0.016": 0.0,
			"-0.015": 0.0,
			"-0.014": 0.0,
			"-0.013": 0.0,
			"-0.012": 0.0,
			"-0.011": 0.0,
			"-0.01": 0.0,
			"-0.009": 0.0,
			"-0.008": 0.474828438666,
			"-0.007": 4.26795950228,
			"-0.006": 14.2364400907,
			"-0.005": 21.245453405,
			"-0.004": 34.47855133,
			"-0.003": 40.5654677771,
			"-0.002": 30.0624421866,
			"-0.001": 16.9336866003,
			"0.0": 16.1384026089,
			"0.001": 10.1407976911,
			"0.002": 9.063110496,
			"0.003": 8.66703852205,
			"0.004": 6.82567493799,
			"0.005": 6.72388430884,
			"0.006": 4.97958228863,
			"0.007": 4.50573373222,
			"0.008": 4.14002966566,
			"0.009": 5.36554914578,
			"0.01": 5.46051468175,
			"0.011": 5.31159370059,
			"0.012": 7.39586008547,
			"0.013": 5.48690698929,
			"0.014": 1.96925421675,
			"0.015": 0.113013556278,
			"0.016": 0.0,
			"0.017": 0.0,
			"0.018": 0.0,
			"0.019": 0.0,
			"0.02": 0.0,
			"0.021": 0.0,
			"0.022": 0.0,
			"0.023": 0.0,
			"0.024": 0.0,
			"0.025": 0.0
		}
	}
}
