{
	 "smiles": "CCOC(=O)CON=C(C(O)=O)C1=NNC=C1", 
	 "Tm": 402.15, 
	 "num_atms": 28, 
	 "gaussian": { 
		 "optdone": 1, 
		 "sigma_profile": "yes", 
		 "theory": "DFT", 
		 "functional": "B3LYP", 
		 "basiset": "6-31G**", 
		 "properties": { 
			 "R2extent": 5853.3811, 
			 "electric_dipole_moment_norm": 8.96824382251, 
			 "electric_quadrupole_moment_norm": 40.2568651632, 
			 "total_energy": -889.888952655, 
			 "HOMO_LUMO_gap": 0.18497, 
			 "cosmo_polarized_energy": -25.47, 
			 "cosmo_cavitation_energy": 34.12, 
			 "cosmo_dispersion_energy": -23.91, 
			 "cosmo_repulsion_energy": 1.93, 
			 "cosmo_total_nonelectrostatic_energy": 12.14, 
			 "SMD_solvation_energy": 8.35 
		},
		"coords": [
			{
				"x": 2.0402047556,
				"y": -2.415372489,
				"z": -2.1448620275,
				"element": "C" 
			},
			{
				"x": 2.025645029,
				"y": -2.5165203604,
				"z": -0.6276575657,
				"element": "C" 
			},
			{
				"x": 0.8900661541,
				"y": -1.807607342,
				"z": -0.0654948779,
				"element": "O" 
			},
			{
				"x": -0.2545595386,
				"y": -2.496866667,
				"z": 0.0261886658,
				"element": "C" 
			},
			{
				"x": -0.4278725134,
				"y": -3.6355110453,
				"z": -0.3516413159,
				"element": "O" 
			},
			{
				"x": -1.3840549674,
				"y": -1.6917804903,
				"z": 0.6615162276,
				"element": "C" 
			},
			{
				"x": -1.0263604116,
				"y": -0.3854974392,
				"z": 1.0956345855,
				"element": "O" 
			},
			{
				"x": -0.4167350703,
				"y": -0.4722820427,
				"z": 2.3330725962,
				"element": "N" 
			},
			{
				"x": 0.0326754243,
				"y": 0.6527365207,
				"z": 2.7784529147,
				"element": "C" 
			},
			{
				"x": 0.663663981,
				"y": 0.4919654244,
				"z": 4.1738122643,
				"element": "C" 
			},
			{
				"x": 1.0270230554,
				"y": 1.6159361537,
				"z": 4.8052244223,
				"element": "O" 
			},
			{
				"x": 0.8169668466,
				"y": -0.5952184361,
				"z": 4.6740072675,
				"element": "O" 
			},
			{
				"x": -0.0171511835,
				"y": 1.947759937,
				"z": 2.0763397761,
				"element": "C" 
			},
			{
				"x": 0.3199966716,
				"y": 3.0626095491,
				"z": 2.7483788579,
				"element": "N" 
			},
			{
				"x": 0.2039580074,
				"y": 4.06544543,
				"z": 1.8696686017,
				"element": "N" 
			},
			{
				"x": -0.199024628,
				"y": 3.639159126,
				"z": 0.6445404117,
				"element": "C" 
			},
			{
				"x": -0.3564909824,
				"y": 2.2730535045,
				"z": 0.733392468,
				"element": "C" 
			},
			{
				"x": 2.0337379487,
				"y": -1.3698479717,
				"z": -2.467111785,
				"element": "H" 
			},
			{
				"x": 2.9454352003,
				"y": -2.8897416783,
				"z": -2.5380576798,
				"element": "H" 
			},
			{
				"x": 1.1736046394,
				"y": -2.9251986127,
				"z": -2.5728754012,
				"element": "H" 
			},
			{
				"x": 2.8939625251,
				"y": -2.0277553112,
				"z": -0.1809129161,
				"element": "H" 
			},
			{
				"x": 1.9843040005,
				"y": -3.5575801811,
				"z": -0.2999149191,
				"element": "H" 
			},
			{
				"x": -2.1696517822,
				"y": -1.5571122489,
				"z": -0.0874846612,
				"element": "H" 
			},
			{
				"x": -1.7860307108,
				"y": -2.2753190969,
				"z": 1.4942937471,
				"element": "H" 
			},
			{
				"x": 0.8428764658,
				"y": 2.4089470269,
				"z": 4.2473919988,
				"element": "H" 
			},
			{
				"x": 0.4048253899,
				"y": 5.0074302762,
				"z": 2.1688025716,
				"element": "H" 
			},
			{
				"x": -0.3414142897,
				"y": 4.3257407285,
				"z": -0.1766598451,
				"element": "H" 
			},
			{
				"x": -0.6608000169,
				"y": 1.5960277359,
				"z": -0.0435443823,
				"element": "H" 
			}
		],
		 "valence_orbital": [ 
			{
				"type": "occ",
				"energy": -0.28883,
				"method": "rhf"
			},
			{
				"type": "occ",
				"energy": -0.28132,
				"method": "rhf"
			},
			{
				"type": "occ",
				"energy": -0.27802,
				"method": "rhf"
			},
			{
				"type": "occ",
				"energy": -0.25683,
				"method": "rhf"
			},
			{
				"type": "occ",
				"energy": -0.24827,
				"method": "rhf"
			},
			{
				"type": "unocc",
				"energy": -0.0633,
				"method": "rhf"
			},
			{
				"type": "unocc",
				"energy": -0.00835,
				"method": "rhf"
			},
			{
				"type": "unocc",
				"energy": 0.00783,
				"method": "rhf"
			},
			{
				"type": "unocc",
				"energy": 0.03973,
				"method": "rhf"
			},
			{
				"type": "unocc",
				"energy": 0.04979,
				"method": "rhf"
			}
		],
		"cosmo_sigma_profile": { 
			"-0.025": 0.0,
			"-0.024": 0.0,
			"-0.023": 0.0,
			"-0.022": 0.0,
			"-0.021": 0.0,
			"-0.02": 0.0,
			"-0.019": 0.0546236401488,
			"-0.018": 1.74849318175,
			"-0.017": 1.54366773813,
			"-0.016": 1.30758217253,
			"-0.015": 1.52264356125,
			"-0.014": 0.593616053436,
			"-0.013": 1.23574528893,
			"-0.012": 1.24740545436,
			"-0.011": 1.03119574355,
			"-0.01": 3.4171248201,
			"-0.009": 4.83558636524,
			"-0.008": 6.34558517418,
			"-0.007": 6.69919147758,
			"-0.006": 10.581875755,
			"-0.005": 15.9005838197,
			"-0.004": 21.7836560554,
			"-0.003": 22.0022009671,
			"-0.002": 18.4202847653,
			"-0.001": 18.9205312764,
			"0.0": 19.9798866254,
			"0.001": 17.1385457141,
			"0.002": 13.3585498319,
			"0.003": 12.2059793974,
			"0.004": 9.86734202968,
			"0.005": 6.14389716553,
			"0.006": 7.52911508632,
			"0.007": 5.83943753324,
			"0.008": 4.20769092301,
			"0.009": 5.186575034,
			"0.01": 5.79456736892,
			"0.011": 10.4474774972,
			"0.012": 8.98532736738,
			"0.013": 3.5965016455,
			"0.014": 1.06864824659,
			"0.015": 1.32534134559,
			"0.016": 0.23892104406,
			"0.017": 0.0,
			"0.018": 0.0,
			"0.019": 0.0,
			"0.02": 0.0,
			"0.021": 0.0,
			"0.022": 0.0,
			"0.023": 0.0,
			"0.024": 0.0,
			"0.025": 0.0
		}
	}
}
