{
	 "smiles": "OC(=O)C1=C(Cl)C=CC(Br)=C1", 
	 "Tm": 432.65, 
	 "num_atms": 15, 
	 "gaussian": { 
		 "optdone": 1, 
		 "sigma_profile": "yes", 
		 "theory": "DFT", 
		 "functional": "B3LYP", 
		 "basiset": "6-31G**", 
		 "properties": { 
			 "R2extent": 4783.9491, 
			 "electric_dipole_moment_norm": 1.50297545888, 
			 "electric_quadrupole_moment_norm": 16.8440560911, 
			 "total_energy": -3451.20743199, 
			 "HOMO_LUMO_gap": 0.18279, 
			 "cosmo_polarized_energy": -9.64, 
			 "cosmo_cavitation_energy": 24.1, 
			 "cosmo_dispersion_energy": -18.5, 
			 "cosmo_repulsion_energy": 1.49, 
			 "cosmo_total_nonelectrostatic_energy": 7.08, 
			 "SMD_solvation_energy": 3.97 
		},
		"coords": [
			{
				"x": -0.9440756035,
				"y": 1.0312848224,
				"z": 0.5529850042,
				"element": "O" 
			},
			{
				"x": -0.556320948,
				"y": 0.1000605425,
				"z": 1.4645565952,
				"element": "C" 
			},
			{
				"x": -0.4979669695,
				"y": 0.3547396526,
				"z": 2.6469319198,
				"element": "O" 
			},
			{
				"x": -0.2325111807,
				"y": -1.20917995,
				"z": 0.8182116361,
				"element": "C" 
			},
			{
				"x": 0.1934365146,
				"y": -2.3433962409,
				"z": 1.5391025229,
				"element": "C" 
			},
			{
				"x": 0.3956256201,
				"y": -2.3620847796,
				"z": 3.273066895,
				"element": "Cl" 
			},
			{
				"x": 0.4792564969,
				"y": -3.5361871971,
				"z": 0.8686166255,
				"element": "C" 
			},
			{
				"x": 0.3500879293,
				"y": -3.6271926052,
				"z": -0.5133508451,
				"element": "C" 
			},
			{
				"x": -0.0707749725,
				"y": -2.5082661039,
				"z": -1.2302778348,
				"element": "C" 
			},
			{
				"x": -0.2534580495,
				"y": -2.6152372872,
				"z": -3.1258106265,
				"element": "Br" 
			},
			{
				"x": -0.3583580058,
				"y": -1.3170976069,
				"z": -0.5791099364,
				"element": "C" 
			},
			{
				"x": -1.1289481173,
				"y": 1.8341559323,
				"z": 1.066929154,
				"element": "H" 
			},
			{
				"x": 0.8052976508,
				"y": -4.3966315026,
				"z": 1.4417753702,
				"element": "H" 
			},
			{
				"x": 0.5742015018,
				"y": -4.5568052635,
				"z": -1.0238374032,
				"element": "H" 
			},
			{
				"x": -0.6842918667,
				"y": -0.453762413,
				"z": -1.1425890767,
				"element": "H" 
			}
		],
		 "valence_orbital": [ 
			{
				"type": "occ",
				"energy": -0.31058,
				"method": "rhf"
			},
			{
				"type": "occ",
				"energy": -0.30003,
				"method": "rhf"
			},
			{
				"type": "occ",
				"energy": -0.28727,
				"method": "rhf"
			},
			{
				"type": "occ",
				"energy": -0.2775,
				"method": "rhf"
			},
			{
				"type": "occ",
				"energy": -0.25186,
				"method": "rhf"
			},
			{
				"type": "unocc",
				"energy": -0.06907,
				"method": "rhf"
			},
			{
				"type": "unocc",
				"energy": -0.03469,
				"method": "rhf"
			},
			{
				"type": "unocc",
				"energy": -0.0073,
				"method": "rhf"
			},
			{
				"type": "unocc",
				"energy": 0.02602,
				"method": "rhf"
			},
			{
				"type": "unocc",
				"energy": 0.03742,
				"method": "rhf"
			}
		],
		"cosmo_sigma_profile": { 
			"-0.025": 0.0,
			"-0.024": 0.0,
			"-0.023": 0.0,
			"-0.022": 0.0,
			"-0.021": 0.0,
			"-0.02": 0.0,
			"-0.019": 0.132857722757,
			"-0.018": 1.09447120171,
			"-0.017": 0.801713146804,
			"-0.016": 0.50743384527,
			"-0.015": 1.25528795339,
			"-0.014": 0.781614405139,
			"-0.013": 0.299398293302,
			"-0.012": 0.585625677027,
			"-0.011": 1.18764601143,
			"-0.01": 0.602787139222,
			"-0.009": 1.34017263381,
			"-0.008": 4.71753456498,
			"-0.007": 5.13896528903,
			"-0.006": 6.20048700525,
			"-0.005": 5.25541845602,
			"-0.004": 8.32843031078,
			"-0.003": 11.1651872569,
			"-0.002": 13.4718325671,
			"-0.001": 18.1301783879,
			"0.0": 26.7656379321,
			"0.001": 21.2961460312,
			"0.002": 12.3711929301,
			"0.003": 16.2051628457,
			"0.004": 18.0448264154,
			"0.005": 4.79187654567,
			"0.006": 3.22002876395,
			"0.007": 2.23037928824,
			"0.008": 1.92113636002,
			"0.009": 1.93812105926,
			"0.01": 2.83549932746,
			"0.011": 4.91982629536,
			"0.012": 1.93072336773,
			"0.013": 0.0,
			"0.014": 0.0,
			"0.015": 0.0,
			"0.016": 0.0,
			"0.017": 0.0,
			"0.018": 0.0,
			"0.019": 0.0,
			"0.02": 0.0,
			"0.021": 0.0,
			"0.022": 0.0,
			"0.023": 0.0,
			"0.024": 0.0,
			"0.025": 0.0
		}
	}
}
