{
	 "smiles": "CNC1=NC(C)=NC(Cl)=C1", 
	 "Tm": 417.15, 
	 "num_atms": 18, 
	 "gaussian": { 
		 "optdone": 1, 
		 "sigma_profile": "yes", 
		 "theory": "DFT", 
		 "functional": "B3LYP", 
		 "basiset": "6-31G**", 
		 "properties": { 
			 "R2extent": 2372.5842, 
			 "electric_dipole_moment_norm": 4.38816554952, 
			 "electric_quadrupole_moment_norm": 7.5424590506, 
			 "total_energy": -857.924392449, 
			 "HOMO_LUMO_gap": 0.20721, 
			 "cosmo_polarized_energy": -10.98, 
			 "cosmo_cavitation_energy": 23.87, 
			 "cosmo_dispersion_energy": -17.92, 
			 "cosmo_repulsion_energy": 1.49, 
			 "cosmo_total_nonelectrostatic_energy": 7.44, 
			 "SMD_solvation_energy": 1.17 
		},
		"coords": [
			{
				"x": 1.434748093,
				"y": -1.3513162014,
				"z": -1.6635372364,
				"element": "C" 
			},
			{
				"x": 1.2624953363,
				"y": -0.7386816114,
				"z": -0.3569980503,
				"element": "N" 
			},
			{
				"x": 0.0532406535,
				"y": -0.3464711602,
				"z": 0.1262547862,
				"element": "C" 
			},
			{
				"x": -1.0068994584,
				"y": -0.4504564638,
				"z": -0.6972773976,
				"element": "N" 
			},
			{
				"x": -2.1897704268,
				"y": -0.044609965,
				"z": -0.2232277348,
				"element": "C" 
			},
			{
				"x": -3.3783765909,
				"y": -0.1858497538,
				"z": -1.1354094225,
				"element": "C" 
			},
			{
				"x": -2.4237202244,
				"y": 0.4545227585,
				"z": 1.0019377038,
				"element": "N" 
			},
			{
				"x": -1.3604687636,
				"y": 0.5407955855,
				"z": 1.791705401,
				"element": "C" 
			},
			{
				"x": -1.6345777172,
				"y": 1.1910643338,
				"z": 3.4074252385,
				"element": "Cl" 
			},
			{
				"x": -0.0801510456,
				"y": 0.1652781468,
				"z": 1.4385144087,
				"element": "C" 
			},
			{
				"x": 0.9766700874,
				"y": -2.3464764655,
				"z": -1.7182772809,
				"element": "H" 
			},
			{
				"x": 0.9770861044,
				"y": -0.7300235328,
				"z": -2.4364522564,
				"element": "H" 
			},
			{
				"x": 2.5042851975,
				"y": -1.4411935944,
				"z": -1.8648421316,
				"element": "H" 
			},
			{
				"x": 2.0359692662,
				"y": -0.7584383914,
				"z": 0.2878296266,
				"element": "H" 
			},
			{
				"x": -4.1415624523,
				"y": 0.551692884,
				"z": -0.8817195228,
				"element": "H" 
			},
			{
				"x": -3.0742512852,
				"y": -0.0805440698,
				"z": -2.1785846032,
				"element": "H" 
			},
			{
				"x": -3.8212808451,
				"y": -1.1819916865,
				"z": -1.0154720133,
				"element": "H" 
			},
			{
				"x": 0.7590640712,
				"y": 0.2615991875,
				"z": 2.1163304851,
				"element": "H" 
			}
		],
		 "valence_orbital": [ 
			{
				"type": "occ",
				"energy": -0.31017,
				"method": "rhf"
			},
			{
				"type": "occ",
				"energy": -0.29998,
				"method": "rhf"
			},
			{
				"type": "occ",
				"energy": -0.27184,
				"method": "rhf"
			},
			{
				"type": "occ",
				"energy": -0.25433,
				"method": "rhf"
			},
			{
				"type": "occ",
				"energy": -0.23098,
				"method": "rhf"
			},
			{
				"type": "unocc",
				"energy": -0.02377,
				"method": "rhf"
			},
			{
				"type": "unocc",
				"energy": -0.00928,
				"method": "rhf"
			},
			{
				"type": "unocc",
				"energy": 0.03712,
				"method": "rhf"
			},
			{
				"type": "unocc",
				"energy": 0.06917,
				"method": "rhf"
			},
			{
				"type": "unocc",
				"energy": 0.11508,
				"method": "rhf"
			}
		],
		"cosmo_sigma_profile": { 
			"-0.025": 0.0,
			"-0.024": 0.0,
			"-0.023": 0.0,
			"-0.022": 0.0,
			"-0.021": 0.0,
			"-0.02": 0.0,
			"-0.019": 0.0,
			"-0.018": 0.0,
			"-0.017": 0.0,
			"-0.016": 0.0,
			"-0.015": 0.485887399308,
			"-0.014": 1.78452442521,
			"-0.013": 1.7641083243,
			"-0.012": 1.68403058167,
			"-0.011": 1.55167795681,
			"-0.01": 1.235003529,
			"-0.009": 1.69501866838,
			"-0.008": 2.7556636323,
			"-0.007": 2.71996850765,
			"-0.006": 4.01193671182,
			"-0.005": 7.40682484635,
			"-0.004": 11.291009462,
			"-0.003": 13.1106017435,
			"-0.002": 16.7004724347,
			"-0.001": 20.9962421968,
			"0.0": 19.84309544,
			"0.001": 17.9434251939,
			"0.002": 11.7669952904,
			"0.003": 9.71374854441,
			"0.004": 13.6136721001,
			"0.005": 8.73479280296,
			"0.006": 4.15141069986,
			"0.007": 3.3107659536,
			"0.008": 2.71677644358,
			"0.009": 2.69739413813,
			"0.01": 2.00629945271,
			"0.011": 2.30899447179,
			"0.012": 1.53140425585,
			"0.013": 0.867987378061,
			"0.014": 1.0535521797,
			"0.015": 0.517982374137,
			"0.016": 0.0,
			"0.017": 0.0,
			"0.018": 0.0,
			"0.019": 0.0,
			"0.02": 0.0,
			"0.021": 0.0,
			"0.022": 0.0,
			"0.023": 0.0,
			"0.024": 0.0,
			"0.025": 0.0
		}
	}
}
