{
	 "smiles": "NC1=C(C=NN1C1=NC=CC=N1)C#N", 
	 "Tm": 594.15, 
	 "num_atms": 20, 
	 "gaussian": { 
		 "optdone": 1, 
		 "sigma_profile": "yes", 
		 "theory": "DFT", 
		 "functional": "B3LYP", 
		 "basiset": "6-31G**", 
		 "properties": { 
			 "R2extent": 3150.5953, 
			 "electric_dipole_moment_norm": 7.40293556706, 
			 "electric_quadrupole_moment_norm": 7.10074010157, 
			 "total_energy": -636.936191033, 
			 "HOMO_LUMO_gap": 0.1544, 
			 "cosmo_polarized_energy": -19.15, 
			 "cosmo_cavitation_energy": 26.26, 
			 "cosmo_dispersion_energy": -19.21, 
			 "cosmo_repulsion_energy": 1.5, 
			 "cosmo_total_nonelectrostatic_energy": 8.54, 
			 "SMD_solvation_energy": 3.65 
		},
		"coords": [
			{
				"x": 1.050020773,
				"y": -1.357281067,
				"z": -0.1943427437,
				"element": "N" 
			},
			{
				"x": 0.9570897178,
				"y": -0.2562152102,
				"z": -0.9722332861,
				"element": "C" 
			},
			{
				"x": 1.3358204189,
				"y": -0.0797438824,
				"z": -2.3071867832,
				"element": "C" 
			},
			{
				"x": 1.0579135365,
				"y": 1.292998264,
				"z": -2.5833676808,
				"element": "C" 
			},
			{
				"x": 0.5574329903,
				"y": 1.9320622723,
				"z": -1.5551756299,
				"element": "N" 
			},
			{
				"x": 0.4890081241,
				"y": 0.9757639672,
				"z": -0.5475371984,
				"element": "N" 
			},
			{
				"x": -0.0345999599,
				"y": 1.3214940588,
				"z": 0.7078799747,
				"element": "C" 
			},
			{
				"x": -0.1680355962,
				"y": 0.3218747175,
				"z": 1.5944381793,
				"element": "N" 
			},
			{
				"x": -0.6684013755,
				"y": 0.6558776185,
				"z": 2.7897242367,
				"element": "C" 
			},
			{
				"x": -1.0367826172,
				"y": 1.9581556941,
				"z": 3.1051447703,
				"element": "C" 
			},
			{
				"x": -0.8513864705,
				"y": 2.9062299878,
				"z": 2.096808706,
				"element": "C" 
			},
			{
				"x": -0.3518033305,
				"y": 2.6041889821,
				"z": 0.8989204943,
				"element": "N" 
			},
			{
				"x": 1.8661023538,
				"y": -1.0866358115,
				"z": -3.1413586812,
				"element": "C" 
			},
			{
				"x": 2.2974673608,
				"y": -1.9451105374,
				"z": -3.8028930877,
				"element": "N" 
			},
			{
				"x": 1.2649673713,
				"y": -2.2312748933,
				"z": -0.6484673905,
				"element": "H" 
			},
			{
				"x": 0.5735118952,
				"y": -1.3347431041,
				"z": 0.6984164077,
				"element": "H" 
			},
			{
				"x": 1.2161724806,
				"y": 1.8134933993,
				"z": -3.5186146496,
				"element": "H" 
			},
			{
				"x": -0.774468637,
				"y": -0.1542820061,
				"z": 3.5077538709,
				"element": "H" 
			},
			{
				"x": -1.4424163721,
				"y": 2.2206789733,
				"z": 4.0748018391,
				"element": "H" 
			},
			{
				"x": -1.1116126636,
				"y": 3.9513685771,
				"z": 2.2546886522,
				"element": "H" 
			}
		],
		 "valence_orbital": [ 
			{
				"type": "occ",
				"energy": -0.31953,
				"method": "rhf"
			},
			{
				"type": "occ",
				"energy": -0.29956,
				"method": "rhf"
			},
			{
				"type": "occ",
				"energy": -0.2732,
				"method": "rhf"
			},
			{
				"type": "occ",
				"energy": -0.25822,
				"method": "rhf"
			},
			{
				"type": "occ",
				"energy": -0.21941,
				"method": "rhf"
			},
			{
				"type": "unocc",
				"energy": -0.06501,
				"method": "rhf"
			},
			{
				"type": "unocc",
				"energy": -0.05509,
				"method": "rhf"
			},
			{
				"type": "unocc",
				"energy": 0.0096,
				"method": "rhf"
			},
			{
				"type": "unocc",
				"energy": 0.02868,
				"method": "rhf"
			},
			{
				"type": "unocc",
				"energy": 0.0311,
				"method": "rhf"
			}
		],
		"cosmo_sigma_profile": { 
			"-0.025": 0.0,
			"-0.024": 0.0,
			"-0.023": 0.0,
			"-0.022": 0.0,
			"-0.021": 0.0,
			"-0.02": 0.0,
			"-0.019": 0.0,
			"-0.018": 0.0,
			"-0.017": 0.0,
			"-0.016": 0.0363796425058,
			"-0.015": 0.68464120239,
			"-0.014": 1.10363594573,
			"-0.013": 0.754476649164,
			"-0.012": 1.20024184621,
			"-0.011": 1.99387889676,
			"-0.01": 2.06531421948,
			"-0.009": 5.82215962562,
			"-0.008": 11.6862206989,
			"-0.007": 11.0548211418,
			"-0.006": 8.94326562797,
			"-0.005": 7.6720221099,
			"-0.004": 10.902508841,
			"-0.003": 14.0801406076,
			"-0.002": 15.048442324,
			"-0.001": 20.3616213821,
			"0.0": 17.7721651725,
			"0.001": 14.5066841184,
			"0.002": 8.87862005732,
			"0.003": 6.2958074121,
			"0.004": 5.02231838548,
			"0.005": 5.14827795584,
			"0.006": 4.93531964887,
			"0.007": 3.34957811216,
			"0.008": 5.13182418577,
			"0.009": 4.85750229364,
			"0.01": 5.26573619889,
			"0.011": 4.35519366237,
			"0.012": 4.24253934731,
			"0.013": 3.86056768565,
			"0.014": 1.74910574958,
			"0.015": 1.27445436351,
			"0.016": 1.20001096342,
			"0.017": 0.808143457117,
			"0.018": 0.973278683577,
			"0.019": 0.607309186059,
			"0.02": 0.0347125273309,
			"0.021": 0.0,
			"0.022": 0.0,
			"0.023": 0.0,
			"0.024": 0.0,
			"0.025": 0.0
		}
	}
}
