{
	 "smiles": "NC1=NC(=CS1)C1=CC(=CC=C1)[N+]([O-])=O", 
	 "Tm": 460.15, 
	 "num_atms": 22, 
	 "gaussian": { 
		 "optdone": 1, 
		 "sigma_profile": "no", 
		 "theory": "DFT", 
		 "functional": "B3LYP", 
		 "basiset": "6-31G**", 
		 "properties": { 
			 "R2extent": 5083.9353, 
			 "electric_dipole_moment_norm": 6.38556175994, 
			 "electric_quadrupole_moment_norm": 8.14005474613, 
			 "total_energy": -1059.96801551, 
			 "HOMO_LUMO_gap": 0.13195, 
			 "cosmo_polarized_energy": -21.16, 
			 "cosmo_cavitation_energy": 29.32, 
			 "cosmo_dispersion_energy": -22.24, 
			 "cosmo_repulsion_energy": 1.68, 
			 "cosmo_total_nonelectrostatic_energy": 8.76, 
			 "SMD_solvation_energy": 5.92 
		},
		"coords": [
			{
				"x": 0.6541628715,
				"y": -1.635711208,
				"z": -4.3672400395,
				"element": "N" 
			},
			{
				"x": 0.0324444145,
				"y": -1.1174969247,
				"z": -3.2569487795,
				"element": "C" 
			},
			{
				"x": 0.5559820199,
				"y": -0.2139226745,
				"z": -2.4834876315,
				"element": "N" 
			},
			{
				"x": -0.3303899018,
				"y": 0.1728663171,
				"z": -1.4878662916,
				"element": "C" 
			},
			{
				"x": -1.5437655819,
				"y": -0.459583274,
				"z": -1.5081899201,
				"element": "C" 
			},
			{
				"x": -1.6220530429,
				"y": -1.5865738132,
				"z": -2.8347619701,
				"element": "S" 
			},
			{
				"x": 0.1033030899,
				"y": 1.1964723646,
				"z": -0.5181210431,
				"element": "C" 
			},
			{
				"x": -0.7243634082,
				"y": 1.6121455286,
				"z": 0.5343348642,
				"element": "C" 
			},
			{
				"x": -0.2677353166,
				"y": 2.5813260291,
				"z": 1.4195527171,
				"element": "C" 
			},
			{
				"x": 0.9927779413,
				"y": 3.1673858514,
				"z": 1.3087166054,
				"element": "C" 
			},
			{
				"x": 1.8126192141,
				"y": 2.7515798521,
				"z": 0.2624981537,
				"element": "C" 
			},
			{
				"x": 1.377139879,
				"y": 1.7802881344,
				"z": -0.6391452264,
				"element": "C" 
			},
			{
				"x": -1.1534246804,
				"y": 3.0031850373,
				"z": 2.5185647502,
				"element": "N" 
			},
			{
				"x": -2.2616520977,
				"y": 2.4729007357,
				"z": 2.5986215724,
				"element": "O" 
			},
			{
				"x": -0.7325968579,
				"y": 3.861902763,
				"z": 3.2929238901,
				"element": "O" 
			},
			{
				"x": 0.4062239938,
				"y": -2.5754074715,
				"z": -4.6408504302,
				"element": "H" 
			},
			{
				"x": 1.6465190876,
				"y": -1.4424117286,
				"z": -4.3973651207,
				"element": "H" 
			},
			{
				"x": -2.3872700133,
				"y": -0.3457561312,
				"z": -0.8443163166,
				"element": "H" 
			},
			{
				"x": -1.7145349041,
				"y": 1.2024310669,
				"z": 0.6857334851,
				"element": "H" 
			},
			{
				"x": 1.3006587218,
				"y": 3.9182452828,
				"z": 2.0248294563,
				"element": "H" 
			},
			{
				"x": 2.7999161844,
				"y": 3.1881415647,
				"z": 0.1479267854,
				"element": "H" 
			},
			{
				"x": 2.0148383869,
				"y": 1.4564926981,
				"z": -1.4534095107,
				"element": "H" 
			}
		],
		 "valence_orbital": [ 
			{
				"type": "occ",
				"energy": -0.28713,
				"method": "rhf"
			},
			{
				"type": "occ",
				"energy": -0.28619,
				"method": "rhf"
			},
			{
				"type": "occ",
				"energy": -0.27544,
				"method": "rhf"
			},
			{
				"type": "occ",
				"energy": -0.26689,
				"method": "rhf"
			},
			{
				"type": "occ",
				"energy": -0.21584,
				"method": "rhf"
			},
			{
				"type": "unocc",
				"energy": -0.08389,
				"method": "rhf"
			},
			{
				"type": "unocc",
				"energy": -0.04759,
				"method": "rhf"
			},
			{
				"type": "unocc",
				"energy": -0.00283,
				"method": "rhf"
			},
			{
				"type": "unocc",
				"energy": 0.00244,
				"method": "rhf"
			},
			{
				"type": "unocc",
				"energy": 0.00436,
				"method": "rhf"
			}
		],
		"cosmo_sigma_profile": { 
			"0.0": 0.0,
			"0.0": 0.0,
			"0.0": 0.0,
			"0.0": 0.0,
			"0.0": 0.0,
			"0.0": 0.0,
			"0.0": 0.0,
			"0.0": 0.0,
			"0.0": 0.0,
			"0.0": 0.0,
			"0.0": 0.0,
			"0.0": 0.0,
			"0.0": 0.0,
			"0.0": 0.0,
			"0.0": 0.0,
			"0.0": 0.0,
			"0.0": 0.0,
			"0.0": 0.0,
			"0.0": 0.0,
			"0.0": 0.0,
			"0.0": 0.0,
			"0.0": 0.0,
			"0.0": 0.0,
			"0.0": 0.0,
			"0.0": 0.0,
			"0.0": 0.0,
			"0.0": 0.0,
			"0.0": 0.0,
			"0.0": 0.0,
			"0.0": 0.0,
			"0.0": 0.0,
			"0.0": 0.0,
			"0.0": 0.0,
			"0.0": 0.0,
			"0.0": 0.0,
			"0.0": 0.0,
			"0.0": 0.0,
			"0.0": 0.0,
			"0.0": 0.0,
			"0.0": 0.0,
			"0.0": 0.0,
			"0.0": 0.0,
			"0.0": 0.0,
			"0.0": 0.0,
			"0.0": 0.0,
			"0.0": 0.0,
			"0.0": 0.0,
			"0.0": 0.0,
			"0.0": 0.0,
			"0.0": 0.0,
			"0.0": 0.0
		}
	}
}
