{
	 "smiles": "ClC1=CC=CC2=C1C(=O)C1=CC=CC=C1C2=O", 
	 "Tm": 434.15, 
	 "num_atms": 24, 
	 "gaussian": { 
		 "optdone": 1, 
		 "sigma_profile": "yes", 
		 "theory": "DFT", 
		 "functional": "B3LYP", 
		 "basiset": "6-31G**", 
		 "properties": { 
			 "R2extent": 4735.9023, 
			 "electric_dipole_moment_norm": 1.37351074259, 
			 "electric_quadrupole_moment_norm": 20.5961146763, 
			 "total_energy": -1148.35659591, 
			 "HOMO_LUMO_gap": 0.14664, 
			 "cosmo_polarized_energy": -10.39, 
			 "cosmo_cavitation_energy": 30.18, 
			 "cosmo_dispersion_energy": -22.69, 
			 "cosmo_repulsion_energy": 1.68, 
			 "cosmo_total_nonelectrostatic_energy": 9.17, 
			 "SMD_solvation_energy": 5.4 
		},
		"coords": [
			{
				"x": 3.7572233957,
				"y": 2.5567323912,
				"z": 0.5524958889,
				"element": "Cl" 
			},
			{
				"x": 2.5668584751,
				"y": 1.873406385,
				"z": -0.5320361758,
				"element": "C" 
			},
			{
				"x": 2.8803651587,
				"y": 1.9559531567,
				"z": -1.8924425851,
				"element": "C" 
			},
			{
				"x": 2.0097579587,
				"y": 1.4463999977,
				"z": -2.8510851872,
				"element": "C" 
			},
			{
				"x": 0.8181143637,
				"y": 0.8501261682,
				"z": -2.4538046647,
				"element": "C" 
			},
			{
				"x": 0.4964720589,
				"y": 0.7630395291,
				"z": -1.0981608422,
				"element": "C" 
			},
			{
				"x": 1.3646326325,
				"y": 1.2737394539,
				"z": -0.0983772299,
				"element": "C" 
			},
			{
				"x": 0.9760666713,
				"y": 1.1570554414,
				"z": 1.3461524847,
				"element": "C" 
			},
			{
				"x": 1.6804212911,
				"y": 1.5769658022,
				"z": 2.2537458759,
				"element": "O" 
			},
			{
				"x": -0.3279517778,
				"y": 0.4970421051,
				"z": 1.6687708396,
				"element": "C" 
			},
			{
				"x": -0.6997600801,
				"y": 0.3824875563,
				"z": 3.0141797193,
				"element": "C" 
			},
			{
				"x": -1.9047234972,
				"y": -0.2246463637,
				"z": 3.3572583484,
				"element": "C" 
			},
			{
				"x": -2.7520310079,
				"y": -0.7242487642,
				"z": 2.3603051921,
				"element": "C" 
			},
			{
				"x": -2.3907631752,
				"y": -0.6148161905,
				"z": 1.0210526448,
				"element": "C" 
			},
			{
				"x": -1.1796928864,
				"y": -0.0049670409,
				"z": 0.6704029821,
				"element": "C" 
			},
			{
				"x": -0.8071877931,
				"y": 0.1049322281,
				"z": -0.760137077,
				"element": "C" 
			},
			{
				"x": -1.5370984789,
				"y": -0.3274316973,
				"z": -1.6459372239,
				"element": "O" 
			},
			{
				"x": 3.8137909726,
				"y": 2.4241599074,
				"z": -2.1843405634,
				"element": "H" 
			},
			{
				"x": 2.2665267743,
				"y": 1.5176584658,
				"z": -3.9035870602,
				"element": "H" 
			},
			{
				"x": 0.1146287973,
				"y": 0.4418356937,
				"z": -3.1704312953,
				"element": "H" 
			},
			{
				"x": -0.0274402458,
				"y": 0.7767806421,
				"z": 3.7681560848,
				"element": "H" 
			},
			{
				"x": -2.1876193951,
				"y": -0.3105642779,
				"z": 4.4022995258,
				"element": "H" 
			},
			{
				"x": -3.691108851,
				"y": -1.1971425718,
				"z": 2.6320544646,
				"element": "H" 
			},
			{
				"x": -3.0254813615,
				"y": -0.9918980178,
				"z": 0.2263658537,
				"element": "H" 
			}
		],
		 "valence_orbital": [ 
			{
				"type": "occ",
				"energy": -0.27294,
				"method": "rhf"
			},
			{
				"type": "occ",
				"energy": -0.27158,
				"method": "rhf"
			},
			{
				"type": "occ",
				"energy": -0.27037,
				"method": "rhf"
			},
			{
				"type": "occ",
				"energy": -0.26028,
				"method": "rhf"
			},
			{
				"type": "occ",
				"energy": -0.25411,
				"method": "rhf"
			},
			{
				"type": "unocc",
				"energy": -0.10747,
				"method": "rhf"
			},
			{
				"type": "unocc",
				"energy": -0.06403,
				"method": "rhf"
			},
			{
				"type": "unocc",
				"energy": -0.03045,
				"method": "rhf"
			},
			{
				"type": "unocc",
				"energy": -0.01925,
				"method": "rhf"
			},
			{
				"type": "unocc",
				"energy": 0.02647,
				"method": "rhf"
			}
		],
		"cosmo_sigma_profile": { 
			"-0.025": 0.0,
			"-0.024": 0.0,
			"-0.023": 0.0,
			"-0.022": 0.0,
			"-0.021": 0.0,
			"-0.02": 0.0,
			"-0.019": 0.0,
			"-0.018": 0.0,
			"-0.017": 0.0,
			"-0.016": 0.0,
			"-0.015": 0.0,
			"-0.014": 0.0,
			"-0.013": 0.0,
			"-0.012": 0.0,
			"-0.011": 0.0,
			"-0.01": 0.0,
			"-0.009": 0.162286386604,
			"-0.008": 3.88720416405,
			"-0.007": 10.537772692,
			"-0.006": 15.4880723663,
			"-0.005": 15.8472465973,
			"-0.004": 13.9375321585,
			"-0.003": 14.695592559,
			"-0.002": 16.3310638909,
			"-0.001": 20.3768408839,
			"0.0": 29.7425368009,
			"0.001": 28.3339445515,
			"0.002": 22.3449763082,
			"0.003": 11.4276463364,
			"0.004": 9.72725544534,
			"0.005": 4.29563959354,
			"0.006": 4.2620747887,
			"0.007": 3.19616182636,
			"0.008": 4.15296886053,
			"0.009": 4.19128825342,
			"0.01": 5.41257653256,
			"0.011": 7.29308747145,
			"0.012": 1.1333406205,
			"0.013": 0.0,
			"0.014": 0.0,
			"0.015": 0.0,
			"0.016": 0.0,
			"0.017": 0.0,
			"0.018": 0.0,
			"0.019": 0.0,
			"0.02": 0.0,
			"0.021": 0.0,
			"0.022": 0.0,
			"0.023": 0.0,
			"0.024": 0.0,
			"0.025": 0.0
		}
	}
}
