{
	 "smiles": "COC1=C(CC(O)=O)C=C(C=C1)S(Cl)(=O)=O", 
	 "Tm": 423.15, 
	 "num_atms": 25, 
	 "gaussian": { 
		 "optdone": 1, 
		 "sigma_profile": "yes", 
		 "theory": "DFT", 
		 "functional": "B3LYP", 
		 "basiset": "6-31G**", 
		 "properties": { 
			 "R2extent": 5701.2976, 
			 "electric_dipole_moment_norm": 6.11699744483, 
			 "electric_quadrupole_moment_norm": 26.0304229697, 
			 "total_energy": -1582.81931871, 
			 "HOMO_LUMO_gap": 0.17158, 
			 "cosmo_polarized_energy": -18.41, 
			 "cosmo_cavitation_energy": 33.63, 
			 "cosmo_dispersion_energy": -23.91, 
			 "cosmo_repulsion_energy": 1.87, 
			 "cosmo_total_nonelectrostatic_energy": 11.58, 
			 "SMD_solvation_energy": 6.38 
		},
		"coords": [
			{
				"x": 2.9504897794,
				"y": -1.567474978,
				"z": -0.1912384608,
				"element": "C" 
			},
			{
				"x": 2.0373455048,
				"y": -0.8676249652,
				"z": 0.649762144,
				"element": "O" 
			},
			{
				"x": 0.718572861,
				"y": -0.8702257494,
				"z": 0.3425682484,
				"element": "C" 
			},
			{
				"x": -0.0985084219,
				"y": -0.1313286465,
				"z": 1.2319781268,
				"element": "C" 
			},
			{
				"x": 0.5265110421,
				"y": 0.5517874633,
				"z": 2.423754302,
				"element": "C" 
			},
			{
				"x": 1.4905767471,
				"y": 1.6881107993,
				"z": 2.1047728302,
				"element": "C" 
			},
			{
				"x": 1.1285489087,
				"y": 2.375910429,
				"z": 0.9977215324,
				"element": "O" 
			},
			{
				"x": 2.4462528706,
				"y": 1.9864746022,
				"z": 2.7826188522,
				"element": "O" 
			},
			{
				"x": -1.4641189635,
				"y": -0.0789217804,
				"z": 0.9894826144,
				"element": "C" 
			},
			{
				"x": -2.0042552683,
				"y": -0.7527380952,
				"z": -0.1122002006,
				"element": "C" 
			},
			{
				"x": -1.2050259484,
				"y": -1.4805947709,
				"z": -0.9896388444,
				"element": "C" 
			},
			{
				"x": 0.1669864763,
				"y": -1.5412253749,
				"z": -0.7568749348,
				"element": "C" 
			},
			{
				"x": -3.7554798901,
				"y": -0.6836060754,
				"z": -0.3926081883,
				"element": "S" 
			},
			{
				"x": -3.9401369966,
				"y": 1.0682854143,
				"z": -1.6109818236,
				"element": "Cl" 
			},
			{
				"x": -4.1578603364,
				"y": -1.7995788142,
				"z": -1.2406649056,
				"element": "O" 
			},
			{
				"x": -4.4375042847,
				"y": -0.368898028,
				"z": 0.8572979748,
				"element": "O" 
			},
			{
				"x": 2.9381668797,
				"y": -1.1666423718,
				"z": -1.2113085768,
				"element": "H" 
			},
			{
				"x": 3.9355908725,
				"y": -1.4123189856,
				"z": 0.2486962313,
				"element": "H" 
			},
			{
				"x": 2.7263972306,
				"y": -2.6402211876,
				"z": -0.2154249899,
				"element": "H" 
			},
			{
				"x": 1.0884437359,
				"y": -0.1552911058,
				"z": 3.0390149225,
				"element": "H" 
			},
			{
				"x": -0.2621809091,
				"y": 0.977275539,
				"z": 3.054924447,
				"element": "H" 
			},
			{
				"x": 1.7770926487,
				"y": 3.0939428911,
				"z": 0.9031987022,
				"element": "H" 
			},
			{
				"x": -2.117764661,
				"y": 0.4723508181,
				"z": 1.6570096311,
				"element": "H" 
			},
			{
				"x": -1.6482214576,
				"y": -1.9997629144,
				"z": -1.8317755402,
				"element": "H" 
			},
			{
				"x": 0.7941815802,
				"y": -2.1117841129,
				"z": -1.4302840941,
				"element": "H" 
			}
		],
		 "valence_orbital": [ 
			{
				"type": "occ",
				"energy": -0.3229,
				"method": "rhf"
			},
			{
				"type": "occ",
				"energy": -0.30754,
				"method": "rhf"
			},
			{
				"type": "occ",
				"energy": -0.29493,
				"method": "rhf"
			},
			{
				"type": "occ",
				"energy": -0.27791,
				"method": "rhf"
			},
			{
				"type": "occ",
				"energy": -0.25613,
				"method": "rhf"
			},
			{
				"type": "unocc",
				"energy": -0.08455,
				"method": "rhf"
			},
			{
				"type": "unocc",
				"energy": -0.03891,
				"method": "rhf"
			},
			{
				"type": "unocc",
				"energy": -0.03274,
				"method": "rhf"
			},
			{
				"type": "unocc",
				"energy": 0.00178,
				"method": "rhf"
			},
			{
				"type": "unocc",
				"energy": 0.05631,
				"method": "rhf"
			}
		],
		"cosmo_sigma_profile": { 
			"-0.025": 0.0,
			"-0.024": 0.0,
			"-0.023": 0.0,
			"-0.022": 0.0,
			"-0.021": 0.0,
			"-0.02": 0.0,
			"-0.019": 0.0906730754918,
			"-0.018": 0.839463238469,
			"-0.017": 1.01321852562,
			"-0.016": 0.775247544557,
			"-0.015": 0.877140059908,
			"-0.014": 0.514963081971,
			"-0.013": 0.0993637736433,
			"-0.012": 1.04057612519,
			"-0.011": 1.35298029622,
			"-0.01": 1.04620618549,
			"-0.009": 3.28197634076,
			"-0.008": 8.72440293318,
			"-0.007": 12.9743939855,
			"-0.006": 17.6921919843,
			"-0.005": 15.6338509779,
			"-0.004": 17.0906232895,
			"-0.003": 13.9253231611,
			"-0.002": 13.4255736565,
			"-0.001": 14.1581044036,
			"0.0": 17.4939406466,
			"0.001": 20.6003335745,
			"0.002": 15.3001529824,
			"0.003": 18.0758110796,
			"0.004": 17.6364191609,
			"0.005": 8.18094769985,
			"0.006": 7.88853284697,
			"0.007": 8.19610411462,
			"0.008": 12.3801915519,
			"0.009": 8.82926848437,
			"0.01": 2.29456403189,
			"0.011": 4.57618898933,
			"0.012": 4.18744545844,
			"0.013": 0.504831619868,
			"0.014": 0.0,
			"0.015": 0.0,
			"0.016": 0.0,
			"0.017": 0.0,
			"0.018": 0.0,
			"0.019": 0.0,
			"0.02": 0.0,
			"0.021": 0.0,
			"0.022": 0.0,
			"0.023": 0.0,
			"0.024": 0.0,
			"0.025": 0.0
		}
	}
}
