{
	 "smiles": "ClCC(=O)N1CCN(CC1)C1=NC=CC=N1", 
	 "Tm": 374.15, 
	 "num_atms": 29, 
	 "gaussian": { 
		 "optdone": 1, 
		 "sigma_profile": "yes", 
		 "theory": "DFT", 
		 "functional": "B3LYP", 
		 "basiset": "6-31G**", 
		 "properties": { 
			 "R2extent": 7108.9512, 
			 "electric_dipole_moment_norm": 5.56996847208, 
			 "electric_quadrupole_moment_norm": 18.8590965202, 
			 "total_energy": -1143.33036612, 
			 "HOMO_LUMO_gap": 0.18129, 
			 "cosmo_polarized_energy": -17.42, 
			 "cosmo_cavitation_energy": 33.29, 
			 "cosmo_dispersion_energy": -24.75, 
			 "cosmo_repulsion_energy": 1.93, 
			 "cosmo_total_nonelectrostatic_energy": 10.47, 
			 "SMD_solvation_energy": 3.03 
		},
		"coords": [
			{
				"x": -1.440072265,
				"y": 2.7581110229,
				"z": 5.6461109271,
				"element": "Cl" 
			},
			{
				"x": -0.3649501458,
				"y": 1.975828673,
				"z": 4.4484370927,
				"element": "C" 
			},
			{
				"x": -1.0597023993,
				"y": 0.8132082553,
				"z": 3.7128688528,
				"element": "C" 
			},
			{
				"x": -2.2116305362,
				"y": 0.4907040929,
				"z": 3.9518113605,
				"element": "O" 
			},
			{
				"x": -0.2909546884,
				"y": 0.1767897476,
				"z": 2.7657798451,
				"element": "N" 
			},
			{
				"x": 1.1146393736,
				"y": 0.436311139,
				"z": 2.4597422254,
				"element": "C" 
			},
			{
				"x": 1.3197149668,
				"y": 0.5822953398,
				"z": 0.9455616168,
				"element": "C" 
			},
			{
				"x": 0.7572848015,
				"y": -0.565348856,
				"z": 0.2484404973,
				"element": "N" 
			},
			{
				"x": -0.6480657777,
				"y": -0.8308668456,
				"z": 0.5453362576,
				"element": "C" 
			},
			{
				"x": -0.8502861382,
				"y": -0.9762453449,
				"z": 2.0551210933,
				"element": "C" 
			},
			{
				"x": 1.421869916,
				"y": -1.1906210026,
				"z": -0.7778736012,
				"element": "C" 
			},
			{
				"x": 0.7622268715,
				"y": -2.1694648487,
				"z": -1.4356641889,
				"element": "N" 
			},
			{
				"x": 1.4333674034,
				"y": -2.7810026655,
				"z": -2.4100316921,
				"element": "C" 
			},
			{
				"x": 2.7425140664,
				"y": -2.4517112882,
				"z": -2.7593898822,
				"element": "C" 
			},
			{
				"x": 3.3207458703,
				"y": -1.4230811617,
				"z": -2.0171454348,
				"element": "C" 
			},
			{
				"x": 2.6855148176,
				"y": -0.7853999224,
				"z": -1.0350531096,
				"element": "N" 
			},
			{
				"x": -0.0508277832,
				"y": 2.7496218184,
				"z": 3.7447216101,
				"element": "H" 
			},
			{
				"x": 0.5158023648,
				"y": 1.6210913153,
				"z": 4.9883581323,
				"element": "H" 
			},
			{
				"x": 1.4566051558,
				"y": 1.345974233,
				"z": 2.95376948,
				"element": "H" 
			},
			{
				"x": 1.7303473119,
				"y": -0.3976917785,
				"z": 2.8278168431,
				"element": "H" 
			},
			{
				"x": 2.3802101573,
				"y": 0.6502682134,
				"z": 0.7066495181,
				"element": "H" 
			},
			{
				"x": 0.8253694027,
				"y": 1.5057425441,
				"z": 0.6042952883,
				"element": "H" 
			},
			{
				"x": -1.2679031387,
				"y": -0.0010090777,
				"z": 0.1725222921,
				"element": "H" 
			},
			{
				"x": -0.9454538715,
				"y": -1.7412974913,
				"z": 0.0272679233,
				"element": "H" 
			},
			{
				"x": -1.9092086597,
				"y": -1.0364759017,
				"z": 2.3055581819,
				"element": "H" 
			},
			{
				"x": -0.3530172686,
				"y": -1.8923380747,
				"z": 2.404532433,
				"element": "H" 
			},
			{
				"x": 0.8957769598,
				"y": -3.5696033387,
				"z": -2.935535455,
				"element": "H" 
			},
			{
				"x": 3.2725956811,
				"y": -2.9574982412,
				"z": -3.5571480468,
				"element": "H" 
			},
			{
				"x": 4.3390875518,
				"y": -1.0921905553,
				"z": -2.2186600602,
				"element": "H" 
			}
		],
		 "valence_orbital": [ 
			{
				"type": "occ",
				"energy": -0.2954,
				"method": "rhf"
			},
			{
				"type": "occ",
				"energy": -0.26087,
				"method": "rhf"
			},
			{
				"type": "occ",
				"energy": -0.25203,
				"method": "rhf"
			},
			{
				"type": "occ",
				"energy": -0.24937,
				"method": "rhf"
			},
			{
				"type": "occ",
				"energy": -0.21944,
				"method": "rhf"
			},
			{
				"type": "unocc",
				"energy": -0.03815,
				"method": "rhf"
			},
			{
				"type": "unocc",
				"energy": -0.00627,
				"method": "rhf"
			},
			{
				"type": "unocc",
				"energy": 0.01535,
				"method": "rhf"
			},
			{
				"type": "unocc",
				"energy": 0.02398,
				"method": "rhf"
			},
			{
				"type": "unocc",
				"energy": 0.08091,
				"method": "rhf"
			}
		],
		"cosmo_sigma_profile": { 
			"-0.025": 0.0,
			"-0.024": 0.0,
			"-0.023": 0.0,
			"-0.022": 0.0,
			"-0.021": 0.0,
			"-0.02": 0.0,
			"-0.019": 0.0,
			"-0.018": 0.0,
			"-0.017": 0.0,
			"-0.016": 0.0,
			"-0.015": 0.0,
			"-0.014": 0.0,
			"-0.013": 0.0,
			"-0.012": 0.0,
			"-0.011": 0.000458529748432,
			"-0.01": 1.52488890757,
			"-0.009": 6.95663641461,
			"-0.008": 6.341300993,
			"-0.007": 8.67018905727,
			"-0.006": 12.1757636915,
			"-0.005": 21.8627641474,
			"-0.004": 30.4669355239,
			"-0.003": 20.5177448248,
			"-0.002": 15.3599661671,
			"-0.001": 14.3578303872,
			"0.0": 15.2345588877,
			"0.001": 16.8576661474,
			"0.002": 17.8292795064,
			"0.003": 11.8512414629,
			"0.004": 10.131597928,
			"0.005": 9.66194671305,
			"0.006": 11.2235211259,
			"0.007": 6.13227943134,
			"0.008": 6.56804976423,
			"0.009": 2.94585172093,
			"0.01": 3.63950363724,
			"0.011": 4.91645968491,
			"0.012": 2.98553201163,
			"0.013": 4.69486538487,
			"0.014": 2.71323761321,
			"0.015": 0.667458232365,
			"0.016": 0.0,
			"0.017": 0.0,
			"0.018": 0.0,
			"0.019": 0.0,
			"0.02": 0.0,
			"0.021": 0.0,
			"0.022": 0.0,
			"0.023": 0.0,
			"0.024": 0.0,
			"0.025": 0.0
		}
	}
}
