{
	 "smiles": "CC(C)COC1=C(Cl)C=C(C=N1)C(O)=O", 
	 "Tm": 380.15, 
	 "num_atms": 27, 
	 "gaussian": { 
		 "optdone": 1, 
		 "sigma_profile": "yes", 
		 "theory": "DFT", 
		 "functional": "B3LYP", 
		 "basiset": "6-31G**", 
		 "properties": { 
			 "R2extent": 5132.7669, 
			 "electric_dipole_moment_norm": 0.55329206573, 
			 "electric_quadrupole_moment_norm": 14.107578295, 
			 "total_energy": -1128.93753688, 
			 "HOMO_LUMO_gap": 0.18901, 
			 "cosmo_polarized_energy": -10.02, 
			 "cosmo_cavitation_energy": 33.13, 
			 "cosmo_dispersion_energy": -23.49, 
			 "cosmo_repulsion_energy": 1.87, 
			 "cosmo_total_nonelectrostatic_energy": 11.51, 
			 "SMD_solvation_energy": 6.36 
		},
		"coords": [
			{
				"x": -1.0593724921,
				"y": -1.0329062701,
				"z": -4.8584261733,
				"element": "C" 
			},
			{
				"x": -0.5147137258,
				"y": -1.9692778103,
				"z": -3.7718605511,
				"element": "C" 
			},
			{
				"x": -0.2440704853,
				"y": -3.3781149421,
				"z": -4.320394281,
				"element": "C" 
			},
			{
				"x": 0.7703638641,
				"y": -1.4215667304,
				"z": -3.1445056484,
				"element": "C" 
			},
			{
				"x": 0.5877301098,
				"y": -0.1046830372,
				"z": -2.5717880071,
				"element": "O" 
			},
			{
				"x": 0.1359250109,
				"y": -0.0014091922,
				"z": -1.31796206,
				"element": "C" 
			},
			{
				"x": -0.0296727136,
				"y": 1.3029284728,
				"z": -0.7870066454,
				"element": "C" 
			},
			{
				"x": 0.3381769148,
				"y": 2.7050289049,
				"z": -1.7604116311,
				"element": "Cl" 
			},
			{
				"x": -0.4840063033,
				"y": 1.442325389,
				"z": 0.5095696313,
				"element": "C" 
			},
			{
				"x": -0.7671904778,
				"y": 0.2869880212,
				"z": 1.2600162149,
				"element": "C" 
			},
			{
				"x": -0.5727553073,
				"y": -0.9523768401,
				"z": 0.6489024475,
				"element": "C" 
			},
			{
				"x": -0.1358978963,
				"y": -1.0935780134,
				"z": -0.6055190808,
				"element": "N" 
			},
			{
				"x": -1.258987722,
				"y": 0.329009095,
				"z": 2.6551284478,
				"element": "C" 
			},
			{
				"x": -1.401047835,
				"y": 1.5947960588,
				"z": 3.1235219538,
				"element": "O" 
			},
			{
				"x": -1.515456498,
				"y": -0.6475469258,
				"z": 3.3314386769,
				"element": "O" 
			},
			{
				"x": -0.3550611807,
				"y": -0.95398725,
				"z": -5.695863118,
				"element": "H" 
			},
			{
				"x": -2.0078699286,
				"y": -1.4086541843,
				"z": -5.2558419775,
				"element": "H" 
			},
			{
				"x": -1.2286967939,
				"y": -0.0254007921,
				"z": -4.468710641,
				"element": "H" 
			},
			{
				"x": -1.2572835325,
				"y": -2.0510816817,
				"z": -2.9681682822,
				"element": "H" 
			},
			{
				"x": 0.5183029969,
				"y": -3.3563926057,
				"z": -5.1088410251,
				"element": "H" 
			},
			{
				"x": -1.153599401,
				"y": -3.8048216511,
				"z": -4.7545134055,
				"element": "H" 
			},
			{
				"x": 0.1024208472,
				"y": -4.058330677,
				"z": -3.5349433223,
				"element": "H" 
			},
			{
				"x": 1.5393465059,
				"y": -1.2695692602,
				"z": -3.9081139494,
				"element": "H" 
			},
			{
				"x": 1.1484450645,
				"y": -2.0977463306,
				"z": -2.3746712624,
				"element": "H" 
			},
			{
				"x": -0.6185888023,
				"y": 2.4273673945,
				"z": 0.939951,
				"element": "H" 
			},
			{
				"x": -0.7842104004,
				"y": -1.8619657983,
				"z": 1.2040457241,
				"element": "H" 
			},
			{
				"x": -1.7240298181,
				"y": 1.5064666565,
				"z": 4.0352669652,
				"element": "H" 
			}
		],
		 "valence_orbital": [ 
			{
				"type": "occ",
				"energy": -0.31978,
				"method": "rhf"
			},
			{
				"type": "occ",
				"energy": -0.29195,
				"method": "rhf"
			},
			{
				"type": "occ",
				"energy": -0.29009,
				"method": "rhf"
			},
			{
				"type": "occ",
				"energy": -0.27592,
				"method": "rhf"
			},
			{
				"type": "occ",
				"energy": -0.24333,
				"method": "rhf"
			},
			{
				"type": "unocc",
				"energy": -0.05432,
				"method": "rhf"
			},
			{
				"type": "unocc",
				"energy": -0.0394,
				"method": "rhf"
			},
			{
				"type": "unocc",
				"energy": 0.0255,
				"method": "rhf"
			},
			{
				"type": "unocc",
				"energy": 0.04777,
				"method": "rhf"
			},
			{
				"type": "unocc",
				"energy": 0.07362,
				"method": "rhf"
			}
		],
		"cosmo_sigma_profile": { 
			"-0.025": 0.0,
			"-0.024": 0.0,
			"-0.023": 0.0,
			"-0.022": 0.0,
			"-0.021": 0.0,
			"-0.02": 0.0,
			"-0.019": 0.223837104708,
			"-0.018": 1.05102490233,
			"-0.017": 0.719976470438,
			"-0.016": 1.02362443807,
			"-0.015": 0.546577300806,
			"-0.014": 0.450432643577,
			"-0.013": 0.497270595498,
			"-0.012": 0.659322209321,
			"-0.011": 1.14020685149,
			"-0.01": 0.804912885749,
			"-0.009": 0.515639303452,
			"-0.008": 1.77562099393,
			"-0.007": 2.95969114887,
			"-0.006": 3.48158921303,
			"-0.005": 6.6761317791,
			"-0.004": 11.3471508843,
			"-0.003": 25.0239096109,
			"-0.002": 35.2695305669,
			"-0.001": 37.0130279743,
			"0.0": 31.1320646906,
			"0.001": 26.2560955346,
			"0.002": 14.4803276561,
			"0.003": 11.6257606794,
			"0.004": 14.0103547467,
			"0.005": 8.55775728384,
			"0.006": 5.18124557546,
			"0.007": 3.787960853,
			"0.008": 4.27076422305,
			"0.009": 3.86743182408,
			"0.01": 2.43852652555,
			"0.011": 4.62998788988,
			"0.012": 2.86405668714,
			"0.013": 0.00413537869469,
			"0.014": 0.0,
			"0.015": 0.0,
			"0.016": 0.0,
			"0.017": 0.0,
			"0.018": 0.0,
			"0.019": 0.0,
			"0.02": 0.0,
			"0.021": 0.0,
			"0.022": 0.0,
			"0.023": 0.0,
			"0.024": 0.0,
			"0.025": 0.0
		}
	}
}
