{
	 "smiles": "NC(CC1=CC=C(OCC2=CC=CC=C2)C=C1)C(O)=O", 
	 "Tm": 532.15, 
	 "num_atms": 37, 
	 "gaussian": { 
		 "optdone": 1, 
		 "sigma_profile": "yes", 
		 "theory": "DFT", 
		 "functional": "B3LYP", 
		 "basiset": "6-31G**", 
		 "properties": { 
			 "R2extent": 7905.0837, 
			 "electric_dipole_moment_norm": 2.69709285528, 
			 "electric_quadrupole_moment_norm": 17.0498220985, 
			 "total_energy": -900.376280195, 
			 "HOMO_LUMO_gap": 0.2038, 
			 "cosmo_polarized_energy": -17.71, 
			 "cosmo_cavitation_energy": 40.98, 
			 "cosmo_dispersion_energy": -28.08, 
			 "cosmo_repulsion_energy": 2.18, 
			 "cosmo_total_nonelectrostatic_energy": 15.08, 
			 "SMD_solvation_energy": 6.56 
		},
		"coords": [
			{
				"x": 1.2802263898,
				"y": -3.7252389893,
				"z": 3.0698596974,
				"element": "N" 
			},
			{
				"x": 2.3441438729,
				"y": -2.8716990402,
				"z": 2.5679585658,
				"element": "C" 
			},
			{
				"x": 2.3718179362,
				"y": -2.6290427699,
				"z": 1.0193784242,
				"element": "C" 
			},
			{
				"x": 1.1446480119,
				"y": -1.9463103151,
				"z": 0.4620854722,
				"element": "C" 
			},
			{
				"x": 1.0857526735,
				"y": -0.5538857184,
				"z": 0.3386468164,
				"element": "C" 
			},
			{
				"x": -0.0503330619,
				"y": 0.0977961911,
				"z": -0.1462175181,
				"element": "C" 
			},
			{
				"x": -1.1701409492,
				"y": -0.6550312644,
				"z": -0.5162769223,
				"element": "C" 
			},
			{
				"x": -2.3441622319,
				"y": -0.1347059133,
				"z": -0.9951089505,
				"element": "O" 
			},
			{
				"x": -2.5390546122,
				"y": 1.2769192918,
				"z": -0.9711359322,
				"element": "C" 
			},
			{
				"x": -1.85649481,
				"y": 2.0211263233,
				"z": -2.1037061043,
				"element": "C" 
			},
			{
				"x": -1.6566032111,
				"y": 1.4093685785,
				"z": -3.3464886794,
				"element": "C" 
			},
			{
				"x": -1.0772944168,
				"y": 2.1208565099,
				"z": -4.3974291855,
				"element": "C" 
			},
			{
				"x": -0.6986646529,
				"y": 3.4536395315,
				"z": -4.2212886383,
				"element": "C" 
			},
			{
				"x": -0.8975992701,
				"y": 4.0705183561,
				"z": -2.9850527312,
				"element": "C" 
			},
			{
				"x": -1.4696439726,
				"y": 3.3553724571,
				"z": -1.9314893423,
				"element": "C" 
			},
			{
				"x": -1.1289906511,
				"y": -2.0516534332,
				"z": -0.410174343,
				"element": "C" 
			},
			{
				"x": 0.0135526735,
				"y": -2.6809078997,
				"z": 0.0706069768,
				"element": "C" 
			},
			{
				"x": 2.2646817141,
				"y": -1.5382267022,
				"z": 3.2951272831,
				"element": "C" 
			},
			{
				"x": 3.4138026705,
				"y": -0.828106266,
				"z": 3.168367222,
				"element": "O" 
			},
			{
				"x": 1.2990121025,
				"y": -1.1158426175,
				"z": 3.8892255061,
				"element": "O" 
			},
			{
				"x": 1.1629749278,
				"y": -4.5364788465,
				"z": 2.4700839684,
				"element": "H" 
			},
			{
				"x": 0.4048892091,
				"y": -3.2082938038,
				"z": 3.0787471581,
				"element": "H" 
			},
			{
				"x": 3.312930077,
				"y": -3.3188528073,
				"z": 2.8267601172,
				"element": "H" 
			},
			{
				"x": 2.498270063,
				"y": -3.613179931,
				"z": 0.5514252478,
				"element": "H" 
			},
			{
				"x": 3.2701546921,
				"y": -2.049539729,
				"z": 0.7807658452,
				"element": "H" 
			},
			{
				"x": 1.9508541849,
				"y": 0.0422140732,
				"z": 0.6186306713,
				"element": "H" 
			},
			{
				"x": -0.0416188487,
				"y": 1.1754077758,
				"z": -0.2542072126,
				"element": "H" 
			},
			{
				"x": -3.625545626,
				"y": 1.3954847517,
				"z": -1.0505802418,
				"element": "H" 
			},
			{
				"x": -2.2356691865,
				"y": 1.6895202172,
				"z": 0.0002288467,
				"element": "H" 
			},
			{
				"x": -1.9487402831,
				"y": 0.372402228,
				"z": -3.4792948544,
				"element": "H" 
			},
			{
				"x": -0.9216613961,
				"y": 1.6338643816,
				"z": -5.3560362345,
				"element": "H" 
			},
			{
				"x": -0.24817562,
				"y": 4.0063109652,
				"z": -5.0406876668,
				"element": "H" 
			},
			{
				"x": -0.6007428377,
				"y": 5.1050514207,
				"z": -2.8373014034,
				"element": "H" 
			},
			{
				"x": -1.615527802,
				"y": 3.83867475,
				"z": -0.9676562447,
				"element": "H" 
			},
			{
				"x": -2.002808985,
				"y": -2.6210726401,
				"z": -0.7100667546,
				"element": "H" 
			},
			{
				"x": 0.029769245,
				"y": -3.7660569811,
				"z": 0.1352107426,
				"element": "H" 
			},
			{
				"x": 3.260791981,
				"y": 0.0123978654,
				"z": 3.6319903985,
				"element": "H" 
			}
		],
		 "valence_orbital": [ 
			{
				"type": "occ",
				"energy": -0.2537,
				"method": "rhf"
			},
			{
				"type": "occ",
				"energy": -0.25242,
				"method": "rhf"
			},
			{
				"type": "occ",
				"energy": -0.24608,
				"method": "rhf"
			},
			{
				"type": "occ",
				"energy": -0.23602,
				"method": "rhf"
			},
			{
				"type": "occ",
				"energy": -0.21407,
				"method": "rhf"
			},
			{
				"type": "unocc",
				"energy": -0.01027,
				"method": "rhf"
			},
			{
				"type": "unocc",
				"energy": -0.00618,
				"method": "rhf"
			},
			{
				"type": "unocc",
				"energy": -0.0015,
				"method": "rhf"
			},
			{
				"type": "unocc",
				"energy": 0.00797,
				"method": "rhf"
			},
			{
				"type": "unocc",
				"energy": 0.0151,
				"method": "rhf"
			}
		],
		"cosmo_sigma_profile": { 
			"-0.025": 0.0,
			"-0.024": 0.0,
			"-0.023": 0.0,
			"-0.022": 0.0,
			"-0.021": 0.0,
			"-0.02": 0.0,
			"-0.019": 0.0662277313009,
			"-0.018": 0.661250836246,
			"-0.017": 0.797946542749,
			"-0.016": 1.26869611517,
			"-0.015": 0.690198722036,
			"-0.014": 0.503058644712,
			"-0.013": 0.478106887035,
			"-0.012": 0.784511882117,
			"-0.011": 0.607320052046,
			"-0.01": 2.18504767595,
			"-0.009": 2.07939016881,
			"-0.008": 2.66619183374,
			"-0.007": 6.39913817806,
			"-0.006": 17.3982984713,
			"-0.005": 27.0096943099,
			"-0.004": 29.5672871788,
			"-0.003": 31.1594445691,
			"-0.002": 21.9626820725,
			"-0.001": 19.9036859409,
			"0.0": 16.8466387935,
			"0.001": 15.9175414507,
			"0.002": 17.6499589251,
			"0.003": 18.5992830308,
			"0.004": 20.4764780867,
			"0.005": 20.6688656921,
			"0.006": 17.0849353994,
			"0.007": 3.83996463077,
			"0.008": 4.89497553985,
			"0.009": 4.56887920755,
			"0.01": 4.11755568629,
			"0.011": 5.71214349891,
			"0.012": 3.32220362981,
			"0.013": 0.887548626747,
			"0.014": 0.221596584228,
			"0.015": 0.847586364278,
			"0.016": 0.702695881352,
			"0.017": 0.54194258359,
			"0.018": 0.631942836475,
			"0.019": 0.204460085324,
			"0.02": 0.0,
			"0.021": 0.0,
			"0.022": 0.0,
			"0.023": 0.0,
			"0.024": 0.0,
			"0.025": 0.0
		}
	}
}
