{
	 "smiles": "NC1=C(OC(F)F)C=CC(=C1)C#N", 
	 "Tm": 360.15, 
	 "num_atms": 19, 
	 "gaussian": { 
		 "optdone": 1, 
		 "sigma_profile": "yes", 
		 "theory": "DFT", 
		 "functional": "B3LYP", 
		 "basiset": "6-31G**", 
		 "properties": { 
			 "R2extent": 2790.7613, 
			 "electric_dipole_moment_norm": 5.87557292015, 
			 "electric_quadrupole_moment_norm": 23.9464115667, 
			 "total_energy": -692.853147106, 
			 "HOMO_LUMO_gap": 0.1794, 
			 "cosmo_polarized_energy": -13.71, 
			 "cosmo_cavitation_energy": 25.52, 
			 "cosmo_dispersion_energy": -18.06, 
			 "cosmo_repulsion_energy": 1.41, 
			 "cosmo_total_nonelectrostatic_energy": 8.87, 
			 "SMD_solvation_energy": 7.03 
		},
		"coords": [
			{
				"x": -0.658238445,
				"y": -2.890605756,
				"z": 0.8366586105,
				"element": "N" 
			},
			{
				"x": -0.8516929386,
				"y": -1.682872478,
				"z": 0.1848271182,
				"element": "C" 
			},
			{
				"x": 0.2312634309,
				"y": -0.7964789624,
				"z": -0.0037988555,
				"element": "C" 
			},
			{
				"x": 1.4572844057,
				"y": -1.3102054998,
				"z": 0.4260475727,
				"element": "O" 
			},
			{
				"x": 2.469758249,
				"y": -0.4742044119,
				"z": 0.8193525398,
				"element": "C" 
			},
			{
				"x": 2.0355309535,
				"y": 0.4523599863,
				"z": 1.705327106,
				"element": "F" 
			},
			{
				"x": 2.9967954673,
				"y": 0.20612245,
				"z": -0.2386666412,
				"element": "F" 
			},
			{
				"x": 0.0651189883,
				"y": 0.4454270745,
				"z": -0.6074566438,
				"element": "C" 
			},
			{
				"x": -1.1996691783,
				"y": 0.8461247691,
				"z": -1.0334362493,
				"element": "C" 
			},
			{
				"x": -2.2900450349,
				"y": -0.0182537404,
				"z": -0.8599610385,
				"element": "C" 
			},
			{
				"x": -2.1141110449,
				"y": -1.2734719107,
				"z": -0.25890663,
				"element": "C" 
			},
			{
				"x": -3.5962136609,
				"y": 0.3755329154,
				"z": -1.301873504,
				"element": "C" 
			},
			{
				"x": -4.6557603025,
				"y": 0.6939493333,
				"z": -1.6618906697,
				"element": "N" 
			},
			{
				"x": 0.293757746,
				"y": -3.2250168699,
				"z": 0.8546657574,
				"element": "H" 
			},
			{
				"x": -1.3404140486,
				"y": -3.6097781307,
				"z": 0.6465872017,
				"element": "H" 
			},
			{
				"x": 3.2504991923,
				"y": -1.0913652029,
				"z": 1.2698687267,
				"element": "H" 
			},
			{
				"x": 0.9188256313,
				"y": 1.0933686931,
				"z": -0.7529946982,
				"element": "H" 
			},
			{
				"x": -1.3391614576,
				"y": 1.8133039058,
				"z": -1.5015670788,
				"element": "H" 
			},
			{
				"x": -2.9677279529,
				"y": -1.9301361651,
				"z": -0.1244826242,
				"element": "H" 
			}
		],
		 "valence_orbital": [ 
			{
				"type": "occ",
				"energy": -0.35134,
				"method": "rhf"
			},
			{
				"type": "occ",
				"energy": -0.32612,
				"method": "rhf"
			},
			{
				"type": "occ",
				"energy": -0.31772,
				"method": "rhf"
			},
			{
				"type": "occ",
				"energy": -0.25933,
				"method": "rhf"
			},
			{
				"type": "occ",
				"energy": -0.22299,
				"method": "rhf"
			},
			{
				"type": "unocc",
				"energy": -0.04359,
				"method": "rhf"
			},
			{
				"type": "unocc",
				"energy": -0.01199,
				"method": "rhf"
			},
			{
				"type": "unocc",
				"energy": 0.04164,
				"method": "rhf"
			},
			{
				"type": "unocc",
				"energy": 0.06705,
				"method": "rhf"
			},
			{
				"type": "unocc",
				"energy": 0.07902,
				"method": "rhf"
			}
		],
		"cosmo_sigma_profile": { 
			"-0.025": 0.0,
			"-0.024": 0.0,
			"-0.023": 0.0,
			"-0.022": 0.0,
			"-0.021": 0.0,
			"-0.02": 0.0,
			"-0.019": 0.0,
			"-0.018": 0.0,
			"-0.017": 0.0,
			"-0.016": 0.0,
			"-0.015": 0.0,
			"-0.014": 0.29625767427,
			"-0.013": 1.58659924065,
			"-0.012": 2.5869745541,
			"-0.011": 4.50454688084,
			"-0.01": 5.94145850254,
			"-0.009": 4.47729217464,
			"-0.008": 5.63361869951,
			"-0.007": 7.00916419006,
			"-0.006": 7.88531811312,
			"-0.005": 7.10766105106,
			"-0.004": 7.32074053384,
			"-0.003": 7.73649981043,
			"-0.002": 9.52979452967,
			"-0.001": 11.5020749645,
			"0.0": 15.4904729434,
			"0.001": 16.6742510576,
			"0.002": 20.6401182352,
			"0.003": 27.3702449801,
			"0.004": 10.8617364571,
			"0.005": 3.44337617761,
			"0.006": 3.23090527623,
			"0.007": 4.12214361863,
			"0.008": 3.74962492257,
			"0.009": 3.8601948951,
			"0.01": 4.31425835453,
			"0.011": 3.37274500953,
			"0.012": 3.18304920204,
			"0.013": 2.08026845182,
			"0.014": 0.149894236363,
			"0.015": 0.0,
			"0.016": 0.0,
			"0.017": 0.0,
			"0.018": 0.0,
			"0.019": 0.0,
			"0.02": 0.0,
			"0.021": 0.0,
			"0.022": 0.0,
			"0.023": 0.0,
			"0.024": 0.0,
			"0.025": 0.0
		}
	}
}
