{
	 "smiles": "FC(F)(F)C1=NC2=CC=C(Cl)C=C2C(Cl)=C1", 
	 "Tm": 379.15, 
	 "num_atms": 20, 
	 "gaussian": { 
		 "optdone": 1, 
		 "sigma_profile": "yes", 
		 "theory": "DFT", 
		 "functional": "B3LYP", 
		 "basiset": "6-31G**", 
		 "properties": { 
			 "R2extent": 5523.3137, 
			 "electric_dipole_moment_norm": 1.52360042334, 
			 "electric_quadrupole_moment_norm": 12.3392391062, 
			 "total_energy": -1658.14213987, 
			 "HOMO_LUMO_gap": 0.16737, 
			 "cosmo_polarized_energy": -5.64, 
			 "cosmo_cavitation_energy": 30.08, 
			 "cosmo_dispersion_energy": -21.93, 
			 "cosmo_repulsion_energy": 1.64, 
			 "cosmo_total_nonelectrostatic_energy": 9.79, 
			 "SMD_solvation_energy": 4.24 
		},
		"coords": [
			{
				"x": 4.010688252,
				"y": -0.9337413376,
				"z": 0.316430116,
				"element": "F" 
			},
			{
				"x": 3.2170935651,
				"y": -0.0935818003,
				"z": -0.3708882955,
				"element": "C" 
			},
			{
				"x": 3.5307748929,
				"y": 1.1607194458,
				"z": -0.0019094189,
				"element": "F" 
			},
			{
				"x": 3.5211534808,
				"y": -0.223352763,
				"z": -1.6827065604,
				"element": "F" 
			},
			{
				"x": 1.7485663647,
				"y": -0.3911218831,
				"z": -0.1145234366,
				"element": "C" 
			},
			{
				"x": 1.3667963878,
				"y": -0.2861197759,
				"z": 1.1392393651,
				"element": "N" 
			},
			{
				"x": 0.06426119,
				"y": -0.5403960047,
				"z": 1.4282219791,
				"element": "C" 
			},
			{
				"x": -0.3538512215,
				"y": -0.4281771151,
				"z": 2.7819070658,
				"element": "C" 
			},
			{
				"x": -1.6568574851,
				"y": -0.671564997,
				"z": 3.1408532452,
				"element": "C" 
			},
			{
				"x": -2.5960302821,
				"y": -1.0397273983,
				"z": 2.1458186385,
				"element": "C" 
			},
			{
				"x": -4.2513418582,
				"y": -1.3441532764,
				"z": 2.6331114012,
				"element": "Cl" 
			},
			{
				"x": -2.2431579008,
				"y": -1.162361832,
				"z": 0.8221216264,
				"element": "C" 
			},
			{
				"x": -0.9022069998,
				"y": -0.9146539721,
				"z": 0.4342925603,
				"element": "C" 
			},
			{
				"x": -0.4201507907,
				"y": -1.0092344682,
				"z": -0.9004653655,
				"element": "C" 
			},
			{
				"x": -1.5006626679,
				"y": -1.4565631568,
				"z": -2.2001516094,
				"element": "Cl" 
			},
			{
				"x": 0.9000530845,
				"y": -0.7504460032,
				"z": -1.1864607498,
				"element": "C" 
			},
			{
				"x": 0.39345638,
				"y": -0.1442853346,
				"z": 3.5147547883,
				"element": "H" 
			},
			{
				"x": -1.9787521184,
				"y": -0.5867227426,
				"z": 4.172621645,
				"element": "H" 
			},
			{
				"x": -2.9785525672,
				"y": -1.4450242201,
				"z": 0.0795400572,
				"element": "H" 
			},
			{
				"x": 1.2818202942,
				"y": -0.818091365,
				"z": -2.196207052,
				"element": "H" 
			}
		],
		 "valence_orbital": [ 
			{
				"type": "occ",
				"energy": -0.32965,
				"method": "rhf"
			},
			{
				"type": "occ",
				"energy": -0.31181,
				"method": "rhf"
			},
			{
				"type": "occ",
				"energy": -0.29054,
				"method": "rhf"
			},
			{
				"type": "occ",
				"energy": -0.27783,
				"method": "rhf"
			},
			{
				"type": "occ",
				"energy": -0.25535,
				"method": "rhf"
			},
			{
				"type": "unocc",
				"energy": -0.08798,
				"method": "rhf"
			},
			{
				"type": "unocc",
				"energy": -0.05213,
				"method": "rhf"
			},
			{
				"type": "unocc",
				"energy": -0.00998,
				"method": "rhf"
			},
			{
				"type": "unocc",
				"energy": 0.00685,
				"method": "rhf"
			},
			{
				"type": "unocc",
				"energy": 0.01535,
				"method": "rhf"
			}
		],
		"cosmo_sigma_profile": { 
			"-0.025": 0.0,
			"-0.024": 0.0,
			"-0.023": 0.0,
			"-0.022": 0.0,
			"-0.021": 0.0,
			"-0.02": 0.0,
			"-0.019": 0.0,
			"-0.018": 0.0,
			"-0.017": 0.0,
			"-0.016": 0.0,
			"-0.015": 0.0,
			"-0.014": 0.0,
			"-0.013": 0.0,
			"-0.012": 0.0,
			"-0.011": 0.0,
			"-0.01": 0.0,
			"-0.009": 0.733266776898,
			"-0.008": 4.0431342257,
			"-0.007": 6.3071993988,
			"-0.006": 6.86402771278,
			"-0.005": 7.93913114773,
			"-0.004": 10.4637870977,
			"-0.003": 15.1786873203,
			"-0.002": 23.3536877124,
			"-0.001": 26.6794545511,
			"0.0": 28.5861148848,
			"0.001": 25.340738691,
			"0.002": 38.7708908521,
			"0.003": 31.0181572538,
			"0.004": 12.9451861633,
			"0.005": 2.85028146665,
			"0.006": 1.23252198052,
			"0.007": 1.35256929128,
			"0.008": 1.63842422629,
			"0.009": 0.865813122359,
			"0.01": 0.847660193453,
			"0.011": 0.794820912157,
			"0.012": 0.368236265839,
			"0.013": 0.0,
			"0.014": 0.0,
			"0.015": 0.0,
			"0.016": 0.0,
			"0.017": 0.0,
			"0.018": 0.0,
			"0.019": 0.0,
			"0.02": 0.0,
			"0.021": 0.0,
			"0.022": 0.0,
			"0.023": 0.0,
			"0.024": 0.0,
			"0.025": 0.0
		}
	}
}
