{
	 "smiles": "CC1=C[C@@]2(C)O[C@H]([C@@H]1C(C#N)(C#N)C2(C#N)C#N)C1=CC=CC=C1", 
	 "Tm": 443.15, 
	 "num_atms": 38, 
	 "gaussian": { 
		 "optdone": 1, 
		 "sigma_profile": "yes", 
		 "theory": "DFT", 
		 "functional": "B3LYP", 
		 "basiset": "6-31G**", 
		 "properties": { 
			 "R2extent": 8716.7031, 
			 "electric_dipole_moment_norm": 7.848295643, 
			 "electric_quadrupole_moment_norm": 23.8924044667, 
			 "total_energy": -1026.54791073, 
			 "HOMO_LUMO_gap": 0.21312, 
			 "cosmo_polarized_energy": -19.88, 
			 "cosmo_cavitation_energy": 43.43, 
			 "cosmo_dispersion_energy": -26.47, 
			 "cosmo_repulsion_energy": 1.99, 
			 "cosmo_total_nonelectrostatic_energy": 18.95, 
			 "SMD_solvation_energy": 11.55 
		},
		"coords": [
			{
				"x": 2.2858456438,
				"y": -2.0291726046,
				"z": -1.9016443321,
				"element": "C" 
			},
			{
				"x": 1.7341415886,
				"y": -1.6317104102,
				"z": -0.5685582751,
				"element": "C" 
			},
			{
				"x": 1.8953178193,
				"y": -0.4581940767,
				"z": 0.0556558842,
				"element": "C" 
			},
			{
				"x": 1.1731379712,
				"y": -0.3256208756,
				"z": 1.3733354365,
				"element": "C" 
			},
			{
				"x": 1.2227633425,
				"y": 1.0692993563,
				"z": 1.9758714782,
				"element": "C" 
			},
			{
				"x": -0.2112610511,
				"y": -0.6643153375,
				"z": 1.2303650507,
				"element": "O" 
			},
			{
				"x": -0.4750558283,
				"y": -1.9099738968,
				"z": 0.5720713016,
				"element": "C" 
			},
			{
				"x": 0.881551701,
				"y": -2.5872606816,
				"z": 0.2373024116,
				"element": "C" 
			},
			{
				"x": 1.6346152995,
				"y": -2.8662423183,
				"z": 1.6059861285,
				"element": "C" 
			},
			{
				"x": 2.9412058288,
				"y": -3.4743682605,
				"z": 1.2988481708,
				"element": "C" 
			},
			{
				"x": 3.9379637775,
				"y": -3.9876802644,
				"z": 1.0009643569,
				"element": "N" 
			},
			{
				"x": 0.8733471723,
				"y": -3.8453734421,
				"z": 2.4026090393,
				"element": "C" 
			},
			{
				"x": 0.2543919285,
				"y": -4.6495970939,
				"z": 2.9647855213,
				"element": "N" 
			},
			{
				"x": 1.7867679987,
				"y": -1.4406161131,
				"z": 2.3695821116,
				"element": "C" 
			},
			{
				"x": 1.0384196489,
				"y": -1.4233518141,
				"z": 3.6365596233,
				"element": "C" 
			},
			{
				"x": 0.4558228679,
				"y": -1.3598543268,
				"z": 4.6375323321,
				"element": "N" 
			},
			{
				"x": 3.1917340386,
				"y": -1.1243571923,
				"z": 2.6643340374,
				"element": "C" 
			},
			{
				"x": 4.2872505691,
				"y": -0.8163038219,
				"z": 2.890319587,
				"element": "N" 
			},
			{
				"x": -1.3483184166,
				"y": -1.7276563301,
				"z": -0.6567447724,
				"element": "C" 
			},
			{
				"x": -1.4986605848,
				"y": -0.485375852,
				"z": -1.2794194591,
				"element": "C" 
			},
			{
				"x": -2.2953390521,
				"y": -0.3625720652,
				"z": -2.4197751685,
				"element": "C" 
			},
			{
				"x": -2.9467984762,
				"y": -1.4778786545,
				"z": -2.9475848099,
				"element": "C" 
			},
			{
				"x": -2.807350003,
				"y": -2.7201952585,
				"z": -2.3240159946,
				"element": "C" 
			},
			{
				"x": -2.0167361943,
				"y": -2.8421959398,
				"z": -1.1821802473,
				"element": "C" 
			},
			{
				"x": 2.862766582,
				"y": -1.2165046411,
				"z": -2.3498275835,
				"element": "H" 
			},
			{
				"x": 1.4758321175,
				"y": -2.3009382696,
				"z": -2.5888664855,
				"element": "H" 
			},
			{
				"x": 2.9392487116,
				"y": -2.9044491446,
				"z": -1.8048130087,
				"element": "H" 
			},
			{
				"x": 2.4744783567,
				"y": 0.3702388309,
				"z": -0.3395681319,
				"element": "H" 
			},
			{
				"x": 2.2547227443,
				"y": 1.3755903644,
				"z": 2.163620396,
				"element": "H" 
			},
			{
				"x": 0.7722279752,
				"y": 1.771441496,
				"z": 1.2698793094,
				"element": "H" 
			},
			{
				"x": 0.6578296824,
				"y": 1.1097495,
				"z": 2.9092115672,
				"element": "H" 
			},
			{
				"x": -1.0119388821,
				"y": -2.5460504301,
				"z": 1.2882214264,
				"element": "H" 
			},
			{
				"x": 0.7171988296,
				"y": -3.5427222337,
				"z": -0.2638180828,
				"element": "H" 
			},
			{
				"x": -1.0057596668,
				"y": 0.3822167947,
				"z": -0.8565959829,
				"element": "H" 
			},
			{
				"x": -2.4099099853,
				"y": 0.6085308998,
				"z": -2.8927408151,
				"element": "H" 
			},
			{
				"x": -3.5674279342,
				"y": -1.3794498258,
				"z": -3.8333063475,
				"element": "H" 
			},
			{
				"x": -3.3216005373,
				"y": -3.5909725024,
				"z": -2.7199037239,
				"element": "H" 
			},
			{
				"x": -1.9283255833,
				"y": -3.8087135647,
				"z": -0.6901919493,
				"element": "H" 
			}
		],
		 "valence_orbital": [ 
			{
				"type": "occ",
				"energy": -0.34341,
				"method": "rhf"
			},
			{
				"type": "occ",
				"energy": -0.30137,
				"method": "rhf"
			},
			{
				"type": "occ",
				"energy": -0.29082,
				"method": "rhf"
			},
			{
				"type": "occ",
				"energy": -0.26897,
				"method": "rhf"
			},
			{
				"type": "occ",
				"energy": -0.26419,
				"method": "rhf"
			},
			{
				"type": "unocc",
				"energy": -0.05107,
				"method": "rhf"
			},
			{
				"type": "unocc",
				"energy": -0.04827,
				"method": "rhf"
			},
			{
				"type": "unocc",
				"energy": -0.0339,
				"method": "rhf"
			},
			{
				"type": "unocc",
				"energy": -0.02634,
				"method": "rhf"
			},
			{
				"type": "unocc",
				"energy": -0.02172,
				"method": "rhf"
			}
		],
		"cosmo_sigma_profile": { 
			"-0.025": 0.0,
			"-0.024": 0.0,
			"-0.023": 0.0,
			"-0.022": 0.0,
			"-0.021": 0.0,
			"-0.02": 0.0,
			"-0.019": 0.0,
			"-0.018": 0.0,
			"-0.017": 0.0,
			"-0.016": 0.118881182481,
			"-0.015": 0.227199871619,
			"-0.014": 0.605106581627,
			"-0.013": 0.13679691222,
			"-0.012": 0.84247228513,
			"-0.011": 1.77268809762,
			"-0.01": 3.20291205317,
			"-0.009": 3.27060004348,
			"-0.008": 4.97153150534,
			"-0.007": 11.0657594082,
			"-0.006": 19.3295277187,
			"-0.005": 28.2874120129,
			"-0.004": 29.6137713294,
			"-0.003": 27.9189004906,
			"-0.002": 26.4481471189,
			"-0.001": 25.7208693403,
			"0.0": 14.7578673873,
			"0.001": 15.9191007437,
			"0.002": 16.7190208259,
			"0.003": 18.7553800375,
			"0.004": 19.7878046022,
			"0.005": 19.8793788997,
			"0.006": 13.6078762951,
			"0.007": 12.1609634465,
			"0.008": 11.1932049784,
			"0.009": 10.2597321458,
			"0.01": 9.17610528475,
			"0.011": 3.12418128238,
			"0.012": 0.0,
			"0.013": 0.0,
			"0.014": 0.0,
			"0.015": 0.0,
			"0.016": 0.0,
			"0.017": 0.0,
			"0.018": 0.0,
			"0.019": 0.0,
			"0.02": 0.0,
			"0.021": 0.0,
			"0.022": 0.0,
			"0.023": 0.0,
			"0.024": 0.0,
			"0.025": 0.0
		}
	}
}
