{
	 "smiles": "CCC1=NOC(=N1)C1=CC(N)=C(C)C=C1", 
	 "Tm": 351.15, 
	 "num_atms": 28, 
	 "gaussian": { 
		 "optdone": 1, 
		 "sigma_profile": "yes", 
		 "theory": "DFT", 
		 "functional": "B3LYP", 
		 "basiset": "6-31G**", 
		 "properties": { 
			 "R2extent": 4933.8849, 
			 "electric_dipole_moment_norm": 4.00242389309, 
			 "electric_quadrupole_moment_norm": 15.4880489446, 
			 "total_energy": -666.47427191, 
			 "HOMO_LUMO_gap": 0.16387, 
			 "cosmo_polarized_energy": -12.26, 
			 "cosmo_cavitation_energy": 32.01, 
			 "cosmo_dispersion_energy": -23.49, 
			 "cosmo_repulsion_energy": 1.85, 
			 "cosmo_total_nonelectrostatic_energy": 10.38, 
			 "SMD_solvation_energy": 3.62 
		},
		"coords": [
			{
				"x": -2.2543837981,
				"y": -3.6883370248,
				"z": -2.3403347393,
				"element": "C" 
			},
			{
				"x": -2.5856837851,
				"y": -2.2934041869,
				"z": -2.8936943899,
				"element": "C" 
			},
			{
				"x": -2.5758053339,
				"y": -1.2379967362,
				"z": -1.8321307327,
				"element": "C" 
			},
			{
				"x": -3.6408203405,
				"y": -0.5296450115,
				"z": -1.5414395786,
				"element": "N" 
			},
			{
				"x": -3.1924864069,
				"y": 0.3166305169,
				"z": -0.5078290613,
				"element": "O" 
			},
			{
				"x": -1.8972814265,
				"y": 0.0139660042,
				"z": -0.2943891503,
				"element": "C" 
			},
			{
				"x": -1.4626782679,
				"y": -0.9373101048,
				"z": -1.0803459019,
				"element": "N" 
			},
			{
				"x": -1.1606971885,
				"y": 0.7423875723,
				"z": 0.734766209,
				"element": "C" 
			},
			{
				"x": 0.1856911295,
				"y": 0.4239058426,
				"z": 0.9504109661,
				"element": "C" 
			},
			{
				"x": 0.9319711436,
				"y": 1.0946105081,
				"z": 1.9254773539,
				"element": "C" 
			},
			{
				"x": 2.2900216955,
				"y": 0.8135994885,
				"z": 2.0901286457,
				"element": "N" 
			},
			{
				"x": 0.3156359289,
				"y": 2.1060860706,
				"z": 2.7029757008,
				"element": "C" 
			},
			{
				"x": 1.1117648519,
				"y": 2.8486732375,
				"z": 3.745017434,
				"element": "C" 
			},
			{
				"x": -1.0307393461,
				"y": 2.4005856604,
				"z": 2.4723110278,
				"element": "C" 
			},
			{
				"x": -1.7793379455,
				"y": 1.7379632889,
				"z": 1.5030213539,
				"element": "C" 
			},
			{
				"x": -2.2281798015,
				"y": -4.4245624222,
				"z": -3.1492619799,
				"element": "H" 
			},
			{
				"x": -1.279860532,
				"y": -3.6853860822,
				"z": -1.8445328793,
				"element": "H" 
			},
			{
				"x": -3.0052183547,
				"y": -4.0098119223,
				"z": -1.6119410616,
				"element": "H" 
			},
			{
				"x": -3.5688130922,
				"y": -2.2872264614,
				"z": -3.3730871702,
				"element": "H" 
			},
			{
				"x": -1.8476963271,
				"y": -2.0168875547,
				"z": -3.6564096481,
				"element": "H" 
			},
			{
				"x": 0.6444669129,
				"y": -0.3521217466,
				"z": 0.3451880681,
				"element": "H" 
			},
			{
				"x": 2.6580792879,
				"y": 0.9544017376,
				"z": 3.0204010655,
				"element": "H" 
			},
			{
				"x": 2.59158261,
				"y": -0.0666600519,
				"z": 1.6953838334,
				"element": "H" 
			},
			{
				"x": 1.45735346,
				"y": 2.1837534776,
				"z": 4.5497725308,
				"element": "H" 
			},
			{
				"x": 0.5140221965,
				"y": 3.6354751213,
				"z": 4.211187683,
				"element": "H" 
			},
			{
				"x": 2.0045858552,
				"y": 3.3131534116,
				"z": 3.3082895461,
				"element": "H" 
			},
			{
				"x": -1.5023610024,
				"y": 3.1760054551,
				"z": 3.0704587378,
				"element": "H" 
			},
			{
				"x": -2.8219321232,
				"y": 1.9853519124,
				"z": 1.3408061371,
				"element": "H" 
			}
		],
		 "valence_orbital": [ 
			{
				"type": "occ",
				"energy": -0.30985,
				"method": "rhf"
			},
			{
				"type": "occ",
				"energy": -0.2852,
				"method": "rhf"
			},
			{
				"type": "occ",
				"energy": -0.2844,
				"method": "rhf"
			},
			{
				"type": "occ",
				"energy": -0.2385,
				"method": "rhf"
			},
			{
				"type": "occ",
				"energy": -0.21022,
				"method": "rhf"
			},
			{
				"type": "unocc",
				"energy": -0.04635,
				"method": "rhf"
			},
			{
				"type": "unocc",
				"energy": 0.00479,
				"method": "rhf"
			},
			{
				"type": "unocc",
				"energy": 0.02813,
				"method": "rhf"
			},
			{
				"type": "unocc",
				"energy": 0.06748,
				"method": "rhf"
			},
			{
				"type": "unocc",
				"energy": 0.07282,
				"method": "rhf"
			}
		],
		"cosmo_sigma_profile": { 
			"-0.025": 0.0,
			"-0.024": 0.0,
			"-0.023": 0.0,
			"-0.022": 0.0,
			"-0.021": 0.0,
			"-0.02": 0.0,
			"-0.019": 0.0,
			"-0.018": 0.0,
			"-0.017": 0.0,
			"-0.016": 0.0,
			"-0.015": 0.0,
			"-0.014": 0.0,
			"-0.013": 0.312238558158,
			"-0.012": 2.25219114075,
			"-0.011": 2.8601279021,
			"-0.01": 2.96758117095,
			"-0.009": 3.46196544703,
			"-0.008": 2.79888361982,
			"-0.007": 3.29739999815,
			"-0.006": 5.20655267738,
			"-0.005": 12.8199343636,
			"-0.004": 17.3845913246,
			"-0.003": 22.7498056772,
			"-0.002": 26.2073505524,
			"-0.001": 24.9439736218,
			"0.0": 24.5451734957,
			"0.001": 18.014704187,
			"0.002": 13.5975632271,
			"0.003": 12.1386320976,
			"0.004": 15.8840923823,
			"0.005": 10.976627314,
			"0.006": 6.31695093895,
			"0.007": 6.36232899271,
			"0.008": 3.83012088231,
			"0.009": 2.83352891382,
			"0.01": 3.42689965042,
			"0.011": 2.67879225075,
			"0.012": 2.79639663858,
			"0.013": 2.1550595441,
			"0.014": 0.851160914813,
			"0.015": 0.00449251088932,
			"0.016": 0.0,
			"0.017": 0.0,
			"0.018": 0.0,
			"0.019": 0.0,
			"0.02": 0.0,
			"0.021": 0.0,
			"0.022": 0.0,
			"0.023": 0.0,
			"0.024": 0.0,
			"0.025": 0.0
		}
	}
}
