{
	 "smiles": "CCSC1=NC(O)=C(Br)C(N)=N1", 
	 "Tm": 573.15, 
	 "num_atms": 20, 
	 "gaussian": { 
		 "optdone": 1, 
		 "sigma_profile": "yes", 
		 "theory": "DFT", 
		 "functional": "B3LYP", 
		 "basiset": "6-31G**", 
		 "properties": { 
			 "R2extent": 4326.8973, 
			 "electric_dipole_moment_norm": 2.80256706075, 
			 "electric_quadrupole_moment_norm": 9.78765988273, 
			 "total_energy": -3442.55699617, 
			 "HOMO_LUMO_gap": 0.20206, 
			 "cosmo_polarized_energy": -12.17, 
			 "cosmo_cavitation_energy": 27.86, 
			 "cosmo_dispersion_energy": -21.52, 
			 "cosmo_repulsion_energy": 1.7, 
			 "cosmo_total_nonelectrostatic_energy": 8.04, 
			 "SMD_solvation_energy": 1.99 
		},
		"coords": [
			{
				"x": -3.201197802,
				"y": 1.1288482005,
				"z": 2.8303860625,
				"element": "C" 
			},
			{
				"x": -2.20004809,
				"y": 2.2773257197,
				"z": 2.9315586184,
				"element": "C" 
			},
			{
				"x": -0.4537199389,
				"y": 1.7419690271,
				"z": 3.1251147643,
				"element": "S" 
			},
			{
				"x": 0.0091774383,
				"y": 1.3358379972,
				"z": 1.4595426869,
				"element": "C" 
			},
			{
				"x": 1.2644687635,
				"y": 0.8810678226,
				"z": 1.3562157202,
				"element": "N" 
			},
			{
				"x": 1.6764986687,
				"y": 0.5712740378,
				"z": 0.1250716263,
				"element": "C" 
			},
			{
				"x": 2.9280299728,
				"y": 0.1100049527,
				"z": -0.0084603585,
				"element": "O" 
			},
			{
				"x": 0.8596980047,
				"y": 0.7097978699,
				"z": -0.9962287796,
				"element": "C" 
			},
			{
				"x": 1.4654392828,
				"y": 0.2548766122,
				"z": -2.7399103713,
				"element": "Br" 
			},
			{
				"x": -0.4416946862,
				"y": 1.1986613628,
				"z": -0.7747080616,
				"element": "C" 
			},
			{
				"x": -1.3250558524,
				"y": 1.3986842439,
				"z": -1.7819617308,
				"element": "N" 
			},
			{
				"x": -0.8631248016,
				"y": 1.5077433694,
				"z": 0.4718491261,
				"element": "N" 
			},
			{
				"x": -3.1481243577,
				"y": 0.4760132402,
				"z": 3.7063195149,
				"element": "H" 
			},
			{
				"x": -4.2208728155,
				"y": 1.5260738395,
				"z": 2.7612640626,
				"element": "H" 
			},
			{
				"x": -3.0072320303,
				"y": 0.5291777198,
				"z": 1.9381109995,
				"element": "H" 
			},
			{
				"x": -2.2475887365,
				"y": 2.9250527841,
				"z": 2.0540927749,
				"element": "H" 
			},
			{
				"x": -2.3851549508,
				"y": 2.8896246998,
				"z": 3.8196188116,
				"element": "H" 
			},
			{
				"x": 3.3028919692,
				"y": 0.0970382876,
				"z": 0.8873615747,
				"element": "H" 
			},
			{
				"x": -1.1167669916,
				"y": 1.0692923997,
				"z": -2.7102582226,
				"element": "H" 
			},
			{
				"x": -2.2701230465,
				"y": 1.6404358136,
				"z": -1.5330788184,
				"element": "H" 
			}
		],
		 "valence_orbital": [ 
			{
				"type": "occ",
				"energy": -0.30558,
				"method": "rhf"
			},
			{
				"type": "occ",
				"energy": -0.26881,
				"method": "rhf"
			},
			{
				"type": "occ",
				"energy": -0.26454,
				"method": "rhf"
			},
			{
				"type": "occ",
				"energy": -0.25075,
				"method": "rhf"
			},
			{
				"type": "occ",
				"energy": -0.21783,
				"method": "rhf"
			},
			{
				"type": "unocc",
				"energy": -0.01577,
				"method": "rhf"
			},
			{
				"type": "unocc",
				"energy": -0.00853,
				"method": "rhf"
			},
			{
				"type": "unocc",
				"energy": 0.0051,
				"method": "rhf"
			},
			{
				"type": "unocc",
				"energy": 0.04111,
				"method": "rhf"
			},
			{
				"type": "unocc",
				"energy": 0.07406,
				"method": "rhf"
			}
		],
		"cosmo_sigma_profile": { 
			"-0.025": 0.0,
			"-0.024": 0.0,
			"-0.023": 0.0,
			"-0.022": 0.0,
			"-0.021": 0.0,
			"-0.02": 0.0,
			"-0.019": 0.0,
			"-0.018": 0.347678333885,
			"-0.017": 1.14005086017,
			"-0.016": 0.776799954479,
			"-0.015": 0.879654165151,
			"-0.014": 1.55161745083,
			"-0.013": 2.50206120038,
			"-0.012": 2.898541979,
			"-0.011": 2.320231748,
			"-0.01": 3.02719236086,
			"-0.009": 1.86232294636,
			"-0.008": 2.1014960407,
			"-0.007": 3.03740661312,
			"-0.006": 4.71990807291,
			"-0.005": 6.24856179764,
			"-0.004": 9.05017135913,
			"-0.003": 14.5397557635,
			"-0.002": 17.7574118883,
			"-0.001": 19.6931683304,
			"0.0": 22.3621380551,
			"0.001": 22.5922471987,
			"0.002": 14.6981213608,
			"0.003": 13.1502633059,
			"0.004": 15.8429767943,
			"0.005": 12.5648206426,
			"0.006": 10.1463554877,
			"0.007": 8.33119738194,
			"0.008": 5.64681738951,
			"0.009": 3.24438216562,
			"0.01": 2.27822628967,
			"0.011": 0.96869604833,
			"0.012": 0.149015542851,
			"0.013": 0.0,
			"0.014": 0.0,
			"0.015": 0.0,
			"0.016": 0.0,
			"0.017": 0.0,
			"0.018": 0.0,
			"0.019": 0.0,
			"0.02": 0.0,
			"0.021": 0.0,
			"0.022": 0.0,
			"0.023": 0.0,
			"0.024": 0.0,
			"0.025": 0.0
		}
	}
}
