{
	 "smiles": "COC1=CC=C(F)C(F)=C1O", 
	 "Tm": 319.15, 
	 "num_atms": 17, 
	 "gaussian": { 
		 "optdone": 1, 
		 "sigma_profile": "yes", 
		 "theory": "DFT", 
		 "functional": "B3LYP", 
		 "basiset": "6-31G**", 
		 "properties": { 
			 "R2extent": 2616.5856, 
			 "electric_dipole_moment_norm": 1.61444383922, 
			 "electric_quadrupole_moment_norm": 7.51004326086, 
			 "total_energy": -620.440238689, 
			 "HOMO_LUMO_gap": 0.20957, 
			 "cosmo_polarized_energy": -6.13, 
			 "cosmo_cavitation_energy": 22.07, 
			 "cosmo_dispersion_energy": -16.4, 
			 "cosmo_repulsion_energy": 1.27, 
			 "cosmo_total_nonelectrostatic_energy": 6.94, 
			 "SMD_solvation_energy": 5.9 
		},
		"coords": [
			{
				"x": -0.4109321078,
				"y": 0.6249364955,
				"z": -1.9558160632,
				"element": "C" 
			},
			{
				"x": -0.4052187801,
				"y": -0.1394200282,
				"z": -0.7500605606,
				"element": "O" 
			},
			{
				"x": 0.4223487285,
				"y": 0.1588970399,
				"z": 0.2915489733,
				"element": "C" 
			},
			{
				"x": 0.3019273872,
				"y": -0.6904926543,
				"z": 1.4014889796,
				"element": "C" 
			},
			{
				"x": 1.0707269264,
				"y": -0.5297731223,
				"z": 2.5515121533,
				"element": "C" 
			},
			{
				"x": 1.9915650299,
				"y": 0.5076503937,
				"z": 2.6065212246,
				"element": "C" 
			},
			{
				"x": 2.7606774231,
				"y": 0.7094370483,
				"z": 3.6929191185,
				"element": "F" 
			},
			{
				"x": 2.1216531087,
				"y": 1.3550593657,
				"z": 1.5172395006,
				"element": "C" 
			},
			{
				"x": 3.0130644232,
				"y": 2.3801102721,
				"z": 1.5378187194,
				"element": "F" 
			},
			{
				"x": 1.3592357449,
				"y": 1.2101911632,
				"z": 0.3539480894,
				"element": "C" 
			},
			{
				"x": 1.5518166575,
				"y": 2.0917346567,
				"z": -0.6750626651,
				"element": "O" 
			},
			{
				"x": 0.5591623835,
				"y": 0.5966650927,
				"z": -2.4596225152,
				"element": "H" 
			},
			{
				"x": -0.6882176501,
				"y": 1.6671325545,
				"z": -1.7750889152,
				"element": "H" 
			},
			{
				"x": -1.1647516577,
				"y": 0.1497677217,
				"z": -2.5863507922,
				"element": "H" 
			},
			{
				"x": -0.4247429469,
				"y": -1.4922408357,
				"z": 1.3317063489,
				"element": "H" 
			},
			{
				"x": 0.9654421051,
				"y": -1.1949529145,
				"z": 3.4007216708,
				"element": "H" 
			},
			{
				"x": 2.2397432247,
				"y": 2.7125977511,
				"z": -0.3930232669,
				"element": "H" 
			}
		],
		 "valence_orbital": [ 
			{
				"type": "occ",
				"energy": -0.35843,
				"method": "rhf"
			},
			{
				"type": "occ",
				"energy": -0.3293,
				"method": "rhf"
			},
			{
				"type": "occ",
				"energy": -0.31063,
				"method": "rhf"
			},
			{
				"type": "occ",
				"energy": -0.23947,
				"method": "rhf"
			},
			{
				"type": "occ",
				"energy": -0.21185,
				"method": "rhf"
			},
			{
				"type": "unocc",
				"energy": -0.00228,
				"method": "rhf"
			},
			{
				"type": "unocc",
				"energy": 0.01114,
				"method": "rhf"
			},
			{
				"type": "unocc",
				"energy": 0.04307,
				"method": "rhf"
			},
			{
				"type": "unocc",
				"energy": 0.09602,
				"method": "rhf"
			},
			{
				"type": "unocc",
				"energy": 0.12222,
				"method": "rhf"
			}
		],
		"cosmo_sigma_profile": { 
			"-0.025": 0.0,
			"-0.024": 0.0,
			"-0.023": 0.0,
			"-0.022": 0.0,
			"-0.021": 0.0,
			"-0.02": 0.0,
			"-0.019": 0.0,
			"-0.018": 0.0,
			"-0.017": 0.092143944864,
			"-0.016": 0.482359016769,
			"-0.015": 0.789569403922,
			"-0.014": 0.418194754641,
			"-0.013": 0.908730812173,
			"-0.012": 1.23924651036,
			"-0.011": 0.330097816356,
			"-0.01": 0.842145327236,
			"-0.009": 1.15862436544,
			"-0.008": 1.50753920506,
			"-0.007": 3.6773320579,
			"-0.006": 5.62591947046,
			"-0.005": 8.04437778398,
			"-0.004": 11.1396828656,
			"-0.003": 12.3866901045,
			"-0.002": 10.0245352619,
			"-0.001": 12.0066763791,
			"0.0": 15.8141725212,
			"0.001": 17.0272789542,
			"0.002": 15.5261451676,
			"0.003": 20.0243135656,
			"0.004": 21.418081716,
			"0.005": 4.72987864493,
			"0.006": 4.25480349825,
			"0.007": 3.1243921403,
			"0.008": 1.13339668528,
			"0.009": 1.69689139776,
			"0.01": 1.25920678626,
			"0.011": 0.00437334218578,
			"0.012": 0.0,
			"0.013": 0.0,
			"0.014": 0.0,
			"0.015": 0.0,
			"0.016": 0.0,
			"0.017": 0.0,
			"0.018": 0.0,
			"0.019": 0.0,
			"0.02": 0.0,
			"0.021": 0.0,
			"0.022": 0.0,
			"0.023": 0.0,
			"0.024": 0.0,
			"0.025": 0.0
		}
	}
}
