{
	 "smiles": "CCNC(=O)N(CCCN(C)C)C(=O)[C@@H]1C[C@H]2[C@@H](CC3=CNC4=CC=CC2=C34)N(CC=C)C1", 
	 "Tm": 376.15, 
	 "num_atms": 70, 
	 "gaussian": { 
		 "optdone": 1, 
		 "sigma_profile": "yes", 
		 "theory": "DFT", 
		 "functional": "B3LYP", 
		 "basiset": "6-31G**", 
		 "properties": { 
			 "R2extent": 15661.0592, 
			 "electric_dipole_moment_norm": 2.57607550161, 
			 "electric_quadrupole_moment_norm": 35.6190058597, 
			 "total_energy": -1437.26167141, 
			 "HOMO_LUMO_gap": 0.17218, 
			 "cosmo_polarized_energy": -25.78, 
			 "cosmo_cavitation_energy": 66.15, 
			 "cosmo_dispersion_energy": -41.64, 
			 "cosmo_repulsion_energy": 3.19, 
			 "cosmo_total_nonelectrostatic_energy": 27.7, 
			 "SMD_solvation_energy": 8.08 
		},
		"coords": [
			{
				"x": -6.2058235141,
				"y": 0.6739992332,
				"z": 0.2941041186,
				"element": "C" 
			},
			{
				"x": -5.3040631336,
				"y": 0.9355459228,
				"z": 1.5007290734,
				"element": "C" 
			},
			{
				"x": -3.9328874981,
				"y": 1.2501732086,
				"z": 1.1126289102,
				"element": "N" 
			},
			{
				"x": -2.8503826238,
				"y": 0.6275647843,
				"z": 1.6632397047,
				"element": "C" 
			},
			{
				"x": -2.9259835448,
				"y": -0.2093184603,
				"z": 2.5513177149,
				"element": "O" 
			},
			{
				"x": -1.5913333462,
				"y": 1.0854490326,
				"z": 1.150364981,
				"element": "N" 
			},
			{
				"x": -0.5714413308,
				"y": 1.4357213916,
				"z": 2.1662325109,
				"element": "C" 
			},
			{
				"x": -0.4686520591,
				"y": 2.9500340867,
				"z": 2.3766682834,
				"element": "C" 
			},
			{
				"x": 0.6487700493,
				"y": 3.3400599634,
				"z": 3.3525568232,
				"element": "C" 
			},
			{
				"x": 1.9600569672,
				"y": 2.8019220867,
				"z": 2.9934666124,
				"element": "N" 
			},
			{
				"x": 2.9299673639,
				"y": 3.0423833831,
				"z": 4.0514968047,
				"element": "C" 
			},
			{
				"x": 2.4460813889,
				"y": 3.2898117054,
				"z": 1.7065982459,
				"element": "C" 
			},
			{
				"x": -1.1654890487,
				"y": 1.0176822392,
				"z": -0.175944058,
				"element": "C" 
			},
			{
				"x": -0.087157738,
				"y": 1.5135859647,
				"z": -0.4849859948,
				"element": "O" 
			},
			{
				"x": -2.0285556598,
				"y": 0.242073795,
				"z": -1.188597588,
				"element": "C" 
			},
			{
				"x": -2.0476959315,
				"y": -1.2753290774,
				"z": -0.8599560681,
				"element": "C" 
			},
			{
				"x": -0.7244376913,
				"y": -2.0062677008,
				"z": -1.1860462348,
				"element": "C" 
			},
			{
				"x": 0.053133723,
				"y": -1.2527252102,
				"z": -2.3238542715,
				"element": "C" 
			},
			{
				"x": 1.1781195337,
				"y": -2.1267502295,
				"z": -2.9254892139,
				"element": "C" 
			},
			{
				"x": 2.0659865856,
				"y": -2.560212788,
				"z": -1.7865641044,
				"element": "C" 
			},
			{
				"x": 3.3866608013,
				"y": -2.9129204283,
				"z": -1.6746586073,
				"element": "C" 
			},
			{
				"x": 3.6880452724,
				"y": -3.164507114,
				"z": -0.3352240417,
				"element": "N" 
			},
			{
				"x": 2.5617663965,
				"y": -2.9557986421,
				"z": 0.4376535718,
				"element": "C" 
			},
			{
				"x": 2.3066054186,
				"y": -3.0240703467,
				"z": 1.8149425919,
				"element": "C" 
			},
			{
				"x": 1.0165602357,
				"y": -2.7055252975,
				"z": 2.2321086724,
				"element": "C" 
			},
			{
				"x": -0.0155198737,
				"y": -2.3426613475,
				"z": 1.3312965765,
				"element": "C" 
			},
			{
				"x": 0.232610025,
				"y": -2.28875185,
				"z": -0.0364872958,
				"element": "C" 
			},
			{
				"x": 1.5375801323,
				"y": -2.589253525,
				"z": -0.4571427383,
				"element": "C" 
			},
			{
				"x": -0.8641181552,
				"y": -0.64824347,
				"z": -3.2964511268,
				"element": "N" 
			},
			{
				"x": -1.6949177181,
				"y": -1.5564686419,
				"z": -4.0937293001,
				"element": "C" 
			},
			{
				"x": -1.0110027267,
				"y": -2.0279545868,
				"z": -5.355503488,
				"element": "C" 
			},
			{
				"x": -1.0649868061,
				"y": -3.2715807311,
				"z": -5.8327692667,
				"element": "C" 
			},
			{
				"x": -1.5572132166,
				"y": 0.4833041642,
				"z": -2.6610503891,
				"element": "C" 
			},
			{
				"x": -5.8482270572,
				"y": -0.1831336449,
				"z": -0.2842292663,
				"element": "H" 
			},
			{
				"x": -6.2477728166,
				"y": 1.5427756712,
				"z": -0.3727614499,
				"element": "H" 
			},
			{
				"x": -7.2274970441,
				"y": 0.4625089184,
				"z": 0.6249593501,
				"element": "H" 
			},
			{
				"x": -5.7106105628,
				"y": 1.7559096664,
				"z": 2.1072022123,
				"element": "H" 
			},
			{
				"x": -5.2417943624,
				"y": 0.0578332648,
				"z": 2.1465108058,
				"element": "H" 
			},
			{
				"x": -3.7628052977,
				"y": 2.0702780331,
				"z": 0.5492496009,
				"element": "H" 
			},
			{
				"x": -0.8532478536,
				"y": 0.9240131483,
				"z": 3.0887182149,
				"element": "H" 
			},
			{
				"x": 0.3867022528,
				"y": 1.0347072121,
				"z": 1.8382701107,
				"element": "H" 
			},
			{
				"x": -1.4160645849,
				"y": 3.3382315544,
				"z": 2.7729894741,
				"element": "H" 
			},
			{
				"x": -0.3142824916,
				"y": 3.4299109251,
				"z": 1.4055812988,
				"element": "H" 
			},
			{
				"x": 0.6705804783,
				"y": 4.4465384974,
				"z": 3.4420595879,
				"element": "H" 
			},
			{
				"x": 0.4014390467,
				"y": 2.9537619612,
				"z": 4.3501069108,
				"element": "H" 
			},
			{
				"x": 3.1259545973,
				"y": 4.1183000182,
				"z": 4.2325245834,
				"element": "H" 
			},
			{
				"x": 2.5748506564,
				"y": 2.6039728747,
				"z": 4.9902004993,
				"element": "H" 
			},
			{
				"x": 3.8823985213,
				"y": 2.5671800211,
				"z": 3.7954664906,
				"element": "H" 
			},
			{
				"x": 1.78724029,
				"y": 2.9646811892,
				"z": 0.8977956765,
				"element": "H" 
			},
			{
				"x": 2.536611149,
				"y": 4.3938658351,
				"z": 1.6685131691,
				"element": "H" 
			},
			{
				"x": 3.4364413351,
				"y": 2.865943114,
				"z": 1.5135998941,
				"element": "H" 
			},
			{
				"x": -3.0568123953,
				"y": 0.597463665,
				"z": -1.0902187901,
				"element": "H" 
			},
			{
				"x": -2.8473639058,
				"y": -1.7132602278,
				"z": -1.4670049926,
				"element": "H" 
			},
			{
				"x": -2.3396190468,
				"y": -1.4442838334,
				"z": 0.1791821178,
				"element": "H" 
			},
			{
				"x": -1.003506648,
				"y": -2.9929254342,
				"z": -1.5870573953,
				"element": "H" 
			},
			{
				"x": 0.5552220524,
				"y": -0.4034108631,
				"z": -1.8487798446,
				"element": "H" 
			},
			{
				"x": 0.7510570888,
				"y": -2.992023326,
				"z": -3.4475379867,
				"element": "H" 
			},
			{
				"x": 1.7233827874,
				"y": -1.5460364579,
				"z": -3.6776681958,
				"element": "H" 
			},
			{
				"x": 4.157427255,
				"y": -3.0024645209,
				"z": -2.427582561,
				"element": "H" 
			},
			{
				"x": 4.5998405918,
				"y": -3.4129529979,
				"z": 0.0108903338,
				"element": "H" 
			},
			{
				"x": 3.0738540552,
				"y": -3.3019981744,
				"z": 2.5319757688,
				"element": "H" 
			},
			{
				"x": 0.7875791901,
				"y": -2.7372866909,
				"z": 3.2936949766,
				"element": "H" 
			},
			{
				"x": -0.992508183,
				"y": -2.0996089018,
				"z": 1.7387509154,
				"element": "H" 
			},
			{
				"x": -2.5876802812,
				"y": -0.9923411854,
				"z": -4.3958951153,
				"element": "H" 
			},
			{
				"x": -2.0666683626,
				"y": -2.4338044256,
				"z": -3.5366020623,
				"element": "H" 
			},
			{
				"x": -0.4723659934,
				"y": -1.2528363803,
				"z": -5.8996455392,
				"element": "H" 
			},
			{
				"x": -1.5869360595,
				"y": -4.0646526962,
				"z": -5.3010848188,
				"element": "H" 
			},
			{
				"x": -0.5924019096,
				"y": -3.5459971864,
				"z": -6.7711944332,
				"element": "H" 
			},
			{
				"x": -0.8818949241,
				"y": 1.3443443153,
				"z": -2.6620923411,
				"element": "H" 
			},
			{
				"x": -2.4228038444,
				"y": 0.7407255478,
				"z": -3.2785386082,
				"element": "H" 
			}
		],
		 "valence_orbital": [ 
			{
				"type": "occ",
				"energy": -0.24598,
				"method": "rhf"
			},
			{
				"type": "occ",
				"energy": -0.20531,
				"method": "rhf"
			},
			{
				"type": "occ",
				"energy": -0.2012,
				"method": "rhf"
			},
			{
				"type": "occ",
				"energy": -0.19811,
				"method": "rhf"
			},
			{
				"type": "occ",
				"energy": -0.17835,
				"method": "rhf"
			},
			{
				"type": "unocc",
				"energy": -0.00617,
				"method": "rhf"
			},
			{
				"type": "unocc",
				"energy": 0.00731,
				"method": "rhf"
			},
			{
				"type": "unocc",
				"energy": 0.02079,
				"method": "rhf"
			},
			{
				"type": "unocc",
				"energy": 0.03574,
				"method": "rhf"
			},
			{
				"type": "unocc",
				"energy": 0.04356,
				"method": "rhf"
			}
		],
		"cosmo_sigma_profile": { 
			"-0.025": 0.0,
			"-0.024": 0.0,
			"-0.023": 0.0,
			"-0.022": 0.0,
			"-0.021": 0.0,
			"-0.02": 0.0,
			"-0.019": 0.0,
			"-0.018": 0.0,
			"-0.017": 0.0,
			"-0.016": 0.0,
			"-0.015": 1.33627103736,
			"-0.014": 2.52650897541,
			"-0.013": 2.87071887548,
			"-0.012": 2.44562264929,
			"-0.011": 3.07390400574,
			"-0.01": 2.13079117625,
			"-0.009": 2.24534647067,
			"-0.008": 3.19595867459,
			"-0.007": 4.9534266392,
			"-0.006": 6.23992209041,
			"-0.005": 15.6498418566,
			"-0.004": 38.2645514411,
			"-0.003": 59.4473583858,
			"-0.002": 56.007307108,
			"-0.001": 67.034441686,
			"0.0": 58.9665908948,
			"0.001": 34.5944838517,
			"0.002": 22.7882331624,
			"0.003": 22.7133655113,
			"0.004": 22.4128120663,
			"0.005": 22.2318117747,
			"0.006": 21.1282179654,
			"0.007": 14.6406471045,
			"0.008": 7.77961466379,
			"0.009": 3.78286233745,
			"0.01": 4.14653649699,
			"0.011": 4.48779825747,
			"0.012": 4.90892441861,
			"0.013": 3.96196750065,
			"0.014": 0.504231874327,
			"0.015": 0.0890279158851,
			"0.016": 0.0,
			"0.017": 0.0,
			"0.018": 0.0,
			"0.019": 0.0,
			"0.02": 0.0,
			"0.021": 0.0,
			"0.022": 0.0,
			"0.023": 0.0,
			"0.024": 0.0,
			"0.025": 0.0
		}
	}
}
