{
	 "smiles": "CC1=C(Cl)C(=CC(=C1)C(O)=O)S(Cl)(=O)=O", 
	 "Tm": 483.15, 
	 "num_atms": 21, 
	 "gaussian": { 
		 "optdone": 1, 
		 "sigma_profile": "yes", 
		 "theory": "DFT", 
		 "functional": "B3LYP", 
		 "basiset": "6-31G**", 
		 "properties": { 
			 "R2extent": 5244.8551, 
			 "electric_dipole_moment_norm": 6.65995743004, 
			 "electric_quadrupole_moment_norm": 17.0351614709, 
			 "total_energy": -1927.87991587, 
			 "HOMO_LUMO_gap": 0.18449, 
			 "cosmo_polarized_energy": -13.91, 
			 "cosmo_cavitation_energy": 30.94, 
			 "cosmo_dispersion_energy": -22.98, 
			 "cosmo_repulsion_energy": 1.75, 
			 "cosmo_total_nonelectrostatic_energy": 9.7, 
			 "SMD_solvation_energy": 5.15 
		},
		"coords": [
			{
				"x": -1.2171967753,
				"y": -2.0278465469,
				"z": 1.4019352819,
				"element": "C" 
			},
			{
				"x": -1.3257020644,
				"y": -0.8492939506,
				"z": 0.4684679049,
				"element": "C" 
			},
			{
				"x": -0.3145651774,
				"y": -0.5526708716,
				"z": -0.464867237,
				"element": "C" 
			},
			{
				"x": 1.0938559632,
				"y": -1.574630222,
				"z": -0.5100624505,
				"element": "Cl" 
			},
			{
				"x": -0.4469163512,
				"y": 0.5551877768,
				"z": -1.3219942286,
				"element": "C" 
			},
			{
				"x": -1.568026943,
				"y": 1.3777480206,
				"z": -1.2599164463,
				"element": "C" 
			},
			{
				"x": -2.575869427,
				"y": 1.0900540931,
				"z": -0.3385292599,
				"element": "C" 
			},
			{
				"x": -2.4462623177,
				"y": -0.0131687697,
				"z": 0.5091679939,
				"element": "C" 
			},
			{
				"x": -3.7619846941,
				"y": 1.9918465845,
				"z": -0.3051336066,
				"element": "C" 
			},
			{
				"x": -4.673886834,
				"y": 1.621859075,
				"z": 0.6245234054,
				"element": "O" 
			},
			{
				"x": -3.9102936917,
				"y": 2.9565360445,
				"z": -1.024957601,
				"element": "O" 
			},
			{
				"x": 0.7538006764,
				"y": 0.9906671656,
				"z": -2.5979262517,
				"element": "S" 
			},
			{
				"x": 2.3874030108,
				"y": 1.672485459,
				"z": -1.425369325,
				"element": "Cl" 
			},
			{
				"x": 0.2509231622,
				"y": 2.1610207641,
				"z": -3.3042151076,
				"element": "O" 
			},
			{
				"x": 1.199009788,
				"y": -0.1967757387,
				"z": -3.3106744045,
				"element": "O" 
			},
			{
				"x": -2.0996030622,
				"y": -2.0901002793,
				"z": 2.0421877253,
				"element": "H" 
			},
			{
				"x": -0.3318584071,
				"y": -1.9482018699,
				"z": 2.0408851269,
				"element": "H" 
			},
			{
				"x": -1.126351102,
				"y": -2.9670325091,
				"z": 0.8468655893,
				"element": "H" 
			},
			{
				"x": -1.6647032268,
				"y": 2.2326483886,
				"z": -1.9181979096,
				"element": "H" 
			},
			{
				"x": -3.2352709632,
				"y": -0.2269360087,
				"z": 1.2214860154,
				"element": "H" 
			},
			{
				"x": -5.3978015633,
				"y": 2.2671033944,
				"z": 0.5648247853,
				"element": "H" 
			}
		],
		 "valence_orbital": [ 
			{
				"type": "occ",
				"energy": -0.32667,
				"method": "rhf"
			},
			{
				"type": "occ",
				"energy": -0.31654,
				"method": "rhf"
			},
			{
				"type": "occ",
				"energy": -0.30002,
				"method": "rhf"
			},
			{
				"type": "occ",
				"energy": -0.29856,
				"method": "rhf"
			},
			{
				"type": "occ",
				"energy": -0.28041,
				"method": "rhf"
			},
			{
				"type": "unocc",
				"energy": -0.09592,
				"method": "rhf"
			},
			{
				"type": "unocc",
				"energy": -0.07874,
				"method": "rhf"
			},
			{
				"type": "unocc",
				"energy": -0.05331,
				"method": "rhf"
			},
			{
				"type": "unocc",
				"energy": 0.00082,
				"method": "rhf"
			},
			{
				"type": "unocc",
				"energy": 0.01413,
				"method": "rhf"
			}
		],
		"cosmo_sigma_profile": { 
			"-0.025": 0.0,
			"-0.024": 0.0,
			"-0.023": 0.0,
			"-0.022": 0.0,
			"-0.021": 0.0,
			"-0.02": 0.0,
			"-0.019": 0.562228940856,
			"-0.018": 0.802694570238,
			"-0.017": 1.11194807997,
			"-0.016": 0.918662676531,
			"-0.015": 0.475353517371,
			"-0.014": 0.595389008425,
			"-0.013": 0.595875392774,
			"-0.012": 1.02456128695,
			"-0.011": 0.765072692914,
			"-0.01": 0.537204271737,
			"-0.009": 0.617898158909,
			"-0.008": 3.53058951653,
			"-0.007": 3.64278757952,
			"-0.006": 4.99436257034,
			"-0.005": 11.5671305436,
			"-0.004": 17.940751902,
			"-0.003": 22.2296580552,
			"-0.002": 34.1179173367,
			"-0.001": 25.5040704192,
			"0.0": 15.7489035379,
			"0.001": 15.0085128952,
			"0.002": 16.8985228488,
			"0.003": 19.7433291144,
			"0.004": 7.79068937198,
			"0.005": 7.34498598942,
			"0.006": 6.15411280595,
			"0.007": 9.70322678192,
			"0.008": 11.6012602928,
			"0.009": 3.08330804694,
			"0.01": 2.7702548861,
			"0.011": 4.63313913352,
			"0.012": 0.490378858155,
			"0.013": 0.0,
			"0.014": 0.0,
			"0.015": 0.0,
			"0.016": 0.0,
			"0.017": 0.0,
			"0.018": 0.0,
			"0.019": 0.0,
			"0.02": 0.0,
			"0.021": 0.0,
			"0.022": 0.0,
			"0.023": 0.0,
			"0.024": 0.0,
			"0.025": 0.0
		}
	}
}
