{
	 "smiles": "CN1C2=C(C=CC=C2)N=C1C(=NNC1=C(Cl)C=C(Cl)C=C1Cl)C#N", 
	 "Tm": 441.15, 
	 "num_atms": 34, 
	 "gaussian": { 
		 "optdone": 1, 
		 "sigma_profile": "yes", 
		 "theory": "DFT", 
		 "functional": "B3LYP", 
		 "basiset": "6-31G**", 
		 "properties": { 
			 "R2extent": 14491.4625, 
			 "electric_dipole_moment_norm": 5.12214360693, 
			 "electric_quadrupole_moment_norm": 22.8146438443, 
			 "total_energy": -2270.01090427, 
			 "HOMO_LUMO_gap": 0.13213, 
			 "cosmo_polarized_energy": -15.89, 
			 "cosmo_cavitation_energy": 45.61, 
			 "cosmo_dispersion_energy": -31.81, 
			 "cosmo_repulsion_energy": 2.38, 
			 "cosmo_total_nonelectrostatic_energy": 16.18, 
			 "SMD_solvation_energy": 5.96 
		},
		"coords": [
			{
				"x": 0.4225067309,
				"y": -1.1336347799,
				"z": -0.4222867521,
				"element": "C" 
			},
			{
				"x": -0.3914198653,
				"y": -1.9159119932,
				"z": 0.4991340016,
				"element": "N" 
			},
			{
				"x": -0.3973444739,
				"y": -3.299218041,
				"z": 0.5977228924,
				"element": "C" 
			},
			{
				"x": -1.3582434866,
				"y": -3.6053763756,
				"z": 1.594366582,
				"element": "C" 
			},
			{
				"x": -1.6132261282,
				"y": -4.941382247,
				"z": 1.9408682726,
				"element": "C" 
			},
			{
				"x": -0.899962376,
				"y": -5.9322722066,
				"z": 1.2803844111,
				"element": "C" 
			},
			{
				"x": 0.0543695036,
				"y": -5.6121798582,
				"z": 0.2901305523,
				"element": "C" 
			},
			{
				"x": 0.3238238571,
				"y": -4.2951738492,
				"z": -0.0688382527,
				"element": "C" 
			},
			{
				"x": -1.9171838248,
				"y": -2.4480491451,
				"z": 2.0860072055,
				"element": "N" 
			},
			{
				"x": -1.3240428168,
				"y": -1.4723278224,
				"z": 1.4224605299,
				"element": "C" 
			},
			{
				"x": -1.6669305055,
				"y": -0.0802862139,
				"z": 1.6822440439,
				"element": "C" 
			},
			{
				"x": -1.0551076503,
				"y": 0.9101758522,
				"z": 1.0950696189,
				"element": "N" 
			},
			{
				"x": -1.424229348,
				"y": 2.1631102385,
				"z": 1.3846727257,
				"element": "N" 
			},
			{
				"x": -0.8759963758,
				"y": 3.2507575546,
				"z": 0.6986987341,
				"element": "C" 
			},
			{
				"x": -1.7188712511,
				"y": 4.2886610502,
				"z": 0.2475414478,
				"element": "C" 
			},
			{
				"x": -3.4467901475,
				"y": 4.1718554038,
				"z": 0.521899364,
				"element": "Cl" 
			},
			{
				"x": -1.2343958259,
				"y": 5.4110891449,
				"z": -0.4150481178,
				"element": "C" 
			},
			{
				"x": 0.1337350552,
				"y": 5.5055811151,
				"z": -0.6557117261,
				"element": "C" 
			},
			{
				"x": 0.7641387071,
				"y": 6.8961238959,
				"z": -1.5097560833,
				"element": "Cl" 
			},
			{
				"x": 1.0090556223,
				"y": 4.5170784161,
				"z": -0.2147211745,
				"element": "C" 
			},
			{
				"x": 0.5072595772,
				"y": 3.4147704917,
				"z": 0.474629522,
				"element": "C" 
			},
			{
				"x": 1.6706581416,
				"y": 2.2801567919,
				"z": 1.11884584,
				"element": "Cl" 
			},
			{
				"x": -2.7305511418,
				"y": 0.1663080567,
				"z": 2.6250576537,
				"element": "C" 
			},
			{
				"x": -3.5617689712,
				"y": 0.5522814512,
				"z": 3.3424068213,
				"element": "N" 
			},
			{
				"x": 0.9774168794,
				"y": -1.823832463,
				"z": -1.0582019326,
				"element": "H" 
			},
			{
				"x": -0.2065285892,
				"y": -0.4993306114,
				"z": -1.0500395029,
				"element": "H" 
			},
			{
				"x": 1.1243506415,
				"y": -0.4941325417,
				"z": 0.1163676351,
				"element": "H" 
			},
			{
				"x": -2.3485765361,
				"y": -5.1744024991,
				"z": 2.7038287457,
				"element": "H" 
			},
			{
				"x": -1.074722466,
				"y": -6.9752673582,
				"z": 1.5264310875,
				"element": "H" 
			},
			{
				"x": 0.5938729172,
				"y": -6.414711406,
				"z": -0.2040027328,
				"element": "H" 
			},
			{
				"x": 1.0629366779,
				"y": -4.066101995,
				"z": -0.8299912596,
				"element": "H" 
			},
			{
				"x": -2.2946754576,
				"y": 2.3172196128,
				"z": 1.8926206612,
				"element": "H" 
			},
			{
				"x": -1.9156266213,
				"y": 6.1833187729,
				"z": -0.7490653143,
				"element": "H" 
			},
			{
				"x": 2.0755695478,
				"y": 4.6104035578,
				"z": -0.3759254997,
				"element": "H" 
			}
		],
		 "valence_orbital": [ 
			{
				"type": "occ",
				"energy": -0.28007,
				"method": "rhf"
			},
			{
				"type": "occ",
				"energy": -0.27633,
				"method": "rhf"
			},
			{
				"type": "occ",
				"energy": -0.25671,
				"method": "rhf"
			},
			{
				"type": "occ",
				"energy": -0.22934,
				"method": "rhf"
			},
			{
				"type": "occ",
				"energy": -0.21683,
				"method": "rhf"
			},
			{
				"type": "unocc",
				"energy": -0.0847,
				"method": "rhf"
			},
			{
				"type": "unocc",
				"energy": -0.05085,
				"method": "rhf"
			},
			{
				"type": "unocc",
				"energy": -0.03873,
				"method": "rhf"
			},
			{
				"type": "unocc",
				"energy": -0.02794,
				"method": "rhf"
			},
			{
				"type": "unocc",
				"energy": -0.01045,
				"method": "rhf"
			}
		],
		"cosmo_sigma_profile": { 
			"-0.025": 0.0,
			"-0.024": 0.0,
			"-0.023": 0.0,
			"-0.022": 0.0,
			"-0.021": 0.0,
			"-0.02": 0.0,
			"-0.019": 0.0,
			"-0.018": 0.0,
			"-0.017": 0.0,
			"-0.016": 0.0,
			"-0.015": 0.0,
			"-0.014": 0.0,
			"-0.013": 0.0325828824916,
			"-0.012": 0.762457961221,
			"-0.011": 0.77502154596,
			"-0.01": 0.957730394484,
			"-0.009": 4.42379329993,
			"-0.008": 6.53994745743,
			"-0.007": 8.81642140737,
			"-0.006": 12.4489122818,
			"-0.005": 17.5489203112,
			"-0.004": 23.6484536088,
			"-0.003": 33.4417873657,
			"-0.002": 32.0848020428,
			"-0.001": 37.3279407989,
			"0.0": 39.0073298477,
			"0.001": 27.9051541055,
			"0.002": 27.0261984633,
			"0.003": 33.245982545,
			"0.004": 23.0656117747,
			"0.005": 12.6513743829,
			"0.006": 8.58312407289,
			"0.007": 4.70474792055,
			"0.008": 4.87171205103,
			"0.009": 4.13206209717,
			"0.01": 4.13417861694,
			"0.011": 3.02999463454,
			"0.012": 1.8299613859,
			"0.013": 1.36188378627,
			"0.014": 1.08715670347,
			"0.015": 0.437281187583,
			"0.016": 0.0178801796554,
			"0.017": 0.0,
			"0.018": 0.0,
			"0.019": 0.0,
			"0.02": 0.0,
			"0.021": 0.0,
			"0.022": 0.0,
			"0.023": 0.0,
			"0.024": 0.0,
			"0.025": 0.0
		}
	}
}
