{
	 "smiles": "CC(C)(O)C(N)C(O)=O", 
	 "Tm": 474.15, 
	 "num_atms": 20, 
	 "gaussian": { 
		 "optdone": 1, 
		 "sigma_profile": "yes", 
		 "theory": "DFT", 
		 "functional": "B3LYP", 
		 "basiset": "6-31G**", 
		 "properties": { 
			 "R2extent": 1217.7369, 
			 "electric_dipole_moment_norm": 4.58859127511, 
			 "electric_quadrupole_moment_norm": 11.3630467609, 
			 "total_energy": -477.600866053, 
			 "HOMO_LUMO_gap": 0.26835, 
			 "cosmo_polarized_energy": -14.81, 
			 "cosmo_cavitation_energy": 21.86, 
			 "cosmo_dispersion_energy": -16.08, 
			 "cosmo_repulsion_energy": 1.32, 
			 "cosmo_total_nonelectrostatic_energy": 7.1, 
			 "SMD_solvation_energy": 4.77 
		},
		"coords": [
			{
				"x": -0.3117222023,
				"y": 0.1149755716,
				"z": -1.4261949131,
				"element": "C" 
			},
			{
				"x": 0.2387969361,
				"y": 0.7828877491,
				"z": -0.1567127123,
				"element": "C" 
			},
			{
				"x": 1.7543612007,
				"y": 0.9860807507,
				"z": -0.2444403297,
				"element": "C" 
			},
			{
				"x": -0.4117603578,
				"y": 2.0541996482,
				"z": 0.0385673807,
				"element": "O" 
			},
			{
				"x": -0.1365479848,
				"y": -0.0111048565,
				"z": 1.132409967,
				"element": "C" 
			},
			{
				"x": -1.5920433594,
				"y": 0.0420369965,
				"z": 1.3562564687,
				"element": "N" 
			},
			{
				"x": 0.289863604,
				"y": -1.490043957,
				"z": 1.0091248969,
				"element": "C" 
			},
			{
				"x": -0.7433340615,
				"y": -2.3208969981,
				"z": 0.8212156711,
				"element": "O" 
			},
			{
				"x": 1.4417532704,
				"y": -1.8603834868,
				"z": 1.0552887296,
				"element": "O" 
			},
			{
				"x": -0.1110574152,
				"y": 0.7508623924,
				"z": -2.2962287185,
				"element": "H" 
			},
			{
				"x": 0.1656144448,
				"y": -0.8516591944,
				"z": -1.6099009125,
				"element": "H" 
			},
			{
				"x": -1.3921006579,
				"y": -0.0368633665,
				"z": -1.3568248285,
				"element": "H" 
			},
			{
				"x": 2.0070554295,
				"y": 1.5331454212,
				"z": -1.1604192313,
				"element": "H" 
			},
			{
				"x": 2.1032616016,
				"y": 1.5711014798,
				"z": 0.6113207082,
				"element": "H" 
			},
			{
				"x": 2.28187409,
				"y": 0.0303516725,
				"z": -0.249311675,
				"element": "H" 
			},
			{
				"x": -0.2638406165,
				"y": 2.5838324954,
				"z": -0.7558812073,
				"element": "H" 
			},
			{
				"x": 0.4372151689,
				"y": 0.4265692502,
				"z": 1.9582365959,
				"element": "H" 
			},
			{
				"x": -1.9425258713,
				"y": 0.9218216489,
				"z": 0.9831945201,
				"element": "H" 
			},
			{
				"x": -1.7949221192,
				"y": 0.036863229,
				"z": 2.3522287225,
				"element": "H" 
			},
			{
				"x": -1.5379411,
				"y": -1.7289764463,
				"z": 0.8574708675,
				"element": "H" 
			}
		],
		 "valence_orbital": [ 
			{
				"type": "occ",
				"energy": -0.33508,
				"method": "rhf"
			},
			{
				"type": "occ",
				"energy": -0.29949,
				"method": "rhf"
			},
			{
				"type": "occ",
				"energy": -0.28949,
				"method": "rhf"
			},
			{
				"type": "occ",
				"energy": -0.28563,
				"method": "rhf"
			},
			{
				"type": "occ",
				"energy": -0.25139,
				"method": "rhf"
			},
			{
				"type": "unocc",
				"energy": 0.01696,
				"method": "rhf"
			},
			{
				"type": "unocc",
				"energy": 0.05267,
				"method": "rhf"
			},
			{
				"type": "unocc",
				"energy": 0.08189,
				"method": "rhf"
			},
			{
				"type": "unocc",
				"energy": 0.10863,
				"method": "rhf"
			},
			{
				"type": "unocc",
				"energy": 0.12664,
				"method": "rhf"
			}
		],
		"cosmo_sigma_profile": { 
			"-0.025": 0.0,
			"-0.024": 0.0,
			"-0.023": 0.0,
			"-0.022": 0.0,
			"-0.021": 0.0,
			"-0.02": 0.0,
			"-0.019": 0.0,
			"-0.018": 0.0,
			"-0.017": 0.0,
			"-0.016": 0.11122341609,
			"-0.015": 1.02984615381,
			"-0.014": 0.70533791821,
			"-0.013": 1.16210401431,
			"-0.012": 2.4037789529,
			"-0.011": 2.73865949683,
			"-0.01": 3.34652386396,
			"-0.009": 4.05247162275,
			"-0.008": 4.10398756702,
			"-0.007": 4.25802400537,
			"-0.006": 7.05118111037,
			"-0.005": 7.06144388971,
			"-0.004": 9.46134441715,
			"-0.003": 12.8307239999,
			"-0.002": 13.3710760021,
			"-0.001": 14.9660519431,
			"0.0": 15.8713655962,
			"0.001": 10.9193520215,
			"0.002": 5.1606992203,
			"0.003": 3.88854276391,
			"0.004": 3.80508383114,
			"0.005": 4.33890900211,
			"0.006": 3.7244520331,
			"0.007": 4.7071913026,
			"0.008": 2.95714204133,
			"0.009": 4.25869168621,
			"0.01": 4.50925494413,
			"0.011": 6.25498248884,
			"0.012": 5.52957482763,
			"0.013": 3.76862428796,
			"0.014": 0.841666637432,
			"0.015": 0.0,
			"0.016": 0.0,
			"0.017": 0.0,
			"0.018": 0.0,
			"0.019": 0.0,
			"0.02": 0.0,
			"0.021": 0.0,
			"0.022": 0.0,
			"0.023": 0.0,
			"0.024": 0.0,
			"0.025": 0.0
		}
	}
}
