{
	 "smiles": "CCN(CC)C(=O)SCC1=CC=C(Cl)C=C1", 
	 "Tm": 276.45, 
	 "num_atms": 32, 
	 "gaussian": { 
		 "optdone": 1, 
		 "sigma_profile": "yes", 
		 "theory": "DFT", 
		 "functional": "B3LYP", 
		 "basiset": "6-31G**", 
		 "properties": { 
			 "R2extent": 7346.4354, 
			 "electric_dipole_moment_norm": 3.95561603925, 
			 "electric_quadrupole_moment_norm": 12.6907080319, 
			 "total_energy": -1455.306936, 
			 "HOMO_LUMO_gap": 0.21448, 
			 "cosmo_polarized_energy": -9.24, 
			 "cosmo_cavitation_energy": 37.79, 
			 "cosmo_dispersion_energy": -27.16, 
			 "cosmo_repulsion_energy": 2.1, 
			 "cosmo_total_nonelectrostatic_energy": 12.73, 
			 "SMD_solvation_energy": 6.17 
		},
		"coords": [
			{
				"x": -2.696814831,
				"y": -2.2427197549,
				"z": 2.981608773,
				"element": "C" 
			},
			{
				"x": -2.3603017653,
				"y": -2.2181508131,
				"z": 1.488100594,
				"element": "C" 
			},
			{
				"x": -0.9779090321,
				"y": -1.8043858835,
				"z": 1.1874280163,
				"element": "N" 
			},
			{
				"x": 0.0197801695,
				"y": -2.8260630616,
				"z": 0.8578976465,
				"element": "C" 
			},
			{
				"x": 0.6743622414,
				"y": -3.488595239,
				"z": 2.0746670423,
				"element": "C" 
			},
			{
				"x": -0.71139504,
				"y": -0.4706709038,
				"z": 1.2636467534,
				"element": "C" 
			},
			{
				"x": -1.5597731178,
				"y": 0.3674564859,
				"z": 1.545475401,
				"element": "O" 
			},
			{
				"x": 1.0237253177,
				"y": 0.0074196364,
				"z": 0.9227138605,
				"element": "S" 
			},
			{
				"x": 0.8346605586,
				"y": 1.8396407762,
				"z": 1.0782978675,
				"element": "C" 
			},
			{
				"x": 0.5758190466,
				"y": 2.5549002772,
				"z": -0.2226819436,
				"element": "C" 
			},
			{
				"x": -0.7206154303,
				"y": 2.6239671592,
				"z": -0.7536580908,
				"element": "C" 
			},
			{
				"x": -0.9681187361,
				"y": 3.2884909855,
				"z": -1.9532621683,
				"element": "C" 
			},
			{
				"x": 0.0928015577,
				"y": 3.890485738,
				"z": -2.630266823,
				"element": "C" 
			},
			{
				"x": -0.2132503623,
				"y": 4.7337557941,
				"z": -4.1446990312,
				"element": "Cl" 
			},
			{
				"x": 1.3903531579,
				"y": 3.8381034863,
				"z": -2.1255212791,
				"element": "C" 
			},
			{
				"x": 1.6208199662,
				"y": 3.1692694602,
				"z": -0.9229400472,
				"element": "C" 
			},
			{
				"x": -2.0597716154,
				"y": -2.942977554,
				"z": 3.529747728,
				"element": "H" 
			},
			{
				"x": -2.5734815379,
				"y": -1.2459692201,
				"z": 3.4107048157,
				"element": "H" 
			},
			{
				"x": -3.7388611448,
				"y": -2.5491849976,
				"z": 3.1225531221,
				"element": "H" 
			},
			{
				"x": -2.4977855949,
				"y": -3.2094717104,
				"z": 1.0454009658,
				"element": "H" 
			},
			{
				"x": -3.0330638809,
				"y": -1.5254239186,
				"z": 0.9753270294,
				"element": "H" 
			},
			{
				"x": 0.7840202086,
				"y": -2.371264262,
				"z": 0.2216297237,
				"element": "H" 
			},
			{
				"x": -0.4808156631,
				"y": -3.5807038675,
				"z": 0.240925929,
				"element": "H" 
			},
			{
				"x": 1.1756590454,
				"y": -2.7437310907,
				"z": 2.6989292519,
				"element": "H" 
			},
			{
				"x": 1.4216443631,
				"y": -4.2184219295,
				"z": 1.7456453528,
				"element": "H" 
			},
			{
				"x": -0.061654564,
				"y": -4.0152941445,
				"z": 2.6891887478,
				"element": "H" 
			},
			{
				"x": 1.7667841819,
				"y": 2.1767228571,
				"z": 1.5375287328,
				"element": "H" 
			},
			{
				"x": 0.0141178908,
				"y": 1.9816244004,
				"z": 1.7842170232,
				"element": "H" 
			},
			{
				"x": -1.5359708231,
				"y": 2.1467283225,
				"z": -0.2187780194,
				"element": "H" 
			},
			{
				"x": -1.9722326928,
				"y": 3.3432498348,
				"z": -2.3594364857,
				"element": "H" 
			},
			{
				"x": 2.2038860567,
				"y": 4.3137917771,
				"z": -2.66201586,
				"element": "H" 
			},
			{
				"x": 2.6321820699,
				"y": 3.1294213598,
				"z": -0.5260746285,
				"element": "H" 
			}
		],
		 "valence_orbital": [ 
			{
				"type": "occ",
				"energy": -0.26335,
				"method": "rhf"
			},
			{
				"type": "occ",
				"energy": -0.25766,
				"method": "rhf"
			},
			{
				"type": "occ",
				"energy": -0.25579,
				"method": "rhf"
			},
			{
				"type": "occ",
				"energy": -0.24558,
				"method": "rhf"
			},
			{
				"type": "occ",
				"energy": -0.23206,
				"method": "rhf"
			},
			{
				"type": "unocc",
				"energy": -0.01758,
				"method": "rhf"
			},
			{
				"type": "unocc",
				"energy": -0.00979,
				"method": "rhf"
			},
			{
				"type": "unocc",
				"energy": 0.02227,
				"method": "rhf"
			},
			{
				"type": "unocc",
				"energy": 0.03413,
				"method": "rhf"
			},
			{
				"type": "unocc",
				"energy": 0.03567,
				"method": "rhf"
			}
		],
		"cosmo_sigma_profile": { 
			"-0.025": 0.0,
			"-0.024": 0.0,
			"-0.023": 0.0,
			"-0.022": 0.0,
			"-0.021": 0.0,
			"-0.02": 0.0,
			"-0.019": 0.0,
			"-0.018": 0.0,
			"-0.017": 0.0,
			"-0.016": 0.0,
			"-0.015": 0.0,
			"-0.014": 0.0,
			"-0.013": 0.0,
			"-0.012": 0.0,
			"-0.011": 0.0,
			"-0.01": 0.0,
			"-0.009": 0.0,
			"-0.008": 0.238931914184,
			"-0.007": 6.96523601553,
			"-0.006": 12.2843215351,
			"-0.005": 13.8682550806,
			"-0.004": 23.5977397116,
			"-0.003": 29.2894876294,
			"-0.002": 28.8937635651,
			"-0.001": 26.9515557347,
			"0.0": 30.5648953029,
			"0.001": 30.5936356734,
			"0.002": 22.4241179178,
			"0.003": 20.2956004329,
			"0.004": 23.3942750374,
			"0.005": 15.8100424915,
			"0.006": 5.41493766256,
			"0.007": 3.02266237242,
			"0.008": 2.46026764684,
			"0.009": 1.26526086503,
			"0.01": 1.35315402177,
			"0.011": 1.62585706761,
			"0.012": 1.82756457782,
			"0.013": 0.782006187918,
			"0.014": 0.0,
			"0.015": 0.0,
			"0.016": 0.0,
			"0.017": 0.0,
			"0.018": 0.0,
			"0.019": 0.0,
			"0.02": 0.0,
			"0.021": 0.0,
			"0.022": 0.0,
			"0.023": 0.0,
			"0.024": 0.0,
			"0.025": 0.0
		}
	}
}
