{
	 "smiles": "NC(=O)NC1=CC=C(CC(O)=O)C=C1", 
	 "Tm": 453.15, 
	 "num_atms": 24, 
	 "gaussian": { 
		 "optdone": 1, 
		 "sigma_profile": "yes", 
		 "theory": "DFT", 
		 "functional": "B3LYP", 
		 "basiset": "6-31G**", 
		 "properties": { 
			 "R2extent": 4275.2497, 
			 "electric_dipole_moment_norm": 4.19029730807, 
			 "electric_quadrupole_moment_norm": 10.1362364411, 
			 "total_energy": -684.203982423, 
			 "HOMO_LUMO_gap": 0.20537, 
			 "cosmo_polarized_energy": -20.35, 
			 "cosmo_cavitation_energy": 29.09, 
			 "cosmo_dispersion_energy": -21.16, 
			 "cosmo_repulsion_energy": 1.7, 
			 "cosmo_total_nonelectrostatic_energy": 9.64, 
			 "SMD_solvation_energy": 7.06 
		},
		"coords": [
			{
				"x": -1.796340655,
				"y": 0.3522695153,
				"z": -3.0413608839,
				"element": "N" 
			},
			{
				"x": -1.1490542203,
				"y": 1.5718259259,
				"z": -3.0063134208,
				"element": "C" 
			},
			{
				"x": -1.1176833926,
				"y": 2.3361414822,
				"z": -3.9606802925,
				"element": "O" 
			},
			{
				"x": -0.4972778007,
				"y": 1.8987953518,
				"z": -1.8201608898,
				"element": "N" 
			},
			{
				"x": -0.347082608,
				"y": 1.188997891,
				"z": -0.6131771535,
				"element": "C" 
			},
			{
				"x": -0.3249082691,
				"y": 1.9068502065,
				"z": 0.5920224017,
				"element": "C" 
			},
			{
				"x": -0.1416771183,
				"y": 1.2470509933,
				"z": 1.804359579,
				"element": "C" 
			},
			{
				"x": 0.0096286416,
				"y": -0.1429775492,
				"z": 1.858710915,
				"element": "C" 
			},
			{
				"x": 0.2041259411,
				"y": -0.8435352553,
				"z": 3.1831096914,
				"element": "C" 
			},
			{
				"x": -0.8871164109,
				"y": -1.8454622576,
				"z": 3.53124161,
				"element": "C" 
			},
			{
				"x": -0.9735867734,
				"y": -2.0194096824,
				"z": 4.8724342708,
				"element": "O" 
			},
			{
				"x": -1.5786039252,
				"y": -2.4568139324,
				"z": 2.7487748234,
				"element": "O" 
			},
			{
				"x": -0.0052094532,
				"y": -0.8531923704,
				"z": 0.6519778353,
				"element": "C" 
			},
			{
				"x": -0.1659484238,
				"y": -0.2040401766,
				"z": -0.5697226109,
				"element": "C" 
			},
			{
				"x": -2.4093419634,
				"y": 0.2646611837,
				"z": -3.8387158781,
				"element": "H" 
			},
			{
				"x": -2.1381967747,
				"y": -0.0457034438,
				"z": -2.1777749248,
				"element": "H" 
			},
			{
				"x": -0.17413185,
				"y": 2.8557794696,
				"z": -1.8381854002,
				"element": "H" 
			},
			{
				"x": -0.4613259176,
				"y": 2.9848756002,
				"z": 0.574868908,
				"element": "H" 
			},
			{
				"x": -0.1285917271,
				"y": 1.8259788327,
				"z": 2.7245162406,
				"element": "H" 
			},
			{
				"x": 0.2892005166,
				"y": -0.1253560216,
				"z": 4.0028049725,
				"element": "H" 
			},
			{
				"x": 1.1429535466,
				"y": -1.4162900403,
				"z": 3.1863790834,
				"element": "H" 
			},
			{
				"x": -1.6533611937,
				"y": -2.7002587841,
				"z": 5.0133112964,
				"element": "H" 
			},
			{
				"x": 0.1175665001,
				"y": -1.9312766497,
				"z": 0.6638092357,
				"element": "H" 
			},
			{
				"x": -0.124736669,
				"y": -0.771710289,
				"z": -1.4922294088,
				"element": "H" 
			}
		],
		 "valence_orbital": [ 
			{
				"type": "occ",
				"energy": -0.28361,
				"method": "rhf"
			},
			{
				"type": "occ",
				"energy": -0.27184,
				"method": "rhf"
			},
			{
				"type": "occ",
				"energy": -0.2592,
				"method": "rhf"
			},
			{
				"type": "occ",
				"energy": -0.25494,
				"method": "rhf"
			},
			{
				"type": "occ",
				"energy": -0.22022,
				"method": "rhf"
			},
			{
				"type": "unocc",
				"energy": -0.01485,
				"method": "rhf"
			},
			{
				"type": "unocc",
				"energy": -0.01026,
				"method": "rhf"
			},
			{
				"type": "unocc",
				"energy": 0.00496,
				"method": "rhf"
			},
			{
				"type": "unocc",
				"energy": 0.06341,
				"method": "rhf"
			},
			{
				"type": "unocc",
				"energy": 0.07353,
				"method": "rhf"
			}
		],
		"cosmo_sigma_profile": { 
			"-0.025": 0.0,
			"-0.024": 0.0,
			"-0.023": 0.0,
			"-0.022": 0.0,
			"-0.021": 0.0,
			"-0.02": 0.0,
			"-0.019": 0.0375702724516,
			"-0.018": 0.656543787308,
			"-0.017": 1.47586912716,
			"-0.016": 0.410467701082,
			"-0.015": 0.460322124766,
			"-0.014": 1.95928865285,
			"-0.013": 2.69252522195,
			"-0.012": 3.7074145477,
			"-0.011": 4.32541236834,
			"-0.01": 4.41535709038,
			"-0.009": 3.60883877386,
			"-0.008": 4.29271465092,
			"-0.007": 8.17155361755,
			"-0.006": 13.7565050397,
			"-0.005": 13.6752975717,
			"-0.004": 14.3835572108,
			"-0.003": 13.2916088857,
			"-0.002": 12.0044964778,
			"-0.001": 11.096586642,
			"0.0": 11.1009287922,
			"0.001": 12.19014302,
			"0.002": 9.65345558076,
			"0.003": 11.6112711567,
			"0.004": 11.5911643074,
			"0.005": 13.4714585469,
			"0.006": 5.36880478659,
			"0.007": 4.66758135055,
			"0.008": 4.78597628325,
			"0.009": 5.54408845485,
			"0.01": 4.24218423623,
			"0.011": 5.15616236364,
			"0.012": 5.40408610192,
			"0.013": 2.42970179312,
			"0.014": 7.03800965226,
			"0.015": 1.78939426549,
			"0.016": 0.0,
			"0.017": 0.0,
			"0.018": 0.0,
			"0.019": 0.0,
			"0.02": 0.0,
			"0.021": 0.0,
			"0.022": 0.0,
			"0.023": 0.0,
			"0.024": 0.0,
			"0.025": 0.0
		}
	}
}
