{
	 "smiles": "COC1=C(OC(F)F)C(Br)=CC(C=O)=C1", 
	 "Tm": 364.15, 
	 "num_atms": 22, 
	 "gaussian": { 
		 "optdone": 1, 
		 "sigma_profile": "yes", 
		 "theory": "DFT", 
		 "functional": "B3LYP", 
		 "basiset": "6-31G**", 
		 "properties": { 
			 "R2extent": 4566.9892, 
			 "electric_dipole_moment_norm": 1.6505057437, 
			 "electric_quadrupole_moment_norm": 12.1448917554, 
			 "total_energy": -3343.89393234, 
			 "HOMO_LUMO_gap": 0.17031, 
			 "cosmo_polarized_energy": -10.88, 
			 "cosmo_cavitation_energy": 29.98, 
			 "cosmo_dispersion_energy": -21.46, 
			 "cosmo_repulsion_energy": 1.65, 
			 "cosmo_total_nonelectrostatic_energy": 10.17, 
			 "SMD_solvation_energy": 7.2 
		},
		"coords": [
			{
				"x": -0.22686057,
				"y": 3.7671652891,
				"z": -0.6096994503,
				"element": "C" 
			},
			{
				"x": 0.4856781159,
				"y": 2.5516767433,
				"z": -0.8121591953,
				"element": "O" 
			},
			{
				"x": 0.4193503819,
				"y": 1.6069738657,
				"z": 0.1522779906,
				"element": "C" 
			},
			{
				"x": 1.1401886409,
				"y": 0.4118711233,
				"z": -0.1028047607,
				"element": "C" 
			},
			{
				"x": 1.879083257,
				"y": 0.3128720764,
				"z": -1.2682400327,
				"element": "O" 
			},
			{
				"x": 1.2584123701,
				"y": -0.1736024112,
				"z": -2.399437863,
				"element": "C" 
			},
			{
				"x": 0.7499128992,
				"y": -1.4128737708,
				"z": -2.1888482882,
				"element": "F" 
			},
			{
				"x": 0.2178736542,
				"y": 0.6059614732,
				"z": -2.7809942184,
				"element": "F" 
			},
			{
				"x": 1.1930621092,
				"y": -0.5914482221,
				"z": 0.866327427,
				"element": "C" 
			},
			{
				"x": 2.2439148866,
				"y": -2.1504193987,
				"z": 0.5838460971,
				"element": "Br" 
			},
			{
				"x": 0.5015893561,
				"y": -0.453005602,
				"z": 2.0699352599,
				"element": "C" 
			},
			{
				"x": -0.2358998274,
				"y": 0.7076789581,
				"z": 2.3011533106,
				"element": "C" 
			},
			{
				"x": -0.9764824598,
				"y": 0.8598642752,
				"z": 3.5762759311,
				"element": "C" 
			},
			{
				"x": -1.6389193313,
				"y": 1.8359057695,
				"z": 3.8707236526,
				"element": "O" 
			},
			{
				"x": -0.2742075568,
				"y": 1.7393867766,
				"z": 1.3529280608,
				"element": "C" 
			},
			{
				"x": -0.0380390242,
				"y": 4.3707908258,
				"z": -1.4976924727,
				"element": "H" 
			},
			{
				"x": 0.1339229533,
				"y": 4.3004010912,
				"z": 0.2780828513,
				"element": "H" 
			},
			{
				"x": -1.3042148563,
				"y": 3.5879804784,
				"z": -0.5128197354,
				"element": "H" 
			},
			{
				"x": 2.0126976417,
				"y": -0.2041155652,
				"z": -3.1883839347,
				"element": "H" 
			},
			{
				"x": 0.5437081461,
				"y": -1.2409574189,
				"z": 2.8141126438,
				"element": "H" 
			},
			{
				"x": -0.8856094086,
				"y": -0.0033494583,
				"z": 4.2709508608,
				"element": "H" 
			},
			{
				"x": -0.847761378,
				"y": 2.6262431014,
				"z": 1.5915658657,
				"element": "H" 
			}
		],
		 "valence_orbital": [ 
			{
				"type": "occ",
				"energy": -0.3112,
				"method": "rhf"
			},
			{
				"type": "occ",
				"energy": -0.29434,
				"method": "rhf"
			},
			{
				"type": "occ",
				"energy": -0.26544,
				"method": "rhf"
			},
			{
				"type": "occ",
				"energy": -0.25689,
				"method": "rhf"
			},
			{
				"type": "occ",
				"energy": -0.24483,
				"method": "rhf"
			},
			{
				"type": "unocc",
				"energy": -0.07452,
				"method": "rhf"
			},
			{
				"type": "unocc",
				"energy": -0.01957,
				"method": "rhf"
			},
			{
				"type": "unocc",
				"energy": -0.00521,
				"method": "rhf"
			},
			{
				"type": "unocc",
				"energy": 0.0278,
				"method": "rhf"
			},
			{
				"type": "unocc",
				"energy": 0.09245,
				"method": "rhf"
			}
		],
		"cosmo_sigma_profile": { 
			"-0.025": 0.0,
			"-0.024": 0.0,
			"-0.023": 0.0,
			"-0.022": 0.0,
			"-0.021": 0.0,
			"-0.02": 0.0,
			"-0.019": 0.0,
			"-0.018": 0.0,
			"-0.017": 0.0,
			"-0.016": 0.0,
			"-0.015": 0.0,
			"-0.014": 0.0,
			"-0.013": 0.0,
			"-0.012": 0.0,
			"-0.011": 1.92356376037,
			"-0.01": 2.87811191008,
			"-0.009": 3.0975448437,
			"-0.008": 5.1162451431,
			"-0.007": 10.2727914904,
			"-0.006": 13.9789641627,
			"-0.005": 13.7523175575,
			"-0.004": 16.7215564169,
			"-0.003": 12.0316143484,
			"-0.002": 11.4230014359,
			"-0.001": 15.8359926469,
			"0.0": 20.7274667035,
			"0.001": 20.2948611927,
			"0.002": 13.8475732779,
			"0.003": 20.0909314967,
			"0.004": 25.5457066106,
			"0.005": 8.46261658174,
			"0.006": 5.58361841426,
			"0.007": 4.6527189013,
			"0.008": 3.98851397223,
			"0.009": 3.73098758633,
			"0.01": 3.4717150584,
			"0.011": 4.10026893132,
			"0.012": 1.69620015408,
			"0.013": 0.15983022886,
			"0.014": 0.0,
			"0.015": 0.0,
			"0.016": 0.0,
			"0.017": 0.0,
			"0.018": 0.0,
			"0.019": 0.0,
			"0.02": 0.0,
			"0.021": 0.0,
			"0.022": 0.0,
			"0.023": 0.0,
			"0.024": 0.0,
			"0.025": 0.0
		}
	}
}
