{
	 "smiles": "ClC1=CC=CC=C1C(Cl)(Cl)Cl", 
	 "Tm": 302.65, 
	 "num_atms": 15, 
	 "gaussian": { 
		 "optdone": 1, 
		 "sigma_profile": "yes", 
		 "theory": "DFT", 
		 "functional": "B3LYP", 
		 "basiset": "6-31G**", 
		 "properties": { 
			 "R2extent": 4674.5267, 
			 "electric_dipole_moment_norm": 3.44921346831, 
			 "electric_quadrupole_moment_norm": 5.10970079261, 
			 "total_energy": -2109.89701824, 
			 "HOMO_LUMO_gap": 0.20698, 
			 "cosmo_polarized_energy": -4.88, 
			 "cosmo_cavitation_energy": 25.3, 
			 "cosmo_dispersion_energy": -19.12, 
			 "cosmo_repulsion_energy": 1.51, 
			 "cosmo_total_nonelectrostatic_energy": 7.69, 
			 "SMD_solvation_energy": 3.17 
		},
		"coords": [
			{
				"x": -0.9825734944,
				"y": 3.1142112813,
				"z": 0.1050499501,
				"element": "Cl" 
			},
			{
				"x": -0.2209125977,
				"y": 1.5504321859,
				"z": 0.3233721047,
				"element": "C" 
			},
			{
				"x": 0.5560795047,
				"y": 1.1036974773,
				"z": -0.7464431095,
				"element": "C" 
			},
			{
				"x": 1.2087235743,
				"y": -0.1242787141,
				"z": -0.685558582,
				"element": "C" 
			},
			{
				"x": 1.0812538373,
				"y": -0.9095658294,
				"z": 0.4559080165,
				"element": "C" 
			},
			{
				"x": 0.3059373093,
				"y": -0.4632732208,
				"z": 1.5228673335,
				"element": "C" 
			},
			{
				"x": -0.364737386,
				"y": 0.7693573285,
				"z": 1.4933391406,
				"element": "C" 
			},
			{
				"x": -1.2052548951,
				"y": 1.2202632466,
				"z": 2.6875529628,
				"element": "C" 
			},
			{
				"x": -0.5633903433,
				"y": 2.7653300541,
				"z": 3.3804227265,
				"element": "Cl" 
			},
			{
				"x": -2.9369647875,
				"y": 1.4455422555,
				"z": 2.2081352645,
				"element": "Cl" 
			},
			{
				"x": -1.2079646909,
				"y": 0.0186942753,
				"z": 4.0457922044,
				"element": "Cl" 
			},
			{
				"x": 0.6402615084,
				"y": 1.7331162832,
				"z": -1.6250089081,
				"element": "H" 
			},
			{
				"x": 1.8093487913,
				"y": -0.4573798241,
				"z": -1.5262255113,
				"element": "H" 
			},
			{
				"x": 1.5808436593,
				"y": -1.8703292333,
				"z": 0.5258240132,
				"element": "H" 
			},
			{
				"x": 0.2183500104,
				"y": -1.086717566,
				"z": 2.4016723942,
				"element": "H" 
			}
		],
		 "valence_orbital": [ 
			{
				"type": "occ",
				"energy": -0.32081,
				"method": "rhf"
			},
			{
				"type": "occ",
				"energy": -0.30387,
				"method": "rhf"
			},
			{
				"type": "occ",
				"energy": -0.30178,
				"method": "rhf"
			},
			{
				"type": "occ",
				"energy": -0.27817,
				"method": "rhf"
			},
			{
				"type": "occ",
				"energy": -0.2614,
				"method": "rhf"
			},
			{
				"type": "unocc",
				"energy": -0.05442,
				"method": "rhf"
			},
			{
				"type": "unocc",
				"energy": -0.04361,
				"method": "rhf"
			},
			{
				"type": "unocc",
				"energy": -0.02897,
				"method": "rhf"
			},
			{
				"type": "unocc",
				"energy": -0.01157,
				"method": "rhf"
			},
			{
				"type": "unocc",
				"energy": 0.01859,
				"method": "rhf"
			}
		],
		"cosmo_sigma_profile": { 
			"-0.025": 0.0,
			"-0.024": 0.0,
			"-0.023": 0.0,
			"-0.022": 0.0,
			"-0.021": 0.0,
			"-0.02": 0.0,
			"-0.019": 0.0,
			"-0.018": 0.0,
			"-0.017": 0.0,
			"-0.016": 0.0,
			"-0.015": 0.0,
			"-0.014": 0.0,
			"-0.013": 0.0,
			"-0.012": 0.0,
			"-0.011": 0.0,
			"-0.01": 0.0,
			"-0.009": 0.0,
			"-0.008": 1.87937091798,
			"-0.007": 8.21765957183,
			"-0.006": 8.57871357374,
			"-0.005": 7.75415165805,
			"-0.004": 8.70030119017,
			"-0.003": 13.6176574072,
			"-0.002": 13.2492147634,
			"-0.001": 16.4489609638,
			"0.0": 19.2725225578,
			"0.001": 26.9691157485,
			"0.002": 29.7125755768,
			"0.003": 36.6167303269,
			"0.004": 18.1843336741,
			"0.005": 2.57794672868,
			"0.006": 0.0,
			"0.007": 0.0,
			"0.008": 0.0,
			"0.009": 0.0,
			"0.01": 0.0,
			"0.011": 0.0,
			"0.012": 0.0,
			"0.013": 0.0,
			"0.014": 0.0,
			"0.015": 0.0,
			"0.016": 0.0,
			"0.017": 0.0,
			"0.018": 0.0,
			"0.019": 0.0,
			"0.02": 0.0,
			"0.021": 0.0,
			"0.022": 0.0,
			"0.023": 0.0,
			"0.024": 0.0,
			"0.025": 0.0
		}
	}
}
