{
	 "smiles": "CCOC(=O)C1=C(N)OC(=N1)C1=CC=CC=C1", 
	 "Tm": 455.15, 
	 "num_atms": 29, 
	 "gaussian": { 
		 "optdone": 1, 
		 "sigma_profile": "yes", 
		 "theory": "DFT", 
		 "functional": "B3LYP", 
		 "basiset": "6-31G**", 
		 "properties": { 
			 "R2extent": 5970.2197, 
			 "electric_dipole_moment_norm": 4.76142708544, 
			 "electric_quadrupole_moment_norm": 16.6727565231, 
			 "total_energy": -799.701065158, 
			 "HOMO_LUMO_gap": 0.16467, 
			 "cosmo_polarized_energy": -17.5, 
			 "cosmo_cavitation_energy": 34.13, 
			 "cosmo_dispersion_energy": -24.91, 
			 "cosmo_repulsion_energy": 1.95, 
			 "cosmo_total_nonelectrostatic_energy": 11.17, 
			 "SMD_solvation_energy": 5.76 
		},
		"coords": [
			{
				"x": -2.6353431542,
				"y": 2.7920434663,
				"z": 3.1723835347,
				"element": "C" 
			},
			{
				"x": -2.3519943953,
				"y": 3.3576685371,
				"z": 1.7885036118,
				"element": "C" 
			},
			{
				"x": -1.3488657072,
				"y": 2.5815685988,
				"z": 1.0936831336,
				"element": "O" 
			},
			{
				"x": -1.8102078714,
				"y": 1.4811285331,
				"z": 0.4021660224,
				"element": "C" 
			},
			{
				"x": -2.980118456,
				"y": 1.166078363,
				"z": 0.3617257918,
				"element": "O" 
			},
			{
				"x": -0.7004909687,
				"y": 0.7908347247,
				"z": -0.2422552098,
				"element": "C" 
			},
			{
				"x": 0.6439965778,
				"y": 1.1166949861,
				"z": -0.2172283391,
				"element": "C" 
			},
			{
				"x": 1.3528621589,
				"y": 2.1550739064,
				"z": 0.2955791974,
				"element": "N" 
			},
			{
				"x": 1.3181226396,
				"y": 0.1819690014,
				"z": -0.9247923646,
				"element": "O" 
			},
			{
				"x": 0.3336821187,
				"y": -0.7064145744,
				"z": -1.3713141919,
				"element": "C" 
			},
			{
				"x": -0.853550304,
				"y": -0.3725945169,
				"z": -0.9890168256,
				"element": "N" 
			},
			{
				"x": 0.7618729588,
				"y": -1.8464156634,
				"z": -2.1704457143,
				"element": "C" 
			},
			{
				"x": -0.2050846952,
				"y": -2.7610963115,
				"z": -2.6235007082,
				"element": "C" 
			},
			{
				"x": 0.1784597959,
				"y": -3.8578924981,
				"z": -3.3882888056,
				"element": "C" 
			},
			{
				"x": 1.5243405722,
				"y": -4.0588218587,
				"z": -3.7110373049,
				"element": "C" 
			},
			{
				"x": 2.4868410558,
				"y": -3.1522273264,
				"z": -3.2627920138,
				"element": "C" 
			},
			{
				"x": 2.1123966401,
				"y": -2.0499223306,
				"z": -2.4964104865,
				"element": "C" 
			},
			{
				"x": -3.3459103122,
				"y": 3.4369428498,
				"z": 3.7003572416,
				"element": "H" 
			},
			{
				"x": -1.718982957,
				"y": 2.732840028,
				"z": 3.767951218,
				"element": "H" 
			},
			{
				"x": -3.071261562,
				"y": 1.7934060193,
				"z": 3.0932319791,
				"element": "H" 
			},
			{
				"x": -1.9317646882,
				"y": 4.3654622061,
				"z": 1.8444813011,
				"element": "H" 
			},
			{
				"x": -3.2594082484,
				"y": 3.3777844823,
				"z": 1.1810315367,
				"element": "H" 
			},
			{
				"x": 0.8341284359,
				"y": 2.7149007243,
				"z": 0.9584481893,
				"element": "H" 
			},
			{
				"x": 2.3286990641,
				"y": 1.9897420467,
				"z": 0.4946852023,
				"element": "H" 
			},
			{
				"x": -1.2453516805,
				"y": -2.5930760566,
				"z": -2.3658601211,
				"element": "H" 
			},
			{
				"x": -0.5745407316,
				"y": -4.5598151765,
				"z": -3.7346492113,
				"element": "H" 
			},
			{
				"x": 1.8196971437,
				"y": -4.916428334,
				"z": -4.308393647,
				"element": "H" 
			},
			{
				"x": 3.533627804,
				"y": -3.3022841927,
				"z": -3.5108199608,
				"element": "H" 
			},
			{
				"x": 2.8608487666,
				"y": -1.3452496339,
				"z": -2.1502230553,
				"element": "H" 
			}
		],
		 "valence_orbital": [ 
			{
				"type": "occ",
				"energy": -0.288,
				"method": "rhf"
			},
			{
				"type": "occ",
				"energy": -0.26703,
				"method": "rhf"
			},
			{
				"type": "occ",
				"energy": -0.26586,
				"method": "rhf"
			},
			{
				"type": "occ",
				"energy": -0.25346,
				"method": "rhf"
			},
			{
				"type": "occ",
				"energy": -0.20189,
				"method": "rhf"
			},
			{
				"type": "unocc",
				"energy": -0.03722,
				"method": "rhf"
			},
			{
				"type": "unocc",
				"energy": -0.01271,
				"method": "rhf"
			},
			{
				"type": "unocc",
				"energy": -0.00181,
				"method": "rhf"
			},
			{
				"type": "unocc",
				"energy": 0.05958,
				"method": "rhf"
			},
			{
				"type": "unocc",
				"energy": 0.07231,
				"method": "rhf"
			}
		],
		"cosmo_sigma_profile": { 
			"-0.025": 0.0,
			"-0.024": 0.0,
			"-0.023": 0.0,
			"-0.022": 0.0,
			"-0.021": 0.0,
			"-0.02": 0.0,
			"-0.019": 0.0,
			"-0.018": 0.0,
			"-0.017": 0.0,
			"-0.016": 0.190543917532,
			"-0.015": 1.180666313,
			"-0.014": 1.44108648438,
			"-0.013": 1.63209205916,
			"-0.012": 1.86288448292,
			"-0.011": 2.26396243624,
			"-0.01": 2.01046483058,
			"-0.009": 1.83917619522,
			"-0.008": 1.48171016942,
			"-0.007": 1.52114043307,
			"-0.006": 10.3921415205,
			"-0.005": 14.9048782926,
			"-0.004": 22.3352627523,
			"-0.003": 24.3521094549,
			"-0.002": 21.7771378604,
			"-0.001": 24.6574173818,
			"0.0": 25.8272993911,
			"0.001": 21.1421159545,
			"0.002": 17.8640976813,
			"0.003": 17.3607995877,
			"0.004": 16.1223621143,
			"0.005": 10.0468895111,
			"0.006": 3.19164266513,
			"0.007": 4.08932880859,
			"0.008": 2.1434831372,
			"0.009": 2.69458424826,
			"0.01": 2.48601575741,
			"0.011": 3.18854476959,
			"0.012": 4.93073928532,
			"0.013": 3.68736475517,
			"0.014": 2.51809914762,
			"0.015": 1.36404233815,
			"0.016": 0.0401486806017,
			"0.017": 0.0,
			"0.018": 0.0,
			"0.019": 0.0,
			"0.02": 0.0,
			"0.021": 0.0,
			"0.022": 0.0,
			"0.023": 0.0,
			"0.024": 0.0,
			"0.025": 0.0
		}
	}
}
