{
	 "smiles": "CCCCCCCCCC(O)CC", 
	 "Tm": 298.15, 
	 "num_atms": 39, 
	 "gaussian": { 
		 "optdone": 1, 
		 "sigma_profile": "yes", 
		 "theory": "DFT", 
		 "functional": "B3LYP", 
		 "basiset": "6-31G**", 
		 "properties": { 
			 "R2extent": 4468.2309, 
			 "electric_dipole_moment_norm": 1.36237359414, 
			 "electric_quadrupole_moment_norm": 7.52395791588, 
			 "total_energy": -548.193276523, 
			 "HOMO_LUMO_gap": 0.32117, 
			 "cosmo_polarized_energy": -5.65, 
			 "cosmo_cavitation_energy": 37.83, 
			 "cosmo_dispersion_energy": -25.53, 
			 "cosmo_repulsion_energy": 2.11, 
			 "cosmo_total_nonelectrostatic_energy": 14.42, 
			 "SMD_solvation_energy": 5.43 
		},
		"coords": [
			{
				"x": 0.2463608252,
				"y": 3.7433536743,
				"z": 1.9256566929,
				"element": "C" 
			},
			{
				"x": 0.9306174029,
				"y": 3.3996839975,
				"z": 0.5968656873,
				"element": "C" 
			},
			{
				"x": 0.3563320345,
				"y": 2.1629103466,
				"z": -0.1148563463,
				"element": "C" 
			},
			{
				"x": -1.0820658138,
				"y": 2.3409841574,
				"z": -0.6292916586,
				"element": "C" 
			},
			{
				"x": -1.6473867066,
				"y": 1.1543170978,
				"z": -1.4413437112,
				"element": "C" 
			},
			{
				"x": -2.4016242081,
				"y": 0.076781012,
				"z": -0.6372919375,
				"element": "C" 
			},
			{
				"x": -1.5961897535,
				"y": -0.7469771614,
				"z": 0.3823011832,
				"element": "C" 
			},
			{
				"x": -0.4890070079,
				"y": -1.6168417229,
				"z": -0.2299040169,
				"element": "C" 
			},
			{
				"x": 0.2465318201,
				"y": -2.45896783,
				"z": 0.8220897716,
				"element": "C" 
			},
			{
				"x": 1.1511449662,
				"y": -3.5986401111,
				"z": 0.3105317332,
				"element": "C" 
			},
			{
				"x": 0.4299962842,
				"y": -4.5126262101,
				"z": -0.5202344889,
				"element": "O" 
			},
			{
				"x": 2.4185661602,
				"y": -3.1931053224,
				"z": -0.4630692379,
				"element": "C" 
			},
			{
				"x": 2.227765631,
				"y": -2.7680381864,
				"z": -1.924711735,
				"element": "C" 
			},
			{
				"x": -0.8095814053,
				"y": 3.9977889725,
				"z": 1.7886740215,
				"element": "H" 
			},
			{
				"x": 0.7291965256,
				"y": 4.5997832104,
				"z": 2.4079517891,
				"element": "H" 
			},
			{
				"x": 0.2951371226,
				"y": 2.8991453481,
				"z": 2.6236914791,
				"element": "H" 
			},
			{
				"x": 1.9998397243,
				"y": 3.2335152418,
				"z": 0.781135404,
				"element": "H" 
			},
			{
				"x": 0.8710503744,
				"y": 4.264189827,
				"z": -0.0789895778,
				"element": "H" 
			},
			{
				"x": 1.0008670985,
				"y": 1.9189596014,
				"z": -0.9705341137,
				"element": "H" 
			},
			{
				"x": 0.4167395584,
				"y": 1.3025668798,
				"z": 0.563822129,
				"element": "H" 
			},
			{
				"x": -1.0965177068,
				"y": 3.238270302,
				"z": -1.2632118443,
				"element": "H" 
			},
			{
				"x": -1.7600845424,
				"y": 2.5575858975,
				"z": 0.207065618,
				"element": "H" 
			},
			{
				"x": -0.8404398057,
				"y": 0.6948740626,
				"z": -2.0277582103,
				"element": "H" 
			},
			{
				"x": -2.3556495646,
				"y": 1.549186209,
				"z": -2.1806306599,
				"element": "H" 
			},
			{
				"x": -3.2334746541,
				"y": 0.5641432153,
				"z": -0.1100965296,
				"element": "H" 
			},
			{
				"x": -2.8655730007,
				"y": -0.6183680707,
				"z": -1.3510139091,
				"element": "H" 
			},
			{
				"x": -1.1672454572,
				"y": -0.0843797343,
				"z": 1.1456879828,
				"element": "H" 
			},
			{
				"x": -2.2972883939,
				"y": -1.3998226899,
				"z": 0.9214211379,
				"element": "H" 
			},
			{
				"x": 0.2266761138,
				"y": -0.9793406354,
				"z": -0.7586817062,
				"element": "H" 
			},
			{
				"x": -0.9224116269,
				"y": -2.2871490911,
				"z": -0.982649061,
				"element": "H" 
			},
			{
				"x": 0.8442126466,
				"y": -1.8096989264,
				"z": 1.4767956154,
				"element": "H" 
			},
			{
				"x": -0.5055241465,
				"y": -2.9220469707,
				"z": 1.4812108705,
				"element": "H" 
			},
			{
				"x": 1.5032015345,
				"y": -4.1276596995,
				"z": 1.2134644647,
				"element": "H" 
			},
			{
				"x": -0.3321006569,
				"y": -4.8293085875,
				"z": -0.0184415257,
				"element": "H" 
			},
			{
				"x": 3.0895967289,
				"y": -4.0606664286,
				"z": -0.4486678302,
				"element": "H" 
			},
			{
				"x": 2.9267624054,
				"y": -2.4030815199,
				"z": 0.1045960351,
				"element": "H" 
			},
			{
				"x": 1.6863062822,
				"y": -1.8239542455,
				"z": -2.0225424618,
				"element": "H" 
			},
			{
				"x": 3.202229138,
				"y": -2.6396459452,
				"z": -2.4077675769,
				"element": "H" 
			},
			{
				"x": 1.6727340733,
				"y": -3.531719964,
				"z": -2.4745734764,
				"element": "H" 
			}
		],
		 "valence_orbital": [ 
			{
				"type": "occ",
				"energy": -0.31019,
				"method": "rhf"
			},
			{
				"type": "occ",
				"energy": -0.30257,
				"method": "rhf"
			},
			{
				"type": "occ",
				"energy": -0.29836,
				"method": "rhf"
			},
			{
				"type": "occ",
				"energy": -0.29738,
				"method": "rhf"
			},
			{
				"type": "occ",
				"energy": -0.25762,
				"method": "rhf"
			},
			{
				"type": "unocc",
				"energy": 0.06355,
				"method": "rhf"
			},
			{
				"type": "unocc",
				"energy": 0.08359,
				"method": "rhf"
			},
			{
				"type": "unocc",
				"energy": 0.09586,
				"method": "rhf"
			},
			{
				"type": "unocc",
				"energy": 0.09985,
				"method": "rhf"
			},
			{
				"type": "unocc",
				"energy": 0.11223,
				"method": "rhf"
			}
		],
		"cosmo_sigma_profile": { 
			"-0.025": 0.0,
			"-0.024": 0.0,
			"-0.023": 0.0,
			"-0.022": 0.0,
			"-0.021": 0.0,
			"-0.02": 0.0,
			"-0.019": 0.0,
			"-0.018": 0.0,
			"-0.017": 0.0,
			"-0.016": 0.0,
			"-0.015": 0.135596605856,
			"-0.014": 1.25085591492,
			"-0.013": 0.627132254364,
			"-0.012": 0.947778003795,
			"-0.011": 0.905661263576,
			"-0.01": 0.96382380285,
			"-0.009": 0.941433043425,
			"-0.008": 1.01968901633,
			"-0.007": 1.29522843997,
			"-0.006": 1.0319777199,
			"-0.005": 0.657528391495,
			"-0.004": 1.4758074829,
			"-0.003": 8.1552701717,
			"-0.002": 40.5208488032,
			"-0.001": 61.8035546637,
			"0.0": 63.3014091655,
			"0.001": 55.9314960049,
			"0.002": 28.4932499774,
			"0.003": 2.92375975085,
			"0.004": 1.58424278321,
			"0.005": 1.33559678353,
			"0.006": 1.01762006731,
			"0.007": 1.85006601507,
			"0.008": 2.14271566552,
			"0.009": 1.56711578299,
			"0.01": 1.50087656182,
			"0.011": 1.43643162715,
			"0.012": 1.48404795844,
			"0.013": 1.41732397242,
			"0.014": 0.842447966009,
			"0.015": 0.261750721821,
			"0.016": 0.0,
			"0.017": 0.0,
			"0.018": 0.0,
			"0.019": 0.0,
			"0.02": 0.0,
			"0.021": 0.0,
			"0.022": 0.0,
			"0.023": 0.0,
			"0.024": 0.0,
			"0.025": 0.0
		}
	}
}
