{
	 "smiles": "OC(=O)C1=CN(CCC#N)N=C1C1=C2C=CC=CC2=CC=C1", 
	 "Tm": 453.15, 
	 "num_atms": 35, 
	 "gaussian": { 
		 "optdone": 1, 
		 "sigma_profile": "yes", 
		 "theory": "DFT", 
		 "functional": "B3LYP", 
		 "basiset": "6-31G**", 
		 "properties": { 
			 "R2extent": 7156.8437, 
			 "electric_dipole_moment_norm": 3.99033144237, 
			 "electric_quadrupole_moment_norm": 40.998067157, 
			 "total_energy": -970.332068227, 
			 "HOMO_LUMO_gap": 0.16948, 
			 "cosmo_polarized_energy": -26.1, 
			 "cosmo_cavitation_energy": 40.65, 
			 "cosmo_dispersion_energy": -27.23, 
			 "cosmo_repulsion_energy": 2.06, 
			 "cosmo_total_nonelectrostatic_energy": 15.48, 
			 "SMD_solvation_energy": 8.17 
		},
		"coords": [
			{
				"x": -1.7345286037,
				"y": -0.2234820743,
				"z": -1.4699621613,
				"element": "O" 
			},
			{
				"x": -1.2637957005,
				"y": 1.023276941,
				"z": -1.2386941561,
				"element": "C" 
			},
			{
				"x": -1.6474845994,
				"y": 1.9553580481,
				"z": -1.9126758287,
				"element": "O" 
			},
			{
				"x": -0.2591363815,
				"y": 1.1904288344,
				"z": -0.1626012136,
				"element": "C" 
			},
			{
				"x": 0.3979793068,
				"y": 2.3941000766,
				"z": 0.0388021247,
				"element": "C" 
			},
			{
				"x": 1.2888894819,
				"y": 2.1957434197,
				"z": 1.034804897,
				"element": "N" 
			},
			{
				"x": 2.2926143293,
				"y": 3.1126344027,
				"z": 1.5425113142,
				"element": "C" 
			},
			{
				"x": 3.5905390182,
				"y": 3.1170874026,
				"z": 0.7037410402,
				"element": "C" 
			},
			{
				"x": 4.2774760551,
				"y": 1.8231685567,
				"z": 0.6703395486,
				"element": "C" 
			},
			{
				"x": 4.8311253067,
				"y": 0.8044037301,
				"z": 0.6328490421,
				"element": "N" 
			},
			{
				"x": 1.2626947687,
				"y": 0.9234331146,
				"z": 1.508286154,
				"element": "N" 
			},
			{
				"x": 0.3244685514,
				"y": 0.2987164313,
				"z": 0.7955527604,
				"element": "C" 
			},
			{
				"x": 0.0864711727,
				"y": -1.1474467991,
				"z": 1.0303047266,
				"element": "C" 
			},
			{
				"x": -1.1943368329,
				"y": -1.6567340142,
				"z": 1.4383440895,
				"element": "C" 
			},
			{
				"x": -2.3216011706,
				"y": -0.8226625229,
				"z": 1.6861949615,
				"element": "C" 
			},
			{
				"x": -3.5280529923,
				"y": -1.3586457992,
				"z": 2.0769779525,
				"element": "C" 
			},
			{
				"x": -3.6752514475,
				"y": -2.7565060437,
				"z": 2.2428776775,
				"element": "C" 
			},
			{
				"x": -2.6029240869,
				"y": -3.5907504552,
				"z": 2.0279054193,
				"element": "C" 
			},
			{
				"x": -1.339987203,
				"y": -3.0729490872,
				"z": 1.6312203099,
				"element": "C" 
			},
			{
				"x": -0.2186872379,
				"y": -3.9226845926,
				"z": 1.4412032376,
				"element": "C" 
			},
			{
				"x": 1.005332886,
				"y": -3.4050633434,
				"z": 1.0845960315,
				"element": "C" 
			},
			{
				"x": 1.155777119,
				"y": -2.0162849739,
				"z": 0.8791111234,
				"element": "C" 
			},
			{
				"x": -1.3448415946,
				"y": -0.8671828796,
				"z": -0.8572999202,
				"element": "H" 
			},
			{
				"x": 0.2755210479,
				"y": 3.3380143915,
				"z": -0.4716842097,
				"element": "H" 
			},
			{
				"x": 1.8748954054,
				"y": 4.1229716478,
				"z": 1.5458393201,
				"element": "H" 
			},
			{
				"x": 2.5020721126,
				"y": 2.8158945653,
				"z": 2.5712467552,
				"element": "H" 
			},
			{
				"x": 4.2745970497,
				"y": 3.8662694239,
				"z": 1.1192470137,
				"element": "H" 
			},
			{
				"x": 3.3683911695,
				"y": 3.4200965542,
				"z": -0.3256830935,
				"element": "H" 
			},
			{
				"x": -2.2194370926,
				"y": 0.2514498536,
				"z": 1.5751092441,
				"element": "H" 
			},
			{
				"x": -4.3738647696,
				"y": -0.7032025818,
				"z": 2.2618932472,
				"element": "H" 
			},
			{
				"x": -4.6342432331,
				"y": -3.1655046899,
				"z": 2.5466350132,
				"element": "H" 
			},
			{
				"x": -2.703154805,
				"y": -4.6643232402,
				"z": 2.1645782618,
				"element": "H" 
			},
			{
				"x": -0.3438237418,
				"y": -4.9919279786,
				"z": 1.5906885517,
				"element": "H" 
			},
			{
				"x": 1.8612576937,
				"y": -4.0595345946,
				"z": 0.9514682549,
				"element": "H" 
			},
			{
				"x": 2.1227490182,
				"y": -1.6123617236,
				"z": 0.5964725109,
				"element": "H" 
			}
		],
		 "valence_orbital": [ 
			{
				"type": "occ",
				"energy": -0.27061,
				"method": "rhf"
			},
			{
				"type": "occ",
				"energy": -0.26657,
				"method": "rhf"
			},
			{
				"type": "occ",
				"energy": -0.26309,
				"method": "rhf"
			},
			{
				"type": "occ",
				"energy": -0.25327,
				"method": "rhf"
			},
			{
				"type": "occ",
				"energy": -0.22324,
				"method": "rhf"
			},
			{
				"type": "unocc",
				"energy": -0.05376,
				"method": "rhf"
			},
			{
				"type": "unocc",
				"energy": -0.02802,
				"method": "rhf"
			},
			{
				"type": "unocc",
				"energy": -0.02045,
				"method": "rhf"
			},
			{
				"type": "unocc",
				"energy": -0.00447,
				"method": "rhf"
			},
			{
				"type": "unocc",
				"energy": 0.01684,
				"method": "rhf"
			}
		],
		"cosmo_sigma_profile": { 
			"-0.025": 0.0,
			"-0.024": 0.0,
			"-0.023": 0.0,
			"-0.022": 0.0,
			"-0.021": 0.0,
			"-0.02": 0.0,
			"-0.019": 0.0,
			"-0.018": 0.0,
			"-0.017": 0.0,
			"-0.016": 0.0,
			"-0.015": 0.0,
			"-0.014": 0.0,
			"-0.013": 0.0,
			"-0.012": 0.178547680028,
			"-0.011": 2.59103716496,
			"-0.01": 6.41476592672,
			"-0.009": 13.3649624446,
			"-0.008": 13.0712681132,
			"-0.007": 12.9057866145,
			"-0.006": 20.9976781255,
			"-0.005": 21.3591803842,
			"-0.004": 20.5103860574,
			"-0.003": 15.8596212459,
			"-0.002": 16.4820334661,
			"-0.001": 15.5900922047,
			"0.0": 20.9583301072,
			"0.001": 16.6515420789,
			"0.002": 17.4165973439,
			"0.003": 23.8548247016,
			"0.004": 20.0916774435,
			"0.005": 9.48081791029,
			"0.006": 6.87630788355,
			"0.007": 6.64237117852,
			"0.008": 7.74953162987,
			"0.009": 7.18951301109,
			"0.01": 8.43713069213,
			"0.011": 7.70011565353,
			"0.012": 8.96693123045,
			"0.013": 4.89707615828,
			"0.014": 0.83371961653,
			"0.015": 0.0,
			"0.016": 0.0,
			"0.017": 0.0,
			"0.018": 0.0,
			"0.019": 0.0,
			"0.02": 0.0,
			"0.021": 0.0,
			"0.022": 0.0,
			"0.023": 0.0,
			"0.024": 0.0,
			"0.025": 0.0
		}
	}
}
