{
	 "smiles": "COC1=CC2=C(OC(C)=C2C(O)=O)C=C1", 
	 "Tm": 483.15, 
	 "num_atms": 25, 
	 "gaussian": { 
		 "optdone": 1, 
		 "sigma_profile": "yes", 
		 "theory": "DFT", 
		 "functional": "B3LYP", 
		 "basiset": "6-31G**", 
		 "properties": { 
			 "R2extent": 4041.962, 
			 "electric_dipole_moment_norm": 1.1678798654, 
			 "electric_quadrupole_moment_norm": 11.3365399867, 
			 "total_energy": -726.099927011, 
			 "HOMO_LUMO_gap": 0.17824, 
			 "cosmo_polarized_energy": -10.71, 
			 "cosmo_cavitation_energy": 29.49, 
			 "cosmo_dispersion_energy": -21.69, 
			 "cosmo_repulsion_energy": 1.69, 
			 "cosmo_total_nonelectrostatic_energy": 9.49, 
			 "SMD_solvation_energy": 7.29 
		},
		"coords": [
			{
				"x": -2.2084597484,
				"y": 1.6478599406,
				"z": -2.2875942291,
				"element": "C" 
			},
			{
				"x": -1.0595889843,
				"y": 1.38282516,
				"z": -3.0748553825,
				"element": "O" 
			},
			{
				"x": 0.0126714724,
				"y": 0.7882634005,
				"z": -2.4694352728,
				"element": "C" 
			},
			{
				"x": 0.0489666008,
				"y": 0.4241878172,
				"z": -1.1216374279,
				"element": "C" 
			},
			{
				"x": 1.2218968511,
				"y": -0.1794243949,
				"z": -0.6397798671,
				"element": "C" 
			},
			{
				"x": 2.2965943739,
				"y": -0.3923552033,
				"z": -1.5107890829,
				"element": "C" 
			},
			{
				"x": 3.3439225921,
				"y": -0.993226612,
				"z": -0.8419372738,
				"element": "O" 
			},
			{
				"x": 2.9499353772,
				"y": -1.1666657973,
				"z": 0.4476845789,
				"element": "C" 
			},
			{
				"x": 3.9326168307,
				"y": -1.8052907187,
				"z": 1.3638166546,
				"element": "C" 
			},
			{
				"x": 1.6707439956,
				"y": -0.6944281278,
				"z": 0.6401630898,
				"element": "C" 
			},
			{
				"x": 0.9861847211,
				"y": -0.7487212014,
				"z": 1.9274297711,
				"element": "C" 
			},
			{
				"x": -0.2686954499,
				"y": -0.2233495988,
				"z": 1.8795848637,
				"element": "O" 
			},
			{
				"x": 1.4503781343,
				"y": -1.2050233151,
				"z": 2.9587582912,
				"element": "O" 
			},
			{
				"x": 2.2784758007,
				"y": -0.0368390656,
				"z": -2.854186141,
				"element": "C" 
			},
			{
				"x": 1.1157996857,
				"y": 0.5595747922,
				"z": -3.3244327599,
				"element": "C" 
			},
			{
				"x": -1.9839269469,
				"y": 2.3341485449,
				"z": -1.4605775251,
				"element": "H" 
			},
			{
				"x": -2.6404779386,
				"y": 0.7257473394,
				"z": -1.8771912246,
				"element": "H" 
			},
			{
				"x": -2.9318704443,
				"y": 2.1164785156,
				"z": -2.9567578148,
				"element": "H" 
			},
			{
				"x": -0.7843965004,
				"y": 0.5912119635,
				"z": -0.4536425862,
				"element": "H" 
			},
			{
				"x": 3.5192610808,
				"y": -2.7212098063,
				"z": 1.7962436624,
				"element": "H" 
			},
			{
				"x": 4.1626095357,
				"y": -1.1448171021,
				"z": 2.2050293318,
				"element": "H" 
			},
			{
				"x": 4.8499200287,
				"y": -2.0386475846,
				"z": 0.820013114,
				"element": "H" 
			},
			{
				"x": -0.6204441618,
				"y": -0.3129493227,
				"z": 2.7807888271,
				"element": "H" 
			},
			{
				"x": 3.1300000569,
				"y": -0.2167571784,
				"z": -3.5011113024,
				"element": "H" 
			},
			{
				"x": 1.0250830371,
				"y": 0.8652075549,
				"z": -4.3609842946,
				"element": "H" 
			}
		],
		 "valence_orbital": [ 
			{
				"type": "occ",
				"energy": -0.31209,
				"method": "rhf"
			},
			{
				"type": "occ",
				"energy": -0.29037,
				"method": "rhf"
			},
			{
				"type": "occ",
				"energy": -0.27443,
				"method": "rhf"
			},
			{
				"type": "occ",
				"energy": -0.22559,
				"method": "rhf"
			},
			{
				"type": "occ",
				"energy": -0.21296,
				"method": "rhf"
			},
			{
				"type": "unocc",
				"energy": -0.03472,
				"method": "rhf"
			},
			{
				"type": "unocc",
				"energy": -0.00445,
				"method": "rhf"
			},
			{
				"type": "unocc",
				"energy": 0.02268,
				"method": "rhf"
			},
			{
				"type": "unocc",
				"energy": 0.08051,
				"method": "rhf"
			},
			{
				"type": "unocc",
				"energy": 0.10119,
				"method": "rhf"
			}
		],
		"cosmo_sigma_profile": { 
			"-0.025": 0.0,
			"-0.024": 0.0,
			"-0.023": 0.0,
			"-0.022": 0.0,
			"-0.021": 0.0,
			"-0.02": 0.0,
			"-0.019": 0.0,
			"-0.018": 0.623632066733,
			"-0.017": 0.812180784713,
			"-0.016": 0.963562198983,
			"-0.015": 0.514804024055,
			"-0.014": 1.01209454993,
			"-0.013": 0.850846370419,
			"-0.012": 0.216239200672,
			"-0.011": 0.462364997142,
			"-0.01": 0.693456588646,
			"-0.009": 0.917778516971,
			"-0.008": 0.783601753937,
			"-0.007": 3.24012226332,
			"-0.006": 9.76072651611,
			"-0.005": 19.1347002397,
			"-0.004": 17.6528665742,
			"-0.003": 20.4123713645,
			"-0.002": 18.6348008529,
			"-0.001": 19.2365393705,
			"0.0": 13.3581699756,
			"0.001": 15.3343784155,
			"0.002": 16.6338469143,
			"0.003": 18.3056189215,
			"0.004": 18.8202243994,
			"0.005": 8.704846747,
			"0.006": 6.71950290386,
			"0.007": 4.62541261019,
			"0.008": 2.78047883755,
			"0.009": 3.39651938389,
			"0.01": 2.67017593097,
			"0.011": 3.16131109261,
			"0.012": 4.00492144666,
			"0.013": 0.712992794482,
			"0.014": 0.0,
			"0.015": 0.0,
			"0.016": 0.0,
			"0.017": 0.0,
			"0.018": 0.0,
			"0.019": 0.0,
			"0.02": 0.0,
			"0.021": 0.0,
			"0.022": 0.0,
			"0.023": 0.0,
			"0.024": 0.0,
			"0.025": 0.0
		}
	}
}
