{
	 "smiles": "OC(=O)[C@@H]1CCN1N=O", 
	 "Tm": 388.5, 
	 "num_atms": 15, 
	 "gaussian": { 
		 "optdone": 1, 
		 "sigma_profile": "yes", 
		 "theory": "DFT", 
		 "functional": "B3LYP", 
		 "basiset": "6-31G**", 
		 "properties": { 
			 "R2extent": 2628.8507, 
			 "electric_dipole_moment_norm": 4.90769549381, 
			 "electric_quadrupole_moment_norm": 18.0998986215, 
			 "total_energy": -491.118681778, 
			 "HOMO_LUMO_gap": 0.18795, 
			 "cosmo_polarized_energy": -14.56, 
			 "cosmo_cavitation_energy": 19.13, 
			 "cosmo_dispersion_energy": -14.37, 
			 "cosmo_repulsion_energy": 1.19, 
			 "cosmo_total_nonelectrostatic_energy": 5.96, 
			 "SMD_solvation_energy": 4.24 
		},
		"coords": [
			{
				"x": 0.0408710597,
				"y": 0.5152776018,
				"z": 4.2373422848,
				"element": "O" 
			},
			{
				"x": 0.7271522752,
				"y": -0.328044917,
				"z": 3.4631176791,
				"element": "C" 
			},
			{
				"x": 1.9297760633,
				"y": -0.4356603989,
				"z": 3.4953662241,
				"element": "O" 
			},
			{
				"x": -0.142839295,
				"y": -1.1938202074,
				"z": 2.5399225311,
				"element": "C" 
			},
			{
				"x": 0.5277606779,
				"y": -1.7778237142,
				"z": 1.2709716639,
				"element": "C" 
			},
			{
				"x": -0.5261488468,
				"y": -1.0324712104,
				"z": 0.3954771584,
				"element": "C" 
			},
			{
				"x": -1.0610790454,
				"y": -0.4564831122,
				"z": 1.6403838836,
				"element": "N" 
			},
			{
				"x": -2.1984212359,
				"y": 0.1387072311,
				"z": 1.8675557141,
				"element": "N" 
			},
			{
				"x": -2.4333943851,
				"y": 0.3344416795,
				"z": 3.0772256068,
				"element": "O" 
			},
			{
				"x": -0.9213858922,
				"y": 0.4705978401,
				"z": 4.0097345855,
				"element": "H" 
			},
			{
				"x": -0.7045651966,
				"y": -1.9089641661,
				"z": 3.1557522777,
				"element": "H" 
			},
			{
				"x": 1.552402109,
				"y": -1.4257824516,
				"z": 1.153346525,
				"element": "H" 
			},
			{
				"x": 0.4975030075,
				"y": -2.8646329192,
				"z": 1.1966434287,
				"element": "H" 
			},
			{
				"x": -1.2533467264,
				"y": -1.6662688837,
				"z": -0.1192395165,
				"element": "H" 
			},
			{
				"x": -0.1350845692,
				"y": -0.2808723719,
				"z": -0.2952000463,
				"element": "H" 
			}
		],
		 "valence_orbital": [ 
			{
				"type": "occ",
				"energy": -0.36604,
				"method": "rhf"
			},
			{
				"type": "occ",
				"energy": -0.31719,
				"method": "rhf"
			},
			{
				"type": "occ",
				"energy": -0.30586,
				"method": "rhf"
			},
			{
				"type": "occ",
				"energy": -0.27625,
				"method": "rhf"
			},
			{
				"type": "occ",
				"energy": -0.25789,
				"method": "rhf"
			},
			{
				"type": "unocc",
				"energy": -0.06994,
				"method": "rhf"
			},
			{
				"type": "unocc",
				"energy": -0.00465,
				"method": "rhf"
			},
			{
				"type": "unocc",
				"energy": 0.06735,
				"method": "rhf"
			},
			{
				"type": "unocc",
				"energy": 0.07428,
				"method": "rhf"
			},
			{
				"type": "unocc",
				"energy": 0.09143,
				"method": "rhf"
			}
		],
		"cosmo_sigma_profile": { 
			"-0.025": 0.0,
			"-0.024": 0.0,
			"-0.023": 0.0,
			"-0.022": 0.0,
			"-0.021": 0.0,
			"-0.02": 0.0,
			"-0.019": 0.0,
			"-0.018": 0.0,
			"-0.017": 0.0,
			"-0.016": 0.0,
			"-0.015": 0.0,
			"-0.014": 0.0,
			"-0.013": 0.0,
			"-0.012": 0.0,
			"-0.011": 0.137107798555,
			"-0.01": 2.12804372568,
			"-0.009": 4.38034172793,
			"-0.008": 6.48498118229,
			"-0.007": 14.5733627575,
			"-0.006": 14.1608148364,
			"-0.005": 13.7307694712,
			"-0.004": 10.7393198367,
			"-0.003": 8.18233662884,
			"-0.002": 7.07332621223,
			"-0.001": 3.60208380386,
			"0.0": 3.8353198681,
			"0.001": 4.07251623227,
			"0.002": 3.84089466829,
			"0.003": 3.9826004413,
			"0.004": 3.80868523992,
			"0.005": 3.94927392818,
			"0.006": 4.8413924598,
			"0.007": 6.3876646727,
			"0.008": 6.06166334297,
			"0.009": 6.64880981282,
			"0.01": 7.53252601368,
			"0.011": 7.19771172446,
			"0.012": 4.2966890749,
			"0.013": 0.504041306416,
			"0.014": 0.0,
			"0.015": 0.0,
			"0.016": 0.0,
			"0.017": 0.0,
			"0.018": 0.0,
			"0.019": 0.0,
			"0.02": 0.0,
			"0.021": 0.0,
			"0.022": 0.0,
			"0.023": 0.0,
			"0.024": 0.0,
			"0.025": 0.0
		}
	}
}
