{
	 "smiles": "FC(F)(F)C(F)(F)C1(F)OC(F)(F)C(F)(F)C1(F)F", 
	 "Tm": 137.15, 
	 "num_atms": 19, 
	 "gaussian": { 
		 "optdone": 1, 
		 "sigma_profile": "yes", 
		 "theory": "DFT", 
		 "functional": "B3LYP", 
		 "basiset": "6-31G**", 
		 "properties": { 
			 "R2extent": 4118.7529, 
			 "electric_dipole_moment_norm": 0.440398160759, 
			 "electric_quadrupole_moment_norm": 1.24649144401, 
			 "total_energy": -1501.8958299, 
			 "HOMO_LUMO_gap": 0.35192, 
			 "cosmo_polarized_energy": -1.8, 
			 "cosmo_cavitation_energy": 28.18, 
			 "cosmo_dispersion_energy": -18.71, 
			 "cosmo_repulsion_energy": 1.2, 
			 "cosmo_total_nonelectrostatic_energy": 10.67, 
			 "SMD_solvation_energy": 9.02 
		},
		"coords": [
			{
				"x": -0.363182977,
				"y": -1.3554074635,
				"z": 3.3216981293,
				"element": "F" 
			},
			{
				"x": -0.7435490865,
				"y": -0.0839221209,
				"z": 3.1675859774,
				"element": "C" 
			},
			{
				"x": -0.7262376513,
				"y": 0.5243134203,
				"z": 4.3571785749,
				"element": "F" 
			},
			{
				"x": -1.9970799647,
				"y": -0.0584802527,
				"z": 2.6852621623,
				"element": "F" 
			},
			{
				"x": 0.2090064154,
				"y": 0.6616680472,
				"z": 2.2022692063,
				"element": "C" 
			},
			{
				"x": 1.4584959195,
				"y": 0.5656201195,
				"z": 2.7117185932,
				"element": "F" 
			},
			{
				"x": -0.1569085285,
				"y": 1.9609520375,
				"z": 2.1728111517,
				"element": "F" 
			},
			{
				"x": 0.2536155507,
				"y": 0.1130448147,
				"z": 0.7552182041,
				"element": "C" 
			},
			{
				"x": 0.6636716254,
				"y": -1.1883940573,
				"z": 0.8154379656,
				"element": "F" 
			},
			{
				"x": 1.1879567303,
				"y": 0.8831100806,
				"z": 0.0538001267,
				"element": "O" 
			},
			{
				"x": 0.8529949209,
				"y": 1.075084381,
				"z": -1.2877162563,
				"element": "C" 
			},
			{
				"x": 0.6752354342,
				"y": 2.3860254743,
				"z": -1.5148640131,
				"element": "F" 
			},
			{
				"x": 1.8530919597,
				"y": 0.6440785561,
				"z": -2.0650464606,
				"element": "F" 
			},
			{
				"x": -0.4640577493,
				"y": 0.2906737075,
				"z": -1.5304473573,
				"element": "C" 
			},
			{
				"x": -1.2916448064,
				"y": 0.9326383765,
				"z": -2.3682929013,
				"element": "F" 
			},
			{
				"x": -0.1801047365,
				"y": -0.9358900507,
				"z": -2.0131620498,
				"element": "F" 
			},
			{
				"x": -1.0419448639,
				"y": 0.1601861057,
				"z": -0.1028439378,
				"element": "C" 
			},
			{
				"x": -1.769492889,
				"y": 1.2639021421,
				"z": 0.1754891994,
				"element": "F" 
			},
			{
				"x": -1.7978653029,
				"y": -0.9362033178,
				"z": 0.0516036853,
				"element": "F" 
			}
		],
		 "valence_orbital": [ 
			{
				"type": "occ",
				"energy": -0.42704,
				"method": "rhf"
			},
			{
				"type": "occ",
				"energy": -0.40851,
				"method": "rhf"
			},
			{
				"type": "occ",
				"energy": -0.38801,
				"method": "rhf"
			},
			{
				"type": "occ",
				"energy": -0.3762,
				"method": "rhf"
			},
			{
				"type": "occ",
				"energy": -0.34766,
				"method": "rhf"
			},
			{
				"type": "unocc",
				"energy": 0.00426,
				"method": "rhf"
			},
			{
				"type": "unocc",
				"energy": 0.0261,
				"method": "rhf"
			},
			{
				"type": "unocc",
				"energy": 0.04698,
				"method": "rhf"
			},
			{
				"type": "unocc",
				"energy": 0.07306,
				"method": "rhf"
			},
			{
				"type": "unocc",
				"energy": 0.09731,
				"method": "rhf"
			}
		],
		"cosmo_sigma_profile": { 
			"-0.025": 0.0,
			"-0.024": 0.0,
			"-0.023": 0.0,
			"-0.022": 0.0,
			"-0.021": 0.0,
			"-0.02": 0.0,
			"-0.019": 0.0,
			"-0.018": 0.0,
			"-0.017": 0.0,
			"-0.016": 0.0,
			"-0.015": 0.0,
			"-0.014": 0.0,
			"-0.013": 0.0,
			"-0.012": 0.0,
			"-0.011": 0.0,
			"-0.01": 0.0,
			"-0.009": 0.0,
			"-0.008": 0.270595478537,
			"-0.007": 1.2279865781,
			"-0.006": 1.91775256531,
			"-0.005": 3.5231388947,
			"-0.004": 4.19608562723,
			"-0.003": 9.15224889297,
			"-0.002": 13.1127681844,
			"-0.001": 22.3039454455,
			"0.0": 54.6633705689,
			"0.001": 100.667917122,
			"0.002": 13.8552898767,
			"0.003": 1.43169170454,
			"0.004": 0.810147827633,
			"0.005": 0.0,
			"0.006": 0.0,
			"0.007": 0.0,
			"0.008": 0.0,
			"0.009": 0.0,
			"0.01": 0.0,
			"0.011": 0.0,
			"0.012": 0.0,
			"0.013": 0.0,
			"0.014": 0.0,
			"0.015": 0.0,
			"0.016": 0.0,
			"0.017": 0.0,
			"0.018": 0.0,
			"0.019": 0.0,
			"0.02": 0.0,
			"0.021": 0.0,
			"0.022": 0.0,
			"0.023": 0.0,
			"0.024": 0.0,
			"0.025": 0.0
		}
	}
}
