{
	 "smiles": "O=CC1=CC=C(C=C1)C#N", 
	 "Tm": 374.15, 
	 "num_atms": 15, 
	 "gaussian": { 
		 "optdone": 1, 
		 "sigma_profile": "yes", 
		 "theory": "DFT", 
		 "functional": "B3LYP", 
		 "basiset": "6-31G**", 
		 "properties": { 
			 "R2extent": 2045.814, 
			 "electric_dipole_moment_norm": 2.41312322313, 
			 "electric_quadrupole_moment_norm": 25.6420649063, 
			 "total_energy": -437.811796789, 
			 "HOMO_LUMO_gap": 0.17765, 
			 "cosmo_polarized_energy": -11.63, 
			 "cosmo_cavitation_energy": 21.3, 
			 "cosmo_dispersion_energy": -14.9, 
			 "cosmo_repulsion_energy": 1.2, 
			 "cosmo_total_nonelectrostatic_energy": 7.61, 
			 "SMD_solvation_energy": 6.23 
		},
		"coords": [
			{
				"x": -1.0314623343,
				"y": -0.6377904696,
				"z": 2.744432173,
				"element": "O" 
			},
			{
				"x": -0.2162224636,
				"y": -0.5773229526,
				"z": 1.8458761326,
				"element": "C" 
			},
			{
				"x": -0.5547723298,
				"y": -0.2736152719,
				"z": 0.4323488541,
				"element": "C" 
			},
			{
				"x": -1.888089037,
				"y": -0.0346847034,
				"z": 0.0659342785,
				"element": "C" 
			},
			{
				"x": -2.2075824065,
				"y": 0.2494438866,
				"z": -1.254128433,
				"element": "C" 
			},
			{
				"x": -1.1868508667,
				"y": 0.2966930482,
				"z": -2.2237874037,
				"element": "C" 
			},
			{
				"x": 0.1497146743,
				"y": 0.0579634709,
				"z": -1.8608816688,
				"element": "C" 
			},
			{
				"x": 0.4575800531,
				"y": -0.2258383037,
				"z": -0.534412728,
				"element": "C" 
			},
			{
				"x": -1.5125616903,
				"y": 0.5900638649,
				"z": -3.5897150205,
				"element": "C" 
			},
			{
				"x": -1.7769484339,
				"y": 0.8279488758,
				"z": -4.6970933368,
				"element": "N" 
			},
			{
				"x": 0.8651484418,
				"y": -0.7517912292,
				"z": 2.0378036923,
				"element": "H" 
			},
			{
				"x": -2.653014763,
				"y": -0.0777871078,
				"z": 0.8344203751,
				"element": "H" 
			},
			{
				"x": -3.2344319967,
				"y": 0.4359556853,
				"z": -1.549819317,
				"element": "H" 
			},
			{
				"x": 0.9263816333,
				"y": 0.0972283789,
				"z": -2.6168730366,
				"element": "H" 
			},
			{
				"x": 1.4886115196,
				"y": -0.4118671724,
				"z": -0.2442045613,
				"element": "H" 
			}
		],
		 "valence_orbital": [ 
			{
				"type": "occ",
				"energy": -0.35568,
				"method": "rhf"
			},
			{
				"type": "occ",
				"energy": -0.34305,
				"method": "rhf"
			},
			{
				"type": "occ",
				"energy": -0.29271,
				"method": "rhf"
			},
			{
				"type": "occ",
				"energy": -0.28151,
				"method": "rhf"
			},
			{
				"type": "occ",
				"energy": -0.27473,
				"method": "rhf"
			},
			{
				"type": "unocc",
				"energy": -0.09708,
				"method": "rhf"
			},
			{
				"type": "unocc",
				"energy": -0.04015,
				"method": "rhf"
			},
			{
				"type": "unocc",
				"energy": -0.00897,
				"method": "rhf"
			},
			{
				"type": "unocc",
				"energy": 0.02394,
				"method": "rhf"
			},
			{
				"type": "unocc",
				"energy": 0.07415,
				"method": "rhf"
			}
		],
		"cosmo_sigma_profile": { 
			"-0.025": 0.0,
			"-0.024": 0.0,
			"-0.023": 0.0,
			"-0.022": 0.0,
			"-0.021": 0.0,
			"-0.02": 0.0,
			"-0.019": 0.0,
			"-0.018": 0.0,
			"-0.017": 0.0,
			"-0.016": 0.0,
			"-0.015": 0.0,
			"-0.014": 0.0,
			"-0.013": 0.0,
			"-0.012": 0.0,
			"-0.011": 0.0,
			"-0.01": 0.00225161854546,
			"-0.009": 3.08713965366,
			"-0.008": 9.70754326146,
			"-0.007": 11.9160448709,
			"-0.006": 10.6436226905,
			"-0.005": 8.97060972135,
			"-0.004": 9.9300695258,
			"-0.003": 9.99868425193,
			"-0.002": 12.1672614757,
			"-0.001": 14.0497549834,
			"0.0": 16.0684033746,
			"0.001": 13.910628115,
			"0.002": 4.50979010461,
			"0.003": 3.93207496,
			"0.004": 3.93059816207,
			"0.005": 3.61529704752,
			"0.006": 3.95640964247,
			"0.007": 4.97394303535,
			"0.008": 5.39668791479,
			"0.009": 5.55946264568,
			"0.01": 6.03419198753,
			"0.011": 6.28023331113,
			"0.012": 3.78038716526,
			"0.013": 0.63609062279,
			"0.014": 0.0,
			"0.015": 0.0,
			"0.016": 0.0,
			"0.017": 0.0,
			"0.018": 0.0,
			"0.019": 0.0,
			"0.02": 0.0,
			"0.021": 0.0,
			"0.022": 0.0,
			"0.023": 0.0,
			"0.024": 0.0,
			"0.025": 0.0
		}
	}
}
