{
	 "smiles": "NNC(=O)C1=CC=C(N)C=C1", 
	 "Tm": 500.15, 
	 "num_atms": 20, 
	 "gaussian": { 
		 "optdone": 1, 
		 "sigma_profile": "yes", 
		 "theory": "DFT", 
		 "functional": "B3LYP", 
		 "basiset": "6-31G**", 
		 "properties": { 
			 "R2extent": 2219.4937, 
			 "electric_dipole_moment_norm": 5.68060773245, 
			 "electric_quadrupole_moment_norm": 12.4394335791, 
			 "total_energy": -511.626811634, 
			 "HOMO_LUMO_gap": 0.18809, 
			 "cosmo_polarized_energy": -18.87, 
			 "cosmo_cavitation_energy": 24.09, 
			 "cosmo_dispersion_energy": -17.83, 
			 "cosmo_repulsion_energy": 1.45, 
			 "cosmo_total_nonelectrostatic_energy": 7.71, 
			 "SMD_solvation_energy": 5.18 
		},
		"coords": [
			{
				"x": 0.1927462256,
				"y": -2.5593875047,
				"z": 0.2894137105,
				"element": "N" 
			},
			{
				"x": 1.0105432148,
				"y": -1.944827325,
				"z": 1.2681329048,
				"element": "N" 
			},
			{
				"x": 1.6543918825,
				"y": -0.7225888629,
				"z": 1.1299318431,
				"element": "C" 
			},
			{
				"x": 2.7159987701,
				"y": -0.5328374373,
				"z": 1.7166557514,
				"element": "O" 
			},
			{
				"x": 1.0268776449,
				"y": 0.334399988,
				"z": 0.2806992161,
				"element": "C" 
			},
			{
				"x": -0.3564881062,
				"y": 0.5108769664,
				"z": 0.1185167071,
				"element": "C" 
			},
			{
				"x": -0.864297097,
				"y": 1.5657770445,
				"z": -0.6300344405,
				"element": "C" 
			},
			{
				"x": 0.0019237189,
				"y": 2.4830148594,
				"z": -1.2546150187,
				"element": "C" 
			},
			{
				"x": -0.500689397,
				"y": 3.5589699068,
				"z": -1.9710528067,
				"element": "N" 
			},
			{
				"x": 1.3902499039,
				"y": 2.3176386075,
				"z": -1.0817855189,
				"element": "C" 
			},
			{
				"x": 1.8847005245,
				"y": 1.2723148433,
				"z": -0.3167109815,
				"element": "C" 
			},
			{
				"x": -0.7772419894,
				"y": -2.3034138126,
				"z": 0.4493519612,
				"element": "H" 
			},
			{
				"x": 0.4503724019,
				"y": -2.2284845237,
				"z": -0.6378091537,
				"element": "H" 
			},
			{
				"x": 1.5924612274,
				"y": -2.6107860938,
				"z": 1.7636241227,
				"element": "H" 
			},
			{
				"x": -1.0539515778,
				"y": -0.1586755048,
				"z": 0.6111256977,
				"element": "H" 
			},
			{
				"x": -1.9395024936,
				"y": 1.6955958557,
				"z": -0.7248115159,
				"element": "H" 
			},
			{
				"x": -1.4422929489,
				"y": 3.4670177956,
				"z": -2.3231567824,
				"element": "H" 
			},
			{
				"x": 0.1293165998,
				"y": 3.995318898,
				"z": -2.6282028918,
				"element": "H" 
			},
			{
				"x": 2.0743377325,
				"y": 3.0262155355,
				"z": -1.5421797554,
				"element": "H" 
			},
			{
				"x": 2.9529437631,
				"y": 1.162260764,
				"z": -0.161693049,
				"element": "H" 
			}
		],
		 "valence_orbital": [ 
			{
				"type": "occ",
				"energy": -0.28948,
				"method": "rhf"
			},
			{
				"type": "occ",
				"energy": -0.25766,
				"method": "rhf"
			},
			{
				"type": "occ",
				"energy": -0.24309,
				"method": "rhf"
			},
			{
				"type": "occ",
				"energy": -0.23978,
				"method": "rhf"
			},
			{
				"type": "occ",
				"energy": -0.21119,
				"method": "rhf"
			},
			{
				"type": "unocc",
				"energy": -0.0231,
				"method": "rhf"
			},
			{
				"type": "unocc",
				"energy": -0.00594,
				"method": "rhf"
			},
			{
				"type": "unocc",
				"energy": 0.05768,
				"method": "rhf"
			},
			{
				"type": "unocc",
				"energy": 0.07193,
				"method": "rhf"
			},
			{
				"type": "unocc",
				"energy": 0.07371,
				"method": "rhf"
			}
		],
		"cosmo_sigma_profile": { 
			"-0.025": 0.0,
			"-0.024": 0.0,
			"-0.023": 0.0,
			"-0.022": 0.0,
			"-0.021": 0.0,
			"-0.02": 0.0,
			"-0.019": 0.0,
			"-0.018": 0.0,
			"-0.017": 0.0,
			"-0.016": 0.0,
			"-0.015": 0.0,
			"-0.014": 0.0167412820264,
			"-0.013": 1.71857726579,
			"-0.012": 4.8340370391,
			"-0.011": 6.50253438431,
			"-0.01": 6.5304943227,
			"-0.009": 7.71666897542,
			"-0.008": 5.03319390716,
			"-0.007": 7.25098146373,
			"-0.006": 7.92949039347,
			"-0.005": 10.6016729861,
			"-0.004": 8.71534488018,
			"-0.003": 8.29836031063,
			"-0.002": 8.61672788956,
			"-0.001": 7.0729290224,
			"0.0": 9.1620761019,
			"0.001": 8.543167123,
			"0.002": 9.1006089947,
			"0.003": 9.56368292566,
			"0.004": 10.5208311461,
			"0.005": 14.8379487345,
			"0.006": 7.08427392009,
			"0.007": 3.91088909226,
			"0.008": 2.7924441814,
			"0.009": 3.16600177268,
			"0.01": 2.47864216239,
			"0.011": 2.31278428953,
			"0.012": 3.80298601462,
			"0.013": 4.52241323631,
			"0.014": 5.93334441813,
			"0.015": 1.14324022249,
			"0.016": 0.627356425303,
			"0.017": 0.0344338154059,
			"0.018": 0.0,
			"0.019": 0.0,
			"0.02": 0.0,
			"0.021": 0.0,
			"0.022": 0.0,
			"0.023": 0.0,
			"0.024": 0.0,
			"0.025": 0.0
		}
	}
}
