{
	 "smiles": "CCOC(=O)C(CC1=CNC2=CC=CC=C12)NC(C)=O", 
	 "Tm": 379.15, 
	 "num_atms": 38, 
	 "gaussian": { 
		 "optdone": 1, 
		 "sigma_profile": "yes", 
		 "theory": "DFT", 
		 "functional": "B3LYP", 
		 "basiset": "6-31G**", 
		 "properties": { 
			 "R2extent": 6727.2177, 
			 "electric_dipole_moment_norm": 5.16298594517, 
			 "electric_quadrupole_moment_norm": 10.4390991297, 
			 "total_energy": -917.66596605, 
			 "HOMO_LUMO_gap": 0.18898, 
			 "cosmo_polarized_energy": -18.52, 
			 "cosmo_cavitation_energy": 40.92, 
			 "cosmo_dispersion_energy": -27.43, 
			 "cosmo_repulsion_energy": 2.11, 
			 "cosmo_total_nonelectrostatic_energy": 15.6, 
			 "SMD_solvation_energy": 7.68 
		},
		"coords": [
			{
				"x": 3.6095912774,
				"y": 0.9882994672,
				"z": 1.9248648566,
				"element": "C" 
			},
			{
				"x": 2.9399492446,
				"y": 2.3533228914,
				"z": 1.9445808825,
				"element": "C" 
			},
			{
				"x": 1.5613652693,
				"y": 2.2759581639,
				"z": 1.4995173129,
				"element": "O" 
			},
			{
				"x": 1.3466338101,
				"y": 2.3681697392,
				"z": 0.1747242123,
				"element": "C" 
			},
			{
				"x": 2.2265782434,
				"y": 2.4822077143,
				"z": -0.6555778633,
				"element": "O" 
			},
			{
				"x": -0.1420641825,
				"y": 2.3201135068,
				"z": -0.1474271846,
				"element": "C" 
			},
			{
				"x": -0.7919639008,
				"y": 0.9723237939,
				"z": 0.2949439,
				"element": "C" 
			},
			{
				"x": -0.3225915763,
				"y": -0.2380251163,
				"z": -0.4595733334,
				"element": "C" 
			},
			{
				"x": 0.7485859488,
				"y": -1.0417540018,
				"z": -0.1503131605,
				"element": "C" 
			},
			{
				"x": 0.874343703,
				"y": -2.048622746,
				"z": -1.0897338648,
				"element": "N" 
			},
			{
				"x": -0.1301700271,
				"y": -1.9228532184,
				"z": -2.027488339,
				"element": "C" 
			},
			{
				"x": -0.4268681952,
				"y": -2.703258549,
				"z": -3.1507643109,
				"element": "C" 
			},
			{
				"x": -1.529814673,
				"y": -2.3362872932,
				"z": -3.9126698911,
				"element": "C" 
			},
			{
				"x": -2.321118694,
				"y": -1.22184419,
				"z": -3.562555472,
				"element": "C" 
			},
			{
				"x": -2.021911681,
				"y": -0.4474405182,
				"z": -2.4481822707,
				"element": "C" 
			},
			{
				"x": -0.9060471928,
				"y": -0.7888430208,
				"z": -1.6610107112,
				"element": "C" 
			},
			{
				"x": -0.2848077521,
				"y": 2.6080215886,
				"z": -1.5594849887,
				"element": "N" 
			},
			{
				"x": -1.4765279886,
				"y": 2.9674215617,
				"z": -2.1119298895,
				"element": "C" 
			},
			{
				"x": -1.4488836972,
				"y": 3.2087354067,
				"z": -3.6122981294,
				"element": "C" 
			},
			{
				"x": -2.5083562612,
				"y": 3.0498012131,
				"z": -1.4482412526,
				"element": "O" 
			},
			{
				"x": 3.0581417396,
				"y": 0.2738556431,
				"z": 2.5438543472,
				"element": "H" 
			},
			{
				"x": 4.6265945648,
				"y": 1.0691791331,
				"z": 2.3227157245,
				"element": "H" 
			},
			{
				"x": 3.6714844343,
				"y": 0.6060083948,
				"z": 0.9029395523,
				"element": "H" 
			},
			{
				"x": 3.4730473359,
				"y": 3.0631423378,
				"z": 1.3081284892,
				"element": "H" 
			},
			{
				"x": 2.8727043956,
				"y": 2.7526141115,
				"z": 2.9590268134,
				"element": "H" 
			},
			{
				"x": -0.6364547952,
				"y": 3.1117446808,
				"z": 0.4295934852,
				"element": "H" 
			},
			{
				"x": -0.6063366863,
				"y": 0.8586316724,
				"z": 1.3676082366,
				"element": "H" 
			},
			{
				"x": -1.869284624,
				"y": 1.1025969382,
				"z": 0.1646394442,
				"element": "H" 
			},
			{
				"x": 1.4354798231,
				"y": -0.9821066384,
				"z": 0.6822362472,
				"element": "H" 
			},
			{
				"x": 1.5687667227,
				"y": -2.7770044551,
				"z": -1.0717970762,
				"element": "H" 
			},
			{
				"x": 0.179086653,
				"y": -3.565259118,
				"z": -3.4164142211,
				"element": "H" 
			},
			{
				"x": -1.7896814952,
				"y": -2.9211814101,
				"z": -4.7902486313,
				"element": "H" 
			},
			{
				"x": -3.1824906684,
				"y": -0.9702988106,
				"z": -4.1747015228,
				"element": "H" 
			},
			{
				"x": -2.6402468183,
				"y": 0.4061123529,
				"z": -2.185424451,
				"element": "H" 
			},
			{
				"x": 0.5607132414,
				"y": 2.5569593055,
				"z": -2.1113332808,
				"element": "H" 
			},
			{
				"x": -1.685245707,
				"y": 2.2701502319,
				"z": -4.1252674718,
				"element": "H" 
			},
			{
				"x": -0.4760580239,
				"y": 3.558417229,
				"z": -3.9700075734,
				"element": "H" 
			},
			{
				"x": -2.2181417668,
				"y": 3.9399920082,
				"z": -3.864428614,
				"element": "H" 
			}
		],
		 "valence_orbital": [ 
			{
				"type": "occ",
				"energy": -0.26716,
				"method": "rhf"
			},
			{
				"type": "occ",
				"energy": -0.24771,
				"method": "rhf"
			},
			{
				"type": "occ",
				"energy": -0.23924,
				"method": "rhf"
			},
			{
				"type": "occ",
				"energy": -0.21669,
				"method": "rhf"
			},
			{
				"type": "occ",
				"energy": -0.19712,
				"method": "rhf"
			},
			{
				"type": "unocc",
				"energy": -0.00814,
				"method": "rhf"
			},
			{
				"type": "unocc",
				"energy": 0.00138,
				"method": "rhf"
			},
			{
				"type": "unocc",
				"energy": 0.03154,
				"method": "rhf"
			},
			{
				"type": "unocc",
				"energy": 0.03681,
				"method": "rhf"
			},
			{
				"type": "unocc",
				"energy": 0.064,
				"method": "rhf"
			}
		],
		"cosmo_sigma_profile": { 
			"-0.025": 0.0,
			"-0.024": 0.0,
			"-0.023": 0.0,
			"-0.022": 0.0,
			"-0.021": 0.0,
			"-0.02": 0.0,
			"-0.019": 0.0,
			"-0.018": 0.0,
			"-0.017": 0.0,
			"-0.016": 0.115382330915,
			"-0.015": 1.61781912796,
			"-0.014": 1.53586460247,
			"-0.013": 1.22520461479,
			"-0.012": 1.73224165934,
			"-0.011": 1.4209964258,
			"-0.01": 2.63735618491,
			"-0.009": 2.67145285404,
			"-0.008": 2.15374241884,
			"-0.007": 3.67528494375,
			"-0.006": 10.2839626595,
			"-0.005": 18.6829031025,
			"-0.004": 29.8414257952,
			"-0.003": 34.1607815736,
			"-0.002": 32.6208489996,
			"-0.001": 30.4143556194,
			"0.0": 23.8963447468,
			"0.001": 15.4432097158,
			"0.002": 13.0164339527,
			"0.003": 14.1267560387,
			"0.004": 15.1594777549,
			"0.005": 17.3608117897,
			"0.006": 13.9621676413,
			"0.007": 10.3663168458,
			"0.008": 4.36400651892,
			"0.009": 3.32711325755,
			"0.01": 3.30810336025,
			"0.011": 3.94365660529,
			"0.012": 1.82410312168,
			"0.013": 2.38835019332,
			"0.014": 3.95853375452,
			"0.015": 1.69196392261,
			"0.016": 0.0806801244568,
			"0.017": 0.0,
			"0.018": 0.0,
			"0.019": 0.0,
			"0.02": 0.0,
			"0.021": 0.0,
			"0.022": 0.0,
			"0.023": 0.0,
			"0.024": 0.0,
			"0.025": 0.0
		}
	}
}
