{
	 "smiles": "COC1=C(NC(=O)C2=C(F)C=C(Cl)C=C2)C=C(N)C=C1", 
	 "Tm": 414.15, 
	 "num_atms": 32, 
	 "gaussian": { 
		 "optdone": 1, 
		 "sigma_profile": "yes", 
		 "theory": "DFT", 
		 "functional": "B3LYP", 
		 "basiset": "6-31G**", 
		 "properties": { 
			 "R2extent": 7570.849, 
			 "electric_dipole_moment_norm": 6.27499755139, 
			 "electric_quadrupole_moment_norm": 14.5180825011, 
			 "total_energy": -1360.69270411, 
			 "HOMO_LUMO_gap": 0.1719, 
			 "cosmo_polarized_energy": -18.62, 
			 "cosmo_cavitation_energy": 38.8, 
			 "cosmo_dispersion_energy": -26.34, 
			 "cosmo_repulsion_energy": 2.04, 
			 "cosmo_total_nonelectrostatic_energy": 14.5, 
			 "SMD_solvation_energy": 7.85 
		},
		"coords": [
			{
				"x": 1.102948551,
				"y": -2.6910550215,
				"z": -0.5114418836,
				"element": "C" 
			},
			{
				"x": 0.1446457195,
				"y": -1.6326720901,
				"z": -0.5872146471,
				"element": "O" 
			},
			{
				"x": 0.5654316891,
				"y": -0.424360049,
				"z": -0.0723613509,
				"element": "C" 
			},
			{
				"x": 0.4050121333,
				"y": -0.1256167241,
				"z": 1.2933929963,
				"element": "C" 
			},
			{
				"x": -0.1276234439,
				"y": -1.0824646944,
				"z": 2.2003025525,
				"element": "N" 
			},
			{
				"x": -1.193398116,
				"y": -1.9445272202,
				"z": 2.0065295258,
				"element": "C" 
			},
			{
				"x": -1.2839001815,
				"y": -2.9795407493,
				"z": 2.6501648124,
				"element": "O" 
			},
			{
				"x": -2.2758952327,
				"y": -1.4938396471,
				"z": 1.0704412778,
				"element": "C" 
			},
			{
				"x": -2.8071814733,
				"y": -2.376165306,
				"z": 0.1254976831,
				"element": "C" 
			},
			{
				"x": -2.2475818029,
				"y": -3.585729914,
				"z": -0.038308082,
				"element": "F" 
			},
			{
				"x": -3.8808260845,
				"y": -2.0398596895,
				"z": -0.6879520539,
				"element": "C" 
			},
			{
				"x": -4.4472815806,
				"y": -0.7742831471,
				"z": -0.5396787341,
				"element": "C" 
			},
			{
				"x": -5.811781945,
				"y": -0.3297708882,
				"z": -1.5508096045,
				"element": "Cl" 
			},
			{
				"x": -3.9501202039,
				"y": 0.1412213029,
				"z": 0.3861958122,
				"element": "C" 
			},
			{
				"x": -2.863328745,
				"y": -0.2285596006,
				"z": 1.1784944618,
				"element": "C" 
			},
			{
				"x": 0.8292432393,
				"y": 1.1107139773,
				"z": 1.7886827437,
				"element": "C" 
			},
			{
				"x": 1.411235232,
				"y": 2.0710079578,
				"z": 0.9468658928,
				"element": "C" 
			},
			{
				"x": 1.7797577104,
				"y": 3.3229736966,
				"z": 1.4439922492,
				"element": "N" 
			},
			{
				"x": 1.5403300926,
				"y": 1.7718708425,
				"z": -0.4206502409,
				"element": "C" 
			},
			{
				"x": 1.1187182345,
				"y": 0.541178583,
				"z": -0.9142294526,
				"element": "C" 
			},
			{
				"x": 1.9972768569,
				"y": -2.4581131255,
				"z": -1.1035478417,
				"element": "H" 
			},
			{
				"x": 0.610764684,
				"y": -3.5764713455,
				"z": -0.9168592701,
				"element": "H" 
			},
			{
				"x": 1.3997185561,
				"y": -2.8902556963,
				"z": 0.5254847257,
				"element": "H" 
			},
			{
				"x": 0.4772186056,
				"y": -1.3932367344,
				"z": 2.9522446803,
				"element": "H" 
			},
			{
				"x": -4.251232382,
				"y": -2.7509497789,
				"z": -1.4159013254,
				"element": "H" 
			},
			{
				"x": -4.4038066218,
				"y": 1.1202487462,
				"z": 0.4851335352,
				"element": "H" 
			},
			{
				"x": -2.4670659323,
				"y": 0.4759594865,
				"z": 1.9022172978,
				"element": "H" 
			},
			{
				"x": 0.6854343914,
				"y": 1.3272060085,
				"z": 2.844207826,
				"element": "H" 
			},
			{
				"x": 1.9955554777,
				"y": 3.3492802529,
				"z": 2.4309215217,
				"element": "H" 
			},
			{
				"x": 2.4712195239,
				"y": 3.8150573277,
				"z": 0.8953281253,
				"element": "H" 
			},
			{
				"x": 1.9673038296,
				"y": 2.5092623699,
				"z": -1.0952127302,
				"element": "H" 
			},
			{
				"x": 1.2198092185,
				"y": 0.3062908695,
				"z": -1.9693305025,
				"element": "H" 
			}
		],
		 "valence_orbital": [ 
			{
				"type": "occ",
				"energy": -0.26094,
				"method": "rhf"
			},
			{
				"type": "occ",
				"energy": -0.256,
				"method": "rhf"
			},
			{
				"type": "occ",
				"energy": -0.24098,
				"method": "rhf"
			},
			{
				"type": "occ",
				"energy": -0.23915,
				"method": "rhf"
			},
			{
				"type": "occ",
				"energy": -0.20722,
				"method": "rhf"
			},
			{
				"type": "unocc",
				"energy": -0.03532,
				"method": "rhf"
			},
			{
				"type": "unocc",
				"energy": -0.01546,
				"method": "rhf"
			},
			{
				"type": "unocc",
				"energy": -0.00301,
				"method": "rhf"
			},
			{
				"type": "unocc",
				"energy": 0.00659,
				"method": "rhf"
			},
			{
				"type": "unocc",
				"energy": 0.02666,
				"method": "rhf"
			}
		],
		"cosmo_sigma_profile": { 
			"-0.025": 0.0,
			"-0.024": 0.0,
			"-0.023": 0.0,
			"-0.022": 0.0,
			"-0.021": 0.0,
			"-0.02": 0.0,
			"-0.019": 0.0,
			"-0.018": 0.0,
			"-0.017": 0.0,
			"-0.016": 0.0,
			"-0.015": 0.0539377898628,
			"-0.014": 1.00602471157,
			"-0.013": 1.16183049227,
			"-0.012": 3.48854037861,
			"-0.011": 4.13379833089,
			"-0.01": 3.84817605599,
			"-0.009": 4.0420939142,
			"-0.008": 7.52399623054,
			"-0.007": 8.99596237707,
			"-0.006": 14.0750923815,
			"-0.005": 14.5403632398,
			"-0.004": 18.0971313065,
			"-0.003": 20.4728854667,
			"-0.002": 21.4581924923,
			"-0.001": 19.7982763154,
			"0.0": 20.1395529934,
			"0.001": 26.6816161139,
			"0.002": 22.3485753537,
			"0.003": 23.1612987158,
			"0.004": 25.9639114737,
			"0.005": 13.8268170951,
			"0.006": 6.97669154545,
			"0.007": 4.57146129668,
			"0.008": 3.1808995014,
			"0.009": 2.41251180078,
			"0.01": 4.13739024843,
			"0.011": 3.40669594816,
			"0.012": 4.34232498221,
			"0.013": 5.69249020274,
			"0.014": 1.66817494773,
			"0.015": 0.126766224532,
			"0.016": 0.0,
			"0.017": 0.0,
			"0.018": 0.0,
			"0.019": 0.0,
			"0.02": 0.0,
			"0.021": 0.0,
			"0.022": 0.0,
			"0.023": 0.0,
			"0.024": 0.0,
			"0.025": 0.0
		}
	}
}
