{
	 "smiles": "NS(=O)(=O)N1CCOC2=C1C=CC=C2", 
	 "Tm": 409.15, 
	 "num_atms": 24, 
	 "gaussian": { 
		 "optdone": 1, 
		 "sigma_profile": "yes", 
		 "theory": "DFT", 
		 "functional": "B3LYP", 
		 "basiset": "6-31G**", 
		 "properties": { 
			 "R2extent": 3343.2916, 
			 "electric_dipole_moment_norm": 4.47495209583, 
			 "electric_quadrupole_moment_norm": 24.0598434787, 
			 "total_energy": -1044.15244807, 
			 "HOMO_LUMO_gap": 0.20768, 
			 "cosmo_polarized_energy": -18.62, 
			 "cosmo_cavitation_energy": 27.79, 
			 "cosmo_dispersion_energy": -21.24, 
			 "cosmo_repulsion_energy": 1.6, 
			 "cosmo_total_nonelectrostatic_energy": 8.15, 
			 "SMD_solvation_energy": 3.58 
		},
		"coords": [
			{
				"x": -1.7479799304,
				"y": 2.6256008668,
				"z": -1.8120235769,
				"element": "N" 
			},
			{
				"x": -0.4666046378,
				"y": 3.0582626374,
				"z": -0.8154368282,
				"element": "S" 
			},
			{
				"x": -1.0074563118,
				"y": 3.9825676151,
				"z": 0.1736965804,
				"element": "O" 
			},
			{
				"x": 0.6192625013,
				"y": 3.4078047966,
				"z": -1.7180096354,
				"element": "O" 
			},
			{
				"x": 0.0529180086,
				"y": 1.6828839507,
				"z": 0.0737369964,
				"element": "N" 
			},
			{
				"x": -0.5295864497,
				"y": 1.4701762671,
				"z": 1.4059306268,
				"element": "C" 
			},
			{
				"x": -1.668879877,
				"y": 0.4612940595,
				"z": 1.336958589,
				"element": "C" 
			},
			{
				"x": -1.2182434679,
				"y": -0.781967699,
				"z": 0.80288348,
				"element": "O" 
			},
			{
				"x": -0.3362080458,
				"y": -0.7165892628,
				"z": -0.2432047555,
				"element": "C" 
			},
			{
				"x": 0.305123266,
				"y": 0.4734171925,
				"z": -0.6485546337,
				"element": "C" 
			},
			{
				"x": 1.2204024338,
				"y": 0.4241044301,
				"z": -1.7124245627,
				"element": "C" 
			},
			{
				"x": 1.470630992,
				"y": -0.77341767,
				"z": -2.3762846061,
				"element": "C" 
			},
			{
				"x": 0.8363682102,
				"y": -1.9493632145,
				"z": -1.9633157219,
				"element": "C" 
			},
			{
				"x": -0.0559137146,
				"y": -1.9208307672,
				"z": -0.8971524487,
				"element": "C" 
			},
			{
				"x": -1.4758652418,
				"y": 1.9412762199,
				"z": -2.5118792015,
				"element": "H" 
			},
			{
				"x": -2.5748709236,
				"y": 2.3508217679,
				"z": -1.2908110148,
				"element": "H" 
			},
			{
				"x": 0.266291348,
				"y": 1.0867023913,
				"z": 2.0539034261,
				"element": "H" 
			},
			{
				"x": -0.8679266026,
				"y": 2.4268960172,
				"z": 1.8020872366,
				"element": "H" 
			},
			{
				"x": -2.4891204117,
				"y": 0.853973097,
				"z": 0.7173815794,
				"element": "H" 
			},
			{
				"x": -2.0695587487,
				"y": 0.2374544004,
				"z": 2.3290340877,
				"element": "H" 
			},
			{
				"x": 1.7267723191,
				"y": 1.3370718652,
				"z": -2.0011679683,
				"element": "H" 
			},
			{
				"x": 2.1762692615,
				"y": -0.7907056603,
				"z": -3.200725985,
				"element": "H" 
			},
			{
				"x": 1.0393266181,
				"y": -2.8888328741,
				"z": -2.4683439352,
				"element": "H" 
			},
			{
				"x": -0.5612505954,
				"y": -2.8168004269,
				"z": -0.5515777283,
				"element": "H" 
			}
		],
		 "valence_orbital": [ 
			{
				"type": "occ",
				"energy": -0.32332,
				"method": "rhf"
			},
			{
				"type": "occ",
				"energy": -0.31303,
				"method": "rhf"
			},
			{
				"type": "occ",
				"energy": -0.28877,
				"method": "rhf"
			},
			{
				"type": "occ",
				"energy": -0.2426,
				"method": "rhf"
			},
			{
				"type": "occ",
				"energy": -0.22599,
				"method": "rhf"
			},
			{
				"type": "unocc",
				"energy": -0.01831,
				"method": "rhf"
			},
			{
				"type": "unocc",
				"energy": -0.00316,
				"method": "rhf"
			},
			{
				"type": "unocc",
				"energy": 0.03541,
				"method": "rhf"
			},
			{
				"type": "unocc",
				"energy": 0.05592,
				"method": "rhf"
			},
			{
				"type": "unocc",
				"energy": 0.07904,
				"method": "rhf"
			}
		],
		"cosmo_sigma_profile": { 
			"-0.025": 0.0,
			"-0.024": 0.0,
			"-0.023": 0.0,
			"-0.022": 0.0,
			"-0.021": 0.0,
			"-0.02": 0.0,
			"-0.019": 0.0,
			"-0.018": 0.0,
			"-0.017": 0.0,
			"-0.016": 0.114713463663,
			"-0.015": 1.03026035368,
			"-0.014": 2.41284226338,
			"-0.013": 4.08176365984,
			"-0.012": 2.90249825391,
			"-0.011": 2.62160352081,
			"-0.01": 2.69536175767,
			"-0.009": 2.86733752048,
			"-0.008": 2.46451311693,
			"-0.007": 6.45902008769,
			"-0.006": 15.9263324624,
			"-0.005": 15.9868224285,
			"-0.004": 15.2547654414,
			"-0.003": 12.0506590199,
			"-0.002": 10.0763581426,
			"-0.001": 9.31278227907,
			"0.0": 8.32928752169,
			"0.001": 9.70619575885,
			"0.002": 11.2020643522,
			"0.003": 12.81059151,
			"0.004": 14.0162705247,
			"0.005": 13.3178738922,
			"0.006": 7.63593950624,
			"0.007": 7.03256749591,
			"0.008": 5.47055681297,
			"0.009": 7.11574527104,
			"0.01": 10.3595443714,
			"0.011": 7.14953339498,
			"0.012": 0.491854825149,
			"0.013": 0.0871124627459,
			"0.014": 0.0,
			"0.015": 0.0,
			"0.016": 0.0,
			"0.017": 0.0,
			"0.018": 0.0,
			"0.019": 0.0,
			"0.02": 0.0,
			"0.021": 0.0,
			"0.022": 0.0,
			"0.023": 0.0,
			"0.024": 0.0,
			"0.025": 0.0
		}
	}
}
