{
	 "smiles": "CCOC1=CC=C(NC(=O)C(C(F)(F)F)C(F)(F)F)C=C1", 
	 "Tm": 454.15, 
	 "num_atms": 32, 
	 "gaussian": { 
		 "optdone": 1, 
		 "sigma_profile": "yes", 
		 "theory": "DFT", 
		 "functional": "B3LYP", 
		 "basiset": "6-31G**", 
		 "properties": { 
			 "R2extent": 9823.1084, 
			 "electric_dipole_moment_norm": 2.13372681007, 
			 "electric_quadrupole_moment_norm": 13.5808787208, 
			 "total_energy": -1268.17112005, 
			 "HOMO_LUMO_gap": 0.18695, 
			 "cosmo_polarized_energy": -11.13, 
			 "cosmo_cavitation_energy": 38.79, 
			 "cosmo_dispersion_energy": -26.7, 
			 "cosmo_repulsion_energy": 1.94, 
			 "cosmo_total_nonelectrostatic_energy": 14.03, 
			 "SMD_solvation_energy": 9.43 
		},
		"coords": [
			{
				"x": 2.4124604542,
				"y": 5.8931526068,
				"z": 0.6258691071,
				"element": "C" 
			},
			{
				"x": 1.472875628,
				"y": 4.8316592464,
				"z": 0.0811794102,
				"element": "C" 
			},
			{
				"x": 1.8516118966,
				"y": 3.5833884809,
				"z": 0.6604892737,
				"element": "O" 
			},
			{
				"x": 1.1485426178,
				"y": 2.4647746396,
				"z": 0.3222601739,
				"element": "C" 
			},
			{
				"x": 0.0654975199,
				"y": 2.4335256947,
				"z": -0.5627595409,
				"element": "C" 
			},
			{
				"x": -0.5904685253,
				"y": 1.232092386,
				"z": -0.8446103829,
				"element": "C" 
			},
			{
				"x": -0.1664211762,
				"y": 0.0447737112,
				"z": -0.2402246745,
				"element": "C" 
			},
			{
				"x": -0.774431402,
				"y": -1.2154714356,
				"z": -0.4696006445,
				"element": "N" 
			},
			{
				"x": -1.8295282487,
				"y": -1.5081936131,
				"z": -1.2797709599,
				"element": "C" 
			},
			{
				"x": -2.450662819,
				"y": -0.7122638001,
				"z": -1.9668746638,
				"element": "O" 
			},
			{
				"x": -2.2395463414,
				"y": -3.0063852692,
				"z": -1.2930245554,
				"element": "C" 
			},
			{
				"x": -2.7570616365,
				"y": -3.4857605916,
				"z": 0.0636347576,
				"element": "C" 
			},
			{
				"x": -1.774330009,
				"y": -3.5407199197,
				"z": 0.9946785198,
				"element": "F" 
			},
			{
				"x": -3.3004296192,
				"y": -4.7116725581,
				"z": -0.0180075677,
				"element": "F" 
			},
			{
				"x": -3.6999004453,
				"y": -2.6423756674,
				"z": 0.5184617552,
				"element": "F" 
			},
			{
				"x": -1.1471790591,
				"y": -3.910660646,
				"z": -1.8647891974,
				"element": "C" 
			},
			{
				"x": -0.7245919711,
				"y": -3.4281124297,
				"z": -3.0461843755,
				"element": "F" 
			},
			{
				"x": -0.0696753901,
				"y": -3.9899763615,
				"z": -1.0468484604,
				"element": "F" 
			},
			{
				"x": -1.5926666287,
				"y": -5.1624710312,
				"z": -2.0624328463,
				"element": "F" 
			},
			{
				"x": 0.9212561459,
				"y": 0.0788911006,
				"z": 0.6480980496,
				"element": "C" 
			},
			{
				"x": 1.5710081321,
				"y": 1.2709481313,
				"z": 0.9268349318,
				"element": "C" 
			},
			{
				"x": 3.4486221461,
				"y": 5.6620033514,
				"z": 0.3635972521,
				"element": "H" 
			},
			{
				"x": 2.3376380887,
				"y": 5.9517307216,
				"z": 1.7152821452,
				"element": "H" 
			},
			{
				"x": 2.1577611134,
				"y": 6.8714061987,
				"z": 0.2068456866,
				"element": "H" 
			},
			{
				"x": 1.5422112774,
				"y": 4.7718776407,
				"z": -1.0143196772,
				"element": "H" 
			},
			{
				"x": 0.4294468506,
				"y": 5.0623508369,
				"z": 0.3391360861,
				"element": "H" 
			},
			{
				"x": -0.2846121013,
				"y": 3.3379284805,
				"z": -1.0454361149,
				"element": "H" 
			},
			{
				"x": -1.4264376342,
				"y": 1.2139451796,
				"z": -1.5291873733,
				"element": "H" 
			},
			{
				"x": -0.3655307392,
				"y": -1.98924486,
				"z": 0.0356977809,
				"element": "H" 
			},
			{
				"x": -3.0820517891,
				"y": -3.0572263996,
				"z": -1.9851233354,
				"element": "H" 
			},
			{
				"x": 1.260706132,
				"y": -0.8379947962,
				"z": 1.1247053408,
				"element": "H" 
			},
			{
				"x": 2.4113875327,
				"y": 1.3025809722,
				"z": 1.6120240993,
				"element": "H" 
			}
		],
		 "valence_orbital": [ 
			{
				"type": "occ",
				"energy": -0.32955,
				"method": "rhf"
			},
			{
				"type": "occ",
				"energy": -0.29114,
				"method": "rhf"
			},
			{
				"type": "occ",
				"energy": -0.27398,
				"method": "rhf"
			},
			{
				"type": "occ",
				"energy": -0.25807,
				"method": "rhf"
			},
			{
				"type": "occ",
				"energy": -0.20941,
				"method": "rhf"
			},
			{
				"type": "unocc",
				"energy": -0.02246,
				"method": "rhf"
			},
			{
				"type": "unocc",
				"energy": -0.00817,
				"method": "rhf"
			},
			{
				"type": "unocc",
				"energy": 0.03573,
				"method": "rhf"
			},
			{
				"type": "unocc",
				"energy": 0.07173,
				"method": "rhf"
			},
			{
				"type": "unocc",
				"energy": 0.08465,
				"method": "rhf"
			}
		],
		"cosmo_sigma_profile": { 
			"-0.025": 0.0,
			"-0.024": 0.0,
			"-0.023": 0.0,
			"-0.022": 0.0,
			"-0.021": 0.0,
			"-0.02": 0.0,
			"-0.019": 0.0,
			"-0.018": 0.0,
			"-0.017": 0.0,
			"-0.016": 0.0,
			"-0.015": 0.0,
			"-0.014": 0.523839941507,
			"-0.013": 1.01385796826,
			"-0.012": 1.34893944473,
			"-0.011": 3.4115802249,
			"-0.01": 2.60815777331,
			"-0.009": 2.26435865539,
			"-0.008": 2.86126008214,
			"-0.007": 3.294436212,
			"-0.006": 7.92525382868,
			"-0.005": 13.9296154398,
			"-0.004": 20.4845322758,
			"-0.003": 21.9795138296,
			"-0.002": 20.0396884956,
			"-0.001": 22.0492111498,
			"0.0": 28.0027282515,
			"0.001": 44.0793013762,
			"0.002": 53.791047945,
			"0.003": 13.3712893709,
			"0.004": 14.9792119532,
			"0.005": 10.7500426563,
			"0.006": 3.14776280039,
			"0.007": 2.83262306957,
			"0.008": 2.8579285129,
			"0.009": 3.16570045138,
			"0.01": 3.15867215435,
			"0.011": 2.65493339699,
			"0.012": 2.49490666946,
			"0.013": 0.291409496435,
			"0.014": 0.0,
			"0.015": 0.0,
			"0.016": 0.0,
			"0.017": 0.0,
			"0.018": 0.0,
			"0.019": 0.0,
			"0.02": 0.0,
			"0.021": 0.0,
			"0.022": 0.0,
			"0.023": 0.0,
			"0.024": 0.0,
			"0.025": 0.0
		}
	}
}
