{
	 "smiles": "COC1=CC=C(CN2C(=O)NC(=O)C2=O)C=C1", 
	 "Tm": 442.15, 
	 "num_atms": 27, 
	 "gaussian": { 
		 "optdone": 1, 
		 "sigma_profile": "yes", 
		 "theory": "DFT", 
		 "functional": "B3LYP", 
		 "basiset": "6-31G**", 
		 "properties": { 
			 "R2extent": 5476.6482, 
			 "electric_dipole_moment_norm": 4.01229605712, 
			 "electric_quadrupole_moment_norm": 12.7271932381, 
			 "total_energy": -835.622566889, 
			 "HOMO_LUMO_gap": 0.13855, 
			 "cosmo_polarized_energy": -17.51, 
			 "cosmo_cavitation_energy": 32.9, 
			 "cosmo_dispersion_energy": -23.24, 
			 "cosmo_repulsion_energy": 1.8, 
			 "cosmo_total_nonelectrostatic_energy": 11.45, 
			 "SMD_solvation_energy": 8.56 
		},
		"coords": [
			{
				"x": -1.8369415786,
				"y": 0.3097833026,
				"z": -3.9527470414,
				"element": "C" 
			},
			{
				"x": -1.3584347346,
				"y": 1.2015673853,
				"z": -2.9577168052,
				"element": "O" 
			},
			{
				"x": -0.4754309826,
				"y": 0.7273408684,
				"z": -2.0341217546,
				"element": "C" 
			},
			{
				"x": -0.0401802554,
				"y": 1.6566843452,
				"z": -1.0758456076,
				"element": "C" 
			},
			{
				"x": 0.8633231136,
				"y": 1.2738379461,
				"z": -0.0942435172,
				"element": "C" 
			},
			{
				"x": 1.3554268628,
				"y": -0.0404854282,
				"z": -0.0420975693,
				"element": "C" 
			},
			{
				"x": 2.3279128121,
				"y": -0.4568394435,
				"z": 1.0386919458,
				"element": "C" 
			},
			{
				"x": 1.6687321193,
				"y": -0.9112094135,
				"z": 2.2745388583,
				"element": "N" 
			},
			{
				"x": 1.2626192356,
				"y": -2.234645714,
				"z": 2.4835962209,
				"element": "C" 
			},
			{
				"x": 1.4327793931,
				"y": -3.1715887783,
				"z": 1.7381543331,
				"element": "O" 
			},
			{
				"x": 0.629724292,
				"y": -2.2607022438,
				"z": 3.7331716708,
				"element": "N" 
			},
			{
				"x": 0.6008678271,
				"y": -1.016798403,
				"z": 4.3463542257,
				"element": "C" 
			},
			{
				"x": 0.1363532865,
				"y": -0.7232378132,
				"z": 5.4191161203,
				"element": "O" 
			},
			{
				"x": 1.3072807034,
				"y": -0.0844885173,
				"z": 3.3261906202,
				"element": "C" 
			},
			{
				"x": 1.503284881,
				"y": 1.10382402,
				"z": 3.4296768316,
				"element": "O" 
			},
			{
				"x": 0.9124150071,
				"y": -0.958080088,
				"z": -0.9972962873,
				"element": "C" 
			},
			{
				"x": 0.004016127,
				"y": -0.587686537,
				"z": -1.9920695229,
				"element": "C" 
			},
			{
				"x": -2.520223108,
				"y": 0.8906362175,
				"z": -4.5740202562,
				"element": "H" 
			},
			{
				"x": -2.3808022232,
				"y": -0.5353398926,
				"z": -3.5115988639,
				"element": "H" 
			},
			{
				"x": -1.0209596319,
				"y": -0.0757255118,
				"z": -4.577417708,
				"element": "H" 
			},
			{
				"x": -0.4236692393,
				"y": 2.6703961898,
				"z": -1.1261630915,
				"element": "H" 
			},
			{
				"x": 1.1890139185,
				"y": 1.9973452253,
				"z": 0.6481969496,
				"element": "H" 
			},
			{
				"x": 2.9587758538,
				"y": -1.2821068491,
				"z": 0.7025412555,
				"element": "H" 
			},
			{
				"x": 2.9682342066,
				"y": 0.378071284,
				"z": 1.3327556827,
				"element": "H" 
			},
			{
				"x": 0.250311164,
				"y": -3.1112293355,
				"z": 4.1256126339,
				"element": "H" 
			},
			{
				"x": 1.27322686,
				"y": -1.9824783431,
				"z": -0.9624897446,
				"element": "H" 
			},
			{
				"x": -0.3165559097,
				"y": -1.3234444722,
				"z": -2.7198695786,
				"element": "H" 
			}
		],
		 "valence_orbital": [ 
			{
				"type": "occ",
				"energy": -0.30163,
				"method": "rhf"
			},
			{
				"type": "occ",
				"energy": -0.29343,
				"method": "rhf"
			},
			{
				"type": "occ",
				"energy": -0.27608,
				"method": "rhf"
			},
			{
				"type": "occ",
				"energy": -0.25781,
				"method": "rhf"
			},
			{
				"type": "occ",
				"energy": -0.22521,
				"method": "rhf"
			},
			{
				"type": "unocc",
				"energy": -0.08666,
				"method": "rhf"
			},
			{
				"type": "unocc",
				"energy": -0.00952,
				"method": "rhf"
			},
			{
				"type": "unocc",
				"energy": -0.00249,
				"method": "rhf"
			},
			{
				"type": "unocc",
				"energy": 0.03324,
				"method": "rhf"
			},
			{
				"type": "unocc",
				"energy": 0.06796,
				"method": "rhf"
			}
		],
		"cosmo_sigma_profile": { 
			"-0.025": 0.0,
			"-0.024": 0.0,
			"-0.023": 0.0,
			"-0.022": 0.0,
			"-0.021": 0.0,
			"-0.02": 0.0,
			"-0.019": 0.0,
			"-0.018": 0.95934774783,
			"-0.017": 1.1730578422,
			"-0.016": 1.33593860135,
			"-0.015": 1.18074881982,
			"-0.014": 0.795165995297,
			"-0.013": 0.909116249229,
			"-0.012": 1.04157041568,
			"-0.011": 0.726514201122,
			"-0.01": 2.06730654149,
			"-0.009": 3.01402572258,
			"-0.008": 3.2059356638,
			"-0.007": 4.54934497581,
			"-0.006": 15.4240715412,
			"-0.005": 26.9144319487,
			"-0.004": 26.4228288751,
			"-0.003": 20.2869747087,
			"-0.002": 12.39496349,
			"-0.001": 10.1005245133,
			"0.0": 12.0323148006,
			"0.001": 12.3593930922,
			"0.002": 12.8092199582,
			"0.003": 14.3505398348,
			"0.004": 14.8192938785,
			"0.005": 13.423987712,
			"0.006": 6.71106683262,
			"0.007": 5.5924195339,
			"0.008": 6.80338328019,
			"0.009": 10.3831708849,
			"0.01": 15.2894953744,
			"0.011": 5.76836491978,
			"0.012": 0.120396403696,
			"0.013": 0.0,
			"0.014": 0.0,
			"0.015": 0.0,
			"0.016": 0.0,
			"0.017": 0.0,
			"0.018": 0.0,
			"0.019": 0.0,
			"0.02": 0.0,
			"0.021": 0.0,
			"0.022": 0.0,
			"0.023": 0.0,
			"0.024": 0.0,
			"0.025": 0.0
		}
	}
}
