{
	 "smiles": "CC1=NN(CCC#N)C(N)=C1", 
	 "Tm": 378.15, 
	 "num_atms": 21, 
	 "gaussian": { 
		 "optdone": 1, 
		 "sigma_profile": "yes", 
		 "theory": "DFT", 
		 "functional": "B3LYP", 
		 "basiset": "6-31G**", 
		 "properties": { 
			 "R2extent": 2213.7076, 
			 "electric_dipole_moment_norm": 1.32794383164, 
			 "electric_quadrupole_moment_norm": 15.4394822643, 
			 "total_energy": -491.74897188, 
			 "HOMO_LUMO_gap": 0.22498, 
			 "cosmo_polarized_energy": -14.02, 
			 "cosmo_cavitation_energy": 25.26, 
			 "cosmo_dispersion_energy": -17.84, 
			 "cosmo_repulsion_energy": 1.46, 
			 "cosmo_total_nonelectrostatic_energy": 8.89, 
			 "SMD_solvation_energy": 4.64 
		},
		"coords": [
			{
				"x": 2.6689506174,
				"y": 0.5345269508,
				"z": 2.6132073272,
				"element": "C" 
			},
			{
				"x": 1.8868951645,
				"y": 0.2465591368,
				"z": 1.3677910578,
				"element": "C" 
			},
			{
				"x": 2.2027950408,
				"y": -0.7967247648,
				"z": 0.6036116116,
				"element": "N" 
			},
			{
				"x": 1.3134324371,
				"y": -0.7525857891,
				"z": -0.4336036383,
				"element": "N" 
			},
			{
				"x": 1.4031224334,
				"y": -1.7356125353,
				"z": -1.4855691637,
				"element": "C" 
			},
			{
				"x": 0.6901125236,
				"y": -3.0636916464,
				"z": -1.1310261847,
				"element": "C" 
			},
			{
				"x": -0.7600679819,
				"y": -2.8847697034,
				"z": -1.035183948,
				"element": "C" 
			},
			{
				"x": -1.9006676178,
				"y": -2.6713973788,
				"z": -0.9857083337,
				"element": "N" 
			},
			{
				"x": 0.4239894514,
				"y": 0.2799825268,
				"z": -0.3098281527,
				"element": "C" 
			},
			{
				"x": -0.5490706351,
				"y": 0.5096400635,
				"z": -1.2896927408,
				"element": "N" 
			},
			{
				"x": 0.7761461428,
				"y": 0.9575567497,
				"z": 0.8450325594,
				"element": "C" 
			},
			{
				"x": 2.0288650693,
				"y": 0.5146223485,
				"z": 3.5025487775,
				"element": "H" 
			},
			{
				"x": 3.1366521972,
				"y": 1.5247473891,
				"z": 2.5713106112,
				"element": "H" 
			},
			{
				"x": 3.4554889798,
				"y": -0.2131675629,
				"z": 2.7378246253,
				"element": "H" 
			},
			{
				"x": 0.9787960942,
				"y": -1.3028500171,
				"z": -2.39537236,
				"element": "H" 
			},
			{
				"x": 2.4621364823,
				"y": -1.9463462124,
				"z": -1.6506511762,
				"element": "H" 
			},
			{
				"x": 1.0747709042,
				"y": -3.4313459852,
				"z": -0.174154634,
				"element": "H" 
			},
			{
				"x": 0.9051442875,
				"y": -3.8200353797,
				"z": -1.8944902552,
				"element": "H" 
			},
			{
				"x": -1.0191000809,
				"y": 1.3938658465,
				"z": -1.1397217359,
				"element": "H" 
			},
			{
				"x": -1.241883015,
				"y": -0.2334181629,
				"z": -1.3424432752,
				"element": "H" 
			},
			{
				"x": 0.2864915053,
				"y": 1.8264441264,
				"z": 1.2605190284,
				"element": "H" 
			}
		],
		 "valence_orbital": [ 
			{
				"type": "occ",
				"energy": -0.3356,
				"method": "rhf"
			},
			{
				"type": "occ",
				"energy": -0.30761,
				"method": "rhf"
			},
			{
				"type": "occ",
				"energy": -0.27697,
				"method": "rhf"
			},
			{
				"type": "occ",
				"energy": -0.23396,
				"method": "rhf"
			},
			{
				"type": "occ",
				"energy": -0.21088,
				"method": "rhf"
			},
			{
				"type": "unocc",
				"energy": 0.0141,
				"method": "rhf"
			},
			{
				"type": "unocc",
				"energy": 0.02546,
				"method": "rhf"
			},
			{
				"type": "unocc",
				"energy": 0.03651,
				"method": "rhf"
			},
			{
				"type": "unocc",
				"energy": 0.07629,
				"method": "rhf"
			},
			{
				"type": "unocc",
				"energy": 0.07966,
				"method": "rhf"
			}
		],
		"cosmo_sigma_profile": { 
			"-0.025": 0.0,
			"-0.024": 0.0,
			"-0.023": 0.0,
			"-0.022": 0.0,
			"-0.021": 0.0,
			"-0.02": 0.0,
			"-0.019": 0.0,
			"-0.018": 0.0,
			"-0.017": 0.0,
			"-0.016": 0.0,
			"-0.015": 0.0,
			"-0.014": 0.0,
			"-0.013": 0.607163942359,
			"-0.012": 1.46817637724,
			"-0.011": 1.27174330847,
			"-0.01": 1.67948720823,
			"-0.009": 5.77923315854,
			"-0.008": 8.16377552673,
			"-0.007": 11.1366963585,
			"-0.006": 11.344484178,
			"-0.005": 12.0534345429,
			"-0.004": 11.6892326734,
			"-0.003": 12.7287310783,
			"-0.002": 12.0897010563,
			"-0.001": 13.5648721523,
			"0.0": 14.4724400187,
			"0.001": 9.73143198592,
			"0.002": 7.6175213866,
			"0.003": 7.08803403425,
			"0.004": 7.8183824039,
			"0.005": 9.02976437193,
			"0.006": 9.10195654434,
			"0.007": 6.0150824624,
			"0.008": 4.11679302825,
			"0.009": 4.97982927185,
			"0.01": 4.2315103277,
			"0.011": 3.65609997701,
			"0.012": 3.97977155267,
			"0.013": 2.32810324426,
			"0.014": 1.10495090445,
			"0.015": 0.801272460013,
			"0.016": 0.685318357459,
			"0.017": 0.222799927035,
			"0.018": 0.0,
			"0.019": 0.0,
			"0.02": 0.0,
			"0.021": 0.0,
			"0.022": 0.0,
			"0.023": 0.0,
			"0.024": 0.0,
			"0.025": 0.0
		}
	}
}
