{
	 "smiles": "CSC1=CC=C(S)C=C1", 
	 "Tm": 286.15, 
	 "num_atms": 17, 
	 "gaussian": { 
		 "optdone": 1, 
		 "sigma_profile": "yes", 
		 "theory": "DFT", 
		 "functional": "B3LYP", 
		 "basiset": "6-31G**", 
		 "properties": { 
			 "R2extent": 2804.3512, 
			 "electric_dipole_moment_norm": 1.66307322148, 
			 "electric_quadrupole_moment_norm": 11.3482963118, 
			 "total_energy": -1067.93663562, 
			 "HOMO_LUMO_gap": 0.20133, 
			 "cosmo_polarized_energy": -7.39, 
			 "cosmo_cavitation_energy": 24.14, 
			 "cosmo_dispersion_energy": -18.53, 
			 "cosmo_repulsion_energy": 1.43, 
			 "cosmo_total_nonelectrostatic_energy": 7.04, 
			 "SMD_solvation_energy": 3.69 
		},
		"coords": [
			{
				"x": 0.7156118517,
				"y": 0.7307464435,
				"z": 2.3957887347,
				"element": "C" 
			},
			{
				"x": 0.7949865586,
				"y": 2.198760626,
				"z": 1.2969972895,
				"element": "S" 
			},
			{
				"x": 0.1683709707,
				"y": 1.5053919411,
				"z": -0.2350612962,
				"element": "C" 
			},
			{
				"x": 1.0498027544,
				"y": 1.0072893837,
				"z": -1.2025547897,
				"element": "C" 
			},
			{
				"x": 0.570997465,
				"y": 0.4930830368,
				"z": -2.406690633,
				"element": "C" 
			},
			{
				"x": -0.8056764826,
				"y": 0.471557661,
				"z": -2.6646781619,
				"element": "C" 
			},
			{
				"x": -1.4982907361,
				"y": -0.1709555998,
				"z": -4.1793631207,
				"element": "S" 
			},
			{
				"x": -1.6927449451,
				"y": 0.975988379,
				"z": -1.7030635325,
				"element": "C" 
			},
			{
				"x": -1.2071815263,
				"y": 1.4904035727,
				"z": -0.5035016143,
				"element": "C" 
			},
			{
				"x": 1.0786575483,
				"y": 1.0557858521,
				"z": 3.3738613648,
				"element": "H" 
			},
			{
				"x": 1.3561963196,
				"y": -0.0717225786,
				"z": 2.0238688591,
				"element": "H" 
			},
			{
				"x": -0.3108151285,
				"y": 0.3715910716,
				"z": 2.4962796696,
				"element": "H" 
			},
			{
				"x": 2.1183992341,
				"y": 1.0260124484,
				"z": -1.0120530374,
				"element": "H" 
			},
			{
				"x": 1.2734684987,
				"y": 0.111949153,
				"z": -3.1423245516,
				"element": "H" 
			},
			{
				"x": -0.3309643428,
				"y": -0.495522095,
				"z": -4.7666809612,
				"element": "H" 
			},
			{
				"x": -2.7620311672,
				"y": 0.9728964511,
				"z": -1.8942378193,
				"element": "H" 
			},
			{
				"x": -1.8995868724,
				"y": 1.8899442533,
				"z": 0.2310136001,
				"element": "H" 
			}
		],
		 "valence_orbital": [ 
			{
				"type": "occ",
				"energy": -0.32343,
				"method": "rhf"
			},
			{
				"type": "occ",
				"energy": -0.29447,
				"method": "rhf"
			},
			{
				"type": "occ",
				"energy": -0.26325,
				"method": "rhf"
			},
			{
				"type": "occ",
				"energy": -0.22756,
				"method": "rhf"
			},
			{
				"type": "occ",
				"energy": -0.22342,
				"method": "rhf"
			},
			{
				"type": "unocc",
				"energy": -0.02209,
				"method": "rhf"
			},
			{
				"type": "unocc",
				"energy": -0.01309,
				"method": "rhf"
			},
			{
				"type": "unocc",
				"energy": 0.00902,
				"method": "rhf"
			},
			{
				"type": "unocc",
				"energy": 0.05237,
				"method": "rhf"
			},
			{
				"type": "unocc",
				"energy": 0.06473,
				"method": "rhf"
			}
		],
		"cosmo_sigma_profile": { 
			"-0.025": 0.0,
			"-0.024": 0.0,
			"-0.023": 0.0,
			"-0.022": 0.0,
			"-0.021": 0.0,
			"-0.02": 0.0,
			"-0.019": 0.0,
			"-0.018": 0.0,
			"-0.017": 0.0,
			"-0.016": 0.0,
			"-0.015": 0.0,
			"-0.014": 0.0,
			"-0.013": 0.0,
			"-0.012": 0.0,
			"-0.011": 1.55019635549,
			"-0.01": 3.00739601375,
			"-0.009": 1.62114701646,
			"-0.008": 2.36374304923,
			"-0.007": 4.35336577604,
			"-0.006": 10.1310644426,
			"-0.005": 14.0926028038,
			"-0.004": 13.454425957,
			"-0.003": 11.6637229767,
			"-0.002": 16.4291355166,
			"-0.001": 14.3297938955,
			"0.0": 11.388559625,
			"0.001": 11.9000144848,
			"0.002": 13.5722394859,
			"0.003": 16.6554566717,
			"0.004": 19.6210601164,
			"0.005": 8.8090111688,
			"0.006": 7.16456483416,
			"0.007": 5.38081253218,
			"0.008": 4.53362735834,
			"0.009": 2.97871172038,
			"0.01": 1.53598099166,
			"0.011": 0.300312644373,
			"0.012": 0.0,
			"0.013": 0.0,
			"0.014": 0.0,
			"0.015": 0.0,
			"0.016": 0.0,
			"0.017": 0.0,
			"0.018": 0.0,
			"0.019": 0.0,
			"0.02": 0.0,
			"0.021": 0.0,
			"0.022": 0.0,
			"0.023": 0.0,
			"0.024": 0.0,
			"0.025": 0.0
		}
	}
}
