{
	 "smiles": "COC(=O)C=CC1=CC=C(Cl)C=C1", 
	 "Tm": 349.15, 
	 "num_atms": 22, 
	 "gaussian": { 
		 "optdone": 1, 
		 "sigma_profile": "yes", 
		 "theory": "DFT", 
		 "functional": "B3LYP", 
		 "basiset": "6-31G**", 
		 "properties": { 
			 "R2extent": 5736.2056, 
			 "electric_dipole_moment_norm": 1.32854179084, 
			 "electric_quadrupole_moment_norm": 10.1941895838, 
			 "total_energy": -997.126455131, 
			 "HOMO_LUMO_gap": 0.16517, 
			 "cosmo_polarized_energy": -9.15, 
			 "cosmo_cavitation_energy": 29.21, 
			 "cosmo_dispersion_energy": -21.39, 
			 "cosmo_repulsion_energy": 1.69, 
			 "cosmo_total_nonelectrostatic_energy": 9.51, 
			 "SMD_solvation_energy": 6.4 
		},
		"coords": [
			{
				"x": 1.9626399744,
				"y": 5.340725336,
				"z": 0.9105242201,
				"element": "C" 
			},
			{
				"x": 1.5281542605,
				"y": 4.1099782684,
				"z": 1.5062318619,
				"element": "O" 
			},
			{
				"x": 1.0271412552,
				"y": 3.1959391383,
				"z": 0.6388144986,
				"element": "C" 
			},
			{
				"x": 0.9443081202,
				"y": 3.3875176428,
				"z": -0.5602844182,
				"element": "O" 
			},
			{
				"x": 0.6117332673,
				"y": 1.9720316501,
				"z": 1.3540387474,
				"element": "C" 
			},
			{
				"x": 0.0862069053,
				"y": 0.9400653442,
				"z": 0.6693931225,
				"element": "C" 
			},
			{
				"x": -0.378970882,
				"y": -0.3414603547,
				"z": 1.1983486277,
				"element": "C" 
			},
			{
				"x": -0.8996774322,
				"y": -1.2936757505,
				"z": 0.3036795497,
				"element": "C" 
			},
			{
				"x": -1.3592571746,
				"y": -2.53239083,
				"z": 0.7436048229,
				"element": "C" 
			},
			{
				"x": -1.2994171326,
				"y": -2.8304377614,
				"z": 2.1039343172,
				"element": "C" 
			},
			{
				"x": -1.8738488758,
				"y": -4.3861176996,
				"z": 2.6764142493,
				"element": "Cl" 
			},
			{
				"x": -0.7879691857,
				"y": -1.9078571613,
				"z": 3.0209997215,
				"element": "C" 
			},
			{
				"x": -0.3334667186,
				"y": -0.6762105244,
				"z": 2.5657585178,
				"element": "C" 
			},
			{
				"x": 2.7572714902,
				"y": 5.1581280485,
				"z": 0.1823167051,
				"element": "H" 
			},
			{
				"x": 1.1321459465,
				"y": 5.8387908812,
				"z": 0.4033037353,
				"element": "H" 
			},
			{
				"x": 2.3312432507,
				"y": 5.9536829354,
				"z": 1.7331694473,
				"element": "H" 
			},
			{
				"x": 0.7548767483,
				"y": 1.9645204681,
				"z": 2.4294639853,
				"element": "H" 
			},
			{
				"x": -0.0039717166,
				"y": 1.0745413266,
				"z": -0.4075109361,
				"element": "H" 
			},
			{
				"x": -0.9443872287,
				"y": -1.0569810488,
				"z": -0.7557774011,
				"element": "H" 
			},
			{
				"x": -1.758448648,
				"y": -3.257775248,
				"z": 0.0436008851,
				"element": "H" 
			},
			{
				"x": -0.7492339088,
				"y": -2.1572967459,
				"z": 4.0755335477,
				"element": "H" 
			},
			{
				"x": 0.0618276847,
				"y": 0.033282085,
				"z": 3.285542193,
				"element": "H" 
			}
		],
		 "valence_orbital": [ 
			{
				"type": "occ",
				"energy": -0.30133,
				"method": "rhf"
			},
			{
				"type": "occ",
				"energy": -0.29625,
				"method": "rhf"
			},
			{
				"type": "occ",
				"energy": -0.2744,
				"method": "rhf"
			},
			{
				"type": "occ",
				"energy": -0.27222,
				"method": "rhf"
			},
			{
				"type": "occ",
				"energy": -0.23702,
				"method": "rhf"
			},
			{
				"type": "unocc",
				"energy": -0.07185,
				"method": "rhf"
			},
			{
				"type": "unocc",
				"energy": -0.02279,
				"method": "rhf"
			},
			{
				"type": "unocc",
				"energy": 0.01159,
				"method": "rhf"
			},
			{
				"type": "unocc",
				"energy": 0.0229,
				"method": "rhf"
			},
			{
				"type": "unocc",
				"energy": 0.0876,
				"method": "rhf"
			}
		],
		"cosmo_sigma_profile": { 
			"-0.025": 0.0,
			"-0.024": 0.0,
			"-0.023": 0.0,
			"-0.022": 0.0,
			"-0.021": 0.0,
			"-0.02": 0.0,
			"-0.019": 0.0,
			"-0.018": 0.0,
			"-0.017": 0.0,
			"-0.016": 0.0,
			"-0.015": 0.0,
			"-0.014": 0.0,
			"-0.013": 0.0,
			"-0.012": 0.0,
			"-0.011": 0.0,
			"-0.01": 0.0475764975609,
			"-0.009": 1.14289006039,
			"-0.008": 4.19544300508,
			"-0.007": 10.882404942,
			"-0.006": 13.03129595,
			"-0.005": 15.4698041114,
			"-0.004": 14.3645585967,
			"-0.003": 16.869102795,
			"-0.002": 13.8453905654,
			"-0.001": 16.1468146206,
			"0.0": 17.8286798262,
			"0.001": 23.2315607605,
			"0.002": 26.1501602822,
			"0.003": 22.7935180486,
			"0.004": 13.4168590106,
			"0.005": 5.74993545538,
			"0.006": 2.92560531685,
			"0.007": 2.30748704166,
			"0.008": 3.60180025225,
			"0.009": 2.18155831533,
			"0.01": 1.34819494767,
			"0.011": 2.43720069577,
			"0.012": 4.63494803925,
			"0.013": 1.59468845855,
			"0.014": 0.0,
			"0.015": 0.0,
			"0.016": 0.0,
			"0.017": 0.0,
			"0.018": 0.0,
			"0.019": 0.0,
			"0.02": 0.0,
			"0.021": 0.0,
			"0.022": 0.0,
			"0.023": 0.0,
			"0.024": 0.0,
			"0.025": 0.0
		}
	}
}
