{
	 "smiles": "CC(C)(C)C(=O)NC1=CC(C(O)=O)=C(F)C=C1", 
	 "Tm": 453.15, 
	 "num_atms": 31, 
	 "gaussian": { 
		 "optdone": 1, 
		 "sigma_profile": "yes", 
		 "theory": "DFT", 
		 "functional": "B3LYP", 
		 "basiset": "6-31G**", 
		 "properties": { 
			 "R2extent": 4717.6034, 
			 "electric_dipole_moment_norm": 5.3012002773, 
			 "electric_quadrupole_moment_norm": 16.1849969487, 
			 "total_energy": -845.999688165, 
			 "HOMO_LUMO_gap": 0.18037, 
			 "cosmo_polarized_energy": -17.84, 
			 "cosmo_cavitation_energy": 34.3, 
			 "cosmo_dispersion_energy": -23.63, 
			 "cosmo_repulsion_energy": 1.8, 
			 "cosmo_total_nonelectrostatic_energy": 12.46, 
			 "SMD_solvation_energy": 8.2 
		},
		"coords": [
			{
				"x": -0.3535092887,
				"y": -3.7364655578,
				"z": -1.8596536552,
				"element": "C" 
			},
			{
				"x": -0.2522056919,
				"y": -2.4133251011,
				"z": -1.0689059554,
				"element": "C" 
			},
			{
				"x": -0.7619899062,
				"y": -1.2687638875,
				"z": -1.9668860031,
				"element": "C" 
			},
			{
				"x": -1.1281494854,
				"y": -2.5343966253,
				"z": 0.2013138013,
				"element": "C" 
			},
			{
				"x": 1.2314642145,
				"y": -2.2761355624,
				"z": -0.6386366584,
				"element": "C" 
			},
			{
				"x": 1.9225615258,
				"y": -3.2691218829,
				"z": -0.4543646694,
				"element": "O" 
			},
			{
				"x": 1.8512489722,
				"y": -1.0356711837,
				"z": -0.5042233985,
				"element": "N" 
			},
			{
				"x": 1.3526306157,
				"y": 0.2835988844,
				"z": -0.3100694253,
				"element": "C" 
			},
			{
				"x": 0.5650934142,
				"y": 0.6135668443,
				"z": 0.7934089215,
				"element": "C" 
			},
			{
				"x": 0.0996081137,
				"y": 1.9198698655,
				"z": 1.0014561284,
				"element": "C" 
			},
			{
				"x": -0.768673161,
				"y": 2.1500933076,
				"z": 2.2143674124,
				"element": "C" 
			},
			{
				"x": -1.2006719013,
				"y": 3.4036079277,
				"z": 2.4505624601,
				"element": "O" 
			},
			{
				"x": -1.0724399187,
				"y": 1.242172569,
				"z": 2.9534180676,
				"element": "O" 
			},
			{
				"x": 0.4955314167,
				"y": 2.8901274684,
				"z": 0.0779507255,
				"element": "C" 
			},
			{
				"x": 0.0837499182,
				"y": 4.1840794116,
				"z": 0.2326103859,
				"element": "F" 
			},
			{
				"x": 1.3072148434,
				"y": 2.6067243722,
				"z": -1.0111552599,
				"element": "C" 
			},
			{
				"x": 1.7305172881,
				"y": 1.2952299572,
				"z": -1.2066623538,
				"element": "C" 
			},
			{
				"x": 0.0154776388,
				"y": -4.5745655894,
				"z": -1.267645513,
				"element": "H" 
			},
			{
				"x": -1.3977693058,
				"y": -3.920630249,
				"z": -2.1323497048,
				"element": "H" 
			},
			{
				"x": 0.2373401002,
				"y": -3.6930655573,
				"z": -2.7802326981,
				"element": "H" 
			},
			{
				"x": -1.7487177672,
				"y": -1.5368943009,
				"z": -2.3589350096,
				"element": "H" 
			},
			{
				"x": -0.8715803009,
				"y": -0.3226396039,
				"z": -1.4348958153,
				"element": "H" 
			},
			{
				"x": -0.0996011249,
				"y": -1.1060091517,
				"z": -2.8237285948,
				"element": "H" 
			},
			{
				"x": -1.1682372323,
				"y": -1.6040655449,
				"z": 0.773910404,
				"element": "H" 
			},
			{
				"x": -0.7543813536,
				"y": -3.3277142443,
				"z": 0.8554561865,
				"element": "H" 
			},
			{
				"x": -2.1545688544,
				"y": -2.7871296754,
				"z": -0.0854503145,
				"element": "H" 
			},
			{
				"x": 2.8349376051,
				"y": -1.1701342505,
				"z": -0.294635254,
				"element": "H" 
			},
			{
				"x": 0.2971309881,
				"y": -0.1334368053,
				"z": 1.5309593602,
				"element": "H" 
			},
			{
				"x": -0.8762355474,
				"y": 4.0131674565,
				"z": 1.7692028028,
				"element": "H" 
			},
			{
				"x": 1.5834348771,
				"y": 3.4050594205,
				"z": -1.6908499622,
				"element": "H" 
			},
			{
				"x": 2.3502893078,
				"y": 1.0426672884,
				"z": -2.0609364108,
				"element": "H" 
			}
		],
		 "valence_orbital": [ 
			{
				"type": "occ",
				"energy": -0.29454,
				"method": "rhf"
			},
			{
				"type": "occ",
				"energy": -0.29086,
				"method": "rhf"
			},
			{
				"type": "occ",
				"energy": -0.28556,
				"method": "rhf"
			},
			{
				"type": "occ",
				"energy": -0.25657,
				"method": "rhf"
			},
			{
				"type": "occ",
				"energy": -0.2511,
				"method": "rhf"
			},
			{
				"type": "unocc",
				"energy": -0.07073,
				"method": "rhf"
			},
			{
				"type": "unocc",
				"energy": -0.03858,
				"method": "rhf"
			},
			{
				"type": "unocc",
				"energy": 0.01323,
				"method": "rhf"
			},
			{
				"type": "unocc",
				"energy": 0.03665,
				"method": "rhf"
			},
			{
				"type": "unocc",
				"energy": 0.05817,
				"method": "rhf"
			}
		],
		"cosmo_sigma_profile": { 
			"-0.025": 0.0,
			"-0.024": 0.0,
			"-0.023": 0.0,
			"-0.022": 0.0,
			"-0.021": 0.0,
			"-0.02": 0.0,
			"-0.019": 0.0,
			"-0.018": 0.0,
			"-0.017": 0.0,
			"-0.016": 0.0,
			"-0.015": 0.0,
			"-0.014": 0.645236318651,
			"-0.013": 1.47524402682,
			"-0.012": 1.64476924655,
			"-0.011": 2.38307361423,
			"-0.01": 2.51620811979,
			"-0.009": 3.71859455244,
			"-0.008": 5.9802959359,
			"-0.007": 7.65909650564,
			"-0.006": 9.00340978648,
			"-0.005": 7.65411876822,
			"-0.004": 10.8148391213,
			"-0.003": 26.8868189081,
			"-0.002": 31.0228905947,
			"-0.001": 32.82082011,
			"0.0": 31.3756600988,
			"0.001": 27.0006282171,
			"0.002": 12.0485482439,
			"0.003": 5.49086812976,
			"0.004": 3.65801454835,
			"0.005": 3.86945721513,
			"0.006": 4.06166440671,
			"0.007": 3.00524533728,
			"0.008": 5.36058975368,
			"0.009": 3.66888225213,
			"0.01": 5.9235156916,
			"0.011": 7.23346764212,
			"0.012": 5.35587282762,
			"0.013": 5.71459344147,
			"0.014": 3.10794452287,
			"0.015": 0.00585974463069,
			"0.016": 0.0,
			"0.017": 0.0,
			"0.018": 0.0,
			"0.019": 0.0,
			"0.02": 0.0,
			"0.021": 0.0,
			"0.022": 0.0,
			"0.023": 0.0,
			"0.024": 0.0,
			"0.025": 0.0
		}
	}
}
