{
	 "smiles": "CN1C(=O)C(C2=NNC(=O)C2=C/NC2=CC=CC(C)=C2)=C(O)C2=CC=CC=C12", 
	 "Tm": 537.15, 
	 "num_atms": 46, 
	 "gaussian": { 
		 "optdone": 1, 
		 "sigma_profile": "yes", 
		 "theory": "DFT", 
		 "functional": "B3LYP", 
		 "basiset": "6-31G**", 
		 "properties": { 
			 "R2extent": 14575.0353, 
			 "electric_dipole_moment_norm": 3.49566627412, 
			 "electric_quadrupole_moment_norm": 17.0747346164, 
			 "total_energy": -1255.80685145, 
			 "HOMO_LUMO_gap": 0.13409, 
			 "cosmo_polarized_energy": -15.99, 
			 "cosmo_cavitation_energy": 48.99, 
			 "cosmo_dispersion_energy": -35.89, 
			 "cosmo_repulsion_energy": 2.61, 
			 "cosmo_total_nonelectrostatic_energy": 15.71, 
			 "SMD_solvation_energy": 8.7 
		},
		"coords": [
			{
				"x": -3.7329643918,
				"y": 2.005300675,
				"z": -0.017085795,
				"element": "C" 
			},
			{
				"x": -3.5257197362,
				"y": 0.6934146125,
				"z": -0.6302349921,
				"element": "N" 
			},
			{
				"x": -2.362362976,
				"y": -0.010081166,
				"z": -0.2606630329,
				"element": "C" 
			},
			{
				"x": -1.5962645473,
				"y": 0.5103790518,
				"z": 0.561737052,
				"element": "O" 
			},
			{
				"x": -2.1382647946,
				"y": -1.3176743715,
				"z": -0.8665167078,
				"element": "C" 
			},
			{
				"x": -0.9259548721,
				"y": -2.1070334223,
				"z": -0.5708416121,
				"element": "C" 
			},
			{
				"x": -0.9108016415,
				"y": -3.3588338872,
				"z": -1.0226677512,
				"element": "N" 
			},
			{
				"x": 0.3016098875,
				"y": -3.9177910584,
				"z": -0.7144098298,
				"element": "N" 
			},
			{
				"x": 1.1299000455,
				"y": -3.0601058356,
				"z": -0.0367547273,
				"element": "C" 
			},
			{
				"x": 2.2823079971,
				"y": -3.3102983667,
				"z": 0.3627510495,
				"element": "O" 
			},
			{
				"x": 0.3452474151,
				"y": -1.8291966774,
				"z": 0.0788751167,
				"element": "C" 
			},
			{
				"x": 0.8969052844,
				"y": -0.7137416572,
				"z": 0.6910222931,
				"element": "C" 
			},
			{
				"x": 2.1387112377,
				"y": -0.7449107529,
				"z": 1.1861759412,
				"element": "N" 
			},
			{
				"x": 2.8128918913,
				"y": 0.2958230523,
				"z": 1.8536218608,
				"element": "C" 
			},
			{
				"x": 4.1831875198,
				"y": 0.1323937474,
				"z": 2.0970346107,
				"element": "C" 
			},
			{
				"x": 4.8879739663,
				"y": 1.1348676687,
				"z": 2.7583451601,
				"element": "C" 
			},
			{
				"x": 4.242476172,
				"y": 2.2980147673,
				"z": 3.1758966787,
				"element": "C" 
			},
			{
				"x": 2.8708763418,
				"y": 2.4716422317,
				"z": 2.9404957724,
				"element": "C" 
			},
			{
				"x": 2.1691138848,
				"y": 3.7376407249,
				"z": 3.3743956644,
				"element": "C" 
			},
			{
				"x": 2.16205107,
				"y": 1.4604698348,
				"z": 2.2854009264,
				"element": "C" 
			},
			{
				"x": -3.1056014093,
				"y": -1.8416669202,
				"z": -1.7283051375,
				"element": "C" 
			},
			{
				"x": -3.0224119511,
				"y": -3.0444890334,
				"z": -2.2823907644,
				"element": "O" 
			},
			{
				"x": -4.2823156358,
				"y": -1.0810748006,
				"z": -2.0854453126,
				"element": "C" 
			},
			{
				"x": -5.2369994887,
				"y": -1.5968471813,
				"z": -2.9820809587,
				"element": "C" 
			},
			{
				"x": -6.3590025655,
				"y": -0.8603205872,
				"z": -3.3238258352,
				"element": "C" 
			},
			{
				"x": -6.5412624524,
				"y": 0.4119956915,
				"z": -2.763616834,
				"element": "C" 
			},
			{
				"x": -5.6155747452,
				"y": 0.9407117552,
				"z": -1.8741290031,
				"element": "C" 
			},
			{
				"x": -4.4687661482,
				"y": 0.2005091303,
				"z": -1.5202378573,
				"element": "C" 
			},
			{
				"x": -4.6683302476,
				"y": 2.0201770829,
				"z": 0.5509294085,
				"element": "H" 
			},
			{
				"x": -3.7663975399,
				"y": 2.7869511696,
				"z": -0.7826722324,
				"element": "H" 
			},
			{
				"x": -2.8967081154,
				"y": 2.1855529849,
				"z": 0.6527183648,
				"element": "H" 
			},
			{
				"x": 0.4950070064,
				"y": -4.8757750265,
				"z": -0.9585260264,
				"element": "H" 
			},
			{
				"x": 0.3177707837,
				"y": 0.1949139896,
				"z": 0.7712863189,
				"element": "H" 
			},
			{
				"x": 2.620819435,
				"y": -1.6466558089,
				"z": 1.0535778416,
				"element": "H" 
			},
			{
				"x": 4.6851503713,
				"y": -0.772344427,
				"z": 1.7660315351,
				"element": "H" 
			},
			{
				"x": 5.9491981702,
				"y": 1.0045294331,
				"z": 2.9491697176,
				"element": "H" 
			},
			{
				"x": 4.8011456584,
				"y": 3.0731572248,
				"z": 3.6933204136,
				"element": "H" 
			},
			{
				"x": 1.0941459564,
				"y": 3.578797459,
				"z": 3.4980950066,
				"element": "H" 
			},
			{
				"x": 2.2996442196,
				"y": 4.5342863735,
				"z": 2.6314147951,
				"element": "H" 
			},
			{
				"x": 2.5692038639,
				"y": 4.1105111723,
				"z": 4.3222503348,
				"element": "H" 
			},
			{
				"x": 1.0945464208,
				"y": 1.5807962402,
				"z": 2.1305160239,
				"element": "H" 
			},
			{
				"x": -2.179141942,
				"y": -3.4802750565,
				"z": -1.926023885,
				"element": "H" 
			},
			{
				"x": -5.0668233613,
				"y": -2.5837970808,
				"z": -3.3955778735,
				"element": "H" 
			},
			{
				"x": -7.0897674442,
				"y": -1.2642949793,
				"z": -4.0169789168,
				"element": "H" 
			},
			{
				"x": -7.417588598,
				"y": 0.9989233074,
				"z": -3.0233765248,
				"element": "H" 
			},
			{
				"x": -5.7829599947,
				"y": 1.9248487163,
				"z": -1.4566002766,
				"element": "H" 
			}
		],
		 "valence_orbital": [ 
			{
				"type": "occ",
				"energy": -0.24994,
				"method": "rhf"
			},
			{
				"type": "occ",
				"energy": -0.24787,
				"method": "rhf"
			},
			{
				"type": "occ",
				"energy": -0.22487,
				"method": "rhf"
			},
			{
				"type": "occ",
				"energy": -0.21173,
				"method": "rhf"
			},
			{
				"type": "occ",
				"energy": -0.19812,
				"method": "rhf"
			},
			{
				"type": "unocc",
				"energy": -0.06403,
				"method": "rhf"
			},
			{
				"type": "unocc",
				"energy": -0.0412,
				"method": "rhf"
			},
			{
				"type": "unocc",
				"energy": -0.00838,
				"method": "rhf"
			},
			{
				"type": "unocc",
				"energy": -0.00512,
				"method": "rhf"
			},
			{
				"type": "unocc",
				"energy": 0.01714,
				"method": "rhf"
			}
		],
		"cosmo_sigma_profile": { 
			"-0.025": 0.0,
			"-0.024": 0.0,
			"-0.023": 0.0,
			"-0.022": 0.0,
			"-0.021": 0.0,
			"-0.02": 0.0,
			"-0.019": 0.0,
			"-0.018": 0.0,
			"-0.017": 0.195939225608,
			"-0.016": 1.11368643164,
			"-0.015": 1.45808157754,
			"-0.014": 0.936031064369,
			"-0.013": 0.77484878323,
			"-0.012": 0.645550117301,
			"-0.011": 0.995238655444,
			"-0.01": 1.37016043701,
			"-0.009": 1.17469853122,
			"-0.008": 2.23134274062,
			"-0.007": 5.55278399625,
			"-0.006": 15.8987921694,
			"-0.005": 25.6296349907,
			"-0.004": 31.4274583506,
			"-0.003": 27.926233646,
			"-0.002": 29.3693469776,
			"-0.001": 32.9777408756,
			"0.0": 41.4280477262,
			"0.001": 36.90240274,
			"0.002": 32.6464789658,
			"0.003": 26.4985583485,
			"0.004": 24.8801689393,
			"0.005": 17.4175164258,
			"0.006": 6.08647834527,
			"0.007": 5.13761065344,
			"0.008": 5.6572083947,
			"0.009": 3.38665737535,
			"0.01": 2.26600518035,
			"0.011": 2.55023651626,
			"0.012": 2.41355712054,
			"0.013": 2.70590066934,
			"0.014": 2.77525100968,
			"0.015": 0.944374855313,
			"0.016": 0.0,
			"0.017": 0.0,
			"0.018": 0.0,
			"0.019": 0.0,
			"0.02": 0.0,
			"0.021": 0.0,
			"0.022": 0.0,
			"0.023": 0.0,
			"0.024": 0.0,
			"0.025": 0.0
		}
	}
}
