{
	 "smiles": "ClS(=O)(=O)C1=CC2=C(CC1)C=CC=C2", 
	 "Tm": 333.15, 
	 "num_atms": 23, 
	 "gaussian": { 
		 "optdone": 1, 
		 "sigma_profile": "yes", 
		 "theory": "DFT", 
		 "functional": "B3LYP", 
		 "basiset": "6-31G**", 
		 "properties": { 
			 "R2extent": 4345.8967, 
			 "electric_dipole_moment_norm": 6.30970538298, 
			 "electric_quadrupole_moment_norm": 12.351497914, 
			 "total_energy": -1395.25119823, 
			 "HOMO_LUMO_gap": 0.15827, 
			 "cosmo_polarized_energy": -10.02, 
			 "cosmo_cavitation_energy": 29.67, 
			 "cosmo_dispersion_energy": -22.31, 
			 "cosmo_repulsion_energy": 1.7, 
			 "cosmo_total_nonelectrostatic_energy": 9.06, 
			 "SMD_solvation_energy": 3.16 
		},
		"coords": [
			{
				"x": -4.0532901282,
				"y": 0.1035397615,
				"z": -0.7347240064,
				"element": "Cl" 
			},
			{
				"x": -2.5579306039,
				"y": 1.3150779678,
				"z": -1.6876119964,
				"element": "S" 
			},
			{
				"x": -2.458771469,
				"y": 0.8367676696,
				"z": -3.0619760008,
				"element": "O" 
			},
			{
				"x": -2.9164597316,
				"y": 2.6950422609,
				"z": -1.3760271786,
				"element": "O" 
			},
			{
				"x": -1.1188795248,
				"y": 0.8532574906,
				"z": -0.7587403939,
				"element": "C" 
			},
			{
				"x": -0.1999040817,
				"y": 0.0784367497,
				"z": -1.3631175643,
				"element": "C" 
			},
			{
				"x": 1.0036045167,
				"y": -0.3386222323,
				"z": -0.6496417347,
				"element": "C" 
			},
			{
				"x": 1.3257160449,
				"y": 0.2810730448,
				"z": 0.5803112416,
				"element": "C" 
			},
			{
				"x": 0.4773237459,
				"y": 1.4434675015,
				"z": 1.0556935373,
				"element": "C" 
			},
			{
				"x": -1.0075475471,
				"y": 1.299462418,
				"z": 0.677098444,
				"element": "C" 
			},
			{
				"x": 2.4579839005,
				"y": -0.1446706065,
				"z": 1.2723513983,
				"element": "C" 
			},
			{
				"x": 3.2671134621,
				"y": -1.1653634905,
				"z": 0.7630170182,
				"element": "C" 
			},
			{
				"x": 2.954971815,
				"y": -1.7680043798,
				"z": -0.4569882487,
				"element": "C" 
			},
			{
				"x": 1.8282896753,
				"y": -1.3512638642,
				"z": -1.1624753064,
				"element": "C" 
			},
			{
				"x": -0.3557613292,
				"y": -0.2660040464,
				"z": -2.3811726054,
				"element": "H" 
			},
			{
				"x": 0.573060614,
				"y": 1.5697721894,
				"z": 2.138498899,
				"element": "H" 
			},
			{
				"x": 0.866991812,
				"y": 2.3640531057,
				"z": 0.5973804101,
				"element": "H" 
			},
			{
				"x": -1.5020389601,
				"y": 0.5558922961,
				"z": 1.3174402875,
				"element": "H" 
			},
			{
				"x": -1.5285610807,
				"y": 2.248556471,
				"z": 0.8255773412,
				"element": "H" 
			},
			{
				"x": 2.7146684688,
				"y": 0.3263614114,
				"z": 2.2177928002,
				"element": "H" 
			},
			{
				"x": 4.1429562498,
				"y": -1.4861985868,
				"z": 1.3193506693,
				"element": "H" 
			},
			{
				"x": 3.5848135907,
				"y": -2.5575726585,
				"z": -0.8548999466,
				"element": "H" 
			},
			{
				"x": 1.5724505604,
				"y": -1.8170604732,
				"z": -2.1104370644,
				"element": "H" 
			}
		],
		 "valence_orbital": [ 
			{
				"type": "occ",
				"energy": -0.32409,
				"method": "rhf"
			},
			{
				"type": "occ",
				"energy": -0.31848,
				"method": "rhf"
			},
			{
				"type": "occ",
				"energy": -0.30705,
				"method": "rhf"
			},
			{
				"type": "occ",
				"energy": -0.26872,
				"method": "rhf"
			},
			{
				"type": "occ",
				"energy": -0.24888,
				"method": "rhf"
			},
			{
				"type": "unocc",
				"energy": -0.09061,
				"method": "rhf"
			},
			{
				"type": "unocc",
				"energy": -0.05655,
				"method": "rhf"
			},
			{
				"type": "unocc",
				"energy": -0.02308,
				"method": "rhf"
			},
			{
				"type": "unocc",
				"energy": 0.01889,
				"method": "rhf"
			},
			{
				"type": "unocc",
				"energy": 0.06048,
				"method": "rhf"
			}
		],
		"cosmo_sigma_profile": { 
			"-0.025": 0.0,
			"-0.024": 0.0,
			"-0.023": 0.0,
			"-0.022": 0.0,
			"-0.021": 0.0,
			"-0.02": 0.0,
			"-0.019": 0.0,
			"-0.018": 0.0,
			"-0.017": 0.0,
			"-0.016": 0.0,
			"-0.015": 0.0,
			"-0.014": 0.0,
			"-0.013": 0.0,
			"-0.012": 0.0,
			"-0.011": 0.0,
			"-0.01": 0.0,
			"-0.009": 0.876363713309,
			"-0.008": 2.44190928012,
			"-0.007": 3.71487059686,
			"-0.006": 11.4514261895,
			"-0.005": 20.2608342733,
			"-0.004": 23.3274889041,
			"-0.003": 21.6056321588,
			"-0.002": 18.9487573687,
			"-0.001": 17.0537463538,
			"0.0": 14.2888741995,
			"0.001": 14.5486781191,
			"0.002": 15.559282192,
			"0.003": 19.2799773415,
			"0.004": 24.3750724121,
			"0.005": 6.38909695564,
			"0.006": 2.99801165891,
			"0.007": 4.62179718341,
			"0.008": 9.67016623479,
			"0.009": 7.5359387988,
			"0.01": 0.611090196696,
			"0.011": 0.0,
			"0.012": 0.0,
			"0.013": 0.0,
			"0.014": 0.0,
			"0.015": 0.0,
			"0.016": 0.0,
			"0.017": 0.0,
			"0.018": 0.0,
			"0.019": 0.0,
			"0.02": 0.0,
			"0.021": 0.0,
			"0.022": 0.0,
			"0.023": 0.0,
			"0.024": 0.0,
			"0.025": 0.0
		}
	}
}
