{
	 "smiles": "CCOC(=O)C1=C2N=C(Cl)C3=C(C=CC=C3)N2N=C1", 
	 "Tm": 403.15, 
	 "num_atms": 29, 
	 "gaussian": { 
		 "optdone": 1, 
		 "sigma_profile": "yes", 
		 "theory": "DFT", 
		 "functional": "B3LYP", 
		 "basiset": "6-31G**", 
		 "properties": { 
			 "R2extent": 7064.1323, 
			 "electric_dipole_moment_norm": 4.09862857795, 
			 "electric_quadrupole_moment_norm": 14.5328879305, 
			 "total_energy": -1276.310819, 
			 "HOMO_LUMO_gap": 0.15711, 
			 "cosmo_polarized_energy": -12.72, 
			 "cosmo_cavitation_energy": 35.83, 
			 "cosmo_dispersion_energy": -26.17, 
			 "cosmo_repulsion_energy": 2.01, 
			 "cosmo_total_nonelectrostatic_energy": 11.67, 
			 "SMD_solvation_energy": 4.84 
		},
		"coords": [
			{
				"x": 2.6465008317,
				"y": 2.2798852095,
				"z": 3.7558841412,
				"element": "C" 
			},
			{
				"x": 3.2324035141,
				"y": 0.9980838676,
				"z": 3.1822039621,
				"element": "C" 
			},
			{
				"x": 2.3189229455,
				"y": 0.3724549892,
				"z": 2.251541866,
				"element": "O" 
			},
			{
				"x": 2.3630916963,
				"y": 0.8141973654,
				"z": 0.9784628825,
				"element": "C" 
			},
			{
				"x": 3.1153216003,
				"y": 1.6853844524,
				"z": 0.577073689,
				"element": "O" 
			},
			{
				"x": 1.4017990337,
				"y": 0.125009941,
				"z": 0.108082147,
				"element": "C" 
			},
			{
				"x": 0.4658153019,
				"y": -0.8845086205,
				"z": 0.366691528,
				"element": "C" 
			},
			{
				"x": 0.1228976412,
				"y": -1.5687082342,
				"z": 1.4897544857,
				"element": "N" 
			},
			{
				"x": -0.8043027429,
				"y": -2.4607977714,
				"z": 1.3922902574,
				"element": "C" 
			},
			{
				"x": -1.2185290934,
				"y": -3.3241199227,
				"z": 2.869472159,
				"element": "Cl" 
			},
			{
				"x": -1.5183149518,
				"y": -2.8000350258,
				"z": 0.1790617438,
				"element": "C" 
			},
			{
				"x": -1.1538805184,
				"y": -2.08003567,
				"z": -0.9885861031,
				"element": "C" 
			},
			{
				"x": -1.7775930439,
				"y": -2.3231294898,
				"z": -2.2209362136,
				"element": "C" 
			},
			{
				"x": -2.768417037,
				"y": -3.2884577646,
				"z": -2.287159862,
				"element": "C" 
			},
			{
				"x": -3.1473217829,
				"y": -4.0157769288,
				"z": -1.142862196,
				"element": "C" 
			},
			{
				"x": -2.5316211037,
				"y": -3.7755155955,
				"z": 0.072753922,
				"element": "C" 
			},
			{
				"x": -0.1570411239,
				"y": -1.1314947834,
				"z": -0.8485726202,
				"element": "N" 
			},
			{
				"x": 0.3164947699,
				"y": -0.3525596694,
				"z": -1.8549198697,
				"element": "N" 
			},
			{
				"x": 1.2480260343,
				"y": 0.3961050694,
				"z": -1.2702872274,
				"element": "C" 
			},
			{
				"x": 2.518921887,
				"y": 3.0282912926,
				"z": 2.9699679837,
				"element": "H" 
			},
			{
				"x": 3.3213968561,
				"y": 2.6900942835,
				"z": 4.5147384415,
				"element": "H" 
			},
			{
				"x": 1.6770437316,
				"y": 2.0879519078,
				"z": 4.2248856195,
				"element": "H" 
			},
			{
				"x": 4.179590386,
				"y": 1.1916831349,
				"z": 2.6729861414,
				"element": "H" 
			},
			{
				"x": 3.382982209,
				"y": 0.2443378778,
				"z": 3.9585595095,
				"element": "H" 
			},
			{
				"x": -1.4673529351,
				"y": -1.7497957295,
				"z": -3.0857829612,
				"element": "H" 
			},
			{
				"x": -3.2580118376,
				"y": -3.4849425707,
				"z": -3.2361215981,
				"element": "H" 
			},
			{
				"x": -3.9257607718,
				"y": -4.7683708503,
				"z": -1.2140113391,
				"element": "H" 
			},
			{
				"x": -2.8185343425,
				"y": -4.331705514,
				"z": 0.957150205,
				"element": "H" 
			},
			{
				"x": 1.8023728463,
				"y": 1.1239747498,
				"z": -1.8461206941,
				"element": "H" 
			}
		],
		 "valence_orbital": [ 
			{
				"type": "occ",
				"energy": -0.28926,
				"method": "rhf"
			},
			{
				"type": "occ",
				"energy": -0.2868,
				"method": "rhf"
			},
			{
				"type": "occ",
				"energy": -0.26848,
				"method": "rhf"
			},
			{
				"type": "occ",
				"energy": -0.25418,
				"method": "rhf"
			},
			{
				"type": "occ",
				"energy": -0.24113,
				"method": "rhf"
			},
			{
				"type": "unocc",
				"energy": -0.08402,
				"method": "rhf"
			},
			{
				"type": "unocc",
				"energy": -0.0444,
				"method": "rhf"
			},
			{
				"type": "unocc",
				"energy": -0.01766,
				"method": "rhf"
			},
			{
				"type": "unocc",
				"energy": 0.00934,
				"method": "rhf"
			},
			{
				"type": "unocc",
				"energy": 0.01982,
				"method": "rhf"
			}
		],
		"cosmo_sigma_profile": { 
			"-0.025": 0.0,
			"-0.024": 0.0,
			"-0.023": 0.0,
			"-0.022": 0.0,
			"-0.021": 0.0,
			"-0.02": 0.0,
			"-0.019": 0.0,
			"-0.018": 0.0,
			"-0.017": 0.0,
			"-0.016": 0.0,
			"-0.015": 0.0,
			"-0.014": 0.0,
			"-0.013": 0.0,
			"-0.012": 0.0,
			"-0.011": 0.0,
			"-0.01": 0.0,
			"-0.009": 0.544614066891,
			"-0.008": 3.42999600539,
			"-0.007": 10.1510319063,
			"-0.006": 13.6026497282,
			"-0.005": 12.9213277719,
			"-0.004": 21.6636989027,
			"-0.003": 26.8031415896,
			"-0.002": 28.1006392592,
			"-0.001": 29.5374133814,
			"0.0": 34.397395649,
			"0.001": 25.6826437373,
			"0.002": 19.8223520981,
			"0.003": 13.2752849354,
			"0.004": 9.27928434309,
			"0.005": 6.09000075921,
			"0.006": 4.83312109304,
			"0.007": 4.95535567679,
			"0.008": 4.00321764897,
			"0.009": 4.32913474391,
			"0.01": 3.45057414081,
			"0.011": 5.00879498805,
			"0.012": 5.85328934593,
			"0.013": 1.83071433174,
			"0.014": 0.908511711063,
			"0.015": 0.123470555981,
			"0.016": 0.0,
			"0.017": 0.0,
			"0.018": 0.0,
			"0.019": 0.0,
			"0.02": 0.0,
			"0.021": 0.0,
			"0.022": 0.0,
			"0.023": 0.0,
			"0.024": 0.0,
			"0.025": 0.0
		}
	}
}
