{
	 "smiles": "CC1=NOC(=C1)C(O)=O", 
	 "Tm": 473.15, 
	 "num_atms": 14, 
	 "gaussian": { 
		 "optdone": 1, 
		 "sigma_profile": "yes", 
		 "theory": "DFT", 
		 "functional": "B3LYP", 
		 "basiset": "6-31G**", 
		 "properties": { 
			 "R2extent": 1815.6081, 
			 "electric_dipole_moment_norm": 6.2411880039, 
			 "electric_quadrupole_moment_norm": 13.6147815161, 
			 "total_energy": -473.913600993, 
			 "HOMO_LUMO_gap": 0.216, 
			 "cosmo_polarized_energy": -18.9, 
			 "cosmo_cavitation_energy": 19.39, 
			 "cosmo_dispersion_energy": -14.42, 
			 "cosmo_repulsion_energy": 1.2, 
			 "cosmo_total_nonelectrostatic_energy": 6.17, 
			 "SMD_solvation_energy": 4.91 
		},
		"coords": [
			{
				"x": 2.7188783104,
				"y": -0.2409515487,
				"z": -0.3819518464,
				"element": "C" 
			},
			{
				"x": 1.3117793506,
				"y": -0.7593874919,
				"z": -0.3297224422,
				"element": "C" 
			},
			{
				"x": 0.7991264738,
				"y": -1.202206088,
				"z": 0.8017492053,
				"element": "N" 
			},
			{
				"x": -0.4952935116,
				"y": -1.602652621,
				"z": 0.5149684022,
				"element": "O" 
			},
			{
				"x": -0.7460208222,
				"y": -1.3947386271,
				"z": -0.7918298627,
				"element": "C" 
			},
			{
				"x": 0.3627981039,
				"y": -0.8595240953,
				"z": -1.3875004081,
				"element": "C" 
			},
			{
				"x": -2.1044391762,
				"y": -1.7748954616,
				"z": -1.2694587126,
				"element": "C" 
			},
			{
				"x": -2.3374758199,
				"y": -1.5571859643,
				"z": -2.5886867933,
				"element": "O" 
			},
			{
				"x": -2.9517673424,
				"y": -2.2417745181,
				"z": -0.5539165781,
				"element": "O" 
			},
			{
				"x": 2.9744204843,
				"y": 0.0821453849,
				"z": -1.393290501,
				"element": "H" 
			},
			{
				"x": 2.843791355,
				"y": 0.6092862625,
				"z": 0.2944450502,
				"element": "H" 
			},
			{
				"x": 3.4285125518,
				"y": -1.0151010512,
				"z": -0.0767657787,
				"element": "H" 
			},
			{
				"x": 0.5135683384,
				"y": -0.5700468454,
				"z": -2.4176975045,
				"element": "H" 
			},
			{
				"x": -1.5627782959,
				"y": -1.1789673351,
				"z": -3.0269422302,
				"element": "H" 
			}
		],
		 "valence_orbital": [ 
			{
				"type": "occ",
				"energy": -0.33317,
				"method": "rhf"
			},
			{
				"type": "occ",
				"energy": -0.32055,
				"method": "rhf"
			},
			{
				"type": "occ",
				"energy": -0.30901,
				"method": "rhf"
			},
			{
				"type": "occ",
				"energy": -0.2924,
				"method": "rhf"
			},
			{
				"type": "occ",
				"energy": -0.28755,
				"method": "rhf"
			},
			{
				"type": "unocc",
				"energy": -0.07155,
				"method": "rhf"
			},
			{
				"type": "unocc",
				"energy": 0.01214,
				"method": "rhf"
			},
			{
				"type": "unocc",
				"energy": 0.03676,
				"method": "rhf"
			},
			{
				"type": "unocc",
				"energy": 0.08055,
				"method": "rhf"
			},
			{
				"type": "unocc",
				"energy": 0.08613,
				"method": "rhf"
			}
		],
		"cosmo_sigma_profile": { 
			"-0.025": 0.0,
			"-0.024": 0.0,
			"-0.023": 0.0,
			"-0.022": 0.0,
			"-0.021": 0.0,
			"-0.02": 0.384588639731,
			"-0.019": 1.49616230553,
			"-0.018": 1.04672854205,
			"-0.017": 0.827532595367,
			"-0.016": 1.51000112949,
			"-0.015": 1.00099973023,
			"-0.014": 1.40282478314,
			"-0.013": 0.813229652962,
			"-0.012": 1.71406959614,
			"-0.011": 1.59796133008,
			"-0.01": 1.40817488695,
			"-0.009": 1.91088169681,
			"-0.008": 3.02798884131,
			"-0.007": 3.43173098364,
			"-0.006": 8.40583311289,
			"-0.005": 8.21209182086,
			"-0.004": 9.43123171347,
			"-0.003": 11.6607262386,
			"-0.002": 14.735140709,
			"-0.001": 11.0912298914,
			"0.0": 6.67101199654,
			"0.001": 3.76845931062,
			"0.002": 3.32505339678,
			"0.003": 3.97270619158,
			"0.004": 3.60358377406,
			"0.005": 4.73949873668,
			"0.006": 4.96595946074,
			"0.007": 6.88866591338,
			"0.008": 6.49271925113,
			"0.009": 7.53575089895,
			"0.01": 7.20154341872,
			"0.011": 6.78732782124,
			"0.012": 2.82548933121,
			"0.013": 1.22373446129,
			"0.014": 0.15071218732,
			"0.015": 0.0,
			"0.016": 0.0,
			"0.017": 0.0,
			"0.018": 0.0,
			"0.019": 0.0,
			"0.02": 0.0,
			"0.021": 0.0,
			"0.022": 0.0,
			"0.023": 0.0,
			"0.024": 0.0,
			"0.025": 0.0
		}
	}
}
