{
	 "smiles": "COC1=C(OC)C=C(CCNC(=O)C(C)Cl)C=C1", 
	 "Tm": 350.15, 
	 "num_atms": 36, 
	 "gaussian": { 
		 "optdone": 1, 
		 "sigma_profile": "yes", 
		 "theory": "DFT", 
		 "functional": "B3LYP", 
		 "basiset": "6-31G**", 
		 "properties": { 
			 "R2extent": 7271.3796, 
			 "electric_dipole_moment_norm": 3.50445254355, 
			 "electric_quadrupole_moment_norm": 6.84286306454, 
			 "total_energy": -1246.84904143, 
			 "HOMO_LUMO_gap": 0.21246, 
			 "cosmo_polarized_energy": -13.84, 
			 "cosmo_cavitation_energy": 41.03, 
			 "cosmo_dispersion_energy": -27.85, 
			 "cosmo_repulsion_energy": 2.21, 
			 "cosmo_total_nonelectrostatic_energy": 15.39, 
			 "SMD_solvation_energy": 8.08 
		},
		"coords": [
			{
				"x": -3.0773636158,
				"y": 0.5008577824,
				"z": -3.3836868394,
				"element": "C" 
			},
			{
				"x": -1.8344861641,
				"y": 1.184129652,
				"z": -3.3360905486,
				"element": "O" 
			},
			{
				"x": -0.872531691,
				"y": 0.7106326523,
				"z": -2.4895659159,
				"element": "C" 
			},
			{
				"x": 0.3342743901,
				"y": 1.44771485,
				"z": -2.4399223968,
				"element": "C" 
			},
			{
				"x": 0.5081189382,
				"y": 2.5973335898,
				"z": -3.1699307289,
				"element": "O" 
			},
			{
				"x": 0.5725577594,
				"y": 2.4384547961,
				"z": -4.5893877491,
				"element": "C" 
			},
			{
				"x": 1.3515640983,
				"y": 1.0445252828,
				"z": -1.5819209961,
				"element": "C" 
			},
			{
				"x": 1.2224360478,
				"y": -0.0849194038,
				"z": -0.7573831631,
				"element": "C" 
			},
			{
				"x": 2.3276725485,
				"y": -0.4690888364,
				"z": 0.2034878486,
				"element": "C" 
			},
			{
				"x": 2.2828127771,
				"y": 0.3123150542,
				"z": 1.5327030326,
				"element": "C" 
			},
			{
				"x": 1.0614675574,
				"y": 0.0662943238,
				"z": 2.2854272761,
				"element": "N" 
			},
			{
				"x": 1.070863108,
				"y": -0.4849817265,
				"z": 3.5203502998,
				"element": "C" 
			},
			{
				"x": 2.0835549709,
				"y": -0.8116035204,
				"z": 4.1332071993,
				"element": "O" 
			},
			{
				"x": -0.2742021624,
				"y": -0.7222819974,
				"z": 4.2322523846,
				"element": "C" 
			},
			{
				"x": -0.4350211221,
				"y": -2.1858961146,
				"z": 4.62910548,
				"element": "C" 
			},
			{
				"x": -1.7477323717,
				"y": -0.1695531409,
				"z": 3.2794782855,
				"element": "Cl" 
			},
			{
				"x": 0.0321794272,
				"y": -0.8116832637,
				"z": -0.8303549495,
				"element": "C" 
			},
			{
				"x": -1.0060332145,
				"y": -0.4223970856,
				"z": -1.6846489495,
				"element": "C" 
			},
			{
				"x": -3.570299526,
				"y": 0.4930044876,
				"z": -2.4033558163,
				"element": "H" 
			},
			{
				"x": -3.6965945872,
				"y": 1.0521855425,
				"z": -4.0928238663,
				"element": "H" 
			},
			{
				"x": -2.9598224036,
				"y": -0.5327800579,
				"z": -3.734183176,
				"element": "H" 
			},
			{
				"x": -0.3654746054,
				"y": 2.0485030871,
				"z": -4.994370689,
				"element": "H" 
			},
			{
				"x": 0.7604354808,
				"y": 3.4339939868,
				"z": -4.9968764577,
				"element": "H" 
			},
			{
				"x": 1.3987576243,
				"y": 1.772417607,
				"z": -4.8710372108,
				"element": "H" 
			},
			{
				"x": 2.2587733862,
				"y": 1.6426971192,
				"z": -1.5698726292,
				"element": "H" 
			},
			{
				"x": 2.2776810894,
				"y": -1.5404969561,
				"z": 0.4267722578,
				"element": "H" 
			},
			{
				"x": 3.3052627725,
				"y": -0.2828672364,
				"z": -0.2575411623,
				"element": "H" 
			},
			{
				"x": 3.1106130792,
				"y": 0.0150982488,
				"z": 2.17982748,
				"element": "H" 
			},
			{
				"x": 2.374658006,
				"y": 1.3870771448,
				"z": 1.3316149107,
				"element": "H" 
			},
			{
				"x": 0.1727282594,
				"y": 0.2898065631,
				"z": 1.8589093491,
				"element": "H" 
			},
			{
				"x": -0.2726188525,
				"y": -0.0848499024,
				"z": 5.1185764281,
				"element": "H" 
			},
			{
				"x": -0.5129818358,
				"y": -2.8233352035,
				"z": 3.7439823797,
				"element": "H" 
			},
			{
				"x": -1.3279415186,
				"y": -2.3251181665,
				"z": 5.2421038185,
				"element": "H" 
			},
			{
				"x": 0.4486419202,
				"y": -2.4823287468,
				"z": 5.1991256345,
				"element": "H" 
			},
			{
				"x": -0.0967874199,
				"y": -1.6987335318,
				"z": -0.2161111366,
				"element": "H" 
			},
			{
				"x": -1.9177621502,
				"y": -1.0075268796,
				"z": -1.7089596838,
				"element": "H" 
			}
		],
		 "valence_orbital": [ 
			{
				"type": "occ",
				"energy": -0.2752,
				"method": "rhf"
			},
			{
				"type": "occ",
				"energy": -0.25565,
				"method": "rhf"
			},
			{
				"type": "occ",
				"energy": -0.2525,
				"method": "rhf"
			},
			{
				"type": "occ",
				"energy": -0.24169,
				"method": "rhf"
			},
			{
				"type": "occ",
				"energy": -0.21467,
				"method": "rhf"
			},
			{
				"type": "unocc",
				"energy": -0.00221,
				"method": "rhf"
			},
			{
				"type": "unocc",
				"energy": 0.00541,
				"method": "rhf"
			},
			{
				"type": "unocc",
				"energy": 0.01645,
				"method": "rhf"
			},
			{
				"type": "unocc",
				"energy": 0.02347,
				"method": "rhf"
			},
			{
				"type": "unocc",
				"energy": 0.08296,
				"method": "rhf"
			}
		],
		"cosmo_sigma_profile": { 
			"-0.025": 0.0,
			"-0.024": 0.0,
			"-0.023": 0.0,
			"-0.022": 0.0,
			"-0.021": 0.0,
			"-0.02": 0.0,
			"-0.019": 0.0,
			"-0.018": 0.0,
			"-0.017": 0.0,
			"-0.016": 0.0,
			"-0.015": 0.0,
			"-0.014": 0.0,
			"-0.013": 0.0,
			"-0.012": 0.0,
			"-0.011": 0.0,
			"-0.01": 0.0,
			"-0.009": 0.392148380175,
			"-0.008": 3.0678493862,
			"-0.007": 3.25765897097,
			"-0.006": 9.16524861823,
			"-0.005": 26.8699376372,
			"-0.004": 38.326753342,
			"-0.003": 40.0497867654,
			"-0.002": 34.7565348448,
			"-0.001": 26.8367290804,
			"0.0": 20.2060293081,
			"0.001": 18.0062186108,
			"0.002": 15.4317815519,
			"0.003": 16.6714548792,
			"0.004": 17.375261931,
			"0.005": 15.2597460579,
			"0.006": 11.0056049826,
			"0.007": 3.15905637462,
			"0.008": 3.76704411025,
			"0.009": 3.26304195242,
			"0.01": 3.85240423672,
			"0.011": 3.80301828145,
			"0.012": 4.18551379781,
			"0.013": 4.42167267736,
			"0.014": 2.0992148445,
			"0.015": 0.0,
			"0.016": 0.0,
			"0.017": 0.0,
			"0.018": 0.0,
			"0.019": 0.0,
			"0.02": 0.0,
			"0.021": 0.0,
			"0.022": 0.0,
			"0.023": 0.0,
			"0.024": 0.0,
			"0.025": 0.0
		}
	}
}
