{
	 "smiles": "CC1CN(CC(C)O1)C1=CC(F)=CC(N)=C1", 
	 "Tm": 354.15, 
	 "num_atms": 33, 
	 "gaussian": { 
		 "optdone": 1, 
		 "sigma_profile": "yes", 
		 "theory": "DFT", 
		 "functional": "B3LYP", 
		 "basiset": "6-31G**", 
		 "properties": { 
			 "R2extent": 5317.9329, 
			 "electric_dipole_moment_norm": 2.61317046134, 
			 "electric_quadrupole_moment_norm": 16.8187043044, 
			 "total_energy": -752.080489452, 
			 "HOMO_LUMO_gap": 0.20902, 
			 "cosmo_polarized_energy": -12.06, 
			 "cosmo_cavitation_energy": 34.68, 
			 "cosmo_dispersion_energy": -25.05, 
			 "cosmo_repulsion_energy": 1.94, 
			 "cosmo_total_nonelectrostatic_energy": 11.57, 
			 "SMD_solvation_energy": 5.16 
		},
		"coords": [
			{
				"x": -3.268790692,
				"y": -0.1909989711,
				"z": 3.126274096,
				"element": "C" 
			},
			{
				"x": -1.90837299,
				"y": -0.3997618491,
				"z": 2.4741216104,
				"element": "C" 
			},
			{
				"x": -1.5404354092,
				"y": 0.7394400536,
				"z": 1.5194656757,
				"element": "C" 
			},
			{
				"x": -0.2477241109,
				"y": 0.4819045941,
				"z": 0.8978734313,
				"element": "N" 
			},
			{
				"x": 0.1367992556,
				"y": -0.9149731947,
				"z": 0.7507780471,
				"element": "C" 
			},
			{
				"x": -1.1079646252,
				"y": -1.8020456947,
				"z": 0.6591562799,
				"element": "C" 
			},
			{
				"x": -0.7572519356,
				"y": -3.2787306296,
				"z": 0.5318824208,
				"element": "C" 
			},
			{
				"x": -1.9485695486,
				"y": -1.6661889196,
				"z": 1.8082230256,
				"element": "O" 
			},
			{
				"x": 0.5811394063,
				"y": 1.5141725812,
				"z": 0.4855366544,
				"element": "C" 
			},
			{
				"x": 0.0833766262,
				"y": 2.8319897098,
				"z": 0.3721385304,
				"element": "C" 
			},
			{
				"x": 0.9502330374,
				"y": 3.8306407191,
				"z": -0.0432247544,
				"element": "C" 
			},
			{
				"x": 0.4580892539,
				"y": 5.0861518673,
				"z": -0.1587332787,
				"element": "F" 
			},
			{
				"x": 2.2815563518,
				"y": 3.6195937282,
				"z": -0.3663631669,
				"element": "C" 
			},
			{
				"x": 2.7769025362,
				"y": 2.3098254147,
				"z": -0.2565616788,
				"element": "C" 
			},
			{
				"x": 4.1277835219,
				"y": 2.0530214655,
				"z": -0.5014688068,
				"element": "N" 
			},
			{
				"x": 1.9334591188,
				"y": 1.2719409574,
				"z": 0.1662190055,
				"element": "C" 
			},
			{
				"x": -3.516117843,
				"y": -1.0538464529,
				"z": 3.7502001545,
				"element": "H" 
			},
			{
				"x": -3.267533259,
				"y": 0.7038136643,
				"z": 3.7569850344,
				"element": "H" 
			},
			{
				"x": -4.0488805113,
				"y": -0.0865087925,
				"z": 2.3655037546,
				"element": "H" 
			},
			{
				"x": -1.1346157563,
				"y": -0.4374390833,
				"z": 3.2585593712,
				"element": "H" 
			},
			{
				"x": -2.3440221688,
				"y": 0.8696766727,
				"z": 0.7750443585,
				"element": "H" 
			},
			{
				"x": -1.4835970553,
				"y": 1.6652037192,
				"z": 2.1012654793,
				"element": "H" 
			},
			{
				"x": 0.7107842299,
				"y": -1.0368423238,
				"z": -0.1744370707,
				"element": "H" 
			},
			{
				"x": 0.7758533395,
				"y": -1.26373037,
				"z": 1.5800171252,
				"element": "H" 
			},
			{
				"x": -1.6732681553,
				"y": -1.488183326,
				"z": -0.2340100265,
				"element": "H" 
			},
			{
				"x": -0.1407905209,
				"y": -3.6023905424,
				"z": 1.3765413148,
				"element": "H" 
			},
			{
				"x": -1.6720649487,
				"y": -3.8770684211,
				"z": 0.5302582762,
				"element": "H" 
			},
			{
				"x": -0.2140103628,
				"y": -3.4737827647,
				"z": -0.3984299477,
				"element": "H" 
			},
			{
				"x": -0.9524256838,
				"y": 3.0830880054,
				"z": 0.5544965978,
				"element": "H" 
			},
			{
				"x": 2.9063004715,
				"y": 4.4479200749,
				"z": -0.681074819,
				"element": "H" 
			},
			{
				"x": 4.3410210896,
				"y": 1.100986747,
				"z": -0.765060857,
				"element": "H" 
			},
			{
				"x": 4.5855409868,
				"y": 2.7214631125,
				"z": -1.1055065869,
				"element": "H" 
			},
			{
				"x": 2.3572963515,
				"y": 0.2822582488,
				"z": 0.2921307502,
				"element": "H" 
			}
		],
		 "valence_orbital": [ 
			{
				"type": "occ",
				"energy": -0.3036,
				"method": "rhf"
			},
			{
				"type": "occ",
				"energy": -0.2586,
				"method": "rhf"
			},
			{
				"type": "occ",
				"energy": -0.24923,
				"method": "rhf"
			},
			{
				"type": "occ",
				"energy": -0.20243,
				"method": "rhf"
			},
			{
				"type": "occ",
				"energy": -0.18527,
				"method": "rhf"
			},
			{
				"type": "unocc",
				"energy": 0.02375,
				"method": "rhf"
			},
			{
				"type": "unocc",
				"energy": 0.02742,
				"method": "rhf"
			},
			{
				"type": "unocc",
				"energy": 0.07749,
				"method": "rhf"
			},
			{
				"type": "unocc",
				"energy": 0.08464,
				"method": "rhf"
			},
			{
				"type": "unocc",
				"energy": 0.10528,
				"method": "rhf"
			}
		],
		"cosmo_sigma_profile": { 
			"-0.025": 0.0,
			"-0.024": 0.0,
			"-0.023": 0.0,
			"-0.022": 0.0,
			"-0.021": 0.0,
			"-0.02": 0.0,
			"-0.019": 0.0,
			"-0.018": 0.0,
			"-0.017": 0.0,
			"-0.016": 0.0,
			"-0.015": 0.0,
			"-0.014": 0.0,
			"-0.013": 0.0304499245554,
			"-0.012": 2.25815675516,
			"-0.011": 2.36756185094,
			"-0.01": 3.22409947222,
			"-0.009": 2.83042759913,
			"-0.008": 3.13951845699,
			"-0.007": 2.76902469405,
			"-0.006": 5.38402862728,
			"-0.005": 12.104709865,
			"-0.004": 23.1996849273,
			"-0.003": 36.8437929988,
			"-0.002": 26.2832373747,
			"-0.001": 21.2881833982,
			"0.0": 20.3608853896,
			"0.001": 15.5227680241,
			"0.002": 9.65671501703,
			"0.003": 13.2869361642,
			"0.004": 14.2891555512,
			"0.005": 20.1319998244,
			"0.006": 14.104961304,
			"0.007": 7.92758492419,
			"0.008": 2.29233730071,
			"0.009": 3.14895681028,
			"0.01": 1.57468800268,
			"0.011": 1.83133140163,
			"0.012": 2.12181445718,
			"0.013": 2.15004816438,
			"0.014": 0.620269356115,
			"0.015": 0.266676007897,
			"0.016": 0.0,
			"0.017": 0.0,
			"0.018": 0.0,
			"0.019": 0.0,
			"0.02": 0.0,
			"0.021": 0.0,
			"0.022": 0.0,
			"0.023": 0.0,
			"0.024": 0.0,
			"0.025": 0.0
		}
	}
}
