{
	 "smiles": "CCN1C(C=O)=NC2=C1C=CC=C2", 
	 "Tm": 323.15, 
	 "num_atms": 23, 
	 "gaussian": { 
		 "optdone": 1, 
		 "sigma_profile": "yes", 
		 "theory": "DFT", 
		 "functional": "B3LYP", 
		 "basiset": "6-31G**", 
		 "properties": { 
			 "R2extent": 2615.465, 
			 "electric_dipole_moment_norm": 3.09407981474, 
			 "electric_quadrupole_moment_norm": 5.33222257131, 
			 "total_energy": -571.825386012, 
			 "HOMO_LUMO_gap": 0.15895, 
			 "cosmo_polarized_energy": -9.3, 
			 "cosmo_cavitation_energy": 26.87, 
			 "cosmo_dispersion_energy": -19.36, 
			 "cosmo_repulsion_energy": 1.51, 
			 "cosmo_total_nonelectrostatic_energy": 9.01, 
			 "SMD_solvation_energy": 3.48 
		},
		"coords": [
			{
				"x": -1.4102358887,
				"y": 2.2119163195,
				"z": 0.6103672485,
				"element": "C" 
			},
			{
				"x": 0.0962606062,
				"y": 2.2844970849,
				"z": 0.3566206213,
				"element": "C" 
			},
			{
				"x": 0.719801214,
				"y": 0.9597769715,
				"z": 0.2649175151,
				"element": "N" 
			},
			{
				"x": 1.2053281902,
				"y": 0.1693277769,
				"z": 1.2942865824,
				"element": "C" 
			},
			{
				"x": 1.2079371269,
				"y": 0.533579914,
				"z": 2.7146772745,
				"element": "C" 
			},
			{
				"x": 0.7512678854,
				"y": 1.5646425499,
				"z": 3.1828448461,
				"element": "O" 
			},
			{
				"x": 1.6882084811,
				"y": -0.9939265776,
				"z": 0.8843646872,
				"element": "N" 
			},
			{
				"x": 1.510850565,
				"y": -0.9901275074,
				"z": -0.4765814866,
				"element": "C" 
			},
			{
				"x": 0.8996492121,
				"y": 0.2256381164,
				"z": -0.8880975064,
				"element": "C" 
			},
			{
				"x": 0.6045441877,
				"y": 0.492227005,
				"z": -2.2323543697,
				"element": "C" 
			},
			{
				"x": 0.9409668319,
				"y": -0.4921322186,
				"z": -3.1521803034,
				"element": "C" 
			},
			{
				"x": 1.5509041677,
				"y": -1.7073216694,
				"z": -2.7584571847,
				"element": "C" 
			},
			{
				"x": 1.8413878564,
				"y": -1.9704132057,
				"z": -1.429411129,
				"element": "C" 
			},
			{
				"x": -1.6088539102,
				"y": 1.7496133795,
				"z": 1.5804034237,
				"element": "H" 
			},
			{
				"x": -1.8333521415,
				"y": 3.2212971579,
				"z": 0.6218465276,
				"element": "H" 
			},
			{
				"x": -1.9179707305,
				"y": 1.633914148,
				"z": -0.1676256464,
				"element": "H" 
			},
			{
				"x": 0.3115058263,
				"y": 2.8021561974,
				"z": -0.5829725435,
				"element": "H" 
			},
			{
				"x": 0.5872513249,
				"y": 2.8259276341,
				"z": 1.1648527943,
				"element": "H" 
			},
			{
				"x": 1.6766197687,
				"y": -0.2470253418,
				"z": 3.3438560859,
				"element": "H" 
			},
			{
				"x": 0.1328819,
				"y": 1.4174104538,
				"z": -2.5474336466,
				"element": "H" 
			},
			{
				"x": 0.7284310988,
				"y": -0.3267757153,
				"z": -4.2042878582,
				"element": "H" 
			},
			{
				"x": 1.7928823732,
				"y": -2.4438549173,
				"z": -3.5185600939,
				"element": "H" 
			},
			{
				"x": 2.3091340544,
				"y": -2.8978475556,
				"z": -1.1158758382,
				"element": "H" 
			}
		],
		 "valence_orbital": [ 
			{
				"type": "occ",
				"energy": -0.30782,
				"method": "rhf"
			},
			{
				"type": "occ",
				"energy": -0.28581,
				"method": "rhf"
			},
			{
				"type": "occ",
				"energy": -0.26512,
				"method": "rhf"
			},
			{
				"type": "occ",
				"energy": -0.23866,
				"method": "rhf"
			},
			{
				"type": "occ",
				"energy": -0.23368,
				"method": "rhf"
			},
			{
				"type": "unocc",
				"energy": -0.07473,
				"method": "rhf"
			},
			{
				"type": "unocc",
				"energy": 0.0016,
				"method": "rhf"
			},
			{
				"type": "unocc",
				"energy": 0.01504,
				"method": "rhf"
			},
			{
				"type": "unocc",
				"energy": 0.07759,
				"method": "rhf"
			},
			{
				"type": "unocc",
				"energy": 0.0864,
				"method": "rhf"
			}
		],
		"cosmo_sigma_profile": { 
			"-0.025": 0.0,
			"-0.024": 0.0,
			"-0.023": 0.0,
			"-0.022": 0.0,
			"-0.021": 0.0,
			"-0.02": 0.0,
			"-0.019": 0.0,
			"-0.018": 0.0,
			"-0.017": 0.0,
			"-0.016": 0.0,
			"-0.015": 0.0,
			"-0.014": 0.0,
			"-0.013": 0.0,
			"-0.012": 0.0,
			"-0.011": 0.0,
			"-0.01": 0.0,
			"-0.009": 0.0,
			"-0.008": 0.985614416943,
			"-0.007": 6.24419914495,
			"-0.006": 11.0797105897,
			"-0.005": 14.6241807841,
			"-0.004": 22.6929189343,
			"-0.003": 24.1169371776,
			"-0.002": 18.4373335511,
			"-0.001": 17.4611022045,
			"0.0": 16.9168042679,
			"0.001": 11.3547288988,
			"0.002": 11.023263127,
			"0.003": 12.6192917961,
			"0.004": 13.7691601264,
			"0.005": 9.31830168507,
			"0.006": 2.49213467381,
			"0.007": 3.51891686665,
			"0.008": 2.85477487496,
			"0.009": 3.1280806844,
			"0.01": 3.02178382226,
			"0.011": 3.1955309808,
			"0.012": 2.65968218434,
			"0.013": 1.12489620032,
			"0.014": 0.799188027029,
			"0.015": 0.671352731553,
			"0.016": 0.582852721165,
			"0.017": 0.0794934721588,
			"0.018": 0.0,
			"0.019": 0.0,
			"0.02": 0.0,
			"0.021": 0.0,
			"0.022": 0.0,
			"0.023": 0.0,
			"0.024": 0.0,
			"0.025": 0.0
		}
	}
}
