{
	 "smiles": "ClC1=C(Cl)C(Cl)=C(C=C1)S(Cl)(=O)=O", 
	 "Tm": 307.15, 
	 "num_atms": 15, 
	 "gaussian": { 
		 "optdone": 1, 
		 "sigma_profile": "yes", 
		 "theory": "DFT", 
		 "functional": "B3LYP", 
		 "basiset": "6-31G**", 
		 "properties": { 
			 "R2extent": 5056.5749, 
			 "electric_dipole_moment_norm": 3.66715154991, 
			 "electric_quadrupole_moment_norm": 9.78529110451, 
			 "total_energy": -2619.15475182, 
			 "HOMO_LUMO_gap": 0.18327, 
			 "cosmo_polarized_energy": -8.05, 
			 "cosmo_cavitation_energy": 28.12, 
			 "cosmo_dispersion_energy": -21.66, 
			 "cosmo_repulsion_energy": 1.66, 
			 "cosmo_total_nonelectrostatic_energy": 8.11, 
			 "SMD_solvation_energy": 2.89 
		},
		"coords": [
			{
				"x": 2.8710904744,
				"y": 0.7916317319,
				"z": 1.5440951469,
				"element": "Cl" 
			},
			{
				"x": 1.4396893009,
				"y": 0.1524768594,
				"z": 0.7939733806,
				"element": "C" 
			},
			{
				"x": 1.116086785,
				"y": -1.2126211801,
				"z": 0.9003100596,
				"element": "C" 
			},
			{
				"x": 2.1440797475,
				"y": -2.2867226418,
				"z": 1.7894530244,
				"element": "Cl" 
			},
			{
				"x": -0.0515824384,
				"y": -1.6980422612,
				"z": 0.2784346442,
				"element": "C" 
			},
			{
				"x": -0.4635954072,
				"y": -3.3727760942,
				"z": 0.4264118231,
				"element": "Cl" 
			},
			{
				"x": -0.8634973625,
				"y": -0.8002574768,
				"z": -0.4350876257,
				"element": "C" 
			},
			{
				"x": -0.5343721251,
				"y": 0.5527006152,
				"z": -0.5264339868,
				"element": "C" 
			},
			{
				"x": 0.6174542686,
				"y": 1.0275796075,
				"z": 0.0854531632,
				"element": "C" 
			},
			{
				"x": -2.3520142774,
				"y": -1.288777101,
				"z": -1.3325679497,
				"element": "S" 
			},
			{
				"x": -3.6787403977,
				"y": -1.739529239,
				"z": 0.2557969709,
				"element": "Cl" 
			},
			{
				"x": -2.1275495692,
				"y": -2.5181754876,
				"z": -2.0755143834,
				"element": "O" 
			},
			{
				"x": -2.8846999641,
				"y": -0.0941547987,
				"z": -1.9751558142,
				"element": "O" 
			},
			{
				"x": -1.1831794238,
				"y": 1.220232686,
				"z": -1.0797583206,
				"element": "H" 
			},
			{
				"x": 0.8860303888,
				"y": 2.0750347804,
				"z": 0.0183898674,
				"element": "H" 
			}
		],
		 "valence_orbital": [ 
			{
				"type": "occ",
				"energy": -0.34003,
				"method": "rhf"
			},
			{
				"type": "occ",
				"energy": -0.32557,
				"method": "rhf"
			},
			{
				"type": "occ",
				"energy": -0.32383,
				"method": "rhf"
			},
			{
				"type": "occ",
				"energy": -0.29117,
				"method": "rhf"
			},
			{
				"type": "occ",
				"energy": -0.28564,
				"method": "rhf"
			},
			{
				"type": "unocc",
				"energy": -0.10237,
				"method": "rhf"
			},
			{
				"type": "unocc",
				"energy": -0.07086,
				"method": "rhf"
			},
			{
				"type": "unocc",
				"energy": -0.06362,
				"method": "rhf"
			},
			{
				"type": "unocc",
				"energy": -0.03924,
				"method": "rhf"
			},
			{
				"type": "unocc",
				"energy": 0.01788,
				"method": "rhf"
			}
		],
		"cosmo_sigma_profile": { 
			"-0.025": 0.0,
			"-0.024": 0.0,
			"-0.023": 0.0,
			"-0.022": 0.0,
			"-0.021": 0.0,
			"-0.02": 0.0,
			"-0.019": 0.0,
			"-0.018": 0.0,
			"-0.017": 0.0,
			"-0.016": 0.0,
			"-0.015": 0.0,
			"-0.014": 0.0,
			"-0.013": 0.0,
			"-0.012": 0.0,
			"-0.011": 0.0,
			"-0.01": 2.01493808893,
			"-0.009": 4.13438809746,
			"-0.008": 2.91681475246,
			"-0.007": 4.18049086715,
			"-0.006": 3.81853065469,
			"-0.005": 6.47024772807,
			"-0.004": 16.6815183075,
			"-0.003": 24.7119934464,
			"-0.002": 22.2108664174,
			"-0.001": 19.8239723026,
			"0.0": 14.885484084,
			"0.001": 22.2718329133,
			"0.002": 33.6625906231,
			"0.003": 27.3954374902,
			"0.004": 5.65457114029,
			"0.005": 3.47641695946,
			"0.006": 3.71853760729,
			"0.007": 9.28124213361,
			"0.008": 8.16735775524,
			"0.009": 0.847530056698,
			"0.01": 0.0,
			"0.011": 0.0,
			"0.012": 0.0,
			"0.013": 0.0,
			"0.014": 0.0,
			"0.015": 0.0,
			"0.016": 0.0,
			"0.017": 0.0,
			"0.018": 0.0,
			"0.019": 0.0,
			"0.02": 0.0,
			"0.021": 0.0,
			"0.022": 0.0,
			"0.023": 0.0,
			"0.024": 0.0,
			"0.025": 0.0
		}
	}
}
