{
	 "smiles": "CCOC(=O)C1=C(Cl)C(Cl)=C(Cl)C(Cl)=C1C(O)=O", 
	 "Tm": 367.65, 
	 "num_atms": 24, 
	 "gaussian": { 
		 "optdone": 1, 
		 "sigma_profile": "yes", 
		 "theory": "DFT", 
		 "functional": "B3LYP", 
		 "basiset": "6-31G**", 
		 "properties": { 
			 "R2extent": 9540.7937, 
			 "electric_dipole_moment_norm": 3.98037685779, 
			 "electric_quadrupole_moment_norm": 13.8251782806, 
			 "total_energy": -2526.33518578, 
			 "HOMO_LUMO_gap": 0.19507, 
			 "cosmo_polarized_energy": -11.53, 
			 "cosmo_cavitation_energy": 35.98, 
			 "cosmo_dispersion_energy": -25.59, 
			 "cosmo_repulsion_energy": 1.99, 
			 "cosmo_total_nonelectrostatic_energy": 12.39, 
			 "SMD_solvation_energy": 7.05 
		},
		"coords": [
			{
				"x": 0.3138483426,
				"y": -0.7950805974,
				"z": -2.8665881439,
				"element": "C" 
			},
			{
				"x": -0.7474914645,
				"y": -1.3496205508,
				"z": -1.9313945681,
				"element": "C" 
			},
			{
				"x": -1.1719002202,
				"y": -0.3324865901,
				"z": -0.9713451106,
				"element": "O" 
			},
			{
				"x": -0.447558069,
				"y": -0.204603251,
				"z": 0.1313967476,
				"element": "C" 
			},
			{
				"x": 0.5452736353,
				"y": -0.8610525324,
				"z": 0.4028730185,
				"element": "O" 
			},
			{
				"x": -0.9563808176,
				"y": 0.882716833,
				"z": 1.0456373336,
				"element": "C" 
			},
			{
				"x": -2.1725359741,
				"y": 0.7168165169,
				"z": 1.7203627581,
				"element": "C" 
			},
			{
				"x": -3.1167490322,
				"y": -0.7241626898,
				"z": 1.4576478242,
				"element": "Cl" 
			},
			{
				"x": -2.6139177631,
				"y": 1.6831458067,
				"z": 2.6356375236,
				"element": "C" 
			},
			{
				"x": -4.1174466513,
				"y": 1.47335971,
				"z": 3.4703887151,
				"element": "Cl" 
			},
			{
				"x": -1.8195318981,
				"y": 2.8173648019,
				"z": 2.8819567967,
				"element": "C" 
			},
			{
				"x": -2.3470187829,
				"y": 4.0024147531,
				"z": 4.0309868723,
				"element": "Cl" 
			},
			{
				"x": -0.6018561341,
				"y": 2.9835555571,
				"z": 2.2008078067,
				"element": "C" 
			},
			{
				"x": 0.3842171835,
				"y": 4.3705285198,
				"z": 2.5498337375,
				"element": "Cl" 
			},
			{
				"x": -0.1623552013,
				"y": 2.0199651944,
				"z": 1.2778994203,
				"element": "C" 
			},
			{
				"x": 1.0984346425,
				"y": 2.2902579699,
				"z": 0.4609515081,
				"element": "C" 
			},
			{
				"x": 2.0722996122,
				"y": 1.3682115109,
				"z": 0.5156254276,
				"element": "O" 
			},
			{
				"x": 1.2142134102,
				"y": 3.2942081933,
				"z": -0.1951831394,
				"element": "O" 
			},
			{
				"x": -0.0498739498,
				"y": 0.0957448667,
				"z": -3.3857765436,
				"element": "H" 
			},
			{
				"x": 0.5683238532,
				"y": -1.5507835298,
				"z": -3.6166530134,
				"element": "H" 
			},
			{
				"x": 1.2230488466,
				"y": -0.5385465199,
				"z": -2.3174223747,
				"element": "H" 
			},
			{
				"x": -1.6671199617,
				"y": -1.6053958062,
				"z": -2.4600983816,
				"element": "H" 
			},
			{
				"x": -0.3876928243,
				"y": -2.2186319462,
				"z": -1.3772239719,
				"element": "H" 
			},
			{
				"x": 1.7578692181,
				"y": 0.5336737801,
				"z": 0.9137797573,
				"element": "H" 
			}
		],
		 "valence_orbital": [ 
			{
				"type": "occ",
				"energy": -0.3178,
				"method": "rhf"
			},
			{
				"type": "occ",
				"energy": -0.31188,
				"method": "rhf"
			},
			{
				"type": "occ",
				"energy": -0.29175,
				"method": "rhf"
			},
			{
				"type": "occ",
				"energy": -0.27686,
				"method": "rhf"
			},
			{
				"type": "occ",
				"energy": -0.2693,
				"method": "rhf"
			},
			{
				"type": "unocc",
				"energy": -0.07423,
				"method": "rhf"
			},
			{
				"type": "unocc",
				"energy": -0.06699,
				"method": "rhf"
			},
			{
				"type": "unocc",
				"energy": -0.04414,
				"method": "rhf"
			},
			{
				"type": "unocc",
				"energy": -0.03089,
				"method": "rhf"
			},
			{
				"type": "unocc",
				"energy": -0.00154,
				"method": "rhf"
			}
		],
		"cosmo_sigma_profile": { 
			"-0.025": 0.0,
			"-0.024": 0.0,
			"-0.023": 0.0,
			"-0.022": 0.0,
			"-0.021": 0.0,
			"-0.02": 0.0,
			"-0.019": 0.0,
			"-0.018": 0.0,
			"-0.017": 0.0,
			"-0.016": 0.0,
			"-0.015": 0.0,
			"-0.014": 0.08316296982,
			"-0.013": 0.512215631502,
			"-0.012": 1.22931739633,
			"-0.011": 0.885164472856,
			"-0.01": 0.699207312131,
			"-0.009": 0.692828901796,
			"-0.008": 0.961037905377,
			"-0.007": 4.21364034184,
			"-0.006": 7.15491849711,
			"-0.005": 15.9579373592,
			"-0.004": 28.7438081806,
			"-0.003": 35.0536421749,
			"-0.002": 26.3998707785,
			"-0.001": 25.302319203,
			"0.0": 22.6162017355,
			"0.001": 24.1206603191,
			"0.002": 31.4470499998,
			"0.003": 25.387890686,
			"0.004": 6.76268847945,
			"0.005": 5.27119043099,
			"0.006": 5.32343971692,
			"0.007": 4.78191748512,
			"0.008": 5.08009462372,
			"0.009": 7.6122609723,
			"0.01": 5.3788168423,
			"0.011": 4.53742444229,
			"0.012": 0.794590551549,
			"0.013": 0.0,
			"0.014": 0.0,
			"0.015": 0.0,
			"0.016": 0.0,
			"0.017": 0.0,
			"0.018": 0.0,
			"0.019": 0.0,
			"0.02": 0.0,
			"0.021": 0.0,
			"0.022": 0.0,
			"0.023": 0.0,
			"0.024": 0.0,
			"0.025": 0.0
		}
	}
}
