{
	 "smiles": "NC1=C(C#N)C(=C(O1)C1=CC=CC=C1)C1=CC=CC=C1", 
	 "Tm": 479.15, 
	 "num_atms": 32, 
	 "gaussian": { 
		 "optdone": 1, 
		 "sigma_profile": "yes", 
		 "theory": "DFT", 
		 "functional": "B3LYP", 
		 "basiset": "6-31G**", 
		 "properties": { 
			 "R2extent": 6088.0841, 
			 "electric_dipole_moment_norm": 3.90633935546, 
			 "electric_quadrupole_moment_norm": 26.1040569167, 
			 "total_energy": -839.74840936, 
			 "HOMO_LUMO_gap": 0.15497, 
			 "cosmo_polarized_energy": -15.92, 
			 "cosmo_cavitation_energy": 37.56, 
			 "cosmo_dispersion_energy": -25.85, 
			 "cosmo_repulsion_energy": 2.0, 
			 "cosmo_total_nonelectrostatic_energy": 13.71, 
			 "SMD_solvation_energy": 7.64 
		},
		"coords": [
			{
				"x": -3.4290418973,
				"y": 0.242036807,
				"z": -3.6723119563,
				"element": "N" 
			},
			{
				"x": -2.4948407558,
				"y": 0.1998456871,
				"z": -2.678141719,
				"element": "C" 
			},
			{
				"x": -1.5519001018,
				"y": -0.7467450579,
				"z": -2.3295094444,
				"element": "C" 
			},
			{
				"x": -1.4122541171,
				"y": -2.0000218429,
				"z": -2.9662094717,
				"element": "C" 
			},
			{
				"x": -1.3473909338,
				"y": -3.0272846197,
				"z": -3.5150500993,
				"element": "N" 
			},
			{
				"x": -0.7779781481,
				"y": -0.1667287468,
				"z": -1.2418178168,
				"element": "C" 
			},
			{
				"x": -1.3280501298,
				"y": 1.0662339898,
				"z": -0.997031704,
				"element": "C" 
			},
			{
				"x": -2.3790301584,
				"y": 1.2849776087,
				"z": -1.8986585867,
				"element": "O" 
			},
			{
				"x": -1.1206101839,
				"y": 2.1397427416,
				"z": -0.0291077153,
				"element": "C" 
			},
			{
				"x": -1.5311383586,
				"y": 3.452016518,
				"z": -0.3326065551,
				"element": "C" 
			},
			{
				"x": -1.3545999395,
				"y": 4.4818132383,
				"z": 0.5886485131,
				"element": "C" 
			},
			{
				"x": -0.7635196467,
				"y": 4.2276579529,
				"z": 1.8277151407,
				"element": "C" 
			},
			{
				"x": -0.3593566117,
				"y": 2.9275165228,
				"z": 2.1412096195,
				"element": "C" 
			},
			{
				"x": -0.5408848549,
				"y": 1.8909240527,
				"z": 1.2295226664,
				"element": "C" 
			},
			{
				"x": 0.3928973188,
				"y": -0.8074967173,
				"z": -0.6100836646,
				"element": "C" 
			},
			{
				"x": 1.5912890419,
				"y": -0.0964766539,
				"z": -0.4251389498,
				"element": "C" 
			},
			{
				"x": 2.7017207485,
				"y": -0.7140121376,
				"z": 0.1466219505,
				"element": "C" 
			},
			{
				"x": 2.639436336,
				"y": -2.0545536341,
				"z": 0.5348815905,
				"element": "C" 
			},
			{
				"x": 1.4583101329,
				"y": -2.7733630837,
				"z": 0.3457115114,
				"element": "C" 
			},
			{
				"x": 0.3437655518,
				"y": -2.156948887,
				"z": -0.2227963903,
				"element": "C" 
			},
			{
				"x": -4.2235180648,
				"y": 0.8444642978,
				"z": -3.5078420602,
				"element": "H" 
			},
			{
				"x": -3.650407023,
				"y": -0.6477794926,
				"z": -4.0966049291,
				"element": "H" 
			},
			{
				"x": -1.9858619794,
				"y": 3.6576666314,
				"z": -1.2956359173,
				"element": "H" 
			},
			{
				"x": -1.6760149506,
				"y": 5.4878997507,
				"z": 0.3343842967,
				"element": "H" 
			},
			{
				"x": -0.6237282986,
				"y": 5.0322702658,
				"z": 2.5435370939,
				"element": "H" 
			},
			{
				"x": 0.088670718,
				"y": 2.7149428201,
				"z": 3.1077012445,
				"element": "H" 
			},
			{
				"x": -0.2432914046,
				"y": 0.8827567649,
				"z": 1.4936257432,
				"element": "H" 
			},
			{
				"x": 1.6482338491,
				"y": 0.9404873946,
				"z": -0.7404768753,
				"element": "H" 
			},
			{
				"x": 3.6206933295,
				"y": -0.1501575406,
				"z": 0.279159998,
				"element": "H" 
			},
			{
				"x": 3.5073825867,
				"y": -2.5362283841,
				"z": 0.975723036,
				"element": "H" 
			},
			{
				"x": 1.4016444744,
				"y": -3.8173033707,
				"z": 0.6399126193,
				"element": "H" 
			},
			{
				"x": -0.5712265295,
				"y": -2.7233528751,
				"z": -0.3645311685,
				"element": "H" 
			}
		],
		 "valence_orbital": [ 
			{
				"type": "occ",
				"energy": -0.26702,
				"method": "rhf"
			},
			{
				"type": "occ",
				"energy": -0.25617,
				"method": "rhf"
			},
			{
				"type": "occ",
				"energy": -0.25059,
				"method": "rhf"
			},
			{
				"type": "occ",
				"energy": -0.24186,
				"method": "rhf"
			},
			{
				"type": "occ",
				"energy": -0.19612,
				"method": "rhf"
			},
			{
				"type": "unocc",
				"energy": -0.04115,
				"method": "rhf"
			},
			{
				"type": "unocc",
				"energy": -0.00998,
				"method": "rhf"
			},
			{
				"type": "unocc",
				"energy": -0.00593,
				"method": "rhf"
			},
			{
				"type": "unocc",
				"energy": 0.00201,
				"method": "rhf"
			},
			{
				"type": "unocc",
				"energy": 0.00363,
				"method": "rhf"
			}
		],
		"cosmo_sigma_profile": { 
			"-0.025": 0.0,
			"-0.024": 0.0,
			"-0.023": 0.0,
			"-0.022": 0.0,
			"-0.021": 0.0,
			"-0.02": 0.0,
			"-0.019": 0.0,
			"-0.018": 0.0,
			"-0.017": 0.0,
			"-0.016": 0.131503036625,
			"-0.015": 1.75611165862,
			"-0.014": 2.82185613764,
			"-0.013": 2.31545460865,
			"-0.012": 2.91964825854,
			"-0.011": 1.7767318688,
			"-0.01": 2.78476674947,
			"-0.009": 2.01899388108,
			"-0.008": 1.89719851276,
			"-0.007": 1.76127056061,
			"-0.006": 11.822668885,
			"-0.005": 19.6801730354,
			"-0.004": 24.6077468022,
			"-0.003": 20.6171356849,
			"-0.002": 18.4816363746,
			"-0.001": 19.4841706143,
			"0.0": 20.9287729527,
			"0.001": 25.8895455159,
			"0.002": 26.4731432671,
			"0.003": 22.7650003093,
			"0.004": 21.1694941086,
			"0.005": 21.1027416198,
			"0.006": 6.53100933014,
			"0.007": 2.97094175149,
			"0.008": 3.07719159414,
			"0.009": 3.82089519446,
			"0.01": 3.36215770536,
			"0.011": 3.42236510796,
			"0.012": 2.83341281613,
			"0.013": 2.51390133628,
			"0.014": 1.01470185344,
			"0.015": 0.0,
			"0.016": 0.0,
			"0.017": 0.0,
			"0.018": 0.0,
			"0.019": 0.0,
			"0.02": 0.0,
			"0.021": 0.0,
			"0.022": 0.0,
			"0.023": 0.0,
			"0.024": 0.0,
			"0.025": 0.0
		}
	}
}
