{
	 "smiles": "SC1=NC(=NN1)C1=CC2=C(OCCO2)C=C1", 
	 "Tm": 556.15, 
	 "num_atms": 25, 
	 "gaussian": { 
		 "optdone": 1, 
		 "sigma_profile": "yes", 
		 "theory": "DFT", 
		 "functional": "B3LYP", 
		 "basiset": "6-31G**", 
		 "properties": { 
			 "R2extent": 6296.822, 
			 "electric_dipole_moment_norm": 0.727377158014, 
			 "electric_quadrupole_moment_norm": 17.7016213978, 
			 "total_energy": -1099.34652537, 
			 "HOMO_LUMO_gap": 0.18227, 
			 "cosmo_polarized_energy": -16.3, 
			 "cosmo_cavitation_energy": 31.18, 
			 "cosmo_dispersion_energy": -24.36, 
			 "cosmo_repulsion_energy": 1.84, 
			 "cosmo_total_nonelectrostatic_energy": 8.66, 
			 "SMD_solvation_energy": 2.7 
		},
		"coords": [
			{
				"x": -2.3065581448,
				"y": 4.4951941131,
				"z": -3.7852444113,
				"element": "S" 
			},
			{
				"x": -1.246408938,
				"y": 3.2359479611,
				"z": -3.1436221596,
				"element": "C" 
			},
			{
				"x": -1.4619807412,
				"y": 2.4812667487,
				"z": -2.0850515955,
				"element": "N" 
			},
			{
				"x": -0.3406983219,
				"y": 1.6845615238,
				"z": -2.035711989,
				"element": "C" 
			},
			{
				"x": 0.5396773244,
				"y": 1.9155850827,
				"z": -3.0052805573,
				"element": "N" 
			},
			{
				"x": -0.0589012254,
				"y": 2.9164551269,
				"z": -3.7087055271,
				"element": "N" 
			},
			{
				"x": -0.1384143392,
				"y": 0.6663762938,
				"z": -0.9978978795,
				"element": "C" 
			},
			{
				"x": 1.0154731374,
				"y": -0.1285530273,
				"z": -0.9999529339,
				"element": "C" 
			},
			{
				"x": 1.2071308301,
				"y": -1.0925403136,
				"z": -0.0157657277,
				"element": "C" 
			},
			{
				"x": 0.2443058279,
				"y": -1.2662347336,
				"z": 0.9959538858,
				"element": "C" 
			},
			{
				"x": 0.4011844532,
				"y": -2.193623968,
				"z": 1.9960074183,
				"element": "O" 
			},
			{
				"x": 1.7320672822,
				"y": -2.6960753322,
				"z": 2.1169428402,
				"element": "C" 
			},
			{
				"x": 2.293204118,
				"y": -3.0290759469,
				"z": 0.7439065446,
				"element": "C" 
			},
			{
				"x": 2.3524243079,
				"y": -1.8531728397,
				"z": -0.0610058695,
				"element": "O" 
			},
			{
				"x": -0.9110093734,
				"y": -0.4830975991,
				"z": 0.9897888872,
				"element": "C" 
			},
			{
				"x": -1.106284019,
				"y": 0.4744067017,
				"z": 0.000252345,
				"element": "C" 
			},
			{
				"x": -3.2334645964,
				"y": 4.3090816511,
				"z": -2.8279955998,
				"element": "H" 
			},
			{
				"x": 0.3933468326,
				"y": 3.3042244769,
				"z": -4.522663809,
				"element": "H" 
			},
			{
				"x": 1.7697982147,
				"y": -0.007468887,
				"z": -1.7692995344,
				"element": "H" 
			},
			{
				"x": 1.6717484925,
				"y": -3.5854753662,
				"z": 2.7494896322,
				"element": "H" 
			},
			{
				"x": 2.3699416646,
				"y": -1.9491802529,
				"z": 2.6092346096,
				"element": "H" 
			},
			{
				"x": 1.6629033693,
				"y": -3.7865126255,
				"z": 0.2573984205,
				"element": "H" 
			},
			{
				"x": 3.3155031263,
				"y": -3.4094884297,
				"z": 0.8147208451,
				"element": "H" 
			},
			{
				"x": -1.6409696327,
				"y": -0.6388434773,
				"z": 1.7776119463,
				"element": "H" 
			},
			{
				"x": -2.0008196491,
				"y": 1.0863431191,
				"z": -0.0055097814,
				"element": "H" 
			}
		],
		 "valence_orbital": [ 
			{
				"type": "occ",
				"energy": -0.28654,
				"method": "rhf"
			},
			{
				"type": "occ",
				"energy": -0.27806,
				"method": "rhf"
			},
			{
				"type": "occ",
				"energy": -0.24742,
				"method": "rhf"
			},
			{
				"type": "occ",
				"energy": -0.22479,
				"method": "rhf"
			},
			{
				"type": "occ",
				"energy": -0.2011,
				"method": "rhf"
			},
			{
				"type": "unocc",
				"energy": -0.01883,
				"method": "rhf"
			},
			{
				"type": "unocc",
				"energy": -0.00289,
				"method": "rhf"
			},
			{
				"type": "unocc",
				"energy": 0.00981,
				"method": "rhf"
			},
			{
				"type": "unocc",
				"energy": 0.01992,
				"method": "rhf"
			},
			{
				"type": "unocc",
				"energy": 0.05871,
				"method": "rhf"
			}
		],
		"cosmo_sigma_profile": { 
			"-0.025": 0.0,
			"-0.024": 0.0,
			"-0.023": 0.0,
			"-0.022": 0.0,
			"-0.021": 0.0,
			"-0.02": 0.0,
			"-0.019": 0.00137242536647,
			"-0.018": 1.1935810061,
			"-0.017": 1.9024186148,
			"-0.016": 1.02369997997,
			"-0.015": 1.03344985277,
			"-0.014": 0.898660080775,
			"-0.013": 1.672447984,
			"-0.012": 2.48762992565,
			"-0.011": 2.28528319785,
			"-0.01": 2.00190335353,
			"-0.009": 2.20789241131,
			"-0.008": 2.10882564164,
			"-0.007": 8.65222216191,
			"-0.006": 14.8665820744,
			"-0.005": 17.3417098884,
			"-0.004": 14.5622151049,
			"-0.003": 11.0584509015,
			"-0.002": 10.9417829155,
			"-0.001": 12.0496905421,
			"0.0": 13.537408893,
			"0.001": 15.022240763,
			"0.002": 18.3362808195,
			"0.003": 24.7821053419,
			"0.004": 21.8308781116,
			"0.005": 14.2208443348,
			"0.006": 8.45912822531,
			"0.007": 5.89888032899,
			"0.008": 5.26758204417,
			"0.009": 5.46595304144,
			"0.01": 5.24932237447,
			"0.011": 2.61209231298,
			"0.012": 2.13663216958,
			"0.013": 1.04879991105,
			"0.014": 0.0447325866339,
			"0.015": 0.0,
			"0.016": 0.0,
			"0.017": 0.0,
			"0.018": 0.0,
			"0.019": 0.0,
			"0.02": 0.0,
			"0.021": 0.0,
			"0.022": 0.0,
			"0.023": 0.0,
			"0.024": 0.0,
			"0.025": 0.0
		}
	}
}
