{
	 "smiles": "CC(C)(C)OC(=O)NC1CCC2CNCC12", 
	 "Tm": 383.15, 
	 "num_atms": 38, 
	 "gaussian": { 
		 "optdone": 1, 
		 "sigma_profile": "yes", 
		 "theory": "DFT", 
		 "functional": "B3LYP", 
		 "basiset": "6-31G**", 
		 "properties": { 
			 "R2extent": 4764.3875, 
			 "electric_dipole_moment_norm": 2.23295008901, 
			 "electric_quadrupole_moment_norm": 16.4814021782, 
			 "total_energy": -730.52195646, 
			 "HOMO_LUMO_gap": 0.27758, 
			 "cosmo_polarized_energy": -11.51, 
			 "cosmo_cavitation_energy": 37.31, 
			 "cosmo_dispersion_energy": -25.75, 
			 "cosmo_repulsion_energy": 2.03, 
			 "cosmo_total_nonelectrostatic_energy": 13.59, 
			 "SMD_solvation_energy": 3.72 
		},
		"coords": [
			{
				"x": 3.6862130164,
				"y": -0.3092745273,
				"z": 0.3638394026,
				"element": "C" 
			},
			{
				"x": 3.1111485568,
				"y": -0.106392169,
				"z": -1.0405878225,
				"element": "C" 
			},
			{
				"x": 2.9377842144,
				"y": -1.4508340529,
				"z": -1.7556976881,
				"element": "C" 
			},
			{
				"x": 3.9746633714,
				"y": 0.8714758539,
				"z": -1.8449301482,
				"element": "C" 
			},
			{
				"x": 1.7958892311,
				"y": 0.4902963786,
				"z": -0.7647457866,
				"element": "O" 
			},
			{
				"x": 0.9648492373,
				"y": 0.8366149407,
				"z": -1.7794572014,
				"element": "C" 
			},
			{
				"x": 1.1781722677,
				"y": 0.6801772178,
				"z": -2.9723042933,
				"element": "O" 
			},
			{
				"x": -0.1770103267,
				"y": 1.4132561364,
				"z": -1.2933882196,
				"element": "N" 
			},
			{
				"x": -0.5564134222,
				"y": 1.5568707527,
				"z": 0.1044128603,
				"element": "C" 
			},
			{
				"x": -1.5957813314,
				"y": 2.6700266756,
				"z": 0.3213519659,
				"element": "C" 
			},
			{
				"x": -2.0775433181,
				"y": 2.4185112984,
				"z": 1.7592082882,
				"element": "C" 
			},
			{
				"x": -2.1370432553,
				"y": 0.8767220184,
				"z": 1.893772636,
				"element": "C" 
			},
			{
				"x": -3.5119882356,
				"y": 0.2530601085,
				"z": 1.5586337501,
				"element": "C" 
			},
			{
				"x": -3.1595164565,
				"y": -0.9633201589,
				"z": 0.8257906217,
				"element": "N" 
			},
			{
				"x": -2.1055345163,
				"y": -0.5507642255,
				"z": -0.103292501,
				"element": "C" 
			},
			{
				"x": -1.1823704725,
				"y": 0.3081684903,
				"z": 0.7871325724,
				"element": "C" 
			},
			{
				"x": 3.7692945808,
				"y": 0.6466232864,
				"z": 0.8894467199,
				"element": "H" 
			},
			{
				"x": 3.0446535436,
				"y": -0.9719752056,
				"z": 0.9521349544,
				"element": "H" 
			},
			{
				"x": 4.6822396883,
				"y": -0.7576468115,
				"z": 0.3012129162,
				"element": "H" 
			},
			{
				"x": 3.9112464276,
				"y": -1.9416491091,
				"z": -1.8578902286,
				"element": "H" 
			},
			{
				"x": 2.5054919365,
				"y": -1.3107961029,
				"z": -2.7465105371,
				"element": "H" 
			},
			{
				"x": 2.285585799,
				"y": -2.1090529987,
				"z": -1.1726411489,
				"element": "H" 
			},
			{
				"x": 4.9873712868,
				"y": 0.4682749039,
				"z": -1.9488500905,
				"element": "H" 
			},
			{
				"x": 3.5550025774,
				"y": 1.0350352854,
				"z": -2.8376252253,
				"element": "H" 
			},
			{
				"x": 4.0437105762,
				"y": 1.8325869161,
				"z": -1.3252754442,
				"element": "H" 
			},
			{
				"x": -0.8578109834,
				"y": 1.6129320435,
				"z": -2.0109317937,
				"element": "H" 
			},
			{
				"x": 0.3517422118,
				"y": 1.8203838103,
				"z": 0.6542777063,
				"element": "H" 
			},
			{
				"x": -1.1813315618,
				"y": 3.670343153,
				"z": 0.1638256474,
				"element": "H" 
			},
			{
				"x": -2.4270590183,
				"y": 2.5439554299,
				"z": -0.3865664173,
				"element": "H" 
			},
			{
				"x": -1.3469822351,
				"y": 2.8311044014,
				"z": 2.4649714205,
				"element": "H" 
			},
			{
				"x": -3.0378008401,
				"y": 2.8976807269,
				"z": 1.977317073,
				"element": "H" 
			},
			{
				"x": -1.8245795369,
				"y": 0.5549550989,
				"z": 2.890775601,
				"element": "H" 
			},
			{
				"x": -4.1010671815,
				"y": 0.0171940249,
				"z": 2.4516800441,
				"element": "H" 
			},
			{
				"x": -4.1027592505,
				"y": 0.96791235,
				"z": 0.9524932697,
				"element": "H" 
			},
			{
				"x": -3.9578290353,
				"y": -1.3706077486,
				"z": 0.3458004204,
				"element": "H" 
			},
			{
				"x": -1.596099499,
				"y": -1.4194810253,
				"z": -0.531997627,
				"element": "H" 
			},
			{
				"x": -2.489339391,
				"y": 0.0526309024,
				"z": -0.9484402085,
				"element": "H" 
			},
			{
				"x": -0.3999986555,
				"y": -0.3238980693,
				"z": 1.2133545117,
				"element": "H" 
			}
		],
		 "valence_orbital": [ 
			{
				"type": "occ",
				"energy": -0.3141,
				"method": "rhf"
			},
			{
				"type": "occ",
				"energy": -0.28286,
				"method": "rhf"
			},
			{
				"type": "occ",
				"energy": -0.25462,
				"method": "rhf"
			},
			{
				"type": "occ",
				"energy": -0.24134,
				"method": "rhf"
			},
			{
				"type": "occ",
				"energy": -0.21898,
				"method": "rhf"
			},
			{
				"type": "unocc",
				"energy": 0.0586,
				"method": "rhf"
			},
			{
				"type": "unocc",
				"energy": 0.07109,
				"method": "rhf"
			},
			{
				"type": "unocc",
				"energy": 0.07676,
				"method": "rhf"
			},
			{
				"type": "unocc",
				"energy": 0.08963,
				"method": "rhf"
			},
			{
				"type": "unocc",
				"energy": 0.09949,
				"method": "rhf"
			}
		],
		"cosmo_sigma_profile": { 
			"-0.025": 0.0,
			"-0.024": 0.0,
			"-0.023": 0.0,
			"-0.022": 0.0,
			"-0.021": 0.0,
			"-0.02": 0.0,
			"-0.019": 0.0,
			"-0.018": 0.0,
			"-0.017": 0.0,
			"-0.016": 0.0,
			"-0.015": 0.0,
			"-0.014": 0.00406187750119,
			"-0.013": 0.389847045242,
			"-0.012": 0.818291981174,
			"-0.011": 1.01091093563,
			"-0.01": 1.52772850879,
			"-0.009": 2.15891105734,
			"-0.008": 2.67313830691,
			"-0.007": 2.24989315681,
			"-0.006": 2.83183597955,
			"-0.005": 3.37288457345,
			"-0.004": 14.0024975836,
			"-0.003": 34.2290007495,
			"-0.002": 41.9006482858,
			"-0.001": 46.8544857879,
			"0.0": 43.9606789936,
			"0.001": 32.3582948061,
			"0.002": 9.8064614465,
			"0.003": 6.60015987244,
			"0.004": 7.10073586711,
			"0.005": 6.04092598699,
			"0.006": 4.38580977991,
			"0.007": 2.80385078355,
			"0.008": 1.99089539012,
			"0.009": 1.97898154487,
			"0.01": 2.0463807121,
			"0.011": 2.05829615117,
			"0.012": 2.56358283983,
			"0.013": 3.36988238039,
			"0.014": 3.59203037397,
			"0.015": 1.06279148469,
			"0.016": 0.291538899645,
			"0.017": 0.631177756609,
			"0.018": 0.576369251812,
			"0.019": 0.262989963577,
			"0.02": 0.0,
			"0.021": 0.0,
			"0.022": 0.0,
			"0.023": 0.0,
			"0.024": 0.0,
			"0.025": 0.0
		}
	}
}
