{
	 "smiles": "CCOC(=O)C1=CC2=C(N1)C(=CC=C2)[N+]([O-])=O", 
	 "Tm": 366.15, 
	 "num_atms": 27, 
	 "gaussian": { 
		 "optdone": 1, 
		 "sigma_profile": "yes", 
		 "theory": "DFT", 
		 "functional": "B3LYP", 
		 "basiset": "6-31G**", 
		 "properties": { 
			 "R2extent": 5844.6447, 
			 "electric_dipole_moment_norm": 5.66634513862, 
			 "electric_quadrupole_moment_norm": 20.4522374333, 
			 "total_energy": -835.527928252, 
			 "HOMO_LUMO_gap": 0.14344, 
			 "cosmo_polarized_energy": -11.67, 
			 "cosmo_cavitation_energy": 32.65, 
			 "cosmo_dispersion_energy": -23.85, 
			 "cosmo_repulsion_energy": 1.86, 
			 "cosmo_total_nonelectrostatic_energy": 10.65, 
			 "SMD_solvation_energy": 8.39 
		},
		"coords": [
			{
				"x": 4.9959225018,
				"y": 0.7775771311,
				"z": -1.8430287221,
				"element": "C" 
			},
			{
				"x": 4.4383441216,
				"y": -0.1635034057,
				"z": -0.793047865,
				"element": "C" 
			},
			{
				"x": 2.9951008928,
				"y": -0.1428417597,
				"z": -0.9141225854,
				"element": "O" 
			},
			{
				"x": 2.3266683724,
				"y": -0.92898406,
				"z": -0.0508074206,
				"element": "C" 
			},
			{
				"x": 2.848956072,
				"y": -1.6315641749,
				"z": 0.7962857964,
				"element": "O" 
			},
			{
				"x": 0.8711855933,
				"y": -0.8492639434,
				"z": -0.2408344055,
				"element": "C" 
			},
			{
				"x": 0.0899469118,
				"y": -0.1340139595,
				"z": -1.1202118211,
				"element": "C" 
			},
			{
				"x": -1.2706781985,
				"y": -0.4657745991,
				"z": -0.8283130887,
				"element": "C" 
			},
			{
				"x": -1.2388040997,
				"y": -1.4013109488,
				"z": 0.2552882049,
				"element": "C" 
			},
			{
				"x": 0.0623481756,
				"y": -1.6111030898,
				"z": 0.5853560354,
				"element": "N" 
			},
			{
				"x": -2.4403662283,
				"y": -1.919391179,
				"z": 0.773382688,
				"element": "C" 
			},
			{
				"x": -3.6524725382,
				"y": -1.5145197821,
				"z": 0.2238265674,
				"element": "C" 
			},
			{
				"x": -3.6824633141,
				"y": -0.5977284645,
				"z": -0.8380539399,
				"element": "C" 
			},
			{
				"x": -2.5064911319,
				"y": -0.0725173719,
				"z": -1.3660862191,
				"element": "C" 
			},
			{
				"x": -2.4263286254,
				"y": -2.8683991964,
				"z": 1.8713526596,
				"element": "N" 
			},
			{
				"x": -3.4978220803,
				"y": -3.2973279954,
				"z": 2.2952795183,
				"element": "O" 
			},
			{
				"x": -1.318430116,
				"y": -3.1953069225,
				"z": 2.3232409435,
				"element": "O" 
			},
			{
				"x": 6.0885595942,
				"y": 0.7902910129,
				"z": -1.7841708138,
				"element": "H" 
			},
			{
				"x": 4.7095355629,
				"y": 0.4565519654,
				"z": -2.8485998655,
				"element": "H" 
			},
			{
				"x": 4.6314454999,
				"y": 1.7971535505,
				"z": -1.6885364298,
				"element": "H" 
			},
			{
				"x": 4.7871618045,
				"y": -1.1914771918,
				"z": -0.9321061972,
				"element": "H" 
			},
			{
				"x": 4.7094292183,
				"y": 0.1424053542,
				"z": 0.2221749872,
				"element": "H" 
			},
			{
				"x": 0.4537353696,
				"y": 0.5429609939,
				"z": -1.8783063706,
				"element": "H" 
			},
			{
				"x": 0.382779109,
				"y": -2.2273783375,
				"z": 1.3191617157,
				"element": "H" 
			},
			{
				"x": -4.5644824935,
				"y": -1.9260894308,
				"z": 0.6382563116,
				"element": "H" 
			},
			{
				"x": -4.6411161349,
				"y": -0.2985796004,
				"z": -1.2483976738,
				"element": "H" 
			},
			{
				"x": -2.5426638388,
				"y": 0.6364354052,
				"z": -2.1880820101,
				"element": "H" 
			}
		],
		 "valence_orbital": [ 
			{
				"type": "occ",
				"energy": -0.30695,
				"method": "rhf"
			},
			{
				"type": "occ",
				"energy": -0.29262,
				"method": "rhf"
			},
			{
				"type": "occ",
				"energy": -0.28774,
				"method": "rhf"
			},
			{
				"type": "occ",
				"energy": -0.25156,
				"method": "rhf"
			},
			{
				"type": "occ",
				"energy": -0.23764,
				"method": "rhf"
			},
			{
				"type": "unocc",
				"energy": -0.0942,
				"method": "rhf"
			},
			{
				"type": "unocc",
				"energy": -0.04799,
				"method": "rhf"
			},
			{
				"type": "unocc",
				"energy": -0.0008,
				"method": "rhf"
			},
			{
				"type": "unocc",
				"energy": 0.02019,
				"method": "rhf"
			},
			{
				"type": "unocc",
				"energy": 0.08781,
				"method": "rhf"
			}
		],
		"cosmo_sigma_profile": { 
			"-0.025": 0.0,
			"-0.024": 0.0,
			"-0.023": 0.0,
			"-0.022": 0.0,
			"-0.021": 0.0,
			"-0.02": 0.0,
			"-0.019": 0.0,
			"-0.018": 0.0,
			"-0.017": 0.0,
			"-0.016": 0.0,
			"-0.015": 0.0,
			"-0.014": 0.0,
			"-0.013": 0.0,
			"-0.012": 0.0,
			"-0.011": 0.0,
			"-0.01": 0.0536160587629,
			"-0.009": 0.899448245654,
			"-0.008": 3.18110173093,
			"-0.007": 8.30076973388,
			"-0.006": 11.5053578498,
			"-0.005": 18.0747567986,
			"-0.004": 20.6459388161,
			"-0.003": 23.9824363565,
			"-0.002": 24.7036167103,
			"-0.001": 21.4072901879,
			"0.0": 26.7578527257,
			"0.001": 19.9347775482,
			"0.002": 19.762299443,
			"0.003": 12.1112870957,
			"0.004": 5.44818120951,
			"0.005": 5.72611696372,
			"0.006": 6.32734984396,
			"0.007": 6.79845597557,
			"0.008": 7.27421558284,
			"0.009": 6.40850412751,
			"0.01": 5.26605422402,
			"0.011": 4.19219794026,
			"0.012": 2.39110168783,
			"0.013": 0.0566175157931,
			"0.014": 0.0,
			"0.015": 0.0,
			"0.016": 0.0,
			"0.017": 0.0,
			"0.018": 0.0,
			"0.019": 0.0,
			"0.02": 0.0,
			"0.021": 0.0,
			"0.022": 0.0,
			"0.023": 0.0,
			"0.024": 0.0,
			"0.025": 0.0
		}
	}
}
