{
	 "smiles": "CCC1=NC(=NN1C1=CC=CC=C1)C(O)=O", 
	 "Tm": 419.15, 
	 "num_atms": 27, 
	 "gaussian": { 
		 "optdone": 1, 
		 "sigma_profile": "yes", 
		 "theory": "DFT", 
		 "functional": "B3LYP", 
		 "basiset": "6-31G**", 
		 "properties": { 
			 "R2extent": 4210.4434, 
			 "electric_dipole_moment_norm": 8.51617371476, 
			 "electric_quadrupole_moment_norm": 18.3549378754, 
			 "total_energy": -740.508662874, 
			 "HOMO_LUMO_gap": 0.2098, 
			 "cosmo_polarized_energy": -17.84, 
			 "cosmo_cavitation_energy": 31.87, 
			 "cosmo_dispersion_energy": -22.8, 
			 "cosmo_repulsion_energy": 1.8, 
			 "cosmo_total_nonelectrostatic_energy": 10.88, 
			 "SMD_solvation_energy": 4.47 
		},
		"coords": [
			{
				"x": -1.5504020381,
				"y": 2.7395576936,
				"z": -0.4134362034,
				"element": "C" 
			},
			{
				"x": -1.0517492718,
				"y": 1.4540219952,
				"z": -1.0969902996,
				"element": "C" 
			},
			{
				"x": 0.0391852191,
				"y": 0.7748620494,
				"z": -0.3263345014,
				"element": "C" 
			},
			{
				"x": 1.2728430354,
				"y": 1.238376692,
				"z": -0.2080011657,
				"element": "N" 
			},
			{
				"x": 1.9004353449,
				"y": 0.2865157878,
				"z": 0.527769366,
				"element": "C" 
			},
			{
				"x": 1.1381621831,
				"y": -0.743980959,
				"z": 0.8764127819,
				"element": "N" 
			},
			{
				"x": -0.0656680428,
				"y": -0.4252987019,
				"z": 0.3367037643,
				"element": "N" 
			},
			{
				"x": -1.1678698346,
				"y": -1.3241390163,
				"z": 0.4685052927,
				"element": "C" 
			},
			{
				"x": -2.4254086425,
				"y": -0.8487463839,
				"z": 0.8492059797,
				"element": "C" 
			},
			{
				"x": -3.4892529604,
				"y": -1.744537921,
				"z": 0.9648143534,
				"element": "C" 
			},
			{
				"x": -3.2936965845,
				"y": -3.1049039739,
				"z": 0.7233377402,
				"element": "C" 
			},
			{
				"x": -2.0271936066,
				"y": -3.5727307955,
				"z": 0.3635929943,
				"element": "C" 
			},
			{
				"x": -0.9607997807,
				"y": -2.6860674306,
				"z": 0.2300709079,
				"element": "C" 
			},
			{
				"x": 3.3347754575,
				"y": 0.332276755,
				"z": 0.9483012617,
				"element": "C" 
			},
			{
				"x": 3.7116968238,
				"y": -0.7327231508,
				"z": 1.6939243795,
				"element": "O" 
			},
			{
				"x": 4.0954949919,
				"y": 1.2206852779,
				"z": 0.6608251514,
				"element": "O" 
			},
			{
				"x": -2.2962091217,
				"y": 3.2376862247,
				"z": -1.0395747406,
				"element": "H" 
			},
			{
				"x": -0.7181555446,
				"y": 3.4285942144,
				"z": -0.2492211744,
				"element": "H" 
			},
			{
				"x": -2.0094399982,
				"y": 2.5290628725,
				"z": 0.558266557,
				"element": "H" 
			},
			{
				"x": -0.6354480579,
				"y": 1.708959139,
				"z": -2.0771286579,
				"element": "H" 
			},
			{
				"x": -1.8787599975,
				"y": 0.7596166319,
				"z": -1.2673550479,
				"element": "H" 
			},
			{
				"x": -2.5640696737,
				"y": 0.202892082,
				"z": 1.0750691999,
				"element": "H" 
			},
			{
				"x": -4.4671440442,
				"y": -1.3768944071,
				"z": 1.2600413074,
				"element": "H" 
			},
			{
				"x": -4.1225507834,
				"y": -3.7991535503,
				"z": 0.8212457259,
				"element": "H" 
			},
			{
				"x": -1.8687360365,
				"y": -4.6309229462,
				"z": 0.179787746,
				"element": "H" 
			},
			{
				"x": 0.0272242446,
				"y": -3.0319259697,
				"z": -0.0517408545,
				"element": "H" 
			},
			{
				"x": 2.9428367195,
				"y": -1.3177822092,
				"z": 1.8105081361,
				"element": "H" 
			}
		],
		 "valence_orbital": [ 
			{
				"type": "occ",
				"energy": -0.29366,
				"method": "rhf"
			},
			{
				"type": "occ",
				"energy": -0.28551,
				"method": "rhf"
			},
			{
				"type": "occ",
				"energy": -0.27979,
				"method": "rhf"
			},
			{
				"type": "occ",
				"energy": -0.26793,
				"method": "rhf"
			},
			{
				"type": "occ",
				"energy": -0.26069,
				"method": "rhf"
			},
			{
				"type": "unocc",
				"energy": -0.05089,
				"method": "rhf"
			},
			{
				"type": "unocc",
				"energy": -0.03103,
				"method": "rhf"
			},
			{
				"type": "unocc",
				"energy": -0.02386,
				"method": "rhf"
			},
			{
				"type": "unocc",
				"energy": 0.00755,
				"method": "rhf"
			},
			{
				"type": "unocc",
				"energy": 0.06243,
				"method": "rhf"
			}
		],
		"cosmo_sigma_profile": { 
			"-0.025": 0.0,
			"-0.024": 0.0,
			"-0.023": 0.0,
			"-0.022": 0.0,
			"-0.021": 0.0,
			"-0.02": 0.0,
			"-0.019": 0.0,
			"-0.018": 0.0,
			"-0.017": 0.0,
			"-0.016": 0.0422258819197,
			"-0.015": 0.505386916413,
			"-0.014": 0.268569884487,
			"-0.013": 0.224127810213,
			"-0.012": 0.89022606417,
			"-0.011": 1.17874980562,
			"-0.01": 0.757927652914,
			"-0.009": 0.577689652048,
			"-0.008": 1.8097953981,
			"-0.007": 7.88646405342,
			"-0.006": 15.1957518715,
			"-0.005": 21.4289126641,
			"-0.004": 25.2340833919,
			"-0.003": 23.3232816761,
			"-0.002": 22.8071018086,
			"-0.001": 15.330859902,
			"0.0": 20.0548383398,
			"0.001": 13.1218296113,
			"0.002": 12.9430252864,
			"0.003": 15.4786215457,
			"0.004": 11.1766342208,
			"0.005": 3.95035674986,
			"0.006": 4.98497491706,
			"0.007": 4.14924132764,
			"0.008": 3.19376326881,
			"0.009": 5.26961266043,
			"0.01": 6.23999210986,
			"0.011": 6.36255980463,
			"0.012": 5.20608319681,
			"0.013": 2.62929423473,
			"0.014": 1.52581799576,
			"0.015": 0.91353782358,
			"0.016": 0.262407073244,
			"0.017": 0.0,
			"0.018": 0.0,
			"0.019": 0.0,
			"0.02": 0.0,
			"0.021": 0.0,
			"0.022": 0.0,
			"0.023": 0.0,
			"0.024": 0.0,
			"0.025": 0.0
		}
	}
}
