{
	 "smiles": "COC1=C(OC(C)C)C(Cl)=CC(=C1)C(O)=O", 
	 "Tm": 430.15, 
	 "num_atms": 29, 
	 "gaussian": { 
		 "optdone": 1, 
		 "sigma_profile": "yes", 
		 "theory": "DFT", 
		 "functional": "B3LYP", 
		 "basiset": "6-31G**", 
		 "properties": { 
			 "R2extent": 5325.2012, 
			 "electric_dipole_moment_norm": 5.56557643825, 
			 "electric_quadrupole_moment_norm": 23.7406205646, 
			 "total_energy": -1188.08240205, 
			 "HOMO_LUMO_gap": 0.19461, 
			 "cosmo_polarized_energy": -14.94, 
			 "cosmo_cavitation_energy": 34.43, 
			 "cosmo_dispersion_energy": -23.85, 
			 "cosmo_repulsion_energy": 1.87, 
			 "cosmo_total_nonelectrostatic_energy": 12.45, 
			 "SMD_solvation_energy": 7.82 
		},
		"coords": [
			{
				"x": 2.4612063805,
				"y": 1.0828723412,
				"z": -0.8588244251,
				"element": "C" 
			},
			{
				"x": 1.8165129262,
				"y": -0.1561681364,
				"z": -1.1910588354,
				"element": "O" 
			},
			{
				"x": 0.4915193608,
				"y": -0.0741753074,
				"z": -1.5236622073,
				"element": "C" 
			},
			{
				"x": -0.4855403829,
				"y": 0.2843503933,
				"z": -0.5687430756,
				"element": "C" 
			},
			{
				"x": -0.1028010543,
				"y": 0.6370092526,
				"z": 0.6887546992,
				"element": "O" 
			},
			{
				"x": -0.3262448671,
				"y": -0.3332885768,
				"z": 1.7612720618,
				"element": "C" 
			},
			{
				"x": -0.340254522,
				"y": 0.4762619617,
				"z": 3.0487468653,
				"element": "C" 
			},
			{
				"x": 0.7522806127,
				"y": -1.4113823678,
				"z": 1.7353684112,
				"element": "C" 
			},
			{
				"x": -1.828801608,
				"y": 0.3382007803,
				"z": -0.9874364378,
				"element": "C" 
			},
			{
				"x": -3.0613981294,
				"y": 0.8609806016,
				"z": 0.144523838,
				"element": "Cl" 
			},
			{
				"x": -2.2038980074,
				"y": 0.0067028523,
				"z": -2.2841190981,
				"element": "C" 
			},
			{
				"x": -1.2310469808,
				"y": -0.3969288432,
				"z": -3.2043302381,
				"element": "C" 
			},
			{
				"x": 0.1158971956,
				"y": -0.4123362502,
				"z": -2.8234406054,
				"element": "C" 
			},
			{
				"x": -1.6944004834,
				"y": -0.7448099529,
				"z": -4.5875496303,
				"element": "C" 
			},
			{
				"x": -0.8456752056,
				"y": -1.4881540357,
				"z": -5.3459991869,
				"element": "O" 
			},
			{
				"x": -2.7622158088,
				"y": -0.3994772077,
				"z": -5.0351292534,
				"element": "O" 
			},
			{
				"x": 1.995507729,
				"y": 1.551162657,
				"z": 0.0114038033,
				"element": "H" 
			},
			{
				"x": 2.4329460948,
				"y": 1.7719163648,
				"z": -1.7118559718,
				"element": "H" 
			},
			{
				"x": 3.4987543151,
				"y": 0.8292991239,
				"z": -0.6344022069,
				"element": "H" 
			},
			{
				"x": -1.310735644,
				"y": -0.7881033265,
				"z": 1.6019657866,
				"element": "H" 
			},
			{
				"x": 0.6206584623,
				"y": 0.980554229,
				"z": 3.1932082854,
				"element": "H" 
			},
			{
				"x": -0.5160805695,
				"y": -0.1807669577,
				"z": 3.9058895276,
				"element": "H" 
			},
			{
				"x": -1.1285402653,
				"y": 1.2323016958,
				"z": 3.0187454914,
				"element": "H" 
			},
			{
				"x": 0.5588144384,
				"y": -2.1487292711,
				"z": 2.5217241722,
				"element": "H" 
			},
			{
				"x": 0.7717019654,
				"y": -1.9344374878,
				"z": 0.775964974,
				"element": "H" 
			},
			{
				"x": 1.7405128547,
				"y": -0.9740648028,
				"z": 1.9059138932,
				"element": "H" 
			},
			{
				"x": -3.2399374964,
				"y": 0.0595969226,
				"z": -2.5959569851,
				"element": "H" 
			},
			{
				"x": 0.9149230983,
				"y": -0.6546850409,
				"z": -3.5180713905,
				"element": "H" 
			},
			{
				"x": -0.1173644091,
				"y": -1.8227016112,
				"z": -4.8046022617,
				"element": "H" 
			}
		],
		 "valence_orbital": [ 
			{
				"type": "occ",
				"energy": -0.3039,
				"method": "rhf"
			},
			{
				"type": "occ",
				"energy": -0.2908,
				"method": "rhf"
			},
			{
				"type": "occ",
				"energy": -0.27449,
				"method": "rhf"
			},
			{
				"type": "occ",
				"energy": -0.25894,
				"method": "rhf"
			},
			{
				"type": "occ",
				"energy": -0.25053,
				"method": "rhf"
			},
			{
				"type": "unocc",
				"energy": -0.05592,
				"method": "rhf"
			},
			{
				"type": "unocc",
				"energy": -0.02682,
				"method": "rhf"
			},
			{
				"type": "unocc",
				"energy": 0.01639,
				"method": "rhf"
			},
			{
				"type": "unocc",
				"energy": 0.0434,
				"method": "rhf"
			},
			{
				"type": "unocc",
				"energy": 0.06179,
				"method": "rhf"
			}
		],
		"cosmo_sigma_profile": { 
			"-0.025": 0.0,
			"-0.024": 0.0,
			"-0.023": 0.0,
			"-0.022": 0.0,
			"-0.021": 0.0,
			"-0.02": 0.0,
			"-0.019": 0.41796622267,
			"-0.018": 0.771897922482,
			"-0.017": 1.17149810599,
			"-0.016": 0.971549353705,
			"-0.015": 0.820758278573,
			"-0.014": 0.872863622241,
			"-0.013": 1.29843770791,
			"-0.012": 1.64831527279,
			"-0.011": 0.818813567131,
			"-0.01": 0.934559329595,
			"-0.009": 1.37336432924,
			"-0.008": 1.63577383658,
			"-0.007": 2.4882834931,
			"-0.006": 4.15658052728,
			"-0.005": 8.78717196232,
			"-0.004": 22.977442466,
			"-0.003": 30.7702775052,
			"-0.002": 27.6283792013,
			"-0.001": 23.6140994281,
			"0.0": 33.1894912018,
			"0.001": 26.8310422515,
			"0.002": 13.8344584058,
			"0.003": 12.4256678118,
			"0.004": 11.4065011587,
			"0.005": 6.69306178563,
			"0.006": 5.90119010321,
			"0.007": 3.98336250103,
			"0.008": 4.31781031609,
			"0.009": 6.05581896362,
			"0.01": 5.83803260599,
			"0.011": 6.09395509815,
			"0.012": 3.88878496265,
			"0.013": 1.05809247992,
			"0.014": 0.0,
			"0.015": 0.0,
			"0.016": 0.0,
			"0.017": 0.0,
			"0.018": 0.0,
			"0.019": 0.0,
			"0.02": 0.0,
			"0.021": 0.0,
			"0.022": 0.0,
			"0.023": 0.0,
			"0.024": 0.0,
			"0.025": 0.0
		}
	}
}
