{
	 "smiles": "OCC1=CC=C2N=CC=CC2=C1", 
	 "Tm": 352.65, 
	 "num_atms": 21, 
	 "gaussian": { 
		 "optdone": 1, 
		 "sigma_profile": "yes", 
		 "theory": "DFT", 
		 "functional": "B3LYP", 
		 "basiset": "6-31G**", 
		 "properties": { 
			 "R2extent": 2640.3113, 
			 "electric_dipole_moment_norm": 1.31427316034, 
			 "electric_quadrupole_moment_norm": 11.6483908979, 
			 "total_energy": -516.459711402, 
			 "HOMO_LUMO_gap": 0.17893, 
			 "cosmo_polarized_energy": -10.74, 
			 "cosmo_cavitation_energy": 24.74, 
			 "cosmo_dispersion_energy": -18.55, 
			 "cosmo_repulsion_energy": 1.46, 
			 "cosmo_total_nonelectrostatic_energy": 7.65, 
			 "SMD_solvation_energy": 2.6 
		},
		"coords": [
			{
				"x": 2.4569155663,
				"y": -1.4349599002,
				"z": 0.5747508927,
				"element": "O" 
			},
			{
				"x": 2.288326609,
				"y": -0.0293200192,
				"z": 0.6519856602,
				"element": "C" 
			},
			{
				"x": 0.842011138,
				"y": 0.4174069327,
				"z": 0.7610874872,
				"element": "C" 
			},
			{
				"x": 0.5436784328,
				"y": 1.7214781025,
				"z": 1.2449843757,
				"element": "C" 
			},
			{
				"x": -0.7533822479,
				"y": 2.1684615046,
				"z": 1.3337521876,
				"element": "C" 
			},
			{
				"x": -1.8336069079,
				"y": 1.3294106646,
				"z": 0.9481940939,
				"element": "C" 
			},
			{
				"x": -3.1065471594,
				"y": 1.8103032208,
				"z": 1.0578980319,
				"element": "N" 
			},
			{
				"x": -4.0938256556,
				"y": 1.0155406568,
				"z": 0.6947529321,
				"element": "C" 
			},
			{
				"x": -3.9169060464,
				"y": -0.3016672538,
				"z": 0.2002782035,
				"element": "C" 
			},
			{
				"x": -2.6401689598,
				"y": -0.7995637258,
				"z": 0.0867748281,
				"element": "C" 
			},
			{
				"x": -1.5415416781,
				"y": 0.014581178,
				"z": 0.4641214583,
				"element": "C" 
			},
			{
				"x": -0.1904842334,
				"y": -0.4129566594,
				"z": 0.3794873963,
				"element": "C" 
			},
			{
				"x": 2.0972902636,
				"y": -1.8150660889,
				"z": 1.3876388501,
				"element": "H" 
			},
			{
				"x": 2.8671021946,
				"y": 0.4023343379,
				"z": 1.4847485699,
				"element": "H" 
			},
			{
				"x": 2.7298971077,
				"y": 0.3667996668,
				"z": -0.270873971,
				"element": "H" 
			},
			{
				"x": 1.3608731705,
				"y": 2.3703050897,
				"z": 1.5526307933,
				"element": "H" 
			},
			{
				"x": -0.993061709,
				"y": 3.1601279823,
				"z": 1.7036337377,
				"element": "H" 
			},
			{
				"x": -5.1007827888,
				"y": 1.4210650149,
				"z": 0.7901873272,
				"element": "H" 
			},
			{
				"x": -4.7823219655,
				"y": -0.8943324955,
				"z": -0.0792829502,
				"element": "H" 
			},
			{
				"x": -2.4581399627,
				"y": -1.8038890674,
				"z": -0.2878098503,
				"element": "H" 
			},
			{
				"x": 0.0348748321,
				"y": -1.4073591414,
				"z": 0.0042599459,
				"element": "H" 
			}
		],
		 "valence_orbital": [ 
			{
				"type": "occ",
				"energy": -0.3053,
				"method": "rhf"
			},
			{
				"type": "occ",
				"energy": -0.2822,
				"method": "rhf"
			},
			{
				"type": "occ",
				"energy": -0.25252,
				"method": "rhf"
			},
			{
				"type": "occ",
				"energy": -0.24741,
				"method": "rhf"
			},
			{
				"type": "occ",
				"energy": -0.23088,
				"method": "rhf"
			},
			{
				"type": "unocc",
				"energy": -0.05195,
				"method": "rhf"
			},
			{
				"type": "unocc",
				"energy": -0.01731,
				"method": "rhf"
			},
			{
				"type": "unocc",
				"energy": 0.02031,
				"method": "rhf"
			},
			{
				"type": "unocc",
				"energy": 0.07523,
				"method": "rhf"
			},
			{
				"type": "unocc",
				"energy": 0.08589,
				"method": "rhf"
			}
		],
		"cosmo_sigma_profile": { 
			"-0.025": 0.0,
			"-0.024": 0.0,
			"-0.023": 0.0,
			"-0.022": 0.0,
			"-0.021": 0.0,
			"-0.02": 0.0,
			"-0.019": 0.0,
			"-0.018": 0.0,
			"-0.017": 0.0,
			"-0.016": 0.231942180459,
			"-0.015": 0.923531936118,
			"-0.014": 0.890111674212,
			"-0.013": 0.661217558132,
			"-0.012": 1.09840181982,
			"-0.011": 0.923100801655,
			"-0.01": 0.430553112684,
			"-0.009": 0.861005175361,
			"-0.008": 1.26512054092,
			"-0.007": 4.93379862911,
			"-0.006": 13.7534883654,
			"-0.005": 17.9491391487,
			"-0.004": 16.8000885346,
			"-0.003": 12.9994949391,
			"-0.002": 11.6936878894,
			"-0.001": 9.0636000601,
			"0.0": 10.3006739974,
			"0.001": 11.9347052856,
			"0.002": 19.8707399804,
			"0.003": 21.1030355594,
			"0.004": 11.7724671272,
			"0.005": 4.23641596296,
			"0.006": 3.07341001284,
			"0.007": 2.64554726562,
			"0.008": 2.1742953574,
			"0.009": 2.30399595491,
			"0.01": 2.42349748567,
			"0.011": 2.32859514846,
			"0.012": 2.0677872378,
			"0.013": 2.67399870026,
			"0.014": 2.43319956892,
			"0.015": 0.853048295404,
			"0.016": 0.676993872793,
			"0.017": 0.16389633319,
			"0.018": 0.0,
			"0.019": 0.0,
			"0.02": 0.0,
			"0.021": 0.0,
			"0.022": 0.0,
			"0.023": 0.0,
			"0.024": 0.0,
			"0.025": 0.0
		}
	}
}
