{
	 "smiles": "NC(CC1=CC=C(Br)C=C1)C(O)=O", 
	 "Tm": 535.15, 
	 "num_atms": 23, 
	 "gaussian": { 
		 "optdone": 1, 
		 "sigma_profile": "yes", 
		 "theory": "DFT", 
		 "functional": "B3LYP", 
		 "basiset": "6-31G**", 
		 "properties": { 
			 "R2extent": 5722.0733, 
			 "electric_dipole_moment_norm": 3.66359751883, 
			 "electric_quadrupole_moment_norm": 24.3060860066, 
			 "total_energy": -3125.6056131, 
			 "HOMO_LUMO_gap": 0.21796, 
			 "cosmo_polarized_energy": -16.44, 
			 "cosmo_cavitation_energy": 29.54, 
			 "cosmo_dispersion_energy": -21.46, 
			 "cosmo_repulsion_energy": 1.72, 
			 "cosmo_total_nonelectrostatic_energy": 9.79, 
			 "SMD_solvation_energy": 4.47 
		},
		"coords": [
			{
				"x": -1.2405505853,
				"y": 0.6352326168,
				"z": -2.1225544194,
				"element": "N" 
			},
			{
				"x": -0.8499307034,
				"y": -0.7549614858,
				"z": -1.83883244,
				"element": "C" 
			},
			{
				"x": 0.5632230114,
				"y": -0.9611437777,
				"z": -1.2532003276,
				"element": "C" 
			},
			{
				"x": 0.7261490014,
				"y": -0.3511900279,
				"z": 0.120182701,
				"element": "C" 
			},
			{
				"x": 0.2908528943,
				"y": -1.039000492,
				"z": 1.2626640681,
				"element": "C" 
			},
			{
				"x": 0.3951356633,
				"y": -0.4754795427,
				"z": 2.5335937985,
				"element": "C" 
			},
			{
				"x": 0.9448855494,
				"y": 0.7989939417,
				"z": 2.6684395186,
				"element": "C" 
			},
			{
				"x": 1.0951180958,
				"y": 1.5813574611,
				"z": 4.4057308875,
				"element": "Br" 
			},
			{
				"x": 1.391522354,
				"y": 1.5067351522,
				"z": 1.5551651361,
				"element": "C" 
			},
			{
				"x": 1.277283293,
				"y": 0.9256695685,
				"z": 0.290823987,
				"element": "C" 
			},
			{
				"x": -1.0461320296,
				"y": -1.6005552468,
				"z": -3.1189557018,
				"element": "C" 
			},
			{
				"x": -1.8579457766,
				"y": -1.0261562436,
				"z": -4.017400928,
				"element": "O" 
			},
			{
				"x": -0.5432392465,
				"y": -2.6886988228,
				"z": -3.2761691932,
				"element": "O" 
			},
			{
				"x": -1.537680666,
				"y": 1.1141206863,
				"z": -1.2779561632,
				"element": "H" 
			},
			{
				"x": -0.4519361622,
				"y": 1.1589389852,
				"z": -2.4974210793,
				"element": "H" 
			},
			{
				"x": -1.5819806897,
				"y": -1.1477984164,
				"z": -1.1208024617,
				"element": "H" 
			},
			{
				"x": 0.7514214696,
				"y": -2.0380619182,
				"z": -1.2293700501,
				"element": "H" 
			},
			{
				"x": 1.2963589016,
				"y": -0.5327688891,
				"z": -1.9484743337,
				"element": "H" 
			},
			{
				"x": -0.1298960447,
				"y": -2.0364652953,
				"z": 1.1607274036,
				"element": "H" 
			},
			{
				"x": 0.0598714144,
				"y": -1.0202741962,
				"z": 3.4088770838,
				"element": "H" 
			},
			{
				"x": 1.8261464457,
				"y": 2.4929121482,
				"z": 1.6731856538,
				"element": "H" 
			},
			{
				"x": 1.6412238109,
				"y": 1.4746062028,
				"z": -0.5743786662,
				"element": "H" 
			},
			{
				"x": -2.0785000009,
				"y": -0.1458124084,
				"z": -3.6309744738,
				"element": "H" 
			}
		],
		 "valence_orbital": [ 
			{
				"type": "occ",
				"energy": -0.29941,
				"method": "rhf"
			},
			{
				"type": "occ",
				"energy": -0.29365,
				"method": "rhf"
			},
			{
				"type": "occ",
				"energy": -0.27432,
				"method": "rhf"
			},
			{
				"type": "occ",
				"energy": -0.26133,
				"method": "rhf"
			},
			{
				"type": "occ",
				"energy": -0.24513,
				"method": "rhf"
			},
			{
				"type": "unocc",
				"energy": -0.02717,
				"method": "rhf"
			},
			{
				"type": "unocc",
				"energy": -0.0246,
				"method": "rhf"
			},
			{
				"type": "unocc",
				"energy": -0.00035,
				"method": "rhf"
			},
			{
				"type": "unocc",
				"energy": 0.01021,
				"method": "rhf"
			},
			{
				"type": "unocc",
				"energy": 0.06041,
				"method": "rhf"
			}
		],
		"cosmo_sigma_profile": { 
			"-0.025": 0.0,
			"-0.024": 0.0,
			"-0.023": 0.0,
			"-0.022": 0.0,
			"-0.021": 0.0,
			"-0.02": 0.0,
			"-0.019": 0.0,
			"-0.018": 0.0,
			"-0.017": 0.0,
			"-0.016": 0.0,
			"-0.015": 0.0,
			"-0.014": 0.0,
			"-0.013": 0.0,
			"-0.012": 0.492266157541,
			"-0.011": 3.36338737654,
			"-0.01": 3.5601166217,
			"-0.009": 4.12019628353,
			"-0.008": 4.95169055234,
			"-0.007": 11.476805735,
			"-0.006": 17.0993628248,
			"-0.005": 15.9935808203,
			"-0.004": 15.1437002747,
			"-0.003": 12.8599217959,
			"-0.002": 12.2536019129,
			"-0.001": 11.9338035891,
			"0.0": 11.8761923465,
			"0.001": 12.8123031445,
			"0.002": 15.640425879,
			"0.003": 19.6284882435,
			"0.004": 21.4319785623,
			"0.005": 12.2007291942,
			"0.006": 2.67096207443,
			"0.007": 3.03404568501,
			"0.008": 2.8754712154,
			"0.009": 3.14239340681,
			"0.01": 4.10298920466,
			"0.011": 5.61249255367,
			"0.012": 5.34216300107,
			"0.013": 3.06235244894,
			"0.014": 0.5029211218,
			"0.015": 0.0,
			"0.016": 0.0,
			"0.017": 0.0,
			"0.018": 0.0,
			"0.019": 0.0,
			"0.02": 0.0,
			"0.021": 0.0,
			"0.022": 0.0,
			"0.023": 0.0,
			"0.024": 0.0,
			"0.025": 0.0
		}
	}
}
