{
	 "smiles": "CCCCC(N1N=C2C=CC=CC2=N1)C(N)=O", 
	 "Tm": 375.15, 
	 "num_atms": 33, 
	 "gaussian": { 
		 "optdone": 1, 
		 "sigma_profile": "yes", 
		 "theory": "DFT", 
		 "functional": "B3LYP", 
		 "basiset": "6-31G**", 
		 "properties": { 
			 "R2extent": 5322.3043, 
			 "electric_dipole_moment_norm": 2.90470287809, 
			 "electric_quadrupole_moment_norm": 14.7417604563, 
			 "total_energy": -761.148172194, 
			 "HOMO_LUMO_gap": 0.17836, 
			 "cosmo_polarized_energy": -13.15, 
			 "cosmo_cavitation_energy": 35.87, 
			 "cosmo_dispersion_energy": -25.41, 
			 "cosmo_repulsion_energy": 2.01, 
			 "cosmo_total_nonelectrostatic_energy": 12.47, 
			 "SMD_solvation_energy": 4.51 
		},
		"coords": [
			{
				"x": 1.4743530431,
				"y": -2.0907202337,
				"z": 3.8807325903,
				"element": "C" 
			},
			{
				"x": 2.2184086772,
				"y": -2.8571379935,
				"z": 2.7804826718,
				"element": "C" 
			},
			{
				"x": 1.3061172952,
				"y": -3.5356520076,
				"z": 1.74293915,
				"element": "C" 
			},
			{
				"x": 0.4202043806,
				"y": -2.5986617561,
				"z": 0.9006508104,
				"element": "C" 
			},
			{
				"x": 1.2145839853,
				"y": -1.6833668853,
				"z": -0.0345318317,
				"element": "C" 
			},
			{
				"x": 0.4028633469,
				"y": -0.5528805648,
				"z": -0.51689386,
				"element": "N" 
			},
			{
				"x": 0.9926782074,
				"y": 0.597071558,
				"z": -0.8522964252,
				"element": "N" 
			},
			{
				"x": -0.0392268314,
				"y": 1.3407676383,
				"z": -1.3180425001,
				"element": "C" 
			},
			{
				"x": -0.0729530311,
				"y": 2.6629021401,
				"z": -1.8176132203,
				"element": "C" 
			},
			{
				"x": -1.3003922979,
				"y": 3.1472034086,
				"z": -2.2164443642,
				"element": "C" 
			},
			{
				"x": -2.4888689751,
				"y": 2.3613124687,
				"z": -2.1307454558,
				"element": "C" 
			},
			{
				"x": -2.4762765662,
				"y": 1.0723955105,
				"z": -1.6430334664,
				"element": "C" 
			},
			{
				"x": -1.226237102,
				"y": 0.5561304639,
				"z": -1.2315732063,
				"element": "C" 
			},
			{
				"x": -0.901528134,
				"y": -0.6558609414,
				"z": -0.7214499161,
				"element": "N" 
			},
			{
				"x": 1.8100325768,
				"y": -2.4447828801,
				"z": -1.2574807967,
				"element": "C" 
			},
			{
				"x": 2.5372523171,
				"y": -1.6580769355,
				"z": -2.0953894281,
				"element": "N" 
			},
			{
				"x": 1.6651313656,
				"y": -3.6476157449,
				"z": -1.4063400685,
				"element": "O" 
			},
			{
				"x": 0.7684413594,
				"y": -2.7443005343,
				"z": 4.4063056129,
				"element": "H" 
			},
			{
				"x": 2.1723278096,
				"y": -1.6905327207,
				"z": 4.6233670679,
				"element": "H" 
			},
			{
				"x": 0.9044732595,
				"y": -1.2450820382,
				"z": 3.4812740076,
				"element": "H" 
			},
			{
				"x": 2.9288283277,
				"y": -2.1822928388,
				"z": 2.2830438701,
				"element": "H" 
			},
			{
				"x": 2.8369541898,
				"y": -3.6356110802,
				"z": 3.2444510028,
				"element": "H" 
			},
			{
				"x": 1.9079700927,
				"y": -4.149452895,
				"z": 1.0659922841,
				"element": "H" 
			},
			{
				"x": 0.6374049249,
				"y": -4.22879541,
				"z": 2.2697381682,
				"element": "H" 
			},
			{
				"x": -0.2639448364,
				"y": -3.1978193199,
				"z": 0.2959260452,
				"element": "H" 
			},
			{
				"x": -0.1953612809,
				"y": -1.9685223324,
				"z": 1.549489324,
				"element": "H" 
			},
			{
				"x": 2.0470851096,
				"y": -1.2084199051,
				"z": 0.4925177882,
				"element": "H" 
			},
			{
				"x": 0.8298526034,
				"y": 3.2610836417,
				"z": -1.8797251795,
				"element": "H" 
			},
			{
				"x": -1.3740336166,
				"y": 4.1575033679,
				"z": -2.6080471923,
				"element": "H" 
			},
			{
				"x": -3.4259502053,
				"y": 2.7998198719,
				"z": -2.4605483197,
				"element": "H" 
			},
			{
				"x": -3.3767491249,
				"y": 0.4716585277,
				"z": -1.5748336826,
				"element": "H" 
			},
			{
				"x": 2.8754109222,
				"y": -2.0747361205,
				"z": -2.9499528253,
				"element": "H" 
			},
			{
				"x": 2.5040482074,
				"y": -0.6505274594,
				"z": -2.0112686547,
				"element": "H" 
			}
		],
		 "valence_orbital": [ 
			{
				"type": "occ",
				"energy": -0.3029,
				"method": "rhf"
			},
			{
				"type": "occ",
				"energy": -0.27608,
				"method": "rhf"
			},
			{
				"type": "occ",
				"energy": -0.26977,
				"method": "rhf"
			},
			{
				"type": "occ",
				"energy": -0.24577,
				"method": "rhf"
			},
			{
				"type": "occ",
				"energy": -0.23455,
				"method": "rhf"
			},
			{
				"type": "unocc",
				"energy": -0.05619,
				"method": "rhf"
			},
			{
				"type": "unocc",
				"energy": 0.00969,
				"method": "rhf"
			},
			{
				"type": "unocc",
				"energy": 0.01865,
				"method": "rhf"
			},
			{
				"type": "unocc",
				"energy": 0.02633,
				"method": "rhf"
			},
			{
				"type": "unocc",
				"energy": 0.08109,
				"method": "rhf"
			}
		],
		"cosmo_sigma_profile": { 
			"-0.025": 0.0,
			"-0.024": 0.0,
			"-0.023": 0.0,
			"-0.022": 0.0,
			"-0.021": 0.0,
			"-0.02": 0.0,
			"-0.019": 0.0,
			"-0.018": 0.0,
			"-0.017": 0.0,
			"-0.016": 0.0,
			"-0.015": 0.0865276849638,
			"-0.014": 1.2440683739,
			"-0.013": 1.01577120834,
			"-0.012": 1.05948840529,
			"-0.011": 2.00842954103,
			"-0.01": 1.73631801985,
			"-0.009": 1.83429671138,
			"-0.008": 2.2447719921,
			"-0.007": 7.12258359805,
			"-0.006": 12.1643023287,
			"-0.005": 12.8155818999,
			"-0.004": 16.4751191799,
			"-0.003": 18.6017581819,
			"-0.002": 27.6909677038,
			"-0.001": 28.4657625049,
			"0.0": 30.1859007677,
			"0.001": 29.510049849,
			"0.002": 21.1755881147,
			"0.003": 17.0286317106,
			"0.004": 13.5569947687,
			"0.005": 6.28989988491,
			"0.006": 4.3106061953,
			"0.007": 4.05937010733,
			"0.008": 2.78383280328,
			"0.009": 3.28799900709,
			"0.01": 3.25552223077,
			"0.011": 3.3539701136,
			"0.012": 4.08073325168,
			"0.013": 4.59930654337,
			"0.014": 1.08142309387,
			"0.015": 0.0,
			"0.016": 0.0,
			"0.017": 0.0,
			"0.018": 0.0,
			"0.019": 0.0,
			"0.02": 0.0,
			"0.021": 0.0,
			"0.022": 0.0,
			"0.023": 0.0,
			"0.024": 0.0,
			"0.025": 0.0
		}
	}
}
