{
	 "smiles": "COC1=C(OC)C(=O)C(C)=C(C)C1=O", 
	 "Tm": 335.65, 
	 "num_atms": 26, 
	 "gaussian": { 
		 "optdone": 1, 
		 "sigma_profile": "yes", 
		 "theory": "DFT", 
		 "functional": "B3LYP", 
		 "basiset": "6-31G**", 
		 "properties": { 
			 "R2extent": 3005.5334, 
			 "electric_dipole_moment_norm": 0.931317743845, 
			 "electric_quadrupole_moment_norm": 9.26920928667, 
			 "total_energy": -689.133125885, 
			 "HOMO_LUMO_gap": 0.10804, 
			 "cosmo_polarized_energy": -9.85, 
			 "cosmo_cavitation_energy": 29.48, 
			 "cosmo_dispersion_energy": -21.39, 
			 "cosmo_repulsion_energy": 1.69, 
			 "cosmo_total_nonelectrostatic_energy": 9.78, 
			 "SMD_solvation_energy": 7.86 
		},
		"coords": [
			{
				"x": 1.0862472899,
				"y": 2.0732394876,
				"z": -3.0335903801,
				"element": "C" 
			},
			{
				"x": 1.7387938042,
				"y": 1.3340953111,
				"z": -1.990651319,
				"element": "O" 
			},
			{
				"x": 1.0231078083,
				"y": 0.6569464621,
				"z": -1.0685853244,
				"element": "C" 
			},
			{
				"x": 1.5319637659,
				"y": 0.5489146146,
				"z": 0.195447001,
				"element": "C" 
			},
			{
				"x": 2.6567628774,
				"y": 1.2324741868,
				"z": 0.4929312757,
				"element": "O" 
			},
			{
				"x": 3.6078423538,
				"y": 0.7134882029,
				"z": 1.434179052,
				"element": "C" 
			},
			{
				"x": 0.7735612131,
				"y": -0.1818097754,
				"z": 1.2404644088,
				"element": "C" 
			},
			{
				"x": 1.1518668961,
				"y": -0.1754460797,
				"z": 2.4104036639,
				"element": "O" 
			},
			{
				"x": -0.4873554739,
				"y": -0.9097729011,
				"z": 0.8751731095,
				"element": "C" 
			},
			{
				"x": -1.1188046085,
				"y": -1.6442679764,
				"z": 2.0251578308,
				"element": "C" 
			},
			{
				"x": -0.9632345245,
				"y": -0.8463632236,
				"z": -0.3888768952,
				"element": "C" 
			},
			{
				"x": -2.2148946857,
				"y": -1.5043882005,
				"z": -0.8997705165,
				"element": "C" 
			},
			{
				"x": -0.2082200912,
				"y": -0.0835315006,
				"z": -1.4383258252,
				"element": "C" 
			},
			{
				"x": -0.6034655319,
				"y": -0.10233452,
				"z": -2.6025126757,
				"element": "O" 
			},
			{
				"x": 1.826576234,
				"y": 2.8028253145,
				"z": -3.3687278327,
				"element": "H" 
			},
			{
				"x": 0.7893021223,
				"y": 1.4233277658,
				"z": -3.8567284973,
				"element": "H" 
			},
			{
				"x": 0.2045381269,
				"y": 2.6005069975,
				"z": -2.6556705099,
				"element": "H" 
			},
			{
				"x": 4.54459869,
				"y": 1.2237553343,
				"z": 1.2000503504,
				"element": "H" 
			},
			{
				"x": 3.3056375085,
				"y": 0.9199149962,
				"z": 2.4609145892,
				"element": "H" 
			},
			{
				"x": 3.7430057274,
				"y": -0.3655636177,
				"z": 1.3091647445,
				"element": "H" 
			},
			{
				"x": -2.070544034,
				"y": -2.1017785149,
				"z": 1.7582244545,
				"element": "H" 
			},
			{
				"x": -0.446093481,
				"y": -2.4265616381,
				"z": 2.3934561284,
				"element": "H" 
			},
			{
				"x": -1.2761043661,
				"y": -0.9624849736,
				"z": 2.866224141,
				"element": "H" 
			},
			{
				"x": -2.9249472466,
				"y": -0.7494478043,
				"z": -1.2548286451,
				"element": "H" 
			},
			{
				"x": -2.7061497354,
				"y": -2.114790065,
				"z": -0.1431682688,
				"element": "H" 
			},
			{
				"x": -1.9837906387,
				"y": -2.1309478824,
				"z": -1.7663540599,
				"element": "H" 
			}
		],
		 "valence_orbital": [ 
			{
				"type": "occ",
				"energy": -0.31444,
				"method": "rhf"
			},
			{
				"type": "occ",
				"energy": -0.27467,
				"method": "rhf"
			},
			{
				"type": "occ",
				"energy": -0.26173,
				"method": "rhf"
			},
			{
				"type": "occ",
				"energy": -0.25779,
				"method": "rhf"
			},
			{
				"type": "occ",
				"energy": -0.21812,
				"method": "rhf"
			},
			{
				"type": "unocc",
				"energy": -0.11008,
				"method": "rhf"
			},
			{
				"type": "unocc",
				"energy": 0.00683,
				"method": "rhf"
			},
			{
				"type": "unocc",
				"energy": 0.02252,
				"method": "rhf"
			},
			{
				"type": "unocc",
				"energy": 0.08374,
				"method": "rhf"
			},
			{
				"type": "unocc",
				"energy": 0.10542,
				"method": "rhf"
			}
		],
		"cosmo_sigma_profile": { 
			"-0.025": 0.0,
			"-0.024": 0.0,
			"-0.023": 0.0,
			"-0.022": 0.0,
			"-0.021": 0.0,
			"-0.02": 0.0,
			"-0.019": 0.0,
			"-0.018": 0.0,
			"-0.017": 0.0,
			"-0.016": 0.0,
			"-0.015": 0.0,
			"-0.014": 0.0,
			"-0.013": 0.0,
			"-0.012": 0.0,
			"-0.011": 0.0,
			"-0.01": 0.0,
			"-0.009": 0.0,
			"-0.008": 0.00105764519612,
			"-0.007": 0.903161735466,
			"-0.006": 8.17731559868,
			"-0.005": 19.5123550576,
			"-0.004": 28.0396399769,
			"-0.003": 32.4929875505,
			"-0.002": 25.4015467492,
			"-0.001": 25.2878450524,
			"0.0": 19.3359158753,
			"0.001": 9.20498018109,
			"0.002": 6.62614319849,
			"0.003": 7.65534181252,
			"0.004": 6.48374520924,
			"0.005": 6.6093287807,
			"0.006": 5.53673778952,
			"0.007": 5.37702540621,
			"0.008": 5.47135317563,
			"0.009": 5.71085775234,
			"0.01": 6.13816129833,
			"0.011": 6.09310408302,
			"0.012": 2.14567088141,
			"0.013": 1.04543162605,
			"0.014": 0.237307452378,
			"0.015": 0.0,
			"0.016": 0.0,
			"0.017": 0.0,
			"0.018": 0.0,
			"0.019": 0.0,
			"0.02": 0.0,
			"0.021": 0.0,
			"0.022": 0.0,
			"0.023": 0.0,
			"0.024": 0.0,
			"0.025": 0.0
		}
	}
}
