{
	 "smiles": "CC1=NN=C(OC2=CC=C(N)C=C2)C=C1", 
	 "Tm": 388.15, 
	 "num_atms": 26, 
	 "gaussian": { 
		 "optdone": 1, 
		 "sigma_profile": "yes", 
		 "theory": "DFT", 
		 "functional": "B3LYP", 
		 "basiset": "6-31G**", 
		 "properties": { 
			 "R2extent": 4909.8174, 
			 "electric_dipole_moment_norm": 7.1160090704, 
			 "electric_quadrupole_moment_norm": 15.6428443088, 
			 "total_energy": -665.235002397, 
			 "HOMO_LUMO_gap": 0.16709, 
			 "cosmo_polarized_energy": -19.36, 
			 "cosmo_cavitation_energy": 30.86, 
			 "cosmo_dispersion_energy": -22.44, 
			 "cosmo_repulsion_energy": 1.77, 
			 "cosmo_total_nonelectrostatic_energy": 10.19, 
			 "SMD_solvation_energy": 3.77 
		},
		"coords": [
			{
				"x": -2.3673116755,
				"y": 3.0826775054,
				"z": -2.3384832667,
				"element": "C" 
			},
			{
				"x": -1.2432181632,
				"y": 2.1473364553,
				"z": -1.9775160694,
				"element": "C" 
			},
			{
				"x": -0.5375205482,
				"y": 1.6426737132,
				"z": -2.9964582338,
				"element": "N" 
			},
			{
				"x": 0.4759791347,
				"y": 0.8062771139,
				"z": -2.7739215162,
				"element": "N" 
			},
			{
				"x": 0.7913756406,
				"y": 0.4679620742,
				"z": -1.5270450829,
				"element": "C" 
			},
			{
				"x": 1.8475538819,
				"y": -0.3935464715,
				"z": -1.4623290021,
				"element": "O" 
			},
			{
				"x": 2.2986152246,
				"y": -0.8326008049,
				"z": -0.218822151,
				"element": "C" 
			},
			{
				"x": 3.3052244546,
				"y": -0.1302835778,
				"z": 0.4425687099,
				"element": "C" 
			},
			{
				"x": 3.8098227508,
				"y": -0.6106862044,
				"z": 1.6483189902,
				"element": "C" 
			},
			{
				"x": 3.3186781293,
				"y": -1.8028430582,
				"z": 2.210322917,
				"element": "C" 
			},
			{
				"x": 3.8672019998,
				"y": -2.3161146423,
				"z": 3.3863243705,
				"element": "N" 
			},
			{
				"x": 2.3066476176,
				"y": -2.4990718787,
				"z": 1.5252724683,
				"element": "C" 
			},
			{
				"x": 1.8016216574,
				"y": -2.0186695029,
				"z": 0.319680626,
				"element": "C" 
			},
			{
				"x": 0.1045654423,
				"y": 0.9498743043,
				"z": -0.399022193,
				"element": "C" 
			},
			{
				"x": -0.9416679331,
				"y": 1.8143997707,
				"z": -0.6447717801,
				"element": "C" 
			},
			{
				"x": -2.2219953447,
				"y": 4.0731630503,
				"z": -1.8921987637,
				"element": "H" 
			},
			{
				"x": -3.3324486674,
				"y": 2.7033017237,
				"z": -1.9835998288,
				"element": "H" 
			},
			{
				"x": -2.4115937404,
				"y": 3.1909366888,
				"z": -3.4234164239,
				"element": "H" 
			},
			{
				"x": 3.6941519847,
				"y": 0.7833912407,
				"z": 0.0043249745,
				"element": "H" 
			},
			{
				"x": 4.6010492507,
				"y": -0.0649277222,
				"z": 2.1559322826,
				"element": "H" 
			},
			{
				"x": 4.3135019366,
				"y": -1.6383813661,
				"z": 3.9883556092,
				"element": "H" 
			},
			{
				"x": 3.2711367977,
				"y": -2.9473357874,
				"z": 3.9032533299,
				"element": "H" 
			},
			{
				"x": 1.9229998437,
				"y": -3.429150138,
				"z": 1.9367655129,
				"element": "H" 
			},
			{
				"x": 1.0289505568,
				"y": -2.5634059404,
				"z": -0.2135425386,
				"element": "H" 
			},
			{
				"x": 0.387923027,
				"y": 0.6535360443,
				"z": 0.6036674799,
				"element": "H" 
			},
			{
				"x": -1.5231432583,
				"y": 2.2313874101,
				"z": 0.1730395794,
				"element": "H" 
			}
		],
		 "valence_orbital": [ 
			{
				"type": "occ",
				"energy": -0.29766,
				"method": "rhf"
			},
			{
				"type": "occ",
				"energy": -0.26073,
				"method": "rhf"
			},
			{
				"type": "occ",
				"energy": -0.24155,
				"method": "rhf"
			},
			{
				"type": "occ",
				"energy": -0.22155,
				"method": "rhf"
			},
			{
				"type": "occ",
				"energy": -0.20917,
				"method": "rhf"
			},
			{
				"type": "unocc",
				"energy": -0.04208,
				"method": "rhf"
			},
			{
				"type": "unocc",
				"energy": -0.01062,
				"method": "rhf"
			},
			{
				"type": "unocc",
				"energy": -0.00261,
				"method": "rhf"
			},
			{
				"type": "unocc",
				"energy": 0.00842,
				"method": "rhf"
			},
			{
				"type": "unocc",
				"energy": 0.07104,
				"method": "rhf"
			}
		],
		"cosmo_sigma_profile": { 
			"-0.025": 0.0,
			"-0.024": 0.0,
			"-0.023": 0.0,
			"-0.022": 0.0,
			"-0.021": 0.0,
			"-0.02": 0.0,
			"-0.019": 0.0,
			"-0.018": 0.0,
			"-0.017": 0.0,
			"-0.016": 0.0,
			"-0.015": 0.0,
			"-0.014": 0.0,
			"-0.013": 0.456487836306,
			"-0.012": 2.71824023225,
			"-0.011": 2.9933960645,
			"-0.01": 3.04444917331,
			"-0.009": 3.32447470618,
			"-0.008": 5.59524777777,
			"-0.007": 8.82469125038,
			"-0.006": 12.9459676546,
			"-0.005": 16.4752222233,
			"-0.004": 18.3695811518,
			"-0.003": 17.0185902866,
			"-0.002": 17.4291371522,
			"-0.001": 23.7470609436,
			"0.0": 18.5677324324,
			"0.001": 11.7668557904,
			"0.002": 9.51517887294,
			"0.003": 9.89881298381,
			"0.004": 12.2370608034,
			"0.005": 12.1822802173,
			"0.006": 6.39623760629,
			"0.007": 2.96077521392,
			"0.008": 3.22469483782,
			"0.009": 3.94401204188,
			"0.01": 3.49996110447,
			"0.011": 3.93350469077,
			"0.012": 3.44800425484,
			"0.013": 3.2510264691,
			"0.014": 4.0245283658,
			"0.015": 2.67281049693,
			"0.016": 1.68579524967,
			"0.017": 0.12026867545,
			"0.018": 0.0,
			"0.019": 0.0,
			"0.02": 0.0,
			"0.021": 0.0,
			"0.022": 0.0,
			"0.023": 0.0,
			"0.024": 0.0,
			"0.025": 0.0
		}
	}
}
