{
	 "smiles": "OC(=O)C=CC1=CC=C(OC2=CC=CC=C2)N=C1", 
	 "Tm": 478.15, 
	 "num_atms": 29, 
	 "gaussian": { 
		 "optdone": 1, 
		 "sigma_profile": "yes", 
		 "theory": "DFT", 
		 "functional": "B3LYP", 
		 "basiset": "6-31G**", 
		 "properties": { 
			 "R2extent": 8438.4655, 
			 "electric_dipole_moment_norm": 2.08679456104, 
			 "electric_quadrupole_moment_norm": 15.1977583867, 
			 "total_energy": -820.538702888, 
			 "HOMO_LUMO_gap": 0.15771, 
			 "cosmo_polarized_energy": -14.41, 
			 "cosmo_cavitation_energy": 35.48, 
			 "cosmo_dispersion_energy": -25.55, 
			 "cosmo_repulsion_energy": 1.97, 
			 "cosmo_total_nonelectrostatic_energy": 11.9, 
			 "SMD_solvation_energy": 6.78 
		},
		"coords": [
			{
				"x": -3.2816839115,
				"y": 6.5141002959,
				"z": -1.9763848353,
				"element": "O" 
			},
			{
				"x": -2.8480924749,
				"y": 5.2964150512,
				"z": -2.3976305785,
				"element": "C" 
			},
			{
				"x": -3.0265049301,
				"y": 4.9022174676,
				"z": -3.5354165109,
				"element": "O" 
			},
			{
				"x": -2.1630421079,
				"y": 4.5647225139,
				"z": -1.3178099572,
				"element": "C" 
			},
			{
				"x": -1.6651862656,
				"y": 3.3353309634,
				"z": -1.5513942765,
				"element": "C" 
			},
			{
				"x": -0.9629599475,
				"y": 2.4674019158,
				"z": -0.616683912,
				"element": "C" 
			},
			{
				"x": -0.6853599236,
				"y": 2.7979975084,
				"z": 0.729456194,
				"element": "C" 
			},
			{
				"x": -0.0108402636,
				"y": 1.9029118169,
				"z": 1.534472344,
				"element": "C" 
			},
			{
				"x": 0.3783216358,
				"y": 0.6726900924,
				"z": 0.9686310089,
				"element": "C" 
			},
			{
				"x": 1.0191678545,
				"y": -0.1855784182,
				"z": 1.8043009374,
				"element": "O" 
			},
			{
				"x": 1.5605052263,
				"y": -1.3859006676,
				"z": 1.3418755349,
				"element": "C" 
			},
			{
				"x": 1.1525939729,
				"y": -2.5488932627,
				"z": 1.9898915038,
				"element": "C" 
			},
			{
				"x": 1.7387892268,
				"y": -3.7665349064,
				"z": 1.6397293023,
				"element": "C" 
			},
			{
				"x": 2.7203992793,
				"y": -3.8145879151,
				"z": 0.6489556247,
				"element": "C" 
			},
			{
				"x": 3.1198266274,
				"y": -2.6373491278,
				"z": 0.0108389528,
				"element": "C" 
			},
			{
				"x": 2.5456817335,
				"y": -1.4141325642,
				"z": 0.3551542207,
				"element": "C" 
			},
			{
				"x": 0.1357387549,
				"y": 0.3282939533,
				"z": -0.2881519222,
				"element": "N" 
			},
			{
				"x": -0.517920892,
				"y": 1.2106792566,
				"z": -1.0513773797,
				"element": "C" 
			},
			{
				"x": -3.7157973059,
				"y": 6.9198784349,
				"z": -2.7448767896,
				"element": "H" 
			},
			{
				"x": -2.0897426303,
				"y": 5.0647026634,
				"z": -0.3576921973,
				"element": "H" 
			},
			{
				"x": -1.80383363,
				"y": 2.9427713413,
				"z": -2.5580314673,
				"element": "H" 
			},
			{
				"x": -0.998893508,
				"y": 3.754687132,
				"z": 1.1355727273,
				"element": "H" 
			},
			{
				"x": 0.2231769152,
				"y": 2.1156803249,
				"z": 2.5711502642,
				"element": "H" 
			},
			{
				"x": 0.3896111898,
				"y": -2.4864633697,
				"z": 2.7586915834,
				"element": "H" 
			},
			{
				"x": 1.4247651778,
				"y": -4.6762412731,
				"z": 2.1429666793,
				"element": "H" 
			},
			{
				"x": 3.1742018249,
				"y": -4.7625179247,
				"z": 0.3762261335,
				"element": "H" 
			},
			{
				"x": 3.8856493203,
				"y": -2.6682694768,
				"z": -0.7586456007,
				"element": "H" 
			},
			{
				"x": 2.8504680972,
				"y": -0.4965122297,
				"z": -0.1342490791,
				"element": "H" 
			},
			{
				"x": -0.7048390456,
				"y": 0.9007004039,
				"z": -2.0787685048,
				"element": "H" 
			}
		],
		 "valence_orbital": [ 
			{
				"type": "occ",
				"energy": -0.28015,
				"method": "rhf"
			},
			{
				"type": "occ",
				"energy": -0.27232,
				"method": "rhf"
			},
			{
				"type": "occ",
				"energy": -0.25441,
				"method": "rhf"
			},
			{
				"type": "occ",
				"energy": -0.24877,
				"method": "rhf"
			},
			{
				"type": "occ",
				"energy": -0.22722,
				"method": "rhf"
			},
			{
				"type": "unocc",
				"energy": -0.06951,
				"method": "rhf"
			},
			{
				"type": "unocc",
				"energy": -0.03451,
				"method": "rhf"
			},
			{
				"type": "unocc",
				"energy": -0.00479,
				"method": "rhf"
			},
			{
				"type": "unocc",
				"energy": -0.00204,
				"method": "rhf"
			},
			{
				"type": "unocc",
				"energy": 0.01979,
				"method": "rhf"
			}
		],
		"cosmo_sigma_profile": { 
			"-0.025": 0.0,
			"-0.024": 0.0,
			"-0.023": 0.0,
			"-0.022": 0.0,
			"-0.021": 0.0,
			"-0.02": 0.0,
			"-0.019": 0.0,
			"-0.018": 0.422721185648,
			"-0.017": 0.803005489242,
			"-0.016": 0.869307261503,
			"-0.015": 1.23118856906,
			"-0.014": 0.535750445749,
			"-0.013": 0.497306405236,
			"-0.012": 0.366730544255,
			"-0.011": 0.800722863918,
			"-0.01": 1.55195022642,
			"-0.009": 2.15719032309,
			"-0.008": 6.13145836829,
			"-0.007": 10.2032284155,
			"-0.006": 15.737008099,
			"-0.005": 18.2512449201,
			"-0.004": 18.0628796033,
			"-0.003": 15.0905910698,
			"-0.002": 14.8355054519,
			"-0.001": 19.9320728988,
			"0.0": 25.9142403702,
			"0.001": 27.8460841044,
			"0.002": 21.3612948589,
			"0.003": 17.7774312039,
			"0.004": 14.1471906739,
			"0.005": 13.5525171108,
			"0.006": 6.15255971448,
			"0.007": 5.6015694939,
			"0.008": 4.57813882244,
			"0.009": 4.42763403031,
			"0.01": 4.28386968609,
			"0.011": 2.77998337446,
			"0.012": 6.6010553452,
			"0.013": 2.29759168949,
			"0.014": 0.254767497769,
			"0.015": 0.0,
			"0.016": 0.0,
			"0.017": 0.0,
			"0.018": 0.0,
			"0.019": 0.0,
			"0.02": 0.0,
			"0.021": 0.0,
			"0.022": 0.0,
			"0.023": 0.0,
			"0.024": 0.0,
			"0.025": 0.0
		}
	}
}
