{
	 "smiles": "NC(=O)C1=NC(N)=CC=C1", 
	 "Tm": 415.15, 
	 "num_atms": 17, 
	 "gaussian": { 
		 "optdone": 1, 
		 "sigma_profile": "yes", 
		 "theory": "DFT", 
		 "functional": "B3LYP", 
		 "basiset": "6-31G**", 
		 "properties": { 
			 "R2extent": 1818.0622, 
			 "electric_dipole_moment_norm": 4.763632426, 
			 "electric_quadrupole_moment_norm": 16.0614332642, 
			 "total_energy": -472.366736651, 
			 "HOMO_LUMO_gap": 0.18018, 
			 "cosmo_polarized_energy": -15.73, 
			 "cosmo_cavitation_energy": 21.5, 
			 "cosmo_dispersion_energy": -16.24, 
			 "cosmo_repulsion_energy": 1.34, 
			 "cosmo_total_nonelectrostatic_energy": 6.6, 
			 "SMD_solvation_energy": 3.69 
		},
		"coords": [
			{
				"x": -1.7469305326,
				"y": -2.1862391285,
				"z": -1.1585758864,
				"element": "N" 
			},
			{
				"x": -2.0182258766,
				"y": -1.9348356433,
				"z": 0.147908265,
				"element": "C" 
			},
			{
				"x": -2.7801403639,
				"y": -2.6063075786,
				"z": 0.8359758204,
				"element": "O" 
			},
			{
				"x": -1.2929963357,
				"y": -0.7302935807,
				"z": 0.7062014206,
				"element": "C" 
			},
			{
				"x": -0.4830622059,
				"y": -0.0555061369,
				"z": -0.1288558463,
				"element": "N" 
			},
			{
				"x": 0.1740069843,
				"y": 1.0099719063,
				"z": 0.3471260738,
				"element": "C" 
			},
			{
				"x": 1.0385858345,
				"y": 1.6448593522,
				"z": -0.5253401051,
				"element": "N" 
			},
			{
				"x": 0.0341769023,
				"y": 1.4433741356,
				"z": 1.6840495972,
				"element": "C" 
			},
			{
				"x": -0.8120990918,
				"y": 0.7361608957,
				"z": 2.5239735595,
				"element": "C" 
			},
			{
				"x": -1.497253472,
				"y": -0.381431341,
				"z": 2.0367027564,
				"element": "C" 
			},
			{
				"x": -2.1694846218,
				"y": -2.9868368179,
				"z": -1.599222411,
				"element": "H" 
			},
			{
				"x": -1.087113059,
				"y": -1.5976881279,
				"z": -1.6441834082,
				"element": "H" 
			},
			{
				"x": 1.2459888065,
				"y": 2.6155308052,
				"z": -0.3446078667,
				"element": "H" 
			},
			{
				"x": 0.8876815752,
				"y": 1.4193685972,
				"z": -1.4982994224,
				"element": "H" 
			},
			{
				"x": 0.5860141903,
				"y": 2.3087611711,
				"z": 2.0384744213,
				"element": "H" 
			},
			{
				"x": -0.9378185914,
				"y": 1.051519597,
				"z": 3.5559277735,
				"element": "H" 
			},
			{
				"x": -2.1701301424,
				"y": -0.9744081054,
				"z": 2.6429452584,
				"element": "H" 
			}
		],
		 "valence_orbital": [ 
			{
				"type": "occ",
				"energy": -0.28461,
				"method": "rhf"
			},
			{
				"type": "occ",
				"energy": -0.28052,
				"method": "rhf"
			},
			{
				"type": "occ",
				"energy": -0.25568,
				"method": "rhf"
			},
			{
				"type": "occ",
				"energy": -0.23809,
				"method": "rhf"
			},
			{
				"type": "occ",
				"energy": -0.22103,
				"method": "rhf"
			},
			{
				"type": "unocc",
				"energy": -0.04085,
				"method": "rhf"
			},
			{
				"type": "unocc",
				"energy": -0.00232,
				"method": "rhf"
			},
			{
				"type": "unocc",
				"energy": 0.07009,
				"method": "rhf"
			},
			{
				"type": "unocc",
				"energy": 0.08314,
				"method": "rhf"
			},
			{
				"type": "unocc",
				"energy": 0.0998,
				"method": "rhf"
			}
		],
		"cosmo_sigma_profile": { 
			"-0.025": 0.0,
			"-0.024": 0.0,
			"-0.023": 0.0,
			"-0.022": 0.0,
			"-0.021": 0.0,
			"-0.02": 0.0,
			"-0.019": 0.0,
			"-0.018": 0.0,
			"-0.017": 0.0,
			"-0.016": 0.0,
			"-0.015": 0.0369065229056,
			"-0.014": 1.34580158686,
			"-0.013": 2.67155866774,
			"-0.012": 4.60037725838,
			"-0.011": 2.7160817817,
			"-0.01": 4.05041913768,
			"-0.009": 5.44964384035,
			"-0.008": 4.91479131523,
			"-0.007": 6.16559276434,
			"-0.006": 7.21292306641,
			"-0.005": 7.51845405104,
			"-0.004": 8.53125946479,
			"-0.003": 5.53980694266,
			"-0.002": 5.68774417914,
			"-0.001": 7.52117881556,
			"0.0": 8.95378837122,
			"0.001": 10.1849426707,
			"0.002": 16.4797546918,
			"0.003": 17.2854763478,
			"0.004": 8.98641714019,
			"0.005": 5.12792393625,
			"0.006": 4.96451652877,
			"0.007": 3.74217896551,
			"0.008": 2.29444603197,
			"0.009": 1.96833426929,
			"0.01": 2.81395880663,
			"0.011": 2.14918025998,
			"0.012": 2.16690116186,
			"0.013": 3.84303535031,
			"0.014": 5.22204545293,
			"0.015": 0.844788785984,
			"0.016": 0.0,
			"0.017": 0.0,
			"0.018": 0.0,
			"0.019": 0.0,
			"0.02": 0.0,
			"0.021": 0.0,
			"0.022": 0.0,
			"0.023": 0.0,
			"0.024": 0.0,
			"0.025": 0.0
		}
	}
}
