{
	 "smiles": "CCC1CCCC1C", 
	 "Tm": 167.15, 
	 "num_atms": 24, 
	 "gaussian": { 
		 "optdone": 1, 
		 "sigma_profile": "yes", 
		 "theory": "DFT", 
		 "functional": "B3LYP", 
		 "basiset": "6-31G**", 
		 "properties": { 
			 "R2extent": 1237.0222, 
			 "electric_dipole_moment_norm": 0.111249359549, 
			 "electric_quadrupole_moment_norm": 0.473522913912, 
			 "total_energy": -314.508714588, 
			 "HOMO_LUMO_gap": 0.36295, 
			 "cosmo_polarized_energy": -0.58, 
			 "cosmo_cavitation_energy": 23.17, 
			 "cosmo_dispersion_energy": -17.22, 
			 "cosmo_repulsion_energy": 1.42, 
			 "cosmo_total_nonelectrostatic_energy": 7.37, 
			 "SMD_solvation_energy": 3.39 
		},
		"coords": [
			{
				"x": 0.9459000802,
				"y": 2.208662839,
				"z": 1.0887359141,
				"element": "C" 
			},
			{
				"x": -0.0456313108,
				"y": 1.7652984563,
				"z": 0.0025059314,
				"element": "C" 
			},
			{
				"x": -0.383923145,
				"y": 0.260595951,
				"z": -0.0961680478,
				"element": "C" 
			},
			{
				"x": 0.7856672643,
				"y": -0.7319984628,
				"z": 0.0889996054,
				"element": "C" 
			},
			{
				"x": 0.1149624007,
				"y": -2.1144775783,
				"z": 0.3206898012,
				"element": "C" 
			},
			{
				"x": -1.3965415119,
				"y": -1.8222527641,
				"z": 0.5451361303,
				"element": "C" 
			},
			{
				"x": -1.4970987019,
				"y": -0.3050919815,
				"z": 0.8293527067,
				"element": "C" 
			},
			{
				"x": -1.3432467505,
				"y": 0.0118072673,
				"z": 2.3243463196,
				"element": "C" 
			},
			{
				"x": 0.6211847817,
				"y": 1.9352809212,
				"z": 2.0959786442,
				"element": "H" 
			},
			{
				"x": 1.0649367357,
				"y": 3.29738006,
				"z": 1.0661384871,
				"element": "H" 
			},
			{
				"x": 1.9371780188,
				"y": 1.7715522812,
				"z": 0.9313930119,
				"element": "H" 
			},
			{
				"x": -0.9851744225,
				"y": 2.3223130281,
				"z": 0.1213140716,
				"element": "H" 
			},
			{
				"x": 0.360771205,
				"y": 2.0850210527,
				"z": -0.9661205647,
				"element": "H" 
			},
			{
				"x": -0.7678769264,
				"y": 0.1064205253,
				"z": -1.115978991,
				"element": "H" 
			},
			{
				"x": 1.4654003986,
				"y": -0.7306612256,
				"z": -0.7698713693,
				"element": "H" 
			},
			{
				"x": 1.3863707547,
				"y": -0.4552158109,
				"z": 0.9614978244,
				"element": "H" 
			},
			{
				"x": 0.5563016728,
				"y": -2.6215152102,
				"z": 1.1846655498,
				"element": "H" 
			},
			{
				"x": 0.259517289,
				"y": -2.7814324755,
				"z": -0.5350776558,
				"element": "H" 
			},
			{
				"x": -1.8279133553,
				"y": -2.4278630655,
				"z": 1.3492936966,
				"element": "H" 
			},
			{
				"x": -1.9594205673,
				"y": -2.0590446496,
				"z": -0.3651734805,
				"element": "H" 
			},
			{
				"x": -2.4735028712,
				"y": 0.0802174008,
				"z": 0.5069534923,
				"element": "H" 
			},
			{
				"x": -0.3810011778,
				"y": -0.328042023,
				"z": 2.7233435144,
				"element": "H" 
			},
			{
				"x": -1.4282168819,
				"y": 1.0846520607,
				"z": 2.5233351546,
				"element": "H" 
			},
			{
				"x": -2.1297429789,
				"y": -0.4901065965,
				"z": 2.8991102535,
				"element": "H" 
			}
		],
		 "valence_orbital": [ 
			{
				"type": "occ",
				"energy": -0.31365,
				"method": "rhf"
			},
			{
				"type": "occ",
				"energy": -0.31129,
				"method": "rhf"
			},
			{
				"type": "occ",
				"energy": -0.30407,
				"method": "rhf"
			},
			{
				"type": "occ",
				"energy": -0.29943,
				"method": "rhf"
			},
			{
				"type": "occ",
				"energy": -0.28868,
				"method": "rhf"
			},
			{
				"type": "unocc",
				"energy": 0.07427,
				"method": "rhf"
			},
			{
				"type": "unocc",
				"energy": 0.09785,
				"method": "rhf"
			},
			{
				"type": "unocc",
				"energy": 0.11338,
				"method": "rhf"
			},
			{
				"type": "unocc",
				"energy": 0.13082,
				"method": "rhf"
			},
			{
				"type": "unocc",
				"energy": 0.13538,
				"method": "rhf"
			}
		],
		"cosmo_sigma_profile": { 
			"-0.025": 0.0,
			"-0.024": 0.0,
			"-0.023": 0.0,
			"-0.022": 0.0,
			"-0.021": 0.0,
			"-0.02": 0.0,
			"-0.019": 0.0,
			"-0.018": 0.0,
			"-0.017": 0.0,
			"-0.016": 0.0,
			"-0.015": 0.0,
			"-0.014": 0.0,
			"-0.013": 0.0,
			"-0.012": 0.0,
			"-0.011": 0.0,
			"-0.01": 0.0,
			"-0.009": 0.0,
			"-0.008": 0.0,
			"-0.007": 0.0,
			"-0.006": 0.0,
			"-0.005": 0.0,
			"-0.004": 0.0,
			"-0.003": 1.30374066392,
			"-0.002": 22.310373876,
			"-0.001": 42.6945729805,
			"0.0": 47.2793002404,
			"0.001": 37.7969223926,
			"0.002": 23.2586987073,
			"0.003": 2.54120487931,
			"0.004": 0.0,
			"0.005": 0.0,
			"0.006": 0.0,
			"0.007": 0.0,
			"0.008": 0.0,
			"0.009": 0.0,
			"0.01": 0.0,
			"0.011": 0.0,
			"0.012": 0.0,
			"0.013": 0.0,
			"0.014": 0.0,
			"0.015": 0.0,
			"0.016": 0.0,
			"0.017": 0.0,
			"0.018": 0.0,
			"0.019": 0.0,
			"0.02": 0.0,
			"0.021": 0.0,
			"0.022": 0.0,
			"0.023": 0.0,
			"0.024": 0.0,
			"0.025": 0.0
		}
	}
}
