{
	 "smiles": "OC(=O)C1=CC2=C(SCCC(=O)N2)C=C1", 
	 "Tm": 536.15, 
	 "num_atms": 24, 
	 "gaussian": { 
		 "optdone": 1, 
		 "sigma_profile": "yes", 
		 "theory": "DFT", 
		 "functional": "B3LYP", 
		 "basiset": "6-31G**", 
		 "properties": { 
			 "R2extent": 4201.3022, 
			 "electric_dipole_moment_norm": 5.56407079484, 
			 "electric_quadrupole_moment_norm": 10.9697279232, 
			 "total_energy": -1065.1163713, 
			 "HOMO_LUMO_gap": 0.16956, 
			 "cosmo_polarized_energy": -21.48, 
			 "cosmo_cavitation_energy": 29.44, 
			 "cosmo_dispersion_energy": -22.41, 
			 "cosmo_repulsion_energy": 1.69, 
			 "cosmo_total_nonelectrostatic_energy": 8.71, 
			 "SMD_solvation_energy": 6.03 
		},
		"coords": [
			{
				"x": -2.9817909901,
				"y": -1.8747989207,
				"z": 3.7177370916,
				"element": "O" 
			},
			{
				"x": -2.8567130412,
				"y": -1.6563431749,
				"z": 2.3827136268,
				"element": "C" 
			},
			{
				"x": -3.5951862436,
				"y": -2.2149953216,
				"z": 1.6060422492,
				"element": "O" 
			},
			{
				"x": -1.7760410307,
				"y": -0.7087055434,
				"z": 1.9520801011,
				"element": "C" 
			},
			{
				"x": -1.3769846504,
				"y": -0.7644641699,
				"z": 0.6182930024,
				"element": "C" 
			},
			{
				"x": -0.3847136004,
				"y": 0.081830584,
				"z": 0.0971211763,
				"element": "C" 
			},
			{
				"x": 0.233019573,
				"y": 1.0039319715,
				"z": 0.9723393821,
				"element": "C" 
			},
			{
				"x": 1.4688257039,
				"y": 2.1741072371,
				"z": 0.4664086035,
				"element": "S" 
			},
			{
				"x": 2.5860450462,
				"y": 1.0686306752,
				"z": -0.4757688909,
				"element": "C" 
			},
			{
				"x": 2.1579825242,
				"y": 0.8762494523,
				"z": -1.9217611451,
				"element": "C" 
			},
			{
				"x": 0.8111158799,
				"y": 0.2475543834,
				"z": -2.2417129494,
				"element": "C" 
			},
			{
				"x": 0.560272019,
				"y": -0.0486224832,
				"z": -3.4010834258,
				"element": "O" 
			},
			{
				"x": -0.1616022196,
				"y": -0.03864448,
				"z": -1.2874102807,
				"element": "N" 
			},
			{
				"x": -0.1788380067,
				"y": 1.0566562268,
				"z": 2.3125689883,
				"element": "C" 
			},
			{
				"x": -1.1779113488,
				"y": 0.2274884721,
				"z": 2.8065174237,
				"element": "C" 
			},
			{
				"x": -2.2323919693,
				"y": -1.4907675342,
				"z": 4.1933835301,
				"element": "H" 
			},
			{
				"x": -1.8723768857,
				"y": -1.4828283961,
				"z": -0.0280667677,
				"element": "H" 
			},
			{
				"x": 3.5664614228,
				"y": 1.5524768064,
				"z": -0.4468975502,
				"element": "H" 
			},
			{
				"x": 2.6732370335,
				"y": 0.1243816362,
				"z": 0.0683297812,
				"element": "H" 
			},
			{
				"x": 2.8900845148,
				"y": 0.2517991575,
				"z": -2.4475793236,
				"element": "H" 
			},
			{
				"x": 2.1623653765,
				"y": 1.8415889645,
				"z": -2.4391990331,
				"element": "H" 
			},
			{
				"x": -0.915205262,
				"y": -0.5201314087,
				"z": -1.7666632448,
				"element": "H" 
			},
			{
				"x": 0.302342967,
				"y": 1.7752610734,
				"z": 2.9681865493,
				"element": "H" 
			},
			{
				"x": -1.4947968122,
				"y": 0.3418447923,
				"z": 3.8395211057,
				"element": "H" 
			}
		],
		 "valence_orbital": [ 
			{
				"type": "occ",
				"energy": -0.29585,
				"method": "rhf"
			},
			{
				"type": "occ",
				"energy": -0.27982,
				"method": "rhf"
			},
			{
				"type": "occ",
				"energy": -0.26881,
				"method": "rhf"
			},
			{
				"type": "occ",
				"energy": -0.2525,
				"method": "rhf"
			},
			{
				"type": "occ",
				"energy": -0.23431,
				"method": "rhf"
			},
			{
				"type": "unocc",
				"energy": -0.06475,
				"method": "rhf"
			},
			{
				"type": "unocc",
				"energy": -0.03793,
				"method": "rhf"
			},
			{
				"type": "unocc",
				"energy": 0.00532,
				"method": "rhf"
			},
			{
				"type": "unocc",
				"energy": 0.01757,
				"method": "rhf"
			},
			{
				"type": "unocc",
				"energy": 0.03833,
				"method": "rhf"
			}
		],
		"cosmo_sigma_profile": { 
			"-0.025": 0.0,
			"-0.024": 0.0,
			"-0.023": 0.0,
			"-0.022": 0.0,
			"-0.021": 0.0,
			"-0.02": 0.0,
			"-0.019": 0.328862490579,
			"-0.018": 1.12252920464,
			"-0.017": 1.04324474167,
			"-0.016": 0.435124582169,
			"-0.015": 1.37967137647,
			"-0.014": 2.48314045048,
			"-0.013": 2.45281483047,
			"-0.012": 1.78836844794,
			"-0.011": 2.07581585311,
			"-0.01": 2.73106982655,
			"-0.009": 2.57535032376,
			"-0.008": 3.31702848491,
			"-0.007": 10.7749539314,
			"-0.006": 17.4968990057,
			"-0.005": 16.0784500293,
			"-0.004": 12.2211784353,
			"-0.003": 13.3795528768,
			"-0.002": 12.1126456275,
			"-0.001": 11.5309469851,
			"0.0": 12.3492003728,
			"0.001": 16.1026792691,
			"0.002": 19.5224686526,
			"0.003": 9.88321469148,
			"0.004": 6.65606501839,
			"0.005": 6.73985336392,
			"0.006": 5.23984413207,
			"0.007": 6.24851371186,
			"0.008": 5.0273357108,
			"0.009": 4.60426336202,
			"0.01": 6.00755499278,
			"0.011": 6.9829833624,
			"0.012": 7.68574744565,
			"0.013": 6.54342248157,
			"0.014": 1.63516878242,
			"0.015": 0.0629701152529,
			"0.016": 0.0,
			"0.017": 0.0,
			"0.018": 0.0,
			"0.019": 0.0,
			"0.02": 0.0,
			"0.021": 0.0,
			"0.022": 0.0,
			"0.023": 0.0,
			"0.024": 0.0,
			"0.025": 0.0
		}
	}
}
