{
	 "smiles": "CC(=O)OCCBr", 
	 "Tm": 259.35, 
	 "num_atms": 14, 
	 "gaussian": { 
		 "optdone": 1, 
		 "sigma_profile": "yes", 
		 "theory": "DFT", 
		 "functional": "B3LYP", 
		 "basiset": "6-31G**", 
		 "properties": { 
			 "R2extent": 2499.4429, 
			 "electric_dipole_moment_norm": 2.80281678673, 
			 "electric_quadrupole_moment_norm": 5.65179993719, 
			 "total_energy": -2878.51220005, 
			 "HOMO_LUMO_gap": 0.26906, 
			 "cosmo_polarized_energy": -7.52, 
			 "cosmo_cavitation_energy": 20.27, 
			 "cosmo_dispersion_energy": -15.3, 
			 "cosmo_repulsion_energy": 1.33, 
			 "cosmo_total_nonelectrostatic_energy": 6.29, 
			 "SMD_solvation_energy": 3.64 
		},
		"coords": [
			{
				"x": -0.5583832065,
				"y": -2.4528828867,
				"z": -1.7303698841,
				"element": "C" 
			},
			{
				"x": 0.5075969115,
				"y": -1.762868161,
				"z": -0.9153848078,
				"element": "C" 
			},
			{
				"x": 1.4123804823,
				"y": -2.3091651637,
				"z": -0.3249475612,
				"element": "O" 
			},
			{
				"x": 0.3263887402,
				"y": -0.4148221057,
				"z": -0.9318755823,
				"element": "O" 
			},
			{
				"x": 1.3169586436,
				"y": 0.3715727413,
				"z": -0.2356964646,
				"element": "C" 
			},
			{
				"x": 0.98978194,
				"y": 0.4179558151,
				"z": 1.2491468623,
				"element": "C" 
			},
			{
				"x": 2.2491008912,
				"y": 1.6323727952,
				"z": 2.1613194811,
				"element": "Br" 
			},
			{
				"x": -0.4810280593,
				"y": -2.1464081708,
				"z": -2.7779803786,
				"element": "H" 
			},
			{
				"x": -1.551752255,
				"y": -2.1606795607,
				"z": -1.3784529104,
				"element": "H" 
			},
			{
				"x": -0.4333710386,
				"y": -3.5321140303,
				"z": -1.6507137394,
				"element": "H" 
			},
			{
				"x": 2.3090180997,
				"y": -0.054489815,
				"z": -0.3964291304,
				"element": "H" 
			},
			{
				"x": 1.2604609119,
				"y": 1.3660561683,
				"z": -0.6805487138,
				"element": "H" 
			},
			{
				"x": 1.1094505956,
				"y": -0.5579436766,
				"z": 1.7151243689,
				"element": "H" 
			},
			{
				"x": -0.0085026565,
				"y": 0.8134160505,
				"z": 1.4326084603,
				"element": "H" 
			}
		],
		 "valence_orbital": [ 
			{
				"type": "occ",
				"energy": -0.3567,
				"method": "rhf"
			},
			{
				"type": "occ",
				"energy": -0.31539,
				"method": "rhf"
			},
			{
				"type": "occ",
				"energy": -0.28226,
				"method": "rhf"
			},
			{
				"type": "occ",
				"energy": -0.27965,
				"method": "rhf"
			},
			{
				"type": "occ",
				"energy": -0.27744,
				"method": "rhf"
			},
			{
				"type": "unocc",
				"energy": -0.00838,
				"method": "rhf"
			},
			{
				"type": "unocc",
				"energy": 0.00549,
				"method": "rhf"
			},
			{
				"type": "unocc",
				"energy": 0.1031,
				"method": "rhf"
			},
			{
				"type": "unocc",
				"energy": 0.10462,
				"method": "rhf"
			},
			{
				"type": "unocc",
				"energy": 0.12846,
				"method": "rhf"
			}
		],
		"cosmo_sigma_profile": { 
			"-0.025": 0.0,
			"-0.024": 0.0,
			"-0.023": 0.0,
			"-0.022": 0.0,
			"-0.021": 0.0,
			"-0.02": 0.0,
			"-0.019": 0.0,
			"-0.018": 0.0,
			"-0.017": 0.0,
			"-0.016": 0.0,
			"-0.015": 0.0,
			"-0.014": 0.0,
			"-0.013": 0.0,
			"-0.012": 0.0,
			"-0.011": 0.0,
			"-0.01": 0.0,
			"-0.009": 0.0,
			"-0.008": 0.907331330163,
			"-0.007": 5.59490622007,
			"-0.006": 12.6675907735,
			"-0.005": 13.9089722115,
			"-0.004": 16.176983081,
			"-0.003": 16.0621828844,
			"-0.002": 14.6160246636,
			"-0.001": 10.1391007356,
			"0.0": 8.15559541453,
			"0.001": 6.41772048752,
			"0.002": 6.28865382641,
			"0.003": 7.48459187499,
			"0.004": 8.15375617746,
			"0.005": 11.3065785449,
			"0.006": 10.3117932269,
			"0.007": 1.6659186945,
			"0.008": 2.20680326706,
			"0.009": 2.08197374505,
			"0.01": 2.02366808253,
			"0.011": 3.32699570387,
			"0.012": 2.98553333882,
			"0.013": 0.71757053674,
			"0.014": 0.0,
			"0.015": 0.0,
			"0.016": 0.0,
			"0.017": 0.0,
			"0.018": 0.0,
			"0.019": 0.0,
			"0.02": 0.0,
			"0.021": 0.0,
			"0.022": 0.0,
			"0.023": 0.0,
			"0.024": 0.0,
			"0.025": 0.0
		}
	}
}
