{
	 "smiles": "COC1=CC(CNC(N)=O)=CC=C1", 
	 "Tm": 385.15, 
	 "num_atms": 25, 
	 "gaussian": { 
		 "optdone": 1, 
		 "sigma_profile": "yes", 
		 "theory": "DFT", 
		 "functional": "B3LYP", 
		 "basiset": "6-31G**", 
		 "properties": { 
			 "R2extent": 3240.5751, 
			 "electric_dipole_moment_norm": 3.18874541317, 
			 "electric_quadrupole_moment_norm": 14.444344837, 
			 "total_energy": -610.153297885, 
			 "HOMO_LUMO_gap": 0.21085, 
			 "cosmo_polarized_energy": -16.79, 
			 "cosmo_cavitation_energy": 28.81, 
			 "cosmo_dispersion_energy": -20.44, 
			 "cosmo_repulsion_energy": 1.65, 
			 "cosmo_total_nonelectrostatic_energy": 10.02, 
			 "SMD_solvation_energy": 5.79 
		},
		"coords": [
			{
				"x": -0.6900668752,
				"y": -1.7947117144,
				"z": 2.6198431339,
				"element": "C" 
			},
			{
				"x": -1.814401921,
				"y": -0.9438419872,
				"z": 2.7866597417,
				"element": "O" 
			},
			{
				"x": -2.1950319059,
				"y": -0.164079924,
				"z": 1.7342349536,
				"element": "C" 
			},
			{
				"x": -1.5777086749,
				"y": -0.1709742126,
				"z": 0.480881953,
				"element": "C" 
			},
			{
				"x": -2.047828378,
				"y": 0.6756241904,
				"z": -0.536692542,
				"element": "C" 
			},
			{
				"x": -1.3623081604,
				"y": 0.6766136555,
				"z": -1.8940684796,
				"element": "C" 
			},
			{
				"x": 0.0273811972,
				"y": 1.1368686213,
				"z": -1.8702187679,
				"element": "N" 
			},
			{
				"x": 1.1500104805,
				"y": 0.3612865171,
				"z": -1.6450841703,
				"element": "C" 
			},
			{
				"x": 1.0260934497,
				"y": -0.9968847431,
				"z": -1.9430569982,
				"element": "N" 
			},
			{
				"x": 2.1892085903,
				"y": 0.8352056871,
				"z": -1.206067122,
				"element": "O" 
			},
			{
				"x": -3.132754211,
				"y": 1.5178000901,
				"z": -0.2938199609,
				"element": "C" 
			},
			{
				"x": -3.751181529,
				"y": 1.5151472641,
				"z": 0.9628403977,
				"element": "C" 
			},
			{
				"x": -3.289977206,
				"y": 0.6839500697,
				"z": 1.9736644509,
				"element": "C" 
			},
			{
				"x": -0.5499075839,
				"y": -2.2988457164,
				"z": 3.5772791075,
				"element": "H" 
			},
			{
				"x": 0.2150211962,
				"y": -1.2256144391,
				"z": 2.3733887331,
				"element": "H" 
			},
			{
				"x": -0.8630717356,
				"y": -2.5462282473,
				"z": 1.8387169474,
				"element": "H" 
			},
			{
				"x": -0.73605286,
				"y": -0.8226919907,
				"z": 0.275894172,
				"element": "H" 
			},
			{
				"x": -1.3873309048,
				"y": -0.3286219939,
				"z": -2.324081622,
				"element": "H" 
			},
			{
				"x": -1.9224215977,
				"y": 1.3186334446,
				"z": -2.5826668505,
				"element": "H" 
			},
			{
				"x": 0.1672545541,
				"y": 2.0678660145,
				"z": -1.4984024701,
				"element": "H" 
			},
			{
				"x": 1.9334992938,
				"y": -1.4423153898,
				"z": -1.9663284835,
				"element": "H" 
			},
			{
				"x": 0.4350887803,
				"y": -1.2514832534,
				"z": -2.723022328,
				"element": "H" 
			},
			{
				"x": -3.4969088977,
				"y": 2.1742591379,
				"z": -1.0796832588,
				"element": "H" 
			},
			{
				"x": -4.5963041205,
				"y": 2.1709139136,
				"z": 1.1521081823,
				"element": "H" 
			},
			{
				"x": -3.7522009806,
				"y": 0.6688250061,
				"z": 2.9551812808,
				"element": "H" 
			}
		],
		 "valence_orbital": [ 
			{
				"type": "occ",
				"energy": -0.27499,
				"method": "rhf"
			},
			{
				"type": "occ",
				"energy": -0.26166,
				"method": "rhf"
			},
			{
				"type": "occ",
				"energy": -0.24777,
				"method": "rhf"
			},
			{
				"type": "occ",
				"energy": -0.23959,
				"method": "rhf"
			},
			{
				"type": "occ",
				"energy": -0.21984,
				"method": "rhf"
			},
			{
				"type": "unocc",
				"energy": -0.00899,
				"method": "rhf"
			},
			{
				"type": "unocc",
				"energy": 0.01227,
				"method": "rhf"
			},
			{
				"type": "unocc",
				"energy": 0.05283,
				"method": "rhf"
			},
			{
				"type": "unocc",
				"energy": 0.0734,
				"method": "rhf"
			},
			{
				"type": "unocc",
				"energy": 0.09672,
				"method": "rhf"
			}
		],
		"cosmo_sigma_profile": { 
			"-0.025": 0.0,
			"-0.024": 0.0,
			"-0.023": 0.0,
			"-0.022": 0.0,
			"-0.021": 0.0,
			"-0.02": 0.0,
			"-0.019": 0.0,
			"-0.018": 0.0,
			"-0.017": 0.0,
			"-0.016": 0.0,
			"-0.015": 0.0,
			"-0.014": 0.696504126255,
			"-0.013": 2.49937722106,
			"-0.012": 3.46582598562,
			"-0.011": 3.33615518446,
			"-0.01": 3.77226411375,
			"-0.009": 3.36185221248,
			"-0.008": 2.33846922692,
			"-0.007": 3.99046010523,
			"-0.006": 9.27874488265,
			"-0.005": 19.6650806656,
			"-0.004": 20.4991609443,
			"-0.003": 20.6806990139,
			"-0.002": 14.7763014852,
			"-0.001": 10.1287368649,
			"0.0": 11.0124880133,
			"0.001": 10.087955521,
			"0.002": 9.44559062979,
			"0.003": 12.6304080012,
			"0.004": 13.3794441866,
			"0.005": 13.9397556768,
			"0.006": 10.3744396181,
			"0.007": 4.05545994501,
			"0.008": 2.31001174481,
			"0.009": 3.46393495599,
			"0.01": 2.83126833726,
			"0.011": 1.98568560204,
			"0.012": 1.49136843072,
			"0.013": 2.16611554336,
			"0.014": 5.83657781667,
			"0.015": 4.02876288957,
			"0.016": 0.0319659794108,
			"0.017": 0.0,
			"0.018": 0.0,
			"0.019": 0.0,
			"0.02": 0.0,
			"0.021": 0.0,
			"0.022": 0.0,
			"0.023": 0.0,
			"0.024": 0.0,
			"0.025": 0.0
		}
	}
}
