{
	 "smiles": "CS(=O)(=O)N1CCC(=O)CC1", 
	 "Tm": 371.15, 
	 "num_atms": 22, 
	 "gaussian": { 
		 "optdone": 1, 
		 "sigma_profile": "yes", 
		 "theory": "DFT", 
		 "functional": "B3LYP", 
		 "basiset": "6-31G**", 
		 "properties": { 
			 "R2extent": 2895.4782, 
			 "electric_dipole_moment_norm": 4.02908362038, 
			 "electric_quadrupole_moment_norm": 14.069640198, 
			 "total_energy": -913.802557125, 
			 "HOMO_LUMO_gap": 0.22417, 
			 "cosmo_polarized_energy": -17.41, 
			 "cosmo_cavitation_energy": 25.58, 
			 "cosmo_dispersion_energy": -19.2, 
			 "cosmo_repulsion_energy": 1.5, 
			 "cosmo_total_nonelectrostatic_energy": 7.87, 
			 "SMD_solvation_energy": 3.67 
		},
		"coords": [
			{
				"x": -3.3570664266,
				"y": -1.4205167539,
				"z": -0.9548229551,
				"element": "C" 
			},
			{
				"x": -2.9306554483,
				"y": 0.3035121565,
				"z": -0.6503053858,
				"element": "S" 
			},
			{
				"x": -2.6869712252,
				"y": 0.9274009254,
				"z": -1.9554350616,
				"element": "O" 
			},
			{
				"x": -3.9300095406,
				"y": 0.8486658329,
				"z": 0.2746591873,
				"element": "O" 
			},
			{
				"x": -1.4608695133,
				"y": 0.1803652867,
				"z": 0.179056462,
				"element": "N" 
			},
			{
				"x": -1.3869123685,
				"y": 0.6977530903,
				"z": 1.5626975147,
				"element": "C" 
			},
			{
				"x": -0.390090143,
				"y": 1.8557474149,
				"z": 1.6878249029,
				"element": "C" 
			},
			{
				"x": 1.0004827448,
				"y": 1.4471964896,
				"z": 1.2169338275,
				"element": "C" 
			},
			{
				"x": 2.0170467912,
				"y": 1.9810337407,
				"z": 1.6097942736,
				"element": "O" 
			},
			{
				"x": 1.009050441,
				"y": 0.2973011256,
				"z": 0.2134270849,
				"element": "C" 
			},
			{
				"x": -0.246803716,
				"y": 0.2825150967,
				"z": -0.6642630072,
				"element": "C" 
			},
			{
				"x": -4.2874235242,
				"y": -1.4248149494,
				"z": -1.5257619725,
				"element": "H" 
			},
			{
				"x": -2.5593351582,
				"y": -1.8885412141,
				"z": -1.5332566379,
				"element": "H" 
			},
			{
				"x": -3.4914815495,
				"y": -1.9211870098,
				"z": 0.0041866951,
				"element": "H" 
			},
			{
				"x": -1.0879929485,
				"y": -0.1203665425,
				"z": 2.2313341726,
				"element": "H" 
			},
			{
				"x": -2.3862798301,
				"y": 1.0141941141,
				"z": 1.8609937536,
				"element": "H" 
			},
			{
				"x": -0.324721543,
				"y": 2.2190802675,
				"z": 2.7177682687,
				"element": "H" 
			},
			{
				"x": -0.7220058051,
				"y": 2.7012183006,
				"z": 1.0691607743,
				"element": "H" 
			},
			{
				"x": 1.9097086338,
				"y": 0.3697885651,
				"z": -0.4015800297,
				"element": "H" 
			},
			{
				"x": 1.0806983606,
				"y": -0.6404429843,
				"z": 0.7821020474,
				"element": "H" 
			},
			{
				"x": -0.2811467414,
				"y": 1.183654959,
				"z": -1.2871019769,
				"element": "H" 
			},
			{
				"x": -0.2092214897,
				"y": -0.5733579117,
				"z": -1.346611938,
				"element": "H" 
			}
		],
		 "valence_orbital": [ 
			{
				"type": "occ",
				"energy": -0.31867,
				"method": "rhf"
			},
			{
				"type": "occ",
				"energy": -0.30901,
				"method": "rhf"
			},
			{
				"type": "occ",
				"energy": -0.30456,
				"method": "rhf"
			},
			{
				"type": "occ",
				"energy": -0.2593,
				"method": "rhf"
			},
			{
				"type": "occ",
				"energy": -0.25096,
				"method": "rhf"
			},
			{
				"type": "unocc",
				"energy": -0.02679,
				"method": "rhf"
			},
			{
				"type": "unocc",
				"energy": 0.05581,
				"method": "rhf"
			},
			{
				"type": "unocc",
				"energy": 0.05866,
				"method": "rhf"
			},
			{
				"type": "unocc",
				"energy": 0.08338,
				"method": "rhf"
			},
			{
				"type": "unocc",
				"energy": 0.08556,
				"method": "rhf"
			}
		],
		"cosmo_sigma_profile": { 
			"-0.025": 0.0,
			"-0.024": 0.0,
			"-0.023": 0.0,
			"-0.022": 0.0,
			"-0.021": 0.0,
			"-0.02": 0.0,
			"-0.019": 0.0,
			"-0.018": 0.0,
			"-0.017": 0.0,
			"-0.016": 0.0,
			"-0.015": 0.0,
			"-0.014": 0.0,
			"-0.013": 0.0,
			"-0.012": 0.0,
			"-0.011": 0.0,
			"-0.01": 0.00147101179609,
			"-0.009": 1.36433792739,
			"-0.008": 7.70045540898,
			"-0.007": 12.7207750728,
			"-0.006": 19.855421677,
			"-0.005": 23.6775629312,
			"-0.004": 22.8042931331,
			"-0.003": 17.8593297596,
			"-0.002": 11.3762844267,
			"-0.001": 6.12214677531,
			"0.0": 4.92565907946,
			"0.001": 3.83548849826,
			"0.002": 4.97438830557,
			"0.003": 5.03418686713,
			"0.004": 3.76791363211,
			"0.005": 3.30514943377,
			"0.006": 4.17723750969,
			"0.007": 3.90093470171,
			"0.008": 4.64715044905,
			"0.009": 5.22460949659,
			"0.01": 7.44131981452,
			"0.011": 13.0989409432,
			"0.012": 10.7956797386,
			"0.013": 2.06750008846,
			"0.014": 0.0349803460739,
			"0.015": 0.0,
			"0.016": 0.0,
			"0.017": 0.0,
			"0.018": 0.0,
			"0.019": 0.0,
			"0.02": 0.0,
			"0.021": 0.0,
			"0.022": 0.0,
			"0.023": 0.0,
			"0.024": 0.0,
			"0.025": 0.0
		}
	}
}
