{
	 "smiles": "OC(=O)C1=CN(N=N1)C1CCCCC1", 
	 "Tm": 437.15, 
	 "num_atms": 27, 
	 "gaussian": { 
		 "optdone": 1, 
		 "sigma_profile": "yes", 
		 "theory": "DFT", 
		 "functional": "B3LYP", 
		 "basiset": "6-31G**", 
		 "properties": { 
			 "R2extent": 3558.9567, 
			 "electric_dipole_moment_norm": 8.93448009064, 
			 "electric_quadrupole_moment_norm": 20.3363076531, 
			 "total_energy": -665.469471269, 
			 "HOMO_LUMO_gap": 0.23576, 
			 "cosmo_polarized_energy": -24.31, 
			 "cosmo_cavitation_energy": 29.25, 
			 "cosmo_dispersion_energy": -21.35, 
			 "cosmo_repulsion_energy": 1.69, 
			 "cosmo_total_nonelectrostatic_energy": 9.59, 
			 "SMD_solvation_energy": 4.03 
		},
		"coords": [
			{
				"x": -0.0128255938,
				"y": -4.4948841107,
				"z": 0.1262831065,
				"element": "O" 
			},
			{
				"x": 0.8855179245,
				"y": -3.7511068053,
				"z": 0.8400189285,
				"element": "C" 
			},
			{
				"x": 1.838345316,
				"y": -4.2720445821,
				"z": 1.357490533,
				"element": "O" 
			},
			{
				"x": 0.59727911,
				"y": -2.2941654895,
				"z": 0.8800136692,
				"element": "C" 
			},
			{
				"x": -0.1272420671,
				"y": -1.511569532,
				"z": -0.0054394619,
				"element": "C" 
			},
			{
				"x": -0.0245802482,
				"y": -0.2537300873,
				"z": 0.4837610538,
				"element": "N" 
			},
			{
				"x": 0.7263374658,
				"y": -0.2616374322,
				"z": 1.6221255004,
				"element": "N" 
			},
			{
				"x": 1.1033024943,
				"y": -1.480002436,
				"z": 1.8531556264,
				"element": "N" 
			},
			{
				"x": -0.5384410402,
				"y": 1.0465012301,
				"z": 0.0102640249,
				"element": "C" 
			},
			{
				"x": -2.0796446088,
				"y": 1.0991067955,
				"z": -0.0265038366,
				"element": "C" 
			},
			{
				"x": -2.7052404888,
				"y": 0.4419497267,
				"z": -1.2675246696,
				"element": "C" 
			},
			{
				"x": -2.078394472,
				"y": 0.9730714073,
				"z": -2.5661915006,
				"element": "C" 
			},
			{
				"x": -0.550416124,
				"y": 0.8095524915,
				"z": -2.564089847,
				"element": "C" 
			},
			{
				"x": 0.0869669578,
				"y": 1.4744480841,
				"z": -1.3337400971,
				"element": "C" 
			},
			{
				"x": -0.8105507907,
				"y": -3.9755779206,
				"z": -0.0454786143,
				"element": "H" 
			},
			{
				"x": -0.6461092232,
				"y": -1.7440020767,
				"z": -0.9203463911,
				"element": "H" 
			},
			{
				"x": -0.1839672405,
				"y": 1.7236043641,
				"z": 0.7911474225,
				"element": "H" 
			},
			{
				"x": -2.3538175309,
				"y": 2.1619780535,
				"z": -0.0195083033,
				"element": "H" 
			},
			{
				"x": -2.4812334677,
				"y": 0.6674384533,
				"z": 0.896385333,
				"element": "H" 
			},
			{
				"x": -2.587802184,
				"y": -0.6488863705,
				"z": -1.2189534573,
				"element": "H" 
			},
			{
				"x": -3.785767406,
				"y": 0.6240352746,
				"z": -1.2642613644,
				"element": "H" 
			},
			{
				"x": -2.5140642719,
				"y": 0.4644544286,
				"z": -3.4335578113,
				"element": "H" 
			},
			{
				"x": -2.3252042876,
				"y": 2.0386745308,
				"z": -2.6736009621,
				"element": "H" 
			},
			{
				"x": -0.2904412093,
				"y": -0.2568549601,
				"z": -2.5956407332,
				"element": "H" 
			},
			{
				"x": -0.1201887004,
				"y": 1.2464575305,
				"z": -3.4721262056,
				"element": "H" 
			},
			{
				"x": -0.0534961096,
				"y": 2.5604973628,
				"z": -1.4103629768,
				"element": "H" 
			},
			{
				"x": 1.1674777963,
				"y": 1.2999920694,
				"z": -1.3032189657,
				"element": "H" 
			}
		],
		 "valence_orbital": [ 
			{
				"type": "occ",
				"energy": -0.31783,
				"method": "rhf"
			},
			{
				"type": "occ",
				"energy": -0.30412,
				"method": "rhf"
			},
			{
				"type": "occ",
				"energy": -0.281,
				"method": "rhf"
			},
			{
				"type": "occ",
				"energy": -0.27912,
				"method": "rhf"
			},
			{
				"type": "occ",
				"energy": -0.26941,
				"method": "rhf"
			},
			{
				"type": "unocc",
				"energy": -0.03365,
				"method": "rhf"
			},
			{
				"type": "unocc",
				"energy": -0.01492,
				"method": "rhf"
			},
			{
				"type": "unocc",
				"energy": 0.04668,
				"method": "rhf"
			},
			{
				"type": "unocc",
				"energy": 0.05467,
				"method": "rhf"
			},
			{
				"type": "unocc",
				"energy": 0.07223,
				"method": "rhf"
			}
		],
		"cosmo_sigma_profile": { 
			"-0.025": 0.0,
			"-0.024": 0.0,
			"-0.023": 0.0,
			"-0.022": 0.0,
			"-0.021": 0.0,
			"-0.02": 0.00235782923743,
			"-0.019": 0.750627490396,
			"-0.018": 1.23579684366,
			"-0.017": 0.972505135142,
			"-0.016": 1.54433085403,
			"-0.015": 0.975305610646,
			"-0.014": 1.2521259232,
			"-0.013": 1.33330716914,
			"-0.012": 1.15234853039,
			"-0.011": 2.26929974034,
			"-0.01": 2.26043152692,
			"-0.009": 2.49214734269,
			"-0.008": 1.62100657744,
			"-0.007": 2.54624141298,
			"-0.006": 4.40754124588,
			"-0.005": 8.6151272753,
			"-0.004": 19.4791470639,
			"-0.003": 27.9625920392,
			"-0.002": 29.3954506206,
			"-0.001": 28.7195751308,
			"0.0": 19.6680396138,
			"0.001": 7.386746663,
			"0.002": 2.85738556489,
			"0.003": 3.25327735876,
			"0.004": 3.48499760051,
			"0.005": 3.1335053537,
			"0.006": 3.99421674812,
			"0.007": 4.4344499164,
			"0.008": 5.04804466871,
			"0.009": 6.98779749514,
			"0.01": 9.01108766384,
			"0.011": 8.6050794093,
			"0.012": 7.38736330106,
			"0.013": 3.56690510713,
			"0.014": 1.29269373137,
			"0.015": 0.641633288827,
			"0.016": 0.00831581448506,
			"0.017": 0.0,
			"0.018": 0.0,
			"0.019": 0.0,
			"0.02": 0.0,
			"0.021": 0.0,
			"0.022": 0.0,
			"0.023": 0.0,
			"0.024": 0.0,
			"0.025": 0.0
		}
	}
}
