{
	 "smiles": "CC(C)(C)C1=CC(O)=C(C=C1O)C(C)(C)C", 
	 "Tm": 490.15, 
	 "num_atms": 38, 
	 "gaussian": { 
		 "optdone": 1, 
		 "sigma_profile": "yes", 
		 "theory": "DFT", 
		 "functional": "B3LYP", 
		 "basiset": "6-31G**", 
		 "properties": { 
			 "R2extent": 5071.5095, 
			 "electric_dipole_moment_norm": 0.154464008753, 
			 "electric_quadrupole_moment_norm": 10.4223879874, 
			 "total_energy": -697.207063295, 
			 "HOMO_LUMO_gap": 0.19478, 
			 "cosmo_polarized_energy": -10.75, 
			 "cosmo_cavitation_energy": 36.8, 
			 "cosmo_dispersion_energy": -25.97, 
			 "cosmo_repulsion_energy": 2.02, 
			 "cosmo_total_nonelectrostatic_energy": 12.85, 
			 "SMD_solvation_energy": 7.15 
		},
		"coords": [
			{
				"x": -3.4453813432,
				"y": 0.4400717282,
				"z": -0.1341634177,
				"element": "C" 
			},
			{
				"x": -2.0342835465,
				"y": 0.6755786484,
				"z": -0.7127655341,
				"element": "C" 
			},
			{
				"x": -2.1537122415,
				"y": 0.613936241,
				"z": -2.256036495,
				"element": "C" 
			},
			{
				"x": -1.5966277756,
				"y": 2.1006638538,
				"z": -0.2914838278,
				"element": "C" 
			},
			{
				"x": -0.9594821352,
				"y": -0.3377732192,
				"z": -0.2507938438,
				"element": "C" 
			},
			{
				"x": 0.3467248088,
				"y": -0.1746792356,
				"z": -0.7426391786,
				"element": "C" 
			},
			{
				"x": 1.4161191807,
				"y": -1.0043499531,
				"z": -0.4178405194,
				"element": "C" 
			},
			{
				"x": 2.6658951913,
				"y": -0.7658156443,
				"z": -0.950641907,
				"element": "O" 
			},
			{
				"x": 1.2408508087,
				"y": -2.0966115255,
				"z": 0.4567023678,
				"element": "C" 
			},
			{
				"x": -0.0558943065,
				"y": -2.2613997858,
				"z": 0.9467329869,
				"element": "C" 
			},
			{
				"x": -1.1344323524,
				"y": -1.4263905136,
				"z": 0.6203144658,
				"element": "C" 
			},
			{
				"x": -2.3688302961,
				"y": -1.6927206969,
				"z": 1.1692856806,
				"element": "O" 
			},
			{
				"x": 2.3935500853,
				"y": -3.0412543085,
				"z": 0.8458509972,
				"element": "C" 
			},
			{
				"x": 2.9583611029,
				"y": -3.7304489478,
				"z": -0.4208432288,
				"element": "C" 
			},
			{
				"x": 1.9309456923,
				"y": -4.1486462619,
				"z": 1.8134453876,
				"element": "C" 
			},
			{
				"x": 3.5142705459,
				"y": -2.239009683,
				"z": 1.552219884,
				"element": "C" 
			},
			{
				"x": -4.1156999524,
				"y": 1.2128537855,
				"z": -0.5276431764,
				"element": "H" 
			},
			{
				"x": -3.8470761291,
				"y": -0.5349977001,
				"z": -0.415796475,
				"element": "H" 
			},
			{
				"x": -3.4577083983,
				"y": 0.5011072258,
				"z": 0.9556179879,
				"element": "H" 
			},
			{
				"x": -2.469541121,
				"y": -0.3823708899,
				"z": -2.5820552595,
				"element": "H" 
			},
			{
				"x": -1.2087399272,
				"y": 0.8445863159,
				"z": -2.7569230272,
				"element": "H" 
			},
			{
				"x": -2.8992723151,
				"y": 1.3371076766,
				"z": -2.6057031221,
				"element": "H" 
			},
			{
				"x": -0.6319516967,
				"y": 2.3851924032,
				"z": -0.722149129,
				"element": "H" 
			},
			{
				"x": -1.510730198,
				"y": 2.1750047339,
				"z": 0.7974418059,
				"element": "H" 
			},
			{
				"x": -2.3377818079,
				"y": 2.8363477083,
				"z": -0.6239828131,
				"element": "H" 
			},
			{
				"x": 0.5454302793,
				"y": 0.651216167,
				"z": -1.4225148088,
				"element": "H" 
			},
			{
				"x": 2.6126000896,
				"y": 0.010832121,
				"z": -1.5218034874,
				"element": "H" 
			},
			{
				"x": -0.2598530047,
				"y": -3.0841988813,
				"z": 1.6258414361,
				"element": "H" 
			},
			{
				"x": -2.2843438873,
				"y": -2.4716178664,
				"z": 1.7331927324,
				"element": "H" 
			},
			{
				"x": 2.1840905069,
				"y": -4.3289955807,
				"z": -0.9131089537,
				"element": "H" 
			},
			{
				"x": 3.7798897882,
				"y": -4.4025087209,
				"z": -0.1467066913,
				"element": "H" 
			},
			{
				"x": 3.3365593605,
				"y": -3.0013717573,
				"z": -1.138659861,
				"element": "H" 
			},
			{
				"x": 2.7820091509,
				"y": -4.7915483518,
				"z": 2.0598501696,
				"element": "H" 
			},
			{
				"x": 1.546802349,
				"y": -3.7395608409,
				"z": 2.7541498682,
				"element": "H" 
			},
			{
				"x": 1.1571889408,
				"y": -4.7854435058,
				"z": 1.3711342197,
				"element": "H" 
			},
			{
				"x": 4.3364106992,
				"y": -2.9089706187,
				"z": 1.8296260232,
				"element": "H" 
			},
			{
				"x": 3.9133803718,
				"y": -1.4550691149,
				"z": 0.9072283266,
				"element": "H" 
			},
			{
				"x": 3.136763483,
				"y": -1.7723450046,
				"z": 2.4686204174,
				"element": "H" 
			}
		],
		 "valence_orbital": [ 
			{
				"type": "occ",
				"energy": -0.30987,
				"method": "rhf"
			},
			{
				"type": "occ",
				"energy": -0.30031,
				"method": "rhf"
			},
			{
				"type": "occ",
				"energy": -0.28977,
				"method": "rhf"
			},
			{
				"type": "occ",
				"energy": -0.23544,
				"method": "rhf"
			},
			{
				"type": "occ",
				"energy": -0.19365,
				"method": "rhf"
			},
			{
				"type": "unocc",
				"energy": 0.00113,
				"method": "rhf"
			},
			{
				"type": "unocc",
				"energy": 0.02995,
				"method": "rhf"
			},
			{
				"type": "unocc",
				"energy": 0.06418,
				"method": "rhf"
			},
			{
				"type": "unocc",
				"energy": 0.07813,
				"method": "rhf"
			},
			{
				"type": "unocc",
				"energy": 0.0916,
				"method": "rhf"
			}
		],
		"cosmo_sigma_profile": { 
			"-0.025": 0.0,
			"-0.024": 0.0,
			"-0.023": 0.0,
			"-0.022": 0.0,
			"-0.021": 0.0,
			"-0.02": 0.0,
			"-0.019": 0.0,
			"-0.018": 0.0,
			"-0.017": 1.02132311449,
			"-0.016": 2.14873764288,
			"-0.015": 1.49193776737,
			"-0.014": 2.70128994498,
			"-0.013": 1.74775632272,
			"-0.012": 1.41342404962,
			"-0.011": 2.25940107156,
			"-0.01": 1.01919626544,
			"-0.009": 2.43825972484,
			"-0.008": 2.39443481834,
			"-0.007": 2.01213387544,
			"-0.006": 3.02656744326,
			"-0.005": 3.90250399156,
			"-0.004": 4.7112184386,
			"-0.003": 14.1208851873,
			"-0.002": 35.1847289834,
			"-0.001": 30.6794546468,
			"0.0": 33.2956053941,
			"0.001": 40.0062601614,
			"0.002": 35.1864089413,
			"0.003": 12.6707729508,
			"0.004": 11.2032881351,
			"0.005": 13.6111162438,
			"0.006": 13.4013383941,
			"0.007": 6.94865123777,
			"0.008": 3.57541414731,
			"0.009": 2.45805693132,
			"0.01": 0.115062355561,
			"0.011": 0.0,
			"0.012": 0.0,
			"0.013": 0.0,
			"0.014": 0.0,
			"0.015": 0.0,
			"0.016": 0.0,
			"0.017": 0.0,
			"0.018": 0.0,
			"0.019": 0.0,
			"0.02": 0.0,
			"0.021": 0.0,
			"0.022": 0.0,
			"0.023": 0.0,
			"0.024": 0.0,
			"0.025": 0.0
		}
	}
}
