{
	 "smiles": "CCC(=O)N1CCC2=C1C=CC(=C2)C(=O)CCl", 
	 "Tm": 475.15, 
	 "num_atms": 31, 
	 "gaussian": { 
		 "optdone": 1, 
		 "sigma_profile": "yes", 
		 "theory": "DFT", 
		 "functional": "B3LYP", 
		 "basiset": "6-31G**", 
		 "properties": { 
			 "R2extent": 6714.9787, 
			 "electric_dipole_moment_norm": 1.81922661315, 
			 "electric_quadrupole_moment_norm": 22.4915142105, 
			 "total_energy": -1169.23440651, 
			 "HOMO_LUMO_gap": 0.15456, 
			 "cosmo_polarized_energy": -14.51, 
			 "cosmo_cavitation_energy": 35.55, 
			 "cosmo_dispersion_energy": -25.67, 
			 "cosmo_repulsion_energy": 2.01, 
			 "cosmo_total_nonelectrostatic_energy": 11.88, 
			 "SMD_solvation_energy": 6.11 
		},
		"coords": [
			{
				"x": 3.5448022482,
				"y": -0.6151204146,
				"z": 0.4660169887,
				"element": "C" 
			},
			{
				"x": 2.6474980497,
				"y": -0.8096104789,
				"z": -0.7690127392,
				"element": "C" 
			},
			{
				"x": 1.471582183,
				"y": -1.7267206131,
				"z": -0.47263684,
				"element": "C" 
			},
			{
				"x": 1.6177787391,
				"y": -2.9431032232,
				"z": -0.4548085855,
				"element": "O" 
			},
			{
				"x": 0.208637016,
				"y": -1.1944902044,
				"z": -0.2469215577,
				"element": "N" 
			},
			{
				"x": -0.9295458994,
				"y": -2.142065943,
				"z": -0.1403063917,
				"element": "C" 
			},
			{
				"x": -2.1773164269,
				"y": -1.2677442924,
				"z": -0.3770704489,
				"element": "C" 
			},
			{
				"x": -1.666868955,
				"y": 0.1309894176,
				"z": -0.1155469609,
				"element": "C" 
			},
			{
				"x": -0.2548298781,
				"y": 0.1197584971,
				"z": -0.0693197542,
				"element": "C" 
			},
			{
				"x": 0.4473084598,
				"y": 1.3044883862,
				"z": 0.1822336096,
				"element": "C" 
			},
			{
				"x": -0.2729707608,
				"y": 2.4887610008,
				"z": 0.3429070559,
				"element": "C" 
			},
			{
				"x": -1.6738857524,
				"y": 2.5148686512,
				"z": 0.2774568027,
				"element": "C" 
			},
			{
				"x": -2.3673575423,
				"y": 1.307283625,
				"z": 0.0493780897,
				"element": "C" 
			},
			{
				"x": -2.4780982313,
				"y": 3.7460134197,
				"z": 0.4755890337,
				"element": "C" 
			},
			{
				"x": -3.7005400394,
				"y": 3.7263833881,
				"z": 0.4829991148,
				"element": "O" 
			},
			{
				"x": -1.7801605159,
				"y": 5.0886618003,
				"z": 0.7218255782,
				"element": "C" 
			},
			{
				"x": -0.9243770151,
				"y": 5.6990102484,
				"z": -0.7603877144,
				"element": "Cl" 
			},
			{
				"x": 3.023641832,
				"y": -0.0936914521,
				"z": 1.2758311531,
				"element": "H" 
			},
			{
				"x": 4.4343680496,
				"y": -0.0335674934,
				"z": 0.2072730154,
				"element": "H" 
			},
			{
				"x": 3.8682315042,
				"y": -1.5872585289,
				"z": 0.8477652854,
				"element": "H" 
			},
			{
				"x": 2.3272359617,
				"y": 0.1477188466,
				"z": -1.1862603929,
				"element": "H" 
			},
			{
				"x": 3.2187568512,
				"y": -1.3298765691,
				"z": -1.5431707197,
				"element": "H" 
			},
			{
				"x": -0.7969409505,
				"y": -2.9442403841,
				"z": -0.8656499084,
				"element": "H" 
			},
			{
				"x": -0.9289226841,
				"y": -2.5944108237,
				"z": 0.8578144659,
				"element": "H" 
			},
			{
				"x": -3.0055164213,
				"y": -1.5476976405,
				"z": 0.2794626827,
				"element": "H" 
			},
			{
				"x": -2.5350646348,
				"y": -1.3608579234,
				"z": -1.4101430755,
				"element": "H" 
			},
			{
				"x": 1.5234628584,
				"y": 1.3257125751,
				"z": 0.2792535771,
				"element": "H" 
			},
			{
				"x": 0.2826082134,
				"y": 3.4025829721,
				"z": 0.5222751018,
				"element": "H" 
			},
			{
				"x": -3.4518109893,
				"y": 1.3334448878,
				"z": 0.0143253863,
				"element": "H" 
			},
			{
				"x": -1.0346822553,
				"y": 5.0291628606,
				"z": 1.5171485905,
				"element": "H" 
			},
			{
				"x": -2.5451230144,
				"y": 5.8204154082,
				"z": 0.9737795575,
				"element": "H" 
			}
		],
		 "valence_orbital": [ 
			{
				"type": "occ",
				"energy": -0.30359,
				"method": "rhf"
			},
			{
				"type": "occ",
				"energy": -0.26731,
				"method": "rhf"
			},
			{
				"type": "occ",
				"energy": -0.26039,
				"method": "rhf"
			},
			{
				"type": "occ",
				"energy": -0.25971,
				"method": "rhf"
			},
			{
				"type": "occ",
				"energy": -0.22662,
				"method": "rhf"
			},
			{
				"type": "unocc",
				"energy": -0.07206,
				"method": "rhf"
			},
			{
				"type": "unocc",
				"energy": -0.02388,
				"method": "rhf"
			},
			{
				"type": "unocc",
				"energy": -0.00829,
				"method": "rhf"
			},
			{
				"type": "unocc",
				"energy": 0.02189,
				"method": "rhf"
			},
			{
				"type": "unocc",
				"energy": 0.0552,
				"method": "rhf"
			}
		],
		"cosmo_sigma_profile": { 
			"-0.025": 0.0,
			"-0.024": 0.0,
			"-0.023": 0.0,
			"-0.022": 0.0,
			"-0.021": 0.0,
			"-0.02": 0.0,
			"-0.019": 0.0,
			"-0.018": 0.0,
			"-0.017": 0.0,
			"-0.016": 0.0,
			"-0.015": 0.0,
			"-0.014": 0.0,
			"-0.013": 0.0,
			"-0.012": 0.0,
			"-0.011": 0.0,
			"-0.01": 0.273652163275,
			"-0.009": 2.7901221311,
			"-0.008": 4.48652131896,
			"-0.007": 5.53985428133,
			"-0.006": 11.2942077004,
			"-0.005": 24.044961119,
			"-0.004": 29.552869174,
			"-0.003": 27.2608022265,
			"-0.002": 26.2147006084,
			"-0.001": 22.3979525091,
			"0.0": 19.9453790857,
			"0.001": 16.5284380269,
			"0.002": 15.4438525857,
			"0.003": 18.7114254471,
			"0.004": 11.7290387154,
			"0.005": 11.6228251258,
			"0.006": 6.20146832362,
			"0.007": 3.63209973128,
			"0.008": 2.35070423438,
			"0.009": 3.52216066184,
			"0.01": 3.84005176849,
			"0.011": 5.48413148317,
			"0.012": 4.1234859539,
			"0.013": 5.29584585085,
			"0.014": 1.68071416088,
			"0.015": 0.153308735014,
			"0.016": 0.0,
			"0.017": 0.0,
			"0.018": 0.0,
			"0.019": 0.0,
			"0.02": 0.0,
			"0.021": 0.0,
			"0.022": 0.0,
			"0.023": 0.0,
			"0.024": 0.0,
			"0.025": 0.0
		}
	}
}
