{
	 "smiles": "CC(=O)C1=CC(F)=C(C=C1)S(C)(=O)=O", 
	 "Tm": 377.15, 
	 "num_atms": 23, 
	 "gaussian": { 
		 "optdone": 1, 
		 "sigma_profile": "yes", 
		 "theory": "DFT", 
		 "functional": "B3LYP", 
		 "basiset": "6-31G**", 
		 "properties": { 
			 "R2extent": 3895.0471, 
			 "electric_dipole_moment_norm": 4.89363662014, 
			 "electric_quadrupole_moment_norm": 11.3626882352, 
			 "total_energy": -1072.00896004, 
			 "HOMO_LUMO_gap": 0.18236, 
			 "cosmo_polarized_energy": -17.63, 
			 "cosmo_cavitation_energy": 29.1, 
			 "cosmo_dispersion_energy": -21.41, 
			 "cosmo_repulsion_energy": 1.6, 
			 "cosmo_total_nonelectrostatic_energy": 9.3, 
			 "SMD_solvation_energy": 5.92 
		},
		"coords": [
			{
				"x": -0.5883754069,
				"y": -1.6502591262,
				"z": 4.677075122,
				"element": "C" 
			},
			{
				"x": 0.6305717399,
				"y": -0.9773392095,
				"z": 4.0755737212,
				"element": "C" 
			},
			{
				"x": 1.638703205,
				"y": -0.7911532301,
				"z": 4.7358212093,
				"element": "O" 
			},
			{
				"x": 0.5824679574,
				"y": -0.5342457232,
				"z": 2.6354308203,
				"element": "C" 
			},
			{
				"x": -0.541470551,
				"y": -0.7470808568,
				"z": 1.8251564322,
				"element": "C" 
			},
			{
				"x": -0.5187991117,
				"y": -0.309820059,
				"z": 0.5085850286,
				"element": "C" 
			},
			{
				"x": -1.598995894,
				"y": -0.5330350931,
				"z": -0.2661494912,
				"element": "F" 
			},
			{
				"x": 0.5986980144,
				"y": 0.3278200327,
				"z": -0.0297634579,
				"element": "C" 
			},
			{
				"x": 1.7192429027,
				"y": 0.5360588556,
				"z": 0.7794402618,
				"element": "C" 
			},
			{
				"x": 1.71038768,
				"y": 0.1078683597,
				"z": 2.1029233868,
				"element": "C" 
			},
			{
				"x": 0.6097540441,
				"y": 0.9786747457,
				"z": -1.7171877249,
				"element": "S" 
			},
			{
				"x": 0.3535316337,
				"y": -0.4851771409,
				"z": -2.7402580499,
				"element": "C" 
			},
			{
				"x": 1.9728106966,
				"y": 1.4733927378,
				"z": -1.9605107625,
				"element": "O" 
			},
			{
				"x": -0.5496590276,
				"y": 1.8630349608,
				"z": -1.8827027595,
				"element": "O" 
			},
			{
				"x": -0.8346874484,
				"y": -2.5716185258,
				"z": 4.1374245866,
				"element": "H" 
			},
			{
				"x": -0.376448815,
				"y": -1.888844111,
				"z": 5.7193613457,
				"element": "H" 
			},
			{
				"x": -1.4651846335,
				"y": -0.9953790929,
				"z": 4.624584116,
				"element": "H" 
			},
			{
				"x": -1.4349902306,
				"y": -1.2403613915,
				"z": 2.1895439318,
				"element": "H" 
			},
			{
				"x": 2.5802580268,
				"y": 1.0360397009,
				"z": 0.3487267589,
				"element": "H" 
			},
			{
				"x": 2.5679764954,
				"y": 0.2599623783,
				"z": 2.7483236041,
				"element": "H" 
			},
			{
				"x": -0.5960935671,
				"y": -0.943718262,
				"z": -2.4653382963,
				"element": "H" 
			},
			{
				"x": 1.190441239,
				"y": -1.1701241621,
				"z": -2.597488068,
				"element": "H" 
			},
			{
				"x": 0.3233610509,
				"y": -0.1293957874,
				"z": -3.772171715,
				"element": "H" 
			}
		],
		 "valence_orbital": [ 
			{
				"type": "occ",
				"energy": -0.30623,
				"method": "rhf"
			},
			{
				"type": "occ",
				"energy": -0.30012,
				"method": "rhf"
			},
			{
				"type": "occ",
				"energy": -0.28946,
				"method": "rhf"
			},
			{
				"type": "occ",
				"energy": -0.27666,
				"method": "rhf"
			},
			{
				"type": "occ",
				"energy": -0.26932,
				"method": "rhf"
			},
			{
				"type": "unocc",
				"energy": -0.08696,
				"method": "rhf"
			},
			{
				"type": "unocc",
				"energy": -0.03286,
				"method": "rhf"
			},
			{
				"type": "unocc",
				"energy": 0.00342,
				"method": "rhf"
			},
			{
				"type": "unocc",
				"energy": 0.04129,
				"method": "rhf"
			},
			{
				"type": "unocc",
				"energy": 0.07161,
				"method": "rhf"
			}
		],
		"cosmo_sigma_profile": { 
			"-0.025": 0.0,
			"-0.024": 0.0,
			"-0.023": 0.0,
			"-0.022": 0.0,
			"-0.021": 0.0,
			"-0.02": 0.0,
			"-0.019": 0.0,
			"-0.018": 0.0,
			"-0.017": 0.0,
			"-0.016": 0.0,
			"-0.015": 0.0,
			"-0.014": 0.0,
			"-0.013": 0.0,
			"-0.012": 0.0,
			"-0.011": 0.0,
			"-0.01": 0.383547575711,
			"-0.009": 5.15243533672,
			"-0.008": 8.71372915397,
			"-0.007": 14.4987608035,
			"-0.006": 15.6006143919,
			"-0.005": 17.3857247138,
			"-0.004": 16.1914021453,
			"-0.003": 14.5861708026,
			"-0.002": 17.5749256743,
			"-0.001": 19.7874854553,
			"0.0": 16.38147026,
			"0.001": 12.4480835223,
			"0.002": 8.23930851958,
			"0.003": 8.3281331836,
			"0.004": 4.74995366235,
			"0.005": 3.56990657382,
			"0.006": 4.10522630866,
			"0.007": 4.28322573516,
			"0.008": 5.87478898786,
			"0.009": 4.58044527609,
			"0.01": 10.0496277125,
			"0.011": 14.4399327661,
			"0.012": 5.64161743602,
			"0.013": 0.277671987784,
			"0.014": 0.0,
			"0.015": 0.0,
			"0.016": 0.0,
			"0.017": 0.0,
			"0.018": 0.0,
			"0.019": 0.0,
			"0.02": 0.0,
			"0.021": 0.0,
			"0.022": 0.0,
			"0.023": 0.0,
			"0.024": 0.0,
			"0.025": 0.0
		}
	}
}
