{
	 "smiles": "COC1=CC=C(NC=C2/C(=O)NN=C2C2=C(O)C3=CC=CC=C3N(C)C2=O)C=C1", 
	 "Tm": 554.15, 
	 "num_atms": 47, 
	 "gaussian": { 
		 "optdone": 1, 
		 "sigma_profile": "yes", 
		 "theory": "DFT", 
		 "functional": "B3LYP", 
		 "basiset": "6-31G**", 
		 "properties": { 
			 "R2extent": 16222.7322, 
			 "electric_dipole_moment_norm": 7.19107693534, 
			 "electric_quadrupole_moment_norm": 29.7039130336, 
			 "total_energy": -1330.95788983, 
			 "HOMO_LUMO_gap": 0.12254, 
			 "cosmo_polarized_energy": -35.7, 
			 "cosmo_cavitation_energy": 50.68, 
			 "cosmo_dispersion_energy": -36.59, 
			 "cosmo_repulsion_energy": 2.72, 
			 "cosmo_total_nonelectrostatic_energy": 16.8, 
			 "SMD_solvation_energy": 9.41 
		},
		"coords": [
			{
				"x": 7.1082433888,
				"y": -0.1632702161,
				"z": -2.6814796891,
				"element": "C" 
			},
			{
				"x": 6.3983402829,
				"y": 1.0203213739,
				"z": -3.0063104976,
				"element": "O" 
			},
			{
				"x": 5.1370071854,
				"y": 1.1725975571,
				"z": -2.503950036,
				"element": "C" 
			},
			{
				"x": 4.493919979,
				"y": 2.3767444103,
				"z": -2.8255740094,
				"element": "C" 
			},
			{
				"x": 3.2127312243,
				"y": 2.6274082018,
				"z": -2.3574336968,
				"element": "C" 
			},
			{
				"x": 2.544989285,
				"y": 1.6844804073,
				"z": -1.561772133,
				"element": "C" 
			},
			{
				"x": 1.2031624292,
				"y": 1.9587586653,
				"z": -1.1949239379,
				"element": "N" 
			},
			{
				"x": 0.4139251376,
				"y": 1.5123217724,
				"z": -0.1900776375,
				"element": "C" 
			},
			{
				"x": 0.7172178117,
				"y": 0.9330191609,
				"z": 1.0184992197,
				"element": "C" 
			},
			{
				"x": 2.00751786,
				"y": 0.8951502527,
				"z": 1.7360883594,
				"element": "C" 
			},
			{
				"x": 3.1279400089,
				"y": 1.308699433,
				"z": 1.4420609807,
				"element": "O" 
			},
			{
				"x": 1.6615999663,
				"y": 0.2918559218,
				"z": 2.937030327,
				"element": "N" 
			},
			{
				"x": 0.3345734507,
				"y": -0.022768738,
				"z": 3.0668725903,
				"element": "N" 
			},
			{
				"x": -0.2458819278,
				"y": 0.3537130002,
				"z": 1.9525350887,
				"element": "C" 
			},
			{
				"x": -1.6858801078,
				"y": 0.060712095,
				"z": 1.7716552048,
				"element": "C" 
			},
			{
				"x": -2.1852044372,
				"y": -1.2012894639,
				"z": 1.9825248902,
				"element": "C" 
			},
			{
				"x": -1.33019421,
				"y": -2.2144577999,
				"z": 2.2551392581,
				"element": "O" 
			},
			{
				"x": -3.6092457616,
				"y": -1.4686751275,
				"z": 1.9207961987,
				"element": "C" 
			},
			{
				"x": -4.1595384267,
				"y": -2.7282417216,
				"z": 2.2278658583,
				"element": "C" 
			},
			{
				"x": -5.5225910823,
				"y": -2.9650290945,
				"z": 2.1459500709,
				"element": "C" 
			},
			{
				"x": -6.3732463589,
				"y": -1.9229493369,
				"z": 1.7576702074,
				"element": "C" 
			},
			{
				"x": -5.8660323744,
				"y": -0.6629682735,
				"z": 1.472391124,
				"element": "C" 
			},
			{
				"x": -4.4814560173,
				"y": -0.4096039911,
				"z": 1.5568006356,
				"element": "C" 
			},
			{
				"x": -3.9595474644,
				"y": 0.8455916742,
				"z": 1.2916059528,
				"element": "N" 
			},
			{
				"x": -4.8504524297,
				"y": 1.942216334,
				"z": 0.9123958967,
				"element": "C" 
			},
			{
				"x": -2.5834717958,
				"y": 1.1462585091,
				"z": 1.3867390371,
				"element": "C" 
			},
			{
				"x": -2.1877692473,
				"y": 2.2845287116,
				"z": 1.1182888882,
				"element": "O" 
			},
			{
				"x": 3.1814384628,
				"y": 0.481669332,
				"z": -1.2516331249,
				"element": "C" 
			},
			{
				"x": 4.4703481463,
				"y": 0.2252615463,
				"z": -1.7192922695,
				"element": "C" 
			},
			{
				"x": 6.6048070297,
				"y": -1.0589068408,
				"z": -3.0691395083,
				"element": "H" 
			},
			{
				"x": 8.0858452652,
				"y": -0.0694420909,
				"z": -3.15726358,
				"element": "H" 
			},
			{
				"x": 7.2427880022,
				"y": -0.2704162504,
				"z": -1.5974234806,
				"element": "H" 
			},
			{
				"x": 5.0202379212,
				"y": 3.1023379069,
				"z": -3.4364552565,
				"element": "H" 
			},
			{
				"x": 2.7257410192,
				"y": 3.5688442213,
				"z": -2.6001017015,
				"element": "H" 
			},
			{
				"x": 0.7114457727,
				"y": 2.5210652683,
				"z": -1.8754479129,
				"element": "H" 
			},
			{
				"x": -0.6384292769,
				"y": 1.7009007313,
				"z": -0.3783846141,
				"element": "H" 
			},
			{
				"x": 2.2830428386,
				"y": 0.1640835015,
				"z": 3.71989788,
				"element": "H" 
			},
			{
				"x": -1.7812124168,
				"y": -3.0591930195,
				"z": 2.132084994,
				"element": "H" 
			},
			{
				"x": -3.5172147924,
				"y": -3.5349390911,
				"z": 2.5724005531,
				"element": "H" 
			},
			{
				"x": -5.923511924,
				"y": -3.9429041182,
				"z": 2.3909098939,
				"element": "H" 
			},
			{
				"x": -7.4435178171,
				"y": -2.0921557545,
				"z": 1.6868985332,
				"element": "H" 
			},
			{
				"x": -6.5460422756,
				"y": 0.128765985,
				"z": 1.186854228,
				"element": "H" 
			},
			{
				"x": -5.3790528675,
				"y": 1.707851838,
				"z": -0.0171179607,
				"element": "H" 
			},
			{
				"x": -4.227844464,
				"y": 2.8218192777,
				"z": 0.7675639195,
				"element": "H" 
			},
			{
				"x": -5.5822000478,
				"y": 2.1362084036,
				"z": 1.7027116267,
				"element": "H" 
			},
			{
				"x": 2.6692164846,
				"y": -0.266249153,
				"z": -0.6607655093,
				"element": "H" 
			},
			{
				"x": 4.9415585706,
				"y": -0.7145254109,
				"z": -1.4585848613,
				"element": "H" 
			}
		],
		 "valence_orbital": [ 
			{
				"type": "occ",
				"energy": -0.23786,
				"method": "rhf"
			},
			{
				"type": "occ",
				"energy": -0.22422,
				"method": "rhf"
			},
			{
				"type": "occ",
				"energy": -0.22205,
				"method": "rhf"
			},
			{
				"type": "occ",
				"energy": -0.1987,
				"method": "rhf"
			},
			{
				"type": "occ",
				"energy": -0.18001,
				"method": "rhf"
			},
			{
				"type": "unocc",
				"energy": -0.05747,
				"method": "rhf"
			},
			{
				"type": "unocc",
				"energy": -0.03765,
				"method": "rhf"
			},
			{
				"type": "unocc",
				"energy": -0.01567,
				"method": "rhf"
			},
			{
				"type": "unocc",
				"energy": 0.00388,
				"method": "rhf"
			},
			{
				"type": "unocc",
				"energy": 0.01652,
				"method": "rhf"
			}
		],
		"cosmo_sigma_profile": { 
			"-0.025": 0.0,
			"-0.024": 0.0,
			"-0.023": 0.0,
			"-0.022": 0.0,
			"-0.021": 0.0,
			"-0.02": 0.0,
			"-0.019": 0.229200372189,
			"-0.018": 1.08660922307,
			"-0.017": 0.620442974567,
			"-0.016": 2.82432634229,
			"-0.015": 3.24082403941,
			"-0.014": 3.77466195558,
			"-0.013": 2.94368165723,
			"-0.012": 3.3923320558,
			"-0.011": 3.50239078027,
			"-0.01": 2.49459527267,
			"-0.009": 3.34968161737,
			"-0.008": 4.69265797092,
			"-0.007": 9.93425339598,
			"-0.006": 23.3663815587,
			"-0.005": 31.8460576029,
			"-0.004": 28.2884817284,
			"-0.003": 26.6732701528,
			"-0.002": 26.8464400805,
			"-0.001": 25.4095191486,
			"0.0": 22.5943793103,
			"0.001": 20.9083893944,
			"0.002": 23.1023306279,
			"0.003": 26.6097427809,
			"0.004": 24.7143306861,
			"0.005": 13.9861356655,
			"0.006": 9.19489247781,
			"0.007": 7.41228093699,
			"0.008": 6.01097388476,
			"0.009": 7.6128837665,
			"0.01": 6.84183313662,
			"0.011": 5.87768436528,
			"0.012": 5.41339774889,
			"0.013": 7.22399765286,
			"0.014": 5.95340381097,
			"0.015": 5.94937485338,
			"0.016": 1.6630856829,
			"0.017": 0.00891160569359,
			"0.018": 0.0,
			"0.019": 0.0,
			"0.02": 0.0,
			"0.021": 0.0,
			"0.022": 0.0,
			"0.023": 0.0,
			"0.024": 0.0,
			"0.025": 0.0
		}
	}
}
