{
	 "smiles": "CCC(C)[C@@H]1NC(=O)OC1=O", 
	 "Tm": 339.15, 
	 "num_atms": 22, 
	 "gaussian": { 
		 "optdone": 1, 
		 "sigma_profile": "yes", 
		 "theory": "DFT", 
		 "functional": "B3LYP", 
		 "basiset": "6-31G**", 
		 "properties": { 
			 "R2extent": 2031.6518, 
			 "electric_dipole_moment_norm": 5.29632056243, 
			 "electric_quadrupole_moment_norm": 7.30597278533, 
			 "total_energy": -553.835167454, 
			 "HOMO_LUMO_gap": 0.25653, 
			 "cosmo_polarized_energy": -15.02, 
			 "cosmo_cavitation_energy": 24.88, 
			 "cosmo_dispersion_energy": -17.94, 
			 "cosmo_repulsion_energy": 1.46, 
			 "cosmo_total_nonelectrostatic_energy": 8.4, 
			 "SMD_solvation_energy": 6.07 
		},
		"coords": [
			{
				"x": 3.8469142711,
				"y": -1.0864327912,
				"z": 0.0977568793,
				"element": "C" 
			},
			{
				"x": 2.6531011541,
				"y": -1.8599050084,
				"z": -0.4752741633,
				"element": "C" 
			},
			{
				"x": 1.3045293493,
				"y": -1.6075516848,
				"z": 0.2312197525,
				"element": "C" 
			},
			{
				"x": 0.2344994948,
				"y": -2.6081815315,
				"z": -0.2273123807,
				"element": "C" 
			},
			{
				"x": 0.8276683728,
				"y": -0.1380812663,
				"z": 0.0735440131,
				"element": "C" 
			},
			{
				"x": -0.3437038948,
				"y": 0.2014036501,
				"z": 0.8599920562,
				"element": "N" 
			},
			{
				"x": -1.3836660449,
				"y": 0.6805174347,
				"z": 0.1224285032,
				"element": "C" 
			},
			{
				"x": -2.4671218811,
				"y": 1.0639929106,
				"z": 0.4680537034,
				"element": "O" 
			},
			{
				"x": -0.9760109952,
				"y": 0.6604211607,
				"z": -1.2256276718,
				"element": "O" 
			},
			{
				"x": 0.3157787042,
				"y": 0.2022370477,
				"z": -1.3278840651,
				"element": "C" 
			},
			{
				"x": 0.8920016518,
				"y": 0.1049645165,
				"z": -2.3755002894,
				"element": "O" 
			},
			{
				"x": 3.76004155,
				"y": -0.0058562607,
				"z": -0.0579238986,
				"element": "H" 
			},
			{
				"x": 4.7754139535,
				"y": -1.4016666483,
				"z": -0.3879682106,
				"element": "H" 
			},
			{
				"x": 3.9611467227,
				"y": -1.2626387075,
				"z": 1.173881218,
				"element": "H" 
			},
			{
				"x": 2.8607455394,
				"y": -2.9343838004,
				"z": -0.4006077296,
				"element": "H" 
			},
			{
				"x": 2.5434530178,
				"y": -1.6384387307,
				"z": -1.5423388487,
				"element": "H" 
			},
			{
				"x": 1.4624451227,
				"y": -1.7440295214,
				"z": 1.3121668984,
				"element": "H" 
			},
			{
				"x": 0.0869829112,
				"y": -2.5595192026,
				"z": -1.3117647997,
				"element": "H" 
			},
			{
				"x": -0.7284210653,
				"y": -2.4239368229,
				"z": 0.2583764703,
				"element": "H" 
			},
			{
				"x": 0.541148097,
				"y": -3.6293499877,
				"z": 0.017762867,
				"element": "H" 
			},
			{
				"x": 1.6618527993,
				"y": 0.5388037762,
				"z": 0.2979881206,
				"element": "H" 
			},
			{
				"x": -0.4015988303,
				"y": 0.1743314681,
				"z": 1.8658315755,
				"element": "H" 
			}
		],
		 "valence_orbital": [ 
			{
				"type": "occ",
				"energy": -0.34302,
				"method": "rhf"
			},
			{
				"type": "occ",
				"energy": -0.3299,
				"method": "rhf"
			},
			{
				"type": "occ",
				"energy": -0.30919,
				"method": "rhf"
			},
			{
				"type": "occ",
				"energy": -0.28535,
				"method": "rhf"
			},
			{
				"type": "occ",
				"energy": -0.28176,
				"method": "rhf"
			},
			{
				"type": "unocc",
				"energy": -0.02523,
				"method": "rhf"
			},
			{
				"type": "unocc",
				"energy": 0.03826,
				"method": "rhf"
			},
			{
				"type": "unocc",
				"energy": 0.06255,
				"method": "rhf"
			},
			{
				"type": "unocc",
				"energy": 0.07702,
				"method": "rhf"
			},
			{
				"type": "unocc",
				"energy": 0.09811,
				"method": "rhf"
			}
		],
		"cosmo_sigma_profile": { 
			"-0.025": 0.0,
			"-0.024": 0.0,
			"-0.023": 0.0,
			"-0.022": 0.0,
			"-0.021": 0.0,
			"-0.02": 0.0,
			"-0.019": 0.0,
			"-0.018": 0.0,
			"-0.017": 0.199591807084,
			"-0.016": 1.63030460334,
			"-0.015": 0.640939055373,
			"-0.014": 1.52083987663,
			"-0.013": 1.55408403742,
			"-0.012": 0.550320364553,
			"-0.011": 1.14595988886,
			"-0.01": 1.31148335337,
			"-0.009": 3.3151182534,
			"-0.008": 4.93413971164,
			"-0.007": 4.63967711129,
			"-0.006": 3.99721504661,
			"-0.005": 5.73342799773,
			"-0.004": 11.4904936869,
			"-0.003": 20.3882405586,
			"-0.002": 19.8585270655,
			"-0.001": 20.9747250088,
			"0.0": 20.8414846162,
			"0.001": 14.3467332816,
			"0.002": 4.69410414059,
			"0.003": 4.00834101318,
			"0.004": 2.60099513518,
			"0.005": 4.46954045907,
			"0.006": 4.74934697604,
			"0.007": 5.74315022858,
			"0.008": 5.2952475378,
			"0.009": 5.19878049207,
			"0.01": 6.92040135239,
			"0.011": 7.70966679654,
			"0.012": 4.30749484083,
			"0.013": 0.0944311607193,
			"0.014": 0.0,
			"0.015": 0.0,
			"0.016": 0.0,
			"0.017": 0.0,
			"0.018": 0.0,
			"0.019": 0.0,
			"0.02": 0.0,
			"0.021": 0.0,
			"0.022": 0.0,
			"0.023": 0.0,
			"0.024": 0.0,
			"0.025": 0.0
		}
	}
}
