{
	 "smiles": "NC1=CC=C(C=C1)C1SCCS1", 
	 "Tm": 331.15, 
	 "num_atms": 23, 
	 "gaussian": { 
		 "optdone": 1, 
		 "sigma_profile": "yes", 
		 "theory": "DFT", 
		 "functional": "B3LYP", 
		 "basiset": "6-31G**", 
		 "properties": { 
			 "R2extent": 3623.9233, 
			 "electric_dipole_moment_norm": 1.16089798863, 
			 "electric_quadrupole_moment_norm": 21.7955467513, 
			 "total_energy": -1200.71680639, 
			 "HOMO_LUMO_gap": 0.19654, 
			 "cosmo_polarized_energy": -12.79, 
			 "cosmo_cavitation_energy": 28.6, 
			 "cosmo_dispersion_energy": -21.98, 
			 "cosmo_repulsion_energy": 1.67, 
			 "cosmo_total_nonelectrostatic_energy": 8.29, 
			 "SMD_solvation_energy": 3.44 
		},
		"coords": [
			{
				"x": -1.1558497414,
				"y": 4.8948077761,
				"z": -2.1679570978,
				"element": "N" 
			},
			{
				"x": -0.7874620015,
				"y": 3.7963355909,
				"z": -1.3929425886,
				"element": "C" 
			},
			{
				"x": -0.6916309144,
				"y": 3.8970631867,
				"z": 0.004193838,
				"element": "C" 
			},
			{
				"x": -0.2700139665,
				"y": 2.8077970068,
				"z": 0.7623412244,
				"element": "C" 
			},
			{
				"x": 0.0672448893,
				"y": 1.5881593793,
				"z": 0.1639367662,
				"element": "C" 
			},
			{
				"x": -0.0323466589,
				"y": 1.4916255614,
				"z": -1.2323241931,
				"element": "C" 
			},
			{
				"x": -0.4490508348,
				"y": 2.5708893913,
				"z": -1.998979505,
				"element": "C" 
			},
			{
				"x": 0.524823269,
				"y": 0.4339889928,
				"z": 1.0176697386,
				"element": "C" 
			},
			{
				"x": 2.256745201,
				"y": -0.0746638757,
				"z": 0.6269202051,
				"element": "S" 
			},
			{
				"x": 2.0595636682,
				"y": -1.7592641356,
				"z": 1.3083446538,
				"element": "C" 
			},
			{
				"x": 0.7676397697,
				"y": -2.3432631105,
				"z": 0.737641117,
				"element": "C" 
			},
			{
				"x": -0.5705968664,
				"y": -1.0853571767,
				"z": 0.8738819571,
				"element": "S" 
			},
			{
				"x": -1.6983715762,
				"y": 5.6008522625,
				"z": -1.6902500925,
				"element": "H" 
			},
			{
				"x": -1.5345511184,
				"y": 4.6753569416,
				"z": -3.0787074883,
				"element": "H" 
			},
			{
				"x": -0.9453802259,
				"y": 4.8336541753,
				"z": 0.4945300569,
				"element": "H" 
			},
			{
				"x": -0.2049016704,
				"y": 2.9100807289,
				"z": 1.8430067397,
				"element": "H" 
			},
			{
				"x": 0.2151416092,
				"y": 0.5528833777,
				"z": -1.7182462297,
				"element": "H" 
			},
			{
				"x": -0.515297935,
				"y": 2.4736001672,
				"z": -3.0799609623,
				"element": "H" 
			},
			{
				"x": 0.4916906238,
				"y": 0.7332705534,
				"z": 2.0672816818,
				"element": "H" 
			},
			{
				"x": 2.0259099362,
				"y": -1.722410882,
				"z": 2.4013038115,
				"element": "H" 
			},
			{
				"x": 2.9325205559,
				"y": -2.3451391201,
				"z": 1.0043494699,
				"element": "H" 
			},
			{
				"x": 0.4525926957,
				"y": -3.2280501024,
				"z": 1.299360333,
				"element": "H" 
			},
			{
				"x": 0.9005812917,
				"y": -2.6186166888,
				"z": -0.3112934358,
				"element": "H" 
			}
		],
		 "valence_orbital": [ 
			{
				"type": "occ",
				"energy": -0.29484,
				"method": "rhf"
			},
			{
				"type": "occ",
				"energy": -0.2475,
				"method": "rhf"
			},
			{
				"type": "occ",
				"energy": -0.22574,
				"method": "rhf"
			},
			{
				"type": "occ",
				"energy": -0.22087,
				"method": "rhf"
			},
			{
				"type": "occ",
				"energy": -0.1978,
				"method": "rhf"
			},
			{
				"type": "unocc",
				"energy": -0.00126,
				"method": "rhf"
			},
			{
				"type": "unocc",
				"energy": 0.00412,
				"method": "rhf"
			},
			{
				"type": "unocc",
				"energy": 0.0075,
				"method": "rhf"
			},
			{
				"type": "unocc",
				"energy": 0.06019,
				"method": "rhf"
			},
			{
				"type": "unocc",
				"energy": 0.07429,
				"method": "rhf"
			}
		],
		"cosmo_sigma_profile": { 
			"-0.025": 0.0,
			"-0.024": 0.0,
			"-0.023": 0.0,
			"-0.022": 0.0,
			"-0.021": 0.0,
			"-0.02": 0.0,
			"-0.019": 0.0,
			"-0.018": 0.0,
			"-0.017": 0.0,
			"-0.016": 0.0,
			"-0.015": 0.0,
			"-0.014": 0.0,
			"-0.013": 0.347181090229,
			"-0.012": 2.65172302485,
			"-0.011": 2.85239962251,
			"-0.01": 2.56527582235,
			"-0.009": 3.77101631688,
			"-0.008": 3.06733711507,
			"-0.007": 5.40138089306,
			"-0.006": 13.5619170187,
			"-0.005": 18.5899686595,
			"-0.004": 20.2308863909,
			"-0.003": 17.8652988077,
			"-0.002": 12.5999938557,
			"-0.001": 11.1686573244,
			"0.0": 8.78682734117,
			"0.001": 9.35641256689,
			"0.002": 12.0229116246,
			"0.003": 12.5362181902,
			"0.004": 13.3912746797,
			"0.005": 15.8574290586,
			"0.006": 17.89153203,
			"0.007": 8.43580041748,
			"0.008": 5.60353203393,
			"0.009": 4.7038980181,
			"0.01": 3.00485517325,
			"0.011": 1.63682396082,
			"0.012": 0.770095295504,
			"0.013": 0.564844822071,
			"0.014": 0.474725715386,
			"0.015": 0.107768038439,
			"0.016": 0.0,
			"0.017": 0.0,
			"0.018": 0.0,
			"0.019": 0.0,
			"0.02": 0.0,
			"0.021": 0.0,
			"0.022": 0.0,
			"0.023": 0.0,
			"0.024": 0.0,
			"0.025": 0.0
		}
	}
}
