{
	 "smiles": "O=C1CCC2=C(O1)C=CC=C2", 
	 "Tm": 298.15, 
	 "num_atms": 19, 
	 "gaussian": { 
		 "optdone": 1, 
		 "sigma_profile": "yes", 
		 "theory": "DFT", 
		 "functional": "B3LYP", 
		 "basiset": "6-31G**", 
		 "properties": { 
			 "R2extent": 1728.313, 
			 "electric_dipole_moment_norm": 3.9688775907, 
			 "electric_quadrupole_moment_norm": 13.7656306826, 
			 "total_energy": -498.239592815, 
			 "HOMO_LUMO_gap": 0.2203, 
			 "cosmo_polarized_energy": -9.61, 
			 "cosmo_cavitation_energy": 22.48, 
			 "cosmo_dispersion_energy": -17.06, 
			 "cosmo_repulsion_energy": 1.37, 
			 "cosmo_total_nonelectrostatic_energy": 6.78, 
			 "SMD_solvation_energy": 4.66 
		},
		"coords": [
			{
				"x": 3.5881877731,
				"y": 0.114879696,
				"z": -1.1507907581,
				"element": "O" 
			},
			{
				"x": 2.4351916616,
				"y": -0.1410113643,
				"z": -0.9206601236,
				"element": "C" 
			},
			{
				"x": 1.7356464437,
				"y": -1.4360230675,
				"z": -1.2846691401,
				"element": "C" 
			},
			{
				"x": 0.2859135374,
				"y": -1.1992646386,
				"z": -1.7297341762,
				"element": "C" 
			},
			{
				"x": -0.4224657079,
				"y": -0.3719339456,
				"z": -0.6870036655,
				"element": "C" 
			},
			{
				"x": 0.3278036083,
				"y": 0.576935734,
				"z": 0.0167715901,
				"element": "C" 
			},
			{
				"x": 1.6747581057,
				"y": 0.7910946964,
				"z": -0.2525736239,
				"element": "O" 
			},
			{
				"x": -0.2439663781,
				"y": 1.3868942467,
				"z": 0.9960997918,
				"element": "C" 
			},
			{
				"x": -1.6011854625,
				"y": 1.2497436952,
				"z": 1.2833145126,
				"element": "C" 
			},
			{
				"x": -2.372015444,
				"y": 0.3072780059,
				"z": 0.5981285947,
				"element": "C" 
			},
			{
				"x": -1.779759334,
				"y": -0.4964563451,
				"z": -0.376735742,
				"element": "C" 
			},
			{
				"x": 1.745903204,
				"y": -2.0732661782,
				"z": -0.390019948,
				"element": "H" 
			},
			{
				"x": 2.3395693357,
				"y": -1.9284952742,
				"z": -2.0485679053,
				"element": "H" 
			},
			{
				"x": -0.2268207272,
				"y": -2.1533123235,
				"z": -1.8859352356,
				"element": "H" 
			},
			{
				"x": 0.2797521301,
				"y": -0.6770067116,
				"z": -2.6967749628,
				"element": "H" 
			},
			{
				"x": 0.3804315938,
				"y": 2.1082178919,
				"z": 1.5123845198,
				"element": "H" 
			},
			{
				"x": -2.0540572777,
				"y": 1.877030977,
				"z": 2.0451120944,
				"element": "H" 
			},
			{
				"x": -3.4280319083,
				"y": 0.1964301199,
				"z": 0.8240820639,
				"element": "H" 
			},
			{
				"x": -2.3750551536,
				"y": -1.2342352145,
				"z": -0.9090278861,
				"element": "H" 
			}
		],
		 "valence_orbital": [ 
			{
				"type": "occ",
				"energy": -0.3429,
				"method": "rhf"
			},
			{
				"type": "occ",
				"energy": -0.32773,
				"method": "rhf"
			},
			{
				"type": "occ",
				"energy": -0.27388,
				"method": "rhf"
			},
			{
				"type": "occ",
				"energy": -0.25765,
				"method": "rhf"
			},
			{
				"type": "occ",
				"energy": -0.23907,
				"method": "rhf"
			},
			{
				"type": "unocc",
				"energy": -0.01877,
				"method": "rhf"
			},
			{
				"type": "unocc",
				"energy": -0.01262,
				"method": "rhf"
			},
			{
				"type": "unocc",
				"energy": 0.01578,
				"method": "rhf"
			},
			{
				"type": "unocc",
				"energy": 0.08612,
				"method": "rhf"
			},
			{
				"type": "unocc",
				"energy": 0.09417,
				"method": "rhf"
			}
		],
		"cosmo_sigma_profile": { 
			"-0.025": 0.0,
			"-0.024": 0.0,
			"-0.023": 0.0,
			"-0.022": 0.0,
			"-0.021": 0.0,
			"-0.02": 0.0,
			"-0.019": 0.0,
			"-0.018": 0.0,
			"-0.017": 0.0,
			"-0.016": 0.0,
			"-0.015": 0.0,
			"-0.014": 0.0,
			"-0.013": 0.0,
			"-0.012": 0.0,
			"-0.011": 0.0,
			"-0.01": 0.0,
			"-0.009": 0.0,
			"-0.008": 0.961497200162,
			"-0.007": 4.74514141147,
			"-0.006": 15.0489502094,
			"-0.005": 19.7562119999,
			"-0.004": 19.3343642409,
			"-0.003": 16.5314624937,
			"-0.002": 11.8053566662,
			"-0.001": 9.09720001346,
			"0.0": 7.79619691941,
			"0.001": 8.65347714262,
			"0.002": 10.0110814815,
			"0.003": 10.3748128154,
			"0.004": 10.5910993727,
			"0.005": 10.3222243005,
			"0.006": 2.65000475377,
			"0.007": 1.45288798307,
			"0.008": 2.75654115966,
			"0.009": 3.55044039283,
			"0.01": 3.14266127435,
			"0.011": 5.78293354292,
			"0.012": 4.18946917472,
			"0.013": 0.722165594381,
			"0.014": 0.0,
			"0.015": 0.0,
			"0.016": 0.0,
			"0.017": 0.0,
			"0.018": 0.0,
			"0.019": 0.0,
			"0.02": 0.0,
			"0.021": 0.0,
			"0.022": 0.0,
			"0.023": 0.0,
			"0.024": 0.0,
			"0.025": 0.0
		}
	}
}
