{
	 "smiles": "COC1=C(C=CC(F)=C1F)C(O)=O", 
	 "Tm": 411.15, 
	 "num_atms": 19, 
	 "gaussian": { 
		 "optdone": 1, 
		 "sigma_profile": "yes", 
		 "theory": "DFT", 
		 "functional": "B3LYP", 
		 "basiset": "6-31G**", 
		 "properties": { 
			 "R2extent": 3456.261, 
			 "electric_dipole_moment_norm": 4.61827099465, 
			 "electric_quadrupole_moment_norm": 28.3051619504, 
			 "total_energy": -733.793418419, 
			 "HOMO_LUMO_gap": 0.20485, 
			 "cosmo_polarized_energy": -12.08, 
			 "cosmo_cavitation_energy": 24.34, 
			 "cosmo_dispersion_energy": -17.98, 
			 "cosmo_repulsion_energy": 1.36, 
			 "cosmo_total_nonelectrostatic_energy": 7.72, 
			 "SMD_solvation_energy": 7.1 
		},
		"coords": [
			{
				"x": -1.5543158161,
				"y": 0.2724219018,
				"z": -0.0424303155,
				"element": "C" 
			},
			{
				"x": -0.9157196572,
				"y": -0.9375683637,
				"z": -0.4852372917,
				"element": "O" 
			},
			{
				"x": 0.4223844066,
				"y": -1.0273162317,
				"z": -0.7515294852,
				"element": "C" 
			},
			{
				"x": 0.9145185536,
				"y": -2.2849391219,
				"z": -1.1807801391,
				"element": "C" 
			},
			{
				"x": 2.2786445174,
				"y": -2.4223746603,
				"z": -1.464744869,
				"element": "C" 
			},
			{
				"x": 3.1716377753,
				"y": -1.3647902885,
				"z": -1.3401449278,
				"element": "C" 
			},
			{
				"x": 2.6762367962,
				"y": -0.1401489938,
				"z": -0.9191698693,
				"element": "C" 
			},
			{
				"x": 3.4856858855,
				"y": 0.9184486267,
				"z": -0.7791265771,
				"element": "F" 
			},
			{
				"x": 1.324727438,
				"y": 0.0362898258,
				"z": -0.6269738755,
				"element": "C" 
			},
			{
				"x": 0.928620853,
				"y": 1.2638586113,
				"z": -0.2231658332,
				"element": "F" 
			},
			{
				"x": 0.0805094746,
				"y": -3.5328953942,
				"z": -1.367470405,
				"element": "C" 
			},
			{
				"x": -1.2366268001,
				"y": -3.4607459438,
				"z": -1.109899176,
				"element": "O" 
			},
			{
				"x": 0.5804276708,
				"y": -4.5721445481,
				"z": -1.7397234475,
				"element": "O" 
			},
			{
				"x": -2.6044798856,
				"y": 0.0043756417,
				"z": 0.0750265932,
				"element": "H" 
			},
			{
				"x": -1.4524737889,
				"y": 1.0640767568,
				"z": -0.7868744031,
				"element": "H" 
			},
			{
				"x": -1.1448910115,
				"y": 0.604145886,
				"z": 0.9134017422,
				"element": "H" 
			},
			{
				"x": 2.6125658135,
				"y": -3.4007069404,
				"z": -1.7898575912,
				"element": "H" 
			},
			{
				"x": 4.2278052049,
				"y": -1.4687630898,
				"z": -1.5593216108,
				"element": "H" 
			},
			{
				"x": -1.4644574302,
				"y": -2.5564236739,
				"z": -0.8239785184,
				"element": "H" 
			}
		],
		 "valence_orbital": [ 
			{
				"type": "occ",
				"energy": -0.34728,
				"method": "rhf"
			},
			{
				"type": "occ",
				"energy": -0.30504,
				"method": "rhf"
			},
			{
				"type": "occ",
				"energy": -0.26955,
				"method": "rhf"
			},
			{
				"type": "occ",
				"energy": -0.26379,
				"method": "rhf"
			},
			{
				"type": "occ",
				"energy": -0.25571,
				"method": "rhf"
			},
			{
				"type": "unocc",
				"energy": -0.05086,
				"method": "rhf"
			},
			{
				"type": "unocc",
				"energy": -0.02092,
				"method": "rhf"
			},
			{
				"type": "unocc",
				"energy": 0.03217,
				"method": "rhf"
			},
			{
				"type": "unocc",
				"energy": 0.0566,
				"method": "rhf"
			},
			{
				"type": "unocc",
				"energy": 0.08705,
				"method": "rhf"
			}
		],
		"cosmo_sigma_profile": { 
			"-0.025": 0.0,
			"-0.024": 0.0,
			"-0.023": 0.0,
			"-0.022": 0.0,
			"-0.021": 0.0,
			"-0.02": 0.0,
			"-0.019": 0.0,
			"-0.018": 0.0,
			"-0.017": 0.0,
			"-0.016": 0.0,
			"-0.015": 0.0,
			"-0.014": 0.0,
			"-0.013": 0.0,
			"-0.012": 0.0,
			"-0.011": 0.10415146806,
			"-0.01": 0.55570128064,
			"-0.009": 1.27315456268,
			"-0.008": 2.97347706778,
			"-0.007": 7.94498114615,
			"-0.006": 13.5867006021,
			"-0.005": 14.4366373236,
			"-0.004": 15.5179853961,
			"-0.003": 12.107229456,
			"-0.002": 17.8008238754,
			"-0.001": 16.8630343562,
			"0.0": 13.197849512,
			"0.001": 13.4632738201,
			"0.002": 12.8167294095,
			"0.003": 18.1919891022,
			"0.004": 5.78442669826,
			"0.005": 2.05672053351,
			"0.006": 1.93665849954,
			"0.007": 2.0655558874,
			"0.008": 3.30086088451,
			"0.009": 2.6439527112,
			"0.01": 3.47135904735,
			"0.011": 5.67440083314,
			"0.012": 5.42424639162,
			"0.013": 2.2324640782,
			"0.014": 0.478240788761,
			"0.015": 0.0,
			"0.016": 0.0,
			"0.017": 0.0,
			"0.018": 0.0,
			"0.019": 0.0,
			"0.02": 0.0,
			"0.021": 0.0,
			"0.022": 0.0,
			"0.023": 0.0,
			"0.024": 0.0,
			"0.025": 0.0
		}
	}
}
