{
	 "smiles": "CC(C)CNC(=O)C1=CC(C)=C(N)C=C1", 
	 "Tm": 365.15, 
	 "num_atms": 33, 
	 "gaussian": { 
		 "optdone": 1, 
		 "sigma_profile": "yes", 
		 "theory": "DFT", 
		 "functional": "B3LYP", 
		 "basiset": "6-31G**", 
		 "properties": { 
			 "R2extent": 4709.0369, 
			 "electric_dipole_moment_norm": 5.12611603166, 
			 "electric_quadrupole_moment_norm": 20.9194997476, 
			 "total_energy": -652.890578922, 
			 "HOMO_LUMO_gap": 0.18939, 
			 "cosmo_polarized_energy": -16.25, 
			 "cosmo_cavitation_energy": 35.25, 
			 "cosmo_dispersion_energy": -24.28, 
			 "cosmo_repulsion_energy": 1.94, 
			 "cosmo_total_nonelectrostatic_energy": 12.91, 
			 "SMD_solvation_energy": 5.71 
		},
		"coords": [
			{
				"x": 3.1479004426,
				"y": -1.5271221953,
				"z": 1.7102878248,
				"element": "C" 
			},
			{
				"x": 1.9622990438,
				"y": -1.4388232491,
				"z": 0.7399644467,
				"element": "C" 
			},
			{
				"x": 2.2135242554,
				"y": -2.2766499311,
				"z": -0.5216395613,
				"element": "C" 
			},
			{
				"x": 0.6341138184,
				"y": -1.8745755022,
				"z": 1.3965043152,
				"element": "C" 
			},
			{
				"x": 0.2473367665,
				"y": -1.1076229307,
				"z": 2.581783905,
				"element": "N" 
			},
			{
				"x": -0.2489704536,
				"y": 0.1885245174,
				"z": 2.5843789448,
				"element": "C" 
			},
			{
				"x": 0.0668796456,
				"y": 0.9704104515,
				"z": 3.4782719469,
				"element": "O" 
			},
			{
				"x": -1.2179861499,
				"y": 0.583579743,
				"z": 1.517012204,
				"element": "C" 
			},
			{
				"x": -2.1842032017,
				"y": -0.2861729671,
				"z": 0.989836781,
				"element": "C" 
			},
			{
				"x": -3.1290332034,
				"y": 0.1303850827,
				"z": 0.052652085,
				"element": "C" 
			},
			{
				"x": -4.1813994339,
				"y": -0.8154834224,
				"z": -0.4710357764,
				"element": "C" 
			},
			{
				"x": -3.0987643136,
				"y": 1.4751723586,
				"z": -0.3883828978,
				"element": "C" 
			},
			{
				"x": -4.0498691119,
				"y": 1.9383286768,
				"z": -1.2933704454,
				"element": "N" 
			},
			{
				"x": -2.1435664987,
				"y": 2.3562005116,
				"z": 0.1495919117,
				"element": "C" 
			},
			{
				"x": -1.231231678,
				"y": 1.9212546377,
				"z": 1.0998074419,
				"element": "C" 
			},
			{
				"x": 3.2909665832,
				"y": -2.5562374362,
				"z": 2.0643203232,
				"element": "H" 
			},
			{
				"x": 4.0764333241,
				"y": -1.2151346839,
				"z": 1.2210551691,
				"element": "H" 
			},
			{
				"x": 3.0083689836,
				"y": -0.8821803247,
				"z": 2.5836941139,
				"element": "H" 
			},
			{
				"x": 1.8423966294,
				"y": -0.3883210778,
				"z": 0.4387043987,
				"element": "H" 
			},
			{
				"x": 3.1270864994,
				"y": -1.9555263287,
				"z": -1.032437804,
				"element": "H" 
			},
			{
				"x": 1.3848755737,
				"y": -2.1908633854,
				"z": -1.2334045655,
				"element": "H" 
			},
			{
				"x": 2.3309529197,
				"y": -3.338635648,
				"z": -0.2723259848,
				"element": "H" 
			},
			{
				"x": 0.7035046651,
				"y": -2.9296935452,
				"z": 1.6930745235,
				"element": "H" 
			},
			{
				"x": -0.1656610255,
				"y": -1.8065749144,
				"z": 0.6573752016,
				"element": "H" 
			},
			{
				"x": 0.8624101556,
				"y": -1.2290644655,
				"z": 3.3788498935,
				"element": "H" 
			},
			{
				"x": -2.2297854432,
				"y": -1.3108836737,
				"z": 1.348640521,
				"element": "H" 
			},
			{
				"x": -4.0860430114,
				"y": -0.9829666137,
				"z": -1.5538522466,
				"element": "H" 
			},
			{
				"x": -5.1930166241,
				"y": -0.4292838012,
				"z": -0.2941960894,
				"element": "H" 
			},
			{
				"x": -4.1063410266,
				"y": -1.7926887986,
				"z": 0.0123415537,
				"element": "H" 
			},
			{
				"x": -4.4357307941,
				"y": 1.2551910433,
				"z": -1.9288239413,
				"element": "H" 
			},
			{
				"x": -3.8252615434,
				"y": 2.8100419586,
				"z": -1.7516853699,
				"element": "H" 
			},
			{
				"x": -2.1350692857,
				"y": 3.3932491052,
				"z": -0.1780232392,
				"element": "H" 
			},
			{
				"x": -0.5150165074,
				"y": 2.6106668086,
				"z": 1.5345304161,
				"element": "H" 
			}
		],
		 "valence_orbital": [ 
			{
				"type": "occ",
				"energy": -0.30457,
				"method": "rhf"
			},
			{
				"type": "occ",
				"energy": -0.24818,
				"method": "rhf"
			},
			{
				"type": "occ",
				"energy": -0.24373,
				"method": "rhf"
			},
			{
				"type": "occ",
				"energy": -0.22803,
				"method": "rhf"
			},
			{
				"type": "occ",
				"energy": -0.20325,
				"method": "rhf"
			},
			{
				"type": "unocc",
				"energy": -0.01386,
				"method": "rhf"
			},
			{
				"type": "unocc",
				"energy": 0.00345,
				"method": "rhf"
			},
			{
				"type": "unocc",
				"energy": 0.06407,
				"method": "rhf"
			},
			{
				"type": "unocc",
				"energy": 0.07122,
				"method": "rhf"
			},
			{
				"type": "unocc",
				"energy": 0.08293,
				"method": "rhf"
			}
		],
		"cosmo_sigma_profile": { 
			"-0.025": 0.0,
			"-0.024": 0.0,
			"-0.023": 0.0,
			"-0.022": 0.0,
			"-0.021": 0.0,
			"-0.02": 0.0,
			"-0.019": 0.0,
			"-0.018": 0.0,
			"-0.017": 0.0,
			"-0.016": 0.0,
			"-0.015": 0.0,
			"-0.014": 0.0,
			"-0.013": 0.405320207017,
			"-0.012": 2.55216375839,
			"-0.011": 3.02538498004,
			"-0.01": 3.89043436457,
			"-0.009": 4.45427903723,
			"-0.008": 4.43146373718,
			"-0.007": 4.17675056569,
			"-0.006": 4.39698635982,
			"-0.005": 9.26102755725,
			"-0.004": 15.7556020423,
			"-0.003": 28.3609354055,
			"-0.002": 30.6661454006,
			"-0.001": 30.6127832036,
			"0.0": 28.9427222063,
			"0.001": 26.6168387701,
			"0.002": 13.0803670352,
			"0.003": 8.97533552162,
			"0.004": 9.73479020585,
			"0.005": 10.7915942024,
			"0.006": 9.29853274824,
			"0.007": 3.53246381854,
			"0.008": 2.38092622206,
			"0.009": 1.69129146623,
			"0.01": 2.2123004313,
			"0.011": 2.73475647738,
			"0.012": 2.30848444306,
			"0.013": 3.3827440083,
			"0.014": 5.23504288693,
			"0.015": 2.38345752501,
			"0.016": 0.0227095584376,
			"0.017": 0.0,
			"0.018": 0.0,
			"0.019": 0.0,
			"0.02": 0.0,
			"0.021": 0.0,
			"0.022": 0.0,
			"0.023": 0.0,
			"0.024": 0.0,
			"0.025": 0.0
		}
	}
}
