{
	 "smiles": "OC(=O)COC1=CC=CC=C1Cl", 
	 "Tm": 422.15, 
	 "num_atms": 19, 
	 "gaussian": { 
		 "optdone": 1, 
		 "sigma_profile": "yes", 
		 "theory": "DFT", 
		 "functional": "B3LYP", 
		 "basiset": "6-31G**", 
		 "properties": { 
			 "R2extent": 3846.505, 
			 "electric_dipole_moment_norm": 5.08832305283, 
			 "electric_quadrupole_moment_norm": 9.26346535644, 
			 "total_energy": -994.927961577, 
			 "HOMO_LUMO_gap": 0.2173, 
			 "cosmo_polarized_energy": -12.8, 
			 "cosmo_cavitation_energy": 25.66, 
			 "cosmo_dispersion_energy": -18.88, 
			 "cosmo_repulsion_energy": 1.51, 
			 "cosmo_total_nonelectrostatic_energy": 8.28, 
			 "SMD_solvation_energy": 5.77 
		},
		"coords": [
			{
				"x": -2.1653644594,
				"y": 2.2202659573,
				"z": 1.9824924422,
				"element": "O" 
			},
			{
				"x": -2.0106620676,
				"y": 2.2330943356,
				"z": 0.650918928,
				"element": "C" 
			},
			{
				"x": -2.2209970256,
				"y": 3.204949955,
				"z": -0.0303221619,
				"element": "O" 
			},
			{
				"x": -1.5387107991,
				"y": 0.9197032572,
				"z": 0.0211817611,
				"element": "C" 
			},
			{
				"x": -1.3719799787,
				"y": -0.0417821013,
				"z": 1.0547260708,
				"element": "O" 
			},
			{
				"x": -0.9541652574,
				"y": -1.3062135532,
				"z": 0.7530374722,
				"element": "C" 
			},
			{
				"x": -0.6660964959,
				"y": -1.7503549222,
				"z": -0.5407560232,
				"element": "C" 
			},
			{
				"x": -0.2438488939,
				"y": -3.0652010266,
				"z": -0.7514199931,
				"element": "C" 
			},
			{
				"x": -0.1055911529,
				"y": -3.944572093,
				"z": 0.3194931859,
				"element": "C" 
			},
			{
				"x": -0.3916916867,
				"y": -3.5076554064,
				"z": 1.6150089554,
				"element": "C" 
			},
			{
				"x": -0.8123346443,
				"y": -2.1996595222,
				"z": 1.8295119942,
				"element": "C" 
			},
			{
				"x": -1.170850858,
				"y": -1.6531249945,
				"z": 3.456030269,
				"element": "Cl" 
			},
			{
				"x": -1.9378398213,
				"y": 1.3332359437,
				"z": 2.3157542597,
				"element": "H" 
			},
			{
				"x": -0.5965361931,
				"y": 1.1090083431,
				"z": -0.5071600529,
				"element": "H" 
			},
			{
				"x": -2.2902345509,
				"y": 0.59768816,
				"z": -0.7097078652,
				"element": "H" 
			},
			{
				"x": -0.7692065793,
				"y": -1.0770555448,
				"z": -1.3835458975,
				"element": "H" 
			},
			{
				"x": -0.0241406422,
				"y": -3.3945305008,
				"z": -1.7621721954,
				"element": "H" 
			},
			{
				"x": 0.2223360667,
				"y": -4.9658837732,
				"z": 0.1563508545,
				"element": "H" 
			},
			{
				"x": -0.2911849605,
				"y": -4.1747125138,
				"z": 2.4641779962,
				"element": "H" 
			}
		],
		 "valence_orbital": [ 
			{
				"type": "occ",
				"energy": -0.32519,
				"method": "rhf"
			},
			{
				"type": "occ",
				"energy": -0.31669,
				"method": "rhf"
			},
			{
				"type": "occ",
				"energy": -0.27924,
				"method": "rhf"
			},
			{
				"type": "occ",
				"energy": -0.26849,
				"method": "rhf"
			},
			{
				"type": "occ",
				"energy": -0.24634,
				"method": "rhf"
			},
			{
				"type": "unocc",
				"energy": -0.02904,
				"method": "rhf"
			},
			{
				"type": "unocc",
				"energy": -0.01651,
				"method": "rhf"
			},
			{
				"type": "unocc",
				"energy": 0.00586,
				"method": "rhf"
			},
			{
				"type": "unocc",
				"energy": 0.01473,
				"method": "rhf"
			},
			{
				"type": "unocc",
				"energy": 0.07627,
				"method": "rhf"
			}
		],
		"cosmo_sigma_profile": { 
			"-0.025": 0.0,
			"-0.024": 0.0,
			"-0.023": 0.0,
			"-0.022": 0.0,
			"-0.021": 0.0,
			"-0.02": 0.0,
			"-0.019": 0.0,
			"-0.018": 0.0,
			"-0.017": 0.0,
			"-0.016": 0.0,
			"-0.015": 0.0,
			"-0.014": 0.0,
			"-0.013": 0.0,
			"-0.012": 0.0,
			"-0.011": 0.17464198895,
			"-0.01": 0.944424140698,
			"-0.009": 6.68657606909,
			"-0.008": 10.452794679,
			"-0.007": 11.4560884791,
			"-0.006": 12.7532201981,
			"-0.005": 13.0329053751,
			"-0.004": 10.2878692762,
			"-0.003": 8.62226827177,
			"-0.002": 9.84451154674,
			"-0.001": 9.59490983101,
			"0.0": 12.3009719622,
			"0.001": 15.6019614193,
			"0.002": 16.8830267678,
			"0.003": 17.090543189,
			"0.004": 17.4806179119,
			"0.005": 7.70929927613,
			"0.006": 2.10885282524,
			"0.007": 2.07197426993,
			"0.008": 3.20062671095,
			"0.009": 4.64927556293,
			"0.01": 4.30655346037,
			"0.011": 4.75348320352,
			"0.012": 4.78786586196,
			"0.013": 0.904892360969,
			"0.014": 0.0,
			"0.015": 0.0,
			"0.016": 0.0,
			"0.017": 0.0,
			"0.018": 0.0,
			"0.019": 0.0,
			"0.02": 0.0,
			"0.021": 0.0,
			"0.022": 0.0,
			"0.023": 0.0,
			"0.024": 0.0,
			"0.025": 0.0
		}
	}
}
