{
	 "smiles": "OC(=O)C1CCN(CC1)C(=O)NCC1=CC=CO1", 
	 "Tm": 412.15, 
	 "num_atms": 34, 
	 "gaussian": { 
		 "optdone": 1, 
		 "sigma_profile": "no", 
		 "theory": "DFT", 
		 "functional": "B3LYP", 
		 "basiset": "6-31G**", 
		 "properties": { 
			 "R2extent": 7386.9822, 
			 "electric_dipole_moment_norm": 4.71082732967, 
			 "electric_quadrupole_moment_norm": 28.6699480088, 
			 "total_energy": -877.31708769, 
			 "HOMO_LUMO_gap": 0.22626, 
			 "cosmo_polarized_energy": -36.68, 
			 "cosmo_cavitation_energy": 37.1, 
			 "cosmo_dispersion_energy": -26.26, 
			 "cosmo_repulsion_energy": 2.04, 
			 "cosmo_total_nonelectrostatic_energy": 12.88, 
			 "SMD_solvation_energy": 7.06 
		},
		"coords": [
			{
				"x": 4.9434139437,
				"y": 3.3282284973,
				"z": -0.6439833099,
				"element": "O" 
			},
			{
				"x": 4.6888250424,
				"y": 2.1276221336,
				"z": -1.2401872064,
				"element": "C" 
			},
			{
				"x": 5.5268799652,
				"y": 1.6199517445,
				"z": -1.9414663591,
				"element": "O" 
			},
			{
				"x": 3.3138457857,
				"y": 1.5213947531,
				"z": -0.9724005542,
				"element": "C" 
			},
			{
				"x": 2.1737051437,
				"y": 2.4134461415,
				"z": -1.5069551703,
				"element": "C" 
			},
			{
				"x": 0.8385791157,
				"y": 1.6537440047,
				"z": -1.4374194503,
				"element": "C" 
			},
			{
				"x": 0.709027392,
				"y": 0.9483954406,
				"z": -0.1621163394,
				"element": "N" 
			},
			{
				"x": 1.595158149,
				"y": 1.3522728075,
				"z": 0.9235528042,
				"element": "C" 
			},
			{
				"x": 3.077195914,
				"y": 1.191685234,
				"z": 0.5328576369,
				"element": "C" 
			},
			{
				"x": -0.1384934726,
				"y": -0.1275719012,
				"z": 0.0329106932,
				"element": "C" 
			},
			{
				"x": -0.1308817967,
				"y": -0.8014728673,
				"z": 1.062179356,
				"element": "O" 
			},
			{
				"x": -0.9740774675,
				"y": -0.423614134,
				"z": -1.0369350759,
				"element": "N" 
			},
			{
				"x": -2.0283292777,
				"y": -1.4216991525,
				"z": -0.8205137199,
				"element": "C" 
			},
			{
				"x": -3.249719218,
				"y": -0.8935562266,
				"z": -0.1401976866,
				"element": "C" 
			},
			{
				"x": -3.6385577256,
				"y": -0.8097642866,
				"z": 1.1643776276,
				"element": "C" 
			},
			{
				"x": -4.9039206286,
				"y": -0.1352541237,
				"z": 1.1720688631,
				"element": "C" 
			},
			{
				"x": -5.1905214892,
				"y": 0.1466841543,
				"z": -0.1283641937,
				"element": "C" 
			},
			{
				"x": -4.1948754163,
				"y": -0.3053984826,
				"z": -0.9447085835,
				"element": "O" 
			},
			{
				"x": 4.1874129207,
				"y": 3.60948841,
				"z": -0.1097023882,
				"element": "H" 
			},
			{
				"x": 3.3056779462,
				"y": 0.5911800262,
				"z": -1.5465449362,
				"element": "H" 
			},
			{
				"x": 2.3597494654,
				"y": 2.70468582,
				"z": -2.5455068017,
				"element": "H" 
			},
			{
				"x": 2.1060821099,
				"y": 3.344585311,
				"z": -0.9293995137,
				"element": "H" 
			},
			{
				"x": 0.8096084766,
				"y": 0.9194991768,
				"z": -2.2515237768,
				"element": "H" 
			},
			{
				"x": 0.007990869,
				"y": 2.3604009992,
				"z": -1.5990534091,
				"element": "H" 
			},
			{
				"x": 1.3481375681,
				"y": 0.7317051677,
				"z": 1.7840889165,
				"element": "H" 
			},
			{
				"x": 1.3840145966,
				"y": 2.3964643302,
				"z": 1.19433296,
				"element": "H" 
			},
			{
				"x": 3.4085664018,
				"y": 0.167712587,
				"z": 0.7264864583,
				"element": "H" 
			},
			{
				"x": 3.683511225,
				"y": 1.8404707217,
				"z": 1.1778617557,
				"element": "H" 
			},
			{
				"x": -1.2349103688,
				"y": 0.3408052672,
				"z": -1.6443386445,
				"element": "H" 
			},
			{
				"x": -2.3004342251,
				"y": -1.8404599028,
				"z": -1.794404033,
				"element": "H" 
			},
			{
				"x": -1.5919035907,
				"y": -2.2125402134,
				"z": -0.2106855379,
				"element": "H" 
			},
			{
				"x": -3.0751647312,
				"y": -1.1743287193,
				"z": 2.0107032027,
				"element": "H" 
			},
			{
				"x": -5.5157749027,
				"y": 0.1020718208,
				"z": 2.0306392605,
				"element": "H" 
			},
			{
				"x": -6.0211177199,
				"y": 0.6281654612,
				"z": -0.6210528444,
				"element": "H" 
			}
		],
		 "valence_orbital": [ 
			{
				"type": "occ",
				"energy": -0.27193,
				"method": "rhf"
			},
			{
				"type": "occ",
				"energy": -0.26929,
				"method": "rhf"
			},
			{
				"type": "occ",
				"energy": -0.25218,
				"method": "rhf"
			},
			{
				"type": "occ",
				"energy": -0.23967,
				"method": "rhf"
			},
			{
				"type": "occ",
				"energy": -0.2216,
				"method": "rhf"
			},
			{
				"type": "unocc",
				"energy": 0.00466,
				"method": "rhf"
			},
			{
				"type": "unocc",
				"energy": 0.01004,
				"method": "rhf"
			},
			{
				"type": "unocc",
				"energy": 0.03191,
				"method": "rhf"
			},
			{
				"type": "unocc",
				"energy": 0.05246,
				"method": "rhf"
			},
			{
				"type": "unocc",
				"energy": 0.06965,
				"method": "rhf"
			}
		],
		"cosmo_sigma_profile": { 
			"0.0": 0.0,
			"0.0": 0.0,
			"0.0": 0.0,
			"0.0": 0.0,
			"0.0": 0.0,
			"0.0": 0.0,
			"0.0": 0.0,
			"0.0": 0.0,
			"0.0": 0.0,
			"0.0": 0.0,
			"0.0": 0.0,
			"0.0": 0.0,
			"0.0": 0.0,
			"0.0": 0.0,
			"0.0": 0.0,
			"0.0": 0.0,
			"0.0": 0.0,
			"0.0": 0.0,
			"0.0": 0.0,
			"0.0": 0.0,
			"0.0": 0.0,
			"0.0": 0.0,
			"0.0": 0.0,
			"0.0": 0.0,
			"0.0": 0.0,
			"0.0": 0.0,
			"0.0": 0.0,
			"0.0": 0.0,
			"0.0": 0.0,
			"0.0": 0.0,
			"0.0": 0.0,
			"0.0": 0.0,
			"0.0": 0.0,
			"0.0": 0.0,
			"0.0": 0.0,
			"0.0": 0.0,
			"0.0": 0.0,
			"0.0": 0.0,
			"0.0": 0.0,
			"0.0": 0.0,
			"0.0": 0.0,
			"0.0": 0.0,
			"0.0": 0.0,
			"0.0": 0.0,
			"0.0": 0.0,
			"0.0": 0.0,
			"0.0": 0.0,
			"0.0": 0.0,
			"0.0": 0.0,
			"0.0": 0.0,
			"0.0": 0.0
		}
	}
}
