{
	 "smiles": "OC1CCN(CC1)C1=CC=C(C=C1)C(O)=O", 
	 "Tm": 533.15, 
	 "num_atms": 31, 
	 "gaussian": { 
		 "optdone": 1, 
		 "sigma_profile": "yes", 
		 "theory": "DFT", 
		 "functional": "B3LYP", 
		 "basiset": "6-31G**", 
		 "properties": { 
			 "R2extent": 5814.0993, 
			 "electric_dipole_moment_norm": 4.39562431516, 
			 "electric_quadrupole_moment_norm": 20.4006020039, 
			 "total_energy": -746.756157582, 
			 "HOMO_LUMO_gap": 0.16949, 
			 "cosmo_polarized_energy": -15.99, 
			 "cosmo_cavitation_energy": 32.68, 
			 "cosmo_dispersion_energy": -24.13, 
			 "cosmo_repulsion_energy": 1.86, 
			 "cosmo_total_nonelectrostatic_energy": 10.41, 
			 "SMD_solvation_energy": 5.08 
		},
		"coords": [
			{
				"x": 3.3059851123,
				"y": 1.9378487702,
				"z": 0.2163820025,
				"element": "O" 
			},
			{
				"x": 1.9217439158,
				"y": 1.9619480885,
				"z": 0.5780594222,
				"element": "C" 
			},
			{
				"x": 1.1593967237,
				"y": 1.355324907,
				"z": -0.6072278479,
				"element": "C" 
			},
			{
				"x": 1.4451269356,
				"y": -0.1516694566,
				"z": -0.7138844266,
				"element": "C" 
			},
			{
				"x": 1.1163911334,
				"y": -0.8567363661,
				"z": 0.5281772896,
				"element": "N" 
			},
			{
				"x": 1.9270087293,
				"y": -0.3471377107,
				"z": 1.639640947,
				"element": "C" 
			},
			{
				"x": 1.6680840388,
				"y": 1.1537526675,
				"z": 1.8633762412,
				"element": "C" 
			},
			{
				"x": -0.152547405,
				"y": -1.3865336643,
				"z": 0.7445645168,
				"element": "C" 
			},
			{
				"x": -1.1786409816,
				"y": -1.302139834,
				"z": -0.2291128086,
				"element": "C" 
			},
			{
				"x": -2.4216376072,
				"y": -1.8838134173,
				"z": -0.0204490721,
				"element": "C" 
			},
			{
				"x": -2.7102309913,
				"y": -2.5682071627,
				"z": 1.1679100001,
				"element": "C" 
			},
			{
				"x": -1.7027506802,
				"y": -2.6564007668,
				"z": 2.1412729799,
				"element": "C" 
			},
			{
				"x": -0.4584803276,
				"y": -2.0850866399,
				"z": 1.9410351092,
				"element": "C" 
			},
			{
				"x": -4.0157212171,
				"y": -3.1955963075,
				"z": 1.4393991415,
				"element": "C" 
			},
			{
				"x": -4.9062129536,
				"y": -3.0496529311,
				"z": 0.41830785,
				"element": "O" 
			},
			{
				"x": -4.3129793491,
				"y": -3.793749211,
				"z": 2.4586415054,
				"element": "O" 
			},
			{
				"x": 3.8139741013,
				"y": 2.3096416887,
				"z": 0.9490092616,
				"element": "H" 
			},
			{
				"x": 1.5913344714,
				"y": 3.001588531,
				"z": 0.7290069591,
				"element": "H" 
			},
			{
				"x": 1.4641761146,
				"y": 1.8673212468,
				"z": -1.5263000382,
				"element": "H" 
			},
			{
				"x": 0.0853449431,
				"y": 1.5238506138,
				"z": -0.4675665117,
				"element": "H" 
			},
			{
				"x": 0.9191366037,
				"y": -0.6074269172,
				"z": -1.5532686199,
				"element": "H" 
			},
			{
				"x": 2.5158408507,
				"y": -0.2948203945,
				"z": -0.8955515185,
				"element": "H" 
			},
			{
				"x": 2.9818377419,
				"y": -0.4999460875,
				"z": 1.3850335797,
				"element": "H" 
			},
			{
				"x": 1.7308812299,
				"y": -0.9094465692,
				"z": 2.5509495298,
				"element": "H" 
			},
			{
				"x": 2.3093290281,
				"y": 1.529547349,
				"z": 2.672813432,
				"element": "H" 
			},
			{
				"x": 0.6297929942,
				"y": 1.2996095256,
				"z": 2.1863986673,
				"element": "H" 
			},
			{
				"x": -1.0155191972,
				"y": -0.7621580586,
				"z": -1.1531351095,
				"element": "H" 
			},
			{
				"x": -3.1861213932,
				"y": -1.7952595286,
				"z": -0.7846955023,
				"element": "H" 
			},
			{
				"x": -1.9167203454,
				"y": -3.1946280677,
				"z": 3.0589710238,
				"element": "H" 
			},
			{
				"x": 0.2952243119,
				"y": -2.2091787646,
				"z": 2.7091651753,
				"element": "H" 
			},
			{
				"x": -5.7122465311,
				"y": -3.500045532,
				"z": 0.7180768213,
				"element": "H" 
			}
		],
		 "valence_orbital": [ 
			{
				"type": "occ",
				"energy": -0.28922,
				"method": "rhf"
			},
			{
				"type": "occ",
				"energy": -0.2733,
				"method": "rhf"
			},
			{
				"type": "occ",
				"energy": -0.26019,
				"method": "rhf"
			},
			{
				"type": "occ",
				"energy": -0.25107,
				"method": "rhf"
			},
			{
				"type": "occ",
				"energy": -0.19649,
				"method": "rhf"
			},
			{
				"type": "unocc",
				"energy": -0.027,
				"method": "rhf"
			},
			{
				"type": "unocc",
				"energy": 0.00017,
				"method": "rhf"
			},
			{
				"type": "unocc",
				"energy": 0.057,
				"method": "rhf"
			},
			{
				"type": "unocc",
				"energy": 0.07474,
				"method": "rhf"
			},
			{
				"type": "unocc",
				"energy": 0.08721,
				"method": "rhf"
			}
		],
		"cosmo_sigma_profile": { 
			"-0.025": 0.0,
			"-0.024": 0.0,
			"-0.023": 0.0,
			"-0.022": 0.0,
			"-0.021": 0.0,
			"-0.02": 0.0,
			"-0.019": 0.0,
			"-0.018": 0.305906160645,
			"-0.017": 0.675554984606,
			"-0.016": 0.945897767369,
			"-0.015": 1.57346610073,
			"-0.014": 1.61464546201,
			"-0.013": 2.15014402013,
			"-0.012": 1.51621288877,
			"-0.011": 1.35074380187,
			"-0.01": 1.62461442911,
			"-0.009": 1.32477055066,
			"-0.008": 2.50772583546,
			"-0.007": 5.17116206858,
			"-0.006": 7.91535316697,
			"-0.005": 10.6366137613,
			"-0.004": 17.6116962245,
			"-0.003": 29.4479026843,
			"-0.002": 28.9639977774,
			"-0.001": 21.0516169651,
			"0.0": 15.246331466,
			"0.001": 11.4713900245,
			"0.002": 13.1379383017,
			"0.003": 13.5436472397,
			"0.004": 15.368135696,
			"0.005": 14.8866437721,
			"0.006": 6.08376487372,
			"0.007": 5.34909407929,
			"0.008": 4.84272367286,
			"0.009": 3.27337486667,
			"0.01": 1.98966878084,
			"0.011": 3.64212143599,
			"0.012": 6.07144056936,
			"0.013": 4.28973121511,
			"0.014": 0.892167925374,
			"0.015": 0.219272155343,
			"0.016": 0.0,
			"0.017": 0.0,
			"0.018": 0.0,
			"0.019": 0.0,
			"0.02": 0.0,
			"0.021": 0.0,
			"0.022": 0.0,
			"0.023": 0.0,
			"0.024": 0.0,
			"0.025": 0.0
		}
	}
}
