{
	 "smiles": "C(=NC(N=CC1=CC=CC=C1)C1=CC=CC=C1)C1=CC=CC=C1", 
	 "Tm": 376.65, 
	 "num_atms": 41, 
	 "gaussian": { 
		 "optdone": 1, 
		 "sigma_profile": "yes", 
		 "theory": "DFT", 
		 "functional": "B3LYP", 
		 "basiset": "6-31G**", 
		 "properties": { 
			 "R2extent": 10145.8757, 
			 "electric_dipole_moment_norm": 2.2128085525, 
			 "electric_quadrupole_moment_norm": 10.2364056773, 
			 "total_energy": -920.554392513, 
			 "HOMO_LUMO_gap": 0.17993, 
			 "cosmo_polarized_energy": -11.36, 
			 "cosmo_cavitation_energy": 45.6, 
			 "cosmo_dispersion_energy": -31.39, 
			 "cosmo_repulsion_energy": 2.41, 
			 "cosmo_total_nonelectrostatic_energy": 16.62, 
			 "SMD_solvation_energy": 4.75 
		},
		"coords": [
			{
				"x": -0.302874053,
				"y": 1.2528401529,
				"z": 2.6346843292,
				"element": "C" 
			},
			{
				"x": 0.0331767415,
				"y": 1.6171269785,
				"z": 1.4583253141,
				"element": "N" 
			},
			{
				"x": -0.4448686198,
				"y": 0.9615474701,
				"z": 0.2517374175,
				"element": "C" 
			},
			{
				"x": 0.5992201947,
				"y": 0.7938786246,
				"z": -0.7647020688,
				"element": "N" 
			},
			{
				"x": 1.7690776157,
				"y": 1.2657496221,
				"z": -0.5739090624,
				"element": "C" 
			},
			{
				"x": 2.8383189788,
				"y": 1.1239592132,
				"z": -1.5799576846,
				"element": "C" 
			},
			{
				"x": 4.1105290707,
				"y": 1.6466300424,
				"z": -1.3063334301,
				"element": "C" 
			},
			{
				"x": 5.1432213686,
				"y": 1.5275751228,
				"z": -2.2369046426,
				"element": "C" 
			},
			{
				"x": 4.9122340812,
				"y": 0.8831604731,
				"z": -3.4530011489,
				"element": "C" 
			},
			{
				"x": 3.6451425908,
				"y": 0.3590052493,
				"z": -3.7349453979,
				"element": "C" 
			},
			{
				"x": 2.6152866152,
				"y": 0.477491254,
				"z": -2.8074547104,
				"element": "C" 
			},
			{
				"x": -1.5916852027,
				"y": 1.7423799396,
				"z": -0.3975166578,
				"element": "C" 
			},
			{
				"x": -2.4564374916,
				"y": 1.0800492421,
				"z": -1.2779567239,
				"element": "C" 
			},
			{
				"x": -3.4895235509,
				"y": 1.7708984897,
				"z": -1.9113852751,
				"element": "C" 
			},
			{
				"x": -3.6672810784,
				"y": 3.135689958,
				"z": -1.6734467587,
				"element": "C" 
			},
			{
				"x": -2.8047370112,
				"y": 3.80213406,
				"z": -0.8017239504,
				"element": "C" 
			},
			{
				"x": -1.7700506993,
				"y": 3.1108660446,
				"z": -0.1683131532,
				"element": "C" 
			},
			{
				"x": -1.2487367784,
				"y": 0.217215787,
				"z": 3.1228834659,
				"element": "C" 
			},
			{
				"x": -2.4347360833,
				"y": -0.1461446893,
				"z": 2.4607685778,
				"element": "C" 
			},
			{
				"x": -3.2734595362,
				"y": -1.1203393341,
				"z": 3.0022986717,
				"element": "C" 
			},
			{
				"x": -2.9441918888,
				"y": -1.7471971176,
				"z": 4.2054864135,
				"element": "C" 
			},
			{
				"x": -1.7780426796,
				"y": -1.3812854915,
				"z": 4.8823956386,
				"element": "C" 
			},
			{
				"x": -0.9477976914,
				"y": -0.3977205185,
				"z": 4.3513496369,
				"element": "C" 
			},
			{
				"x": 0.2113482715,
				"y": 1.7801999681,
				"z": 3.4483255605,
				"element": "H" 
			},
			{
				"x": -0.8036196034,
				"y": -0.0583898578,
				"z": 0.4567856403,
				"element": "H" 
			},
			{
				"x": 2.0364266285,
				"y": 1.7997143583,
				"z": 0.3449342084,
				"element": "H" 
			},
			{
				"x": 4.2868531009,
				"y": 2.1488860653,
				"z": -0.357992025,
				"element": "H" 
			},
			{
				"x": 6.1245416731,
				"y": 1.9366400245,
				"z": -2.0138613794,
				"element": "H" 
			},
			{
				"x": 5.714054417,
				"y": 0.7890392252,
				"z": -4.1800489616,
				"element": "H" 
			},
			{
				"x": 3.4649012452,
				"y": -0.1415951242,
				"z": -4.682293866,
				"element": "H" 
			},
			{
				"x": 1.6260995416,
				"y": 0.0793956185,
				"z": -3.0080980741,
				"element": "H" 
			},
			{
				"x": -2.3100306228,
				"y": 0.0207915115,
				"z": -1.4726452069,
				"element": "H" 
			},
			{
				"x": -4.1547282513,
				"y": 1.2442681341,
				"z": -2.5900971404,
				"element": "H" 
			},
			{
				"x": -4.4724297616,
				"y": 3.6750897479,
				"z": -2.1643026,
				"element": "H" 
			},
			{
				"x": -2.935440891,
				"y": 4.8642639911,
				"z": -0.6135799105,
				"element": "H" 
			},
			{
				"x": -1.0978049549,
				"y": 3.6279644402,
				"z": 0.5081676742,
				"element": "H" 
			},
			{
				"x": -2.7231837587,
				"y": 0.358014225,
				"z": 1.5455234596,
				"element": "H" 
			},
			{
				"x": -4.1910966445,
				"y": -1.3845943802,
				"z": 2.4848274546,
				"element": "H" 
			},
			{
				"x": -3.5994155543,
				"y": -2.5073818015,
				"z": 4.6209221179,
				"element": "H" 
			},
			{
				"x": -1.5225321588,
				"y": -1.8553381003,
				"z": 5.8255767585,
				"element": "H" 
			},
			{
				"x": -0.0467275694,
				"y": -0.1035786187,
				"z": 4.8840774894,
				"element": "H" 
			}
		],
		 "valence_orbital": [ 
			{
				"type": "occ",
				"energy": -0.24637,
				"method": "rhf"
			},
			{
				"type": "occ",
				"energy": -0.24606,
				"method": "rhf"
			},
			{
				"type": "occ",
				"energy": -0.24194,
				"method": "rhf"
			},
			{
				"type": "occ",
				"energy": -0.23737,
				"method": "rhf"
			},
			{
				"type": "occ",
				"energy": -0.22827,
				"method": "rhf"
			},
			{
				"type": "unocc",
				"energy": -0.04834,
				"method": "rhf"
			},
			{
				"type": "unocc",
				"energy": -0.03524,
				"method": "rhf"
			},
			{
				"type": "unocc",
				"energy": -0.01198,
				"method": "rhf"
			},
			{
				"type": "unocc",
				"energy": 0.00269,
				"method": "rhf"
			},
			{
				"type": "unocc",
				"energy": 0.00398,
				"method": "rhf"
			}
		],
		"cosmo_sigma_profile": { 
			"-0.025": 0.0,
			"-0.024": 0.0,
			"-0.023": 0.0,
			"-0.022": 0.0,
			"-0.021": 0.0,
			"-0.02": 0.0,
			"-0.019": 0.0,
			"-0.018": 0.0,
			"-0.017": 0.0,
			"-0.016": 0.0,
			"-0.015": 0.0,
			"-0.014": 0.0,
			"-0.013": 0.0,
			"-0.012": 0.0,
			"-0.011": 0.0,
			"-0.01": 0.0,
			"-0.009": 0.0,
			"-0.008": 0.0,
			"-0.007": 2.29129561484,
			"-0.006": 22.1608868608,
			"-0.005": 31.5618794581,
			"-0.004": 36.0333757999,
			"-0.003": 30.9815084423,
			"-0.002": 24.194375569,
			"-0.001": 25.2507976206,
			"0.0": 24.9301285927,
			"0.001": 27.4183958311,
			"0.002": 27.7303996983,
			"0.003": 30.2175926029,
			"0.004": 32.6839485819,
			"0.005": 27.1554461354,
			"0.006": 10.4821357378,
			"0.007": 3.36449952319,
			"0.008": 2.40305155767,
			"0.009": 2.08150866259,
			"0.01": 2.43148258461,
			"0.011": 1.56386981726,
			"0.012": 0.998894550233,
			"0.013": 0.16663811083,
			"0.014": 0.0,
			"0.015": 0.0,
			"0.016": 0.0,
			"0.017": 0.0,
			"0.018": 0.0,
			"0.019": 0.0,
			"0.02": 0.0,
			"0.021": 0.0,
			"0.022": 0.0,
			"0.023": 0.0,
			"0.024": 0.0,
			"0.025": 0.0
		}
	}
}
