{
	 "smiles": "NC1=C2C(=O)NC(=O)C2=CC=C1", 
	 "Tm": 542.15, 
	 "num_atms": 18, 
	 "gaussian": { 
		 "optdone": 1, 
		 "sigma_profile": "yes", 
		 "theory": "DFT", 
		 "functional": "B3LYP", 
		 "basiset": "6-31G**", 
		 "properties": { 
			 "R2extent": 2492.213, 
			 "electric_dipole_moment_norm": 3.70231677872, 
			 "electric_quadrupole_moment_norm": 4.45417352828, 
			 "total_energy": -568.459477711, 
			 "HOMO_LUMO_gap": 0.14566, 
			 "cosmo_polarized_energy": -13.8, 
			 "cosmo_cavitation_energy": 22.72, 
			 "cosmo_dispersion_energy": -17.22, 
			 "cosmo_repulsion_energy": 1.36, 
			 "cosmo_total_nonelectrostatic_energy": 6.87, 
			 "SMD_solvation_energy": 5.03 
		},
		"coords": [
			{
				"x": -1.1434960074,
				"y": -3.2662725075,
				"z": -0.8100288171,
				"element": "N" 
			},
			{
				"x": -0.7169084841,
				"y": -1.9838211716,
				"z": -0.6099440339,
				"element": "C" 
			},
			{
				"x": -1.3314105191,
				"y": -1.1567384956,
				"z": 0.3415796192,
				"element": "C" 
			},
			{
				"x": -2.4108890078,
				"y": -1.4884166401,
				"z": 1.2873586913,
				"element": "C" 
			},
			{
				"x": -2.99570077,
				"y": -2.5517486956,
				"z": 1.4402076195,
				"element": "O" 
			},
			{
				"x": -2.6407347222,
				"y": -0.3120324149,
				"z": 2.0130599281,
				"element": "N" 
			},
			{
				"x": -1.7968411112,
				"y": 0.743403953,
				"z": 1.6264553253,
				"element": "C" 
			},
			{
				"x": -1.7934597206,
				"y": 1.8585844365,
				"z": 2.104317071,
				"element": "O" 
			},
			{
				"x": -0.9435204116,
				"y": 0.1730923466,
				"z": 0.5353387208,
				"element": "C" 
			},
			{
				"x": 0.0745777458,
				"y": 0.756021675,
				"z": -0.1965072529,
				"element": "C" 
			},
			{
				"x": 0.707138581,
				"y": -0.0639764539,
				"z": -1.150637282,
				"element": "C" 
			},
			{
				"x": 0.3320387098,
				"y": -1.3883112245,
				"z": -1.3568040515,
				"element": "C" 
			},
			{
				"x": -1.804547255,
				"y": -3.6419971292,
				"z": -0.142741679,
				"element": "H" 
			},
			{
				"x": -0.5601951061,
				"y": -3.9121042353,
				"z": -1.3162116501,
				"element": "H" 
			},
			{
				"x": -3.3310524866,
				"y": -0.2320086067,
				"z": 2.7458883017,
				"element": "H" 
			},
			{
				"x": 0.370079649,
				"y": 1.7870165641,
				"z": -0.0389741639,
				"element": "H" 
			},
			{
				"x": 1.5161279495,
				"y": 0.3440726152,
				"z": -1.749990784,
				"element": "H" 
			},
			{
				"x": 0.8464929664,
				"y": -1.9816640155,
				"z": -2.1082655626,
				"element": "H" 
			}
		],
		 "valence_orbital": [ 
			{
				"type": "occ",
				"energy": -0.28914,
				"method": "rhf"
			},
			{
				"type": "occ",
				"energy": -0.28862,
				"method": "rhf"
			},
			{
				"type": "occ",
				"energy": -0.26825,
				"method": "rhf"
			},
			{
				"type": "occ",
				"energy": -0.26297,
				"method": "rhf"
			},
			{
				"type": "occ",
				"energy": -0.22184,
				"method": "rhf"
			},
			{
				"type": "unocc",
				"energy": -0.07618,
				"method": "rhf"
			},
			{
				"type": "unocc",
				"energy": -0.01706,
				"method": "rhf"
			},
			{
				"type": "unocc",
				"energy": 0.03577,
				"method": "rhf"
			},
			{
				"type": "unocc",
				"energy": 0.07855,
				"method": "rhf"
			},
			{
				"type": "unocc",
				"energy": 0.08651,
				"method": "rhf"
			}
		],
		"cosmo_sigma_profile": { 
			"-0.025": 0.0,
			"-0.024": 0.0,
			"-0.023": 0.0,
			"-0.022": 0.0,
			"-0.021": 0.0,
			"-0.02": 0.0,
			"-0.019": 0.0,
			"-0.018": 0.0,
			"-0.017": 0.0,
			"-0.016": 1.11836465548,
			"-0.015": 0.92474649991,
			"-0.014": 2.18652233449,
			"-0.013": 2.78983798655,
			"-0.012": 2.06730369651,
			"-0.011": 2.30764118318,
			"-0.01": 3.40035236705,
			"-0.009": 2.92590223412,
			"-0.008": 2.8313025573,
			"-0.007": 6.53059053933,
			"-0.006": 7.543198455,
			"-0.005": 8.36074639835,
			"-0.004": 8.9657207815,
			"-0.003": 8.96822836924,
			"-0.002": 11.4331204971,
			"-0.001": 12.6135779218,
			"0.0": 10.3641185113,
			"0.001": 13.9302314896,
			"0.002": 13.3001700429,
			"0.003": 15.6118758507,
			"0.004": 7.56846939304,
			"0.005": 3.32209232663,
			"0.006": 2.71463738763,
			"0.007": 2.954862191,
			"0.008": 3.50357230033,
			"0.009": 4.10768545988,
			"0.01": 5.43457646201,
			"0.011": 7.13426748846,
			"0.012": 6.46226819839,
			"0.013": 1.00541099508,
			"0.014": 0.0,
			"0.015": 0.0,
			"0.016": 0.0,
			"0.017": 0.0,
			"0.018": 0.0,
			"0.019": 0.0,
			"0.02": 0.0,
			"0.021": 0.0,
			"0.022": 0.0,
			"0.023": 0.0,
			"0.024": 0.0,
			"0.025": 0.0
		}
	}
}
