{
	 "smiles": "O=C(CC(=O)NCC1CCCO1)NCC1CCCO1", 
	 "Tm": 351.15, 
	 "num_atms": 41, 
	 "gaussian": { 
		 "optdone": 1, 
		 "sigma_profile": "yes", 
		 "theory": "DFT", 
		 "functional": "B3LYP", 
		 "basiset": "6-31G**", 
		 "properties": { 
			 "R2extent": 9496.3935, 
			 "electric_dipole_moment_norm": 3.62444256404, 
			 "electric_quadrupole_moment_norm": 28.3311337631, 
			 "total_energy": -919.062091256, 
			 "HOMO_LUMO_gap": 0.23997, 
			 "cosmo_polarized_energy": -19.23, 
			 "cosmo_cavitation_energy": 42.6, 
			 "cosmo_dispersion_energy": -29.93, 
			 "cosmo_repulsion_energy": 2.39, 
			 "cosmo_total_nonelectrostatic_energy": 15.06, 
			 "SMD_solvation_energy": 6.75 
		},
		"coords": [
			{
				"x": -0.9171110184,
				"y": 0.559783437,
				"z": 1.3121555976,
				"element": "O" 
			},
			{
				"x": -0.8993076936,
				"y": 1.02302575,
				"z": 0.1661923943,
				"element": "C" 
			},
			{
				"x": -0.7747112048,
				"y": 0.1029888487,
				"z": -1.0413845802,
				"element": "C" 
			},
			{
				"x": 0.4006474983,
				"y": -0.8964560609,
				"z": -0.9957548776,
				"element": "C" 
			},
			{
				"x": 1.0135873429,
				"y": -1.1734529975,
				"z": -2.0213872033,
				"element": "O" 
			},
			{
				"x": 0.6433970411,
				"y": -1.4537489761,
				"z": 0.2161625352,
				"element": "N" 
			},
			{
				"x": 1.7302892581,
				"y": -2.3988449909,
				"z": 0.4212654166,
				"element": "C" 
			},
			{
				"x": 1.3427194108,
				"y": -3.8451289265,
				"z": 0.074912628,
				"element": "C" 
			},
			{
				"x": 0.3005638007,
				"y": -4.475175881,
				"z": 1.0257103003,
				"element": "C" 
			},
			{
				"x": 1.1625589537,
				"y": -5.3210634245,
				"z": 1.9777661415,
				"element": "C" 
			},
			{
				"x": 2.2908207139,
				"y": -5.7599809531,
				"z": 1.0430029287,
				"element": "C" 
			},
			{
				"x": 2.5351471721,
				"y": -4.6408286126,
				"z": 0.1938054676,
				"element": "O" 
			},
			{
				"x": -1.0038074777,
				"y": 2.3644860179,
				"z": -0.0296337368,
				"element": "N" 
			},
			{
				"x": -1.0664570624,
				"y": 3.1623369377,
				"z": -1.242782459,
				"element": "C" 
			},
			{
				"x": -0.2440532033,
				"y": 4.4458027085,
				"z": -1.0839543917,
				"element": "C" 
			},
			{
				"x": 1.2673122411,
				"y": 4.2675379755,
				"z": -0.9057832687,
				"element": "C" 
			},
			{
				"x": 1.6419884711,
				"y": 5.5370314499,
				"z": -0.1276294897,
				"element": "C" 
			},
			{
				"x": 0.4144940212,
				"y": 5.7400573501,
				"z": 0.7740681297,
				"element": "C" 
			},
			{
				"x": -0.6941209701,
				"y": 5.1124335805,
				"z": 0.104870657,
				"element": "O" 
			},
			{
				"x": -1.7004002711,
				"y": -0.4856117546,
				"z": -1.0742792878,
				"element": "H" 
			},
			{
				"x": -0.6887317441,
				"y": 0.6224081486,
				"z": -1.9937742423,
				"element": "H" 
			},
			{
				"x": 0.1224894953,
				"y": -1.0674749706,
				"z": 0.9993616323,
				"element": "H" 
			},
			{
				"x": 2.5778368132,
				"y": -2.1142908745,
				"z": -0.2083964634,
				"element": "H" 
			},
			{
				"x": 2.0463983752,
				"y": -2.3436894528,
				"z": 1.468071105,
				"element": "H" 
			},
			{
				"x": 0.9996493405,
				"y": -3.8637081199,
				"z": -0.9669501639,
				"element": "H" 
			},
			{
				"x": -0.3852795686,
				"y": -5.1190274368,
				"z": 0.4648516249,
				"element": "H" 
			},
			{
				"x": -0.304542786,
				"y": -3.721275127,
				"z": 1.5374564868,
				"element": "H" 
			},
			{
				"x": 1.5642288034,
				"y": -4.7064540429,
				"z": 2.7911742187,
				"element": "H" 
			},
			{
				"x": 0.6202784481,
				"y": -6.1598728937,
				"z": 2.4235444019,
				"element": "H" 
			},
			{
				"x": 1.9852141946,
				"y": -6.6372597665,
				"z": 0.449080963,
				"element": "H" 
			},
			{
				"x": 3.2252573173,
				"y": -6.0066708546,
				"z": 1.5574244699,
				"element": "H" 
			},
			{
				"x": -1.1347375513,
				"y": 2.8937895975,
				"z": 0.8255299914,
				"element": "H" 
			},
			{
				"x": -0.6824720909,
				"y": 2.5977943335,
				"z": -2.0941896276,
				"element": "H" 
			},
			{
				"x": -2.1065748481,
				"y": 3.4350092709,
				"z": -1.4669696602,
				"element": "H" 
			},
			{
				"x": -0.4473232699,
				"y": 5.0825187921,
				"z": -1.9605807367,
				"element": "H" 
			},
			{
				"x": 1.7928611252,
				"y": 4.1704147414,
				"z": -1.8597021952,
				"element": "H" 
			},
			{
				"x": 1.4692052962,
				"y": 3.3717179177,
				"z": -0.3084654836,
				"element": "H" 
			},
			{
				"x": 2.5696265758,
				"y": 5.4391629291,
				"z": 0.4424562643,
				"element": "H" 
			},
			{
				"x": 1.7580553834,
				"y": 6.3830530381,
				"z": -0.8139095252,
				"element": "H" 
			},
			{
				"x": 0.549113928,
				"y": 5.2622274225,
				"z": 1.7535651945,
				"element": "H" 
			},
			{
				"x": 0.1778897393,
				"y": 6.7969358699,
				"z": 0.9407988436,
				"element": "H" 
			}
		],
		 "valence_orbital": [ 
			{
				"type": "occ",
				"energy": -0.26257,
				"method": "rhf"
			},
			{
				"type": "occ",
				"energy": -0.25874,
				"method": "rhf"
			},
			{
				"type": "occ",
				"energy": -0.25297,
				"method": "rhf"
			},
			{
				"type": "occ",
				"energy": -0.24,
				"method": "rhf"
			},
			{
				"type": "occ",
				"energy": -0.22845,
				"method": "rhf"
			},
			{
				"type": "unocc",
				"energy": 0.01152,
				"method": "rhf"
			},
			{
				"type": "unocc",
				"energy": 0.03881,
				"method": "rhf"
			},
			{
				"type": "unocc",
				"energy": 0.07112,
				"method": "rhf"
			},
			{
				"type": "unocc",
				"energy": 0.08597,
				"method": "rhf"
			},
			{
				"type": "unocc",
				"energy": 0.08866,
				"method": "rhf"
			}
		],
		"cosmo_sigma_profile": { 
			"-0.025": 0.0,
			"-0.024": 0.0,
			"-0.023": 0.0,
			"-0.022": 0.0,
			"-0.021": 0.0,
			"-0.02": 0.0,
			"-0.019": 0.0,
			"-0.018": 0.0,
			"-0.017": 0.0,
			"-0.016": 0.0,
			"-0.015": 0.0,
			"-0.014": 0.0,
			"-0.013": 0.0,
			"-0.012": 0.0,
			"-0.011": 0.0412917435209,
			"-0.01": 0.352695359226,
			"-0.009": 1.73052259312,
			"-0.008": 4.80330878932,
			"-0.007": 6.08857206623,
			"-0.006": 8.49971101573,
			"-0.005": 14.558838614,
			"-0.004": 38.794156114,
			"-0.003": 52.9816694878,
			"-0.002": 47.7786115804,
			"-0.001": 32.5364915829,
			"0.0": 26.451200421,
			"0.001": 15.9224258246,
			"0.002": 9.24722255009,
			"0.003": 5.69648653608,
			"0.004": 8.1274763469,
			"0.005": 7.12793766794,
			"0.006": 3.51006281826,
			"0.007": 4.96151137999,
			"0.008": 4.7220124351,
			"0.009": 4.19816859344,
			"0.01": 5.00677669757,
			"0.011": 4.47261113927,
			"0.012": 6.35312083434,
			"0.013": 7.65481823596,
			"0.014": 8.25023188224,
			"0.015": 1.47760661678,
			"0.016": 0.00898231103065,
			"0.017": 0.0,
			"0.018": 0.0,
			"0.019": 0.0,
			"0.02": 0.0,
			"0.021": 0.0,
			"0.022": 0.0,
			"0.023": 0.0,
			"0.024": 0.0,
			"0.0": 0.0
		}
	}
}
