{
	 "smiles": "NS(=O)(=O)C1=CC=C(SC2=C(C=CC=C2)C(O)=O)C=C1", 
	 "Tm": 500.15, 
	 "num_atms": 31, 
	 "gaussian": { 
		 "optdone": 1, 
		 "sigma_profile": "yes", 
		 "theory": "DFT", 
		 "functional": "B3LYP", 
		 "basiset": "6-31G**", 
		 "properties": { 
			 "R2extent": 7874.7254, 
			 "electric_dipole_moment_norm": 8.01722908554, 
			 "electric_quadrupole_moment_norm": 32.2514768569, 
			 "total_energy": -1653.96116965, 
			 "HOMO_LUMO_gap": 0.16732, 
			 "cosmo_polarized_energy": -30.37, 
			 "cosmo_cavitation_energy": 39.01, 
			 "cosmo_dispersion_energy": -27.59, 
			 "cosmo_repulsion_energy": 2.03, 
			 "cosmo_total_nonelectrostatic_energy": 13.44, 
			 "SMD_solvation_energy": 6.63 
		},
		"coords": [
			{
				"x": 3.8909737102,
				"y": -2.6307753485,
				"z": -0.9562314815,
				"element": "N" 
			},
			{
				"x": 2.9447668019,
				"y": -2.628969019,
				"z": -2.3466050818,
				"element": "S" 
			},
			{
				"x": 2.3780194985,
				"y": -3.9735306959,
				"z": -2.4401777787,
				"element": "O" 
			},
			{
				"x": 3.7812474189,
				"y": -2.0395503277,
				"z": -3.3899891364,
				"element": "O" 
			},
			{
				"x": 1.5831350343,
				"y": -1.4952878075,
				"z": -2.0414871053,
				"element": "C" 
			},
			{
				"x": 0.3719415472,
				"y": -1.9919642865,
				"z": -1.5535563758,
				"element": "C" 
			},
			{
				"x": -0.6709846982,
				"y": -1.1087639283,
				"z": -1.284414976,
				"element": "C" 
			},
			{
				"x": -0.4928416084,
				"y": 0.2688676733,
				"z": -1.4768842571,
				"element": "C" 
			},
			{
				"x": -1.8078284397,
				"y": 1.4479877631,
				"z": -1.2010674469,
				"element": "S" 
			},
			{
				"x": -2.5653112215,
				"y": 0.9169435317,
				"z": 0.332777465,
				"element": "C" 
			},
			{
				"x": -1.866872468,
				"y": 0.6142261875,
				"z": 1.5232429121,
				"element": "C" 
			},
			{
				"x": -2.5975455966,
				"y": 0.2639257633,
				"z": 2.6700757482,
				"element": "C" 
			},
			{
				"x": -3.9911452316,
				"y": 0.2403054003,
				"z": 2.6660847887,
				"element": "C" 
			},
			{
				"x": -4.6760211057,
				"y": 0.5471609339,
				"z": 1.491818264,
				"element": "C" 
			},
			{
				"x": -3.9660992493,
				"y": 0.8659735331,
				"z": 0.3342989093,
				"element": "C" 
			},
			{
				"x": -0.3705406058,
				"y": 0.7260191952,
				"z": 1.6516479996,
				"element": "C" 
			},
			{
				"x": 0.2216174592,
				"y": -0.2789846771,
				"z": 2.3575419726,
				"element": "O" 
			},
			{
				"x": 0.2938667175,
				"y": 1.6352518678,
				"z": 1.2234497563,
				"element": "O" 
			},
			{
				"x": 0.7238901219,
				"y": 0.7536819368,
				"z": -1.9753133166,
				"element": "C" 
			},
			{
				"x": 1.7585901481,
				"y": -0.1295272433,
				"z": -2.2736968436,
				"element": "C" 
			},
			{
				"x": 4.3284614244,
				"y": -1.7320490559,
				"z": -0.777639412,
				"element": "H" 
			},
			{
				"x": 3.3998767712,
				"y": -2.997636391,
				"z": -0.1469784422,
				"element": "H" 
			},
			{
				"x": 0.2442282259,
				"y": -3.0614304419,
				"z": -1.4232560936,
				"element": "H" 
			},
			{
				"x": -1.6252209068,
				"y": -1.4893705178,
				"z": -0.9346440319,
				"element": "H" 
			},
			{
				"x": -2.0638614091,
				"y": 0.0550416031,
				"z": 3.5936316162,
				"element": "H" 
			},
			{
				"x": -4.5325174482,
				"y": -0.0137618668,
				"z": 3.5718264153,
				"element": "H" 
			},
			{
				"x": -5.7612913139,
				"y": 0.524366421,
				"z": 1.4669317562,
				"element": "H" 
			},
			{
				"x": -4.497934391,
				"y": 1.0718578076,
				"z": -0.5891229808,
				"element": "H" 
			},
			{
				"x": -0.421943905,
				"y": -0.9828423259,
				"z": 2.5227049385,
				"element": "H" 
			},
			{
				"x": 0.8620153546,
				"y": 1.8205465694,
				"z": -2.1145345781,
				"element": "H" 
			},
			{
				"x": 2.6956293648,
				"y": 0.2353877462,
				"z": -2.6810332038,
				"element": "H" 
			}
		],
		 "valence_orbital": [ 
			{
				"type": "occ",
				"energy": -0.2911,
				"method": "rhf"
			},
			{
				"type": "occ",
				"energy": -0.28044,
				"method": "rhf"
			},
			{
				"type": "occ",
				"energy": -0.27826,
				"method": "rhf"
			},
			{
				"type": "occ",
				"energy": -0.27586,
				"method": "rhf"
			},
			{
				"type": "occ",
				"energy": -0.23186,
				"method": "rhf"
			},
			{
				"type": "unocc",
				"energy": -0.06454,
				"method": "rhf"
			},
			{
				"type": "unocc",
				"energy": -0.0519,
				"method": "rhf"
			},
			{
				"type": "unocc",
				"energy": -0.04019,
				"method": "rhf"
			},
			{
				"type": "unocc",
				"energy": -0.0269,
				"method": "rhf"
			},
			{
				"type": "unocc",
				"energy": 0.02039,
				"method": "rhf"
			}
		],
		"cosmo_sigma_profile": { 
			"-0.025": 0.0,
			"-0.024": 0.0,
			"-0.023": 0.0,
			"-0.022": 0.0,
			"-0.021": 0.0,
			"-0.02": 0.0,
			"-0.019": 0.0840822412442,
			"-0.018": 0.81890889795,
			"-0.017": 0.600856374105,
			"-0.016": 1.20429216111,
			"-0.015": 3.42229018118,
			"-0.014": 3.08040115836,
			"-0.013": 3.89557091004,
			"-0.012": 4.33640251386,
			"-0.011": 3.80199255836,
			"-0.01": 3.58620662078,
			"-0.009": 3.2930007266,
			"-0.008": 5.17596613727,
			"-0.007": 18.1748631392,
			"-0.006": 19.1628386385,
			"-0.005": 17.3736514323,
			"-0.004": 14.775367336,
			"-0.003": 13.9022174634,
			"-0.002": 13.4296660509,
			"-0.001": 15.7533634054,
			"0.0": 17.7399037232,
			"0.001": 20.2274865497,
			"0.002": 26.4317799484,
			"0.003": 16.4835388169,
			"0.004": 7.91976459146,
			"0.005": 7.72763025543,
			"0.006": 8.26221760567,
			"0.007": 8.89679816533,
			"0.008": 7.75203377633,
			"0.009": 8.59690697558,
			"0.01": 13.0777665519,
			"0.011": 15.55884028,
			"0.012": 8.11680400937,
			"0.013": 1.36123105707,
			"0.014": 0.0,
			"0.015": 0.0,
			"0.016": 0.0,
			"0.017": 0.0,
			"0.018": 0.0,
			"0.019": 0.0,
			"0.02": 0.0,
			"0.021": 0.0,
			"0.022": 0.0,
			"0.023": 0.0,
			"0.024": 0.0,
			"0.025": 0.0
		}
	}
}
