{
	 "smiles": "NC1=C(SC2=C1C=CC=C2)[N+]([O-])=O", 
	 "Tm": 493.15, 
	 "num_atms": 19, 
	 "gaussian": { 
		 "optdone": 1, 
		 "sigma_profile": "yes", 
		 "theory": "DFT", 
		 "functional": "B3LYP", 
		 "basiset": "6-31G**", 
		 "properties": { 
			 "R2extent": 2834.7638, 
			 "electric_dipole_moment_norm": 6.5983493398, 
			 "electric_quadrupole_moment_norm": 19.3440686204, 
			 "total_energy": -966.512804126, 
			 "HOMO_LUMO_gap": 0.13384, 
			 "cosmo_polarized_energy": -15.68, 
			 "cosmo_cavitation_energy": 25.02, 
			 "cosmo_dispersion_energy": -19.54, 
			 "cosmo_repulsion_energy": 1.47, 
			 "cosmo_total_nonelectrostatic_energy": 6.95, 
			 "SMD_solvation_energy": 5.76 
		},
		"coords": [
			{
				"x": -2.8630130894,
				"y": -0.7333324854,
				"z": 0.222838802,
				"element": "N" 
			},
			{
				"x": -1.5500064808,
				"y": -0.5159418471,
				"z": 0.4512128122,
				"element": "C" 
			},
			{
				"x": -0.7518082893,
				"y": -1.2596114543,
				"z": 1.3147345083,
				"element": "C" 
			},
			{
				"x": 0.9366844213,
				"y": -0.7617657985,
				"z": 1.3862916509,
				"element": "S" 
			},
			{
				"x": 0.5883135278,
				"y": 0.5009143854,
				"z": 0.2179396368,
				"element": "C" 
			},
			{
				"x": -0.7648605475,
				"y": 0.517779441,
				"z": -0.1973236313,
				"element": "C" 
			},
			{
				"x": -1.1900117571,
				"y": 1.4694567838,
				"z": -1.1405371385,
				"element": "C" 
			},
			{
				"x": -0.2783893892,
				"y": 2.384533844,
				"z": -1.6464728273,
				"element": "C" 
			},
			{
				"x": 1.0631235493,
				"y": 2.3606059728,
				"z": -1.2231433247,
				"element": "C" 
			},
			{
				"x": 1.5057831962,
				"y": 1.4245317034,
				"z": -0.2957359332,
				"element": "C" 
			},
			{
				"x": -1.1797368568,
				"y": -2.3198764748,
				"z": 2.125913604,
				"element": "N" 
			},
			{
				"x": -0.3429585455,
				"y": -2.8677383485,
				"z": 2.8557849506,
				"element": "O" 
			},
			{
				"x": -2.3858459898,
				"y": -2.6567961365,
				"z": 2.0728659205,
				"element": "O" 
			},
			{
				"x": -3.4133494785,
				"y": -0.0516075226,
				"z": -0.2716497225,
				"element": "H" 
			},
			{
				"x": -3.308973732,
				"y": -1.4358051276,
				"z": 0.8009239806,
				"element": "H" 
			},
			{
				"x": -2.2219793676,
				"y": 1.4891239252,
				"z": -1.4807456287,
				"element": "H" 
			},
			{
				"x": -0.5997286996,
				"y": 3.1216627849,
				"z": -2.3753370956,
				"element": "H" 
			},
			{
				"x": 1.7654731214,
				"y": 3.0828998359,
				"z": -1.6282048103,
				"element": "H" 
			},
			{
				"x": 2.542884407,
				"y": 1.409366519,
				"z": 0.0241442464,
				"element": "H" 
			}
		],
		 "valence_orbital": [ 
			{
				"type": "occ",
				"energy": -0.29397,
				"method": "rhf"
			},
			{
				"type": "occ",
				"energy": -0.2799,
				"method": "rhf"
			},
			{
				"type": "occ",
				"energy": -0.27851,
				"method": "rhf"
			},
			{
				"type": "occ",
				"energy": -0.2574,
				"method": "rhf"
			},
			{
				"type": "occ",
				"energy": -0.21678,
				"method": "rhf"
			},
			{
				"type": "unocc",
				"energy": -0.08294,
				"method": "rhf"
			},
			{
				"type": "unocc",
				"energy": -0.02474,
				"method": "rhf"
			},
			{
				"type": "unocc",
				"energy": -0.01217,
				"method": "rhf"
			},
			{
				"type": "unocc",
				"energy": 0.00729,
				"method": "rhf"
			},
			{
				"type": "unocc",
				"energy": 0.05268,
				"method": "rhf"
			}
		],
		"cosmo_sigma_profile": { 
			"-0.025": 0.0,
			"-0.024": 0.0,
			"-0.023": 0.0,
			"-0.022": 0.0,
			"-0.021": 0.0,
			"-0.02": 0.0,
			"-0.019": 0.0,
			"-0.018": 0.0,
			"-0.017": 0.0,
			"-0.016": 0.190549392357,
			"-0.015": 1.35687186249,
			"-0.014": 1.40455475166,
			"-0.013": 1.52175995138,
			"-0.012": 2.21328377307,
			"-0.011": 2.73356662824,
			"-0.01": 2.48771530829,
			"-0.009": 2.03782573675,
			"-0.008": 3.48654137407,
			"-0.007": 7.94528057661,
			"-0.006": 10.2966187966,
			"-0.005": 9.89178265694,
			"-0.004": 9.02936974026,
			"-0.003": 8.92280670101,
			"-0.002": 10.82803138,
			"-0.001": 15.1025489129,
			"0.0": 15.3322004813,
			"0.001": 15.9233945496,
			"0.002": 16.7968186118,
			"0.003": 17.2796905055,
			"0.004": 12.2879438616,
			"0.005": 5.723487746,
			"0.006": 3.76465178589,
			"0.007": 3.4993951225,
			"0.008": 3.48222876974,
			"0.009": 8.13062982938,
			"0.01": 5.50833952103,
			"0.011": 4.21563075608,
			"0.012": 2.060983173,
			"0.013": 0.0129271640367,
			"0.014": 0.0,
			"0.015": 0.0,
			"0.016": 0.0,
			"0.017": 0.0,
			"0.018": 0.0,
			"0.019": 0.0,
			"0.02": 0.0,
			"0.021": 0.0,
			"0.022": 0.0,
			"0.023": 0.0,
			"0.024": 0.0,
			"0.025": 0.0
		}
	}
}
