{
	 "smiles": "BrC1=CC=C2C3=CC=CC=C3C(=O)C3=CC=CC1=C23", 
	 "Tm": 439.15, 
	 "num_atms": 28, 
	 "gaussian": { 
		 "optdone": 1, 
		 "sigma_profile": "yes", 
		 "theory": "DFT", 
		 "functional": "B3LYP", 
		 "basiset": "6-31G**", 
		 "properties": { 
			 "R2extent": 7323.6975, 
			 "electric_dipole_moment_norm": 2.56827640841, 
			 "electric_quadrupole_moment_norm": 15.0134899947, 
			 "total_energy": -3299.89636646, 
			 "HOMO_LUMO_gap": 0.12776, 
			 "cosmo_polarized_energy": -9.46, 
			 "cosmo_cavitation_energy": 33.47, 
			 "cosmo_dispersion_energy": -25.61, 
			 "cosmo_repulsion_energy": 1.86, 
			 "cosmo_total_nonelectrostatic_energy": 9.73, 
			 "SMD_solvation_energy": 4.25 
		},
		"coords": [
			{
				"x": -3.2094407666,
				"y": -3.4889391475,
				"z": -1.0549684675,
				"element": "Br" 
			},
			{
				"x": -1.9487780829,
				"y": -2.1122417586,
				"z": -0.6398692172,
				"element": "C" 
			},
			{
				"x": -2.2563074197,
				"y": -1.2454784491,
				"z": 0.3819544794,
				"element": "C" 
			},
			{
				"x": -1.3616171395,
				"y": -0.2157601463,
				"z": 0.7260066888,
				"element": "C" 
			},
			{
				"x": -0.1557410697,
				"y": -0.0334521791,
				"z": 0.063651475,
				"element": "C" 
			},
			{
				"x": 0.7873869825,
				"y": 1.0458756784,
				"z": 0.4212337794,
				"element": "C" 
			},
			{
				"x": 0.526070464,
				"y": 1.9620352902,
				"z": 1.4586145124,
				"element": "C" 
			},
			{
				"x": 1.4295477352,
				"y": 2.9692272321,
				"z": 1.7764839102,
				"element": "C" 
			},
			{
				"x": 2.6303615211,
				"y": 3.0984923553,
				"z": 1.0678775912,
				"element": "C" 
			},
			{
				"x": 2.909349731,
				"y": 2.2075639559,
				"z": 0.0418776443,
				"element": "C" 
			},
			{
				"x": 2.0036692289,
				"y": 1.1877705325,
				"z": -0.2863213832,
				"element": "C" 
			},
			{
				"x": 2.3642187396,
				"y": 0.269318751,
				"z": -1.394549096,
				"element": "C" 
			},
			{
				"x": 3.4213140318,
				"y": 0.3881283975,
				"z": -2.0125301573,
				"element": "O" 
			},
			{
				"x": 1.3912293084,
				"y": -0.8046877167,
				"z": -1.7253364868,
				"element": "C" 
			},
			{
				"x": 1.7006138825,
				"y": -1.6788662236,
				"z": -2.7554151328,
				"element": "C" 
			},
			{
				"x": 0.8165320497,
				"y": -2.7112017862,
				"z": -3.1088509861,
				"element": "C" 
			},
			{
				"x": -0.3740208028,
				"y": -2.8639618047,
				"z": -2.4292632863,
				"element": "C" 
			},
			{
				"x": -0.7313043884,
				"y": -1.9927032334,
				"z": -1.3689124289,
				"element": "C" 
			},
			{
				"x": 0.1694242015,
				"y": -0.9340991045,
				"z": -1.0022685222,
				"element": "C" 
			},
			{
				"x": -3.1880493469,
				"y": -1.3531474001,
				"z": 0.9247358232,
				"element": "H" 
			},
			{
				"x": -1.6488011029,
				"y": 0.4414597911,
				"z": 1.5382842796,
				"element": "H" 
			},
			{
				"x": -0.3922243849,
				"y": 1.8954063332,
				"z": 2.0307799662,
				"element": "H" 
			},
			{
				"x": 1.1965783731,
				"y": 3.6590849294,
				"z": 2.5826638518,
				"element": "H" 
			},
			{
				"x": 3.3335051814,
				"y": 3.8866350096,
				"z": 1.3193408666,
				"element": "H" 
			},
			{
				"x": 3.8263250931,
				"y": 2.2684305039,
				"z": -0.5346156532,
				"element": "H" 
			},
			{
				"x": 2.6430328201,
				"y": -1.5373337462,
				"z": -3.274232844,
				"element": "H" 
			},
			{
				"x": 1.0700316171,
				"y": -3.3896541154,
				"z": -3.9175221731,
				"element": "H" 
			},
			{
				"x": -1.059106457,
				"y": -3.6594019486,
				"z": -2.6989490335,
				"element": "H" 
			}
		],
		 "valence_orbital": [ 
			{
				"type": "occ",
				"energy": -0.26636,
				"method": "rhf"
			},
			{
				"type": "occ",
				"energy": -0.26352,
				"method": "rhf"
			},
			{
				"type": "occ",
				"energy": -0.25922,
				"method": "rhf"
			},
			{
				"type": "occ",
				"energy": -0.24968,
				"method": "rhf"
			},
			{
				"type": "occ",
				"energy": -0.22062,
				"method": "rhf"
			},
			{
				"type": "unocc",
				"energy": -0.09286,
				"method": "rhf"
			},
			{
				"type": "unocc",
				"energy": -0.04132,
				"method": "rhf"
			},
			{
				"type": "unocc",
				"energy": -0.02762,
				"method": "rhf"
			},
			{
				"type": "unocc",
				"energy": -0.01587,
				"method": "rhf"
			},
			{
				"type": "unocc",
				"energy": -0.0006,
				"method": "rhf"
			}
		],
		"cosmo_sigma_profile": { 
			"-0.025": 0.0,
			"-0.024": 0.0,
			"-0.023": 0.0,
			"-0.022": 0.0,
			"-0.021": 0.0,
			"-0.02": 0.0,
			"-0.019": 0.0,
			"-0.018": 0.0,
			"-0.017": 0.0,
			"-0.016": 0.0,
			"-0.015": 0.0,
			"-0.014": 0.0,
			"-0.013": 0.0,
			"-0.012": 0.0,
			"-0.011": 0.0,
			"-0.01": 0.256582654773,
			"-0.009": 1.90337912361,
			"-0.008": 2.49965691298,
			"-0.007": 9.04382087324,
			"-0.006": 14.1827846426,
			"-0.005": 17.0626196234,
			"-0.004": 15.6403124271,
			"-0.003": 14.4514535142,
			"-0.002": 15.4624276285,
			"-0.001": 19.3444635878,
			"0.0": 25.141892283,
			"0.001": 43.0338775045,
			"0.002": 37.3275008919,
			"0.003": 23.9415314914,
			"0.004": 16.6951011228,
			"0.005": 2.22819768254,
			"0.006": 2.05325401687,
			"0.007": 1.50710708463,
			"0.008": 1.20688856956,
			"0.009": 2.11329626218,
			"0.01": 1.56402824442,
			"0.011": 2.43732853549,
			"0.012": 4.08338016238,
			"0.013": 1.45049837807,
			"0.014": 0.0,
			"0.015": 0.0,
			"0.016": 0.0,
			"0.017": 0.0,
			"0.018": 0.0,
			"0.019": 0.0,
			"0.02": 0.0,
			"0.021": 0.0,
			"0.022": 0.0,
			"0.023": 0.0,
			"0.024": 0.0,
			"0.025": 0.0
		}
	}
}
