{
	 "smiles": "CC(Cl)C(=O)NC1CCN(CC2=CC=CC=C2)CC1", 
	 "Tm": 393.15, 
	 "num_atms": 40, 
	 "gaussian": { 
		 "optdone": 1, 
		 "sigma_profile": "yes", 
		 "theory": "DFT", 
		 "functional": "B3LYP", 
		 "basiset": "6-31G**", 
		 "properties": { 
			 "R2extent": 9344.9368, 
			 "electric_dipole_moment_norm": 3.2859873113, 
			 "electric_quadrupole_moment_norm": 21.1658282198, 
			 "total_energy": -1229.19237111, 
			 "HOMO_LUMO_gap": 0.19763, 
			 "cosmo_polarized_energy": -15.16, 
			 "cosmo_cavitation_energy": 42.67, 
			 "cosmo_dispersion_energy": -29.37, 
			 "cosmo_repulsion_energy": 2.28, 
			 "cosmo_total_nonelectrostatic_energy": 15.58, 
			 "SMD_solvation_energy": 5.22 
		},
		"coords": [
			{
				"x": 3.2823537045,
				"y": 5.125947524,
				"z": -1.9308575015,
				"element": "C" 
			},
			{
				"x": 2.4391252714,
				"y": 4.0819570312,
				"z": -1.2227941313,
				"element": "C" 
			},
			{
				"x": 1.018216527,
				"y": 4.8928669269,
				"z": -0.3772969939,
				"element": "Cl" 
			},
			{
				"x": 1.8915696596,
				"y": 3.0289115644,
				"z": -2.2044000375,
				"element": "C" 
			},
			{
				"x": 1.9126338208,
				"y": 3.2367445506,
				"z": -3.4110776024,
				"element": "O" 
			},
			{
				"x": 1.4227855609,
				"y": 1.8550793212,
				"z": -1.6886092833,
				"element": "N" 
			},
			{
				"x": 1.2324434514,
				"y": 1.4197447902,
				"z": -0.3057485324,
				"element": "C" 
			},
			{
				"x": 2.0597565571,
				"y": 0.1589661923,
				"z": 0.0034894935,
				"element": "C" 
			},
			{
				"x": 1.7768098899,
				"y": -0.3341425451,
				"z": 1.4382997809,
				"element": "C" 
			},
			{
				"x": 0.3623790072,
				"y": -0.5694737284,
				"z": 1.7276173507,
				"element": "N" 
			},
			{
				"x": -0.1759056219,
				"y": -1.8088105056,
				"z": 1.1623094928,
				"element": "C" 
			},
			{
				"x": -1.4670682441,
				"y": -2.248000674,
				"z": 1.8320699707,
				"element": "C" 
			},
			{
				"x": -1.6015049937,
				"y": -2.193854046,
				"z": 3.2263611518,
				"element": "C" 
			},
			{
				"x": -2.7681764584,
				"y": -2.6421428641,
				"z": 3.844315488,
				"element": "C" 
			},
			{
				"x": -3.8189283553,
				"y": -3.1540504606,
				"z": 3.0778605134,
				"element": "C" 
			},
			{
				"x": -3.6957010404,
				"y": -3.2092873734,
				"z": 1.6893978512,
				"element": "C" 
			},
			{
				"x": -2.5274250966,
				"y": -2.7548465294,
				"z": 1.0728500996,
				"element": "C" 
			},
			{
				"x": -0.4345615028,
				"y": 0.6269737032,
				"z": 1.4346097839,
				"element": "C" 
			},
			{
				"x": -0.2547781885,
				"y": 1.1684018834,
				"z": 0.001270966,
				"element": "C" 
			},
			{
				"x": 3.6174253434,
				"y": 5.88941165,
				"z": -1.2254853613,
				"element": "H" 
			},
			{
				"x": 4.1586630179,
				"y": 4.6399488456,
				"z": -2.3718104811,
				"element": "H" 
			},
			{
				"x": 2.7152849573,
				"y": 5.5889533219,
				"z": -2.7389628685,
				"element": "H" 
			},
			{
				"x": 3.0003859084,
				"y": 3.6076850011,
				"z": -0.4151325682,
				"element": "H" 
			},
			{
				"x": 1.0729525389,
				"y": 1.2360149112,
				"z": -2.4111420941,
				"element": "H" 
			},
			{
				"x": 1.5743176518,
				"y": 2.2280702268,
				"z": 0.3471534632,
				"element": "H" 
			},
			{
				"x": 3.1283631327,
				"y": 0.37060556,
				"z": -0.1222716293,
				"element": "H" 
			},
			{
				"x": 1.8059620801,
				"y": -0.6262588802,
				"z": -0.7216112451,
				"element": "H" 
			},
			{
				"x": 2.1400433441,
				"y": 0.4229850468,
				"z": 2.1483778555,
				"element": "H" 
			},
			{
				"x": 2.3377724307,
				"y": -1.2525991365,
				"z": 1.6418682705,
				"element": "H" 
			},
			{
				"x": -0.3422300518,
				"y": -1.7680447672,
				"z": 0.0705925211,
				"element": "H" 
			},
			{
				"x": 0.58597567,
				"y": -2.5841490268,
				"z": 1.3197108008,
				"element": "H" 
			},
			{
				"x": -0.7856629143,
				"y": -1.7835769545,
				"z": 3.8136795023,
				"element": "H" 
			},
			{
				"x": -2.858914693,
				"y": -2.59305306,
				"z": 4.9260570806,
				"element": "H" 
			},
			{
				"x": -4.727734876,
				"y": -3.5027488279,
				"z": 3.5601295938,
				"element": "H" 
			},
			{
				"x": -4.5096606343,
				"y": -3.5987964317,
				"z": 1.0842714845,
				"element": "H" 
			},
			{
				"x": -2.438574738,
				"y": -2.7949950913,
				"z": -0.0105941596,
				"element": "H" 
			},
			{
				"x": -1.4872982926,
				"y": 0.4034579962,
				"z": 1.6285019617,
				"element": "H" 
			},
			{
				"x": -0.1393041303,
				"y": 1.4082484719,
				"z": 2.1487437214,
				"element": "H" 
			},
			{
				"x": -0.6549001647,
				"y": 0.4490991,
				"z": -0.7265034224,
				"element": "H" 
			},
			{
				"x": -0.8191895286,
				"y": 2.0982572839,
				"z": -0.125940286,
				"element": "H" 
			}
		],
		 "valence_orbital": [ 
			{
				"type": "occ",
				"energy": -0.25432,
				"method": "rhf"
			},
			{
				"type": "occ",
				"energy": -0.25222,
				"method": "rhf"
			},
			{
				"type": "occ",
				"energy": -0.24921,
				"method": "rhf"
			},
			{
				"type": "occ",
				"energy": -0.24372,
				"method": "rhf"
			},
			{
				"type": "occ",
				"energy": -0.21547,
				"method": "rhf"
			},
			{
				"type": "unocc",
				"energy": -0.01784,
				"method": "rhf"
			},
			{
				"type": "unocc",
				"energy": -0.00386,
				"method": "rhf"
			},
			{
				"type": "unocc",
				"energy": -0.00028,
				"method": "rhf"
			},
			{
				"type": "unocc",
				"energy": 0.05405,
				"method": "rhf"
			},
			{
				"type": "unocc",
				"energy": 0.06835,
				"method": "rhf"
			}
		],
		"cosmo_sigma_profile": { 
			"-0.025": 0.0,
			"-0.024": 0.0,
			"-0.023": 0.0,
			"-0.022": 0.0,
			"-0.021": 0.0,
			"-0.02": 0.0,
			"-0.019": 0.0,
			"-0.018": 0.0,
			"-0.017": 0.0,
			"-0.016": 0.0,
			"-0.015": 0.0,
			"-0.014": 0.0268668902353,
			"-0.013": 0.584741908887,
			"-0.012": 1.17345993349,
			"-0.011": 1.15978395163,
			"-0.01": 0.877174210221,
			"-0.009": 1.50878596363,
			"-0.008": 4.42050228566,
			"-0.007": 5.2464268423,
			"-0.006": 6.02987051676,
			"-0.005": 18.1548587897,
			"-0.004": 31.2545894716,
			"-0.003": 40.2156245416,
			"-0.002": 35.5341279404,
			"-0.001": 33.4091645054,
			"0.0": 26.8253136438,
			"0.001": 20.3866335972,
			"0.002": 19.2317131443,
			"0.003": 17.0926346492,
			"0.004": 15.8120856009,
			"0.005": 16.4202469503,
			"0.006": 16.2084103864,
			"0.007": 5.25006716989,
			"0.008": 1.98348247977,
			"0.009": 2.15466495248,
			"0.01": 1.95484881225,
			"0.011": 2.43362558449,
			"0.012": 2.10305746213,
			"0.013": 5.33499047107,
			"0.014": 3.06666301382,
			"0.015": 0.043234044575,
			"0.016": 0.0,
			"0.017": 0.0,
			"0.018": 0.0,
			"0.019": 0.0,
			"0.02": 0.0,
			"0.021": 0.0,
			"0.022": 0.0,
			"0.023": 0.0,
			"0.024": 0.0,
			"0.025": 0.0
		}
	}
}
