{
	 "smiles": "FC(F)(F)C1=CC=CC(Cl)=C1", 
	 "Tm": 217.15, 
	 "num_atms": 15, 
	 "gaussian": { 
		 "optdone": 1, 
		 "sigma_profile": "yes", 
		 "theory": "DFT", 
		 "functional": "B3LYP", 
		 "basiset": "6-31G**", 
		 "properties": { 
			 "R2extent": 3306.6766, 
			 "electric_dipole_moment_norm": 2.19227345238, 
			 "electric_quadrupole_moment_norm": 3.91096825607, 
			 "total_energy": -1028.87600836, 
			 "HOMO_LUMO_gap": 0.22247, 
			 "cosmo_polarized_energy": -3.89, 
			 "cosmo_cavitation_energy": 22.65, 
			 "cosmo_dispersion_energy": -16.4, 
			 "cosmo_repulsion_energy": 1.26, 
			 "cosmo_total_nonelectrostatic_energy": 7.52, 
			 "SMD_solvation_energy": 4.81 
		},
		"coords": [
			{
				"x": -0.70359709,
				"y": 3.5080519705,
				"z": -0.0144680842,
				"element": "F" 
			},
			{
				"x": -0.3004905151,
				"y": 2.4889296397,
				"z": 0.7781343636,
				"element": "C" 
			},
			{
				"x": -0.5939803149,
				"y": 2.8369610769,
				"z": 2.0492720978,
				"element": "F" 
			},
			{
				"x": 1.044395744,
				"y": 2.4182667723,
				"z": 0.672702042,
				"element": "F" 
			},
			{
				"x": -0.9572158142,
				"y": 1.1914815376,
				"z": 0.384074269,
				"element": "C" 
			},
			{
				"x": -0.3985976947,
				"y": 0.4138267489,
				"z": -0.6332955313,
				"element": "C" 
			},
			{
				"x": -1.0384409266,
				"y": -0.7586846219,
				"z": -1.0317079173,
				"element": "C" 
			},
			{
				"x": -2.2288941984,
				"y": -1.1590873385,
				"z": -0.4231092256,
				"element": "C" 
			},
			{
				"x": -2.7698845586,
				"y": -0.369676465,
				"z": 0.5917153564,
				"element": "C" 
			},
			{
				"x": -4.262880218,
				"y": -0.8672722494,
				"z": 1.3692201551,
				"element": "Cl" 
			},
			{
				"x": -2.1469931332,
				"y": 0.8058491719,
				"z": 1.0052663878,
				"element": "C" 
			},
			{
				"x": 0.5306694717,
				"y": 0.7211356715,
				"z": -1.0998030475,
				"element": "H" 
			},
			{
				"x": -0.6085044664,
				"y": -1.3698279855,
				"z": -1.8190250242,
				"element": "H" 
			},
			{
				"x": -2.7310270138,
				"y": -2.0710139567,
				"z": -0.7262727666,
				"element": "H" 
			},
			{
				"x": -2.5746592717,
				"y": 1.4048600276,
				"z": 1.7998969249,
				"element": "H" 
			}
		],
		 "valence_orbital": [ 
			{
				"type": "occ",
				"energy": -0.37212,
				"method": "rhf"
			},
			{
				"type": "occ",
				"energy": -0.34655,
				"method": "rhf"
			},
			{
				"type": "occ",
				"energy": -0.32342,
				"method": "rhf"
			},
			{
				"type": "occ",
				"energy": -0.28238,
				"method": "rhf"
			},
			{
				"type": "occ",
				"energy": -0.263,
				"method": "rhf"
			},
			{
				"type": "unocc",
				"energy": -0.04053,
				"method": "rhf"
			},
			{
				"type": "unocc",
				"energy": -0.02984,
				"method": "rhf"
			},
			{
				"type": "unocc",
				"energy": 0.01874,
				"method": "rhf"
			},
			{
				"type": "unocc",
				"energy": 0.09934,
				"method": "rhf"
			},
			{
				"type": "unocc",
				"energy": 0.11102,
				"method": "rhf"
			}
		],
		"cosmo_sigma_profile": { 
			"-0.025": 0.0,
			"-0.024": 0.0,
			"-0.023": 0.0,
			"-0.022": 0.0,
			"-0.021": 0.0,
			"-0.02": 0.0,
			"-0.019": 0.0,
			"-0.018": 0.0,
			"-0.017": 0.0,
			"-0.016": 0.0,
			"-0.015": 0.0,
			"-0.014": 0.0,
			"-0.013": 0.0,
			"-0.012": 0.0,
			"-0.011": 0.0,
			"-0.01": 0.0,
			"-0.009": 0.0104904681404,
			"-0.008": 3.18274854782,
			"-0.007": 7.34782284868,
			"-0.006": 8.56142394578,
			"-0.005": 7.50374272103,
			"-0.004": 6.9848678483,
			"-0.003": 7.26636256905,
			"-0.002": 9.59211295816,
			"-0.001": 12.3943787816,
			"0.0": 17.4726568155,
			"0.001": 24.6206342911,
			"0.002": 34.6797119996,
			"0.003": 32.3544121868,
			"0.004": 10.4687981468,
			"0.005": 2.38709356165,
			"0.006": 0.0,
			"0.007": 0.0,
			"0.008": 0.0,
			"0.009": 0.0,
			"0.01": 0.0,
			"0.011": 0.0,
			"0.012": 0.0,
			"0.013": 0.0,
			"0.014": 0.0,
			"0.015": 0.0,
			"0.016": 0.0,
			"0.017": 0.0,
			"0.018": 0.0,
			"0.019": 0.0,
			"0.02": 0.0,
			"0.021": 0.0,
			"0.022": 0.0,
			"0.023": 0.0,
			"0.024": 0.0,
			"0.025": 0.0
		}
	}
}
