{
	 "smiles": "OC1=CC=C(OC2=CC=CC=C2)C=C1", 
	 "Tm": 355.15, 
	 "num_atms": 24, 
	 "gaussian": { 
		 "optdone": 1, 
		 "sigma_profile": "yes", 
		 "theory": "DFT", 
		 "functional": "B3LYP", 
		 "basiset": "6-31G**", 
		 "properties": { 
			 "R2extent": 4296.4626, 
			 "electric_dipole_moment_norm": 2.00333378647, 
			 "electric_quadrupole_moment_norm": 10.9725422619, 
			 "total_energy": -613.735375035, 
			 "HOMO_LUMO_gap": 0.19738, 
			 "cosmo_polarized_energy": -10.34, 
			 "cosmo_cavitation_energy": 28.53, 
			 "cosmo_dispersion_energy": -20.84, 
			 "cosmo_repulsion_energy": 1.64, 
			 "cosmo_total_nonelectrostatic_energy": 9.33, 
			 "SMD_solvation_energy": 5.4 
		},
		"coords": [
			{
				"x": -5.0673473488,
				"y": -0.926429878,
				"z": -3.4320689653,
				"element": "O" 
			},
			{
				"x": -3.9880338687,
				"y": -0.9468043555,
				"z": -2.5924609457,
				"element": "C" 
			},
			{
				"x": -3.7594328623,
				"y": 0.0417699464,
				"z": -1.6283103044,
				"element": "C" 
			},
			{
				"x": -2.6425956594,
				"y": -0.0343454618,
				"z": -0.7965337165,
				"element": "C" 
			},
			{
				"x": -1.7457388664,
				"y": -1.0944445804,
				"z": -0.9362577884,
				"element": "C" 
			},
			{
				"x": -0.6713654662,
				"y": -1.248753436,
				"z": -0.0726752582,
				"element": "O" 
			},
			{
				"x": 0.3275262378,
				"y": -0.2983966118,
				"z": -0.0323040335,
				"element": "C" 
			},
			{
				"x": 1.1462169028,
				"y": -0.3231157266,
				"z": 1.101898957,
				"element": "C" 
			},
			{
				"x": 2.2068954652,
				"y": 0.5736179828,
				"z": 1.2059722524,
				"element": "C" 
			},
			{
				"x": 2.4560275857,
				"y": 1.4994111811,
				"z": 0.1887629816,
				"element": "C" 
			},
			{
				"x": 1.6338418621,
				"y": 1.5135709507,
				"z": -0.9383008705,
				"element": "C" 
			},
			{
				"x": 0.5688770146,
				"y": 0.6180751914,
				"z": -1.0602063527,
				"element": "C" 
			},
			{
				"x": -1.9697721584,
				"y": -2.0811986109,
				"z": -1.8976767311,
				"element": "C" 
			},
			{
				"x": -3.0901491705,
				"y": -2.0120546855,
				"z": -2.7218690394,
				"element": "C" 
			},
			{
				"x": -5.6085940242,
				"y": -0.1515115974,
				"z": -3.2340880679,
				"element": "H" 
			},
			{
				"x": -4.4585986608,
				"y": 0.8682523025,
				"z": -1.5191515863,
				"element": "H" 
			},
			{
				"x": -2.4673450397,
				"y": 0.7233410979,
				"z": -0.0398662771,
				"element": "H" 
			},
			{
				"x": 0.9355624272,
				"y": -1.0481062994,
				"z": 1.8812984573,
				"element": "H" 
			},
			{
				"x": 2.8393752124,
				"y": 0.5504574028,
				"z": 2.0889577685,
				"element": "H" 
			},
			{
				"x": 3.2813973586,
				"y": 2.1994120755,
				"z": 0.2742642423,
				"element": "H" 
			},
			{
				"x": 1.8205502871,
				"y": 2.2240614582,
				"z": -1.7388557291,
				"element": "H" 
			},
			{
				"x": -0.0625083205,
				"y": 0.6277975449,
				"z": -1.9412958567,
				"element": "H" 
			},
			{
				"x": -1.2648750745,
				"y": -2.9015043683,
				"z": -1.98407359,
				"element": "H" 
			},
			{
				"x": -3.282313833,
				"y": -2.7723015225,
				"z": -3.471459546,
				"element": "H" 
			}
		],
		 "valence_orbital": [ 
			{
				"type": "occ",
				"energy": -0.31458,
				"method": "rhf"
			},
			{
				"type": "occ",
				"energy": -0.25936,
				"method": "rhf"
			},
			{
				"type": "occ",
				"energy": -0.24839,
				"method": "rhf"
			},
			{
				"type": "occ",
				"energy": -0.23055,
				"method": "rhf"
			},
			{
				"type": "occ",
				"energy": -0.20939,
				"method": "rhf"
			},
			{
				"type": "unocc",
				"energy": -0.01201,
				"method": "rhf"
			},
			{
				"type": "unocc",
				"energy": 0.00352,
				"method": "rhf"
			},
			{
				"type": "unocc",
				"energy": 0.00654,
				"method": "rhf"
			},
			{
				"type": "unocc",
				"energy": 0.01907,
				"method": "rhf"
			},
			{
				"type": "unocc",
				"energy": 0.06692,
				"method": "rhf"
			}
		],
		"cosmo_sigma_profile": { 
			"-0.025": 0.0,
			"-0.024": 0.0,
			"-0.023": 0.0,
			"-0.022": 0.0,
			"-0.021": 0.0,
			"-0.02": 0.0,
			"-0.019": 0.0,
			"-0.018": 0.341696353508,
			"-0.017": 1.19943155346,
			"-0.016": 0.851108894848,
			"-0.015": 1.26036675688,
			"-0.014": 0.793427913868,
			"-0.013": 1.61717072545,
			"-0.012": 0.848098711215,
			"-0.011": 0.598105591871,
			"-0.01": 0.810089085393,
			"-0.009": 1.59501321548,
			"-0.008": 0.87736773478,
			"-0.007": 3.39792877197,
			"-0.006": 11.3660578675,
			"-0.005": 16.9599125994,
			"-0.004": 17.3894922279,
			"-0.003": 14.9452396273,
			"-0.002": 13.4710682541,
			"-0.001": 12.4300853569,
			"0.0": 13.175706835,
			"0.001": 13.8065400646,
			"0.002": 15.8791530703,
			"0.003": 21.1759257683,
			"0.004": 24.1998837486,
			"0.005": 17.0766635118,
			"0.006": 8.87259102988,
			"0.007": 3.47438716312,
			"0.008": 2.78011084042,
			"0.009": 2.15834894658,
			"0.01": 2.27692139395,
			"0.011": 2.09578683033,
			"0.012": 0.72722773741,
			"0.013": 0.0,
			"0.014": 0.0,
			"0.015": 0.0,
			"0.016": 0.0,
			"0.017": 0.0,
			"0.018": 0.0,
			"0.019": 0.0,
			"0.02": 0.0,
			"0.021": 0.0,
			"0.022": 0.0,
			"0.023": 0.0,
			"0.024": 0.0,
			"0.025": 0.0
		}
	}
}
