{
	 "smiles": "N[C@@H](CC1=CNC=N1)C(O)=O", 
	 "Tm": 557.15, 
	 "num_atms": 20, 
	 "gaussian": { 
		 "optdone": 1, 
		 "sigma_profile": "yes", 
		 "theory": "DFT", 
		 "functional": "B3LYP", 
		 "basiset": "6-31G**", 
		 "properties": { 
			 "R2extent": 1944.2433, 
			 "electric_dipole_moment_norm": 4.07157602287, 
			 "electric_quadrupole_moment_norm": 11.5265479477, 
			 "total_energy": -548.771589779, 
			 "HOMO_LUMO_gap": 0.23216, 
			 "cosmo_polarized_energy": -19.04, 
			 "cosmo_cavitation_energy": 23.94, 
			 "cosmo_dispersion_energy": -17.37, 
			 "cosmo_repulsion_energy": 1.43, 
			 "cosmo_total_nonelectrostatic_energy": 8.0, 
			 "SMD_solvation_energy": 3.43 
		},
		"coords": [
			{
				"x": -0.7516738731,
				"y": 1.4336615871,
				"z": 2.1669200066,
				"element": "N" 
			},
			{
				"x": -0.5244057532,
				"y": 0.0003080023,
				"z": 2.257041186,
				"element": "C" 
			},
			{
				"x": -0.9871587548,
				"y": -0.7100503104,
				"z": 0.9624842763,
				"element": "C" 
			},
			{
				"x": -0.1270971035,
				"y": -0.4141989713,
				"z": -0.2314871812,
				"element": "C" 
			},
			{
				"x": 0.6200200869,
				"y": -1.2927842436,
				"z": -0.9795174688,
				"element": "C" 
			},
			{
				"x": 1.2352283932,
				"y": -0.5266999227,
				"z": -1.9493920247,
				"element": "N" 
			},
			{
				"x": 0.8483227364,
				"y": 0.7663613552,
				"z": -1.7488510303,
				"element": "C" 
			},
			{
				"x": 0.0287208373,
				"y": 0.8710524436,
				"z": -0.7254694073,
				"element": "N" 
			},
			{
				"x": 0.8950190411,
				"y": -0.4702132783,
				"z": 2.6095654772,
				"element": "C" 
			},
			{
				"x": 1.7136306459,
				"y": 0.5403057054,
				"z": 2.9916995534,
				"element": "O" 
			},
			{
				"x": 1.2604580686,
				"y": -1.6272158009,
				"z": 2.6002544875,
				"element": "O" 
			},
			{
				"x": -0.3773726897,
				"y": 1.7788050495,
				"z": 1.2840867422,
				"element": "H" 
			},
			{
				"x": -0.2671523702,
				"y": 1.915528367,
				"z": 2.9181224989,
				"element": "H" 
			},
			{
				"x": -1.1422033568,
				"y": -0.3991926789,
				"z": 3.0763910466,
				"element": "H" 
			},
			{
				"x": -2.0166891886,
				"y": -0.3866985169,
				"z": 0.774398776,
				"element": "H" 
			},
			{
				"x": -0.9935393648,
				"y": -1.7879112654,
				"z": 1.139794793,
				"element": "H" 
			},
			{
				"x": 0.7717884302,
				"y": -2.3580049919,
				"z": -0.9022189343,
				"element": "H" 
			},
			{
				"x": 1.8518062292,
				"y": -0.8632407577,
				"z": -2.6728298013,
				"element": "H" 
			},
			{
				"x": 1.1900555969,
				"y": 1.5793086151,
				"z": -2.3747156922,
				"element": "H" 
			},
			{
				"x": 2.5591423891,
				"y": 0.1199796129,
				"z": 3.2232226965,
				"element": "H" 
			}
		],
		 "valence_orbital": [ 
			{
				"type": "occ",
				"energy": -0.28576,
				"method": "rhf"
			},
			{
				"type": "occ",
				"energy": -0.28023,
				"method": "rhf"
			},
			{
				"type": "occ",
				"energy": -0.27108,
				"method": "rhf"
			},
			{
				"type": "occ",
				"energy": -0.22605,
				"method": "rhf"
			},
			{
				"type": "occ",
				"energy": -0.21702,
				"method": "rhf"
			},
			{
				"type": "unocc",
				"energy": 0.01514,
				"method": "rhf"
			},
			{
				"type": "unocc",
				"energy": 0.02603,
				"method": "rhf"
			},
			{
				"type": "unocc",
				"energy": 0.05993,
				"method": "rhf"
			},
			{
				"type": "unocc",
				"energy": 0.07038,
				"method": "rhf"
			},
			{
				"type": "unocc",
				"energy": 0.08037,
				"method": "rhf"
			}
		],
		"cosmo_sigma_profile": { 
			"-0.025": 0.0,
			"-0.024": 0.0,
			"-0.023": 0.0,
			"-0.022": 0.0,
			"-0.021": 0.0,
			"-0.02": 0.0,
			"-0.019": 0.0,
			"-0.018": 0.646589466134,
			"-0.017": 1.28111611189,
			"-0.016": 2.67244083184,
			"-0.015": 2.55403259398,
			"-0.014": 1.43133757738,
			"-0.013": 2.17942772118,
			"-0.012": 1.4923381558,
			"-0.011": 2.61969305929,
			"-0.01": 2.14256500014,
			"-0.009": 3.17613014147,
			"-0.008": 7.44244077736,
			"-0.007": 5.91391304531,
			"-0.006": 8.81650597591,
			"-0.005": 8.30368241657,
			"-0.004": 11.2026638512,
			"-0.003": 10.1574663963,
			"-0.002": 10.4440619826,
			"-0.001": 9.43558203925,
			"0.0": 7.76005843698,
			"0.001": 7.78174973957,
			"0.002": 10.010143227,
			"0.003": 9.49124488241,
			"0.004": 10.3891154824,
			"0.005": 9.44094057383,
			"0.006": 5.42340454482,
			"0.007": 5.74550573418,
			"0.008": 6.46288594262,
			"0.009": 3.27640109148,
			"0.01": 3.52148131051,
			"0.011": 4.4509541679,
			"0.012": 6.26811862715,
			"0.013": 1.63059586003,
			"0.014": 1.69596341534,
			"0.015": 1.39773454984,
			"0.016": 0.527304071426,
			"0.017": 0.413944908309,
			"0.018": 0.672535930268,
			"0.019": 0.461112904444,
			"0.02": 0.0,
			"0.021": 0.0,
			"0.022": 0.0,
			"0.023": 0.0,
			"0.024": 0.0,
			"0.025": 0.0
		}
	}
}
