{
	 "smiles": "[O-][N+](=O)C1=CC(=CC=C1Cl)C(=O)C1CC1", 
	 "Tm": 352.15, 
	 "num_atms": 23, 
	 "gaussian": { 
		 "optdone": 1, 
		 "sigma_profile": "yes", 
		 "theory": "DFT", 
		 "functional": "B3LYP", 
		 "basiset": "6-31G**", 
		 "properties": { 
			 "R2extent": 5176.2468, 
			 "electric_dipole_moment_norm": 2.61324816655, 
			 "electric_quadrupole_moment_norm": 18.0548823635, 
			 "total_energy": -1126.36116337, 
			 "HOMO_LUMO_gap": 0.17004, 
			 "cosmo_polarized_energy": -11.23, 
			 "cosmo_cavitation_energy": 30.01, 
			 "cosmo_dispersion_energy": -21.85, 
			 "cosmo_repulsion_energy": 1.7, 
			 "cosmo_total_nonelectrostatic_energy": 9.86, 
			 "SMD_solvation_energy": 7.21 
		},
		"coords": [
			{
				"x": -3.7274335776,
				"y": -0.9037915627,
				"z": -2.8007819811,
				"element": "O" 
			},
			{
				"x": -2.7217709409,
				"y": -1.1013095562,
				"z": -2.1287386033,
				"element": "N" 
			},
			{
				"x": -1.9048797925,
				"y": -2.0024629662,
				"z": -2.322612343,
				"element": "O" 
			},
			{
				"x": -2.4307419029,
				"y": -0.1737325318,
				"z": -1.0192959453,
				"element": "C" 
			},
			{
				"x": -1.0807641116,
				"y": 0.0202029798,
				"z": -0.721257158,
				"element": "C" 
			},
			{
				"x": -0.6910714331,
				"y": 0.906752088,
				"z": 0.2826016402,
				"element": "C" 
			},
			{
				"x": -1.6906434228,
				"y": 1.5830432524,
				"z": 1.0012728546,
				"element": "C" 
			},
			{
				"x": -3.0339929334,
				"y": 1.3741612024,
				"z": 0.7261268261,
				"element": "C" 
			},
			{
				"x": -3.4267909965,
				"y": 0.4980361789,
				"z": -0.2937686455,
				"element": "C" 
			},
			{
				"x": -5.1313627874,
				"y": 0.259073603,
				"z": -0.5343606394,
				"element": "Cl" 
			},
			{
				"x": 0.7421741367,
				"y": 1.1842785454,
				"z": 0.6510378435,
				"element": "C" 
			},
			{
				"x": 0.9824636399,
				"y": 1.9856548367,
				"z": 1.547630754,
				"element": "O" 
			},
			{
				"x": 1.846531967,
				"y": 0.4912851754,
				"z": -0.0670325109,
				"element": "C" 
			},
			{
				"x": 3.1007778906,
				"y": 0.1778912072,
				"z": 0.7452272315,
				"element": "C" 
			},
			{
				"x": 3.1418760156,
				"y": 1.2781139026,
				"z": -0.2542551046,
				"element": "C" 
			},
			{
				"x": -0.3661931988,
				"y": -0.5471129406,
				"z": -1.3022378725,
				"element": "H" 
			},
			{
				"x": -1.3829453444,
				"y": 2.2681300117,
				"z": 1.7836843544,
				"element": "H" 
			},
			{
				"x": -3.8018376654,
				"y": 1.8833193753,
				"z": 1.2975374705,
				"element": "H" 
			},
			{
				"x": 1.5892202152,
				"y": -0.2110402075,
				"z": -0.8500296924,
				"element": "H" 
			},
			{
				"x": 3.0578207896,
				"y": 0.4550535567,
				"z": 1.7932455374,
				"element": "H" 
			},
			{
				"x": 3.6037998058,
				"y": -0.757716655,
				"z": 0.5234251842,
				"element": "H" 
			},
			{
				"x": 3.1265727945,
				"y": 2.2960435062,
				"z": 0.1207797353,
				"element": "H" 
			},
			{
				"x": 3.6743908523,
				"y": 1.1260269983,
				"z": -1.1874989357,
				"element": "H" 
			}
		],
		 "valence_orbital": [ 
			{
				"type": "occ",
				"energy": -0.30684,
				"method": "rhf"
			},
			{
				"type": "occ",
				"energy": -0.3034,
				"method": "rhf"
			},
			{
				"type": "occ",
				"energy": -0.28858,
				"method": "rhf"
			},
			{
				"type": "occ",
				"energy": -0.27741,
				"method": "rhf"
			},
			{
				"type": "occ",
				"energy": -0.26947,
				"method": "rhf"
			},
			{
				"type": "unocc",
				"energy": -0.09943,
				"method": "rhf"
			},
			{
				"type": "unocc",
				"energy": -0.07741,
				"method": "rhf"
			},
			{
				"type": "unocc",
				"energy": -0.02931,
				"method": "rhf"
			},
			{
				"type": "unocc",
				"energy": 0.00457,
				"method": "rhf"
			},
			{
				"type": "unocc",
				"energy": 0.01602,
				"method": "rhf"
			}
		],
		"cosmo_sigma_profile": { 
			"-0.025": 0.0,
			"-0.024": 0.0,
			"-0.023": 0.0,
			"-0.022": 0.0,
			"-0.021": 0.0,
			"-0.02": 0.0,
			"-0.019": 0.0,
			"-0.018": 0.0,
			"-0.017": 0.0,
			"-0.016": 0.0,
			"-0.015": 0.0,
			"-0.014": 0.0,
			"-0.013": 0.0,
			"-0.012": 0.0,
			"-0.011": 0.281507995969,
			"-0.01": 1.13731464871,
			"-0.009": 2.70471846875,
			"-0.008": 5.99527563959,
			"-0.007": 7.39684430425,
			"-0.006": 9.88327366167,
			"-0.005": 14.2308198343,
			"-0.004": 14.3048488473,
			"-0.003": 18.083186287,
			"-0.002": 24.941023327,
			"-0.001": 27.6712005758,
			"0.0": 21.5596235508,
			"0.001": 15.2599613885,
			"0.002": 15.2898865102,
			"0.003": 12.511827123,
			"0.004": 6.46777666558,
			"0.005": 6.03772668294,
			"0.006": 6.8174556081,
			"0.007": 11.0097409917,
			"0.008": 8.80508211982,
			"0.009": 5.18875545687,
			"0.01": 2.1118500465,
			"0.011": 2.66002348399,
			"0.012": 2.5738194664,
			"0.013": 0.1112750283,
			"0.014": 0.0,
			"0.015": 0.0,
			"0.016": 0.0,
			"0.017": 0.0,
			"0.018": 0.0,
			"0.019": 0.0,
			"0.02": 0.0,
			"0.021": 0.0,
			"0.022": 0.0,
			"0.023": 0.0,
			"0.024": 0.0,
			"0.025": 0.0
		}
	}
}
