{
	 "smiles": "BrC1=CC(=CC=C1)C1=NN=CO1", 
	 "Tm": 348.15, 
	 "num_atms": 17, 
	 "gaussian": { 
		 "optdone": 1, 
		 "sigma_profile": "yes", 
		 "theory": "DFT", 
		 "functional": "B3LYP", 
		 "basiset": "6-31G**", 
		 "properties": { 
			 "R2extent": 5012.3572, 
			 "electric_dipole_moment_norm": 1.72655131983, 
			 "electric_quadrupole_moment_norm": 15.5713886927, 
			 "total_energy": -3063.9604075, 
			 "HOMO_LUMO_gap": 0.18659, 
			 "cosmo_polarized_energy": -10.22, 
			 "cosmo_cavitation_energy": 24.75, 
			 "cosmo_dispersion_energy": -18.82, 
			 "cosmo_repulsion_energy": 1.47, 
			 "cosmo_total_nonelectrostatic_energy": 7.4, 
			 "SMD_solvation_energy": 2.38 
		},
		"coords": [
			{
				"x": 2.8013194801,
				"y": -3.7920683383,
				"z": -1.5888820886,
				"element": "Br" 
			},
			{
				"x": 1.4560869493,
				"y": -2.9871705199,
				"z": -0.4971186464,
				"element": "C" 
			},
			{
				"x": 1.0064321517,
				"y": -1.7077124867,
				"z": -0.808459969,
				"element": "C" 
			},
			{
				"x": 0.0186047742,
				"y": -1.1198387994,
				"z": -0.0045777826,
				"element": "C" 
			},
			{
				"x": -0.5039513829,
				"y": -1.8176710635,
				"z": 1.0958483685,
				"element": "C" 
			},
			{
				"x": -0.0368745,
				"y": -3.095761776,
				"z": 1.385146769,
				"element": "C" 
			},
			{
				"x": 0.9468930229,
				"y": -3.6926551779,
				"z": 0.5922657485,
				"element": "C" 
			},
			{
				"x": -0.4788744389,
				"y": 0.2202110685,
				"z": -0.2983826189,
				"element": "C" 
			},
			{
				"x": -1.3831294168,
				"y": 0.9050283722,
				"z": 0.3394629422,
				"element": "N" 
			},
			{
				"x": -1.505847046,
				"y": 2.1237740195,
				"z": -0.3276429629,
				"element": "N" 
			},
			{
				"x": -0.6684225535,
				"y": 2.0757494521,
				"z": -1.3099799299,
				"element": "C" 
			},
			{
				"x": 0.0240569118,
				"y": 0.9084087356,
				"z": -1.3683648403,
				"element": "O" 
			},
			{
				"x": 1.4132214588,
				"y": -1.1742443266,
				"z": -1.658593809,
				"element": "H" 
			},
			{
				"x": -1.2669470626,
				"y": -1.3465810904,
				"z": 1.7053028204,
				"element": "H" 
			},
			{
				"x": -0.4385686573,
				"y": -3.6385040873,
				"z": 2.2352669947,
				"element": "H" 
			},
			{
				"x": 1.3125103424,
				"y": -4.6882569328,
				"z": 0.8154852977,
				"element": "H" 
			},
			{
				"x": -0.4640100332,
				"y": 2.8249929511,
				"z": -2.0590762933,
				"element": "H" 
			}
		],
		 "valence_orbital": [ 
			{
				"type": "occ",
				"energy": -0.30769,
				"method": "rhf"
			},
			{
				"type": "occ",
				"energy": -0.297,
				"method": "rhf"
			},
			{
				"type": "occ",
				"energy": -0.28675,
				"method": "rhf"
			},
			{
				"type": "occ",
				"energy": -0.26469,
				"method": "rhf"
			},
			{
				"type": "occ",
				"energy": -0.25036,
				"method": "rhf"
			},
			{
				"type": "unocc",
				"energy": -0.06377,
				"method": "rhf"
			},
			{
				"type": "unocc",
				"energy": -0.02827,
				"method": "rhf"
			},
			{
				"type": "unocc",
				"energy": -0.00327,
				"method": "rhf"
			},
			{
				"type": "unocc",
				"energy": 0.00212,
				"method": "rhf"
			},
			{
				"type": "unocc",
				"energy": 0.04588,
				"method": "rhf"
			}
		],
		"cosmo_sigma_profile": { 
			"-0.025": 0.0,
			"-0.024": 0.0,
			"-0.023": 0.0,
			"-0.022": 0.0,
			"-0.021": 0.0,
			"-0.02": 0.0,
			"-0.019": 0.0,
			"-0.018": 0.0,
			"-0.017": 0.0,
			"-0.016": 0.0,
			"-0.015": 0.0,
			"-0.014": 0.0,
			"-0.013": 1.02259227009,
			"-0.012": 1.81543962667,
			"-0.011": 1.74574641374,
			"-0.01": 1.77043386477,
			"-0.009": 1.21929068059,
			"-0.008": 2.85479992402,
			"-0.007": 7.12148725139,
			"-0.006": 9.59259487062,
			"-0.005": 10.8961955914,
			"-0.004": 12.2577313695,
			"-0.003": 14.5075719664,
			"-0.002": 13.4628546127,
			"-0.001": 13.8985282144,
			"0.0": 16.3058367026,
			"0.001": 22.6466865869,
			"0.002": 20.6829838971,
			"0.003": 12.9417854801,
			"0.004": 13.399333142,
			"0.005": 4.0690707682,
			"0.006": 1.98675196454,
			"0.007": 1.97525661582,
			"0.008": 2.2075644578,
			"0.009": 2.18349132888,
			"0.01": 3.25126668258,
			"0.011": 2.92113280304,
			"0.012": 3.07313753339,
			"0.013": 2.31394906199,
			"0.014": 1.56212083062,
			"0.015": 0.348746292272,
			"0.016": 0.0,
			"0.017": 0.0,
			"0.018": 0.0,
			"0.019": 0.0,
			"0.02": 0.0,
			"0.021": 0.0,
			"0.022": 0.0,
			"0.023": 0.0,
			"0.024": 0.0,
			"0.025": 0.0
		}
	}
}
