{
	 "smiles": "ClC1=CC=CC=C1NC(=O)C1=CC=CC=C1", 
	 "Tm": 372.15, 
	 "num_atms": 26, 
	 "gaussian": { 
		 "optdone": 1, 
		 "sigma_profile": "yes", 
		 "theory": "DFT", 
		 "functional": "B3LYP", 
		 "basiset": "6-31G**", 
		 "properties": { 
			 "R2extent": 4505.4389, 
			 "electric_dipole_moment_norm": 4.40721379332, 
			 "electric_quadrupole_moment_norm": 10.5054162459, 
			 "total_energy": -1091.58692903, 
			 "HOMO_LUMO_gap": 0.20543, 
			 "cosmo_polarized_energy": -12.61, 
			 "cosmo_cavitation_energy": 31.95, 
			 "cosmo_dispersion_energy": -22.35, 
			 "cosmo_repulsion_energy": 1.75, 
			 "cosmo_total_nonelectrostatic_energy": 11.35, 
			 "SMD_solvation_energy": 5.81 
		},
		"coords": [
			{
				"x": 2.9600881005,
				"y": -0.4915186085,
				"z": -1.2610998887,
				"element": "Cl" 
			},
			{
				"x": 1.4051792559,
				"y": -1.1015454059,
				"z": -0.7340091565,
				"element": "C" 
			},
			{
				"x": 1.3597623118,
				"y": -2.3441442706,
				"z": -0.0993996726,
				"element": "C" 
			},
			{
				"x": 0.1338663758,
				"y": -2.8920983481,
				"z": 0.2738332285,
				"element": "C" 
			},
			{
				"x": -1.0485843756,
				"y": -2.1976799704,
				"z": 0.0135158519,
				"element": "C" 
			},
			{
				"x": -0.9945052077,
				"y": -0.9476136942,
				"z": -0.5978178998,
				"element": "C" 
			},
			{
				"x": 0.2273363202,
				"y": -0.369945505,
				"z": -0.973378824,
				"element": "C" 
			},
			{
				"x": 0.2113453806,
				"y": 0.8858908304,
				"z": -1.6377653501,
				"element": "N" 
			},
			{
				"x": 0.8892929263,
				"y": 2.0642460921,
				"z": -1.3492320945,
				"element": "C" 
			},
			{
				"x": 1.036310647,
				"y": 2.8997210934,
				"z": -2.23234921,
				"element": "O" 
			},
			{
				"x": 1.3663017978,
				"y": 2.3169622428,
				"z": 0.0497696747,
				"element": "C" 
			},
			{
				"x": 2.4594665526,
				"y": 3.1836010226,
				"z": 0.1967315953,
				"element": "C" 
			},
			{
				"x": 2.9323659437,
				"y": 3.5135460151,
				"z": 1.4635663077,
				"element": "C" 
			},
			{
				"x": 2.3022442618,
				"y": 3.0002216213,
				"z": 2.6007037355,
				"element": "C" 
			},
			{
				"x": 1.1971420943,
				"y": 2.159270613,
				"z": 2.4630307733,
				"element": "C" 
			},
			{
				"x": 0.7307331203,
				"y": 1.8145380383,
				"z": 1.1936206362,
				"element": "C" 
			},
			{
				"x": 2.2853626793,
				"y": -2.8797680113,
				"z": 0.080066273,
				"element": "H" 
			},
			{
				"x": 0.1068693799,
				"y": -3.8625212543,
				"z": 0.7597480255,
				"element": "H" 
			},
			{
				"x": -2.0077746113,
				"y": -2.6216506233,
				"z": 0.293738383,
				"element": "H" 
			},
			{
				"x": -1.9026233865,
				"y": -0.384327356,
				"z": -0.79062913,
				"element": "H" 
			},
			{
				"x": -0.1186031521,
				"y": 0.8853934075,
				"z": -2.5965717055,
				"element": "H" 
			},
			{
				"x": 2.9193116617,
				"y": 3.5900949834,
				"z": -0.6974718745,
				"element": "H" 
			},
			{
				"x": 3.7871196131,
				"y": 4.175727124,
				"z": 1.5664258049,
				"element": "H" 
			},
			{
				"x": 2.6667555212,
				"y": 3.2615606389,
				"z": 3.5901802838,
				"element": "H" 
			},
			{
				"x": 0.6929470089,
				"y": 1.7732480446,
				"z": 3.3442566751,
				"element": "H" 
			},
			{
				"x": -0.1368102194,
				"y": 1.1716912802,
				"z": 1.1005375579,
				"element": "H" 
			}
		],
		 "valence_orbital": [ 
			{
				"type": "occ",
				"energy": -0.26198,
				"method": "rhf"
			},
			{
				"type": "occ",
				"energy": -0.25915,
				"method": "rhf"
			},
			{
				"type": "occ",
				"energy": -0.25569,
				"method": "rhf"
			},
			{
				"type": "occ",
				"energy": -0.24447,
				"method": "rhf"
			},
			{
				"type": "occ",
				"energy": -0.24348,
				"method": "rhf"
			},
			{
				"type": "unocc",
				"energy": -0.03805,
				"method": "rhf"
			},
			{
				"type": "unocc",
				"energy": -0.02477,
				"method": "rhf"
			},
			{
				"type": "unocc",
				"energy": -0.02207,
				"method": "rhf"
			},
			{
				"type": "unocc",
				"energy": -0.00124,
				"method": "rhf"
			},
			{
				"type": "unocc",
				"energy": 0.0248,
				"method": "rhf"
			}
		],
		"cosmo_sigma_profile": { 
			"-0.025": 0.0,
			"-0.024": 0.0,
			"-0.023": 0.0,
			"-0.022": 0.0,
			"-0.021": 0.0,
			"-0.02": 0.0,
			"-0.019": 0.0,
			"-0.018": 0.0,
			"-0.017": 0.0,
			"-0.016": 0.0,
			"-0.015": 0.11142980986,
			"-0.014": 1.01724465889,
			"-0.013": 1.08860103135,
			"-0.012": 0.486683279247,
			"-0.011": 0.929845121708,
			"-0.01": 1.16373969359,
			"-0.009": 0.841681863377,
			"-0.008": 1.38091054992,
			"-0.007": 8.01716503656,
			"-0.006": 15.7586857169,
			"-0.005": 20.2629952258,
			"-0.004": 19.4325755117,
			"-0.003": 15.1236028534,
			"-0.002": 17.0866992348,
			"-0.001": 13.760841755,
			"0.0": 17.3220297056,
			"0.001": 21.2814883874,
			"0.002": 23.7038287032,
			"0.003": 25.4569282117,
			"0.004": 25.321625407,
			"0.005": 9.46534821075,
			"0.006": 1.79698954732,
			"0.007": 1.98044641644,
			"0.008": 1.58219412938,
			"0.009": 1.0470892926,
			"0.01": 1.43231350221,
			"0.011": 2.04460369882,
			"0.012": 2.61644856964,
			"0.013": 5.34154724126,
			"0.014": 1.56033172573,
			"0.015": 0.0,
			"0.016": 0.0,
			"0.017": 0.0,
			"0.018": 0.0,
			"0.019": 0.0,
			"0.02": 0.0,
			"0.021": 0.0,
			"0.022": 0.0,
			"0.023": 0.0,
			"0.024": 0.0,
			"0.025": 0.0
		}
	}
}
