{
	 "smiles": "CC1=CC=CC(=C1C(O)=O)[N+]([O-])=O", 
	 "Tm": 428.15, 
	 "num_atms": 20, 
	 "gaussian": { 
		 "optdone": 1, 
		 "sigma_profile": "yes", 
		 "theory": "DFT", 
		 "functional": "B3LYP", 
		 "basiset": "6-31G**", 
		 "properties": { 
			 "R2extent": 2942.7584, 
			 "electric_dipole_moment_norm": 4.547039483, 
			 "electric_quadrupole_moment_norm": 18.2838534166, 
			 "total_energy": -664.627243342, 
			 "HOMO_LUMO_gap": 0.17622, 
			 "cosmo_polarized_energy": -13.45, 
			 "cosmo_cavitation_energy": 25.19, 
			 "cosmo_dispersion_energy": -18.12, 
			 "cosmo_repulsion_energy": 1.43, 
			 "cosmo_total_nonelectrostatic_energy": 8.51, 
			 "SMD_solvation_energy": 7.42 
		},
		"coords": [
			{
				"x": 0.7920359638,
				"y": -1.957763749,
				"z": -0.9573870438,
				"element": "C" 
			},
			{
				"x": -0.0932033026,
				"y": -1.3449694928,
				"z": 0.102698159,
				"element": "C" 
			},
			{
				"x": 0.1847002234,
				"y": -1.5431523951,
				"z": 1.4610765817,
				"element": "C" 
			},
			{
				"x": -0.6115456897,
				"y": -0.987020535,
				"z": 2.4623756024,
				"element": "C" 
			},
			{
				"x": -1.7163503015,
				"y": -0.2156395189,
				"z": 2.1212361613,
				"element": "C" 
			},
			{
				"x": -1.9998898939,
				"y": -0.0184736988,
				"z": 0.771733715,
				"element": "C" 
			},
			{
				"x": -1.2097251915,
				"y": -0.5608642336,
				"z": -0.2490790417,
				"element": "C" 
			},
			{
				"x": -1.4922350961,
				"y": -0.3414452267,
				"z": -1.7135445626,
				"element": "C" 
			},
			{
				"x": -1.1933533037,
				"y": 0.9168083601,
				"z": -2.0967340202,
				"element": "O" 
			},
			{
				"x": -1.8338233576,
				"y": -1.2151602712,
				"z": -2.4763259786,
				"element": "O" 
			},
			{
				"x": -3.2076382372,
				"y": 0.7591294695,
				"z": 0.4429569641,
				"element": "N" 
			},
			{
				"x": -3.6457573273,
				"y": 0.6758396204,
				"z": -0.704125656,
				"element": "O" 
			},
			{
				"x": -3.716559749,
				"y": 1.429273025,
				"z": 1.338948995,
				"element": "O" 
			},
			{
				"x": 0.2254223342,
				"y": -2.6490332067,
				"z": -1.5873491152,
				"element": "H" 
			},
			{
				"x": 1.2108414926,
				"y": -1.1907143991,
				"z": -1.6181656586,
				"element": "H" 
			},
			{
				"x": 1.6235924439,
				"y": -2.4999276631,
				"z": -0.5017819839,
				"element": "H" 
			},
			{
				"x": 1.0459786775,
				"y": -2.1459539569,
				"z": 1.7347574283,
				"element": "H" 
			},
			{
				"x": -0.3740283746,
				"y": -1.159847845,
				"z": 3.507121157,
				"element": "H" 
			},
			{
				"x": -2.3643852539,
				"y": 0.2286906414,
				"z": 2.8655938894,
				"element": "H" 
			},
			{
				"x": -1.4181760566,
				"y": 0.9765250753,
				"z": -3.0413055927,
				"element": "H" 
			}
		],
		 "valence_orbital": [ 
			{
				"type": "occ",
				"energy": -0.31226,
				"method": "rhf"
			},
			{
				"type": "occ",
				"energy": -0.3003,
				"method": "rhf"
			},
			{
				"type": "occ",
				"energy": -0.29647,
				"method": "rhf"
			},
			{
				"type": "occ",
				"energy": -0.27998,
				"method": "rhf"
			},
			{
				"type": "occ",
				"energy": -0.27036,
				"method": "rhf"
			},
			{
				"type": "unocc",
				"energy": -0.09414,
				"method": "rhf"
			},
			{
				"type": "unocc",
				"energy": -0.04052,
				"method": "rhf"
			},
			{
				"type": "unocc",
				"energy": -0.00844,
				"method": "rhf"
			},
			{
				"type": "unocc",
				"energy": 0.00934,
				"method": "rhf"
			},
			{
				"type": "unocc",
				"energy": 0.07115,
				"method": "rhf"
			}
		],
		"cosmo_sigma_profile": { 
			"-0.025": 0.0,
			"-0.024": 0.0,
			"-0.023": 0.0,
			"-0.022": 0.0,
			"-0.021": 0.0,
			"-0.02": 0.0,
			"-0.019": 0.430754552436,
			"-0.018": 0.963053927633,
			"-0.017": 1.15529922532,
			"-0.016": 0.241443616439,
			"-0.015": 0.883979136512,
			"-0.014": 1.24824206002,
			"-0.013": 0.380123198388,
			"-0.012": 0.111647068382,
			"-0.011": 0.807525709287,
			"-0.01": 0.9329416221,
			"-0.009": 0.639372051893,
			"-0.008": 3.61150894818,
			"-0.007": 8.4324601481,
			"-0.006": 10.018751443,
			"-0.005": 12.1524075748,
			"-0.004": 14.0894793041,
			"-0.003": 11.6327435944,
			"-0.002": 13.5490956844,
			"-0.001": 18.6688148771,
			"0.0": 15.9591375618,
			"0.001": 15.3696924505,
			"0.002": 9.94323583513,
			"0.003": 5.3264186982,
			"0.004": 4.86371267413,
			"0.005": 6.02606818475,
			"0.006": 7.20047624571,
			"0.007": 12.6107050321,
			"0.008": 7.86038603232,
			"0.009": 6.34265119061,
			"0.01": 3.55245248578,
			"0.011": 4.99452628904,
			"0.012": 1.02092978133,
			"0.013": 0.0,
			"0.014": 0.0,
			"0.015": 0.0,
			"0.016": 0.0,
			"0.017": 0.0,
			"0.018": 0.0,
			"0.019": 0.0,
			"0.02": 0.0,
			"0.021": 0.0,
			"0.022": 0.0,
			"0.023": 0.0,
			"0.024": 0.0,
			"0.025": 0.0
		}
	}
}
