{
	 "smiles": "ONC(CC(=NO)C1=CC=CC=C1)C1=CC=CC=C1", 
	 "Tm": 414.15, 
	 "num_atms": 35, 
	 "gaussian": { 
		 "optdone": 1, 
		 "sigma_profile": "yes", 
		 "theory": "DFT", 
		 "functional": "B3LYP", 
		 "basiset": "6-31G**", 
		 "properties": { 
			 "R2extent": 6904.9595, 
			 "electric_dipole_moment_norm": 0.221867032251, 
			 "electric_quadrupole_moment_norm": 9.34757443404, 
			 "total_energy": -841.066937111, 
			 "HOMO_LUMO_gap": 0.19328, 
			 "cosmo_polarized_energy": -14.94, 
			 "cosmo_cavitation_energy": 38.55, 
			 "cosmo_dispersion_energy": -26.81, 
			 "cosmo_repulsion_energy": 2.12, 
			 "cosmo_total_nonelectrostatic_energy": 13.87, 
			 "SMD_solvation_energy": 6.62 
		},
		"coords": [
			{
				"x": 0.7260731299,
				"y": 0.616582892,
				"z": -2.2721246294,
				"element": "O" 
			},
			{
				"x": 1.3974209033,
				"y": 1.080123693,
				"z": -1.077950012,
				"element": "N" 
			},
			{
				"x": 0.4389917296,
				"y": 1.055839859,
				"z": 0.052406565,
				"element": "C" 
			},
			{
				"x": -0.2404738355,
				"y": -0.3149820775,
				"z": 0.2101026693,
				"element": "C" 
			},
			{
				"x": -1.4694478423,
				"y": -0.3610820874,
				"z": 1.1055786809,
				"element": "C" 
			},
			{
				"x": -1.9838535852,
				"y": 0.7850368417,
				"z": 1.3829436583,
				"element": "N" 
			},
			{
				"x": -3.1548692767,
				"y": 0.7223350549,
				"z": 2.1549694112,
				"element": "O" 
			},
			{
				"x": -1.9530836485,
				"y": -1.6998960802,
				"z": 1.5463544147,
				"element": "C" 
			},
			{
				"x": -1.8236934016,
				"y": -2.8028968004,
				"z": 0.6834299017,
				"element": "C" 
			},
			{
				"x": -2.2331522451,
				"y": -4.0751788458,
				"z": 1.0794231782,
				"element": "C" 
			},
			{
				"x": -2.761240063,
				"y": -4.2754999127,
				"z": 2.3554885976,
				"element": "C" 
			},
			{
				"x": -2.8817063198,
				"y": -3.1920153664,
				"z": 3.2278721631,
				"element": "C" 
			},
			{
				"x": -2.4894993683,
				"y": -1.915575744,
				"z": 2.8289987059,
				"element": "C" 
			},
			{
				"x": 1.2066432331,
				"y": 1.5637116541,
				"z": 1.2705365581,
				"element": "C" 
			},
			{
				"x": 1.3761066718,
				"y": 0.815927612,
				"z": 2.4410675402,
				"element": "C" 
			},
			{
				"x": 2.1053908031,
				"y": 1.3276735222,
				"z": 3.5181337979,
				"element": "C" 
			},
			{
				"x": 2.6798947051,
				"y": 2.5952256199,
				"z": 3.4398785529,
				"element": "C" 
			},
			{
				"x": 2.5192632616,
				"y": 3.3513920291,
				"z": 2.2757777833,
				"element": "C" 
			},
			{
				"x": 1.791131788,
				"y": 2.8384954729,
				"z": 1.2045337185,
				"element": "C" 
			},
			{
				"x": 0.7640508716,
				"y": 1.3964120214,
				"z": -2.8416032278,
				"element": "H" 
			},
			{
				"x": 2.1030997681,
				"y": 0.3601166569,
				"z": -0.9102211944,
				"element": "H" 
			},
			{
				"x": -0.3340068231,
				"y": 1.7897466758,
				"z": -0.1952638927,
				"element": "H" 
			},
			{
				"x": -0.5310516582,
				"y": -0.6317050854,
				"z": -0.7983806134,
				"element": "H" 
			},
			{
				"x": 0.4868750704,
				"y": -1.057465456,
				"z": 0.5622230311,
				"element": "H" 
			},
			{
				"x": -3.3800934893,
				"y": 1.6579396455,
				"z": 2.2412701676,
				"element": "H" 
			},
			{
				"x": -1.41162403,
				"y": -2.6654407613,
				"z": -0.3110000055,
				"element": "H" 
			},
			{
				"x": -2.1353700201,
				"y": -4.9098972289,
				"z": 0.391173949,
				"element": "H" 
			},
			{
				"x": -3.075308879,
				"y": -5.2673421204,
				"z": 2.6679495777,
				"element": "H" 
			},
			{
				"x": -3.2860944272,
				"y": -3.3394731535,
				"z": 4.2253500481,
				"element": "H" 
			},
			{
				"x": -2.5962180725,
				"y": -1.0795466764,
				"z": 3.5075165101,
				"element": "H" 
			},
			{
				"x": 0.9290446378,
				"y": -0.168280428,
				"z": 2.5325836295,
				"element": "H" 
			},
			{
				"x": 2.2206415195,
				"y": 0.7312604562,
				"z": 4.4189650516,
				"element": "H" 
			},
			{
				"x": 3.2461684546,
				"y": 2.9926366577,
				"z": 4.2775180382,
				"element": "H" 
			},
			{
				"x": 2.9617544905,
				"y": 4.3411419713,
				"z": 2.2032802081,
				"element": "H" 
			},
			{
				"x": 1.6783359473,
				"y": 3.4204794887,
				"z": 0.2949174674,
				"element": "H" 
			}
		],
		 "valence_orbital": [ 
			{
				"type": "occ",
				"energy": -0.2501,
				"method": "rhf"
			},
			{
				"type": "occ",
				"energy": -0.24769,
				"method": "rhf"
			},
			{
				"type": "occ",
				"energy": -0.24221,
				"method": "rhf"
			},
			{
				"type": "occ",
				"energy": -0.23548,
				"method": "rhf"
			},
			{
				"type": "occ",
				"energy": -0.22394,
				"method": "rhf"
			},
			{
				"type": "unocc",
				"energy": -0.03066,
				"method": "rhf"
			},
			{
				"type": "unocc",
				"energy": -0.00071,
				"method": "rhf"
			},
			{
				"type": "unocc",
				"energy": 0.00029,
				"method": "rhf"
			},
			{
				"type": "unocc",
				"energy": 0.00541,
				"method": "rhf"
			},
			{
				"type": "unocc",
				"energy": 0.04388,
				"method": "rhf"
			}
		],
		"cosmo_sigma_profile": { 
			"-0.025": 0.0,
			"-0.024": 0.0,
			"-0.023": 0.0,
			"-0.022": 0.0,
			"-0.021": 0.0,
			"-0.02": 0.0,
			"-0.019": 0.0,
			"-0.018": 0.0,
			"-0.017": 0.656023452071,
			"-0.016": 1.51420239333,
			"-0.015": 1.74367678711,
			"-0.014": 1.54416977637,
			"-0.013": 2.15789867886,
			"-0.012": 1.52720878389,
			"-0.011": 1.63155316197,
			"-0.01": 2.38094121819,
			"-0.009": 1.90073118448,
			"-0.008": 2.56925687129,
			"-0.007": 3.73282129833,
			"-0.006": 12.1496065828,
			"-0.005": 22.6635400972,
			"-0.004": 26.3082398502,
			"-0.003": 25.0617834384,
			"-0.002": 19.4105022643,
			"-0.001": 19.3371840367,
			"0.0": 15.599365237,
			"0.001": 18.2716128018,
			"0.002": 16.5369083422,
			"0.003": 19.3763812534,
			"0.004": 19.6784542644,
			"0.005": 24.7714153995,
			"0.006": 16.9638985463,
			"0.007": 7.90218410407,
			"0.008": 4.98466271422,
			"0.009": 6.17239565186,
			"0.01": 4.43034667247,
			"0.011": 2.01141566772,
			"0.012": 1.51311399336,
			"0.013": 0.840601485018,
			"0.014": 0.0458530591363,
			"0.015": 0.0,
			"0.016": 0.0,
			"0.017": 0.0,
			"0.018": 0.0,
			"0.019": 0.0,
			"0.02": 0.0,
			"0.021": 0.0,
			"0.022": 0.0,
			"0.023": 0.0,
			"0.024": 0.0,
			"0.025": 0.0
		}
	}
}
