{
	 "smiles": "ClC(=C)C#N", 
	 "Tm": 208.15, 
	 "num_atms": 7, 
	 "gaussian": { 
		 "optdone": 1, 
		 "sigma_profile": "yes", 
		 "theory": "DFT", 
		 "functional": "B3LYP", 
		 "basiset": "6-31G**", 
		 "properties": { 
			 "R2extent": 818.346, 
			 "electric_dipole_moment_norm": 3.43228463272, 
			 "electric_quadrupole_moment_norm": 4.8060117478, 
			 "total_energy": -630.415412601, 
			 "HOMO_LUMO_gap": 0.21823, 
			 "cosmo_polarized_energy": -6.75, 
			 "cosmo_cavitation_energy": 14.43, 
			 "cosmo_dispersion_energy": -10.01, 
			 "cosmo_repulsion_energy": 0.9, 
			 "cosmo_total_nonelectrostatic_energy": 5.32, 
			 "SMD_solvation_energy": 4.65 
		},
		"coords": [
			{
				"x": 2.2188043824,
				"y": 1.1287526737,
				"z": -1.0077938537,
				"element": "Cl" 
			},
			{
				"x": 1.4524808457,
				"y": -0.3369909474,
				"z": -0.4232144111,
				"element": "C" 
			},
			{
				"x": 2.148861333,
				"y": -1.4425507698,
				"z": -0.1435387031,
				"element": "C" 
			},
			{
				"x": 0.0323037021,
				"y": -0.2500990314,
				"z": -0.2723664602,
				"element": "C" 
			},
			{
				"x": -1.1218786016,
				"y": -0.1782905538,
				"z": -0.1501740661,
				"element": "N" 
			},
			{
				"x": 1.6361023156,
				"y": -2.3277954442,
				"z": 0.2158751845,
				"element": "H" 
			},
			{
				"x": 3.2245260228,
				"y": -1.4770259271,
				"z": -0.2681876904,
				"element": "H" 
			}
		],
		 "valence_orbital": [ 
			{
				"type": "occ",
				"energy": -0.3804,
				"method": "rhf"
			},
			{
				"type": "occ",
				"energy": -0.36042,
				"method": "rhf"
			},
			{
				"type": "occ",
				"energy": -0.3519,
				"method": "rhf"
			},
			{
				"type": "occ",
				"energy": -0.33674,
				"method": "rhf"
			},
			{
				"type": "occ",
				"energy": -0.28895,
				"method": "rhf"
			},
			{
				"type": "unocc",
				"energy": -0.07072,
				"method": "rhf"
			},
			{
				"type": "unocc",
				"energy": -0.02822,
				"method": "rhf"
			},
			{
				"type": "unocc",
				"energy": 0.05612,
				"method": "rhf"
			},
			{
				"type": "unocc",
				"energy": 0.09384,
				"method": "rhf"
			},
			{
				"type": "unocc",
				"energy": 0.10097,
				"method": "rhf"
			}
		],
		"cosmo_sigma_profile": { 
			"-0.025": 0.0,
			"-0.024": 0.0,
			"-0.023": 0.0,
			"-0.022": 0.0,
			"-0.021": 0.0,
			"-0.02": 0.0,
			"-0.019": 0.0,
			"-0.018": 0.0,
			"-0.017": 0.0,
			"-0.016": 0.0,
			"-0.015": 0.0,
			"-0.014": 0.0,
			"-0.013": 0.0,
			"-0.012": 0.0,
			"-0.011": 0.110880496045,
			"-0.01": 2.87308658266,
			"-0.009": 3.0322267547,
			"-0.008": 4.29318828193,
			"-0.007": 3.40387009377,
			"-0.006": 4.47651987105,
			"-0.005": 4.11941010098,
			"-0.004": 5.89030720363,
			"-0.003": 10.1307327468,
			"-0.002": 8.81781553797,
			"-0.001": 11.3157735748,
			"0.0": 9.05228522221,
			"0.001": 7.31330293387,
			"0.002": 10.2497978492,
			"0.003": 10.1120808734,
			"0.004": 3.50998316385,
			"0.005": 2.68842574046,
			"0.006": 3.11337402297,
			"0.007": 3.12198845526,
			"0.008": 3.20461727986,
			"0.009": 2.813145258,
			"0.01": 2.63230752225,
			"0.011": 2.33734805752,
			"0.012": 1.19439334781,
			"0.013": 0.0,
			"0.014": 0.0,
			"0.015": 0.0,
			"0.016": 0.0,
			"0.017": 0.0,
			"0.018": 0.0,
			"0.019": 0.0,
			"0.02": 0.0,
			"0.021": 0.0,
			"0.022": 0.0,
			"0.023": 0.0,
			"0.024": 0.0,
			"0.025": 0.0
		}
	}
}
