{
	 "smiles": "CN1CCOC2=C1N=CC(=C2)C#N", 
	 "Tm": 381.15, 
	 "num_atms": 22, 
	 "gaussian": { 
		 "optdone": 1, 
		 "sigma_profile": "yes", 
		 "theory": "DFT", 
		 "functional": "B3LYP", 
		 "basiset": "6-31G**", 
		 "properties": { 
			 "R2extent": 3199.8777, 
			 "electric_dipole_moment_norm": 7.51256568291, 
			 "electric_quadrupole_moment_norm": 17.4237946877, 
			 "total_energy": -587.834213526, 
			 "HOMO_LUMO_gap": 0.17299, 
			 "cosmo_polarized_energy": -12.98, 
			 "cosmo_cavitation_energy": 26.26, 
			 "cosmo_dispersion_energy": -19.27, 
			 "cosmo_repulsion_energy": 1.52, 
			 "cosmo_total_nonelectrostatic_energy": 8.51, 
			 "SMD_solvation_energy": 4.58 
		},
		"coords": [
			{
				"x": 3.3454267537,
				"y": 0.4978865995,
				"z": -1.0359354343,
				"element": "C" 
			},
			{
				"x": 2.5135811242,
				"y": 0.4949244946,
				"z": 0.1573759496,
				"element": "N" 
			},
			{
				"x": 2.3384884637,
				"y": 1.7497799555,
				"z": 0.8712023518,
				"element": "C" 
			},
			{
				"x": 1.833058577,
				"y": 1.4654480435,
				"z": 2.2798681096,
				"element": "C" 
			},
			{
				"x": 0.6047220756,
				"y": 0.7366332651,
				"z": 2.2412907001,
				"element": "O" 
			},
			{
				"x": 0.6207596847,
				"y": -0.3539077818,
				"z": 1.4127748395,
				"element": "C" 
			},
			{
				"x": 1.5628161695,
				"y": -0.4834002862,
				"z": 0.3483622844,
				"element": "C" 
			},
			{
				"x": 1.55540267,
				"y": -1.5459830337,
				"z": -0.4669146981,
				"element": "N" 
			},
			{
				"x": 0.6472912325,
				"y": -2.5039413862,
				"z": -0.2802699009,
				"element": "C" 
			},
			{
				"x": -0.3228337573,
				"y": -2.4580733264,
				"z": 0.7280963053,
				"element": "C" 
			},
			{
				"x": -0.3195481422,
				"y": -1.3452206306,
				"z": 1.5962696412,
				"element": "C" 
			},
			{
				"x": -1.2794645665,
				"y": -3.5085732609,
				"z": 0.8714634903,
				"element": "C" 
			},
			{
				"x": -2.0565429912,
				"y": -4.3682510433,
				"z": 0.9848289192,
				"element": "N" 
			},
			{
				"x": 2.8695129804,
				"y": 1.0347163629,
				"z": -1.8698961484,
				"element": "H" 
			},
			{
				"x": 3.5254169043,
				"y": -0.5291705598,
				"z": -1.3486227023,
				"element": "H" 
			},
			{
				"x": 4.297903222,
				"y": 0.9852355293,
				"z": -0.8057029205,
				"element": "H" 
			},
			{
				"x": 1.6358821188,
				"y": 2.4204576152,
				"z": 0.3511069365,
				"element": "H" 
			},
			{
				"x": 3.3054436514,
				"y": 2.2623311377,
				"z": 0.9271783609,
				"element": "H" 
			},
			{
				"x": 1.6169687304,
				"y": 2.3927056223,
				"z": 2.8143559353,
				"element": "H" 
			},
			{
				"x": 2.584717093,
				"y": 0.8958759399,
				"z": 2.8419676378,
				"element": "H" 
			},
			{
				"x": 0.680841874,
				"y": -3.3458131063,
				"z": -0.9671611014,
				"element": "H" 
			},
			{
				"x": -1.0408438682,
				"y": -1.2532601503,
				"z": 2.4005614444,
				"element": "H" 
			}
		],
		 "valence_orbital": [ 
			{
				"type": "occ",
				"energy": -0.32417,
				"method": "rhf"
			},
			{
				"type": "occ",
				"energy": -0.2986,
				"method": "rhf"
			},
			{
				"type": "occ",
				"energy": -0.27235,
				"method": "rhf"
			},
			{
				"type": "occ",
				"energy": -0.26735,
				"method": "rhf"
			},
			{
				"type": "occ",
				"energy": -0.211,
				"method": "rhf"
			},
			{
				"type": "unocc",
				"energy": -0.03801,
				"method": "rhf"
			},
			{
				"type": "unocc",
				"energy": -0.02323,
				"method": "rhf"
			},
			{
				"type": "unocc",
				"energy": 0.0423,
				"method": "rhf"
			},
			{
				"type": "unocc",
				"energy": 0.06992,
				"method": "rhf"
			},
			{
				"type": "unocc",
				"energy": 0.08182,
				"method": "rhf"
			}
		],
		"cosmo_sigma_profile": { 
			"-0.025": 0.0,
			"-0.024": 0.0,
			"-0.023": 0.0,
			"-0.022": 0.0,
			"-0.021": 0.0,
			"-0.02": 0.0,
			"-0.019": 0.0,
			"-0.018": 0.0,
			"-0.017": 0.0,
			"-0.016": 0.0,
			"-0.015": 0.0,
			"-0.014": 0.0,
			"-0.013": 0.0,
			"-0.012": 0.0,
			"-0.011": 0.0,
			"-0.01": 0.0,
			"-0.009": 0.464405813449,
			"-0.008": 2.28562188612,
			"-0.007": 9.16638310812,
			"-0.006": 15.4302599333,
			"-0.005": 19.5486394115,
			"-0.004": 19.0924835788,
			"-0.003": 17.5412049897,
			"-0.002": 15.4245956445,
			"-0.001": 15.126994858,
			"0.0": 14.5015967628,
			"0.001": 15.6167076736,
			"0.002": 10.2043021557,
			"0.003": 6.33920179614,
			"0.004": 6.72836119335,
			"0.005": 4.65829810758,
			"0.006": 5.83833416561,
			"0.007": 4.88760597666,
			"0.008": 5.55688899738,
			"0.009": 6.43289087302,
			"0.01": 5.48838188278,
			"0.011": 4.37087507558,
			"0.012": 2.85853729632,
			"0.013": 2.19367625362,
			"0.014": 0.502485941348,
			"0.015": 0.0,
			"0.016": 0.0,
			"0.017": 0.0,
			"0.018": 0.0,
			"0.019": 0.0,
			"0.02": 0.0,
			"0.021": 0.0,
			"0.022": 0.0,
			"0.023": 0.0,
			"0.024": 0.0,
			"0.025": 0.0
		}
	}
}
