{
	 "smiles": "CC(C)C1=CC(Cl)=NC(N)=N1", 
	 "Tm": 373.15, 
	 "num_atms": 21, 
	 "gaussian": { 
		 "optdone": 1, 
		 "sigma_profile": "no", 
		 "theory": "DFT", 
		 "functional": "B3LYP", 
		 "basiset": "6-31G**", 
		 "properties": { 
			 "R2extent": 2413.1292, 
			 "electric_dipole_moment_norm": 2.44496723086, 
			 "electric_quadrupole_moment_norm": 13.1713484667, 
			 "total_energy": -897.248773652, 
			 "HOMO_LUMO_gap": 0.19989, 
			 "cosmo_polarized_energy": -33.65, 
			 "cosmo_cavitation_energy": 26.38, 
			 "cosmo_dispersion_energy": -19.33, 
			 "cosmo_repulsion_energy": 1.61, 
			 "cosmo_total_nonelectrostatic_energy": 8.65, 
			 "SMD_solvation_energy": 1.52 
		},
		"coords": [
			{
				"x": -1.7148254964,
				"y": -2.1750266865,
				"z": 0.3700078844,
				"element": "C" 
			},
			{
				"x": -0.3989222699,
				"y": -1.6741070477,
				"z": 0.9945235321,
				"element": "C" 
			},
			{
				"x": -0.5305118022,
				"y": -1.5026222836,
				"z": 2.5189501636,
				"element": "C" 
			},
			{
				"x": 0.0785806306,
				"y": -0.3967549716,
				"z": 0.324743774,
				"element": "C" 
			},
			{
				"x": -0.6591567299,
				"y": 0.7940838798,
				"z": 0.3983594248,
				"element": "C" 
			},
			{
				"x": -0.1010240092,
				"y": 1.886907226,
				"z": -0.2568286852,
				"element": "C" 
			},
			{
				"x": -0.9476974825,
				"y": 3.4320985594,
				"z": -0.2085404557,
				"element": "Cl" 
			},
			{
				"x": 1.0355576014,
				"y": 1.8624415554,
				"z": -0.9225321229,
				"element": "N" 
			},
			{
				"x": 1.6593065578,
				"y": 0.6650380841,
				"z": -0.9393328879,
				"element": "C" 
			},
			{
				"x": 2.8177842961,
				"y": 0.5936405136,
				"z": -1.6489328929,
				"element": "N" 
			},
			{
				"x": 1.2376532199,
				"y": -0.465147119,
				"z": -0.3412591199,
				"element": "N" 
			},
			{
				"x": -2.5336679215,
				"y": -1.4669135578,
				"z": 0.5378193623,
				"element": "H" 
			},
			{
				"x": -1.6120026896,
				"y": -2.3213423485,
				"z": -0.7095524019,
				"element": "H" 
			},
			{
				"x": -2.0056461748,
				"y": -3.1317780393,
				"z": 0.8162640014,
				"element": "H" 
			},
			{
				"x": 0.3820267843,
				"y": -2.4152477659,
				"z": 0.7948493884,
				"element": "H" 
			},
			{
				"x": -0.8055716168,
				"y": -2.4549265105,
				"z": 2.984217482,
				"element": "H" 
			},
			{
				"x": -1.3048600187,
				"y": -0.771984227,
				"z": 2.776846306,
				"element": "H" 
			},
			{
				"x": 0.4107631784,
				"y": -1.1668883521,
				"z": 2.9649406473,
				"element": "H" 
			},
			{
				"x": -1.5967128026,
				"y": 0.869066036,
				"z": 0.9319209465,
				"element": "H" 
			},
			{
				"x": 3.2395432246,
				"y": 1.4541368736,
				"z": -1.9574643432,
				"element": "H" 
			},
			{
				"x": 3.386883521,
				"y": -0.2292738184,
				"z": -1.5385000033,
				"element": "H" 
			}
		],
		 "valence_orbital": [ 
			{
				"type": "occ",
				"energy": -0.31056,
				"method": "rhf"
			},
			{
				"type": "occ",
				"energy": -0.30966,
				"method": "rhf"
			},
			{
				"type": "occ",
				"energy": -0.28867,
				"method": "rhf"
			},
			{
				"type": "occ",
				"energy": -0.25585,
				"method": "rhf"
			},
			{
				"type": "occ",
				"energy": -0.23156,
				"method": "rhf"
			},
			{
				"type": "unocc",
				"energy": -0.03167,
				"method": "rhf"
			},
			{
				"type": "unocc",
				"energy": -0.00552,
				"method": "rhf"
			},
			{
				"type": "unocc",
				"energy": 0.0361,
				"method": "rhf"
			},
			{
				"type": "unocc",
				"energy": 0.08599,
				"method": "rhf"
			},
			{
				"type": "unocc",
				"energy": 0.08984,
				"method": "rhf"
			}
		],
		"cosmo_sigma_profile": { 
			"0.0": 0.0,
			"0.0": 0.0,
			"0.0": 0.0,
			"0.0": 0.0,
			"0.0": 0.0,
			"0.0": 0.0,
			"0.0": 0.0,
			"0.0": 0.0,
			"0.0": 0.0,
			"0.0": 0.0,
			"0.0": 0.0,
			"0.0": 0.0,
			"0.0": 0.0,
			"0.0": 0.0,
			"0.0": 0.0,
			"0.0": 0.0,
			"0.0": 0.0,
			"0.0": 0.0,
			"0.0": 0.0,
			"0.0": 0.0,
			"0.0": 0.0,
			"0.0": 0.0,
			"0.0": 0.0,
			"0.0": 0.0,
			"0.0": 0.0,
			"0.0": 0.0,
			"0.0": 0.0,
			"0.0": 0.0,
			"0.0": 0.0,
			"0.0": 0.0,
			"0.0": 0.0,
			"0.0": 0.0,
			"0.0": 0.0,
			"0.0": 0.0,
			"0.0": 0.0,
			"0.0": 0.0,
			"0.0": 0.0,
			"0.0": 0.0,
			"0.0": 0.0,
			"0.0": 0.0,
			"0.0": 0.0,
			"0.0": 0.0,
			"0.0": 0.0,
			"0.0": 0.0,
			"0.0": 0.0,
			"0.0": 0.0,
			"0.0": 0.0,
			"0.0": 0.0,
			"0.0": 0.0,
			"0.0": 0.0,
			"0.0": 0.0
		}
	}
}
