{
	 "smiles": "COC1=C(CCl)C=C(F)C=C1", 
	 "Tm": 325.65, 
	 "num_atms": 19, 
	 "gaussian": { 
		 "optdone": 1, 
		 "sigma_profile": "yes", 
		 "theory": "DFT", 
		 "functional": "B3LYP", 
		 "basiset": "6-31G**", 
		 "properties": { 
			 "R2extent": 2275.0385, 
			 "electric_dipole_moment_norm": 3.39838019356, 
			 "electric_quadrupole_moment_norm": 12.70207875, 
			 "total_energy": -944.914466156, 
			 "HOMO_LUMO_gap": 0.19038, 
			 "cosmo_polarized_energy": -8.11, 
			 "cosmo_cavitation_energy": 25.12, 
			 "cosmo_dispersion_energy": -18.12, 
			 "cosmo_repulsion_energy": 1.45, 
			 "cosmo_total_nonelectrostatic_energy": 8.45, 
			 "SMD_solvation_energy": 5.26 
		},
		"coords": [
			{
				"x": -0.3407127714,
				"y": 2.4481273936,
				"z": 1.9531110519,
				"element": "C" 
			},
			{
				"x": -0.6767490173,
				"y": 1.1238188454,
				"z": 1.568974294,
				"element": "O" 
			},
			{
				"x": 0.0952530147,
				"y": 0.4992736014,
				"z": 0.6341585911,
				"element": "C" 
			},
			{
				"x": -0.308556943,
				"y": -0.8079495044,
				"z": 0.2813987478,
				"element": "C" 
			},
			{
				"x": -1.5144371133,
				"y": -1.4228082955,
				"z": 0.9175395172,
				"element": "C" 
			},
			{
				"x": -3.0738109429,
				"y": -0.9659287084,
				"z": 0.0538372067,
				"element": "Cl" 
			},
			{
				"x": 0.4331955789,
				"y": -1.5150900668,
				"z": -0.6665861842,
				"element": "C" 
			},
			{
				"x": 1.5532564572,
				"y": -0.9325062258,
				"z": -1.2473712222,
				"element": "C" 
			},
			{
				"x": 2.2604664963,
				"y": -1.6341423158,
				"z": -2.1603000284,
				"element": "F" 
			},
			{
				"x": 1.9598717873,
				"y": 0.3489124174,
				"z": -0.9083365067,
				"element": "C" 
			},
			{
				"x": 1.2266316881,
				"y": 1.0679230064,
				"z": 0.0393668699,
				"element": "C" 
			},
			{
				"x": -1.0899892298,
				"y": 2.7464241842,
				"z": 2.6874541842,
				"element": "H" 
			},
			{
				"x": 0.6551727742,
				"y": 2.4959654032,
				"z": 2.4122096615,
				"element": "H" 
			},
			{
				"x": -0.3781916708,
				"y": 3.1360000261,
				"z": 1.099223636,
				"element": "H" 
			},
			{
				"x": -1.4747929734,
				"y": -2.510923306,
				"z": 0.8820772698,
				"element": "H" 
			},
			{
				"x": -1.6491781863,
				"y": -1.0842957875,
				"z": 1.9427935587,
				"element": "H" 
			},
			{
				"x": 0.1414106725,
				"y": -2.5184508306,
				"z": -0.9598855422,
				"element": "H" 
			},
			{
				"x": 2.8387548948,
				"y": 0.7767604343,
				"z": -1.3781867266,
				"element": "H" 
			},
			{
				"x": 1.5471054841,
				"y": 2.0680897287,
				"z": 0.3035216215,
				"element": "H" 
			}
		],
		 "valence_orbital": [ 
			{
				"type": "occ",
				"energy": -0.3229,
				"method": "rhf"
			},
			{
				"type": "occ",
				"energy": -0.29052,
				"method": "rhf"
			},
			{
				"type": "occ",
				"energy": -0.28652,
				"method": "rhf"
			},
			{
				"type": "occ",
				"energy": -0.26369,
				"method": "rhf"
			},
			{
				"type": "occ",
				"energy": -0.22376,
				"method": "rhf"
			},
			{
				"type": "unocc",
				"energy": -0.03338,
				"method": "rhf"
			},
			{
				"type": "unocc",
				"energy": 0.00439,
				"method": "rhf"
			},
			{
				"type": "unocc",
				"energy": 0.04568,
				"method": "rhf"
			},
			{
				"type": "unocc",
				"energy": 0.08141,
				"method": "rhf"
			},
			{
				"type": "unocc",
				"energy": 0.09863,
				"method": "rhf"
			}
		],
		"cosmo_sigma_profile": { 
			"-0.025": 0.0,
			"-0.024": 0.0,
			"-0.023": 0.0,
			"-0.022": 0.0,
			"-0.021": 0.0,
			"-0.02": 0.0,
			"-0.019": 0.0,
			"-0.018": 0.0,
			"-0.017": 0.0,
			"-0.016": 0.0,
			"-0.015": 0.0,
			"-0.014": 0.0,
			"-0.013": 0.0,
			"-0.012": 0.0,
			"-0.011": 0.0,
			"-0.01": 0.0,
			"-0.009": 0.0241097936948,
			"-0.008": 3.6305545721,
			"-0.007": 8.83108217929,
			"-0.006": 14.3682624946,
			"-0.005": 16.6857045533,
			"-0.004": 15.5731385456,
			"-0.003": 13.8319875448,
			"-0.002": 9.35065697835,
			"-0.001": 6.6283003982,
			"0.0": 10.711359504,
			"0.001": 14.9377542255,
			"0.002": 16.6081190105,
			"0.003": 17.2912004804,
			"0.004": 18.866632599,
			"0.005": 12.6264056566,
			"0.006": 10.1684209655,
			"0.007": 9.65542005756,
			"0.008": 2.60468880324,
			"0.009": 0.107335534804,
			"0.01": 0.0,
			"0.011": 0.0,
			"0.012": 0.0,
			"0.013": 0.0,
			"0.014": 0.0,
			"0.015": 0.0,
			"0.016": 0.0,
			"0.017": 0.0,
			"0.018": 0.0,
			"0.019": 0.0,
			"0.02": 0.0,
			"0.021": 0.0,
			"0.022": 0.0,
			"0.023": 0.0,
			"0.024": 0.0,
			"0.025": 0.0
		}
	}
}
