{
	 "smiles": "CC1=NC2=C(C=C(C=C2)[N+]([O-])=O)C(Cl)=C1", 
	 "Tm": 414.15, 
	 "num_atms": 22, 
	 "gaussian": { 
		 "optdone": 1, 
		 "sigma_profile": "yes", 
		 "theory": "DFT", 
		 "functional": "B3LYP", 
		 "basiset": "6-31G**", 
		 "properties": { 
			 "R2extent": 4738.4972, 
			 "electric_dipole_moment_norm": 5.11880444147, 
			 "electric_quadrupole_moment_norm": 13.1524265974, 
			 "total_energy": -1105.34109819, 
			 "HOMO_LUMO_gap": 0.15945, 
			 "cosmo_polarized_energy": -9.35, 
			 "cosmo_cavitation_energy": 28.97, 
			 "cosmo_dispersion_energy": -21.46, 
			 "cosmo_repulsion_energy": 1.66, 
			 "cosmo_total_nonelectrostatic_energy": 9.18, 
			 "SMD_solvation_energy": 5.46 
		},
		"coords": [
			{
				"x": 0.0339450446,
				"y": 4.2432520229,
				"z": 1.6081005243,
				"element": "C" 
			},
			{
				"x": 0.2233392447,
				"y": 2.7490367547,
				"z": 1.5722037655,
				"element": "C" 
			},
			{
				"x": -0.7385247946,
				"y": 2.0191789709,
				"z": 1.0373376363,
				"element": "N" 
			},
			{
				"x": -0.5843825507,
				"y": 0.666773883,
				"z": 0.9963948089,
				"element": "C" 
			},
			{
				"x": 0.5729608903,
				"y": -0.0114993569,
				"z": 1.5058120582,
				"element": "C" 
			},
			{
				"x": 0.6496548501,
				"y": -1.4194514928,
				"z": 1.4220306608,
				"element": "C" 
			},
			{
				"x": -0.3937851745,
				"y": -2.1112723063,
				"z": 0.8503725543,
				"element": "C" 
			},
			{
				"x": -1.545090718,
				"y": -1.4719896509,
				"z": 0.3405896154,
				"element": "C" 
			},
			{
				"x": -1.6299668509,
				"y": -0.1030456167,
				"z": 0.4169787039,
				"element": "C" 
			},
			{
				"x": -0.3057363189,
				"y": -3.5789468639,
				"z": 0.7669363266,
				"element": "N" 
			},
			{
				"x": -1.2517508722,
				"y": -4.1739050653,
				"z": 0.2511684081,
				"element": "O" 
			},
			{
				"x": 0.7037341165,
				"y": -4.1203466286,
				"z": 1.2155495807,
				"element": "O" 
			},
			{
				"x": 1.5822493075,
				"y": 0.8204374867,
				"z": 2.0727775157,
				"element": "C" 
			},
			{
				"x": 3.0412369624,
				"y": 0.1114669363,
				"z": 2.7276327524,
				"element": "Cl" 
			},
			{
				"x": 1.4161619632,
				"y": 2.1800873621,
				"z": 2.1084564996,
				"element": "C" 
			},
			{
				"x": 0.0603246688,
				"y": 4.6165361739,
				"z": 2.6382667398,
				"element": "H" 
			},
			{
				"x": -0.9254730449,
				"y": 4.5032243519,
				"z": 1.1597511765,
				"element": "H" 
			},
			{
				"x": 0.834774425,
				"y": 4.752641143,
				"z": 1.0599444863,
				"element": "H" 
			},
			{
				"x": 1.5098721188,
				"y": -1.958047355,
				"z": 1.7976510301,
				"element": "H" 
			},
			{
				"x": -2.3304231332,
				"y": -2.0751719362,
				"z": -0.0967851381,
				"element": "H" 
			},
			{
				"x": -2.4929375112,
				"y": 0.4347297334,
				"z": 0.0399027046,
				"element": "H" 
			},
			{
				"x": 2.1796173772,
				"y": 2.8188114538,
				"z": 2.5381275902,
				"element": "H" 
			}
		],
		 "valence_orbital": [ 
			{
				"type": "occ",
				"energy": -0.30794,
				"method": "rhf"
			},
			{
				"type": "occ",
				"energy": -0.29468,
				"method": "rhf"
			},
			{
				"type": "occ",
				"energy": -0.27852,
				"method": "rhf"
			},
			{
				"type": "occ",
				"energy": -0.27793,
				"method": "rhf"
			},
			{
				"type": "occ",
				"energy": -0.25905,
				"method": "rhf"
			},
			{
				"type": "unocc",
				"energy": -0.0996,
				"method": "rhf"
			},
			{
				"type": "unocc",
				"energy": -0.06992,
				"method": "rhf"
			},
			{
				"type": "unocc",
				"energy": -0.02737,
				"method": "rhf"
			},
			{
				"type": "unocc",
				"energy": -0.00105,
				"method": "rhf"
			},
			{
				"type": "unocc",
				"energy": 0.01058,
				"method": "rhf"
			}
		],
		"cosmo_sigma_profile": { 
			"-0.025": 0.0,
			"-0.024": 0.0,
			"-0.023": 0.0,
			"-0.022": 0.0,
			"-0.021": 0.0,
			"-0.02": 0.0,
			"-0.019": 0.0,
			"-0.018": 0.0,
			"-0.017": 0.0,
			"-0.016": 0.0,
			"-0.015": 0.0,
			"-0.014": 0.0,
			"-0.013": 0.0,
			"-0.012": 0.0,
			"-0.011": 0.0,
			"-0.01": 0.0,
			"-0.009": 0.426339751868,
			"-0.008": 2.87474878904,
			"-0.007": 5.9750044783,
			"-0.006": 9.61579977437,
			"-0.005": 14.7507995553,
			"-0.004": 13.7038089718,
			"-0.003": 17.7875284702,
			"-0.002": 26.8420182167,
			"-0.001": 35.7126432576,
			"0.0": 23.1509593573,
			"0.001": 16.6131497834,
			"0.002": 11.7618421825,
			"0.003": 11.5852087534,
			"0.004": 6.50522573485,
			"0.005": 4.46292197383,
			"0.006": 5.38755630555,
			"0.007": 10.0937134207,
			"0.008": 6.79210743793,
			"0.009": 5.32361820212,
			"0.01": 3.47094677973,
			"0.011": 0.50537985054,
			"0.012": 0.925055343723,
			"0.013": 0.848525050596,
			"0.014": 0.362342227762,
			"0.015": 0.0,
			"0.016": 0.0,
			"0.017": 0.0,
			"0.018": 0.0,
			"0.019": 0.0,
			"0.02": 0.0,
			"0.021": 0.0,
			"0.022": 0.0,
			"0.023": 0.0,
			"0.024": 0.0,
			"0.025": 0.0
		}
	}
}
