{
	 "smiles": "CCOC(=O)C(CCC1=CC=CC=C1)NC1CCC2=CC=CC=C2N(CC(O)=O)C1=O", 
	 "Tm": 421.15, 
	 "num_atms": 59, 
	 "gaussian": { 
		 "optdone": 1, 
		 "sigma_profile": "yes", 
		 "theory": "DFT", 
		 "functional": "B3LYP", 
		 "basiset": "6-31G**", 
		 "properties": { 
			 "R2extent": 14588.0218, 
			 "electric_dipole_moment_norm": 3.25556486189, 
			 "electric_quadrupole_moment_norm": 25.1937350466, 
			 "total_energy": -1417.09465209, 
			 "HOMO_LUMO_gap": 0.19425, 
			 "cosmo_polarized_energy": -23.27, 
			 "cosmo_cavitation_energy": 59.78, 
			 "cosmo_dispersion_energy": -38.08, 
			 "cosmo_repulsion_energy": 2.93, 
			 "cosmo_total_nonelectrostatic_energy": 24.63, 
			 "SMD_solvation_energy": 10.63 
		},
		"coords": [
			{
				"x": 0.4883180989,
				"y": 1.0728628656,
				"z": 4.9802036918,
				"element": "C" 
			},
			{
				"x": 1.138610432,
				"y": 2.1693759533,
				"z": 4.1499227063,
				"element": "C" 
			},
			{
				"x": 0.7752796904,
				"y": 2.0586750097,
				"z": 2.7532405602,
				"element": "O" 
			},
			{
				"x": 1.5343503595,
				"y": 1.232240855,
				"z": 1.9900956757,
				"element": "C" 
			},
			{
				"x": 2.4589893972,
				"y": 0.5791299916,
				"z": 2.4261034686,
				"element": "O" 
			},
			{
				"x": 1.086678079,
				"y": 1.3016760322,
				"z": 0.5240381999,
				"element": "C" 
			},
			{
				"x": 1.9291254836,
				"y": 2.3736335216,
				"z": -0.2137061729,
				"element": "C" 
			},
			{
				"x": 3.467586496,
				"y": 2.2087198633,
				"z": -0.2163668174,
				"element": "C" 
			},
			{
				"x": 4.023681329,
				"y": 1.0842955324,
				"z": -1.070938237,
				"element": "C" 
			},
			{
				"x": 4.2078404542,
				"y": 1.2615012277,
				"z": -2.4503697542,
				"element": "C" 
			},
			{
				"x": 4.7288777264,
				"y": 0.2378488705,
				"z": -3.2434171536,
				"element": "C" 
			},
			{
				"x": 5.0791584277,
				"y": -0.9842902867,
				"z": -2.6658795845,
				"element": "C" 
			},
			{
				"x": 4.8994246532,
				"y": -1.174045201,
				"z": -1.2941164449,
				"element": "C" 
			},
			{
				"x": 4.3755907159,
				"y": -0.1497487573,
				"z": -0.5031165129,
				"element": "C" 
			},
			{
				"x": 1.1523985012,
				"y": -0.0182505384,
				"z": -0.0981193459,
				"element": "N" 
			},
			{
				"x": -0.0872868669,
				"y": -0.7258181032,
				"z": -0.3504083335,
				"element": "C" 
			},
			{
				"x": -0.8369257115,
				"y": -1.0334110558,
				"z": 0.9671163659,
				"element": "C" 
			},
			{
				"x": -2.2637105872,
				"y": -1.5792392706,
				"z": 0.7522226769,
				"element": "C" 
			},
			{
				"x": -2.3542428128,
				"y": -2.6028199644,
				"z": -0.3535906711,
				"element": "C" 
			},
			{
				"x": -2.5898417189,
				"y": -3.95637911,
				"z": -0.0919235731,
				"element": "C" 
			},
			{
				"x": -2.6964779262,
				"y": -4.8894498392,
				"z": -1.1236438801,
				"element": "C" 
			},
			{
				"x": -2.5526997755,
				"y": -4.4732038779,
				"z": -2.4472687518,
				"element": "C" 
			},
			{
				"x": -2.2962692132,
				"y": -3.1328504351,
				"z": -2.7325267233,
				"element": "C" 
			},
			{
				"x": -2.1993447189,
				"y": -2.1973735888,
				"z": -1.6948187873,
				"element": "C" 
			},
			{
				"x": -1.9750970487,
				"y": -0.8175164357,
				"z": -1.9964953445,
				"element": "N" 
			},
			{
				"x": -2.7477079536,
				"y": -0.1605371971,
				"z": -3.0453303212,
				"element": "C" 
			},
			{
				"x": -1.9971189546,
				"y": 0.1508298388,
				"z": -4.3351652532,
				"element": "C" 
			},
			{
				"x": -0.9114188069,
				"y": -0.633475411,
				"z": -4.5228256755,
				"element": "O" 
			},
			{
				"x": -2.3671411842,
				"y": 0.975366898,
				"z": -5.1375851961,
				"element": "O" 
			},
			{
				"x": -0.9906413926,
				"y": -0.0409845851,
				"z": -1.4038005463,
				"element": "C" 
			},
			{
				"x": -0.8331663628,
				"y": 1.1218946311,
				"z": -1.7635707047,
				"element": "O" 
			},
			{
				"x": 0.8659829577,
				"y": 0.0922775359,
				"z": 4.6806075784,
				"element": "H" 
			},
			{
				"x": -0.5993831583,
				"y": 1.0873326937,
				"z": 4.8616646004,
				"element": "H" 
			},
			{
				"x": 0.7195352817,
				"y": 1.2209970771,
				"z": 6.0404513376,
				"element": "H" 
			},
			{
				"x": 2.2273801186,
				"y": 2.1310000948,
				"z": 4.2351949315,
				"element": "H" 
			},
			{
				"x": 0.7845559935,
				"y": 3.1595991554,
				"z": 4.4474288356,
				"element": "H" 
			},
			{
				"x": 0.062204519,
				"y": 1.6844691084,
				"z": 0.5165285654,
				"element": "H" 
			},
			{
				"x": 1.6968785533,
				"y": 3.338217955,
				"z": 0.2534375391,
				"element": "H" 
			},
			{
				"x": 1.5447564114,
				"y": 2.4179773235,
				"z": -1.2383621298,
				"element": "H" 
			},
			{
				"x": 3.8213316356,
				"y": 2.0871276314,
				"z": 0.812162571,
				"element": "H" 
			},
			{
				"x": 3.8850190603,
				"y": 3.15619337,
				"z": -0.5790904855,
				"element": "H" 
			},
			{
				"x": 3.94859819,
				"y": 2.2153120572,
				"z": -2.9050723538,
				"element": "H" 
			},
			{
				"x": 4.8688894561,
				"y": 0.3978004399,
				"z": -4.3091724943,
				"element": "H" 
			},
			{
				"x": 5.4908167395,
				"y": -1.7808392056,
				"z": -3.2794862662,
				"element": "H" 
			},
			{
				"x": 5.168370853,
				"y": -2.1221938527,
				"z": -0.8363537921,
				"element": "H" 
			},
			{
				"x": 4.2113212267,
				"y": -0.3052584768,
				"z": 0.5591533435,
				"element": "H" 
			},
			{
				"x": 1.7394655953,
				"y": -0.0097620293,
				"z": -0.9213680633,
				"element": "H" 
			},
			{
				"x": 0.1936128459,
				"y": -1.6921282953,
				"z": -0.7885387447,
				"element": "H" 
			},
			{
				"x": -0.9004524751,
				"y": -0.1285658326,
				"z": 1.5806632585,
				"element": "H" 
			},
			{
				"x": -0.2255873909,
				"y": -1.7518807838,
				"z": 1.5231526816,
				"element": "H" 
			},
			{
				"x": -2.929899331,
				"y": -0.7413602268,
				"z": 0.5092885628,
				"element": "H" 
			},
			{
				"x": -2.6315565982,
				"y": -2.0105070889,
				"z": 1.6883739903,
				"element": "H" 
			},
			{
				"x": -2.7086672798,
				"y": -4.2761125321,
				"z": 0.9402318419,
				"element": "H" 
			},
			{
				"x": -2.8908662485,
				"y": -5.9329117926,
				"z": -0.8946571616,
				"element": "H" 
			},
			{
				"x": -2.6253095076,
				"y": -5.1904236782,
				"z": -3.2594126198,
				"element": "H" 
			},
			{
				"x": -2.1433734578,
				"y": -2.8095090526,
				"z": -3.7565176552,
				"element": "H" 
			},
			{
				"x": -3.1295545915,
				"y": 0.7967517074,
				"z": -2.6846022272,
				"element": "H" 
			},
			{
				"x": -3.6005901793,
				"y": -0.7956642103,
				"z": -3.2989618065,
				"element": "H" 
			},
			{
				"x": -0.5192980293,
				"y": -0.3505965255,
				"z": -5.3662033981,
				"element": "H" 
			}
		],
		 "valence_orbital": [ 
			{
				"type": "occ",
				"energy": -0.25538,
				"method": "rhf"
			},
			{
				"type": "occ",
				"energy": -0.2407,
				"method": "rhf"
			},
			{
				"type": "occ",
				"energy": -0.23301,
				"method": "rhf"
			},
			{
				"type": "occ",
				"energy": -0.2317,
				"method": "rhf"
			},
			{
				"type": "occ",
				"energy": -0.21353,
				"method": "rhf"
			},
			{
				"type": "unocc",
				"energy": -0.01928,
				"method": "rhf"
			},
			{
				"type": "unocc",
				"energy": -0.01241,
				"method": "rhf"
			},
			{
				"type": "unocc",
				"energy": 0.00606,
				"method": "rhf"
			},
			{
				"type": "unocc",
				"energy": 0.00708,
				"method": "rhf"
			},
			{
				"type": "unocc",
				"energy": 0.00884,
				"method": "rhf"
			}
		],
		"cosmo_sigma_profile": { 
			"-0.025": 0.0,
			"-0.024": 0.0,
			"-0.023": 0.0,
			"-0.022": 0.0,
			"-0.021": 0.0,
			"-0.02": 0.0,
			"-0.019": 0.24547157524,
			"-0.018": 0.871402289341,
			"-0.017": 0.992343631906,
			"-0.016": 0.819683012131,
			"-0.015": 0.806796066322,
			"-0.014": 0.60763114035,
			"-0.013": 0.380557988515,
			"-0.012": 0.983838220752,
			"-0.011": 1.22738281633,
			"-0.01": 0.29676911373,
			"-0.009": 1.63615329407,
			"-0.008": 4.03526762162,
			"-0.007": 4.84553168411,
			"-0.006": 14.4002771336,
			"-0.005": 31.5357634312,
			"-0.004": 44.2761627926,
			"-0.003": 56.4225755114,
			"-0.002": 49.9784919108,
			"-0.001": 42.0464086491,
			"0.0": 34.9346780596,
			"0.001": 24.97377828,
			"0.002": 19.9653917804,
			"0.003": 22.7915432031,
			"0.004": 23.6716416929,
			"0.005": 24.3379566655,
			"0.006": 16.451765927,
			"0.007": 8.28065296761,
			"0.008": 5.82081158626,
			"0.009": 5.35033473619,
			"0.01": 6.27173577467,
			"0.011": 9.62153066447,
			"0.012": 7.99341212323,
			"0.013": 1.63358478968,
			"0.014": 1.09882367222,
			"0.015": 0.526499092631,
			"0.016": 0.516048934698,
			"0.017": 0.0113023368275,
			"0.018": 0.0,
			"0.019": 0.0,
			"0.02": 0.0,
			"0.021": 0.0,
			"0.022": 0.0,
			"0.023": 0.0,
			"0.024": 0.0,
			"0.025": 0.0
		}
	}
}
