{
	 "smiles": "NNC(=O)C1=CC(O)=CC(O)=C1", 
	 "Tm": 530.15, 
	 "num_atms": 20, 
	 "gaussian": { 
		 "optdone": 1, 
		 "sigma_profile": "yes", 
		 "theory": "DFT", 
		 "functional": "B3LYP", 
		 "basiset": "6-31G**", 
		 "properties": { 
			 "R2extent": 2812.9489, 
			 "electric_dipole_moment_norm": 3.48514531978, 
			 "electric_quadrupole_moment_norm": 12.0627193344, 
			 "total_energy": -606.714578425, 
			 "HOMO_LUMO_gap": 0.18742, 
			 "cosmo_polarized_energy": -21.28, 
			 "cosmo_cavitation_energy": 24.96, 
			 "cosmo_dispersion_energy": -18.57, 
			 "cosmo_repulsion_energy": 1.5, 
			 "cosmo_total_nonelectrostatic_energy": 7.89, 
			 "SMD_solvation_energy": 6.07 
		},
		"coords": [
			{
				"x": 2.0228960753,
				"y": -2.3358886304,
				"z": 1.2165759395,
				"element": "N" 
			},
			{
				"x": 1.2673389465,
				"y": -1.3029906325,
				"z": 0.6140889762,
				"element": "N" 
			},
			{
				"x": 0.3649992529,
				"y": -1.6164502127,
				"z": -0.3806410026,
				"element": "C" 
			},
			{
				"x": 0.3037017345,
				"y": -2.7463204263,
				"z": -0.8543425976,
				"element": "O" 
			},
			{
				"x": -0.5265107828,
				"y": -0.4937504152,
				"z": -0.824694028,
				"element": "C" 
			},
			{
				"x": -1.7414929761,
				"y": -0.8389716746,
				"z": -1.4140652568,
				"element": "C" 
			},
			{
				"x": -2.6100971599,
				"y": 0.1739054825,
				"z": -1.835454452,
				"element": "C" 
			},
			{
				"x": -3.7920134982,
				"y": -0.2111023175,
				"z": -2.3946501572,
				"element": "O" 
			},
			{
				"x": -2.2635902181,
				"y": 1.5179264374,
				"z": -1.6806105695,
				"element": "C" 
			},
			{
				"x": -1.0333103752,
				"y": 1.8514065999,
				"z": -1.1054555899,
				"element": "C" 
			},
			{
				"x": -0.7428547845,
				"y": 3.1813534477,
				"z": -1.0037117053,
				"element": "O" 
			},
			{
				"x": -0.158730791,
				"y": 0.8526062575,
				"z": -0.6711286076,
				"element": "C" 
			},
			{
				"x": 2.8656867608,
				"y": -2.4564409423,
				"z": 0.6555389515,
				"element": "H" 
			},
			{
				"x": 1.4879145767,
				"y": -3.1962263497,
				"z": 1.0802808387,
				"element": "H" 
			},
			{
				"x": 1.0311416293,
				"y": -0.5539171004,
				"z": 1.2501293498,
				"element": "H" 
			},
			{
				"x": -2.0061459656,
				"y": -1.8808140976,
				"z": -1.5455554436,
				"element": "H" 
			},
			{
				"x": -4.295207784,
				"y": 0.5724139775,
				"z": -2.6516883295,
				"element": "H" 
			},
			{
				"x": -2.9238264317,
				"y": 2.3164238872,
				"z": -2.0075383744,
				"element": "H" 
			},
			{
				"x": 0.1298155113,
				"y": 3.2859874869,
				"z": -0.6031709419,
				"element": "H" 
			},
			{
				"x": 0.8137862798,
				"y": 1.1195492225,
				"z": -0.266707,
				"element": "H" 
			}
		],
		 "valence_orbital": [ 
			{
				"type": "occ",
				"energy": -0.29038,
				"method": "rhf"
			},
			{
				"type": "occ",
				"energy": -0.2612,
				"method": "rhf"
			},
			{
				"type": "occ",
				"energy": -0.25289,
				"method": "rhf"
			},
			{
				"type": "occ",
				"energy": -0.24387,
				"method": "rhf"
			},
			{
				"type": "occ",
				"energy": -0.22443,
				"method": "rhf"
			},
			{
				"type": "unocc",
				"energy": -0.03701,
				"method": "rhf"
			},
			{
				"type": "unocc",
				"energy": 0.00923,
				"method": "rhf"
			},
			{
				"type": "unocc",
				"energy": 0.05747,
				"method": "rhf"
			},
			{
				"type": "unocc",
				"energy": 0.06085,
				"method": "rhf"
			},
			{
				"type": "unocc",
				"energy": 0.06567,
				"method": "rhf"
			}
		],
		"cosmo_sigma_profile": { 
			"-0.025": 0.0,
			"-0.024": 0.0,
			"-0.023": 0.0,
			"-0.022": 0.0,
			"-0.021": 0.0,
			"-0.02": 0.0,
			"-0.019": 0.0166887229814,
			"-0.018": 1.30479364116,
			"-0.017": 2.59314538974,
			"-0.016": 1.95060320372,
			"-0.015": 2.16498802805,
			"-0.014": 2.41082738627,
			"-0.013": 3.34366539869,
			"-0.012": 2.68507551939,
			"-0.011": 4.36501378963,
			"-0.01": 5.49260502656,
			"-0.009": 6.69736450177,
			"-0.008": 6.42927390162,
			"-0.007": 4.33231705403,
			"-0.006": 5.07872639335,
			"-0.005": 7.34321779966,
			"-0.004": 6.36595371689,
			"-0.003": 7.04571040287,
			"-0.002": 6.53387626675,
			"-0.001": 6.34793611214,
			"0.0": 9.50747158844,
			"0.001": 9.45886596263,
			"0.002": 10.6202229846,
			"0.003": 18.2423825961,
			"0.004": 17.7417531858,
			"0.005": 6.36144661174,
			"0.006": 5.23512080098,
			"0.007": 5.56207810978,
			"0.008": 3.97399968405,
			"0.009": 4.1092460328,
			"0.01": 6.60300607176,
			"0.011": 5.60671320229,
			"0.012": 3.71691358847,
			"0.013": 5.29393486047,
			"0.014": 1.40242943893,
			"0.015": 0.902793681663,
			"0.016": 0.447947668153,
			"0.017": 0.285275968039,
			"0.018": 0.0,
			"0.019": 0.0,
			"0.02": 0.0,
			"0.021": 0.0,
			"0.022": 0.0,
			"0.023": 0.0,
			"0.024": 0.0,
			"0.025": 0.0
		}
	}
}
