{
	 "smiles": "CC1=C(C)C(Br)=C(Br)C(Br)=C1Br", 
	 "Tm": 535.15, 
	 "num_atms": 18, 
	 "gaussian": { 
		 "optdone": 1, 
		 "sigma_profile": "yes", 
		 "theory": "DFT", 
		 "functional": "B3LYP", 
		 "basiset": "6-31G**", 
		 "properties": { 
			 "R2extent": 7464.8108, 
			 "electric_dipole_moment_norm": 2.81259840361, 
			 "electric_quadrupole_moment_norm": 3.02117142513, 
			 "total_energy": -10594.074872, 
			 "HOMO_LUMO_gap": 0.19219, 
			 "cosmo_polarized_energy": -4.58, 
			 "cosmo_cavitation_energy": 29.27, 
			 "cosmo_dispersion_energy": -23.3, 
			 "cosmo_repulsion_energy": 1.81, 
			 "cosmo_total_nonelectrostatic_energy": 7.78, 
			 "SMD_solvation_energy": 1.15 
		},
		"coords": [
			{
				"x": -2.2139298579,
				"y": -0.6998354884,
				"z": -0.4114477627,
				"element": "C" 
			},
			{
				"x": -0.7875401684,
				"y": -0.2213249346,
				"z": -0.2711639964,
				"element": "C" 
			},
			{
				"x": 0.1332533251,
				"y": -1.0276923179,
				"z": 0.4365618492,
				"element": "C" 
			},
			{
				"x": -0.3556364104,
				"y": -2.3169467953,
				"z": 1.0545645302,
				"element": "C" 
			},
			{
				"x": 1.468029617,
				"y": -0.6089579982,
				"z": 0.5408025171,
				"element": "C" 
			},
			{
				"x": 2.7304560793,
				"y": -1.7180109087,
				"z": 1.4510924612,
				"element": "Br" 
			},
			{
				"x": 1.9027926069,
				"y": 0.602488786,
				"z": -0.0199908766,
				"element": "C" 
			},
			{
				"x": 3.7145529762,
				"y": 1.1422725869,
				"z": 0.1379831803,
				"element": "Br" 
			},
			{
				"x": 0.9831000159,
				"y": 1.4157341194,
				"z": -0.6979099135,
				"element": "C" 
			},
			{
				"x": 1.543844273,
				"y": 3.0654868744,
				"z": -1.4479179586,
				"element": "Br" 
			},
			{
				"x": -0.3509299914,
				"y": 0.9947618093,
				"z": -0.8173749632,
				"element": "C" 
			},
			{
				"x": -1.6010039499,
				"y": 2.1151469341,
				"z": -1.7308522005,
				"element": "Br" 
			},
			{
				"x": -2.7627067056,
				"y": -0.5792531916,
				"z": 0.530968931,
				"element": "H" 
			},
			{
				"x": -2.2459334107,
				"y": -1.7611919216,
				"z": -0.671140595,
				"element": "H" 
			},
			{
				"x": -2.7507541687,
				"y": -0.1449142011,
				"z": -1.1777045421,
				"element": "H" 
			},
			{
				"x": 0.3545420803,
				"y": -2.7105987072,
				"z": 1.7784184332,
				"element": "H" 
			},
			{
				"x": -0.5081921274,
				"y": -3.0865537391,
				"z": 0.2875620829,
				"element": "H" 
			},
			{
				"x": -1.3136441832,
				"y": -2.1690109063,
				"z": 1.5597488234,
				"element": "H" 
			}
		],
		 "valence_orbital": [ 
			{
				"type": "occ",
				"energy": -0.29693,
				"method": "rhf"
			},
			{
				"type": "occ",
				"energy": -0.28764,
				"method": "rhf"
			},
			{
				"type": "occ",
				"energy": -0.26011,
				"method": "rhf"
			},
			{
				"type": "occ",
				"energy": -0.24819,
				"method": "rhf"
			},
			{
				"type": "occ",
				"energy": -0.24505,
				"method": "rhf"
			},
			{
				"type": "unocc",
				"energy": -0.05286,
				"method": "rhf"
			},
			{
				"type": "unocc",
				"energy": -0.03694,
				"method": "rhf"
			},
			{
				"type": "unocc",
				"energy": -0.036,
				"method": "rhf"
			},
			{
				"type": "unocc",
				"energy": -0.00319,
				"method": "rhf"
			},
			{
				"type": "unocc",
				"energy": 0.03621,
				"method": "rhf"
			}
		],
		"cosmo_sigma_profile": { 
			"-0.025": 0.0,
			"-0.024": 0.0,
			"-0.023": 0.0,
			"-0.022": 0.0,
			"-0.021": 0.0,
			"-0.02": 0.0,
			"-0.019": 0.0,
			"-0.018": 0.0,
			"-0.017": 0.0,
			"-0.016": 0.0,
			"-0.015": 0.0,
			"-0.014": 0.0,
			"-0.013": 0.0,
			"-0.012": 0.0,
			"-0.011": 0.0,
			"-0.01": 0.0,
			"-0.009": 0.0,
			"-0.008": 0.0,
			"-0.007": 0.0,
			"-0.006": 5.80055786053,
			"-0.005": 14.1944725403,
			"-0.004": 13.4519876842,
			"-0.003": 17.2715731612,
			"-0.002": 20.9745256892,
			"-0.001": 31.4027732506,
			"0.0": 41.4384410689,
			"0.001": 20.5471240911,
			"0.002": 20.1611334292,
			"0.003": 24.8426934465,
			"0.004": 29.2331663228,
			"0.005": 6.98236633448,
			"0.006": 0.0,
			"0.007": 0.0,
			"0.008": 0.0,
			"0.009": 0.0,
			"0.01": 0.0,
			"0.011": 0.0,
			"0.012": 0.0,
			"0.013": 0.0,
			"0.014": 0.0,
			"0.015": 0.0,
			"0.016": 0.0,
			"0.017": 0.0,
			"0.018": 0.0,
			"0.019": 0.0,
			"0.02": 0.0,
			"0.021": 0.0,
			"0.022": 0.0,
			"0.023": 0.0,
			"0.024": 0.0,
			"0.025": 0.0
		}
	}
}
