{
	 "smiles": "COC1=CC(Cl)=C(OC)C=C1NC(=O)NN", 
	 "Tm": 442.15, 
	 "num_atms": 28, 
	 "gaussian": { 
		 "optdone": 1, 
		 "sigma_profile": "yes", 
		 "theory": "DFT", 
		 "functional": "B3LYP", 
		 "basiset": "6-31G**", 
		 "properties": { 
			 "R2extent": 4571.0634, 
			 "electric_dipole_moment_norm": 1.92708986298, 
			 "electric_quadrupole_moment_norm": 30.1553322298, 
			 "total_energy": -1200.26353555, 
			 "HOMO_LUMO_gap": 0.1804, 
			 "cosmo_polarized_energy": -17.41, 
			 "cosmo_cavitation_energy": 33.67, 
			 "cosmo_dispersion_energy": -24.03, 
			 "cosmo_repulsion_energy": 1.91, 
			 "cosmo_total_nonelectrostatic_energy": 11.55, 
			 "SMD_solvation_energy": 8.29 
		},
		"coords": [
			{
				"x": -1.8084323866,
				"y": -0.041801973,
				"z": 3.6394717527,
				"element": "C" 
			},
			{
				"x": -1.1946709722,
				"y": -0.7684474794,
				"z": 2.5851950552,
				"element": "O" 
			},
			{
				"x": -0.5438259812,
				"y": -0.0624715705,
				"z": 1.6069532438,
				"element": "C" 
			},
			{
				"x": -0.4825570814,
				"y": 1.3271186372,
				"z": 1.5323448455,
				"element": "C" 
			},
			{
				"x": 0.2236128296,
				"y": 1.9475742524,
				"z": 0.5016054156,
				"element": "C" 
			},
			{
				"x": 0.2673345419,
				"y": 3.6963405271,
				"z": 0.427194706,
				"element": "Cl" 
			},
			{
				"x": 0.9004378187,
				"y": 1.1880273884,
				"z": -0.4629024862,
				"element": "C" 
			},
			{
				"x": 1.5840282387,
				"y": 1.8650462698,
				"z": -1.4222646731,
				"element": "O" 
			},
			{
				"x": 2.3079194901,
				"y": 1.122399016,
				"z": -2.3916268912,
				"element": "C" 
			},
			{
				"x": 0.8433170712,
				"y": -0.2108770417,
				"z": -0.3764652898,
				"element": "C" 
			},
			{
				"x": 0.1128780087,
				"y": -0.8463138953,
				"z": 0.6343347136,
				"element": "C" 
			},
			{
				"x": 0.029023406,
				"y": -2.2418547607,
				"z": 0.7805099801,
				"element": "N" 
			},
			{
				"x": 0.4812740977,
				"y": -3.2609215183,
				"z": -0.054784606,
				"element": "C" 
			},
			{
				"x": 0.9373579102,
				"y": -4.3024768597,
				"z": 0.3942155912,
				"element": "O" 
			},
			{
				"x": 0.3589282027,
				"y": -3.0416078099,
				"z": -1.4251367064,
				"element": "N" 
			},
			{
				"x": -0.7520834103,
				"y": -2.3802481188,
				"z": -2.0059505775,
				"element": "N" 
			},
			{
				"x": -2.2343946868,
				"y": -0.7876635926,
				"z": 4.311815511,
				"element": "H" 
			},
			{
				"x": -1.0778956243,
				"y": 0.5668977691,
				"z": 4.1871011727,
				"element": "H" 
			},
			{
				"x": -2.6107473018,
				"y": 0.6067929868,
				"z": 3.2656717113,
				"element": "H" 
			},
			{
				"x": -0.9835906284,
				"y": 1.9479574034,
				"z": 2.2634365635,
				"element": "H" 
			},
			{
				"x": 1.647340303,
				"y": 0.4796488613,
				"z": -2.9877635003,
				"element": "H" 
			},
			{
				"x": 3.0887465633,
				"y": 0.5056176378,
				"z": -1.9292393652,
				"element": "H" 
			},
			{
				"x": 2.7731158693,
				"y": 1.8616029506,
				"z": -3.0447720971,
				"element": "H" 
			},
			{
				"x": 1.395223052,
				"y": -0.8250186473,
				"z": -1.0766351132,
				"element": "H" 
			},
			{
				"x": -0.0685476033,
				"y": -2.5555613217,
				"z": 1.7379039598,
				"element": "H" 
			},
			{
				"x": 0.619625706,
				"y": -3.8751033834,
				"z": -1.9383616641,
				"element": "H" 
			},
			{
				"x": -1.5886249948,
				"y": -2.5552585363,
				"z": -1.4511757049,
				"element": "H" 
			},
			{
				"x": -0.5825924381,
				"y": -1.3774971914,
				"z": -1.9868755472,
				"element": "H" 
			}
		],
		 "valence_orbital": [ 
			{
				"type": "occ",
				"energy": -0.2858,
				"method": "rhf"
			},
			{
				"type": "occ",
				"energy": -0.26534,
				"method": "rhf"
			},
			{
				"type": "occ",
				"energy": -0.25471,
				"method": "rhf"
			},
			{
				"type": "occ",
				"energy": -0.24204,
				"method": "rhf"
			},
			{
				"type": "occ",
				"energy": -0.2035,
				"method": "rhf"
			},
			{
				"type": "unocc",
				"energy": -0.0231,
				"method": "rhf"
			},
			{
				"type": "unocc",
				"energy": 0.00556,
				"method": "rhf"
			},
			{
				"type": "unocc",
				"energy": 0.02972,
				"method": "rhf"
			},
			{
				"type": "unocc",
				"energy": 0.03877,
				"method": "rhf"
			},
			{
				"type": "unocc",
				"energy": 0.07854,
				"method": "rhf"
			}
		],
		"cosmo_sigma_profile": { 
			"-0.025": 0.0,
			"-0.024": 0.0,
			"-0.023": 0.0,
			"-0.022": 0.0,
			"-0.021": 0.0,
			"-0.02": 0.0,
			"-0.019": 0.0,
			"-0.018": 0.0,
			"-0.017": 0.0,
			"-0.016": 0.0,
			"-0.015": 0.0,
			"-0.014": 0.0616888005805,
			"-0.013": 0.717765872393,
			"-0.012": 1.61838408246,
			"-0.011": 2.84473552706,
			"-0.01": 2.96425883995,
			"-0.009": 2.92235387832,
			"-0.008": 5.17744419278,
			"-0.007": 8.93641020961,
			"-0.006": 19.5668579252,
			"-0.005": 22.3452571287,
			"-0.004": 22.4293422694,
			"-0.003": 19.7374979346,
			"-0.002": 13.7942236265,
			"-0.001": 11.5259109691,
			"0.0": 13.1010954244,
			"0.001": 14.5152742322,
			"0.002": 19.2773479736,
			"0.003": 20.851584126,
			"0.004": 14.7261648989,
			"0.005": 11.7161627962,
			"0.006": 5.93892915018,
			"0.007": 4.76644947981,
			"0.008": 3.95333179591,
			"0.009": 4.49691854543,
			"0.01": 3.58229003851,
			"0.011": 3.24970399844,
			"0.012": 2.50823759478,
			"0.013": 6.51353618449,
			"0.014": 3.84044947184,
			"0.015": 0.692156023508,
			"0.016": 0.4407240844,
			"0.017": 0.121392077921,
			"0.018": 0.0,
			"0.019": 0.0,
			"0.02": 0.0,
			"0.021": 0.0,
			"0.022": 0.0,
			"0.023": 0.0,
			"0.024": 0.0,
			"0.025": 0.0
		}
	}
}
