{
	 "smiles": "CN(C)CCCCCCN(C)C", 
	 "Tm": 227.15, 
	 "num_atms": 36, 
	 "gaussian": { 
		 "optdone": 1, 
		 "sigma_profile": "yes", 
		 "theory": "DFT", 
		 "functional": "B3LYP", 
		 "basiset": "6-31G**", 
		 "properties": { 
			 "R2extent": 3765.6574, 
			 "electric_dipole_moment_norm": 0.686887538102, 
			 "electric_quadrupole_moment_norm": 3.28520578199, 
			 "total_energy": -505.014515883, 
			 "HOMO_LUMO_gap": 0.2816, 
			 "cosmo_polarized_energy": -4.68, 
			 "cosmo_cavitation_energy": 35.25, 
			 "cosmo_dispersion_energy": -24.21, 
			 "cosmo_repulsion_energy": 1.96, 
			 "cosmo_total_nonelectrostatic_energy": 13.01, 
			 "SMD_solvation_energy": 0.82 
		},
		"coords": [
			{
				"x": -3.7057729475,
				"y": 1.0370530049,
				"z": 0.8127028807,
				"element": "C" 
			},
			{
				"x": -3.2041574161,
				"y": 0.5537572321,
				"z": -0.4670407826,
				"element": "N" 
			},
			{
				"x": -3.6672518155,
				"y": -0.8046382334,
				"z": -0.721166454,
				"element": "C" 
			},
			{
				"x": -1.7460815453,
				"y": 0.6778737932,
				"z": -0.5431006409,
				"element": "C" 
			},
			{
				"x": -1.1975169351,
				"y": 0.4649597407,
				"z": -1.960484167,
				"element": "C" 
			},
			{
				"x": 0.2473026257,
				"y": 0.9443549607,
				"z": -2.1969695186,
				"element": "C" 
			},
			{
				"x": 1.3698279866,
				"y": 0.1566797117,
				"z": -1.4893957664,
				"element": "C" 
			},
			{
				"x": 1.6809155534,
				"y": 0.5998958483,
				"z": -0.0484992276,
				"element": "C" 
			},
			{
				"x": 2.8610200372,
				"y": -0.1370718214,
				"z": 0.6219487155,
				"element": "C" 
			},
			{
				"x": 2.4611909018,
				"y": -1.1925359598,
				"z": 1.5572379983,
				"element": "N" 
			},
			{
				"x": 1.7507721044,
				"y": -2.2928036229,
				"z": 0.9209014679,
				"element": "C" 
			},
			{
				"x": 3.607822888,
				"y": -1.682652686,
				"z": 2.3096511649,
				"element": "C" 
			},
			{
				"x": -3.3390916457,
				"y": 0.4521289924,
				"z": 1.6794489164,
				"element": "H" 
			},
			{
				"x": -3.4063316589,
				"y": 2.0798053733,
				"z": 0.9601467763,
				"element": "H" 
			},
			{
				"x": -4.79999676,
				"y": 0.9952707051,
				"z": 0.8202853599,
				"element": "H" 
			},
			{
				"x": -3.3774075226,
				"y": -1.1292369409,
				"z": -1.7237006231,
				"element": "H" 
			},
			{
				"x": -3.2713626508,
				"y": -1.5424231257,
				"z": 0.0056303102,
				"element": "H" 
			},
			{
				"x": -4.7602428757,
				"y": -0.834009813,
				"z": -0.6670726324,
				"element": "H" 
			},
			{
				"x": -1.2524918999,
				"y": -0.0118122647,
				"z": 0.1706531623,
				"element": "H" 
			},
			{
				"x": -1.4906612382,
				"y": 1.6947472669,
				"z": -0.2192354137,
				"element": "H" 
			},
			{
				"x": -1.260960226,
				"y": -0.5953049197,
				"z": -2.2375148967,
				"element": "H" 
			},
			{
				"x": -1.8619142003,
				"y": 1.0052620976,
				"z": -2.6462980941,
				"element": "H" 
			},
			{
				"x": 0.3279169001,
				"y": 2.0092027573,
				"z": -1.9344866066,
				"element": "H" 
			},
			{
				"x": 0.4265126366,
				"y": 0.891898919,
				"z": -3.2781135279,
				"element": "H" 
			},
			{
				"x": 1.1351308532,
				"y": -0.9152401847,
				"z": -1.5230524924,
				"element": "H" 
			},
			{
				"x": 2.2923935624,
				"y": 0.2729619223,
				"z": -2.0737152513,
				"element": "H" 
			},
			{
				"x": 0.8066869243,
				"y": 0.5007591704,
				"z": 0.6031144323,
				"element": "H" 
			},
			{
				"x": 1.914046659,
				"y": 1.6721475307,
				"z": -0.0760762059,
				"element": "H" 
			},
			{
				"x": 3.4446756068,
				"y": 0.5842567681,
				"z": 1.2052890881,
				"element": "H" 
			},
			{
				"x": 3.5475103377,
				"y": -0.5267519793,
				"z": -0.1593962644,
				"element": "H" 
			},
			{
				"x": 1.4777765496,
				"y": -3.0354351629,
				"z": 1.6777844741,
				"element": "H" 
			},
			{
				"x": 2.3461350494,
				"y": -2.8073993437,
				"z": 0.1400865299,
				"element": "H" 
			},
			{
				"x": 0.8252108558,
				"y": -1.9365797188,
				"z": 0.461677803,
				"element": "H" 
			},
			{
				"x": 3.2768715663,
				"y": -2.4158086603,
				"z": 3.052643621,
				"element": "H" 
			},
			{
				"x": 4.3773756156,
				"y": -2.1672304511,
				"z": 1.6761764147,
				"element": "H" 
			},
			{
				"x": 4.0857461236,
				"y": -0.8536809063,
				"z": 2.8421394502,
				"element": "H" 
			}
		],
		 "valence_orbital": [ 
			{
				"type": "occ",
				"energy": -0.31587,
				"method": "rhf"
			},
			{
				"type": "occ",
				"energy": -0.30941,
				"method": "rhf"
			},
			{
				"type": "occ",
				"energy": -0.30439,
				"method": "rhf"
			},
			{
				"type": "occ",
				"energy": -0.20634,
				"method": "rhf"
			},
			{
				"type": "occ",
				"energy": -0.20564,
				"method": "rhf"
			},
			{
				"type": "unocc",
				"energy": 0.07596,
				"method": "rhf"
			},
			{
				"type": "unocc",
				"energy": 0.08978,
				"method": "rhf"
			},
			{
				"type": "unocc",
				"energy": 0.09768,
				"method": "rhf"
			},
			{
				"type": "unocc",
				"energy": 0.10813,
				"method": "rhf"
			},
			{
				"type": "unocc",
				"energy": 0.1166,
				"method": "rhf"
			}
		],
		"cosmo_sigma_profile": { 
			"-0.025": 0.0,
			"-0.024": 0.0,
			"-0.023": 0.0,
			"-0.022": 0.0,
			"-0.021": 0.0,
			"-0.02": 0.0,
			"-0.019": 0.0,
			"-0.018": 0.0,
			"-0.017": 0.0,
			"-0.016": 0.0,
			"-0.015": 0.0,
			"-0.014": 0.0,
			"-0.013": 0.0,
			"-0.012": 0.0,
			"-0.011": 0.0,
			"-0.01": 0.0,
			"-0.009": 0.0,
			"-0.008": 0.0,
			"-0.007": 0.0,
			"-0.006": 0.0,
			"-0.005": 0.0,
			"-0.004": 6.05479429716,
			"-0.003": 23.8931878146,
			"-0.002": 42.5695250635,
			"-0.001": 62.5155539607,
			"0.0": 70.1192531235,
			"0.001": 34.0156545109,
			"0.002": 6.81682301167,
			"0.003": 3.73541909359,
			"0.004": 2.6219410389,
			"0.005": 1.48319802576,
			"0.006": 2.50929107258,
			"0.007": 1.87778502437,
			"0.008": 1.66871182788,
			"0.009": 1.57027024264,
			"0.01": 1.37851537403,
			"0.011": 1.49639898861,
			"0.012": 1.33426997116,
			"0.013": 0.775498492068,
			"0.014": 0.816205402685,
			"0.015": 0.765227720589,
			"0.016": 1.2980181874,
			"0.017": 0.508467044708,
			"0.018": 0.0,
			"0.019": 0.0,
			"0.02": 0.0,
			"0.021": 0.0,
			"0.022": 0.0,
			"0.023": 0.0,
			"0.024": 0.0,
			"0.025": 0.0
		}
	}
}
