{
	 "smiles": "CC1=CC=C(C=C1)C1=CC=CC(C)=C1", 
	 "Tm": 287.65, 
	 "num_atms": 28, 
	 "gaussian": { 
		 "optdone": 1, 
		 "sigma_profile": "yes", 
		 "theory": "DFT", 
		 "functional": "B3LYP", 
		 "basiset": "6-31G**", 
		 "properties": { 
			 "R2extent": 4039.7192, 
			 "electric_dipole_moment_norm": 0.318721602657, 
			 "electric_quadrupole_moment_norm": 9.53640725116, 
			 "total_energy": -541.951636946, 
			 "HOMO_LUMO_gap": 0.19229, 
			 "cosmo_polarized_energy": -5.15, 
			 "cosmo_cavitation_energy": 31.04, 
			 "cosmo_dispersion_energy": -22.57, 
			 "cosmo_repulsion_energy": 1.77, 
			 "cosmo_total_nonelectrostatic_energy": 10.23, 
			 "SMD_solvation_energy": 5.16 
		},
		"coords": [
			{
				"x": -4.9045061771,
				"y": 1.6036764748,
				"z": 0.9457212187,
				"element": "C" 
			},
			{
				"x": -3.4440670279,
				"y": 1.2188133949,
				"z": 0.9610988761,
				"element": "C" 
			},
			{
				"x": -2.7383989454,
				"y": 1.100568403,
				"z": 2.1657091814,
				"element": "C" 
			},
			{
				"x": -1.3991504339,
				"y": 0.7175414015,
				"z": 2.1843218546,
				"element": "C" 
			},
			{
				"x": -0.7075902247,
				"y": 0.4373349175,
				"z": 0.994071223,
				"element": "C" 
			},
			{
				"x": -1.4153279179,
				"y": 0.5593317863,
				"z": -0.2131026721,
				"element": "C" 
			},
			{
				"x": -2.7543407114,
				"y": 0.9437461395,
				"z": -0.2268997031,
				"element": "C" 
			},
			{
				"x": 0.7207891094,
				"y": 0.0308331696,
				"z": 1.0131608384,
				"element": "C" 
			},
			{
				"x": 1.2176084552,
				"y": -0.8139536548,
				"z": 2.018615547,
				"element": "C" 
			},
			{
				"x": 2.5594178705,
				"y": -1.1924173572,
				"z": 2.0238639351,
				"element": "C" 
			},
			{
				"x": 3.425339182,
				"y": -0.7375592509,
				"z": 1.0303322984,
				"element": "C" 
			},
			{
				"x": 2.9593628399,
				"y": 0.1094184983,
				"z": 0.0150764783,
				"element": "C" 
			},
			{
				"x": 3.9014315632,
				"y": 0.6357267224,
				"z": -1.0432476722,
				"element": "C" 
			},
			{
				"x": 1.6109916574,
				"y": 0.4793571138,
				"z": 0.0225151122,
				"element": "C" 
			},
			{
				"x": -5.1564596272,
				"y": 2.2531784763,
				"z": 1.7896850061,
				"element": "H" 
			},
			{
				"x": -5.5499202926,
				"y": 0.7185556941,
				"z": 1.0138930884,
				"element": "H" 
			},
			{
				"x": -5.1713178775,
				"y": 2.1283810699,
				"z": 0.0232122302,
				"element": "H" 
			},
			{
				"x": -3.2421450774,
				"y": 1.3224855094,
				"z": 3.1037095075,
				"element": "H" 
			},
			{
				"x": -0.8725964713,
				"y": 0.6630328352,
				"z": 3.1327782555,
				"element": "H" 
			},
			{
				"x": -0.9164791637,
				"y": 0.3293117109,
				"z": -1.1501262308,
				"element": "H" 
			},
			{
				"x": -3.275733655,
				"y": 1.0243381732,
				"z": -1.1779646451,
				"element": "H" 
			},
			{
				"x": 0.544050562,
				"y": -1.198055061,
				"z": 2.7787904899,
				"element": "H" 
			},
			{
				"x": 2.9286868752,
				"y": -1.8566034731,
				"z": 2.8005738432,
				"element": "H" 
			},
			{
				"x": 4.4694212929,
				"y": -1.041163922,
				"z": 1.0401571494,
				"element": "H" 
			},
			{
				"x": 3.3564777194,
				"y": 1.0139525999,
				"z": -1.9128847312,
				"element": "H" 
			},
			{
				"x": 4.5901997931,
				"y": -0.1425851481,
				"z": -1.3879139579,
				"element": "H" 
			},
			{
				"x": 4.5138790758,
				"y": 1.4595189385,
				"z": -0.655916226,
				"element": "H" 
			},
			{
				"x": 1.2459776068,
				"y": 1.153734838,
				"z": -0.7479302951,
				"element": "H" 
			}
		],
		 "valence_orbital": [ 
			{
				"type": "occ",
				"energy": -0.32499,
				"method": "rhf"
			},
			{
				"type": "occ",
				"energy": -0.26182,
				"method": "rhf"
			},
			{
				"type": "occ",
				"energy": -0.2454,
				"method": "rhf"
			},
			{
				"type": "occ",
				"energy": -0.23828,
				"method": "rhf"
			},
			{
				"type": "occ",
				"energy": -0.2138,
				"method": "rhf"
			},
			{
				"type": "unocc",
				"energy": -0.02151,
				"method": "rhf"
			},
			{
				"type": "unocc",
				"energy": 0.00128,
				"method": "rhf"
			},
			{
				"type": "unocc",
				"energy": 0.00615,
				"method": "rhf"
			},
			{
				"type": "unocc",
				"energy": 0.03321,
				"method": "rhf"
			},
			{
				"type": "unocc",
				"energy": 0.10231,
				"method": "rhf"
			}
		],
		"cosmo_sigma_profile": { 
			"-0.025": 0.0,
			"-0.024": 0.0,
			"-0.023": 0.0,
			"-0.022": 0.0,
			"-0.021": 0.0,
			"-0.02": 0.0,
			"-0.019": 0.0,
			"-0.018": 0.0,
			"-0.017": 0.0,
			"-0.016": 0.0,
			"-0.015": 0.0,
			"-0.014": 0.0,
			"-0.013": 0.0,
			"-0.012": 0.0,
			"-0.011": 0.0,
			"-0.01": 0.0,
			"-0.009": 0.0,
			"-0.008": 0.0,
			"-0.007": 0.0,
			"-0.006": 1.11658602115,
			"-0.005": 13.9612183225,
			"-0.004": 30.0644472985,
			"-0.003": 28.175362421,
			"-0.002": 24.8371984727,
			"-0.001": 23.5316261439,
			"0.0": 27.0359205563,
			"0.001": 17.9416650214,
			"0.002": 13.6403520446,
			"0.003": 14.8711160795,
			"0.004": 16.5990033027,
			"0.005": 15.3870029165,
			"0.006": 16.9189530001,
			"0.007": 2.44238010604,
			"0.008": 0.0,
			"0.009": 0.0,
			"0.01": 0.0,
			"0.011": 0.0,
			"0.012": 0.0,
			"0.013": 0.0,
			"0.014": 0.0,
			"0.015": 0.0,
			"0.016": 0.0,
			"0.017": 0.0,
			"0.018": 0.0,
			"0.019": 0.0,
			"0.02": 0.0,
			"0.021": 0.0,
			"0.022": 0.0,
			"0.023": 0.0,
			"0.024": 0.0,
			"0.025": 0.0
		}
	}
}
