{
	 "smiles": "[O-][N+](=O)C1=CC=C(S1)C=O", 
	 "Tm": 347.15, 
	 "num_atms": 13, 
	 "gaussian": { 
		 "optdone": 1, 
		 "sigma_profile": "yes", 
		 "theory": "DFT", 
		 "functional": "B3LYP", 
		 "basiset": "6-31G**", 
		 "properties": { 
			 "R2extent": 2302.0774, 
			 "electric_dipole_moment_norm": 4.45873410062, 
			 "electric_quadrupole_moment_norm": 16.6441545, 
			 "total_energy": -870.813925867, 
			 "HOMO_LUMO_gap": 0.15995, 
			 "cosmo_polarized_energy": -11.81, 
			 "cosmo_cavitation_energy": 20.81, 
			 "cosmo_dispersion_energy": -15.65, 
			 "cosmo_repulsion_energy": 1.22, 
			 "cosmo_total_nonelectrostatic_energy": 6.39, 
			 "SMD_solvation_energy": 6.97 
		},
		"coords": [
			{
				"x": 1.1065288452,
				"y": 1.8257468435,
				"z": 3.1844396098,
				"element": "O" 
			},
			{
				"x": 1.2924437912,
				"y": 0.607888484,
				"z": 3.220078313,
				"element": "N" 
			},
			{
				"x": 1.9531427923,
				"y": 0.0029214115,
				"z": 4.0632433763,
				"element": "O" 
			},
			{
				"x": 0.6785584176,
				"y": -0.1782902267,
				"z": 2.1769974075,
				"element": "C" 
			},
			{
				"x": 0.7703962281,
				"y": -1.5440938846,
				"z": 2.0472580991,
				"element": "C" 
			},
			{
				"x": 0.0499037102,
				"y": -1.9883151168,
				"z": 0.9151188217,
				"element": "C" 
			},
			{
				"x": -0.5600725009,
				"y": -0.9536436587,
				"z": 0.2283824948,
				"element": "C" 
			},
			{
				"x": -0.2660676065,
				"y": 0.6002763366,
				"z": 0.9549577027,
				"element": "S" 
			},
			{
				"x": -1.3799572982,
				"y": -1.0583081273,
				"z": -0.9828358721,
				"element": "C" 
			},
			{
				"x": -1.8924815018,
				"y": -0.1078329644,
				"z": -1.5424015603,
				"element": "O" 
			},
			{
				"x": 1.3272741883,
				"y": -2.1645747784,
				"z": 2.7365939361,
				"element": "H" 
			},
			{
				"x": -0.0244437571,
				"y": -3.0255400934,
				"z": 0.6072801396,
				"element": "H" 
			},
			{
				"x": -1.5024253084,
				"y": -2.0956342253,
				"z": -1.3590124683,
				"element": "H" 
			}
		],
		 "valence_orbital": [ 
			{
				"type": "occ",
				"energy": -0.32493,
				"method": "rhf"
			},
			{
				"type": "occ",
				"energy": -0.30928,
				"method": "rhf"
			},
			{
				"type": "occ",
				"energy": -0.29815,
				"method": "rhf"
			},
			{
				"type": "occ",
				"energy": -0.28657,
				"method": "rhf"
			},
			{
				"type": "occ",
				"energy": -0.28474,
				"method": "rhf"
			},
			{
				"type": "unocc",
				"energy": -0.12479,
				"method": "rhf"
			},
			{
				"type": "unocc",
				"energy": -0.06409,
				"method": "rhf"
			},
			{
				"type": "unocc",
				"energy": -0.00129,
				"method": "rhf"
			},
			{
				"type": "unocc",
				"energy": 0.00994,
				"method": "rhf"
			},
			{
				"type": "unocc",
				"energy": 0.0489,
				"method": "rhf"
			}
		],
		"cosmo_sigma_profile": { 
			"-0.025": 0.0,
			"-0.024": 0.0,
			"-0.023": 0.0,
			"-0.022": 0.0,
			"-0.021": 0.0,
			"-0.02": 0.0,
			"-0.019": 0.0,
			"-0.018": 0.0,
			"-0.017": 0.0,
			"-0.016": 0.0,
			"-0.015": 0.0,
			"-0.014": 0.0,
			"-0.013": 0.0,
			"-0.012": 0.0,
			"-0.011": 0.135015199879,
			"-0.01": 3.54928091446,
			"-0.009": 6.12040315091,
			"-0.008": 7.74801343384,
			"-0.007": 6.92058016656,
			"-0.006": 6.3665607548,
			"-0.005": 8.15913382764,
			"-0.004": 7.74275641265,
			"-0.003": 11.4072087852,
			"-0.002": 15.3091529649,
			"-0.001": 16.2011009411,
			"0.0": 14.9046892275,
			"0.001": 6.79992644151,
			"0.002": 4.91226783869,
			"0.003": 4.72641531969,
			"0.004": 4.13203604596,
			"0.005": 4.80182783775,
			"0.006": 7.76355845768,
			"0.007": 12.1142517571,
			"0.008": 6.46964298355,
			"0.009": 5.89262414595,
			"0.01": 5.02234459695,
			"0.011": 2.43194934744,
			"0.012": 0.675437820394,
			"0.013": 0.0,
			"0.014": 0.0,
			"0.015": 0.0,
			"0.016": 0.0,
			"0.017": 0.0,
			"0.018": 0.0,
			"0.019": 0.0,
			"0.02": 0.0,
			"0.021": 0.0,
			"0.022": 0.0,
			"0.023": 0.0,
			"0.024": 0.0,
			"0.025": 0.0
		}
	}
}
