{
	 "smiles": "CCC(C)OC(C)CC", 
	 "Tm": 173.15, 
	 "num_atms": 27, 
	 "gaussian": { 
		 "optdone": 1, 
		 "sigma_profile": "yes", 
		 "theory": "DFT", 
		 "functional": "B3LYP", 
		 "basiset": "6-31G**", 
		 "properties": { 
			 "R2extent": 1661.4578, 
			 "electric_dipole_moment_norm": 1.15794429486, 
			 "electric_quadrupole_moment_norm": 2.37436821281, 
			 "total_energy": -390.931728729, 
			 "HOMO_LUMO_gap": 0.3098, 
			 "cosmo_polarized_energy": -3.82, 
			 "cosmo_cavitation_energy": 26.9, 
			 "cosmo_dispersion_energy": -18.93, 
			 "cosmo_repulsion_energy": 1.56, 
			 "cosmo_total_nonelectrostatic_energy": 9.53, 
			 "SMD_solvation_energy": 4.57 
		},
		"coords": [
			{
				"x": 0.5584798411,
				"y": 2.7062680617,
				"z": -1.8001497609,
				"element": "C" 
			},
			{
				"x": -0.3507174188,
				"y": 1.5935057253,
				"z": -1.2664888157,
				"element": "C" 
			},
			{
				"x": 0.3922036841,
				"y": 0.3785300046,
				"z": -0.6867700593,
				"element": "C" 
			},
			{
				"x": 1.2293159153,
				"y": -0.3660321669,
				"z": -1.7284263966,
				"element": "C" 
			},
			{
				"x": -0.5849235227,
				"y": -0.5410948776,
				"z": -0.1788697633,
				"element": "O" 
			},
			{
				"x": -0.668706767,
				"y": -0.8117163274,
				"z": 1.2240247039,
				"element": "C" 
			},
			{
				"x": -0.8315384616,
				"y": 0.447309308,
				"z": 2.0843645509,
				"element": "C" 
			},
			{
				"x": 0.4215771336,
				"y": -1.7802847957,
				"z": 1.7356925749,
				"element": "C" 
			},
			{
				"x": 1.8358839182,
				"y": -1.2291390381,
				"z": 1.9617623362,
				"element": "C" 
			},
			{
				"x": 1.2583129386,
				"y": 3.0541136435,
				"z": -1.0307223906,
				"element": "H" 
			},
			{
				"x": 1.1496501276,
				"y": 2.3779746197,
				"z": -2.6608465935,
				"element": "H" 
			},
			{
				"x": -0.0321688339,
				"y": 3.5704928152,
				"z": -2.1205702171,
				"element": "H" 
			},
			{
				"x": -0.9969304692,
				"y": 1.9970087855,
				"z": -0.4786976072,
				"element": "H" 
			},
			{
				"x": -1.020454348,
				"y": 1.2360714308,
				"z": -2.0589989815,
				"element": "H" 
			},
			{
				"x": 1.0517578754,
				"y": 0.726925635,
				"z": 0.118565863,
				"element": "H" 
			},
			{
				"x": 1.7246388053,
				"y": -1.2303791816,
				"z": -1.2769417653,
				"element": "H" 
			},
			{
				"x": 0.5832171759,
				"y": -0.7324268939,
				"z": -2.5331699022,
				"element": "H" 
			},
			{
				"x": 1.9979869108,
				"y": 0.2778982012,
				"z": -2.1670885526,
				"element": "H" 
			},
			{
				"x": -1.6111620682,
				"y": -1.3700127342,
				"z": 1.2929158059,
				"element": "H" 
			},
			{
				"x": -1.6948435362,
				"y": 1.0275735981,
				"z": 1.7464212225,
				"element": "H" 
			},
			{
				"x": 0.0475926709,
				"y": 1.0976088191,
				"z": 2.055926623,
				"element": "H" 
			},
			{
				"x": -0.9977051406,
				"y": 0.1672113902,
				"z": 3.1302583211,
				"element": "H" 
			},
			{
				"x": 0.4619493933,
				"y": -2.6196531905,
				"z": 1.0314742596,
				"element": "H" 
			},
			{
				"x": 0.055900234,
				"y": -2.1947098285,
				"z": 2.6854238046,
				"element": "H" 
			},
			{
				"x": 2.4777585724,
				"y": -2.0059422003,
				"z": 2.390788396,
				"element": "H" 
			},
			{
				"x": 2.3075998711,
				"y": -0.8993498608,
				"z": 1.032033952,
				"element": "H" 
			},
			{
				"x": 1.8405254987,
				"y": -0.3845509424,
				"z": 2.6587883923,
				"element": "H" 
			}
		],
		 "valence_orbital": [ 
			{
				"type": "occ",
				"energy": -0.33536,
				"method": "rhf"
			},
			{
				"type": "occ",
				"energy": -0.32184,
				"method": "rhf"
			},
			{
				"type": "occ",
				"energy": -0.31777,
				"method": "rhf"
			},
			{
				"type": "occ",
				"energy": -0.28251,
				"method": "rhf"
			},
			{
				"type": "occ",
				"energy": -0.23576,
				"method": "rhf"
			},
			{
				"type": "unocc",
				"energy": 0.07404,
				"method": "rhf"
			},
			{
				"type": "unocc",
				"energy": 0.10165,
				"method": "rhf"
			},
			{
				"type": "unocc",
				"energy": 0.11441,
				"method": "rhf"
			},
			{
				"type": "unocc",
				"energy": 0.11781,
				"method": "rhf"
			},
			{
				"type": "unocc",
				"energy": 0.1223,
				"method": "rhf"
			}
		],
		"cosmo_sigma_profile": { 
			"-0.025": 0.0,
			"-0.024": 0.0,
			"-0.023": 0.0,
			"-0.022": 0.0,
			"-0.021": 0.0,
			"-0.02": 0.0,
			"-0.019": 0.0,
			"-0.018": 0.0,
			"-0.017": 0.0,
			"-0.016": 0.0,
			"-0.015": 0.0,
			"-0.014": 0.0,
			"-0.013": 0.0,
			"-0.012": 0.0,
			"-0.011": 0.0,
			"-0.01": 0.0,
			"-0.009": 0.0,
			"-0.008": 0.0,
			"-0.007": 0.0,
			"-0.006": 0.0,
			"-0.005": 0.0,
			"-0.004": 2.37519278392,
			"-0.003": 23.6848400331,
			"-0.002": 39.9579010975,
			"-0.001": 38.2941794919,
			"0.0": 37.943215381,
			"0.001": 34.0389133676,
			"0.002": 12.9890520761,
			"0.003": 2.32022972498,
			"0.004": 2.16038394923,
			"0.005": 1.41012628773,
			"0.006": 1.34501118495,
			"0.007": 1.39058247795,
			"0.008": 1.01604826876,
			"0.009": 1.7445520565,
			"0.01": 0.914378631739,
			"0.011": 1.0283766338,
			"0.012": 1.22516114472,
			"0.013": 1.0622550042,
			"0.014": 1.18274803753,
			"0.015": 0.486364691638,
			"0.016": 0.0,
			"0.017": 0.0,
			"0.018": 0.0,
			"0.019": 0.0,
			"0.02": 0.0,
			"0.021": 0.0,
			"0.022": 0.0,
			"0.023": 0.0,
			"0.024": 0.0,
			"0.025": 0.0
		}
	}
}
