{
	 "smiles": "CC1(C)OC(CP(C2=CC=CC=C2)C2=CC=CC=C2)[C@H](CP(C2=CC=CC=C2)C2=CC=CC=C2)O1", 
	 "Tm": 360.15, 
	 "num_atms": 67, 
	 "gaussian": { 
		 "optdone": 1, 
		 "sigma_profile": "yes", 
		 "theory": "DFT", 
		 "functional": "B3LYP", 
		 "basiset": "6-31G**", 
		 "properties": { 
			 "R2extent": 21441.5167, 
			 "electric_dipole_moment_norm": 0.712575504771, 
			 "electric_quadrupole_moment_norm": 18.8033451255, 
			 "total_energy": -2033.73101032, 
			 "HOMO_LUMO_gap": 0.19127, 
			 "cosmo_polarized_energy": -16.69, 
			 "cosmo_cavitation_energy": 70.77, 
			 "cosmo_dispersion_energy": -44.85, 
			 "cosmo_repulsion_energy": 3.57, 
			 "cosmo_total_nonelectrostatic_energy": 29.49, 
			 "SMD_solvation_energy": 11.23 
		},
		"coords": [
			{
				"x": 2.4987717336,
				"y": -0.724196975,
				"z": -2.1393955862,
				"element": "C" 
			},
			{
				"x": 1.1948262627,
				"y": -0.8892377691,
				"z": -1.3578003795,
				"element": "C" 
			},
			{
				"x": 0.392513648,
				"y": -2.1059107993,
				"z": -1.8042036439,
				"element": "C" 
			},
			{
				"x": 1.5141127963,
				"y": -0.9866992868,
				"z": 0.0415431454,
				"element": "O" 
			},
			{
				"x": 0.8874586423,
				"y": 0.0851998017,
				"z": 0.7525313917,
				"element": "C" 
			},
			{
				"x": -0.3807965425,
				"y": -0.3764315612,
				"z": 1.4812611438,
				"element": "C" 
			},
			{
				"x": -0.0907140654,
				"y": -1.8989713235,
				"z": 2.5500951866,
				"element": "P" 
			},
			{
				"x": -1.6469694304,
				"y": -1.9413738795,
				"z": 3.5544901273,
				"element": "C" 
			},
			{
				"x": -2.8120592579,
				"y": -1.2215688613,
				"z": 3.2476866447,
				"element": "C" 
			},
			{
				"x": -3.9780251987,
				"y": -1.3875042721,
				"z": 4.001345897,
				"element": "C" 
			},
			{
				"x": -4.000334364,
				"y": -2.2712926973,
				"z": 5.0788853156,
				"element": "C" 
			},
			{
				"x": -2.849037465,
				"y": -2.9982168148,
				"z": 5.3951757768,
				"element": "C" 
			},
			{
				"x": -1.691859393,
				"y": -2.8416350371,
				"z": 4.6359910537,
				"element": "C" 
			},
			{
				"x": 1.1248076706,
				"y": -1.2049730566,
				"z": 3.772262002,
				"element": "C" 
			},
			{
				"x": 2.4736241081,
				"y": -1.5617995417,
				"z": 3.6131236555,
				"element": "C" 
			},
			{
				"x": 3.4525399284,
				"y": -1.0593737087,
				"z": 4.4734934889,
				"element": "C" 
			},
			{
				"x": 3.0942869417,
				"y": -0.201254645,
				"z": 5.5139033193,
				"element": "C" 
			},
			{
				"x": 1.754803856,
				"y": 0.1566655194,
				"z": 5.6873135183,
				"element": "C" 
			},
			{
				"x": 0.7785413908,
				"y": -0.3386235385,
				"z": 4.822270632,
				"element": "C" 
			},
			{
				"x": 0.6613156709,
				"y": 1.1202127558,
				"z": -0.3756008665,
				"element": "C" 
			},
			{
				"x": -0.4329876327,
				"y": 2.1573556451,
				"z": -0.1624621974,
				"element": "C" 
			},
			{
				"x": -0.6172740623,
				"y": 3.6262703523,
				"z": -1.349946858,
				"element": "P" 
			},
			{
				"x": -1.779157195,
				"y": 3.0345031485,
				"z": -2.6624917411,
				"element": "C" 
			},
			{
				"x": -2.4658689847,
				"y": 4.0447365343,
				"z": -3.3598688197,
				"element": "C" 
			},
			{
				"x": -3.3891350576,
				"y": 3.7307059616,
				"z": -4.3569480922,
				"element": "C" 
			},
			{
				"x": -3.660544426,
				"y": 2.3951731581,
				"z": -4.6603633439,
				"element": "C" 
			},
			{
				"x": -2.997498519,
				"y": 1.3818620122,
				"z": -3.9665870646,
				"element": "C" 
			},
			{
				"x": -2.0604171257,
				"y": 1.6947656863,
				"z": -2.9784403603,
				"element": "C" 
			},
			{
				"x": 1.024381423,
				"y": 3.6707181303,
				"z": -2.2114742129,
				"element": "C" 
			},
			{
				"x": 2.0053126256,
				"y": 4.5170742771,
				"z": -1.667370651,
				"element": "C" 
			},
			{
				"x": 3.270367106,
				"y": 4.6161046345,
				"z": -2.249365682,
				"element": "C" 
			},
			{
				"x": 3.5666747203,
				"y": 3.8850356529,
				"z": -3.4008722849,
				"element": "C" 
			},
			{
				"x": 2.59483133,
				"y": 3.052765952,
				"z": -3.9613413743,
				"element": "C" 
			},
			{
				"x": 1.3353086279,
				"y": 2.9416486333,
				"z": -3.3700746619,
				"element": "C" 
			},
			{
				"x": 0.368068902,
				"y": 0.2696878394,
				"z": -1.487120676,
				"element": "O" 
			},
			{
				"x": 3.1636005743,
				"y": -1.5685680584,
				"z": -1.9368922297,
				"element": "H" 
			},
			{
				"x": 2.2972936596,
				"y": -0.6833329852,
				"z": -3.2135178945,
				"element": "H" 
			},
			{
				"x": 3.0093011958,
				"y": 0.1958263439,
				"z": -1.8453420669,
				"element": "H" 
			},
			{
				"x": 0.9862519324,
				"y": -3.013958752,
				"z": -1.6715009242,
				"element": "H" 
			},
			{
				"x": -0.5181691737,
				"y": -2.1949749604,
				"z": -1.2081663995,
				"element": "H" 
			},
			{
				"x": 0.1199264844,
				"y": -2.0158671609,
				"z": -2.859838603,
				"element": "H" 
			},
			{
				"x": 1.6112882248,
				"y": 0.4610253141,
				"z": 1.4836101749,
				"element": "H" 
			},
			{
				"x": -1.1498862823,
				"y": -0.6384733834,
				"z": 0.7459108865,
				"element": "H" 
			},
			{
				"x": -0.7640334001,
				"y": 0.4472296424,
				"z": 2.0953959847,
				"element": "H" 
			},
			{
				"x": -2.8250947384,
				"y": -0.5238048404,
				"z": 2.4168807165,
				"element": "H" 
			},
			{
				"x": -4.8677571103,
				"y": -0.8191418869,
				"z": 3.744020029,
				"element": "H" 
			},
			{
				"x": -4.9059198643,
				"y": -2.3975414502,
				"z": 5.6652673887,
				"element": "H" 
			},
			{
				"x": -2.8553315024,
				"y": -3.6929058339,
				"z": 6.230631626,
				"element": "H" 
			},
			{
				"x": -0.8073557295,
				"y": -3.4220077969,
				"z": 4.8871386737,
				"element": "H" 
			},
			{
				"x": 2.7549462642,
				"y": -2.2344246746,
				"z": 2.8072147726,
				"element": "H" 
			},
			{
				"x": 4.4917276723,
				"y": -1.3446139895,
				"z": 4.3347935067,
				"element": "H" 
			},
			{
				"x": 3.8530289232,
				"y": 0.184194548,
				"z": 6.189279608,
				"element": "H" 
			},
			{
				"x": 1.470273827,
				"y": 0.8225009333,
				"z": 6.4976988481,
				"element": "H" 
			},
			{
				"x": -0.260761287,
				"y": -0.059981671,
				"z": 4.970713992,
				"element": "H" 
			},
			{
				"x": 1.6154758176,
				"y": 1.6371405338,
				"z": -0.5517752522,
				"element": "H" 
			},
			{
				"x": -1.4150601072,
				"y": 1.6781954156,
				"z": -0.0984781834,
				"element": "H" 
			},
			{
				"x": -0.2522246684,
				"y": 2.6242189695,
				"z": 0.8129371997,
				"element": "H" 
			},
			{
				"x": -2.2790175045,
				"y": 5.086492911,
				"z": -3.1110905627,
				"element": "H" 
			},
			{
				"x": -3.9049790629,
				"y": 4.5270636635,
				"z": -4.8862899249,
				"element": "H" 
			},
			{
				"x": -4.3874186016,
				"y": 2.1464105888,
				"z": -5.4286184869,
				"element": "H" 
			},
			{
				"x": -3.2048683797,
				"y": 0.3402793917,
				"z": -4.1976117049,
				"element": "H" 
			},
			{
				"x": -1.5361653616,
				"y": 0.8966240863,
				"z": -2.4651550527,
				"element": "H" 
			},
			{
				"x": 1.7710971271,
				"y": 5.1107153316,
				"z": -0.7868460745,
				"element": "H" 
			},
			{
				"x": 4.017130273,
				"y": 5.2731839597,
				"z": -1.8121840191,
				"element": "H" 
			},
			{
				"x": 4.5459868573,
				"y": 3.968928577,
				"z": -3.8637223319,
				"element": "H" 
			},
			{
				"x": 2.8183064222,
				"y": 2.4866834687,
				"z": -4.8616649371,
				"element": "H" 
			},
			{
				"x": 0.5903388545,
				"y": 2.2870618381,
				"z": -3.8095425613,
				"element": "H" 
			}
		],
		 "valence_orbital": [ 
			{
				"type": "occ",
				"energy": -0.2479,
				"method": "rhf"
			},
			{
				"type": "occ",
				"energy": -0.24724,
				"method": "rhf"
			},
			{
				"type": "occ",
				"energy": -0.24693,
				"method": "rhf"
			},
			{
				"type": "occ",
				"energy": -0.21399,
				"method": "rhf"
			},
			{
				"type": "occ",
				"energy": -0.21101,
				"method": "rhf"
			},
			{
				"type": "unocc",
				"energy": -0.01974,
				"method": "rhf"
			},
			{
				"type": "unocc",
				"energy": -0.01623,
				"method": "rhf"
			},
			{
				"type": "unocc",
				"energy": -0.00814,
				"method": "rhf"
			},
			{
				"type": "unocc",
				"energy": -0.00658,
				"method": "rhf"
			},
			{
				"type": "unocc",
				"energy": -0.00621,
				"method": "rhf"
			}
		],
		"cosmo_sigma_profile": { 
			"-0.025": 0.0,
			"-0.024": 0.0,
			"-0.023": 0.0,
			"-0.022": 0.0,
			"-0.021": 0.0,
			"-0.02": 0.0,
			"-0.019": 0.0,
			"-0.018": 0.0,
			"-0.017": 0.0,
			"-0.016": 0.0,
			"-0.015": 0.0,
			"-0.014": 0.0,
			"-0.013": 0.0,
			"-0.012": 0.0,
			"-0.011": 0.0,
			"-0.01": 0.0,
			"-0.009": 0.0,
			"-0.008": 0.0,
			"-0.007": 0.00071866514344,
			"-0.006": 16.984657961,
			"-0.005": 48.7393779792,
			"-0.004": 64.9279248971,
			"-0.003": 61.5932569425,
			"-0.002": 44.8535209062,
			"-0.001": 42.1069252482,
			"0.0": 42.8433680029,
			"0.001": 38.5838069218,
			"0.002": 40.0036148579,
			"0.003": 42.9597428959,
			"0.004": 40.7609389936,
			"0.005": 38.4618326932,
			"0.006": 20.1449122189,
			"0.007": 2.97994557752,
			"0.008": 3.35051731789,
			"0.009": 2.68156204526,
			"0.01": 2.80180843972,
			"0.011": 2.86359658333,
			"0.012": 2.0402273222,
			"0.013": 1.9086545319,
			"0.014": 0.978946396275,
			"0.015": 0.256366269289,
			"0.016": 0.0,
			"0.017": 0.0,
			"0.018": 0.0,
			"0.019": 0.0,
			"0.02": 0.0,
			"0.021": 0.0,
			"0.022": 0.0,
			"0.023": 0.0,
			"0.024": 0.0,
			"0.025": 0.0
		}
	}
}
