{
	 "smiles": "CCOC(=O)COC1=C2N=CC=CC2=C(Cl)C=C1", 
	 "Tm": 387.15, 
	 "num_atms": 30, 
	 "gaussian": { 
		 "optdone": 1, 
		 "sigma_profile": "yes", 
		 "theory": "DFT", 
		 "functional": "B3LYP", 
		 "basiset": "6-31G**", 
		 "properties": { 
			 "R2extent": 6250.391, 
			 "electric_dipole_moment_norm": 1.19746705174, 
			 "electric_quadrupole_moment_norm": 17.241105562, 
			 "total_energy": -1243.23088019, 
			 "HOMO_LUMO_gap": 0.15789, 
			 "cosmo_polarized_energy": -10.83, 
			 "cosmo_cavitation_energy": 36.1, 
			 "cosmo_dispersion_energy": -25.67, 
			 "cosmo_repulsion_energy": 2.01, 
			 "cosmo_total_nonelectrostatic_energy": 12.44, 
			 "SMD_solvation_energy": 6.53 
		},
		"coords": [
			{
				"x": 1.3464270097,
				"y": 0.5269700606,
				"z": 5.4463221598,
				"element": "C" 
			},
			{
				"x": 1.9240599456,
				"y": 0.151545594,
				"z": 4.0905040055,
				"element": "C" 
			},
			{
				"x": 0.921200045,
				"y": 0.2527106452,
				"z": 3.0473476895,
				"element": "O" 
			},
			{
				"x": 0.1465327976,
				"y": -0.8289384754,
				"z": 2.8586809065,
				"element": "C" 
			},
			{
				"x": 0.2223821709,
				"y": -1.8596960412,
				"z": 3.493606325,
				"element": "O" 
			},
			{
				"x": -0.8764712425,
				"y": -0.6556921259,
				"z": 1.7422280473,
				"element": "C" 
			},
			{
				"x": -0.8642478512,
				"y": 0.6097402376,
				"z": 1.091688785,
				"element": "O" 
			},
			{
				"x": 0.0813893546,
				"y": 0.8784292852,
				"z": 0.1404643704,
				"element": "C" 
			},
			{
				"x": 0.253959952,
				"y": 0.0736337547,
				"z": -1.0334226908,
				"element": "C" 
			},
			{
				"x": -0.5037199997,
				"y": -1.0492265886,
				"z": -1.1796687309,
				"element": "N" 
			},
			{
				"x": -0.3484119507,
				"y": -1.7807713593,
				"z": -2.2641240045,
				"element": "C" 
			},
			{
				"x": 0.5663542081,
				"y": -1.4698517605,
				"z": -3.297120376,
				"element": "C" 
			},
			{
				"x": 1.3405377318,
				"y": -0.3410876454,
				"z": -3.1757422857,
				"element": "C" 
			},
			{
				"x": 1.2075034226,
				"y": 0.4834333319,
				"z": -2.0289984116,
				"element": "C" 
			},
			{
				"x": 1.9374615646,
				"y": 1.6857188956,
				"z": -1.8204139853,
				"element": "C" 
			},
			{
				"x": 3.1110338001,
				"y": 2.2231682178,
				"z": -3.0194880063,
				"element": "Cl" 
			},
			{
				"x": 1.7398827011,
				"y": 2.4498324071,
				"z": -0.6939265303,
				"element": "C" 
			},
			{
				"x": 0.8137542369,
				"y": 2.0388877725,
				"z": 0.2860015805,
				"element": "C" 
			},
			{
				"x": 2.1392647116,
				"y": 0.5195815506,
				"z": 6.2017023702,
				"element": "H" 
			},
			{
				"x": 0.9064376947,
				"y": 1.5281688025,
				"z": 5.419650494,
				"element": "H" 
			},
			{
				"x": 0.579132721,
				"y": -0.1899438885,
				"z": 5.7483384143,
				"element": "H" 
			},
			{
				"x": 2.7072901874,
				"y": 0.8467021754,
				"z": 3.7795818742,
				"element": "H" 
			},
			{
				"x": 2.3210676293,
				"y": -0.8661899492,
				"z": 4.0980726685,
				"element": "H" 
			},
			{
				"x": -0.7585467652,
				"y": -1.4758765597,
				"z": 1.0308852577,
				"element": "H" 
			},
			{
				"x": -1.8671661729,
				"y": -0.7503081654,
				"z": 2.1960146516,
				"element": "H" 
			},
			{
				"x": -0.9735460993,
				"y": -2.6692607702,
				"z": -2.3417234526,
				"element": "H" 
			},
			{
				"x": 0.6468663339,
				"y": -2.1164654104,
				"z": -4.1647895627,
				"element": "H" 
			},
			{
				"x": 2.0519290768,
				"y": -0.0648834355,
				"z": -3.9459677988,
				"element": "H" 
			},
			{
				"x": 2.3037884458,
				"y": 3.3655336868,
				"z": -0.5555476076,
				"element": "H" 
			},
			{
				"x": 0.6622543405,
				"y": 2.6311357575,
				"z": 1.1808438426,
				"element": "H" 
			}
		],
		 "valence_orbital": [ 
			{
				"type": "occ",
				"energy": -0.29748,
				"method": "rhf"
			},
			{
				"type": "occ",
				"energy": -0.27099,
				"method": "rhf"
			},
			{
				"type": "occ",
				"energy": -0.26531,
				"method": "rhf"
			},
			{
				"type": "occ",
				"energy": -0.26173,
				"method": "rhf"
			},
			{
				"type": "occ",
				"energy": -0.22222,
				"method": "rhf"
			},
			{
				"type": "unocc",
				"energy": -0.06433,
				"method": "rhf"
			},
			{
				"type": "unocc",
				"energy": -0.0294,
				"method": "rhf"
			},
			{
				"type": "unocc",
				"energy": 0.01188,
				"method": "rhf"
			},
			{
				"type": "unocc",
				"energy": 0.01444,
				"method": "rhf"
			},
			{
				"type": "unocc",
				"energy": 0.02606,
				"method": "rhf"
			}
		],
		"cosmo_sigma_profile": { 
			"-0.025": 0.0,
			"-0.024": 0.0,
			"-0.023": 0.0,
			"-0.022": 0.0,
			"-0.021": 0.0,
			"-0.02": 0.0,
			"-0.019": 0.0,
			"-0.018": 0.0,
			"-0.017": 0.0,
			"-0.016": 0.0,
			"-0.015": 0.0,
			"-0.014": 0.0,
			"-0.013": 0.0,
			"-0.012": 0.0,
			"-0.011": 0.0,
			"-0.01": 0.0,
			"-0.009": 0.117834695604,
			"-0.008": 3.57329447956,
			"-0.007": 10.1061493206,
			"-0.006": 15.5209573633,
			"-0.005": 16.6874544745,
			"-0.004": 21.553489249,
			"-0.003": 23.7819822178,
			"-0.002": 20.1767186027,
			"-0.001": 22.9711369763,
			"0.0": 30.957369887,
			"0.001": 32.0746450496,
			"0.002": 24.2501638809,
			"0.003": 14.8939787558,
			"0.004": 14.833826515,
			"0.005": 9.33752426964,
			"0.006": 4.05533305647,
			"0.007": 4.12482885172,
			"0.008": 5.39536554403,
			"0.009": 4.27754484016,
			"0.01": 3.34159928317,
			"0.011": 4.0334229193,
			"0.012": 4.18219380743,
			"0.013": 0.521558439452,
			"0.014": 0.0,
			"0.015": 0.0,
			"0.016": 0.0,
			"0.017": 0.0,
			"0.018": 0.0,
			"0.019": 0.0,
			"0.02": 0.0,
			"0.021": 0.0,
			"0.022": 0.0,
			"0.023": 0.0,
			"0.024": 0.0,
			"0.025": 0.0
		}
	}
}
