{
	 "smiles": "CCOC1=C(C=C(Cl)C=C1)C(C)=O", 
	 "Tm": 353.15, 
	 "num_atms": 24, 
	 "gaussian": { 
		 "optdone": 1, 
		 "sigma_profile": "yes", 
		 "theory": "DFT", 
		 "functional": "B3LYP", 
		 "basiset": "6-31G**", 
		 "properties": { 
			 "R2extent": 3971.1704, 
			 "electric_dipole_moment_norm": 5.87477777367, 
			 "electric_quadrupole_moment_norm": 7.95866845647, 
			 "total_energy": -998.332156335, 
			 "HOMO_LUMO_gap": 0.1738, 
			 "cosmo_polarized_energy": -9.69, 
			 "cosmo_cavitation_energy": 29.5, 
			 "cosmo_dispersion_energy": -21.23, 
			 "cosmo_repulsion_energy": 1.68, 
			 "cosmo_total_nonelectrostatic_energy": 9.95, 
			 "SMD_solvation_energy": 5.84 
		},
		"coords": [
			{
				"x": -1.1702148893,
				"y": -3.3293352725,
				"z": -0.6022745214,
				"element": "C" 
			},
			{
				"x": -1.2868654543,
				"y": -1.8313603566,
				"z": -0.3838239917,
				"element": "C" 
			},
			{
				"x": -0.1288656132,
				"y": -1.4088084844,
				"z": 0.3440724707,
				"element": "O" 
			},
			{
				"x": 0.015837083,
				"y": -0.0965119911,
				"z": 0.6729752798,
				"element": "C" 
			},
			{
				"x": 1.1753442255,
				"y": 0.2846117031,
				"z": 1.3935871893,
				"element": "C" 
			},
			{
				"x": 1.3350376616,
				"y": 1.6355786371,
				"z": 1.7379972296,
				"element": "C" 
			},
			{
				"x": 0.3868701992,
				"y": 2.5844211967,
				"z": 1.3869464312,
				"element": "C" 
			},
			{
				"x": 0.6193528621,
				"y": 4.2689721482,
				"z": 1.8350934497,
				"element": "Cl" 
			},
			{
				"x": -0.7536167687,
				"y": 2.2107112925,
				"z": 0.678707325,
				"element": "C" 
			},
			{
				"x": -0.9348416088,
				"y": 0.8763529283,
				"z": 0.3252868635,
				"element": "C" 
			},
			{
				"x": 2.2903230243,
				"y": -0.6293893306,
				"z": 1.8449531192,
				"element": "C" 
			},
			{
				"x": 2.2622781887,
				"y": -2.1144474619,
				"z": 1.5503363059,
				"element": "C" 
			},
			{
				"x": 3.2334202776,
				"y": -0.1534544915,
				"z": 2.4615326074,
				"element": "O" 
			},
			{
				"x": -1.1253122787,
				"y": -3.8587739986,
				"z": 0.3533684325,
				"element": "H" 
			},
			{
				"x": -2.0399180133,
				"y": -3.692403161,
				"z": -1.1581331765,
				"element": "H" 
			},
			{
				"x": -0.2697993597,
				"y": -3.569199379,
				"z": -1.1743801432,
				"element": "H" 
			},
			{
				"x": -2.192453187,
				"y": -1.5879534344,
				"z": 0.1879290308,
				"element": "H" 
			},
			{
				"x": -1.3361307382,
				"y": -1.2981528034,
				"z": -1.3427254208,
				"element": "H" 
			},
			{
				"x": 2.2282393666,
				"y": 1.9063035708,
				"z": 2.2887122513,
				"element": "H" 
			},
			{
				"x": -1.4954621688,
				"y": 2.9527914682,
				"z": 0.4041418226,
				"element": "H" 
			},
			{
				"x": -1.8259404541,
				"y": 0.6022186847,
				"z": -0.2246057254,
				"element": "H" 
			},
			{
				"x": 2.2160411368,
				"y": -2.2992929604,
				"z": 0.4734449469,
				"element": "H" 
			},
			{
				"x": 1.3727709338,
				"y": -2.5825359922,
				"z": 1.9812299212,
				"element": "H" 
			},
			{
				"x": 3.165405575,
				"y": -2.5573425122,
				"z": 1.9722283022,
				"element": "H" 
			}
		],
		 "valence_orbital": [ 
			{
				"type": "occ",
				"energy": -0.3112,
				"method": "rhf"
			},
			{
				"type": "occ",
				"energy": -0.30906,
				"method": "rhf"
			},
			{
				"type": "occ",
				"energy": -0.26717,
				"method": "rhf"
			},
			{
				"type": "occ",
				"energy": -0.24784,
				"method": "rhf"
			},
			{
				"type": "occ",
				"energy": -0.23087,
				"method": "rhf"
			},
			{
				"type": "unocc",
				"energy": -0.05707,
				"method": "rhf"
			},
			{
				"type": "unocc",
				"energy": -0.0065,
				"method": "rhf"
			},
			{
				"type": "unocc",
				"energy": 0.03152,
				"method": "rhf"
			},
			{
				"type": "unocc",
				"energy": 0.03336,
				"method": "rhf"
			},
			{
				"type": "unocc",
				"energy": 0.07863,
				"method": "rhf"
			}
		],
		"cosmo_sigma_profile": { 
			"-0.025": 0.0,
			"-0.024": 0.0,
			"-0.023": 0.0,
			"-0.022": 0.0,
			"-0.021": 0.0,
			"-0.02": 0.0,
			"-0.019": 0.0,
			"-0.018": 0.0,
			"-0.017": 0.0,
			"-0.016": 0.0,
			"-0.015": 0.0,
			"-0.014": 0.0,
			"-0.013": 0.0,
			"-0.012": 0.0,
			"-0.011": 0.0,
			"-0.01": 0.0,
			"-0.009": 0.0,
			"-0.008": 1.88494006303,
			"-0.007": 5.18452587767,
			"-0.006": 7.4560451988,
			"-0.005": 13.9932577545,
			"-0.004": 21.7389729689,
			"-0.003": 19.6588234531,
			"-0.002": 20.7094044557,
			"-0.001": 22.2414778481,
			"0.0": 23.8858599918,
			"0.001": 22.2177366493,
			"0.002": 24.8947812119,
			"0.003": 15.7723867022,
			"0.004": 10.4494932574,
			"0.005": 10.0022371755,
			"0.006": 1.72291755975,
			"0.007": 1.06457952748,
			"0.008": 1.66693743102,
			"0.009": 1.99620958697,
			"0.01": 2.06547654403,
			"0.011": 2.66219231966,
			"0.012": 3.62556105766,
			"0.013": 1.56254825279,
			"0.014": 0.106880585885,
			"0.015": 0.0,
			"0.016": 0.0,
			"0.017": 0.0,
			"0.018": 0.0,
			"0.019": 0.0,
			"0.02": 0.0,
			"0.021": 0.0,
			"0.022": 0.0,
			"0.023": 0.0,
			"0.024": 0.0,
			"0.025": 0.0
		}
	}
}
