{
	 "smiles": "FC(F)(F)C1=NN(C=C1)C1=CC=C(C=O)C=C1", 
	 "Tm": 342.15, 
	 "num_atms": 24, 
	 "gaussian": { 
		 "optdone": 1, 
		 "sigma_profile": "yes", 
		 "theory": "DFT", 
		 "functional": "B3LYP", 
		 "basiset": "6-31G**", 
		 "properties": { 
			 "R2extent": 6163.4209, 
			 "electric_dipole_moment_norm": 1.8675911785, 
			 "electric_quadrupole_moment_norm": 27.958950373, 
			 "total_energy": -907.609457764, 
			 "HOMO_LUMO_gap": 0.17138, 
			 "cosmo_polarized_energy": -11.82, 
			 "cosmo_cavitation_energy": 31.32, 
			 "cosmo_dispersion_energy": -22.18, 
			 "cosmo_repulsion_energy": 1.62, 
			 "cosmo_total_nonelectrostatic_energy": 10.76, 
			 "SMD_solvation_energy": 7.26 
		},
		"coords": [
			{
				"x": 4.1016921827,
				"y": -0.0168108854,
				"z": -3.8259862234,
				"element": "F" 
			},
			{
				"x": 2.8555843192,
				"y": -0.4077918228,
				"z": -3.4777420739,
				"element": "C" 
			},
			{
				"x": 2.0040845146,
				"y": 0.0522363099,
				"z": -4.4154968059,
				"element": "F" 
			},
			{
				"x": 2.8180864748,
				"y": -1.7538447385,
				"z": -3.5304349207,
				"element": "F" 
			},
			{
				"x": 2.51956173,
				"y": 0.1100081908,
				"z": -2.1120335971,
				"element": "C" 
			},
			{
				"x": 1.3386942739,
				"y": -0.1575784363,
				"z": -1.5706374685,
				"element": "N" 
			},
			{
				"x": 1.3674898799,
				"y": 0.4481778787,
				"z": -0.361522225,
				"element": "N" 
			},
			{
				"x": 2.5593403379,
				"y": 1.0923463242,
				"z": -0.144842415,
				"element": "C" 
			},
			{
				"x": 3.3341000014,
				"y": 0.8937390968,
				"z": -1.2632610661,
				"element": "C" 
			},
			{
				"x": 0.2397485081,
				"y": 0.3595002295,
				"z": 0.4961906825,
				"element": "C" 
			},
			{
				"x": 0.2511182613,
				"y": 0.9815785037,
				"z": 1.7551397539,
				"element": "C" 
			},
			{
				"x": -0.8607464067,
				"y": 0.8833829177,
				"z": 2.5789667719,
				"element": "C" 
			},
			{
				"x": -1.9941018573,
				"y": 0.168718305,
				"z": 2.1645577621,
				"element": "C" 
			},
			{
				"x": -3.1765196205,
				"y": 0.0674170122,
				"z": 3.0469019601,
				"element": "C" 
			},
			{
				"x": -3.2569950505,
				"y": 0.5722044032,
				"z": 4.1510081405,
				"element": "O" 
			},
			{
				"x": -1.9920136455,
				"y": -0.4469323039,
				"z": 0.9063324076,
				"element": "C" 
			},
			{
				"x": -0.8857353828,
				"y": -0.3575824411,
				"z": 0.0696383656,
				"element": "C" 
			},
			{
				"x": 2.7666438077,
				"y": 1.6317704667,
				"z": 0.7646689528,
				"element": "H" 
			},
			{
				"x": 4.3334831968,
				"y": 1.2540467271,
				"z": -1.4484002826,
				"element": "H" 
			},
			{
				"x": 1.1167188429,
				"y": 1.5384511333,
				"z": 2.0942320487,
				"element": "H" 
			},
			{
				"x": -0.8741308088,
				"y": 1.3560029602,
				"z": 3.5557478077,
				"element": "H" 
			},
			{
				"x": -4.0208955451,
				"y": -0.5209913814,
				"z": 2.6239482816,
				"element": "H" 
			},
			{
				"x": -2.8672466183,
				"y": -1.0026395352,
				"z": 0.5785104809,
				"element": "H" 
			},
			{
				"x": -0.8715613956,
				"y": -0.8286089145,
				"z": -0.9044863375,
				"element": "H" 
			}
		],
		 "valence_orbital": [ 
			{
				"type": "occ",
				"energy": -0.31668,
				"method": "rhf"
			},
			{
				"type": "occ",
				"energy": -0.28474,
				"method": "rhf"
			},
			{
				"type": "occ",
				"energy": -0.27723,
				"method": "rhf"
			},
			{
				"type": "occ",
				"energy": -0.26239,
				"method": "rhf"
			},
			{
				"type": "occ",
				"energy": -0.25138,
				"method": "rhf"
			},
			{
				"type": "unocc",
				"energy": -0.08,
				"method": "rhf"
			},
			{
				"type": "unocc",
				"energy": -0.03065,
				"method": "rhf"
			},
			{
				"type": "unocc",
				"energy": -0.02078,
				"method": "rhf"
			},
			{
				"type": "unocc",
				"energy": 0.0281,
				"method": "rhf"
			},
			{
				"type": "unocc",
				"energy": 0.04802,
				"method": "rhf"
			}
		],
		"cosmo_sigma_profile": { 
			"-0.025": 0.0,
			"-0.024": 0.0,
			"-0.023": 0.0,
			"-0.022": 0.0,
			"-0.021": 0.0,
			"-0.02": 0.0,
			"-0.019": 0.0,
			"-0.018": 0.0,
			"-0.017": 0.0,
			"-0.016": 0.0,
			"-0.015": 0.0,
			"-0.014": 0.0,
			"-0.013": 0.0632215037519,
			"-0.012": 1.53898967054,
			"-0.011": 1.67863581169,
			"-0.01": 2.1412285648,
			"-0.009": 2.61184903834,
			"-0.008": 5.87977041031,
			"-0.007": 10.4980654118,
			"-0.006": 12.7798818344,
			"-0.005": 10.8343369726,
			"-0.004": 10.3106602092,
			"-0.003": 11.6912925489,
			"-0.002": 14.7250071498,
			"-0.001": 16.9447076869,
			"0.0": 20.9932000827,
			"0.001": 24.3723998615,
			"0.002": 41.1570734237,
			"0.003": 31.594350318,
			"0.004": 6.73522373503,
			"0.005": 4.35587673492,
			"0.006": 3.03205073157,
			"0.007": 2.75472351644,
			"0.008": 3.52723081901,
			"0.009": 2.85575659471,
			"0.01": 2.46321114741,
			"0.011": 4.06770565979,
			"0.012": 2.98281712557,
			"0.013": 0.628007715705,
			"0.014": 0.0,
			"0.015": 0.0,
			"0.016": 0.0,
			"0.017": 0.0,
			"0.018": 0.0,
			"0.019": 0.0,
			"0.02": 0.0,
			"0.021": 0.0,
			"0.022": 0.0,
			"0.023": 0.0,
			"0.024": 0.0,
			"0.025": 0.0
		}
	}
}
