{
	 "smiles": "CC(C)CC(=O)NC1=C(C=CC=C1)C(O)=O", 
	 "Tm": 395.15, 
	 "num_atms": 31, 
	 "gaussian": { 
		 "optdone": 1, 
		 "sigma_profile": "yes", 
		 "theory": "DFT", 
		 "functional": "B3LYP", 
		 "basiset": "6-31G**", 
		 "properties": { 
			 "R2extent": 4980.2558, 
			 "electric_dipole_moment_norm": 6.70140698137, 
			 "electric_quadrupole_moment_norm": 12.7775848387, 
			 "total_energy": -746.777240342, 
			 "HOMO_LUMO_gap": 0.17303, 
			 "cosmo_polarized_energy": -18.26, 
			 "cosmo_cavitation_energy": 33.62, 
			 "cosmo_dispersion_energy": -24.18, 
			 "cosmo_repulsion_energy": 1.89, 
			 "cosmo_total_nonelectrostatic_energy": 11.33, 
			 "SMD_solvation_energy": 7.15 
		},
		"coords": [
			{
				"x": -0.3346617381,
				"y": -4.2814534437,
				"z": 0.0026315393,
				"element": "C" 
			},
			{
				"x": -1.6037507939,
				"y": -3.5025978127,
				"z": -0.375673367,
				"element": "C" 
			},
			{
				"x": -1.9507685881,
				"y": -3.6634495404,
				"z": -1.8639237016,
				"element": "C" 
			},
			{
				"x": -1.5411696344,
				"y": -2.0240544178,
				"z": 0.0749886238,
				"element": "C" 
			},
			{
				"x": -0.3640244006,
				"y": -1.2245690521,
				"z": -0.4711459534,
				"element": "C" 
			},
			{
				"x": 0.2397511865,
				"y": -1.5399608316,
				"z": -1.4864643569,
				"element": "O" 
			},
			{
				"x": 0.0867045501,
				"y": -0.1030643838,
				"z": 0.226396067,
				"element": "N" 
			},
			{
				"x": -0.3543104964,
				"y": 0.551092156,
				"z": 1.3758842727,
				"element": "C" 
			},
			{
				"x": 0.5907577311,
				"y": 1.2375048189,
				"z": 2.1940808449,
				"element": "C" 
			},
			{
				"x": 0.1404072385,
				"y": 1.9492611928,
				"z": 3.3182442199,
				"element": "C" 
			},
			{
				"x": -1.2014204924,
				"y": 1.9781805635,
				"z": 3.6775035948,
				"element": "C" 
			},
			{
				"x": -2.1228897664,
				"y": 1.2951730215,
				"z": 2.8817566836,
				"element": "C" 
			},
			{
				"x": -1.7111792271,
				"y": 0.6070333687,
				"z": 1.7455507865,
				"element": "C" 
			},
			{
				"x": 2.0418344713,
				"y": 1.2526646631,
				"z": 1.8410555176,
				"element": "C" 
			},
			{
				"x": 2.9165011872,
				"y": 1.4557072168,
				"z": 2.857860994,
				"element": "O" 
			},
			{
				"x": 2.4760826422,
				"y": 1.107229001,
				"z": 0.714895798,
				"element": "O" 
			},
			{
				"x": 0.5293708517,
				"y": -3.9159211335,
				"z": -0.5582213883,
				"element": "H" 
			},
			{
				"x": -0.4584180317,
				"y": -5.3463888649,
				"z": -0.2205962651,
				"element": "H" 
			},
			{
				"x": -0.1136391904,
				"y": -4.1910550168,
				"z": 1.0728487428,
				"element": "H" 
			},
			{
				"x": -2.435716143,
				"y": -3.9321425196,
				"z": 0.2012529851,
				"element": "H" 
			},
			{
				"x": -2.0884065052,
				"y": -4.7220076575,
				"z": -2.1104304579,
				"element": "H" 
			},
			{
				"x": -1.1569980245,
				"y": -3.2583773183,
				"z": -2.4938069613,
				"element": "H" 
			},
			{
				"x": -2.8836049384,
				"y": -3.1426528008,
				"z": -2.1109824471,
				"element": "H" 
			},
			{
				"x": -2.4651858726,
				"y": -1.5221486749,
				"z": -0.2441969861,
				"element": "H" 
			},
			{
				"x": -1.5299371186,
				"y": -1.9767743561,
				"z": 1.1697301684,
				"element": "H" 
			},
			{
				"x": 0.9875091057,
				"y": 0.2274689804,
				"z": -0.1194894587,
				"element": "H" 
			},
			{
				"x": 0.8512308054,
				"y": 2.5288810908,
				"z": 3.9017844755,
				"element": "H" 
			},
			{
				"x": -1.5258491067,
				"y": 2.5405226035,
				"z": 4.5465331946,
				"element": "H" 
			},
			{
				"x": -3.1803084832,
				"y": 1.3213151371,
				"z": 3.1282251817,
				"element": "H" 
			},
			{
				"x": -2.4548979412,
				"y": 0.1400101225,
				"z": 1.1149031719,
				"element": "H" 
			},
			{
				"x": 2.4628867233,
				"y": 1.3753738881,
				"z": 3.7082044814,
				"element": "H" 
			}
		],
		 "valence_orbital": [ 
			{
				"type": "occ",
				"energy": -0.3135,
				"method": "rhf"
			},
			{
				"type": "occ",
				"energy": -0.28966,
				"method": "rhf"
			},
			{
				"type": "occ",
				"energy": -0.27939,
				"method": "rhf"
			},
			{
				"type": "occ",
				"energy": -0.25353,
				"method": "rhf"
			},
			{
				"type": "occ",
				"energy": -0.23535,
				"method": "rhf"
			},
			{
				"type": "unocc",
				"energy": -0.06232,
				"method": "rhf"
			},
			{
				"type": "unocc",
				"energy": -0.03213,
				"method": "rhf"
			},
			{
				"type": "unocc",
				"energy": 0.02374,
				"method": "rhf"
			},
			{
				"type": "unocc",
				"energy": 0.03272,
				"method": "rhf"
			},
			{
				"type": "unocc",
				"energy": 0.05698,
				"method": "rhf"
			}
		],
		"cosmo_sigma_profile": { 
			"-0.025": 0.0,
			"-0.024": 0.0,
			"-0.023": 0.0,
			"-0.022": 0.0,
			"-0.021": 0.0,
			"-0.02": 0.0,
			"-0.019": 0.388701635032,
			"-0.018": 0.804382937059,
			"-0.017": 0.868986830046,
			"-0.016": 0.788600027652,
			"-0.015": 1.03565040898,
			"-0.014": 0.814536042144,
			"-0.013": 1.29545609885,
			"-0.012": 1.30118125233,
			"-0.011": 0.739940804926,
			"-0.01": 1.27868646442,
			"-0.009": 1.4399519955,
			"-0.008": 4.02409557274,
			"-0.007": 7.32234813525,
			"-0.006": 10.5277650972,
			"-0.005": 11.309204486,
			"-0.004": 13.6381122173,
			"-0.003": 19.3367684405,
			"-0.002": 26.8720974591,
			"-0.001": 24.2759269712,
			"0.0": 24.5279078061,
			"0.001": 25.2586558945,
			"0.002": 23.6180154358,
			"0.003": 15.0618515156,
			"0.004": 6.85961428886,
			"0.005": 4.51685726016,
			"0.006": 3.25960120363,
			"0.007": 4.09414598433,
			"0.008": 5.1399372607,
			"0.009": 5.55490866198,
			"0.01": 5.72479229417,
			"0.011": 5.16772982289,
			"0.012": 4.33292085727,
			"0.013": 3.83691589486,
			"0.014": 0.654139936833,
			"0.015": 0.0,
			"0.016": 0.0,
			"0.017": 0.0,
			"0.018": 0.0,
			"0.019": 0.0,
			"0.02": 0.0,
			"0.021": 0.0,
			"0.022": 0.0,
			"0.023": 0.0,
			"0.024": 0.0,
			"0.025": 0.0
		}
	}
}
