{
	 "smiles": "COC1=C(OC)C=C(CNC(=O)N2C=CN=C2)C=C1", 
	 "Tm": 410.15, 
	 "num_atms": 34, 
	 "gaussian": { 
		 "optdone": 1, 
		 "sigma_profile": "yes", 
		 "theory": "DFT", 
		 "functional": "B3LYP", 
		 "basiset": "6-31G**", 
		 "properties": { 
			 "R2extent": 7166.0299, 
			 "electric_dipole_moment_norm": 4.18864901728, 
			 "electric_quadrupole_moment_norm": 9.74479674442, 
			 "total_energy": -894.315933538, 
			 "HOMO_LUMO_gap": 0.21384, 
			 "cosmo_polarized_energy": -17.48, 
			 "cosmo_cavitation_energy": 38.08, 
			 "cosmo_dispersion_energy": -26.74, 
			 "cosmo_repulsion_energy": 2.06, 
			 "cosmo_total_nonelectrostatic_energy": 13.4, 
			 "SMD_solvation_energy": 7.92 
		},
		"coords": [
			{
				"x": -1.9765641751,
				"y": 3.8760038188,
				"z": -3.2199418882,
				"element": "C" 
			},
			{
				"x": -2.6661833613,
				"y": 3.3082430836,
				"z": -2.0980768381,
				"element": "O" 
			},
			{
				"x": -2.1033265083,
				"y": 2.1566096868,
				"z": -1.5974854409,
				"element": "C" 
			},
			{
				"x": -2.1425537155,
				"y": 0.9429156959,
				"z": -2.3152363145,
				"element": "C" 
			},
			{
				"x": -2.6978542065,
				"y": 0.8641672617,
				"z": -3.5713630458,
				"element": "O" 
			},
			{
				"x": -4.1193950318,
				"y": 1.0455473105,
				"z": -3.6194330378,
				"element": "C" 
			},
			{
				"x": -1.5713203357,
				"y": -0.2018344,
				"z": -1.7638671448,
				"element": "C" 
			},
			{
				"x": -0.9661541962,
				"y": -0.1744558773,
				"z": -0.5005352869,
				"element": "C" 
			},
			{
				"x": -0.3275581969,
				"y": -1.4484714435,
				"z": 0.0320246708,
				"element": "C" 
			},
			{
				"x": -0.0498683221,
				"y": -1.4303530361,
				"z": 1.4672090329,
				"element": "N" 
			},
			{
				"x": 1.1306569188,
				"y": -1.70059721,
				"z": 2.1114014808,
				"element": "C" 
			},
			{
				"x": 1.1835961422,
				"y": -2.1758759903,
				"z": 3.2312037108,
				"element": "O" 
			},
			{
				"x": 2.326133252,
				"y": -1.3597784433,
				"z": 1.4134342795,
				"element": "N" 
			},
			{
				"x": 3.5631792198,
				"y": -1.9169879766,
				"z": 1.7197582672,
				"element": "C" 
			},
			{
				"x": 4.4667715584,
				"y": -1.2535663695,
				"z": 0.9414960684,
				"element": "C" 
			},
			{
				"x": 3.8426225633,
				"y": -0.2791525534,
				"z": 0.1793140931,
				"element": "N" 
			},
			{
				"x": 2.5735347258,
				"y": -0.3608612201,
				"z": 0.4807953302,
				"element": "C" 
			},
			{
				"x": -0.9615816213,
				"y": 1.0231502953,
				"z": 0.218696052,
				"element": "C" 
			},
			{
				"x": -1.5225276524,
				"y": 2.1787126947,
				"z": -0.3313853008,
				"element": "C" 
			},
			{
				"x": -1.9409984892,
				"y": 3.1775140407,
				"z": -4.0616125989,
				"element": "H" 
			},
			{
				"x": -0.9554711727,
				"y": 4.1636248556,
				"z": -2.9407003012,
				"element": "H" 
			},
			{
				"x": -2.538139959,
				"y": 4.7683795142,
				"z": -3.5030718488,
				"element": "H" 
			},
			{
				"x": -4.4106148359,
				"y": 2.0250719457,
				"z": -3.2290527784,
				"element": "H" 
			},
			{
				"x": -4.6283958465,
				"y": 0.2585652222,
				"z": -3.0489501853,
				"element": "H" 
			},
			{
				"x": -4.4004968202,
				"y": 0.9667995257,
				"z": -4.6713664734,
				"element": "H" 
			},
			{
				"x": -1.6134824605,
				"y": -1.1184567798,
				"z": -2.3466482641,
				"element": "H" 
			},
			{
				"x": 0.6089487942,
				"y": -1.6490037556,
				"z": -0.4953566013,
				"element": "H" 
			},
			{
				"x": -0.9847305907,
				"y": -2.3001822128,
				"z": -0.1868747953,
				"element": "H" 
			},
			{
				"x": -0.8325099458,
				"y": -1.6469575583,
				"z": 2.0712615879,
				"element": "H" 
			},
			{
				"x": 3.6462899039,
				"y": -2.7058939293,
				"z": 2.4488112959,
				"element": "H" 
			},
			{
				"x": 5.5343033953,
				"y": -1.4122852624,
				"z": 0.8818038873,
				"element": "H" 
			},
			{
				"x": 1.7913044831,
				"y": 0.2818713342,
				"z": 0.1034820356,
				"element": "H" 
			},
			{
				"x": -0.5185228083,
				"y": 1.0547323245,
				"z": 1.2087379094,
				"element": "H" 
			},
			{
				"x": -1.5161907049,
				"y": 3.1177054081,
				"z": 0.2131284426,
				"element": "H" 
			}
		],
		 "valence_orbital": [ 
			{
				"type": "occ",
				"energy": -0.27148,
				"method": "rhf"
			},
			{
				"type": "occ",
				"energy": -0.26411,
				"method": "rhf"
			},
			{
				"type": "occ",
				"energy": -0.2519,
				"method": "rhf"
			},
			{
				"type": "occ",
				"energy": -0.23835,
				"method": "rhf"
			},
			{
				"type": "occ",
				"energy": -0.2335,
				"method": "rhf"
			},
			{
				"type": "unocc",
				"energy": -0.01966,
				"method": "rhf"
			},
			{
				"type": "unocc",
				"energy": -0.01505,
				"method": "rhf"
			},
			{
				"type": "unocc",
				"energy": -0.0079,
				"method": "rhf"
			},
			{
				"type": "unocc",
				"energy": 0.05391,
				"method": "rhf"
			},
			{
				"type": "unocc",
				"energy": 0.06411,
				"method": "rhf"
			}
		],
		"cosmo_sigma_profile": { 
			"-0.025": 0.0,
			"-0.024": 0.0,
			"-0.023": 0.0,
			"-0.022": 0.0,
			"-0.021": 0.0,
			"-0.02": 0.0,
			"-0.019": 0.0,
			"-0.018": 0.0,
			"-0.017": 0.0,
			"-0.016": 0.0,
			"-0.015": 0.64665574323,
			"-0.014": 1.11054381329,
			"-0.013": 0.944614221151,
			"-0.012": 1.16968217867,
			"-0.011": 0.845671012648,
			"-0.01": 1.28473222286,
			"-0.009": 1.47123647707,
			"-0.008": 2.39782326375,
			"-0.007": 6.97647947735,
			"-0.006": 19.0823118054,
			"-0.005": 24.1927478244,
			"-0.004": 28.5459472613,
			"-0.003": 29.9564218269,
			"-0.002": 27.0868756726,
			"-0.001": 21.1948684106,
			"0.0": 15.9766176304,
			"0.001": 14.924587306,
			"0.002": 15.9527055305,
			"0.003": 17.2190120992,
			"0.004": 17.7038902341,
			"0.005": 9.40506043117,
			"0.006": 6.2588176318,
			"0.007": 4.78674861844,
			"0.008": 4.55982354709,
			"0.009": 4.62670825081,
			"0.01": 4.3643176434,
			"0.011": 5.930005297,
			"0.012": 8.3926267045,
			"0.013": 2.50171527364,
			"0.014": 0.720508627574,
			"0.015": 1.4208450861,
			"0.016": 0.900287211034,
			"0.017": 0.878746424942,
			"0.018": 0.00149289714608,
			"0.019": 0.0,
			"0.02": 0.0,
			"0.021": 0.0,
			"0.022": 0.0,
			"0.023": 0.0,
			"0.024": 0.0,
			"0.025": 0.0
		}
	}
}
