{
	 "smiles": "CC1=NC2=C(N=NC3=CC(Cl)=C(Cl)C=C3Cl)C(N)=NN2C(C)=C1", 
	 "Tm": 568.15, 
	 "num_atms": 34, 
	 "gaussian": { 
		 "optdone": 1, 
		 "sigma_profile": "yes", 
		 "theory": "DFT", 
		 "functional": "B3LYP", 
		 "basiset": "6-31G**", 
		 "properties": { 
			 "R2extent": 15102.3891, 
			 "electric_dipole_moment_norm": 6.96817963747, 
			 "electric_quadrupole_moment_norm": 9.70985668844, 
			 "total_energy": -2249.16769213, 
			 "HOMO_LUMO_gap": 0.12654, 
			 "cosmo_polarized_energy": -14.34, 
			 "cosmo_cavitation_energy": 44.88, 
			 "cosmo_dispersion_energy": -32.71, 
			 "cosmo_repulsion_energy": 2.5, 
			 "cosmo_total_nonelectrostatic_energy": 14.66, 
			 "SMD_solvation_energy": 3.39 
		},
		"coords": [
			{
				"x": 0.3027053991,
				"y": -3.5649212695,
				"z": -1.9579100099,
				"element": "C" 
			},
			{
				"x": -0.6307111491,
				"y": -2.3979044774,
				"z": -1.7730622043,
				"element": "C" 
			},
			{
				"x": -0.1784311923,
				"y": -1.380478193,
				"z": -1.0369474893,
				"element": "N" 
			},
			{
				"x": -0.9932166074,
				"y": -0.3404388695,
				"z": -0.8635703599,
				"element": "C" 
			},
			{
				"x": -0.854866881,
				"y": 0.882515922,
				"z": -0.162648601,
				"element": "C" 
			},
			{
				"x": 0.2489360153,
				"y": 1.2535284348,
				"z": 0.5315884325,
				"element": "N" 
			},
			{
				"x": 0.1773616127,
				"y": 2.4015175282,
				"z": 1.0985786697,
				"element": "N" 
			},
			{
				"x": 1.331838749,
				"y": 2.7641632463,
				"z": 1.8112197293,
				"element": "C" 
			},
			{
				"x": 2.4786907887,
				"y": 1.9566952712,
				"z": 1.9078651255,
				"element": "C" 
			},
			{
				"x": 3.5932392748,
				"y": 2.3648724859,
				"z": 2.6259901841,
				"element": "C" 
			},
			{
				"x": 4.983300286,
				"y": 1.3074063978,
				"z": 2.701696266,
				"element": "Cl" 
			},
			{
				"x": 3.5905960365,
				"y": 3.6104483023,
				"z": 3.2765932377,
				"element": "C" 
			},
			{
				"x": 4.9642305171,
				"y": 4.1729466748,
				"z": 4.1927713782,
				"element": "Cl" 
			},
			{
				"x": 2.4630442152,
				"y": 4.426725256,
				"z": 3.1933154647,
				"element": "C" 
			},
			{
				"x": 1.3506532834,
				"y": 4.0077186386,
				"z": 2.4704296856,
				"element": "C" 
			},
			{
				"x": -0.0385212465,
				"y": 5.0773588833,
				"z": 2.4014434983,
				"element": "Cl" 
			},
			{
				"x": -2.1083622178,
				"y": 1.5671129003,
				"z": -0.3736033805,
				"element": "C" 
			},
			{
				"x": -2.4161340396,
				"y": 2.7798441101,
				"z": 0.1196545359,
				"element": "N" 
			},
			{
				"x": -2.961707252,
				"y": 0.8610110204,
				"z": -1.1290513723,
				"element": "N" 
			},
			{
				"x": -2.274732315,
				"y": -0.2911581305,
				"z": -1.4189839156,
				"element": "N" 
			},
			{
				"x": -2.7626922774,
				"y": -1.307583562,
				"z": -2.1710421901,
				"element": "C" 
			},
			{
				"x": -4.1430499205,
				"y": -1.1677090963,
				"z": -2.7242701716,
				"element": "C" 
			},
			{
				"x": -1.9195678165,
				"y": -2.3912691032,
				"z": -2.3543298098,
				"element": "C" 
			},
			{
				"x": 1.2347497496,
				"y": -3.2305779032,
				"z": -2.4244485019,
				"element": "H" 
			},
			{
				"x": 0.5682877126,
				"y": -3.9915873932,
				"z": -0.9853887761,
				"element": "H" 
			},
			{
				"x": -0.1405691961,
				"y": -4.3482441878,
				"z": -2.5769835285,
				"element": "H" 
			},
			{
				"x": 2.4681756281,
				"y": 0.9988554873,
				"z": 1.4018472189,
				"element": "H" 
			},
			{
				"x": 2.4563956727,
				"y": 5.387405296,
				"z": 3.693101553,
				"element": "H" 
			},
			{
				"x": -3.3158062717,
				"y": 3.18860224,
				"z": -0.0734909475,
				"element": "H" 
			},
			{
				"x": -1.7121350228,
				"y": 3.2432910274,
				"z": 0.6816402067,
				"element": "H" 
			},
			{
				"x": -4.4115045104,
				"y": -2.0504228861,
				"z": -3.306642522,
				"element": "H" 
			},
			{
				"x": -4.2119191208,
				"y": -0.2769547764,
				"z": -3.3569501108,
				"element": "H" 
			},
			{
				"x": -4.8664274179,
				"y": -1.0297086175,
				"z": -1.9142418988,
				"element": "H" 
			},
			{
				"x": -2.2625504858,
				"y": -3.2301606571,
				"z": -2.9478693964,
				"element": "H" 
			}
		],
		 "valence_orbital": [ 
			{
				"type": "occ",
				"energy": -0.26673,
				"method": "rhf"
			},
			{
				"type": "occ",
				"energy": -0.24778,
				"method": "rhf"
			},
			{
				"type": "occ",
				"energy": -0.23089,
				"method": "rhf"
			},
			{
				"type": "occ",
				"energy": -0.22956,
				"method": "rhf"
			},
			{
				"type": "occ",
				"energy": -0.20618,
				"method": "rhf"
			},
			{
				"type": "unocc",
				"energy": -0.07964,
				"method": "rhf"
			},
			{
				"type": "unocc",
				"energy": -0.05432,
				"method": "rhf"
			},
			{
				"type": "unocc",
				"energy": -0.02199,
				"method": "rhf"
			},
			{
				"type": "unocc",
				"energy": -0.00657,
				"method": "rhf"
			},
			{
				"type": "unocc",
				"energy": -0.00024,
				"method": "rhf"
			}
		],
		"cosmo_sigma_profile": { 
			"-0.025": 0.0,
			"-0.024": 0.0,
			"-0.023": 0.0,
			"-0.022": 0.0,
			"-0.021": 0.0,
			"-0.02": 0.0,
			"-0.019": 0.0,
			"-0.018": 0.0,
			"-0.017": 0.0,
			"-0.016": 0.0,
			"-0.015": 0.157903022265,
			"-0.014": 1.07586702547,
			"-0.013": 1.38755843958,
			"-0.012": 0.639299925244,
			"-0.011": 1.19426842863,
			"-0.01": 0.987315166817,
			"-0.009": 1.49800949578,
			"-0.008": 4.88144339225,
			"-0.007": 7.82366129852,
			"-0.006": 11.7913836623,
			"-0.005": 16.4897571098,
			"-0.004": 20.1917384658,
			"-0.003": 25.3612093476,
			"-0.002": 33.2434975827,
			"-0.001": 33.5620490099,
			"0.0": 43.3451917772,
			"0.001": 41.5540502143,
			"0.002": 27.0651416384,
			"0.003": 30.8004403521,
			"0.004": 32.0438712242,
			"0.005": 9.46798759607,
			"0.006": 2.90052238408,
			"0.007": 2.89463586553,
			"0.008": 3.63939931892,
			"0.009": 2.72294564759,
			"0.01": 2.28704738743,
			"0.011": 2.12566002125,
			"0.012": 2.58220918151,
			"0.013": 1.82707524789,
			"0.014": 1.03605977347,
			"0.015": 0.602800907962,
			"0.016": 0.0300410254619,
			"0.017": 0.0,
			"0.018": 0.0,
			"0.019": 0.0,
			"0.02": 0.0,
			"0.021": 0.0,
			"0.022": 0.0,
			"0.023": 0.0,
			"0.024": 0.0,
			"0.025": 0.0
		}
	}
}
