{
	 "smiles": "COC1=CC=C2C=NC(C)=CC2=C1", 
	 "Tm": 388.15, 
	 "num_atms": 24, 
	 "gaussian": { 
		 "optdone": 1, 
		 "sigma_profile": "yes", 
		 "theory": "DFT", 
		 "functional": "B3LYP", 
		 "basiset": "6-31G**", 
		 "properties": { 
			 "R2extent": 3194.2356, 
			 "electric_dipole_moment_norm": 3.25843603282, 
			 "electric_quadrupole_moment_norm": 11.0766523219, 
			 "total_energy": -555.776176883, 
			 "HOMO_LUMO_gap": 0.16675, 
			 "cosmo_polarized_energy": -8.9, 
			 "cosmo_cavitation_energy": 27.49, 
			 "cosmo_dispersion_energy": -20.52, 
			 "cosmo_repulsion_energy": 1.6, 
			 "cosmo_total_nonelectrostatic_energy": 8.56, 
			 "SMD_solvation_energy": 3.99 
		},
		"coords": [
			{
				"x": -2.1292804225,
				"y": -2.0455170243,
				"z": -2.8909721804,
				"element": "C" 
			},
			{
				"x": -0.7716101613,
				"y": -1.8439333023,
				"z": -2.5279814924,
				"element": "O" 
			},
			{
				"x": -0.4633836683,
				"y": -0.8538738428,
				"z": -1.6431505889,
				"element": "C" 
			},
			{
				"x": -1.4371382576,
				"y": 0.0010825522,
				"z": -1.0540424572,
				"element": "C" 
			},
			{
				"x": -1.0426018911,
				"y": 0.9784686788,
				"z": -0.1679258273,
				"element": "C" 
			},
			{
				"x": 0.3216462751,
				"y": 1.1488755455,
				"z": 0.1692630066,
				"element": "C" 
			},
			{
				"x": 0.7826067932,
				"y": 2.1385994611,
				"z": 1.0750831124,
				"element": "C" 
			},
			{
				"x": 2.0438544496,
				"y": 2.3200137485,
				"z": 1.4070114935,
				"element": "N" 
			},
			{
				"x": 2.9828925145,
				"y": 1.4991205579,
				"z": 0.8420556355,
				"element": "C" 
			},
			{
				"x": 4.4134440353,
				"y": 1.7498471785,
				"z": 1.2567435356,
				"element": "C" 
			},
			{
				"x": 2.651630119,
				"y": 0.5010082815,
				"z": -0.0525581937,
				"element": "C" 
			},
			{
				"x": 1.2984388005,
				"y": 0.2891346894,
				"z": -0.4234156381,
				"element": "C" 
			},
			{
				"x": 0.8779401924,
				"y": -0.7092559909,
				"z": -1.331027348,
				"element": "C" 
			},
			{
				"x": -2.5563163532,
				"y": -1.1606419554,
				"z": -3.3796869741,
				"element": "H" 
			},
			{
				"x": -2.1285149996,
				"y": -2.8768792929,
				"z": -3.5974895676,
				"element": "H" 
			},
			{
				"x": -2.747596746,
				"y": -2.3124255067,
				"z": -2.024575226,
				"element": "H" 
			},
			{
				"x": -2.4865399888,
				"y": -0.1117567906,
				"z": -1.297951105,
				"element": "H" 
			},
			{
				"x": -1.7846886398,
				"y": 1.6324882145,
				"z": 0.2831016753,
				"element": "H" 
			},
			{
				"x": 0.054789914,
				"y": 2.8063307459,
				"z": 1.5397083323,
				"element": "H" 
			},
			{
				"x": 4.8531917212,
				"y": 0.8654748757,
				"z": 1.73180524,
				"element": "H" 
			},
			{
				"x": 4.4475464983,
				"y": 2.5788210852,
				"z": 1.9654351451,
				"element": "H" 
			},
			{
				"x": 5.0417935777,
				"y": 2.0008873423,
				"z": 0.3945814383,
				"element": "H" 
			},
			{
				"x": 3.4274387316,
				"y": -0.1298797177,
				"z": -0.4791263186,
				"element": "H" 
			},
			{
				"x": 1.5992575059,
				"y": -1.3746895334,
				"z": -1.7946856972,
				"element": "H" 
			}
		],
		 "valence_orbital": [ 
			{
				"type": "occ",
				"energy": -0.31233,
				"method": "rhf"
			},
			{
				"type": "occ",
				"energy": -0.28858,
				"method": "rhf"
			},
			{
				"type": "occ",
				"energy": -0.24472,
				"method": "rhf"
			},
			{
				"type": "occ",
				"energy": -0.2358,
				"method": "rhf"
			},
			{
				"type": "occ",
				"energy": -0.21166,
				"method": "rhf"
			},
			{
				"type": "unocc",
				"energy": -0.04491,
				"method": "rhf"
			},
			{
				"type": "unocc",
				"energy": -0.00875,
				"method": "rhf"
			},
			{
				"type": "unocc",
				"energy": 0.03006,
				"method": "rhf"
			},
			{
				"type": "unocc",
				"energy": 0.09011,
				"method": "rhf"
			},
			{
				"type": "unocc",
				"energy": 0.09554,
				"method": "rhf"
			}
		],
		"cosmo_sigma_profile": { 
			"-0.025": 0.0,
			"-0.024": 0.0,
			"-0.023": 0.0,
			"-0.022": 0.0,
			"-0.021": 0.0,
			"-0.02": 0.0,
			"-0.019": 0.0,
			"-0.018": 0.0,
			"-0.017": 0.0,
			"-0.016": 0.0,
			"-0.015": 0.0,
			"-0.014": 0.0,
			"-0.013": 0.0,
			"-0.012": 0.0,
			"-0.011": 0.0,
			"-0.01": 0.0,
			"-0.009": 0.0,
			"-0.008": 0.0142998776005,
			"-0.007": 3.33690581827,
			"-0.006": 16.7243427773,
			"-0.005": 18.4114957077,
			"-0.004": 20.3036932651,
			"-0.003": 19.9428100828,
			"-0.002": 15.1448789558,
			"-0.001": 14.3114383227,
			"0.0": 14.1159664241,
			"0.001": 13.9012625802,
			"0.002": 17.3872137143,
			"0.003": 24.5799184172,
			"0.004": 16.2889921536,
			"0.005": 5.0201274536,
			"0.006": 3.84579842722,
			"0.007": 1.67405697719,
			"0.008": 2.71251341851,
			"0.009": 3.16983036039,
			"0.01": 2.01422405065,
			"0.011": 1.08414619376,
			"0.012": 1.54081272078,
			"0.013": 0.894782903072,
			"0.014": 1.07669286333,
			"0.015": 0.448316375614,
			"0.016": 0.673739044565,
			"0.017": 0.429726942645,
			"0.018": 0.0,
			"0.019": 0.0,
			"0.02": 0.0,
			"0.021": 0.0,
			"0.022": 0.0,
			"0.023": 0.0,
			"0.024": 0.0,
			"0.025": 0.0
		}
	}
}
