{
	 "smiles": "CC(C)OC1=C2C=CC=CC2=C(C=C1)S(N)(=O)=O", 
	 "Tm": 369.15, 
	 "num_atms": 33, 
	 "gaussian": { 
		 "optdone": 1, 
		 "sigma_profile": "yes", 
		 "theory": "DFT", 
		 "functional": "B3LYP", 
		 "basiset": "6-31G**", 
		 "properties": { 
			 "R2extent": 5913.2831, 
			 "electric_dipole_moment_norm": 7.41647599201, 
			 "electric_quadrupole_moment_norm": 24.1775073612, 
			 "total_energy": -1182.97958347, 
			 "HOMO_LUMO_gap": 0.16619, 
			 "cosmo_polarized_energy": -19.4, 
			 "cosmo_cavitation_energy": 36.65, 
			 "cosmo_dispersion_energy": -26.92, 
			 "cosmo_repulsion_energy": 2.03, 
			 "cosmo_total_nonelectrostatic_energy": 11.75, 
			 "SMD_solvation_energy": 5.92 
		},
		"coords": [
			{
				"x": 2.5933880439,
				"y": 1.9827271034,
				"z": 2.2205608328,
				"element": "C" 
			},
			{
				"x": 1.3226207716,
				"y": 1.4068032844,
				"z": 2.8434295845,
				"element": "C" 
			},
			{
				"x": 0.8190228445,
				"y": 2.227874317,
				"z": 4.0242563386,
				"element": "C" 
			},
			{
				"x": 0.2443431176,
				"y": 1.4119782184,
				"z": 1.8805442913,
				"element": "O" 
			},
			{
				"x": 0.1487761731,
				"y": 0.4531902142,
				"z": 0.9281843321,
				"element": "C" 
			},
			{
				"x": -0.9572356316,
				"y": 0.6167942338,
				"z": 0.0222569332,
				"element": "C" 
			},
			{
				"x": -1.8400097714,
				"y": 1.7188423958,
				"z": 0.1502282603,
				"element": "C" 
			},
			{
				"x": -2.8932765677,
				"y": 1.8844490353,
				"z": -0.7221161719,
				"element": "C" 
			},
			{
				"x": -3.0907420739,
				"y": 0.9589416673,
				"z": -1.7684674104,
				"element": "C" 
			},
			{
				"x": -2.2485506401,
				"y": -0.1222705054,
				"z": -1.921094282,
				"element": "C" 
			},
			{
				"x": -1.1656724093,
				"y": -0.3402634636,
				"z": -1.0248684197,
				"element": "C" 
			},
			{
				"x": -0.2709729524,
				"y": -1.4596419543,
				"z": -1.0983993346,
				"element": "C" 
			},
			{
				"x": 0.7784236343,
				"y": -1.5816825347,
				"z": -0.2152937929,
				"element": "C" 
			},
			{
				"x": 1.0062375075,
				"y": -0.6238990321,
				"z": 0.7938376528,
				"element": "C" 
			},
			{
				"x": -0.4853989594,
				"y": -2.7935499001,
				"z": -2.2843622766,
				"element": "S" 
			},
			{
				"x": -1.9023234263,
				"y": -3.5965820478,
				"z": -1.8418267902,
				"element": "N" 
			},
			{
				"x": -0.7475905675,
				"y": -2.2244831937,
				"z": -3.6070910144,
				"element": "O" 
			},
			{
				"x": 0.5918046421,
				"y": -3.7575549623,
				"z": -2.0592276758,
				"element": "O" 
			},
			{
				"x": 3.4094776258,
				"y": 1.9726010223,
				"z": 2.9500061641,
				"element": "H" 
			},
			{
				"x": 2.4221510133,
				"y": 3.0175789559,
				"z": 1.9085441264,
				"element": "H" 
			},
			{
				"x": 2.9110151677,
				"y": 1.4102049472,
				"z": 1.3455984085,
				"element": "H" 
			},
			{
				"x": 1.4915289796,
				"y": 0.3736926166,
				"z": 3.1726225045,
				"element": "H" 
			},
			{
				"x": -0.0955118787,
				"y": 1.7928804131,
				"z": 4.4359029278,
				"element": "H" 
			},
			{
				"x": 0.6043891613,
				"y": 3.2545678784,
				"z": 3.7119285783,
				"element": "H" 
			},
			{
				"x": 1.5762079455,
				"y": 2.2581115519,
				"z": 4.8133622148,
				"element": "H" 
			},
			{
				"x": -1.6646159953,
				"y": 2.4292957665,
				"z": 0.9489151097,
				"element": "H" 
			},
			{
				"x": -3.5627184726,
				"y": 2.7324427366,
				"z": -0.6133826955,
				"element": "H" 
			},
			{
				"x": -3.9056588095,
				"y": 1.1050908164,
				"z": -2.4715813256,
				"element": "H" 
			},
			{
				"x": -2.3790635698,
				"y": -0.7871323761,
				"z": -2.7667415852,
				"element": "H" 
			},
			{
				"x": 1.4412360615,
				"y": -2.4350849068,
				"z": -0.3050125631,
				"element": "H" 
			},
			{
				"x": 1.8533880957,
				"y": -0.7567408717,
				"z": 1.4539530188,
				"element": "H" 
			},
			{
				"x": -1.8027600362,
				"y": -4.0529809896,
				"z": -0.9396757288,
				"element": "H" 
			},
			{
				"x": -2.7170090235,
				"y": -2.9900004364,
				"z": -1.8738902117,
				"element": "H" 
			}
		],
		 "valence_orbital": [ 
			{
				"type": "occ",
				"energy": -0.29805,
				"method": "rhf"
			},
			{
				"type": "occ",
				"energy": -0.29121,
				"method": "rhf"
			},
			{
				"type": "occ",
				"energy": -0.27105,
				"method": "rhf"
			},
			{
				"type": "occ",
				"energy": -0.25858,
				"method": "rhf"
			},
			{
				"type": "occ",
				"energy": -0.21969,
				"method": "rhf"
			},
			{
				"type": "unocc",
				"energy": -0.0535,
				"method": "rhf"
			},
			{
				"type": "unocc",
				"energy": -0.02415,
				"method": "rhf"
			},
			{
				"type": "unocc",
				"energy": 0.0102,
				"method": "rhf"
			},
			{
				"type": "unocc",
				"energy": 0.06248,
				"method": "rhf"
			},
			{
				"type": "unocc",
				"energy": 0.07564,
				"method": "rhf"
			}
		],
		"cosmo_sigma_profile": { 
			"-0.025": 0.0,
			"-0.024": 0.0,
			"-0.023": 0.0,
			"-0.022": 0.0,
			"-0.021": 0.0,
			"-0.02": 0.0,
			"-0.019": 0.0,
			"-0.018": 0.0,
			"-0.017": 0.0,
			"-0.016": 0.0748623602558,
			"-0.015": 0.948731214192,
			"-0.014": 1.9209328325,
			"-0.013": 2.74110725806,
			"-0.012": 2.7158874877,
			"-0.011": 2.27053298409,
			"-0.01": 2.63710988416,
			"-0.009": 2.12039442421,
			"-0.008": 2.7059708396,
			"-0.007": 5.5323078687,
			"-0.006": 11.8826322296,
			"-0.005": 14.880325638,
			"-0.004": 24.3354082764,
			"-0.003": 23.2746107642,
			"-0.002": 20.601310834,
			"-0.001": 20.8245100845,
			"0.0": 25.1171718224,
			"0.001": 20.4955195084,
			"0.002": 21.551883869,
			"0.003": 20.0494801315,
			"0.004": 15.9544387883,
			"0.005": 7.14676098062,
			"0.006": 4.10080594969,
			"0.007": 4.08001974362,
			"0.008": 5.21075048096,
			"0.009": 4.57353949944,
			"0.01": 6.63133923905,
			"0.011": 10.2964054043,
			"0.012": 5.85307364947,
			"0.013": 0.527116917061,
			"0.014": 0.0289085580192,
			"0.015": 0.0,
			"0.016": 0.0,
			"0.017": 0.0,
			"0.018": 0.0,
			"0.019": 0.0,
			"0.02": 0.0,
			"0.021": 0.0,
			"0.022": 0.0,
			"0.023": 0.0,
			"0.024": 0.0,
			"0.025": 0.0
		}
	}
}
