{
	 "smiles": "CN(N=O)C1=CC(=O)C2(C)CCC1C2(C)C", 
	 "Tm": 440.15, 
	 "num_atms": 34, 
	 "gaussian": { 
		 "optdone": 1, 
		 "sigma_profile": "yes", 
		 "theory": "DFT", 
		 "functional": "B3LYP", 
		 "basiset": "6-31G**", 
		 "properties": { 
			 "R2extent": 3619.9116, 
			 "electric_dipole_moment_norm": 5.79681841444, 
			 "electric_quadrupole_moment_norm": 10.661863362, 
			 "total_energy": -727.992897154, 
			 "HOMO_LUMO_gap": 0.15992, 
			 "cosmo_polarized_energy": -14.37, 
			 "cosmo_cavitation_energy": 33.37, 
			 "cosmo_dispersion_energy": -23.31, 
			 "cosmo_repulsion_energy": 1.78, 
			 "cosmo_total_nonelectrostatic_energy": 11.83, 
			 "SMD_solvation_energy": 6.71 
		},
		"coords": [
			{
				"x": -2.9885140089,
				"y": -1.2549738334,
				"z": 0.9502426914,
				"element": "C" 
			},
			{
				"x": -1.5921642262,
				"y": -1.6839577622,
				"z": 0.8660624372,
				"element": "N" 
			},
			{
				"x": -1.1825456276,
				"y": -2.7404559181,
				"z": 1.6282420768,
				"element": "N" 
			},
			{
				"x": -2.0653968712,
				"y": -3.2219869237,
				"z": 2.3192193526,
				"element": "O" 
			},
			{
				"x": -0.6254317518,
				"y": -1.0900663734,
				"z": 0.0313693003,
				"element": "C" 
			},
			{
				"x": 0.4540291441,
				"y": -1.773462025,
				"z": -0.4135938212,
				"element": "C" 
			},
			{
				"x": 1.4926854987,
				"y": -1.0909301504,
				"z": -1.2014240851,
				"element": "C" 
			},
			{
				"x": 2.4976767791,
				"y": -1.6846733892,
				"z": -1.5726647167,
				"element": "O" 
			},
			{
				"x": 1.2272964528,
				"y": 0.3826447865,
				"z": -1.5877877629,
				"element": "C" 
			},
			{
				"x": 2.5127334208,
				"y": 1.0192749314,
				"z": -2.1140592453,
				"element": "C" 
			},
			{
				"x": 0.0803088312,
				"y": 0.3556384029,
				"z": -2.6578961438,
				"element": "C" 
			},
			{
				"x": -1.2566542484,
				"y": 0.4058827696,
				"z": -1.8697715114,
				"element": "C" 
			},
			{
				"x": -0.8240923857,
				"y": 0.356693621,
				"z": -0.3722881744,
				"element": "C" 
			},
			{
				"x": 0.5459965583,
				"y": 1.1097969098,
				"z": -0.3741357332,
				"element": "C" 
			},
			{
				"x": 0.3137377508,
				"y": 2.611006213,
				"z": -0.6507296232,
				"element": "C" 
			},
			{
				"x": 1.3240041761,
				"y": 1.0110980792,
				"z": 0.9504286309,
				"element": "C" 
			},
			{
				"x": -3.6162961272,
				"y": -2.1480214486,
				"z": 0.9593052107,
				"element": "H" 
			},
			{
				"x": -3.2321298127,
				"y": -0.6364013265,
				"z": 0.089376093,
				"element": "H" 
			},
			{
				"x": -3.1778949068,
				"y": -0.702203967,
				"z": 1.8759167615,
				"element": "H" 
			},
			{
				"x": 0.6161339756,
				"y": -2.8182235045,
				"z": -0.1791594933,
				"element": "H" 
			},
			{
				"x": 2.3283901702,
				"y": 2.0303274121,
				"z": -2.4881862407,
				"element": "H" 
			},
			{
				"x": 3.2815857401,
				"y": 1.0699419322,
				"z": -1.3371021897,
				"element": "H" 
			},
			{
				"x": 2.9240597104,
				"y": 0.4156237819,
				"z": -2.9260666179,
				"element": "H" 
			},
			{
				"x": 0.1771587741,
				"y": 1.2240221077,
				"z": -3.3168191608,
				"element": "H" 
			},
			{
				"x": 0.1566040295,
				"y": -0.5287908457,
				"z": -3.2967339755,
				"element": "H" 
			},
			{
				"x": -1.8031109358,
				"y": 1.3311707353,
				"z": -2.0732494292,
				"element": "H" 
			},
			{
				"x": -1.9228233268,
				"y": -0.4220386236,
				"z": -2.1278706582,
				"element": "H" 
			},
			{
				"x": -1.5427781949,
				"y": 0.8471015147,
				"z": 0.2901478589,
				"element": "H" 
			},
			{
				"x": -0.3267744944,
				"y": 3.0408519609,
				"z": 0.1280857497,
				"element": "H" 
			},
			{
				"x": 1.2612413681,
				"y": 3.1568173014,
				"z": -0.6288720239,
				"element": "H" 
			},
			{
				"x": -0.1574132086,
				"y": 2.8103411426,
				"z": -1.6160161414,
				"element": "H" 
			},
			{
				"x": 1.5218775213,
				"y": -0.0161245927,
				"z": 1.260558134,
				"element": "H" 
			},
			{
				"x": 0.7677908723,
				"y": 1.5036940957,
				"z": 1.7562292915,
				"element": "H" 
			},
			{
				"x": 2.2869093537,
				"y": 1.5242829863,
				"z": 0.8624431591,
				"element": "H" 
			}
		],
		 "valence_orbital": [ 
			{
				"type": "occ",
				"energy": -0.31991,
				"method": "rhf"
			},
			{
				"type": "occ",
				"energy": -0.30701,
				"method": "rhf"
			},
			{
				"type": "occ",
				"energy": -0.24478,
				"method": "rhf"
			},
			{
				"type": "occ",
				"energy": -0.24116,
				"method": "rhf"
			},
			{
				"type": "occ",
				"energy": -0.23413,
				"method": "rhf"
			},
			{
				"type": "unocc",
				"energy": -0.07421,
				"method": "rhf"
			},
			{
				"type": "unocc",
				"energy": -0.02306,
				"method": "rhf"
			},
			{
				"type": "unocc",
				"energy": 0.05857,
				"method": "rhf"
			},
			{
				"type": "unocc",
				"energy": 0.06044,
				"method": "rhf"
			},
			{
				"type": "unocc",
				"energy": 0.08433,
				"method": "rhf"
			}
		],
		"cosmo_sigma_profile": { 
			"-0.025": 0.0,
			"-0.024": 0.0,
			"-0.023": 0.0,
			"-0.022": 0.0,
			"-0.021": 0.0,
			"-0.02": 0.0,
			"-0.019": 0.0,
			"-0.018": 0.0,
			"-0.017": 0.0,
			"-0.016": 0.0,
			"-0.015": 0.0,
			"-0.014": 0.0,
			"-0.013": 0.0,
			"-0.012": 0.0,
			"-0.011": 0.0,
			"-0.01": 0.0,
			"-0.009": 0.0,
			"-0.008": 0.142880204273,
			"-0.007": 3.95598001723,
			"-0.006": 11.4636864532,
			"-0.005": 13.0813044935,
			"-0.004": 22.842604898,
			"-0.003": 38.2680805115,
			"-0.002": 32.7604618826,
			"-0.001": 28.1137330591,
			"0.0": 27.4363008426,
			"0.001": 19.8346731884,
			"0.002": 9.4440063599,
			"0.003": 5.0244844824,
			"0.004": 3.31901317651,
			"0.005": 4.32317098371,
			"0.006": 4.72637429554,
			"0.007": 5.00782979937,
			"0.008": 6.97642130089,
			"0.009": 5.99203899916,
			"0.01": 3.94999300705,
			"0.011": 3.27810295568,
			"0.012": 3.1961033423,
			"0.013": 4.81354084334,
			"0.014": 1.74381141474,
			"0.015": 0.0251730631053,
			"0.016": 0.0,
			"0.017": 0.0,
			"0.018": 0.0,
			"0.019": 0.0,
			"0.02": 0.0,
			"0.021": 0.0,
			"0.022": 0.0,
			"0.023": 0.0,
			"0.024": 0.0,
			"0.025": 0.0
		}
	}
}
