{
	 "smiles": "CC1=CC(C=O)=C(C)N1C1=C(C)C=CC=C1", 
	 "Tm": 345.15, 
	 "num_atms": 31, 
	 "gaussian": { 
		 "optdone": 1, 
		 "sigma_profile": "yes", 
		 "theory": "DFT", 
		 "functional": "B3LYP", 
		 "basiset": "6-31G**", 
		 "properties": { 
			 "R2extent": 4503.7828, 
			 "electric_dipole_moment_norm": 6.40363342486, 
			 "electric_quadrupole_moment_norm": 23.6548167315, 
			 "total_energy": -672.51063494, 
			 "HOMO_LUMO_gap": 0.1837, 
			 "cosmo_polarized_energy": -12.49, 
			 "cosmo_cavitation_energy": 34.81, 
			 "cosmo_dispersion_energy": -22.96, 
			 "cosmo_repulsion_energy": 1.78, 
			 "cosmo_total_nonelectrostatic_energy": 13.63, 
			 "SMD_solvation_energy": 7.33 
		},
		"coords": [
			{
				"x": -0.4183091943,
				"y": 1.1812561216,
				"z": -1.9324519518,
				"element": "C" 
			},
			{
				"x": 0.8739638715,
				"y": 0.7320023431,
				"z": -1.3300188451,
				"element": "C" 
			},
			{
				"x": 2.0571188014,
				"y": 0.3724624309,
				"z": -1.9161965539,
				"element": "C" 
			},
			{
				"x": 2.9732156371,
				"y": 0.0031622522,
				"z": -0.8786314372,
				"element": "C" 
			},
			{
				"x": 4.3417315056,
				"y": -0.4461284782,
				"z": -1.0767367329,
				"element": "C" 
			},
			{
				"x": 4.8851882039,
				"y": -0.5600398701,
				"z": -2.1660087875,
				"element": "O" 
			},
			{
				"x": 2.3103815511,
				"y": 0.1510124541,
				"z": 0.3393544233,
				"element": "C" 
			},
			{
				"x": 2.7633023823,
				"y": -0.1003291959,
				"z": 1.7427606573,
				"element": "C" 
			},
			{
				"x": 1.0361811034,
				"y": 0.5948164561,
				"z": 0.0575645309,
				"element": "N" 
			},
			{
				"x": 0.0306333358,
				"y": 0.8970753909,
				"z": 1.0355189625,
				"element": "C" 
			},
			{
				"x": -0.0640567073,
				"y": 2.1982927613,
				"z": 1.5642641916,
				"element": "C" 
			},
			{
				"x": 0.8806003655,
				"y": 3.2925153052,
				"z": 1.1294986746,
				"element": "C" 
			},
			{
				"x": -1.0656688252,
				"y": 2.4413895968,
				"z": 2.5127890395,
				"element": "C" 
			},
			{
				"x": -1.9413854748,
				"y": 1.4356147612,
				"z": 2.9241233387,
				"element": "C" 
			},
			{
				"x": -1.8329792545,
				"y": 0.1523804983,
				"z": 2.3886734186,
				"element": "C" 
			},
			{
				"x": -0.8440642447,
				"y": -0.1137551415,
				"z": 1.4418137578,
				"element": "C" 
			},
			{
				"x": -1.2445471756,
				"y": 0.5004659961,
				"z": -1.6955189661,
				"element": "H" 
			},
			{
				"x": -0.7175933947,
				"y": 2.1788893658,
				"z": -1.5888860502,
				"element": "H" 
			},
			{
				"x": -0.3150945335,
				"y": 1.2187798255,
				"z": -3.019237784,
				"element": "H" 
			},
			{
				"x": 2.2744843586,
				"y": 0.3583991465,
				"z": -2.9743353013,
				"element": "H" 
			},
			{
				"x": 4.9025141666,
				"y": -0.6940604589,
				"z": -0.1470891343,
				"element": "H" 
			},
			{
				"x": 3.8020507905,
				"y": -0.4342579113,
				"z": 1.7524186542,
				"element": "H" 
			},
			{
				"x": 2.1574893999,
				"y": -0.8716666377,
				"z": 2.232313295,
				"element": "H" 
			},
			{
				"x": 2.6953759129,
				"y": 0.8008300675,
				"z": 2.3635739219,
				"element": "H" 
			},
			{
				"x": 0.8657464825,
				"y": 3.4309970144,
				"z": 0.0436559049,
				"element": "H" 
			},
			{
				"x": 0.6158186602,
				"y": 4.2429682504,
				"z": 1.599170825,
				"element": "H" 
			},
			{
				"x": 1.9168897068,
				"y": 3.0599458521,
				"z": 1.3984350461,
				"element": "H" 
			},
			{
				"x": -1.1577515674,
				"y": 3.4390192054,
				"z": 2.9339182624,
				"element": "H" 
			},
			{
				"x": -2.7077257556,
				"y": 1.6564055729,
				"z": 3.6613925767,
				"element": "H" 
			},
			{
				"x": -2.5110111574,
				"y": -0.6353732377,
				"z": 2.7023303516,
				"element": "H" 
			},
			{
				"x": -0.7392989505,
				"y": -1.1033697368,
				"z": 1.0074417117,
				"element": "H" 
			}
		],
		 "valence_orbital": [ 
			{
				"type": "occ",
				"energy": -0.26776,
				"method": "rhf"
			},
			{
				"type": "occ",
				"energy": -0.25966,
				"method": "rhf"
			},
			{
				"type": "occ",
				"energy": -0.24034,
				"method": "rhf"
			},
			{
				"type": "occ",
				"energy": -0.22779,
				"method": "rhf"
			},
			{
				"type": "occ",
				"energy": -0.2076,
				"method": "rhf"
			},
			{
				"type": "unocc",
				"energy": -0.0239,
				"method": "rhf"
			},
			{
				"type": "unocc",
				"energy": -0.02055,
				"method": "rhf"
			},
			{
				"type": "unocc",
				"energy": -0.01745,
				"method": "rhf"
			},
			{
				"type": "unocc",
				"energy": 0.03774,
				"method": "rhf"
			},
			{
				"type": "unocc",
				"energy": 0.0774,
				"method": "rhf"
			}
		],
		"cosmo_sigma_profile": { 
			"-0.025": 0.0,
			"-0.024": 0.0,
			"-0.023": 0.0,
			"-0.022": 0.0,
			"-0.021": 0.0,
			"-0.02": 0.0,
			"-0.019": 0.0,
			"-0.018": 0.0,
			"-0.017": 0.0,
			"-0.016": 0.0,
			"-0.015": 0.0,
			"-0.014": 0.0,
			"-0.013": 0.0,
			"-0.012": 0.0,
			"-0.011": 0.0,
			"-0.01": 0.0,
			"-0.009": 0.0,
			"-0.008": 0.0,
			"-0.007": 1.3906473179,
			"-0.006": 10.0890678425,
			"-0.005": 19.4831313471,
			"-0.004": 30.7199331501,
			"-0.003": 33.253959853,
			"-0.002": 29.0411846446,
			"-0.001": 30.5909022106,
			"0.0": 26.8076657242,
			"0.001": 15.2802793262,
			"0.002": 12.5965813222,
			"0.003": 12.9700896174,
			"0.004": 12.8991067637,
			"0.005": 12.1274462572,
			"0.006": 6.13002703442,
			"0.007": 3.35115248784,
			"0.008": 2.17146586956,
			"0.009": 1.31487352482,
			"0.01": 2.00522608456,
			"0.011": 1.86471559476,
			"0.012": 4.03194464185,
			"0.013": 4.67420482542,
			"0.014": 2.63226020523,
			"0.015": 0.266298400879,
			"0.016": 0.0,
			"0.017": 0.0,
			"0.018": 0.0,
			"0.019": 0.0,
			"0.02": 0.0,
			"0.021": 0.0,
			"0.022": 0.0,
			"0.023": 0.0,
			"0.024": 0.0,
			"0.025": 0.0
		}
	}
}
