{
	 "smiles": "CC(=O)C1=CC(OCC2=CC=CC=C2)=CC(OCC2=CC=CC=C2)=C1", 
	 "Tm": 334.15, 
	 "num_atms": 45, 
	 "gaussian": { 
		 "optdone": 1, 
		 "sigma_profile": "yes", 
		 "theory": "DFT", 
		 "functional": "B3LYP", 
		 "basiset": "6-31G**", 
		 "properties": { 
			 "R2extent": 14611.5549, 
			 "electric_dipole_moment_norm": 2.09637702954, 
			 "electric_quadrupole_moment_norm": 12.0320108029, 
			 "total_energy": -1076.05438717, 
			 "HOMO_LUMO_gap": 0.17027, 
			 "cosmo_polarized_energy": -15.32, 
			 "cosmo_cavitation_energy": 49.69, 
			 "cosmo_dispersion_energy": -34.18, 
			 "cosmo_repulsion_energy": 2.61, 
			 "cosmo_total_nonelectrostatic_energy": 18.11, 
			 "SMD_solvation_energy": 9.14 
		},
		"coords": [
			{
				"x": -2.8615119459,
				"y": 1.6346285164,
				"z": 1.0954719194,
				"element": "C" 
			},
			{
				"x": -1.6359080704,
				"y": 1.6089472084,
				"z": 1.994876184,
				"element": "C" 
			},
			{
				"x": -1.7523422702,
				"y": 1.7799626066,
				"z": 3.1992416085,
				"element": "O" 
			},
			{
				"x": -0.2862276667,
				"y": 1.3728245388,
				"z": 1.3801334553,
				"element": "C" 
			},
			{
				"x": -0.1233823103,
				"y": 1.2024925555,
				"z": -0.0028153169,
				"element": "C" 
			},
			{
				"x": 1.16261422,
				"y": 0.9848882518,
				"z": -0.5143623014,
				"element": "C" 
			},
			{
				"x": 1.4493214184,
				"y": 0.807913196,
				"z": -1.8381342313,
				"element": "O" 
			},
			{
				"x": 0.3739938572,
				"y": 0.7879451707,
				"z": -2.7736769153,
				"element": "C" 
			},
			{
				"x": 0.9222731899,
				"y": 0.4964011662,
				"z": -4.1502968722,
				"element": "C" 
			},
			{
				"x": 1.9594266278,
				"y": -0.4270810073,
				"z": -4.3302427739,
				"element": "C" 
			},
			{
				"x": 2.4232724482,
				"y": -0.7238108068,
				"z": -5.6114993487,
				"element": "C" 
			},
			{
				"x": 1.8512629249,
				"y": -0.1087873229,
				"z": -6.7277883925,
				"element": "C" 
			},
			{
				"x": 0.8169402307,
				"y": 0.8116616839,
				"z": -6.5549600175,
				"element": "C" 
			},
			{
				"x": 0.3597350806,
				"y": 1.1156394722,
				"z": -5.2713907628,
				"element": "C" 
			},
			{
				"x": 2.2636638064,
				"y": 0.9466632556,
				"z": 0.3445574481,
				"element": "C" 
			},
			{
				"x": 2.0904585558,
				"y": 1.1209230383,
				"z": 1.7208414128,
				"element": "C" 
			},
			{
				"x": 3.2412619372,
				"y": 1.0803674575,
				"z": 2.4576580359,
				"element": "O" 
			},
			{
				"x": 3.1767252853,
				"y": 1.3196441432,
				"z": 3.8650992657,
				"element": "C" 
			},
			{
				"x": 2.6890893973,
				"y": 0.1314512899,
				"z": 4.6705278477,
				"element": "C" 
			},
			{
				"x": 3.0313022463,
				"y": -1.1728499404,
				"z": 4.2932121878,
				"element": "C" 
			},
			{
				"x": 2.626161746,
				"y": -2.259819417,
				"z": 5.0672354325,
				"element": "C" 
			},
			{
				"x": 1.8811216072,
				"y": -2.0555459704,
				"z": 6.2312655671,
				"element": "C" 
			},
			{
				"x": 1.5379281649,
				"y": -0.7581875446,
				"z": 6.6136167018,
				"element": "C" 
			},
			{
				"x": 1.937165274,
				"y": 0.3288561075,
				"z": 5.8337798001,
				"element": "C" 
			},
			{
				"x": 0.8122670371,
				"y": 1.3290444005,
				"z": 2.2469082414,
				"element": "C" 
			},
			{
				"x": -2.7829501351,
				"y": 2.4305064442,
				"z": 0.3465926243,
				"element": "H" 
			},
			{
				"x": -3.7426355407,
				"y": 1.8073178,
				"z": 1.7139079345,
				"element": "H" 
			},
			{
				"x": -2.9747796127,
				"y": 0.6875602819,
				"z": 0.5566829374,
				"element": "H" 
			},
			{
				"x": -0.9802233596,
				"y": 1.2418817755,
				"z": -0.6610052016,
				"element": "H" 
			},
			{
				"x": -0.153834004,
				"y": 1.7519017147,
				"z": -2.7707385542,
				"element": "H" 
			},
			{
				"x": -0.3513384996,
				"y": 0.0135144776,
				"z": -2.4789341819,
				"element": "H" 
			},
			{
				"x": 2.4080744515,
				"y": -0.8973515201,
				"z": -3.4613546942,
				"element": "H" 
			},
			{
				"x": 3.2327395884,
				"y": -1.4370500813,
				"z": -5.7390968062,
				"element": "H" 
			},
			{
				"x": 2.2132958452,
				"y": -0.3420875602,
				"z": -7.7249578498,
				"element": "H" 
			},
			{
				"x": 0.3719449588,
				"y": 1.3012510259,
				"z": -7.4165023739,
				"element": "H" 
			},
			{
				"x": -0.4382276625,
				"y": 1.8430336656,
				"z": -5.1411862059,
				"element": "H" 
			},
			{
				"x": 3.25659633,
				"y": 0.7867903103,
				"z": -0.0598785351,
				"element": "H" 
			},
			{
				"x": 2.5691206269,
				"y": 2.2084055961,
				"z": 4.0767428147,
				"element": "H" 
			},
			{
				"x": 4.211283203,
				"y": 1.5580599076,
				"z": 4.1348207346,
				"element": "H" 
			},
			{
				"x": 3.606552847,
				"y": -1.3290608378,
				"z": 3.3856655311,
				"element": "H" 
			},
			{
				"x": 2.8926504345,
				"y": -3.2679583492,
				"z": 4.7622475722,
				"element": "H" 
			},
			{
				"x": 1.5657602815,
				"y": -2.9030338934,
				"z": 6.8330797878,
				"element": "H" 
			},
			{
				"x": 0.9502467948,
				"y": -0.5909495059,
				"z": 7.5116722598,
				"element": "H" 
			},
			{
				"x": 1.6560026086,
				"y": 1.3370688205,
				"z": 6.1295465467,
				"element": "H" 
			},
			{
				"x": 0.6243080525,
				"y": 1.4421278784,
				"z": 3.3058374842,
				"element": "H" 
			}
		],
		 "valence_orbital": [ 
			{
				"type": "occ",
				"energy": -0.24907,
				"method": "rhf"
			},
			{
				"type": "occ",
				"energy": -0.24567,
				"method": "rhf"
			},
			{
				"type": "occ",
				"energy": -0.24446,
				"method": "rhf"
			},
			{
				"type": "occ",
				"energy": -0.23131,
				"method": "rhf"
			},
			{
				"type": "occ",
				"energy": -0.2217,
				"method": "rhf"
			},
			{
				"type": "unocc",
				"energy": -0.05143,
				"method": "rhf"
			},
			{
				"type": "unocc",
				"energy": -0.00774,
				"method": "rhf"
			},
			{
				"type": "unocc",
				"energy": -0.00449,
				"method": "rhf"
			},
			{
				"type": "unocc",
				"energy": -0.00426,
				"method": "rhf"
			},
			{
				"type": "unocc",
				"energy": -0.00151,
				"method": "rhf"
			}
		],
		"cosmo_sigma_profile": { 
			"-0.025": 0.0,
			"-0.024": 0.0,
			"-0.023": 0.0,
			"-0.022": 0.0,
			"-0.021": 0.0,
			"-0.02": 0.0,
			"-0.019": 0.0,
			"-0.018": 0.0,
			"-0.017": 0.0,
			"-0.016": 0.0,
			"-0.015": 0.0,
			"-0.014": 0.0,
			"-0.013": 0.0,
			"-0.012": 0.0,
			"-0.011": 0.0,
			"-0.01": 0.0,
			"-0.009": 0.0,
			"-0.008": 0.0967798953161,
			"-0.007": 6.87046558007,
			"-0.006": 29.9989375151,
			"-0.005": 36.8741376959,
			"-0.004": 37.7129342057,
			"-0.003": 32.523288366,
			"-0.002": 27.3509992254,
			"-0.001": 25.4231451422,
			"0.0": 23.312828286,
			"0.001": 20.9779890838,
			"0.002": 26.4591938998,
			"0.003": 36.3485625092,
			"0.004": 28.4705861704,
			"0.005": 23.4493185623,
			"0.006": 17.6248758855,
			"0.007": 4.77933788166,
			"0.008": 3.91987771985,
			"0.009": 2.72122473874,
			"0.01": 2.94803291325,
			"0.011": 3.09397467479,
			"0.012": 3.94788058061,
			"0.013": 1.3411562338,
			"0.014": 0.190278241544,
			"0.015": 0.0,
			"0.016": 0.0,
			"0.017": 0.0,
			"0.018": 0.0,
			"0.019": 0.0,
			"0.02": 0.0,
			"0.021": 0.0,
			"0.022": 0.0,
			"0.023": 0.0,
			"0.024": 0.0,
			"0.025": 0.0
		}
	}
}
