{
	 "smiles": "NCCSS(O)(=O)=O", 
	 "Tm": 465.15, 
	 "num_atms": 15, 
	 "gaussian": { 
		 "optdone": 1, 
		 "sigma_profile": "yes", 
		 "theory": "DFT", 
		 "functional": "B3LYP", 
		 "basiset": "6-31G**", 
		 "properties": { 
			 "R2extent": 2452.0317, 
			 "electric_dipole_moment_norm": 3.14660560763, 
			 "electric_quadrupole_moment_norm": 18.5127429829, 
			 "total_energy": -1157.14620376, 
			 "HOMO_LUMO_gap": 0.19293, 
			 "cosmo_polarized_energy": -16.05, 
			 "cosmo_cavitation_energy": 21.85, 
			 "cosmo_dispersion_energy": -17.17, 
			 "cosmo_repulsion_energy": 1.36, 
			 "cosmo_total_nonelectrostatic_energy": 6.04, 
			 "SMD_solvation_energy": 1.01 
		},
		"coords": [
			{
				"x": -0.9614090321,
				"y": -0.3531693034,
				"z": 2.4573317961,
				"element": "N" 
			},
			{
				"x": 0.3992533937,
				"y": -0.0587334851,
				"z": 2.0086832133,
				"element": "C" 
			},
			{
				"x": 0.3251644108,
				"y": 0.6444796846,
				"z": 0.6486540934,
				"element": "C" 
			},
			{
				"x": 1.9611989474,
				"y": 1.1568916342,
				"z": -0.0245988976,
				"element": "S" 
			},
			{
				"x": 2.6387890097,
				"y": -0.7493298206,
				"z": -0.663738885,
				"element": "S" 
			},
			{
				"x": 3.8633362396,
				"y": -0.2505441226,
				"z": -1.6274903723,
				"element": "O" 
			},
			{
				"x": 1.6147175505,
				"y": -1.3670865554,
				"z": -1.5047984371,
				"element": "O" 
			},
			{
				"x": 3.2624641156,
				"y": -1.4824017979,
				"z": 0.4255345813,
				"element": "O" 
			},
			{
				"x": -0.9502591675,
				"y": -1.0692343166,
				"z": 3.1771539819,
				"element": "H" 
			},
			{
				"x": -1.3898097591,
				"y": 0.4713841723,
				"z": 2.8698332732,
				"element": "H" 
			},
			{
				"x": 0.9933947881,
				"y": 0.5590224064,
				"z": 2.701469207,
				"element": "H" 
			},
			{
				"x": 0.9381314337,
				"y": -1.0038587798,
				"z": 1.8927655487,
				"element": "H" 
			},
			{
				"x": -0.1835589462,
				"y": 0.0237592157,
				"z": -0.0921628744,
				"element": "H" 
			},
			{
				"x": -0.2215170868,
				"y": 1.5912993596,
				"z": 0.7234903548,
				"element": "H" 
			},
			{
				"x": 3.4952041026,
				"y": -0.1136782913,
				"z": -2.5177265833,
				"element": "H" 
			}
		],
		 "valence_orbital": [ 
			{
				"type": "occ",
				"energy": -0.34241,
				"method": "rhf"
			},
			{
				"type": "occ",
				"energy": -0.32603,
				"method": "rhf"
			},
			{
				"type": "occ",
				"energy": -0.3201,
				"method": "rhf"
			},
			{
				"type": "occ",
				"energy": -0.26673,
				"method": "rhf"
			},
			{
				"type": "occ",
				"energy": -0.2487,
				"method": "rhf"
			},
			{
				"type": "unocc",
				"energy": -0.05577,
				"method": "rhf"
			},
			{
				"type": "unocc",
				"energy": 0.00691,
				"method": "rhf"
			},
			{
				"type": "unocc",
				"energy": 0.04917,
				"method": "rhf"
			},
			{
				"type": "unocc",
				"energy": 0.06122,
				"method": "rhf"
			},
			{
				"type": "unocc",
				"energy": 0.08337,
				"method": "rhf"
			}
		],
		"cosmo_sigma_profile": { 
			"-0.025": 0.0,
			"-0.024": 0.0,
			"-0.023": 0.0,
			"-0.022": 0.0296399877263,
			"-0.021": 0.613493440532,
			"-0.02": 1.28648071575,
			"-0.019": 0.945149200551,
			"-0.018": 0.401250502577,
			"-0.017": 0.500866930197,
			"-0.016": 0.62869143369,
			"-0.015": 0.874299486464,
			"-0.014": 1.15190762641,
			"-0.013": 1.04337689029,
			"-0.012": 0.880569981994,
			"-0.011": 0.553624276051,
			"-0.01": 3.65563595729,
			"-0.009": 4.59910367743,
			"-0.008": 7.09960998021,
			"-0.007": 6.65071504801,
			"-0.006": 5.9252261756,
			"-0.005": 5.97296130092,
			"-0.004": 9.36022097083,
			"-0.003": 11.6476663718,
			"-0.002": 9.95699226157,
			"-0.001": 8.21089932511,
			"0.0": 9.14201857463,
			"0.001": 9.35719208389,
			"0.002": 8.67327618626,
			"0.003": 7.05499514243,
			"0.004": 7.72647433146,
			"0.005": 6.62819319372,
			"0.006": 7.40636367873,
			"0.007": 5.87748810519,
			"0.008": 8.58124818267,
			"0.009": 12.4126259922,
			"0.01": 4.1031775156,
			"0.011": 0.627531155695,
			"0.012": 0.521152657909,
			"0.013": 0.851169521482,
			"0.014": 0.62506906746,
			"0.015": 0.511442796911,
			"0.016": 0.139769508674,
			"0.017": 0.595533285256,
			"0.018": 0.772613438744,
			"0.019": 0.0,
			"0.02": 0.0,
			"0.021": 0.0,
			"0.022": 0.0,
			"0.023": 0.0,
			"0.024": 0.0,
			"0.025": 0.0
		}
	}
}
