{
	 "smiles": "CC(C)(C)OC(=O)NC(CC1=C(Cl)C=C(Cl)C=C1)C(O)=O", 
	 "Tm": 405.15, 
	 "num_atms": 38, 
	 "gaussian": { 
		 "optdone": 1, 
		 "sigma_profile": "yes", 
		 "theory": "DFT", 
		 "functional": "B3LYP", 
		 "basiset": "6-31G**", 
		 "properties": { 
			 "R2extent": 8103.9327, 
			 "electric_dipole_moment_norm": 3.43874654489, 
			 "electric_quadrupole_moment_norm": 26.3426890875, 
			 "total_energy": -1819.80865958, 
			 "HOMO_LUMO_gap": 0.21494, 
			 "cosmo_polarized_energy": -23.21, 
			 "cosmo_cavitation_energy": 45.5, 
			 "cosmo_dispersion_energy": -28.18, 
			 "cosmo_repulsion_energy": 2.19, 
			 "cosmo_total_nonelectrostatic_energy": 19.51, 
			 "SMD_solvation_energy": 9.08 
		},
		"coords": [
			{
				"x": 3.2675129419,
				"y": 0.5655421245,
				"z": -0.0833443399,
				"element": "C" 
			},
			{
				"x": 2.3404667404,
				"y": -0.1166546405,
				"z": -1.0914804136,
				"element": "C" 
			},
			{
				"x": 2.4128885441,
				"y": -1.6407183459,
				"z": -0.9580072843,
				"element": "C" 
			},
			{
				"x": 2.6323433486,
				"y": 0.3613170484,
				"z": -2.5167540588,
				"element": "C" 
			},
			{
				"x": 1.0067184498,
				"y": 0.3588157648,
				"z": -0.6682755864,
				"element": "O" 
			},
			{
				"x": -0.1050573221,
				"y": -0.0268726123,
				"z": -1.3201264792,
				"element": "C" 
			},
			{
				"x": -0.1742346351,
				"y": -0.7786065996,
				"z": -2.2770253177,
				"element": "O" 
			},
			{
				"x": -1.2334041782,
				"y": 0.5268137302,
				"z": -0.7472577928,
				"element": "N" 
			},
			{
				"x": -1.2761372506,
				"y": 1.5518243572,
				"z": 0.2885431475,
				"element": "C" 
			},
			{
				"x": -1.8581776971,
				"y": 1.0110349389,
				"z": 1.6246437015,
				"element": "C" 
			},
			{
				"x": -0.9617063294,
				"y": -0.0110363394,
				"z": 2.2816083224,
				"element": "C" 
			},
			{
				"x": 0.10124489,
				"y": 0.3459299417,
				"z": 3.1261608221,
				"element": "C" 
			},
			{
				"x": 0.4225802696,
				"y": 2.0391836873,
				"z": 3.4829319286,
				"element": "Cl" 
			},
			{
				"x": 0.9376183798,
				"y": -0.6025833038,
				"z": 3.7138587235,
				"element": "C" 
			},
			{
				"x": 0.7123231753,
				"y": -1.9511454395,
				"z": 3.4452445613,
				"element": "C" 
			},
			{
				"x": 1.7552895546,
				"y": -3.1543046544,
				"z": 4.1805554577,
				"element": "Cl" 
			},
			{
				"x": -0.3277697574,
				"y": -2.3533456186,
				"z": 2.6095321043,
				"element": "C" 
			},
			{
				"x": -1.1477818403,
				"y": -1.379807812,
				"z": 2.0433659508,
				"element": "C" 
			},
			{
				"x": -2.049031801,
				"y": 2.7741155426,
				"z": -0.2372346787,
				"element": "C" 
			},
			{
				"x": -3.3992764703,
				"y": 2.622097887,
				"z": -0.3573506793,
				"element": "O" 
			},
			{
				"x": -1.5250245238,
				"y": 3.8044658893,
				"z": -0.567617466,
				"element": "O" 
			},
			{
				"x": 4.3066278521,
				"y": 0.2904965475,
				"z": -0.2864747981,
				"element": "H" 
			},
			{
				"x": 3.1780591836,
				"y": 1.6536486025,
				"z": -0.1494039014,
				"element": "H" 
			},
			{
				"x": 3.020713261,
				"y": 0.2590492299,
				"z": 0.9371730638,
				"element": "H" 
			},
			{
				"x": 1.7418355344,
				"y": -2.127955098,
				"z": -1.6657363485,
				"element": "H" 
			},
			{
				"x": 2.1431733541,
				"y": -1.9463304452,
				"z": 0.057706314,
				"element": "H" 
			},
			{
				"x": 3.4366998242,
				"y": -1.9755822821,
				"z": -1.153202962,
				"element": "H" 
			},
			{
				"x": 1.9560267709,
				"y": -0.1059044339,
				"z": -3.2330142297,
				"element": "H" 
			},
			{
				"x": 2.5258485822,
				"y": 1.4485468347,
				"z": -2.582853133,
				"element": "H" 
			},
			{
				"x": 3.6623414025,
				"y": 0.1039688011,
				"z": -2.783910204,
				"element": "H" 
			},
			{
				"x": -2.0696417809,
				"y": 0.3251767829,
				"z": -1.2772744566,
				"element": "H" 
			},
			{
				"x": -0.2577509243,
				"y": 1.8974676644,
				"z": 0.4531671799,
				"element": "H" 
			},
			{
				"x": -2.0306806608,
				"y": 1.8549987638,
				"z": 2.2997434943,
				"element": "H" 
			},
			{
				"x": -2.8327198249,
				"y": 0.5406661156,
				"z": 1.4365288563,
				"element": "H" 
			},
			{
				"x": 1.743511594,
				"y": -0.2935647768,
				"z": 4.3679187728,
				"element": "H" 
			},
			{
				"x": -0.4944870314,
				"y": -3.405501665,
				"z": 2.4099096863,
				"element": "H" 
			},
			{
				"x": -1.9595627564,
				"y": -1.6900453998,
				"z": 1.3924397642,
				"element": "H" 
			},
			{
				"x": -3.692978869,
				"y": 1.7863992127,
				"z": 0.0322122788,
				"element": "H" 
			}
		],
		 "valence_orbital": [ 
			{
				"type": "occ",
				"energy": -0.29497,
				"method": "rhf"
			},
			{
				"type": "occ",
				"energy": -0.27389,
				"method": "rhf"
			},
			{
				"type": "occ",
				"energy": -0.27154,
				"method": "rhf"
			},
			{
				"type": "occ",
				"energy": -0.26626,
				"method": "rhf"
			},
			{
				"type": "occ",
				"energy": -0.25245,
				"method": "rhf"
			},
			{
				"type": "unocc",
				"energy": -0.03751,
				"method": "rhf"
			},
			{
				"type": "unocc",
				"energy": -0.03587,
				"method": "rhf"
			},
			{
				"type": "unocc",
				"energy": -0.0087,
				"method": "rhf"
			},
			{
				"type": "unocc",
				"energy": -0.00215,
				"method": "rhf"
			},
			{
				"type": "unocc",
				"energy": 0.02556,
				"method": "rhf"
			}
		],
		"cosmo_sigma_profile": { 
			"-0.025": 0.0,
			"-0.024": 0.0,
			"-0.023": 0.0,
			"-0.022": 0.0,
			"-0.021": 0.0276624206724,
			"-0.02": 0.588795150112,
			"-0.019": 1.65614936645,
			"-0.018": 1.07743303282,
			"-0.017": 1.40028452527,
			"-0.016": 0.937661625161,
			"-0.015": 2.04146153937,
			"-0.014": 1.81466702275,
			"-0.013": 0.937196462306,
			"-0.012": 1.58672701129,
			"-0.011": 1.7698676066,
			"-0.01": 1.69429418492,
			"-0.009": 2.33553612616,
			"-0.008": 5.73739959299,
			"-0.007": 9.29147766566,
			"-0.006": 8.33019745719,
			"-0.005": 10.4881374733,
			"-0.004": 19.2738658228,
			"-0.003": 20.7975429389,
			"-0.002": 31.7337515077,
			"-0.001": 34.0779562793,
			"0.0": 46.3015866693,
			"0.001": 41.6560516117,
			"0.002": 26.1289245118,
			"0.003": 20.2430688147,
			"0.004": 21.7518603911,
			"0.005": 7.82496375438,
			"0.006": 3.72917819839,
			"0.007": 4.49882976181,
			"0.008": 4.10243897416,
			"0.009": 5.06860864725,
			"0.01": 6.70547382187,
			"0.011": 7.71425417523,
			"0.012": 5.21717921167,
			"0.013": 4.02662424531,
			"0.014": 0.903563428514,
			"0.015": 0.0,
			"0.016": 0.0,
			"0.017": 0.0,
			"0.018": 0.0,
			"0.019": 0.0,
			"0.02": 0.0,
			"0.021": 0.0,
			"0.022": 0.0,
			"0.023": 0.0,
			"0.024": 0.0,
			"0.025": 0.0
		}
	}
}
