{
	 "smiles": "CN1CCC(CC1)NC1=CC2=C(C=NN2)C=C1", 
	 "Tm": 439.15, 
	 "num_atms": 35, 
	 "gaussian": { 
		 "optdone": 1, 
		 "sigma_profile": "yes", 
		 "theory": "DFT", 
		 "functional": "B3LYP", 
		 "basiset": "6-31G**", 
		 "properties": { 
			 "R2extent": 6697.2623, 
			 "electric_dipole_moment_norm": 3.35462486427, 
			 "electric_quadrupole_moment_norm": 19.1609916466, 
			 "total_energy": -725.209160063, 
			 "HOMO_LUMO_gap": 0.17227, 
			 "cosmo_polarized_energy": -13.79, 
			 "cosmo_cavitation_energy": 35.82, 
			 "cosmo_dispersion_energy": -26.46, 
			 "cosmo_repulsion_energy": 2.03, 
			 "cosmo_total_nonelectrostatic_energy": 11.39, 
			 "SMD_solvation_energy": 1.27 
		},
		"coords": [
			{
				"x": 0.9827414084,
				"y": -0.9612837646,
				"z": 4.5293176631,
				"element": "C" 
			},
			{
				"x": 1.275559708,
				"y": -1.1274466201,
				"z": 3.1153701836,
				"element": "N" 
			},
			{
				"x": 1.1508015279,
				"y": 0.1126294855,
				"z": 2.3228825372,
				"element": "C" 
			},
			{
				"x": -0.1584723306,
				"y": 0.1894879119,
				"z": 1.5278375308,
				"element": "C" 
			},
			{
				"x": -0.2412825544,
				"y": -0.9731451732,
				"z": 0.4988477087,
				"element": "C" 
			},
			{
				"x": 0.5508598968,
				"y": -2.1949580387,
				"z": 1.0182809985,
				"element": "C" 
			},
			{
				"x": 0.5324056125,
				"y": -2.2551615849,
				"z": 2.5453086006,
				"element": "C" 
			},
			{
				"x": 0.2830152316,
				"y": -0.5924032176,
				"z": -0.8092432404,
				"element": "N" 
			},
			{
				"x": -0.4545028895,
				"y": 0.0585197336,
				"z": -1.7904289559,
				"element": "C" 
			},
			{
				"x": 0.0504826222,
				"y": 0.1208907775,
				"z": -3.0961926565,
				"element": "C" 
			},
			{
				"x": -0.7023243977,
				"y": 0.8028503705,
				"z": -4.0578080469,
				"element": "C" 
			},
			{
				"x": -1.9440142588,
				"y": 1.4236190032,
				"z": -3.7631331606,
				"element": "C" 
			},
			{
				"x": -2.3630769473,
				"y": 1.9903819569,
				"z": -5.0066230993,
				"element": "C" 
			},
			{
				"x": -1.4931502938,
				"y": 1.7563492884,
				"z": -5.9711154951,
				"element": "N" 
			},
			{
				"x": -0.4884793237,
				"y": 1.034166647,
				"z": -5.3886965641,
				"element": "N" 
			},
			{
				"x": -2.4352684158,
				"y": 1.3507204914,
				"z": -2.4491445661,
				"element": "C" 
			},
			{
				"x": -1.7031004768,
				"y": 0.681669065,
				"z": -1.4841161724,
				"element": "C" 
			},
			{
				"x": 1.6260380894,
				"y": -0.1870715579,
				"z": 4.9588389673,
				"element": "H" 
			},
			{
				"x": -0.0709073715,
				"y": -0.6923520493,
				"z": 4.7436361887,
				"element": "H" 
			},
			{
				"x": 1.1939021969,
				"y": -1.8980416782,
				"z": 5.0577329894,
				"element": "H" 
			},
			{
				"x": 1.9920580985,
				"y": 0.1843783006,
				"z": 1.6190843725,
				"element": "H" 
			},
			{
				"x": 1.2417415862,
				"y": 0.9687626778,
				"z": 2.9983823842,
				"element": "H" 
			},
			{
				"x": -1.0104994988,
				"y": 0.1305164494,
				"z": 2.2170587287,
				"element": "H" 
			},
			{
				"x": -0.2318006963,
				"y": 1.1487025305,
				"z": 1.0071431636,
				"element": "H" 
			},
			{
				"x": -1.2954554736,
				"y": -1.269806611,
				"z": 0.3945761587,
				"element": "H" 
			},
			{
				"x": 0.1490818738,
				"y": -3.1198077266,
				"z": 0.592201378,
				"element": "H" 
			},
			{
				"x": 1.5981498659,
				"y": -2.1166833273,
				"z": 0.6964576381,
				"element": "H" 
			},
			{
				"x": 0.9854804408,
				"y": -3.1912188968,
				"z": 2.8961640872,
				"element": "H" 
			},
			{
				"x": -0.5224767655,
				"y": -2.2748516518,
				"z": 2.8885386036,
				"element": "H" 
			},
			{
				"x": 1.0192088957,
				"y": -1.1846271788,
				"z": -1.1641327486,
				"element": "H" 
			},
			{
				"x": 0.9999505245,
				"y": -0.3467089649,
				"z": -3.3434904827,
				"element": "H" 
			},
			{
				"x": -3.2618855673,
				"y": 2.553931299,
				"z": -5.2208905147,
				"element": "H" 
			},
			{
				"x": 0.2939465589,
				"y": 0.7503489894,
				"z": -5.9546207488,
				"element": "H" 
			},
			{
				"x": -3.3821045871,
				"y": 1.8130359817,
				"z": -2.1842657632,
				"element": "H" 
			},
			{
				"x": -2.086322289,
				"y": 0.6348070823,
				"z": -0.4720576673,
				"element": "H" 
			}
		],
		 "valence_orbital": [ 
			{
				"type": "occ",
				"energy": -0.27917,
				"method": "rhf"
			},
			{
				"type": "occ",
				"energy": -0.26674,
				"method": "rhf"
			},
			{
				"type": "occ",
				"energy": -0.21631,
				"method": "rhf"
			},
			{
				"type": "occ",
				"energy": -0.20279,
				"method": "rhf"
			},
			{
				"type": "occ",
				"energy": -0.18679,
				"method": "rhf"
			},
			{
				"type": "unocc",
				"energy": -0.01452,
				"method": "rhf"
			},
			{
				"type": "unocc",
				"energy": 0.03345,
				"method": "rhf"
			},
			{
				"type": "unocc",
				"energy": 0.06931,
				"method": "rhf"
			},
			{
				"type": "unocc",
				"energy": 0.07783,
				"method": "rhf"
			},
			{
				"type": "unocc",
				"energy": 0.08259,
				"method": "rhf"
			}
		],
		"cosmo_sigma_profile": { 
			"-0.025": 0.0,
			"-0.024": 0.0,
			"-0.023": 0.0,
			"-0.022": 0.0,
			"-0.021": 0.0,
			"-0.02": 0.0,
			"-0.019": 0.0,
			"-0.018": 0.0,
			"-0.017": 0.0,
			"-0.016": 0.393977957188,
			"-0.015": 1.63490257285,
			"-0.014": 0.969944384247,
			"-0.013": 1.32778826001,
			"-0.012": 1.55672204898,
			"-0.011": 2.2675465006,
			"-0.01": 2.06851175555,
			"-0.009": 2.55898045079,
			"-0.008": 2.81363411207,
			"-0.007": 3.9101194448,
			"-0.006": 7.16198579935,
			"-0.005": 8.06116117033,
			"-0.004": 15.8587709578,
			"-0.003": 28.5496036122,
			"-0.002": 35.6516728879,
			"-0.001": 35.0344558686,
			"0.0": 28.4939723642,
			"0.001": 14.0639352696,
			"0.002": 10.3287236867,
			"0.003": 10.2067646487,
			"0.004": 14.211305206,
			"0.005": 15.8843258293,
			"0.006": 14.2482909473,
			"0.007": 5.16564670515,
			"0.008": 3.02526547919,
			"0.009": 2.48294597545,
			"0.01": 1.96281899032,
			"0.011": 2.16515630437,
			"0.012": 2.21626455441,
			"0.013": 1.71750137547,
			"0.014": 1.23508061595,
			"0.015": 1.2993244773,
			"0.016": 1.99534528573,
			"0.017": 0.190278124611,
			"0.018": 0.0,
			"0.019": 0.0,
			"0.02": 0.0,
			"0.021": 0.0,
			"0.022": 0.0,
			"0.023": 0.0,
			"0.024": 0.0,
			"0.025": 0.0
		}
	}
}
