{
	 "smiles": "CC1=NOC(N)=C1", 
	 "Tm": 356.15, 
	 "num_atms": 13, 
	 "gaussian": { 
		 "optdone": 1, 
		 "sigma_profile": "yes", 
		 "theory": "DFT", 
		 "functional": "B3LYP", 
		 "basiset": "6-31G**", 
		 "properties": { 
			 "R2extent": 835.4978, 
			 "electric_dipole_moment_norm": 3.67203083593, 
			 "electric_quadrupole_moment_norm": 12.7890358006, 
			 "total_energy": -340.719800219, 
			 "HOMO_LUMO_gap": 0.22763, 
			 "cosmo_polarized_energy": -12.62, 
			 "cosmo_cavitation_energy": 17.15, 
			 "cosmo_dispersion_energy": -13.02, 
			 "cosmo_repulsion_energy": 1.12, 
			 "cosmo_total_nonelectrostatic_energy": 5.25, 
			 "SMD_solvation_energy": 3.3 
		},
		"coords": [
			{
				"x": -0.9372609992,
				"y": 0.0007789931,
				"z": 1.765604067,
				"element": "C" 
			},
			{
				"x": 0.0053354779,
				"y": 0.1957855023,
				"z": 0.6116794403,
				"element": "C" 
			},
			{
				"x": 0.982717416,
				"y": 1.0721409654,
				"z": 0.7050696382,
				"element": "N" 
			},
			{
				"x": 1.6607305617,
				"y": 0.9931248416,
				"z": -0.5436316983,
				"element": "O" 
			},
			{
				"x": 1.0547739069,
				"y": 0.0747104444,
				"z": -1.3108445028,
				"element": "C" 
			},
			{
				"x": 1.6293582555,
				"y": -0.1650106692,
				"z": -2.5373202926,
				"element": "N" 
			},
			{
				"x": -0.0101946554,
				"y": -0.4742460004,
				"z": -0.6438189817,
				"element": "C" 
			},
			{
				"x": -1.4529006779,
				"y": 0.9341502504,
				"z": 2.0100248691,
				"element": "H" 
			},
			{
				"x": -0.3959146454,
				"y": -0.3212066695,
				"z": 2.660027556,
				"element": "H" 
			},
			{
				"x": -1.6883465278,
				"y": -0.7555423723,
				"z": 1.5269781504,
				"element": "H" 
			},
			{
				"x": 1.0033961615,
				"y": -0.5353577365,
				"z": -3.2377459469,
				"element": "H" 
			},
			{
				"x": 2.2097510123,
				"y": 0.5895893084,
				"z": -2.8789747763,
				"element": "H" 
			},
			{
				"x": -0.6907452861,
				"y": -1.2390168575,
				"z": -0.9840475223,
				"element": "H" 
			}
		],
		 "valence_orbital": [ 
			{
				"type": "occ",
				"energy": -0.3677,
				"method": "rhf"
			},
			{
				"type": "occ",
				"energy": -0.33223,
				"method": "rhf"
			},
			{
				"type": "occ",
				"energy": -0.28749,
				"method": "rhf"
			},
			{
				"type": "occ",
				"energy": -0.27376,
				"method": "rhf"
			},
			{
				"type": "occ",
				"energy": -0.21274,
				"method": "rhf"
			},
			{
				"type": "unocc",
				"energy": 0.01489,
				"method": "rhf"
			},
			{
				"type": "unocc",
				"energy": 0.06065,
				"method": "rhf"
			},
			{
				"type": "unocc",
				"energy": 0.08628,
				"method": "rhf"
			},
			{
				"type": "unocc",
				"energy": 0.10808,
				"method": "rhf"
			},
			{
				"type": "unocc",
				"energy": 0.11539,
				"method": "rhf"
			}
		],
		"cosmo_sigma_profile": { 
			"-0.025": 0.0,
			"-0.024": 0.0,
			"-0.023": 0.0,
			"-0.022": 0.0,
			"-0.021": 0.0,
			"-0.02": 0.0,
			"-0.019": 0.0,
			"-0.018": 0.0,
			"-0.017": 0.0,
			"-0.016": 0.0,
			"-0.015": 0.237787310836,
			"-0.014": 2.60949531408,
			"-0.013": 2.76884382795,
			"-0.012": 2.42312440337,
			"-0.011": 2.63269949327,
			"-0.01": 2.62169396915,
			"-0.009": 2.0429613326,
			"-0.008": 1.69192570767,
			"-0.007": 3.76843872545,
			"-0.006": 4.57214948866,
			"-0.005": 8.234975624,
			"-0.004": 7.73282730159,
			"-0.003": 9.53366966615,
			"-0.002": 7.97358580192,
			"-0.001": 11.2959574677,
			"0.0": 7.18846483866,
			"0.001": 5.37955834248,
			"0.002": 5.22847402463,
			"0.003": 6.43213227891,
			"0.004": 8.07554856212,
			"0.005": 4.87552752225,
			"0.006": 3.92264849147,
			"0.007": 2.52057396112,
			"0.008": 3.50767234644,
			"0.009": 5.53312151035,
			"0.01": 3.38573912398,
			"0.011": 2.11587593803,
			"0.012": 2.17860513097,
			"0.013": 1.66073549475,
			"0.014": 1.54842780362,
			"0.015": 1.27460400059,
			"0.016": 0.898953603225,
			"0.017": 0.0,
			"0.018": 0.0,
			"0.019": 0.0,
			"0.02": 0.0,
			"0.021": 0.0,
			"0.022": 0.0,
			"0.023": 0.0,
			"0.024": 0.0,
			"0.025": 0.0
		}
	}
}
