{
	 "smiles": "NC1=CC=C(C=N1)C1=CC=CC=C1", 
	 "Tm": 408.15, 
	 "num_atms": 23, 
	 "gaussian": { 
		 "optdone": 1, 
		 "sigma_profile": "yes", 
		 "theory": "DFT", 
		 "functional": "B3LYP", 
		 "basiset": "6-31G**", 
		 "properties": { 
			 "R2extent": 3268.7003, 
			 "electric_dipole_moment_norm": 2.04189198784, 
			 "electric_quadrupole_moment_norm": 11.2008755957, 
			 "total_energy": -534.713469799, 
			 "HOMO_LUMO_gap": 0.18177, 
			 "cosmo_polarized_energy": -10.69, 
			 "cosmo_cavitation_energy": 26.97, 
			 "cosmo_dispersion_energy": -20.09, 
			 "cosmo_repulsion_energy": 1.58, 
			 "cosmo_total_nonelectrostatic_energy": 8.45, 
			 "SMD_solvation_energy": 2.98 
		},
		"coords": [
			{
				"x": 3.1721823027,
				"y": -1.0083702979,
				"z": -1.0212297726,
				"element": "N" 
			},
			{
				"x": 1.8728992211,
				"y": -0.71740968,
				"z": -0.6500520461,
				"element": "C" 
			},
			{
				"x": 0.7974951791,
				"y": -0.8670571244,
				"z": -1.5501094966,
				"element": "C" 
			},
			{
				"x": -0.4732836596,
				"y": -0.5207542468,
				"z": -1.1244584875,
				"element": "C" 
			},
			{
				"x": -0.6793373601,
				"y": -0.0227702842,
				"z": 0.1761194371,
				"element": "C" 
			},
			{
				"x": 0.4673561124,
				"y": 0.0917788785,
				"z": 0.9743854643,
				"element": "C" 
			},
			{
				"x": 1.702690489,
				"y": -0.2448090422,
				"z": 0.5941308475,
				"element": "N" 
			},
			{
				"x": -2.0193027654,
				"y": 0.3631932345,
				"z": 0.6746616459,
				"element": "C" 
			},
			{
				"x": -2.9552877818,
				"y": 0.9828475796,
				"z": -0.1723045292,
				"element": "C" 
			},
			{
				"x": -4.2175341822,
				"y": 1.3453691456,
				"z": 0.2952847604,
				"element": "C" 
			},
			{
				"x": -4.5723317177,
				"y": 1.1039648922,
				"z": 1.6239801792,
				"element": "C" 
			},
			{
				"x": -3.6530443119,
				"y": 0.4922981264,
				"z": 2.4784324356,
				"element": "C" 
			},
			{
				"x": -2.3937532262,
				"y": 0.1220389767,
				"z": 2.0085583067,
				"element": "C" 
			},
			{
				"x": 3.8134745935,
				"y": -1.0845538603,
				"z": -0.2441852656,
				"element": "H" 
			},
			{
				"x": 3.3048310676,
				"y": -1.6908385785,
				"z": -1.7522256371,
				"element": "H" 
			},
			{
				"x": 0.9663434692,
				"y": -1.2522956748,
				"z": -2.5514803939,
				"element": "H" 
			},
			{
				"x": -1.3193585121,
				"y": -0.6541187944,
				"z": -1.7927992987,
				"element": "H" 
			},
			{
				"x": 0.3831548118,
				"y": 0.4964281088,
				"z": 1.9818106642,
				"element": "H" 
			},
			{
				"x": -2.6804905174,
				"y": 1.204459904,
				"z": -1.1997042181,
				"element": "H" 
			},
			{
				"x": -4.9215032846,
				"y": 1.827705843,
				"z": -0.3772932258,
				"element": "H" 
			},
			{
				"x": -5.5547135215,
				"y": 1.3888202163,
				"z": 1.989277479,
				"element": "H" 
			},
			{
				"x": -3.9207686266,
				"y": 0.2911048036,
				"z": 3.5120502017,
				"element": "H" 
			},
			{
				"x": -1.6997177793,
				"y": -0.3822321255,
				"z": 2.6745509495,
				"element": "H" 
			}
		],
		 "valence_orbital": [ 
			{
				"type": "occ",
				"energy": -0.27808,
				"method": "rhf"
			},
			{
				"type": "occ",
				"energy": -0.25611,
				"method": "rhf"
			},
			{
				"type": "occ",
				"energy": -0.2498,
				"method": "rhf"
			},
			{
				"type": "occ",
				"energy": -0.24711,
				"method": "rhf"
			},
			{
				"type": "occ",
				"energy": -0.20123,
				"method": "rhf"
			},
			{
				"type": "unocc",
				"energy": -0.01946,
				"method": "rhf"
			},
			{
				"type": "unocc",
				"energy": -0.01406,
				"method": "rhf"
			},
			{
				"type": "unocc",
				"energy": 0.00166,
				"method": "rhf"
			},
			{
				"type": "unocc",
				"energy": 0.0365,
				"method": "rhf"
			},
			{
				"type": "unocc",
				"energy": 0.08641,
				"method": "rhf"
			}
		],
		"cosmo_sigma_profile": { 
			"-0.025": 0.0,
			"-0.024": 0.0,
			"-0.023": 0.0,
			"-0.022": 0.0,
			"-0.021": 0.0,
			"-0.02": 0.0,
			"-0.019": 0.0,
			"-0.018": 0.0,
			"-0.017": 0.0,
			"-0.016": 0.0,
			"-0.015": 0.0,
			"-0.014": 0.0713181081616,
			"-0.013": 1.29677007118,
			"-0.012": 2.19572791982,
			"-0.011": 2.50708994566,
			"-0.01": 2.53194001901,
			"-0.009": 3.00807417176,
			"-0.008": 2.50121281868,
			"-0.007": 2.66679839119,
			"-0.006": 9.99347541638,
			"-0.005": 18.1126881271,
			"-0.004": 17.231613564,
			"-0.003": 15.8887135412,
			"-0.002": 11.275662368,
			"-0.001": 11.9639463348,
			"0.0": 9.37862603276,
			"0.001": 13.1079572163,
			"0.002": 14.5598296869,
			"0.003": 20.874204195,
			"0.004": 18.1326628681,
			"0.005": 12.7516706988,
			"0.006": 10.0577025981,
			"0.007": 2.52715561377,
			"0.008": 2.28358894331,
			"0.009": 2.799184058,
			"0.01": 1.57123760792,
			"0.011": 1.5506924561,
			"0.012": 1.55673391547,
			"0.013": 1.0573724346,
			"0.014": 0.75363220401,
			"0.015": 1.00092811189,
			"0.016": 0.429080831293,
			"0.017": 0.034986166681,
			"0.018": 0.0,
			"0.019": 0.0,
			"0.02": 0.0,
			"0.021": 0.0,
			"0.022": 0.0,
			"0.023": 0.0,
			"0.024": 0.0,
			"0.025": 0.0
		}
	}
}
