{
	 "smiles": "COC1=CC(F)=C(C#N)C(F)=C1", 
	 "Tm": 328.15, 
	 "num_atms": 17, 
	 "gaussian": { 
		 "optdone": 1, 
		 "sigma_profile": "yes", 
		 "theory": "DFT", 
		 "functional": "B3LYP", 
		 "basiset": "6-31G**", 
		 "properties": { 
			 "R2extent": 2404.7549, 
			 "electric_dipole_moment_norm": 6.98477397558, 
			 "electric_quadrupole_moment_norm": 12.2526918267, 
			 "total_energy": -637.474152428, 
			 "HOMO_LUMO_gap": 0.20198, 
			 "cosmo_polarized_energy": -10.71, 
			 "cosmo_cavitation_energy": 23.84, 
			 "cosmo_dispersion_energy": -16.71, 
			 "cosmo_repulsion_energy": 1.29, 
			 "cosmo_total_nonelectrostatic_energy": 8.42, 
			 "SMD_solvation_energy": 7.3 
		},
		"coords": [
			{
				"x": 2.3558449704,
				"y": -1.5864092675,
				"z": -0.883321355,
				"element": "C" 
			},
			{
				"x": 1.3921738442,
				"y": -0.7424030876,
				"z": -1.5075926659,
				"element": "O" 
			},
			{
				"x": 0.4792677655,
				"y": -0.114095114,
				"z": -0.7347007528,
				"element": "C" 
			},
			{
				"x": -0.4365780821,
				"y": 0.7004770344,
				"z": -1.4234247298,
				"element": "C" 
			},
			{
				"x": -1.4004927105,
				"y": 1.3762016761,
				"z": -0.7043554891,
				"element": "C" 
			},
			{
				"x": -2.2755238935,
				"y": 2.1533715972,
				"z": -1.3530405127,
				"element": "F" 
			},
			{
				"x": -1.5097884396,
				"y": 1.2867526397,
				"z": 0.6971440285,
				"element": "C" 
			},
			{
				"x": -2.5125535067,
				"y": 1.9928580905,
				"z": 1.4204060027,
				"element": "C" 
			},
			{
				"x": -3.3315633436,
				"y": 2.5695597187,
				"z": 2.0114426,
				"element": "N" 
			},
			{
				"x": -0.5753080438,
				"y": 0.4631736919,
				"z": 1.339389752,
				"element": "C" 
			},
			{
				"x": -0.6418142712,
				"y": 0.348447532,
				"z": 2.671459792,
				"element": "F" 
			},
			{
				"x": 0.4122853477,
				"y": -0.2364708224,
				"z": 0.6613374519,
				"element": "C" 
			},
			{
				"x": 2.9840656638,
				"y": -1.0243721733,
				"z": -0.1823852497,
				"element": "H" 
			},
			{
				"x": 1.8754282701,
				"y": -2.4199764566,
				"z": -0.3577456369,
				"element": "H" 
			},
			{
				"x": 2.9747188956,
				"y": -1.9765065036,
				"z": -1.6913936945,
				"element": "H" 
			},
			{
				"x": -0.3834505635,
				"y": 0.7937877236,
				"z": -2.5006929882,
				"element": "H" 
			},
			{
				"x": 1.0954880972,
				"y": -0.8510962792,
				"z": 1.2309734476,
				"element": "H" 
			}
		],
		 "valence_orbital": [ 
			{
				"type": "occ",
				"energy": -0.35842,
				"method": "rhf"
			},
			{
				"type": "occ",
				"energy": -0.33253,
				"method": "rhf"
			},
			{
				"type": "occ",
				"energy": -0.32397,
				"method": "rhf"
			},
			{
				"type": "occ",
				"energy": -0.27311,
				"method": "rhf"
			},
			{
				"type": "occ",
				"energy": -0.25104,
				"method": "rhf"
			},
			{
				"type": "unocc",
				"energy": -0.04906,
				"method": "rhf"
			},
			{
				"type": "unocc",
				"energy": -0.02412,
				"method": "rhf"
			},
			{
				"type": "unocc",
				"energy": 0.02881,
				"method": "rhf"
			},
			{
				"type": "unocc",
				"energy": 0.06258,
				"method": "rhf"
			},
			{
				"type": "unocc",
				"energy": 0.07351,
				"method": "rhf"
			}
		],
		"cosmo_sigma_profile": { 
			"-0.025": 0.0,
			"-0.024": 0.0,
			"-0.023": 0.0,
			"-0.022": 0.0,
			"-0.021": 0.0,
			"-0.02": 0.0,
			"-0.019": 0.0,
			"-0.018": 0.0,
			"-0.017": 0.0,
			"-0.016": 0.0,
			"-0.015": 0.0,
			"-0.014": 0.0,
			"-0.013": 0.0,
			"-0.012": 0.0,
			"-0.011": 0.0,
			"-0.01": 0.0463757791973,
			"-0.009": 2.49512525694,
			"-0.008": 4.06250430218,
			"-0.007": 7.17579846855,
			"-0.006": 11.232346181,
			"-0.005": 9.6559588931,
			"-0.004": 12.0088855472,
			"-0.003": 12.3845517875,
			"-0.002": 19.9830303327,
			"-0.001": 17.5759569315,
			"0.0": 15.3289111682,
			"0.001": 13.0055647282,
			"0.002": 15.5932979376,
			"0.003": 18.61373351,
			"0.004": 4.40895382385,
			"0.005": 3.86327135505,
			"0.006": 3.28775832889,
			"0.007": 5.31949620044,
			"0.008": 4.48402120494,
			"0.009": 3.87625194583,
			"0.01": 2.90254127169,
			"0.011": 2.52546245265,
			"0.012": 2.34336830424,
			"0.013": 0.892714167575,
			"0.014": 0.0,
			"0.015": 0.0,
			"0.016": 0.0,
			"0.017": 0.0,
			"0.018": 0.0,
			"0.019": 0.0,
			"0.02": 0.0,
			"0.021": 0.0,
			"0.022": 0.0,
			"0.023": 0.0,
			"0.024": 0.0,
			"0.025": 0.0
		}
	}
}
