{
	 "smiles": "FC1=C2CCC(=O)C2=CC(Br)=C1", 
	 "Tm": 388.15, 
	 "num_atms": 18, 
	 "gaussian": { 
		 "optdone": 1, 
		 "sigma_profile": "yes", 
		 "theory": "DFT", 
		 "functional": "B3LYP", 
		 "basiset": "6-31G**", 
		 "properties": { 
			 "R2extent": 4503.3052, 
			 "electric_dipole_moment_norm": 2.66348746383, 
			 "electric_quadrupole_moment_norm": 13.0594506512, 
			 "total_energy": -3093.04196541, 
			 "HOMO_LUMO_gap": 0.18382, 
			 "cosmo_polarized_energy": -7.92, 
			 "cosmo_cavitation_energy": 25.09, 
			 "cosmo_dispersion_energy": -18.83, 
			 "cosmo_repulsion_energy": 1.48, 
			 "cosmo_total_nonelectrostatic_energy": 7.75, 
			 "SMD_solvation_energy": 3.81 
		},
		"coords": [
			{
				"x": 1.3131189603,
				"y": 0.2864082551,
				"z": -0.8552561038,
				"element": "F" 
			},
			{
				"x": 0.1902594574,
				"y": 0.5812625743,
				"z": -0.1698632367,
				"element": "C" 
			},
			{
				"x": 0.0959262153,
				"y": 1.7936168494,
				"z": 0.5030510362,
				"element": "C" 
			},
			{
				"x": 1.1047835061,
				"y": 2.9157280015,
				"z": 0.6058187278,
				"element": "C" 
			},
			{
				"x": 0.4008725267,
				"y": 3.975226827,
				"z": 1.4884665695,
				"element": "C" 
			},
			{
				"x": -0.9809022109,
				"y": 3.4010720259,
				"z": 1.8466991179,
				"element": "C" 
			},
			{
				"x": -1.8287475005,
				"y": 3.9404553445,
				"z": 2.5285656974,
				"element": "O" 
			},
			{
				"x": -1.0824686564,
				"y": 2.0626892717,
				"z": 1.2014559329,
				"element": "C" 
			},
			{
				"x": -2.1573332107,
				"y": 1.1721620101,
				"z": 1.2498761289,
				"element": "C" 
			},
			{
				"x": -2.0189254313,
				"y": -0.0284585649,
				"z": 0.5621078372,
				"element": "C" 
			},
			{
				"x": -3.4428204935,
				"y": -1.3002629818,
				"z": 0.5786845205,
				"element": "Br" 
			},
			{
				"x": -0.8526138706,
				"y": -0.3381829009,
				"z": -0.1516070934,
				"element": "C" 
			},
			{
				"x": 2.0416187319,
				"y": 2.5611600099,
				"z": 1.0493144473,
				"element": "H" 
			},
			{
				"x": 1.3609823592,
				"y": 3.3045013719,
				"z": -0.3857891102,
				"element": "H" 
			},
			{
				"x": 0.9461394315,
				"y": 4.1892428384,
				"z": 2.4130700854,
				"element": "H" 
			},
			{
				"x": 0.2645589219,
				"y": 4.9330473163,
				"z": 0.9765971067,
				"element": "H" 
			},
			{
				"x": -3.0555278011,
				"y": 1.4188840558,
				"z": 1.8037686544,
				"element": "H" 
			},
			{
				"x": -0.7525209354,
				"y": -1.2757523043,
				"z": -0.6848603181,
				"element": "H" 
			}
		],
		 "valence_orbital": [ 
			{
				"type": "occ",
				"energy": -0.31432,
				"method": "rhf"
			},
			{
				"type": "occ",
				"energy": -0.29747,
				"method": "rhf"
			},
			{
				"type": "occ",
				"energy": -0.27272,
				"method": "rhf"
			},
			{
				"type": "occ",
				"energy": -0.25483,
				"method": "rhf"
			},
			{
				"type": "occ",
				"energy": -0.25309,
				"method": "rhf"
			},
			{
				"type": "unocc",
				"energy": -0.06927,
				"method": "rhf"
			},
			{
				"type": "unocc",
				"energy": -0.02737,
				"method": "rhf"
			},
			{
				"type": "unocc",
				"energy": -0.00474,
				"method": "rhf"
			},
			{
				"type": "unocc",
				"energy": 0.03296,
				"method": "rhf"
			},
			{
				"type": "unocc",
				"energy": 0.089,
				"method": "rhf"
			}
		],
		"cosmo_sigma_profile": { 
			"-0.025": 0.0,
			"-0.024": 0.0,
			"-0.023": 0.0,
			"-0.022": 0.0,
			"-0.021": 0.0,
			"-0.02": 0.0,
			"-0.019": 0.0,
			"-0.018": 0.0,
			"-0.017": 0.0,
			"-0.016": 0.0,
			"-0.015": 0.0,
			"-0.014": 0.0,
			"-0.013": 0.0,
			"-0.012": 0.0,
			"-0.011": 0.0,
			"-0.01": 0.0,
			"-0.009": 0.934717551176,
			"-0.008": 1.91269756232,
			"-0.007": 3.20971571773,
			"-0.006": 11.0088277051,
			"-0.005": 17.703390854,
			"-0.004": 16.1299634129,
			"-0.003": 13.1696199031,
			"-0.002": 16.6608980758,
			"-0.001": 17.7347632559,
			"0.0": 20.2789117454,
			"0.001": 20.0672920842,
			"0.002": 11.2837322063,
			"0.003": 15.6648570384,
			"0.004": 18.3782711399,
			"0.005": 2.99458859132,
			"0.006": 0.942097176946,
			"0.007": 1.30265293918,
			"0.008": 1.87787805496,
			"0.009": 1.78312721388,
			"0.01": 2.63830663558,
			"0.011": 3.45857359034,
			"0.012": 4.38009112185,
			"0.013": 1.08393144461,
			"0.014": 0.0,
			"0.015": 0.0,
			"0.016": 0.0,
			"0.017": 0.0,
			"0.018": 0.0,
			"0.019": 0.0,
			"0.02": 0.0,
			"0.021": 0.0,
			"0.022": 0.0,
			"0.023": 0.0,
			"0.024": 0.0,
			"0.025": 0.0
		}
	}
}
