{
	 "smiles": "CCCCCCCCNC", 
	 "Tm": 262.15, 
	 "num_atms": 31, 
	 "gaussian": { 
		 "optdone": 1, 
		 "sigma_profile": "yes", 
		 "theory": "DFT", 
		 "functional": "B3LYP", 
		 "basiset": "6-31G**", 
		 "properties": { 
			 "R2extent": 2739.7759, 
			 "electric_dipole_moment_norm": 0.950970141487, 
			 "electric_quadrupole_moment_norm": 2.99962537494, 
			 "total_energy": -410.37992004, 
			 "HOMO_LUMO_gap": 0.27198, 
			 "cosmo_polarized_energy": -3.8, 
			 "cosmo_cavitation_energy": 31.18, 
			 "cosmo_dispersion_energy": -21.48, 
			 "cosmo_repulsion_energy": 1.81, 
			 "cosmo_total_nonelectrostatic_energy": 11.51, 
			 "SMD_solvation_energy": 2.45 
		},
		"coords": [
			{
				"x": 0.9045169608,
				"y": 0.8739234041,
				"z": -3.3170616074,
				"element": "C" 
			},
			{
				"x": 1.4381718055,
				"y": 0.1611669673,
				"z": -2.0699262953,
				"element": "C" 
			},
			{
				"x": 0.6820044124,
				"y": -1.1365290216,
				"z": -1.7526531599,
				"element": "C" 
			},
			{
				"x": 1.2448470517,
				"y": -1.9373384098,
				"z": -0.5648313841,
				"element": "C" 
			},
			{
				"x": 1.2136422849,
				"y": -1.2298989029,
				"z": 0.8020801716,
				"element": "C" 
			},
			{
				"x": -0.1972275099,
				"y": -0.8963147985,
				"z": 1.3096233069,
				"element": "C" 
			},
			{
				"x": -0.24653874,
				"y": -0.3297892612,
				"z": 2.7401783615,
				"element": "C" 
			},
			{
				"x": 0.4849981073,
				"y": 1.0015191078,
				"z": 2.9538821938,
				"element": "C" 
			},
			{
				"x": -0.0921998686,
				"y": 2.08180164,
				"z": 2.1576276583,
				"element": "N" 
			},
			{
				"x": 0.5499073434,
				"y": 3.369504607,
				"z": 2.390871921,
				"element": "C" 
			},
			{
				"x": -0.1523005807,
				"y": 1.1402663628,
				"z": -3.199793471,
				"element": "H" 
			},
			{
				"x": 0.9851773343,
				"y": 0.2338748364,
				"z": -4.203114651,
				"element": "H" 
			},
			{
				"x": 1.4586383906,
				"y": 1.7960085646,
				"z": -3.5214078444,
				"element": "H" 
			},
			{
				"x": 2.5047672563,
				"y": -0.0660951658,
				"z": -2.2050735573,
				"element": "H" 
			},
			{
				"x": 1.3829774103,
				"y": 0.8458540483,
				"z": -1.2132817367,
				"element": "H" 
			},
			{
				"x": -0.3777253464,
				"y": -0.9042103353,
				"z": -1.5809331846,
				"element": "H" 
			},
			{
				"x": 0.7028886664,
				"y": -1.7804259385,
				"z": -2.6425818068,
				"element": "H" 
			},
			{
				"x": 0.6886013299,
				"y": -2.8813513802,
				"z": -0.4842150335,
				"element": "H" 
			},
			{
				"x": 2.2830561842,
				"y": -2.21678945,
				"z": -0.7909766058,
				"element": "H" 
			},
			{
				"x": 1.7074901268,
				"y": -1.8792635498,
				"z": 1.5380382959,
				"element": "H" 
			},
			{
				"x": 1.8228257469,
				"y": -0.3181864042,
				"z": 0.7581173379,
				"element": "H" 
			},
			{
				"x": -0.8076546866,
				"y": -1.8092687105,
				"z": 1.2802798704,
				"element": "H" 
			},
			{
				"x": -0.6914866504,
				"y": -0.1960916819,
				"z": 0.6234163945,
				"element": "H" 
			},
			{
				"x": -1.294789411,
				"y": -0.1923187564,
				"z": 3.0307411432,
				"element": "H" 
			},
			{
				"x": 0.1815807733,
				"y": -1.0683188582,
				"z": 3.4314220466,
				"element": "H" 
			},
			{
				"x": 1.5706325319,
				"y": 0.8722600005,
				"z": 2.7753104381,
				"element": "H" 
			},
			{
				"x": 0.3881571572,
				"y": 1.2853161666,
				"z": 4.0103047489,
				"element": "H" 
			},
			{
				"x": -0.0154327948,
				"y": 1.8494046075,
				"z": 1.1709325587,
				"element": "H" 
			},
			{
				"x": 1.6468734268,
				"y": 3.3682284567,
				"z": 2.2476667172,
				"element": "H" 
			},
			{
				"x": 0.1210200707,
				"y": 4.1224846548,
				"z": 1.7222394409,
				"element": "H" 
			},
			{
				"x": 0.3564812167,
				"y": 3.6928772003,
				"z": 3.4204177323,
				"element": "H" 
			}
		],
		 "valence_orbital": [ 
			{
				"type": "occ",
				"energy": -0.31973,
				"method": "rhf"
			},
			{
				"type": "occ",
				"energy": -0.30878,
				"method": "rhf"
			},
			{
				"type": "occ",
				"energy": -0.30634,
				"method": "rhf"
			},
			{
				"type": "occ",
				"energy": -0.30449,
				"method": "rhf"
			},
			{
				"type": "occ",
				"energy": -0.21407,
				"method": "rhf"
			},
			{
				"type": "unocc",
				"energy": 0.05791,
				"method": "rhf"
			},
			{
				"type": "unocc",
				"energy": 0.09844,
				"method": "rhf"
			},
			{
				"type": "unocc",
				"energy": 0.10333,
				"method": "rhf"
			},
			{
				"type": "unocc",
				"energy": 0.11563,
				"method": "rhf"
			},
			{
				"type": "unocc",
				"energy": 0.12009,
				"method": "rhf"
			}
		],
		"cosmo_sigma_profile": { 
			"-0.025": 0.0,
			"-0.024": 0.0,
			"-0.023": 0.0,
			"-0.022": 0.0,
			"-0.021": 0.0,
			"-0.02": 0.0,
			"-0.019": 0.0,
			"-0.018": 0.0,
			"-0.017": 0.0,
			"-0.016": 0.0,
			"-0.015": 0.0,
			"-0.014": 0.0,
			"-0.013": 0.0,
			"-0.012": 0.0,
			"-0.011": 0.0,
			"-0.01": 0.0,
			"-0.009": 0.0,
			"-0.008": 0.24603641805,
			"-0.007": 0.962589122748,
			"-0.006": 1.79212539302,
			"-0.005": 2.58342769152,
			"-0.004": 4.69188003991,
			"-0.003": 11.6844750777,
			"-0.002": 31.3140774246,
			"-0.001": 51.0774195491,
			"0.0": 57.2771043252,
			"0.001": 46.7583517185,
			"0.002": 16.9358888542,
			"0.003": 1.92607497856,
			"0.004": 1.50935426716,
			"0.005": 0.93645049456,
			"0.006": 0.727984062926,
			"0.007": 1.19154657857,
			"0.008": 0.695756536303,
			"0.009": 0.8236080756,
			"0.01": 0.570073784718,
			"0.011": 0.636059525836,
			"0.012": 0.636975140007,
			"0.013": 0.661604548857,
			"0.014": 0.480781465358,
			"0.015": 0.28389987328,
			"0.016": 0.873903015434,
			"0.017": 0.375841062756,
			"0.018": 0.495953107438,
			"0.019": 0.312950619091,
			"0.02": 0.0,
			"0.021": 0.0,
			"0.022": 0.0,
			"0.023": 0.0,
			"0.024": 0.0,
			"0.025": 0.0
		}
	}
}
