{
	 "smiles": "OCCCCCCCCCCC(O)=O", 
	 "Tm": 338.65, 
	 "num_atms": 36, 
	 "gaussian": { 
		 "optdone": 1, 
		 "sigma_profile": "yes", 
		 "theory": "DFT", 
		 "functional": "B3LYP", 
		 "basiset": "6-31G**", 
		 "properties": { 
			 "R2extent": 3739.1313, 
			 "electric_dipole_moment_norm": 6.53400303872, 
			 "electric_quadrupole_moment_norm": 29.3319110235, 
			 "total_energy": -658.126922536, 
			 "HOMO_LUMO_gap": 0.27613, 
			 "cosmo_polarized_energy": -15.35, 
			 "cosmo_cavitation_energy": 34.55, 
			 "cosmo_dispersion_energy": -23.76, 
			 "cosmo_repulsion_energy": 1.88, 
			 "cosmo_total_nonelectrostatic_energy": 12.67, 
			 "SMD_solvation_energy": 5.98 
		},
		"coords": [
			{
				"x": 1.8980587121,
				"y": 0.2553258582,
				"z": -1.6992842103,
				"element": "O" 
			},
			{
				"x": 1.3183120762,
				"y": 1.127684786,
				"z": -2.6888036226,
				"element": "C" 
			},
			{
				"x": -0.1785984006,
				"y": 0.878242542,
				"z": -2.8259319059,
				"element": "C" 
			},
			{
				"x": -1.0087961135,
				"y": 1.1088673085,
				"z": -1.5451755632,
				"element": "C" 
			},
			{
				"x": -1.1696477642,
				"y": -0.1589689074,
				"z": -0.6932071207,
				"element": "C" 
			},
			{
				"x": -1.9151950809,
				"y": 0.0291772485,
				"z": 0.6382238792,
				"element": "C" 
			},
			{
				"x": -1.2596037662,
				"y": 0.975902312,
				"z": 1.6628165114,
				"element": "C" 
			},
			{
				"x": 0.2062831099,
				"y": 0.7062403461,
				"z": 2.0600223268,
				"element": "C" 
			},
			{
				"x": 0.4999744697,
				"y": -0.6288080246,
				"z": 2.7816308208,
				"element": "C" 
			},
			{
				"x": 0.7379126569,
				"y": -1.85960089,
				"z": 1.8873237765,
				"element": "C" 
			},
			{
				"x": 2.0275092263,
				"y": -1.7630114669,
				"z": 1.0426987155,
				"element": "C" 
			},
			{
				"x": 2.0906648156,
				"y": -2.8935777127,
				"z": 0.0207737705,
				"element": "C" 
			},
			{
				"x": 1.9369781549,
				"y": -2.5511386745,
				"z": -1.278723291,
				"element": "O" 
			},
			{
				"x": 2.2333650268,
				"y": -4.0520816159,
				"z": 0.33807964,
				"element": "O" 
			},
			{
				"x": 2.8359493767,
				"y": 0.4739740022,
				"z": -1.6227046686,
				"element": "H" 
			},
			{
				"x": 1.810325642,
				"y": 0.9678969666,
				"z": -3.6584227298,
				"element": "H" 
			},
			{
				"x": 1.4915263314,
				"y": 2.1712259138,
				"z": -2.3887754045,
				"element": "H" 
			},
			{
				"x": -0.5197180524,
				"y": 1.5542677653,
				"z": -3.6202937463,
				"element": "H" 
			},
			{
				"x": -0.3420306977,
				"y": -0.1399508958,
				"z": -3.2017605111,
				"element": "H" 
			},
			{
				"x": -0.5462048125,
				"y": 1.9117062513,
				"z": -0.9563970479,
				"element": "H" 
			},
			{
				"x": -2.0053231323,
				"y": 1.4756831367,
				"z": -1.8230896083,
				"element": "H" 
			},
			{
				"x": -1.7117581541,
				"y": -0.9055988681,
				"z": -1.2893437991,
				"element": "H" 
			},
			{
				"x": -0.1824525871,
				"y": -0.5899290814,
				"z": -0.5103851909,
				"element": "H" 
			},
			{
				"x": -2.9271089413,
				"y": 0.4047203426,
				"z": 0.4308934959,
				"element": "H" 
			},
			{
				"x": -2.0586817055,
				"y": -0.957693574,
				"z": 1.0952386267,
				"element": "H" 
			},
			{
				"x": -1.8748310431,
				"y": 0.9658001957,
				"z": 2.5730177069,
				"element": "H" 
			},
			{
				"x": -1.3160597372,
				"y": 2.0050598062,
				"z": 1.2838115289,
				"element": "H" 
			},
			{
				"x": 0.8499393251,
				"y": 0.8080256338,
				"z": 1.1772987456,
				"element": "H" 
			},
			{
				"x": 0.505112098,
				"y": 1.5226116395,
				"z": 2.7299753766,
				"element": "H" 
			},
			{
				"x": -0.3251009084,
				"y": -0.84832948,
				"z": 3.4727449851,
				"element": "H" 
			},
			{
				"x": 1.388308479,
				"y": -0.4949135544,
				"z": 3.4139170718,
				"element": "H" 
			},
			{
				"x": 0.8087592067,
				"y": -2.7592882016,
				"z": 2.5074854014,
				"element": "H" 
			},
			{
				"x": -0.1195505686,
				"y": -2.0182299486,
				"z": 1.2262090936,
				"element": "H" 
			},
			{
				"x": 2.0908700171,
				"y": -0.7890851338,
				"z": 0.5506292221,
				"element": "H" 
			},
			{
				"x": 2.8974468626,
				"y": -1.8629145608,
				"z": 1.7010697176,
				"element": "H" 
			},
			{
				"x": 1.8414658784,
				"y": -1.5846914645,
				"z": -1.4009619929,
				"element": "H" 
			}
		],
		 "valence_orbital": [ 
			{
				"type": "occ",
				"energy": -0.30895,
				"method": "rhf"
			},
			{
				"type": "occ",
				"energy": -0.30574,
				"method": "rhf"
			},
			{
				"type": "occ",
				"energy": -0.30036,
				"method": "rhf"
			},
			{
				"type": "occ",
				"energy": -0.2857,
				"method": "rhf"
			},
			{
				"type": "occ",
				"energy": -0.24384,
				"method": "rhf"
			},
			{
				"type": "unocc",
				"energy": 0.03229,
				"method": "rhf"
			},
			{
				"type": "unocc",
				"energy": 0.03676,
				"method": "rhf"
			},
			{
				"type": "unocc",
				"energy": 0.07914,
				"method": "rhf"
			},
			{
				"type": "unocc",
				"energy": 0.09082,
				"method": "rhf"
			},
			{
				"type": "unocc",
				"energy": 0.1004,
				"method": "rhf"
			}
		],
		"cosmo_sigma_profile": { 
			"-0.025": 0.0,
			"-0.024": 0.0,
			"-0.023": 0.0,
			"-0.022": 0.0,
			"-0.021": 0.0,
			"-0.02": 0.0,
			"-0.019": 0.0,
			"-0.018": 0.0,
			"-0.017": 0.329994455817,
			"-0.016": 1.05602414194,
			"-0.015": 1.14914415206,
			"-0.014": 1.17524153672,
			"-0.013": 0.994694255509,
			"-0.012": 0.680502213287,
			"-0.011": 1.13080091409,
			"-0.01": 1.93407731886,
			"-0.009": 1.24708168405,
			"-0.008": 1.01252689105,
			"-0.007": 1.47614179563,
			"-0.006": 1.8753414099,
			"-0.005": 4.99970839094,
			"-0.004": 12.3893508891,
			"-0.003": 22.9024432697,
			"-0.002": 41.0667318102,
			"-0.001": 46.6041444795,
			"0.0": 43.1818127013,
			"0.001": 28.7485274595,
			"0.002": 9.76017643019,
			"0.003": 3.8335149737,
			"0.004": 4.24594858488,
			"0.005": 2.96232759877,
			"0.006": 2.54505396247,
			"0.007": 1.83581748845,
			"0.008": 2.46383044043,
			"0.009": 2.81354672205,
			"0.01": 2.66531132536,
			"0.011": 3.88918737204,
			"0.012": 6.5852242674,
			"0.013": 5.88666498331,
			"0.014": 2.48177944185,
			"0.015": 0.21613692894,
			"0.016": 0.0,
			"0.017": 0.0,
			"0.018": 0.0,
			"0.019": 0.0,
			"0.02": 0.0,
			"0.021": 0.0,
			"0.022": 0.0,
			"0.023": 0.0,
			"0.024": 0.0,
			"0.025": 0.0
		}
	}
}
