{
	 "smiles": "CCOC(=O)C1=C(C)OC2=C1C(F)=C(F)C(F)=C2F", 
	 "Tm": 343.15, 
	 "num_atms": 27, 
	 "gaussian": { 
		 "optdone": 1, 
		 "sigma_profile": "yes", 
		 "theory": "DFT", 
		 "functional": "B3LYP", 
		 "basiset": "6-31G**", 
		 "properties": { 
			 "R2extent": 6522.9854, 
			 "electric_dipole_moment_norm": 4.87981739822, 
			 "electric_quadrupole_moment_norm": 6.29864030645, 
			 "total_energy": -1087.08688732, 
			 "HOMO_LUMO_gap": 0.18558, 
			 "cosmo_polarized_energy": -8.46, 
			 "cosmo_cavitation_energy": 34.18, 
			 "cosmo_dispersion_energy": -23.9, 
			 "cosmo_repulsion_energy": 1.75, 
			 "cosmo_total_nonelectrostatic_energy": 12.04, 
			 "SMD_solvation_energy": 9.14 
		},
		"coords": [
			{
				"x": 3.4467196498,
				"y": 1.8586780964,
				"z": -1.2860883513,
				"element": "C" 
			},
			{
				"x": 2.075108482,
				"y": 2.4795526247,
				"z": -1.5032609717,
				"element": "C" 
			},
			{
				"x": 1.1880227008,
				"y": 2.2082790678,
				"z": -0.3901386529,
				"element": "O" 
			},
			{
				"x": 0.5297699337,
				"y": 1.0195622566,
				"z": -0.4253976049,
				"element": "C" 
			},
			{
				"x": 0.6484247428,
				"y": 0.2106295851,
				"z": -1.3222006703,
				"element": "O" 
			},
			{
				"x": -0.3388031094,
				"y": 0.85159994,
				"z": 0.7524908283,
				"element": "C" 
			},
			{
				"x": -0.5163713341,
				"y": 1.7467965865,
				"z": 1.7802985052,
				"element": "C" 
			},
			{
				"x": 0.0342007736,
				"y": 3.0959600093,
				"z": 2.0878623602,
				"element": "C" 
			},
			{
				"x": -1.3999955397,
				"y": 1.2622177378,
				"z": 2.7059881879,
				"element": "O" 
			},
			{
				"x": -1.8034108931,
				"y": 0.0317658998,
				"z": 2.2732491839,
				"element": "C" 
			},
			{
				"x": -1.1813538407,
				"y": -0.2954954693,
				"z": 1.055535413,
				"element": "C" 
			},
			{
				"x": -1.4891091977,
				"y": -1.5341307254,
				"z": 0.475022475,
				"element": "C" 
			},
			{
				"x": -0.9586136283,
				"y": -1.9509512666,
				"z": -0.6759338018,
				"element": "F" 
			},
			{
				"x": -2.3885525319,
				"y": -2.3761182939,
				"z": 1.1227562703,
				"element": "C" 
			},
			{
				"x": -2.6949408336,
				"y": -3.5632384181,
				"z": 0.5832731082,
				"element": "F" 
			},
			{
				"x": -2.9911843966,
				"y": -2.0165843083,
				"z": 2.3375052152,
				"element": "C" 
			},
			{
				"x": -3.8488935143,
				"y": -2.8632584044,
				"z": 2.9187449836,
				"element": "F" 
			},
			{
				"x": -2.7028881989,
				"y": -0.7954564472,
				"z": 2.9343776474,
				"element": "C" 
			},
			{
				"x": -3.2722172261,
				"y": -0.4437741517,
				"z": 4.0934537867,
				"element": "F" 
			},
			{
				"x": 3.3756036171,
				"y": 0.7687166433,
				"z": -1.2653144863,
				"element": "H" 
			},
			{
				"x": 3.8885529852,
				"y": 2.2047136059,
				"z": -0.3468264372,
				"element": "H" 
			},
			{
				"x": 4.1156647787,
				"y": 2.1433916524,
				"z": -2.1050247974,
				"element": "H" 
			},
			{
				"x": 2.1299404457,
				"y": 3.5701140436,
				"z": -1.544105066,
				"element": "H" 
			},
			{
				"x": 1.6133823397,
				"y": 2.1041222792,
				"z": -2.4191986201,
				"element": "H" 
			},
			{
				"x": -0.3709534245,
				"y": 3.4447876524,
				"z": 3.0394754223,
				"element": "H" 
			},
			{
				"x": 1.1252764928,
				"y": 3.0671919696,
				"z": 2.1452754008,
				"element": "H" 
			},
			{
				"x": -0.223679273,
				"y": 3.8105278347,
				"z": 1.3013806718,
				"element": "H" 
			}
		],
		 "valence_orbital": [ 
			{
				"type": "occ",
				"energy": -0.30625,
				"method": "rhf"
			},
			{
				"type": "occ",
				"energy": -0.30028,
				"method": "rhf"
			},
			{
				"type": "occ",
				"energy": -0.27944,
				"method": "rhf"
			},
			{
				"type": "occ",
				"energy": -0.25093,
				"method": "rhf"
			},
			{
				"type": "occ",
				"energy": -0.23423,
				"method": "rhf"
			},
			{
				"type": "unocc",
				"energy": -0.04865,
				"method": "rhf"
			},
			{
				"type": "unocc",
				"energy": -0.01465,
				"method": "rhf"
			},
			{
				"type": "unocc",
				"energy": -0.00461,
				"method": "rhf"
			},
			{
				"type": "unocc",
				"energy": 0.0268,
				"method": "rhf"
			},
			{
				"type": "unocc",
				"energy": 0.08473,
				"method": "rhf"
			}
		],
		"cosmo_sigma_profile": { 
			"-0.025": 0.0,
			"-0.024": 0.0,
			"-0.023": 0.0,
			"-0.022": 0.0,
			"-0.021": 0.0,
			"-0.02": 0.0,
			"-0.019": 0.0,
			"-0.018": 0.0,
			"-0.017": 0.0,
			"-0.016": 0.0,
			"-0.015": 0.0,
			"-0.014": 0.0,
			"-0.013": 0.0,
			"-0.012": 0.0,
			"-0.011": 0.0,
			"-0.01": 0.0,
			"-0.009": 0.0,
			"-0.008": 0.0,
			"-0.007": 0.528518414223,
			"-0.006": 5.94182648097,
			"-0.005": 9.20629966077,
			"-0.004": 18.1205015032,
			"-0.003": 37.0907236746,
			"-0.002": 42.7729717359,
			"-0.001": 28.8834501178,
			"0.0": 23.3933335973,
			"0.001": 15.5896073218,
			"0.002": 25.5228400193,
			"0.003": 38.8857515622,
			"0.004": 7.74750971205,
			"0.005": 3.76519775213,
			"0.006": 3.22289531845,
			"0.007": 1.58601217792,
			"0.008": 1.71554203624,
			"0.009": 1.85098526555,
			"0.01": 2.95334554847,
			"0.011": 2.87764598961,
			"0.012": 2.76930204251,
			"0.013": 0.0180451670212,
			"0.014": 0.0,
			"0.015": 0.0,
			"0.016": 0.0,
			"0.017": 0.0,
			"0.018": 0.0,
			"0.019": 0.0,
			"0.02": 0.0,
			"0.021": 0.0,
			"0.022": 0.0,
			"0.023": 0.0,
			"0.024": 0.0,
			"0.025": 0.0
		}
	}
}
