{
	 "smiles": "BrC1=CC=C2C(=O)OC(=O)C2=C1", 
	 "Tm": 380.15, 
	 "num_atms": 15, 
	 "gaussian": { 
		 "optdone": 1, 
		 "sigma_profile": "yes", 
		 "theory": "DFT", 
		 "functional": "B3LYP", 
		 "basiset": "6-31G**", 
		 "properties": { 
			 "R2extent": 4933.2941, 
			 "electric_dipole_moment_norm": 4.48716975164, 
			 "electric_quadrupole_moment_norm": 5.54407567318, 
			 "total_energy": -3103.74691098, 
			 "HOMO_LUMO_gap": 0.17571, 
			 "cosmo_polarized_energy": -10.57, 
			 "cosmo_cavitation_energy": 23.41, 
			 "cosmo_dispersion_energy": -17.7, 
			 "cosmo_repulsion_energy": 1.4, 
			 "cosmo_total_nonelectrostatic_energy": 7.1, 
			 "SMD_solvation_energy": 4.81 
		},
		"coords": [
			{
				"x": 0.9356544333,
				"y": 1.0064183682,
				"z": 4.8574862098,
				"element": "Br" 
			},
			{
				"x": 0.8726109922,
				"y": 0.9286577974,
				"z": 2.9569409476,
				"element": "C" 
			},
			{
				"x": 0.5788628347,
				"y": 2.1006131265,
				"z": 2.2421652459,
				"element": "C" 
			},
			{
				"x": 0.5235469842,
				"y": 2.083217125,
				"z": 0.8464690309,
				"element": "C" 
			},
			{
				"x": 0.76879654,
				"y": 0.8719348868,
				"z": 0.2095930536,
				"element": "C" 
			},
			{
				"x": 0.7862864529,
				"y": 0.5214643875,
				"z": -1.2308934653,
				"element": "C" 
			},
			{
				"x": 0.5927995186,
				"y": 1.1977043225,
				"z": -2.2011743734,
				"element": "O" 
			},
			{
				"x": 1.0891154593,
				"y": -0.8435545235,
				"z": -1.3175871937,
				"element": "O" 
			},
			{
				"x": 1.2654345448,
				"y": -1.3856503282,
				"z": -0.0415717043,
				"element": "C" 
			},
			{
				"x": 1.5321517773,
				"y": -2.539981081,
				"z": 0.1373733093,
				"element": "O" 
			},
			{
				"x": 1.0586990129,
				"y": -0.28149963,
				"z": 0.9315899512,
				"element": "C" 
			},
			{
				"x": 1.1195517602,
				"y": -0.2904162904,
				"z": 2.3186731048,
				"element": "C" 
			},
			{
				"x": 0.3952553412,
				"y": 3.0200690983,
				"z": 2.7859856357,
				"element": "H" 
			},
			{
				"x": 0.297654445,
				"y": 2.9813812641,
				"z": 0.2814510083,
				"element": "H" 
			},
			{
				"x": 1.3457799032,
				"y": -1.1918585233,
				"z": 2.8756992397,
				"element": "H" 
			}
		],
		 "valence_orbital": [ 
			{
				"type": "occ",
				"energy": -0.3213,
				"method": "rhf"
			},
			{
				"type": "occ",
				"energy": -0.31461,
				"method": "rhf"
			},
			{
				"type": "occ",
				"energy": -0.30613,
				"method": "rhf"
			},
			{
				"type": "occ",
				"energy": -0.29695,
				"method": "rhf"
			},
			{
				"type": "occ",
				"energy": -0.28027,
				"method": "rhf"
			},
			{
				"type": "unocc",
				"energy": -0.10456,
				"method": "rhf"
			},
			{
				"type": "unocc",
				"energy": -0.07194,
				"method": "rhf"
			},
			{
				"type": "unocc",
				"energy": -0.02136,
				"method": "rhf"
			},
			{
				"type": "unocc",
				"energy": 0.00434,
				"method": "rhf"
			},
			{
				"type": "unocc",
				"energy": 0.045,
				"method": "rhf"
			}
		],
		"cosmo_sigma_profile": { 
			"-0.025": 0.0,
			"-0.024": 0.0,
			"-0.023": 0.0,
			"-0.022": 0.0,
			"-0.021": 0.0,
			"-0.02": 0.0,
			"-0.019": 0.0,
			"-0.018": 0.0,
			"-0.017": 0.0,
			"-0.016": 0.0,
			"-0.015": 0.0,
			"-0.014": 0.0,
			"-0.013": 0.0,
			"-0.012": 0.0,
			"-0.011": 0.0,
			"-0.01": 0.659597316132,
			"-0.009": 6.13717169416,
			"-0.008": 7.25241746023,
			"-0.007": 8.29346501951,
			"-0.006": 7.29382436524,
			"-0.005": 9.99322084156,
			"-0.004": 10.7726456315,
			"-0.003": 13.4869448877,
			"-0.002": 18.4812755744,
			"-0.001": 20.069469641,
			"0.0": 13.4157232891,
			"0.001": 7.02982220828,
			"0.002": 9.65556144571,
			"0.003": 14.3009073063,
			"0.004": 6.45477710328,
			"0.005": 4.81784707267,
			"0.006": 5.53422878987,
			"0.007": 6.2813190743,
			"0.008": 6.77229452945,
			"0.009": 10.0219832528,
			"0.01": 6.43417612363,
			"0.011": 0.427830725211,
			"0.012": 0.0,
			"0.013": 0.0,
			"0.014": 0.0,
			"0.015": 0.0,
			"0.016": 0.0,
			"0.017": 0.0,
			"0.018": 0.0,
			"0.019": 0.0,
			"0.02": 0.0,
			"0.021": 0.0,
			"0.022": 0.0,
			"0.023": 0.0,
			"0.024": 0.0,
			"0.025": 0.0
		}
	}
}
