{
	 "smiles": "CN(C)C1=CC=CC=C1", 
	 "Tm": 275.65, 
	 "num_atms": 20, 
	 "gaussian": { 
		 "optdone": 1, 
		 "sigma_profile": "yes", 
		 "theory": "DFT", 
		 "functional": "B3LYP", 
		 "basiset": "6-31G**", 
		 "properties": { 
			 "R2extent": 1352.2626, 
			 "electric_dipole_moment_norm": 1.88209874608, 
			 "electric_quadrupole_moment_norm": 5.59257683363, 
			 "total_energy": -366.223697962, 
			 "HOMO_LUMO_gap": 0.19706, 
			 "cosmo_polarized_energy": -5.06, 
			 "cosmo_cavitation_energy": 22.1, 
			 "cosmo_dispersion_energy": -16.63, 
			 "cosmo_repulsion_energy": 1.34, 
			 "cosmo_total_nonelectrostatic_energy": 6.81, 
			 "SMD_solvation_energy": 3.41 
		},
		"coords": [
			{
				"x": -1.6114711791,
				"y": 0.6791747641,
				"z": -1.8890288421,
				"element": "C" 
			},
			{
				"x": -0.5667771156,
				"y": 1.0015348818,
				"z": -0.9326198038,
				"element": "N" 
			},
			{
				"x": -0.1308525162,
				"y": 2.3845135397,
				"z": -0.8471028603,
				"element": "C" 
			},
			{
				"x": -0.360874858,
				"y": 0.1572286606,
				"z": 0.1570149874,
				"element": "C" 
			},
			{
				"x": -0.9662793371,
				"y": -1.1187024487,
				"z": 0.2224559968,
				"element": "C" 
			},
			{
				"x": -0.7273190729,
				"y": -1.9696051054,
				"z": 1.2990127355,
				"element": "C" 
			},
			{
				"x": 0.1071484719,
				"y": -1.5882087183,
				"z": 2.3502080998,
				"element": "C" 
			},
			{
				"x": 0.6990160268,
				"y": -0.3255640878,
				"z": 2.3030145002,
				"element": "C" 
			},
			{
				"x": 0.471357954,
				"y": 0.5383882404,
				"z": 1.2344287219,
				"element": "C" 
			},
			{
				"x": -1.4220768671,
				"y": -0.2887422619,
				"z": -2.366519655,
				"element": "H" 
			},
			{
				"x": -2.6160355892,
				"y": 0.6422322687,
				"z": -1.4373937562,
				"element": "H" 
			},
			{
				"x": -1.6196789927,
				"y": 1.4342883703,
				"z": -2.6770576237,
				"element": "H" 
			},
			{
				"x": 0.9524262765,
				"y": 2.4462464704,
				"z": -0.6940618087,
				"element": "H" 
			},
			{
				"x": -0.6194559137,
				"y": 2.943331524,
				"z": -0.0325521741,
				"element": "H" 
			},
			{
				"x": -0.35535863,
				"y": 2.888672888,
				"z": -1.7887436147,
				"element": "H" 
			},
			{
				"x": -1.6272268408,
				"y": -1.4526075296,
				"z": -0.5678855949,
				"element": "H" 
			},
			{
				"x": -1.2088180273,
				"y": -2.9440218949,
				"z": 1.3127959326,
				"element": "H" 
			},
			{
				"x": 0.2865750599,
				"y": -2.2552149417,
				"z": 3.1875127854,
				"element": "H" 
			},
			{
				"x": 1.3470575872,
				"y": 0.0019680963,
				"z": 3.1118919529,
				"element": "H" 
			},
			{
				"x": 0.9449435636,
				"y": 1.5123872838,
				"z": 1.242730021,
				"element": "H" 
			}
		],
		 "valence_orbital": [ 
			{
				"type": "occ",
				"energy": -0.34449,
				"method": "rhf"
			},
			{
				"type": "occ",
				"energy": -0.3245,
				"method": "rhf"
			},
			{
				"type": "occ",
				"energy": -0.2759,
				"method": "rhf"
			},
			{
				"type": "occ",
				"energy": -0.23665,
				"method": "rhf"
			},
			{
				"type": "occ",
				"energy": -0.18454,
				"method": "rhf"
			},
			{
				"type": "unocc",
				"energy": 0.01252,
				"method": "rhf"
			},
			{
				"type": "unocc",
				"energy": 0.02627,
				"method": "rhf"
			},
			{
				"type": "unocc",
				"energy": 0.0874,
				"method": "rhf"
			},
			{
				"type": "unocc",
				"energy": 0.10944,
				"method": "rhf"
			},
			{
				"type": "unocc",
				"energy": 0.12146,
				"method": "rhf"
			}
		],
		"cosmo_sigma_profile": { 
			"-0.025": 0.0,
			"-0.024": 0.0,
			"-0.023": 0.0,
			"-0.022": 0.0,
			"-0.021": 0.0,
			"-0.02": 0.0,
			"-0.019": 0.0,
			"-0.018": 0.0,
			"-0.017": 0.0,
			"-0.016": 0.0,
			"-0.015": 0.0,
			"-0.014": 0.0,
			"-0.013": 0.0,
			"-0.012": 0.0,
			"-0.011": 0.0,
			"-0.01": 0.0,
			"-0.009": 0.0,
			"-0.008": 0.0,
			"-0.007": 0.27786909153,
			"-0.006": 2.77725232867,
			"-0.005": 12.2223688006,
			"-0.004": 17.6598418202,
			"-0.003": 20.6823066774,
			"-0.002": 25.5682836382,
			"-0.001": 21.3690408161,
			"0.0": 11.2671023229,
			"0.001": 8.16059722572,
			"0.002": 8.08391721111,
			"0.003": 6.54066091341,
			"0.004": 7.39529001859,
			"0.005": 7.98958348052,
			"0.006": 9.3748416295,
			"0.007": 9.32960818403,
			"0.008": 5.51321300741,
			"0.009": 0.417183310196,
			"0.01": 0.0,
			"0.011": 0.0,
			"0.012": 0.0,
			"0.013": 0.0,
			"0.014": 0.0,
			"0.015": 0.0,
			"0.016": 0.0,
			"0.017": 0.0,
			"0.018": 0.0,
			"0.019": 0.0,
			"0.02": 0.0,
			"0.021": 0.0,
			"0.022": 0.0,
			"0.023": 0.0,
			"0.024": 0.0,
			"0.025": 0.0
		}
	}
}
