{
	 "smiles": "COC(=O)C1=COC(CCl)=N1", 
	 "Tm": 348.15, 
	 "num_atms": 17, 
	 "gaussian": { 
		 "optdone": 1, 
		 "sigma_profile": "yes", 
		 "theory": "DFT", 
		 "functional": "B3LYP", 
		 "basiset": "6-31G**", 
		 "properties": { 
			 "R2extent": 3169.383, 
			 "electric_dipole_moment_norm": 1.70390375902, 
			 "electric_quadrupole_moment_norm": 11.064263431, 
			 "total_energy": -972.85630139, 
			 "HOMO_LUMO_gap": 0.21789, 
			 "cosmo_polarized_energy": -11.86, 
			 "cosmo_cavitation_energy": 24.64, 
			 "cosmo_dispersion_energy": -18.15, 
			 "cosmo_repulsion_energy": 1.5, 
			 "cosmo_total_nonelectrostatic_energy": 7.99, 
			 "SMD_solvation_energy": 4.89 
		},
		"coords": [
			{
				"x": -3.0242855975,
				"y": -3.1108014247,
				"z": 1.0846643042,
				"element": "C" 
			},
			{
				"x": -1.929889991,
				"y": -2.195764525,
				"z": 0.9091909808,
				"element": "O" 
			},
			{
				"x": -2.140240879,
				"y": -0.9598097963,
				"z": 1.3890854268,
				"element": "C" 
			},
			{
				"x": -3.164328483,
				"y": -0.5953186904,
				"z": 1.9353577818,
				"element": "O" 
			},
			{
				"x": -0.9808696271,
				"y": -0.0678298815,
				"z": 1.1833353499,
				"element": "C" 
			},
			{
				"x": -0.922658834,
				"y": 1.2398618278,
				"z": 1.5679868048,
				"element": "C" 
			},
			{
				"x": 0.290138317,
				"y": 1.7281225919,
				"z": 1.2051287552,
				"element": "O" 
			},
			{
				"x": 0.9251802255,
				"y": 0.6704271068,
				"z": 0.6102775595,
				"element": "C" 
			},
			{
				"x": 2.298693255,
				"y": 0.879635978,
				"z": 0.0988715494,
				"element": "C" 
			},
			{
				"x": 3.5322969367,
				"y": 0.9562350781,
				"z": 1.4416887145,
				"element": "Cl" 
			},
			{
				"x": 0.2172597784,
				"y": -0.4142695697,
				"z": 0.5720946253,
				"element": "N" 
			},
			{
				"x": -2.6904219141,
				"y": -4.0511366704,
				"z": 0.6472244009,
				"element": "H" 
			},
			{
				"x": -3.2517802353,
				"y": -3.2386809825,
				"z": 2.1458618033,
				"element": "H" 
			},
			{
				"x": -3.9180593558,
				"y": -2.7437385863,
				"z": 0.5739911181,
				"element": "H" 
			},
			{
				"x": -1.6075078206,
				"y": 1.9071094326,
				"z": 2.0646225671,
				"element": "H" 
			},
			{
				"x": 2.3860226141,
				"y": 1.8204054419,
				"z": -0.4448049189,
				"element": "H" 
			},
			{
				"x": 2.5699516105,
				"y": 0.0412526698,
				"z": -0.5393768226,
				"element": "H" 
			}
		],
		 "valence_orbital": [ 
			{
				"type": "occ",
				"energy": -0.31038,
				"method": "rhf"
			},
			{
				"type": "occ",
				"energy": -0.30717,
				"method": "rhf"
			},
			{
				"type": "occ",
				"energy": -0.30685,
				"method": "rhf"
			},
			{
				"type": "occ",
				"energy": -0.28298,
				"method": "rhf"
			},
			{
				"type": "occ",
				"energy": -0.26676,
				"method": "rhf"
			},
			{
				"type": "unocc",
				"energy": -0.04887,
				"method": "rhf"
			},
			{
				"type": "unocc",
				"energy": -0.03405,
				"method": "rhf"
			},
			{
				"type": "unocc",
				"energy": 0.04105,
				"method": "rhf"
			},
			{
				"type": "unocc",
				"energy": 0.09846,
				"method": "rhf"
			},
			{
				"type": "unocc",
				"energy": 0.10657,
				"method": "rhf"
			}
		],
		"cosmo_sigma_profile": { 
			"-0.025": 0.0,
			"-0.024": 0.0,
			"-0.023": 0.0,
			"-0.022": 0.0,
			"-0.021": 0.0,
			"-0.02": 0.0,
			"-0.019": 0.0,
			"-0.018": 0.0,
			"-0.017": 0.0,
			"-0.016": 0.0,
			"-0.015": 0.0,
			"-0.014": 0.0,
			"-0.013": 0.0,
			"-0.012": 0.586212244142,
			"-0.011": 1.83699440247,
			"-0.01": 3.22564339481,
			"-0.009": 5.85347317936,
			"-0.008": 4.69425012584,
			"-0.007": 6.97284665358,
			"-0.006": 11.2379425734,
			"-0.005": 10.8702956049,
			"-0.004": 15.4114441018,
			"-0.003": 16.1699233809,
			"-0.002": 14.7626784426,
			"-0.001": 12.6692294998,
			"0.0": 9.00916123394,
			"0.001": 10.0635635024,
			"0.002": 10.0753336461,
			"0.003": 9.50207457027,
			"0.004": 10.5330850508,
			"0.005": 13.8834835619,
			"0.006": 7.35441129414,
			"0.007": 2.51489973747,
			"0.008": 3.32494455981,
			"0.009": 3.38282207199,
			"0.01": 2.77704166332,
			"0.011": 5.7585487852,
			"0.012": 4.62360405944,
			"0.013": 1.31280536999,
			"0.014": 1.04985589964,
			"0.015": 0.24699812902,
			"0.016": 0.0,
			"0.017": 0.0,
			"0.018": 0.0,
			"0.019": 0.0,
			"0.02": 0.0,
			"0.021": 0.0,
			"0.022": 0.0,
			"0.023": 0.0,
			"0.024": 0.0,
			"0.025": 0.0
		}
	}
}
