{
	 "smiles": "ClCC1=NC(=NO1)C1=CC=CC=C1", 
	 "Tm": 315.15, 
	 "num_atms": 20, 
	 "gaussian": { 
		 "optdone": 1, 
		 "sigma_profile": "yes", 
		 "theory": "DFT", 
		 "functional": "B3LYP", 
		 "basiset": "6-31G**", 
		 "properties": { 
			 "R2extent": 4996.2765, 
			 "electric_dipole_moment_norm": 2.27460924996, 
			 "electric_quadrupole_moment_norm": 13.3223776226, 
			 "total_energy": -992.059304529, 
			 "HOMO_LUMO_gap": 0.18817, 
			 "cosmo_polarized_energy": -8.94, 
			 "cosmo_cavitation_energy": 27.08, 
			 "cosmo_dispersion_energy": -20.22, 
			 "cosmo_repulsion_energy": 1.61, 
			 "cosmo_total_nonelectrostatic_energy": 8.47, 
			 "SMD_solvation_energy": 2.75 
		},
		"coords": [
			{
				"x": 1.2398764534,
				"y": -2.7452621267,
				"z": 5.1660938206,
				"element": "Cl" 
			},
			{
				"x": 1.7150888243,
				"y": -3.4016379559,
				"z": 3.5403166461,
				"element": "C" 
			},
			{
				"x": 1.6620269647,
				"y": -2.3540594326,
				"z": 2.4872096461,
				"element": "C" 
			},
			{
				"x": 0.7303297125,
				"y": -2.1590169026,
				"z": 1.6046574607,
				"element": "N" 
			},
			{
				"x": 1.2105925272,
				"y": -1.067290162,
				"z": 0.9026755465,
				"element": "C" 
			},
			{
				"x": 2.3730718649,
				"y": -0.6238896522,
				"z": 1.3352119552,
				"element": "N" 
			},
			{
				"x": 2.6808878103,
				"y": -1.484847722,
				"z": 2.3958427693,
				"element": "O" 
			},
			{
				"x": 0.4909307146,
				"y": -0.4598856727,
				"z": -0.2240173356,
				"element": "C" 
			},
			{
				"x": -0.7464435813,
				"y": -0.9862604984,
				"z": -0.6209804366,
				"element": "C" 
			},
			{
				"x": -1.4359706675,
				"y": -0.4152999965,
				"z": -1.6895016607,
				"element": "C" 
			},
			{
				"x": -0.8980430717,
				"y": 0.6807304712,
				"z": -2.3666689623,
				"element": "C" 
			},
			{
				"x": 0.3355364953,
				"y": 1.2075241314,
				"z": -1.9721975343,
				"element": "C" 
			},
			{
				"x": 1.0299142266,
				"y": 0.6426852298,
				"z": -0.9062650808,
				"element": "C" 
			},
			{
				"x": 2.7243150991,
				"y": -3.799360479,
				"z": 3.6457223666,
				"element": "H" 
			},
			{
				"x": 1.0131422787,
				"y": -4.1953574533,
				"z": 3.2923798286,
				"element": "H" 
			},
			{
				"x": -1.1545645919,
				"y": -1.8370816716,
				"z": -0.0864488369,
				"element": "H" 
			},
			{
				"x": -2.3942419257,
				"y": -0.8265416373,
				"z": -1.9927079985,
				"element": "H" 
			},
			{
				"x": -1.4371136057,
				"y": 1.124269883,
				"z": -3.1988090479,
				"element": "H" 
			},
			{
				"x": 0.756194633,
				"y": 2.0602576524,
				"z": -2.4967667675,
				"element": "H" 
			},
			{
				"x": 1.9874698395,
				"y": 1.046623995,
				"z": -0.5946463788,
				"element": "H" 
			}
		],
		 "valence_orbital": [ 
			{
				"type": "occ",
				"energy": -0.3145,
				"method": "rhf"
			},
			{
				"type": "occ",
				"energy": -0.30612,
				"method": "rhf"
			},
			{
				"type": "occ",
				"energy": -0.30574,
				"method": "rhf"
			},
			{
				"type": "occ",
				"energy": -0.26044,
				"method": "rhf"
			},
			{
				"type": "occ",
				"energy": -0.24895,
				"method": "rhf"
			},
			{
				"type": "unocc",
				"energy": -0.06078,
				"method": "rhf"
			},
			{
				"type": "unocc",
				"energy": -0.03558,
				"method": "rhf"
			},
			{
				"type": "unocc",
				"energy": -0.00907,
				"method": "rhf"
			},
			{
				"type": "unocc",
				"energy": 0.03421,
				"method": "rhf"
			},
			{
				"type": "unocc",
				"energy": 0.06394,
				"method": "rhf"
			}
		],
		"cosmo_sigma_profile": { 
			"-0.025": 0.0,
			"-0.024": 0.0,
			"-0.023": 0.0,
			"-0.022": 0.0,
			"-0.021": 0.0,
			"-0.02": 0.0,
			"-0.019": 0.0,
			"-0.018": 0.0,
			"-0.017": 0.0,
			"-0.016": 0.0,
			"-0.015": 0.0,
			"-0.014": 0.0,
			"-0.013": 0.0,
			"-0.012": 0.0,
			"-0.011": 0.282676051923,
			"-0.01": 4.02882075159,
			"-0.009": 3.77000994915,
			"-0.008": 5.33047179983,
			"-0.007": 5.43211980982,
			"-0.006": 12.2334167278,
			"-0.005": 13.0404425555,
			"-0.004": 14.4124887434,
			"-0.003": 10.3711414712,
			"-0.002": 11.9524673718,
			"-0.001": 12.9126045104,
			"0.0": 17.0383935249,
			"0.001": 17.527800644,
			"0.002": 17.8070168594,
			"0.003": 18.4279788779,
			"0.004": 21.7099763432,
			"0.005": 16.0302409435,
			"0.006": 6.55346052558,
			"0.007": 2.97409164474,
			"0.008": 1.97554093652,
			"0.009": 2.08440253906,
			"0.01": 2.57668051168,
			"0.011": 1.53499853024,
			"0.012": 0.504410265987,
			"0.013": 0.0,
			"0.014": 0.0,
			"0.015": 0.0,
			"0.016": 0.0,
			"0.017": 0.0,
			"0.018": 0.0,
			"0.019": 0.0,
			"0.02": 0.0,
			"0.021": 0.0,
			"0.022": 0.0,
			"0.023": 0.0,
			"0.024": 0.0,
			"0.025": 0.0
		}
	}
}
