{
	 "smiles": "CSCCC(NC(=O)CC1=CC=CC=C1)C(O)=O", 
	 "Tm": 375.15, 
	 "num_atms": 35, 
	 "gaussian": { 
		 "optdone": 1, 
		 "sigma_profile": "yes", 
		 "theory": "DFT", 
		 "functional": "B3LYP", 
		 "basiset": "6-31G**", 
		 "properties": { 
			 "R2extent": 6276.17, 
			 "electric_dipole_moment_norm": 4.38803749756, 
			 "electric_quadrupole_moment_norm": 14.0339911429, 
			 "total_energy": -1184.27005332, 
			 "HOMO_LUMO_gap": 0.2135, 
			 "cosmo_polarized_energy": -20.07, 
			 "cosmo_cavitation_energy": 40.25, 
			 "cosmo_dispersion_energy": -26.52, 
			 "cosmo_repulsion_energy": 2.07, 
			 "cosmo_total_nonelectrostatic_energy": 15.8, 
			 "SMD_solvation_energy": 8.02 
		},
		"coords": [
			{
				"x": -2.1329723942,
				"y": -1.8572175697,
				"z": 4.6944424471,
				"element": "C" 
			},
			{
				"x": -2.0423692656,
				"y": -2.2924773531,
				"z": 2.9246736413,
				"element": "S" 
			},
			{
				"x": -0.3577628165,
				"y": -1.6470682868,
				"z": 2.5635408578,
				"element": "C" 
			},
			{
				"x": -0.0081409023,
				"y": -1.6761980331,
				"z": 1.0714607794,
				"element": "C" 
			},
			{
				"x": -0.8544082741,
				"y": -0.7381591866,
				"z": 0.1925686673,
				"element": "C" 
			},
			{
				"x": -0.1484223294,
				"y": -0.4301846095,
				"z": -1.0494479519,
				"element": "N" 
			},
			{
				"x": -0.0457127549,
				"y": 0.7683714483,
				"z": -1.7159281395,
				"element": "C" 
			},
			{
				"x": 0.5787418403,
				"y": 0.8410298749,
				"z": -2.766593852,
				"element": "O" 
			},
			{
				"x": -0.6947006933,
				"y": 2.0003536373,
				"z": -1.0812536623,
				"element": "C" 
			},
			{
				"x": 0.1253575226,
				"y": 2.5749044409,
				"z": 0.0636910604,
				"element": "C" 
			},
			{
				"x": -0.4709754777,
				"y": 2.8865171335,
				"z": 1.2921825311,
				"element": "C" 
			},
			{
				"x": 0.2837876823,
				"y": 3.4301633528,
				"z": 2.3350212623,
				"element": "C" 
			},
			{
				"x": 1.6474772456,
				"y": 3.6672299018,
				"z": 2.1616181034,
				"element": "C" 
			},
			{
				"x": 2.2508944376,
				"y": 3.360251931,
				"z": 0.9390284349,
				"element": "C" 
			},
			{
				"x": 1.4968855047,
				"y": 2.8190340278,
				"z": -0.1014523923,
				"element": "C" 
			},
			{
				"x": -2.1995581359,
				"y": -1.3665569082,
				"z": -0.1905755117,
				"element": "C" 
			},
			{
				"x": -3.1787007633,
				"y": -0.4382648907,
				"z": -0.2765747834,
				"element": "O" 
			},
			{
				"x": -2.3617873317,
				"y": -2.532816525,
				"z": -0.4710296393,
				"element": "O" 
			},
			{
				"x": -3.1071285444,
				"y": -2.1938015321,
				"z": 5.0555423441,
				"element": "H" 
			},
			{
				"x": -1.3520009532,
				"y": -2.365002257,
				"z": 5.267267702,
				"element": "H" 
			},
			{
				"x": -2.0553088706,
				"y": -0.7765559082,
				"z": 4.8434467897,
				"element": "H" 
			},
			{
				"x": 0.3719973848,
				"y": -2.2488193723,
				"z": 3.1151280518,
				"element": "H" 
			},
			{
				"x": -0.2948515451,
				"y": -0.6183231906,
				"z": 2.9374808473,
				"element": "H" 
			},
			{
				"x": -0.0820816149,
				"y": -2.6959626489,
				"z": 0.6778903152,
				"element": "H" 
			},
			{
				"x": 1.0347816957,
				"y": -1.3562991815,
				"z": 0.9734563544,
				"element": "H" 
			},
			{
				"x": -1.035116204,
				"y": 0.1969782003,
				"z": 0.7228336898,
				"element": "H" 
			},
			{
				"x": 0.2644087778,
				"y": -1.2075311864,
				"z": -1.5518096383,
				"element": "H" 
			},
			{
				"x": -0.7660238988,
				"y": 2.7287604916,
				"z": -1.894027991,
				"element": "H" 
			},
			{
				"x": -1.7117058671,
				"y": 1.7760590266,
				"z": -0.746399133,
				"element": "H" 
			},
			{
				"x": -1.5358385193,
				"y": 2.7127734795,
				"z": 1.4301268911,
				"element": "H" 
			},
			{
				"x": -0.1963834554,
				"y": 3.6700765282,
				"z": 3.2796973822,
				"element": "H" 
			},
			{
				"x": 2.2360356354,
				"y": 4.0903500164,
				"z": 2.9705555291,
				"element": "H" 
			},
			{
				"x": 3.3118243425,
				"y": 3.5445997651,
				"z": 0.7948597871,
				"element": "H" 
			},
			{
				"x": 1.9664679626,
				"y": 2.5809142575,
				"z": -1.052020809,
				"element": "H" 
			},
			{
				"x": -3.9760094201,
				"y": -0.9042288739,
				"z": -0.5820999649,
				"element": "H" 
			}
		],
		 "valence_orbital": [ 
			{
				"type": "occ",
				"energy": -0.25738,
				"method": "rhf"
			},
			{
				"type": "occ",
				"energy": -0.25575,
				"method": "rhf"
			},
			{
				"type": "occ",
				"energy": -0.25167,
				"method": "rhf"
			},
			{
				"type": "occ",
				"energy": -0.24075,
				"method": "rhf"
			},
			{
				"type": "occ",
				"energy": -0.22542,
				"method": "rhf"
			},
			{
				"type": "unocc",
				"energy": -0.01192,
				"method": "rhf"
			},
			{
				"type": "unocc",
				"energy": -0.00899,
				"method": "rhf"
			},
			{
				"type": "unocc",
				"energy": -0.00332,
				"method": "rhf"
			},
			{
				"type": "unocc",
				"energy": 0.02779,
				"method": "rhf"
			},
			{
				"type": "unocc",
				"energy": 0.03692,
				"method": "rhf"
			}
		],
		"cosmo_sigma_profile": { 
			"-0.025": 0.0,
			"-0.024": 0.0,
			"-0.023": 0.0,
			"-0.022": 0.0,
			"-0.021": 0.0,
			"-0.02": 0.0,
			"-0.019": 0.146361953257,
			"-0.018": 1.17635557152,
			"-0.017": 0.632831710889,
			"-0.016": 1.11595313528,
			"-0.015": 0.54222728308,
			"-0.014": 1.28471676799,
			"-0.013": 1.7310849544,
			"-0.012": 1.36830974573,
			"-0.011": 1.57906176905,
			"-0.01": 1.90448021752,
			"-0.009": 1.39614336747,
			"-0.008": 1.61513010096,
			"-0.007": 2.65044878596,
			"-0.006": 10.4861448481,
			"-0.005": 28.6033986826,
			"-0.004": 33.1188235322,
			"-0.003": 34.085938863,
			"-0.002": 30.0890395454,
			"-0.001": 23.0755729378,
			"0.0": 15.8258511221,
			"0.001": 14.3451290982,
			"0.002": 14.6867743773,
			"0.003": 13.683672989,
			"0.004": 14.7682564255,
			"0.005": 14.1908522151,
			"0.006": 11.0438415121,
			"0.007": 6.32840958038,
			"0.008": 7.08219368237,
			"0.009": 5.7124741582,
			"0.01": 4.58934776476,
			"0.011": 6.73568933303,
			"0.012": 4.36155173194,
			"0.013": 4.31899998295,
			"0.014": 3.98524188628,
			"0.015": 0.368057337477,
			"0.016": 0.0,
			"0.017": 0.0,
			"0.018": 0.0,
			"0.019": 0.0,
			"0.02": 0.0,
			"0.021": 0.0,
			"0.022": 0.0,
			"0.023": 0.0,
			"0.024": 0.0,
			"0.025": 0.0
		}
	}
}
