{
	 "smiles": "COC1=C(OCCN(C)C)C=C(N)C=C1", 
	 "Tm": 344.15, 
	 "num_atms": 33, 
	 "gaussian": { 
		 "optdone": 1, 
		 "sigma_profile": "yes", 
		 "theory": "DFT", 
		 "functional": "B3LYP", 
		 "basiset": "6-31G**", 
		 "properties": { 
			 "R2extent": 4001.1192, 
			 "electric_dipole_moment_norm": 1.15079236181, 
			 "electric_quadrupole_moment_norm": 12.9244811559, 
			 "total_energy": -689.928648318, 
			 "HOMO_LUMO_gap": 0.19169, 
			 "cosmo_polarized_energy": -13.62, 
			 "cosmo_cavitation_energy": 34.97, 
			 "cosmo_dispersion_energy": -24.25, 
			 "cosmo_repulsion_energy": 1.93, 
			 "cosmo_total_nonelectrostatic_energy": 12.65, 
			 "SMD_solvation_energy": 6.1 
		},
		"coords": [
			{
				"x": -1.5975898557,
				"y": -2.0449593911,
				"z": -3.4814461927,
				"element": "C" 
			},
			{
				"x": -1.3026554609,
				"y": -0.9170321812,
				"z": -2.679555506,
				"element": "O" 
			},
			{
				"x": -1.2522855247,
				"y": -1.0986085466,
				"z": -1.3187532301,
				"element": "C" 
			},
			{
				"x": -0.9997504411,
				"y": 0.053383047,
				"z": -0.5423343668,
				"element": "C" 
			},
			{
				"x": -0.8879206288,
				"y": 1.2911941007,
				"z": -1.1335624075,
				"element": "O" 
			},
			{
				"x": 0.3176215904,
				"y": 1.5425156251,
				"z": -1.8623074392,
				"element": "C" 
			},
			{
				"x": 1.5647560717,
				"y": 1.6243460751,
				"z": -0.9810606875,
				"element": "C" 
			},
			{
				"x": 1.4540073368,
				"y": 2.5299877963,
				"z": 0.1586210333,
				"element": "N" 
			},
			{
				"x": 2.6456792491,
				"y": 2.4593586587,
				"z": 0.992033257,
				"element": "C" 
			},
			{
				"x": 1.1449909113,
				"y": 3.9025565066,
				"z": -0.2168197171,
				"element": "C" 
			},
			{
				"x": -0.9355546503,
				"y": -0.0324723853,
				"z": 0.843336343,
				"element": "C" 
			},
			{
				"x": -1.1329397449,
				"y": -1.2557880097,
				"z": 1.5061400473,
				"element": "C" 
			},
			{
				"x": -1.0088074466,
				"y": -1.3350773429,
				"z": 2.9036833469,
				"element": "N" 
			},
			{
				"x": -1.3835323746,
				"y": -2.3945471056,
				"z": 0.7329816296,
				"element": "C" 
			},
			{
				"x": -1.4386223421,
				"y": -2.3158015879,
				"z": -0.6624958339,
				"element": "C" 
			},
			{
				"x": -1.6083636158,
				"y": -1.6899039909,
				"z": -4.5136023185,
				"element": "H" 
			},
			{
				"x": -2.5802595195,
				"y": -2.4709656912,
				"z": -3.2377178573,
				"element": "H" 
			},
			{
				"x": -0.8364543876,
				"y": -2.8309312536,
				"z": -3.3797343491,
				"element": "H" 
			},
			{
				"x": 0.1352403337,
				"y": 2.4884744875,
				"z": -2.3793924706,
				"element": "H" 
			},
			{
				"x": 0.4744363841,
				"y": 0.772034332,
				"z": -2.6263383913,
				"element": "H" 
			},
			{
				"x": 2.4112169587,
				"y": 1.8935843267,
				"z": -1.6497517765,
				"element": "H" 
			},
			{
				"x": 1.7840878668,
				"y": 0.6259151402,
				"z": -0.5852020086,
				"element": "H" 
			},
			{
				"x": 2.8090453653,
				"y": 1.4271223846,
				"z": 1.3183998302,
				"element": "H" 
			},
			{
				"x": 2.5113296419,
				"y": 3.0794933018,
				"z": 1.8844260661,
				"element": "H" 
			},
			{
				"x": 3.564919523,
				"y": 2.8022698506,
				"z": 0.476473674,
				"element": "H" 
			},
			{
				"x": 0.1648269259,
				"y": 3.953757775,
				"z": -0.6971985887,
				"element": "H" 
			},
			{
				"x": 1.8944750626,
				"y": 4.3517761766,
				"z": -0.898868796,
				"element": "H" 
			},
			{
				"x": 1.1019498531,
				"y": 4.5216556209,
				"z": 0.6847495762,
				"element": "H" 
			},
			{
				"x": -0.7102545159,
				"y": 0.8789365072,
				"z": 1.3884741944,
				"element": "H" 
			},
			{
				"x": -1.2257027354,
				"y": -0.470867587,
				"z": 3.3830358249,
				"element": "H" 
			},
			{
				"x": -1.5131701257,
				"y": -2.1086093398,
				"z": 3.3171943704,
				"element": "H" 
			},
			{
				"x": -1.5338858098,
				"y": -3.3557432742,
				"z": 1.2179268675,
				"element": "H" 
			},
			{
				"x": -1.6407338952,
				"y": -3.2181540258,
				"z": -1.2280341231,
				"element": "H" 
			}
		],
		 "valence_orbital": [ 
			{
				"type": "occ",
				"energy": -0.26791,
				"method": "rhf"
			},
			{
				"type": "occ",
				"energy": -0.25947,
				"method": "rhf"
			},
			{
				"type": "occ",
				"energy": -0.22532,
				"method": "rhf"
			},
			{
				"type": "occ",
				"energy": -0.20507,
				"method": "rhf"
			},
			{
				"type": "occ",
				"energy": -0.1787,
				"method": "rhf"
			},
			{
				"type": "unocc",
				"energy": 0.01299,
				"method": "rhf"
			},
			{
				"type": "unocc",
				"energy": 0.0362,
				"method": "rhf"
			},
			{
				"type": "unocc",
				"energy": 0.08705,
				"method": "rhf"
			},
			{
				"type": "unocc",
				"energy": 0.08876,
				"method": "rhf"
			},
			{
				"type": "unocc",
				"energy": 0.10115,
				"method": "rhf"
			}
		],
		"cosmo_sigma_profile": { 
			"-0.025": 0.0,
			"-0.024": 0.0,
			"-0.023": 0.0,
			"-0.022": 0.0,
			"-0.021": 0.0,
			"-0.02": 0.0,
			"-0.019": 0.0,
			"-0.018": 0.0,
			"-0.017": 0.0,
			"-0.016": 0.0,
			"-0.015": 0.0,
			"-0.014": 0.0,
			"-0.013": 0.0,
			"-0.012": 1.22863545448,
			"-0.011": 3.00978251776,
			"-0.01": 2.51714950342,
			"-0.009": 3.20892110818,
			"-0.008": 3.12976171338,
			"-0.007": 2.48749869052,
			"-0.006": 6.38686206312,
			"-0.005": 15.072896968,
			"-0.004": 22.3652473348,
			"-0.003": 31.1485287094,
			"-0.002": 29.6380153069,
			"-0.001": 31.7294413148,
			"0.0": 25.3369910944,
			"0.001": 11.6921787682,
			"0.002": 8.91185074563,
			"0.003": 9.30584529609,
			"0.004": 11.1339741714,
			"0.005": 11.6972257219,
			"0.006": 11.970682976,
			"0.007": 7.89261873712,
			"0.008": 3.56055922684,
			"0.009": 4.53671381567,
			"0.01": 4.64986768593,
			"0.011": 3.70099100841,
			"0.012": 3.51982770392,
			"0.013": 1.48492791234,
			"0.014": 0.898010957657,
			"0.015": 0.514809167962,
			"0.016": 0.352605114716,
			"0.017": 0.0,
			"0.018": 0.0,
			"0.019": 0.0,
			"0.02": 0.0,
			"0.021": 0.0,
			"0.022": 0.0,
			"0.023": 0.0,
			"0.024": 0.0,
			"0.025": 0.0
		}
	}
}
