{
	 "smiles": "CC1CCC2=C(C1)SC1=C2C(Cl)=NC(CN2CCOCC2)=N1", 
	 "Tm": 329.15, 
	 "num_atms": 42, 
	 "gaussian": { 
		 "optdone": 1, 
		 "sigma_profile": "yes", 
		 "theory": "DFT", 
		 "functional": "B3LYP", 
		 "basiset": "6-31G**", 
		 "properties": { 
			 "R2extent": 11149.331, 
			 "electric_dipole_moment_norm": 4.35542466471, 
			 "electric_quadrupole_moment_norm": 6.12335535307, 
			 "total_energy": -1719.60191451, 
			 "HOMO_LUMO_gap": 0.15191, 
			 "cosmo_polarized_energy": -10.54, 
			 "cosmo_cavitation_energy": 44.98, 
			 "cosmo_dispersion_energy": -33.12, 
			 "cosmo_repulsion_energy": 2.5, 
			 "cosmo_total_nonelectrostatic_energy": 14.36, 
			 "SMD_solvation_energy": 0.63 
		},
		"coords": [
			{
				"x": 2.1033052806,
				"y": -1.5198948135,
				"z": -4.3820907815,
				"element": "C" 
			},
			{
				"x": 0.8218057255,
				"y": -2.3636506511,
				"z": -4.4594861008,
				"element": "C" 
			},
			{
				"x": 0.7952571311,
				"y": -3.4996699321,
				"z": -3.4192441287,
				"element": "C" 
			},
			{
				"x": 0.7924611225,
				"y": -2.9891458756,
				"z": -1.9668858943,
				"element": "C" 
			},
			{
				"x": -0.1665178553,
				"y": -1.8356862461,
				"z": -1.7778073788,
				"element": "C" 
			},
			{
				"x": -0.7084001563,
				"y": -1.1797185763,
				"z": -2.8478534741,
				"element": "C" 
			},
			{
				"x": -0.4486070852,
				"y": -1.4989943757,
				"z": -4.2949763293,
				"element": "C" 
			},
			{
				"x": -1.8036580664,
				"y": 0.1268962284,
				"z": -2.4032337997,
				"element": "S" 
			},
			{
				"x": -1.5308828526,
				"y": -0.1952145435,
				"z": -0.7042220535,
				"element": "C" 
			},
			{
				"x": -0.6207895055,
				"y": -1.2734915917,
				"z": -0.5230399647,
				"element": "C" 
			},
			{
				"x": -0.3764888465,
				"y": -1.5365889053,
				"z": 0.8354476599,
				"element": "C" 
			},
			{
				"x": 0.7408799181,
				"y": -2.8071100338,
				"z": 1.3313688579,
				"element": "Cl" 
			},
			{
				"x": -0.9452708036,
				"y": -0.8690279864,
				"z": 1.8177238323,
				"element": "N" 
			},
			{
				"x": -1.7958187031,
				"y": 0.1313763285,
				"z": 1.505122237,
				"element": "C" 
			},
			{
				"x": -2.4134532447,
				"y": 0.9025830318,
				"z": 2.6517502835,
				"element": "C" 
			},
			{
				"x": -1.5829074241,
				"y": 2.0369608756,
				"z": 3.0583967194,
				"element": "N" 
			},
			{
				"x": -2.3706193831,
				"y": 3.0665902276,
				"z": 3.7475305517,
				"element": "C" 
			},
			{
				"x": -1.4428752701,
				"y": 4.0162482705,
				"z": 4.4945412426,
				"element": "C" 
			},
			{
				"x": -0.7282983525,
				"y": 3.3623152665,
				"z": 5.5416116999,
				"element": "O" 
			},
			{
				"x": -0.4745049179,
				"y": 1.978890525,
				"z": 5.2947347651,
				"element": "C" 
			},
			{
				"x": -0.3578003484,
				"y": 1.6723556518,
				"z": 3.8026383761,
				"element": "C" 
			},
			{
				"x": -2.1159747816,
				"y": 0.5022735706,
				"z": 0.2631304973,
				"element": "N" 
			},
			{
				"x": 2.1751176356,
				"y": -0.9732984087,
				"z": -3.4362635267,
				"element": "H" 
			},
			{
				"x": 2.9935811523,
				"y": -2.1514854672,
				"z": -4.4731292935,
				"element": "H" 
			},
			{
				"x": 2.1341057739,
				"y": -0.782150299,
				"z": -5.1909092157,
				"element": "H" 
			},
			{
				"x": 0.7805259183,
				"y": -2.818972957,
				"z": -5.4571794915,
				"element": "H" 
			},
			{
				"x": 1.6529117882,
				"y": -4.1655886377,
				"z": -3.5671118837,
				"element": "H" 
			},
			{
				"x": -0.1047885081,
				"y": -4.1055326172,
				"z": -3.5854931473,
				"element": "H" 
			},
			{
				"x": 1.8016038247,
				"y": -2.6763052626,
				"z": -1.6683692729,
				"element": "H" 
			},
			{
				"x": 0.5306236809,
				"y": -3.8096408821,
				"z": -1.2927077001,
				"element": "H" 
			},
			{
				"x": -0.3569225878,
				"y": -0.5735810844,
				"z": -4.8770885568,
				"element": "H" 
			},
			{
				"x": -1.3166576936,
				"y": -2.0324720502,
				"z": -4.7074829112,
				"element": "H" 
			},
			{
				"x": -3.3670155485,
				"y": 1.3016378415,
				"z": 2.2959639022,
				"element": "H" 
			},
			{
				"x": -2.6213776912,
				"y": 0.2020300458,
				"z": 3.4801244606,
				"element": "H" 
			},
			{
				"x": -2.9621327559,
				"y": 3.6261117519,
				"z": 3.0111224939,
				"element": "H" 
			},
			{
				"x": -3.0843868581,
				"y": 2.6358465781,
				"z": 4.475314964,
				"element": "H" 
			},
			{
				"x": -0.7420640945,
				"y": 4.4757643667,
				"z": 3.7798798986,
				"element": "H" 
			},
			{
				"x": -2.021284105,
				"y": 4.8211998513,
				"z": 4.9600926348,
				"element": "H" 
			},
			{
				"x": -1.2715259631,
				"y": 1.3636578084,
				"z": 5.7428400228,
				"element": "H" 
			},
			{
				"x": 0.4597439204,
				"y": 1.7308169862,
				"z": 5.8107977673,
				"element": "H" 
			},
			{
				"x": -0.1455170199,
				"y": 0.6093413229,
				"z": 3.6587600861,
				"element": "H" 
			},
			{
				"x": 0.4971175505,
				"y": 2.2272246685,
				"z": 3.3932819517,
				"element": "H" 
			}
		],
		 "valence_orbital": [ 
			{
				"type": "occ",
				"energy": -0.26844,
				"method": "rhf"
			},
			{
				"type": "occ",
				"energy": -0.26555,
				"method": "rhf"
			},
			{
				"type": "occ",
				"energy": -0.23973,
				"method": "rhf"
			},
			{
				"type": "occ",
				"energy": -0.23164,
				"method": "rhf"
			},
			{
				"type": "occ",
				"energy": -0.20492,
				"method": "rhf"
			},
			{
				"type": "unocc",
				"energy": -0.05301,
				"method": "rhf"
			},
			{
				"type": "unocc",
				"energy": -0.03837,
				"method": "rhf"
			},
			{
				"type": "unocc",
				"energy": 0.00228,
				"method": "rhf"
			},
			{
				"type": "unocc",
				"energy": 0.02287,
				"method": "rhf"
			},
			{
				"type": "unocc",
				"energy": 0.03617,
				"method": "rhf"
			}
		],
		"cosmo_sigma_profile": { 
			"-0.025": 0.0,
			"-0.024": 0.0,
			"-0.023": 0.0,
			"-0.022": 0.0,
			"-0.021": 0.0,
			"-0.02": 0.0,
			"-0.019": 0.0,
			"-0.018": 0.0,
			"-0.017": 0.0,
			"-0.016": 0.0,
			"-0.015": 0.0,
			"-0.014": 0.0,
			"-0.013": 0.0,
			"-0.012": 0.0,
			"-0.011": 0.0,
			"-0.01": 0.0,
			"-0.009": 0.0,
			"-0.008": 0.0,
			"-0.007": 0.0,
			"-0.006": 0.38971513093,
			"-0.005": 9.20896860961,
			"-0.004": 26.2414546544,
			"-0.003": 59.5727081183,
			"-0.002": 62.4066383084,
			"-0.001": 45.7930781437,
			"0.0": 35.627653478,
			"0.001": 32.1448757226,
			"0.002": 19.8722758717,
			"0.003": 14.3883355279,
			"0.004": 14.1246114324,
			"0.005": 5.72283004117,
			"0.006": 4.28426610365,
			"0.007": 3.62767130726,
			"0.008": 4.3277693806,
			"0.009": 4.82816603938,
			"0.01": 3.52852743677,
			"0.011": 3.36158169839,
			"0.012": 2.80818614341,
			"0.013": 2.96010080641,
			"0.014": 1.72305721416,
			"0.015": 0.320403215953,
			"0.016": 0.0,
			"0.017": 0.0,
			"0.018": 0.0,
			"0.019": 0.0,
			"0.02": 0.0,
			"0.021": 0.0,
			"0.022": 0.0,
			"0.023": 0.0,
			"0.024": 0.0,
			"0.025": 0.0
		}
	}
}
