{
	 "smiles": "ClC1=NC2=C(C=C1)C=CC(Cl)=C2Cl", 
	 "Tm": 397.15, 
	 "num_atms": 17, 
	 "gaussian": { 
		 "optdone": 1, 
		 "sigma_profile": "yes", 
		 "theory": "DFT", 
		 "functional": "B3LYP", 
		 "basiset": "6-31G**", 
		 "properties": { 
			 "R2extent": 4663.2815, 
			 "electric_dipole_moment_norm": 4.89297362756, 
			 "electric_quadrupole_moment_norm": 6.56876281578, 
			 "total_energy": -1780.69893662, 
			 "HOMO_LUMO_gap": 0.1688, 
			 "cosmo_polarized_energy": -9.38, 
			 "cosmo_cavitation_energy": 26.98, 
			 "cosmo_dispersion_energy": -20.52, 
			 "cosmo_repulsion_energy": 1.61, 
			 "cosmo_total_nonelectrostatic_energy": 8.08, 
			 "SMD_solvation_energy": 2.46 
		},
		"coords": [
			{
				"x": -1.1751750168,
				"y": -1.8187016621,
				"z": 2.4104513812,
				"element": "Cl" 
			},
			{
				"x": -0.6529739657,
				"y": -0.5119745266,
				"z": 1.3504122565,
				"element": "C" 
			},
			{
				"x": 0.6265358643,
				"y": -0.3593664629,
				"z": 1.180438511,
				"element": "N" 
			},
			{
				"x": 1.0521512139,
				"y": 0.6435485448,
				"z": 0.3658740858,
				"element": "C" 
			},
			{
				"x": 0.1369923366,
				"y": 1.5195452055,
				"z": -0.2968841193,
				"element": "C" 
			},
			{
				"x": -1.2479208715,
				"y": 1.3026169434,
				"z": -0.0717118505,
				"element": "C" 
			},
			{
				"x": -1.6620307393,
				"y": 0.286870091,
				"z": 0.7526433835,
				"element": "C" 
			},
			{
				"x": 0.6299270783,
				"y": 2.5490525863,
				"z": -1.1352044278,
				"element": "C" 
			},
			{
				"x": 1.9816560396,
				"y": 2.710044742,
				"z": -1.3145613748,
				"element": "C" 
			},
			{
				"x": 2.898172814,
				"y": 1.8485147447,
				"z": -0.6633233596,
				"element": "C" 
			},
			{
				"x": 4.597519246,
				"y": 2.1223403842,
				"z": -0.9456409076,
				"element": "Cl" 
			},
			{
				"x": 2.4571915581,
				"y": 0.8286966244,
				"z": 0.1653000799,
				"element": "C" 
			},
			{
				"x": 3.5664154706,
				"y": -0.2333442752,
				"z": 0.9689442568,
				"element": "Cl" 
			},
			{
				"x": -1.9727639674,
				"y": 1.9490959985,
				"z": -0.5589540932,
				"element": "H" 
			},
			{
				"x": -2.7083750169,
				"y": 0.0891715757,
				"z": 0.9496699065,
				"element": "H" 
			},
			{
				"x": -0.071130374,
				"y": 3.2106709587,
				"z": -1.6354264686,
				"element": "H" 
			},
			{
				"x": 2.3728083301,
				"y": 3.4936185277,
				"z": -1.9532272597,
				"element": "H" 
			}
		],
		 "valence_orbital": [ 
			{
				"type": "occ",
				"energy": -0.31215,
				"method": "rhf"
			},
			{
				"type": "occ",
				"energy": -0.31156,
				"method": "rhf"
			},
			{
				"type": "occ",
				"energy": -0.28399,
				"method": "rhf"
			},
			{
				"type": "occ",
				"energy": -0.26275,
				"method": "rhf"
			},
			{
				"type": "occ",
				"energy": -0.24696,
				"method": "rhf"
			},
			{
				"type": "unocc",
				"energy": -0.07816,
				"method": "rhf"
			},
			{
				"type": "unocc",
				"energy": -0.04489,
				"method": "rhf"
			},
			{
				"type": "unocc",
				"energy": -0.0064,
				"method": "rhf"
			},
			{
				"type": "unocc",
				"energy": -0.00194,
				"method": "rhf"
			},
			{
				"type": "unocc",
				"energy": 0.0283,
				"method": "rhf"
			}
		],
		"cosmo_sigma_profile": { 
			"-0.025": 0.0,
			"-0.024": 0.0,
			"-0.023": 0.0,
			"-0.022": 0.0,
			"-0.021": 0.0,
			"-0.02": 0.0,
			"-0.019": 0.0,
			"-0.018": 0.0,
			"-0.017": 0.0,
			"-0.016": 0.0,
			"-0.015": 0.0,
			"-0.014": 0.0,
			"-0.013": 0.0,
			"-0.012": 0.0,
			"-0.011": 0.0,
			"-0.01": 0.197366369162,
			"-0.009": 3.89175589279,
			"-0.008": 8.66156665732,
			"-0.007": 8.83947071234,
			"-0.006": 6.52456239361,
			"-0.005": 5.71504653538,
			"-0.004": 5.63693103089,
			"-0.003": 9.54310746995,
			"-0.002": 16.8725542089,
			"-0.001": 29.4233800625,
			"0.0": 29.0466628575,
			"0.001": 20.4062037767,
			"0.002": 17.6529915594,
			"0.003": 19.7901873554,
			"0.004": 22.6934902242,
			"0.005": 8.1628720443,
			"0.006": 2.94436555869,
			"0.007": 1.58902025508,
			"0.008": 2.39932473281,
			"0.009": 1.00468808107,
			"0.01": 1.49799466786,
			"0.011": 1.18110337405,
			"0.012": 1.09369446238,
			"0.013": 0.424122343765,
			"0.014": 0.0,
			"0.015": 0.0,
			"0.016": 0.0,
			"0.017": 0.0,
			"0.018": 0.0,
			"0.019": 0.0,
			"0.02": 0.0,
			"0.021": 0.0,
			"0.022": 0.0,
			"0.023": 0.0,
			"0.024": 0.0,
			"0.025": 0.0
		}
	}
}
