{
	 "smiles": "CC(C)(C)C1=NNC(=C1)C(=O)NN", 
	 "Tm": 452.15, 
	 "num_atms": 27, 
	 "gaussian": { 
		 "optdone": 1, 
		 "sigma_profile": "yes", 
		 "theory": "DFT", 
		 "functional": "B3LYP", 
		 "basiset": "6-31G**", 
		 "properties": { 
			 "R2extent": 3367.5803, 
			 "electric_dipole_moment_norm": 4.87112509899, 
			 "electric_quadrupole_moment_norm": 26.279827003, 
			 "total_energy": -607.493854393, 
			 "HOMO_LUMO_gap": 0.213, 
			 "cosmo_polarized_energy": -18.16, 
			 "cosmo_cavitation_energy": 29.83, 
			 "cosmo_dispersion_energy": -21.54, 
			 "cosmo_repulsion_energy": 1.75, 
			 "cosmo_total_nonelectrostatic_energy": 10.04, 
			 "SMD_solvation_energy": 5.89 
		},
		"coords": [
			{
				"x": -1.9870789751,
				"y": -1.3800330855,
				"z": -1.7552679838,
				"element": "C" 
			},
			{
				"x": -1.4108470855,
				"y": -0.0353740113,
				"z": -2.233165659,
				"element": "C" 
			},
			{
				"x": -0.6351179717,
				"y": -0.2481331612,
				"z": -3.5527392007,
				"element": "C" 
			},
			{
				"x": -2.5659625039,
				"y": 0.9622565654,
				"z": -2.4754434949,
				"element": "C" 
			},
			{
				"x": -0.4677850294,
				"y": 0.5368146889,
				"z": -1.1860544484,
				"element": "C" 
			},
			{
				"x": 0.1448749108,
				"y": 1.7136107078,
				"z": -1.4086807193,
				"element": "N" 
			},
			{
				"x": 0.8911402088,
				"y": 1.9351148268,
				"z": -0.3209751397,
				"element": "N" 
			},
			{
				"x": 0.7889814359,
				"y": 0.942841327,
				"z": 0.6086782026,
				"element": "C" 
			},
			{
				"x": -0.0936516111,
				"y": 0.0142545781,
				"z": 0.0697302195,
				"element": "C" 
			},
			{
				"x": 1.4661803152,
				"y": 0.8560206927,
				"z": 1.9180151002,
				"element": "C" 
			},
			{
				"x": 1.28554725,
				"y": -0.0989079899,
				"z": 2.6658276422,
				"element": "O" 
			},
			{
				"x": 2.3223327585,
				"y": 1.8645232859,
				"z": 2.3193146472,
				"element": "N" 
			},
			{
				"x": 2.626995534,
				"y": 3.0135338189,
				"z": 1.575298831,
				"element": "N" 
			},
			{
				"x": -2.6655099541,
				"y": -1.7891564172,
				"z": -2.5112522969,
				"element": "H" 
			},
			{
				"x": -2.5537141589,
				"y": -1.2659802291,
				"z": -0.8249267968,
				"element": "H" 
			},
			{
				"x": -1.195697335,
				"y": -2.1173474604,
				"z": -1.5829189374,
				"element": "H" 
			},
			{
				"x": -0.2005006653,
				"y": 0.692752426,
				"z": -3.900872199,
				"element": "H" 
			},
			{
				"x": -1.3020109293,
				"y": -0.6334974432,
				"z": -4.3326012705,
				"element": "H" 
			},
			{
				"x": 0.1801815492,
				"y": -0.9668809821,
				"z": -3.4170457269,
				"element": "H" 
			},
			{
				"x": -3.2441929771,
				"y": 0.5841561741,
				"z": -3.2490451348,
				"element": "H" 
			},
			{
				"x": -3.1474815071,
				"y": 1.1189009202,
				"z": -1.5605602955,
				"element": "H" 
			},
			{
				"x": -2.17711491,
				"y": 1.9318830034,
				"z": -2.797874708,
				"element": "H" 
			},
			{
				"x": 1.4659025119,
				"y": 2.7601772843,
				"z": -0.2172274543,
				"element": "H" 
			},
			{
				"x": -0.4020536008,
				"y": -0.9026467914,
				"z": 0.5456247737,
				"element": "H" 
			},
			{
				"x": 2.737589123,
				"y": 1.712622792,
				"z": 3.2324282216,
				"element": "H" 
			},
			{
				"x": 3.6265976849,
				"y": 3.0537532682,
				"z": 1.3871118716,
				"element": "H" 
			},
			{
				"x": 2.3607959322,
				"y": 3.8475412117,
				"z": 2.094721956,
				"element": "H" 
			}
		],
		 "valence_orbital": [ 
			{
				"type": "occ",
				"energy": -0.28238,
				"method": "rhf"
			},
			{
				"type": "occ",
				"energy": -0.2661,
				"method": "rhf"
			},
			{
				"type": "occ",
				"energy": -0.254,
				"method": "rhf"
			},
			{
				"type": "occ",
				"energy": -0.24248,
				"method": "rhf"
			},
			{
				"type": "occ",
				"energy": -0.23668,
				"method": "rhf"
			},
			{
				"type": "unocc",
				"energy": -0.02368,
				"method": "rhf"
			},
			{
				"type": "unocc",
				"energy": 0.0463,
				"method": "rhf"
			},
			{
				"type": "unocc",
				"energy": 0.05888,
				"method": "rhf"
			},
			{
				"type": "unocc",
				"energy": 0.09264,
				"method": "rhf"
			},
			{
				"type": "unocc",
				"energy": 0.09866,
				"method": "rhf"
			}
		],
		"cosmo_sigma_profile": { 
			"-0.025": 0.0,
			"-0.024": 0.0,
			"-0.023": 0.0,
			"-0.022": 0.0,
			"-0.021": 0.0,
			"-0.02": 0.0,
			"-0.019": 0.0,
			"-0.018": 0.0,
			"-0.017": 0.0,
			"-0.016": 0.0,
			"-0.015": 0.0,
			"-0.014": 0.676092961097,
			"-0.013": 3.22399213837,
			"-0.012": 5.2988997998,
			"-0.011": 5.39356439132,
			"-0.01": 5.69043500332,
			"-0.009": 5.11421038139,
			"-0.008": 3.10113368023,
			"-0.007": 2.12718431972,
			"-0.006": 2.95451713277,
			"-0.005": 4.0931168332,
			"-0.004": 4.12929070816,
			"-0.003": 15.2799000838,
			"-0.002": 27.4465144818,
			"-0.001": 25.1892902005,
			"0.0": 22.1976617294,
			"0.001": 26.8798416784,
			"0.002": 16.8385242987,
			"0.003": 7.85067779431,
			"0.004": 8.82680955207,
			"0.005": 7.04562722185,
			"0.006": 4.67914438269,
			"0.007": 3.52484257804,
			"0.008": 3.77205655991,
			"0.009": 2.68873629844,
			"0.01": 1.67900367945,
			"0.011": 2.41960289588,
			"0.012": 3.5485311296,
			"0.013": 4.93966754376,
			"0.014": 5.31627900941,
			"0.015": 0.663147306182,
			"0.016": 0.150633024602,
			"0.017": 0.0,
			"0.018": 0.0,
			"0.019": 0.0,
			"0.02": 0.0,
			"0.021": 0.0,
			"0.022": 0.0,
			"0.023": 0.0,
			"0.024": 0.0,
			"0.025": 0.0
		}
	}
}
