{
	 "smiles": "CCC1=CC2=C(C=C1)C=C(O)C(O)=C2", 
	 "Tm": 422.15, 
	 "num_atms": 26, 
	 "gaussian": { 
		 "optdone": 1, 
		 "sigma_profile": "yes", 
		 "theory": "DFT", 
		 "functional": "B3LYP", 
		 "basiset": "6-31G**", 
		 "properties": { 
			 "R2extent": 4133.6002, 
			 "electric_dipole_moment_norm": 2.4460927742, 
			 "electric_quadrupole_moment_norm": 19.7848661466, 
			 "total_energy": -614.972691791, 
			 "HOMO_LUMO_gap": 0.17454, 
			 "cosmo_polarized_energy": -11.32, 
			 "cosmo_cavitation_energy": 29.3, 
			 "cosmo_dispersion_energy": -21.69, 
			 "cosmo_repulsion_energy": 1.69, 
			 "cosmo_total_nonelectrostatic_energy": 9.31, 
			 "SMD_solvation_energy": 5.23 
		},
		"coords": [
			{
				"x": -1.7728980826,
				"y": 2.3623487389,
				"z": 2.7338944533,
				"element": "C" 
			},
			{
				"x": -1.8579697301,
				"y": 0.9469186428,
				"z": 2.1348546168,
				"element": "C" 
			},
			{
				"x": -0.5259561027,
				"y": 0.4372631798,
				"z": 1.6266045839,
				"element": "C" 
			},
			{
				"x": -0.2171385468,
				"y": 0.4455476243,
				"z": 0.2799183698,
				"element": "C" 
			},
			{
				"x": 1.0408041149,
				"y": 0.0008346482,
				"z": -0.2065259266,
				"element": "C" 
			},
			{
				"x": 2.0145336017,
				"y": -0.4709005954,
				"z": 0.7318179611,
				"element": "C" 
			},
			{
				"x": 1.6816890511,
				"y": -0.4763494374,
				"z": 2.1109321971,
				"element": "C" 
			},
			{
				"x": 0.4512614818,
				"y": -0.0362227764,
				"z": 2.5440036716,
				"element": "C" 
			},
			{
				"x": 3.2749024407,
				"y": -0.9195885149,
				"z": 0.2485181511,
				"element": "C" 
			},
			{
				"x": 3.5506493674,
				"y": -0.8983571966,
				"z": -1.0955033835,
				"element": "C" 
			},
			{
				"x": 4.7329563433,
				"y": -1.3068501453,
				"z": -1.6676389293,
				"element": "O" 
			},
			{
				"x": 2.5843579276,
				"y": -0.429229994,
				"z": -2.0354068585,
				"element": "C" 
			},
			{
				"x": 2.8923607247,
				"y": -0.4223808509,
				"z": -3.3615317887,
				"element": "O" 
			},
			{
				"x": 1.3591915703,
				"y": 0.0081365206,
				"z": -1.5918646965,
				"element": "C" 
			},
			{
				"x": -2.750257026,
				"y": 2.6927647378,
				"z": 3.1015673061,
				"element": "H" 
			},
			{
				"x": -1.0685346423,
				"y": 2.3953127477,
				"z": 3.5716356968,
				"element": "H" 
			},
			{
				"x": -1.4288198373,
				"y": 3.0823964759,
				"z": 1.984518787,
				"element": "H" 
			},
			{
				"x": -2.5858308477,
				"y": 0.9439898732,
				"z": 1.3153318128,
				"element": "H" 
			},
			{
				"x": -2.2458794022,
				"y": 0.2583912916,
				"z": 2.896772348,
				"element": "H" 
			},
			{
				"x": -0.9529311434,
				"y": 0.7995582347,
				"z": -0.4393374056,
				"element": "H" 
			},
			{
				"x": 2.4152119051,
				"y": -0.8400478888,
				"z": 2.826677551,
				"element": "H" 
			},
			{
				"x": 0.2153656564,
				"y": -0.0542607962,
				"z": 3.6054406258,
				"element": "H" 
			},
			{
				"x": 4.0203085215,
				"y": -1.2803469227,
				"z": 0.9548713333,
				"element": "H" 
			},
			{
				"x": 5.3405473667,
				"y": -1.6113234706,
				"z": -0.9823914039,
				"element": "H" 
			},
			{
				"x": 3.7934236503,
				"y": -0.7665220935,
				"z": -3.4537853671,
				"element": "H" 
			},
			{
				"x": 0.6345516378,
				"y": 0.3616179673,
				"z": -2.3186737058,
				"element": "H" 
			}
		],
		 "valence_orbital": [ 
			{
				"type": "occ",
				"energy": -0.32157,
				"method": "rhf"
			},
			{
				"type": "occ",
				"energy": -0.28415,
				"method": "rhf"
			},
			{
				"type": "occ",
				"energy": -0.27151,
				"method": "rhf"
			},
			{
				"type": "occ",
				"energy": -0.20877,
				"method": "rhf"
			},
			{
				"type": "occ",
				"energy": -0.20073,
				"method": "rhf"
			},
			{
				"type": "unocc",
				"energy": -0.02619,
				"method": "rhf"
			},
			{
				"type": "unocc",
				"energy": 0.00674,
				"method": "rhf"
			},
			{
				"type": "unocc",
				"energy": 0.03911,
				"method": "rhf"
			},
			{
				"type": "unocc",
				"energy": 0.0512,
				"method": "rhf"
			},
			{
				"type": "unocc",
				"energy": 0.09721,
				"method": "rhf"
			}
		],
		"cosmo_sigma_profile": { 
			"-0.025": 0.0,
			"-0.024": 0.0,
			"-0.023": 0.0,
			"-0.022": 0.0,
			"-0.021": 0.0,
			"-0.02": 0.0,
			"-0.019": 0.106886271462,
			"-0.018": 0.965104497365,
			"-0.017": 1.3573322982,
			"-0.016": 0.617969226655,
			"-0.015": 1.17489747165,
			"-0.014": 1.32487887211,
			"-0.013": 2.33972854953,
			"-0.012": 1.1295586187,
			"-0.011": 1.24512765196,
			"-0.01": 1.57786577465,
			"-0.009": 1.60519100009,
			"-0.008": 1.34784597239,
			"-0.007": 2.8192695633,
			"-0.006": 5.72914306169,
			"-0.005": 10.0174516705,
			"-0.004": 10.6702527218,
			"-0.003": 18.4644864966,
			"-0.002": 19.0330951339,
			"-0.001": 19.5777058096,
			"0.0": 20.7027249903,
			"0.001": 17.8728579876,
			"0.002": 15.3509226042,
			"0.003": 14.0821916267,
			"0.004": 18.3512199911,
			"0.005": 20.7870350534,
			"0.006": 12.6545135274,
			"0.007": 3.15547224887,
			"0.008": 2.4007180849,
			"0.009": 0.964569198236,
			"0.01": 1.24940770278,
			"0.011": 2.54419973357,
			"0.012": 0.681703684727,
			"0.013": 0.0,
			"0.014": 0.0,
			"0.015": 0.0,
			"0.016": 0.0,
			"0.017": 0.0,
			"0.018": 0.0,
			"0.019": 0.0,
			"0.02": 0.0,
			"0.021": 0.0,
			"0.022": 0.0,
			"0.023": 0.0,
			"0.024": 0.0,
			"0.025": 0.0
		}
	}
}
