{
	 "smiles": "OC1=C(F)C(F)=C(F)C=C1", 
	 "Tm": 305.15, 
	 "num_atms": 13, 
	 "gaussian": { 
		 "optdone": 1, 
		 "sigma_profile": "yes", 
		 "theory": "DFT", 
		 "functional": "B3LYP", 
		 "basiset": "6-31G**", 
		 "properties": { 
			 "R2extent": 1996.2556, 
			 "electric_dipole_moment_norm": 1.55209533857, 
			 "electric_quadrupole_moment_norm": 7.02386055599, 
			 "total_energy": -605.148420478, 
			 "HOMO_LUMO_gap": 0.21627, 
			 "cosmo_polarized_energy": -5.72, 
			 "cosmo_cavitation_energy": 19.14, 
			 "cosmo_dispersion_energy": -14.02, 
			 "cosmo_repulsion_energy": 1.07, 
			 "cosmo_total_nonelectrostatic_energy": 6.2, 
			 "SMD_solvation_energy": 5.2 
		},
		"coords": [
			{
				"x": -0.8028434525,
				"y": -1.0129755605,
				"z": 0.0510346531,
				"element": "O" 
			},
			{
				"x": -0.2737189718,
				"y": 0.2345081695,
				"z": 0.1710762209,
				"element": "C" 
			},
			{
				"x": 0.8128761844,
				"y": 0.4716248785,
				"z": 1.0178442695,
				"element": "C" 
			},
			{
				"x": 1.3229095803,
				"y": -0.5716560588,
				"z": 1.7134624115,
				"element": "F" 
			},
			{
				"x": 1.3656684233,
				"y": 1.7387924577,
				"z": 1.1525700996,
				"element": "C" 
			},
			{
				"x": 2.4063732757,
				"y": 1.9343706871,
				"z": 1.9716712861,
				"element": "F" 
			},
			{
				"x": 0.819586898,
				"y": 2.7949781731,
				"z": 0.4235499443,
				"element": "C" 
			},
			{
				"x": 1.3613025859,
				"y": 4.0184962354,
				"z": 0.5603022463,
				"element": "F" 
			},
			{
				"x": -0.260085104,
				"y": 2.5805915482,
				"z": -0.4232889304,
				"element": "C" 
			},
			{
				"x": -0.8078938036,
				"y": 1.3030368988,
				"z": -0.5511841729,
				"element": "C" 
			},
			{
				"x": -0.3016915983,
				"y": -1.6110399052,
				"z": 0.6242513035,
				"element": "H" 
			},
			{
				"x": -0.662715324,
				"y": 3.4213650923,
				"z": -0.9768132475,
				"element": "H" 
			},
			{
				"x": -1.6504686934,
				"y": 1.1177073837,
				"z": -1.207376084,
				"element": "H" 
			}
		],
		 "valence_orbital": [ 
			{
				"type": "occ",
				"energy": -0.37647,
				"method": "rhf"
			},
			{
				"type": "occ",
				"energy": -0.37349,
				"method": "rhf"
			},
			{
				"type": "occ",
				"energy": -0.33607,
				"method": "rhf"
			},
			{
				"type": "occ",
				"energy": -0.26107,
				"method": "rhf"
			},
			{
				"type": "occ",
				"energy": -0.23321,
				"method": "rhf"
			},
			{
				"type": "unocc",
				"energy": -0.01694,
				"method": "rhf"
			},
			{
				"type": "unocc",
				"energy": 0.00051,
				"method": "rhf"
			},
			{
				"type": "unocc",
				"energy": 0.03304,
				"method": "rhf"
			},
			{
				"type": "unocc",
				"energy": 0.08114,
				"method": "rhf"
			},
			{
				"type": "unocc",
				"energy": 0.12403,
				"method": "rhf"
			}
		],
		"cosmo_sigma_profile": { 
			"-0.025": 0.0,
			"-0.024": 0.0,
			"-0.023": 0.0,
			"-0.022": 0.0,
			"-0.021": 0.0,
			"-0.02": 0.0,
			"-0.019": 0.0,
			"-0.018": 0.00904728983404,
			"-0.017": 0.476388825886,
			"-0.016": 0.779675042492,
			"-0.015": 0.587940576184,
			"-0.014": 0.780201277973,
			"-0.013": 0.287997123917,
			"-0.012": 0.816109335611,
			"-0.011": 1.50793527409,
			"-0.01": 1.21004686818,
			"-0.009": 0.923166723562,
			"-0.008": 3.07663196937,
			"-0.007": 3.74827420233,
			"-0.006": 5.60383366468,
			"-0.005": 4.48501319093,
			"-0.004": 4.44938804478,
			"-0.003": 4.43024788133,
			"-0.002": 10.8861121265,
			"-0.001": 14.7993572457,
			"0.0": 13.0395686672,
			"0.001": 13.9615407831,
			"0.002": 16.9129054327,
			"0.003": 29.4246626119,
			"0.004": 13.0368968029,
			"0.005": 1.07752171898,
			"0.006": 1.34398646333,
			"0.007": 1.40599159168,
			"0.008": 1.32298168021,
			"0.009": 1.78949116563,
			"0.01": 1.7753196344,
			"0.011": 0.688208165562,
			"0.012": 0.0,
			"0.013": 0.0,
			"0.014": 0.0,
			"0.015": 0.0,
			"0.016": 0.0,
			"0.017": 0.0,
			"0.018": 0.0,
			"0.019": 0.0,
			"0.02": 0.0,
			"0.021": 0.0,
			"0.022": 0.0,
			"0.023": 0.0,
			"0.024": 0.0,
			"0.025": 0.0
		}
	}
}
