{
	 "smiles": "NNC(=O)NC1=CC=CC=C1", 
	 "Tm": 399.15, 
	 "num_atms": 20, 
	 "gaussian": { 
		 "optdone": 1, 
		 "sigma_profile": "yes", 
		 "theory": "DFT", 
		 "functional": "B3LYP", 
		 "basiset": "6-31G**", 
		 "properties": { 
			 "R2extent": 2437.1006, 
			 "electric_dipole_moment_norm": 2.48586042448, 
			 "electric_quadrupole_moment_norm": 5.26299782823, 
			 "total_energy": -511.638374557, 
			 "HOMO_LUMO_gap": 0.21502, 
			 "cosmo_polarized_energy": -15.16, 
			 "cosmo_cavitation_energy": 24.15, 
			 "cosmo_dispersion_energy": -18.21, 
			 "cosmo_repulsion_energy": 1.47, 
			 "cosmo_total_nonelectrostatic_energy": 7.41, 
			 "SMD_solvation_energy": 5.22 
		},
		"coords": [
			{
				"x": 0.6214931177,
				"y": -0.3924411747,
				"z": 3.6255743756,
				"element": "N" 
			},
			{
				"x": 1.0036329317,
				"y": -0.7363624899,
				"z": 2.3066271867,
				"element": "N" 
			},
			{
				"x": 0.0340400996,
				"y": -0.6325404012,
				"z": 1.3040839133,
				"element": "C" 
			},
			{
				"x": -1.1416532053,
				"y": -0.4068139133,
				"z": 1.5603994585,
				"element": "O" 
			},
			{
				"x": 0.5596797261,
				"y": -0.829068295,
				"z": 0.0414138128,
				"element": "N" 
			},
			{
				"x": -0.1037223706,
				"y": -0.7733655066,
				"z": -1.2021966066,
				"element": "C" 
			},
			{
				"x": -1.4533127143,
				"y": -0.414753065,
				"z": -1.3426261795,
				"element": "C" 
			},
			{
				"x": -2.0198777801,
				"y": -0.3740086139,
				"z": -2.61686255,
				"element": "C" 
			},
			{
				"x": -1.2738104194,
				"y": -0.6834474183,
				"z": -3.7548429756,
				"element": "C" 
			},
			{
				"x": 0.0677290602,
				"y": -1.0408392844,
				"z": -3.6092533547,
				"element": "C" 
			},
			{
				"x": 0.6498895804,
				"y": -1.0850693138,
				"z": -2.3454115419,
				"element": "C" 
			},
			{
				"x": 0.2463877548,
				"y": -1.2358213092,
				"z": 4.0559462642,
				"element": "H" 
			},
			{
				"x": -0.1684884598,
				"y": 0.2514109968,
				"z": 3.5535151862,
				"element": "H" 
			},
			{
				"x": 1.9229149762,
				"y": -0.3763646229,
				"z": 2.0808014374,
				"element": "H" 
			},
			{
				"x": 1.5093830493,
				"y": -1.1717291765,
				"z": 0.0038729311,
				"element": "H" 
			},
			{
				"x": -2.0362554389,
				"y": -0.1843084069,
				"z": -0.4623127689,
				"element": "H" 
			},
			{
				"x": -3.0657856727,
				"y": -0.0963953567,
				"z": -2.7142126682,
				"element": "H" 
			},
			{
				"x": -1.7297075251,
				"y": -0.6482738315,
				"z": -4.7394511146,
				"element": "H" 
			},
			{
				"x": 0.6678615516,
				"y": -1.2864753129,
				"z": -4.4807491117,
				"element": "H" 
			},
			{
				"x": 1.6972017387,
				"y": -1.3616335041,
				"z": -2.2411156941,
				"element": "H" 
			}
		],
		 "valence_orbital": [ 
			{
				"type": "occ",
				"energy": -0.2891,
				"method": "rhf"
			},
			{
				"type": "occ",
				"energy": -0.27183,
				"method": "rhf"
			},
			{
				"type": "occ",
				"energy": -0.25825,
				"method": "rhf"
			},
			{
				"type": "occ",
				"energy": -0.24868,
				"method": "rhf"
			},
			{
				"type": "occ",
				"energy": -0.21588,
				"method": "rhf"
			},
			{
				"type": "unocc",
				"energy": -0.00086,
				"method": "rhf"
			},
			{
				"type": "unocc",
				"energy": 0.00077,
				"method": "rhf"
			},
			{
				"type": "unocc",
				"energy": 0.05353,
				"method": "rhf"
			},
			{
				"type": "unocc",
				"energy": 0.06303,
				"method": "rhf"
			},
			{
				"type": "unocc",
				"energy": 0.09024,
				"method": "rhf"
			}
		],
		"cosmo_sigma_profile": { 
			"-0.025": 0.0,
			"-0.024": 0.0,
			"-0.023": 0.0,
			"-0.022": 0.0,
			"-0.021": 0.0,
			"-0.02": 0.0,
			"-0.019": 0.0,
			"-0.018": 0.0,
			"-0.017": 0.133175019564,
			"-0.016": 1.46554866239,
			"-0.015": 1.90942022834,
			"-0.014": 2.10623996674,
			"-0.013": 2.39770917755,
			"-0.012": 1.77078241719,
			"-0.011": 3.15733624314,
			"-0.01": 2.81602043906,
			"-0.009": 4.2327559893,
			"-0.008": 5.23310528735,
			"-0.007": 3.80871794331,
			"-0.006": 4.88467223562,
			"-0.005": 10.2277833398,
			"-0.004": 12.0065781003,
			"-0.003": 13.4138684194,
			"-0.002": 9.71529849543,
			"-0.001": 8.37173055904,
			"0.0": 8.86723370831,
			"0.001": 10.2027881018,
			"0.002": 12.064074374,
			"0.003": 13.1593235932,
			"0.004": 12.6441928143,
			"0.005": 12.6508071337,
			"0.006": 11.5874485062,
			"0.007": 3.86749930747,
			"0.008": 2.98113591136,
			"0.009": 2.0278392961,
			"0.01": 2.50193454145,
			"0.011": 2.251164539,
			"0.012": 3.30022200026,
			"0.013": 3.65256216584,
			"0.014": 0.674850892742,
			"0.015": 0.527305212133,
			"0.016": 0.65828312169,
			"0.017": 0.454083497936,
			"0.018": 0.0,
			"0.019": 0.0,
			"0.02": 0.0,
			"0.021": 0.0,
			"0.022": 0.0,
			"0.023": 0.0,
			"0.024": 0.0,
			"0.025": 0.0
		}
	}
}
