{
	 "smiles": "ClC1=CC=C2N=C(N=N(=O)C2=C1)N1C=CN=C1", 
	 "Tm": 455.15, 
	 "num_atms": 23, 
	 "gaussian": { 
		 "optdone": 1, 
		 "sigma_profile": "yes", 
		 "theory": "DFT", 
		 "functional": "B3LYP", 
		 "basiset": "6-31G**", 
		 "properties": { 
			 "R2extent": 5858.1938, 
			 "electric_dipole_moment_norm": 3.42043834325, 
			 "electric_quadrupole_moment_norm": 14.5439961836, 
			 "total_energy": -1193.76311738, 
			 "HOMO_LUMO_gap": 0.12436, 
			 "cosmo_polarized_energy": -12.88, 
			 "cosmo_cavitation_energy": 30.72, 
			 "cosmo_dispersion_energy": -23.02, 
			 "cosmo_repulsion_energy": 1.73, 
			 "cosmo_total_nonelectrostatic_energy": 9.43, 
			 "SMD_solvation_energy": 3.3 
		},
		"coords": [
			{
				"x": 1.3686290591,
				"y": 5.3716175616,
				"z": 1.3621802234,
				"element": "Cl" 
			},
			{
				"x": 0.6748369139,
				"y": 3.813201246,
				"z": 0.9780029263,
				"element": "C" 
			},
			{
				"x": -0.4048165153,
				"y": 3.336050702,
				"z": 1.7612261265,
				"element": "C" 
			},
			{
				"x": -0.9758579699,
				"y": 2.1130213066,
				"z": 1.4873356862,
				"element": "C" 
			},
			{
				"x": -0.4908616673,
				"y": 1.3167255961,
				"z": 0.4190262484,
				"element": "C" 
			},
			{
				"x": -1.0486470528,
				"y": 0.1091584987,
				"z": 0.1425558927,
				"element": "N" 
			},
			{
				"x": -0.5058973664,
				"y": -0.5283383042,
				"z": -0.8728733181,
				"element": "C" 
			},
			{
				"x": 0.5242580762,
				"y": -0.1391525747,
				"z": -1.6671737868,
				"element": "N" 
			},
			{
				"x": 1.0689682351,
				"y": 1.0361816447,
				"z": -1.4003061401,
				"element": "N" 
			},
			{
				"x": 2.0134228889,
				"y": 1.4360603681,
				"z": -2.097027989,
				"element": "O" 
			},
			{
				"x": 0.5880534083,
				"y": 1.8313905901,
				"z": -0.3369254975,
				"element": "C" 
			},
			{
				"x": 1.1815659153,
				"y": 3.0758564661,
				"z": -0.0711490258,
				"element": "C" 
			},
			{
				"x": -1.0305422652,
				"y": -1.7763509788,
				"z": -1.2122280114,
				"element": "N" 
			},
			{
				"x": -0.6148414415,
				"y": -2.6208043429,
				"z": -2.2422392154,
				"element": "C" 
			},
			{
				"x": -1.4335285265,
				"y": -3.708532827,
				"z": -2.1625422938,
				"element": "C" 
			},
			{
				"x": -2.3439614299,
				"y": -3.5756054333,
				"z": -1.122573535,
				"element": "N" 
			},
			{
				"x": -2.0827599677,
				"y": -2.4202437318,
				"z": -0.5754190361,
				"element": "C" 
			},
			{
				"x": -0.7742827332,
				"y": 3.9464780872,
				"z": 2.5777979745,
				"element": "H" 
			},
			{
				"x": -1.8028054722,
				"y": 1.7289536229,
				"z": 2.0741001596,
				"element": "H" 
			},
			{
				"x": 2.0049255877,
				"y": 3.4177407028,
				"z": -0.6841263573,
				"element": "H" 
			},
			{
				"x": 0.1977906659,
				"y": -2.3499495748,
				"z": -2.8944419979,
				"element": "H" 
			},
			{
				"x": -1.427417063,
				"y": -4.5874597402,
				"z": -2.7915857304,
				"element": "H" 
			},
			{
				"x": -2.5847312795,
				"y": -1.968498885,
				"z": 0.266086697,
				"element": "H" 
			}
		],
		 "valence_orbital": [ 
			{
				"type": "occ",
				"energy": -0.30335,
				"method": "rhf"
			},
			{
				"type": "occ",
				"energy": -0.29193,
				"method": "rhf"
			},
			{
				"type": "occ",
				"energy": -0.27618,
				"method": "rhf"
			},
			{
				"type": "occ",
				"energy": -0.25626,
				"method": "rhf"
			},
			{
				"type": "occ",
				"energy": -0.23836,
				"method": "rhf"
			},
			{
				"type": "unocc",
				"energy": -0.114,
				"method": "rhf"
			},
			{
				"type": "unocc",
				"energy": -0.06951,
				"method": "rhf"
			},
			{
				"type": "unocc",
				"energy": -0.03146,
				"method": "rhf"
			},
			{
				"type": "unocc",
				"energy": 0.00064,
				"method": "rhf"
			},
			{
				"type": "unocc",
				"energy": 0.00432,
				"method": "rhf"
			}
		],
		"cosmo_sigma_profile": { 
			"-0.025": 0.0,
			"-0.024": 0.0,
			"-0.023": 0.0,
			"-0.022": 0.0,
			"-0.021": 0.0,
			"-0.02": 0.0,
			"-0.019": 0.0,
			"-0.018": 0.0,
			"-0.017": 0.0,
			"-0.016": 0.0,
			"-0.015": 0.0,
			"-0.014": 0.0,
			"-0.013": 0.0,
			"-0.012": 0.0,
			"-0.011": 0.00594641891437,
			"-0.01": 0.778810039271,
			"-0.009": 5.18108744145,
			"-0.008": 8.86825133743,
			"-0.007": 10.7420955506,
			"-0.006": 11.1488352927,
			"-0.005": 11.2938839854,
			"-0.004": 13.8432449604,
			"-0.003": 18.3636421505,
			"-0.002": 21.5120179267,
			"-0.001": 27.2051537578,
			"0.0": 21.3579993093,
			"0.001": 15.6071587052,
			"0.002": 14.5694424589,
			"0.003": 17.1415421258,
			"0.004": 13.2491583611,
			"0.005": 5.42610639085,
			"0.006": 4.98244622033,
			"0.007": 5.77685600082,
			"0.008": 7.25427331773,
			"0.009": 5.41780801714,
			"0.01": 3.37763666717,
			"0.011": 2.59693565168,
			"0.012": 1.0987268975,
			"0.013": 1.21273952226,
			"0.014": 1.20946870167,
			"0.015": 0.946865120124,
			"0.016": 0.959625927521,
			"0.017": 0.743446243846,
			"0.018": 0.0,
			"0.019": 0.0,
			"0.02": 0.0,
			"0.021": 0.0,
			"0.022": 0.0,
			"0.023": 0.0,
			"0.024": 0.0,
			"0.025": 0.0
		}
	}
}
