{
	 "smiles": "FC(F)(F)OC1=CC=C(CC#N)C=C1", 
	 "Tm": 302.15, 
	 "num_atms": 20, 
	 "gaussian": { 
		 "optdone": 1, 
		 "sigma_profile": "yes", 
		 "theory": "DFT", 
		 "functional": "B3LYP", 
		 "basiset": "6-31G**", 
		 "properties": { 
			 "R2extent": 4967.14, 
			 "electric_dipole_moment_norm": 2.95265394688, 
			 "electric_quadrupole_moment_norm": 16.3366708454, 
			 "total_energy": -776.053415936, 
			 "HOMO_LUMO_gap": 0.22638, 
			 "cosmo_polarized_energy": -10.08, 
			 "cosmo_cavitation_energy": 27.14, 
			 "cosmo_dispersion_energy": -18.95, 
			 "cosmo_repulsion_energy": 1.43, 
			 "cosmo_total_nonelectrostatic_energy": 9.62, 
			 "SMD_solvation_energy": 7.47 
		},
		"coords": [
			{
				"x": -0.4435359554,
				"y": -2.6329297444,
				"z": -4.4608531075,
				"element": "F" 
			},
			{
				"x": -0.815118895,
				"y": -3.1835334908,
				"z": -3.2844982208,
				"element": "C" 
			},
			{
				"x": -2.1165371818,
				"y": -2.8945944472,
				"z": -3.1046365127,
				"element": "F" 
			},
			{
				"x": -0.675740531,
				"y": -4.5036470576,
				"z": -3.3818450097,
				"element": "F" 
			},
			{
				"x": -0.0431087486,
				"y": -2.7686126959,
				"z": -2.2500530002,
				"element": "O" 
			},
			{
				"x": -0.1017959143,
				"y": -1.4501510395,
				"z": -1.7935391556,
				"element": "C" 
			},
			{
				"x": -0.5773851838,
				"y": -0.3754625947,
				"z": -2.5451654153,
				"element": "C" 
			},
			{
				"x": -0.5540554499,
				"y": 0.898713289,
				"z": -1.9788189216,
				"element": "C" 
			},
			{
				"x": -0.0621337864,
				"y": 1.115353139,
				"z": -0.6879008331,
				"element": "C" 
			},
			{
				"x": -0.1025337023,
				"y": 2.5253853758,
				"z": -0.1089824491,
				"element": "C" 
			},
			{
				"x": 0.8121639499,
				"y": 2.7444662501,
				"z": 1.01445333,
				"element": "C" 
			},
			{
				"x": 1.5305085035,
				"y": 2.9088631906,
				"z": 1.9108208182,
				"element": "N" 
			},
			{
				"x": 0.4183441279,
				"y": 0.0222115735,
				"z": 0.0400116938,
				"element": "C" 
			},
			{
				"x": 0.3974301731,
				"y": -1.2583659418,
				"z": -0.5074842668,
				"element": "C" 
			},
			{
				"x": -0.9467217172,
				"y": -0.5145746924,
				"z": -3.552478453,
				"element": "H" 
			},
			{
				"x": -0.9234844463,
				"y": 1.7365691386,
				"z": -2.5645792647,
				"element": "H" 
			},
			{
				"x": -1.1171939359,
				"y": 2.7643283774,
				"z": 0.2380760945,
				"element": "H" 
			},
			{
				"x": 0.1341390695,
				"y": 3.2591332178,
				"z": -0.8883646554,
				"element": "H" 
			},
			{
				"x": 0.8166947175,
				"y": 0.1678969822,
				"z": 1.039322833,
				"element": "H" 
			},
			{
				"x": 0.7657649065,
				"y": -2.1134488296,
				"z": 0.0486144963,
				"element": "H" 
			}
		],
		 "valence_orbital": [ 
			{
				"type": "occ",
				"energy": -0.35721,
				"method": "rhf"
			},
			{
				"type": "occ",
				"energy": -0.33427,
				"method": "rhf"
			},
			{
				"type": "occ",
				"energy": -0.3324,
				"method": "rhf"
			},
			{
				"type": "occ",
				"energy": -0.27652,
				"method": "rhf"
			},
			{
				"type": "occ",
				"energy": -0.25581,
				"method": "rhf"
			},
			{
				"type": "unocc",
				"energy": -0.02943,
				"method": "rhf"
			},
			{
				"type": "unocc",
				"energy": -0.02155,
				"method": "rhf"
			},
			{
				"type": "unocc",
				"energy": 0.02334,
				"method": "rhf"
			},
			{
				"type": "unocc",
				"energy": 0.03403,
				"method": "rhf"
			},
			{
				"type": "unocc",
				"energy": 0.08046,
				"method": "rhf"
			}
		],
		"cosmo_sigma_profile": { 
			"-0.025": 0.0,
			"-0.024": 0.0,
			"-0.023": 0.0,
			"-0.022": 0.0,
			"-0.021": 0.0,
			"-0.02": 0.0,
			"-0.019": 0.0,
			"-0.018": 0.0,
			"-0.017": 0.0,
			"-0.016": 0.0,
			"-0.015": 0.0,
			"-0.014": 0.0,
			"-0.013": 0.0,
			"-0.012": 0.0,
			"-0.011": 0.0,
			"-0.01": 0.138842800513,
			"-0.009": 5.32079814901,
			"-0.008": 6.95230018359,
			"-0.007": 11.1289409184,
			"-0.006": 11.7343133511,
			"-0.005": 10.4132293308,
			"-0.004": 8.80067807778,
			"-0.003": 8.3549938502,
			"-0.002": 10.4151675543,
			"-0.001": 13.9446154757,
			"0.0": 18.248017646,
			"0.001": 28.5846482924,
			"0.002": 36.7494392376,
			"0.003": 16.3899242608,
			"0.004": 6.5411487809,
			"0.005": 3.38640570829,
			"0.006": 3.47686666803,
			"0.007": 2.26912028442,
			"0.008": 3.00924950679,
			"0.009": 3.38153087732,
			"0.01": 2.8590937065,
			"0.011": 2.9288033635,
			"0.012": 2.35875110029,
			"0.013": 1.5959151984,
			"0.014": 0.0973993454056,
			"0.015": 0.0,
			"0.016": 0.0,
			"0.017": 0.0,
			"0.018": 0.0,
			"0.019": 0.0,
			"0.02": 0.0,
			"0.021": 0.0,
			"0.022": 0.0,
			"0.023": 0.0,
			"0.024": 0.0,
			"0.025": 0.0
		}
	}
}
