{
	 "smiles": "CC1=CC(C)=C2C(SC(C(N)=O)=C2N)=N1", 
	 "Tm": 507.15, 
	 "num_atms": 26, 
	 "gaussian": { 
		 "optdone": 1, 
		 "sigma_profile": "yes", 
		 "theory": "DFT", 
		 "functional": "B3LYP", 
		 "basiset": "6-31G**", 
		 "properties": { 
			 "R2extent": 4039.3064, 
			 "electric_dipole_moment_norm": 2.43587513022, 
			 "electric_quadrupole_moment_norm": 16.2465398024, 
			 "total_energy": -1025.40240089, 
			 "HOMO_LUMO_gap": 0.14629, 
			 "cosmo_polarized_energy": -15.85, 
			 "cosmo_cavitation_energy": 30.52, 
			 "cosmo_dispersion_energy": -23.53, 
			 "cosmo_repulsion_energy": 1.78, 
			 "cosmo_total_nonelectrostatic_energy": 8.78, 
			 "SMD_solvation_energy": 3.64 
		},
		"coords": [
			{
				"x": -2.9986098913,
				"y": -1.3634445609,
				"z": 3.2716987316,
				"element": "C" 
			},
			{
				"x": -2.057486223,
				"y": -0.8174904112,
				"z": 2.2283801238,
				"element": "C" 
			},
			{
				"x": -2.5238673872,
				"y": -0.423878857,
				"z": 0.9590160686,
				"element": "C" 
			},
			{
				"x": -1.6575557108,
				"y": 0.0495209651,
				"z": -0.023268377,
				"element": "C" 
			},
			{
				"x": -2.2012344721,
				"y": 0.47116759,
				"z": -1.3667866369,
				"element": "C" 
			},
			{
				"x": -0.2852711316,
				"y": 0.1161843738,
				"z": 0.3157371738,
				"element": "C" 
			},
			{
				"x": 0.0644604996,
				"y": -0.2880283866,
				"z": 1.6279814019,
				"element": "C" 
			},
			{
				"x": 1.7806815321,
				"y": -0.1148717085,
				"z": 1.9466855222,
				"element": "S" 
			},
			{
				"x": 2.0437609127,
				"y": 0.4999868304,
				"z": 0.3049386297,
				"element": "C" 
			},
			{
				"x": 3.3618461019,
				"y": 0.8572999161,
				"z": -0.2189353219,
				"element": "C" 
			},
			{
				"x": 4.4347032093,
				"y": 0.7535681339,
				"z": 0.6312709598,
				"element": "N" 
			},
			{
				"x": 3.5280693184,
				"y": 1.2121785589,
				"z": -1.3969584584,
				"element": "O" 
			},
			{
				"x": 0.8734527774,
				"y": 0.5617231863,
				"z": -0.4397740702,
				"element": "C" 
			},
			{
				"x": 0.8253657157,
				"y": 1.0495761342,
				"z": -1.7227873929,
				"element": "N" 
			},
			{
				"x": -0.7644248921,
				"y": -0.7415591325,
				"z": 2.5642279009,
				"element": "N" 
			},
			{
				"x": -2.6562991978,
				"y": -1.0814869385,
				"z": 4.2698643053,
				"element": "H" 
			},
			{
				"x": -4.0203784795,
				"y": -1.0031943593,
				"z": 3.1234444937,
				"element": "H" 
			},
			{
				"x": -3.0218523469,
				"y": -2.4595044417,
				"z": 3.2309174008,
				"element": "H" 
			},
			{
				"x": -3.5869238996,
				"y": -0.4866733019,
				"z": 0.7451586441,
				"element": "H" 
			},
			{
				"x": -3.2937386477,
				"y": 0.4809819206,
				"z": -1.354143037,
				"element": "H" 
			},
			{
				"x": -1.8527049215,
				"y": 1.4702696427,
				"z": -1.6450021478,
				"element": "H" 
			},
			{
				"x": -1.8944340034,
				"y": -0.2238186076,
				"z": -2.1592263464,
				"element": "H" 
			},
			{
				"x": 4.3137393388,
				"y": 0.7224258616,
				"z": 1.6318095867,
				"element": "H" 
			},
			{
				"x": 5.305542455,
				"y": 1.1230030535,
				"z": 0.2800695523,
				"element": "H" 
			},
			{
				"x": 1.7546825021,
				"y": 1.1864473076,
				"z": -2.1185883538,
				"element": "H" 
			},
			{
				"x": 0.1246768417,
				"y": 0.668417231,
				"z": -2.3375303526,
				"element": "H" 
			}
		],
		 "valence_orbital": [ 
			{
				"type": "occ",
				"energy": -0.26765,
				"method": "rhf"
			},
			{
				"type": "occ",
				"energy": -0.26449,
				"method": "rhf"
			},
			{
				"type": "occ",
				"energy": -0.25152,
				"method": "rhf"
			},
			{
				"type": "occ",
				"energy": -0.24075,
				"method": "rhf"
			},
			{
				"type": "occ",
				"energy": -0.19634,
				"method": "rhf"
			},
			{
				"type": "unocc",
				"energy": -0.05005,
				"method": "rhf"
			},
			{
				"type": "unocc",
				"energy": -0.01692,
				"method": "rhf"
			},
			{
				"type": "unocc",
				"energy": 0.01672,
				"method": "rhf"
			},
			{
				"type": "unocc",
				"energy": 0.02295,
				"method": "rhf"
			},
			{
				"type": "unocc",
				"energy": 0.07533,
				"method": "rhf"
			}
		],
		"cosmo_sigma_profile": { 
			"-0.025": 0.0,
			"-0.024": 0.0,
			"-0.023": 0.0,
			"-0.022": 0.0,
			"-0.021": 0.0,
			"-0.02": 0.0,
			"-0.019": 0.0,
			"-0.018": 0.0,
			"-0.017": 0.0,
			"-0.016": 0.0,
			"-0.015": 0.0,
			"-0.014": 0.974225429675,
			"-0.013": 2.06379838543,
			"-0.012": 3.65601333142,
			"-0.011": 4.10949484716,
			"-0.01": 3.70625334146,
			"-0.009": 3.08939698673,
			"-0.008": 4.79451845122,
			"-0.007": 5.17734886756,
			"-0.006": 8.52432869498,
			"-0.005": 12.7661757342,
			"-0.004": 13.4403301808,
			"-0.003": 14.6357367666,
			"-0.002": 16.1520331609,
			"-0.001": 20.3340001973,
			"0.0": 17.2527823276,
			"0.001": 22.1159169787,
			"0.002": 20.6648324059,
			"0.003": 15.6593722573,
			"0.004": 11.9287171762,
			"0.005": 9.87095138113,
			"0.006": 6.51875732962,
			"0.007": 4.73983032664,
			"0.008": 3.75436103469,
			"0.009": 3.48759586237,
			"0.01": 2.7342826307,
			"0.011": 2.47068871546,
			"0.012": 3.00437812346,
			"0.013": 3.36906444759,
			"0.014": 3.00709463833,
			"0.015": 0.722508282992,
			"0.016": 0.0,
			"0.017": 0.0,
			"0.018": 0.0,
			"0.019": 0.0,
			"0.02": 0.0,
			"0.021": 0.0,
			"0.022": 0.0,
			"0.023": 0.0,
			"0.024": 0.0,
			"0.025": 0.0
		}
	}
}
