{
	 "smiles": "COC1=C(NCC(O)=O)C=CC=C1", 
	 "Tm": 433.15, 
	 "num_atms": 24, 
	 "gaussian": { 
		 "optdone": 1, 
		 "sigma_profile": "yes", 
		 "theory": "DFT", 
		 "functional": "B3LYP", 
		 "basiset": "6-31G**", 
		 "properties": { 
			 "R2extent": 3679.0, 
			 "electric_dipole_moment_norm": 6.46585981676, 
			 "electric_quadrupole_moment_norm": 17.3170640413, 
			 "total_energy": -630.007674033, 
			 "HOMO_LUMO_gap": 0.20833, 
			 "cosmo_polarized_energy": -14.94, 
			 "cosmo_cavitation_energy": 27.67, 
			 "cosmo_dispersion_energy": -20.29, 
			 "cosmo_repulsion_energy": 1.63, 
			 "cosmo_total_nonelectrostatic_energy": 9.0, 
			 "SMD_solvation_energy": 6.46 
		},
		"coords": [
			{
				"x": 0.4538697316,
				"y": 0.0556867183,
				"z": 3.0542335895,
				"element": "C" 
			},
			{
				"x": 0.1215235748,
				"y": 0.555027492,
				"z": 1.7678054784,
				"element": "O" 
			},
			{
				"x": 1.1442140491,
				"y": 0.9473639255,
				"z": 0.9386050945,
				"element": "C" 
			},
			{
				"x": 0.719807304,
				"y": 1.4717962887,
				"z": -0.3056038606,
				"element": "C" 
			},
			{
				"x": -0.6658497921,
				"y": 1.4922039561,
				"z": -0.5776781002,
				"element": "N" 
			},
			{
				"x": -1.2087694093,
				"y": 2.4991053138,
				"z": -1.483241219,
				"element": "C" 
			},
			{
				"x": -1.3265882076,
				"y": 1.9889580284,
				"z": -2.9303458859,
				"element": "C" 
			},
			{
				"x": -1.1925183217,
				"y": 0.6580661483,
				"z": -3.0510757005,
				"element": "O" 
			},
			{
				"x": -1.5485633785,
				"y": 2.7214887335,
				"z": -3.8636236267,
				"element": "O" 
			},
			{
				"x": 1.6832840099,
				"y": 1.9054595309,
				"z": -1.2179336133,
				"element": "C" 
			},
			{
				"x": 3.0451861634,
				"y": 1.8269630655,
				"z": -0.9053751679,
				"element": "C" 
			},
			{
				"x": 3.4529693846,
				"y": 1.3111860788,
				"z": 0.3190590521,
				"element": "C" 
			},
			{
				"x": 2.4995052249,
				"y": 0.8694339306,
				"z": 1.2458401578,
				"element": "C" 
			},
			{
				"x": -0.4930952112,
				"y": -0.1778135936,
				"z": 3.5431596327,
				"element": "H" 
			},
			{
				"x": 1.0596325123,
				"y": -0.8563824276,
				"z": 2.9855594739,
				"element": "H" 
			},
			{
				"x": 0.9947888191,
				"y": 0.8031646013,
				"z": 3.6481234172,
				"element": "H" 
			},
			{
				"x": -1.2014421185,
				"y": 1.3593336195,
				"z": 0.2708316417,
				"element": "H" 
			},
			{
				"x": -0.6243619965,
				"y": 3.4261319824,
				"z": -1.4969784318,
				"element": "H" 
			},
			{
				"x": -2.2215704097,
				"y": 2.7600402397,
				"z": -1.1596300683,
				"element": "H" 
			},
			{
				"x": -0.9977654907,
				"y": 0.3284916515,
				"z": -2.1471491786,
				"element": "H" 
			},
			{
				"x": 1.3771741844,
				"y": 2.2990955936,
				"z": -2.1817372078,
				"element": "H" 
			},
			{
				"x": 3.778046037,
				"y": 2.1689043767,
				"z": -1.6293043421,
				"element": "H" 
			},
			{
				"x": 4.507796326,
				"y": 1.2456499222,
				"z": 0.5663846154,
				"element": "H" 
			},
			{
				"x": 2.8224270147,
				"y": 0.4720448238,
				"z": 2.2009742495,
				"element": "H" 
			}
		],
		 "valence_orbital": [ 
			{
				"type": "occ",
				"energy": -0.31951,
				"method": "rhf"
			},
			{
				"type": "occ",
				"energy": -0.30246,
				"method": "rhf"
			},
			{
				"type": "occ",
				"energy": -0.26114,
				"method": "rhf"
			},
			{
				"type": "occ",
				"energy": -0.24269,
				"method": "rhf"
			},
			{
				"type": "occ",
				"energy": -0.20991,
				"method": "rhf"
			},
			{
				"type": "unocc",
				"energy": -0.00158,
				"method": "rhf"
			},
			{
				"type": "unocc",
				"energy": 0.00526,
				"method": "rhf"
			},
			{
				"type": "unocc",
				"energy": 0.01843,
				"method": "rhf"
			},
			{
				"type": "unocc",
				"energy": 0.07347,
				"method": "rhf"
			},
			{
				"type": "unocc",
				"energy": 0.08404,
				"method": "rhf"
			}
		],
		"cosmo_sigma_profile": { 
			"-0.025": 0.0,
			"-0.024": 0.0,
			"-0.023": 0.0,
			"-0.022": 0.0,
			"-0.021": 0.0,
			"-0.02": 0.0,
			"-0.019": 0.0,
			"-0.018": 0.0,
			"-0.017": 0.0,
			"-0.016": 0.0,
			"-0.015": 0.0,
			"-0.014": 0.0,
			"-0.013": 0.0888678298265,
			"-0.012": 1.58488417409,
			"-0.011": 1.31907742348,
			"-0.01": 2.07017813763,
			"-0.009": 3.55750339229,
			"-0.008": 4.76442412098,
			"-0.007": 5.27285274418,
			"-0.006": 13.8286038196,
			"-0.005": 22.1826684281,
			"-0.004": 20.2941357497,
			"-0.003": 19.9240965014,
			"-0.002": 13.0984580295,
			"-0.001": 9.53343972896,
			"0.0": 9.87108229989,
			"0.001": 9.24867665199,
			"0.002": 9.56940848868,
			"0.003": 11.6008906975,
			"0.004": 9.45817047011,
			"0.005": 11.1070112033,
			"0.006": 10.4874105423,
			"0.007": 5.72057350894,
			"0.008": 2.25693349763,
			"0.009": 3.99922435988,
			"0.01": 4.38460672227,
			"0.011": 4.77223144598,
			"0.012": 5.75825389585,
			"0.013": 3.46063460522,
			"0.014": 0.359924686756,
			"0.015": 0.0,
			"0.016": 0.0,
			"0.017": 0.0,
			"0.018": 0.0,
			"0.019": 0.0,
			"0.02": 0.0,
			"0.021": 0.0,
			"0.022": 0.0,
			"0.023": 0.0,
			"0.024": 0.0,
			"0.025": 0.0
		}
	}
}
