{
	 "smiles": "ClC(=C(Cl)C1=CC=CC=C1)C1=CC=CC=C1", 
	 "Tm": 417.15, 
	 "num_atms": 26, 
	 "gaussian": { 
		 "optdone": 1, 
		 "sigma_profile": "yes", 
		 "theory": "DFT", 
		 "functional": "B3LYP", 
		 "basiset": "6-31G**", 
		 "properties": { 
			 "R2extent": 5636.6447, 
			 "electric_dipole_moment_norm": 0.0, 
			 "electric_quadrupole_moment_norm": 16.085654107, 
			 "total_energy": -1459.88083987, 
			 "HOMO_LUMO_gap": 0.2157, 
			 "cosmo_polarized_energy": -6.97, 
			 "cosmo_cavitation_energy": 34.57, 
			 "cosmo_dispersion_energy": -23.59, 
			 "cosmo_repulsion_energy": 1.88, 
			 "cosmo_total_nonelectrostatic_energy": 12.86, 
			 "SMD_solvation_energy": 5.26 
		},
		"coords": [
			{
				"x": 0.9075389109,
				"y": 0.5828899466,
				"z": -0.8946056396,
				"element": "Cl" 
			},
			{
				"x": -0.2229327822,
				"y": -0.7673457661,
				"z": -1.0895552352,
				"element": "C" 
			},
			{
				"x": -0.9099709431,
				"y": -1.1819671485,
				"z": -0.0154938858,
				"element": "C" 
			},
			{
				"x": -2.0404558786,
				"y": -2.5321904223,
				"z": -0.2104487303,
				"element": "Cl" 
			},
			{
				"x": -0.8396976777,
				"y": -0.6329368593,
				"z": 1.3626151637,
				"element": "C" 
			},
			{
				"x": -1.7028722837,
				"y": 0.3983375949,
				"z": 1.7570506012,
				"element": "C" 
			},
			{
				"x": -1.6475738218,
				"y": 0.90075444,
				"z": 3.056707091,
				"element": "C" 
			},
			{
				"x": -0.7342944638,
				"y": 0.3753833281,
				"z": 3.9729302548,
				"element": "C" 
			},
			{
				"x": 0.1251301752,
				"y": -0.6547698637,
				"z": 3.5860020265,
				"element": "C" 
			},
			{
				"x": 0.0724739698,
				"y": -1.1595719861,
				"z": 2.2871575873,
				"element": "C" 
			},
			{
				"x": -0.2932112302,
				"y": -1.3163703047,
				"z": -2.4676670001,
				"element": "C" 
			},
			{
				"x": -1.2053973667,
				"y": -0.7897380875,
				"z": -3.3921990694,
				"element": "C" 
			},
			{
				"x": -1.2580585366,
				"y": -1.2945341807,
				"z": -4.6910450422,
				"element": "C" 
			},
			{
				"x": -0.3986270008,
				"y": -2.3246764489,
				"z": -5.0779860735,
				"element": "C" 
			},
			{
				"x": 0.5146656178,
				"y": -2.850043863,
				"z": -4.1617741697,
				"element": "C" 
			},
			{
				"x": 0.5699693946,
				"y": -2.3476328664,
				"z": -2.8621146376,
				"element": "C" 
			},
			{
				"x": -2.412222855,
				"y": 0.8044762894,
				"z": 1.0423612303,
				"element": "H" 
			},
			{
				"x": -2.3174408857,
				"y": 1.7026296558,
				"z": 3.3531337549,
				"element": "H" 
			},
			{
				"x": -0.6925487449,
				"y": 0.767344649,
				"z": 4.9850312122,
				"element": "H" 
			},
			{
				"x": 0.8376534869,
				"y": -1.0658510792,
				"z": 4.2951672836,
				"element": "H" 
			},
			{
				"x": 0.7392055717,
				"y": -1.9608539564,
				"z": 1.9833103766,
				"element": "H" 
			},
			{
				"x": -1.8721339338,
				"y": 0.0115347767,
				"z": -3.0883395193,
				"element": "H" 
			},
			{
				"x": -1.9705924268,
				"y": -0.8834552949,
				"z": -5.4002014342,
				"element": "H" 
			},
			{
				"x": -0.4403756742,
				"y": -2.7166331114,
				"z": -6.0900888392,
				"element": "H" 
			},
			{
				"x": 1.1845380581,
				"y": -3.6519100105,
				"z": -4.4582123593,
				"element": "H" 
			},
			{
				"x": 1.2793313206,
				"y": -2.7537694308,
				"z": -2.1474349467,
				"element": "H" 
			}
		],
		 "valence_orbital": [ 
			{
				"type": "occ",
				"energy": -0.25923,
				"method": "rhf"
			},
			{
				"type": "occ",
				"energy": -0.2571,
				"method": "rhf"
			},
			{
				"type": "occ",
				"energy": -0.25639,
				"method": "rhf"
			},
			{
				"type": "occ",
				"energy": -0.24794,
				"method": "rhf"
			},
			{
				"type": "occ",
				"energy": -0.24546,
				"method": "rhf"
			},
			{
				"type": "unocc",
				"energy": -0.02976,
				"method": "rhf"
			},
			{
				"type": "unocc",
				"energy": -0.01749,
				"method": "rhf"
			},
			{
				"type": "unocc",
				"energy": -0.0107,
				"method": "rhf"
			},
			{
				"type": "unocc",
				"energy": -0.00704,
				"method": "rhf"
			},
			{
				"type": "unocc",
				"energy": -0.00504,
				"method": "rhf"
			}
		],
		"cosmo_sigma_profile": { 
			"-0.025": 0.0,
			"-0.024": 0.0,
			"-0.023": 0.0,
			"-0.022": 0.0,
			"-0.021": 0.0,
			"-0.02": 0.0,
			"-0.019": 0.0,
			"-0.018": 0.0,
			"-0.017": 0.0,
			"-0.016": 0.0,
			"-0.015": 0.0,
			"-0.014": 0.0,
			"-0.013": 0.0,
			"-0.012": 0.0,
			"-0.011": 0.0,
			"-0.01": 0.0,
			"-0.009": 0.0,
			"-0.008": 0.0,
			"-0.007": 2.16202690735,
			"-0.006": 19.8363299321,
			"-0.005": 22.9456256917,
			"-0.004": 23.9111559514,
			"-0.003": 17.7560497213,
			"-0.002": 18.5990822635,
			"-0.001": 18.3934546797,
			"0.0": 19.5449985984,
			"0.001": 19.9106024191,
			"0.002": 21.3116451019,
			"0.003": 27.8960381014,
			"0.004": 41.4179059958,
			"0.005": 26.1931568353,
			"0.006": 2.19207794303,
			"0.007": 0.0,
			"0.008": 0.0,
			"0.009": 0.0,
			"0.01": 0.0,
			"0.011": 0.0,
			"0.012": 0.0,
			"0.013": 0.0,
			"0.014": 0.0,
			"0.015": 0.0,
			"0.016": 0.0,
			"0.017": 0.0,
			"0.018": 0.0,
			"0.019": 0.0,
			"0.02": 0.0,
			"0.021": 0.0,
			"0.022": 0.0,
			"0.023": 0.0,
			"0.024": 0.0,
			"0.025": 0.0
		}
	}
}
