{
	 "smiles": "OC1=C(OCC#C)C=CC=C1", 
	 "Tm": 322.15, 
	 "num_atms": 19, 
	 "gaussian": { 
		 "optdone": 1, 
		 "sigma_profile": "yes", 
		 "theory": "DFT", 
		 "functional": "B3LYP", 
		 "basiset": "6-31G**", 
		 "properties": { 
			 "R2extent": 2628.3315, 
			 "electric_dipole_moment_norm": 2.46679270511, 
			 "electric_quadrupole_moment_norm": 9.47809996782, 
			 "total_energy": -498.129741638, 
			 "HOMO_LUMO_gap": 0.21434, 
			 "cosmo_polarized_energy": -9.29, 
			 "cosmo_cavitation_energy": 24.26, 
			 "cosmo_dispersion_energy": -17.4, 
			 "cosmo_repulsion_energy": 1.39, 
			 "cosmo_total_nonelectrostatic_energy": 8.25, 
			 "SMD_solvation_energy": 6.15 
		},
		"coords": [
			{
				"x": -1.6315617219,
				"y": -2.4925864753,
				"z": 2.1754680534,
				"element": "O" 
			},
			{
				"x": -0.9786237465,
				"y": -1.2995214008,
				"z": 2.2316434222,
				"element": "C" 
			},
			{
				"x": -0.2212469322,
				"y": -0.852565076,
				"z": 1.1287201817,
				"element": "C" 
			},
			{
				"x": -0.2365287374,
				"y": -1.7314827982,
				"z": 0.0663451511,
				"element": "O" 
			},
			{
				"x": 0.4995616146,
				"y": -1.3726504527,
				"z": -1.1012328681,
				"element": "C" 
			},
			{
				"x": 0.3540880278,
				"y": -2.4273871601,
				"z": -2.0982450138,
				"element": "C" 
			},
			{
				"x": 0.2530684872,
				"y": -3.2820478869,
				"z": -2.9431859847,
				"element": "C" 
			},
			{
				"x": 0.4485711688,
				"y": 0.3664378773,
				"z": 1.1802201651,
				"element": "C" 
			},
			{
				"x": 0.3660638371,
				"y": 1.1509044026,
				"z": 2.3390059963,
				"element": "C" 
			},
			{
				"x": -0.3807789231,
				"y": 0.7120172961,
				"z": 3.4288229337,
				"element": "C" 
			},
			{
				"x": -1.0537418348,
				"y": -0.5131312657,
				"z": 3.376565764,
				"element": "C" 
			},
			{
				"x": -1.4527025536,
				"y": -2.877346609,
				"z": 1.3035645824,
				"element": "H" 
			},
			{
				"x": 1.5611455586,
				"y": -1.2339192566,
				"z": -0.8488253471,
				"element": "H" 
			},
			{
				"x": 0.1271371212,
				"y": -0.4184934162,
				"z": -1.5022343813,
				"element": "H" 
			},
			{
				"x": 0.1590146946,
				"y": -4.0416742372,
				"z": -3.6847180801,
				"element": "H" 
			},
			{
				"x": 1.0322526716,
				"y": 0.7152644933,
				"z": 0.3357138718,
				"element": "H" 
			},
			{
				"x": 0.8892511046,
				"y": 2.1011126668,
				"z": 2.3768557274,
				"element": "H" 
			},
			{
				"x": -0.4449316304,
				"y": 1.3192997275,
				"z": 4.3264774824,
				"element": "H" 
			},
			{
				"x": -1.6415382063,
				"y": -0.8749304288,
				"z": 4.2138383437,
				"element": "H" 
			}
		],
		 "valence_orbital": [ 
			{
				"type": "occ",
				"energy": -0.32299,
				"method": "rhf"
			},
			{
				"type": "occ",
				"energy": -0.29139,
				"method": "rhf"
			},
			{
				"type": "occ",
				"energy": -0.28072,
				"method": "rhf"
			},
			{
				"type": "occ",
				"energy": -0.23878,
				"method": "rhf"
			},
			{
				"type": "occ",
				"energy": -0.20723,
				"method": "rhf"
			},
			{
				"type": "unocc",
				"energy": 0.00711,
				"method": "rhf"
			},
			{
				"type": "unocc",
				"energy": 0.01511,
				"method": "rhf"
			},
			{
				"type": "unocc",
				"energy": 0.01524,
				"method": "rhf"
			},
			{
				"type": "unocc",
				"energy": 0.04358,
				"method": "rhf"
			},
			{
				"type": "unocc",
				"energy": 0.08266,
				"method": "rhf"
			}
		],
		"cosmo_sigma_profile": { 
			"-0.025": 0.0,
			"-0.024": 0.0,
			"-0.023": 0.0,
			"-0.022": 0.0,
			"-0.021": 0.0,
			"-0.02": 0.0,
			"-0.019": 0.0,
			"-0.018": 0.0,
			"-0.017": 0.0,
			"-0.016": 0.0,
			"-0.015": 0.0194352763288,
			"-0.014": 0.585225976069,
			"-0.013": 0.451534557752,
			"-0.012": 1.80009044157,
			"-0.011": 1.75315871834,
			"-0.01": 1.30432516876,
			"-0.009": 1.82887528113,
			"-0.008": 6.83895812766,
			"-0.007": 9.47333312982,
			"-0.006": 9.63374508943,
			"-0.005": 12.2591391604,
			"-0.004": 11.0418789178,
			"-0.003": 10.6782750032,
			"-0.002": 10.5477730706,
			"-0.001": 8.55190148541,
			"0.0": 9.59730348549,
			"0.001": 10.6165982783,
			"0.002": 13.4895372773,
			"0.003": 13.7010025868,
			"0.004": 15.4266152419,
			"0.005": 18.3356372404,
			"0.006": 16.2209646121,
			"0.007": 3.61072283705,
			"0.008": 1.38965339225,
			"0.009": 1.45628878502,
			"0.01": 1.44973874743,
			"0.011": 2.20691433835,
			"0.012": 0.914802737381,
			"0.013": 0.0,
			"0.014": 0.0,
			"0.015": 0.0,
			"0.016": 0.0,
			"0.017": 0.0,
			"0.018": 0.0,
			"0.019": 0.0,
			"0.02": 0.0,
			"0.021": 0.0,
			"0.022": 0.0,
			"0.023": 0.0,
			"0.024": 0.0,
			"0.025": 0.0
		}
	}
}
