{
	 "smiles": "[O-][N+](=O)C1=C(C#N)C(Cl)=CC=C1", 
	 "Tm": 394.15, 
	 "num_atms": 15, 
	 "gaussian": { 
		 "optdone": 1, 
		 "sigma_profile": "yes", 
		 "theory": "DFT", 
		 "functional": "B3LYP", 
		 "basiset": "6-31G**", 
		 "properties": { 
			 "R2extent": 3950.9256, 
			 "electric_dipole_moment_norm": 6.6881890845, 
			 "electric_quadrupole_moment_norm": 17.2452449066, 
			 "total_energy": -988.559083759, 
			 "HOMO_LUMO_gap": 0.16901, 
			 "cosmo_polarized_energy": -14.09, 
			 "cosmo_cavitation_energy": 23.31, 
			 "cosmo_dispersion_energy": -16.8, 
			 "cosmo_repulsion_energy": 1.33, 
			 "cosmo_total_nonelectrostatic_energy": 7.83, 
			 "SMD_solvation_energy": 7.01 
		},
		"coords": [
			{
				"x": -3.2418906473,
				"y": -4.3164314155,
				"z": -0.9267429558,
				"element": "O" 
			},
			{
				"x": -2.8999940518,
				"y": -3.5157911226,
				"z": -0.0588819628,
				"element": "N" 
			},
			{
				"x": -3.1393080609,
				"y": -3.6263373487,
				"z": 1.138042095,
				"element": "O" 
			},
			{
				"x": -2.1353894605,
				"y": -2.3289530996,
				"z": -0.50320762,
				"element": "C" 
			},
			{
				"x": -1.7781981362,
				"y": -1.3156410142,
				"z": 0.412354064,
				"element": "C" 
			},
			{
				"x": -2.1163203302,
				"y": -1.3240511576,
				"z": 1.804277726,
				"element": "C" 
			},
			{
				"x": -2.3306337796,
				"y": -1.2074206685,
				"z": 2.94094404,
				"element": "N" 
			},
			{
				"x": -1.0460425321,
				"y": -0.2222237324,
				"z": -0.1022807894,
				"element": "C" 
			},
			{
				"x": -0.5634856004,
				"y": 1.0798458293,
				"z": 0.9468710126,
				"element": "Cl" 
			},
			{
				"x": -0.6927784853,
				"y": -0.1546984277,
				"z": -1.45042281,
				"element": "C" 
			},
			{
				"x": -1.0652994495,
				"y": -1.1766998216,
				"z": -2.3192335284,
				"element": "C" 
			},
			{
				"x": -1.7904937292,
				"y": -2.2681279301,
				"z": -1.8477213995,
				"element": "C" 
			},
			{
				"x": -0.129127776,
				"y": 0.7004220074,
				"z": -1.8053742893,
				"element": "H" 
			},
			{
				"x": -0.7896113607,
				"y": -1.1222942043,
				"z": -3.3670402629,
				"element": "H" 
			},
			{
				"x": -2.0971266002,
				"y": -3.0770978938,
				"z": -2.4973833196,
				"element": "H" 
			}
		],
		 "valence_orbital": [ 
			{
				"type": "occ",
				"energy": -0.32988,
				"method": "rhf"
			},
			{
				"type": "occ",
				"energy": -0.32564,
				"method": "rhf"
			},
			{
				"type": "occ",
				"energy": -0.30774,
				"method": "rhf"
			},
			{
				"type": "occ",
				"energy": -0.30519,
				"method": "rhf"
			},
			{
				"type": "occ",
				"energy": -0.28795,
				"method": "rhf"
			},
			{
				"type": "unocc",
				"energy": -0.11894,
				"method": "rhf"
			},
			{
				"type": "unocc",
				"energy": -0.07699,
				"method": "rhf"
			},
			{
				"type": "unocc",
				"energy": -0.0313,
				"method": "rhf"
			},
			{
				"type": "unocc",
				"energy": -0.00472,
				"method": "rhf"
			},
			{
				"type": "unocc",
				"energy": 0.01994,
				"method": "rhf"
			}
		],
		"cosmo_sigma_profile": { 
			"-0.025": 0.0,
			"-0.024": 0.0,
			"-0.023": 0.0,
			"-0.022": 0.0,
			"-0.021": 0.0,
			"-0.02": 0.0,
			"-0.019": 0.0,
			"-0.018": 0.0,
			"-0.017": 0.0,
			"-0.016": 0.0,
			"-0.015": 0.0,
			"-0.014": 0.0,
			"-0.013": 0.0,
			"-0.012": 0.0,
			"-0.011": 0.0,
			"-0.01": 1.3819380858,
			"-0.009": 7.47761759128,
			"-0.008": 9.29215794993,
			"-0.007": 6.9516723289,
			"-0.006": 6.69221482102,
			"-0.005": 9.42554959345,
			"-0.004": 14.93367178,
			"-0.003": 15.5405136897,
			"-0.002": 16.4810399488,
			"-0.001": 13.688973877,
			"0.0": 8.06342721555,
			"0.001": 7.98551167091,
			"0.002": 10.6751662962,
			"0.003": 8.37936280514,
			"0.004": 6.16536301823,
			"0.005": 6.88545730564,
			"0.006": 8.66020252841,
			"0.007": 12.2168696215,
			"0.008": 8.78532796942,
			"0.009": 5.29697242246,
			"0.01": 2.64836860004,
			"0.011": 2.59333608063,
			"0.012": 1.58512173825,
			"0.013": 0.0526625167098,
			"0.014": 0.0,
			"0.015": 0.0,
			"0.016": 0.0,
			"0.017": 0.0,
			"0.018": 0.0,
			"0.019": 0.0,
			"0.02": 0.0,
			"0.021": 0.0,
			"0.022": 0.0,
			"0.023": 0.0,
			"0.024": 0.0,
			"0.025": 0.0
		}
	}
}
