{
	 "smiles": "OC(=O)C1=C(CN2CCOCC2)C=CO1", 
	 "Tm": 458.15, 
	 "num_atms": 28, 
	 "gaussian": { 
		 "optdone": 1, 
		 "sigma_profile": "yes", 
		 "theory": "DFT", 
		 "functional": "B3LYP", 
		 "basiset": "6-31G**", 
		 "properties": { 
			 "R2extent": 3492.768, 
			 "electric_dipole_moment_norm": 2.35777157503, 
			 "electric_quadrupole_moment_norm": 17.8686475798, 
			 "total_energy": -744.495519015, 
			 "HOMO_LUMO_gap": 0.15879, 
			 "cosmo_polarized_energy": -14.62, 
			 "cosmo_cavitation_energy": 30.35, 
			 "cosmo_dispersion_energy": -21.9, 
			 "cosmo_repulsion_energy": 1.72, 
			 "cosmo_total_nonelectrostatic_energy": 10.18, 
			 "SMD_solvation_energy": 5.01 
		},
		"coords": [
			{
				"x": 0.5333872655,
				"y": 0.6002605064,
				"z": 2.9602794657,
				"element": "O" 
			},
			{
				"x": 1.0185805579,
				"y": -0.6738149509,
				"z": 2.9667993408,
				"element": "C" 
			},
			{
				"x": 1.8707945667,
				"y": -1.0402779644,
				"z": 3.747990196,
				"element": "O" 
			},
			{
				"x": 0.3947757689,
				"y": -1.5128538901,
				"z": 1.9413235896,
				"element": "C" 
			},
			{
				"x": -0.5945916298,
				"y": -1.3399780293,
				"z": 0.9914880189,
				"element": "C" 
			},
			{
				"x": -1.367205167,
				"y": -0.0843589556,
				"z": 0.627855347,
				"element": "C" 
			},
			{
				"x": -0.923443672,
				"y": 0.6258370995,
				"z": -0.5698523701,
				"element": "N" 
			},
			{
				"x": -1.1625534335,
				"y": -0.053322173,
				"z": -1.8393320158,
				"element": "C" 
			},
			{
				"x": -0.6276622887,
				"y": 0.8097395978,
				"z": -2.9775733312,
				"element": "C" 
			},
			{
				"x": 0.7844483883,
				"y": 1.008843724,
				"z": -2.8993698063,
				"element": "O" 
			},
			{
				"x": 1.3333268199,
				"y": 0.816470032,
				"z": -1.5985701387,
				"element": "C" 
			},
			{
				"x": 0.3915610258,
				"y": 1.2892267823,
				"z": -0.4921048014,
				"element": "C" 
			},
			{
				"x": -0.7427999646,
				"y": -2.6226366142,
				"z": 0.3694340215,
				"element": "C" 
			},
			{
				"x": 0.1527167477,
				"y": -3.4573485657,
				"z": 0.9717566033,
				"element": "C" 
			},
			{
				"x": 0.8497055834,
				"y": -2.8065391037,
				"z": 1.9249287525,
				"element": "O" 
			},
			{
				"x": 1.0066549849,
				"y": 1.0592931959,
				"z": 3.6740149257,
				"element": "H" 
			},
			{
				"x": -2.417162961,
				"y": -0.3630891135,
				"z": 0.4720318088,
				"element": "H" 
			},
			{
				"x": -1.3393189748,
				"y": 0.611880606,
				"z": 1.4679087819,
				"element": "H" 
			},
			{
				"x": -2.2438788504,
				"y": -0.1972696258,
				"z": -1.9704321575,
				"element": "H" 
			},
			{
				"x": -0.6946389008,
				"y": -1.0522039839,
				"z": -1.9069524669,
				"element": "H" 
			},
			{
				"x": -1.1417993067,
				"y": 1.782754612,
				"z": -2.9603677445,
				"element": "H" 
			},
			{
				"x": -0.8354836183,
				"y": 0.3334062861,
				"z": -3.9425272183,
				"element": "H" 
			},
			{
				"x": 2.2683157192,
				"y": 1.3858998566,
				"z": -1.5694586997,
				"element": "H" 
			},
			{
				"x": 1.5862170418,
				"y": -0.2440271257,
				"z": -1.4418343236,
				"element": "H" 
			},
			{
				"x": 0.8588948506,
				"y": 1.0974132571,
				"z": 0.478637043,
				"element": "H" 
			},
			{
				"x": 0.2618515037,
				"y": 2.378401298,
				"z": -0.5760974117,
				"element": "H" 
			},
			{
				"x": -1.4413098608,
				"y": -2.8861249111,
				"z": -0.4116549736,
				"element": "H" 
			},
			{
				"x": 0.3971178043,
				"y": -4.5004818468,
				"z": 0.8382795646,
				"element": "H" 
			}
		],
		 "valence_orbital": [ 
			{
				"type": "occ",
				"energy": -0.28715,
				"method": "rhf"
			},
			{
				"type": "occ",
				"energy": -0.28262,
				"method": "rhf"
			},
			{
				"type": "occ",
				"energy": -0.24814,
				"method": "rhf"
			},
			{
				"type": "occ",
				"energy": -0.24435,
				"method": "rhf"
			},
			{
				"type": "occ",
				"energy": -0.20692,
				"method": "rhf"
			},
			{
				"type": "unocc",
				"energy": -0.04813,
				"method": "rhf"
			},
			{
				"type": "unocc",
				"energy": 0.0308,
				"method": "rhf"
			},
			{
				"type": "unocc",
				"energy": 0.06818,
				"method": "rhf"
			},
			{
				"type": "unocc",
				"energy": 0.08465,
				"method": "rhf"
			},
			{
				"type": "unocc",
				"energy": 0.0965,
				"method": "rhf"
			}
		],
		"cosmo_sigma_profile": { 
			"-0.025": 0.0,
			"-0.024": 0.0,
			"-0.023": 0.0,
			"-0.022": 0.0,
			"-0.021": 0.0,
			"-0.02": 0.0,
			"-0.019": 0.0803538144901,
			"-0.018": 0.876957420985,
			"-0.017": 0.768721283805,
			"-0.016": 1.05295883914,
			"-0.015": 0.647576785269,
			"-0.014": 0.596817141616,
			"-0.013": 0.600349034034,
			"-0.012": 0.85602273474,
			"-0.011": 0.861094778445,
			"-0.01": 1.78468068054,
			"-0.009": 2.39975120799,
			"-0.008": 2.69425316314,
			"-0.007": 4.19817198891,
			"-0.006": 4.05539517989,
			"-0.005": 12.8494026129,
			"-0.004": 19.0883654858,
			"-0.003": 26.0434323333,
			"-0.002": 29.3601038914,
			"-0.001": 24.3458041408,
			"0.0": 16.840330883,
			"0.001": 15.3250228651,
			"0.002": 12.7192871087,
			"0.003": 10.6043896059,
			"0.004": 6.29845321088,
			"0.005": 5.49809266648,
			"0.006": 3.96716640029,
			"0.007": 3.85472046255,
			"0.008": 3.56568070849,
			"0.009": 5.09028180156,
			"0.01": 4.11982115625,
			"0.011": 5.61345804884,
			"0.012": 7.15239091124,
			"0.013": 3.39079676001,
			"0.014": 1.91139262874,
			"0.015": 0.0247241397242,
			"0.016": 0.0,
			"0.017": 0.0,
			"0.018": 0.0,
			"0.019": 0.0,
			"0.02": 0.0,
			"0.021": 0.0,
			"0.022": 0.0,
			"0.023": 0.0,
			"0.024": 0.0,
			"0.025": 0.0
		}
	}
}
