{
	 "smiles": "CC1=C(F)C=C(C(=O)CCl)C(F)=C1", 
	 "Tm": 367.15, 
	 "num_atms": 20, 
	 "gaussian": { 
		 "optdone": 1, 
		 "sigma_profile": "yes", 
		 "theory": "DFT", 
		 "functional": "B3LYP", 
		 "basiset": "6-31G**", 
		 "properties": { 
			 "R2extent": 3158.2369, 
			 "electric_dipole_moment_norm": 3.45440564208, 
			 "electric_quadrupole_moment_norm": 7.05238079658, 
			 "total_energy": -1082.26397648, 
			 "HOMO_LUMO_gap": 0.1757, 
			 "cosmo_polarized_energy": -7.8, 
			 "cosmo_cavitation_energy": 26.92, 
			 "cosmo_dispersion_energy": -19.4, 
			 "cosmo_repulsion_energy": 1.5, 
			 "cosmo_total_nonelectrostatic_energy": 9.03, 
			 "SMD_solvation_energy": 5.82 
		},
		"coords": [
			{
				"x": -1.4138298962,
				"y": -3.7273069141,
				"z": -1.2193919931,
				"element": "C" 
			},
			{
				"x": -0.6641428274,
				"y": -2.4479445064,
				"z": -0.9661933977,
				"element": "C" 
			},
			{
				"x": 0.2856633284,
				"y": -2.374408324,
				"z": 0.0626429918,
				"element": "C" 
			},
			{
				"x": 0.4989421924,
				"y": -3.4834081591,
				"z": 0.8052529864,
				"element": "F" 
			},
			{
				"x": 1.0026873617,
				"y": -1.2294315341,
				"z": 0.3418415384,
				"element": "C" 
			},
			{
				"x": 0.7912603542,
				"y": -0.0590330622,
				"z": -0.4107920091,
				"element": "C" 
			},
			{
				"x": 1.618115282,
				"y": 1.1347486293,
				"z": -0.0531303902,
				"element": "C" 
			},
			{
				"x": 2.5571978816,
				"y": 1.0275856644,
				"z": 0.7181766388,
				"element": "O" 
			},
			{
				"x": 1.3022716439,
				"y": 2.5127051497,
				"z": -0.631378096,
				"element": "C" 
			},
			{
				"x": -0.2551571089,
				"y": 3.1469457874,
				"z": 0.0499231188,
				"element": "Cl" 
			},
			{
				"x": -0.1505163127,
				"y": -0.1315874365,
				"z": -1.4438942323,
				"element": "C" 
			},
			{
				"x": -0.3882421917,
				"y": 0.9398385176,
				"z": -2.2319231925,
				"element": "F" 
			},
			{
				"x": -0.8649621865,
				"y": -1.2919657763,
				"z": -1.722612751,
				"element": "C" 
			},
			{
				"x": -2.1087567612,
				"y": -3.6185123434,
				"z": -2.054645313,
				"element": "H" 
			},
			{
				"x": -0.7237566805,
				"y": -4.5469698308,
				"z": -1.4457523025,
				"element": "H" 
			},
			{
				"x": -1.9816002717,
				"y": -4.0290632436,
				"z": -0.3328428563,
				"element": "H" 
			},
			{
				"x": 1.7338846532,
				"y": -1.213667083,
				"z": 1.1415772855,
				"element": "H" 
			},
			{
				"x": 1.1899469769,
				"y": 2.496335361,
				"z": -1.7141616838,
				"element": "H" 
			},
			{
				"x": 2.0928449707,
				"y": 3.1936350747,
				"z": -0.3220966215,
				"element": "H" 
			},
			{
				"x": -1.5788504081,
				"y": -1.2788959706,
				"z": -2.5393997207,
				"element": "H" 
			}
		],
		 "valence_orbital": [ 
			{
				"type": "occ",
				"energy": -0.31649,
				"method": "rhf"
			},
			{
				"type": "occ",
				"energy": -0.3037,
				"method": "rhf"
			},
			{
				"type": "occ",
				"energy": -0.27682,
				"method": "rhf"
			},
			{
				"type": "occ",
				"energy": -0.26768,
				"method": "rhf"
			},
			{
				"type": "occ",
				"energy": -0.25458,
				"method": "rhf"
			},
			{
				"type": "unocc",
				"energy": -0.07888,
				"method": "rhf"
			},
			{
				"type": "unocc",
				"energy": -0.01679,
				"method": "rhf"
			},
			{
				"type": "unocc",
				"energy": -0.00311,
				"method": "rhf"
			},
			{
				"type": "unocc",
				"energy": 0.05073,
				"method": "rhf"
			},
			{
				"type": "unocc",
				"energy": 0.07975,
				"method": "rhf"
			}
		],
		"cosmo_sigma_profile": { 
			"-0.025": 0.0,
			"-0.024": 0.0,
			"-0.023": 0.0,
			"-0.022": 0.0,
			"-0.021": 0.0,
			"-0.02": 0.0,
			"-0.019": 0.0,
			"-0.018": 0.0,
			"-0.017": 0.0,
			"-0.016": 0.0,
			"-0.015": 0.0,
			"-0.014": 0.0,
			"-0.013": 0.0,
			"-0.012": 0.0,
			"-0.011": 0.0,
			"-0.01": 0.0,
			"-0.009": 1.15700378514,
			"-0.008": 5.6558250412,
			"-0.007": 7.04140575021,
			"-0.006": 10.0412319428,
			"-0.005": 12.6063790375,
			"-0.004": 10.6018375633,
			"-0.003": 12.3551590051,
			"-0.002": 15.993559201,
			"-0.001": 23.3064150651,
			"0.0": 25.1521810167,
			"0.001": 20.0491564533,
			"0.002": 12.5177846498,
			"0.003": 13.7715854278,
			"0.004": 19.5423957895,
			"0.005": 10.7217844607,
			"0.006": 5.43719023752,
			"0.007": 1.06424110242,
			"0.008": 2.42081876301,
			"0.009": 1.8865198396,
			"0.01": 3.46116819696,
			"0.011": 2.61554459206,
			"0.012": 0.348593859115,
			"0.013": 0.0,
			"0.014": 0.0,
			"0.015": 0.0,
			"0.016": 0.0,
			"0.017": 0.0,
			"0.018": 0.0,
			"0.019": 0.0,
			"0.02": 0.0,
			"0.021": 0.0,
			"0.022": 0.0,
			"0.023": 0.0,
			"0.024": 0.0,
			"0.025": 0.0
		}
	}
}
