{
	 "smiles": "C1CCN(C1)C1=C2N=CNC2=NC=N1", 
	 "Tm": 576.15, 
	 "num_atms": 25, 
	 "gaussian": { 
		 "optdone": 1, 
		 "sigma_profile": "yes", 
		 "theory": "DFT", 
		 "functional": "B3LYP", 
		 "basiset": "6-31G**", 
		 "properties": { 
			 "R2extent": 4112.8824, 
			 "electric_dipole_moment_norm": 2.3354576468, 
			 "electric_quadrupole_moment_norm": 17.2541865508, 
			 "total_energy": -623.36380487, 
			 "HOMO_LUMO_gap": 0.18827, 
			 "cosmo_polarized_energy": -13.69, 
			 "cosmo_cavitation_energy": 27.44, 
			 "cosmo_dispersion_energy": -21.12, 
			 "cosmo_repulsion_energy": 1.65, 
			 "cosmo_total_nonelectrostatic_energy": 7.98, 
			 "SMD_solvation_energy": -0.17 
		},
		"coords": [
			{
				"x": 0.4753560313,
				"y": 1.640697768,
				"z": -0.9887114275,
				"element": "C" 
			},
			{
				"x": 1.9136015204,
				"y": 1.4385705422,
				"z": -0.4830819906,
				"element": "C" 
			},
			{
				"x": 1.9023264464,
				"y": -0.0032358747,
				"z": 0.0433386233,
				"element": "C" 
			},
			{
				"x": 0.522090457,
				"y": -0.1717961061,
				"z": 0.5197658339,
				"element": "N" 
			},
			{
				"x": -0.3771975873,
				"y": 0.8906930217,
				"z": 0.045520684,
				"element": "C" 
			},
			{
				"x": 0.0853520519,
				"y": -1.1838813521,
				"z": 1.3019987715,
				"element": "C" 
			},
			{
				"x": 0.9003017481,
				"y": -2.2514694927,
				"z": 1.7687216352,
				"element": "C" 
			},
			{
				"x": 2.2395584274,
				"y": -2.5814099265,
				"z": 1.603536047,
				"element": "N" 
			},
			{
				"x": 2.3893092384,
				"y": -3.6896586963,
				"z": 2.2853633474,
				"element": "C" 
			},
			{
				"x": 1.2275725049,
				"y": -4.1163886328,
				"z": 2.8938208669,
				"element": "N" 
			},
			{
				"x": 0.250351558,
				"y": -3.2005612038,
				"z": 2.5724315711,
				"element": "C" 
			},
			{
				"x": -1.0359566466,
				"y": -3.2141826789,
				"z": 2.9439463307,
				"element": "N" 
			},
			{
				"x": -1.6878364449,
				"y": -2.1625882966,
				"z": 2.438722426,
				"element": "C" 
			},
			{
				"x": -1.2195650903,
				"y": -1.175981153,
				"z": 1.6634910501,
				"element": "N" 
			},
			{
				"x": 0.191083427,
				"y": 2.6928000658,
				"z": -1.0746725449,
				"element": "H" 
			},
			{
				"x": 0.356932322,
				"y": 1.1811047657,
				"z": -1.9767409734,
				"element": "H" 
			},
			{
				"x": 2.1260839506,
				"y": 2.1337886559,
				"z": 0.3372923135,
				"element": "H" 
			},
			{
				"x": 2.671206398,
				"y": 1.5915798281,
				"z": -1.2563108243,
				"element": "H" 
			},
			{
				"x": 2.1260117303,
				"y": -0.7249898252,
				"z": -0.7543125933,
				"element": "H" 
			},
			{
				"x": 2.6181981003,
				"y": -0.1848227267,
				"z": 0.8470905141,
				"element": "H" 
			},
			{
				"x": -1.2937984414,
				"y": 0.4622301138,
				"z": -0.3675763417,
				"element": "H" 
			},
			{
				"x": -0.6731699858,
				"y": 1.5378795003,
				"z": 0.8816827141,
				"element": "H" 
			},
			{
				"x": 3.3150778783,
				"y": -4.2410464036,
				"z": 2.3824862742,
				"element": "H" 
			},
			{
				"x": 1.0955581709,
				"y": -4.9368642419,
				"z": 3.4656226878,
				"element": "H" 
			},
			{
				"x": -2.7449477647,
				"y": -2.0934676504,
				"z": 2.6903750047,
				"element": "H" 
			}
		],
		 "valence_orbital": [ 
			{
				"type": "occ",
				"energy": -0.27509,
				"method": "rhf"
			},
			{
				"type": "occ",
				"energy": -0.27109,
				"method": "rhf"
			},
			{
				"type": "occ",
				"energy": -0.25393,
				"method": "rhf"
			},
			{
				"type": "occ",
				"energy": -0.23858,
				"method": "rhf"
			},
			{
				"type": "occ",
				"energy": -0.19912,
				"method": "rhf"
			},
			{
				"type": "unocc",
				"energy": -0.01085,
				"method": "rhf"
			},
			{
				"type": "unocc",
				"energy": 0.01617,
				"method": "rhf"
			},
			{
				"type": "unocc",
				"energy": 0.04564,
				"method": "rhf"
			},
			{
				"type": "unocc",
				"energy": 0.08205,
				"method": "rhf"
			},
			{
				"type": "unocc",
				"energy": 0.08773,
				"method": "rhf"
			}
		],
		"cosmo_sigma_profile": { 
			"-0.025": 0.0,
			"-0.024": 0.0,
			"-0.023": 0.0,
			"-0.022": 0.0,
			"-0.021": 0.0,
			"-0.02": 0.0,
			"-0.019": 0.0,
			"-0.018": 0.0,
			"-0.017": 0.770111666413,
			"-0.016": 1.9274655008,
			"-0.015": 1.0905979085,
			"-0.014": 1.35693823284,
			"-0.013": 0.537119940707,
			"-0.012": 0.962033413413,
			"-0.011": 1.58921168855,
			"-0.01": 2.01403323518,
			"-0.009": 3.54967687015,
			"-0.008": 2.640212613,
			"-0.007": 2.56922882849,
			"-0.006": 3.19564742839,
			"-0.005": 3.73486063231,
			"-0.004": 14.366613913,
			"-0.003": 26.9248273166,
			"-0.002": 26.0037401116,
			"-0.001": 17.5952703606,
			"0.0": 20.3034712646,
			"0.001": 21.0746027736,
			"0.002": 12.802668134,
			"0.003": 7.33966566054,
			"0.004": 6.36912520228,
			"0.005": 4.85926463815,
			"0.006": 5.12583353093,
			"0.007": 3.29165535164,
			"0.008": 5.37183214172,
			"0.009": 3.73597990082,
			"0.01": 3.48504379131,
			"0.011": 3.29805109151,
			"0.012": 2.61961898146,
			"0.013": 2.6527245785,
			"0.014": 2.53378162403,
			"0.015": 1.12491767221,
			"0.016": 0.84968057122,
			"0.017": 0.115347749918,
			"0.018": 0.0,
			"0.019": 0.0,
			"0.02": 0.0,
			"0.021": 0.0,
			"0.022": 0.0,
			"0.023": 0.0,
			"0.024": 0.0,
			"0.025": 0.0
		}
	}
}
