{
	 "smiles": "CC1=CC(O)=C2C(=O)C3=C(O)C=CC=C3C(=O)C2=C1", 
	 "Tm": 469.15, 
	 "num_atms": 29, 
	 "gaussian": { 
		 "optdone": 1, 
		 "sigma_profile": "yes", 
		 "theory": "DFT", 
		 "functional": "B3LYP", 
		 "basiset": "6-31G**", 
		 "properties": { 
			 "R2extent": 5200.1029, 
			 "electric_dipole_moment_norm": 3.85696413388, 
			 "electric_quadrupole_moment_norm": 22.063497633, 
			 "total_energy": -878.544363096, 
			 "HOMO_LUMO_gap": 0.12672, 
			 "cosmo_polarized_energy": -16.73, 
			 "cosmo_cavitation_energy": 32.92, 
			 "cosmo_dispersion_energy": -24.82, 
			 "cosmo_repulsion_energy": 1.83, 
			 "cosmo_total_nonelectrostatic_energy": 9.93, 
			 "SMD_solvation_energy": 6.76 
		},
		"coords": [
			{
				"x": 3.1292530792,
				"y": -0.6924718013,
				"z": 3.8323681054,
				"element": "C" 
			},
			{
				"x": 2.0349456173,
				"y": -0.3260382643,
				"z": 2.8609082104,
				"element": "C" 
			},
			{
				"x": 1.5732489236,
				"y": 0.9838292276,
				"z": 2.7551665205,
				"element": "C" 
			},
			{
				"x": 0.5574181943,
				"y": 1.346542384,
				"z": 1.8560663675,
				"element": "C" 
			},
			{
				"x": 0.1398503668,
				"y": 2.6313086876,
				"z": 1.7868409658,
				"element": "O" 
			},
			{
				"x": -0.0302615973,
				"y": 0.3656931698,
				"z": 1.0212879206,
				"element": "C" 
			},
			{
				"x": -1.1039011028,
				"y": 0.6881777075,
				"z": 0.0550882572,
				"element": "C" 
			},
			{
				"x": -1.5426656055,
				"y": 1.848123522,
				"z": -0.0680192832,
				"element": "O" 
			},
			{
				"x": -1.6564585257,
				"y": -0.3977776202,
				"z": -0.7732133606,
				"element": "C" 
			},
			{
				"x": -2.6872064195,
				"y": -0.1044164261,
				"z": -1.7056431712,
				"element": "C" 
			},
			{
				"x": -3.1809644344,
				"y": 1.1270484603,
				"z": -1.8639515402,
				"element": "O" 
			},
			{
				"x": -3.2182833497,
				"y": -1.1395574552,
				"z": -2.4996128226,
				"element": "C" 
			},
			{
				"x": -2.7411906801,
				"y": -2.4358098831,
				"z": -2.3746364681,
				"element": "C" 
			},
			{
				"x": -1.7255712027,
				"y": -2.7402869082,
				"z": -1.4598718452,
				"element": "C" 
			},
			{
				"x": -1.1899502852,
				"y": -1.7291390216,
				"z": -0.6678778124,
				"element": "C" 
			},
			{
				"x": -0.1128897817,
				"y": -2.069310185,
				"z": 0.2975975223,
				"element": "C" 
			},
			{
				"x": 0.3087706324,
				"y": -3.2163156049,
				"z": 0.4081757005,
				"element": "O" 
			},
			{
				"x": 0.4480739736,
				"y": -0.963936337,
				"z": 1.1385516841,
				"element": "C" 
			},
			{
				"x": 1.4555681566,
				"y": -1.2995255095,
				"z": 2.0365957661,
				"element": "C" 
			},
			{
				"x": 2.7897598625,
				"y": -1.4657963731,
				"z": 4.5299968054,
				"element": "H" 
			},
			{
				"x": 4.0000191532,
				"y": -1.0973179708,
				"z": 3.304804355,
				"element": "H" 
			},
			{
				"x": 3.4589434575,
				"y": 0.1703931046,
				"z": 4.4167130529,
				"element": "H" 
			},
			{
				"x": 2.0079203766,
				"y": 1.7580695787,
				"z": 3.3858498199,
				"element": "H" 
			},
			{
				"x": 0.6465757118,
				"y": 3.1562925706,
				"z": 2.4218589576,
				"element": "H" 
			},
			{
				"x": -2.6806234851,
				"y": 1.7030628324,
				"z": -1.221329654,
				"element": "H" 
			},
			{
				"x": -4.0044849974,
				"y": -0.8863734873,
				"z": -3.2030899363,
				"element": "H" 
			},
			{
				"x": -3.1619506075,
				"y": -3.2221773549,
				"z": -2.9947277139,
				"element": "H" 
			},
			{
				"x": -1.3402308252,
				"y": -3.7470897248,
				"z": -1.3483049755,
				"element": "H" 
			},
			{
				"x": 1.7762853942,
				"y": -2.3350013178,
				"z": 2.0775085718,
				"element": "H" 
			}
		],
		 "valence_orbital": [ 
			{
				"type": "occ",
				"energy": -0.26713,
				"method": "rhf"
			},
			{
				"type": "occ",
				"energy": -0.26417,
				"method": "rhf"
			},
			{
				"type": "occ",
				"energy": -0.2532,
				"method": "rhf"
			},
			{
				"type": "occ",
				"energy": -0.24173,
				"method": "rhf"
			},
			{
				"type": "occ",
				"energy": -0.22781,
				"method": "rhf"
			},
			{
				"type": "unocc",
				"energy": -0.10109,
				"method": "rhf"
			},
			{
				"type": "unocc",
				"energy": -0.04694,
				"method": "rhf"
			},
			{
				"type": "unocc",
				"energy": -0.02157,
				"method": "rhf"
			},
			{
				"type": "unocc",
				"energy": 0.00326,
				"method": "rhf"
			},
			{
				"type": "unocc",
				"energy": 0.05213,
				"method": "rhf"
			}
		],
		"cosmo_sigma_profile": { 
			"-0.025": 0.0,
			"-0.024": 0.0,
			"-0.023": 0.0,
			"-0.022": 0.0,
			"-0.021": 0.0,
			"-0.02": 0.0,
			"-0.019": 0.422798386366,
			"-0.018": 1.28719034088,
			"-0.017": 1.4187095016,
			"-0.016": 1.19286576491,
			"-0.015": 0.86574954772,
			"-0.014": 0.423304792345,
			"-0.013": 0.612678853428,
			"-0.012": 1.62666923633,
			"-0.011": 1.52205116964,
			"-0.01": 1.1277301842,
			"-0.009": 0.624819512736,
			"-0.008": 1.76571960285,
			"-0.007": 6.35364610921,
			"-0.006": 9.16760248157,
			"-0.005": 15.7274109791,
			"-0.004": 17.2257070284,
			"-0.003": 20.470423522,
			"-0.002": 20.2231928405,
			"-0.001": 23.3198740248,
			"0.0": 23.2329827449,
			"0.001": 28.6964744741,
			"0.002": 25.0574128576,
			"0.003": 11.6788459846,
			"0.004": 5.59310698048,
			"0.005": 5.83933262691,
			"0.006": 4.43881879651,
			"0.007": 5.06575901448,
			"0.008": 4.33058646805,
			"0.009": 4.99301950729,
			"0.01": 5.75955390925,
			"0.011": 6.64768102081,
			"0.012": 3.39621783266,
			"0.013": 1.25510898648,
			"0.014": 1.79973688197,
			"0.015": 0.961080870069,
			"0.016": 0.426419383279,
			"0.017": 0.0,
			"0.018": 0.0,
			"0.019": 0.0,
			"0.02": 0.0,
			"0.021": 0.0,
			"0.022": 0.0,
			"0.023": 0.0,
			"0.024": 0.0,
			"0.025": 0.0
		}
	}
}
