{
	 "smiles": "OC(=O)C(CC1=CC=CC=C1)NC(=O)OCC1=CC=CC=C1", 
	 "Tm": 361.65, 
	 "num_atms": 39, 
	 "gaussian": { 
		 "optdone": 1, 
		 "sigma_profile": "yes", 
		 "theory": "DFT", 
		 "functional": "B3LYP", 
		 "basiset": "6-31G**", 
		 "properties": { 
			 "R2extent": 9202.9418, 
			 "electric_dipole_moment_norm": 3.28055471529, 
			 "electric_quadrupole_moment_norm": 23.8431615288, 
			 "total_energy": -1013.73944785, 
			 "HOMO_LUMO_gap": 0.21984, 
			 "cosmo_polarized_energy": -17.71, 
			 "cosmo_cavitation_energy": 43.28, 
			 "cosmo_dispersion_energy": -29.53, 
			 "cosmo_repulsion_energy": 2.26, 
			 "cosmo_total_nonelectrostatic_energy": 16.01, 
			 "SMD_solvation_energy": 8.54 
		},
		"coords": [
			{
				"x": -1.2072494839,
				"y": -0.2887943784,
				"z": 1.7068487993,
				"element": "O" 
			},
			{
				"x": 0.0975410369,
				"y": -0.6058484387,
				"z": 1.7446403916,
				"element": "C" 
			},
			{
				"x": 0.6453756239,
				"y": -0.8699038465,
				"z": 2.7900792901,
				"element": "O" 
			},
			{
				"x": 0.8043120784,
				"y": -0.6576399325,
				"z": 0.3648223426,
				"element": "C" 
			},
			{
				"x": 2.3072409475,
				"y": -1.007110472,
				"z": 0.4849664415,
				"element": "C" 
			},
			{
				"x": 3.2216456282,
				"y": 0.1529862223,
				"z": 0.8366046031,
				"element": "C" 
			},
			{
				"x": 3.3845089599,
				"y": 0.585609681,
				"z": 2.1625625051,
				"element": "C" 
			},
			{
				"x": 4.2280093436,
				"y": 1.6560040724,
				"z": 2.4592257133,
				"element": "C" 
			},
			{
				"x": 4.919707107,
				"y": 2.3170696644,
				"z": 1.440984706,
				"element": "C" 
			},
			{
				"x": 4.7663043097,
				"y": 1.8975965587,
				"z": 0.119847229,
				"element": "C" 
			},
			{
				"x": 3.9252581102,
				"y": 0.8220615971,
				"z": -0.1771731018,
				"element": "C" 
			},
			{
				"x": 0.6249577809,
				"y": 0.5727681874,
				"z": -0.404476878,
				"element": "N" 
			},
			{
				"x": -0.4238047601,
				"y": 0.9157304687,
				"z": -1.2010089865,
				"element": "C" 
			},
			{
				"x": -0.476729432,
				"y": 1.8921399574,
				"z": -1.9209736131,
				"element": "O" 
			},
			{
				"x": -1.452804232,
				"y": 0.0089942584,
				"z": -1.067747112,
				"element": "O" 
			},
			{
				"x": -2.6122424462,
				"y": 0.2638307692,
				"z": -1.9173508111,
				"element": "C" 
			},
			{
				"x": -3.690667125,
				"y": -0.7081074023,
				"z": -1.5291657993,
				"element": "C" 
			},
			{
				"x": -3.7732719514,
				"y": -1.9633571662,
				"z": -2.1451835014,
				"element": "C" 
			},
			{
				"x": -4.7599393526,
				"y": -2.8740917055,
				"z": -1.7679022111,
				"element": "C" 
			},
			{
				"x": -5.6744602057,
				"y": -2.5377394459,
				"z": -0.7673412675,
				"element": "C" 
			},
			{
				"x": -5.6007315775,
				"y": -1.2887117762,
				"z": -0.1476565347,
				"element": "C" 
			},
			{
				"x": -4.6142297177,
				"y": -0.3787849808,
				"z": -0.5285306502,
				"element": "C" 
			},
			{
				"x": -1.5132385708,
				"y": -0.199165187,
				"z": 0.7824629143,
				"element": "H" 
			},
			{
				"x": 0.310993618,
				"y": -1.4676090579,
				"z": -0.1868255698,
				"element": "H" 
			},
			{
				"x": 2.6221165984,
				"y": -1.4274081503,
				"z": -0.4755406097,
				"element": "H" 
			},
			{
				"x": 2.3916585488,
				"y": -1.7958009696,
				"z": 1.2363770904,
				"element": "H" 
			},
			{
				"x": 2.8390247345,
				"y": 0.0798102107,
				"z": 2.9518233619,
				"element": "H" 
			},
			{
				"x": 4.34577709,
				"y": 1.9748934821,
				"z": 3.4910859295,
				"element": "H" 
			},
			{
				"x": 5.5754669625,
				"y": 3.1502199497,
				"z": 1.6769886456,
				"element": "H" 
			},
			{
				"x": 5.3033206287,
				"y": 2.3995662403,
				"z": -0.6799485142,
				"element": "H" 
			},
			{
				"x": 3.824888179,
				"y": 0.4882233431,
				"z": -1.2076867698,
				"element": "H" 
			},
			{
				"x": 1.3818306956,
				"y": 1.2440996507,
				"z": -0.3913686886,
				"element": "H" 
			},
			{
				"x": -2.9179265077,
				"y": 1.3028228323,
				"z": -1.7764846695,
				"element": "H" 
			},
			{
				"x": -2.3013362756,
				"y": 0.1388814358,
				"z": -2.9578476718,
				"element": "H" 
			},
			{
				"x": -3.06248539,
				"y": -2.224825821,
				"z": -2.925134358,
				"element": "H" 
			},
			{
				"x": -4.8171491361,
				"y": -3.8431962969,
				"z": -2.2548594504,
				"element": "H" 
			},
			{
				"x": -6.4443150606,
				"y": -3.2455214808,
				"z": -0.4740833441,
				"element": "H" 
			},
			{
				"x": -6.3120100266,
				"y": -1.022059458,
				"z": 0.6283625587,
				"element": "H" 
			},
			{
				"x": -4.5617467302,
				"y": 0.5956673851,
				"z": -0.0490924095,
				"element": "H" 
			}
		],
		 "valence_orbital": [ 
			{
				"type": "occ",
				"energy": -0.26399,
				"method": "rhf"
			},
			{
				"type": "occ",
				"energy": -0.26227,
				"method": "rhf"
			},
			{
				"type": "occ",
				"energy": -0.25483,
				"method": "rhf"
			},
			{
				"type": "occ",
				"energy": -0.25301,
				"method": "rhf"
			},
			{
				"type": "occ",
				"energy": -0.24473,
				"method": "rhf"
			},
			{
				"type": "unocc",
				"energy": -0.02489,
				"method": "rhf"
			},
			{
				"type": "unocc",
				"energy": -0.01554,
				"method": "rhf"
			},
			{
				"type": "unocc",
				"energy": -0.008,
				"method": "rhf"
			},
			{
				"type": "unocc",
				"energy": -0.00589,
				"method": "rhf"
			},
			{
				"type": "unocc",
				"energy": 0.00535,
				"method": "rhf"
			}
		],
		"cosmo_sigma_profile": { 
			"-0.025": 0.0,
			"-0.024": 0.0,
			"-0.023": 0.0,
			"-0.022": 0.0,
			"-0.021": 0.0,
			"-0.02": 0.0,
			"-0.019": 0.0,
			"-0.018": 0.0,
			"-0.017": 0.0,
			"-0.016": 0.0,
			"-0.015": 0.0,
			"-0.014": 0.0,
			"-0.013": 0.0,
			"-0.012": 0.0,
			"-0.011": 0.087439439063,
			"-0.01": 0.682811778503,
			"-0.009": 2.08295285262,
			"-0.008": 4.15457627571,
			"-0.007": 7.60552529111,
			"-0.006": 27.3015049911,
			"-0.005": 32.7048816287,
			"-0.004": 34.0105517055,
			"-0.003": 29.7835896945,
			"-0.002": 23.2405259016,
			"-0.001": 21.4583173173,
			"0.0": 19.2262961674,
			"0.001": 16.3855203564,
			"0.002": 19.8510321556,
			"0.003": 19.8078895571,
			"0.004": 20.4152326894,
			"0.005": 20.3040698531,
			"0.006": 9.15521635573,
			"0.007": 3.70256732807,
			"0.008": 4.01435373539,
			"0.009": 4.75790058014,
			"0.01": 5.822658033,
			"0.011": 6.29829469535,
			"0.012": 7.82287897664,
			"0.013": 4.10769633538,
			"0.014": 0.0582653917251,
			"0.015": 0.0,
			"0.016": 0.0,
			"0.017": 0.0,
			"0.018": 0.0,
			"0.019": 0.0,
			"0.02": 0.0,
			"0.021": 0.0,
			"0.022": 0.0,
			"0.023": 0.0,
			"0.024": 0.0,
			"0.025": 0.0
		}
	}
}
