{
	 "smiles": "CC(=O)OC1CCC(CC1)C(C)(C)C", 
	 "Tm": 223.15, 
	 "num_atms": 36, 
	 "gaussian": { 
		 "optdone": 1, 
		 "sigma_profile": "yes", 
		 "theory": "DFT", 
		 "functional": "B3LYP", 
		 "basiset": "6-31G**", 
		 "properties": { 
			 "R2extent": 4296.0527, 
			 "electric_dipole_moment_norm": 2.05205515033, 
			 "electric_quadrupole_moment_norm": 11.5229833828, 
			 "total_energy": -621.021225457, 
			 "HOMO_LUMO_gap": 0.28072, 
			 "cosmo_polarized_energy": -6.65, 
			 "cosmo_cavitation_energy": 34.62, 
			 "cosmo_dispersion_energy": -24.37, 
			 "cosmo_repulsion_energy": 1.91, 
			 "cosmo_total_nonelectrostatic_energy": 12.16, 
			 "SMD_solvation_energy": 6.48 
		},
		"coords": [
			{
				"x": 2.918499779,
				"y": 3.9057659757,
				"z": -0.9128006382,
				"element": "C" 
			},
			{
				"x": 2.6288820352,
				"y": 2.4329528909,
				"z": -1.0943294228,
				"element": "C" 
			},
			{
				"x": 3.2584303037,
				"y": 1.6813024332,
				"z": -1.8081778605,
				"element": "O" 
			},
			{
				"x": 1.5666498328,
				"y": 2.0599588003,
				"z": -0.3450307631,
				"element": "O" 
			},
			{
				"x": 1.1686456377,
				"y": 0.6576921992,
				"z": -0.4060678291,
				"element": "C" 
			},
			{
				"x": 0.4734495828,
				"y": 0.3552442275,
				"z": 0.9310654888,
				"element": "C" 
			},
			{
				"x": -0.6461196802,
				"y": -0.6822902102,
				"z": 0.7605375589,
				"element": "C" 
			},
			{
				"x": -1.8009719754,
				"y": -0.1257641047,
				"z": -0.1113234252,
				"element": "C" 
			},
			{
				"x": -1.2231938558,
				"y": 0.7539457166,
				"z": -1.2666034265,
				"element": "C" 
			},
			{
				"x": 0.2353756613,
				"y": 0.4164239853,
				"z": -1.6024096922,
				"element": "C" 
			},
			{
				"x": -2.8239703614,
				"y": -1.2172380099,
				"z": -0.580325563,
				"element": "C" 
			},
			{
				"x": -4.0804000397,
				"y": -0.5268799552,
				"z": -1.1539327068,
				"element": "C" 
			},
			{
				"x": -3.271934684,
				"y": -2.0700081603,
				"z": 0.6263595592,
				"element": "C" 
			},
			{
				"x": -2.2329126732,
				"y": -2.1519611947,
				"z": -1.6555915603,
				"element": "C" 
			},
			{
				"x": 3.1134924667,
				"y": 4.1238620757,
				"z": 0.1413257425,
				"element": "H" 
			},
			{
				"x": 3.7819606425,
				"y": 4.1828273095,
				"z": -1.516811512,
				"element": "H" 
			},
			{
				"x": 2.0487554828,
				"y": 4.498465886,
				"z": -1.2117142911,
				"element": "H" 
			},
			{
				"x": 2.0807839057,
				"y": 0.0695787225,
				"z": -0.5311878756,
				"element": "H" 
			},
			{
				"x": 0.0433524966,
				"y": 1.2901782851,
				"z": 1.3101788105,
				"element": "H" 
			},
			{
				"x": 1.2071646468,
				"y": 0.0249689805,
				"z": 1.6739114299,
				"element": "H" 
			},
			{
				"x": -0.2283543487,
				"y": -1.5964645744,
				"z": 0.3189679852,
				"element": "H" 
			},
			{
				"x": -1.0258824098,
				"y": -0.968593633,
				"z": 1.7455800243,
				"element": "H" 
			},
			{
				"x": -2.3768639947,
				"y": 0.544923693,
				"z": 0.5427618593,
				"element": "H" 
			},
			{
				"x": -1.8350189127,
				"y": 0.6671091866,
				"z": -2.1690737178,
				"element": "H" 
			},
			{
				"x": -1.2717969536,
				"y": 1.8103024648,
				"z": -0.9771694158,
				"element": "H" 
			},
			{
				"x": 0.3194192478,
				"y": -0.6368037898,
				"z": -1.8945731377,
				"element": "H" 
			},
			{
				"x": 0.5926437297,
				"y": 0.9963784951,
				"z": -2.4584601572,
				"element": "H" 
			},
			{
				"x": -3.8551276667,
				"y": 0.0897062462,
				"z": -2.0295353749,
				"element": "H" 
			},
			{
				"x": -4.5513232164,
				"y": 0.118768317,
				"z": -0.4035739074,
				"element": "H" 
			},
			{
				"x": -4.8212730666,
				"y": -1.2726834759,
				"z": -1.4630617254,
				"element": "H" 
			},
			{
				"x": -2.4562871491,
				"y": -2.6784420344,
				"z": 1.0283465808,
				"element": "H" 
			},
			{
				"x": -4.0754509172,
				"y": -2.7544028911,
				"z": 0.3321821014,
				"element": "H" 
			},
			{
				"x": -3.6547443956,
				"y": -1.4400706844,
				"z": 1.43815149,
				"element": "H" 
			},
			{
				"x": -1.951398855,
				"y": -1.6067462593,
				"z": -2.5622008993,
				"element": "H" 
			},
			{
				"x": -1.3475712577,
				"y": -2.6855712857,
				"z": -1.2939483885,
				"element": "H" 
			},
			{
				"x": -2.9704090378,
				"y": -2.9083356274,
				"z": -1.9469653401,
				"element": "H" 
			}
		],
		 "valence_orbital": [ 
			{
				"type": "occ",
				"energy": -0.30218,
				"method": "rhf"
			},
			{
				"type": "occ",
				"energy": -0.29573,
				"method": "rhf"
			},
			{
				"type": "occ",
				"energy": -0.29486,
				"method": "rhf"
			},
			{
				"type": "occ",
				"energy": -0.28194,
				"method": "rhf"
			},
			{
				"type": "occ",
				"energy": -0.26245,
				"method": "rhf"
			},
			{
				"type": "unocc",
				"energy": 0.01827,
				"method": "rhf"
			},
			{
				"type": "unocc",
				"energy": 0.06951,
				"method": "rhf"
			},
			{
				"type": "unocc",
				"energy": 0.09375,
				"method": "rhf"
			},
			{
				"type": "unocc",
				"energy": 0.10523,
				"method": "rhf"
			},
			{
				"type": "unocc",
				"energy": 0.10958,
				"method": "rhf"
			}
		],
		"cosmo_sigma_profile": { 
			"-0.025": 0.0,
			"-0.024": 0.0,
			"-0.023": 0.0,
			"-0.022": 0.0,
			"-0.021": 0.0,
			"-0.02": 0.0,
			"-0.019": 0.0,
			"-0.018": 0.0,
			"-0.017": 0.0,
			"-0.016": 0.0,
			"-0.015": 0.0,
			"-0.014": 0.0,
			"-0.013": 0.0,
			"-0.012": 0.0,
			"-0.011": 0.0,
			"-0.01": 0.0,
			"-0.009": 0.0,
			"-0.008": 0.0,
			"-0.007": 0.376025134539,
			"-0.006": 3.90062038766,
			"-0.005": 5.99605733876,
			"-0.004": 9.47414324658,
			"-0.003": 26.9659204947,
			"-0.002": 47.0973231445,
			"-0.001": 51.4807299478,
			"0.0": 36.5062244244,
			"0.001": 28.5243070629,
			"0.002": 22.7285112481,
			"0.003": 5.17541380675,
			"0.004": 3.90039815212,
			"0.005": 3.10773591989,
			"0.006": 3.09859980374,
			"0.007": 2.75504754046,
			"0.008": 2.03091178051,
			"0.009": 2.02589584207,
			"0.01": 1.74174421661,
			"0.011": 2.35753911197,
			"0.012": 4.31379430477,
			"0.013": 2.54268738136,
			"0.014": 0.136155695798,
			"0.015": 0.0,
			"0.016": 0.0,
			"0.017": 0.0,
			"0.018": 0.0,
			"0.019": 0.0,
			"0.02": 0.0,
			"0.021": 0.0,
			"0.022": 0.0,
			"0.023": 0.0,
			"0.024": 0.0,
			"0.025": 0.0
		}
	}
}
