{
	 "smiles": "COC1=CC=CC(OCC(O)=O)=C1", 
	 "Tm": 390.65, 
	 "num_atms": 23, 
	 "gaussian": { 
		 "optdone": 1, 
		 "sigma_profile": "yes", 
		 "theory": "DFT", 
		 "functional": "B3LYP", 
		 "basiset": "6-31G**", 
		 "properties": { 
			 "R2extent": 3163.6668, 
			 "electric_dipole_moment_norm": 2.38444694426, 
			 "electric_quadrupole_moment_norm": 14.7564898316, 
			 "total_energy": -649.862085041, 
			 "HOMO_LUMO_gap": 0.21491, 
			 "cosmo_polarized_energy": -13.63, 
			 "cosmo_cavitation_energy": 27.28, 
			 "cosmo_dispersion_energy": -19.51, 
			 "cosmo_repulsion_energy": 1.56, 
			 "cosmo_total_nonelectrostatic_energy": 9.33, 
			 "SMD_solvation_energy": 6.9 
		},
		"coords": [
			{
				"x": 1.6555619813,
				"y": 1.1615773031,
				"z": 0.1366969654,
				"element": "C" 
			},
			{
				"x": 0.6712325952,
				"y": 1.5750502935,
				"z": 1.0739608574,
				"element": "O" 
			},
			{
				"x": -0.5208249809,
				"y": 0.9178497433,
				"z": 1.1038050958,
				"element": "C" 
			},
			{
				"x": -1.4404799202,
				"y": 1.3639877321,
				"z": 2.0625608018,
				"element": "C" 
			},
			{
				"x": -2.6793518302,
				"y": 0.740075471,
				"z": 2.1640067827,
				"element": "C" 
			},
			{
				"x": -3.0260250305,
				"y": -0.3192426502,
				"z": 1.3241719173,
				"element": "C" 
			},
			{
				"x": -2.1019842252,
				"y": -0.7508843117,
				"z": 0.3734106387,
				"element": "C" 
			},
			{
				"x": -2.5074182516,
				"y": -1.822470723,
				"z": -0.4090170005,
				"element": "O" 
			},
			{
				"x": -1.7692253687,
				"y": -2.1159690615,
				"z": -1.5889843058,
				"element": "C" 
			},
			{
				"x": -0.5486627555,
				"y": -3.0036259847,
				"z": -1.3178202492,
				"element": "C" 
			},
			{
				"x": -0.6041564113,
				"y": -3.687254453,
				"z": -0.1602593825,
				"element": "O" 
			},
			{
				"x": 0.3639268007,
				"y": -3.1099902487,
				"z": -2.0989222977,
				"element": "O" 
			},
			{
				"x": -0.8448365128,
				"y": -0.14704298,
				"z": 0.2498498519,
				"element": "C" 
			},
			{
				"x": 2.5135026587,
				"y": 1.8162831752,
				"z": 0.2950751546,
				"element": "H" 
			},
			{
				"x": 1.3032116022,
				"y": 1.2740275369,
				"z": -0.8965572336,
				"element": "H" 
			},
			{
				"x": 1.9607264673,
				"y": 0.1207191318,
				"z": 0.3019373007,
				"element": "H" 
			},
			{
				"x": -1.1611875877,
				"y": 2.1890015202,
				"z": 2.7081814588,
				"element": "H" 
			},
			{
				"x": -3.3924026303,
				"y": 1.0867035206,
				"z": 2.9061291904,
				"element": "H" 
			},
			{
				"x": -3.9915908701,
				"y": -0.8082384246,
				"z": 1.3864769979,
				"element": "H" 
			},
			{
				"x": -2.4514933725,
				"y": -2.6720321885,
				"z": -2.2403177564,
				"element": "H" 
			},
			{
				"x": -1.450184896,
				"y": -1.2138815863,
				"z": -2.1175891078,
				"element": "H" 
			},
			{
				"x": -1.4132992863,
				"y": -3.4147411026,
				"z": 0.3084289916,
				"element": "H" 
			},
			{
				"x": -0.1262381755,
				"y": -0.5007017128,
				"z": -0.4765246716,
				"element": "H" 
			}
		],
		 "valence_orbital": [ 
			{
				"type": "occ",
				"energy": -0.3206,
				"method": "rhf"
			},
			{
				"type": "occ",
				"energy": -0.31579,
				"method": "rhf"
			},
			{
				"type": "occ",
				"energy": -0.27633,
				"method": "rhf"
			},
			{
				"type": "occ",
				"energy": -0.25034,
				"method": "rhf"
			},
			{
				"type": "occ",
				"energy": -0.22173,
				"method": "rhf"
			},
			{
				"type": "unocc",
				"energy": -0.00682,
				"method": "rhf"
			},
			{
				"type": "unocc",
				"energy": -0.00149,
				"method": "rhf"
			},
			{
				"type": "unocc",
				"energy": 0.00743,
				"method": "rhf"
			},
			{
				"type": "unocc",
				"energy": 0.07763,
				"method": "rhf"
			},
			{
				"type": "unocc",
				"energy": 0.07899,
				"method": "rhf"
			}
		],
		"cosmo_sigma_profile": { 
			"-0.025": 0.0,
			"-0.024": 0.0,
			"-0.023": 0.0,
			"-0.022": 0.0,
			"-0.021": 0.0,
			"-0.02": 0.0,
			"-0.019": 0.0,
			"-0.018": 0.0,
			"-0.017": 0.0,
			"-0.016": 0.31770195794,
			"-0.015": 0.737224309353,
			"-0.014": 0.349837893944,
			"-0.013": 0.53612580977,
			"-0.012": 0.963008743387,
			"-0.011": 0.882453573027,
			"-0.01": 2.07590975993,
			"-0.009": 4.26925928106,
			"-0.008": 6.59248164382,
			"-0.007": 6.58741779764,
			"-0.006": 15.4841407233,
			"-0.005": 17.707098383,
			"-0.004": 17.8318076063,
			"-0.003": 15.036780016,
			"-0.002": 11.4928093793,
			"-0.001": 9.55551326187,
			"0.0": 8.98251231785,
			"0.001": 9.49210641726,
			"0.002": 10.9944711271,
			"0.003": 11.3331609188,
			"0.004": 15.1090901946,
			"0.005": 12.5596337151,
			"0.006": 5.81474372696,
			"0.007": 4.27647256746,
			"0.008": 5.39228931081,
			"0.009": 6.47288567178,
			"0.01": 5.86625874369,
			"0.011": 4.82850330502,
			"0.012": 4.65524201895,
			"0.013": 0.854592065013,
			"0.014": 0.0,
			"0.015": 0.0,
			"0.016": 0.0,
			"0.017": 0.0,
			"0.018": 0.0,
			"0.019": 0.0,
			"0.02": 0.0,
			"0.021": 0.0,
			"0.022": 0.0,
			"0.023": 0.0,
			"0.024": 0.0,
			"0.025": 0.0
		}
	}
}
