{
	 "smiles": "NC1=CC2=C(C=CC3=C2C=CC=C3)C2=C1C=CC=C2", 
	 "Tm": 483.15, 
	 "num_atms": 32, 
	 "gaussian": { 
		 "optdone": 1, 
		 "sigma_profile": "yes", 
		 "theory": "DFT", 
		 "functional": "B3LYP", 
		 "basiset": "6-31G**", 
		 "properties": { 
			 "R2extent": 6036.4293, 
			 "electric_dipole_moment_norm": 1.81306430388, 
			 "electric_quadrupole_moment_norm": 15.705134426, 
			 "total_energy": -748.541967811, 
			 "HOMO_LUMO_gap": 0.14487, 
			 "cosmo_polarized_energy": -11.85, 
			 "cosmo_cavitation_energy": 34.14, 
			 "cosmo_dispersion_energy": -25.87, 
			 "cosmo_repulsion_energy": 1.89, 
			 "cosmo_total_nonelectrostatic_energy": 10.15, 
			 "SMD_solvation_energy": 4.82 
		},
		"coords": [
			{
				"x": 3.4032262403,
				"y": 0.3496174882,
				"z": -0.420260152,
				"element": "N" 
			},
			{
				"x": 2.253359419,
				"y": -0.0491940139,
				"z": 0.2718643144,
				"element": "C" 
			},
			{
				"x": 1.3049404265,
				"y": -0.8434103094,
				"z": -0.3248109021,
				"element": "C" 
			},
			{
				"x": 0.1057389219,
				"y": -1.2409353921,
				"z": 0.3346969127,
				"element": "C" 
			},
			{
				"x": -0.1059743485,
				"y": -0.8416328545,
				"z": 1.6775178996,
				"element": "C" 
			},
			{
				"x": -1.2859847578,
				"y": -1.2832478763,
				"z": 2.3528268198,
				"element": "C" 
			},
			{
				"x": -2.2133750506,
				"y": -2.0745117725,
				"z": 1.7394869674,
				"element": "C" 
			},
			{
				"x": -2.0461503021,
				"y": -2.4883699151,
				"z": 0.3843573564,
				"element": "C" 
			},
			{
				"x": -0.8847109818,
				"y": -2.0698300865,
				"z": -0.334083831,
				"element": "C" 
			},
			{
				"x": -0.7613015068,
				"y": -2.4875861162,
				"z": -1.6836961765,
				"element": "C" 
			},
			{
				"x": -1.7196894052,
				"y": -3.278667589,
				"z": -2.287201605,
				"element": "C" 
			},
			{
				"x": -2.8585652772,
				"y": -3.6945799611,
				"z": -1.567980798,
				"element": "C" 
			},
			{
				"x": -3.0140247867,
				"y": -3.3013084868,
				"z": -0.2556670181,
				"element": "C" 
			},
			{
				"x": 0.8766487128,
				"y": 0.0083726533,
				"z": 2.3272201191,
				"element": "C" 
			},
			{
				"x": 2.0415234789,
				"y": 0.4302974333,
				"z": 1.6163693743,
				"element": "C" 
			},
			{
				"x": 2.9600949551,
				"y": 1.310629328,
				"z": 2.2381148521,
				"element": "C" 
			},
			{
				"x": 2.7743331284,
				"y": 1.7398070392,
				"z": 3.536622715,
				"element": "C" 
			},
			{
				"x": 1.6485053382,
				"y": 1.3004413532,
				"z": 4.2571042699,
				"element": "C" 
			},
			{
				"x": 0.7248318555,
				"y": 0.4638852392,
				"z": 3.6616952702,
				"element": "C" 
			},
			{
				"x": 4.2493539563,
				"y": 0.3519029437,
				"z": 0.134766785,
				"element": "H" 
			},
			{
				"x": 3.5473571272,
				"y": -0.1543139478,
				"z": -1.2857881309,
				"element": "H" 
			},
			{
				"x": 1.5000165761,
				"y": -1.1931240451,
				"z": -1.3327673631,
				"element": "H" 
			},
			{
				"x": -1.4572137657,
				"y": -0.9887928805,
				"z": 3.3814421355,
				"element": "H" 
			},
			{
				"x": -3.1003161616,
				"y": -2.3978564935,
				"z": 2.2777925579,
				"element": "H" 
			},
			{
				"x": 0.0959661053,
				"y": -2.1795727894,
				"z": -2.2711556647,
				"element": "H" 
			},
			{
				"x": -1.59469551,
				"y": -3.5792935687,
				"z": -3.3235315556,
				"element": "H" 
			},
			{
				"x": -3.6082634162,
				"y": -4.3172737418,
				"z": -2.04753661,
				"element": "H" 
			},
			{
				"x": -3.8887675501,
				"y": -3.6093980996,
				"z": 0.3116524811,
				"element": "H" 
			},
			{
				"x": 3.8072652274,
				"y": 1.6835508174,
				"z": 1.672021914,
				"element": "H" 
			},
			{
				"x": 3.4867878258,
				"y": 2.4193366136,
				"z": 3.99490652,
				"element": "H" 
			},
			{
				"x": 1.4961674122,
				"y": 1.6292894921,
				"z": 5.2810675368,
				"element": "H" 
			},
			{
				"x": -0.1397838865,
				"y": 0.1591695388,
				"z": 4.2390530056,
				"element": "H" 
			}
		],
		 "valence_orbital": [ 
			{
				"type": "occ",
				"energy": -0.26675,
				"method": "rhf"
			},
			{
				"type": "occ",
				"energy": -0.25265,
				"method": "rhf"
			},
			{
				"type": "occ",
				"energy": -0.23231,
				"method": "rhf"
			},
			{
				"type": "occ",
				"energy": -0.21796,
				"method": "rhf"
			},
			{
				"type": "occ",
				"energy": -0.18449,
				"method": "rhf"
			},
			{
				"type": "unocc",
				"energy": -0.03962,
				"method": "rhf"
			},
			{
				"type": "unocc",
				"energy": -0.02729,
				"method": "rhf"
			},
			{
				"type": "unocc",
				"energy": -0.01388,
				"method": "rhf"
			},
			{
				"type": "unocc",
				"energy": 0.02635,
				"method": "rhf"
			},
			{
				"type": "unocc",
				"energy": 0.0352,
				"method": "rhf"
			}
		],
		"cosmo_sigma_profile": { 
			"-0.025": 0.0,
			"-0.024": 0.0,
			"-0.023": 0.0,
			"-0.022": 0.0,
			"-0.021": 0.0,
			"-0.02": 0.0,
			"-0.019": 0.0,
			"-0.018": 0.0,
			"-0.017": 0.0,
			"-0.016": 0.0,
			"-0.015": 0.0,
			"-0.014": 0.0,
			"-0.013": 0.422678369785,
			"-0.012": 2.39199056636,
			"-0.011": 2.52463996923,
			"-0.01": 3.64827955505,
			"-0.009": 3.33505596984,
			"-0.008": 4.86543432348,
			"-0.007": 6.30757584381,
			"-0.006": 12.4592379882,
			"-0.005": 19.6627167826,
			"-0.004": 20.5381387776,
			"-0.003": 18.8979352031,
			"-0.002": 13.7299996655,
			"-0.001": 13.5074974084,
			"0.0": 11.4107350427,
			"0.001": 13.657053151,
			"0.002": 15.3885676406,
			"0.003": 20.8024887915,
			"0.004": 41.4124248612,
			"0.005": 34.2952477131,
			"0.006": 9.70807996196,
			"0.007": 0.755108496008,
			"0.008": 0.76592079983,
			"0.009": 1.07265018368,
			"0.01": 0.460965531699,
			"0.011": 0.583391634172,
			"0.012": 0.770283582406,
			"0.013": 0.627729171698,
			"0.014": 0.50595114913,
			"0.015": 0.0542155492115,
			"0.016": 0.0,
			"0.017": 0.0,
			"0.018": 0.0,
			"0.019": 0.0,
			"0.02": 0.0,
			"0.021": 0.0,
			"0.022": 0.0,
			"0.023": 0.0,
			"0.024": 0.0,
			"0.025": 0.0
		}
	}
}
