{
	 "smiles": "OC(=O)CCNS(=O)(=O)C1=CC2=C(OCCCO2)C=C1", 
	 "Tm": 475.15, 
	 "num_atms": 35, 
	 "gaussian": { 
		 "optdone": 1, 
		 "sigma_profile": "yes", 
		 "theory": "DFT", 
		 "functional": "B3LYP", 
		 "basiset": "6-31G**", 
		 "properties": { 
			 "R2extent": 8760.5114, 
			 "electric_dipole_moment_norm": 6.92667053208, 
			 "electric_quadrupole_moment_norm": 33.0257126243, 
			 "total_energy": -1370.52624402, 
			 "HOMO_LUMO_gap": 0.20155, 
			 "cosmo_polarized_energy": -22.04, 
			 "cosmo_cavitation_energy": 39.82, 
			 "cosmo_dispersion_energy": -29.1, 
			 "cosmo_repulsion_energy": 2.23, 
			 "cosmo_total_nonelectrostatic_energy": 12.95, 
			 "SMD_solvation_energy": 6.42 
		},
		"coords": [
			{
				"x": -0.0063049785,
				"y": -0.184564407,
				"z": 6.957987973,
				"element": "O" 
			},
			{
				"x": -0.6459915136,
				"y": 0.1275370491,
				"z": 5.8114413937,
				"element": "C" 
			},
			{
				"x": -1.8541984287,
				"y": 0.2402241549,
				"z": 5.7487441718,
				"element": "O" 
			},
			{
				"x": 0.3157102802,
				"y": 0.2904365429,
				"z": 4.6544272822,
				"element": "C" 
			},
			{
				"x": -0.31989513,
				"y": 0.9575248161,
				"z": 3.4339153728,
				"element": "C" 
			},
			{
				"x": -1.3968246834,
				"y": 0.1116872062,
				"z": 2.8990911459,
				"element": "N" 
			},
			{
				"x": -2.049100344,
				"y": 0.5614964602,
				"z": 1.4038135928,
				"element": "S" 
			},
			{
				"x": -1.9223567129,
				"y": 2.0105627664,
				"z": 1.1935849132,
				"element": "O" 
			},
			{
				"x": -3.3557027922,
				"y": -0.100727098,
				"z": 1.3532762018,
				"element": "O" 
			},
			{
				"x": -0.9381653195,
				"y": -0.2417185553,
				"z": 0.2527121836,
				"element": "C" 
			},
			{
				"x": -0.063289551,
				"y": 0.5353545481,
				"z": -0.5024442523,
				"element": "C" 
			},
			{
				"x": 0.7961657239,
				"y": -0.0725814732,
				"z": -1.4203500137,
				"element": "C" 
			},
			{
				"x": 0.7799141566,
				"y": -1.4779463967,
				"z": -1.5580445394,
				"element": "C" 
			},
			{
				"x": 1.5943227106,
				"y": -2.1719395358,
				"z": -2.4129107565,
				"element": "O" 
			},
			{
				"x": 2.9231486053,
				"y": -1.6593918091,
				"z": -2.6066810126,
				"element": "C" 
			},
			{
				"x": 2.9701099227,
				"y": -0.5849424094,
				"z": -3.6927882371,
				"element": "C" 
			},
			{
				"x": 1.8201057664,
				"y": 0.4097154214,
				"z": -3.5187217251,
				"element": "C" 
			},
			{
				"x": 1.6252572214,
				"y": 0.755305565,
				"z": -2.1381009076,
				"element": "O" 
			},
			{
				"x": -0.1316998101,
				"y": -2.2345045071,
				"z": -0.8094966647,
				"element": "C" 
			},
			{
				"x": -0.9975600685,
				"y": -1.6289611673,
				"z": 0.0918899404,
				"element": "C" 
			},
			{
				"x": -0.6946650729,
				"y": -0.2981972515,
				"z": 7.6355407354,
				"element": "H" 
			},
			{
				"x": 1.1807737556,
				"y": 0.8659940179,
				"z": 5.0001496835,
				"element": "H" 
			},
			{
				"x": 0.686467753,
				"y": -0.7078688251,
				"z": 4.3913060008,
				"element": "H" 
			},
			{
				"x": 0.4448532074,
				"y": 1.0661964325,
				"z": 2.6593405091,
				"element": "H" 
			},
			{
				"x": -0.6746852366,
				"y": 1.9639661526,
				"z": 3.687280522,
				"element": "H" 
			},
			{
				"x": -2.1666125828,
				"y": 0.0250973292,
				"z": 3.5641878497,
				"element": "H" 
			},
			{
				"x": -0.0604662626,
				"y": 1.6153025262,
				"z": -0.4104845696,
				"element": "H" 
			},
			{
				"x": 3.5320120501,
				"y": -2.5246799916,
				"z": -2.8813988989,
				"element": "H" 
			},
			{
				"x": 3.2999447962,
				"y": -1.263982941,
				"z": -1.6569378043,
				"element": "H" 
			},
			{
				"x": 3.9386483133,
				"y": -0.0747096092,
				"z": -3.6325095197,
				"element": "H" 
			},
			{
				"x": 2.8988914624,
				"y": -1.0359338252,
				"z": -4.6893152227,
				"element": "H" 
			},
			{
				"x": 2.029448147,
				"y": 1.3508931614,
				"z": -4.0339625488,
				"element": "H" 
			},
			{
				"x": 0.8884508161,
				"y": -0.0003761799,
				"z": -3.9244083102,
				"element": "H" 
			},
			{
				"x": -0.1285692828,
				"y": -3.3102340686,
				"z": -0.9510232191,
				"element": "H" 
			},
			{
				"x": -1.703736918,
				"y": -2.2171340994,
				"z": 0.6665887308,
				"element": "H" 
			}
		],
		 "valence_orbital": [ 
			{
				"type": "occ",
				"energy": -0.29063,
				"method": "rhf"
			},
			{
				"type": "occ",
				"energy": -0.28923,
				"method": "rhf"
			},
			{
				"type": "occ",
				"energy": -0.26546,
				"method": "rhf"
			},
			{
				"type": "occ",
				"energy": -0.25247,
				"method": "rhf"
			},
			{
				"type": "occ",
				"energy": -0.22674,
				"method": "rhf"
			},
			{
				"type": "unocc",
				"energy": -0.02519,
				"method": "rhf"
			},
			{
				"type": "unocc",
				"energy": -0.01076,
				"method": "rhf"
			},
			{
				"type": "unocc",
				"energy": -0.00676,
				"method": "rhf"
			},
			{
				"type": "unocc",
				"energy": 0.06131,
				"method": "rhf"
			},
			{
				"type": "unocc",
				"energy": 0.06753,
				"method": "rhf"
			}
		],
		"cosmo_sigma_profile": { 
			"-0.025": 0.0,
			"-0.024": 0.0,
			"-0.023": 0.0,
			"-0.022": 0.0,
			"-0.021": 0.0,
			"-0.02": 0.0,
			"-0.019": 0.241832608284,
			"-0.018": 0.971901636967,
			"-0.017": 0.874568321636,
			"-0.016": 0.719931302001,
			"-0.015": 1.00580183715,
			"-0.014": 0.214524493963,
			"-0.013": 0.276305681058,
			"-0.012": 1.35576227997,
			"-0.011": 1.17207855588,
			"-0.01": 0.563056118963,
			"-0.009": 0.393449667954,
			"-0.008": 2.06691512672,
			"-0.007": 10.7812871028,
			"-0.006": 19.8780529746,
			"-0.005": 31.3432030516,
			"-0.004": 33.547857777,
			"-0.003": 26.823546507,
			"-0.002": 20.2689608102,
			"-0.001": 15.9507330253,
			"0.0": 13.7020532261,
			"0.001": 19.4062252605,
			"0.002": 17.6284911475,
			"0.003": 14.5346149538,
			"0.004": 9.4684393883,
			"0.005": 9.66024843728,
			"0.006": 7.67404799559,
			"0.007": 7.38994628389,
			"0.008": 9.16394908289,
			"0.009": 8.76076494851,
			"0.01": 10.7532283184,
			"0.011": 12.8798699352,
			"0.012": 5.1570268184,
			"0.013": 0.0024553566163,
			"0.014": 0.0,
			"0.015": 0.0,
			"0.016": 0.0,
			"0.017": 0.0,
			"0.018": 0.0,
			"0.019": 0.0,
			"0.02": 0.0,
			"0.021": 0.0,
			"0.022": 0.0,
			"0.023": 0.0,
			"0.024": 0.0,
			"0.025": 0.0
		}
	}
}
