{
	 "smiles": "COC1=CC2=C(NC(NCC3=CC=CC=C3)=N2)C=C1", 
	 "Tm": 453.15, 
	 "num_atms": 34, 
	 "gaussian": { 
		 "optdone": 1, 
		 "sigma_profile": "yes", 
		 "theory": "DFT", 
		 "functional": "B3LYP", 
		 "basiset": "6-31G**", 
		 "properties": { 
			 "R2extent": 7789.2758, 
			 "electric_dipole_moment_norm": 3.99907522935, 
			 "electric_quadrupole_moment_norm": 14.5060694208, 
			 "total_energy": -820.117197776, 
			 "HOMO_LUMO_gap": 0.1818, 
			 "cosmo_polarized_energy": -18.72, 
			 "cosmo_cavitation_energy": 37.82, 
			 "cosmo_dispersion_energy": -27.62, 
			 "cosmo_repulsion_energy": 2.12, 
			 "cosmo_total_nonelectrostatic_energy": 12.32, 
			 "SMD_solvation_energy": 4.44 
		},
		"coords": [
			{
				"x": 2.2007893933,
				"y": -1.5503578021,
				"z": -5.5471695925,
				"element": "C" 
			},
			{
				"x": 0.998029029,
				"y": -1.4034985506,
				"z": -4.8176667051,
				"element": "O" 
			},
			{
				"x": 1.069635763,
				"y": -1.3429030625,
				"z": -3.4476816213,
				"element": "C" 
			},
			{
				"x": -0.1617473076,
				"y": -1.1958479882,
				"z": -2.7952560139,
				"element": "C" 
			},
			{
				"x": -0.1681102033,
				"y": -1.1317757366,
				"z": -1.4043630367,
				"element": "C" 
			},
			{
				"x": 1.0523990949,
				"y": -1.2056150453,
				"z": -0.6879656874,
				"element": "C" 
			},
			{
				"x": 0.6799210301,
				"y": -1.0837316101,
				"z": 0.6542301745,
				"element": "N" 
			},
			{
				"x": -0.6991456864,
				"y": -0.9868714351,
				"z": 0.6692614178,
				"element": "C" 
			},
			{
				"x": -1.3805213408,
				"y": -0.951123775,
				"z": 1.8634960277,
				"element": "N" 
			},
			{
				"x": -2.8269892047,
				"y": -0.685794593,
				"z": 1.8618426085,
				"element": "C" 
			},
			{
				"x": -3.1906670466,
				"y": 0.7864426737,
				"z": 1.9170739875,
				"element": "C" 
			},
			{
				"x": -3.0769784124,
				"y": 1.5962423559,
				"z": 0.7760287831,
				"element": "C" 
			},
			{
				"x": -3.3865292942,
				"y": 2.9542843025,
				"z": 0.8429396807,
				"element": "C" 
			},
			{
				"x": -3.8158680055,
				"y": 3.5223879908,
				"z": 2.0458169731,
				"element": "C" 
			},
			{
				"x": -3.9359687809,
				"y": 2.7242154322,
				"z": 3.1836870799,
				"element": "C" 
			},
			{
				"x": -3.6242568238,
				"y": 1.3642367204,
				"z": 3.1165342605,
				"element": "C" 
			},
			{
				"x": -1.2406883807,
				"y": -0.9859795433,
				"z": -0.5287263684,
				"element": "N" 
			},
			{
				"x": 2.2744014671,
				"y": -1.3467067229,
				"z": -1.3249548519,
				"element": "C" 
			},
			{
				"x": 2.2743302832,
				"y": -1.4204823798,
				"z": -2.7248151146,
				"element": "C" 
			},
			{
				"x": 2.886470486,
				"y": -0.7080204214,
				"z": -5.3816255046,
				"element": "H" 
			},
			{
				"x": 1.9154195862,
				"y": -1.5746140458,
				"z": -6.6006527614,
				"element": "H" 
			},
			{
				"x": 2.7213916604,
				"y": -2.4847426673,
				"z": -5.2961731366,
				"element": "H" 
			},
			{
				"x": -1.0771240686,
				"y": -1.1392316172,
				"z": -3.3730525611,
				"element": "H" 
			},
			{
				"x": 1.2586104293,
				"y": -1.2970167881,
				"z": 1.4512755456,
				"element": "H" 
			},
			{
				"x": -0.8785013933,
				"y": -0.5017517897,
				"z": 2.6192840356,
				"element": "H" 
			},
			{
				"x": -3.2208455626,
				"y": -1.1501662168,
				"z": 0.9557598269,
				"element": "H" 
			},
			{
				"x": -3.257872733,
				"y": -1.2064190278,
				"z": 2.7237733018,
				"element": "H" 
			},
			{
				"x": -2.7432046777,
				"y": 1.1484344833,
				"z": -0.1554294889,
				"element": "H" 
			},
			{
				"x": -3.2981405539,
				"y": 3.5708492758,
				"z": -0.0473395712,
				"element": "H" 
			},
			{
				"x": -4.0596398252,
				"y": 4.5800272756,
				"z": 2.0933591678,
				"element": "H" 
			},
			{
				"x": -4.2748204397,
				"y": 3.1566817067,
				"z": 4.1210743243,
				"element": "H" 
			},
			{
				"x": -3.7264223146,
				"y": 0.7431796709,
				"z": 4.0042649942,
				"element": "H" 
			},
			{
				"x": 3.208844709,
				"y": -1.4024058589,
				"z": -0.774251924,
				"element": "H" 
			},
			{
				"x": 3.219399124,
				"y": -1.5364252102,
				"z": -3.2403782499,
				"element": "H" 
			}
		],
		 "valence_orbital": [ 
			{
				"type": "occ",
				"energy": -0.26329,
				"method": "rhf"
			},
			{
				"type": "occ",
				"energy": -0.24739,
				"method": "rhf"
			},
			{
				"type": "occ",
				"energy": -0.24218,
				"method": "rhf"
			},
			{
				"type": "occ",
				"energy": -0.20218,
				"method": "rhf"
			},
			{
				"type": "occ",
				"energy": -0.18722,
				"method": "rhf"
			},
			{
				"type": "unocc",
				"energy": -0.00542,
				"method": "rhf"
			},
			{
				"type": "unocc",
				"energy": 0.00181,
				"method": "rhf"
			},
			{
				"type": "unocc",
				"energy": 0.007,
				"method": "rhf"
			},
			{
				"type": "unocc",
				"energy": 0.04209,
				"method": "rhf"
			},
			{
				"type": "unocc",
				"energy": 0.07003,
				"method": "rhf"
			}
		],
		"cosmo_sigma_profile": { 
			"-0.025": 0.0,
			"-0.024": 0.0,
			"-0.023": 0.0,
			"-0.022": 0.0,
			"-0.021": 0.0,
			"-0.02": 0.0,
			"-0.019": 0.0,
			"-0.018": 0.0,
			"-0.017": 0.00599535523633,
			"-0.016": 1.42142259598,
			"-0.015": 2.89090601313,
			"-0.014": 2.29297945459,
			"-0.013": 2.74599563525,
			"-0.012": 1.40594349149,
			"-0.011": 1.8211295647,
			"-0.01": 1.91741403466,
			"-0.009": 1.88488045775,
			"-0.008": 2.00556110822,
			"-0.007": 2.48269111282,
			"-0.006": 9.69238702611,
			"-0.005": 24.8044025369,
			"-0.004": 27.1824718663,
			"-0.003": 26.0315609345,
			"-0.002": 18.8272430361,
			"-0.001": 18.1888653199,
			"0.0": 14.8583114106,
			"0.001": 14.5716601123,
			"0.002": 16.6000024627,
			"0.003": 18.7786294088,
			"0.004": 19.2688720495,
			"0.005": 23.3477060591,
			"0.006": 24.1404036879,
			"0.007": 8.49918177111,
			"0.008": 3.40865385439,
			"0.009": 3.55362142666,
			"0.01": 2.90555594712,
			"0.011": 2.17732706322,
			"0.012": 1.41081515996,
			"0.013": 0.700283621374,
			"0.014": 0.775989765943,
			"0.015": 0.57053862991,
			"0.016": 0.178401891812,
			"0.017": 0.0,
			"0.018": 0.0,
			"0.019": 0.0,
			"0.02": 0.0,
			"0.021": 0.0,
			"0.022": 0.0,
			"0.023": 0.0,
			"0.024": 0.0,
			"0.025": 0.0
		}
	}
}
