{
	 "smiles": "OC(=O)CNC(=O)CN1C=NC=N1", 
	 "Tm": 480.15, 
	 "num_atms": 21, 
	 "gaussian": { 
		 "optdone": 1, 
		 "sigma_profile": "yes", 
		 "theory": "DFT", 
		 "functional": "B3LYP", 
		 "basiset": "6-31G**", 
		 "properties": { 
			 "R2extent": 2955.3478, 
			 "electric_dipole_moment_norm": 3.43503500273, 
			 "electric_quadrupole_moment_norm": 17.9951631904, 
			 "total_energy": -678.126024772, 
			 "HOMO_LUMO_gap": 0.24714, 
			 "cosmo_polarized_energy": -25.32, 
			 "cosmo_cavitation_energy": 26.59, 
			 "cosmo_dispersion_energy": -18.61, 
			 "cosmo_repulsion_energy": 1.49, 
			 "cosmo_total_nonelectrostatic_energy": 9.48, 
			 "SMD_solvation_energy": 4.02 
		},
		"coords": [
			{
				"x": -2.7943779594,
				"y": 0.9813746247,
				"z": -2.8973896142,
				"element": "O" 
			},
			{
				"x": -1.447526091,
				"y": 0.8938771249,
				"z": -2.8727468214,
				"element": "C" 
			},
			{
				"x": -0.8120344864,
				"y": 0.7460471902,
				"z": -3.885957006,
				"element": "O" 
			},
			{
				"x": -0.8149885836,
				"y": 0.9653195327,
				"z": -1.483156986,
				"element": "C" 
			},
			{
				"x": 0.6224246983,
				"y": 0.9303524426,
				"z": -1.6225360443,
				"element": "N" 
			},
			{
				"x": 1.5831280265,
				"y": 1.3467328015,
				"z": -0.7484836669,
				"element": "C" 
			},
			{
				"x": 2.7691945516,
				"y": 1.3684708512,
				"z": -1.0418446474,
				"element": "O" 
			},
			{
				"x": 1.1476629072,
				"y": 1.8419881017,
				"z": 0.6446008173,
				"element": "C" 
			},
			{
				"x": 0.1803332784,
				"y": 1.0110982389,
				"z": 1.3472016862,
				"element": "N" 
			},
			{
				"x": 0.3153457273,
				"y": -0.249462673,
				"z": 1.8235594358,
				"element": "C" 
			},
			{
				"x": -0.800989263,
				"y": -0.6452703749,
				"z": 2.4123249009,
				"element": "N" 
			},
			{
				"x": -1.6100875148,
				"y": 0.4412158613,
				"z": 2.2701904977,
				"element": "C" 
			},
			{
				"x": -1.0696158038,
				"y": 1.4713873377,
				"z": 1.6330736936,
				"element": "N" 
			},
			{
				"x": -3.1523969173,
				"y": 1.1029355369,
				"z": -2.0053573335,
				"element": "H" 
			},
			{
				"x": -1.2005420162,
				"y": 0.1178075215,
				"z": -0.8964335986,
				"element": "H" 
			},
			{
				"x": -1.1587007446,
				"y": 1.873895192,
				"z": -0.9745445933,
				"element": "H" 
			},
			{
				"x": 0.9542952926,
				"y": 0.6933817297,
				"z": -2.5529456153,
				"element": "H" 
			},
			{
				"x": 2.0654516812,
				"y": 1.9264552826,
				"z": 1.2290216584,
				"element": "H" 
			},
			{
				"x": 0.6974616008,
				"y": 2.8351129836,
				"z": 0.5662069713,
				"element": "H" 
			},
			{
				"x": 1.2265924646,
				"y": -0.8230332978,
				"z": 1.7201340057,
				"element": "H" 
			},
			{
				"x": -2.6221308487,
				"y": 0.478413992,
				"z": 2.6498822601,
				"element": "H" 
			}
		],
		 "valence_orbital": [ 
			{
				"type": "occ",
				"energy": -0.30475,
				"method": "rhf"
			},
			{
				"type": "occ",
				"energy": -0.29368,
				"method": "rhf"
			},
			{
				"type": "occ",
				"energy": -0.28844,
				"method": "rhf"
			},
			{
				"type": "occ",
				"energy": -0.27424,
				"method": "rhf"
			},
			{
				"type": "occ",
				"energy": -0.26573,
				"method": "rhf"
			},
			{
				"type": "unocc",
				"energy": -0.01859,
				"method": "rhf"
			},
			{
				"type": "unocc",
				"energy": -0.01627,
				"method": "rhf"
			},
			{
				"type": "unocc",
				"energy": -0.00252,
				"method": "rhf"
			},
			{
				"type": "unocc",
				"energy": 0.03129,
				"method": "rhf"
			},
			{
				"type": "unocc",
				"energy": 0.0353,
				"method": "rhf"
			}
		],
		"cosmo_sigma_profile": { 
			"-0.025": 0.0,
			"-0.024": 0.0,
			"-0.023": 0.0,
			"-0.022": 0.0,
			"-0.021": 0.0247855190474,
			"-0.02": 0.654096576606,
			"-0.019": 1.31006903634,
			"-0.018": 1.61231519772,
			"-0.017": 1.27123406152,
			"-0.016": 0.808274056326,
			"-0.015": 1.2207505366,
			"-0.014": 0.883933795519,
			"-0.013": 0.872482729968,
			"-0.012": 1.55843773635,
			"-0.011": 2.97526640712,
			"-0.01": 6.46918189199,
			"-0.009": 9.11777601323,
			"-0.008": 11.2928909078,
			"-0.007": 9.60552462946,
			"-0.006": 9.42082255235,
			"-0.005": 10.6409446262,
			"-0.004": 10.9696729408,
			"-0.003": 9.43959531421,
			"-0.002": 9.11103336438,
			"-0.001": 9.6889782705,
			"0.0": 8.78480855942,
			"0.001": 8.41018619571,
			"0.002": 7.63427730732,
			"0.003": 6.53474196026,
			"0.004": 5.31085111727,
			"0.005": 5.64564154271,
			"0.006": 5.900499161,
			"0.007": 5.63941404016,
			"0.008": 7.11056043633,
			"0.009": 7.97839492608,
			"0.01": 8.16451664697,
			"0.011": 7.06728258809,
			"0.012": 5.76791027141,
			"0.013": 7.81746454266,
			"0.014": 3.1756979723,
			"0.015": 1.14030608485,
			"0.016": 0.788245402533,
			"0.017": 0.152390533821,
			"0.018": 0.0,
			"0.019": 0.0,
			"0.02": 0.0,
			"0.021": 0.0,
			"0.022": 0.0,
			"0.023": 0.0,
			"0.024": 0.0,
			"0.025": 0.0
		}
	}
}
