{
	 "smiles": "CC1=CC(=O)N2N=C(N=C2N1)C(F)(F)F", 
	 "Tm": 487.15, 
	 "num_atms": 20, 
	 "gaussian": { 
		 "optdone": 1, 
		 "sigma_profile": "yes", 
		 "theory": "DFT", 
		 "functional": "B3LYP", 
		 "basiset": "6-31G**", 
		 "properties": { 
			 "R2extent": 4629.2753, 
			 "electric_dipole_moment_norm": 8.41359676298, 
			 "electric_quadrupole_moment_norm": 8.03258325323, 
			 "total_energy": -863.505106428, 
			 "HOMO_LUMO_gap": 0.19659, 
			 "cosmo_polarized_energy": -21.9, 
			 "cosmo_cavitation_energy": 27.15, 
			 "cosmo_dispersion_energy": -19.66, 
			 "cosmo_repulsion_energy": 1.47, 
			 "cosmo_total_nonelectrostatic_energy": 8.96, 
			 "SMD_solvation_energy": 3.95 
		},
		"coords": [
			{
				"x": 2.4344967124,
				"y": -1.5089395222,
				"z": 0.3153079182,
				"element": "C" 
			},
			{
				"x": 1.1396453559,
				"y": -0.9935805743,
				"z": -0.2408350887,
				"element": "C" 
			},
			{
				"x": 0.334352748,
				"y": -1.6978526862,
				"z": -1.0844357687,
				"element": "C" 
			},
			{
				"x": -0.9232740238,
				"y": -1.1946330864,
				"z": -1.6233762688,
				"element": "C" 
			},
			{
				"x": -1.6823255953,
				"y": -1.7662341022,
				"z": -2.3738108863,
				"element": "O" 
			},
			{
				"x": -1.1885577996,
				"y": 0.1352216392,
				"z": -1.1427755191,
				"element": "N" 
			},
			{
				"x": -2.2754761351,
				"y": 0.8979999299,
				"z": -1.4492495271,
				"element": "N" 
			},
			{
				"x": -2.0326823288,
				"y": 1.9995259357,
				"z": -0.7628269364,
				"element": "C" 
			},
			{
				"x": -0.8792724325,
				"y": 2.0319400322,
				"z": -0.0286936928,
				"element": "N" 
			},
			{
				"x": -0.3801483747,
				"y": 0.8427931713,
				"z": -0.2954899184,
				"element": "C" 
			},
			{
				"x": 0.7801775235,
				"y": 0.2799125451,
				"z": 0.1538033119,
				"element": "N" 
			},
			{
				"x": -2.9981998577,
				"y": 3.1585425603,
				"z": -0.8012003557,
				"element": "C" 
			},
			{
				"x": -3.1507368161,
				"y": 3.6184143167,
				"z": -2.0575837818,
				"element": "F" 
			},
			{
				"x": -4.2135289989,
				"y": 2.7894056355,
				"z": -0.3540556768,
				"element": "F" 
			},
			{
				"x": -2.5592905763,
				"y": 4.169153284,
				"z": -0.0355896557,
				"element": "F" 
			},
			{
				"x": 3.2702421415,
				"y": -0.8636571766,
				"z": 0.0210101488,
				"element": "H" 
			},
			{
				"x": 2.6344099891,
				"y": -2.5166315696,
				"z": -0.049780627,
				"element": "H" 
			},
			{
				"x": 2.4046961643,
				"y": -1.5388072977,
				"z": 1.4106117993,
				"element": "H" 
			},
			{
				"x": 0.6156607101,
				"y": -2.6957992097,
				"z": -1.3939146782,
				"element": "H" 
			},
			{
				"x": 1.3559115941,
				"y": 0.826926175,
				"z": 0.778085203,
				"element": "H" 
			}
		],
		 "valence_orbital": [ 
			{
				"type": "occ",
				"energy": -0.31837,
				"method": "rhf"
			},
			{
				"type": "occ",
				"energy": -0.30891,
				"method": "rhf"
			},
			{
				"type": "occ",
				"energy": -0.29531,
				"method": "rhf"
			},
			{
				"type": "occ",
				"energy": -0.27837,
				"method": "rhf"
			},
			{
				"type": "occ",
				"energy": -0.25363,
				"method": "rhf"
			},
			{
				"type": "unocc",
				"energy": -0.05704,
				"method": "rhf"
			},
			{
				"type": "unocc",
				"energy": -0.02852,
				"method": "rhf"
			},
			{
				"type": "unocc",
				"energy": 0.02164,
				"method": "rhf"
			},
			{
				"type": "unocc",
				"energy": 0.03804,
				"method": "rhf"
			},
			{
				"type": "unocc",
				"energy": 0.089,
				"method": "rhf"
			}
		],
		"cosmo_sigma_profile": { 
			"-0.025": 0.0,
			"-0.024": 0.0,
			"-0.023": 0.0,
			"-0.022": 0.0,
			"-0.021": 0.0,
			"-0.02": 0.0,
			"-0.019": 0.0716442498276,
			"-0.018": 1.05665543997,
			"-0.017": 1.32739291959,
			"-0.016": 1.31376845887,
			"-0.015": 0.925422147502,
			"-0.014": 1.43980388693,
			"-0.013": 1.14367837444,
			"-0.012": 0.99601623583,
			"-0.011": 1.1245396791,
			"-0.01": 1.75348246489,
			"-0.009": 2.33699740629,
			"-0.008": 4.57574118221,
			"-0.007": 9.64798743404,
			"-0.006": 10.1478117503,
			"-0.005": 11.8067587203,
			"-0.004": 12.9794954972,
			"-0.003": 16.4932937388,
			"-0.002": 12.5884606721,
			"-0.001": 8.9763584524,
			"0.0": 10.7148769171,
			"0.001": 14.4617177062,
			"0.002": 32.1886314056,
			"0.003": 15.1254222418,
			"0.004": 4.45296305378,
			"0.005": 4.18285708927,
			"0.006": 4.13584433626,
			"0.007": 3.46330609158,
			"0.008": 2.77346218516,
			"0.009": 3.46522606809,
			"0.01": 4.22404019093,
			"0.011": 5.60734260631,
			"0.012": 6.97200499199,
			"0.013": 4.64678521441,
			"0.014": 1.34566832295,
			"0.015": 0.0,
			"0.016": 0.0,
			"0.017": 0.0,
			"0.018": 0.0,
			"0.019": 0.0,
			"0.02": 0.0,
			"0.021": 0.0,
			"0.022": 0.0,
			"0.023": 0.0,
			"0.024": 0.0,
			"0.025": 0.0
		}
	}
}
