{
	 "smiles": "O=CC(C=O)C1=CC=NC=C1", 
	 "Tm": 593.15, 
	 "num_atms": 18, 
	 "gaussian": { 
		 "optdone": 1, 
		 "sigma_profile": "yes", 
		 "theory": "DFT", 
		 "functional": "B3LYP", 
		 "basiset": "6-31G**", 
		 "properties": { 
			 "R2extent": 1904.2409, 
			 "electric_dipole_moment_norm": 1.99170923079, 
			 "electric_quadrupole_moment_norm": 11.9477869541, 
			 "total_energy": -514.225145677, 
			 "HOMO_LUMO_gap": 0.19616, 
			 "cosmo_polarized_energy": -12.33, 
			 "cosmo_cavitation_energy": 23.2, 
			 "cosmo_dispersion_energy": -16.38, 
			 "cosmo_repulsion_energy": 1.33, 
			 "cosmo_total_nonelectrostatic_energy": 8.14, 
			 "SMD_solvation_energy": 4.71 
		},
		"coords": [
			{
				"x": -3.602230557,
				"y": 0.3930365401,
				"z": -0.1414974414,
				"element": "O" 
			},
			{
				"x": -2.72480793,
				"y": -0.2854145235,
				"z": -0.6137288328,
				"element": "C" 
			},
			{
				"x": -1.6012883809,
				"y": -0.9169896817,
				"z": 0.2319086824,
				"element": "C" 
			},
			{
				"x": -1.5334455139,
				"y": -2.4117499944,
				"z": -0.0641668103,
				"element": "C" 
			},
			{
				"x": -1.4424411547,
				"y": -2.8616508077,
				"z": -1.1858768205,
				"element": "O" 
			},
			{
				"x": -0.2963833981,
				"y": -0.1980934967,
				"z": -0.0984833942,
				"element": "C" 
			},
			{
				"x": 0.228686481,
				"y": 0.7412778552,
				"z": 0.79574909,
				"element": "C" 
			},
			{
				"x": 1.4013424758,
				"y": 1.4149076939,
				"z": 0.4547049383,
				"element": "C" 
			},
			{
				"x": 2.0653865978,
				"y": 1.2225441898,
				"z": -0.691749907,
				"element": "N" 
			},
			{
				"x": 1.5527290402,
				"y": 0.3256643441,
				"z": -1.542463502,
				"element": "C" 
			},
			{
				"x": 0.3869525557,
				"y": -0.4040879379,
				"z": -1.3024409414,
				"element": "C" 
			},
			{
				"x": -2.6498131354,
				"y": -0.499051534,
				"z": -1.6989496349,
				"element": "H" 
			},
			{
				"x": -1.8556079409,
				"y": -0.7556322541,
				"z": 1.2828045417,
				"element": "H" 
			},
			{
				"x": -1.5911420143,
				"y": -3.0794140092,
				"z": 0.8204003,
				"element": "H" 
			},
			{
				"x": -0.264078952,
				"y": 0.9473323046,
				"z": 1.7412710202,
				"element": "H" 
			},
			{
				"x": 1.8267418034,
				"y": 2.1457252634,
				"z": 1.1402341747,
				"element": "H" 
			},
			{
				"x": 2.1015519137,
				"y": 0.1769333104,
				"z": -2.4706508004,
				"element": "H" 
			},
			{
				"x": 0.0321481095,
				"y": -1.1287372623,
				"z": -2.0267646625,
				"element": "H" 
			}
		],
		 "valence_orbital": [ 
			{
				"type": "occ",
				"energy": -0.30566,
				"method": "rhf"
			},
			{
				"type": "occ",
				"energy": -0.29398,
				"method": "rhf"
			},
			{
				"type": "occ",
				"energy": -0.27406,
				"method": "rhf"
			},
			{
				"type": "occ",
				"energy": -0.26325,
				"method": "rhf"
			},
			{
				"type": "occ",
				"energy": -0.26107,
				"method": "rhf"
			},
			{
				"type": "unocc",
				"energy": -0.06491,
				"method": "rhf"
			},
			{
				"type": "unocc",
				"energy": -0.05449,
				"method": "rhf"
			},
			{
				"type": "unocc",
				"energy": -0.02482,
				"method": "rhf"
			},
			{
				"type": "unocc",
				"energy": -0.01048,
				"method": "rhf"
			},
			{
				"type": "unocc",
				"energy": 0.07853,
				"method": "rhf"
			}
		],
		"cosmo_sigma_profile": { 
			"-0.025": 0.0,
			"-0.024": 0.0,
			"-0.023": 0.0,
			"-0.022": 0.0,
			"-0.021": 0.0,
			"-0.02": 0.0,
			"-0.019": 0.0,
			"-0.018": 0.0,
			"-0.017": 0.0,
			"-0.016": 0.0,
			"-0.015": 0.0,
			"-0.014": 0.0,
			"-0.013": 0.0,
			"-0.012": 0.0,
			"-0.011": 0.0,
			"-0.01": 0.13687455017,
			"-0.009": 4.12833227728,
			"-0.008": 11.0677865291,
			"-0.007": 11.177124477,
			"-0.006": 15.1727975469,
			"-0.005": 13.2572408513,
			"-0.004": 10.5580429135,
			"-0.003": 10.9155517837,
			"-0.002": 8.60113638728,
			"-0.001": 9.32829125712,
			"0.0": 10.8827419631,
			"0.001": 13.4124041146,
			"0.002": 14.238147847,
			"0.003": 5.36278497104,
			"0.004": 4.61701423697,
			"0.005": 4.26774385234,
			"0.006": 4.68392790618,
			"0.007": 4.1054704242,
			"0.008": 5.82097910091,
			"0.009": 6.68328389788,
			"0.01": 8.14182902676,
			"0.011": 4.79561421102,
			"0.012": 0.729970114798,
			"0.013": 1.12031709276,
			"0.014": 0.939414106084,
			"0.015": 0.961759636743,
			"0.016": 0.678004605019,
			"0.017": 0.294711963212,
			"0.018": 0.0,
			"0.019": 0.0,
			"0.02": 0.0,
			"0.021": 0.0,
			"0.022": 0.0,
			"0.023": 0.0,
			"0.024": 0.0,
			"0.025": 0.0
		}
	}
}
