{
	 "smiles": "CC1(CCCN1C(=O)OCC1=CC=CC=C1)C(O)=O", 
	 "Tm": 393.15, 
	 "num_atms": 36, 
	 "gaussian": { 
		 "optdone": 1, 
		 "sigma_profile": "yes", 
		 "theory": "DFT", 
		 "functional": "B3LYP", 
		 "basiset": "6-31G**", 
		 "properties": { 
			 "R2extent": 5424.7522, 
			 "electric_dipole_moment_norm": 2.60581872547, 
			 "electric_quadrupole_moment_norm": 23.9846351967, 
			 "total_energy": -899.41986015, 
			 "HOMO_LUMO_gap": 0.23292, 
			 "cosmo_polarized_energy": -16.73, 
			 "cosmo_cavitation_energy": 38.55, 
			 "cosmo_dispersion_energy": -25.81, 
			 "cosmo_repulsion_energy": 1.99, 
			 "cosmo_total_nonelectrostatic_energy": 14.72, 
			 "SMD_solvation_energy": 8.2 
		},
		"coords": [
			{
				"x": -0.4484727896,
				"y": 1.9412023019,
				"z": 2.5168073845,
				"element": "C" 
			},
			{
				"x": -0.5800031866,
				"y": 2.3554948474,
				"z": 1.0446684014,
				"element": "C" 
			},
			{
				"x": -0.5868548601,
				"y": 3.9135743694,
				"z": 0.9077780929,
				"element": "C" 
			},
			{
				"x": 0.2314977714,
				"y": 4.219732314,
				"z": -0.3536617137,
				"element": "C" 
			},
			{
				"x": 1.318071502,
				"y": 3.1446381567,
				"z": -0.3165306276,
				"element": "C" 
			},
			{
				"x": 0.5810131533,
				"y": 1.9744552122,
				"z": 0.1904819378,
				"element": "N" 
			},
			{
				"x": 1.203313667,
				"y": 0.7450369321,
				"z": 0.1628730751,
				"element": "C" 
			},
			{
				"x": 2.3132062426,
				"y": 0.5550534509,
				"z": -0.3011764768,
				"element": "O" 
			},
			{
				"x": 0.3939759104,
				"y": -0.2237282718,
				"z": 0.6616716113,
				"element": "O" 
			},
			{
				"x": 0.8565075469,
				"y": -1.5882810701,
				"z": 0.4689697582,
				"element": "C" 
			},
			{
				"x": 0.5250397923,
				"y": -2.0946357939,
				"z": -0.9130871765,
				"element": "C" 
			},
			{
				"x": 1.5388725755,
				"y": -2.3404730466,
				"z": -1.8458754774,
				"element": "C" 
			},
			{
				"x": 1.2254643877,
				"y": -2.8102371058,
				"z": -3.1227535336,
				"element": "C" 
			},
			{
				"x": -0.1061726004,
				"y": -3.0248782658,
				"z": -3.4812166927,
				"element": "C" 
			},
			{
				"x": -1.1252657464,
				"y": -2.7682397417,
				"z": -2.5599303313,
				"element": "C" 
			},
			{
				"x": -0.8107547857,
				"y": -2.3079868532,
				"z": -1.2821040026,
				"element": "C" 
			},
			{
				"x": -1.9121362962,
				"y": 1.8056481963,
				"z": 0.4736166836,
				"element": "C" 
			},
			{
				"x": -1.8841369944,
				"y": 1.385728053,
				"z": -0.8053825672,
				"element": "O" 
			},
			{
				"x": -2.9352873391,
				"y": 1.8159794798,
				"z": 1.1152326184,
				"element": "O" 
			},
			{
				"x": -1.2967603134,
				"y": 2.3451936407,
				"z": 3.0727751513,
				"element": "H" 
			},
			{
				"x": 0.4785529227,
				"y": 2.3451898851,
				"z": 2.9348609846,
				"element": "H" 
			},
			{
				"x": -0.4479836222,
				"y": 0.8574105116,
				"z": 2.631758069,
				"element": "H" 
			},
			{
				"x": -1.605749895,
				"y": 4.3060088642,
				"z": 0.8849226787,
				"element": "H" 
			},
			{
				"x": -0.091032958,
				"y": 4.33825532,
				"z": 1.7874089594,
				"element": "H" 
			},
			{
				"x": -0.3840290074,
				"y": 4.1030250634,
				"z": -1.2526662638,
				"element": "H" 
			},
			{
				"x": 0.6426747219,
				"y": 5.232333527,
				"z": -0.3570712098,
				"element": "H" 
			},
			{
				"x": 1.7605028822,
				"y": 2.9132364328,
				"z": -1.2870906264,
				"element": "H" 
			},
			{
				"x": 2.1353317593,
				"y": 3.4174987124,
				"z": 0.364924454,
				"element": "H" 
			},
			{
				"x": 1.9300962587,
				"y": -1.6289384346,
				"z": 0.6604301155,
				"element": "H" 
			},
			{
				"x": 0.323969934,
				"y": -2.1501055264,
				"z": 1.2395430247,
				"element": "H" 
			},
			{
				"x": 2.5721542877,
				"y": -2.1498962803,
				"z": -1.5714961009,
				"element": "H" 
			},
			{
				"x": 2.020270946,
				"y": -3.0016967451,
				"z": -3.8380035214,
				"element": "H" 
			},
			{
				"x": -0.3508354042,
				"y": -3.3884646645,
				"z": -4.475251531,
				"element": "H" 
			},
			{
				"x": -2.1632749297,
				"y": -2.9295131741,
				"z": -2.8360098309,
				"element": "H" 
			},
			{
				"x": -1.6045632898,
				"y": -2.1042499247,
				"z": -0.5682132288,
				"element": "H" 
			},
			{
				"x": -0.9560022433,
				"y": 1.4030296276,
				"z": -1.0974020878,
				"element": "H" 
			}
		],
		 "valence_orbital": [ 
			{
				"type": "occ",
				"energy": -0.28637,
				"method": "rhf"
			},
			{
				"type": "occ",
				"energy": -0.28251,
				"method": "rhf"
			},
			{
				"type": "occ",
				"energy": -0.25293,
				"method": "rhf"
			},
			{
				"type": "occ",
				"energy": -0.25176,
				"method": "rhf"
			},
			{
				"type": "occ",
				"energy": -0.24624,
				"method": "rhf"
			},
			{
				"type": "unocc",
				"energy": -0.01332,
				"method": "rhf"
			},
			{
				"type": "unocc",
				"energy": -0.00281,
				"method": "rhf"
			},
			{
				"type": "unocc",
				"energy": 0.01288,
				"method": "rhf"
			},
			{
				"type": "unocc",
				"energy": 0.03127,
				"method": "rhf"
			},
			{
				"type": "unocc",
				"energy": 0.06203,
				"method": "rhf"
			}
		],
		"cosmo_sigma_profile": { 
			"-0.025": 0.0,
			"-0.024": 0.0,
			"-0.023": 0.0,
			"-0.022": 0.0,
			"-0.021": 0.0,
			"-0.02": 0.0,
			"-0.019": 0.0,
			"-0.018": 0.0,
			"-0.017": 0.0,
			"-0.016": 0.0,
			"-0.015": 0.363728420656,
			"-0.014": 0.331243617468,
			"-0.013": 0.552125822872,
			"-0.012": 0.986111998837,
			"-0.011": 1.10217332467,
			"-0.01": 1.20547209778,
			"-0.009": 0.576086643586,
			"-0.008": 1.10032157352,
			"-0.007": 2.07068827926,
			"-0.006": 11.9380767135,
			"-0.005": 30.5206725536,
			"-0.004": 38.1346928839,
			"-0.003": 32.6070022262,
			"-0.002": 26.7130871585,
			"-0.001": 23.7299326085,
			"0.0": 17.0403624003,
			"0.001": 15.9748608201,
			"0.002": 12.8423902557,
			"0.003": 14.2392451813,
			"0.004": 12.3566432569,
			"0.005": 13.9585157108,
			"0.006": 7.03546291866,
			"0.007": 4.38494039075,
			"0.008": 4.74792470344,
			"0.009": 5.09209545573,
			"0.01": 5.66550236185,
			"0.011": 6.42303044785,
			"0.012": 8.0014248296,
			"0.013": 3.95859200887,
			"0.014": 0.130225171289,
			"0.015": 0.0,
			"0.016": 0.0,
			"0.017": 0.0,
			"0.018": 0.0,
			"0.019": 0.0,
			"0.02": 0.0,
			"0.021": 0.0,
			"0.022": 0.0,
			"0.023": 0.0,
			"0.024": 0.0,
			"0.025": 0.0
		}
	}
}
