{
	 "smiles": "CN(C)C1=CC=C(C=C1)N=NC1=CC=C(N)C=C1", 
	 "Tm": 462.15, 
	 "num_atms": 34, 
	 "gaussian": { 
		 "optdone": 1, 
		 "sigma_profile": "yes", 
		 "theory": "DFT", 
		 "functional": "B3LYP", 
		 "basiset": "6-31G**", 
		 "properties": { 
			 "R2extent": 8680.6188, 
			 "electric_dipole_moment_norm": 1.58240439206, 
			 "electric_quadrupole_moment_norm": 36.1083769194, 
			 "total_energy": -762.098480253, 
			 "HOMO_LUMO_gap": 0.1206, 
			 "cosmo_polarized_energy": -16.4, 
			 "cosmo_cavitation_energy": 37.85, 
			 "cosmo_dispersion_energy": -27.81, 
			 "cosmo_repulsion_energy": 2.13, 
			 "cosmo_total_nonelectrostatic_energy": 12.17, 
			 "SMD_solvation_energy": 4.83 
		},
		"coords": [
			{
				"x": -2.7074097567,
				"y": 4.0206345022,
				"z": -2.6651935981,
				"element": "C" 
			},
			{
				"x": -1.2893866437,
				"y": 3.7179585817,
				"z": -2.7605608039,
				"element": "N" 
			},
			{
				"x": -0.4910918653,
				"y": 4.4025440831,
				"z": -3.7627723083,
				"element": "C" 
			},
			{
				"x": -0.7741440987,
				"y": 2.6086082989,
				"z": -2.1128059454,
				"element": "C" 
			},
			{
				"x": 0.5694079026,
				"y": 2.2039904275,
				"z": -2.2996748845,
				"element": "C" 
			},
			{
				"x": 1.0771623439,
				"y": 1.1021496968,
				"z": -1.6261904988,
				"element": "C" 
			},
			{
				"x": 0.28436633,
				"y": 0.3497844716,
				"z": -0.7477961787,
				"element": "C" 
			},
			{
				"x": -1.0554999436,
				"y": 0.7391268427,
				"z": -0.5641210168,
				"element": "C" 
			},
			{
				"x": -1.574351301,
				"y": 1.8359986914,
				"z": -1.2292624096,
				"element": "C" 
			},
			{
				"x": 0.9083847856,
				"y": -0.7456955977,
				"z": -0.1243893466,
				"element": "N" 
			},
			{
				"x": 0.1699832878,
				"y": -1.4081257981,
				"z": 0.6641936807,
				"element": "N" 
			},
			{
				"x": 0.7975566,
				"y": -2.5040800604,
				"z": 1.287852499,
				"element": "C" 
			},
			{
				"x": 2.1378842621,
				"y": -2.890900277,
				"z": 1.094913178,
				"element": "C" 
			},
			{
				"x": 2.6546705012,
				"y": -3.990792879,
				"z": 1.7582961184,
				"element": "C" 
			},
			{
				"x": 1.8529174871,
				"y": -4.7477742999,
				"z": 2.6399791361,
				"element": "C" 
			},
			{
				"x": 2.3946152091,
				"y": -5.8195998769,
				"z": 3.3420160137,
				"element": "N" 
			},
			{
				"x": 0.5145701543,
				"y": -4.3605047969,
				"z": 2.8329283669,
				"element": "C" 
			},
			{
				"x": 0.0018750356,
				"y": -3.2559936236,
				"z": 2.1654617477,
				"element": "C" 
			},
			{
				"x": -3.3405661391,
				"y": 3.2203725087,
				"z": -3.077044879,
				"element": "H" 
			},
			{
				"x": -2.9157501453,
				"y": 4.9368904831,
				"z": -3.2193034602,
				"element": "H" 
			},
			{
				"x": -3.0098204257,
				"y": 4.1876039544,
				"z": -1.6244620413,
				"element": "H" 
			},
			{
				"x": 0.4445326065,
				"y": 4.7816990214,
				"z": -3.3342712751,
				"element": "H" 
			},
			{
				"x": -1.0500054578,
				"y": 5.2584104042,
				"z": -4.1435825076,
				"element": "H" 
			},
			{
				"x": -0.2341553168,
				"y": 3.7546309246,
				"z": -4.6144573136,
				"element": "H" 
			},
			{
				"x": 1.2185337148,
				"y": 2.750095023,
				"z": -2.9726666771,
				"element": "H" 
			},
			{
				"x": 2.1089688026,
				"y": 0.7961746652,
				"z": -1.7710888695,
				"element": "H" 
			},
			{
				"x": -1.6758979227,
				"y": 0.1579276542,
				"z": 0.1090126853,
				"element": "H" 
			},
			{
				"x": -2.6122608987,
				"y": 2.0996653153,
				"z": -1.0656123492,
				"element": "H" 
			},
			{
				"x": 2.7513168856,
				"y": -2.3101102473,
				"z": 0.4153052782,
				"element": "H" 
			},
			{
				"x": 3.6923972027,
				"y": -4.2792560941,
				"z": 1.6055764772,
				"element": "H" 
			},
			{
				"x": 1.7326431783,
				"y": -6.5012203479,
				"z": 3.6850301981,
				"element": "H" 
			},
			{
				"x": 3.2131010715,
				"y": -6.2461739435,
				"z": 2.93141581,
				"element": "H" 
			},
			{
				"x": -0.1159146404,
				"y": -4.9298044447,
				"z": 3.5115320734,
				"element": "H" 
			},
			{
				"x": -1.030532806,
				"y": -2.9508332629,
				"z": 2.3062431006,
				"element": "H" 
			}
		],
		 "valence_orbital": [ 
			{
				"type": "occ",
				"energy": -0.24328,
				"method": "rhf"
			},
			{
				"type": "occ",
				"energy": -0.24163,
				"method": "rhf"
			},
			{
				"type": "occ",
				"energy": -0.20895,
				"method": "rhf"
			},
			{
				"type": "occ",
				"energy": -0.20094,
				"method": "rhf"
			},
			{
				"type": "occ",
				"energy": -0.17304,
				"method": "rhf"
			},
			{
				"type": "unocc",
				"energy": -0.05244,
				"method": "rhf"
			},
			{
				"type": "unocc",
				"energy": 0.00919,
				"method": "rhf"
			},
			{
				"type": "unocc",
				"energy": 0.01096,
				"method": "rhf"
			},
			{
				"type": "unocc",
				"energy": 0.03712,
				"method": "rhf"
			},
			{
				"type": "unocc",
				"energy": 0.06977,
				"method": "rhf"
			}
		],
		"cosmo_sigma_profile": { 
			"-0.025": 0.0,
			"-0.024": 0.0,
			"-0.023": 0.0,
			"-0.022": 0.0,
			"-0.021": 0.0,
			"-0.02": 0.0,
			"-0.019": 0.0,
			"-0.018": 0.0,
			"-0.017": 0.0,
			"-0.016": 0.0,
			"-0.015": 0.0,
			"-0.014": 0.0,
			"-0.013": 1.42671757829,
			"-0.012": 3.18800227339,
			"-0.011": 2.59116728457,
			"-0.01": 2.71165986198,
			"-0.009": 3.63816540359,
			"-0.008": 3.17652796067,
			"-0.007": 5.48116508251,
			"-0.006": 9.43105361853,
			"-0.005": 18.8726647398,
			"-0.004": 28.3522394657,
			"-0.003": 25.3351880514,
			"-0.002": 26.1013523962,
			"-0.001": 19.195099955,
			"0.0": 12.5141685747,
			"0.001": 13.3197115328,
			"0.002": 12.0316467945,
			"0.003": 16.9205737565,
			"0.004": 31.5120370144,
			"0.005": 32.6163090953,
			"0.006": 14.5684477855,
			"0.007": 4.26086081302,
			"0.008": 4.76047970506,
			"0.009": 4.34746150933,
			"0.01": 2.6478322068,
			"0.011": 0.514728748381,
			"0.012": 0.539266478502,
			"0.013": 0.761028237498,
			"0.014": 0.0,
			"0.015": 0.0,
			"0.016": 0.0,
			"0.017": 0.0,
			"0.018": 0.0,
			"0.019": 0.0,
			"0.02": 0.0,
			"0.021": 0.0,
			"0.022": 0.0,
			"0.023": 0.0,
			"0.024": 0.0,
			"0.025": 0.0
		}
	}
}
