{
	 "smiles": "CN1C(=CC2=C1C=CO2)C(O)=O", 
	 "Tm": 473.15, 
	 "num_atms": 19, 
	 "gaussian": { 
		 "optdone": 1, 
		 "sigma_profile": "yes", 
		 "theory": "DFT", 
		 "functional": "B3LYP", 
		 "basiset": "6-31G**", 
		 "properties": { 
			 "R2extent": 2333.9222, 
			 "electric_dipole_moment_norm": 4.07527733167, 
			 "electric_quadrupole_moment_norm": 9.50731827331, 
			 "total_energy": -589.461057749, 
			 "HOMO_LUMO_gap": 0.16935, 
			 "cosmo_polarized_energy": -11.83, 
			 "cosmo_cavitation_energy": 23.69, 
			 "cosmo_dispersion_energy": -17.64, 
			 "cosmo_repulsion_energy": 1.38, 
			 "cosmo_total_nonelectrostatic_energy": 7.44, 
			 "SMD_solvation_energy": 6.15 
		},
		"coords": [
			{
				"x": -1.0133945908,
				"y": -1.4729929545,
				"z": 0.9304492228,
				"element": "C" 
			},
			{
				"x": -0.1527329867,
				"y": -0.9452635821,
				"z": -0.1211176004,
				"element": "N" 
			},
			{
				"x": 1.1088715304,
				"y": -0.3384551506,
				"z": 0.0007832555,
				"element": "C" 
			},
			{
				"x": 1.5917330002,
				"y": 0.0251886405,
				"z": -1.2638935071,
				"element": "C" 
			},
			{
				"x": 0.5924540864,
				"y": -0.3760417907,
				"z": -2.1537315208,
				"element": "C" 
			},
			{
				"x": -0.4561078969,
				"y": -0.9607663007,
				"z": -1.4528493924,
				"element": "C" 
			},
			{
				"x": -1.4419419349,
				"y": -1.3481373423,
				"z": -2.4151768754,
				"element": "C" 
			},
			{
				"x": -0.9067358291,
				"y": -0.9653924551,
				"z": -3.6146280435,
				"element": "C" 
			},
			{
				"x": 0.3278948718,
				"y": -0.3716140954,
				"z": -3.4942800501,
				"element": "O" 
			},
			{
				"x": 1.8420096273,
				"y": -0.1023959377,
				"z": 1.236349709,
				"element": "C" 
			},
			{
				"x": 1.1975758042,
				"y": -0.5312647835,
				"z": 2.3622290928,
				"element": "O" 
			},
			{
				"x": 2.9367277902,
				"y": 0.4290497983,
				"z": 1.2947911466,
				"element": "O" 
			},
			{
				"x": -1.2915236974,
				"y": -0.6906327744,
				"z": 1.6394728043,
				"element": "H" 
			},
			{
				"x": -0.5151468338,
				"y": -2.2739569318,
				"z": 1.4803475608,
				"element": "H" 
			},
			{
				"x": -1.9146688311,
				"y": -1.867526593,
				"z": 0.458819607,
				"element": "H" 
			},
			{
				"x": 2.5401845968,
				"y": 0.5081900443,
				"z": -1.4390260612,
				"element": "H" 
			},
			{
				"x": -2.3974672627,
				"y": -1.8311644808,
				"z": -2.2738301107,
				"element": "H" 
			},
			{
				"x": -1.2792054844,
				"y": -1.0470489391,
				"z": -4.6242674294,
				"element": "H" 
			},
			{
				"x": 1.7984740404,
				"y": -0.3094743711,
				"z": 3.092558192,
				"element": "H" 
			}
		],
		 "valence_orbital": [ 
			{
				"type": "occ",
				"energy": -0.31199,
				"method": "rhf"
			},
			{
				"type": "occ",
				"energy": -0.28763,
				"method": "rhf"
			},
			{
				"type": "occ",
				"energy": -0.27086,
				"method": "rhf"
			},
			{
				"type": "occ",
				"energy": -0.23436,
				"method": "rhf"
			},
			{
				"type": "occ",
				"energy": -0.20591,
				"method": "rhf"
			},
			{
				"type": "unocc",
				"energy": -0.03656,
				"method": "rhf"
			},
			{
				"type": "unocc",
				"energy": 0.03402,
				"method": "rhf"
			},
			{
				"type": "unocc",
				"energy": 0.07654,
				"method": "rhf"
			},
			{
				"type": "unocc",
				"energy": 0.09794,
				"method": "rhf"
			},
			{
				"type": "unocc",
				"energy": 0.10034,
				"method": "rhf"
			}
		],
		"cosmo_sigma_profile": { 
			"-0.025": 0.0,
			"-0.024": 0.0,
			"-0.023": 0.0,
			"-0.022": 0.0,
			"-0.021": 0.0,
			"-0.02": 0.0,
			"-0.019": 0.0,
			"-0.018": 0.404823385252,
			"-0.017": 0.850804880063,
			"-0.016": 0.779586557558,
			"-0.015": 0.819030163344,
			"-0.014": 0.822140892187,
			"-0.013": 0.695215987321,
			"-0.012": 0.66270261178,
			"-0.011": 0.347564712725,
			"-0.01": 0.817225232846,
			"-0.009": 2.54287357025,
			"-0.008": 4.6188049608,
			"-0.007": 7.68276518802,
			"-0.006": 8.08789982384,
			"-0.005": 11.3151999102,
			"-0.004": 12.3004388731,
			"-0.003": 12.0240581739,
			"-0.002": 11.3516338149,
			"-0.001": 11.833170474,
			"0.0": 9.77989723962,
			"0.001": 9.49741880339,
			"0.002": 17.4418521735,
			"0.003": 19.0789336091,
			"0.004": 14.0761450823,
			"0.005": 8.21991843454,
			"0.006": 3.85932785628,
			"0.007": 2.78209049329,
			"0.008": 3.06134580698,
			"0.009": 2.72410694333,
			"0.01": 1.16647936405,
			"0.011": 2.29320303732,
			"0.012": 5.37438895363,
			"0.013": 2.59276572944,
			"0.014": 0.0,
			"0.015": 0.0,
			"0.016": 0.0,
			"0.017": 0.0,
			"0.018": 0.0,
			"0.019": 0.0,
			"0.02": 0.0,
			"0.021": 0.0,
			"0.022": 0.0,
			"0.023": 0.0,
			"0.024": 0.0,
			"0.025": 0.0
		}
	}
}
