{
	 "smiles": "CCC(C)N1C(SCC(O)=O)=NN=C1C1=CC=CC=C1", 
	 "Tm": 429.15, 
	 "num_atms": 37, 
	 "gaussian": { 
		 "optdone": 1, 
		 "sigma_profile": "yes", 
		 "theory": "DFT", 
		 "functional": "B3LYP", 
		 "basiset": "6-31G**", 
		 "properties": { 
			 "R2extent": 8494.7451, 
			 "electric_dipole_moment_norm": 2.97620478126, 
			 "electric_quadrupole_moment_norm": 17.4133748521, 
			 "total_energy": -1256.62815514, 
			 "HOMO_LUMO_gap": 0.18731, 
			 "cosmo_polarized_energy": -20.07, 
			 "cosmo_cavitation_energy": 41.68, 
			 "cosmo_dispersion_energy": -28.89, 
			 "cosmo_repulsion_energy": 2.21, 
			 "cosmo_total_nonelectrostatic_energy": 15.0, 
			 "SMD_solvation_energy": 6.39 
		},
		"coords": [
			{
				"x": 1.374501397,
				"y": -2.292464103,
				"z": -1.9050423752,
				"element": "C" 
			},
			{
				"x": 1.277358758,
				"y": -0.7908529139,
				"z": -2.1879223801,
				"element": "C" 
			},
			{
				"x": 0.872051745,
				"y": 0.0541378078,
				"z": -0.964997422,
				"element": "C" 
			},
			{
				"x": 0.8625539448,
				"y": 1.5603642377,
				"z": -1.2534780918,
				"element": "C" 
			},
			{
				"x": -0.414292453,
				"y": -0.3891865968,
				"z": -0.377951854,
				"element": "N" 
			},
			{
				"x": -1.6495514785,
				"y": -0.4954940529,
				"z": -0.979767958,
				"element": "C" 
			},
			{
				"x": -2.0348880325,
				"y": 0.113315464,
				"z": -2.5957883861,
				"element": "S" 
			},
			{
				"x": -3.7991201868,
				"y": -0.3710762461,
				"z": -2.5977797747,
				"element": "C" 
			},
			{
				"x": -4.411878327,
				"y": 0.0406750331,
				"z": -3.9164040843,
				"element": "C" 
			},
			{
				"x": -5.7177519475,
				"y": -0.3005095551,
				"z": -3.9608812919,
				"element": "O" 
			},
			{
				"x": -3.8381860699,
				"y": 0.5994375809,
				"z": -4.8241822644,
				"element": "O" 
			},
			{
				"x": -2.5124096292,
				"y": -1.0924906141,
				"z": -0.18518898,
				"element": "N" 
			},
			{
				"x": -1.8511118817,
				"y": -1.399603447,
				"z": 0.9809066962,
				"element": "N" 
			},
			{
				"x": -0.6098010411,
				"y": -0.978103081,
				"z": 0.8657055126,
				"element": "C" 
			},
			{
				"x": 0.393778189,
				"y": -1.126909325,
				"z": 1.9338621343,
				"element": "C" 
			},
			{
				"x": 1.2574873496,
				"y": -0.0863836935,
				"z": 2.3148410464,
				"element": "C" 
			},
			{
				"x": 2.1621298969,
				"y": -0.2657954472,
				"z": 3.3615190371,
				"element": "C" 
			},
			{
				"x": 2.2073774448,
				"y": -1.4786343076,
				"z": 4.0506295498,
				"element": "C" 
			},
			{
				"x": 1.3361472914,
				"y": -2.5106685386,
				"z": 3.6932539243,
				"element": "C" 
			},
			{
				"x": 0.4366539061,
				"y": -2.3385603304,
				"z": 2.6436285475,
				"element": "C" 
			},
			{
				"x": 1.7243710848,
				"y": -2.8284593613,
				"z": -2.7923693955,
				"element": "H" 
			},
			{
				"x": 2.0757793497,
				"y": -2.5016253775,
				"z": -1.0895088667,
				"element": "H" 
			},
			{
				"x": 0.4033473534,
				"y": -2.7126658222,
				"z": -1.6264997777,
				"element": "H" 
			},
			{
				"x": 0.5848956746,
				"y": -0.6097130307,
				"z": -3.0170463227,
				"element": "H" 
			},
			{
				"x": 2.2529489671,
				"y": -0.4119991773,
				"z": -2.5168347137,
				"element": "H" 
			},
			{
				"x": 1.6073700057,
				"y": -0.1414138618,
				"z": -0.1814387831,
				"element": "H" 
			},
			{
				"x": 1.8564907897,
				"y": 1.8780884348,
				"z": -1.5828199984,
				"element": "H" 
			},
			{
				"x": 0.5993707665,
				"y": 2.1296711928,
				"z": -0.3570729658,
				"element": "H" 
			},
			{
				"x": 0.1481690996,
				"y": 1.8206948282,
				"z": -2.0393452735,
				"element": "H" 
			},
			{
				"x": -4.3245153948,
				"y": 0.1057779471,
				"z": -1.7668626393,
				"element": "H" 
			},
			{
				"x": -3.8972988633,
				"y": -1.4492567542,
				"z": -2.4508968499,
				"element": "H" 
			},
			{
				"x": -6.0476229598,
				"y": -0.0087744214,
				"z": -4.827629362,
				"element": "H" 
			},
			{
				"x": 1.2011395358,
				"y": 0.8765386535,
				"z": 1.8163354782,
				"element": "H" 
			},
			{
				"x": 2.8213862288,
				"y": 0.5487985784,
				"z": 3.647060245,
				"element": "H" 
			},
			{
				"x": 2.9111728076,
				"y": -1.6160169167,
				"z": 4.8663419078,
				"element": "H" 
			},
			{
				"x": 1.3593118836,
				"y": -3.4536060922,
				"z": 4.2317707873,
				"element": "H" 
			},
			{
				"x": -0.2474652045,
				"y": -3.1318366908,
				"z": 2.3623549443,
				"element": "H" 
			}
		],
		 "valence_orbital": [ 
			{
				"type": "occ",
				"energy": -0.28423,
				"method": "rhf"
			},
			{
				"type": "occ",
				"energy": -0.2595,
				"method": "rhf"
			},
			{
				"type": "occ",
				"energy": -0.25791,
				"method": "rhf"
			},
			{
				"type": "occ",
				"energy": -0.24895,
				"method": "rhf"
			},
			{
				"type": "occ",
				"energy": -0.21519,
				"method": "rhf"
			},
			{
				"type": "unocc",
				"energy": -0.02788,
				"method": "rhf"
			},
			{
				"type": "unocc",
				"energy": -0.01033,
				"method": "rhf"
			},
			{
				"type": "unocc",
				"energy": -0.00198,
				"method": "rhf"
			},
			{
				"type": "unocc",
				"energy": 0.01491,
				"method": "rhf"
			},
			{
				"type": "unocc",
				"energy": 0.03124,
				"method": "rhf"
			}
		],
		"cosmo_sigma_profile": { 
			"-0.025": 0.0,
			"-0.024": 0.0,
			"-0.023": 0.0,
			"-0.022": 0.0,
			"-0.021": 0.0,
			"-0.02": 0.0,
			"-0.019": 0.54765597405,
			"-0.018": 0.879317755683,
			"-0.017": 1.11814116708,
			"-0.016": 0.712132263132,
			"-0.015": 1.01491584443,
			"-0.014": 0.61021249274,
			"-0.013": 0.340829679682,
			"-0.012": 0.618625752191,
			"-0.011": 0.935789709604,
			"-0.01": 0.597761922739,
			"-0.009": 1.8994537088,
			"-0.008": 4.84724447158,
			"-0.007": 5.14919453468,
			"-0.006": 14.5966552256,
			"-0.005": 22.7692573799,
			"-0.004": 27.8378394226,
			"-0.003": 28.0119795147,
			"-0.002": 28.5585342773,
			"-0.001": 33.2126149711,
			"0.0": 30.1427190375,
			"0.001": 22.1735081604,
			"0.002": 13.7004895933,
			"0.003": 13.5379923712,
			"0.004": 18.5555691236,
			"0.005": 13.5203633762,
			"0.006": 5.97268868527,
			"0.007": 5.97314665448,
			"0.008": 5.11448558241,
			"0.009": 4.38676289296,
			"0.01": 5.69383927404,
			"0.011": 6.55224847621,
			"0.012": 3.14175351147,
			"0.013": 2.94142660395,
			"0.014": 3.16486935451,
			"0.015": 1.45851345852,
			"0.016": 1.04172327403,
			"0.017": 0.476896418452,
			"0.018": 0.0,
			"0.019": 0.0,
			"0.02": 0.0,
			"0.021": 0.0,
			"0.022": 0.0,
			"0.023": 0.0,
			"0.024": 0.0,
			"0.025": 0.0
		}
	}
}
