{
	 "smiles": "CCCOC1=CC=C(C=CC(O)=O)C=C1", 
	 "Tm": 453.15, 
	 "num_atms": 29, 
	 "gaussian": { 
		 "optdone": 1, 
		 "sigma_profile": "yes", 
		 "theory": "DFT", 
		 "functional": "B3LYP", 
		 "basiset": "6-31G**", 
		 "properties": { 
			 "R2extent": 5748.7137, 
			 "electric_dipole_moment_norm": 4.73062806929, 
			 "electric_quadrupole_moment_norm": 11.264242346, 
			 "total_energy": -691.379632285, 
			 "HOMO_LUMO_gap": 0.15654, 
			 "cosmo_polarized_energy": -12.47, 
			 "cosmo_cavitation_energy": 32.94, 
			 "cosmo_dispersion_energy": -23.7, 
			 "cosmo_repulsion_energy": 1.88, 
			 "cosmo_total_nonelectrostatic_energy": 11.12, 
			 "SMD_solvation_energy": 7.2 
		},
		"coords": [
			{
				"x": 1.3301681105,
				"y": 1.9365685894,
				"z": 4.5012586791,
				"element": "C" 
			},
			{
				"x": 1.3780649215,
				"y": 2.6548579938,
				"z": 3.1493109837,
				"element": "C" 
			},
			{
				"x": 2.5539380026,
				"y": 2.2131712474,
				"z": 2.2763818819,
				"element": "C" 
			},
			{
				"x": 2.5324144358,
				"y": 0.8111860656,
				"z": 1.9799200375,
				"element": "O" 
			},
			{
				"x": 1.7568336035,
				"y": 0.3363802614,
				"z": 0.9685030652,
				"element": "C" 
			},
			{
				"x": 0.9539807653,
				"y": 1.1155787788,
				"z": 0.1236462957,
				"element": "C" 
			},
			{
				"x": 0.2180628619,
				"y": 0.4943027716,
				"z": -0.881558915,
				"element": "C" 
			},
			{
				"x": 0.2651088496,
				"y": -0.8948748693,
				"z": -1.1050649882,
				"element": "C" 
			},
			{
				"x": -0.5762446619,
				"y": -1.4199866182,
				"z": -2.1815397745,
				"element": "C" 
			},
			{
				"x": -0.6313052767,
				"y": -2.5646105998,
				"z": -2.9046887195,
				"element": "C" 
			},
			{
				"x": 0.2212231033,
				"y": -3.7618786244,
				"z": -2.9812255866,
				"element": "C" 
			},
			{
				"x": 1.4002304876,
				"y": -3.7099166468,
				"z": -2.304590133,
				"element": "O" 
			},
			{
				"x": -0.0772923718,
				"y": -4.7388873976,
				"z": -3.6451135796,
				"element": "O" 
			},
			{
				"x": 1.0667832649,
				"y": -1.6594029959,
				"z": -0.2290242973,
				"element": "C" 
			},
			{
				"x": 1.7921161146,
				"y": -1.0569931852,
				"z": 0.784770469,
				"element": "C" 
			},
			{
				"x": 2.2364474564,
				"y": 2.1326624365,
				"z": 5.0855170591,
				"element": "H" 
			},
			{
				"x": 0.4720780056,
				"y": 2.2697161952,
				"z": 5.0927611463,
				"element": "H" 
			},
			{
				"x": 1.2491327531,
				"y": 0.8545373742,
				"z": 4.3654961559,
				"element": "H" 
			},
			{
				"x": 0.4384726526,
				"y": 2.4944123545,
				"z": 2.6080538732,
				"element": "H" 
			},
			{
				"x": 1.4693072414,
				"y": 3.738843362,
				"z": 3.2989977244,
				"element": "H" 
			},
			{
				"x": 2.6086502367,
				"y": 2.795326673,
				"z": 1.3484231182,
				"element": "H" 
			},
			{
				"x": 3.4962811257,
				"y": 2.3591791159,
				"z": 2.8137958371,
				"element": "H" 
			},
			{
				"x": 0.8832315601,
				"y": 2.1894804643,
				"z": 0.2450970438,
				"element": "H" 
			},
			{
				"x": -0.4107770134,
				"y": 1.1095983984,
				"z": -1.5203378405,
				"element": "H" 
			},
			{
				"x": -1.3522897774,
				"y": -0.7076956809,
				"z": -2.4649397232,
				"element": "H" 
			},
			{
				"x": -1.4475510284,
				"y": -2.6494597621,
				"z": -3.6152503817,
				"element": "H" 
			},
			{
				"x": 1.8368373814,
				"y": -4.5566463173,
				"z": -2.4967765146,
				"element": "H" 
			},
			{
				"x": 1.1142643658,
				"y": -2.7325388901,
				"z": -0.3460119713,
				"element": "H" 
			},
			{
				"x": 2.4037328297,
				"y": -1.6469104945,
				"z": 1.4596890548,
				"element": "H" 
			}
		],
		 "valence_orbital": [ 
			{
				"type": "occ",
				"energy": -0.30969,
				"method": "rhf"
			},
			{
				"type": "occ",
				"energy": -0.28075,
				"method": "rhf"
			},
			{
				"type": "occ",
				"energy": -0.26662,
				"method": "rhf"
			},
			{
				"type": "occ",
				"energy": -0.25706,
				"method": "rhf"
			},
			{
				"type": "occ",
				"energy": -0.2145,
				"method": "rhf"
			},
			{
				"type": "unocc",
				"energy": -0.05796,
				"method": "rhf"
			},
			{
				"type": "unocc",
				"energy": -0.00685,
				"method": "rhf"
			},
			{
				"type": "unocc",
				"energy": 0.02551,
				"method": "rhf"
			},
			{
				"type": "unocc",
				"energy": 0.0779,
				"method": "rhf"
			},
			{
				"type": "unocc",
				"energy": 0.08578,
				"method": "rhf"
			}
		],
		"cosmo_sigma_profile": { 
			"-0.025": 0.0,
			"-0.024": 0.0,
			"-0.023": 0.0,
			"-0.022": 0.0,
			"-0.021": 0.0,
			"-0.02": 0.0,
			"-0.019": 0.0,
			"-0.018": 0.313858160934,
			"-0.017": 0.959502406432,
			"-0.016": 0.716744686634,
			"-0.015": 0.961829052156,
			"-0.014": 0.781759450795,
			"-0.013": 0.48258484768,
			"-0.012": 0.544410263394,
			"-0.011": 0.723510036978,
			"-0.01": 0.761931550575,
			"-0.009": 0.415904797136,
			"-0.008": 0.871556811762,
			"-0.007": 6.03941296451,
			"-0.006": 12.1064003787,
			"-0.005": 14.5434961678,
			"-0.004": 17.7113339841,
			"-0.003": 23.814673272,
			"-0.002": 21.8321009397,
			"-0.001": 23.5258632705,
			"0.0": 21.8488333527,
			"0.001": 20.4942514987,
			"0.002": 17.7353958906,
			"0.003": 17.6712054298,
			"0.004": 18.1365104577,
			"0.005": 9.28824429811,
			"0.006": 4.82244712119,
			"0.007": 3.70985649662,
			"0.008": 3.15669628269,
			"0.009": 3.64154717211,
			"0.01": 2.52455861182,
			"0.011": 2.20218040759,
			"0.012": 4.95985823774,
			"0.013": 3.21388472749,
			"0.014": 0.230199522336,
			"0.015": 0.0,
			"0.016": 0.0,
			"0.017": 0.0,
			"0.018": 0.0,
			"0.019": 0.0,
			"0.02": 0.0,
			"0.021": 0.0,
			"0.022": 0.0,
			"0.023": 0.0,
			"0.024": 0.0,
			"0.025": 0.0
		}
	}
}
