{
	 "smiles": "NC1=CN=C(OCCO)C=C1", 
	 "Tm": 337.15, 
	 "num_atms": 21, 
	 "gaussian": { 
		 "optdone": 1, 
		 "sigma_profile": "yes", 
		 "theory": "DFT", 
		 "functional": "B3LYP", 
		 "basiset": "6-31G**", 
		 "properties": { 
			 "R2extent": 2827.4958, 
			 "electric_dipole_moment_norm": 4.17395200739, 
			 "electric_quadrupole_moment_norm": 6.96731624587, 
			 "total_energy": -532.706546193, 
			 "HOMO_LUMO_gap": 0.17964, 
			 "cosmo_polarized_energy": -13.49, 
			 "cosmo_cavitation_energy": 24.99, 
			 "cosmo_dispersion_energy": -18.69, 
			 "cosmo_repulsion_energy": 1.54, 
			 "cosmo_total_nonelectrostatic_energy": 7.83, 
			 "SMD_solvation_energy": 3.61 
		},
		"coords": [
			{
				"x": -2.8798891061,
				"y": -3.5758671952,
				"z": -1.2283557964,
				"element": "N" 
			},
			{
				"x": -2.1424482087,
				"y": -2.5720839027,
				"z": -0.586812272,
				"element": "C" 
			},
			{
				"x": -1.2209023377,
				"y": -2.8670922506,
				"z": 0.4227735452,
				"element": "C" 
			},
			{
				"x": -0.446764324,
				"y": -1.9506182179,
				"z": 1.0228630134,
				"element": "N" 
			},
			{
				"x": -0.5613535785,
				"y": -0.6878007772,
				"z": 0.6407257065,
				"element": "C" 
			},
			{
				"x": 0.2040034636,
				"y": 0.270556436,
				"z": 1.2343661073,
				"element": "O" 
			},
			{
				"x": 1.1470866002,
				"y": -0.1558556535,
				"z": 2.2306045527,
				"element": "C" 
			},
			{
				"x": 1.8947150164,
				"y": 1.0976149511,
				"z": 2.6513180095,
				"element": "C" 
			},
			{
				"x": 2.5932220093,
				"y": 1.6860486304,
				"z": 1.5686123791,
				"element": "O" 
			},
			{
				"x": -1.4540199719,
				"y": -0.2661812909,
				"z": -0.3584168156,
				"element": "C" 
			},
			{
				"x": -2.2450308831,
				"y": -1.2214647345,
				"z": -0.9733274673,
				"element": "C" 
			},
			{
				"x": -3.7778619046,
				"y": -3.2739970211,
				"z": -1.583129711,
				"element": "H" 
			},
			{
				"x": -2.9730707325,
				"y": -4.428964113,
				"z": -0.6924291704,
				"element": "H" 
			},
			{
				"x": -1.0977748325,
				"y": -3.8950290983,
				"z": 0.7635272653,
				"element": "H" 
			},
			{
				"x": 0.6244980828,
				"y": -0.6203903021,
				"z": 3.0750299744,
				"element": "H" 
			},
			{
				"x": 1.829233419,
				"y": -0.8969394327,
				"z": 1.800854024,
				"element": "H" 
			},
			{
				"x": 2.6398806736,
				"y": 0.834861432,
				"z": 3.409670435,
				"element": "H" 
			},
			{
				"x": 1.1857245512,
				"y": 1.8065706576,
				"z": 3.1089774276,
				"element": "H" 
			},
			{
				"x": 1.9449849909,
				"y": 1.7851015351,
				"z": 0.8575136721,
				"element": "H" 
			},
			{
				"x": -1.5098514182,
				"y": 0.7822915164,
				"z": -0.6291285586,
				"element": "H" 
			},
			{
				"x": -2.9410815092,
				"y": -0.9323611689,
				"z": -1.7569363206,
				"element": "H" 
			}
		],
		 "valence_orbital": [ 
			{
				"type": "occ",
				"energy": -0.29805,
				"method": "rhf"
			},
			{
				"type": "occ",
				"energy": -0.27339,
				"method": "rhf"
			},
			{
				"type": "occ",
				"energy": -0.26557,
				"method": "rhf"
			},
			{
				"type": "occ",
				"energy": -0.25683,
				"method": "rhf"
			},
			{
				"type": "occ",
				"energy": -0.19948,
				"method": "rhf"
			},
			{
				"type": "unocc",
				"energy": -0.01984,
				"method": "rhf"
			},
			{
				"type": "unocc",
				"energy": 0.01816,
				"method": "rhf"
			},
			{
				"type": "unocc",
				"energy": 0.07478,
				"method": "rhf"
			},
			{
				"type": "unocc",
				"energy": 0.09997,
				"method": "rhf"
			},
			{
				"type": "unocc",
				"energy": 0.10621,
				"method": "rhf"
			}
		],
		"cosmo_sigma_profile": { 
			"-0.025": 0.0,
			"-0.024": 0.0,
			"-0.023": 0.0,
			"-0.022": 0.0,
			"-0.021": 0.0,
			"-0.02": 0.0,
			"-0.019": 0.0,
			"-0.018": 0.0,
			"-0.017": 0.0,
			"-0.016": 0.0,
			"-0.015": 0.0,
			"-0.014": 0.0,
			"-0.013": 0.959890628964,
			"-0.012": 3.54686122086,
			"-0.011": 2.89784040459,
			"-0.01": 4.06650442757,
			"-0.009": 3.85414085382,
			"-0.008": 3.70421479698,
			"-0.007": 5.96676358179,
			"-0.006": 8.37998803901,
			"-0.005": 13.2781412112,
			"-0.004": 16.6941401234,
			"-0.003": 12.9007277215,
			"-0.002": 12.3045293312,
			"-0.001": 8.82571744595,
			"0.0": 9.15388168728,
			"0.001": 9.82178595717,
			"0.002": 13.3450115941,
			"0.003": 16.180025801,
			"0.004": 11.4804094179,
			"0.005": 5.79794207992,
			"0.006": 5.38111661523,
			"0.007": 4.25149875085,
			"0.008": 4.33299012289,
			"0.009": 3.63190750971,
			"0.01": 3.04148316819,
			"0.011": 2.59548803106,
			"0.012": 2.74945416364,
			"0.013": 3.01136512538,
			"0.014": 3.63316072676,
			"0.015": 1.06910120374,
			"0.016": 0.0406832313237,
			"0.017": 0.0,
			"0.018": 0.0,
			"0.019": 0.0,
			"0.02": 0.0,
			"0.021": 0.0,
			"0.022": 0.0,
			"0.023": 0.0,
			"0.024": 0.0,
			"0.025": 0.0
		}
	}
}
