{
	 "smiles": "CN1N=C(C=C1C1CC1)C(O)=O", 
	 "Tm": 470.15, 
	 "num_atms": 22, 
	 "gaussian": { 
		 "optdone": 1, 
		 "sigma_profile": "yes", 
		 "theory": "DFT", 
		 "functional": "B3LYP", 
		 "basiset": "6-31G**", 
		 "properties": { 
			 "R2extent": 2949.2495, 
			 "electric_dipole_moment_norm": 4.22644291456, 
			 "electric_quadrupole_moment_norm": 6.44861828611, 
			 "total_energy": -570.796211492, 
			 "HOMO_LUMO_gap": 0.21987, 
			 "cosmo_polarized_energy": -14.52, 
			 "cosmo_cavitation_energy": 26.51, 
			 "cosmo_dispersion_energy": -18.97, 
			 "cosmo_repulsion_energy": 1.54, 
			 "cosmo_total_nonelectrostatic_energy": 9.07, 
			 "SMD_solvation_energy": 4.61 
		},
		"coords": [
			{
				"x": 2.0055090754,
				"y": -1.0249123363,
				"z": -0.6840530229,
				"element": "C" 
			},
			{
				"x": 0.5754032393,
				"y": -1.1810312258,
				"z": -0.4839235638,
				"element": "N" 
			},
			{
				"x": -0.1470973538,
				"y": -1.8625515561,
				"z": -1.3851621157,
				"element": "N" 
			},
			{
				"x": -1.3945711509,
				"y": -1.8434057242,
				"z": -0.8978685405,
				"element": "C" 
			},
			{
				"x": -1.4653902247,
				"y": -1.1492745785,
				"z": 0.3310935248,
				"element": "C" 
			},
			{
				"x": -0.1723969511,
				"y": -0.7289219005,
				"z": 0.5789114077,
				"element": "C" 
			},
			{
				"x": 0.4273924496,
				"y": 0.0395407283,
				"z": 1.692918813,
				"element": "C" 
			},
			{
				"x": 0.5907090525,
				"y": 1.5508247592,
				"z": 1.5930920035,
				"element": "C" 
			},
			{
				"x": -0.4312751784,
				"y": 0.9589896439,
				"z": 2.5251328688,
				"element": "C" 
			},
			{
				"x": -2.5329889166,
				"y": -2.4775465414,
				"z": -1.5836775904,
				"element": "C" 
			},
			{
				"x": -2.199994775,
				"y": -3.0835732312,
				"z": -2.746063138,
				"element": "O" 
			},
			{
				"x": -3.6712320983,
				"y": -2.4636851429,
				"z": -1.1528899955,
				"element": "O" 
			},
			{
				"x": 2.2211255071,
				"y": -1.2988838602,
				"z": -1.7159173607,
				"element": "H" 
			},
			{
				"x": 2.5720392115,
				"y": -1.6775487671,
				"z": -0.0110720082,
				"element": "H" 
			},
			{
				"x": 2.29873459,
				"y": 0.0122815606,
				"z": -0.5045395051,
				"element": "H" 
			},
			{
				"x": -2.3427832577,
				"y": -0.9937980598,
				"z": 0.9388092898,
				"element": "H" 
			},
			{
				"x": 1.2224391078,
				"y": -0.4768446627,
				"z": 2.2292564812,
				"element": "H" 
			},
			{
				"x": 1.4875932477,
				"y": 1.9921476948,
				"z": 2.0169800288,
				"element": "H" 
			},
			{
				"x": 0.2301008795,
				"y": 2.0341130456,
				"z": 0.6904498316,
				"element": "H" 
			},
			{
				"x": -1.4771245406,
				"y": 1.0559986979,
				"z": 2.2526258534,
				"element": "H" 
			},
			{
				"x": -0.242036153,
				"y": 0.9947346865,
				"z": 3.5930554636,
				"element": "H" 
			},
			{
				"x": -3.0305557604,
				"y": -3.4544532301,
				"z": -3.0873587255,
				"element": "H" 
			}
		],
		 "valence_orbital": [ 
			{
				"type": "occ",
				"energy": -0.30549,
				"method": "rhf"
			},
			{
				"type": "occ",
				"energy": -0.28856,
				"method": "rhf"
			},
			{
				"type": "occ",
				"energy": -0.26569,
				"method": "rhf"
			},
			{
				"type": "occ",
				"energy": -0.25211,
				"method": "rhf"
			},
			{
				"type": "occ",
				"energy": -0.24131,
				"method": "rhf"
			},
			{
				"type": "unocc",
				"energy": -0.02144,
				"method": "rhf"
			},
			{
				"type": "unocc",
				"energy": 0.02349,
				"method": "rhf"
			},
			{
				"type": "unocc",
				"energy": 0.0826,
				"method": "rhf"
			},
			{
				"type": "unocc",
				"energy": 0.092,
				"method": "rhf"
			},
			{
				"type": "unocc",
				"energy": 0.1017,
				"method": "rhf"
			}
		],
		"cosmo_sigma_profile": { 
			"-0.025": 0.0,
			"-0.024": 0.0,
			"-0.023": 0.0,
			"-0.022": 0.0,
			"-0.021": 0.0,
			"-0.02": 0.0,
			"-0.019": 0.0,
			"-0.018": 0.699259678392,
			"-0.017": 0.854092536485,
			"-0.016": 1.21489522932,
			"-0.015": 0.359474585054,
			"-0.014": 0.48867538743,
			"-0.013": 0.974361782084,
			"-0.012": 0.497636883216,
			"-0.011": 0.619868580399,
			"-0.01": 1.12264117726,
			"-0.009": 0.601893279488,
			"-0.008": 0.433341026307,
			"-0.007": 2.72159881899,
			"-0.006": 12.8029804244,
			"-0.005": 18.3200107186,
			"-0.004": 19.2242563703,
			"-0.003": 20.9091609101,
			"-0.002": 15.9017532132,
			"-0.001": 15.9721236212,
			"0.0": 13.7536860085,
			"0.001": 9.02464814307,
			"0.002": 12.7901257682,
			"0.003": 12.8949576766,
			"0.004": 8.944419439,
			"0.005": 4.28743328555,
			"0.006": 3.77437936274,
			"0.007": 3.19725150545,
			"0.008": 3.90963197861,
			"0.009": 3.22891454481,
			"0.01": 3.48339879372,
			"0.011": 5.03294516461,
			"0.012": 7.0365492948,
			"0.013": 2.6778646633,
			"0.014": 1.27017943511,
			"0.015": 0.887981253067,
			"0.016": 0.170657777735,
			"0.017": 0.0,
			"0.018": 0.0,
			"0.019": 0.0,
			"0.02": 0.0,
			"0.021": 0.0,
			"0.022": 0.0,
			"0.023": 0.0,
			"0.024": 0.0,
			"0.025": 0.0
		}
	}
}
