{
	 "smiles": "CCOC1=C(N)C=C(Br)C=C1", 
	 "Tm": 325.15, 
	 "num_atms": 21, 
	 "gaussian": { 
		 "optdone": 1, 
		 "sigma_profile": "yes", 
		 "theory": "DFT", 
		 "functional": "B3LYP", 
		 "basiset": "6-31G**", 
		 "properties": { 
			 "R2extent": 4727.7248, 
			 "electric_dipole_moment_norm": 3.80802981212, 
			 "electric_quadrupole_moment_norm": 13.853653264, 
			 "total_energy": -3012.25760867, 
			 "HOMO_LUMO_gap": 0.1988, 
			 "cosmo_polarized_energy": -8.96, 
			 "cosmo_cavitation_energy": 26.75, 
			 "cosmo_dispersion_energy": -20.23, 
			 "cosmo_repulsion_energy": 1.65, 
			 "cosmo_total_nonelectrostatic_energy": 8.18, 
			 "SMD_solvation_energy": 3.68 
		},
		"coords": [
			{
				"x": 0.9454725085,
				"y": -1.2069388002,
				"z": 3.4456207861,
				"element": "C" 
			},
			{
				"x": 0.248849153,
				"y": -1.4388907985,
				"z": 2.1162294936,
				"element": "C" 
			},
			{
				"x": -0.1240764158,
				"y": -0.1652591664,
				"z": 1.5940116498,
				"element": "O" 
			},
			{
				"x": -0.77396114,
				"y": -0.1143183056,
				"z": 0.3867354701,
				"element": "C" 
			},
			{
				"x": -1.0905313378,
				"y": 1.1968961631,
				"z": -0.04979304,
				"element": "C" 
			},
			{
				"x": -0.7937518096,
				"y": 2.2751193837,
				"z": 0.7765952806,
				"element": "N" 
			},
			{
				"x": -1.7376030767,
				"y": 1.3560994453,
				"z": -1.2788512383,
				"element": "C" 
			},
			{
				"x": -2.0646326478,
				"y": 0.2375417221,
				"z": -2.0460560266,
				"element": "C" 
			},
			{
				"x": -2.9507880184,
				"y": 0.496764026,
				"z": -3.7247601757,
				"element": "Br" 
			},
			{
				"x": -1.7634216215,
				"y": -1.0486811577,
				"z": -1.6229064784,
				"element": "C" 
			},
			{
				"x": -1.1100990745,
				"y": -1.2158153446,
				"z": -0.3938478524,
				"element": "C" 
			},
			{
				"x": 0.2781046162,
				"y": -0.6984614523,
				"z": 4.1470728943,
				"element": "H" 
			},
			{
				"x": 1.2458865353,
				"y": -2.1633635566,
				"z": 3.88412226,
				"element": "H" 
			},
			{
				"x": 1.8402346053,
				"y": -0.5922398241,
				"z": 3.3114942403,
				"element": "H" 
			},
			{
				"x": -0.6468252023,
				"y": -2.0623050546,
				"z": 2.2466758269,
				"element": "H" 
			},
			{
				"x": 0.9149342915,
				"y": -1.951608519,
				"z": 1.4076159028,
				"element": "H" 
			},
			{
				"x": -0.6679958978,
				"y": 3.1604841079,
				"z": 0.3075450662,
				"element": "H" 
			},
			{
				"x": -0.0842476483,
				"y": 2.0807946726,
				"z": 1.4691196451,
				"element": "H" 
			},
			{
				"x": -1.9895680725,
				"y": 2.3514950181,
				"z": -1.6287504413,
				"element": "H" 
			},
			{
				"x": -2.0236579259,
				"y": -1.908473729,
				"z": -2.2278787389,
				"element": "H" 
			},
			{
				"x": -0.866921821,
				"y": -2.2182388301,
				"z": -0.0619945243,
				"element": "H" 
			}
		],
		 "valence_orbital": [ 
			{
				"type": "occ",
				"energy": -0.31621,
				"method": "rhf"
			},
			{
				"type": "occ",
				"energy": -0.27858,
				"method": "rhf"
			},
			{
				"type": "occ",
				"energy": -0.2754,
				"method": "rhf"
			},
			{
				"type": "occ",
				"energy": -0.22855,
				"method": "rhf"
			},
			{
				"type": "occ",
				"energy": -0.19422,
				"method": "rhf"
			},
			{
				"type": "unocc",
				"energy": 0.00458,
				"method": "rhf"
			},
			{
				"type": "unocc",
				"energy": 0.01444,
				"method": "rhf"
			},
			{
				"type": "unocc",
				"energy": 0.01834,
				"method": "rhf"
			},
			{
				"type": "unocc",
				"energy": 0.0847,
				"method": "rhf"
			},
			{
				"type": "unocc",
				"energy": 0.09263,
				"method": "rhf"
			}
		],
		"cosmo_sigma_profile": { 
			"-0.025": 0.0,
			"-0.024": 0.0,
			"-0.023": 0.0,
			"-0.022": 0.0,
			"-0.021": 0.0,
			"-0.02": 0.0,
			"-0.019": 0.0,
			"-0.018": 0.0,
			"-0.017": 0.0,
			"-0.016": 0.0,
			"-0.015": 0.0,
			"-0.014": 0.0,
			"-0.013": 0.460755443367,
			"-0.012": 1.5902207132,
			"-0.011": 1.77089151052,
			"-0.01": 2.53220810025,
			"-0.009": 2.83931669246,
			"-0.008": 3.00859392888,
			"-0.007": 2.76809892294,
			"-0.006": 6.25734578518,
			"-0.005": 11.5635490266,
			"-0.004": 17.725626192,
			"-0.003": 18.6826882363,
			"-0.002": 16.1332512576,
			"-0.001": 13.7907577352,
			"0.0": 15.3230025284,
			"0.001": 12.151752296,
			"0.002": 11.2258131519,
			"0.003": 17.0474512132,
			"0.004": 21.0732029284,
			"0.005": 25.0384974723,
			"0.006": 6.99652619021,
			"0.007": 1.6142137759,
			"0.008": 1.22970371383,
			"0.009": 0.442660633059,
			"0.01": 1.21725195009,
			"0.011": 0.69682032946,
			"0.012": 0.828659595077,
			"0.013": 0.445721280523,
			"0.014": 0.501452846613,
			"0.015": 0.0320347795685,
			"0.016": 0.0,
			"0.017": 0.0,
			"0.018": 0.0,
			"0.019": 0.0,
			"0.02": 0.0,
			"0.021": 0.0,
			"0.022": 0.0,
			"0.023": 0.0,
			"0.024": 0.0,
			"0.025": 0.0
		}
	}
}
