{
	 "smiles": "NC(=O)C=CC1=CN=CC=C1", 
	 "Tm": 423.15, 
	 "num_atms": 19, 
	 "gaussian": { 
		 "optdone": 1, 
		 "sigma_profile": "yes", 
		 "theory": "DFT", 
		 "functional": "B3LYP", 
		 "basiset": "6-31G**", 
		 "properties": { 
			 "R2extent": 2209.3847, 
			 "electric_dipole_moment_norm": 3.80138239855, 
			 "electric_quadrupole_moment_norm": 13.2832538333, 
			 "total_energy": -494.391148309, 
			 "HOMO_LUMO_gap": 0.17457, 
			 "cosmo_polarized_energy": -14.26, 
			 "cosmo_cavitation_energy": 23.53, 
			 "cosmo_dispersion_energy": -17.6, 
			 "cosmo_repulsion_energy": 1.41, 
			 "cosmo_total_nonelectrostatic_energy": 7.34, 
			 "SMD_solvation_energy": 3.57 
		},
		"coords": [
			{
				"x": -0.402974201,
				"y": -2.6789121458,
				"z": -2.9111241014,
				"element": "N" 
			},
			{
				"x": -0.1217730462,
				"y": -1.9547925384,
				"z": -1.7802336079,
				"element": "C" 
			},
			{
				"x": 1.0005424616,
				"y": -1.9984019771,
				"z": -1.2779086314,
				"element": "O" 
			},
			{
				"x": -1.2775950617,
				"y": -1.1603889068,
				"z": -1.29015603,
				"element": "C" 
			},
			{
				"x": -1.4052565826,
				"y": -0.3446138928,
				"z": -0.2180926136,
				"element": "C" 
			},
			{
				"x": -0.5343897527,
				"y": 0.1009790437,
				"z": 0.8712200073,
				"element": "C" 
			},
			{
				"x": -1.1154286309,
				"y": 0.9765539951,
				"z": 1.8144854052,
				"element": "C" 
			},
			{
				"x": -0.4886242362,
				"y": 1.4889987735,
				"z": 2.8727612001,
				"element": "N" 
			},
			{
				"x": 0.7939951017,
				"y": 1.1398642351,
				"z": 3.0452319051,
				"element": "C" 
			},
			{
				"x": 1.4781155624,
				"y": 0.2836760033,
				"z": 2.1811798635,
				"element": "C" 
			},
			{
				"x": 0.8142695242,
				"y": -0.2462693928,
				"z": 1.0791983741,
				"element": "C" 
			},
			{
				"x": 0.3266908604,
				"y": -3.2691767071,
				"z": -3.2790183217,
				"element": "H" 
			},
			{
				"x": -1.3193300074,
				"y": -2.7214442501,
				"z": -3.3245422844,
				"element": "H" 
			},
			{
				"x": -2.1732855089,
				"y": -1.2550513556,
				"z": -1.901800872,
				"element": "H" 
			},
			{
				"x": -2.4000286263,
				"y": 0.09431165,
				"z": -0.1327442586,
				"element": "H" 
			},
			{
				"x": -2.1578897703,
				"y": 1.2732607176,
				"z": 1.6923104746,
				"element": "H" 
			},
			{
				"x": 1.2939557981,
				"y": 1.5658549711,
				"z": 3.9135787422,
				"element": "H" 
			},
			{
				"x": 2.5183144771,
				"y": 0.036072271,
				"z": 2.3697230192,
				"element": "H" 
			},
			{
				"x": 1.3034916386,
				"y": -0.9142204937,
				"z": 0.3808317297,
				"element": "H" 
			}
		],
		 "valence_orbital": [ 
			{
				"type": "occ",
				"energy": -0.27612,
				"method": "rhf"
			},
			{
				"type": "occ",
				"energy": -0.27123,
				"method": "rhf"
			},
			{
				"type": "occ",
				"energy": -0.25887,
				"method": "rhf"
			},
			{
				"type": "occ",
				"energy": -0.24847,
				"method": "rhf"
			},
			{
				"type": "occ",
				"energy": -0.23981,
				"method": "rhf"
			},
			{
				"type": "unocc",
				"energy": -0.06524,
				"method": "rhf"
			},
			{
				"type": "unocc",
				"energy": -0.01549,
				"method": "rhf"
			},
			{
				"type": "unocc",
				"energy": 0.01726,
				"method": "rhf"
			},
			{
				"type": "unocc",
				"energy": 0.0651,
				"method": "rhf"
			},
			{
				"type": "unocc",
				"energy": 0.09359,
				"method": "rhf"
			}
		],
		"cosmo_sigma_profile": { 
			"-0.025": 0.0,
			"-0.024": 0.0,
			"-0.023": 0.0,
			"-0.022": 0.0,
			"-0.021": 0.0,
			"-0.02": 0.0,
			"-0.019": 0.0,
			"-0.018": 0.0,
			"-0.017": 0.0,
			"-0.016": 0.0,
			"-0.015": 0.414200727408,
			"-0.014": 1.95240441906,
			"-0.013": 3.1531724975,
			"-0.012": 2.56274410219,
			"-0.011": 2.03386427938,
			"-0.01": 2.26826659282,
			"-0.009": 2.53611312888,
			"-0.008": 3.52747064268,
			"-0.007": 7.99279449261,
			"-0.006": 11.3373665845,
			"-0.005": 9.64649132281,
			"-0.004": 9.06902606748,
			"-0.003": 8.10660957766,
			"-0.002": 7.64343265642,
			"-0.001": 7.84703607304,
			"0.0": 11.0621609094,
			"0.001": 17.0394511701,
			"0.002": 26.2971321206,
			"0.003": 14.0038676349,
			"0.004": 7.48123504374,
			"0.005": 4.68296620405,
			"0.006": 3.16301688906,
			"0.007": 3.22474000742,
			"0.008": 2.98437130584,
			"0.009": 2.4639340231,
			"0.01": 2.63275151096,
			"0.011": 2.39220902318,
			"0.012": 2.97460747623,
			"0.013": 2.73358802387,
			"0.014": 3.25212738594,
			"0.015": 1.03218518908,
			"0.016": 0.769927414506,
			"0.017": 0.279268361575,
			"0.018": 0.0,
			"0.019": 0.0,
			"0.02": 0.0,
			"0.021": 0.0,
			"0.022": 0.0,
			"0.023": 0.0,
			"0.024": 0.0,
			"0.025": 0.0
		}
	}
}
