{
	 "smiles": "CC(C)CN1C(=O)N(C)C(=O)C2=C1N=C(C)N=C2S", 
	 "Tm": 446.15, 
	 "num_atms": 35, 
	 "gaussian": { 
		 "optdone": 1, 
		 "sigma_profile": "yes", 
		 "theory": "DFT", 
		 "functional": "B3LYP", 
		 "basiset": "6-31G**", 
		 "properties": { 
			 "R2extent": 6803.6654, 
			 "electric_dipole_moment_norm": 2.26056228625, 
			 "electric_quadrupole_moment_norm": 18.2226295142, 
			 "total_energy": -1234.6419298, 
			 "HOMO_LUMO_gap": 0.18042, 
			 "cosmo_polarized_energy": -10.88, 
			 "cosmo_cavitation_energy": 38.55, 
			 "cosmo_dispersion_energy": -27.66, 
			 "cosmo_repulsion_energy": 2.07, 
			 "cosmo_total_nonelectrostatic_energy": 12.96, 
			 "SMD_solvation_energy": 5.01 
		},
		"coords": [
			{
				"x": 1.8996525741,
				"y": -0.6479031461,
				"z": 2.7401490996,
				"element": "C" 
			},
			{
				"x": 1.2878508034,
				"y": 0.1492916708,
				"z": 1.5783729277,
				"element": "C" 
			},
			{
				"x": 2.3119989456,
				"y": 0.3717181644,
				"z": 0.457790483,
				"element": "C" 
			},
			{
				"x": 0.022115129,
				"y": -0.5823341671,
				"z": 1.0937466343,
				"element": "C" 
			},
			{
				"x": -0.7305585926,
				"y": 0.1436292007,
				"z": 0.044154371,
				"element": "N" 
			},
			{
				"x": -1.5249585633,
				"y": 1.2023842393,
				"z": 0.4812667815,
				"element": "C" 
			},
			{
				"x": -1.5927562506,
				"y": 1.5188239792,
				"z": 1.6580260559,
				"element": "O" 
			},
			{
				"x": -2.2472759631,
				"y": 1.894470059,
				"z": -0.4940607231,
				"element": "N" 
			},
			{
				"x": -3.0614343472,
				"y": 3.0132959611,
				"z": 0.0012247549,
				"element": "C" 
			},
			{
				"x": -2.25559265,
				"y": 1.6002804143,
				"z": -1.8596136915,
				"element": "C" 
			},
			{
				"x": -2.9351684223,
				"y": 2.2856968685,
				"z": -2.6286869486,
				"element": "O" 
			},
			{
				"x": -1.4264292404,
				"y": 0.4613645229,
				"z": -2.2585163961,
				"element": "C" 
			},
			{
				"x": -0.6805507502,
				"y": -0.2448519331,
				"z": -1.2836647724,
				"element": "C" 
			},
			{
				"x": 0.0877893858,
				"y": -1.2962614935,
				"z": -1.5809669939,
				"element": "N" 
			},
			{
				"x": 0.130601819,
				"y": -1.6682603486,
				"z": -2.8665355172,
				"element": "C" 
			},
			{
				"x": 0.9977576652,
				"y": -2.8498170318,
				"z": -3.1991997699,
				"element": "C" 
			},
			{
				"x": -0.5197813049,
				"y": -1.0806714723,
				"z": -3.8744843296,
				"element": "N" 
			},
			{
				"x": -1.2937936285,
				"y": -0.0249736732,
				"z": -3.586743676,
				"element": "C" 
			},
			{
				"x": -2.0857523402,
				"y": 0.6430945746,
				"z": -5.0065296926,
				"element": "S" 
			},
			{
				"x": 2.7798942449,
				"y": -0.1352135019,
				"z": 3.1404724709,
				"element": "H" 
			},
			{
				"x": 2.2180471564,
				"y": -1.6448757862,
				"z": 2.4116500485,
				"element": "H" 
			},
			{
				"x": 1.1857527497,
				"y": -0.7755116619,
				"z": 3.5609493483,
				"element": "H" 
			},
			{
				"x": 0.9706603929,
				"y": 1.1248072184,
				"z": 1.9655925864,
				"element": "H" 
			},
			{
				"x": 2.6507040884,
				"y": -0.5806049253,
				"z": 0.0354480543,
				"element": "H" 
			},
			{
				"x": 3.1891687536,
				"y": 0.9031708671,
				"z": 0.841698664,
				"element": "H" 
			},
			{
				"x": 1.8983483884,
				"y": 0.9696380936,
				"z": -0.3604793434,
				"element": "H" 
			},
			{
				"x": -0.6651539231,
				"y": -0.7142849328,
				"z": 1.9315736329,
				"element": "H" 
			},
			{
				"x": 0.2763657767,
				"y": -1.5551951174,
				"z": 0.6751469206,
				"element": "H" 
			},
			{
				"x": -2.4220583377,
				"y": 3.7310578328,
				"z": 0.5179663919,
				"element": "H" 
			},
			{
				"x": -3.5434692144,
				"y": 3.4739322016,
				"z": -0.856648908,
				"element": "H" 
			},
			{
				"x": -3.8062142809,
				"y": 2.6432061122,
				"z": 0.7084382254,
				"element": "H" 
			},
			{
				"x": 0.8938192374,
				"y": -3.1117457201,
				"z": -4.2518974236,
				"element": "H" 
			},
			{
				"x": 2.0459580118,
				"y": -2.614825383,
				"z": -2.9848430169,
				"element": "H" 
			},
			{
				"x": 0.726951838,
				"y": -3.7046842951,
				"z": -2.5721504074,
				"element": "H" 
			},
			{
				"x": -2.7250891509,
				"y": 1.6243526088,
				"z": -4.3172458408,
				"element": "H" 
			}
		],
		 "valence_orbital": [ 
			{
				"type": "occ",
				"energy": -0.28836,
				"method": "rhf"
			},
			{
				"type": "occ",
				"energy": -0.27853,
				"method": "rhf"
			},
			{
				"type": "occ",
				"energy": -0.26468,
				"method": "rhf"
			},
			{
				"type": "occ",
				"energy": -0.26061,
				"method": "rhf"
			},
			{
				"type": "occ",
				"energy": -0.25008,
				"method": "rhf"
			},
			{
				"type": "unocc",
				"energy": -0.06966,
				"method": "rhf"
			},
			{
				"type": "unocc",
				"energy": -0.04231,
				"method": "rhf"
			},
			{
				"type": "unocc",
				"energy": 0.00117,
				"method": "rhf"
			},
			{
				"type": "unocc",
				"energy": 0.03271,
				"method": "rhf"
			},
			{
				"type": "unocc",
				"energy": 0.04943,
				"method": "rhf"
			}
		],
		"cosmo_sigma_profile": { 
			"-0.025": 0.0,
			"-0.024": 0.0,
			"-0.023": 0.0,
			"-0.022": 0.0,
			"-0.021": 0.0,
			"-0.02": 0.0,
			"-0.019": 0.0,
			"-0.018": 0.0,
			"-0.017": 0.0,
			"-0.016": 0.0,
			"-0.015": 0.0,
			"-0.014": 0.0,
			"-0.013": 0.0,
			"-0.012": 0.0,
			"-0.011": 0.0,
			"-0.01": 0.0,
			"-0.009": 0.196839216732,
			"-0.008": 1.5609669901,
			"-0.007": 2.3009773371,
			"-0.006": 8.60840810926,
			"-0.005": 15.9668923695,
			"-0.004": 28.380682909,
			"-0.003": 40.3323791125,
			"-0.002": 40.1874071937,
			"-0.001": 34.220689401,
			"0.0": 24.8784800222,
			"0.001": 24.643105482,
			"0.002": 14.4102983896,
			"0.003": 11.2326551059,
			"0.004": 10.9662840314,
			"0.005": 11.2934702238,
			"0.006": 9.50748669984,
			"0.007": 6.27668746203,
			"0.008": 5.05774369706,
			"0.009": 4.32064831271,
			"0.01": 5.08240729914,
			"0.011": 3.12325294575,
			"0.012": 4.38293849931,
			"0.013": 0.690141579385,
			"0.014": 0.0,
			"0.015": 0.0,
			"0.016": 0.0,
			"0.017": 0.0,
			"0.018": 0.0,
			"0.019": 0.0,
			"0.02": 0.0,
			"0.021": 0.0,
			"0.022": 0.0,
			"0.023": 0.0,
			"0.024": 0.0,
			"0.025": 0.0
		}
	}
}
