{
	 "smiles": "NC1=NC=NC2=C1N=CN2C1OC(CO)CC1O", 
	 "Tm": 499.15, 
	 "num_atms": 31, 
	 "gaussian": { 
		 "optdone": 1, 
		 "sigma_profile": "yes", 
		 "theory": "DFT", 
		 "functional": "B3LYP", 
		 "basiset": "6-31G**", 
		 "properties": { 
			 "R2extent": 5335.8827, 
			 "electric_dipole_moment_norm": 2.97129755326, 
			 "electric_quadrupole_moment_norm": 18.8392884526, 
			 "total_energy": -888.327199162, 
			 "HOMO_LUMO_gap": 0.19838, 
			 "cosmo_polarized_energy": -18.44, 
			 "cosmo_cavitation_energy": 33.33, 
			 "cosmo_dispersion_energy": -24.84, 
			 "cosmo_repulsion_energy": 1.91, 
			 "cosmo_total_nonelectrostatic_energy": 10.41, 
			 "SMD_solvation_energy": 1.53 
		},
		"coords": [
			{
				"x": 2.7946946429,
				"y": -3.1863703288,
				"z": -2.6475778634,
				"element": "N" 
			},
			{
				"x": 1.5295720989,
				"y": -2.9032057389,
				"z": -2.2681402167,
				"element": "C" 
			},
			{
				"x": 0.6243355551,
				"y": -3.9010790198,
				"z": -2.2283352539,
				"element": "N" 
			},
			{
				"x": -0.6254224397,
				"y": -3.6054486194,
				"z": -1.856157363,
				"element": "C" 
			},
			{
				"x": -1.1336720368,
				"y": -2.4145867645,
				"z": -1.5134373157,
				"element": "N" 
			},
			{
				"x": -0.2162675517,
				"y": -1.4319176001,
				"z": -1.5644653109,
				"element": "C" 
			},
			{
				"x": 1.1250641345,
				"y": -1.5957361278,
				"z": -1.9250998919,
				"element": "C" 
			},
			{
				"x": 1.8141151978,
				"y": -0.3993141354,
				"z": -1.8710779192,
				"element": "N" 
			},
			{
				"x": 0.9052564635,
				"y": 0.4649605869,
				"z": -1.4950348686,
				"element": "C" 
			},
			{
				"x": -0.3523132112,
				"y": -0.0844684634,
				"z": -1.2844611003,
				"element": "N" 
			},
			{
				"x": -1.5279753667,
				"y": 0.7343117559,
				"z": -0.9858542153,
				"element": "C" 
			},
			{
				"x": -1.1913254798,
				"y": 1.6040199609,
				"z": 0.081772651,
				"element": "O" 
			},
			{
				"x": -2.3701757735,
				"y": 1.8732789421,
				"z": 0.8932062658,
				"element": "C" 
			},
			{
				"x": -2.0698827046,
				"y": 1.3996583154,
				"z": 2.3139096647,
				"element": "C" 
			},
			{
				"x": -0.9047874475,
				"y": 2.0256095876,
				"z": 2.8226092278,
				"element": "O" 
			},
			{
				"x": -3.5245043452,
				"y": 1.1365654847,
				"z": 0.1925933154,
				"element": "C" 
			},
			{
				"x": -2.8260752544,
				"y": -0.000217166,
				"z": -0.5676530019,
				"element": "C" 
			},
			{
				"x": -2.6217858133,
				"y": -1.0657865371,
				"z": 0.3215301399,
				"element": "O" 
			},
			{
				"x": 3.502241313,
				"y": -2.4712648428,
				"z": -2.6050202889,
				"element": "H" 
			},
			{
				"x": 3.0497525172,
				"y": -4.1474760134,
				"z": -2.8074394778,
				"element": "H" 
			},
			{
				"x": -1.3195872199,
				"y": -4.4422581895,
				"z": -1.8244962833,
				"element": "H" 
			},
			{
				"x": 1.0708468002,
				"y": 1.5213138307,
				"z": -1.3348698232,
				"element": "H" 
			},
			{
				"x": -1.7396574995,
				"y": 1.3325652313,
				"z": -1.8868902252,
				"element": "H" 
			},
			{
				"x": -2.5104658949,
				"y": 2.960451034,
				"z": 0.9000631858,
				"element": "H" 
			},
			{
				"x": -2.8970503292,
				"y": 1.6828204517,
				"z": 2.9749366655,
				"element": "H" 
			},
			{
				"x": -1.986531183,
				"y": 0.3044127057,
				"z": 2.3126826188,
				"element": "H" 
			},
			{
				"x": -0.1991278901,
				"y": 1.8162662272,
				"z": 2.1946094879,
				"element": "H" 
			},
			{
				"x": -4.2578688928,
				"y": 0.7252803531,
				"z": 0.8899422393,
				"element": "H" 
			},
			{
				"x": -4.0426997613,
				"y": 1.8029753078,
				"z": -0.5036408259,
				"element": "H" 
			},
			{
				"x": -3.386290049,
				"y": -0.3132287236,
				"z": -1.4599450894,
				"element": "H" 
			},
			{
				"x": -2.2606125789,
				"y": -1.8058315047,
				"z": -0.2147591276,
				"element": "H" 
			}
		],
		 "valence_orbital": [ 
			{
				"type": "occ",
				"energy": -0.27427,
				"method": "rhf"
			},
			{
				"type": "occ",
				"energy": -0.26627,
				"method": "rhf"
			},
			{
				"type": "occ",
				"energy": -0.25984,
				"method": "rhf"
			},
			{
				"type": "occ",
				"energy": -0.24879,
				"method": "rhf"
			},
			{
				"type": "occ",
				"energy": -0.22901,
				"method": "rhf"
			},
			{
				"type": "unocc",
				"energy": -0.03063,
				"method": "rhf"
			},
			{
				"type": "unocc",
				"energy": -0.00389,
				"method": "rhf"
			},
			{
				"type": "unocc",
				"energy": 0.02644,
				"method": "rhf"
			},
			{
				"type": "unocc",
				"energy": 0.07824,
				"method": "rhf"
			},
			{
				"type": "unocc",
				"energy": 0.08022,
				"method": "rhf"
			}
		],
		"cosmo_sigma_profile": { 
			"-0.025": 0.0,
			"-0.024": 0.0,
			"-0.023": 0.0,
			"-0.022": 0.0,
			"-0.021": 0.0,
			"-0.02": 0.0,
			"-0.019": 0.0,
			"-0.018": 0.0,
			"-0.017": 0.0,
			"-0.016": 0.0,
			"-0.015": 0.352813006943,
			"-0.014": 1.70329324019,
			"-0.013": 2.42356850013,
			"-0.012": 2.4925694869,
			"-0.011": 2.80262336159,
			"-0.01": 2.76920568015,
			"-0.009": 3.17868860198,
			"-0.008": 4.80432741749,
			"-0.007": 11.5025977902,
			"-0.006": 12.0198744634,
			"-0.005": 19.8113962051,
			"-0.004": 18.3136626107,
			"-0.003": 14.5512358832,
			"-0.002": 15.3415593081,
			"-0.001": 21.9965070688,
			"0.0": 20.883207594,
			"0.001": 16.0956513495,
			"0.002": 12.3692764276,
			"0.003": 12.2270198763,
			"0.004": 10.5531664758,
			"0.005": 8.82309055108,
			"0.006": 6.48314329211,
			"0.007": 7.00269218979,
			"0.008": 6.56535622201,
			"0.009": 4.5899072895,
			"0.01": 4.61779166634,
			"0.011": 3.76136186821,
			"0.012": 4.56318242348,
			"0.013": 4.17757338448,
			"0.014": 4.74934071717,
			"0.015": 1.84398280291,
			"0.016": 0.0123323169933,
			"0.017": 0.0,
			"0.018": 0.0,
			"0.019": 0.0,
			"0.02": 0.0,
			"0.021": 0.0,
			"0.022": 0.0,
			"0.023": 0.0,
			"0.024": 0.0,
			"0.025": 0.0
		}
	}
}
