{
	 "smiles": "CC(Cl)=C/C(O)=O", 
	 "Tm": 334.15, 
	 "num_atms": 12, 
	 "gaussian": { 
		 "optdone": 1, 
		 "sigma_profile": "yes", 
		 "theory": "DFT", 
		 "functional": "B3LYP", 
		 "basiset": "6-31G**", 
		 "properties": { 
			 "R2extent": 1261.6428, 
			 "electric_dipole_moment_norm": 2.63416911568, 
			 "electric_quadrupole_moment_norm": 9.52798926952, 
			 "total_energy": -766.071145945, 
			 "HOMO_LUMO_gap": 0.2151, 
			 "cosmo_polarized_energy": -12.19, 
			 "cosmo_cavitation_energy": 18.19, 
			 "cosmo_dispersion_energy": -13.63, 
			 "cosmo_repulsion_energy": 1.17, 
			 "cosmo_total_nonelectrostatic_energy": 5.73, 
			 "SMD_solvation_energy": 4.54 
		},
		"coords": [
			{
				"x": 0.2300139101,
				"y": -0.8306704017,
				"z": -1.8864729164,
				"element": "C" 
			},
			{
				"x": 0.1750397026,
				"y": 0.5701146187,
				"z": -1.3737146719,
				"element": "C" 
			},
			{
				"x": 0.2970524806,
				"y": 1.7970778167,
				"z": -2.6359925052,
				"element": "Cl" 
			},
			{
				"x": 0.0478781238,
				"y": 1.0016204616,
				"z": -0.1067225464,
				"element": "C" 
			},
			{
				"x": -0.0674636817,
				"y": 0.1122709667,
				"z": 1.0802935614,
				"element": "C" 
			},
			{
				"x": -0.1878724621,
				"y": 0.7709051228,
				"z": 2.2657704766,
				"element": "O" 
			},
			{
				"x": -0.0631720692,
				"y": -1.0986992998,
				"z": 1.0777032208,
				"element": "O" 
			},
			{
				"x": 1.1703487554,
				"y": -0.9927153893,
				"z": -2.4244285589,
				"element": "H" 
			},
			{
				"x": -0.584095102,
				"y": -0.9973265321,
				"z": -2.6001277162,
				"element": "H" 
			},
			{
				"x": 0.148834329,
				"y": -1.5314983162,
				"z": -1.0567445357,
				"element": "H" 
			},
			{
				"x": 0.0277756467,
				"y": 2.0742660583,
				"z": 0.0641990833,
				"element": "H" 
			},
			{
				"x": -0.1774396333,
				"y": 1.7285548943,
				"z": 2.1326371085,
				"element": "H" 
			}
		],
		 "valence_orbital": [ 
			{
				"type": "occ",
				"energy": -0.36147,
				"method": "rhf"
			},
			{
				"type": "occ",
				"energy": -0.32734,
				"method": "rhf"
			},
			{
				"type": "occ",
				"energy": -0.32248,
				"method": "rhf"
			},
			{
				"type": "occ",
				"energy": -0.27945,
				"method": "rhf"
			},
			{
				"type": "occ",
				"energy": -0.27654,
				"method": "rhf"
			},
			{
				"type": "unocc",
				"energy": -0.06144,
				"method": "rhf"
			},
			{
				"type": "unocc",
				"energy": 0.01021,
				"method": "rhf"
			},
			{
				"type": "unocc",
				"energy": 0.05417,
				"method": "rhf"
			},
			{
				"type": "unocc",
				"energy": 0.07293,
				"method": "rhf"
			},
			{
				"type": "unocc",
				"energy": 0.12054,
				"method": "rhf"
			}
		],
		"cosmo_sigma_profile": { 
			"-0.025": 0.0,
			"-0.024": 0.0,
			"-0.023": 0.0,
			"-0.022": 0.0,
			"-0.021": 0.0,
			"-0.02": 0.346722622986,
			"-0.019": 1.22489455373,
			"-0.018": 0.925227861333,
			"-0.017": 1.16053045339,
			"-0.016": 1.0220658151,
			"-0.015": 1.14723769908,
			"-0.014": 1.29952487394,
			"-0.013": 0.542879378299,
			"-0.012": 1.56224146821,
			"-0.011": 0.840604243733,
			"-0.01": 1.3299078451,
			"-0.009": 0.886516906766,
			"-0.008": 1.8589197713,
			"-0.007": 1.99104185823,
			"-0.006": 5.76808746047,
			"-0.005": 5.78203227664,
			"-0.004": 6.25895180996,
			"-0.003": 8.68291824126,
			"-0.002": 13.2631781966,
			"-0.001": 12.689245986,
			"0.0": 11.8696223257,
			"0.001": 10.0596531576,
			"0.002": 7.79622058649,
			"0.003": 10.1201122833,
			"0.004": 11.2002830612,
			"0.005": 2.37037748666,
			"0.006": 2.63720157041,
			"0.007": 1.88886195148,
			"0.008": 2.92358205052,
			"0.009": 3.54913138332,
			"0.01": 4.5608210942,
			"0.011": 4.71694921182,
			"0.012": 3.0894463986,
			"0.013": 1.60212327353,
			"0.014": 0.116311327077,
			"0.015": 0.0,
			"0.016": 0.0,
			"0.017": 0.0,
			"0.018": 0.0,
			"0.019": 0.0,
			"0.02": 0.0,
			"0.021": 0.0,
			"0.022": 0.0,
			"0.023": 0.0,
			"0.024": 0.0,
			"0.025": 0.0
		}
	}
}
