{
	 "smiles": "CN(C)C1=CC=C(C=C1)C(Cl)=NO", 
	 "Tm": 438.15, 
	 "num_atms": 24, 
	 "gaussian": { 
		 "optdone": 1, 
		 "sigma_profile": "yes", 
		 "theory": "DFT", 
		 "functional": "B3LYP", 
		 "basiset": "6-31G**", 
		 "properties": { 
			 "R2extent": 5514.6873, 
			 "electric_dipole_moment_norm": 5.07021645889, 
			 "electric_quadrupole_moment_norm": 10.683628606, 
			 "total_energy": -994.440751278, 
			 "HOMO_LUMO_gap": 0.15984, 
			 "cosmo_polarized_energy": -9.84, 
			 "cosmo_cavitation_energy": 28.87, 
			 "cosmo_dispersion_energy": -21.68, 
			 "cosmo_repulsion_energy": 1.7, 
			 "cosmo_total_nonelectrostatic_energy": 8.88, 
			 "SMD_solvation_energy": 4.97 
		},
		"coords": [
			{
				"x": -2.016438043,
				"y": 1.197926341,
				"z": 0.0831489418,
				"element": "C" 
			},
			{
				"x": -1.5818245962,
				"y": -0.1888186818,
				"z": 0.1126882838,
				"element": "N" 
			},
			{
				"x": -2.5770299272,
				"y": -1.2413449511,
				"z": 0.2282666397,
				"element": "C" 
			},
			{
				"x": -0.2428151607,
				"y": -0.489144288,
				"z": 0.2694065673,
				"element": "C" 
			},
			{
				"x": 0.7456473421,
				"y": 0.5276931453,
				"z": 0.2786276962,
				"element": "C" 
			},
			{
				"x": 2.0880401315,
				"y": 0.2221880906,
				"z": 0.4176148191,
				"element": "C" 
			},
			{
				"x": 2.5274467016,
				"y": -1.1089102796,
				"z": 0.560803597,
				"element": "C" 
			},
			{
				"x": 1.5536594509,
				"y": -2.1173047406,
				"z": 0.5614195891,
				"element": "C" 
			},
			{
				"x": 0.2036084424,
				"y": -1.821953229,
				"z": 0.4230735712,
				"element": "C" 
			},
			{
				"x": 3.9627067978,
				"y": -1.3758768107,
				"z": 0.7045810607,
				"element": "C" 
			},
			{
				"x": 4.4736735326,
				"y": -3.0967768623,
				"z": 0.899603117,
				"element": "Cl" 
			},
			{
				"x": 4.8410868699,
				"y": -0.4500996716,
				"z": 0.696199749,
				"element": "N" 
			},
			{
				"x": 6.1664228472,
				"y": -0.7413682774,
				"z": 0.8341940681,
				"element": "O" 
			},
			{
				"x": -1.7852948452,
				"y": 1.7322331574,
				"z": 1.0164339468,
				"element": "H" 
			},
			{
				"x": -3.096081747,
				"y": 1.2314114665,
				"z": -0.0675465811,
				"element": "H" 
			},
			{
				"x": -1.549144398,
				"y": 1.745384051,
				"z": -0.744406265,
				"element": "H" 
			},
			{
				"x": -2.5764444624,
				"y": -1.7142966479,
				"z": 1.2215068104,
				"element": "H" 
			},
			{
				"x": -2.4151327661,
				"y": -2.0270371711,
				"z": -0.5198607299,
				"element": "H" 
			},
			{
				"x": -3.567487764,
				"y": -0.8191493306,
				"z": 0.0545642957,
				"element": "H" 
			},
			{
				"x": 0.462085863,
				"y": 1.5678555267,
				"z": 0.1774489742,
				"element": "H" 
			},
			{
				"x": 2.8220781649,
				"y": 1.0200693519,
				"z": 0.4199613508,
				"element": "H" 
			},
			{
				"x": 1.8491608785,
				"y": -3.1539968468,
				"z": 0.6747746169,
				"element": "H" 
			},
			{
				"x": -0.5055379974,
				"y": -2.639937659,
				"z": 0.436133487,
				"element": "H" 
			},
			{
				"x": 6.2542146849,
				"y": -1.7128456828,
				"z": 0.9278623944,
				"element": "H" 
			}
		],
		 "valence_orbital": [ 
			{
				"type": "occ",
				"energy": -0.30392,
				"method": "rhf"
			},
			{
				"type": "occ",
				"energy": -0.29275,
				"method": "rhf"
			},
			{
				"type": "occ",
				"energy": -0.25739,
				"method": "rhf"
			},
			{
				"type": "occ",
				"energy": -0.25232,
				"method": "rhf"
			},
			{
				"type": "occ",
				"energy": -0.1932,
				"method": "rhf"
			},
			{
				"type": "unocc",
				"energy": -0.03336,
				"method": "rhf"
			},
			{
				"type": "unocc",
				"energy": -0.00152,
				"method": "rhf"
			},
			{
				"type": "unocc",
				"energy": 0.01234,
				"method": "rhf"
			},
			{
				"type": "unocc",
				"energy": 0.05746,
				"method": "rhf"
			},
			{
				"type": "unocc",
				"energy": 0.07864,
				"method": "rhf"
			}
		],
		"cosmo_sigma_profile": { 
			"-0.025": 0.0,
			"-0.024": 0.0,
			"-0.023": 0.0,
			"-0.022": 0.0,
			"-0.021": 0.0,
			"-0.02": 0.0,
			"-0.019": 0.0,
			"-0.018": 0.0,
			"-0.017": 0.0,
			"-0.016": 0.0,
			"-0.015": 0.0,
			"-0.014": 0.675532371962,
			"-0.013": 0.471236941006,
			"-0.012": 0.680150341834,
			"-0.011": 0.845674384989,
			"-0.01": 0.740623112026,
			"-0.009": 0.802210221414,
			"-0.008": 1.06312109884,
			"-0.007": 3.02960863053,
			"-0.006": 7.54222157789,
			"-0.005": 15.5665888328,
			"-0.004": 21.2859690104,
			"-0.003": 20.0992878831,
			"-0.002": 24.8992981536,
			"-0.001": 19.759646014,
			"0.0": 16.5038588657,
			"0.001": 16.2234476645,
			"0.002": 14.5630370132,
			"0.003": 15.2563837579,
			"0.004": 15.3680846049,
			"0.005": 13.6784210444,
			"0.006": 4.94128095025,
			"0.007": 2.48383046274,
			"0.008": 3.24285992122,
			"0.009": 5.13028643228,
			"0.01": 4.68506425237,
			"0.011": 2.14574571812,
			"0.012": 0.0,
			"0.013": 0.0,
			"0.014": 0.0,
			"0.015": 0.0,
			"0.016": 0.0,
			"0.017": 0.0,
			"0.018": 0.0,
			"0.019": 0.0,
			"0.02": 0.0,
			"0.021": 0.0,
			"0.022": 0.0,
			"0.023": 0.0,
			"0.024": 0.0,
			"0.025": 0.0
		}
	}
}
