{
	 "smiles": "OC(=O)C(CC1=CSC=C1)C(O)=O", 
	 "Tm": 382.15, 
	 "num_atms": 21, 
	 "gaussian": { 
		 "optdone": 1, 
		 "sigma_profile": "yes", 
		 "theory": "DFT", 
		 "functional": "B3LYP", 
		 "basiset": "6-31G**", 
		 "properties": { 
			 "R2extent": 3151.3786, 
			 "electric_dipole_moment_norm": 3.83013092988, 
			 "electric_quadrupole_moment_norm": 13.7562382634, 
			 "total_energy": -1008.76206227, 
			 "HOMO_LUMO_gap": 0.19914, 
			 "cosmo_polarized_energy": -16.89, 
			 "cosmo_cavitation_energy": 26.57, 
			 "cosmo_dispersion_energy": -19.97, 
			 "cosmo_repulsion_energy": 1.54, 
			 "cosmo_total_nonelectrostatic_energy": 8.13, 
			 "SMD_solvation_energy": 6.68 
		},
		"coords": [
			{
				"x": -2.2653084241,
				"y": -1.0929958919,
				"z": 1.0188017119,
				"element": "O" 
			},
			{
				"x": -1.6939567704,
				"y": 0.0161235117,
				"z": 0.4499518217,
				"element": "C" 
			},
			{
				"x": -2.1905764031,
				"y": 1.1064195428,
				"z": 0.583990656,
				"element": "O" 
			},
			{
				"x": -0.4774591377,
				"y": -0.3163666064,
				"z": -0.4041221568,
				"element": "C" 
			},
			{
				"x": 0.2849666573,
				"y": 0.9669908654,
				"z": -0.816810491,
				"element": "C" 
			},
			{
				"x": 0.9922155918,
				"y": 1.6883763583,
				"z": 0.3098253967,
				"element": "C" 
			},
			{
				"x": 0.4543419926,
				"y": 2.7426071308,
				"z": 1.0045365148,
				"element": "C" 
			},
			{
				"x": 1.5394690984,
				"y": 3.3564577853,
				"z": 2.2071898671,
				"element": "S" 
			},
			{
				"x": 2.7449923299,
				"y": 2.1829823989,
				"z": 1.7790889805,
				"element": "C" 
			},
			{
				"x": 2.3188457928,
				"y": 1.3734058625,
				"z": 0.7654888892,
				"element": "C" 
			},
			{
				"x": 0.5044939247,
				"y": -1.4199749354,
				"z": 0.082241522,
				"element": "C" 
			},
			{
				"x": 0.0655299291,
				"y": -2.3488120563,
				"z": 0.942492312,
				"element": "O" 
			},
			{
				"x": 1.6249021424,
				"y": -1.4698234223,
				"z": -0.3658924951,
				"element": "O" 
			},
			{
				"x": -3.0325664592,
				"y": -0.7869948972,
				"z": 1.5322275524,
				"element": "H" 
			},
			{
				"x": -0.9124814772,
				"y": -0.75243768,
				"z": -1.3189676489,
				"element": "H" 
			},
			{
				"x": 1.0133651198,
				"y": 0.669406274,
				"z": -1.5740838056,
				"element": "H" 
			},
			{
				"x": -0.4342969673,
				"y": 1.6389319008,
				"z": -1.2907133528,
				"element": "H" 
			},
			{
				"x": -0.525141039,
				"y": 3.1812435081,
				"z": 0.8791099143,
				"element": "H" 
			},
			{
				"x": 3.6936655492,
				"y": 2.1654206928,
				"z": 2.2971478156,
				"element": "H" 
			},
			{
				"x": 2.9106815359,
				"y": 0.5688247721,
				"z": 0.3469091793,
				"element": "H" 
			},
			{
				"x": -0.859982986,
				"y": -2.1751851143,
				"z": 1.1925878168,
				"element": "H" 
			}
		],
		 "valence_orbital": [ 
			{
				"type": "occ",
				"energy": -0.3198,
				"method": "rhf"
			},
			{
				"type": "occ",
				"energy": -0.31303,
				"method": "rhf"
			},
			{
				"type": "occ",
				"energy": -0.27661,
				"method": "rhf"
			},
			{
				"type": "occ",
				"energy": -0.24121,
				"method": "rhf"
			},
			{
				"type": "occ",
				"energy": -0.22702,
				"method": "rhf"
			},
			{
				"type": "unocc",
				"energy": -0.02788,
				"method": "rhf"
			},
			{
				"type": "unocc",
				"energy": -0.0064,
				"method": "rhf"
			},
			{
				"type": "unocc",
				"energy": 0.00215,
				"method": "rhf"
			},
			{
				"type": "unocc",
				"energy": 0.03911,
				"method": "rhf"
			},
			{
				"type": "unocc",
				"energy": 0.04195,
				"method": "rhf"
			}
		],
		"cosmo_sigma_profile": { 
			"-0.025": 0.0,
			"-0.024": 0.0,
			"-0.023": 0.0,
			"-0.022": 0.0,
			"-0.021": 0.0,
			"-0.02": 0.237778205798,
			"-0.019": 1.05619644431,
			"-0.018": 0.708143339517,
			"-0.017": 1.08018277008,
			"-0.016": 0.8131743675,
			"-0.015": 1.42044476738,
			"-0.014": 0.44859219742,
			"-0.013": 0.106307982259,
			"-0.012": 0.761973584739,
			"-0.011": 1.52273256093,
			"-0.01": 5.77128353694,
			"-0.009": 5.2189678753,
			"-0.008": 6.35391498846,
			"-0.007": 8.3286742157,
			"-0.006": 7.58063205357,
			"-0.005": 10.3516033104,
			"-0.004": 11.779409525,
			"-0.003": 11.8059579822,
			"-0.002": 11.4567536351,
			"-0.001": 10.8937420034,
			"0.0": 10.8516089309,
			"0.001": 9.62037931883,
			"0.002": 12.2575618297,
			"0.003": 14.5321460047,
			"0.004": 15.6122979277,
			"0.005": 16.5892312593,
			"0.006": 7.25227661134,
			"0.007": 3.63807174683,
			"0.008": 4.19596193424,
			"0.009": 5.28027723554,
			"0.01": 7.49121197875,
			"0.011": 5.03623426409,
			"0.012": 2.65901804808,
			"0.013": 0.976753690071,
			"0.014": 0.0,
			"0.015": 0.0,
			"0.016": 0.0,
			"0.017": 0.0,
			"0.018": 0.0,
			"0.019": 0.0,
			"0.02": 0.0,
			"0.021": 0.0,
			"0.022": 0.0,
			"0.023": 0.0,
			"0.024": 0.0,
			"0.025": 0.0
		}
	}
}
