{
	 "smiles": "CC1=CC=C(CNC(=O)C2CCNCC2)C=C1", 
	 "Tm": 431.15, 
	 "num_atms": 37, 
	 "gaussian": { 
		 "optdone": 1, 
		 "sigma_profile": "yes", 
		 "theory": "DFT", 
		 "functional": "B3LYP", 
		 "basiset": "6-31G**", 
		 "properties": { 
			 "R2extent": 5586.7013, 
			 "electric_dipole_moment_norm": 4.72551441221, 
			 "electric_quadrupole_moment_norm": 15.6707984714, 
			 "total_energy": -730.283122062, 
			 "HOMO_LUMO_gap": 0.19516, 
			 "cosmo_polarized_energy": -15.46, 
			 "cosmo_cavitation_energy": 37.95, 
			 "cosmo_dispersion_energy": -26.53, 
			 "cosmo_repulsion_energy": 2.09, 
			 "cosmo_total_nonelectrostatic_energy": 13.52, 
			 "SMD_solvation_energy": 3.61 
		},
		"coords": [
			{
				"x": 4.0029620991,
				"y": -2.9502354037,
				"z": 1.033478235,
				"element": "C" 
			},
			{
				"x": 3.0699799343,
				"y": -2.0352421644,
				"z": 0.275523767,
				"element": "C" 
			},
			{
				"x": 2.2673185444,
				"y": -2.5246216779,
				"z": -0.7652138154,
				"element": "C" 
			},
			{
				"x": 1.3828674736,
				"y": -1.6897139943,
				"z": -1.443972733,
				"element": "C" 
			},
			{
				"x": 1.2749402098,
				"y": -0.3331575706,
				"z": -1.110581216,
				"element": "C" 
			},
			{
				"x": 0.3317027437,
				"y": 0.5606498124,
				"z": -1.9092813721,
				"element": "C" 
			},
			{
				"x": -0.0090807155,
				"y": 1.8359111792,
				"z": -1.2992663839,
				"element": "N" 
			},
			{
				"x": -0.9216388278,
				"y": 2.0960747585,
				"z": -0.3038584,
				"element": "C" 
			},
			{
				"x": -1.0531343249,
				"y": 3.2382370076,
				"z": 0.1245152255,
				"element": "O" 
			},
			{
				"x": -1.7899841815,
				"y": 0.9307676266,
				"z": 0.177627945,
				"element": "C" 
			},
			{
				"x": -2.1543669169,
				"y": 1.1156296765,
				"z": 1.6701832699,
				"element": "C" 
			},
			{
				"x": -3.4809268384,
				"y": 0.4364785484,
				"z": 2.0120916162,
				"element": "C" 
			},
			{
				"x": -4.5899992285,
				"y": 1.0928331459,
				"z": 1.2974264384,
				"element": "N" 
			},
			{
				"x": -4.2201755712,
				"y": 1.6368599899,
				"z": -0.0200336723,
				"element": "C" 
			},
			{
				"x": -3.0836475726,
				"y": 0.8579096869,
				"z": -0.6976410506,
				"element": "C" 
			},
			{
				"x": 2.0728151961,
				"y": 0.1605913265,
				"z": -0.0756233442,
				"element": "C" 
			},
			{
				"x": 2.9562546666,
				"y": -0.6799273781,
				"z": 0.6047693001,
				"element": "C" 
			},
			{
				"x": 4.4520489567,
				"y": -3.7001756956,
				"z": 0.3746031648,
				"element": "H" 
			},
			{
				"x": 3.4714911478,
				"y": -3.4926901348,
				"z": 1.8255532239,
				"element": "H" 
			},
			{
				"x": 4.8128246689,
				"y": -2.3900526795,
				"z": 1.5098496038,
				"element": "H" 
			},
			{
				"x": 2.3331050833,
				"y": -3.5739341717,
				"z": -1.0434030725,
				"element": "H" 
			},
			{
				"x": 0.7701516678,
				"y": -2.0977188676,
				"z": -2.2456013042,
				"element": "H" 
			},
			{
				"x": -0.583093349,
				"y": 0.0049077592,
				"z": -2.1431827302,
				"element": "H" 
			},
			{
				"x": 0.7891701033,
				"y": 0.790237609,
				"z": -2.8794735167,
				"element": "H" 
			},
			{
				"x": 0.5094907766,
				"y": 2.6568979645,
				"z": -1.5815196028,
				"element": "H" 
			},
			{
				"x": -1.2360793757,
				"y": -0.0055058519,
				"z": 0.0602492747,
				"element": "H" 
			},
			{
				"x": -1.3552196076,
				"y": 0.7135111753,
				"z": 2.3017849855,
				"element": "H" 
			},
			{
				"x": -2.2258411799,
				"y": 2.1859150504,
				"z": 1.8836393088,
				"element": "H" 
			},
			{
				"x": -3.6645016722,
				"y": 0.5018168501,
				"z": 3.0921664364,
				"element": "H" 
			},
			{
				"x": -3.3994546065,
				"y": -0.6404798718,
				"z": 1.7749844918,
				"element": "H" 
			},
			{
				"x": -5.3543748868,
				"y": 0.4344038668,
				"z": 1.1896169484,
				"element": "H" 
			},
			{
				"x": -5.1139556439,
				"y": 1.6457121642,
				"z": -0.6527334329,
				"element": "H" 
			},
			{
				"x": -3.9046361339,
				"y": 2.6820404437,
				"z": 0.0908326839,
				"element": "H" 
			},
			{
				"x": -2.8961699407,
				"y": 1.2506935233,
				"z": -1.7042537704,
				"element": "H" 
			},
			{
				"x": -3.3825882938,
				"y": -0.1907759517,
				"z": -0.818646629,
				"element": "H" 
			},
			{
				"x": 2.0007264564,
				"y": 1.2073564502,
				"z": 0.2037672498,
				"element": "H" 
			},
			{
				"x": 3.5674191389,
				"y": -0.2723042014,
				"z": 1.4065228773,
				"element": "H" 
			}
		],
		 "valence_orbital": [ 
			{
				"type": "occ",
				"energy": -0.25325,
				"method": "rhf"
			},
			{
				"type": "occ",
				"energy": -0.25035,
				"method": "rhf"
			},
			{
				"type": "occ",
				"energy": -0.24137,
				"method": "rhf"
			},
			{
				"type": "occ",
				"energy": -0.2371,
				"method": "rhf"
			},
			{
				"type": "occ",
				"energy": -0.20221,
				"method": "rhf"
			},
			{
				"type": "unocc",
				"energy": -0.00705,
				"method": "rhf"
			},
			{
				"type": "unocc",
				"energy": -0.00427,
				"method": "rhf"
			},
			{
				"type": "unocc",
				"energy": 0.0283,
				"method": "rhf"
			},
			{
				"type": "unocc",
				"energy": 0.07777,
				"method": "rhf"
			},
			{
				"type": "unocc",
				"energy": 0.08487,
				"method": "rhf"
			}
		],
		"cosmo_sigma_profile": { 
			"-0.025": 0.0,
			"-0.024": 0.0,
			"-0.023": 0.0,
			"-0.022": 0.0,
			"-0.021": 0.0,
			"-0.02": 0.0,
			"-0.019": 0.0,
			"-0.018": 0.0,
			"-0.017": 0.0,
			"-0.016": 0.0,
			"-0.015": 0.0,
			"-0.014": 0.0677065007139,
			"-0.013": 1.06925231138,
			"-0.012": 0.930293920175,
			"-0.011": 1.47710727817,
			"-0.01": 1.24970265871,
			"-0.009": 2.46736458251,
			"-0.008": 2.21734790134,
			"-0.007": 3.47408751144,
			"-0.006": 6.37468445999,
			"-0.005": 13.4390871506,
			"-0.004": 26.224750782,
			"-0.003": 36.2413892626,
			"-0.002": 37.9163350365,
			"-0.001": 33.4133414703,
			"0.0": 31.5716729237,
			"0.001": 16.7502956581,
			"0.002": 11.7056530307,
			"0.003": 12.7297808939,
			"0.004": 9.36287321808,
			"0.005": 8.92148984681,
			"0.006": 10.7259221539,
			"0.007": 4.27650120615,
			"0.008": 2.70559077115,
			"0.009": 1.12167427672,
			"0.01": 2.5842370944,
			"0.011": 2.39505180836,
			"0.012": 2.29811981659,
			"0.013": 2.72880358043,
			"0.014": 5.90924898548,
			"0.015": 1.72604643029,
			"0.016": 0.297232988432,
			"0.017": 0.825816617502,
			"0.018": 0.405680826137,
			"0.019": 0.481624328547,
			"0.02": 0.0,
			"0.021": 0.0,
			"0.022": 0.0,
			"0.023": 0.0,
			"0.024": 0.0,
			"0.025": 0.0
		}
	}
}
