{
	 "smiles": "ClC1=CC(C2=CSC(C=O)=N2)=C(Cl)C=C1", 
	 "Tm": 386.15, 
	 "num_atms": 20, 
	 "gaussian": { 
		 "optdone": 1, 
		 "sigma_profile": "yes", 
		 "theory": "DFT", 
		 "functional": "B3LYP", 
		 "basiset": "6-31G**", 
		 "properties": { 
			 "R2extent": 5373.9276, 
			 "electric_dipole_moment_norm": 3.95418183826, 
			 "electric_quadrupole_moment_norm": 17.7043781433, 
			 "total_energy": -1832.59813091, 
			 "HOMO_LUMO_gap": 0.15427, 
			 "cosmo_polarized_energy": -11.25, 
			 "cosmo_cavitation_energy": 30.83, 
			 "cosmo_dispersion_energy": -23.17, 
			 "cosmo_repulsion_energy": 1.76, 
			 "cosmo_total_nonelectrostatic_energy": 9.42, 
			 "SMD_solvation_energy": 4.55 
		},
		"coords": [
			{
				"x": 4.0781624762,
				"y": -2.6433111585,
				"z": -0.9367529791,
				"element": "Cl" 
			},
			{
				"x": 3.1008548874,
				"y": -1.5012440561,
				"z": -0.0331053399,
				"element": "C" 
			},
			{
				"x": 1.7731580059,
				"y": -1.3089524607,
				"z": -0.3888633426,
				"element": "C" 
			},
			{
				"x": 0.9557187524,
				"y": -0.3952791782,
				"z": 0.3060652346,
				"element": "C" 
			},
			{
				"x": -0.4428150294,
				"y": -0.2632802941,
				"z": -0.1678352185,
				"element": "C" 
			},
			{
				"x": -1.3136034015,
				"y": 0.7999204223,
				"z": -0.0007269182,
				"element": "C" 
			},
			{
				"x": -2.8096078631,
				"y": 0.503275765,
				"z": -0.7869451335,
				"element": "S" 
			},
			{
				"x": -2.1753859449,
				"y": -1.0531687843,
				"z": -1.3144110083,
				"element": "C" 
			},
			{
				"x": -3.0130669174,
				"y": -1.9617331398,
				"z": -2.132776953,
				"element": "C" 
			},
			{
				"x": -2.6404915413,
				"y": -3.0382700933,
				"z": -2.5434151936,
				"element": "O" 
			},
			{
				"x": -0.956736801,
				"y": -1.2917726381,
				"z": -0.9200222201,
				"element": "N" 
			},
			{
				"x": 1.5411566547,
				"y": 0.2962405903,
				"z": 1.3840394163,
				"element": "C" 
			},
			{
				"x": 0.6377147487,
				"y": 1.4236787667,
				"z": 2.3918510924,
				"element": "Cl" 
			},
			{
				"x": 2.8767314884,
				"y": 0.0959233752,
				"z": 1.7368035355,
				"element": "C" 
			},
			{
				"x": 3.6703625599,
				"y": -0.8005484856,
				"z": 1.0294995104,
				"element": "C" 
			},
			{
				"x": 1.3380744003,
				"y": -1.8665210789,
				"z": -1.2086083639,
				"element": "H" 
			},
			{
				"x": -1.1460405161,
				"y": 1.726608192,
				"z": 0.5231267219,
				"element": "H" 
			},
			{
				"x": -4.0307292383,
				"y": -1.5700195201,
				"z": -2.3485570397,
				"element": "H" 
			},
			{
				"x": 3.2894822019,
				"y": 0.6442585649,
				"z": 2.5759274573,
				"element": "H" 
			},
			{
				"x": 4.7080610772,
				"y": -0.9550047885,
				"z": 1.301906742,
				"element": "H" 
			}
		],
		 "valence_orbital": [ 
			{
				"type": "occ",
				"energy": -0.30294,
				"method": "rhf"
			},
			{
				"type": "occ",
				"energy": -0.29744,
				"method": "rhf"
			},
			{
				"type": "occ",
				"energy": -0.27319,
				"method": "rhf"
			},
			{
				"type": "occ",
				"energy": -0.25917,
				"method": "rhf"
			},
			{
				"type": "occ",
				"energy": -0.2465,
				"method": "rhf"
			},
			{
				"type": "unocc",
				"energy": -0.09223,
				"method": "rhf"
			},
			{
				"type": "unocc",
				"energy": -0.05616,
				"method": "rhf"
			},
			{
				"type": "unocc",
				"energy": -0.02983,
				"method": "rhf"
			},
			{
				"type": "unocc",
				"energy": -0.0093,
				"method": "rhf"
			},
			{
				"type": "unocc",
				"energy": 0.01144,
				"method": "rhf"
			}
		],
		"cosmo_sigma_profile": { 
			"-0.025": 0.0,
			"-0.024": 0.0,
			"-0.023": 0.0,
			"-0.022": 0.0,
			"-0.021": 0.0,
			"-0.02": 0.0,
			"-0.019": 0.0,
			"-0.018": 0.0,
			"-0.017": 0.0,
			"-0.016": 0.0,
			"-0.015": 0.0,
			"-0.014": 0.0,
			"-0.013": 0.0,
			"-0.012": 0.0,
			"-0.011": 0.0,
			"-0.01": 1.68016943414,
			"-0.009": 4.52512467118,
			"-0.008": 8.45614223136,
			"-0.007": 9.24184280432,
			"-0.006": 8.77871352245,
			"-0.005": 10.2540947247,
			"-0.004": 10.246833641,
			"-0.003": 13.9081700058,
			"-0.002": 18.6550182928,
			"-0.001": 25.3310223895,
			"0.0": 30.1835479824,
			"0.001": 32.8453480254,
			"0.002": 21.2564786954,
			"0.003": 15.1198554091,
			"0.004": 17.7335209043,
			"0.005": 4.22529280561,
			"0.006": 2.9457891434,
			"0.007": 2.83992522405,
			"0.008": 2.59179305554,
			"0.009": 2.69652350962,
			"0.01": 5.16377293494,
			"0.011": 4.64121085292,
			"0.012": 2.38118486198,
			"0.013": 0.820037288228,
			"0.014": 0.0,
			"0.015": 0.0,
			"0.016": 0.0,
			"0.017": 0.0,
			"0.018": 0.0,
			"0.019": 0.0,
			"0.02": 0.0,
			"0.021": 0.0,
			"0.022": 0.0,
			"0.023": 0.0,
			"0.024": 0.0,
			"0.025": 0.0
		}
	}
}
