{
	 "smiles": "CCCC1=C(N=NN1C1=CC(=CC=C1)C(C)C)C(O)=O", 
	 "Tm": 352.15, 
	 "num_atms": 39, 
	 "gaussian": { 
		 "optdone": 1, 
		 "sigma_profile": "yes", 
		 "theory": "DFT", 
		 "functional": "B3LYP", 
		 "basiset": "6-31G**", 
		 "properties": { 
			 "R2extent": 7227.0779, 
			 "electric_dipole_moment_norm": 4.77764325374, 
			 "electric_quadrupole_moment_norm": 15.2922225648, 
			 "total_energy": -897.753354032, 
			 "HOMO_LUMO_gap": 0.21564, 
			 "cosmo_polarized_energy": -16.51, 
			 "cosmo_cavitation_energy": 42.25, 
			 "cosmo_dispersion_energy": -28.11, 
			 "cosmo_repulsion_energy": 2.2, 
			 "cosmo_total_nonelectrostatic_energy": 16.34, 
			 "SMD_solvation_energy": 6.82 
		},
		"coords": [
			{
				"x": -2.7665296432,
				"y": 0.9168768931,
				"z": 0.5615745375,
				"element": "C" 
			},
			{
				"x": -3.0132948814,
				"y": -0.3851512452,
				"z": -0.2049387471,
				"element": "C" 
			},
			{
				"x": -1.7368600124,
				"y": -1.0208803428,
				"z": -0.8044719253,
				"element": "C" 
			},
			{
				"x": -1.0730496837,
				"y": -0.1639009729,
				"z": -1.8400767915,
				"element": "C" 
			},
			{
				"x": -1.4512888805,
				"y": 0.151648219,
				"z": -3.1433225003,
				"element": "C" 
			},
			{
				"x": -0.5574039589,
				"y": 1.0421323437,
				"z": -3.6721434747,
				"element": "N" 
			},
			{
				"x": 0.3523135583,
				"y": 1.3032020087,
				"z": -2.7955939996,
				"element": "N" 
			},
			{
				"x": 0.0589418306,
				"y": 0.5707137697,
				"z": -1.663406229,
				"element": "N" 
			},
			{
				"x": 0.9344969706,
				"y": 0.6667181366,
				"z": -0.5379141064,
				"element": "C" 
			},
			{
				"x": 1.5307872547,
				"y": -0.4829570723,
				"z": -0.0120952842,
				"element": "C" 
			},
			{
				"x": 2.4021615428,
				"y": -0.3976373597,
				"z": 1.0793003521,
				"element": "C" 
			},
			{
				"x": 2.6715967655,
				"y": 0.871655,
				"z": 1.613555993,
				"element": "C" 
			},
			{
				"x": 2.0919092169,
				"y": 2.0183529091,
				"z": 1.0715726242,
				"element": "C" 
			},
			{
				"x": 1.2144824927,
				"y": 1.9262132576,
				"z": -0.0083366007,
				"element": "C" 
			},
			{
				"x": 3.0472849747,
				"y": -1.6543767029,
				"z": 1.6493463713,
				"element": "C" 
			},
			{
				"x": 2.6259266628,
				"y": -1.8986789229,
				"z": 3.1108189753,
				"element": "C" 
			},
			{
				"x": 4.5811170348,
				"y": -1.6223952693,
				"z": 1.5111561697,
				"element": "C" 
			},
			{
				"x": -2.6037256914,
				"y": -0.3878438446,
				"z": -3.8730769517,
				"element": "C" 
			},
			{
				"x": -2.7025972061,
				"y": 0.0774010595,
				"z": -5.1348172584,
				"element": "O" 
			},
			{
				"x": -3.4007796095,
				"y": -1.1834738739,
				"z": -3.401645587,
				"element": "O" 
			},
			{
				"x": -2.3593706449,
				"y": 1.6974805425,
				"z": -0.0900048355,
				"element": "H" 
			},
			{
				"x": -3.6999102641,
				"y": 1.2993696602,
				"z": 0.9866894255,
				"element": "H" 
			},
			{
				"x": -2.0600198564,
				"y": 0.7706990159,
				"z": 1.3865707789,
				"element": "H" 
			},
			{
				"x": -3.7315323523,
				"y": -0.2251470206,
				"z": -1.0143896047,
				"element": "H" 
			},
			{
				"x": -3.4618878615,
				"y": -1.1282134731,
				"z": 0.4655343892,
				"element": "H" 
			},
			{
				"x": -2.0150971406,
				"y": -1.9642119792,
				"z": -1.283076431,
				"element": "H" 
			},
			{
				"x": -1.0288990921,
				"y": -1.2451267134,
				"z": -0.0015578818,
				"element": "H" 
			},
			{
				"x": 1.3306769047,
				"y": -1.4461747883,
				"z": -0.4719972861,
				"element": "H" 
			},
			{
				"x": 3.34817395,
				"y": 0.967832333,
				"z": 2.4579269602,
				"element": "H" 
			},
			{
				"x": 2.3208339848,
				"y": 2.9920327794,
				"z": 1.4941818051,
				"element": "H" 
			},
			{
				"x": 0.7562230772,
				"y": 2.8062426539,
				"z": -0.4448311382,
				"element": "H" 
			},
			{
				"x": 2.6807475261,
				"y": -2.5013880986,
				"z": 1.0548859991,
				"element": "H" 
			},
			{
				"x": 3.0525351094,
				"y": -2.8366150395,
				"z": 3.481826216,
				"element": "H" 
			},
			{
				"x": 2.9756303796,
				"y": -1.0933842025,
				"z": 3.7660291449,
				"element": "H" 
			},
			{
				"x": 1.5373292593,
				"y": -1.9580124999,
				"z": 3.2068054903,
				"element": "H" 
			},
			{
				"x": 4.8832475661,
				"y": -1.4824334512,
				"z": 0.4688510422,
				"element": "H" 
			},
			{
				"x": 5.0169864517,
				"y": -0.8065237639,
				"z": 2.0979987141,
				"element": "H" 
			},
			{
				"x": 5.0184444329,
				"y": -2.5598789248,
				"z": 1.8707394121,
				"element": "H" 
			},
			{
				"x": -3.491000167,
				"y": -0.3503650201,
				"z": -5.5083677674,
				"element": "H" 
			}
		],
		 "valence_orbital": [ 
			{
				"type": "occ",
				"energy": -0.27727,
				"method": "rhf"
			},
			{
				"type": "occ",
				"energy": -0.27032,
				"method": "rhf"
			},
			{
				"type": "occ",
				"energy": -0.26332,
				"method": "rhf"
			},
			{
				"type": "occ",
				"energy": -0.2589,
				"method": "rhf"
			},
			{
				"type": "occ",
				"energy": -0.25288,
				"method": "rhf"
			},
			{
				"type": "unocc",
				"energy": -0.03724,
				"method": "rhf"
			},
			{
				"type": "unocc",
				"energy": -0.02282,
				"method": "rhf"
			},
			{
				"type": "unocc",
				"energy": -0.01809,
				"method": "rhf"
			},
			{
				"type": "unocc",
				"energy": 0.00324,
				"method": "rhf"
			},
			{
				"type": "unocc",
				"energy": 0.07283,
				"method": "rhf"
			}
		],
		"cosmo_sigma_profile": { 
			"-0.025": 0.0,
			"-0.024": 0.0,
			"-0.023": 0.0,
			"-0.022": 0.0,
			"-0.021": 0.0,
			"-0.02": 0.0,
			"-0.019": 0.142863063688,
			"-0.018": 0.78171016677,
			"-0.017": 1.13780618582,
			"-0.016": 0.650249876551,
			"-0.015": 0.388742302788,
			"-0.014": 1.01540119891,
			"-0.013": 0.72584935378,
			"-0.012": 0.664716527221,
			"-0.011": 0.663338306225,
			"-0.01": 0.670756178443,
			"-0.009": 0.611622621831,
			"-0.008": 0.926952995402,
			"-0.007": 4.66968004624,
			"-0.006": 9.96782034989,
			"-0.005": 13.8801447125,
			"-0.004": 19.6263899474,
			"-0.003": 36.7597351821,
			"-0.002": 42.7570789532,
			"-0.001": 40.3078295757,
			"0.0": 33.2899338349,
			"0.001": 34.647637925,
			"0.002": 15.8578465744,
			"0.003": 13.2768298386,
			"0.004": 11.7027737649,
			"0.005": 5.02699317438,
			"0.006": 5.25574616633,
			"0.007": 3.86661849832,
			"0.008": 5.29499156109,
			"0.009": 6.0633244706,
			"0.01": 6.12181999155,
			"0.011": 6.21399584331,
			"0.012": 5.27852748096,
			"0.013": 2.49982239633,
			"0.014": 1.47708788212,
			"0.015": 0.594302946653,
			"0.016": 0.0,
			"0.017": 0.0,
			"0.018": 0.0,
			"0.019": 0.0,
			"0.02": 0.0,
			"0.021": 0.0,
			"0.022": 0.0,
			"0.023": 0.0,
			"0.024": 0.0,
			"0.025": 0.0
		}
	}
}
