{
	 "smiles": "OC(=O)CCC(=O)N(CCC#N)C1=CC=CC=C1", 
	 "Tm": 372.15, 
	 "num_atms": 32, 
	 "gaussian": { 
		 "optdone": 1, 
		 "sigma_profile": "yes", 
		 "theory": "DFT", 
		 "functional": "B3LYP", 
		 "basiset": "6-31G**", 
		 "properties": { 
			 "R2extent": 5954.1701, 
			 "electric_dipole_moment_norm": 9.24772950999, 
			 "electric_quadrupole_moment_norm": 40.6494670043, 
			 "total_energy": -839.009969856, 
			 "HOMO_LUMO_gap": 0.2052, 
			 "cosmo_polarized_energy": -24.05, 
			 "cosmo_cavitation_energy": 36.65, 
			 "cosmo_dispersion_energy": -24.39, 
			 "cosmo_repulsion_energy": 1.92, 
			 "cosmo_total_nonelectrostatic_energy": 14.18, 
			 "SMD_solvation_energy": 8.98 
		},
		"coords": [
			{
				"x": -0.7390457651,
				"y": -3.9574231634,
				"z": 3.4497471893,
				"element": "O" 
			},
			{
				"x": 0.2075514158,
				"y": -4.317085049,
				"z": 2.5674637431,
				"element": "C" 
			},
			{
				"x": 0.4128166501,
				"y": -5.4781690642,
				"z": 2.2945735358,
				"element": "O" 
			},
			{
				"x": 1.0065289522,
				"y": -3.1710596047,
				"z": 1.9368275399,
				"element": "C" 
			},
			{
				"x": 0.1945329264,
				"y": -2.241856207,
				"z": 1.014393542,
				"element": "C" 
			},
			{
				"x": -0.6792891978,
				"y": -1.2413134455,
				"z": 1.7618928299,
				"element": "C" 
			},
			{
				"x": -0.8542094828,
				"y": -1.3123320534,
				"z": 2.9840518601,
				"element": "O" 
			},
			{
				"x": -1.2762170421,
				"y": -0.2490089336,
				"z": 1.0217502167,
				"element": "N" 
			},
			{
				"x": -2.158009931,
				"y": 0.7065870933,
				"z": 1.699036538,
				"element": "C" 
			},
			{
				"x": -1.6568693372,
				"y": 2.1647764557,
				"z": 1.6204154767,
				"element": "C" 
			},
			{
				"x": -0.2974016659,
				"y": 2.3352777772,
				"z": 2.1381162896,
				"element": "C" 
			},
			{
				"x": 0.7930142013,
				"y": 2.4548583722,
				"z": 2.5173509687,
				"element": "N" 
			},
			{
				"x": -1.1475229911,
				"y": -0.1464486363,
				"z": -0.4091620802,
				"element": "C" 
			},
			{
				"x": -0.0844106662,
				"y": 0.5696835749,
				"z": -0.9720901018,
				"element": "C" 
			},
			{
				"x": 0.0147734404,
				"y": 0.6851565306,
				"z": -2.3599024672,
				"element": "C" 
			},
			{
				"x": -0.9459169082,
				"y": 0.0955681374,
				"z": -3.1839675438,
				"element": "C" 
			},
			{
				"x": -2.0094581537,
				"y": -0.6129026631,
				"z": -2.6203251316,
				"element": "C" 
			},
			{
				"x": -2.1126658566,
				"y": -0.7347658696,
				"z": -1.2341463444,
				"element": "C" 
			},
			{
				"x": -0.7770668387,
				"y": -2.974279511,
				"z": 3.5044229998,
				"element": "H" 
			},
			{
				"x": 1.7990948928,
				"y": -3.6399061456,
				"z": 1.3518465609,
				"element": "H" 
			},
			{
				"x": 1.4729265439,
				"y": -2.5748754481,
				"z": 2.7291889168,
				"element": "H" 
			},
			{
				"x": -0.4383224966,
				"y": -2.825384208,
				"z": 0.3339850085,
				"element": "H" 
			},
			{
				"x": 0.8816204081,
				"y": -1.6885702018,
				"z": 0.3672034705,
				"element": "H" 
			},
			{
				"x": -3.1547624349,
				"y": 0.6675768204,
				"z": 1.245755968,
				"element": "H" 
			},
			{
				"x": -2.2299202396,
				"y": 0.3839320688,
				"z": 2.7373093498,
				"element": "H" 
			},
			{
				"x": -1.6717029826,
				"y": 2.5193305372,
				"z": 0.5837435565,
				"element": "H" 
			},
			{
				"x": -2.3414316451,
				"y": 2.8047293017,
				"z": 2.1885304126,
				"element": "H" 
			},
			{
				"x": 0.6564757396,
				"y": 1.0245986251,
				"z": -0.3211786987,
				"element": "H" 
			},
			{
				"x": 0.8425957188,
				"y": 1.2368834912,
				"z": -2.7948249315,
				"element": "H" 
			},
			{
				"x": -0.8659796088,
				"y": 0.1870930338,
				"z": -4.262917637,
				"element": "H" 
			},
			{
				"x": -2.7566690871,
				"y": -1.0747493031,
				"z": -3.2584720188,
				"element": "H" 
			},
			{
				"x": -2.9327585584,
				"y": -1.288322312,
				"z": -0.7859190183,
				"element": "H" 
			}
		],
		 "valence_orbital": [ 
			{
				"type": "occ",
				"energy": -0.28832,
				"method": "rhf"
			},
			{
				"type": "occ",
				"energy": -0.28447,
				"method": "rhf"
			},
			{
				"type": "occ",
				"energy": -0.28138,
				"method": "rhf"
			},
			{
				"type": "occ",
				"energy": -0.27425,
				"method": "rhf"
			},
			{
				"type": "occ",
				"energy": -0.24531,
				"method": "rhf"
			},
			{
				"type": "unocc",
				"energy": -0.04011,
				"method": "rhf"
			},
			{
				"type": "unocc",
				"energy": -0.03693,
				"method": "rhf"
			},
			{
				"type": "unocc",
				"energy": -0.00992,
				"method": "rhf"
			},
			{
				"type": "unocc",
				"energy": 0.01727,
				"method": "rhf"
			},
			{
				"type": "unocc",
				"energy": 0.02463,
				"method": "rhf"
			}
		],
		"cosmo_sigma_profile": { 
			"-0.025": 0.0,
			"-0.024": 0.0,
			"-0.023": 0.0,
			"-0.022": 0.0,
			"-0.021": 0.0,
			"-0.02": 0.0,
			"-0.019": 0.0,
			"-0.018": 0.0,
			"-0.017": 0.0,
			"-0.016": 0.0,
			"-0.015": 0.0,
			"-0.014": 0.0,
			"-0.013": 0.0,
			"-0.012": 0.0,
			"-0.011": 0.0,
			"-0.01": 0.0,
			"-0.009": 2.4963670561,
			"-0.008": 5.66273828265,
			"-0.007": 16.4195036497,
			"-0.006": 30.3345518262,
			"-0.005": 33.5549176785,
			"-0.004": 27.1109675622,
			"-0.003": 19.4602425156,
			"-0.002": 16.6050581284,
			"-0.001": 13.1895175952,
			"0.0": 11.7726652302,
			"0.001": 11.906954755,
			"0.002": 12.1471679397,
			"0.003": 12.8189738955,
			"0.004": 12.8471463716,
			"0.005": 6.28244482134,
			"0.006": 5.99492840561,
			"0.007": 6.5281977561,
			"0.008": 6.10066294505,
			"0.009": 6.56293558947,
			"0.01": 7.60622935594,
			"0.011": 8.64562553074,
			"0.012": 9.02799656686,
			"0.013": 7.13977100641,
			"0.014": 1.71931977993,
			"0.015": 0.0,
			"0.016": 0.0,
			"0.017": 0.0,
			"0.018": 0.0,
			"0.019": 0.0,
			"0.02": 0.0,
			"0.021": 0.0,
			"0.022": 0.0,
			"0.023": 0.0,
			"0.024": 0.0,
			"0.025": 0.0
		}
	}
}
