{
	 "smiles": "CCCCCOC(=O)COC1=CC(N2C(=O)C3=C(CCCC3)C2=O)=C(F)C=C1Cl", 
	 "Tm": 362.15, 
	 "num_atms": 52, 
	 "gaussian": { 
		 "optdone": 1, 
		 "sigma_profile": "yes", 
		 "theory": "DFT", 
		 "functional": "B3LYP", 
		 "basiset": "6-31G**", 
		 "properties": { 
			 "R2extent": 15349.0361, 
			 "electric_dipole_moment_norm": 3.64857934544, 
			 "electric_quadrupole_moment_norm": 24.8715671983, 
			 "total_energy": -1805.0223946, 
			 "HOMO_LUMO_gap": 0.13522, 
			 "cosmo_polarized_energy": -18.0, 
			 "cosmo_cavitation_energy": 57.39, 
			 "cosmo_dispersion_energy": -36.28, 
			 "cosmo_repulsion_energy": 2.79, 
			 "cosmo_total_nonelectrostatic_energy": 23.9, 
			 "SMD_solvation_energy": 10.91 
		},
		"coords": [
			{
				"x": -2.7139044049,
				"y": -1.5049284554,
				"z": -1.7208026171,
				"element": "C" 
			},
			{
				"x": -1.3773698942,
				"y": -2.2368075978,
				"z": -1.8815150113,
				"element": "C" 
			},
			{
				"x": -1.4121156969,
				"y": -3.6581805609,
				"z": -1.3052333015,
				"element": "C" 
			},
			{
				"x": -0.1293279412,
				"y": -4.4873748797,
				"z": -1.4799302877,
				"element": "C" 
			},
			{
				"x": 1.1120436299,
				"y": -3.9452620324,
				"z": -0.7801975057,
				"element": "C" 
			},
			{
				"x": 1.7348109311,
				"y": -2.9426265985,
				"z": -1.6312666349,
				"element": "O" 
			},
			{
				"x": 2.8360521153,
				"y": -2.3674578111,
				"z": -1.1363749055,
				"element": "C" 
			},
			{
				"x": 3.2992703875,
				"y": -2.5699477705,
				"z": -0.0342446932,
				"element": "O" 
			},
			{
				"x": 3.5394758809,
				"y": -1.4487633088,
				"z": -2.1368439461,
				"element": "C" 
			},
			{
				"x": 2.82435204,
				"y": -1.1485258687,
				"z": -3.3184452654,
				"element": "O" 
			},
			{
				"x": 1.8868618139,
				"y": -0.1624263851,
				"z": -3.2986425611,
				"element": "C" 
			},
			{
				"x": 1.4843742986,
				"y": 0.5295312781,
				"z": -2.1536852709,
				"element": "C" 
			},
			{
				"x": 0.5382656904,
				"y": 1.5585957253,
				"z": -2.2294885521,
				"element": "C" 
			},
			{
				"x": 0.1542263359,
				"y": 2.2718500322,
				"z": -1.0697260025,
				"element": "N" 
			},
			{
				"x": 1.0499826264,
				"y": 2.8887527473,
				"z": -0.1627538455,
				"element": "C" 
			},
			{
				"x": 2.2604266612,
				"y": 2.8625813474,
				"z": -0.235697798,
				"element": "O" 
			},
			{
				"x": 0.1981693056,
				"y": 3.5493011842,
				"z": 0.873186007,
				"element": "C" 
			},
			{
				"x": -1.094035643,
				"y": 3.3149926827,
				"z": 0.5913315107,
				"element": "C" 
			},
			{
				"x": -2.2511163695,
				"y": 3.7920467303,
				"z": 1.4078844077,
				"element": "C" 
			},
			{
				"x": -1.7533873882,
				"y": 4.2806319988,
				"z": 2.7839002066,
				"element": "C" 
			},
			{
				"x": -0.4737930557,
				"y": 5.1315067619,
				"z": 2.6675569217,
				"element": "C" 
			},
			{
				"x": 0.6933059221,
				"y": 4.3411631684,
				"z": 2.0402797497,
				"element": "C" 
			},
			{
				"x": -1.1806684979,
				"y": 2.4774772342,
				"z": -0.6450697262,
				"element": "C" 
			},
			{
				"x": -2.1724271812,
				"y": 2.0278645582,
				"z": -1.1767578149,
				"element": "O" 
			},
			{
				"x": -0.0059393174,
				"y": 1.8856488696,
				"z": -3.4714273431,
				"element": "C" 
			},
			{
				"x": -0.8791045335,
				"y": 2.9032430602,
				"z": -3.5716003087,
				"element": "F" 
			},
			{
				"x": 0.3495654825,
				"y": 1.1866903018,
				"z": -4.6174696758,
				"element": "C" 
			},
			{
				"x": 1.294013018,
				"y": 0.1696449837,
				"z": -4.5321641586,
				"element": "C" 
			},
			{
				"x": 1.7595020564,
				"y": -0.691482978,
				"z": -5.9781946217,
				"element": "Cl" 
			},
			{
				"x": -3.0221176483,
				"y": -1.4746041356,
				"z": -0.6687125981,
				"element": "H" 
			},
			{
				"x": -2.649322071,
				"y": -0.4707967386,
				"z": -2.0700163996,
				"element": "H" 
			},
			{
				"x": -3.5113135272,
				"y": -2.0074955622,
				"z": -2.280855489,
				"element": "H" 
			},
			{
				"x": -0.5847053978,
				"y": -1.6582418464,
				"z": -1.3935114683,
				"element": "H" 
			},
			{
				"x": -1.1018402206,
				"y": -2.2798343204,
				"z": -2.9433970558,
				"element": "H" 
			},
			{
				"x": -2.2402884784,
				"y": -4.2104479784,
				"z": -1.7696766741,
				"element": "H" 
			},
			{
				"x": -1.6540344996,
				"y": -3.6044602266,
				"z": -0.2335117831,
				"element": "H" 
			},
			{
				"x": 0.1045072635,
				"y": -4.6191827777,
				"z": -2.5436245199,
				"element": "H" 
			},
			{
				"x": -0.3083368154,
				"y": -5.4928036021,
				"z": -1.077971168,
				"element": "H" 
			},
			{
				"x": 1.8527305113,
				"y": -4.7319278929,
				"z": -0.6065104734,
				"element": "H" 
			},
			{
				"x": 0.8801885508,
				"y": -3.4911519385,
				"z": 0.188665625,
				"element": "H" 
			},
			{
				"x": 3.867647106,
				"y": -0.5481506519,
				"z": -1.6062938606,
				"element": "H" 
			},
			{
				"x": 4.4378966278,
				"y": -1.9791537136,
				"z": -2.4672576354,
				"element": "H" 
			},
			{
				"x": 1.9035895489,
				"y": 0.2935535119,
				"z": -1.1849377083,
				"element": "H" 
			},
			{
				"x": -2.9944173149,
				"y": 2.9930102242,
				"z": 1.5099188188,
				"element": "H" 
			},
			{
				"x": -2.7620283378,
				"y": 4.6028379019,
				"z": 0.8692055237,
				"element": "H" 
			},
			{
				"x": -1.5488832856,
				"y": 3.4092843603,
				"z": 3.4195353194,
				"element": "H" 
			},
			{
				"x": -2.5425841076,
				"y": 4.8535935803,
				"z": 3.2814192172,
				"element": "H" 
			},
			{
				"x": -0.6832769391,
				"y": 6.0118712107,
				"z": 2.0462070965,
				"element": "H" 
			},
			{
				"x": -0.1796179619,
				"y": 5.5060757448,
				"z": 3.6533580802,
				"element": "H" 
			},
			{
				"x": 1.5051559183,
				"y": 5.007771042,
				"z": 1.727239867,
				"element": "H" 
			},
			{
				"x": 1.1402679512,
				"y": 3.6579139758,
				"z": 2.7764677452,
				"element": "H" 
			},
			{
				"x": -0.0957251447,
				"y": 1.4538014158,
				"z": -5.5679474156,
				"element": "H" 
			}
		],
		 "valence_orbital": [ 
			{
				"type": "occ",
				"energy": -0.28147,
				"method": "rhf"
			},
			{
				"type": "occ",
				"energy": -0.27841,
				"method": "rhf"
			},
			{
				"type": "occ",
				"energy": -0.27131,
				"method": "rhf"
			},
			{
				"type": "occ",
				"energy": -0.25381,
				"method": "rhf"
			},
			{
				"type": "occ",
				"energy": -0.22561,
				"method": "rhf"
			},
			{
				"type": "unocc",
				"energy": -0.09039,
				"method": "rhf"
			},
			{
				"type": "unocc",
				"energy": -0.03163,
				"method": "rhf"
			},
			{
				"type": "unocc",
				"energy": -0.00277,
				"method": "rhf"
			},
			{
				"type": "unocc",
				"energy": 0.00148,
				"method": "rhf"
			},
			{
				"type": "unocc",
				"energy": 0.02415,
				"method": "rhf"
			}
		],
		"cosmo_sigma_profile": { 
			"-0.025": 0.0,
			"-0.024": 0.0,
			"-0.023": 0.0,
			"-0.022": 0.0,
			"-0.021": 0.0,
			"-0.02": 0.0,
			"-0.019": 0.0,
			"-0.018": 0.0,
			"-0.017": 0.0,
			"-0.016": 0.0,
			"-0.015": 0.0,
			"-0.014": 0.0,
			"-0.013": 0.0,
			"-0.012": 0.0,
			"-0.011": 0.0,
			"-0.01": 0.978981169238,
			"-0.009": 5.82762887297,
			"-0.008": 6.04560633091,
			"-0.007": 6.95153839874,
			"-0.006": 9.81126299766,
			"-0.005": 22.7799863359,
			"-0.004": 35.5908400831,
			"-0.003": 48.3296329205,
			"-0.002": 53.493568629,
			"-0.001": 51.0994771382,
			"0.0": 42.4982572603,
			"0.001": 36.8970857524,
			"0.002": 25.2544148658,
			"0.003": 21.176814139,
			"0.004": 21.8041019123,
			"0.005": 10.869880899,
			"0.006": 9.35030375039,
			"0.007": 8.08622487777,
			"0.008": 7.99774251019,
			"0.009": 8.51424191835,
			"0.01": 7.86920166091,
			"0.011": 9.21944926824,
			"0.012": 4.38328767094,
			"0.013": 0.17823852905,
			"0.014": 0.0,
			"0.015": 0.0,
			"0.016": 0.0,
			"0.017": 0.0,
			"0.018": 0.0,
			"0.019": 0.0,
			"0.02": 0.0,
			"0.021": 0.0,
			"0.022": 0.0,
			"0.023": 0.0,
			"0.024": 0.0,
			"0.025": 0.0
		}
	}
}
