{
	 "smiles": "COC(=O)C1=CC(=C(Br)C(F)=C1)[N+]([O-])=O", 
	 "Tm": 340.15, 
	 "num_atms": 20, 
	 "gaussian": { 
		 "optdone": 1, 
		 "sigma_profile": "yes", 
		 "theory": "DFT", 
		 "functional": "B3LYP", 
		 "basiset": "6-31G**", 
		 "properties": { 
			 "R2extent": 5961.5574, 
			 "electric_dipole_moment_norm": 3.06552908647, 
			 "electric_quadrupole_moment_norm": 15.4004499103, 
			 "total_energy": -3334.63948622, 
			 "HOMO_LUMO_gap": 0.17122, 
			 "cosmo_polarized_energy": -10.1, 
			 "cosmo_cavitation_energy": 29.06, 
			 "cosmo_dispersion_energy": -21.29, 
			 "cosmo_repulsion_energy": 1.64, 
			 "cosmo_total_nonelectrostatic_energy": 9.42, 
			 "SMD_solvation_energy": 8.37 
		},
		"coords": [
			{
				"x": 3.4187005484,
				"y": -0.9766824857,
				"z": -1.3858857371,
				"element": "C" 
			},
			{
				"x": 2.0230726918,
				"y": -0.888663985,
				"z": -1.0444455188,
				"element": "O" 
			},
			{
				"x": 1.7577798268,
				"y": -0.3781218211,
				"z": 0.1721509877,
				"element": "C" 
			},
			{
				"x": 2.6086081359,
				"y": -0.0100428511,
				"z": 0.9562869275,
				"element": "O" 
			},
			{
				"x": 0.2905042064,
				"y": -0.3151225176,
				"z": 0.4500799384,
				"element": "C" 
			},
			{
				"x": -0.6661862971,
				"y": -0.7342222459,
				"z": -0.474835449,
				"element": "C" 
			},
			{
				"x": -2.0189948819,
				"y": -0.6667920257,
				"z": -0.1499593926,
				"element": "C" 
			},
			{
				"x": -2.4548782336,
				"y": -0.1583183642,
				"z": 1.0834734719,
				"element": "C" 
			},
			{
				"x": -4.2561281293,
				"y": 0.062450086,
				"z": 1.5955344016,
				"element": "Br" 
			},
			{
				"x": -1.4671084444,
				"y": 0.2729121561,
				"z": 1.9796926711,
				"element": "C" 
			},
			{
				"x": -1.8393367851,
				"y": 0.7834782723,
				"z": 3.1589578095,
				"element": "F" 
			},
			{
				"x": -0.1154350789,
				"y": 0.1929393047,
				"z": 1.6873384503,
				"element": "C" 
			},
			{
				"x": -2.9545025747,
				"y": -1.1754881779,
				"z": -1.1740740218,
				"element": "N" 
			},
			{
				"x": -3.9684720437,
				"y": -1.7485288072,
				"z": -0.7932877305,
				"element": "O" 
			},
			{
				"x": -2.6243586513,
				"y": -1.0120465187,
				"z": -2.347366342,
				"element": "O" 
			},
			{
				"x": 3.8764327748,
				"y": 0.0151666297,
				"z": -1.3754156855,
				"element": "H" 
			},
			{
				"x": 3.4476055641,
				"y": -1.4042285298,
				"z": -2.3873246064,
				"element": "H" 
			},
			{
				"x": 3.9446429803,
				"y": -1.6187466234,
				"z": -0.675570763,
				"element": "H" 
			},
			{
				"x": -0.3770662442,
				"y": -1.1144482341,
				"z": -1.4450700934,
				"element": "H" 
			},
			{
				"x": 0.6200206358,
				"y": 0.5291067388,
				"z": 2.4091206821,
				"element": "H" 
			}
		],
		 "valence_orbital": [ 
			{
				"type": "occ",
				"energy": -0.31696,
				"method": "rhf"
			},
			{
				"type": "occ",
				"energy": -0.29855,
				"method": "rhf"
			},
			{
				"type": "occ",
				"energy": -0.2958,
				"method": "rhf"
			},
			{
				"type": "occ",
				"energy": -0.287,
				"method": "rhf"
			},
			{
				"type": "occ",
				"energy": -0.27326,
				"method": "rhf"
			},
			{
				"type": "unocc",
				"energy": -0.10204,
				"method": "rhf"
			},
			{
				"type": "unocc",
				"energy": -0.07443,
				"method": "rhf"
			},
			{
				"type": "unocc",
				"energy": -0.02772,
				"method": "rhf"
			},
			{
				"type": "unocc",
				"energy": -0.0234,
				"method": "rhf"
			},
			{
				"type": "unocc",
				"energy": 0.02899,
				"method": "rhf"
			}
		],
		"cosmo_sigma_profile": { 
			"-0.025": 0.0,
			"-0.024": 0.0,
			"-0.023": 0.0,
			"-0.022": 0.0,
			"-0.021": 0.0,
			"-0.02": 0.0,
			"-0.019": 0.0,
			"-0.018": 0.0,
			"-0.017": 0.0,
			"-0.016": 0.0,
			"-0.015": 0.0,
			"-0.014": 0.0,
			"-0.013": 0.0,
			"-0.012": 0.0,
			"-0.011": 0.0,
			"-0.01": 0.000553814695638,
			"-0.009": 1.49939909562,
			"-0.008": 3.05840403052,
			"-0.007": 6.70797794749,
			"-0.006": 11.8703519666,
			"-0.005": 14.0564281358,
			"-0.004": 23.1904564008,
			"-0.003": 27.4423346421,
			"-0.002": 23.5842326371,
			"-0.001": 14.6738250502,
			"0.0": 11.476778511,
			"0.001": 12.3926626698,
			"0.002": 16.9085700242,
			"0.003": 17.0325301235,
			"0.004": 9.78983778255,
			"0.005": 5.64297250314,
			"0.006": 7.58103719728,
			"0.007": 12.7080938492,
			"0.008": 6.22758345725,
			"0.009": 3.98565867506,
			"0.01": 2.73382032284,
			"0.011": 4.17838162569,
			"0.012": 0.472023984654,
			"0.013": 0.0,
			"0.014": 0.0,
			"0.015": 0.0,
			"0.016": 0.0,
			"0.017": 0.0,
			"0.018": 0.0,
			"0.019": 0.0,
			"0.02": 0.0,
			"0.021": 0.0,
			"0.022": 0.0,
			"0.023": 0.0,
			"0.024": 0.0,
			"0.025": 0.0
		}
	}
}
