{
	 "smiles": "CC1=CCCC1", 
	 "Tm": 147.15, 
	 "num_atms": 16, 
	 "gaussian": { 
		 "optdone": 1, 
		 "sigma_profile": "yes", 
		 "theory": "DFT", 
		 "functional": "B3LYP", 
		 "basiset": "6-31G**", 
		 "properties": { 
			 "R2extent": 956.6062, 
			 "electric_dipole_moment_norm": 0.246110564584, 
			 "electric_quadrupole_moment_norm": 1.42262775173, 
			 "total_energy": -234.65774686, 
			 "HOMO_LUMO_gap": 0.25976, 
			 "cosmo_polarized_energy": -1.15, 
			 "cosmo_cavitation_energy": 17.78, 
			 "cosmo_dispersion_energy": -13.55, 
			 "cosmo_repulsion_energy": 1.19, 
			 "cosmo_total_nonelectrostatic_energy": 5.42, 
			 "SMD_solvation_energy": 2.83 
		},
		"coords": [
			{
				"x": 1.6460524138,
				"y": -0.7018389476,
				"z": -2.9826281446,
				"element": "C" 
			},
			{
				"x": 1.1262672052,
				"y": -0.691525474,
				"z": -1.5771714668,
				"element": "C" 
			},
			{
				"x": -0.1516299308,
				"y": -0.6229576327,
				"z": -1.1834483872,
				"element": "C" 
			},
			{
				"x": -0.2998496255,
				"y": -0.5782180046,
				"z": 0.3191046482,
				"element": "C" 
			},
			{
				"x": 1.1167569461,
				"y": -0.968598733,
				"z": 0.8197292345,
				"element": "C" 
			},
			{
				"x": 2.0605815995,
				"y": -0.7060548058,
				"z": -0.3805042074,
				"element": "C" 
			},
			{
				"x": 2.2415189183,
				"y": -1.6030635684,
				"z": -3.17963263,
				"element": "H" 
			},
			{
				"x": 2.3095761016,
				"y": 0.1539392587,
				"z": -3.1659044513,
				"element": "H" 
			},
			{
				"x": 0.835107428,
				"y": -0.6635120471,
				"z": -3.7157325075,
				"element": "H" 
			},
			{
				"x": -1.0003336823,
				"y": -0.5617447097,
				"z": -1.8599762836,
				"element": "H" 
			},
			{
				"x": -1.0764683787,
				"y": -1.2551414664,
				"z": 0.6962298757,
				"element": "H" 
			},
			{
				"x": -0.5863999553,
				"y": 0.4308752524,
				"z": 0.6524310092,
				"element": "H" 
			},
			{
				"x": 1.4137469449,
				"y": -0.4262898874,
				"z": 1.7221191584,
				"element": "H" 
			},
			{
				"x": 1.1315059988,
				"y": -2.0359241981,
				"z": 1.0650370801,
				"element": "H" 
			},
			{
				"x": 2.5782588986,
				"y": 0.2617287117,
				"z": -0.2935893039,
				"element": "H" 
			},
			{
				"x": 2.8493091177,
				"y": -1.4643737479,
				"z": -0.469863624,
				"element": "H" 
			}
		],
		 "valence_orbital": [ 
			{
				"type": "occ",
				"energy": -0.3361,
				"method": "rhf"
			},
			{
				"type": "occ",
				"energy": -0.33316,
				"method": "rhf"
			},
			{
				"type": "occ",
				"energy": -0.33118,
				"method": "rhf"
			},
			{
				"type": "occ",
				"energy": -0.32361,
				"method": "rhf"
			},
			{
				"type": "occ",
				"energy": -0.22305,
				"method": "rhf"
			},
			{
				"type": "unocc",
				"energy": 0.03671,
				"method": "rhf"
			},
			{
				"type": "unocc",
				"energy": 0.09855,
				"method": "rhf"
			},
			{
				"type": "unocc",
				"energy": 0.11889,
				"method": "rhf"
			},
			{
				"type": "unocc",
				"energy": 0.12754,
				"method": "rhf"
			},
			{
				"type": "unocc",
				"energy": 0.14522,
				"method": "rhf"
			}
		],
		"cosmo_sigma_profile": { 
			"-0.025": 0.0,
			"-0.024": 0.0,
			"-0.023": 0.0,
			"-0.022": 0.0,
			"-0.021": 0.0,
			"-0.02": 0.0,
			"-0.019": 0.0,
			"-0.018": 0.0,
			"-0.017": 0.0,
			"-0.016": 0.0,
			"-0.015": 0.0,
			"-0.014": 0.0,
			"-0.013": 0.0,
			"-0.012": 0.0,
			"-0.011": 0.0,
			"-0.01": 0.0,
			"-0.009": 0.0,
			"-0.008": 0.0,
			"-0.007": 0.0,
			"-0.006": 0.0,
			"-0.005": 0.043490451755,
			"-0.004": 2.69476821395,
			"-0.003": 11.5359335699,
			"-0.002": 22.3464281312,
			"-0.001": 24.8013651707,
			"0.0": 27.0907518317,
			"0.001": 25.1820766792,
			"0.002": 9.11583886359,
			"0.003": 4.17044707367,
			"0.004": 4.04933614963,
			"0.005": 2.74896690469,
			"0.006": 2.26864683846,
			"0.007": 1.86149892195,
			"0.008": 0.361582592641,
			"0.009": 0.0,
			"0.01": 0.0,
			"0.011": 0.0,
			"0.012": 0.0,
			"0.013": 0.0,
			"0.014": 0.0,
			"0.015": 0.0,
			"0.016": 0.0,
			"0.017": 0.0,
			"0.018": 0.0,
			"0.019": 0.0,
			"0.02": 0.0,
			"0.021": 0.0,
			"0.022": 0.0,
			"0.023": 0.0,
			"0.024": 0.0,
			"0.025": 0.0
		}
	}
}
