{
	 "smiles": "NC(=O)NCC1=CC=CO1", 
	 "Tm": 394.15, 
	 "num_atms": 18, 
	 "gaussian": { 
		 "optdone": 1, 
		 "sigma_profile": "yes", 
		 "theory": "DFT", 
		 "functional": "B3LYP", 
		 "basiset": "6-31G**", 
		 "properties": { 
			 "R2extent": 2048.1291, 
			 "electric_dipole_moment_norm": 4.39498478723, 
			 "electric_quadrupole_moment_norm": 18.8427326521, 
			 "total_energy": -493.405632724, 
			 "HOMO_LUMO_gap": 0.23062, 
			 "cosmo_polarized_energy": -14.54, 
			 "cosmo_cavitation_energy": 22.24, 
			 "cosmo_dispersion_energy": -16.53, 
			 "cosmo_repulsion_energy": 1.37, 
			 "cosmo_total_nonelectrostatic_energy": 7.08, 
			 "SMD_solvation_energy": 5.03 
		},
		"coords": [
			{
				"x": -2.2197376293,
				"y": -0.571627244,
				"z": 2.1265805956,
				"element": "N" 
			},
			{
				"x": -0.9035664935,
				"y": -0.848076276,
				"z": 2.47497111,
				"element": "C" 
			},
			{
				"x": -0.5785550344,
				"y": -1.2937578952,
				"z": 3.5681853304,
				"element": "O" 
			},
			{
				"x": 0.025593614,
				"y": -0.612375833,
				"z": 1.4787347941,
				"element": "N" 
			},
			{
				"x": -0.2593104813,
				"y": -0.440264284,
				"z": 0.0573925639,
				"element": "C" 
			},
			{
				"x": -0.4025653686,
				"y": 0.9832729679,
				"z": -0.3856206308,
				"element": "C" 
			},
			{
				"x": 0.3588992704,
				"y": 1.8242303392,
				"z": -1.1401704048,
				"element": "C" 
			},
			{
				"x": -0.332635641,
				"y": 3.0814832935,
				"z": -1.1852592178,
				"element": "C" 
			},
			{
				"x": -1.4659355996,
				"y": 2.9172019596,
				"z": -0.4535463878,
				"element": "C" 
			},
			{
				"x": -1.5299320922,
				"y": 1.6427334975,
				"z": 0.0385555254,
				"element": "O" 
			},
			{
				"x": -2.8314129967,
				"y": -0.6194035441,
				"z": 2.9291360548,
				"element": "H" 
			},
			{
				"x": -2.3850067732,
				"y": 0.222761036,
				"z": 1.520924566,
				"element": "H" 
			},
			{
				"x": 0.9634267795,
				"y": -0.8594605758,
				"z": 1.7559064674,
				"element": "H" 
			},
			{
				"x": -1.1718568092,
				"y": -0.9963626957,
				"z": -0.1895376719,
				"element": "H" 
			},
			{
				"x": 0.5549086319,
				"y": -0.8902006147,
				"z": -0.5175756219,
				"element": "H" 
			},
			{
				"x": 1.3018646346,
				"y": 1.5811410876,
				"z": -1.6090940172,
				"element": "H" 
			},
			{
				"x": -0.0224124635,
				"y": 3.9822351442,
				"z": -1.6948707071,
				"element": "H" 
			},
			{
				"x": -2.2910655478,
				"y": 3.563169637,
				"z": -0.1975123482,
				"element": "H" 
			}
		],
		 "valence_orbital": [ 
			{
				"type": "occ",
				"energy": -0.28843,
				"method": "rhf"
			},
			{
				"type": "occ",
				"energy": -0.26692,
				"method": "rhf"
			},
			{
				"type": "occ",
				"energy": -0.24983,
				"method": "rhf"
			},
			{
				"type": "occ",
				"energy": -0.24208,
				"method": "rhf"
			},
			{
				"type": "occ",
				"energy": -0.23055,
				"method": "rhf"
			},
			{
				"type": "unocc",
				"energy": 7e-05,
				"method": "rhf"
			},
			{
				"type": "unocc",
				"energy": 0.05869,
				"method": "rhf"
			},
			{
				"type": "unocc",
				"energy": 0.06642,
				"method": "rhf"
			},
			{
				"type": "unocc",
				"energy": 0.0799,
				"method": "rhf"
			},
			{
				"type": "unocc",
				"energy": 0.11257,
				"method": "rhf"
			}
		],
		"cosmo_sigma_profile": { 
			"-0.025": 0.0,
			"-0.024": 0.0,
			"-0.023": 0.0,
			"-0.022": 0.0,
			"-0.021": 0.0,
			"-0.02": 0.0,
			"-0.019": 0.0,
			"-0.018": 0.0,
			"-0.017": 0.0,
			"-0.016": 0.0,
			"-0.015": 0.0,
			"-0.014": 0.1732301184,
			"-0.013": 1.79146523543,
			"-0.012": 2.05990812716,
			"-0.011": 2.21399074269,
			"-0.01": 1.97998231834,
			"-0.009": 4.87184575993,
			"-0.008": 5.30157747124,
			"-0.007": 8.44189242079,
			"-0.006": 10.28798505,
			"-0.005": 10.9503930796,
			"-0.004": 12.1535787192,
			"-0.003": 9.99069382164,
			"-0.002": 10.2109121536,
			"-0.001": 9.46621898704,
			"0.0": 8.54766448672,
			"0.001": 8.36886125392,
			"0.002": 9.9446671148,
			"0.003": 11.6727934216,
			"0.004": 9.91569464528,
			"0.005": 10.1301721089,
			"0.006": 5.19148123716,
			"0.007": 2.03854018754,
			"0.008": 1.23599621157,
			"0.009": 1.84034337884,
			"0.01": 2.05197166827,
			"0.011": 1.57933179131,
			"0.012": 1.5958201688,
			"0.013": 2.0139549931,
			"0.014": 4.8173347352,
			"0.015": 5.5470736625,
			"0.016": 0.353141146461,
			"0.017": 0.0,
			"0.018": 0.0,
			"0.019": 0.0,
			"0.02": 0.0,
			"0.021": 0.0,
			"0.022": 0.0,
			"0.023": 0.0,
			"0.024": 0.0,
			"0.025": 0.0
		}
	}
}
