{
	 "smiles": "CN1C2=C(C=CC=C2)C(C(=O)CC#N)=C1C1=CC=CC=C1", 
	 "Tm": 429.15, 
	 "num_atms": 35, 
	 "gaussian": { 
		 "optdone": 1, 
		 "sigma_profile": "yes", 
		 "theory": "DFT", 
		 "functional": "B3LYP", 
		 "basiset": "6-31G**", 
		 "properties": { 
			 "R2extent": 6597.4496, 
			 "electric_dipole_moment_norm": 8.19170755398, 
			 "electric_quadrupole_moment_norm": 34.9232507951, 
			 "total_energy": -879.068925056, 
			 "HOMO_LUMO_gap": 0.16529, 
			 "cosmo_polarized_energy": -20.52, 
			 "cosmo_cavitation_energy": 39.52, 
			 "cosmo_dispersion_energy": -27.13, 
			 "cosmo_repulsion_energy": 2.05, 
			 "cosmo_total_nonelectrostatic_energy": 14.45, 
			 "SMD_solvation_energy": 8.05 
		},
		"coords": [
			{
				"x": -1.8467477911,
				"y": -2.2210242569,
				"z": -0.4565123817,
				"element": "C" 
			},
			{
				"x": -1.0018942959,
				"y": -1.1134424143,
				"z": -0.0357268167,
				"element": "N" 
			},
			{
				"x": -0.2686413767,
				"y": -1.1291471936,
				"z": 1.1422582239,
				"element": "C" 
			},
			{
				"x": 0.5204464217,
				"y": 0.049083016,
				"z": 1.1922619251,
				"element": "C" 
			},
			{
				"x": 1.3513541342,
				"y": 0.2285186957,
				"z": 2.3156091575,
				"element": "C" 
			},
			{
				"x": 1.3689934898,
				"y": -0.7355737583,
				"z": 3.3180036884,
				"element": "C" 
			},
			{
				"x": 0.5746919007,
				"y": -1.8926370961,
				"z": 3.2373327231,
				"element": "C" 
			},
			{
				"x": -0.2561769953,
				"y": -2.1044198321,
				"z": 2.1433108448,
				"element": "C" 
			},
			{
				"x": 0.231178524,
				"y": 0.7862106604,
				"z": -0.0267135289,
				"element": "C" 
			},
			{
				"x": 0.7127933204,
				"y": 2.0996085727,
				"z": -0.4663249043,
				"element": "C" 
			},
			{
				"x": 0.4352997815,
				"y": 2.6036133645,
				"z": -1.5437679329,
				"element": "O" 
			},
			{
				"x": 1.6233061843,
				"y": 2.8728037332,
				"z": 0.5171288359,
				"element": "C" 
			},
			{
				"x": 1.9798571496,
				"y": 4.2054896879,
				"z": 0.0347350787,
				"element": "C" 
			},
			{
				"x": 2.2882085128,
				"y": 5.2702661572,
				"z": -0.3057103594,
				"element": "N" 
			},
			{
				"x": -0.7065013035,
				"y": 0.0295718155,
				"z": -0.7451609006,
				"element": "C" 
			},
			{
				"x": -1.3779178932,
				"y": 0.3079708613,
				"z": -2.0351400531,
				"element": "C" 
			},
			{
				"x": -0.6418069031,
				"y": 0.3934556185,
				"z": -3.2262629079,
				"element": "C" 
			},
			{
				"x": -1.2884321868,
				"y": 0.620605399,
				"z": -4.4384742827,
				"element": "C" 
			},
			{
				"x": -2.6765722758,
				"y": 0.7746594216,
				"z": -4.4786907049,
				"element": "C" 
			},
			{
				"x": -3.417170898,
				"y": 0.6994858278,
				"z": -3.2988218091,
				"element": "C" 
			},
			{
				"x": -2.7724932141,
				"y": 0.4634812988,
				"z": -2.0839564772,
				"element": "C" 
			},
			{
				"x": -2.7187009015,
				"y": -2.3156785717,
				"z": 0.1991849294,
				"element": "H" 
			},
			{
				"x": -2.1881543102,
				"y": -2.0508825108,
				"z": -1.4754696943,
				"element": "H" 
			},
			{
				"x": -1.277182151,
				"y": -3.1548991402,
				"z": -0.4209585761,
				"element": "H" 
			},
			{
				"x": 1.9850026173,
				"y": 1.1003054761,
				"z": 2.4207256328,
				"element": "H" 
			},
			{
				"x": 2.0122350778,
				"y": -0.5904465648,
				"z": 4.1807477295,
				"element": "H" 
			},
			{
				"x": 0.6097717035,
				"y": -2.62720489,
				"z": 4.0358975821,
				"element": "H" 
			},
			{
				"x": -0.8744070412,
				"y": -2.9936381338,
				"z": 2.074343962,
				"element": "H" 
			},
			{
				"x": 1.1292220924,
				"y": 2.962403038,
				"z": 1.4915499646,
				"element": "H" 
			},
			{
				"x": 2.5432755946,
				"y": 2.2990123756,
				"z": 0.6833777433,
				"element": "H" 
			},
			{
				"x": 0.4372075239,
				"y": 0.2915953387,
				"z": -3.193827204,
				"element": "H" 
			},
			{
				"x": -0.7067691637,
				"y": 0.6854970289,
				"z": -5.3531207613,
				"element": "H" 
			},
			{
				"x": -3.1768499706,
				"y": 0.9584264411,
				"z": -5.4250244944,
				"element": "H" 
			},
			{
				"x": -4.4952412152,
				"y": 0.8291372952,
				"z": -3.3202843364,
				"element": "H" 
			},
			{
				"x": -3.3494841415,
				"y": 0.418993239,
				"z": -1.1644198952,
				"element": "H" 
			}
		],
		 "valence_orbital": [ 
			{
				"type": "occ",
				"energy": -0.27015,
				"method": "rhf"
			},
			{
				"type": "occ",
				"energy": -0.2607,
				"method": "rhf"
			},
			{
				"type": "occ",
				"energy": -0.24528,
				"method": "rhf"
			},
			{
				"type": "occ",
				"energy": -0.23545,
				"method": "rhf"
			},
			{
				"type": "occ",
				"energy": -0.21982,
				"method": "rhf"
			},
			{
				"type": "unocc",
				"energy": -0.05453,
				"method": "rhf"
			},
			{
				"type": "unocc",
				"energy": -0.01573,
				"method": "rhf"
			},
			{
				"type": "unocc",
				"energy": -0.01007,
				"method": "rhf"
			},
			{
				"type": "unocc",
				"energy": -0.00908,
				"method": "rhf"
			},
			{
				"type": "unocc",
				"energy": 0.00975,
				"method": "rhf"
			}
		],
		"cosmo_sigma_profile": { 
			"-0.025": 0.0,
			"-0.024": 0.0,
			"-0.023": 0.0,
			"-0.022": 0.0,
			"-0.021": 0.0,
			"-0.02": 0.0,
			"-0.019": 0.0,
			"-0.018": 0.0,
			"-0.017": 0.0,
			"-0.016": 0.0,
			"-0.015": 0.0,
			"-0.014": 0.0,
			"-0.013": 0.0,
			"-0.012": 0.0,
			"-0.011": 0.00766316572961,
			"-0.01": 2.48567047585,
			"-0.009": 6.2013442452,
			"-0.008": 5.96259679744,
			"-0.007": 6.28322555628,
			"-0.006": 23.4216254134,
			"-0.005": 29.2762086113,
			"-0.004": 30.4097580514,
			"-0.003": 25.6139362287,
			"-0.002": 19.5024312811,
			"-0.001": 15.1935000956,
			"0.0": 17.0713894248,
			"0.001": 17.4876570818,
			"0.002": 15.9577589215,
			"0.003": 17.8360392567,
			"0.004": 18.5125240551,
			"0.005": 16.7309837967,
			"0.006": 10.5465109361,
			"0.007": 5.24317334873,
			"0.008": 6.51534605968,
			"0.009": 6.05393685272,
			"0.01": 5.81621729706,
			"0.011": 5.3268002258,
			"0.012": 6.60257407558,
			"0.013": 3.59518079968,
			"0.014": 0.12734046497,
			"0.015": 0.0,
			"0.016": 0.0,
			"0.017": 0.0,
			"0.018": 0.0,
			"0.019": 0.0,
			"0.02": 0.0,
			"0.021": 0.0,
			"0.022": 0.0,
			"0.023": 0.0,
			"0.024": 0.0,
			"0.025": 0.0
		}
	}
}
