{
	 "smiles": "CC1OC2=C(NC1=O)C=CC=C2C(O)=O", 
	 "Tm": 555.15, 
	 "num_atms": 24, 
	 "gaussian": { 
		 "optdone": 1, 
		 "sigma_profile": "yes", 
		 "theory": "DFT", 
		 "functional": "B3LYP", 
		 "basiset": "6-31G**", 
		 "properties": { 
			 "R2extent": 3369.8654, 
			 "electric_dipole_moment_norm": 3.24678504678, 
			 "electric_quadrupole_moment_norm": 8.82306095298, 
			 "total_energy": -742.161967837, 
			 "HOMO_LUMO_gap": 0.1728, 
			 "cosmo_polarized_energy": -18.01, 
			 "cosmo_cavitation_energy": 28.5, 
			 "cosmo_dispersion_energy": -20.93, 
			 "cosmo_repulsion_energy": 1.63, 
			 "cosmo_total_nonelectrostatic_energy": 9.2, 
			 "SMD_solvation_energy": 6.82 
		},
		"coords": [
			{
				"x": 0.5065931506,
				"y": -0.9530320412,
				"z": -2.7443940524,
				"element": "C" 
			},
			{
				"x": 0.4788847558,
				"y": -1.2005358847,
				"z": -1.2479955635,
				"element": "C" 
			},
			{
				"x": 0.4893478532,
				"y": 0.0864554598,
				"z": -0.599169936,
				"element": "O" 
			},
			{
				"x": 0.6113969354,
				"y": 0.086355058,
				"z": 0.7527350561,
				"element": "C" 
			},
			{
				"x": 1.3936624509,
				"y": -0.9123214205,
				"z": 1.3663656112,
				"element": "C" 
			},
			{
				"x": 1.9983403675,
				"y": -1.8650334742,
				"z": 0.5316697677,
				"element": "N" 
			},
			{
				"x": 1.6461115971,
				"y": -2.0760717205,
				"z": -0.7789692995,
				"element": "C" 
			},
			{
				"x": 2.1853342716,
				"y": -2.9149909176,
				"z": -1.4809738414,
				"element": "O" 
			},
			{
				"x": 1.5888183466,
				"y": -0.9094644044,
				"z": 2.7455191206,
				"element": "C" 
			},
			{
				"x": 1.0228013964,
				"y": 0.1005182327,
				"z": 3.5260578986,
				"element": "C" 
			},
			{
				"x": 0.2582568859,
				"y": 1.0947013038,
				"z": 2.9286861539,
				"element": "C" 
			},
			{
				"x": 0.0308994275,
				"y": 1.0993465313,
				"z": 1.5393572597,
				"element": "C" 
			},
			{
				"x": -0.8259657268,
				"y": 2.151172165,
				"z": 0.9249392817,
				"element": "C" 
			},
			{
				"x": -1.1676860666,
				"y": 3.1160217985,
				"z": 1.8252722023,
				"element": "O" 
			},
			{
				"x": -1.2167504583,
				"y": 2.193449602,
				"z": -0.2223466143,
				"element": "O" 
			},
			{
				"x": -0.366825377,
				"y": -0.3670628247,
				"z": -3.0379292171,
				"element": "H" 
			},
			{
				"x": 0.5064826057,
				"y": -1.9079760144,
				"z": -3.2724103325,
				"element": "H" 
			},
			{
				"x": 1.4103637011,
				"y": -0.4038016816,
				"z": -3.0204301769,
				"element": "H" 
			},
			{
				"x": -0.4504955494,
				"y": -1.7212909811,
				"z": -0.9652171353,
				"element": "H" 
			},
			{
				"x": 2.7224625312,
				"y": -2.4687491763,
				"z": 0.8996321736,
				"element": "H" 
			},
			{
				"x": 2.1934056082,
				"y": -1.6895172678,
				"z": 3.2008959759,
				"element": "H" 
			},
			{
				"x": 1.182275648,
				"y": 0.1056046343,
				"z": 4.5991835373,
				"element": "H" 
			},
			{
				"x": -0.1875809909,
				"y": 1.8779787235,
				"z": 3.5282055847,
				"element": "H" 
			},
			{
				"x": -1.7335333638,
				"y": 3.7320442999,
				"z": 1.3321165456,
				"element": "H" 
			}
		],
		 "valence_orbital": [ 
			{
				"type": "occ",
				"energy": -0.31395,
				"method": "rhf"
			},
			{
				"type": "occ",
				"energy": -0.27333,
				"method": "rhf"
			},
			{
				"type": "occ",
				"energy": -0.26404,
				"method": "rhf"
			},
			{
				"type": "occ",
				"energy": -0.25285,
				"method": "rhf"
			},
			{
				"type": "occ",
				"energy": -0.22448,
				"method": "rhf"
			},
			{
				"type": "unocc",
				"energy": -0.05168,
				"method": "rhf"
			},
			{
				"type": "unocc",
				"energy": -0.02095,
				"method": "rhf"
			},
			{
				"type": "unocc",
				"energy": 0.01946,
				"method": "rhf"
			},
			{
				"type": "unocc",
				"energy": 0.05739,
				"method": "rhf"
			},
			{
				"type": "unocc",
				"energy": 0.07514,
				"method": "rhf"
			}
		],
		"cosmo_sigma_profile": { 
			"-0.025": 0.0,
			"-0.024": 0.0,
			"-0.023": 0.0,
			"-0.022": 0.0,
			"-0.021": 0.0,
			"-0.02": 0.0,
			"-0.019": 0.0189612722423,
			"-0.018": 0.458100544124,
			"-0.017": 1.06894014662,
			"-0.016": 1.48365780825,
			"-0.015": 1.77235557464,
			"-0.014": 1.66827706951,
			"-0.013": 1.87391059108,
			"-0.012": 2.17947003141,
			"-0.011": 2.42874415654,
			"-0.01": 1.80136589724,
			"-0.009": 2.00977301981,
			"-0.008": 4.01495211914,
			"-0.007": 7.7948132042,
			"-0.006": 9.41409460306,
			"-0.005": 12.481084564,
			"-0.004": 14.6888755361,
			"-0.003": 13.3211749047,
			"-0.002": 14.8500889949,
			"-0.001": 18.2031302619,
			"0.0": 18.3073211958,
			"0.001": 14.471686783,
			"0.002": 14.9408528224,
			"0.003": 12.1099228715,
			"0.004": 8.14601143797,
			"0.005": 4.23289760673,
			"0.006": 4.79505691147,
			"0.007": 4.46439169347,
			"0.008": 5.10732009755,
			"0.009": 3.6858059705,
			"0.01": 2.61129722425,
			"0.011": 5.66384293637,
			"0.012": 10.2807642037,
			"0.013": 5.73800697751,
			"0.014": 0.769958055415,
			"0.015": 0.0560235989439,
			"0.016": 0.0,
			"0.017": 0.0,
			"0.018": 0.0,
			"0.019": 0.0,
			"0.02": 0.0,
			"0.021": 0.0,
			"0.022": 0.0,
			"0.023": 0.0,
			"0.024": 0.0,
			"0.025": 0.0
		}
	}
}
