{
	 "smiles": "CC(NC(=O)C1=CC=C(C=C1)S(=O)(=O)N(C)C)C(O)=O", 
	 "Tm": 454.15, 
	 "num_atms": 36, 
	 "gaussian": { 
		 "optdone": 1, 
		 "sigma_profile": "yes", 
		 "theory": "DFT", 
		 "functional": "B3LYP", 
		 "basiset": "6-31G**", 
		 "properties": { 
			 "R2extent": 9726.5892, 
			 "electric_dipole_moment_norm": 6.59601129547, 
			 "electric_quadrupole_moment_norm": 34.2303579978, 
			 "total_energy": -1350.69308568, 
			 "HOMO_LUMO_gap": 0.17777, 
			 "cosmo_polarized_energy": -27.26, 
			 "cosmo_cavitation_energy": 40.86, 
			 "cosmo_dispersion_energy": -29.18, 
			 "cosmo_repulsion_energy": 2.18, 
			 "cosmo_total_nonelectrostatic_energy": 13.86, 
			 "SMD_solvation_energy": 6.69 
		},
		"coords": [
			{
				"x": 3.4304837876,
				"y": 0.6685386813,
				"z": -3.5726946573,
				"element": "C" 
			},
			{
				"x": 2.127629435,
				"y": 1.4276244983,
				"z": -3.3543551752,
				"element": "C" 
			},
			{
				"x": 1.5034680027,
				"y": 1.0014844842,
				"z": -2.0925380512,
				"element": "N" 
			},
			{
				"x": 0.1858383232,
				"y": 1.1808450611,
				"z": -1.8237519322,
				"element": "C" 
			},
			{
				"x": -0.5506723579,
				"y": 1.8302693679,
				"z": -2.5842354287,
				"element": "O" 
			},
			{
				"x": -0.3529478589,
				"y": 0.563743351,
				"z": -0.5704000039,
				"element": "C" 
			},
			{
				"x": -1.5111661417,
				"y": 1.1287661398,
				"z": -0.0185522418,
				"element": "C" 
			},
			{
				"x": -2.0639947378,
				"y": 0.6042581144,
				"z": 1.1461311727,
				"element": "C" 
			},
			{
				"x": -1.4613722718,
				"y": -0.5036528081,
				"z": 1.750233353,
				"element": "C" 
			},
			{
				"x": -0.3124693874,
				"y": -1.0850687389,
				"z": 1.2082690001,
				"element": "C" 
			},
			{
				"x": 0.2391277511,
				"y": -0.5475584765,
				"z": 0.0470055829,
				"element": "C" 
			},
			{
				"x": -2.2032074232,
				"y": -1.2251255611,
				"z": 3.2282503705,
				"element": "S" 
			},
			{
				"x": -1.149854657,
				"y": -1.9803873131,
				"z": 3.9078306449,
				"element": "O" 
			},
			{
				"x": -2.9600653424,
				"y": -0.1621313197,
				"z": 3.8895121942,
				"element": "O" 
			},
			{
				"x": -3.3329971308,
				"y": -2.3558354372,
				"z": 2.6943388164,
				"element": "N" 
			},
			{
				"x": -2.8035066384,
				"y": -3.580965607,
				"z": 2.091480816,
				"element": "C" 
			},
			{
				"x": -4.5519105774,
				"y": -1.8283479699,
				"z": 2.0764893492,
				"element": "C" 
			},
			{
				"x": 2.3524057411,
				"y": 2.9629407646,
				"z": -3.3897467049,
				"element": "C" 
			},
			{
				"x": 1.239160571,
				"y": 3.6996863099,
				"z": -3.3042989755,
				"element": "O" 
			},
			{
				"x": 3.4503414952,
				"y": 3.4554455604,
				"z": -3.5036850651,
				"element": "O" 
			},
			{
				"x": 3.2506953878,
				"y": -0.4103447114,
				"z": -3.5793749047,
				"element": "H" 
			},
			{
				"x": 4.1584407085,
				"y": 0.9139921887,
				"z": -2.7937615376,
				"element": "H" 
			},
			{
				"x": 3.8741430431,
				"y": 0.9601844554,
				"z": -4.5258734472,
				"element": "H" 
			},
			{
				"x": 1.4076313736,
				"y": 1.1898363651,
				"z": -4.1471404321,
				"element": "H" 
			},
			{
				"x": 2.1131321043,
				"y": 0.652579292,
				"z": -1.3669504331,
				"element": "H" 
			},
			{
				"x": -1.9590043674,
				"y": 1.9835547068,
				"z": -0.5130984875,
				"element": "H" 
			},
			{
				"x": -2.9360889571,
				"y": 1.0591756848,
				"z": 1.6023938647,
				"element": "H" 
			},
			{
				"x": 0.1478145608,
				"y": -1.9321054141,
				"z": 1.7043916908,
				"element": "H" 
			},
			{
				"x": 1.1155488384,
				"y": -1.0189249663,
				"z": -0.3877411499,
				"element": "H" 
			},
			{
				"x": -3.5885457092,
				"y": -4.3416372481,
				"z": 2.1278620513,
				"element": "H" 
			},
			{
				"x": -1.9537474106,
				"y": -3.9334202682,
				"z": 2.675228553,
				"element": "H" 
			},
			{
				"x": -2.5014740597,
				"y": -3.4425827371,
				"z": 1.0418492797,
				"element": "H" 
			},
			{
				"x": -4.4044817232,
				"y": -1.5380094077,
				"z": 1.0249264341,
				"element": "H" 
			},
			{
				"x": -5.3156571913,
				"y": -2.6102597353,
				"z": 2.1158441175,
				"element": "H" 
			},
			{
				"x": -4.9055590061,
				"y": -0.9710960591,
				"z": 2.6483921695,
				"element": "H" 
			},
			{
				"x": 0.449261826,
				"y": 3.114928753,
				"z": -3.1891308322,
				"element": "H" 
			}
		],
		 "valence_orbital": [ 
			{
				"type": "occ",
				"energy": -0.29897,
				"method": "rhf"
			},
			{
				"type": "occ",
				"energy": -0.29432,
				"method": "rhf"
			},
			{
				"type": "occ",
				"energy": -0.28829,
				"method": "rhf"
			},
			{
				"type": "occ",
				"energy": -0.26741,
				"method": "rhf"
			},
			{
				"type": "occ",
				"energy": -0.25957,
				"method": "rhf"
			},
			{
				"type": "unocc",
				"energy": -0.0818,
				"method": "rhf"
			},
			{
				"type": "unocc",
				"energy": -0.04414,
				"method": "rhf"
			},
			{
				"type": "unocc",
				"energy": 0.00146,
				"method": "rhf"
			},
			{
				"type": "unocc",
				"energy": 0.01488,
				"method": "rhf"
			},
			{
				"type": "unocc",
				"energy": 0.04454,
				"method": "rhf"
			}
		],
		"cosmo_sigma_profile": { 
			"-0.025": 0.0,
			"-0.024": 0.0,
			"-0.023": 0.0,
			"-0.022": 0.0,
			"-0.021": 0.0,
			"-0.02": 0.0,
			"-0.019": 0.0,
			"-0.018": 0.0,
			"-0.017": 0.0,
			"-0.016": 0.179373076786,
			"-0.015": 1.28802429121,
			"-0.014": 1.09018345736,
			"-0.013": 1.31239895827,
			"-0.012": 1.92054302442,
			"-0.011": 1.75559313106,
			"-0.01": 1.62270518068,
			"-0.009": 2.33613939888,
			"-0.008": 6.58283308236,
			"-0.007": 10.9241513294,
			"-0.006": 15.4093682997,
			"-0.005": 24.7550372592,
			"-0.004": 32.5699607655,
			"-0.003": 37.4198657837,
			"-0.002": 27.2815034559,
			"-0.001": 17.2089808819,
			"0.0": 18.6602831283,
			"0.001": 18.9432432716,
			"0.002": 10.7733310854,
			"0.003": 7.34955514878,
			"0.004": 6.01707628714,
			"0.005": 8.00900880364,
			"0.006": 7.36538119787,
			"0.007": 7.58069950224,
			"0.008": 8.31892778798,
			"0.009": 8.97231605534,
			"0.01": 11.7025687872,
			"0.011": 15.4408723831,
			"0.012": 8.81978493297,
			"0.013": 2.15450293321,
			"0.014": 0.142197085817,
			"0.015": 0.0,
			"0.016": 0.0,
			"0.017": 0.0,
			"0.018": 0.0,
			"0.019": 0.0,
			"0.02": 0.0,
			"0.021": 0.0,
			"0.022": 0.0,
			"0.023": 0.0,
			"0.024": 0.0,
			"0.025": 0.0
		}
	}
}
