{
	 "smiles": "ClCC#CCOC(=O)NC1=CC(Cl)=CC=C1", 
	 "Tm": 348.15, 
	 "num_atms": 25, 
	 "gaussian": { 
		 "optdone": 1, 
		 "sigma_profile": "yes", 
		 "theory": "DFT", 
		 "functional": "B3LYP", 
		 "basiset": "6-31G**", 
		 "properties": { 
			 "R2extent": 10278.4468, 
			 "electric_dipole_moment_norm": 2.00185070872, 
			 "electric_quadrupole_moment_norm": 14.9468189897, 
			 "total_energy": -1550.13158525, 
			 "HOMO_LUMO_gap": 0.20836, 
			 "cosmo_polarized_energy": -13.56, 
			 "cosmo_cavitation_energy": 35.53, 
			 "cosmo_dispersion_energy": -26.2, 
			 "cosmo_repulsion_energy": 2.1, 
			 "cosmo_total_nonelectrostatic_energy": 11.43, 
			 "SMD_solvation_energy": 6.82 
		},
		"coords": [
			{
				"x": 7.0605755083,
				"y": 1.1917465475,
				"z": -3.0239086781,
				"element": "Cl" 
			},
			{
				"x": 6.4725205454,
				"y": 1.8986386547,
				"z": -1.4394399868,
				"element": "C" 
			},
			{
				"x": 5.3717176877,
				"y": 1.1561236931,
				"z": -0.8644043409,
				"element": "C" 
			},
			{
				"x": 4.4469002507,
				"y": 0.5510986128,
				"z": -0.3749411328,
				"element": "C" 
			},
			{
				"x": 3.3676332174,
				"y": -0.2136052814,
				"z": 0.2316832621,
				"element": "C" 
			},
			{
				"x": 2.1059768159,
				"y": 0.3423078918,
				"z": -0.1972412457,
				"element": "O" 
			},
			{
				"x": 1.0189338071,
				"y": -0.213765156,
				"z": 0.4082103872,
				"element": "C" 
			},
			{
				"x": 1.0794349291,
				"y": -1.0905209782,
				"z": 1.2488028919,
				"element": "O" 
			},
			{
				"x": -0.1082124864,
				"y": 0.3839591192,
				"z": -0.0939141328,
				"element": "N" 
			},
			{
				"x": -1.4504538674,
				"y": 0.1274221839,
				"z": 0.2437349688,
				"element": "C" 
			},
			{
				"x": -2.4266230452,
				"y": 0.8835246305,
				"z": -0.4237615647,
				"element": "C" 
			},
			{
				"x": -3.7703271659,
				"y": 0.6753827407,
				"z": -0.1324185323,
				"element": "C" 
			},
			{
				"x": -4.9778346604,
				"y": 1.633269787,
				"z": -0.9798312002,
				"element": "Cl" 
			},
			{
				"x": -4.1779162435,
				"y": -0.2679380176,
				"z": 0.8087584701,
				"element": "C" 
			},
			{
				"x": -3.1931898966,
				"y": -1.0097618424,
				"z": 1.4617595188,
				"element": "C" 
			},
			{
				"x": -1.8369032869,
				"y": -0.8281339407,
				"z": 1.1954446861,
				"element": "C" 
			},
			{
				"x": 7.3398974988,
				"y": 1.9068771836,
				"z": -0.7762237869,
				"element": "H" 
			},
			{
				"x": 6.1859306653,
				"y": 2.9290241498,
				"z": -1.6595241321,
				"element": "H" 
			},
			{
				"x": 3.4247209944,
				"y": -0.1847892053,
				"z": 1.3251704569,
				"element": "H" 
			},
			{
				"x": 3.4208759208,
				"y": -1.267188989,
				"z": -0.0662388156,
				"element": "H" 
			},
			{
				"x": 0.0613883924,
				"y": 1.0924341949,
				"z": -0.7936958427,
				"element": "H" 
			},
			{
				"x": -2.1424080356,
				"y": 1.6261726192,
				"z": -1.1626092778,
				"element": "H" 
			},
			{
				"x": -5.2305326696,
				"y": -0.4140637312,
				"z": 1.0204428393,
				"element": "H" 
			},
			{
				"x": -3.4889970501,
				"y": -1.7503988133,
				"z": 2.1988642032,
				"element": "H" 
			},
			{
				"x": -1.0831078259,
				"y": -1.4089160538,
				"z": 1.7074809849,
				"element": "H" 
			}
		],
		 "valence_orbital": [ 
			{
				"type": "occ",
				"energy": -0.29814,
				"method": "rhf"
			},
			{
				"type": "occ",
				"energy": -0.28313,
				"method": "rhf"
			},
			{
				"type": "occ",
				"energy": -0.28103,
				"method": "rhf"
			},
			{
				"type": "occ",
				"energy": -0.25462,
				"method": "rhf"
			},
			{
				"type": "occ",
				"energy": -0.23268,
				"method": "rhf"
			},
			{
				"type": "unocc",
				"energy": -0.02432,
				"method": "rhf"
			},
			{
				"type": "unocc",
				"energy": -0.01832,
				"method": "rhf"
			},
			{
				"type": "unocc",
				"energy": -0.01618,
				"method": "rhf"
			},
			{
				"type": "unocc",
				"energy": 0.00836,
				"method": "rhf"
			},
			{
				"type": "unocc",
				"energy": 0.02544,
				"method": "rhf"
			}
		],
		"cosmo_sigma_profile": { 
			"-0.025": 0.0,
			"-0.024": 0.0,
			"-0.023": 0.0,
			"-0.022": 0.0,
			"-0.021": 0.0,
			"-0.02": 0.0,
			"-0.019": 0.0,
			"-0.018": 0.0,
			"-0.017": 0.0,
			"-0.016": 0.741038701194,
			"-0.015": 1.01424926535,
			"-0.014": 0.986671394605,
			"-0.013": 1.59781356043,
			"-0.012": 0.908802908251,
			"-0.011": 1.09016960865,
			"-0.01": 2.65562534808,
			"-0.009": 5.98641142699,
			"-0.008": 8.73023439982,
			"-0.007": 11.4681722436,
			"-0.006": 14.5612081964,
			"-0.005": 13.3859410019,
			"-0.004": 11.587398099,
			"-0.003": 13.1088657336,
			"-0.002": 14.2665459075,
			"-0.001": 15.2012672348,
			"0.0": 18.8522340145,
			"0.001": 19.9108640945,
			"0.002": 26.4848600044,
			"0.003": 28.6326122808,
			"0.004": 30.8004225112,
			"0.005": 20.9834065862,
			"0.006": 14.033380745,
			"0.007": 3.23414645963,
			"0.008": 1.82227709021,
			"0.009": 1.851563098,
			"0.01": 1.53385371381,
			"0.011": 2.94871199038,
			"0.012": 1.78110103618,
			"0.013": 0.0,
			"0.014": 0.0,
			"0.015": 0.0,
			"0.016": 0.0,
			"0.017": 0.0,
			"0.018": 0.0,
			"0.019": 0.0,
			"0.02": 0.0,
			"0.021": 0.0,
			"0.022": 0.0,
			"0.023": 0.0,
			"0.024": 0.0,
			"0.025": 0.0
		}
	}
}
