{
	 "smiles": "NC1=C(C=CC=N1)C#N", 
	 "Tm": 407.15, 
	 "num_atms": 14, 
	 "gaussian": { 
		 "optdone": 1, 
		 "sigma_profile": "yes", 
		 "theory": "DFT", 
		 "functional": "B3LYP", 
		 "basiset": "6-31G**", 
		 "properties": { 
			 "R2extent": 1848.9566, 
			 "electric_dipole_moment_norm": 3.13458365497, 
			 "electric_quadrupole_moment_norm": 16.5503359643, 
			 "total_energy": -395.874368256, 
			 "HOMO_LUMO_gap": 0.20013, 
			 "cosmo_polarized_energy": -14.64, 
			 "cosmo_cavitation_energy": 19.54, 
			 "cosmo_dispersion_energy": -13.95, 
			 "cosmo_repulsion_energy": 1.15, 
			 "cosmo_total_nonelectrostatic_energy": 6.74, 
			 "SMD_solvation_energy": 3.19 
		},
		"coords": [
			{
				"x": -1.6042135485,
				"y": 1.6980754317,
				"z": -1.2832142419,
				"element": "N" 
			},
			{
				"x": -1.6823150948,
				"y": 1.3391792101,
				"z": 0.0977686322,
				"element": "C" 
			},
			{
				"x": -0.5380374364,
				"y": 1.3205114704,
				"z": 0.9367298278,
				"element": "C" 
			},
			{
				"x": -0.6780909169,
				"y": 0.9596826128,
				"z": 2.2841163171,
				"element": "C" 
			},
			{
				"x": -1.9446976583,
				"y": 0.6307491299,
				"z": 2.7517034323,
				"element": "C" 
			},
			{
				"x": -3.0107215737,
				"y": 0.6777179682,
				"z": 1.8519135327,
				"element": "C" 
			},
			{
				"x": -2.889265914,
				"y": 1.0206603537,
				"z": 0.5634579728,
				"element": "N" 
			},
			{
				"x": 0.7413039044,
				"y": 1.6696212849,
				"z": 0.397020348,
				"element": "C" 
			},
			{
				"x": 1.7739481418,
				"y": 1.9557314693,
				"z": -0.0569016738,
				"element": "N" 
			},
			{
				"x": -0.9626049409,
				"y": 1.0789928155,
				"z": -1.7745893684,
				"element": "H" 
			},
			{
				"x": -1.2231389286,
				"y": 2.6366355493,
				"z": -1.3845250196,
				"element": "H" 
			},
			{
				"x": 0.1903294328,
				"y": 0.9420416836,
				"z": 2.934648555,
				"element": "H" 
			},
			{
				"x": -2.1056255489,
				"y": 0.3449541588,
				"z": 3.7856084263,
				"element": "H" 
			},
			{
				"x": -4.016969918,
				"y": 0.4266468616,
				"z": 2.1823632594,
				"element": "H" 
			}
		],
		 "valence_orbital": [ 
			{
				"type": "occ",
				"energy": -0.34759,
				"method": "rhf"
			},
			{
				"type": "occ",
				"energy": -0.30722,
				"method": "rhf"
			},
			{
				"type": "occ",
				"energy": -0.27853,
				"method": "rhf"
			},
			{
				"type": "occ",
				"energy": -0.27702,
				"method": "rhf"
			},
			{
				"type": "occ",
				"energy": -0.26816,
				"method": "rhf"
			},
			{
				"type": "unocc",
				"energy": -0.06803,
				"method": "rhf"
			},
			{
				"type": "unocc",
				"energy": -0.04206,
				"method": "rhf"
			},
			{
				"type": "unocc",
				"energy": 0.02232,
				"method": "rhf"
			},
			{
				"type": "unocc",
				"energy": 0.0606,
				"method": "rhf"
			},
			{
				"type": "unocc",
				"energy": 0.07807,
				"method": "rhf"
			}
		],
		"cosmo_sigma_profile": { 
			"-0.025": 0.0,
			"-0.024": 0.0,
			"-0.023": 0.0,
			"-0.022": 0.0,
			"-0.021": 0.0,
			"-0.02": 0.0,
			"-0.019": 0.0,
			"-0.018": 0.0,
			"-0.017": 0.0,
			"-0.016": 0.0,
			"-0.015": 0.0,
			"-0.014": 0.0,
			"-0.013": 0.411154767463,
			"-0.012": 2.40824715456,
			"-0.011": 2.84603398462,
			"-0.01": 3.35242018249,
			"-0.009": 5.57784266343,
			"-0.008": 7.79036513573,
			"-0.007": 9.92905786067,
			"-0.006": 9.19213514871,
			"-0.005": 6.83477180004,
			"-0.004": 7.35241697649,
			"-0.003": 9.00020526292,
			"-0.002": 9.97859674631,
			"-0.001": 11.0393690079,
			"0.0": 12.1421803509,
			"0.001": 7.70661592468,
			"0.002": 3.92456831086,
			"0.003": 4.07031842935,
			"0.004": 3.20877874779,
			"0.005": 3.15821589178,
			"0.006": 3.98938944877,
			"0.007": 4.23738072841,
			"0.008": 4.12136215912,
			"0.009": 4.28427833005,
			"0.01": 4.44557101504,
			"0.011": 3.86405689585,
			"0.012": 3.94672013248,
			"0.013": 2.13366205548,
			"0.014": 0.895996921787,
			"0.015": 1.44229081362,
			"0.016": 1.40446214614,
			"0.017": 1.52810220197,
			"0.018": 1.19880264633,
			"0.019": 0.385712400275,
			"0.02": 0.0,
			"0.021": 0.0,
			"0.022": 0.0,
			"0.023": 0.0,
			"0.024": 0.0,
			"0.025": 0.0
		}
	}
}
