{
	 "smiles": "COC(=O)C1=NC=CC(OC)=C1", 
	 "Tm": 317.15, 
	 "num_atms": 21, 
	 "gaussian": { 
		 "optdone": 1, 
		 "sigma_profile": "yes", 
		 "theory": "DFT", 
		 "functional": "B3LYP", 
		 "basiset": "6-31G**", 
		 "properties": { 
			 "R2extent": 2503.3739, 
			 "electric_dipole_moment_norm": 4.85926983198, 
			 "electric_quadrupole_moment_norm": 12.1557215528, 
			 "total_energy": -590.685997228, 
			 "HOMO_LUMO_gap": 0.20227, 
			 "cosmo_polarized_energy": -14.04, 
			 "cosmo_cavitation_energy": 25.82, 
			 "cosmo_dispersion_energy": -18.94, 
			 "cosmo_repulsion_energy": 1.52, 
			 "cosmo_total_nonelectrostatic_energy": 8.4, 
			 "SMD_solvation_energy": 5.78 
		},
		"coords": [
			{
				"x": 1.764120274,
				"y": -2.737663046,
				"z": 1.7744690788,
				"element": "C" 
			},
			{
				"x": 1.1008295454,
				"y": -1.5878221021,
				"z": 1.2281055564,
				"element": "O" 
			},
			{
				"x": 1.874801132,
				"y": -0.8094754763,
				"z": 0.4281518974,
				"element": "C" 
			},
			{
				"x": 3.0339333427,
				"y": -1.0525816151,
				"z": 0.1860605923,
				"element": "O" 
			},
			{
				"x": 1.1047081312,
				"y": 0.3736759177,
				"z": -0.1023084621,
				"element": "C" 
			},
			{
				"x": 1.7992772606,
				"y": 1.192119533,
				"z": -0.8998103719,
				"element": "N" 
			},
			{
				"x": 1.1454459528,
				"y": 2.2528144942,
				"z": -1.3882169654,
				"element": "C" 
			},
			{
				"x": -0.1869303468,
				"y": 2.5441052287,
				"z": -1.1180077555,
				"element": "C" 
			},
			{
				"x": -0.9030022441,
				"y": 1.6780827432,
				"z": -0.2807869214,
				"element": "C" 
			},
			{
				"x": -2.1974484061,
				"y": 1.996101871,
				"z": -0.0419912721,
				"element": "O" 
			},
			{
				"x": -2.9594718242,
				"y": 1.1412698438,
				"z": 0.8042182562,
				"element": "C" 
			},
			{
				"x": -0.2405612906,
				"y": 0.5622597018,
				"z": 0.2420195351,
				"element": "C" 
			},
			{
				"x": 1.0179703222,
				"y": -3.2482959378,
				"z": 2.3832938642,
				"element": "H" 
			},
			{
				"x": 2.6179226717,
				"y": -2.4352099698,
				"z": 2.38625794,
				"element": "H" 
			},
			{
				"x": 2.1214117267,
				"y": -3.3920724084,
				"z": 0.9751992715,
				"element": "H" 
			},
			{
				"x": 1.7207034694,
				"y": 2.9117369287,
				"z": -2.0358923866,
				"element": "H" 
			},
			{
				"x": -0.6766629248,
				"y": 3.4164803849,
				"z": -1.5365911266,
				"element": "H" 
			},
			{
				"x": -3.955182355,
				"y": 1.5827664285,
				"z": 0.8545989181,
				"element": "H" 
			},
			{
				"x": -2.5324670132,
				"y": 1.0912571626,
				"z": 1.8130102127,
				"element": "H" 
			},
			{
				"x": -3.0314596286,
				"y": 0.1281626781,
				"z": 0.3907894867,
				"element": "H" 
			},
			{
				"x": -0.7283377954,
				"y": -0.1481123608,
				"z": 0.8939306522,
				"element": "H" 
			}
		],
		 "valence_orbital": [ 
			{
				"type": "occ",
				"energy": -0.30047,
				"method": "rhf"
			},
			{
				"type": "occ",
				"energy": -0.26895,
				"method": "rhf"
			},
			{
				"type": "occ",
				"energy": -0.26889,
				"method": "rhf"
			},
			{
				"type": "occ",
				"energy": -0.25854,
				"method": "rhf"
			},
			{
				"type": "occ",
				"energy": -0.2528,
				"method": "rhf"
			},
			{
				"type": "unocc",
				"energy": -0.05053,
				"method": "rhf"
			},
			{
				"type": "unocc",
				"energy": -0.01189,
				"method": "rhf"
			},
			{
				"type": "unocc",
				"energy": 0.05829,
				"method": "rhf"
			},
			{
				"type": "unocc",
				"energy": 0.08988,
				"method": "rhf"
			},
			{
				"type": "unocc",
				"energy": 0.09681,
				"method": "rhf"
			}
		],
		"cosmo_sigma_profile": { 
			"-0.025": 0.0,
			"-0.024": 0.0,
			"-0.023": 0.0,
			"-0.022": 0.0,
			"-0.021": 0.0,
			"-0.02": 0.0,
			"-0.019": 0.0,
			"-0.018": 0.0,
			"-0.017": 0.0,
			"-0.016": 0.0,
			"-0.015": 0.0,
			"-0.014": 0.0,
			"-0.013": 0.0,
			"-0.012": 0.0,
			"-0.011": 0.0,
			"-0.01": 0.0,
			"-0.009": 0.0,
			"-0.008": 0.961659276956,
			"-0.007": 7.46263032659,
			"-0.006": 19.1293483801,
			"-0.005": 19.2599370387,
			"-0.004": 20.7696027722,
			"-0.003": 20.4194030803,
			"-0.002": 11.3167149663,
			"-0.001": 11.7971436646,
			"0.0": 14.6371366137,
			"0.001": 19.4633972077,
			"0.002": 10.4434893713,
			"0.003": 5.99868955021,
			"0.004": 7.3214779444,
			"0.005": 5.20593055193,
			"0.006": 2.89475580651,
			"0.007": 3.17738120099,
			"0.008": 4.08437651851,
			"0.009": 3.32127873471,
			"0.01": 2.71467050095,
			"0.011": 3.79236004791,
			"0.012": 4.44619857503,
			"0.013": 1.73054867474,
			"0.014": 1.49499360717,
			"0.015": 1.01362942007,
			"0.016": 1.40563840558,
			"0.017": 1.14425873348,
			"0.018": 0.623268626408,
			"0.019": 0.0,
			"0.02": 0.0,
			"0.021": 0.0,
			"0.022": 0.0,
			"0.023": 0.0,
			"0.024": 0.0,
			"0.025": 0.0
		}
	}
}
