{
	 "smiles": "FC(F)(F)CNC1=NN=C(S)S1", 
	 "Tm": 452.15, 
	 "num_atms": 16, 
	 "gaussian": { 
		 "optdone": 1, 
		 "sigma_profile": "yes", 
		 "theory": "DFT", 
		 "functional": "B3LYP", 
		 "basiset": "6-31G**", 
		 "properties": { 
			 "R2extent": 3666.6101, 
			 "electric_dipole_moment_norm": 2.45315194393, 
			 "electric_quadrupole_moment_norm": 7.71086474528, 
			 "total_energy": -1414.94956932, 
			 "HOMO_LUMO_gap": 0.19789, 
			 "cosmo_polarized_energy": -13.18, 
			 "cosmo_cavitation_energy": 25.87, 
			 "cosmo_dispersion_energy": -19.46, 
			 "cosmo_repulsion_energy": 1.42, 
			 "cosmo_total_nonelectrostatic_energy": 7.83, 
			 "SMD_solvation_energy": 2.27 
		},
		"coords": [
			{
				"x": -1.9487185316,
				"y": 2.1979774011,
				"z": -0.6630990519,
				"element": "F" 
			},
			{
				"x": -2.6278577289,
				"y": 1.4561005156,
				"z": 0.226644937,
				"element": "C" 
			},
			{
				"x": -3.3454998478,
				"y": 2.2832290062,
				"z": 1.01052064,
				"element": "F" 
			},
			{
				"x": -3.5011326385,
				"y": 0.6860770739,
				"z": -0.471897188,
				"element": "F" 
			},
			{
				"x": -1.7137217336,
				"y": 0.5806348962,
				"z": 1.0716865033,
				"element": "C" 
			},
			{
				"x": -0.975082456,
				"y": -0.3777378554,
				"z": 0.2724501548,
				"element": "N" 
			},
			{
				"x": 0.2898237303,
				"y": -0.074551735,
				"z": -0.1695564729,
				"element": "C" 
			},
			{
				"x": 1.0074638701,
				"y": 0.9134389736,
				"z": 0.2838247766,
				"element": "N" 
			},
			{
				"x": 2.2676269265,
				"y": 0.9544821159,
				"z": -0.2610992962,
				"element": "N" 
			},
			{
				"x": 2.4877243296,
				"y": 0.0104134342,
				"z": -1.1190927598,
				"element": "C" 
			},
			{
				"x": 3.9961727049,
				"y": -0.2177449394,
				"z": -2.0122889516,
				"element": "S" 
			},
			{
				"x": 1.1192958628,
				"y": -1.0893188231,
				"z": -1.3586324724,
				"element": "S" 
			},
			{
				"x": -1.0040458248,
				"y": 1.2159019909,
				"z": 1.6020575846,
				"element": "H" 
			},
			{
				"x": -2.3400512385,
				"y": 0.0574747675,
				"z": 1.8004308429,
				"element": "H" 
			},
			{
				"x": -1.5333654038,
				"y": -0.976735378,
				"z": -0.3187336356,
				"element": "H" 
			},
			{
				"x": 4.5768679792,
				"y": 0.8606585557,
				"z": -1.4489156109,
				"element": "H" 
			}
		],
		 "valence_orbital": [ 
			{
				"type": "occ",
				"energy": -0.31127,
				"method": "rhf"
			},
			{
				"type": "occ",
				"energy": -0.30848,
				"method": "rhf"
			},
			{
				"type": "occ",
				"energy": -0.2817,
				"method": "rhf"
			},
			{
				"type": "occ",
				"energy": -0.27212,
				"method": "rhf"
			},
			{
				"type": "occ",
				"energy": -0.22573,
				"method": "rhf"
			},
			{
				"type": "unocc",
				"energy": -0.02784,
				"method": "rhf"
			},
			{
				"type": "unocc",
				"energy": -0.02523,
				"method": "rhf"
			},
			{
				"type": "unocc",
				"energy": 0.00852,
				"method": "rhf"
			},
			{
				"type": "unocc",
				"energy": 0.03422,
				"method": "rhf"
			},
			{
				"type": "unocc",
				"energy": 0.03718,
				"method": "rhf"
			}
		],
		"cosmo_sigma_profile": { 
			"-0.025": 0.0,
			"-0.024": 0.0,
			"-0.023": 0.0,
			"-0.022": 0.0,
			"-0.021": 0.0,
			"-0.02": 0.0,
			"-0.019": 0.0,
			"-0.018": 0.0,
			"-0.017": 0.0,
			"-0.016": 0.346301117369,
			"-0.015": 1.43297326402,
			"-0.014": 1.19003552494,
			"-0.013": 1.56367718789,
			"-0.012": 2.82595651246,
			"-0.011": 2.59720086337,
			"-0.01": 2.00221761985,
			"-0.009": 4.51330278131,
			"-0.008": 6.89223782517,
			"-0.007": 6.49663668144,
			"-0.006": 6.23681902839,
			"-0.005": 6.95609808572,
			"-0.004": 8.22181145766,
			"-0.003": 6.9810151432,
			"-0.002": 9.74401297453,
			"-0.001": 14.579992801,
			"0.0": 16.2792700519,
			"0.001": 17.4863004332,
			"0.002": 30.9872128691,
			"0.003": 28.1199091169,
			"0.004": 6.75347211468,
			"0.005": 5.94957324117,
			"0.006": 5.49998175738,
			"0.007": 3.1314000407,
			"0.008": 1.95842103399,
			"0.009": 2.38237706062,
			"0.01": 2.08162179064,
			"0.011": 3.2629286392,
			"0.012": 3.22700618872,
			"0.013": 1.77980116734,
			"0.014": 0.764230288112,
			"0.015": 0.00676453397222,
			"0.016": 0.0,
			"0.017": 0.0,
			"0.018": 0.0,
			"0.019": 0.0,
			"0.02": 0.0,
			"0.021": 0.0,
			"0.022": 0.0,
			"0.023": 0.0,
			"0.024": 0.0,
			"0.025": 0.0
		}
	}
}
