{
	 "smiles": "CC1=NC=C(CO)C(N)=N1", 
	 "Tm": 471.15, 
	 "num_atms": 19, 
	 "gaussian": { 
		 "optdone": 1, 
		 "sigma_profile": "yes", 
		 "theory": "DFT", 
		 "functional": "B3LYP", 
		 "basiset": "6-31G**", 
		 "properties": { 
			 "R2extent": 2109.3862, 
			 "electric_dipole_moment_norm": 2.11458839021, 
			 "electric_quadrupole_moment_norm": 8.13818336117, 
			 "total_energy": -473.553193266, 
			 "HOMO_LUMO_gap": 0.21029, 
			 "cosmo_polarized_energy": -12.62, 
			 "cosmo_cavitation_energy": 22.49, 
			 "cosmo_dispersion_energy": -17.02, 
			 "cosmo_repulsion_energy": 1.4, 
			 "cosmo_total_nonelectrostatic_energy": 6.88, 
			 "SMD_solvation_energy": 1.19 
		},
		"coords": [
			{
				"x": -0.6238548687,
				"y": -2.5845156063,
				"z": -3.332569025,
				"element": "C" 
			},
			{
				"x": -0.7542255031,
				"y": -1.7853492997,
				"z": -2.062873767,
				"element": "C" 
			},
			{
				"x": -1.2161922762,
				"y": -0.531682005,
				"z": -2.1676297398,
				"element": "N" 
			},
			{
				"x": -1.297364222,
				"y": 0.1527787755,
				"z": -1.0140228879,
				"element": "C" 
			},
			{
				"x": -0.9402823199,
				"y": -0.3565944079,
				"z": 0.222945148,
				"element": "C" 
			},
			{
				"x": -0.9778071165,
				"y": 0.4541689392,
				"z": 1.4891397008,
				"element": "C" 
			},
			{
				"x": -1.6796834407,
				"y": -0.1966103247,
				"z": 2.5608120592,
				"element": "O" 
			},
			{
				"x": -0.4945203091,
				"y": -1.7070867454,
				"z": 0.2126416102,
				"element": "C" 
			},
			{
				"x": -0.1216822463,
				"y": -2.3277625335,
				"z": 1.36957835,
				"element": "N" 
			},
			{
				"x": -0.4014070244,
				"y": -2.4064931898,
				"z": -0.9272447877,
				"element": "N" 
			},
			{
				"x": -0.9520659604,
				"y": -1.9915453284,
				"z": -4.1867276423,
				"element": "H" 
			},
			{
				"x": 0.416492556,
				"y": -2.8929927934,
				"z": -3.4801241257,
				"element": "H" 
			},
			{
				"x": -1.2214576767,
				"y": -3.4997592006,
				"z": -3.2698960366,
				"element": "H" 
			},
			{
				"x": -1.6655371648,
				"y": 1.1772006939,
				"z": -1.0894739654,
				"element": "H" 
			},
			{
				"x": 0.0346723029,
				"y": 0.6052285752,
				"z": 1.8810881295,
				"element": "H" 
			},
			{
				"x": -1.4035738619,
				"y": 1.4470606153,
				"z": 1.2856752919,
				"element": "H" 
			},
			{
				"x": -2.5807866685,
				"y": -0.3667258993,
				"z": 2.2532818845,
				"element": "H" 
			},
			{
				"x": 0.0398945646,
				"y": -3.3216895379,
				"z": 1.2991979429,
				"element": "H" 
			},
			{
				"x": -0.5110187644,
				"y": -1.9631307273,
				"z": 2.2296018603,
				"element": "H" 
			}
		],
		 "valence_orbital": [ 
			{
				"type": "occ",
				"energy": -0.30763,
				"method": "rhf"
			},
			{
				"type": "occ",
				"energy": -0.28221,
				"method": "rhf"
			},
			{
				"type": "occ",
				"energy": -0.27223,
				"method": "rhf"
			},
			{
				"type": "occ",
				"energy": -0.23911,
				"method": "rhf"
			},
			{
				"type": "occ",
				"energy": -0.23022,
				"method": "rhf"
			},
			{
				"type": "unocc",
				"energy": -0.01993,
				"method": "rhf"
			},
			{
				"type": "unocc",
				"energy": -0.00327,
				"method": "rhf"
			},
			{
				"type": "unocc",
				"energy": 0.06815,
				"method": "rhf"
			},
			{
				"type": "unocc",
				"energy": 0.10793,
				"method": "rhf"
			},
			{
				"type": "unocc",
				"energy": 0.11571,
				"method": "rhf"
			}
		],
		"cosmo_sigma_profile": { 
			"-0.025": 0.0,
			"-0.024": 0.0,
			"-0.023": 0.0,
			"-0.022": 0.0,
			"-0.021": 0.0,
			"-0.02": 0.0,
			"-0.019": 0.0,
			"-0.018": 0.0,
			"-0.017": 0.0,
			"-0.016": 0.796927477779,
			"-0.015": 0.726522462272,
			"-0.014": 1.00841504015,
			"-0.013": 2.25075326945,
			"-0.012": 1.02922758667,
			"-0.011": 2.16757847145,
			"-0.01": 2.15333656497,
			"-0.009": 3.0184885426,
			"-0.008": 2.27318675496,
			"-0.007": 4.52275003858,
			"-0.006": 7.66913529287,
			"-0.005": 10.3223685916,
			"-0.004": 12.4925761633,
			"-0.003": 12.9960573621,
			"-0.002": 12.8147106029,
			"-0.001": 12.5473788626,
			"0.0": 16.7415317873,
			"0.001": 13.5146433035,
			"0.002": 7.84969896334,
			"0.003": 6.86711556263,
			"0.004": 5.04699522655,
			"0.005": 5.76335617903,
			"0.006": 4.68588013474,
			"0.007": 4.00570378097,
			"0.008": 3.88682825095,
			"0.009": 3.85037866465,
			"0.01": 3.14851372616,
			"0.011": 3.06368814241,
			"0.012": 3.33827802918,
			"0.013": 2.19450993873,
			"0.014": 2.13151986173,
			"0.015": 1.48903438302,
			"0.016": 0.687601011148,
			"0.017": 0.396713372804,
			"0.018": 0.0,
			"0.019": 0.0,
			"0.02": 0.0,
			"0.021": 0.0,
			"0.022": 0.0,
			"0.023": 0.0,
			"0.024": 0.0,
			"0.025": 0.0
		}
	}
}
