{
	 "smiles": "FC1=C(CN2CCNC(=O)C2)C=CC(Br)=C1", 
	 "Tm": 416.15, 
	 "num_atms": 28, 
	 "gaussian": { 
		 "optdone": 1, 
		 "sigma_profile": "yes", 
		 "theory": "DFT", 
		 "functional": "B3LYP", 
		 "basiset": "6-31G**", 
		 "properties": { 
			 "R2extent": 8342.5521, 
			 "electric_dipole_moment_norm": 2.62316016095, 
			 "electric_quadrupole_moment_norm": 21.7318317997, 
			 "total_energy": -3282.37009119, 
			 "HOMO_LUMO_gap": 0.182, 
			 "cosmo_polarized_energy": -13.73, 
			 "cosmo_cavitation_energy": 33.29, 
			 "cosmo_dispersion_energy": -24.3, 
			 "cosmo_repulsion_energy": 1.88, 
			 "cosmo_total_nonelectrostatic_energy": 10.87, 
			 "SMD_solvation_energy": 2.34 
		},
		"coords": [
			{
				"x": 1.4958059971,
				"y": -0.8126940598,
				"z": -0.4492405679,
				"element": "F" 
			},
			{
				"x": 0.8431711656,
				"y": -0.4621066157,
				"z": -1.5840720498,
				"element": "C" 
			},
			{
				"x": -0.3888218577,
				"y": 0.1844853376,
				"z": -1.4869987965,
				"element": "C" 
			},
			{
				"x": -1.0339129039,
				"y": 0.483536514,
				"z": -0.151670238,
				"element": "C" 
			},
			{
				"x": -1.2208120524,
				"y": 1.929606213,
				"z": 0.0567897276,
				"element": "N" 
			},
			{
				"x": 0.0296183779,
				"y": 2.6913011453,
				"z": 0.1151406061,
				"element": "C" 
			},
			{
				"x": 0.9079239626,
				"y": 2.3126006364,
				"z": 1.3155254429,
				"element": "C" 
			},
			{
				"x": 0.0963912031,
				"y": 2.2537597653,
				"z": 2.5294929835,
				"element": "N" 
			},
			{
				"x": -1.2649015717,
				"y": 2.1278320526,
				"z": 2.5951034049,
				"element": "C" 
			},
			{
				"x": -1.8626692322,
				"y": 2.0076869343,
				"z": 3.6566548939,
				"element": "O" 
			},
			{
				"x": -2.0100422509,
				"y": 2.2177800641,
				"z": 1.2562390654,
				"element": "C" 
			},
			{
				"x": -1.0057548459,
				"y": 0.5492956567,
				"z": -2.691260618,
				"element": "C" 
			},
			{
				"x": -0.428834413,
				"y": 0.2697428189,
				"z": -3.9283445289,
				"element": "C" 
			},
			{
				"x": 0.8004672539,
				"y": -0.3903230156,
				"z": -3.9663910209,
				"element": "C" 
			},
			{
				"x": 1.6062644049,
				"y": -0.7870584894,
				"z": -5.6505074684,
				"element": "Br" 
			},
			{
				"x": 1.455337578,
				"y": -0.7637384038,
				"z": -2.7965715265,
				"element": "C" 
			},
			{
				"x": -0.4593590673,
				"y": -0.0058351596,
				"z": 0.6488560692,
				"element": "H" 
			},
			{
				"x": -2.0334412105,
				"y": 0.0334159823,
				"z": -0.1354713509,
				"element": "H" 
			},
			{
				"x": 0.5943840247,
				"y": 2.5453269668,
				"z": -0.8099448289,
				"element": "H" 
			},
			{
				"x": -0.2371438812,
				"y": 3.7532231391,
				"z": 0.1736024476,
				"element": "H" 
			},
			{
				"x": 1.3998643131,
				"y": 1.3471760681,
				"z": 1.133005159,
				"element": "H" 
			},
			{
				"x": 1.7010203633,
				"y": 3.0595073306,
				"z": 1.4427108448,
				"element": "H" 
			},
			{
				"x": 0.5603181385,
				"y": 2.1633771103,
				"z": 3.4247123802,
				"element": "H" 
			},
			{
				"x": -2.4090311085,
				"y": 3.2387150591,
				"z": 1.1826536108,
				"element": "H" 
			},
			{
				"x": -2.87053266,
				"y": 1.5468121438,
				"z": 1.3178852168,
				"element": "H" 
			},
			{
				"x": -1.9557590248,
				"y": 1.0733293941,
				"z": -2.6460301444,
				"element": "H" 
			},
			{
				"x": -0.9233261683,
				"y": 0.5563780137,
				"z": -4.8488341054,
				"element": "H" 
			},
			{
				"x": 2.4120754656,
				"y": -1.270632602,
				"z": -2.8091346082,
				"element": "H" 
			}
		],
		 "valence_orbital": [ 
			{
				"type": "occ",
				"energy": -0.26933,
				"method": "rhf"
			},
			{
				"type": "occ",
				"energy": -0.26565,
				"method": "rhf"
			},
			{
				"type": "occ",
				"energy": -0.25131,
				"method": "rhf"
			},
			{
				"type": "occ",
				"energy": -0.24841,
				"method": "rhf"
			},
			{
				"type": "occ",
				"energy": -0.21477,
				"method": "rhf"
			},
			{
				"type": "unocc",
				"energy": -0.03277,
				"method": "rhf"
			},
			{
				"type": "unocc",
				"energy": -0.01727,
				"method": "rhf"
			},
			{
				"type": "unocc",
				"energy": -0.00374,
				"method": "rhf"
			},
			{
				"type": "unocc",
				"energy": 0.02879,
				"method": "rhf"
			},
			{
				"type": "unocc",
				"energy": 0.07128,
				"method": "rhf"
			}
		],
		"cosmo_sigma_profile": { 
			"-0.025": 0.0,
			"-0.024": 0.0,
			"-0.023": 0.0,
			"-0.022": 0.0,
			"-0.021": 0.0,
			"-0.02": 0.0,
			"-0.019": 0.0,
			"-0.018": 0.0,
			"-0.017": 0.0,
			"-0.016": 0.0,
			"-0.015": 0.0,
			"-0.014": 0.252223573337,
			"-0.013": 1.18707831902,
			"-0.012": 1.0361552215,
			"-0.011": 1.00588475108,
			"-0.01": 1.09552531239,
			"-0.009": 1.16419451418,
			"-0.008": 2.34103368873,
			"-0.007": 4.93223790807,
			"-0.006": 13.1139157726,
			"-0.005": 20.1134107151,
			"-0.004": 24.0794870881,
			"-0.003": 24.7231424969,
			"-0.002": 23.7741356431,
			"-0.001": 15.0870467244,
			"0.0": 18.4055229661,
			"0.001": 21.2853257706,
			"0.002": 22.0543652385,
			"0.003": 19.2439940409,
			"0.004": 20.2914860057,
			"0.005": 5.99775871923,
			"0.006": 2.21215542396,
			"0.007": 1.72399516955,
			"0.008": 2.13050207821,
			"0.009": 2.1519679592,
			"0.01": 1.355413429,
			"0.011": 1.88942358536,
			"0.012": 1.95980673062,
			"0.013": 2.61394868692,
			"0.014": 6.03539293245,
			"0.015": 3.54797823569,
			"0.016": 0.17669273627,
			"0.017": 0.0,
			"0.018": 0.0,
			"0.019": 0.0,
			"0.02": 0.0,
			"0.021": 0.0,
			"0.022": 0.0,
			"0.023": 0.0,
			"0.024": 0.0,
			"0.025": 0.0
		}
	}
}
