{
	 "smiles": "CCCCCCCCC(=O)OC(=O)CCCCCCCC", 
	 "Tm": 287.95, 
	 "num_atms": 55, 
	 "gaussian": { 
		 "optdone": 1, 
		 "sigma_profile": "yes", 
		 "theory": "DFT", 
		 "functional": "B3LYP", 
		 "basiset": "6-31G**", 
		 "properties": { 
			 "R2extent": 13069.8361, 
			 "electric_dipole_moment_norm": 3.78444148191, 
			 "electric_quadrupole_moment_norm": 13.6107030054, 
			 "total_energy": -932.139755102, 
			 "HOMO_LUMO_gap": 0.24464, 
			 "cosmo_polarized_energy": -10.72, 
			 "cosmo_cavitation_energy": 55.42, 
			 "cosmo_dispersion_energy": -36.05, 
			 "cosmo_repulsion_energy": 2.95, 
			 "cosmo_total_nonelectrostatic_energy": 22.32, 
			 "SMD_solvation_energy": 9.16 
		},
		"coords": [
			{
				"x": -1.8151469219,
				"y": 3.3210964749,
				"z": -4.3110031837,
				"element": "C" 
			},
			{
				"x": -2.1793806154,
				"y": 3.2736679022,
				"z": -2.8232878823,
				"element": "C" 
			},
			{
				"x": -2.1234039249,
				"y": 4.6519477376,
				"z": -2.1498177764,
				"element": "C" 
			},
			{
				"x": -2.5691476799,
				"y": 4.6672179864,
				"z": -0.6766746506,
				"element": "C" 
			},
			{
				"x": -1.7170140919,
				"y": 3.8358153257,
				"z": 0.2993631817,
				"element": "C" 
			},
			{
				"x": -0.2645886131,
				"y": 4.3213620021,
				"z": 0.4242296335,
				"element": "C" 
			},
			{
				"x": 0.574595285,
				"y": 3.6303252085,
				"z": 1.5136296315,
				"element": "C" 
			},
			{
				"x": 0.8097085014,
				"y": 2.1293401069,
				"z": 1.2829879118,
				"element": "C" 
			},
			{
				"x": -0.3254947594,
				"y": 1.2513113037,
				"z": 1.7635465649,
				"element": "C" 
			},
			{
				"x": -1.140236138,
				"y": 1.5232782463,
				"z": 2.6014933676,
				"element": "O" 
			},
			{
				"x": -0.2493359014,
				"y": -0.0087352958,
				"z": 1.1666720472,
				"element": "O" 
			},
			{
				"x": -1.4051638749,
				"y": -0.7549095297,
				"z": 0.931411543,
				"element": "C" 
			},
			{
				"x": -2.4815223308,
				"y": -0.2504332112,
				"z": 0.7623205885,
				"element": "O" 
			},
			{
				"x": -1.0721916279,
				"y": -2.2254225636,
				"z": 0.8493670949,
				"element": "C" 
			},
			{
				"x": -0.1102833438,
				"y": -2.5618433388,
				"z": -0.3115833389,
				"element": "C" 
			},
			{
				"x": 0.2309878362,
				"y": -4.0627683687,
				"z": -0.4346869579,
				"element": "C" 
			},
			{
				"x": 1.4673338423,
				"y": -4.5436542643,
				"z": 0.3470270838,
				"element": "C" 
			},
			{
				"x": 1.3728161607,
				"y": -4.4617829638,
				"z": 1.8787214455,
				"element": "C" 
			},
			{
				"x": 2.5288073493,
				"y": -5.1563130153,
				"z": 2.6187953064,
				"element": "C" 
			},
			{
				"x": 3.9071818975,
				"y": -4.5124731594,
				"z": 2.4112303538,
				"element": "C" 
			},
			{
				"x": 5.0112713807,
				"y": -5.192894473,
				"z": 3.2272360506,
				"element": "C" 
			},
			{
				"x": -0.799594961,
				"y": 3.7068032858,
				"z": -4.4589805255,
				"element": "H" 
			},
			{
				"x": -2.4980504104,
				"y": 3.9751764747,
				"z": -4.8653882688,
				"element": "H" 
			},
			{
				"x": -1.8626381839,
				"y": 2.3272725131,
				"z": -4.7685261371,
				"element": "H" 
			},
			{
				"x": -1.5041349902,
				"y": 2.5779668353,
				"z": -2.3089880425,
				"element": "H" 
			},
			{
				"x": -3.1882694192,
				"y": 2.8554031426,
				"z": -2.7050676575,
				"element": "H" 
			},
			{
				"x": -2.7671363847,
				"y": 5.3428380586,
				"z": -2.7115988629,
				"element": "H" 
			},
			{
				"x": -1.1062264322,
				"y": 5.057524018,
				"z": -2.2403892549,
				"element": "H" 
			},
			{
				"x": -2.5877651317,
				"y": 5.7088746154,
				"z": -0.3270341267,
				"element": "H" 
			},
			{
				"x": -3.6064299656,
				"y": 4.3108863238,
				"z": -0.6208066111,
				"element": "H" 
			},
			{
				"x": -1.7463161674,
				"y": 2.7805700119,
				"z": 0.000656167,
				"element": "H" 
			},
			{
				"x": -2.1880303706,
				"y": 3.8677105922,
				"z": 1.289167548,
				"element": "H" 
			},
			{
				"x": -0.2721001585,
				"y": 5.3994710146,
				"z": 0.6362475301,
				"element": "H" 
			},
			{
				"x": 0.2524710276,
				"y": 4.2094921438,
				"z": -0.5389582304,
				"element": "H" 
			},
			{
				"x": 0.1020885299,
				"y": 3.7622351325,
				"z": 2.493366964,
				"element": "H" 
			},
			{
				"x": 1.5518202872,
				"y": 4.1241691098,
				"z": 1.5641436231,
				"element": "H" 
			},
			{
				"x": 1.0080043423,
				"y": 1.9045710331,
				"z": 0.2294187838,
				"element": "H" 
			},
			{
				"x": 1.700313297,
				"y": 1.7933950495,
				"z": 1.8324074862,
				"element": "H" 
			},
			{
				"x": -0.6338980041,
				"y": -2.5245744991,
				"z": 1.8067817497,
				"element": "H" 
			},
			{
				"x": -2.0184025128,
				"y": -2.7584359088,
				"z": 0.7255286332,
				"element": "H" 
			},
			{
				"x": 0.8103654898,
				"y": -1.9771488951,
				"z": -0.2030116094,
				"element": "H" 
			},
			{
				"x": -0.5819186162,
				"y": -2.2246487825,
				"z": -1.2423600424,
				"element": "H" 
			},
			{
				"x": 0.4065192887,
				"y": -4.2846217194,
				"z": -1.4943772325,
				"element": "H" 
			},
			{
				"x": -0.6440727857,
				"y": -4.6622974094,
				"z": -0.1471172586,
				"element": "H" 
			},
			{
				"x": 1.657103657,
				"y": -5.589562688,
				"z": 0.0676812713,
				"element": "H" 
			},
			{
				"x": 2.3409901216,
				"y": -3.9767290724,
				"z": -0.0005557589,
				"element": "H" 
			},
			{
				"x": 0.4260740628,
				"y": -4.916839869,
				"z": 2.2011306155,
				"element": "H" 
			},
			{
				"x": 1.3342135364,
				"y": -3.4111497622,
				"z": 2.1967007211,
				"element": "H" 
			},
			{
				"x": 2.3039332134,
				"y": -5.1639459113,
				"z": 3.6940276185,
				"element": "H" 
			},
			{
				"x": 2.5721693897,
				"y": -6.2114028481,
				"z": 2.3118363723,
				"element": "H" 
			},
			{
				"x": 3.8519070137,
				"y": -3.4493649296,
				"z": 2.6844931535,
				"element": "H" 
			},
			{
				"x": 4.1765783241,
				"y": -4.5394359563,
				"z": 1.3479769322,
				"element": "H" 
			},
			{
				"x": 5.1110909167,
				"y": -6.249749112,
				"z": 2.9543434382,
				"element": "H" 
			},
			{
				"x": 5.9829213644,
				"y": -4.7150928726,
				"z": 3.0644948462,
				"element": "H" 
			},
			{
				"x": 4.7945282021,
				"y": -5.1495912295,
				"z": 4.3007781505,
				"element": "H" 
			}
		],
		 "valence_orbital": [ 
			{
				"type": "occ",
				"energy": -0.30634,
				"method": "rhf"
			},
			{
				"type": "occ",
				"energy": -0.30304,
				"method": "rhf"
			},
			{
				"type": "occ",
				"energy": -0.30073,
				"method": "rhf"
			},
			{
				"type": "occ",
				"energy": -0.28932,
				"method": "rhf"
			},
			{
				"type": "occ",
				"energy": -0.2683,
				"method": "rhf"
			},
			{
				"type": "unocc",
				"energy": -0.02366,
				"method": "rhf"
			},
			{
				"type": "unocc",
				"energy": 0.01242,
				"method": "rhf"
			},
			{
				"type": "unocc",
				"energy": 0.07702,
				"method": "rhf"
			},
			{
				"type": "unocc",
				"energy": 0.08269,
				"method": "rhf"
			},
			{
				"type": "unocc",
				"energy": 0.09396,
				"method": "rhf"
			}
		],
		"cosmo_sigma_profile": { 
			"-0.025": 0.0,
			"-0.024": 0.0,
			"-0.023": 0.0,
			"-0.022": 0.0,
			"-0.021": 0.0,
			"-0.02": 0.0,
			"-0.019": 0.0,
			"-0.018": 0.0,
			"-0.017": 0.0,
			"-0.016": 0.0,
			"-0.015": 0.0,
			"-0.014": 0.0,
			"-0.013": 0.0,
			"-0.012": 0.0,
			"-0.011": 0.0,
			"-0.01": 0.0,
			"-0.009": 0.0,
			"-0.008": 0.135827691521,
			"-0.007": 2.54086398798,
			"-0.006": 4.15664631733,
			"-0.005": 9.30322455239,
			"-0.004": 14.9667452405,
			"-0.003": 27.9903348994,
			"-0.002": 68.4062165247,
			"-0.001": 84.1795512033,
			"0.0": 80.5599838846,
			"0.001": 62.0909033742,
			"0.002": 26.4017672315,
			"0.003": 6.12658725699,
			"0.004": 5.25688838869,
			"0.005": 3.5220868086,
			"0.006": 3.08726578363,
			"0.007": 3.59058486738,
			"0.008": 3.28628190881,
			"0.009": 3.83740668188,
			"0.01": 7.17919043798,
			"0.011": 7.98885524775,
			"0.012": 1.82526002082,
			"0.013": 0.0,
			"0.014": 0.0,
			"0.015": 0.0,
			"0.016": 0.0,
			"0.017": 0.0,
			"0.018": 0.0,
			"0.019": 0.0,
			"0.02": 0.0,
			"0.021": 0.0,
			"0.022": 0.0,
			"0.023": 0.0,
			"0.024": 0.0,
			"0.025": 0.0
		}
	}
}
