{
	 "smiles": "CC1=CC=NC=C1C(=O)NN", 
	 "Tm": 450.15, 
	 "num_atms": 20, 
	 "gaussian": { 
		 "optdone": 1, 
		 "sigma_profile": "yes", 
		 "theory": "DFT", 
		 "functional": "B3LYP", 
		 "basiset": "6-31G**", 
		 "properties": { 
			 "R2extent": 1975.1098, 
			 "electric_dipole_moment_norm": 4.05464531864, 
			 "electric_quadrupole_moment_norm": 7.48568011807, 
			 "total_energy": -511.625620446, 
			 "HOMO_LUMO_gap": 0.20598, 
			 "cosmo_polarized_energy": -15.1, 
			 "cosmo_cavitation_energy": 23.89, 
			 "cosmo_dispersion_energy": -17.59, 
			 "cosmo_repulsion_energy": 1.41, 
			 "cosmo_total_nonelectrostatic_energy": 7.71, 
			 "SMD_solvation_energy": 3.85 
		},
		"coords": [
			{
				"x": -0.1843642403,
				"y": -0.1931817388,
				"z": -1.6624534854,
				"element": "C" 
			},
			{
				"x": 0.3808287187,
				"y": 0.6639216274,
				"z": -0.5523335227,
				"element": "C" 
			},
			{
				"x": 0.7731993106,
				"y": 1.9772480122,
				"z": -0.8429810368,
				"element": "C" 
			},
			{
				"x": 1.3170795248,
				"y": 2.7851429624,
				"z": 0.1509576243,
				"element": "C" 
			},
			{
				"x": 1.5186049105,
				"y": 2.3756827074,
				"z": 1.4106511497,
				"element": "N" 
			},
			{
				"x": 1.1602268181,
				"y": 1.1223486142,
				"z": 1.6913408063,
				"element": "C" 
			},
			{
				"x": 0.5747640714,
				"y": 0.2300375054,
				"z": 0.7759103475,
				"element": "C" 
			},
			{
				"x": 0.259052891,
				"y": -1.1311402578,
				"z": 1.3294992262,
				"element": "C" 
			},
			{
				"x": 0.9251403744,
				"y": -1.6374874505,
				"z": 2.2279485956,
				"element": "O" 
			},
			{
				"x": -0.8409465627,
				"y": -1.7772749442,
				"z": 0.8127672603,
				"element": "N" 
			},
			{
				"x": -1.3206078406,
				"y": -2.9509224129,
				"z": 1.4385417819,
				"element": "N" 
			},
			{
				"x": 0.108474948,
				"y": -1.2402103591,
				"z": -1.5653102868,
				"element": "H" 
			},
			{
				"x": 0.1531692604,
				"y": 0.1775252767,
				"z": -2.6337947845,
				"element": "H" 
			},
			{
				"x": -1.2816865269,
				"y": -0.1621131774,
				"z": -1.6757573235,
				"element": "H" 
			},
			{
				"x": 0.663315892,
				"y": 2.3640738166,
				"z": -1.8522242308,
				"element": "H" 
			},
			{
				"x": 1.616975458,
				"y": 3.8065170241,
				"z": -0.0775807853,
				"element": "H" 
			},
			{
				"x": 1.3397006779,
				"y": 0.7739498466,
				"z": 2.7051399554,
				"element": "H" 
			},
			{
				"x": -1.5657556579,
				"y": -1.2294968689,
				"z": 0.3708821109,
				"element": "H" 
			},
			{
				"x": -1.0109715882,
				"y": -2.9026515972,
				"z": 2.4111857185,
				"element": "H" 
			},
			{
				"x": -0.8110004391,
				"y": -3.7371685863,
				"z": 1.0364108794,
				"element": "H" 
			}
		],
		 "valence_orbital": [ 
			{
				"type": "occ",
				"energy": -0.28435,
				"method": "rhf"
			},
			{
				"type": "occ",
				"energy": -0.27734,
				"method": "rhf"
			},
			{
				"type": "occ",
				"energy": -0.26416,
				"method": "rhf"
			},
			{
				"type": "occ",
				"energy": -0.25789,
				"method": "rhf"
			},
			{
				"type": "occ",
				"energy": -0.25229,
				"method": "rhf"
			},
			{
				"type": "unocc",
				"energy": -0.04631,
				"method": "rhf"
			},
			{
				"type": "unocc",
				"energy": -0.02524,
				"method": "rhf"
			},
			{
				"type": "unocc",
				"energy": 0.0361,
				"method": "rhf"
			},
			{
				"type": "unocc",
				"energy": 0.07416,
				"method": "rhf"
			},
			{
				"type": "unocc",
				"energy": 0.08476,
				"method": "rhf"
			}
		],
		"cosmo_sigma_profile": { 
			"-0.025": 0.0,
			"-0.024": 0.0,
			"-0.023": 0.0,
			"-0.022": 0.0,
			"-0.021": 0.0,
			"-0.02": 0.0,
			"-0.019": 0.0,
			"-0.018": 0.0,
			"-0.017": 0.0,
			"-0.016": 0.0,
			"-0.015": 0.00475598160452,
			"-0.014": 0.70827757343,
			"-0.013": 1.63657552236,
			"-0.012": 1.64672893306,
			"-0.011": 2.5922301397,
			"-0.01": 3.17745680855,
			"-0.009": 3.24144102547,
			"-0.008": 4.11531647469,
			"-0.007": 5.20075057202,
			"-0.006": 10.639420362,
			"-0.005": 11.779845073,
			"-0.004": 12.8960423563,
			"-0.003": 14.5750652171,
			"-0.002": 12.9226552958,
			"-0.001": 15.7526431383,
			"0.0": 12.7249481657,
			"0.001": 13.8696495187,
			"0.002": 13.3732767347,
			"0.003": 4.84475148468,
			"0.004": 5.13757549777,
			"0.005": 3.93578610298,
			"0.006": 2.91554640051,
			"0.007": 3.26441815497,
			"0.008": 4.44552047108,
			"0.009": 2.30261167398,
			"0.01": 2.72726661381,
			"0.011": 3.01199468398,
			"0.012": 4.36770042392,
			"0.013": 6.34111525817,
			"0.014": 1.96686230438,
			"0.015": 1.52340412976,
			"0.016": 1.48120376956,
			"0.017": 0.390527265,
			"0.018": 0.0,
			"0.019": 0.0,
			"0.02": 0.0,
			"0.021": 0.0,
			"0.022": 0.0,
			"0.023": 0.0,
			"0.024": 0.0,
			"0.025": 0.0
		}
	}
}
