{
	 "smiles": "CN(CCCC(=O)C1=CC=CN=C1)N=O", 
	 "Tm": 340.65, 
	 "num_atms": 28, 
	 "gaussian": { 
		 "optdone": 1, 
		 "sigma_profile": "yes", 
		 "theory": "DFT", 
		 "functional": "B3LYP", 
		 "basiset": "6-31G**", 
		 "properties": { 
			 "R2extent": 5830.6247, 
			 "electric_dipole_moment_norm": 4.49446865714, 
			 "electric_quadrupole_moment_norm": 19.4038567208, 
			 "total_energy": -703.518651617, 
			 "HOMO_LUMO_gap": 0.14839, 
			 "cosmo_polarized_energy": -18.14, 
			 "cosmo_cavitation_energy": 32.86, 
			 "cosmo_dispersion_energy": -22.78, 
			 "cosmo_repulsion_energy": 1.8, 
			 "cosmo_total_nonelectrostatic_energy": 11.88, 
			 "SMD_solvation_energy": 4.87 
		},
		"coords": [
			{
				"x": -1.1442207286,
				"y": 2.5457920746,
				"z": 1.9819144394,
				"element": "C" 
			},
			{
				"x": -0.0455414197,
				"y": 3.3029388504,
				"z": 1.3960054067,
				"element": "N" 
			},
			{
				"x": 1.2956156057,
				"y": 2.7646702719,
				"z": 1.2324757366,
				"element": "C" 
			},
			{
				"x": 1.3896927463,
				"y": 1.6841877619,
				"z": 0.1445046338,
				"element": "C" 
			},
			{
				"x": 2.8293300324,
				"y": 1.1468419367,
				"z": 0.004305818,
				"element": "C" 
			},
			{
				"x": 2.9352402403,
				"y": 0.1135770936,
				"z": -1.1109634274,
				"element": "C" 
			},
			{
				"x": 3.3096128585,
				"y": 0.4488265239,
				"z": -2.2244506919,
				"element": "O" 
			},
			{
				"x": 2.5388531739,
				"y": -1.3093804863,
				"z": -0.8487881729,
				"element": "C" 
			},
			{
				"x": 2.5682570918,
				"y": -2.2206740324,
				"z": -1.9153169167,
				"element": "C" 
			},
			{
				"x": 2.2041794298,
				"y": -3.5407597587,
				"z": -1.6856917114,
				"element": "C" 
			},
			{
				"x": 1.8184321006,
				"y": -3.9093171798,
				"z": -0.3928263,
				"element": "C" 
			},
			{
				"x": 1.782282985,
				"y": -3.0607159779,
				"z": 0.6417075967,
				"element": "N" 
			},
			{
				"x": 2.1384309731,
				"y": -1.7931237356,
				"z": 0.4053270353,
				"element": "C" 
			},
			{
				"x": -0.2539071822,
				"y": 4.5375815824,
				"z": 0.919855651,
				"element": "N" 
			},
			{
				"x": -1.4126489588,
				"y": 4.9307898796,
				"z": 1.025881597,
				"element": "O" 
			},
			{
				"x": -1.664566674,
				"y": 3.1723067265,
				"z": 2.7107500224,
				"element": "H" 
			},
			{
				"x": -1.8727100436,
				"y": 2.2498404333,
				"z": 1.2194158096,
				"element": "H" 
			},
			{
				"x": -0.7387005699,
				"y": 1.6577543265,
				"z": 2.4684826894,
				"element": "H" 
			},
			{
				"x": 1.9304651389,
				"y": 3.6171291352,
				"z": 0.9753852548,
				"element": "H" 
			},
			{
				"x": 1.6407596323,
				"y": 2.3656576247,
				"z": 2.1954881034,
				"element": "H" 
			},
			{
				"x": 0.7023069376,
				"y": 0.8618108336,
				"z": 0.3765719593,
				"element": "H" 
			},
			{
				"x": 1.0657449266,
				"y": 2.1121852393,
				"z": -0.8104870266,
				"element": "H" 
			},
			{
				"x": 3.5033502568,
				"y": 1.9647547328,
				"z": -0.2658805652,
				"element": "H" 
			},
			{
				"x": 3.1694304532,
				"y": 0.7307249758,
				"z": 0.9598556562,
				"element": "H" 
			},
			{
				"x": 2.8768758674,
				"y": -1.8661026729,
				"z": -2.8933698484,
				"element": "H" 
			},
			{
				"x": 2.2144470907,
				"y": -4.2756086053,
				"z": -2.4844110678,
				"element": "H" 
			},
			{
				"x": 1.5246991314,
				"y": -4.9354200042,
				"z": -0.1786194683,
				"element": "H" 
			},
			{
				"x": 2.1026889044,
				"y": -1.1327675498,
				"z": 1.2691777869,
				"element": "H" 
			}
		],
		 "valence_orbital": [ 
			{
				"type": "occ",
				"energy": -0.28123,
				"method": "rhf"
			},
			{
				"type": "occ",
				"energy": -0.27828,
				"method": "rhf"
			},
			{
				"type": "occ",
				"energy": -0.26394,
				"method": "rhf"
			},
			{
				"type": "occ",
				"energy": -0.25566,
				"method": "rhf"
			},
			{
				"type": "occ",
				"energy": -0.22391,
				"method": "rhf"
			},
			{
				"type": "unocc",
				"energy": -0.07552,
				"method": "rhf"
			},
			{
				"type": "unocc",
				"energy": -0.03889,
				"method": "rhf"
			},
			{
				"type": "unocc",
				"energy": -0.0299,
				"method": "rhf"
			},
			{
				"type": "unocc",
				"energy": 0.01858,
				"method": "rhf"
			},
			{
				"type": "unocc",
				"energy": 0.06238,
				"method": "rhf"
			}
		],
		"cosmo_sigma_profile": { 
			"-0.025": 0.0,
			"-0.024": 0.0,
			"-0.023": 0.0,
			"-0.022": 0.0,
			"-0.021": 0.0,
			"-0.02": 0.0,
			"-0.019": 0.0,
			"-0.018": 0.0,
			"-0.017": 0.0,
			"-0.016": 0.0,
			"-0.015": 0.0,
			"-0.014": 0.0,
			"-0.013": 0.0,
			"-0.012": 0.0,
			"-0.011": 0.0,
			"-0.01": 0.0,
			"-0.009": 0.142921553092,
			"-0.008": 3.07690356945,
			"-0.007": 13.7998738558,
			"-0.006": 23.1047066629,
			"-0.005": 23.2049765243,
			"-0.004": 24.3938477429,
			"-0.003": 27.9887953679,
			"-0.002": 19.094187188,
			"-0.001": 13.639734683,
			"0.0": 16.3075097268,
			"0.001": 17.9256953378,
			"0.002": 9.31252208376,
			"0.003": 5.91675208686,
			"0.004": 5.53235931616,
			"0.005": 5.18416869913,
			"0.006": 4.66755925184,
			"0.007": 5.63247542314,
			"0.008": 5.18946759845,
			"0.009": 5.98878007978,
			"0.01": 9.12998897768,
			"0.011": 10.0697348796,
			"0.012": 5.27718253113,
			"0.013": 3.26603159299,
			"0.014": 0.906791790292,
			"0.015": 1.00295447192,
			"0.016": 0.596232946409,
			"0.017": 0.0063194657212,
			"0.018": 0.0,
			"0.019": 0.0,
			"0.02": 0.0,
			"0.021": 0.0,
			"0.022": 0.0,
			"0.023": 0.0,
			"0.024": 0.0,
			"0.025": 0.0
		}
	}
}
