{
	 "smiles": "OC(=O)CCCC1=NC2=C(C=CC=C2)C(=O)N1", 
	 "Tm": 543.15, 
	 "num_atms": 29, 
	 "gaussian": { 
		 "optdone": 1, 
		 "sigma_profile": "yes", 
		 "theory": "DFT", 
		 "functional": "B3LYP", 
		 "basiset": "6-31G**", 
		 "properties": { 
			 "R2extent": 5368.2876, 
			 "electric_dipole_moment_norm": 2.48350675658, 
			 "electric_quadrupole_moment_norm": 35.7795031225, 
			 "total_energy": -799.735223305, 
			 "HOMO_LUMO_gap": 0.18973, 
			 "cosmo_polarized_energy": -24.35, 
			 "cosmo_cavitation_energy": 33.67, 
			 "cosmo_dispersion_energy": -24.18, 
			 "cosmo_repulsion_energy": 1.89, 
			 "cosmo_total_nonelectrostatic_energy": 11.38, 
			 "SMD_solvation_energy": 6.31 
		},
		"coords": [
			{
				"x": 4.1317459991,
				"y": 0.620158709,
				"z": -2.1487011064,
				"element": "O" 
			},
			{
				"x": 3.0455285784,
				"y": 1.4170734787,
				"z": -2.3487090825,
				"element": "C" 
			},
			{
				"x": 2.9192960386,
				"y": 2.0121857818,
				"z": -3.3893749553,
				"element": "O" 
			},
			{
				"x": 2.0713303766,
				"y": 1.4894145472,
				"z": -1.1807003854,
				"element": "C" 
			},
			{
				"x": 0.8020192956,
				"y": 2.2695617531,
				"z": -1.5287905255,
				"element": "C" 
			},
			{
				"x": -0.1232936262,
				"y": 2.5140916994,
				"z": -0.3326030816,
				"element": "C" 
			},
			{
				"x": -0.8020255809,
				"y": 1.2817907559,
				"z": 0.2245965706,
				"element": "C" 
			},
			{
				"x": -0.6508499288,
				"y": 0.1177963522,
				"z": -0.3207999212,
				"element": "N" 
			},
			{
				"x": -1.3308532849,
				"y": -0.9582778861,
				"z": 0.2429644833,
				"element": "C" 
			},
			{
				"x": -2.1642023058,
				"y": -0.8261522168,
				"z": 1.379585843,
				"element": "C" 
			},
			{
				"x": -2.8275230662,
				"y": -1.9419795325,
				"z": 1.9123806513,
				"element": "C" 
			},
			{
				"x": -2.6691426287,
				"y": -3.1872399082,
				"z": 1.3229711779,
				"element": "C" 
			},
			{
				"x": -1.8442355426,
				"y": -3.326279166,
				"z": 0.1926040128,
				"element": "C" 
			},
			{
				"x": -1.1830111547,
				"y": -2.230389384,
				"z": -0.3423771152,
				"element": "C" 
			},
			{
				"x": -2.3283250359,
				"y": 0.4946243529,
				"z": 1.9964447696,
				"element": "C" 
			},
			{
				"x": -3.0081981397,
				"y": 0.7670570492,
				"z": 2.9755285034,
				"element": "O" 
			},
			{
				"x": -1.5963130752,
				"y": 1.4909298521,
				"z": 1.332642345,
				"element": "N" 
			},
			{
				"x": 4.0776637967,
				"y": 0.1972809177,
				"z": -1.2798393934,
				"element": "H" 
			},
			{
				"x": 1.8081132012,
				"y": 0.4739028542,
				"z": -0.8632848196,
				"element": "H" 
			},
			{
				"x": 2.5988049877,
				"y": 1.9589567357,
				"z": -0.3366191649,
				"element": "H" 
			},
			{
				"x": 0.2562922377,
				"y": 1.7309002986,
				"z": -2.3079593401,
				"element": "H" 
			},
			{
				"x": 1.087231557,
				"y": 3.2350983284,
				"z": -1.9562061597,
				"element": "H" 
			},
			{
				"x": 0.4273312278,
				"y": 3.0055307133,
				"z": 0.4831340088,
				"element": "H" 
			},
			{
				"x": -0.9113470732,
				"y": 3.2221317453,
				"z": -0.6249458332,
				"element": "H" 
			},
			{
				"x": -3.4568509404,
				"y": -1.7972708661,
				"z": 2.7843857573,
				"element": "H" 
			},
			{
				"x": -3.180743653,
				"y": -4.0535028067,
				"z": 1.730912291,
				"element": "H" 
			},
			{
				"x": -1.7238892801,
				"y": -4.3026986152,
				"z": -0.2680907656,
				"element": "H" 
			},
			{
				"x": -0.5461835018,
				"y": -2.3218902744,
				"z": -1.2161654819,
				"element": "H" 
			},
			{
				"x": -1.6901694783,
				"y": 2.4208947313,
				"z": 1.7242167174,
				"element": "H" 
			}
		],
		 "valence_orbital": [ 
			{
				"type": "occ",
				"energy": -0.28486,
				"method": "rhf"
			},
			{
				"type": "occ",
				"energy": -0.2709,
				"method": "rhf"
			},
			{
				"type": "occ",
				"energy": -0.2684,
				"method": "rhf"
			},
			{
				"type": "occ",
				"energy": -0.26609,
				"method": "rhf"
			},
			{
				"type": "occ",
				"energy": -0.23674,
				"method": "rhf"
			},
			{
				"type": "unocc",
				"energy": -0.04701,
				"method": "rhf"
			},
			{
				"type": "unocc",
				"energy": -0.04115,
				"method": "rhf"
			},
			{
				"type": "unocc",
				"energy": 0.01143,
				"method": "rhf"
			},
			{
				"type": "unocc",
				"energy": 0.02202,
				"method": "rhf"
			},
			{
				"type": "unocc",
				"energy": 0.05617,
				"method": "rhf"
			}
		],
		"cosmo_sigma_profile": { 
			"-0.025": 0.0,
			"-0.024": 0.0,
			"-0.023": 0.0,
			"-0.022": 0.0,
			"-0.021": 0.0,
			"-0.02": 0.0,
			"-0.019": 0.375642726553,
			"-0.018": 1.10065874349,
			"-0.017": 1.12178062894,
			"-0.016": 1.28230491714,
			"-0.015": 2.52692333603,
			"-0.014": 1.81798377967,
			"-0.013": 1.98958529334,
			"-0.012": 2.434389049,
			"-0.011": 2.97990174405,
			"-0.01": 1.97925484322,
			"-0.009": 2.85362831208,
			"-0.008": 2.68219917091,
			"-0.007": 7.06402237448,
			"-0.006": 17.214587845,
			"-0.005": 16.9364848489,
			"-0.004": 17.3450945685,
			"-0.003": 20.6199591869,
			"-0.002": 19.606184313,
			"-0.001": 14.3538810156,
			"0.0": 13.3178666392,
			"0.001": 12.4736477037,
			"0.002": 15.9555920727,
			"0.003": 18.151116982,
			"0.004": 13.0391304216,
			"0.005": 5.22905904358,
			"0.006": 5.90953016997,
			"0.007": 4.45921270385,
			"0.008": 4.48074306607,
			"0.009": 5.44786020949,
			"0.01": 6.74558367263,
			"0.011": 8.05057379091,
			"0.012": 8.84695214718,
			"0.013": 8.12296889157,
			"0.014": 0.816188006723,
			"0.015": 0.0,
			"0.016": 0.0,
			"0.017": 0.0,
			"0.018": 0.0,
			"0.019": 0.0,
			"0.02": 0.0,
			"0.021": 0.0,
			"0.022": 0.0,
			"0.023": 0.0,
			"0.024": 0.0,
			"0.025": 0.0
		}
	}
}
