{
	 "smiles": "CCOC(=O)C1=C(C)NC2=CC=CC=C2S1", 
	 "Tm": 416.15, 
	 "num_atms": 29, 
	 "gaussian": { 
		 "optdone": 1, 
		 "sigma_profile": "yes", 
		 "theory": "DFT", 
		 "functional": "B3LYP", 
		 "basiset": "6-31G**", 
		 "properties": { 
			 "R2extent": 4886.1537, 
			 "electric_dipole_moment_norm": 2.35514719922, 
			 "electric_quadrupole_moment_norm": 15.4215256586, 
			 "total_energy": -1068.50874823, 
			 "HOMO_LUMO_gap": 0.14276, 
			 "cosmo_polarized_energy": -13.83, 
			 "cosmo_cavitation_energy": 33.55, 
			 "cosmo_dispersion_energy": -25.05, 
			 "cosmo_repulsion_energy": 1.92, 
			 "cosmo_total_nonelectrostatic_energy": 10.41, 
			 "SMD_solvation_energy": 6.17 
		},
		"coords": [
			{
				"x": 4.7391578314,
				"y": -0.7850373475,
				"z": -0.5538434585,
				"element": "C" 
			},
			{
				"x": 3.9396812397,
				"y": -0.9160815384,
				"z": 0.7343097815,
				"element": "C" 
			},
			{
				"x": 2.5245048585,
				"y": -1.0234784508,
				"z": 0.4673164981,
				"element": "O" 
			},
			{
				"x": 1.8412480161,
				"y": 0.1390645495,
				"z": 0.3181895469,
				"element": "C" 
			},
			{
				"x": 2.3820333143,
				"y": 1.2334183829,
				"z": 0.3925291323,
				"element": "O" 
			},
			{
				"x": 0.4182571967,
				"y": -0.1228472251,
				"z": 0.0473187276,
				"element": "C" 
			},
			{
				"x": -0.4657095365,
				"y": 0.8536224353,
				"z": -0.3061133399,
				"element": "C" 
			},
			{
				"x": -0.1379305836,
				"y": 2.3112762812,
				"z": -0.4997690233,
				"element": "C" 
			},
			{
				"x": -1.8069751372,
				"y": 0.5646558199,
				"z": -0.5149235615,
				"element": "N" 
			},
			{
				"x": -2.5027345961,
				"y": -0.4866747513,
				"z": 0.1148933651,
				"element": "C" 
			},
			{
				"x": -3.8729776507,
				"y": -0.3730436994,
				"z": 0.3647526473,
				"element": "C" 
			},
			{
				"x": -4.5638201254,
				"y": -1.414452461,
				"z": 0.9878347341,
				"element": "C" 
			},
			{
				"x": -3.8801879867,
				"y": -2.5576807494,
				"z": 1.3968539179,
				"element": "C" 
			},
			{
				"x": -2.50424265,
				"y": -2.6603517681,
				"z": 1.1717895797,
				"element": "C" 
			},
			{
				"x": -1.8146734751,
				"y": -1.6431151699,
				"z": 0.51075215,
				"element": "C" 
			},
			{
				"x": -0.0954475344,
				"y": -1.853201134,
				"z": 0.0865149814,
				"element": "S" 
			},
			{
				"x": 4.5285431716,
				"y": -1.6197251266,
				"z": -1.2289459255,
				"element": "H" 
			},
			{
				"x": 4.4958030915,
				"y": 0.1516937627,
				"z": -1.0608880694,
				"element": "H" 
			},
			{
				"x": 5.8110001134,
				"y": -0.7863538097,
				"z": -0.3283678476,
				"element": "H" 
			},
			{
				"x": 4.1111724641,
				"y": -0.060538772,
				"z": 1.3919044085,
				"element": "H" 
			},
			{
				"x": 4.1853109135,
				"y": -1.8388444808,
				"z": 1.2655559811,
				"element": "H" 
			},
			{
				"x": -0.4612205755,
				"y": 2.8922776546,
				"z": 0.3729229539,
				"element": "H" 
			},
			{
				"x": 0.9289424989,
				"y": 2.4681124497,
				"z": -0.6272021712,
				"element": "H" 
			},
			{
				"x": -0.6800495306,
				"y": 2.6920819951,
				"z": -1.3740418462,
				"element": "H" 
			},
			{
				"x": -2.3788897681,
				"y": 1.3636348246,
				"z": -0.74917929,
				"element": "H" 
			},
			{
				"x": -4.3995031579,
				"y": 0.5296348351,
				"z": 0.0629028114,
				"element": "H" 
			},
			{
				"x": -5.6316174234,
				"y": -1.3208002536,
				"z": 1.1600681984,
				"element": "H" 
			},
			{
				"x": -4.4082041781,
				"y": -3.367290217,
				"z": 1.8907797717,
				"element": "H" 
			},
			{
				"x": -1.9606708004,
				"y": -3.5432560361,
				"z": 1.4947853461,
				"element": "H" 
			}
		],
		 "valence_orbital": [ 
			{
				"type": "occ",
				"energy": -0.28836,
				"method": "rhf"
			},
			{
				"type": "occ",
				"energy": -0.26454,
				"method": "rhf"
			},
			{
				"type": "occ",
				"energy": -0.26182,
				"method": "rhf"
			},
			{
				"type": "occ",
				"energy": -0.23996,
				"method": "rhf"
			},
			{
				"type": "occ",
				"energy": -0.18033,
				"method": "rhf"
			},
			{
				"type": "unocc",
				"energy": -0.03757,
				"method": "rhf"
			},
			{
				"type": "unocc",
				"energy": -0.00812,
				"method": "rhf"
			},
			{
				"type": "unocc",
				"energy": 0.01187,
				"method": "rhf"
			},
			{
				"type": "unocc",
				"energy": 0.04494,
				"method": "rhf"
			},
			{
				"type": "unocc",
				"energy": 0.06818,
				"method": "rhf"
			}
		],
		"cosmo_sigma_profile": { 
			"-0.025": 0.0,
			"-0.024": 0.0,
			"-0.023": 0.0,
			"-0.022": 0.0,
			"-0.021": 0.0,
			"-0.02": 0.0,
			"-0.019": 0.0,
			"-0.018": 0.0,
			"-0.017": 0.0,
			"-0.016": 0.0125058344119,
			"-0.015": 0.848207168633,
			"-0.014": 1.59319784865,
			"-0.013": 1.3349860604,
			"-0.012": 1.65039446733,
			"-0.011": 1.47126517919,
			"-0.01": 1.5407738121,
			"-0.009": 1.68518483986,
			"-0.008": 1.76081643914,
			"-0.007": 3.73823056699,
			"-0.006": 10.885274926,
			"-0.005": 16.8114466789,
			"-0.004": 21.1163063575,
			"-0.003": 21.4230147891,
			"-0.002": 21.2609390134,
			"-0.001": 23.4815287657,
			"0.0": 20.7227009896,
			"0.001": 17.8522961997,
			"0.002": 15.4624509427,
			"0.003": 15.8319050403,
			"0.004": 19.5101233273,
			"0.005": 17.4450448724,
			"0.006": 7.90706370045,
			"0.007": 5.41879371641,
			"0.008": 4.85215119272,
			"0.009": 3.94836666708,
			"0.01": 2.91266046913,
			"0.011": 2.36282397947,
			"0.012": 2.61980275207,
			"0.013": 1.13247562755,
			"0.014": 0.0,
			"0.015": 0.0,
			"0.016": 0.0,
			"0.017": 0.0,
			"0.018": 0.0,
			"0.019": 0.0,
			"0.02": 0.0,
			"0.021": 0.0,
			"0.022": 0.0,
			"0.023": 0.0,
			"0.024": 0.0,
			"0.025": 0.0
		}
	}
}
