{
	 "smiles": "OC(=O)C1=CC(=CS1)S(Cl)(=O)=O", 
	 "Tm": 413.15, 
	 "num_atms": 15, 
	 "gaussian": { 
		 "optdone": 1, 
		 "sigma_profile": "yes", 
		 "theory": "DFT", 
		 "functional": "B3LYP", 
		 "basiset": "6-31G**", 
		 "properties": { 
			 "R2extent": 3443.6233, 
			 "electric_dipole_moment_norm": 5.10674350345, 
			 "electric_quadrupole_moment_norm": 16.0157732748, 
			 "total_energy": -1749.71367995, 
			 "HOMO_LUMO_gap": 0.19085, 
			 "cosmo_polarized_energy": -18.39, 
			 "cosmo_cavitation_energy": 25.89, 
			 "cosmo_dispersion_energy": -19.89, 
			 "cosmo_repulsion_energy": 1.51, 
			 "cosmo_total_nonelectrostatic_energy": 7.5, 
			 "SMD_solvation_energy": 4.41 
		},
		"coords": [
			{
				"x": 4.3070093145,
				"y": -0.0887893323,
				"z": -1.0849845882,
				"element": "O" 
			},
			{
				"x": 3.2047242389,
				"y": -0.8786399002,
				"z": -1.087984619,
				"element": "C" 
			},
			{
				"x": 3.2752149899,
				"y": -2.0338201628,
				"z": -1.4274434542,
				"element": "O" 
			},
			{
				"x": 1.9180153566,
				"y": -0.2709434831,
				"z": -0.6495095275,
				"element": "C" 
			},
			{
				"x": 0.6943203873,
				"y": -0.868095784,
				"z": -0.8103964977,
				"element": "C" 
			},
			{
				"x": -0.3539810657,
				"y": -0.0545562895,
				"z": -0.3011066152,
				"element": "C" 
			},
			{
				"x": 0.0553305553,
				"y": 1.135852666,
				"z": 0.2453805478,
				"element": "C" 
			},
			{
				"x": 1.7644052812,
				"y": 1.2844561499,
				"z": 0.1478947829,
				"element": "S" 
			},
			{
				"x": -2.0712110329,
				"y": -0.4965474533,
				"z": -0.3763802034,
				"element": "S" 
			},
			{
				"x": -2.2341188827,
				"y": -1.8042246314,
				"z": 1.2876854708,
				"element": "Cl" 
			},
			{
				"x": -2.8671372893,
				"y": 0.6817592572,
				"z": -0.0604981054,
				"element": "O" 
			},
			{
				"x": -2.2970637858,
				"y": -1.3102324072,
				"z": -1.5616963757,
				"element": "O" 
			},
			{
				"x": 4.0916484086,
				"y": 0.8446500213,
				"z": -0.9465146555,
				"element": "H" 
			},
			{
				"x": 0.566037618,
				"y": -1.8341387677,
				"z": -1.2813409244,
				"element": "H" 
			},
			{
				"x": -0.5588940939,
				"y": 1.9048701171,
				"z": 0.6923947646,
				"element": "H" 
			}
		],
		 "valence_orbital": [ 
			{
				"type": "occ",
				"energy": -0.34461,
				"method": "rhf"
			},
			{
				"type": "occ",
				"energy": -0.32607,
				"method": "rhf"
			},
			{
				"type": "occ",
				"energy": -0.31207,
				"method": "rhf"
			},
			{
				"type": "occ",
				"energy": -0.30525,
				"method": "rhf"
			},
			{
				"type": "occ",
				"energy": -0.29433,
				"method": "rhf"
			},
			{
				"type": "unocc",
				"energy": -0.10348,
				"method": "rhf"
			},
			{
				"type": "unocc",
				"energy": -0.09043,
				"method": "rhf"
			},
			{
				"type": "unocc",
				"energy": -0.042,
				"method": "rhf"
			},
			{
				"type": "unocc",
				"energy": -0.02785,
				"method": "rhf"
			},
			{
				"type": "unocc",
				"energy": 0.02215,
				"method": "rhf"
			}
		],
		"cosmo_sigma_profile": { 
			"-0.025": 0.0,
			"-0.024": 0.0,
			"-0.023": 0.0,
			"-0.022": 0.0,
			"-0.021": 0.0,
			"-0.02": 0.0226728596147,
			"-0.019": 0.884555621624,
			"-0.018": 0.915713771069,
			"-0.017": 0.972369278017,
			"-0.016": 1.22303994967,
			"-0.015": 0.911401356825,
			"-0.014": 1.17014523257,
			"-0.013": 1.62566228577,
			"-0.012": 2.68422754548,
			"-0.011": 2.50592681324,
			"-0.01": 2.67486309915,
			"-0.009": 3.60038601583,
			"-0.008": 4.14166370695,
			"-0.007": 6.44690327548,
			"-0.006": 7.05640852367,
			"-0.005": 7.12577408737,
			"-0.004": 8.34889777766,
			"-0.003": 14.9771613401,
			"-0.002": 20.1568287857,
			"-0.001": 17.4495727359,
			"0.0": 12.2332583649,
			"0.001": 9.22879714668,
			"0.002": 12.6781348951,
			"0.003": 16.0396246869,
			"0.004": 6.50747042723,
			"0.005": 4.60162093232,
			"0.006": 6.3033776778,
			"0.007": 10.4030965678,
			"0.008": 12.1913750963,
			"0.009": 6.86000762357,
			"0.01": 5.11773679918,
			"0.011": 4.82156763046,
			"0.012": 1.70634908358,
			"0.013": 0.0480180445473,
			"0.014": 0.0,
			"0.015": 0.0,
			"0.016": 0.0,
			"0.017": 0.0,
			"0.018": 0.0,
			"0.019": 0.0,
			"0.02": 0.0,
			"0.021": 0.0,
			"0.022": 0.0,
			"0.023": 0.0,
			"0.024": 0.0,
			"0.025": 0.0
		}
	}
}
