{
	 "smiles": "CCOC1=CC=C(OCCOC2=C(OCC)C=C(C=CC(O)=O)C=C2)C=C1", 
	 "Tm": 456.15, 
	 "num_atms": 51, 
	 "gaussian": { 
		 "optdone": 1, 
		 "sigma_profile": "yes", 
		 "theory": "DFT", 
		 "functional": "B3LYP", 
		 "basiset": "6-31G**", 
		 "properties": { 
			 "R2extent": 14593.369, 
			 "electric_dipole_moment_norm": 3.14850819596, 
			 "electric_quadrupole_moment_norm": 36.3743101036, 
			 "total_energy": -1265.99820394, 
			 "HOMO_LUMO_gap": 0.14052, 
			 "cosmo_polarized_energy": -21.02, 
			 "cosmo_cavitation_energy": 54.86, 
			 "cosmo_dispersion_energy": -36.82, 
			 "cosmo_repulsion_energy": 2.82, 
			 "cosmo_total_nonelectrostatic_energy": 20.86, 
			 "SMD_solvation_energy": 11.58 
		},
		"coords": [
			{
				"x": 3.4839599338,
				"y": 4.8795523534,
				"z": 2.8253121572,
				"element": "C" 
			},
			{
				"x": 3.9524248384,
				"y": 3.533198357,
				"z": 3.3698919386,
				"element": "C" 
			},
			{
				"x": 3.0857398194,
				"y": 2.4592032806,
				"z": 3.0049450289,
				"element": "O" 
			},
			{
				"x": 3.1780706388,
				"y": 1.9033062385,
				"z": 1.7568869882,
				"element": "C" 
			},
			{
				"x": 2.2542235869,
				"y": 0.8838445132,
				"z": 1.4832760064,
				"element": "C" 
			},
			{
				"x": 2.2615827588,
				"y": 0.2220129935,
				"z": 0.2600737418,
				"element": "C" 
			},
			{
				"x": 3.1918965627,
				"y": 0.5878559061,
				"z": -0.7210595088,
				"element": "C" 
			},
			{
				"x": 3.2809500041,
				"y": -0.059773531,
				"z": -1.9404541107,
				"element": "O" 
			},
			{
				"x": 2.1413461863,
				"y": -0.0571145112,
				"z": -2.7977570832,
				"element": "C" 
			},
			{
				"x": 1.5317835009,
				"y": -1.4506339503,
				"z": -2.9389704726,
				"element": "C" 
			},
			{
				"x": 0.7157741454,
				"y": -1.8316407084,
				"z": -1.8311999683,
				"element": "O" 
			},
			{
				"x": -0.5738933864,
				"y": -1.4037650647,
				"z": -1.7635271536,
				"element": "C" 
			},
			{
				"x": -1.2657667866,
				"y": -1.7584959006,
				"z": -0.5728691734,
				"element": "C" 
			},
			{
				"x": -0.5211513921,
				"y": -2.4346541513,
				"z": 0.3450577893,
				"element": "O" 
			},
			{
				"x": -1.143862036,
				"y": -2.8342859937,
				"z": 1.566958364,
				"element": "C" 
			},
			{
				"x": -0.1051239469,
				"y": -3.5827634067,
				"z": 2.3832958432,
				"element": "C" 
			},
			{
				"x": -2.598051672,
				"y": -1.4070800035,
				"z": -0.4081680108,
				"element": "C" 
			},
			{
				"x": -3.2918377107,
				"y": -0.6843138164,
				"z": -1.4059816615,
				"element": "C" 
			},
			{
				"x": -4.6831286973,
				"y": -0.2398911045,
				"z": -1.3271805171,
				"element": "C" 
			},
			{
				"x": -5.7673320743,
				"y": -0.5057642853,
				"z": -0.5563108545,
				"element": "C" 
			},
			{
				"x": -6.0571954441,
				"y": -1.4478478888,
				"z": 0.5349959032,
				"element": "C" 
			},
			{
				"x": -5.0981558857,
				"y": -2.3710343824,
				"z": 0.8279679596,
				"element": "O" 
			},
			{
				"x": -7.1152786345,
				"y": -1.4429846142,
				"z": 1.1391711567,
				"element": "O" 
			},
			{
				"x": -2.5808216116,
				"y": -0.3094469319,
				"z": -2.556472535,
				"element": "C" 
			},
			{
				"x": -1.2449409421,
				"y": -0.6672450261,
				"z": -2.7396422309,
				"element": "C" 
			},
			{
				"x": 4.1123865747,
				"y": 1.5996740831,
				"z": -0.455068803,
				"element": "C" 
			},
			{
				"x": 4.1158479723,
				"y": 2.2563415396,
				"z": 0.7786560317,
				"element": "C" 
			},
			{
				"x": 4.1405829428,
				"y": 5.6795192778,
				"z": 3.1840143974,
				"element": "H" 
			},
			{
				"x": 3.4884657149,
				"y": 4.8978182823,
				"z": 1.7321806139,
				"element": "H" 
			},
			{
				"x": 2.4659323032,
				"y": 5.0906610815,
				"z": 3.1649844304,
				"element": "H" 
			},
			{
				"x": 4.9842160513,
				"y": 3.3129966729,
				"z": 3.0660910724,
				"element": "H" 
			},
			{
				"x": 3.9311337703,
				"y": 3.5414431997,
				"z": 4.4636418668,
				"element": "H" 
			},
			{
				"x": 1.5432193885,
				"y": 0.6134355569,
				"z": 2.2573906421,
				"element": "H" 
			},
			{
				"x": 1.5710673205,
				"y": -0.5932945917,
				"z": 0.0740539296,
				"element": "H" 
			},
			{
				"x": 2.4886875819,
				"y": 0.2638480785,
				"z": -3.7894940992,
				"element": "H" 
			},
			{
				"x": 1.3914380531,
				"y": 0.6622588928,
				"z": -2.4494571156,
				"element": "H" 
			},
			{
				"x": 0.9707704601,
				"y": -1.5316915498,
				"z": -3.8780456141,
				"element": "H" 
			},
			{
				"x": 2.3399821126,
				"y": -2.1856870622,
				"z": -2.961815634,
				"element": "H" 
			},
			{
				"x": -1.5066963865,
				"y": -1.9486102287,
				"z": 2.1074540027,
				"element": "H" 
			},
			{
				"x": -2.0117658848,
				"y": -3.471970173,
				"z": 1.3492023329,
				"element": "H" 
			},
			{
				"x": 0.2490766421,
				"y": -4.463944294,
				"z": 1.841470034,
				"element": "H" 
			},
			{
				"x": -0.5388359516,
				"y": -3.9087946433,
				"z": 3.3337182721,
				"element": "H" 
			},
			{
				"x": 0.7545639196,
				"y": -2.9412777187,
				"z": 2.5956496674,
				"element": "H" 
			},
			{
				"x": -3.1197217397,
				"y": -1.6865077944,
				"z": 0.4925258488,
				"element": "H" 
			},
			{
				"x": -4.8973550847,
				"y": 0.5059905817,
				"z": -2.0932134639,
				"element": "H" 
			},
			{
				"x": -6.6594262176,
				"y": 0.073001051,
				"z": -0.7744247328,
				"element": "H" 
			},
			{
				"x": -5.4855210632,
				"y": -2.9090056721,
				"z": 1.5387025475,
				"element": "H" 
			},
			{
				"x": -3.0793250691,
				"y": 0.2690759054,
				"z": -3.3288826666,
				"element": "H" 
			},
			{
				"x": -0.7375321221,
				"y": -0.3591443694,
				"z": -3.6455567592,
				"element": "H" 
			},
			{
				"x": 4.8315895182,
				"y": 1.8681880196,
				"z": -1.2223875887,
				"element": "H" 
			},
			{
				"x": 4.8440074383,
				"y": 3.0393375029,
				"z": 0.953871191,
				"element": "H" 
			}
		],
		 "valence_orbital": [ 
			{
				"type": "occ",
				"energy": -0.26861,
				"method": "rhf"
			},
			{
				"type": "occ",
				"energy": -0.24614,
				"method": "rhf"
			},
			{
				"type": "occ",
				"energy": -0.23947,
				"method": "rhf"
			},
			{
				"type": "occ",
				"energy": -0.20771,
				"method": "rhf"
			},
			{
				"type": "occ",
				"energy": -0.20156,
				"method": "rhf"
			},
			{
				"type": "unocc",
				"energy": -0.06104,
				"method": "rhf"
			},
			{
				"type": "unocc",
				"energy": 0.00085,
				"method": "rhf"
			},
			{
				"type": "unocc",
				"energy": 0.00238,
				"method": "rhf"
			},
			{
				"type": "unocc",
				"energy": 0.02298,
				"method": "rhf"
			},
			{
				"type": "unocc",
				"energy": 0.02463,
				"method": "rhf"
			}
		],
		"cosmo_sigma_profile": { 
			"-0.025": 0.0,
			"-0.024": 0.0,
			"-0.023": 0.0,
			"-0.022": 0.0,
			"-0.021": 0.0,
			"-0.02": 0.0,
			"-0.019": 0.0,
			"-0.018": 0.263244472772,
			"-0.017": 0.662545150681,
			"-0.016": 1.31670865311,
			"-0.015": 0.424240981092,
			"-0.014": 0.714387801287,
			"-0.013": 0.599651446496,
			"-0.012": 0.747687375131,
			"-0.011": 0.916228966065,
			"-0.01": 0.79762087177,
			"-0.009": 1.30284881767,
			"-0.008": 2.77955026868,
			"-0.007": 9.49182905776,
			"-0.006": 21.3687504913,
			"-0.005": 30.1811016979,
			"-0.004": 37.3821415049,
			"-0.003": 38.9061508853,
			"-0.002": 36.08061432,
			"-0.001": 34.3246918943,
			"0.0": 34.1043191128,
			"0.001": 28.7132189777,
			"0.002": 26.1704367807,
			"0.003": 26.1092192233,
			"0.004": 29.0002079483,
			"0.005": 23.2349751007,
			"0.006": 10.2904419321,
			"0.007": 5.66104801295,
			"0.008": 6.33896069492,
			"0.009": 5.1578178629,
			"0.01": 4.78943838986,
			"0.011": 6.29780423541,
			"0.012": 6.38336249737,
			"0.013": 3.5416227462,
			"0.014": 0.750798359843,
			"0.015": 0.000246569550887,
			"0.016": 0.0,
			"0.017": 0.0,
			"0.018": 0.0,
			"0.019": 0.0,
			"0.02": 0.0,
			"0.021": 0.0,
			"0.022": 0.0,
			"0.023": 0.0,
			"0.024": 0.0,
			"0.025": 0.0
		}
	}
}
