{
	 "smiles": "CC1=CC(C)=C(C=C1)C1=NN=C(N)S1", 
	 "Tm": 454.15, 
	 "num_atms": 25, 
	 "gaussian": { 
		 "optdone": 1, 
		 "sigma_profile": "yes", 
		 "theory": "DFT", 
		 "functional": "B3LYP", 
		 "basiset": "6-31G**", 
		 "properties": { 
			 "R2extent": 4640.6611, 
			 "electric_dipole_moment_norm": 2.74852521546, 
			 "electric_quadrupole_moment_norm": 26.4182288759, 
			 "total_energy": -950.125251966, 
			 "HOMO_LUMO_gap": 0.17031, 
			 "cosmo_polarized_energy": -13.95, 
			 "cosmo_cavitation_energy": 30.15, 
			 "cosmo_dispersion_energy": -22.81, 
			 "cosmo_repulsion_energy": 1.75, 
			 "cosmo_total_nonelectrostatic_energy": 9.09, 
			 "SMD_solvation_energy": 3.33 
		},
		"coords": [
			{
				"x": -1.5845426402,
				"y": 0.4733724294,
				"z": 3.6386286831,
				"element": "C" 
			},
			{
				"x": -0.9584552162,
				"y": -0.0889051345,
				"z": 2.3854189505,
				"element": "C" 
			},
			{
				"x": -1.3409826767,
				"y": -1.3394657296,
				"z": 1.8881002674,
				"element": "C" 
			},
			{
				"x": -0.7741029628,
				"y": -1.9223289092,
				"z": 0.7490395237,
				"element": "C" 
			},
			{
				"x": -1.2743900391,
				"y": -3.2733802161,
				"z": 0.3008658196,
				"element": "C" 
			},
			{
				"x": 0.23964391,
				"y": -1.1995196342,
				"z": 0.0658274138,
				"element": "C" 
			},
			{
				"x": 0.6241960735,
				"y": 0.0589648053,
				"z": 0.5624731666,
				"element": "C" 
			},
			{
				"x": 0.039184661,
				"y": 0.6087061686,
				"z": 1.6961003277,
				"element": "C" 
			},
			{
				"x": 0.8923729069,
				"y": -1.7151217258,
				"z": -1.1446132133,
				"element": "C" 
			},
			{
				"x": 0.936665036,
				"y": -2.957854678,
				"z": -1.5288356559,
				"element": "N" 
			},
			{
				"x": 1.5947574804,
				"y": -3.1774297076,
				"z": -2.7035167291,
				"element": "N" 
			},
			{
				"x": 2.0773593697,
				"y": -2.0785234393,
				"z": -3.2226210967,
				"element": "C" 
			},
			{
				"x": 2.851045838,
				"y": -2.0632846644,
				"z": -4.3581170313,
				"element": "N" 
			},
			{
				"x": 1.7393603158,
				"y": -0.6294463197,
				"z": -2.2909487729,
				"element": "S" 
			},
			{
				"x": -2.6196152332,
				"y": 0.1381479255,
				"z": 3.7547783036,
				"element": "H" 
			},
			{
				"x": -1.579396206,
				"y": 1.567501816,
				"z": 3.6325908127,
				"element": "H" 
			},
			{
				"x": -1.0365381902,
				"y": 0.1504245448,
				"z": 4.5329486264,
				"element": "H" 
			},
			{
				"x": -2.123545826,
				"y": -1.8897580662,
				"z": 2.4060512819,
				"element": "H" 
			},
			{
				"x": -0.4997265473,
				"y": -4.0390581692,
				"z": 0.3958853749,
				"element": "H" 
			},
			{
				"x": -2.141533948,
				"y": -3.571403544,
				"z": 0.8968641674,
				"element": "H" 
			},
			{
				"x": -1.5568944107,
				"y": -3.2698485709,
				"z": -0.7559001416,
				"element": "H" 
			},
			{
				"x": 1.4099301086,
				"y": 0.6137677944,
				"z": 0.0574664417,
				"element": "H" 
			},
			{
				"x": 0.3638526302,
				"y": 1.5839367981,
				"z": 2.0492287529,
				"element": "H" 
			},
			{
				"x": 2.8253658773,
				"y": -2.9444385163,
				"z": -4.8561243795,
				"element": "H" 
			},
			{
				"x": 2.7736896889,
				"y": -1.252355257,
				"z": -4.9549908936,
				"element": "H" 
			}
		],
		 "valence_orbital": [ 
			{
				"type": "occ",
				"energy": -0.28737,
				"method": "rhf"
			},
			{
				"type": "occ",
				"energy": -0.25969,
				"method": "rhf"
			},
			{
				"type": "occ",
				"energy": -0.25104,
				"method": "rhf"
			},
			{
				"type": "occ",
				"energy": -0.24366,
				"method": "rhf"
			},
			{
				"type": "occ",
				"energy": -0.21224,
				"method": "rhf"
			},
			{
				"type": "unocc",
				"energy": -0.04193,
				"method": "rhf"
			},
			{
				"type": "unocc",
				"energy": -0.00478,
				"method": "rhf"
			},
			{
				"type": "unocc",
				"energy": 0.00534,
				"method": "rhf"
			},
			{
				"type": "unocc",
				"energy": 0.02273,
				"method": "rhf"
			},
			{
				"type": "unocc",
				"energy": 0.05942,
				"method": "rhf"
			}
		],
		"cosmo_sigma_profile": { 
			"-0.025": 0.0,
			"-0.024": 0.0,
			"-0.023": 0.0,
			"-0.022": 0.0,
			"-0.021": 0.0,
			"-0.02": 0.0,
			"-0.019": 0.0,
			"-0.018": 0.0,
			"-0.017": 0.0,
			"-0.016": 0.0204413664762,
			"-0.015": 1.03666401485,
			"-0.014": 2.57201288634,
			"-0.013": 2.37325654242,
			"-0.012": 3.14950995034,
			"-0.011": 3.17474168674,
			"-0.01": 1.48997586636,
			"-0.009": 1.65479042244,
			"-0.008": 2.28816020198,
			"-0.007": 2.30663284865,
			"-0.006": 4.08270696368,
			"-0.005": 9.28562804428,
			"-0.004": 18.0063182192,
			"-0.003": 16.2359692813,
			"-0.002": 18.7667624809,
			"-0.001": 21.0129386999,
			"0.0": 29.4558131987,
			"0.001": 23.2532111252,
			"0.002": 16.4331956078,
			"0.003": 14.8654984391,
			"0.004": 12.6794939967,
			"0.005": 11.8433341842,
			"0.006": 3.76139443737,
			"0.007": 2.62412747372,
			"0.008": 2.70045652797,
			"0.009": 2.95650115325,
			"0.01": 2.9823156937,
			"0.011": 2.87124838092,
			"0.012": 3.51255827091,
			"0.013": 1.76433506862,
			"0.014": 1.28956177623,
			"0.015": 1.20243739018,
			"0.016": 0.197779431457,
			"0.017": 0.0,
			"0.018": 0.0,
			"0.019": 0.0,
			"0.02": 0.0,
			"0.021": 0.0,
			"0.022": 0.0,
			"0.023": 0.0,
			"0.024": 0.0,
			"0.025": 0.0
		}
	}
}
