{
	 "smiles": "NC(=O)CCl", 
	 "Tm": 393.15, 
	 "num_atms": 9, 
	 "gaussian": { 
		 "optdone": 1, 
		 "sigma_profile": "yes", 
		 "theory": "DFT", 
		 "functional": "B3LYP", 
		 "basiset": "6-31G**", 
		 "properties": { 
			 "R2extent": 1404.0187, 
			 "electric_dipole_moment_norm": 1.91256471263, 
			 "electric_quadrupole_moment_norm": 8.2126679721, 
			 "total_energy": -668.807514724, 
			 "HOMO_LUMO_gap": 0.27373, 
			 "cosmo_polarized_energy": -10.58, 
			 "cosmo_cavitation_energy": 14.6, 
			 "cosmo_dispersion_energy": -11.31, 
			 "cosmo_repulsion_energy": 1.03, 
			 "cosmo_total_nonelectrostatic_energy": 4.33, 
			 "SMD_solvation_energy": 3.35 
		},
		"coords": [
			{
				"x": 1.1300695424,
				"y": -0.6230996407,
				"z": 1.4167844036,
				"element": "N" 
			},
			{
				"x": 0.3344212181,
				"y": 0.3779475582,
				"z": 1.8603993641,
				"element": "C" 
			},
			{
				"x": -0.7850420625,
				"y": 0.2234003361,
				"z": 2.3243585501,
				"element": "O" 
			},
			{
				"x": 0.8705479505,
				"y": 1.8102349909,
				"z": 1.7774656926,
				"element": "C" 
			},
			{
				"x": 2.5375081335,
				"y": 2.0227626452,
				"z": 1.0854106178,
				"element": "Cl" 
			},
			{
				"x": 0.777860899,
				"y": -1.56630141,
				"z": 1.4709062021,
				"element": "H" 
			},
			{
				"x": 2.0483790464,
				"y": -0.4475395931,
				"z": 1.0409789427,
				"element": "H" 
			},
			{
				"x": 0.884229096,
				"y": 2.2295753282,
				"z": 2.7835343892,
				"element": "H" 
			},
			{
				"x": 0.1890261765,
				"y": 2.3958197852,
				"z": 1.1603618378,
				"element": "H" 
			}
		],
		 "valence_orbital": [ 
			{
				"type": "occ",
				"energy": -0.39315,
				"method": "rhf"
			},
			{
				"type": "occ",
				"energy": -0.32815,
				"method": "rhf"
			},
			{
				"type": "occ",
				"energy": -0.3142,
				"method": "rhf"
			},
			{
				"type": "occ",
				"energy": -0.27865,
				"method": "rhf"
			},
			{
				"type": "occ",
				"energy": -0.26164,
				"method": "rhf"
			},
			{
				"type": "unocc",
				"energy": 0.01209,
				"method": "rhf"
			},
			{
				"type": "unocc",
				"energy": 0.01695,
				"method": "rhf"
			},
			{
				"type": "unocc",
				"energy": 0.0781,
				"method": "rhf"
			},
			{
				"type": "unocc",
				"energy": 0.1105,
				"method": "rhf"
			},
			{
				"type": "unocc",
				"energy": 0.132,
				"method": "rhf"
			}
		],
		"cosmo_sigma_profile": { 
			"-0.025": 0.0,
			"-0.024": 0.0,
			"-0.023": 0.0,
			"-0.022": 0.0,
			"-0.021": 0.0,
			"-0.02": 0.0,
			"-0.019": 0.0,
			"-0.018": 0.0,
			"-0.017": 0.0,
			"-0.016": 0.0,
			"-0.015": 0.510560162671,
			"-0.014": 1.15997727188,
			"-0.013": 2.08270027715,
			"-0.012": 1.87819922183,
			"-0.011": 2.17057431558,
			"-0.01": 1.86398423272,
			"-0.009": 3.97700092942,
			"-0.008": 6.64744662283,
			"-0.007": 4.63447222049,
			"-0.006": 4.66443097811,
			"-0.005": 5.23240421451,
			"-0.004": 5.00816564596,
			"-0.003": 4.85200718628,
			"-0.002": 5.05074339995,
			"-0.001": 5.58739418827,
			"0.0": 6.88162221313,
			"0.001": 5.12653587478,
			"0.002": 7.88763388914,
			"0.003": 6.12335418622,
			"0.004": 5.91701535379,
			"0.005": 8.02917904337,
			"0.006": 4.59805120983,
			"0.007": 1.49853732454,
			"0.008": 0.499193380272,
			"0.009": 0.832830034289,
			"0.01": 1.71060842619,
			"0.011": 1.73346911757,
			"0.012": 2.62912928784,
			"0.013": 5.61558777143,
			"0.014": 3.20255398055,
			"0.015": 0.0661941874077,
			"0.016": 0.0,
			"0.017": 0.0,
			"0.018": 0.0,
			"0.019": 0.0,
			"0.02": 0.0,
			"0.021": 0.0,
			"0.022": 0.0,
			"0.023": 0.0,
			"0.024": 0.0,
			"0.025": 0.0
		}
	}
}
