{
	 "smiles": "CC(C=CC=C(/C)C=CC1C(C)=CC(O)CC1(C)C)=C/C=C/C=C(/C)C=CC=C(/C)C=CC1=C(C)CC(O)CC1(C)C", 
	 "Tm": 469.15, 
	 "num_atms": 98, 
	 "gaussian": { 
		 "optdone": 1, 
		 "sigma_profile": "yes", 
		 "theory": "DFT", 
		 "functional": "B3LYP", 
		 "basiset": "6-31G**", 
		 "properties": { 
			 "R2extent": 72337.5963, 
			 "electric_dipole_moment_norm": 1.98216432719, 
			 "electric_quadrupole_moment_norm": 36.6561420845, 
			 "total_energy": -1708.33793978, 
			 "HOMO_LUMO_gap": 0.0884, 
			 "cosmo_polarized_energy": -20.46, 
			 "cosmo_cavitation_energy": 94.67, 
			 "cosmo_dispersion_energy": -62.05, 
			 "cosmo_repulsion_energy": 4.7, 
			 "cosmo_total_nonelectrostatic_energy": 37.31, 
			 "SMD_solvation_energy": 15.8 
		},
		"coords": [
			{
				"x": 0.7653254809,
				"y": 0.0694040715,
				"z": -2.0445611976,
				"element": "C" 
			},
			{
				"x": 0.7571361344,
				"y": 1.5703700488,
				"z": -2.2212353378,
				"element": "C" 
			},
			{
				"x": 1.4570278274,
				"y": 2.3353174414,
				"z": -1.1970485938,
				"element": "C" 
			},
			{
				"x": 1.2113595952,
				"y": 3.6303188699,
				"z": -0.8529731084,
				"element": "C" 
			},
			{
				"x": 1.8975026165,
				"y": 4.4439202429,
				"z": 0.1285342612,
				"element": "C" 
			},
			{
				"x": 3.1737720333,
				"y": 4.3537929878,
				"z": 0.6023314086,
				"element": "C" 
			},
			{
				"x": 4.2048464176,
				"y": 3.3932638897,
				"z": 0.0587977302,
				"element": "C" 
			},
			{
				"x": 3.6485771039,
				"y": 5.2516185887,
				"z": 1.6652194928,
				"element": "C" 
			},
			{
				"x": 2.9041121938,
				"y": 5.7720966554,
				"z": 2.6584871595,
				"element": "C" 
			},
			{
				"x": 3.3928353239,
				"y": 6.7313078233,
				"z": 3.7333101333,
				"element": "C" 
			},
			{
				"x": 4.8747040449,
				"y": 6.5352470518,
				"z": 4.0326020558,
				"element": "C" 
			},
			{
				"x": 5.2322625934,
				"y": 5.2981925233,
				"z": 4.817696421,
				"element": "C" 
			},
			{
				"x": 5.8086938089,
				"y": 7.4008572438,
				"z": 3.6170852763,
				"element": "C" 
			},
			{
				"x": 5.5233442561,
				"y": 8.6848889331,
				"z": 2.8912843361,
				"element": "C" 
			},
			{
				"x": 6.4645825406,
				"y": 8.7836197252,
				"z": 1.8149873963,
				"element": "O" 
			},
			{
				"x": 4.0766736106,
				"y": 8.7502830198,
				"z": 2.3893689504,
				"element": "C" 
			},
			{
				"x": 3.0499791432,
				"y": 8.2350998161,
				"z": 3.4199371792,
				"element": "C" 
			},
			{
				"x": 3.1153322696,
				"y": 9.0499326313,
				"z": 4.7294325641,
				"element": "C" 
			},
			{
				"x": 1.6314630653,
				"y": 8.3784272061,
				"z": 2.8401008487,
				"element": "C" 
			},
			{
				"x": 0.1733213728,
				"y": 2.1953901181,
				"z": -3.2928652767,
				"element": "C" 
			},
			{
				"x": -0.6152144984,
				"y": 1.6572018917,
				"z": -4.3714938628,
				"element": "C" 
			},
			{
				"x": -1.2880339794,
				"y": 0.4693978504,
				"z": -4.4542408287,
				"element": "C" 
			},
			{
				"x": -2.0291503636,
				"y": 0.0867846406,
				"z": -5.6213440696,
				"element": "C" 
			},
			{
				"x": -2.7594350017,
				"y": -1.0585731324,
				"z": -5.8273264107,
				"element": "C" 
			},
			{
				"x": -3.464249504,
				"y": -1.2464666035,
				"z": -7.151827227,
				"element": "C" 
			},
			{
				"x": -2.8839088801,
				"y": -2.0955883797,
				"z": -4.8301052922,
				"element": "C" 
			},
			{
				"x": -3.5847388379,
				"y": -3.2578839566,
				"z": -4.9670153757,
				"element": "C" 
			},
			{
				"x": -3.6644735003,
				"y": -4.2522854302,
				"z": -3.9334857497,
				"element": "C" 
			},
			{
				"x": -4.353023098,
				"y": -5.4323173388,
				"z": -3.9636567747,
				"element": "C" 
			},
			{
				"x": -5.241378235,
				"y": -5.8425872246,
				"z": -5.1172797992,
				"element": "C" 
			},
			{
				"x": -4.2956422847,
				"y": -6.3903088361,
				"z": -2.8595606685,
				"element": "C" 
			},
			{
				"x": -3.2629135116,
				"y": -6.529249316,
				"z": -1.9889307818,
				"element": "C" 
			},
			{
				"x": -3.0851884385,
				"y": -7.4295774213,
				"z": -0.8462017345,
				"element": "C" 
			},
			{
				"x": -1.8350450713,
				"y": -7.5296086865,
				"z": -0.3031346459,
				"element": "C" 
			},
			{
				"x": -0.6391876267,
				"y": -6.7225478169,
				"z": -0.7745423755,
				"element": "C" 
			},
			{
				"x": -1.4819900423,
				"y": -8.4773702842,
				"z": 0.8203450677,
				"element": "C" 
			},
			{
				"x": -2.5368950949,
				"y": -9.5327518647,
				"z": 1.1001695633,
				"element": "C" 
			},
			{
				"x": -2.2232373243,
				"y": -10.1116153724,
				"z": 2.3665218111,
				"element": "O" 
			},
			{
				"x": -3.9053976811,
				"y": -8.8661607681,
				"z": 1.0897372324,
				"element": "C" 
			},
			{
				"x": -4.2775251685,
				"y": -8.2364227491,
				"z": -0.2768873654,
				"element": "C" 
			},
			{
				"x": -5.4940450923,
				"y": -7.3189650912,
				"z": 0.0011948,
				"element": "C" 
			},
			{
				"x": -4.6922627072,
				"y": -9.3706746309,
				"z": -1.2493590375,
				"element": "C" 
			},
			{
				"x": -0.1324885748,
				"y": -0.282502354,
				"z": -1.5185449915,
				"element": "H" 
			},
			{
				"x": 1.624524717,
				"y": -0.2441499578,
				"z": -1.4427868938,
				"element": "H" 
			},
			{
				"x": 0.8075935349,
				"y": -0.452733736,
				"z": -3.0051709868,
				"element": "H" 
			},
			{
				"x": 2.195083406,
				"y": 1.7794047876,
				"z": -0.6235718383,
				"element": "H" 
			},
			{
				"x": 0.3586952991,
				"y": 4.1161693835,
				"z": -1.3266340297,
				"element": "H" 
			},
			{
				"x": 1.3068703137,
				"y": 5.2769483877,
				"z": 0.5068405523,
				"element": "H" 
			},
			{
				"x": 4.2592910283,
				"y": 2.4740686645,
				"z": 0.6576027987,
				"element": "H" 
			},
			{
				"x": 5.201944173,
				"y": 3.8461389221,
				"z": 0.0927917831,
				"element": "H" 
			},
			{
				"x": 3.9878745332,
				"y": 3.1019049034,
				"z": -0.9722665458,
				"element": "H" 
			},
			{
				"x": 4.7154557045,
				"y": 5.4759730894,
				"z": 1.6535931268,
				"element": "H" 
			},
			{
				"x": 1.853056671,
				"y": 5.4951717393,
				"z": 2.7204724893,
				"element": "H" 
			},
			{
				"x": 2.8356515598,
				"y": 6.4724841482,
				"z": 4.6476814528,
				"element": "H" 
			},
			{
				"x": 6.3146287766,
				"y": 5.1887602777,
				"z": 4.9282766244,
				"element": "H" 
			},
			{
				"x": 4.8411644855,
				"y": 4.3974099183,
				"z": 4.3311190056,
				"element": "H" 
			},
			{
				"x": 4.7893956505,
				"y": 5.3315739782,
				"z": 5.8221292699,
				"element": "H" 
			},
			{
				"x": 6.859210692,
				"y": 7.2162219134,
				"z": 3.8361498861,
				"element": "H" 
			},
			{
				"x": 5.7025786632,
				"y": 9.5172662184,
				"z": 3.5960599041,
				"element": "H" 
			},
			{
				"x": 6.3392281707,
				"y": 9.647673997,
				"z": 1.4008023555,
				"element": "H" 
			},
			{
				"x": 4.0150345386,
				"y": 8.1360259267,
				"z": 1.4837773735,
				"element": "H" 
			},
			{
				"x": 3.8282618663,
				"y": 9.7806984233,
				"z": 2.0987916903,
				"element": "H" 
			},
			{
				"x": 4.0686263465,
				"y": 8.9223744739,
				"z": 5.2491752791,
				"element": "H" 
			},
			{
				"x": 2.319270814,
				"y": 8.7375784933,
				"z": 5.41503449,
				"element": "H" 
			},
			{
				"x": 2.976903644,
				"y": 10.1186606151,
				"z": 4.5290907645,
				"element": "H" 
			},
			{
				"x": 0.8815536378,
				"y": 7.9418572429,
				"z": 3.5106666805,
				"element": "H" 
			},
			{
				"x": 1.3810768791,
				"y": 9.4374552465,
				"z": 2.7106527612,
				"element": "H" 
			},
			{
				"x": 1.5388421149,
				"y": 7.891859219,
				"z": 1.8648451732,
				"element": "H" 
			},
			{
				"x": 0.3667461625,
				"y": 3.2628388521,
				"z": -3.3793462251,
				"element": "H" 
			},
			{
				"x": -0.7065535085,
				"y": 2.3194929296,
				"z": -5.2338088988,
				"element": "H" 
			},
			{
				"x": -1.2914563301,
				"y": -0.198763767,
				"z": -3.6010494022,
				"element": "H" 
			},
			{
				"x": -2.0007747807,
				"y": 0.8044063864,
				"z": -6.4412704717,
				"element": "H" 
			},
			{
				"x": -4.5468462389,
				"y": -1.3605160155,
				"z": -7.0164642455,
				"element": "H" 
			},
			{
				"x": -3.1118413984,
				"y": -2.1476803424,
				"z": -7.6686219094,
				"element": "H" 
			},
			{
				"x": -3.2967236563,
				"y": -0.3932791792,
				"z": -7.8135443594,
				"element": "H" 
			},
			{
				"x": -2.3709314028,
				"y": -1.9383860813,
				"z": -3.883697269,
				"element": "H" 
			},
			{
				"x": -4.1015582053,
				"y": -3.450810301,
				"z": -5.9026739221,
				"element": "H" 
			},
			{
				"x": -3.1188067767,
				"y": -4.0179883757,
				"z": -3.0203863215,
				"element": "H" 
			},
			{
				"x": -4.8002337734,
				"y": -6.6765891211,
				"z": -5.6782439827,
				"element": "H" 
			},
			{
				"x": -5.436076388,
				"y": -5.0310870618,
				"z": -5.8200249065,
				"element": "H" 
			},
			{
				"x": -6.2103739979,
				"y": -6.1954655723,
				"z": -4.7436858192,
				"element": "H" 
			},
			{
				"x": -5.151372136,
				"y": -7.055687086,
				"z": -2.7982441894,
				"element": "H" 
			},
			{
				"x": -2.4046095437,
				"y": -5.8991023328,
				"z": -2.1981438729,
				"element": "H" 
			},
			{
				"x": 0.1575934781,
				"y": -6.7590143525,
				"z": -0.0257864573,
				"element": "H" 
			},
			{
				"x": -0.220836567,
				"y": -7.1221916226,
				"z": -1.7073603185,
				"element": "H" 
			},
			{
				"x": -0.8711541461,
				"y": -5.6680104185,
				"z": -0.9482064222,
				"element": "H" 
			},
			{
				"x": -0.5179112159,
				"y": -8.9562354887,
				"z": 0.6040153595,
				"element": "H" 
			},
			{
				"x": -1.321274699,
				"y": -7.905526634,
				"z": 1.7480018094,
				"element": "H" 
			},
			{
				"x": -2.4908242025,
				"y": -10.3045993113,
				"z": 0.3156360008,
				"element": "H" 
			},
			{
				"x": -2.8818926857,
				"y": -10.794193293,
				"z": 2.5495806128,
				"element": "H" 
			},
			{
				"x": -4.6854436128,
				"y": -9.588984119,
				"z": 1.3670475097,
				"element": "H" 
			},
			{
				"x": -3.9015976438,
				"y": -8.0918727853,
				"z": 1.8677450566,
				"element": "H" 
			},
			{
				"x": -6.2691919844,
				"y": -7.8879584013,
				"z": 0.5274255484,
				"element": "H" 
			},
			{
				"x": -5.2043279613,
				"y": -6.4776231253,
				"z": 0.6390067558,
				"element": "H" 
			},
			{
				"x": -5.9418103038,
				"y": -6.9081027271,
				"z": -0.9037279198,
				"element": "H" 
			},
			{
				"x": -5.556663796,
				"y": -9.9136826421,
				"z": -0.8492621846,
				"element": "H" 
			},
			{
				"x": -4.9656792376,
				"y": -8.9931867525,
				"z": -2.2362559336,
				"element": "H" 
			},
			{
				"x": -3.8801175837,
				"y": -10.0890735476,
				"z": -1.3951999711,
				"element": "H" 
			}
		],
		 "valence_orbital": [ 
			{
				"type": "occ",
				"energy": -0.23797,
				"method": "rhf"
			},
			{
				"type": "occ",
				"energy": -0.23368,
				"method": "rhf"
			},
			{
				"type": "occ",
				"energy": -0.21566,
				"method": "rhf"
			},
			{
				"type": "occ",
				"energy": -0.19137,
				"method": "rhf"
			},
			{
				"type": "occ",
				"energy": -0.1644,
				"method": "rhf"
			},
			{
				"type": "unocc",
				"energy": -0.076,
				"method": "rhf"
			},
			{
				"type": "unocc",
				"energy": -0.0471,
				"method": "rhf"
			},
			{
				"type": "unocc",
				"energy": -0.01723,
				"method": "rhf"
			},
			{
				"type": "unocc",
				"energy": 0.01085,
				"method": "rhf"
			},
			{
				"type": "unocc",
				"energy": 0.02187,
				"method": "rhf"
			}
		],
		"cosmo_sigma_profile": { 
			"-0.025": 0.0,
			"-0.024": 0.0,
			"-0.023": 0.0,
			"-0.022": 0.0,
			"-0.021": 0.0,
			"-0.02": 0.0,
			"-0.019": 0.0,
			"-0.018": 0.0,
			"-0.017": 0.0,
			"-0.016": 0.0,
			"-0.015": 1.09946784938,
			"-0.014": 2.00328279679,
			"-0.013": 2.04432546771,
			"-0.012": 1.81597303791,
			"-0.011": 1.5806813339,
			"-0.01": 1.87515720229,
			"-0.009": 1.94219785652,
			"-0.008": 1.4678221712,
			"-0.007": 1.78876990937,
			"-0.006": 5.8625234172,
			"-0.005": 17.2156187634,
			"-0.004": 55.7165409454,
			"-0.003": 84.5975816523,
			"-0.002": 100.746261866,
			"-0.001": 83.0012891885,
			"0.0": 90.2612403546,
			"0.001": 82.0041039337,
			"0.002": 48.7670150247,
			"0.003": 29.2574922232,
			"0.004": 31.3611270579,
			"0.005": 37.4612130373,
			"0.006": 29.5225766943,
			"0.007": 3.90136763009,
			"0.008": 2.14741663622,
			"0.009": 3.13701086836,
			"0.01": 2.26233138474,
			"0.011": 2.80933181033,
			"0.012": 3.0098796766,
			"0.013": 2.19385373027,
			"0.014": 4.88379593363,
			"0.015": 1.78331977336,
			"0.016": 0.0,
			"0.017": 0.0,
			"0.018": 0.0,
			"0.019": 0.0,
			"0.02": 0.0,
			"0.021": 0.0,
			"0.022": 0.0,
			"0.023": 0.0,
			"0.024": 0.0,
			"0.025": 0.0
		}
	}
}
