{
	 "smiles": "FC1=C(F)C=C2N=CC=CC2=C1", 
	 "Tm": 383.15, 
	 "num_atms": 17, 
	 "gaussian": { 
		 "optdone": 1, 
		 "sigma_profile": "yes", 
		 "theory": "DFT", 
		 "functional": "B3LYP", 
		 "basiset": "6-31G**", 
		 "properties": { 
			 "R2extent": 2462.0929, 
			 "electric_dipole_moment_norm": 2.90112509899, 
			 "electric_quadrupole_moment_norm": 4.82018696318, 
			 "total_energy": -600.387842445, 
			 "HOMO_LUMO_gap": 0.18209, 
			 "cosmo_polarized_energy": -6.45, 
			 "cosmo_cavitation_energy": 22.48, 
			 "cosmo_dispersion_energy": -16.63, 
			 "cosmo_repulsion_energy": 1.25, 
			 "cosmo_total_nonelectrostatic_energy": 7.09, 
			 "SMD_solvation_energy": 3.28 
		},
		"coords": [
			{
				"x": 1.6439120277,
				"y": -1.0912619267,
				"z": -1.3710502626,
				"element": "F" 
			},
			{
				"x": 1.1520350801,
				"y": -0.1406499194,
				"z": -0.5610692574,
				"element": "C" 
			},
			{
				"x": 1.8970134236,
				"y": 1.0566633361,
				"z": -0.4158593108,
				"element": "C" 
			},
			{
				"x": 3.0471891374,
				"y": 1.161043034,
				"z": -1.0991149519,
				"element": "F" 
			},
			{
				"x": 1.4562880841,
				"y": 2.0686403697,
				"z": 0.3932554505,
				"element": "C" 
			},
			{
				"x": 0.2322443214,
				"y": 1.920624719,
				"z": 1.1011478072,
				"element": "C" 
			},
			{
				"x": -0.1771025029,
				"y": 2.9480534024,
				"z": 1.8981230203,
				"element": "N" 
			},
			{
				"x": -1.3135430071,
				"y": 2.8027353867,
				"z": 2.5510924003,
				"element": "C" 
			},
			{
				"x": -2.133539726,
				"y": 1.6492947301,
				"z": 2.4767738568,
				"element": "C" 
			},
			{
				"x": -1.7343658179,
				"y": 0.60401886,
				"z": 1.6771005873,
				"element": "C" 
			},
			{
				"x": -0.5201955673,
				"y": 0.7095701424,
				"z": 0.9535397805,
				"element": "C" 
			},
			{
				"x": -0.0307197097,
				"y": -0.3188314519,
				"z": 0.1046545156,
				"element": "C" 
			},
			{
				"x": 2.0275819362,
				"y": 2.9828105396,
				"z": 0.5024933714,
				"element": "H" 
			},
			{
				"x": -1.6181540446,
				"y": 3.6378308864,
				"z": 3.1808374186,
				"element": "H" 
			},
			{
				"x": -3.0567674399,
				"y": 1.6045332478,
				"z": 3.0454074905,
				"element": "H" 
			},
			{
				"x": -2.3325026146,
				"y": -0.299391928,
				"z": 1.5906582381,
				"element": "H" 
			},
			{
				"x": -0.5810735806,
				"y": -1.2451834284,
				"z": -0.0243901543,
				"element": "H" 
			}
		],
		 "valence_orbital": [ 
			{
				"type": "occ",
				"energy": -0.33792,
				"method": "rhf"
			},
			{
				"type": "occ",
				"energy": -0.31541,
				"method": "rhf"
			},
			{
				"type": "occ",
				"energy": -0.26309,
				"method": "rhf"
			},
			{
				"type": "occ",
				"energy": -0.2517,
				"method": "rhf"
			},
			{
				"type": "occ",
				"energy": -0.24352,
				"method": "rhf"
			},
			{
				"type": "unocc",
				"energy": -0.06143,
				"method": "rhf"
			},
			{
				"type": "unocc",
				"energy": -0.02166,
				"method": "rhf"
			},
			{
				"type": "unocc",
				"energy": 0.00746,
				"method": "rhf"
			},
			{
				"type": "unocc",
				"energy": 0.06879,
				"method": "rhf"
			},
			{
				"type": "unocc",
				"energy": 0.08732,
				"method": "rhf"
			}
		],
		"cosmo_sigma_profile": { 
			"-0.025": 0.0,
			"-0.024": 0.0,
			"-0.023": 0.0,
			"-0.022": 0.0,
			"-0.021": 0.0,
			"-0.02": 0.0,
			"-0.019": 0.0,
			"-0.018": 0.0,
			"-0.017": 0.0,
			"-0.016": 0.0,
			"-0.015": 0.0,
			"-0.014": 0.0,
			"-0.013": 0.0,
			"-0.012": 0.0,
			"-0.011": 0.0,
			"-0.01": 0.0,
			"-0.009": 0.566435232406,
			"-0.008": 4.99306158057,
			"-0.007": 8.41059249851,
			"-0.006": 10.2094027154,
			"-0.005": 8.63136127723,
			"-0.004": 7.38324312198,
			"-0.003": 8.16998044308,
			"-0.002": 9.0354131299,
			"-0.001": 14.879972879,
			"0.0": 20.4235271544,
			"0.001": 24.5787893728,
			"0.002": 17.95846472,
			"0.003": 20.2292945463,
			"0.004": 14.2112266079,
			"0.005": 1.75664335584,
			"0.006": 1.73517547236,
			"0.007": 1.41725291878,
			"0.008": 0.844442513993,
			"0.009": 0.853159748863,
			"0.01": 1.25875727915,
			"0.011": 1.24399373309,
			"0.012": 0.496908597184,
			"0.013": 0.91231233394,
			"0.014": 1.04747640969,
			"0.015": 0.472605840321,
			"0.016": 0.434768288279,
			"0.017": 0.0,
			"0.018": 0.0,
			"0.019": 0.0,
			"0.02": 0.0,
			"0.021": 0.0,
			"0.022": 0.0,
			"0.023": 0.0,
			"0.024": 0.0,
			"0.025": 0.0
		}
	}
}
