{
	 "smiles": "CC(C)CCC[C@@H](C)C1CCC2[C@@H]3CC=C4C[C@H](CC[C@]4(C)C3CC[C@]12C)OC1=CC=C(C)C=C1", 
	 "Tm": 421.15, 
	 "num_atms": 87, 
	 "gaussian": { 
		 "optdone": 1, 
		 "sigma_profile": "yes", 
		 "theory": "DFT", 
		 "functional": "B3LYP", 
		 "basiset": "6-31G**", 
		 "properties": { 
			 "R2extent": 31526.9739, 
			 "electric_dipole_moment_norm": 0.993874901585, 
			 "electric_quadrupole_moment_norm": 8.55552267369, 
			 "total_energy": -1402.21313142, 
			 "HOMO_LUMO_gap": 0.20977, 
			 "cosmo_polarized_energy": -6.81, 
			 "cosmo_cavitation_energy": 74.4, 
			 "cosmo_dispersion_energy": -50.11, 
			 "cosmo_repulsion_energy": 3.7, 
			 "cosmo_total_nonelectrostatic_energy": 27.99, 
			 "SMD_solvation_energy": 10.67 
		},
		"coords": [
			{
				"x": 1.4231121558,
				"y": 4.4806150974,
				"z": 7.6306333185,
				"element": "C" 
			},
			{
				"x": 0.2771682327,
				"y": 4.030091111,
				"z": 6.7107404511,
				"element": "C" 
			},
			{
				"x": -0.6691356552,
				"y": 3.0634097924,
				"z": 7.4402820198,
				"element": "C" 
			},
			{
				"x": 0.7848311529,
				"y": 3.4669603809,
				"z": 5.3624858402,
				"element": "C" 
			},
			{
				"x": 1.6555342037,
				"y": 2.2028067663,
				"z": 5.44060738,
				"element": "C" 
			},
			{
				"x": 2.033124696,
				"y": 1.6084079372,
				"z": 4.068297838,
				"element": "C" 
			},
			{
				"x": 2.8730772551,
				"y": 2.5114850261,
				"z": 3.1354157133,
				"element": "C" 
			},
			{
				"x": 4.1773366489,
				"y": 2.9648469742,
				"z": 3.8197336282,
				"element": "C" 
			},
			{
				"x": 3.2089785957,
				"y": 1.8933151958,
				"z": 1.7427303239,
				"element": "C" 
			},
			{
				"x": 3.9238127792,
				"y": 0.5098101877,
				"z": 1.8167650262,
				"element": "C" 
			},
			{
				"x": 2.9459318009,
				"y": -0.5551213514,
				"z": 1.250044765,
				"element": "C" 
			},
			{
				"x": 1.6164550561,
				"y": 0.1818954821,
				"z": 0.9425470572,
				"element": "C" 
			},
			{
				"x": 0.7528171586,
				"y": -0.4168365828,
				"z": -0.1972534301,
				"element": "C" 
			},
			{
				"x": 0.3716661254,
				"y": -1.8836036971,
				"z": 0.1104036354,
				"element": "C" 
			},
			{
				"x": 0.1001413547,
				"y": -2.7328972903,
				"z": -1.099092954,
				"element": "C" 
			},
			{
				"x": 0.1949816234,
				"y": -2.3222644855,
				"z": -2.3684218023,
				"element": "C" 
			},
			{
				"x": 0.1567233119,
				"y": -3.338389675,
				"z": -3.4997567776,
				"element": "C" 
			},
			{
				"x": -0.3188643541,
				"y": -2.800266742,
				"z": -4.8531166923,
				"element": "C" 
			},
			{
				"x": 0.4168274777,
				"y": -1.4936371548,
				"z": -5.2360571797,
				"element": "C" 
			},
			{
				"x": 1.2154968318,
				"y": -0.8466784083,
				"z": -4.0854748046,
				"element": "C" 
			},
			{
				"x": 0.4776512863,
				"y": -0.8585113684,
				"z": -2.7222946288,
				"element": "C" 
			},
			{
				"x": -0.8621095144,
				"y": -0.0866670574,
				"z": -2.8590602689,
				"element": "C" 
			},
			{
				"x": 1.3835668222,
				"y": -0.2425339885,
				"z": -1.6003193807,
				"element": "C" 
			},
			{
				"x": 1.7379241535,
				"y": 1.2414789275,
				"z": -1.8203507545,
				"element": "C" 
			},
			{
				"x": 2.6358007383,
				"y": 1.7966954108,
				"z": -0.7061778184,
				"element": "C" 
			},
			{
				"x": 2.0377295401,
				"y": 1.6645890597,
				"z": 0.7227398806,
				"element": "C" 
			},
			{
				"x": 0.8714926646,
				"y": 2.6532048651,
				"z": 0.8799027203,
				"element": "C" 
			},
			{
				"x": -1.7290703866,
				"y": -2.5027202654,
				"z": -4.8449208388,
				"element": "O" 
			},
			{
				"x": -2.6506236827,
				"y": -3.5103300324,
				"z": -4.9321240525,
				"element": "C" 
			},
			{
				"x": -2.3614392415,
				"y": -4.8663530951,
				"z": -5.1183646502,
				"element": "C" 
			},
			{
				"x": -3.4082448231,
				"y": -5.7898329866,
				"z": -5.2226994755,
				"element": "C" 
			},
			{
				"x": -4.7472114659,
				"y": -5.404614357,
				"z": -5.1430645823,
				"element": "C" 
			},
			{
				"x": -5.8699461244,
				"y": -6.4100040702,
				"z": -5.2501189147,
				"element": "C" 
			},
			{
				"x": -5.0156065324,
				"y": -4.0383966062,
				"z": -4.9530911101,
				"element": "C" 
			},
			{
				"x": -3.9927566866,
				"y": -3.105787195,
				"z": -4.8480134571,
				"element": "C" 
			},
			{
				"x": 2.0935942406,
				"y": 5.1812451258,
				"z": 7.1199540614,
				"element": "H" 
			},
			{
				"x": 1.0335000163,
				"y": 4.9829728425,
				"z": 8.5228732203,
				"element": "H" 
			},
			{
				"x": 2.0252612526,
				"y": 3.6312336002,
				"z": 7.9719652684,
				"element": "H" 
			},
			{
				"x": -0.3086306333,
				"y": 4.9270063285,
				"z": 6.461588154,
				"element": "H" 
			},
			{
				"x": -1.1042984107,
				"y": 3.5385892635,
				"z": 8.3263465901,
				"element": "H" 
			},
			{
				"x": -1.4944628444,
				"y": 2.7473009466,
				"z": 6.7922894716,
				"element": "H" 
			},
			{
				"x": -0.1467485273,
				"y": 2.1618195128,
				"z": 7.7789379738,
				"element": "H" 
			},
			{
				"x": -0.0870145661,
				"y": 3.254255974,
				"z": 4.7267956849,
				"element": "H" 
			},
			{
				"x": 1.3429796574,
				"y": 4.262740876,
				"z": 4.8519334431,
				"element": "H" 
			},
			{
				"x": 2.5630472066,
				"y": 2.4082516228,
				"z": 6.0199543978,
				"element": "H" 
			},
			{
				"x": 1.1170409269,
				"y": 1.4256958121,
				"z": 5.9972828347,
				"element": "H" 
			},
			{
				"x": 2.5757940674,
				"y": 0.6702624814,
				"z": 4.2443797135,
				"element": "H" 
			},
			{
				"x": 1.1038643127,
				"y": 1.3271196219,
				"z": 3.5599335322,
				"element": "H" 
			},
			{
				"x": 2.2914615192,
				"y": 3.4207905953,
				"z": 2.9377285308,
				"element": "H" 
			},
			{
				"x": 3.9800502591,
				"y": 3.5403794496,
				"z": 4.7288637502,
				"element": "H" 
			},
			{
				"x": 4.7680439116,
				"y": 3.6013828672,
				"z": 3.1519740985,
				"element": "H" 
			},
			{
				"x": 4.8046774965,
				"y": 2.1112494168,
				"z": 4.1024866936,
				"element": "H" 
			},
			{
				"x": 3.8897842675,
				"y": 2.6229558812,
				"z": 1.2839931466,
				"element": "H" 
			},
			{
				"x": 4.8520893046,
				"y": 0.5241196892,
				"z": 1.2371936714,
				"element": "H" 
			},
			{
				"x": 4.219572539,
				"y": 0.2691338815,
				"z": 2.8418354227,
				"element": "H" 
			},
			{
				"x": 3.3593583425,
				"y": -1.0085770456,
				"z": 0.3430012807,
				"element": "H" 
			},
			{
				"x": 2.7934704014,
				"y": -1.3747152648,
				"z": 1.9588865326,
				"element": "H" 
			},
			{
				"x": 0.9983912904,
				"y": 0.1398873749,
				"z": 1.8489994201,
				"element": "H" 
			},
			{
				"x": -0.1790739486,
				"y": 0.162978897,
				"z": -0.2052887744,
				"element": "H" 
			},
			{
				"x": -0.48817103,
				"y": -1.9025496656,
				"z": 0.7961267131,
				"element": "H" 
			},
			{
				"x": 1.1828693415,
				"y": -2.3734880938,
				"z": 0.6675695184,
				"element": "H" 
			},
			{
				"x": -0.1065638416,
				"y": -3.7857682321,
				"z": -0.9014108941,
				"element": "H" 
			},
			{
				"x": 1.1800021673,
				"y": -3.7105746432,
				"z": -3.6662428844,
				"element": "H" 
			},
			{
				"x": -0.4357737603,
				"y": -4.2095938843,
				"z": -3.2044287182,
				"element": "H" 
			},
			{
				"x": -0.1394458044,
				"y": -3.5558918232,
				"z": -5.6272862454,
				"element": "H" 
			},
			{
				"x": -0.336411887,
				"y": -0.7999697165,
				"z": -5.6198564107,
				"element": "H" 
			},
			{
				"x": 1.1003044472,
				"y": -1.6941337695,
				"z": -6.06843495,
				"element": "H" 
			},
			{
				"x": 2.1740482551,
				"y": -1.3697387168,
				"z": -3.9650222679,
				"element": "H" 
			},
			{
				"x": 1.4628485591,
				"y": 0.1792511132,
				"z": -4.376151829,
				"element": "H" 
			},
			{
				"x": -1.5415984843,
				"y": -0.6003745021,
				"z": -3.5397447776,
				"element": "H" 
			},
			{
				"x": -1.3744276804,
				"y": -0.0054217952,
				"z": -1.8971114913,
				"element": "H" 
			},
			{
				"x": -0.6975877155,
				"y": 0.9259478471,
				"z": -3.2443241511,
				"element": "H" 
			},
			{
				"x": 2.3231597955,
				"y": -0.8155138573,
				"z": -1.6284604876,
				"element": "H" 
			},
			{
				"x": 0.8185615792,
				"y": 1.8352533111,
				"z": -1.8824680869,
				"element": "H" 
			},
			{
				"x": 2.2500101379,
				"y": 1.3752396063,
				"z": -2.7798329257,
				"element": "H" 
			},
			{
				"x": 3.6004339743,
				"y": 1.2742783042,
				"z": -0.7449680284,
				"element": "H" 
			},
			{
				"x": 2.858829362,
				"y": 2.8539356812,
				"z": -0.9019689875,
				"element": "H" 
			},
			{
				"x": 1.2185583237,
				"y": 3.6887181305,
				"z": 0.7834990785,
				"element": "H" 
			},
			{
				"x": 0.1060686735,
				"y": 2.498634718,
				"z": 0.1137090572,
				"element": "H" 
			},
			{
				"x": 0.3770926178,
				"y": 2.5567705411,
				"z": 1.8505679047,
				"element": "H" 
			},
			{
				"x": -1.339992829,
				"y": -5.2210491114,
				"z": -5.1834249223,
				"element": "H" 
			},
			{
				"x": -3.163125809,
				"y": -6.8394200372,
				"z": -5.3676154044,
				"element": "H" 
			},
			{
				"x": -6.5538708347,
				"y": -6.164808264,
				"z": -6.0712882016,
				"element": "H" 
			},
			{
				"x": -6.4705697574,
				"y": -6.4436287504,
				"z": -4.3331008377,
				"element": "H" 
			},
			{
				"x": -5.4853735978,
				"y": -7.4181251483,
				"z": -5.4296690942,
				"element": "H" 
			},
			{
				"x": -6.0471588655,
				"y": -3.6997176171,
				"z": -4.8865867091,
				"element": "H" 
			},
			{
				"x": -4.2063406178,
				"y": -2.05130718,
				"z": -4.7048381103,
				"element": "H" 
			}
		],
		 "valence_orbital": [ 
			{
				"type": "occ",
				"energy": -0.26778,
				"method": "rhf"
			},
			{
				"type": "occ",
				"energy": -0.26419,
				"method": "rhf"
			},
			{
				"type": "occ",
				"energy": -0.24281,
				"method": "rhf"
			},
			{
				"type": "occ",
				"energy": -0.22066,
				"method": "rhf"
			},
			{
				"type": "occ",
				"energy": -0.20502,
				"method": "rhf"
			},
			{
				"type": "unocc",
				"energy": 0.00475,
				"method": "rhf"
			},
			{
				"type": "unocc",
				"energy": 0.02035,
				"method": "rhf"
			},
			{
				"type": "unocc",
				"energy": 0.03273,
				"method": "rhf"
			},
			{
				"type": "unocc",
				"energy": 0.07151,
				"method": "rhf"
			},
			{
				"type": "unocc",
				"energy": 0.07783,
				"method": "rhf"
			}
		],
		"cosmo_sigma_profile": { 
			"-0.025": 0.0,
			"-0.024": 0.0,
			"-0.023": 0.0,
			"-0.022": 0.0,
			"-0.021": 0.0,
			"-0.02": 0.0,
			"-0.019": 0.0,
			"-0.018": 0.0,
			"-0.017": 0.0,
			"-0.016": 0.0,
			"-0.015": 0.0,
			"-0.014": 0.0,
			"-0.013": 0.0,
			"-0.012": 0.0,
			"-0.011": 0.0,
			"-0.01": 0.0,
			"-0.009": 0.0,
			"-0.008": 0.0,
			"-0.007": 0.432034700726,
			"-0.006": 2.51588014579,
			"-0.005": 8.90834686373,
			"-0.004": 18.3908876191,
			"-0.003": 33.4210656079,
			"-0.002": 81.0648238175,
			"-0.001": 109.270546436,
			"0.0": 112.373101654,
			"0.001": 85.2809303528,
			"0.002": 55.4344277266,
			"0.003": 17.9825764886,
			"0.004": 12.9442868124,
			"0.005": 12.7662338328,
			"0.006": 13.8573098301,
			"0.007": 6.02199603617,
			"0.008": 1.32727539001,
			"0.009": 0.441843838436,
			"0.01": 0.0,
			"0.011": 0.0,
			"0.012": 0.0,
			"0.013": 0.0,
			"0.014": 0.0,
			"0.015": 0.0,
			"0.016": 0.0,
			"0.017": 0.0,
			"0.018": 0.0,
			"0.019": 0.0,
			"0.02": 0.0,
			"0.021": 0.0,
			"0.022": 0.0,
			"0.023": 0.0,
			"0.024": 0.0,
			"0.025": 0.0
		}
	}
}
