{
	 "smiles": "CC1(C)CC(O)CC(C)(CN)C1", 
	 "Tm": 318.65, 
	 "num_atms": 33, 
	 "gaussian": { 
		 "optdone": 1, 
		 "sigma_profile": "yes", 
		 "theory": "DFT", 
		 "functional": "B3LYP", 
		 "basiset": "6-31G**", 
		 "properties": { 
			 "R2extent": 2682.3636, 
			 "electric_dipole_moment_norm": 1.66683267607, 
			 "electric_quadrupole_moment_norm": 10.0713579263, 
			 "total_energy": -523.700917123, 
			 "HOMO_LUMO_gap": 0.29957, 
			 "cosmo_polarized_energy": -8.18, 
			 "cosmo_cavitation_energy": 30.24, 
			 "cosmo_dispersion_energy": -21.71, 
			 "cosmo_repulsion_energy": 1.71, 
			 "cosmo_total_nonelectrostatic_energy": 10.24, 
			 "SMD_solvation_energy": 4.62 
		},
		"coords": [
			{
				"x": -2.1374836782,
				"y": 1.9586304936,
				"z": -0.0719834284,
				"element": "C" 
			},
			{
				"x": -0.9443847271,
				"y": 1.3762851612,
				"z": -0.8582475194,
				"element": "C" 
			},
			{
				"x": -0.2669474099,
				"y": 2.5373051273,
				"z": -1.6141507764,
				"element": "C" 
			},
			{
				"x": -1.4760243432,
				"y": 0.3022119969,
				"z": -1.8366529538,
				"element": "C" 
			},
			{
				"x": -0.3791745485,
				"y": -0.5424638432,
				"z": -2.4901779181,
				"element": "C" 
			},
			{
				"x": -0.939820987,
				"y": -1.5825559715,
				"z": -3.3011676978,
				"element": "O" 
			},
			{
				"x": 0.462708809,
				"y": -1.2524418591,
				"z": -1.4277082224,
				"element": "C" 
			},
			{
				"x": 1.0788538694,
				"y": -0.3290983736,
				"z": -0.3466240895,
				"element": "C" 
			},
			{
				"x": 1.4652109598,
				"y": -1.2041611211,
				"z": 0.8703470755,
				"element": "C" 
			},
			{
				"x": 2.4187211272,
				"y": 0.3181600924,
				"z": -0.8154035503,
				"element": "C" 
			},
			{
				"x": 2.4497688699,
				"y": 0.8279822739,
				"z": -2.1941218058,
				"element": "N" 
			},
			{
				"x": 0.0112878292,
				"y": 0.6924908234,
				"z": 0.1575718145,
				"element": "C" 
			},
			{
				"x": -2.8440831219,
				"y": 2.4559398589,
				"z": -0.746543468,
				"element": "H" 
			},
			{
				"x": -1.8002752901,
				"y": 2.7019398509,
				"z": 0.6600110325,
				"element": "H" 
			},
			{
				"x": -2.6839693989,
				"y": 1.1778122015,
				"z": 0.4693421617,
				"element": "H" 
			},
			{
				"x": 0.0446220131,
				"y": 3.3164595305,
				"z": -0.9071832153,
				"element": "H" 
			},
			{
				"x": 0.6181128022,
				"y": 2.2097798336,
				"z": -2.1634108377,
				"element": "H" 
			},
			{
				"x": -0.9728776689,
				"y": 2.9982194518,
				"z": -2.3161650458,
				"element": "H" 
			},
			{
				"x": -2.0846727712,
				"y": 0.7856650648,
				"z": -2.6151922113,
				"element": "H" 
			},
			{
				"x": -2.1431570829,
				"y": -0.3869123014,
				"z": -1.2999174863,
				"element": "H" 
			},
			{
				"x": 0.260892923,
				"y": 0.1038923751,
				"z": -3.1031474769,
				"element": "H" 
			},
			{
				"x": -1.4932102607,
				"y": -1.1604558036,
				"z": -3.9711652847,
				"element": "H" 
			},
			{
				"x": 1.2449524435,
				"y": -1.8482121039,
				"z": -1.9169653417,
				"element": "H" 
			},
			{
				"x": -0.2027548797,
				"y": -1.9770696164,
				"z": -0.9394951066,
				"element": "H" 
			},
			{
				"x": 2.1625871661,
				"y": -1.9987064104,
				"z": 0.5819052012,
				"element": "H" 
			},
			{
				"x": 0.5822187797,
				"y": -1.6779007064,
				"z": 1.3105402556,
				"element": "H" 
			},
			{
				"x": 1.9473742797,
				"y": -0.6052793241,
				"z": 1.6525509213,
				"element": "H" 
			},
			{
				"x": 2.6392726741,
				"y": 1.1592495775,
				"z": -0.14734809,
				"element": "H" 
			},
			{
				"x": 3.2155568716,
				"y": -0.4254072073,
				"z": -0.6450839196,
				"element": "H" 
			},
			{
				"x": 3.2781795632,
				"y": 1.4038098255,
				"z": -2.3209051623,
				"element": "H" 
			},
			{
				"x": 2.5446414196,
				"y": 0.0535367853,
				"z": -2.8463144187,
				"element": "H" 
			},
			{
				"x": -0.6316209564,
				"y": 0.1410017803,
				"z": 0.8570308241,
				"element": "H" 
			},
			{
				"x": 0.5101947241,
				"y": 1.4634925378,
				"z": 0.7607757403,
				"element": "H" 
			}
		],
		 "valence_orbital": [ 
			{
				"type": "occ",
				"energy": -0.29997,
				"method": "rhf"
			},
			{
				"type": "occ",
				"energy": -0.29589,
				"method": "rhf"
			},
			{
				"type": "occ",
				"energy": -0.28418,
				"method": "rhf"
			},
			{
				"type": "occ",
				"energy": -0.25068,
				"method": "rhf"
			},
			{
				"type": "occ",
				"energy": -0.23263,
				"method": "rhf"
			},
			{
				"type": "unocc",
				"energy": 0.06694,
				"method": "rhf"
			},
			{
				"type": "unocc",
				"energy": 0.08743,
				"method": "rhf"
			},
			{
				"type": "unocc",
				"energy": 0.09021,
				"method": "rhf"
			},
			{
				"type": "unocc",
				"energy": 0.10837,
				"method": "rhf"
			},
			{
				"type": "unocc",
				"energy": 0.11928,
				"method": "rhf"
			}
		],
		"cosmo_sigma_profile": { 
			"-0.025": 0.0,
			"-0.024": 0.0,
			"-0.023": 0.0,
			"-0.022": 0.0,
			"-0.021": 0.0,
			"-0.02": 0.0,
			"-0.019": 0.0,
			"-0.018": 0.0,
			"-0.017": 0.0,
			"-0.016": 0.0,
			"-0.015": 0.236547262674,
			"-0.014": 1.03395522738,
			"-0.013": 0.818811350167,
			"-0.012": 0.819911093471,
			"-0.011": 0.803903780986,
			"-0.01": 1.33040881226,
			"-0.009": 2.49419409557,
			"-0.008": 3.73827668339,
			"-0.007": 3.71701304086,
			"-0.006": 4.62218145239,
			"-0.005": 4.82352386413,
			"-0.004": 3.80665258517,
			"-0.003": 8.46148577253,
			"-0.002": 30.4852983014,
			"-0.001": 45.8192770623,
			"0.0": 29.6180135698,
			"0.001": 26.2742300119,
			"0.002": 23.2963335397,
			"0.003": 9.2128625727,
			"0.004": 4.40005451456,
			"0.005": 2.84586322587,
			"0.006": 3.6727853582,
			"0.007": 2.71930079724,
			"0.008": 2.28404804859,
			"0.009": 1.91603449341,
			"0.01": 1.95355006585,
			"0.011": 1.88059491166,
			"0.012": 1.25570265436,
			"0.013": 1.0042973257,
			"0.014": 2.23512873603,
			"0.015": 1.81979409887,
			"0.016": 0.197126982841,
			"0.017": 0.0,
			"0.018": 0.0,
			"0.019": 0.0,
			"0.02": 0.0,
			"0.021": 0.0,
			"0.022": 0.0,
			"0.023": 0.0,
			"0.024": 0.0,
			"0.025": 0.0
		}
	}
}
