{
	 "smiles": "COCCN(C(C)=O)C1=NC(CCl)=CS1", 
	 "Tm": 372.15, 
	 "num_atms": 28, 
	 "gaussian": { 
		 "optdone": 1, 
		 "sigma_profile": "yes", 
		 "theory": "DFT", 
		 "functional": "B3LYP", 
		 "basiset": "6-31G**", 
		 "properties": { 
			 "R2extent": 5824.9259, 
			 "electric_dipole_moment_norm": 3.65290905581, 
			 "electric_quadrupole_moment_norm": 11.8777170656, 
			 "total_energy": -1469.11093049, 
			 "HOMO_LUMO_gap": 0.18785, 
			 "cosmo_polarized_energy": -13.12, 
			 "cosmo_cavitation_energy": 33.99, 
			 "cosmo_dispersion_energy": -24.54, 
			 "cosmo_repulsion_energy": 1.9, 
			 "cosmo_total_nonelectrostatic_energy": 11.36, 
			 "SMD_solvation_energy": 5.92 
		},
		"coords": [
			{
				"x": 3.2156862179,
				"y": 1.3842998155,
				"z": 2.2445850162,
				"element": "C" 
			},
			{
				"x": 2.370453716,
				"y": 0.2525395961,
				"z": 2.3945560809,
				"element": "O" 
			},
			{
				"x": 2.3213178825,
				"y": -0.5977229488,
				"z": 1.273034926,
				"element": "C" 
			},
			{
				"x": 1.4450695585,
				"y": -0.0787057665,
				"z": 0.1183438967,
				"element": "C" 
			},
			{
				"x": 0.0457479833,
				"y": 0.1632182136,
				"z": 0.5114850703,
				"element": "N" 
			},
			{
				"x": -0.267445773,
				"y": 1.4871752161,
				"z": 0.9236797095,
				"element": "C" 
			},
			{
				"x": -1.5882232722,
				"y": 1.7676886979,
				"z": 1.5985309844,
				"element": "C" 
			},
			{
				"x": 0.553042189,
				"y": 2.3714075363,
				"z": 0.7399555081,
				"element": "O" 
			},
			{
				"x": -0.87263853,
				"y": -0.8738302718,
				"z": 0.4339989761,
				"element": "C" 
			},
			{
				"x": -2.1669356469,
				"y": -0.7504252129,
				"z": 0.4862501768,
				"element": "N" 
			},
			{
				"x": -2.8009192417,
				"y": -1.9689802905,
				"z": 0.368959356,
				"element": "C" 
			},
			{
				"x": -4.2898204917,
				"y": -2.0190286833,
				"z": 0.4067496284,
				"element": "C" 
			},
			{
				"x": -4.9501991659,
				"y": -1.8430476187,
				"z": 2.1078171246,
				"element": "Cl" 
			},
			{
				"x": -1.9866977727,
				"y": -3.0506166578,
				"z": 0.2004429486,
				"element": "C" 
			},
			{
				"x": -0.323045552,
				"y": -2.5558397417,
				"z": 0.2083441927,
				"element": "S" 
			},
			{
				"x": 3.2673573163,
				"y": 1.8657844008,
				"z": 3.2239732084,
				"element": "H" 
			},
			{
				"x": 4.2317734349,
				"y": 1.0844023273,
				"z": 1.9443416447,
				"element": "H" 
			},
			{
				"x": 2.8150392136,
				"y": 2.103526114,
				"z": 1.5211373719,
				"element": "H" 
			},
			{
				"x": 3.3305603584,
				"y": -0.7859499837,
				"z": 0.8677574373,
				"element": "H" 
			},
			{
				"x": 1.9319456438,
				"y": -1.5522827602,
				"z": 1.6414852205,
				"element": "H" 
			},
			{
				"x": 1.825261351,
				"y": 0.8712859443,
				"z": -0.2554207819,
				"element": "H" 
			},
			{
				"x": 1.4638300147,
				"y": -0.7974788374,
				"z": -0.7074112449,
				"element": "H" 
			},
			{
				"x": -2.4062367306,
				"y": 1.7472283363,
				"z": 0.8759210301,
				"element": "H" 
			},
			{
				"x": -1.5064448053,
				"y": 2.7604943301,
				"z": 2.0417468268,
				"element": "H" 
			},
			{
				"x": -1.8275440364,
				"y": 1.0228079832,
				"z": 2.3598892752,
				"element": "H" 
			},
			{
				"x": -4.6689492912,
				"y": -2.9692219989,
				"z": 0.0328095612,
				"element": "H" 
			},
			{
				"x": -4.7235306493,
				"y": -1.1945817127,
				"z": -0.158897542,
				"element": "H" 
			},
			{
				"x": -2.2584539207,
				"y": -4.0884460268,
				"z": 0.0722343976,
				"element": "H" 
			}
		],
		 "valence_orbital": [ 
			{
				"type": "occ",
				"energy": -0.28873,
				"method": "rhf"
			},
			{
				"type": "occ",
				"energy": -0.2864,
				"method": "rhf"
			},
			{
				"type": "occ",
				"energy": -0.26755,
				"method": "rhf"
			},
			{
				"type": "occ",
				"energy": -0.25824,
				"method": "rhf"
			},
			{
				"type": "occ",
				"energy": -0.22834,
				"method": "rhf"
			},
			{
				"type": "unocc",
				"energy": -0.04049,
				"method": "rhf"
			},
			{
				"type": "unocc",
				"energy": -0.01235,
				"method": "rhf"
			},
			{
				"type": "unocc",
				"energy": 0.00232,
				"method": "rhf"
			},
			{
				"type": "unocc",
				"energy": 0.02916,
				"method": "rhf"
			},
			{
				"type": "unocc",
				"energy": 0.06029,
				"method": "rhf"
			}
		],
		"cosmo_sigma_profile": { 
			"-0.025": 0.0,
			"-0.024": 0.0,
			"-0.023": 0.0,
			"-0.022": 0.0,
			"-0.021": 0.0,
			"-0.02": 0.0,
			"-0.019": 0.0,
			"-0.018": 0.0,
			"-0.017": 0.0,
			"-0.016": 0.0,
			"-0.015": 0.0,
			"-0.014": 0.0,
			"-0.013": 0.0,
			"-0.012": 0.0,
			"-0.011": 0.0,
			"-0.01": 1.01336758381,
			"-0.009": 3.28611036867,
			"-0.008": 5.37804577066,
			"-0.007": 7.25228598372,
			"-0.006": 8.92379654529,
			"-0.005": 19.98604082,
			"-0.004": 27.2258652479,
			"-0.003": 23.118352894,
			"-0.002": 25.2149134896,
			"-0.001": 23.6960234022,
			"0.0": 18.4643917384,
			"0.001": 16.6071990303,
			"0.002": 14.9261189891,
			"0.003": 12.4757968375,
			"0.004": 10.5257779116,
			"0.005": 9.57569560983,
			"0.006": 17.1864392694,
			"0.007": 10.3912580758,
			"0.008": 3.28309984432,
			"0.009": 2.47340795821,
			"0.01": 3.13889654733,
			"0.011": 3.02904092075,
			"0.012": 3.24184988538,
			"0.013": 2.63739291816,
			"0.014": 0.264544122017,
			"0.015": 0.0,
			"0.016": 0.0,
			"0.017": 0.0,
			"0.018": 0.0,
			"0.019": 0.0,
			"0.02": 0.0,
			"0.021": 0.0,
			"0.022": 0.0,
			"0.023": 0.0,
			"0.024": 0.0,
			"0.025": 0.0
		}
	}
}
