{
	 "smiles": "NCC1=CN2C=CN=C2C=C1", 
	 "Tm": 371.15, 
	 "num_atms": 20, 
	 "gaussian": { 
		 "optdone": 1, 
		 "sigma_profile": "yes", 
		 "theory": "DFT", 
		 "functional": "B3LYP", 
		 "basiset": "6-31G**", 
		 "properties": { 
			 "R2extent": 2352.6267, 
			 "electric_dipole_moment_norm": 2.13009879114, 
			 "electric_quadrupole_moment_norm": 17.1563968641, 
			 "total_energy": -474.514381686, 
			 "HOMO_LUMO_gap": 0.17734, 
			 "cosmo_polarized_energy": -13.72, 
			 "cosmo_cavitation_energy": 23.73, 
			 "cosmo_dispersion_energy": -17.59, 
			 "cosmo_repulsion_energy": 1.4, 
			 "cosmo_total_nonelectrostatic_energy": 7.54, 
			 "SMD_solvation_energy": 1.47 
		},
		"coords": [
			{
				"x": 0.9431356376,
				"y": 2.1829186389,
				"z": 1.373969853,
				"element": "N" 
			},
			{
				"x": -0.3992996968,
				"y": 2.142786034,
				"z": 0.778714908,
				"element": "C" 
			},
			{
				"x": -0.6002714209,
				"y": 1.1351032027,
				"z": -0.3394401311,
				"element": "C" 
			},
			{
				"x": -1.3670656247,
				"y": 0.0184433521,
				"z": -0.1400753169,
				"element": "C" 
			},
			{
				"x": -1.5143139588,
				"y": -0.9095000241,
				"z": -1.1451836669,
				"element": "N" 
			},
			{
				"x": -2.2170528485,
				"y": -2.0946333835,
				"z": -1.1992193036,
				"element": "C" 
			},
			{
				"x": -1.9921194811,
				"y": -2.5928032437,
				"z": -2.4678079517,
				"element": "C" 
			},
			{
				"x": -1.1861987733,
				"y": -1.778778335,
				"z": -3.2064075618,
				"element": "N" 
			},
			{
				"x": -0.8973457814,
				"y": -0.7579585466,
				"z": -2.4023421511,
				"element": "C" 
			},
			{
				"x": -0.1078253922,
				"y": 0.3968800187,
				"z": -2.6160281062,
				"element": "C" 
			},
			{
				"x": 0.0362093483,
				"y": 1.317229587,
				"z": -1.6090599986,
				"element": "C" 
			},
			{
				"x": 1.2070136683,
				"y": 1.247495827,
				"z": 1.6767565557,
				"element": "H" 
			},
			{
				"x": 1.6266793985,
				"y": 2.4503647876,
				"z": 0.6691416254,
				"element": "H" 
			},
			{
				"x": -0.6237734906,
				"y": 3.1501379103,
				"z": 0.4080207265,
				"element": "H" 
			},
			{
				"x": -1.1186972208,
				"y": 1.942413173,
				"z": 1.5809606662,
				"element": "H" 
			},
			{
				"x": -1.887534076,
				"y": -0.1908157703,
				"z": 0.788143699,
				"element": "H" 
			},
			{
				"x": -2.7901586866,
				"y": -2.4595990306,
				"z": -0.3613274627,
				"element": "H" 
			},
			{
				"x": -2.3846525367,
				"y": -3.5144169529,
				"z": -2.8777414972,
				"element": "H" 
			},
			{
				"x": 0.3592639868,
				"y": 0.5192793514,
				"z": -3.5865674976,
				"element": "H" 
			},
			{
				"x": 0.636506949,
				"y": 2.2083534041,
				"z": -1.7727073883,
				"element": "H" 
			}
		],
		 "valence_orbital": [ 
			{
				"type": "occ",
				"energy": -0.31966,
				"method": "rhf"
			},
			{
				"type": "occ",
				"energy": -0.26655,
				"method": "rhf"
			},
			{
				"type": "occ",
				"energy": -0.25434,
				"method": "rhf"
			},
			{
				"type": "occ",
				"energy": -0.23339,
				"method": "rhf"
			},
			{
				"type": "occ",
				"energy": -0.21001,
				"method": "rhf"
			},
			{
				"type": "unocc",
				"energy": -0.03267,
				"method": "rhf"
			},
			{
				"type": "unocc",
				"energy": 0.00193,
				"method": "rhf"
			},
			{
				"type": "unocc",
				"energy": 0.06884,
				"method": "rhf"
			},
			{
				"type": "unocc",
				"energy": 0.07845,
				"method": "rhf"
			},
			{
				"type": "unocc",
				"energy": 0.10061,
				"method": "rhf"
			}
		],
		"cosmo_sigma_profile": { 
			"-0.025": 0.0,
			"-0.024": 0.0,
			"-0.023": 0.0,
			"-0.022": 0.0,
			"-0.021": 0.0,
			"-0.02": 0.0,
			"-0.019": 0.0,
			"-0.018": 0.0,
			"-0.017": 0.0,
			"-0.016": 0.0,
			"-0.015": 0.0,
			"-0.014": 0.0,
			"-0.013": 0.0,
			"-0.012": 0.0,
			"-0.011": 0.0,
			"-0.01": 1.02455819624,
			"-0.009": 6.00373937208,
			"-0.008": 8.51624627366,
			"-0.007": 9.85172318212,
			"-0.006": 12.826894677,
			"-0.005": 12.5242898363,
			"-0.004": 13.514167953,
			"-0.003": 11.6230001179,
			"-0.002": 10.3361783648,
			"-0.001": 9.78770214468,
			"0.0": 12.0777520004,
			"0.001": 12.7545197927,
			"0.002": 13.6057283718,
			"0.003": 11.5312217093,
			"0.004": 9.84789057366,
			"0.005": 5.52245100945,
			"0.006": 3.82334467589,
			"0.007": 2.40799195653,
			"0.008": 1.70004577853,
			"0.009": 2.47819943603,
			"0.01": 2.72768129731,
			"0.011": 1.84228527427,
			"0.012": 1.45009719217,
			"0.013": 2.09018257521,
			"0.014": 1.38655556941,
			"0.015": 1.57320285855,
			"0.016": 2.14420461315,
			"0.017": 1.57699108122,
			"0.018": 1.44703302475,
			"0.019": 0.843151349928,
			"0.02": 0.113215656975,
			"0.021": 0.0,
			"0.022": 0.0,
			"0.023": 0.0,
			"0.024": 0.0,
			"0.025": 0.0
		}
	}
}
