{
	 "smiles": "CN1C2=C(N(CCCC(O)=O)C=N2)C(=O)N(C)C1=O", 
	 "Tm": 441.15, 
	 "num_atms": 33, 
	 "gaussian": { 
		 "optdone": 1, 
		 "sigma_profile": "yes", 
		 "theory": "DFT", 
		 "functional": "B3LYP", 
		 "basiset": "6-31G**", 
		 "properties": { 
			 "R2extent": 5200.5431, 
			 "electric_dipole_moment_norm": 2.95994353493, 
			 "electric_quadrupole_moment_norm": 12.8802051564, 
			 "total_energy": -947.579471202, 
			 "HOMO_LUMO_gap": 0.18569, 
			 "cosmo_polarized_energy": -20.24, 
			 "cosmo_cavitation_energy": 35.98, 
			 "cosmo_dispersion_energy": -25.43, 
			 "cosmo_repulsion_energy": 1.93, 
			 "cosmo_total_nonelectrostatic_energy": 12.48, 
			 "SMD_solvation_energy": 6.7 
		},
		"coords": [
			{
				"x": -2.9711778394,
				"y": 2.7046238653,
				"z": 1.4498011199,
				"element": "C" 
			},
			{
				"x": -1.8103022059,
				"y": 2.0011857631,
				"z": 0.9064244242,
				"element": "N" 
			},
			{
				"x": -1.2905576247,
				"y": 0.9068986733,
				"z": 1.5565234506,
				"element": "C" 
			},
			{
				"x": -0.1958491518,
				"y": 0.217265567,
				"z": 1.0687440921,
				"element": "C" 
			},
			{
				"x": 0.0372452213,
				"y": -0.7926958423,
				"z": 1.9945743027,
				"element": "N" 
			},
			{
				"x": 1.0868508135,
				"y": -1.8217875055,
				"z": 1.9675048026,
				"element": "C" 
			},
			{
				"x": 0.6274948362,
				"y": -3.152815474,
				"z": 1.3522875488,
				"element": "C" 
			},
			{
				"x": 0.4351692723,
				"y": -3.1208291632,
				"z": -0.1659660255,
				"element": "C" 
			},
			{
				"x": 1.7509489311,
				"y": -3.0136604289,
				"z": -0.9110554519,
				"element": "C" 
			},
			{
				"x": 1.5598150501,
				"y": -2.8263877342,
				"z": -2.2337620945,
				"element": "O" 
			},
			{
				"x": 2.8509721339,
				"y": -3.119112649,
				"z": -0.4117626956,
				"element": "O" 
			},
			{
				"x": -0.9192496764,
				"y": -0.639345923,
				"z": 2.9460816132,
				"element": "C" 
			},
			{
				"x": -1.7470386765,
				"y": 0.3779440182,
				"z": 2.7218892116,
				"element": "N" 
			},
			{
				"x": 0.489734207,
				"y": 0.5856172377,
				"z": -0.134819605,
				"element": "C" 
			},
			{
				"x": 1.4655389229,
				"y": 0.0173257289,
				"z": -0.6245982633,
				"element": "O" 
			},
			{
				"x": -0.1017142032,
				"y": 1.722904652,
				"z": -0.7365268241,
				"element": "N" 
			},
			{
				"x": 0.4885572518,
				"y": 2.2258157616,
				"z": -1.9820440192,
				"element": "C" 
			},
			{
				"x": -1.2190604423,
				"y": 2.4470088681,
				"z": -0.2749306691,
				"element": "C" 
			},
			{
				"x": -1.6364022867,
				"y": 3.4159364553,
				"z": -0.8935080849,
				"element": "O" 
			},
			{
				"x": -3.8327356627,
				"y": 2.0329183787,
				"z": 1.4907302475,
				"element": "H" 
			},
			{
				"x": -2.7542428632,
				"y": 3.0562447232,
				"z": 2.4615086665,
				"element": "H" 
			},
			{
				"x": -3.1797580236,
				"y": 3.5453815847,
				"z": 0.7918571377,
				"element": "H" 
			},
			{
				"x": 1.4003869405,
				"y": -1.9825778041,
				"z": 3.0030341279,
				"element": "H" 
			},
			{
				"x": 1.932839299,
				"y": -1.4171481455,
				"z": 1.4118603136,
				"element": "H" 
			},
			{
				"x": 1.3913747122,
				"y": -3.8992710967,
				"z": 1.5920988524,
				"element": "H" 
			},
			{
				"x": -0.3037246978,
				"y": -3.4707358684,
				"z": 1.8347388916,
				"element": "H" 
			},
			{
				"x": -0.2110664129,
				"y": -2.2984912065,
				"z": -0.486716591,
				"element": "H" 
			},
			{
				"x": -0.057327286,
				"y": -4.0404986775,
				"z": -0.505853298,
				"element": "H" 
			},
			{
				"x": 2.4450334636,
				"y": -2.7433364147,
				"z": -2.6260201553,
				"element": "H" 
			},
			{
				"x": -0.9732353534,
				"y": -1.2943638162,
				"z": 3.8055461857,
				"element": "H" 
			},
			{
				"x": 0.8251734826,
				"y": 3.2557146795,
				"z": -1.8463351128,
				"element": "H" 
			},
			{
				"x": -0.2565035249,
				"y": 2.2111943866,
				"z": -2.7801088274,
				"element": "H" 
			},
			{
				"x": 1.3270113931,
				"y": 1.5781774068,
				"z": -2.2275972708,
				"element": "H" 
			}
		],
		 "valence_orbital": [ 
			{
				"type": "occ",
				"energy": -0.28259,
				"method": "rhf"
			},
			{
				"type": "occ",
				"energy": -0.27365,
				"method": "rhf"
			},
			{
				"type": "occ",
				"energy": -0.26828,
				"method": "rhf"
			},
			{
				"type": "occ",
				"energy": -0.26136,
				"method": "rhf"
			},
			{
				"type": "occ",
				"energy": -0.22094,
				"method": "rhf"
			},
			{
				"type": "unocc",
				"energy": -0.03525,
				"method": "rhf"
			},
			{
				"type": "unocc",
				"energy": 0.01353,
				"method": "rhf"
			},
			{
				"type": "unocc",
				"energy": 0.02207,
				"method": "rhf"
			},
			{
				"type": "unocc",
				"energy": 0.03231,
				"method": "rhf"
			},
			{
				"type": "unocc",
				"energy": 0.08217,
				"method": "rhf"
			}
		],
		"cosmo_sigma_profile": { 
			"-0.025": 0.0,
			"-0.024": 0.0,
			"-0.023": 0.0,
			"-0.022": 0.0,
			"-0.021": 0.0,
			"-0.02": 0.0,
			"-0.019": 0.0,
			"-0.018": 0.465762687484,
			"-0.017": 0.945889477436,
			"-0.016": 0.939853500177,
			"-0.015": 0.583746223955,
			"-0.014": 0.816904665408,
			"-0.013": 0.725317372925,
			"-0.012": 0.598334609127,
			"-0.011": 0.880168528925,
			"-0.01": 3.17162599133,
			"-0.009": 3.66477636157,
			"-0.008": 2.71661456133,
			"-0.007": 5.8576405208,
			"-0.006": 11.286641426,
			"-0.005": 21.605359678,
			"-0.004": 28.9869286177,
			"-0.003": 35.480970737,
			"-0.002": 33.3931138115,
			"-0.001": 20.8084154957,
			"0.0": 11.9663744925,
			"0.001": 8.46371947203,
			"0.002": 8.68447170094,
			"0.003": 7.67697586847,
			"0.004": 6.621267611,
			"0.005": 7.13095492324,
			"0.006": 7.74471358286,
			"0.007": 6.23930959412,
			"0.008": 6.1301665688,
			"0.009": 9.45089256497,
			"0.01": 8.21588287222,
			"0.011": 7.03150313674,
			"0.012": 9.78922657066,
			"0.013": 5.41506125195,
			"0.014": 0.534615165484,
			"0.015": 0.779636938852,
			"0.016": 0.0286121608505,
			"0.017": 0.0,
			"0.018": 0.0,
			"0.019": 0.0,
			"0.02": 0.0,
			"0.021": 0.0,
			"0.022": 0.0,
			"0.023": 0.0,
			"0.024": 0.0,
			"0.025": 0.0
		}
	}
}
