{
	 "smiles": "O=CC1=C(N=C(S1)C1=CC=CC=C1)C1=CC=CC=C1", 
	 "Tm": 395.15, 
	 "num_atms": 30, 
	 "gaussian": { 
		 "optdone": 1, 
		 "sigma_profile": "yes", 
		 "theory": "DFT", 
		 "functional": "B3LYP", 
		 "basiset": "6-31G**", 
		 "properties": { 
			 "R2extent": 7083.0809, 
			 "electric_dipole_moment_norm": 3.87297668596, 
			 "electric_quadrupole_moment_norm": 15.653542065, 
			 "total_energy": -1144.48902226, 
			 "HOMO_LUMO_gap": 0.13559, 
			 "cosmo_polarized_energy": -9.32, 
			 "cosmo_cavitation_energy": 36.1, 
			 "cosmo_dispersion_energy": -26.83, 
			 "cosmo_repulsion_energy": 1.96, 
			 "cosmo_total_nonelectrostatic_energy": 11.24, 
			 "SMD_solvation_energy": 5.85 
		},
		"coords": [
			{
				"x": -2.7163776898,
				"y": 4.0545410087,
				"z": 1.1571209042,
				"element": "O" 
			},
			{
				"x": -3.0524415713,
				"y": 2.926250485,
				"z": 0.8320578462,
				"element": "C" 
			},
			{
				"x": -2.1999499672,
				"y": 1.801138336,
				"z": 0.4513368242,
				"element": "C" 
			},
			{
				"x": -0.8200711606,
				"y": 1.5350228542,
				"z": 0.4087693362,
				"element": "C" 
			},
			{
				"x": -0.5222469782,
				"y": 0.2574180298,
				"z": 0.0009404994,
				"element": "N" 
			},
			{
				"x": -1.5735875941,
				"y": -0.4730375915,
				"z": -0.2737499901,
				"element": "C" 
			},
			{
				"x": -3.0865982022,
				"y": 0.3652860364,
				"z": -0.0478951614,
				"element": "S" 
			},
			{
				"x": -1.4956722515,
				"y": -1.8628727612,
				"z": -0.7422388064,
				"element": "C" 
			},
			{
				"x": -0.2336658304,
				"y": -2.4269434175,
				"z": -1.0005419073,
				"element": "C" 
			},
			{
				"x": -0.1304961639,
				"y": -3.7417139419,
				"z": -1.4449510731,
				"element": "C" 
			},
			{
				"x": -1.2797234992,
				"y": -4.5127602612,
				"z": -1.6386448516,
				"element": "C" 
			},
			{
				"x": -2.5370568063,
				"y": -3.9601007525,
				"z": -1.3839447054,
				"element": "C" 
			},
			{
				"x": -2.6456954436,
				"y": -2.6453609712,
				"z": -0.9384050584,
				"element": "C" 
			},
			{
				"x": 0.3374733066,
				"y": 2.3939034155,
				"z": 0.7456378151,
				"element": "C" 
			},
			{
				"x": 1.6103813346,
				"y": 1.7893319054,
				"z": 0.8197997836,
				"element": "C" 
			},
			{
				"x": 2.740706945,
				"y": 2.5405145744,
				"z": 1.122453168,
				"element": "C" 
			},
			{
				"x": 2.6318336678,
				"y": 3.914456394,
				"z": 1.3519532889,
				"element": "C" 
			},
			{
				"x": 1.3792965235,
				"y": 4.523849496,
				"z": 1.2778519591,
				"element": "C" 
			},
			{
				"x": 0.2400499878,
				"y": 3.7772036432,
				"z": 0.9798554419,
				"element": "C" 
			},
			{
				"x": -4.1338297749,
				"y": 2.6714153591,
				"z": 0.8042255244,
				"element": "H" 
			},
			{
				"x": 0.649720091,
				"y": -1.8173170498,
				"z": -0.8494551221,
				"element": "H" 
			},
			{
				"x": 0.8492747878,
				"y": -4.1664068768,
				"z": -1.6425497724,
				"element": "H" 
			},
			{
				"x": -1.1964782391,
				"y": -5.5383742418,
				"z": -1.98585666,
				"element": "H" 
			},
			{
				"x": -3.4341006888,
				"y": -4.5540746985,
				"z": -1.5303585849,
				"element": "H" 
			},
			{
				"x": -3.6298191039,
				"y": -2.2304348933,
				"z": -0.7382493149,
				"element": "H" 
			},
			{
				"x": 1.6944939077,
				"y": 0.7254296952,
				"z": 0.6371811017,
				"element": "H" 
			},
			{
				"x": 3.7095931164,
				"y": 2.0524404999,
				"z": 1.1786332519,
				"element": "H" 
			},
			{
				"x": 3.5149905775,
				"y": 4.5021111165,
				"z": 1.586623899,
				"element": "H" 
			},
			{
				"x": 1.2819094947,
				"y": 5.5913719934,
				"z": 1.4534744706,
				"element": "H" 
			},
			{
				"x": -0.7266127755,
				"y": 4.2608126143,
				"z": 0.9398258937,
				"element": "H" 
			}
		],
		 "valence_orbital": [ 
			{
				"type": "occ",
				"energy": -0.2675,
				"method": "rhf"
			},
			{
				"type": "occ",
				"energy": -0.25748,
				"method": "rhf"
			},
			{
				"type": "occ",
				"energy": -0.25346,
				"method": "rhf"
			},
			{
				"type": "occ",
				"energy": -0.24665,
				"method": "rhf"
			},
			{
				"type": "occ",
				"energy": -0.22421,
				"method": "rhf"
			},
			{
				"type": "unocc",
				"energy": -0.08862,
				"method": "rhf"
			},
			{
				"type": "unocc",
				"energy": -0.04426,
				"method": "rhf"
			},
			{
				"type": "unocc",
				"energy": -0.01629,
				"method": "rhf"
			},
			{
				"type": "unocc",
				"energy": -0.00109,
				"method": "rhf"
			},
			{
				"type": "unocc",
				"energy": 0.00282,
				"method": "rhf"
			}
		],
		"cosmo_sigma_profile": { 
			"-0.025": 0.0,
			"-0.024": 0.0,
			"-0.023": 0.0,
			"-0.022": 0.0,
			"-0.021": 0.0,
			"-0.02": 0.0,
			"-0.019": 0.0,
			"-0.018": 0.0,
			"-0.017": 0.0,
			"-0.016": 0.0,
			"-0.015": 0.0,
			"-0.014": 0.0,
			"-0.013": 0.0,
			"-0.012": 0.0,
			"-0.011": 0.0,
			"-0.01": 0.0,
			"-0.009": 0.0,
			"-0.008": 1.88902512106,
			"-0.007": 7.19020697182,
			"-0.006": 17.1682083576,
			"-0.005": 20.5794312034,
			"-0.004": 21.4322227208,
			"-0.003": 19.1137264378,
			"-0.002": 20.9799875354,
			"-0.001": 23.4705865624,
			"0.0": 26.4136055011,
			"0.001": 27.4053468267,
			"0.002": 25.3744420182,
			"0.003": 24.4075803308,
			"0.004": 27.5071268439,
			"0.005": 14.2413626927,
			"0.006": 4.23000244571,
			"0.007": 2.67493410004,
			"0.008": 1.8393246942,
			"0.009": 2.00688123144,
			"0.01": 2.17918958598,
			"0.011": 2.11191394677,
			"0.012": 1.63464208544,
			"0.013": 0.340546487748,
			"0.014": 0.0,
			"0.015": 0.0,
			"0.016": 0.0,
			"0.017": 0.0,
			"0.018": 0.0,
			"0.019": 0.0,
			"0.02": 0.0,
			"0.021": 0.0,
			"0.022": 0.0,
			"0.023": 0.0,
			"0.024": 0.0,
			"0.025": 0.0
		}
	}
}
