{
	 "smiles": "CCCCOC(=O)C1=C(C=CC=C1)C(=O)OCCCC", 
	 "Tm": 238.15, 
	 "num_atms": 42, 
	 "gaussian": { 
		 "optdone": 1, 
		 "sigma_profile": "yes", 
		 "theory": "DFT", 
		 "functional": "B3LYP", 
		 "basiset": "6-31G**", 
		 "properties": { 
			 "R2extent": 7455.9435, 
			 "electric_dipole_moment_norm": 3.26126857526, 
			 "electric_quadrupole_moment_norm": 14.6383722042, 
			 "total_energy": -923.900599532, 
			 "HOMO_LUMO_gap": 0.20317, 
			 "cosmo_polarized_energy": -11.88, 
			 "cosmo_cavitation_energy": 45.29, 
			 "cosmo_dispersion_energy": -29.69, 
			 "cosmo_repulsion_energy": 2.38, 
			 "cosmo_total_nonelectrostatic_energy": 17.99, 
			 "SMD_solvation_energy": 8.85 
		},
		"coords": [
			{
				"x": -3.7491243474,
				"y": 1.4195033342,
				"z": 3.1115020026,
				"element": "C" 
			},
			{
				"x": -2.7923083561,
				"y": 0.8113072785,
				"z": 2.0816413841,
				"element": "C" 
			},
			{
				"x": -2.0311853249,
				"y": -0.4060227438,
				"z": 2.6216239668,
				"element": "C" 
			},
			{
				"x": -1.0620500552,
				"y": -1.0277484798,
				"z": 1.6213114049,
				"element": "C" 
			},
			{
				"x": -0.047738715,
				"y": -0.0836368136,
				"z": 1.1966512092,
				"element": "O" 
			},
			{
				"x": 1.0755211887,
				"y": -0.0356642864,
				"z": 1.9379914886,
				"element": "C" 
			},
			{
				"x": 1.232702408,
				"y": -0.6189725975,
				"z": 2.9908620237,
				"element": "O" 
			},
			{
				"x": 2.0831467118,
				"y": 0.9178591164,
				"z": 1.3633068058,
				"element": "C" 
			},
			{
				"x": 2.4511207007,
				"y": 0.9555440867,
				"z": 0.0029129172,
				"element": "C" 
			},
			{
				"x": 3.3430157608,
				"y": 1.9415276913,
				"z": -0.4386078783,
				"element": "C" 
			},
			{
				"x": 3.8821797614,
				"y": 2.8663815842,
				"z": 0.4546501601,
				"element": "C" 
			},
			{
				"x": 3.5417942675,
				"y": 2.8071038611,
				"z": 1.8061138623,
				"element": "C" 
			},
			{
				"x": 2.6490514755,
				"y": 1.8343191852,
				"z": 2.2547184469,
				"element": "C" 
			},
			{
				"x": 2.0133849598,
				"y": -0.1206079103,
				"z": -0.9409270238,
				"element": "C" 
			},
			{
				"x": 1.7690275743,
				"y": -1.2638287223,
				"z": -0.6123874369,
				"element": "O" 
			},
			{
				"x": 1.9754238564,
				"y": 0.3216771734,
				"z": -2.2186836994,
				"element": "O" 
			},
			{
				"x": 1.6303697522,
				"y": -0.6561399613,
				"z": -3.231744283,
				"element": "C" 
			},
			{
				"x": 0.1183299889,
				"y": -0.7754925103,
				"z": -3.4070468726,
				"element": "C" 
			},
			{
				"x": -0.5986959168,
				"y": 0.5336249908,
				"z": -3.7744697783,
				"element": "C" 
			},
			{
				"x": -0.2168073634,
				"y": 1.1036097775,
				"z": -5.1455650628,
				"element": "C" 
			},
			{
				"x": -4.2786956382,
				"y": 2.2857840427,
				"z": 2.7018411151,
				"element": "H" 
			},
			{
				"x": -3.2092280818,
				"y": 1.751959491,
				"z": 4.0054214931,
				"element": "H" 
			},
			{
				"x": -4.5022942758,
				"y": 0.6913030722,
				"z": 3.4341053863,
				"element": "H" 
			},
			{
				"x": -2.0706921975,
				"y": 1.5686231867,
				"z": 1.7533543724,
				"element": "H" 
			},
			{
				"x": -3.355253184,
				"y": 0.5173305726,
				"z": 1.1848580404,
				"element": "H" 
			},
			{
				"x": -2.7441781216,
				"y": -1.1884802412,
				"z": 2.9173547621,
				"element": "H" 
			},
			{
				"x": -1.474456227,
				"y": -0.136824119,
				"z": 3.5268617654,
				"element": "H" 
			},
			{
				"x": -0.5675703919,
				"y": -1.9040018663,
				"z": 2.0455854863,
				"element": "H" 
			},
			{
				"x": -1.5712917154,
				"y": -1.3098891355,
				"z": 0.6954478122,
				"element": "H" 
			},
			{
				"x": 3.6232502472,
				"y": 1.9623555415,
				"z": -1.4854440884,
				"element": "H" 
			},
			{
				"x": 4.5757775317,
				"y": 3.6214788828,
				"z": 0.0969908944,
				"element": "H" 
			},
			{
				"x": 3.9676962068,
				"y": 3.5159132595,
				"z": 2.5099984916,
				"element": "H" 
			},
			{
				"x": 2.3718736455,
				"y": 1.777024915,
				"z": 3.3021181947,
				"element": "H" 
			},
			{
				"x": 2.1183587016,
				"y": -0.288980196,
				"z": -4.1376298243,
				"element": "H" 
			},
			{
				"x": 2.0621349198,
				"y": -1.6198166309,
				"z": -2.952067516,
				"element": "H" 
			},
			{
				"x": -0.0593228771,
				"y": -1.5292479231,
				"z": -4.1870194285,
				"element": "H" 
			},
			{
				"x": -0.2994264464,
				"y": -1.1816092001,
				"z": -2.4796108677,
				"element": "H" 
			},
			{
				"x": -1.6797623495,
				"y": 0.3492449027,
				"z": -3.7510735887,
				"element": "H" 
			},
			{
				"x": -0.3988765214,
				"y": 1.2800948783,
				"z": -2.996780864,
				"element": "H" 
			},
			{
				"x": -0.4033488777,
				"y": 0.3766090484,
				"z": -5.9448962893,
				"element": "H" 
			},
			{
				"x": -0.8001698034,
				"y": 2.0017908787,
				"z": -5.3723376077,
				"element": "H" 
			},
			{
				"x": 0.840617129,
				"y": 1.384992586,
				"z": -5.1925313766,
				"element": "H" 
			}
		],
		 "valence_orbital": [ 
			{
				"type": "occ",
				"energy": -0.28777,
				"method": "rhf"
			},
			{
				"type": "occ",
				"energy": -0.27799,
				"method": "rhf"
			},
			{
				"type": "occ",
				"energy": -0.27471,
				"method": "rhf"
			},
			{
				"type": "occ",
				"energy": -0.26298,
				"method": "rhf"
			},
			{
				"type": "occ",
				"energy": -0.2556,
				"method": "rhf"
			},
			{
				"type": "unocc",
				"energy": -0.05243,
				"method": "rhf"
			},
			{
				"type": "unocc",
				"energy": -0.02464,
				"method": "rhf"
			},
			{
				"type": "unocc",
				"energy": 0.03458,
				"method": "rhf"
			},
			{
				"type": "unocc",
				"energy": 0.04886,
				"method": "rhf"
			},
			{
				"type": "unocc",
				"energy": 0.0838,
				"method": "rhf"
			}
		],
		"cosmo_sigma_profile": { 
			"-0.025": 0.0,
			"-0.024": 0.0,
			"-0.023": 0.0,
			"-0.022": 0.0,
			"-0.021": 0.0,
			"-0.02": 0.0,
			"-0.019": 0.0,
			"-0.018": 0.0,
			"-0.017": 0.0,
			"-0.016": 0.0,
			"-0.015": 0.0,
			"-0.014": 0.0,
			"-0.013": 0.0,
			"-0.012": 0.0,
			"-0.011": 0.0,
			"-0.01": 0.0,
			"-0.009": 0.0,
			"-0.008": 0.100816836675,
			"-0.007": 5.03783293581,
			"-0.006": 9.4665219421,
			"-0.005": 16.6290499091,
			"-0.004": 21.9487089328,
			"-0.003": 37.0208779367,
			"-0.002": 41.7997952774,
			"-0.001": 43.7480503416,
			"0.0": 45.6053508049,
			"0.001": 40.1881944861,
			"0.002": 29.1805385205,
			"0.003": 18.0347476947,
			"0.004": 6.90618137121,
			"0.005": 7.55361864164,
			"0.006": 6.50449772546,
			"0.007": 4.22653236758,
			"0.008": 3.85486192528,
			"0.009": 2.3081823244,
			"0.01": 3.93886803412,
			"0.011": 5.91101512565,
			"0.012": 4.8842558801,
			"0.013": 0.324284834097,
			"0.014": 0.0,
			"0.015": 0.0,
			"0.016": 0.0,
			"0.017": 0.0,
			"0.018": 0.0,
			"0.019": 0.0,
			"0.02": 0.0,
			"0.021": 0.0,
			"0.022": 0.0,
			"0.023": 0.0,
			"0.024": 0.0,
			"0.025": 0.0
		}
	}
}
