{
	 "smiles": "OC(=O)C1=NN2C=CC=CC2=C1", 
	 "Tm": 463.15, 
	 "num_atms": 18, 
	 "gaussian": { 
		 "optdone": 1, 
		 "sigma_profile": "yes", 
		 "theory": "DFT", 
		 "functional": "B3LYP", 
		 "basiset": "6-31G**", 
		 "properties": { 
			 "R2extent": 3185.5829, 
			 "electric_dipole_moment_norm": 7.09192956042, 
			 "electric_quadrupole_moment_norm": 27.6847030304, 
			 "total_energy": -568.394099291, 
			 "HOMO_LUMO_gap": 0.17379, 
			 "cosmo_polarized_energy": -19.16, 
			 "cosmo_cavitation_energy": 23.21, 
			 "cosmo_dispersion_energy": -17.4, 
			 "cosmo_repulsion_energy": 1.37, 
			 "cosmo_total_nonelectrostatic_energy": 7.19, 
			 "SMD_solvation_energy": 4.57 
		},
		"coords": [
			{
				"x": 1.7288325051,
				"y": 2.7003610584,
				"z": -3.69501452,
				"element": "O" 
			},
			{
				"x": 2.3409802263,
				"y": 2.7130567243,
				"z": -2.4770230868,
				"element": "C" 
			},
			{
				"x": 3.3747465804,
				"y": 3.3075092831,
				"z": -2.3122986575,
				"element": "O" 
			},
			{
				"x": 1.6361305179,
				"y": 1.9246970536,
				"z": -1.4228013612,
				"element": "C" 
			},
			{
				"x": 1.8515692409,
				"y": 2.2194200478,
				"z": -0.1290837069,
				"element": "N" 
			},
			{
				"x": 1.096097517,
				"y": 1.3287003582,
				"z": 0.5378704824,
				"element": "N" 
			},
			{
				"x": 1.0098685227,
				"y": 1.2739870453,
				"z": 1.9045269754,
				"element": "C" 
			},
			{
				"x": 0.216733799,
				"y": 0.3219240109,
				"z": 2.4787731787,
				"element": "C" 
			},
			{
				"x": -0.5077946676,
				"y": -0.5972463941,
				"z": 1.6648963355,
				"element": "C" 
			},
			{
				"x": -0.4188907864,
				"y": -0.5351864083,
				"z": 0.2962974268,
				"element": "C" 
			},
			{
				"x": 0.4001051747,
				"y": 0.4539017915,
				"z": -0.3038690103,
				"element": "C" 
			},
			{
				"x": 0.7477942037,
				"y": 0.8454244812,
				"z": -1.5978763915,
				"element": "C" 
			},
			{
				"x": 0.8457690076,
				"y": 2.3130348133,
				"z": -3.612764809,
				"element": "H" 
			},
			{
				"x": 1.5986578811,
				"y": 2.0111949761,
				"z": 2.4343696826,
				"element": "H" 
			},
			{
				"x": 0.1487094401,
				"y": 0.27522165,
				"z": 3.5592291146,
				"element": "H" 
			},
			{
				"x": -1.1328208666,
				"y": -1.3483856671,
				"z": 2.1362352936,
				"element": "H" 
			},
			{
				"x": -0.9624913086,
				"y": -1.2246050595,
				"z": -0.3402570767,
				"element": "H" 
			},
			{
				"x": 0.4402030127,
				"y": 0.3647902352,
				"z": -2.5150098698,
				"element": "H" 
			}
		],
		 "valence_orbital": [ 
			{
				"type": "occ",
				"energy": -0.31196,
				"method": "rhf"
			},
			{
				"type": "occ",
				"energy": -0.30862,
				"method": "rhf"
			},
			{
				"type": "occ",
				"energy": -0.27495,
				"method": "rhf"
			},
			{
				"type": "occ",
				"energy": -0.26403,
				"method": "rhf"
			},
			{
				"type": "occ",
				"energy": -0.22956,
				"method": "rhf"
			},
			{
				"type": "unocc",
				"energy": -0.05577,
				"method": "rhf"
			},
			{
				"type": "unocc",
				"energy": -0.03189,
				"method": "rhf"
			},
			{
				"type": "unocc",
				"energy": 0.00345,
				"method": "rhf"
			},
			{
				"type": "unocc",
				"energy": 0.06776,
				"method": "rhf"
			},
			{
				"type": "unocc",
				"energy": 0.07534,
				"method": "rhf"
			}
		],
		"cosmo_sigma_profile": { 
			"-0.025": 0.0,
			"-0.024": 0.0,
			"-0.023": 0.0,
			"-0.022": 0.0,
			"-0.021": 0.0,
			"-0.02": 0.0,
			"-0.019": 0.0,
			"-0.018": 0.47525383309,
			"-0.017": 1.03826491226,
			"-0.016": 1.20954703613,
			"-0.015": 0.73033445863,
			"-0.014": 0.741698794488,
			"-0.013": 1.25070036322,
			"-0.012": 1.660640635,
			"-0.011": 1.05780837047,
			"-0.01": 1.95650888506,
			"-0.009": 3.3603757294,
			"-0.008": 6.20279700026,
			"-0.007": 11.6254563681,
			"-0.006": 11.112902634,
			"-0.005": 9.49952544664,
			"-0.004": 8.15765682774,
			"-0.003": 8.70560741719,
			"-0.002": 8.18151615568,
			"-0.001": 13.6682278444,
			"0.0": 12.2642334248,
			"0.001": 15.0551517888,
			"0.002": 15.8896736435,
			"0.003": 9.08973551875,
			"0.004": 2.24247393866,
			"0.005": 2.45700910646,
			"0.006": 3.50211084512,
			"0.007": 3.21279024259,
			"0.008": 3.9416916912,
			"0.009": 4.51649874917,
			"0.01": 5.73966125224,
			"0.011": 6.96316668726,
			"0.012": 5.8759983962,
			"0.013": 3.56762131762,
			"0.014": 1.72460339393,
			"0.015": 0.612116255022,
			"0.016": 0.0,
			"0.017": 0.0,
			"0.018": 0.0,
			"0.019": 0.0,
			"0.02": 0.0,
			"0.021": 0.0,
			"0.022": 0.0,
			"0.023": 0.0,
			"0.024": 0.0,
			"0.025": 0.0
		}
	}
}
