{
	 "smiles": "COC(=O)C1=C(F)C=CC(=C1)S(N)(=O)=O", 
	 "Tm": 371.15, 
	 "num_atms": 23, 
	 "gaussian": { 
		 "optdone": 1, 
		 "sigma_profile": "yes", 
		 "theory": "DFT", 
		 "functional": "B3LYP", 
		 "basiset": "6-31G**", 
		 "properties": { 
			 "R2extent": 4812.5142, 
			 "electric_dipole_moment_norm": 2.91562808671, 
			 "electric_quadrupole_moment_norm": 23.2654441425, 
			 "total_energy": -1163.27573584, 
			 "HOMO_LUMO_gap": 0.20305, 
			 "cosmo_polarized_energy": -18.21, 
			 "cosmo_cavitation_energy": 30.14, 
			 "cosmo_dispersion_energy": -22.31, 
			 "cosmo_repulsion_energy": 1.7, 
			 "cosmo_total_nonelectrostatic_energy": 9.53, 
			 "SMD_solvation_energy": 6.88 
		},
		"coords": [
			{
				"x": 0.2425224588,
				"y": 2.2046523954,
				"z": 2.1521901861,
				"element": "C" 
			},
			{
				"x": 0.2020538733,
				"y": 1.1415627324,
				"z": 1.1864222364,
				"element": "O" 
			},
			{
				"x": -0.0468080149,
				"y": -0.0874313244,
				"z": 1.6956916841,
				"element": "C" 
			},
			{
				"x": -0.2166569183,
				"y": -0.2962141163,
				"z": 2.8774504566,
				"element": "O" 
			},
			{
				"x": -0.0797798569,
				"y": -1.1212528684,
				"z": 0.6174011078,
				"element": "C" 
			},
			{
				"x": -0.3180600321,
				"y": -2.4736798867,
				"z": 0.9119873693,
				"element": "C" 
			},
			{
				"x": -0.51368036,
				"y": -2.8718872673,
				"z": 2.1705352353,
				"element": "F" 
			},
			{
				"x": -0.3680479975,
				"y": -3.4499782929,
				"z": -0.0823886171,
				"element": "C" 
			},
			{
				"x": -0.1700882706,
				"y": -3.0889931464,
				"z": -1.4089657448,
				"element": "C" 
			},
			{
				"x": 0.0803705728,
				"y": -1.7483896895,
				"z": -1.7180646211,
				"element": "C" 
			},
			{
				"x": 0.1179133837,
				"y": -0.7735719213,
				"z": -0.7280198122,
				"element": "C" 
			},
			{
				"x": 0.3355603067,
				"y": -1.2748196842,
				"z": -3.4271050708,
				"element": "S" 
			},
			{
				"x": 1.9773423391,
				"y": -1.6109995055,
				"z": -3.6812965126,
				"element": "N" 
			},
			{
				"x": -0.4047410274,
				"y": -2.2193968533,
				"z": -4.2679020489,
				"element": "O" 
			},
			{
				"x": 0.1427602692,
				"y": 0.1754005024,
				"z": -3.5140454906,
				"element": "O" 
			},
			{
				"x": 1.0328514408,
				"y": 2.0269111042,
				"z": 2.8856175297,
				"element": "H" 
			},
			{
				"x": 0.4437465089,
				"y": 3.1105794468,
				"z": 1.5811449071,
				"element": "H" 
			},
			{
				"x": -0.7131305135,
				"y": 2.2834269524,
				"z": 2.6760633897,
				"element": "H" 
			},
			{
				"x": -0.5686646285,
				"y": -4.4758020129,
				"z": 0.2055091621,
				"element": "H" 
			},
			{
				"x": -0.2236907568,
				"y": -3.8291641298,
				"z": -2.1995976947,
				"element": "H" 
			},
			{
				"x": 0.2850744111,
				"y": 0.262810214,
				"z": -0.9920864661,
				"element": "H" 
			},
			{
				"x": 2.500706396,
				"y": -0.7427482435,
				"z": -3.7603384571,
				"element": "H" 
			},
			{
				"x": 2.0669464161,
				"y": -2.1739144049,
				"z": -4.5235027281,
				"element": "H" 
			}
		],
		 "valence_orbital": [ 
			{
				"type": "occ",
				"energy": -0.31098,
				"method": "rhf"
			},
			{
				"type": "occ",
				"energy": -0.30627,
				"method": "rhf"
			},
			{
				"type": "occ",
				"energy": -0.28791,
				"method": "rhf"
			},
			{
				"type": "occ",
				"energy": -0.28087,
				"method": "rhf"
			},
			{
				"type": "occ",
				"energy": -0.26972,
				"method": "rhf"
			},
			{
				"type": "unocc",
				"energy": -0.06667,
				"method": "rhf"
			},
			{
				"type": "unocc",
				"energy": -0.04133,
				"method": "rhf"
			},
			{
				"type": "unocc",
				"energy": 0.02809,
				"method": "rhf"
			},
			{
				"type": "unocc",
				"energy": 0.04678,
				"method": "rhf"
			},
			{
				"type": "unocc",
				"energy": 0.0782,
				"method": "rhf"
			}
		],
		"cosmo_sigma_profile": { 
			"-0.025": 0.0,
			"-0.024": 0.0,
			"-0.023": 0.0,
			"-0.022": 0.0,
			"-0.021": 0.0,
			"-0.02": 0.0,
			"-0.019": 0.0,
			"-0.018": 0.0,
			"-0.017": 0.0,
			"-0.016": 0.0,
			"-0.015": 1.59295865409,
			"-0.014": 2.36328454077,
			"-0.013": 2.07604862815,
			"-0.012": 3.47173935037,
			"-0.011": 1.60174351494,
			"-0.01": 2.21968604052,
			"-0.009": 3.74593455065,
			"-0.008": 5.50936643634,
			"-0.007": 6.63339956676,
			"-0.006": 10.5901234159,
			"-0.005": 12.1739055248,
			"-0.004": 16.9495717744,
			"-0.003": 19.8184383531,
			"-0.002": 18.6570194103,
			"-0.001": 20.27966053,
			"0.0": 16.613231949,
			"0.001": 11.7747601455,
			"0.002": 8.73365782315,
			"0.003": 12.1392651013,
			"0.004": 7.66971172846,
			"0.005": 6.03019587972,
			"0.006": 5.09696712218,
			"0.007": 5.09550488027,
			"0.008": 5.66942888914,
			"0.009": 5.9422365237,
			"0.01": 11.611438361,
			"0.011": 13.1875715173,
			"0.012": 3.89710417842,
			"0.013": 0.0292641557284,
			"0.014": 0.0,
			"0.015": 0.0,
			"0.016": 0.0,
			"0.017": 0.0,
			"0.018": 0.0,
			"0.019": 0.0,
			"0.02": 0.0,
			"0.021": 0.0,
			"0.022": 0.0,
			"0.023": 0.0,
			"0.024": 0.0,
			"0.025": 0.0
		}
	}
}
