{
	 "smiles": "NC1=C2C=C(Cl)C=CC2=NC(=C1)C1CC1", 
	 "Tm": 370.15, 
	 "num_atms": 26, 
	 "gaussian": { 
		 "optdone": 1, 
		 "sigma_profile": "yes", 
		 "theory": "DFT", 
		 "functional": "B3LYP", 
		 "basiset": "6-31G**", 
		 "properties": { 
			 "R2extent": 4637.3272, 
			 "electric_dipole_moment_norm": 3.4554701055, 
			 "electric_quadrupole_moment_norm": 14.5709443534, 
			 "total_energy": -1033.59607819, 
			 "HOMO_LUMO_gap": 0.16534, 
			 "cosmo_polarized_energy": -12.3, 
			 "cosmo_cavitation_energy": 31.18, 
			 "cosmo_dispersion_energy": -23.14, 
			 "cosmo_repulsion_energy": 1.81, 
			 "cosmo_total_nonelectrostatic_energy": 9.84, 
			 "SMD_solvation_energy": 3.34 
		},
		"coords": [
			{
				"x": -3.0696300925,
				"y": -1.4276585943,
				"z": -0.6711225755,
				"element": "N" 
			},
			{
				"x": -2.0188943536,
				"y": -0.5792569351,
				"z": -0.3738554211,
				"element": "C" 
			},
			{
				"x": -0.8069076558,
				"y": -0.616947432,
				"z": -1.1441233733,
				"element": "C" 
			},
			{
				"x": -0.604403345,
				"y": -1.5007102034,
				"z": -2.2335108029,
				"element": "C" 
			},
			{
				"x": 0.5955859232,
				"y": -1.4928952361,
				"z": -2.9083522414,
				"element": "C" 
			},
			{
				"x": 0.8416729963,
				"y": -2.5894156996,
				"z": -4.263041506,
				"element": "Cl" 
			},
			{
				"x": 1.6399928099,
				"y": -0.6138278847,
				"z": -2.5456906953,
				"element": "C" 
			},
			{
				"x": 1.4492859664,
				"y": 0.2627729482,
				"z": -1.5024752619,
				"element": "C" 
			},
			{
				"x": 0.2281095658,
				"y": 0.2987554565,
				"z": -0.7758006685,
				"element": "C" 
			},
			{
				"x": 0.1091431726,
				"y": 1.2079194537,
				"z": 0.2290533186,
				"element": "N" 
			},
			{
				"x": -1.0332028025,
				"y": 1.2421996457,
				"z": 0.9014283716,
				"element": "C" 
			},
			{
				"x": -2.1119330534,
				"y": 0.3651331266,
				"z": 0.6358665127,
				"element": "C" 
			},
			{
				"x": -1.1607649395,
				"y": 2.2463804213,
				"z": 1.9929337228,
				"element": "C" 
			},
			{
				"x": 0.0599489946,
				"y": 2.6095928054,
				"z": 2.8219381902,
				"element": "C" 
			},
			{
				"x": -0.4872671086,
				"y": 3.6005615662,
				"z": 1.8441521569,
				"element": "C" 
			},
			{
				"x": -2.8328511663,
				"y": -2.3292640089,
				"z": -1.0580956284,
				"element": "H" 
			},
			{
				"x": -3.7973049342,
				"y": -1.4818699375,
				"z": 0.027292914,
				"element": "H" 
			},
			{
				"x": -1.3922152644,
				"y": -2.1669198474,
				"z": -2.5669207824,
				"element": "H" 
			},
			{
				"x": 2.5737129624,
				"y": -0.6341956324,
				"z": -3.0967696057,
				"element": "H" 
			},
			{
				"x": 2.2262588488,
				"y": 0.9590962357,
				"z": -1.2048706352,
				"element": "H" 
			},
			{
				"x": -3.0141864423,
				"y": 0.4278873198,
				"z": 1.2383999893,
				"element": "H" 
			},
			{
				"x": -2.1148865096,
				"y": 2.233004232,
				"z": 2.5123717354,
				"element": "H" 
			},
			{
				"x": 0.9800876166,
				"y": 2.1015016557,
				"z": 2.5528667783,
				"element": "H" 
			},
			{
				"x": -0.0883963166,
				"y": 2.7814085715,
				"z": 3.8838903224,
				"element": "H" 
			},
			{
				"x": -1.0207878943,
				"y": 4.4692950165,
				"z": 2.2180998859,
				"element": "H" 
			},
			{
				"x": 0.068833022,
				"y": 3.7513529565,
				"z": 0.9248352996,
				"element": "H" 
			}
		],
		 "valence_orbital": [ 
			{
				"type": "occ",
				"energy": -0.28386,
				"method": "rhf"
			},
			{
				"type": "occ",
				"energy": -0.26615,
				"method": "rhf"
			},
			{
				"type": "occ",
				"energy": -0.25132,
				"method": "rhf"
			},
			{
				"type": "occ",
				"energy": -0.23563,
				"method": "rhf"
			},
			{
				"type": "occ",
				"energy": -0.21107,
				"method": "rhf"
			},
			{
				"type": "unocc",
				"energy": -0.04573,
				"method": "rhf"
			},
			{
				"type": "unocc",
				"energy": -0.01474,
				"method": "rhf"
			},
			{
				"type": "unocc",
				"energy": 0.02617,
				"method": "rhf"
			},
			{
				"type": "unocc",
				"energy": 0.03105,
				"method": "rhf"
			},
			{
				"type": "unocc",
				"energy": 0.06442,
				"method": "rhf"
			}
		],
		"cosmo_sigma_profile": { 
			"-0.025": 0.0,
			"-0.024": 0.0,
			"-0.023": 0.0,
			"-0.022": 0.0,
			"-0.021": 0.0,
			"-0.02": 0.0,
			"-0.019": 0.0,
			"-0.018": 0.0,
			"-0.017": 0.0,
			"-0.016": 0.0,
			"-0.015": 0.0862700767095,
			"-0.014": 1.07239612732,
			"-0.013": 3.3081898134,
			"-0.012": 2.7363117543,
			"-0.011": 3.28909111043,
			"-0.01": 2.88651380764,
			"-0.009": 2.8650374439,
			"-0.008": 3.15142972993,
			"-0.007": 4.58405255406,
			"-0.006": 7.87295073348,
			"-0.005": 11.6104173608,
			"-0.004": 13.3264840564,
			"-0.003": 13.5655288584,
			"-0.002": 14.5036070351,
			"-0.001": 14.576579029,
			"0.0": 15.28945185,
			"0.001": 18.5210704145,
			"0.002": 28.2033303609,
			"0.003": 35.0834226833,
			"0.004": 24.7597791267,
			"0.005": 13.7157802688,
			"0.006": 3.91669664024,
			"0.007": 2.50549039779,
			"0.008": 2.49752371536,
			"0.009": 2.43917926735,
			"0.01": 2.08695500122,
			"0.011": 1.19912199331,
			"0.012": 0.770887775424,
			"0.013": 0.575791659225,
			"0.014": 0.00170490599327,
			"0.015": 0.0,
			"0.016": 0.0,
			"0.017": 0.0,
			"0.018": 0.0,
			"0.019": 0.0,
			"0.02": 0.0,
			"0.021": 0.0,
			"0.022": 0.0,
			"0.023": 0.0,
			"0.024": 0.0,
			"0.025": 0.0
		}
	}
}
