{
	 "smiles": "CCOC(=O)C1=CC2=CC(C=O)=C(N)C=C2NC1=O", 
	 "Tm": 429.15, 
	 "num_atms": 31, 
	 "gaussian": { 
		 "optdone": 1, 
		 "sigma_profile": "yes", 
		 "theory": "DFT", 
		 "functional": "B3LYP", 
		 "basiset": "6-31G**", 
		 "properties": { 
			 "R2extent": 7366.7778, 
			 "electric_dipole_moment_norm": 2.89662402635, 
			 "electric_quadrupole_moment_norm": 21.4331743657, 
			 "total_energy": -913.06200176, 
			 "HOMO_LUMO_gap": 0.14349, 
			 "cosmo_polarized_energy": -22.83, 
			 "cosmo_cavitation_energy": 36.02, 
			 "cosmo_dispersion_energy": -26.37, 
			 "cosmo_repulsion_energy": 2.01, 
			 "cosmo_total_nonelectrostatic_energy": 11.66, 
			 "SMD_solvation_energy": 8.42 
		},
		"coords": [
			{
				"x": 1.9045446695,
				"y": -2.2492791033,
				"z": -4.9860201511,
				"element": "C" 
			},
			{
				"x": 0.7408050061,
				"y": -2.9991036975,
				"z": -4.35454243,
				"element": "C" 
			},
			{
				"x": 0.5949179973,
				"y": -2.6613782773,
				"z": -2.9553280687,
				"element": "O" 
			},
			{
				"x": -0.1155018445,
				"y": -1.5587629917,
				"z": -2.6773055958,
				"element": "C" 
			},
			{
				"x": -0.6340170761,
				"y": -0.851928079,
				"z": -3.5274151815,
				"element": "O" 
			},
			{
				"x": -0.2282879396,
				"y": -1.2666425581,
				"z": -1.217685974,
				"element": "C" 
			},
			{
				"x": -0.9590820556,
				"y": -0.1612539867,
				"z": -0.8748791457,
				"element": "C" 
			},
			{
				"x": -1.1662830143,
				"y": 0.2565199713,
				"z": 0.4709691987,
				"element": "C" 
			},
			{
				"x": -1.911790072,
				"y": 1.3828945087,
				"z": 0.8328980727,
				"element": "C" 
			},
			{
				"x": -2.0944525147,
				"y": 1.7631279292,
				"z": 2.1610968891,
				"element": "C" 
			},
			{
				"x": -2.8867472635,
				"y": 2.9519272118,
				"z": 2.4470856306,
				"element": "C" 
			},
			{
				"x": -3.1326328436,
				"y": 3.4071281217,
				"z": 3.5630067876,
				"element": "O" 
			},
			{
				"x": -1.4951102431,
				"y": 0.970094533,
				"z": 3.2080029776,
				"element": "C" 
			},
			{
				"x": -1.6680732532,
				"y": 1.3330984522,
				"z": 4.4985280465,
				"element": "N" 
			},
			{
				"x": -0.7436595363,
				"y": -0.1641035884,
				"z": 2.856680771,
				"element": "C" 
			},
			{
				"x": -0.5788519831,
				"y": -0.5188720404,
				"z": 1.5181840926,
				"element": "C" 
			},
			{
				"x": 0.1480559143,
				"y": -1.6182521773,
				"z": 1.1449818475,
				"element": "N" 
			},
			{
				"x": 0.3949252898,
				"y": -2.0896582934,
				"z": -0.1656451052,
				"element": "C" 
			},
			{
				"x": 1.0758903527,
				"y": -3.0947368614,
				"z": -0.2958555211,
				"element": "O" 
			},
			{
				"x": 2.0464362767,
				"y": -2.5859925493,
				"z": -6.018537478,
				"element": "H" 
			},
			{
				"x": 1.7068441293,
				"y": -1.174748319,
				"z": -4.9996800206,
				"element": "H" 
			},
			{
				"x": 2.8300326691,
				"y": -2.4342020309,
				"z": -4.4330897303,
				"element": "H" 
			},
			{
				"x": 0.9155487446,
				"y": -4.0773639962,
				"z": -4.3502858946,
				"element": "H" 
			},
			{
				"x": -0.1962907244,
				"y": -2.7819036971,
				"z": -4.8727672795,
				"element": "H" 
			},
			{
				"x": -1.398142385,
				"y": 0.4163599086,
				"z": -1.6840663931,
				"element": "H" 
			},
			{
				"x": -2.3663666606,
				"y": 1.9851196124,
				"z": 0.0490585951,
				"element": "H" 
			},
			{
				"x": -3.2858354795,
				"y": 3.4628948385,
				"z": 1.54609146,
				"element": "H" 
			},
			{
				"x": -2.221729504,
				"y": 2.162648116,
				"z": 4.6882961881,
				"element": "H" 
			},
			{
				"x": -1.259778176,
				"y": 0.7947874781,
				"z": 5.2442604571,
				"element": "H" 
			},
			{
				"x": -0.2881784087,
				"y": -0.7679162211,
				"z": 3.6371003135,
				"element": "H" 
			},
			{
				"x": 0.5833099286,
				"y": -2.1956022137,
				"z": 1.8545626416,
				"element": "H" 
			}
		],
		 "valence_orbital": [ 
			{
				"type": "occ",
				"energy": -0.27002,
				"method": "rhf"
			},
			{
				"type": "occ",
				"energy": -0.2683,
				"method": "rhf"
			},
			{
				"type": "occ",
				"energy": -0.25667,
				"method": "rhf"
			},
			{
				"type": "occ",
				"energy": -0.24366,
				"method": "rhf"
			},
			{
				"type": "occ",
				"energy": -0.22013,
				"method": "rhf"
			},
			{
				"type": "unocc",
				"energy": -0.07664,
				"method": "rhf"
			},
			{
				"type": "unocc",
				"energy": -0.05977,
				"method": "rhf"
			},
			{
				"type": "unocc",
				"energy": 0.00475,
				"method": "rhf"
			},
			{
				"type": "unocc",
				"energy": 0.01149,
				"method": "rhf"
			},
			{
				"type": "unocc",
				"energy": 0.04628,
				"method": "rhf"
			}
		],
		"cosmo_sigma_profile": { 
			"-0.025": 0.0,
			"-0.024": 0.0,
			"-0.023": 0.0,
			"-0.022": 0.0,
			"-0.021": 0.0,
			"-0.02": 0.0,
			"-0.019": 0.0,
			"-0.018": 0.0,
			"-0.017": 0.0,
			"-0.016": 0.120665239646,
			"-0.015": 1.60699059218,
			"-0.014": 2.80891598632,
			"-0.013": 2.49349926275,
			"-0.012": 2.45857352263,
			"-0.011": 2.77222515753,
			"-0.01": 2.36733676771,
			"-0.009": 5.58519245697,
			"-0.008": 8.9795619672,
			"-0.007": 8.20083450115,
			"-0.006": 9.16748517389,
			"-0.005": 10.3172483334,
			"-0.004": 16.7193554369,
			"-0.003": 19.3984187639,
			"-0.002": 23.1957364016,
			"-0.001": 25.4410830568,
			"0.0": 32.7114553436,
			"0.001": 27.2434739077,
			"0.002": 14.7339088265,
			"0.003": 8.98446859736,
			"0.004": 6.45189997497,
			"0.005": 6.21478494402,
			"0.006": 3.99927206221,
			"0.007": 4.71257843671,
			"0.008": 3.33326847182,
			"0.009": 5.31784501021,
			"0.01": 5.64737403128,
			"0.011": 5.12882373188,
			"0.012": 8.07368781737,
			"0.013": 7.32390145661,
			"0.014": 2.56878054693,
			"0.015": 1.90259077105,
			"0.016": 1.30652865857,
			"0.017": 0.0614475526722,
			"0.018": 0.0,
			"0.019": 0.0,
			"0.02": 0.0,
			"0.021": 0.0,
			"0.022": 0.0,
			"0.023": 0.0,
			"0.024": 0.0,
			"0.025": 0.0
		}
	}
}
