{
	 "smiles": "O=C1NC2=C(N1)C=C(NCC1=CC=CC=C1)C=C2", 
	 "Tm": 516.15, 
	 "num_atms": 31, 
	 "gaussian": { 
		 "optdone": 1, 
		 "sigma_profile": "yes", 
		 "theory": "DFT", 
		 "functional": "B3LYP", 
		 "basiset": "6-31G**", 
		 "properties": { 
			 "R2extent": 6495.1587, 
			 "electric_dipole_moment_norm": 3.99653982965, 
			 "electric_quadrupole_moment_norm": 23.1621665843, 
			 "total_energy": -780.833974837, 
			 "HOMO_LUMO_gap": 0.17126, 
			 "cosmo_polarized_energy": -18.68, 
			 "cosmo_cavitation_energy": 35.15, 
			 "cosmo_dispersion_energy": -25.33, 
			 "cosmo_repulsion_energy": 1.97, 
			 "cosmo_total_nonelectrostatic_energy": 11.78, 
			 "SMD_solvation_energy": 5.03 
		},
		"coords": [
			{
				"x": -5.5119016401,
				"y": 3.5435240845,
				"z": -0.6908646621,
				"element": "O" 
			},
			{
				"x": -4.6663625013,
				"y": 2.6904485749,
				"z": -0.487088708,
				"element": "C" 
			},
			{
				"x": -4.4712654673,
				"y": 1.9283296827,
				"z": 0.661297753,
				"element": "N" 
			},
			{
				"x": -3.3974120755,
				"y": 1.0486585296,
				"z": 0.5102750908,
				"element": "C" 
			},
			{
				"x": -2.8823440751,
				"y": 1.2605405875,
				"z": -0.7846935354,
				"element": "C" 
			},
			{
				"x": -3.6647802781,
				"y": 2.2544441669,
				"z": -1.3612342703,
				"element": "N" 
			},
			{
				"x": -1.8023907325,
				"y": 0.5397864048,
				"z": -1.274867124,
				"element": "C" 
			},
			{
				"x": -1.2042348926,
				"y": -0.4207721812,
				"z": -0.4310267351,
				"element": "C" 
			},
			{
				"x": -0.1547321586,
				"y": -1.2380619903,
				"z": -0.8860432267,
				"element": "N" 
			},
			{
				"x": 0.9516969492,
				"y": -0.7010937645,
				"z": -1.6907871152,
				"element": "C" 
			},
			{
				"x": 2.028570409,
				"y": 0.0103328778,
				"z": -0.8883662327,
				"element": "C" 
			},
			{
				"x": 3.2316990232,
				"y": -0.6415573623,
				"z": -0.5896762371,
				"element": "C" 
			},
			{
				"x": 4.2140377741,
				"y": -0.017090154,
				"z": 0.1819523065,
				"element": "C" 
			},
			{
				"x": 4.0029439719,
				"y": 1.2737467978,
				"z": 0.667382786,
				"element": "C" 
			},
			{
				"x": 2.807313651,
				"y": 1.9353683218,
				"z": 0.375070912,
				"element": "C" 
			},
			{
				"x": 1.8292678575,
				"y": 1.3097430923,
				"z": -0.3973730389,
				"element": "C" 
			},
			{
				"x": -1.7220304338,
				"y": -0.6182740779,
				"z": 0.8641823618,
				"element": "C" 
			},
			{
				"x": -2.8226586461,
				"y": 0.100640594,
				"z": 1.3425614967,
				"element": "C" 
			},
			{
				"x": -5.0630649631,
				"y": 2.0341760566,
				"z": 1.4686072241,
				"element": "H" 
			},
			{
				"x": -3.576813636,
				"y": 2.6372561829,
				"z": -2.2883508762,
				"element": "H" 
			},
			{
				"x": -1.4501073628,
				"y": 0.6968844722,
				"z": -2.2881223754,
				"element": "H" 
			},
			{
				"x": 0.195167781,
				"y": -1.8338728632,
				"z": -0.1448056655,
				"element": "H" 
			},
			{
				"x": 1.3996517134,
				"y": -1.5398088566,
				"z": -2.2353464397,
				"element": "H" 
			},
			{
				"x": 0.5343417267,
				"y": -0.0325415917,
				"z": -2.4475105237,
				"element": "H" 
			},
			{
				"x": 3.4035961574,
				"y": -1.6461964388,
				"z": -0.9705056637,
				"element": "H" 
			},
			{
				"x": 5.1429027242,
				"y": -0.5369495712,
				"z": 0.3996172996,
				"element": "H" 
			},
			{
				"x": 4.7655715623,
				"y": 1.7638696319,
				"z": 1.2658047381,
				"element": "H" 
			},
			{
				"x": 2.6389104279,
				"y": 2.9426567549,
				"z": 0.7457463664,
				"element": "H" 
			},
			{
				"x": 0.9022436128,
				"y": 1.8304435333,
				"z": -0.6201135579,
				"element": "H" 
			},
			{
				"x": -1.2509989702,
				"y": -1.3532442794,
				"z": 1.5113195521,
				"element": "H" 
			},
			{
				"x": -3.2011175083,
				"y": -0.0767872154,
				"z": 2.3444581006,
				"element": "H" 
			}
		],
		 "valence_orbital": [ 
			{
				"type": "occ",
				"energy": -0.26171,
				"method": "rhf"
			},
			{
				"type": "occ",
				"energy": -0.25299,
				"method": "rhf"
			},
			{
				"type": "occ",
				"energy": -0.24805,
				"method": "rhf"
			},
			{
				"type": "occ",
				"energy": -0.22527,
				"method": "rhf"
			},
			{
				"type": "occ",
				"energy": -0.18224,
				"method": "rhf"
			},
			{
				"type": "unocc",
				"energy": -0.01098,
				"method": "rhf"
			},
			{
				"type": "unocc",
				"energy": -0.0038,
				"method": "rhf"
			},
			{
				"type": "unocc",
				"energy": -0.00118,
				"method": "rhf"
			},
			{
				"type": "unocc",
				"energy": 0.02898,
				"method": "rhf"
			},
			{
				"type": "unocc",
				"energy": 0.07513,
				"method": "rhf"
			}
		],
		"cosmo_sigma_profile": { 
			"-0.025": 0.0,
			"-0.024": 0.0,
			"-0.023": 0.0,
			"-0.022": 0.0,
			"-0.021": 0.0,
			"-0.02": 0.0,
			"-0.019": 0.0,
			"-0.018": 0.0,
			"-0.017": 0.0,
			"-0.016": 1.04203230102,
			"-0.015": 2.76464220416,
			"-0.014": 2.52009829109,
			"-0.013": 1.95722134915,
			"-0.012": 2.38750707152,
			"-0.011": 2.78825123989,
			"-0.01": 2.77235234598,
			"-0.009": 4.0441870353,
			"-0.008": 3.97128603112,
			"-0.007": 7.22245227199,
			"-0.006": 10.4479843245,
			"-0.005": 20.5407126538,
			"-0.004": 19.6671824484,
			"-0.003": 21.499048438,
			"-0.002": 15.3860207862,
			"-0.001": 14.3671559631,
			"0.0": 15.9067851727,
			"0.001": 17.9289178203,
			"0.002": 16.9848356662,
			"0.003": 17.867899738,
			"0.004": 15.9773336198,
			"0.005": 17.0935342184,
			"0.006": 17.7564363887,
			"0.007": 4.67000513975,
			"0.008": 1.80569045643,
			"0.009": 1.82435348987,
			"0.01": 1.31785239819,
			"0.011": 2.29626461936,
			"0.012": 2.55534870469,
			"0.013": 3.69350861624,
			"0.014": 7.59004789206,
			"0.015": 1.7067675911,
			"0.016": 0.0,
			"0.017": 0.0,
			"0.018": 0.0,
			"0.019": 0.0,
			"0.02": 0.0,
			"0.021": 0.0,
			"0.022": 0.0,
			"0.023": 0.0,
			"0.024": 0.0,
			"0.025": 0.0
		}
	}
}
