{
	 "smiles": "NC1=C(Cl)C=C(F)C=C1Cl", 
	 "Tm": 329.15, 
	 "num_atms": 14, 
	 "gaussian": { 
		 "optdone": 1, 
		 "sigma_profile": "yes", 
		 "theory": "DFT", 
		 "functional": "B3LYP", 
		 "basiset": "6-31G**", 
		 "properties": { 
			 "R2extent": 2538.8618, 
			 "electric_dipole_moment_norm": 1.55459229703, 
			 "electric_quadrupole_moment_norm": 4.24848823819, 
			 "total_energy": -1306.02065801, 
			 "HOMO_LUMO_gap": 0.1881, 
			 "cosmo_polarized_energy": -5.71, 
			 "cosmo_cavitation_energy": 22.06, 
			 "cosmo_dispersion_energy": -16.84, 
			 "cosmo_repulsion_energy": 1.34, 
			 "cosmo_total_nonelectrostatic_energy": 6.55, 
			 "SMD_solvation_energy": 3.68 
		},
		"coords": [
			{
				"x": -0.6806177886,
				"y": 1.8126038956,
				"z": 0.1746804117,
				"element": "N" 
			},
			{
				"x": -0.8630833453,
				"y": 0.5443356103,
				"z": -0.3373698305,
				"element": "C" 
			},
			{
				"x": -0.6854763787,
				"y": -0.6162158079,
				"z": 0.4462297351,
				"element": "C" 
			},
			{
				"x": -0.131147593,
				"y": -0.4310124893,
				"z": 2.1057174621,
				"element": "Cl" 
			},
			{
				"x": -0.9238751533,
				"y": -1.8991260767,
				"z": -0.0360459572,
				"element": "C" 
			},
			{
				"x": -1.3537551106,
				"y": -2.0434908148,
				"z": -1.3479148029,
				"element": "C" 
			},
			{
				"x": -1.5902265707,
				"y": -3.2808316379,
				"z": -1.830548163,
				"element": "F" 
			},
			{
				"x": -1.5425114273,
				"y": -0.9459877795,
				"z": -2.1764759357,
				"element": "C" 
			},
			{
				"x": -1.2950318132,
				"y": 0.3229582924,
				"z": -1.6628371504,
				"element": "C" 
			},
			{
				"x": -1.5241171244,
				"y": 1.7151821883,
				"z": -2.7138885456,
				"element": "Cl" 
			},
			{
				"x": -0.5338083937,
				"y": 2.5450697567,
				"z": -0.5041570049,
				"element": "H" 
			},
			{
				"x": -0.099747071,
				"y": 1.8762257964,
				"z": 0.9977397013,
				"element": "H" 
			},
			{
				"x": -0.7772528052,
				"y": -2.7678955765,
				"z": 0.5935052514,
				"element": "H" 
			},
			{
				"x": -1.873349425,
				"y": -1.079115357,
				"z": -3.1989351713,
				"element": "H" 
			}
		],
		 "valence_orbital": [ 
			{
				"type": "occ",
				"energy": -0.33241,
				"method": "rhf"
			},
			{
				"type": "occ",
				"energy": -0.32571,
				"method": "rhf"
			},
			{
				"type": "occ",
				"energy": -0.31857,
				"method": "rhf"
			},
			{
				"type": "occ",
				"energy": -0.25824,
				"method": "rhf"
			},
			{
				"type": "occ",
				"energy": -0.21703,
				"method": "rhf"
			},
			{
				"type": "unocc",
				"energy": -0.02893,
				"method": "rhf"
			},
			{
				"type": "unocc",
				"energy": -0.00382,
				"method": "rhf"
			},
			{
				"type": "unocc",
				"energy": 0.00057,
				"method": "rhf"
			},
			{
				"type": "unocc",
				"energy": 0.04525,
				"method": "rhf"
			},
			{
				"type": "unocc",
				"energy": 0.08703,
				"method": "rhf"
			}
		],
		"cosmo_sigma_profile": { 
			"-0.025": 0.0,
			"-0.024": 0.0,
			"-0.023": 0.0,
			"-0.022": 0.0,
			"-0.021": 0.0,
			"-0.02": 0.0,
			"-0.019": 0.0,
			"-0.018": 0.0,
			"-0.017": 0.0,
			"-0.016": 0.0,
			"-0.015": 0.0,
			"-0.014": 0.0,
			"-0.013": 0.383873968244,
			"-0.012": 1.52618955768,
			"-0.011": 2.0111613282,
			"-0.01": 2.63661096108,
			"-0.009": 2.71836717405,
			"-0.008": 4.40643600089,
			"-0.007": 5.08927891911,
			"-0.006": 4.27285195728,
			"-0.005": 5.57818651565,
			"-0.004": 5.10190215451,
			"-0.003": 6.35370593665,
			"-0.002": 9.50225127363,
			"-0.001": 12.2080978278,
			"0.0": 16.7840231478,
			"0.001": 27.1482839246,
			"0.002": 25.884439951,
			"0.003": 17.6723432463,
			"0.004": 23.2768972975,
			"0.005": 4.51315237648,
			"0.006": 1.07626040256,
			"0.007": 1.02568311091,
			"0.008": 0.553007353229,
			"0.009": 0.496870292722,
			"0.01": 0.422879510347,
			"0.011": 0.715761345798,
			"0.012": 0.388715304107,
			"0.013": 0.0,
			"0.014": 0.0,
			"0.015": 0.0,
			"0.016": 0.0,
			"0.017": 0.0,
			"0.018": 0.0,
			"0.019": 0.0,
			"0.02": 0.0,
			"0.021": 0.0,
			"0.022": 0.0,
			"0.023": 0.0,
			"0.024": 0.0,
			"0.025": 0.0
		}
	}
}
