{
	 "smiles": "COC(=O)C1=C(N)C(C)=CS1", 
	 "Tm": 359.65, 
	 "num_atms": 20, 
	 "gaussian": { 
		 "optdone": 1, 
		 "sigma_profile": "yes", 
		 "theory": "DFT", 
		 "functional": "B3LYP", 
		 "basiset": "6-31G**", 
		 "properties": { 
			 "R2extent": 3045.3807, 
			 "electric_dipole_moment_norm": 4.3670952291, 
			 "electric_quadrupole_moment_norm": 18.6553565696, 
			 "total_energy": -875.564462461, 
			 "HOMO_LUMO_gap": 0.17084, 
			 "cosmo_polarized_energy": -12.75, 
			 "cosmo_cavitation_energy": 25.27, 
			 "cosmo_dispersion_energy": -19.27, 
			 "cosmo_repulsion_energy": 1.51, 
			 "cosmo_total_nonelectrostatic_energy": 7.51, 
			 "SMD_solvation_energy": 5.73 
		},
		"coords": [
			{
				"x": -1.8332737932,
				"y": 3.4595950675,
				"z": 3.0059308339,
				"element": "C" 
			},
			{
				"x": -1.3384428127,
				"y": 2.3558433207,
				"z": 2.2324142158,
				"element": "O" 
			},
			{
				"x": -2.2488456124,
				"y": 1.8109010949,
				"z": 1.3611104227,
				"element": "C" 
			},
			{
				"x": -3.3866546252,
				"y": 2.2357712571,
				"z": 1.2628104465,
				"element": "O" 
			},
			{
				"x": -1.6972665998,
				"y": 0.6999264835,
				"z": 0.6087942765,
				"element": "C" 
			},
			{
				"x": -0.4286563883,
				"y": 0.1241598454,
				"z": 0.635715448,
				"element": "C" 
			},
			{
				"x": 0.6440934529,
				"y": 0.5743927308,
				"z": 1.3718890551,
				"element": "N" 
			},
			{
				"x": -0.3156945573,
				"y": -0.9986742098,
				"z": -0.2626177482,
				"element": "C" 
			},
			{
				"x": 0.9513618006,
				"y": -1.7892637544,
				"z": -0.4297013027,
				"element": "C" 
			},
			{
				"x": -1.4869379462,
				"y": -1.2248431898,
				"z": -0.9332172895,
				"element": "C" 
			},
			{
				"x": -2.750776201,
				"y": -0.1214537256,
				"z": -0.5282749672,
				"element": "S" 
			},
			{
				"x": -2.1595737958,
				"y": 4.2723966693,
				"z": 2.3527273653,
				"element": "H" 
			},
			{
				"x": -2.6768156956,
				"y": 3.1493618038,
				"z": 3.6276943675,
				"element": "H" 
			},
			{
				"x": -0.9979188845,
				"y": 3.7819525276,
				"z": 3.6283563289,
				"element": "H" 
			},
			{
				"x": 1.3466720874,
				"y": -0.1089198647,
				"z": 1.6115746236,
				"element": "H" 
			},
			{
				"x": 0.4219001298,
				"y": 1.243929835,
				"z": 2.0954132416,
				"element": "H" 
			},
			{
				"x": 0.8336823808,
				"y": -2.5648507278,
				"z": -1.1903671101,
				"element": "H" 
			},
			{
				"x": 1.786126243,
				"y": -1.1450773373,
				"z": -0.7319956247,
				"element": "H" 
			},
			{
				"x": 1.2471967796,
				"y": -2.2899108355,
				"z": 0.5024370359,
				"element": "H" 
			},
			{
				"x": -1.6659759621,
				"y": -1.9995369906,
				"z": -1.6676936187,
				"element": "H" 
			}
		],
		 "valence_orbital": [ 
			{
				"type": "occ",
				"energy": -0.31767,
				"method": "rhf"
			},
			{
				"type": "occ",
				"energy": -0.29446,
				"method": "rhf"
			},
			{
				"type": "occ",
				"energy": -0.26632,
				"method": "rhf"
			},
			{
				"type": "occ",
				"energy": -0.23402,
				"method": "rhf"
			},
			{
				"type": "occ",
				"energy": -0.20475,
				"method": "rhf"
			},
			{
				"type": "unocc",
				"energy": -0.03391,
				"method": "rhf"
			},
			{
				"type": "unocc",
				"energy": 0.03599,
				"method": "rhf"
			},
			{
				"type": "unocc",
				"energy": 0.04375,
				"method": "rhf"
			},
			{
				"type": "unocc",
				"energy": 0.07033,
				"method": "rhf"
			},
			{
				"type": "unocc",
				"energy": 0.10568,
				"method": "rhf"
			}
		],
		"cosmo_sigma_profile": { 
			"-0.025": 0.0,
			"-0.024": 0.0,
			"-0.023": 0.0,
			"-0.022": 0.0,
			"-0.021": 0.0,
			"-0.02": 0.0,
			"-0.019": 0.0,
			"-0.018": 0.0,
			"-0.017": 0.0,
			"-0.016": 0.0,
			"-0.015": 0.0,
			"-0.014": 0.0,
			"-0.013": 0.770420593266,
			"-0.012": 1.09020087372,
			"-0.011": 1.42311410241,
			"-0.01": 2.16487228364,
			"-0.009": 3.15658989034,
			"-0.008": 4.31906371565,
			"-0.007": 4.67717232023,
			"-0.006": 8.29535132308,
			"-0.005": 13.216237101,
			"-0.004": 16.0885090099,
			"-0.003": 18.0912162978,
			"-0.002": 12.253583017,
			"-0.001": 15.0279575891,
			"0.0": 13.7134586396,
			"0.001": 10.062847684,
			"0.002": 12.1958272569,
			"0.003": 15.7163159566,
			"0.004": 16.9379314346,
			"0.005": 9.01084662889,
			"0.006": 4.45119435628,
			"0.007": 2.34648345551,
			"0.008": 2.28635083957,
			"0.009": 2.39786983423,
			"0.01": 2.17261570442,
			"0.011": 2.92886443022,
			"0.012": 4.06340528379,
			"0.013": 3.75231756482,
			"0.014": 0.00240892344143,
			"0.015": 0.0,
			"0.016": 0.0,
			"0.017": 0.0,
			"0.018": 0.0,
			"0.019": 0.0,
			"0.02": 0.0,
			"0.021": 0.0,
			"0.022": 0.0,
			"0.023": 0.0,
			"0.024": 0.0,
			"0.025": 0.0
		}
	}
}
