{
	 "smiles": "C(C1CO1)N1C2=CC=CC=C2C2=C1C=CC=C2", 
	 "Tm": 384.15, 
	 "num_atms": 30, 
	 "gaussian": { 
		 "optdone": 1, 
		 "sigma_profile": "yes", 
		 "theory": "DFT", 
		 "functional": "B3LYP", 
		 "basiset": "6-31G**", 
		 "properties": { 
			 "R2extent": 4318.9043, 
			 "electric_dipole_moment_norm": 0.689147720014, 
			 "electric_quadrupole_moment_norm": 8.6794685206, 
			 "total_energy": -709.379301517, 
			 "HOMO_LUMO_gap": 0.17264, 
			 "cosmo_polarized_energy": -10.3, 
			 "cosmo_cavitation_energy": 33.39, 
			 "cosmo_dispersion_energy": -23.72, 
			 "cosmo_repulsion_energy": 1.8, 
			 "cosmo_total_nonelectrostatic_energy": 11.47, 
			 "SMD_solvation_energy": 4.74 
		},
		"coords": [
			{
				"x": -2.1724006408,
				"y": 0.3873754049,
				"z": -1.276954208,
				"element": "C" 
			},
			{
				"x": -1.3134474456,
				"y": 1.1019989483,
				"z": -2.3071719057,
				"element": "C" 
			},
			{
				"x": -1.1750062456,
				"y": 2.5642740443,
				"z": -2.3280663093,
				"element": "C" 
			},
			{
				"x": -2.0351770299,
				"y": 1.890053149,
				"z": -3.2575914984,
				"element": "O" 
			},
			{
				"x": -1.3973334256,
				"y": -0.2125052154,
				"z": -0.2080090199,
				"element": "N" 
			},
			{
				"x": -0.829679834,
				"y": -1.4846906743,
				"z": -0.241325398,
				"element": "C" 
			},
			{
				"x": -0.9043124557,
				"y": -2.4641516661,
				"z": -1.236646706,
				"element": "C" 
			},
			{
				"x": -0.2461858294,
				"y": -3.6716857085,
				"z": -1.0093518023,
				"element": "C" 
			},
			{
				"x": 0.4735693112,
				"y": -3.9019084861,
				"z": 0.1755956554,
				"element": "C" 
			},
			{
				"x": 0.5484583824,
				"y": -2.9216015219,
				"z": 1.1617292857,
				"element": "C" 
			},
			{
				"x": -0.1038721975,
				"y": -1.6998822977,
				"z": 0.9603064316,
				"element": "C" 
			},
			{
				"x": -0.2358687682,
				"y": -0.490972559,
				"z": 1.7468647188,
				"element": "C" 
			},
			{
				"x": -1.0349432722,
				"y": 0.4049748952,
				"z": 0.9873569497,
				"element": "C" 
			},
			{
				"x": -1.3594120231,
				"y": 1.6780339084,
				"z": 1.4657938267,
				"element": "C" 
			},
			{
				"x": -0.8752207774,
				"y": 2.0446063609,
				"z": 2.7202747433,
				"element": "C" 
			},
			{
				"x": -0.0832745519,
				"y": 1.1699903988,
				"z": 3.4837898855,
				"element": "C" 
			},
			{
				"x": 0.238512636,
				"y": -0.0965307152,
				"z": 3.0031466124,
				"element": "C" 
			},
			{
				"x": -2.8980504125,
				"y": 1.0872010783,
				"z": -0.8516777173,
				"element": "H" 
			},
			{
				"x": -2.7493077728,
				"y": -0.4009242324,
				"z": -1.7726536248,
				"element": "H" 
			},
			{
				"x": -0.5059294072,
				"y": 0.500537374,
				"z": -2.729456359,
				"element": "H" 
			},
			{
				"x": -1.6830125467,
				"y": 3.1653182918,
				"z": -1.5737681825,
				"element": "H" 
			},
			{
				"x": -0.2823360376,
				"y": 3.0172990925,
				"z": -2.758226346,
				"element": "H" 
			},
			{
				"x": -1.4508510462,
				"y": -2.2991087391,
				"z": -2.1599615222,
				"element": "H" 
			},
			{
				"x": -0.2900681629,
				"y": -4.4483812681,
				"z": -1.7673509457,
				"element": "H" 
			},
			{
				"x": 0.9763234074,
				"y": -4.8532713969,
				"z": 0.3202543033,
				"element": "H" 
			},
			{
				"x": 1.1067627575,
				"y": -3.1021138375,
				"z": 2.0761351701,
				"element": "H" 
			},
			{
				"x": -1.9670058262,
				"y": 2.366104878,
				"z": 0.8868537803,
				"element": "H" 
			},
			{
				"x": -1.1149620278,
				"y": 3.0286575698,
				"z": 3.1127079067,
				"element": "H" 
			},
			{
				"x": 0.2798163746,
				"y": 1.487377373,
				"z": 4.4565188174,
				"element": "H" 
			},
			{
				"x": 0.8503148677,
				"y": -0.7711744488,
				"z": 3.5955834581,
				"element": "H" 
			}
		],
		 "valence_orbital": [ 
			{
				"type": "occ",
				"energy": -0.28054,
				"method": "rhf"
			},
			{
				"type": "occ",
				"energy": -0.27653,
				"method": "rhf"
			},
			{
				"type": "occ",
				"energy": -0.25212,
				"method": "rhf"
			},
			{
				"type": "occ",
				"energy": -0.2133,
				"method": "rhf"
			},
			{
				"type": "occ",
				"energy": -0.20118,
				"method": "rhf"
			},
			{
				"type": "unocc",
				"energy": -0.02854,
				"method": "rhf"
			},
			{
				"type": "unocc",
				"energy": 0.00522,
				"method": "rhf"
			},
			{
				"type": "unocc",
				"energy": 0.02656,
				"method": "rhf"
			},
			{
				"type": "unocc",
				"energy": 0.04181,
				"method": "rhf"
			},
			{
				"type": "unocc",
				"energy": 0.07423,
				"method": "rhf"
			}
		],
		"cosmo_sigma_profile": { 
			"-0.025": 0.0,
			"-0.024": 0.0,
			"-0.023": 0.0,
			"-0.022": 0.0,
			"-0.021": 0.0,
			"-0.02": 0.0,
			"-0.019": 0.0,
			"-0.018": 0.0,
			"-0.017": 0.0,
			"-0.016": 0.0,
			"-0.015": 0.0,
			"-0.014": 0.0,
			"-0.013": 0.0,
			"-0.012": 0.0,
			"-0.011": 0.0,
			"-0.01": 0.0,
			"-0.009": 0.21693140137,
			"-0.008": 2.36818150425,
			"-0.007": 7.67869363764,
			"-0.006": 17.0933301995,
			"-0.005": 25.6945833957,
			"-0.004": 25.351971143,
			"-0.003": 24.1613946555,
			"-0.002": 17.5392314041,
			"-0.001": 16.2254594199,
			"0.0": 13.892901944,
			"0.001": 13.4511231705,
			"0.002": 13.5050047366,
			"0.003": 16.7093138182,
			"0.004": 18.1784433301,
			"0.005": 19.6503792919,
			"0.006": 17.7994244029,
			"0.007": 6.48946527954,
			"0.008": 1.35610228009,
			"0.009": 1.40713574523,
			"0.01": 1.94497547242,
			"0.011": 3.65579009352,
			"0.012": 2.25821901634,
			"0.013": 0.307582303792,
			"0.014": 0.0,
			"0.015": 0.0,
			"0.016": 0.0,
			"0.017": 0.0,
			"0.018": 0.0,
			"0.019": 0.0,
			"0.02": 0.0,
			"0.021": 0.0,
			"0.022": 0.0,
			"0.023": 0.0,
			"0.024": 0.0,
			"0.025": 0.0
		}
	}
}
