{
	 "smiles": "CC(CN(CC(O)=O)CC(O)=O)N(CC(O)=O)CC(O)=O", 
	 "Tm": 515.15, 
	 "num_atms": 39, 
	 "gaussian": { 
		 "optdone": 1, 
		 "sigma_profile": "yes", 
		 "theory": "DFT", 
		 "functional": "B3LYP", 
		 "basiset": "6-31G**", 
		 "properties": { 
			 "R2extent": 8051.108, 
			 "electric_dipole_moment_norm": 8.50564837329, 
			 "electric_quadrupole_moment_norm": 36.3445630012, 
			 "total_energy": -1141.32899868, 
			 "HOMO_LUMO_gap": 0.20812, 
			 "cosmo_polarized_energy": -42.92, 
			 "cosmo_cavitation_energy": 42.26, 
			 "cosmo_dispersion_energy": -28.04, 
			 "cosmo_repulsion_energy": 2.17, 
			 "cosmo_total_nonelectrostatic_energy": 16.39, 
			 "SMD_solvation_energy": 11.65 
		},
		"coords": [
			{
				"x": -0.5279674173,
				"y": 0.9337350091,
				"z": 1.9773064471,
				"element": "C" 
			},
			{
				"x": -0.1402634429,
				"y": 0.1738870201,
				"z": 0.7043614815,
				"element": "C" 
			},
			{
				"x": -1.3087087137,
				"y": 0.0365747226,
				"z": -0.3041688202,
				"element": "C" 
			},
			{
				"x": -1.8823507183,
				"y": 1.3174440524,
				"z": -0.7573233859,
				"element": "N" 
			},
			{
				"x": -1.0240541465,
				"y": 2.1204104464,
				"z": -1.6406187323,
				"element": "C" 
			},
			{
				"x": -1.1228306028,
				"y": 3.6214066453,
				"z": -1.3199016412,
				"element": "C" 
			},
			{
				"x": -1.7266810279,
				"y": 3.8867435704,
				"z": -0.1459281312,
				"element": "O" 
			},
			{
				"x": -0.6784243794,
				"y": 4.4758012008,
				"z": -2.045424413,
				"element": "O" 
			},
			{
				"x": -3.249479031,
				"y": 1.2059551596,
				"z": -1.2507669506,
				"element": "C" 
			},
			{
				"x": -3.4272797191,
				"y": 0.3743072368,
				"z": -2.5212108263,
				"element": "C" 
			},
			{
				"x": -4.7240882506,
				"y": 0.3432659844,
				"z": -2.8906574487,
				"element": "O" 
			},
			{
				"x": -2.5461732641,
				"y": -0.1915398089,
				"z": -3.1312896074,
				"element": "O" 
			},
			{
				"x": 0.420151064,
				"y": -1.1546539844,
				"z": 1.0006111062,
				"element": "N" 
			},
			{
				"x": -0.3051200398,
				"y": -2.0534720674,
				"z": 1.878730891,
				"element": "C" 
			},
			{
				"x": 0.0256619498,
				"y": -1.9388450603,
				"z": 3.3828890853,
				"element": "C" 
			},
			{
				"x": 1.217911828,
				"y": -1.4264322063,
				"z": 3.7015770598,
				"element": "O" 
			},
			{
				"x": -0.7610579988,
				"y": -2.3267740355,
				"z": 4.2161258108,
				"element": "O" 
			},
			{
				"x": 1.3828851112,
				"y": -1.6808449885,
				"z": 0.07643768,
				"element": "C" 
			},
			{
				"x": 2.8362705685,
				"y": -1.4677521284,
				"z": 0.5417916219,
				"element": "C" 
			},
			{
				"x": 3.7951400364,
				"y": -1.740724313,
				"z": -0.3646534033,
				"element": "O" 
			},
			{
				"x": 3.136749016,
				"y": -1.1025412748,
				"z": 1.6551936332,
				"element": "O" 
			},
			{
				"x": -0.792800385,
				"y": 1.9654014732,
				"z": 1.7364474847,
				"element": "H" 
			},
			{
				"x": -1.3853687837,
				"y": 0.4766030678,
				"z": 2.4823172937,
				"element": "H" 
			},
			{
				"x": 0.3083280729,
				"y": 0.9540643853,
				"z": 2.6791431624,
				"element": "H" 
			},
			{
				"x": 0.6743689708,
				"y": 0.7366324766,
				"z": 0.2313074931,
				"element": "H" 
			},
			{
				"x": -2.1159718594,
				"y": -0.5148017374,
				"z": 0.1911010854,
				"element": "H" 
			},
			{
				"x": -0.9854928739,
				"y": -0.573730243,
				"z": -1.1583804024,
				"element": "H" 
			},
			{
				"x": 0.0223688156,
				"y": 1.8390151024,
				"z": -1.4929981683,
				"element": "H" 
			},
			{
				"x": -1.2324997991,
				"y": 1.9757314132,
				"z": -2.705927636,
				"element": "H" 
			},
			{
				"x": -1.9852366576,
				"y": 3.0072270014,
				"z": 0.2099682681,
				"element": "H" 
			},
			{
				"x": -3.6541514016,
				"y": 2.2061364084,
				"z": -1.4479514426,
				"element": "H" 
			},
			{
				"x": -3.8898332587,
				"y": 0.7709015978,
				"z": -0.4748792422,
				"element": "H" 
			},
			{
				"x": -4.775795265,
				"y": -0.1919357608,
				"z": -3.7010896842,
				"element": "H" 
			},
			{
				"x": -0.0947282734,
				"y": -3.0918853145,
				"z": 1.5948913913,
				"element": "H" 
			},
			{
				"x": -1.3919568592,
				"y": -1.9374013623,
				"z": 1.8026193373,
				"element": "H" 
			},
			{
				"x": 1.7429127157,
				"y": -1.1979301244,
				"z": 2.9009913541,
				"element": "H" 
			},
			{
				"x": 1.2496383669,
				"y": -2.7631924391,
				"z": -0.0668588808,
				"element": "H" 
			},
			{
				"x": 1.2729511675,
				"y": -1.2335995607,
				"z": -0.9236357763,
				"element": "H" 
			},
			{
				"x": 3.4039764852,
				"y": -1.9999875646,
				"z": -1.2125470939,
				"element": "H" 
			}
		],
		 "valence_orbital": [ 
			{
				"type": "occ",
				"energy": -0.29877,
				"method": "rhf"
			},
			{
				"type": "occ",
				"energy": -0.28415,
				"method": "rhf"
			},
			{
				"type": "occ",
				"energy": -0.27439,
				"method": "rhf"
			},
			{
				"type": "occ",
				"energy": -0.25685,
				"method": "rhf"
			},
			{
				"type": "occ",
				"energy": -0.23496,
				"method": "rhf"
			},
			{
				"type": "unocc",
				"energy": -0.02684,
				"method": "rhf"
			},
			{
				"type": "unocc",
				"energy": -0.02273,
				"method": "rhf"
			},
			{
				"type": "unocc",
				"energy": 0.00462,
				"method": "rhf"
			},
			{
				"type": "unocc",
				"energy": 0.01652,
				"method": "rhf"
			},
			{
				"type": "unocc",
				"energy": 0.02359,
				"method": "rhf"
			}
		],
		"cosmo_sigma_profile": { 
			"-0.025": 0.0,
			"-0.024": 0.0,
			"-0.023": 0.0,
			"-0.022": 0.0,
			"-0.021": 0.0,
			"-0.02": 0.434993626542,
			"-0.019": 1.53661045104,
			"-0.018": 1.90514185995,
			"-0.017": 3.0446655496,
			"-0.016": 1.84211822989,
			"-0.015": 1.26026451841,
			"-0.014": 2.12622772104,
			"-0.013": 2.38811441446,
			"-0.012": 1.29722311785,
			"-0.011": 2.31713917392,
			"-0.01": 4.16095978556,
			"-0.009": 13.6812472265,
			"-0.008": 18.4949073085,
			"-0.007": 19.1997669016,
			"-0.006": 17.1417718286,
			"-0.005": 17.1662562947,
			"-0.004": 16.3494774986,
			"-0.003": 17.1080122698,
			"-0.002": 17.9505930079,
			"-0.001": 15.8330389585,
			"0.0": 14.5789417136,
			"0.001": 10.9114921029,
			"0.002": 9.52889369716,
			"0.003": 8.14360563991,
			"0.004": 8.65884143189,
			"0.005": 8.8059409902,
			"0.006": 9.3504315849,
			"0.007": 8.86736779054,
			"0.008": 11.2272077672,
			"0.009": 12.8926616739,
			"0.01": 13.5574884835,
			"0.011": 15.2597223679,
			"0.012": 14.1113873117,
			"0.013": 8.26426672838,
			"0.014": 2.13649433201,
			"0.015": 0.0595728191639,
			"0.016": 0.0,
			"0.017": 0.0,
			"0.018": 0.0,
			"0.019": 0.0,
			"0.02": 0.0,
			"0.021": 0.0,
			"0.022": 0.0,
			"0.023": 0.0,
			"0.024": 0.0,
			"0.025": 0.0
		}
	}
}
