{
	 "smiles": "BrC1=CC=C(OC2=CC=C(Br)C(Br)=C2)C=C1Br", 
	 "Tm": 367.65, 
	 "num_atms": 23, 
	 "gaussian": { 
		 "optdone": 1, 
		 "sigma_profile": "yes", 
		 "theory": "DFT", 
		 "functional": "B3LYP", 
		 "basiset": "6-31G**", 
		 "properties": { 
			 "R2extent": 15953.6923, 
			 "electric_dipole_moment_norm": 2.36137671073, 
			 "electric_quadrupole_moment_norm": 12.8556273013, 
			 "total_energy": -10821.7117722, 
			 "HOMO_LUMO_gap": 0.19386, 
			 "cosmo_polarized_energy": -7.25, 
			 "cosmo_cavitation_energy": 37.5, 
			 "cosmo_dispersion_energy": -28.18, 
			 "cosmo_repulsion_energy": 2.21, 
			 "cosmo_total_nonelectrostatic_energy": 11.53, 
			 "SMD_solvation_energy": 2.2 
		},
		"coords": [
			{
				"x": -2.0164796027,
				"y": -1.6023647242,
				"z": 3.0942707561,
				"element": "Br" 
			},
			{
				"x": -1.1409747802,
				"y": -0.2919361833,
				"z": 2.0327160991,
				"element": "C" 
			},
			{
				"x": -0.471384127,
				"y": 0.748702101,
				"z": 2.6823852785,
				"element": "C" 
			},
			{
				"x": 0.1960587493,
				"y": 1.7295347517,
				"z": 1.9569419413,
				"element": "C" 
			},
			{
				"x": 0.1885176898,
				"y": 1.6747651193,
				"z": 0.5623489579,
				"element": "C" 
			},
			{
				"x": 0.797425972,
				"y": 2.7162280003,
				"z": -0.1051365023,
				"element": "O" 
			},
			{
				"x": 1.4885258609,
				"y": 2.5063780534,
				"z": -1.2795638388,
				"element": "C" 
			},
			{
				"x": 1.414503027,
				"y": 3.5134783684,
				"z": -2.2430179616,
				"element": "C" 
			},
			{
				"x": 2.1546957766,
				"y": 3.3937593617,
				"z": -3.414141977,
				"element": "C" 
			},
			{
				"x": 2.9633311593,
				"y": 2.2763345657,
				"z": -3.6395729679,
				"element": "C" 
			},
			{
				"x": 3.9328235816,
				"y": 2.1791952754,
				"z": -5.2709649358,
				"element": "Br" 
			},
			{
				"x": 3.0319341705,
				"y": 1.2733658303,
				"z": -2.6654820889,
				"element": "C" 
			},
			{
				"x": 4.1164064192,
				"y": -0.2726511966,
				"z": -2.8837808823,
				"element": "Br" 
			},
			{
				"x": 2.2999039996,
				"y": 1.3891106108,
				"z": -1.4825746741,
				"element": "C" 
			},
			{
				"x": -0.4850347319,
				"y": 0.6496398906,
				"z": -0.1034158001,
				"element": "C" 
			},
			{
				"x": -1.1441957345,
				"y": -0.3356820194,
				"z": 0.6335705332,
				"element": "C" 
			},
			{
				"x": -2.0405283191,
				"y": -1.7069577177,
				"z": -0.3309217053,
				"element": "Br" 
			},
			{
				"x": -0.4714575942,
				"y": 0.7800965704,
				"z": 3.7657430908,
				"element": "H" 
			},
			{
				"x": 0.7189957232,
				"y": 2.5380291595,
				"z": 2.4553566748,
				"element": "H" 
			},
			{
				"x": 0.7840099271,
				"y": 4.3770479465,
				"z": -2.063391804,
				"element": "H" 
			},
			{
				"x": 2.1044328681,
				"y": 4.168905765,
				"z": -4.1699602169,
				"element": "H" 
			},
			{
				"x": 2.3698845127,
				"y": 0.6141078583,
				"z": -0.7297057133,
				"element": "H" 
			},
			{
				"x": -0.5042945474,
				"y": 0.614112613,
				"z": -1.1854022634,
				"element": "H" 
			}
		],
		 "valence_orbital": [ 
			{
				"type": "occ",
				"energy": -0.28269,
				"method": "rhf"
			},
			{
				"type": "occ",
				"energy": -0.27054,
				"method": "rhf"
			},
			{
				"type": "occ",
				"energy": -0.26212,
				"method": "rhf"
			},
			{
				"type": "occ",
				"energy": -0.25217,
				"method": "rhf"
			},
			{
				"type": "occ",
				"energy": -0.23482,
				"method": "rhf"
			},
			{
				"type": "unocc",
				"energy": -0.04096,
				"method": "rhf"
			},
			{
				"type": "unocc",
				"energy": -0.0365,
				"method": "rhf"
			},
			{
				"type": "unocc",
				"energy": -0.03002,
				"method": "rhf"
			},
			{
				"type": "unocc",
				"energy": -0.02809,
				"method": "rhf"
			},
			{
				"type": "unocc",
				"energy": -0.02566,
				"method": "rhf"
			}
		],
		"cosmo_sigma_profile": { 
			"-0.025": 0.0,
			"-0.024": 0.0,
			"-0.023": 0.0,
			"-0.022": 0.0,
			"-0.021": 0.0,
			"-0.02": 0.0,
			"-0.019": 0.0,
			"-0.018": 0.0,
			"-0.017": 0.0,
			"-0.016": 0.0,
			"-0.015": 0.0,
			"-0.014": 0.0,
			"-0.013": 0.0,
			"-0.012": 0.0,
			"-0.011": 0.0,
			"-0.01": 0.0,
			"-0.009": 0.303288000949,
			"-0.008": 6.94076803705,
			"-0.007": 10.6740191456,
			"-0.006": 10.6240384438,
			"-0.005": 14.3011180628,
			"-0.004": 15.7020785275,
			"-0.003": 16.7326017009,
			"-0.002": 17.7855519719,
			"-0.001": 21.0957750826,
			"0.0": 35.0463089467,
			"0.001": 49.9110591216,
			"0.002": 34.0736139678,
			"0.003": 30.9397629411,
			"0.004": 36.5329743346,
			"0.005": 11.4783062388,
			"0.006": 2.13541038251,
			"0.007": 0.89673495068,
			"0.008": 0.34283278519,
			"0.009": 0.0,
			"0.01": 0.0,
			"0.011": 0.0,
			"0.012": 0.0,
			"0.013": 0.0,
			"0.014": 0.0,
			"0.015": 0.0,
			"0.016": 0.0,
			"0.017": 0.0,
			"0.018": 0.0,
			"0.019": 0.0,
			"0.02": 0.0,
			"0.021": 0.0,
			"0.022": 0.0,
			"0.023": 0.0,
			"0.024": 0.0,
			"0.025": 0.0
		}
	}
}
