{
	 "smiles": "CSC(C)C", 
	 "Tm": 171.15, 
	 "num_atms": 15, 
	 "gaussian": { 
		 "optdone": 1, 
		 "sigma_profile": "yes", 
		 "theory": "DFT", 
		 "functional": "B3LYP", 
		 "basiset": "6-31G**", 
		 "properties": { 
			 "R2extent": 1128.5151, 
			 "electric_dipole_moment_norm": 1.74425774758, 
			 "electric_quadrupole_moment_norm": 7.74115505464, 
			 "total_energy": -556.649965101, 
			 "HOMO_LUMO_gap": 0.26245, 
			 "cosmo_polarized_energy": -4.13, 
			 "cosmo_cavitation_energy": 18.34, 
			 "cosmo_dispersion_energy": -13.93, 
			 "cosmo_repulsion_energy": 1.16, 
			 "cosmo_total_nonelectrostatic_energy": 5.56, 
			 "SMD_solvation_energy": 3.32 
		},
		"coords": [
			{
				"x": 0.1280956699,
				"y": 1.7957517279,
				"z": -1.2385401638,
				"element": "C" 
			},
			{
				"x": -0.1911944008,
				"y": 0.5487678007,
				"z": -2.5354317291,
				"element": "S" 
			},
			{
				"x": 0.4578344823,
				"y": -1.0120409837,
				"z": -1.7757433535,
				"element": "C" 
			},
			{
				"x": 1.96963257,
				"y": -0.9691946926,
				"z": -1.5316800982,
				"element": "C" 
			},
			{
				"x": -0.3238361959,
				"y": -1.4340163692,
				"z": -0.527561998,
				"element": "C" 
			},
			{
				"x": -0.2395030446,
				"y": 2.7433857885,
				"z": -1.6386281606,
				"element": "H" 
			},
			{
				"x": -0.4153079596,
				"y": 1.5758406137,
				"z": -0.3165181906,
				"element": "H" 
			},
			{
				"x": 1.1945632086,
				"y": 1.9009625831,
				"z": -1.0256071588,
				"element": "H" 
			},
			{
				"x": 0.253848677,
				"y": -1.7339552262,
				"z": -2.5758397858,
				"element": "H" 
			},
			{
				"x": 2.2290327747,
				"y": -0.2405115329,
				"z": -0.7562686865,
				"element": "H" 
			},
			{
				"x": 2.3250411358,
				"y": -1.9485103633,
				"z": -1.1894115258,
				"element": "H" 
			},
			{
				"x": 2.5118492182,
				"y": -0.7049560398,
				"z": -2.4431581597,
				"element": "H" 
			},
			{
				"x": -1.3955437123,
				"y": -1.4973627101,
				"z": -0.7326068638,
				"element": "H" 
			},
			{
				"x": -0.1746001761,
				"y": -0.7272344485,
				"z": 0.2956764759,
				"element": "H" 
			},
			{
				"x": 0.0203877528,
				"y": -2.4154261477,
				"z": -0.1798806018,
				"element": "H" 
			}
		],
		 "valence_orbital": [ 
			{
				"type": "occ",
				"energy": -0.3699,
				"method": "rhf"
			},
			{
				"type": "occ",
				"energy": -0.3483,
				"method": "rhf"
			},
			{
				"type": "occ",
				"energy": -0.33019,
				"method": "rhf"
			},
			{
				"type": "occ",
				"energy": -0.29375,
				"method": "rhf"
			},
			{
				"type": "occ",
				"energy": -0.21448,
				"method": "rhf"
			},
			{
				"type": "unocc",
				"energy": 0.04797,
				"method": "rhf"
			},
			{
				"type": "unocc",
				"energy": 0.07484,
				"method": "rhf"
			},
			{
				"type": "unocc",
				"energy": 0.08963,
				"method": "rhf"
			},
			{
				"type": "unocc",
				"energy": 0.12016,
				"method": "rhf"
			},
			{
				"type": "unocc",
				"energy": 0.12466,
				"method": "rhf"
			}
		],
		"cosmo_sigma_profile": { 
			"-0.025": 0.0,
			"-0.024": 0.0,
			"-0.023": 0.0,
			"-0.022": 0.0,
			"-0.021": 0.0,
			"-0.02": 0.0,
			"-0.019": 0.0,
			"-0.018": 0.0,
			"-0.017": 0.0,
			"-0.016": 0.0,
			"-0.015": 0.0,
			"-0.014": 0.0,
			"-0.013": 0.0,
			"-0.012": 0.0,
			"-0.011": 0.0,
			"-0.01": 0.0,
			"-0.009": 0.0,
			"-0.008": 0.0,
			"-0.007": 0.0,
			"-0.006": 1.13472061086,
			"-0.005": 5.11629285746,
			"-0.004": 11.8580757605,
			"-0.003": 21.8703077436,
			"-0.002": 19.9032656526,
			"-0.001": 20.6158506539,
			"0.0": 18.8696552969,
			"0.001": 14.1169943888,
			"0.002": 4.07072353764,
			"0.003": 3.10583832153,
			"0.004": 3.6173052887,
			"0.005": 2.24804395407,
			"0.006": 3.5166987304,
			"0.007": 3.91721904042,
			"0.008": 2.71033300807,
			"0.009": 2.23270858677,
			"0.01": 2.41023444684,
			"0.011": 1.90454297669,
			"0.012": 0.991289776689,
			"0.013": 0.00970061465203,
			"0.014": 0.0,
			"0.015": 0.0,
			"0.016": 0.0,
			"0.017": 0.0,
			"0.018": 0.0,
			"0.019": 0.0,
			"0.02": 0.0,
			"0.021": 0.0,
			"0.022": 0.0,
			"0.023": 0.0,
			"0.024": 0.0,
			"0.025": 0.0
		}
	}
}
