{
	 "smiles": "CCC(NC(=O)C1=CC=CC=C1)C#N", 
	 "Tm": 378.15, 
	 "num_atms": 26, 
	 "gaussian": { 
		 "optdone": 1, 
		 "sigma_profile": "yes", 
		 "theory": "DFT", 
		 "functional": "B3LYP", 
		 "basiset": "6-31G**", 
		 "properties": { 
			 "R2extent": 3594.0288, 
			 "electric_dipole_moment_norm": 6.46615707279, 
			 "electric_quadrupole_moment_norm": 20.6802815227, 
			 "total_energy": -611.124935827, 
			 "HOMO_LUMO_gap": 0.21068, 
			 "cosmo_polarized_energy": -20.37, 
			 "cosmo_cavitation_energy": 30.33, 
			 "cosmo_dispersion_energy": -21.23, 
			 "cosmo_repulsion_energy": 1.69, 
			 "cosmo_total_nonelectrostatic_energy": 10.79, 
			 "SMD_solvation_energy": 6.26 
		},
		"coords": [
			{
				"x": 1.975532561,
				"y": -2.8322995393,
				"z": -0.2429696552,
				"element": "C" 
			},
			{
				"x": 0.5252324786,
				"y": -2.8728502927,
				"z": -0.7279155215,
				"element": "C" 
			},
			{
				"x": -0.5172889265,
				"y": -2.1191002882,
				"z": 0.1399546588,
				"element": "C" 
			},
			{
				"x": -0.4181190091,
				"y": -0.6603026503,
				"z": 0.1148665488,
				"element": "N" 
			},
			{
				"x": 0.4455869249,
				"y": 0.0811374176,
				"z": 0.8867582135,
				"element": "C" 
			},
			{
				"x": 1.2532883938,
				"y": -0.4403870307,
				"z": 1.6460554509,
				"element": "O" 
			},
			{
				"x": 0.3418420833,
				"y": 1.5730537862,
				"z": 0.7349867095,
				"element": "C" 
			},
			{
				"x": -0.8062828836,
				"y": 2.2301281636,
				"z": 0.2692581294,
				"element": "C" 
			},
			{
				"x": -0.8271729412,
				"y": 3.6209867303,
				"z": 0.1633735367,
				"element": "C" 
			},
			{
				"x": 0.297645436,
				"y": 4.3662898081,
				"z": 0.5214741343,
				"element": "C" 
			},
			{
				"x": 1.4395232237,
				"y": 3.7182867714,
				"z": 0.9999951398,
				"element": "C" 
			},
			{
				"x": 1.4589263743,
				"y": 2.3303788638,
				"z": 1.1130167285,
				"element": "C" 
			},
			{
				"x": -0.5679339098,
				"y": -2.6508038801,
				"z": 1.5174183506,
				"element": "C" 
			},
			{
				"x": -0.6654757985,
				"y": -3.1593437435,
				"z": 2.5554883615,
				"element": "N" 
			},
			{
				"x": 2.367916037,
				"y": -1.8144427722,
				"z": -0.2178136404,
				"element": "H" 
			},
			{
				"x": 2.6026498814,
				"y": -3.4298458683,
				"z": -0.9125083926,
				"element": "H" 
			},
			{
				"x": 2.0655945223,
				"y": -3.242044194,
				"z": 0.7665298394,
				"element": "H" 
			},
			{
				"x": 0.1851230887,
				"y": -3.9139167996,
				"z": -0.7935509629,
				"element": "H" 
			},
			{
				"x": 0.4474691802,
				"y": -2.4546577591,
				"z": -1.7392684549,
				"element": "H" 
			},
			{
				"x": -1.5022107443,
				"y": -2.3456688923,
				"z": -0.2882112622,
				"element": "H" 
			},
			{
				"x": -0.9555362511,
				"y": -0.1897814998,
				"z": -0.5960052446,
				"element": "H" 
			},
			{
				"x": -1.7046805785,
				"y": 1.6693613242,
				"z": 0.025785307,
				"element": "H" 
			},
			{
				"x": -1.7242709597,
				"y": 4.1219362366,
				"z": -0.1882646601,
				"element": "H" 
			},
			{
				"x": 0.280793154,
				"y": 5.4490286208,
				"z": 0.4370241724,
				"element": "H" 
			},
			{
				"x": 2.3125784043,
				"y": 4.2963047838,
				"z": 1.2882401972,
				"element": "H" 
			},
			{
				"x": 2.3283702588,
				"y": 1.8070527038,
				"z": 1.4960823162,
				"element": "H" 
			}
		],
		 "valence_orbital": [ 
			{
				"type": "occ",
				"energy": -0.32025,
				"method": "rhf"
			},
			{
				"type": "occ",
				"energy": -0.27306,
				"method": "rhf"
			},
			{
				"type": "occ",
				"energy": -0.26638,
				"method": "rhf"
			},
			{
				"type": "occ",
				"energy": -0.26546,
				"method": "rhf"
			},
			{
				"type": "occ",
				"energy": -0.25551,
				"method": "rhf"
			},
			{
				"type": "unocc",
				"energy": -0.04483,
				"method": "rhf"
			},
			{
				"type": "unocc",
				"energy": -0.01686,
				"method": "rhf"
			},
			{
				"type": "unocc",
				"energy": 0.02499,
				"method": "rhf"
			},
			{
				"type": "unocc",
				"energy": 0.03661,
				"method": "rhf"
			},
			{
				"type": "unocc",
				"energy": 0.05227,
				"method": "rhf"
			}
		],
		"cosmo_sigma_profile": { 
			"-0.025": 0.0,
			"-0.024": 0.0,
			"-0.023": 0.0,
			"-0.022": 0.0,
			"-0.021": 0.0,
			"-0.02": 0.0,
			"-0.019": 0.0,
			"-0.018": 0.0,
			"-0.017": 0.0,
			"-0.016": 0.54130348971,
			"-0.015": 1.15422111672,
			"-0.014": 1.15617506828,
			"-0.013": 1.45220006371,
			"-0.012": 2.05169169015,
			"-0.011": 1.62134048228,
			"-0.01": 3.91527555904,
			"-0.009": 4.03647429003,
			"-0.008": 3.38641639013,
			"-0.007": 4.82050636574,
			"-0.006": 11.1902333209,
			"-0.005": 15.2137577036,
			"-0.004": 17.5307584563,
			"-0.003": 14.9978647185,
			"-0.002": 20.1402119252,
			"-0.001": 21.5519327495,
			"0.0": 16.7240940484,
			"0.001": 14.7092842231,
			"0.002": 11.0553913899,
			"0.003": 12.4625284407,
			"0.004": 15.4435991472,
			"0.005": 7.00126957404,
			"0.006": 3.33007584635,
			"0.007": 4.03282752206,
			"0.008": 4.22454761324,
			"0.009": 6.17230621852,
			"0.01": 5.65726898704,
			"0.011": 5.21790119741,
			"0.012": 4.64934284429,
			"0.013": 5.06005350126,
			"0.014": 0.993307555734,
			"0.015": 0.0,
			"0.016": 0.0,
			"0.017": 0.0,
			"0.018": 0.0,
			"0.019": 0.0,
			"0.02": 0.0,
			"0.021": 0.0,
			"0.022": 0.0,
			"0.023": 0.0,
			"0.024": 0.0,
			"0.025": 0.0
		}
	}
}
