{
	 "smiles": "CC1=C(F)C=C(CC2=CN=C(N)S2)C=C1", 
	 "Tm": 413.15, 
	 "num_atms": 26, 
	 "gaussian": { 
		 "optdone": 1, 
		 "sigma_profile": "yes", 
		 "theory": "DFT", 
		 "functional": "B3LYP", 
		 "basiset": "6-31G**", 
		 "properties": { 
			 "R2extent": 4680.5483, 
			 "electric_dipole_moment_norm": 1.57751906803, 
			 "electric_quadrupole_moment_norm": 16.3354719133, 
			 "total_energy": -1033.33186634, 
			 "HOMO_LUMO_gap": 0.19772, 
			 "cosmo_polarized_energy": -11.82, 
			 "cosmo_cavitation_energy": 32.38, 
			 "cosmo_dispersion_energy": -23.34, 
			 "cosmo_repulsion_energy": 1.79, 
			 "cosmo_total_nonelectrostatic_energy": 10.83, 
			 "SMD_solvation_energy": 3.77 
		},
		"coords": [
			{
				"x": 4.0546344526,
				"y": -0.6417482597,
				"z": -1.7828437904,
				"element": "C" 
			},
			{
				"x": 2.5625783982,
				"y": -0.5446276829,
				"z": -1.5970647171,
				"element": "C" 
			},
			{
				"x": 1.8900908524,
				"y": -1.4479937023,
				"z": -0.7682989289,
				"element": "C" 
			},
			{
				"x": 2.6222523837,
				"y": -2.404244999,
				"z": -0.1470498212,
				"element": "F" 
			},
			{
				"x": 0.5224181262,
				"y": -1.4142788486,
				"z": -0.550612137,
				"element": "C" 
			},
			{
				"x": -0.2505023143,
				"y": -0.4330567459,
				"z": -1.1859179044,
				"element": "C" 
			},
			{
				"x": -1.7605213977,
				"y": -0.3926223805,
				"z": -0.9933420783,
				"element": "C" 
			},
			{
				"x": -2.2268591917,
				"y": -0.4364330834,
				"z": 0.4328880136,
				"element": "C" 
			},
			{
				"x": -2.9682685215,
				"y": -1.3897470288,
				"z": 1.063245523,
				"element": "C" 
			},
			{
				"x": -3.2597689858,
				"y": -1.2008936883,
				"z": 2.3987089202,
				"element": "N" 
			},
			{
				"x": -2.7477815652,
				"y": -0.0801667867,
				"z": 2.8176488746,
				"element": "C" 
			},
			{
				"x": -2.9274713894,
				"y": 0.4211152975,
				"z": 4.0889508068,
				"element": "N" 
			},
			{
				"x": -1.8577923277,
				"y": 0.8404267436,
				"z": 1.5951057504,
				"element": "S" 
			},
			{
				"x": 0.3924866214,
				"y": 0.4867538644,
				"z": -2.0192091292,
				"element": "C" 
			},
			{
				"x": 1.7745148192,
				"y": 0.427712385,
				"z": -2.2188643675,
				"element": "C" 
			},
			{
				"x": 4.3422507575,
				"y": -1.6139007515,
				"z": -2.1979205508,
				"element": "H" 
			},
			{
				"x": 4.5828500826,
				"y": -0.537638748,
				"z": -0.828766311,
				"element": "H" 
			},
			{
				"x": 4.4144578277,
				"y": 0.1378861639,
				"z": -2.4588790541,
				"element": "H" 
			},
			{
				"x": 0.071021558,
				"y": -2.1418662625,
				"z": 0.1162915426,
				"element": "H" 
			},
			{
				"x": -2.2147583526,
				"y": -1.2542279706,
				"z": -1.5008053726,
				"element": "H" 
			},
			{
				"x": -2.1555940533,
				"y": 0.4975121775,
				"z": -1.4985378991,
				"element": "H" 
			},
			{
				"x": -3.3338744412,
				"y": -2.2858071725,
				"z": 0.5719714033,
				"element": "H" 
			},
			{
				"x": -2.1730289407,
				"y": 0.9758016096,
				"z": 4.4682169043,
				"element": "H" 
			},
			{
				"x": -3.2822822104,
				"y": -0.275473039,
				"z": 4.7319136247,
				"element": "H" 
			},
			{
				"x": -0.1891860848,
				"y": 1.2569777871,
				"z": -2.5186936586,
				"element": "H" 
			},
			{
				"x": 2.2545338969,
				"y": 1.1542411214,
				"z": -2.8695356435,
				"element": "H" 
			}
		],
		 "valence_orbital": [ 
			{
				"type": "occ",
				"energy": -0.27084,
				"method": "rhf"
			},
			{
				"type": "occ",
				"energy": -0.26889,
				"method": "rhf"
			},
			{
				"type": "occ",
				"energy": -0.24653,
				"method": "rhf"
			},
			{
				"type": "occ",
				"energy": -0.23427,
				"method": "rhf"
			},
			{
				"type": "occ",
				"energy": -0.20622,
				"method": "rhf"
			},
			{
				"type": "unocc",
				"energy": -0.0085,
				"method": "rhf"
			},
			{
				"type": "unocc",
				"energy": -0.00345,
				"method": "rhf"
			},
			{
				"type": "unocc",
				"energy": 0.00622,
				"method": "rhf"
			},
			{
				"type": "unocc",
				"energy": 0.01598,
				"method": "rhf"
			},
			{
				"type": "unocc",
				"energy": 0.06768,
				"method": "rhf"
			}
		],
		"cosmo_sigma_profile": { 
			"-0.025": 0.0,
			"-0.024": 0.0,
			"-0.023": 0.0,
			"-0.022": 0.0,
			"-0.021": 0.0,
			"-0.02": 0.0,
			"-0.019": 0.0,
			"-0.018": 0.0,
			"-0.017": 0.0,
			"-0.016": 0.0,
			"-0.015": 0.161143045296,
			"-0.014": 1.65657897316,
			"-0.013": 2.68085636242,
			"-0.012": 2.53842563811,
			"-0.011": 2.34312945966,
			"-0.01": 2.468340333,
			"-0.009": 2.35167111249,
			"-0.008": 2.2713785973,
			"-0.007": 1.96060094418,
			"-0.006": 8.50806529248,
			"-0.005": 17.1454239765,
			"-0.004": 18.3733253598,
			"-0.003": 17.2186072209,
			"-0.002": 18.6099583902,
			"-0.001": 17.819832511,
			"0.0": 19.0035299172,
			"0.001": 18.4143767047,
			"0.002": 21.1248651374,
			"0.003": 20.1868033771,
			"0.004": 25.0474009412,
			"0.005": 20.8837063716,
			"0.006": 3.38153518638,
			"0.007": 2.57870765025,
			"0.008": 2.33392479472,
			"0.009": 1.95825137193,
			"0.01": 1.84388246184,
			"0.011": 1.83812384541,
			"0.012": 1.05929043364,
			"0.013": 1.51573991078,
			"0.014": 0.993747709869,
			"0.015": 0.736653690949,
			"0.016": 0.677565383417,
			"0.017": 0.00669076895391,
			"0.018": 0.0,
			"0.019": 0.0,
			"0.02": 0.0,
			"0.021": 0.0,
			"0.022": 0.0,
			"0.023": 0.0,
			"0.024": 0.0,
			"0.025": 0.0
		}
	}
}
