{
	 "smiles": "COC1=CC=CC=C1NC(=O)C1=CN=CC(Cl)=N1", 
	 "Tm": 345.15, 
	 "num_atms": 28, 
	 "gaussian": { 
		 "optdone": 1, 
		 "sigma_profile": "yes", 
		 "theory": "DFT", 
		 "functional": "B3LYP", 
		 "basiset": "6-31G**", 
		 "properties": { 
			 "R2extent": 7001.5477, 
			 "electric_dipole_moment_norm": 3.52500939573, 
			 "electric_quadrupole_moment_norm": 8.19664051914, 
			 "total_energy": -1238.19730126, 
			 "HOMO_LUMO_gap": 0.12839, 
			 "cosmo_polarized_energy": -10.95, 
			 "cosmo_cavitation_energy": 35.09, 
			 "cosmo_dispersion_energy": -25.47, 
			 "cosmo_repulsion_energy": 1.95, 
			 "cosmo_total_nonelectrostatic_energy": 11.56, 
			 "SMD_solvation_energy": 4.53 
		},
		"coords": [
			{
				"x": -0.1702547391,
				"y": 2.9074212769,
				"z": -0.7146370614,
				"element": "C" 
			},
			{
				"x": 0.2806878569,
				"y": 1.6175991795,
				"z": -0.3298230173,
				"element": "O" 
			},
			{
				"x": 1.3350818666,
				"y": 1.0634354975,
				"z": -1.0070821095,
				"element": "C" 
			},
			{
				"x": 2.0148629088,
				"y": 1.6693415815,
				"z": -2.0607548895,
				"element": "C" 
			},
			{
				"x": 3.0801335045,
				"y": 1.0014165737,
				"z": -2.6756985786,
				"element": "C" 
			},
			{
				"x": 3.4596017868,
				"y": -0.2631907432,
				"z": -2.2369923563,
				"element": "C" 
			},
			{
				"x": 2.7839297203,
				"y": -0.8800266446,
				"z": -1.1803408147,
				"element": "C" 
			},
			{
				"x": 1.7182901455,
				"y": -0.2238866665,
				"z": -0.5574785208,
				"element": "C" 
			},
			{
				"x": 0.9742335754,
				"y": -0.7534461804,
				"z": 0.5103318259,
				"element": "N" 
			},
			{
				"x": 1.1263624127,
				"y": -1.9550553573,
				"z": 1.131483523,
				"element": "C" 
			},
			{
				"x": 1.9614558528,
				"y": -2.8160049473,
				"z": 0.8641770995,
				"element": "O" 
			},
			{
				"x": 0.1344417133,
				"y": -2.1814367306,
				"z": 2.2466317267,
				"element": "C" 
			},
			{
				"x": 0.1693191862,
				"y": -3.3735706141,
				"z": 2.9752560842,
				"element": "C" 
			},
			{
				"x": -0.6935429661,
				"y": -3.6109500689,
				"z": 3.9715803803,
				"element": "N" 
			},
			{
				"x": -1.5890745211,
				"y": -2.6618531083,
				"z": 4.2407083369,
				"element": "C" 
			},
			{
				"x": -1.6132991441,
				"y": -1.4695383907,
				"z": 3.5014797916,
				"element": "C" 
			},
			{
				"x": -2.8063650364,
				"y": -0.2430319696,
				"z": 3.8841809548,
				"element": "Cl" 
			},
			{
				"x": -0.7693368211,
				"y": -1.2251082115,
				"z": 2.5191235869,
				"element": "N" 
			},
			{
				"x": -0.5195383152,
				"y": 2.9156542439,
				"z": -1.7545528176,
				"element": "H" 
			},
			{
				"x": -1.0030854868,
				"y": 3.1457909062,
				"z": -0.0518484345,
				"element": "H" 
			},
			{
				"x": 0.618385381,
				"y": 3.6601598772,
				"z": -0.5924731643,
				"element": "H" 
			},
			{
				"x": 1.7237483587,
				"y": 2.6540512515,
				"z": -2.406635855,
				"element": "H" 
			},
			{
				"x": 3.6053501498,
				"y": 1.4801569079,
				"z": -3.4965521466,
				"element": "H" 
			},
			{
				"x": 4.2855885318,
				"y": -0.7823174296,
				"z": -2.7129801607,
				"element": "H" 
			},
			{
				"x": 3.0669289686,
				"y": -1.8620685339,
				"z": -0.8281458239,
				"element": "H" 
			},
			{
				"x": 0.2276445855,
				"y": -0.163006705,
				"z": 0.8630449442,
				"element": "H" 
			},
			{
				"x": 0.9071176473,
				"y": -4.1326230335,
				"z": 2.7390282604,
				"element": "H" 
			},
			{
				"x": -2.2974671225,
				"y": -2.8361119605,
				"z": 5.0454692363,
				"element": "H" 
			}
		],
		 "valence_orbital": [ 
			{
				"type": "occ",
				"energy": -0.28748,
				"method": "rhf"
			},
			{
				"type": "occ",
				"energy": -0.27869,
				"method": "rhf"
			},
			{
				"type": "occ",
				"energy": -0.25801,
				"method": "rhf"
			},
			{
				"type": "occ",
				"energy": -0.24004,
				"method": "rhf"
			},
			{
				"type": "occ",
				"energy": -0.21122,
				"method": "rhf"
			},
			{
				"type": "unocc",
				"energy": -0.08283,
				"method": "rhf"
			},
			{
				"type": "unocc",
				"energy": -0.05725,
				"method": "rhf"
			},
			{
				"type": "unocc",
				"energy": -0.00212,
				"method": "rhf"
			},
			{
				"type": "unocc",
				"energy": 0.00956,
				"method": "rhf"
			},
			{
				"type": "unocc",
				"energy": 0.01858,
				"method": "rhf"
			}
		],
		"cosmo_sigma_profile": { 
			"-0.025": 0.0,
			"-0.024": 0.0,
			"-0.023": 0.0,
			"-0.022": 0.0,
			"-0.021": 0.0,
			"-0.02": 0.0,
			"-0.019": 0.0,
			"-0.018": 0.0,
			"-0.017": 0.0,
			"-0.016": 0.0,
			"-0.015": 0.0,
			"-0.014": 0.0,
			"-0.013": 0.0,
			"-0.012": 0.0,
			"-0.011": 0.0,
			"-0.01": 0.430811683688,
			"-0.009": 2.15165027875,
			"-0.008": 2.11083585234,
			"-0.007": 4.01383734613,
			"-0.006": 13.4803731732,
			"-0.005": 20.7819600871,
			"-0.004": 27.8446891141,
			"-0.003": 29.7674546941,
			"-0.002": 22.5994897356,
			"-0.001": 17.6670723889,
			"0.0": 18.9016555899,
			"0.001": 19.0706869358,
			"0.002": 22.6935994614,
			"0.003": 24.1465594037,
			"0.004": 18.5994305343,
			"0.005": 15.6899871457,
			"0.006": 7.41904125894,
			"0.007": 2.04515970584,
			"0.008": 2.1215800979,
			"0.009": 2.51847169209,
			"0.01": 2.63982577702,
			"0.011": 3.23951570633,
			"0.012": 3.7625811217,
			"0.013": 1.19374511913,
			"0.014": 0.247318402272,
			"0.015": 0.0,
			"0.016": 0.0,
			"0.017": 0.0,
			"0.018": 0.0,
			"0.019": 0.0,
			"0.02": 0.0,
			"0.021": 0.0,
			"0.022": 0.0,
			"0.023": 0.0,
			"0.024": 0.0,
			"0.025": 0.0
		}
	}
}
