{
	 "smiles": "O=C1CC(=O)N(C(=S)N1)C1=CN=CC=C1", 
	 "Tm": 503.15, 
	 "num_atms": 22, 
	 "gaussian": { 
		 "optdone": 1, 
		 "sigma_profile": "yes", 
		 "theory": "DFT", 
		 "functional": "B3LYP", 
		 "basiset": "6-31G**", 
		 "properties": { 
			 "R2extent": 3802.212, 
			 "electric_dipole_moment_norm": 1.75960557228, 
			 "electric_quadrupole_moment_norm": 12.0781620237, 
			 "total_energy": -1060.08190361, 
			 "HOMO_LUMO_gap": 0.15351, 
			 "cosmo_polarized_energy": -19.85, 
			 "cosmo_cavitation_energy": 29.18, 
			 "cosmo_dispersion_energy": -21.01, 
			 "cosmo_repulsion_energy": 1.62, 
			 "cosmo_total_nonelectrostatic_energy": 9.78, 
			 "SMD_solvation_energy": 4.29 
		},
		"coords": [
			{
				"x": -0.7078159221,
				"y": -3.8684356875,
				"z": 0.9006565139,
				"element": "O" 
			},
			{
				"x": -0.1803848673,
				"y": -2.7791861725,
				"z": 0.8117063511,
				"element": "C" 
			},
			{
				"x": 1.2266200248,
				"y": -2.5629588349,
				"z": 0.3118895442,
				"element": "C" 
			},
			{
				"x": 1.6719327908,
				"y": -1.1351253485,
				"z": 0.0755748846,
				"element": "C" 
			},
			{
				"x": 2.7156859729,
				"y": -0.8747635444,
				"z": -0.4808495092,
				"element": "O" 
			},
			{
				"x": 0.8307996686,
				"y": -0.1049354338,
				"z": 0.5645227628,
				"element": "N" 
			},
			{
				"x": -0.4274504393,
				"y": -0.3075216027,
				"z": 1.1261944382,
				"element": "C" 
			},
			{
				"x": -1.4113340377,
				"y": 0.9087835757,
				"z": 1.6728297635,
				"element": "S" 
			},
			{
				"x": -0.8459683356,
				"y": -1.6224090414,
				"z": 1.2000205812,
				"element": "N" 
			},
			{
				"x": 1.33347311,
				"y": 1.2445288843,
				"z": 0.4232511331,
				"element": "C" 
			},
			{
				"x": 2.1142993658,
				"y": 1.7991339157,
				"z": 1.4371603764,
				"element": "C" 
			},
			{
				"x": 2.637629705,
				"y": 3.0244550021,
				"z": 1.3630595595,
				"element": "N" 
			},
			{
				"x": 2.3921905315,
				"y": 3.7341374048,
				"z": 0.2544913346,
				"element": "C" 
			},
			{
				"x": 1.6300221486,
				"y": 3.2606541963,
				"z": -0.815080052,
				"element": "C" 
			},
			{
				"x": 1.0887750125,
				"y": 1.9806106096,
				"z": -0.7315484063,
				"element": "C" 
			},
			{
				"x": 1.3706474628,
				"y": -3.1286649213,
				"z": -0.6125754989,
				"element": "H" 
			},
			{
				"x": 1.9162714771,
				"y": -3.006596853,
				"z": 1.0412512077,
				"element": "H" 
			},
			{
				"x": -1.7777440887,
				"y": -1.7534210446,
				"z": 1.5777335569,
				"element": "H" 
			},
			{
				"x": 2.317022281,
				"y": 1.2278614802,
				"z": 2.341072492,
				"element": "H" 
			},
			{
				"x": 2.8291777393,
				"y": 4.7300329678,
				"z": 0.2180986958,
				"element": "H" 
			},
			{
				"x": 1.467880785,
				"y": 3.8792631352,
				"z": -1.6915896161,
				"element": "H" 
			},
			{
				"x": 0.4900696149,
				"y": 1.5627573129,
				"z": -1.5343701129,
				"element": "H" 
			}
		],
		 "valence_orbital": [ 
			{
				"type": "occ",
				"energy": -0.29209,
				"method": "rhf"
			},
			{
				"type": "occ",
				"energy": -0.28044,
				"method": "rhf"
			},
			{
				"type": "occ",
				"energy": -0.26897,
				"method": "rhf"
			},
			{
				"type": "occ",
				"energy": -0.25885,
				"method": "rhf"
			},
			{
				"type": "occ",
				"energy": -0.23768,
				"method": "rhf"
			},
			{
				"type": "unocc",
				"energy": -0.08417,
				"method": "rhf"
			},
			{
				"type": "unocc",
				"energy": -0.03957,
				"method": "rhf"
			},
			{
				"type": "unocc",
				"energy": -0.02912,
				"method": "rhf"
			},
			{
				"type": "unocc",
				"energy": -0.01952,
				"method": "rhf"
			},
			{
				"type": "unocc",
				"energy": 0.01122,
				"method": "rhf"
			}
		],
		"cosmo_sigma_profile": { 
			"-0.025": 0.0,
			"-0.024": 0.0,
			"-0.023": 0.0,
			"-0.022": 0.0,
			"-0.021": 0.0,
			"-0.02": 0.0,
			"-0.019": 0.0,
			"-0.018": 0.0,
			"-0.017": 0.0,
			"-0.016": 0.675863132878,
			"-0.015": 0.747344988538,
			"-0.014": 0.834043311559,
			"-0.013": 0.816241002052,
			"-0.012": 1.46983639326,
			"-0.011": 4.50036333909,
			"-0.01": 6.33126907425,
			"-0.009": 7.24523914865,
			"-0.008": 12.1245522337,
			"-0.007": 15.6490509265,
			"-0.006": 14.3024413597,
			"-0.005": 11.1513388554,
			"-0.004": 10.8966163045,
			"-0.003": 8.53647401156,
			"-0.002": 9.01257605175,
			"-0.001": 8.02529554206,
			"0.0": 8.3544997272,
			"0.001": 13.5674303663,
			"0.002": 12.8243867715,
			"0.003": 10.5570004536,
			"0.004": 10.6213278711,
			"0.005": 9.22096423517,
			"0.006": 11.7934729779,
			"0.007": 10.5124744954,
			"0.008": 9.03143709318,
			"0.009": 5.31575760086,
			"0.01": 7.84603353353,
			"0.011": 9.60316130229,
			"0.012": 2.99319513025,
			"0.013": 0.348926239347,
			"0.014": 0.856645550518,
			"0.015": 1.05255953856,
			"0.016": 0.425767856858,
			"0.017": 0.0,
			"0.018": 0.0,
			"0.019": 0.0,
			"0.02": 0.0,
			"0.021": 0.0,
			"0.022": 0.0,
			"0.023": 0.0,
			"0.024": 0.0,
			"0.025": 0.0
		}
	}
}
