{
	 "smiles": "ClC1=CC(NCC2=CC=CC=C2)=C(C=C1)C#N", 
	 "Tm": 367.15, 
	 "num_atms": 28, 
	 "gaussian": { 
		 "optdone": 1, 
		 "sigma_profile": "yes", 
		 "theory": "DFT", 
		 "functional": "B3LYP", 
		 "basiset": "6-31G**", 
		 "properties": { 
			 "R2extent": 5370.4491, 
			 "electric_dipole_moment_norm": 3.06444853603, 
			 "electric_quadrupole_moment_norm": 13.7712518545, 
			 "total_energy": -1109.79900682, 
			 "HOMO_LUMO_gap": 0.17293, 
			 "cosmo_polarized_energy": -12.85, 
			 "cosmo_cavitation_energy": 34.79, 
			 "cosmo_dispersion_energy": -23.96, 
			 "cosmo_repulsion_energy": 1.86, 
			 "cosmo_total_nonelectrostatic_energy": 12.69, 
			 "SMD_solvation_energy": 5.4 
		},
		"coords": [
			{
				"x": -0.7532977108,
				"y": -4.3870018142,
				"z": 1.2905298619,
				"element": "Cl" 
			},
			{
				"x": -0.5554249752,
				"y": -2.9129597477,
				"z": 0.3598891585,
				"element": "C" 
			},
			{
				"x": 0.0729483646,
				"y": -1.8293320108,
				"z": 0.9498450835,
				"element": "C" 
			},
			{
				"x": 0.2575650919,
				"y": -0.6177055459,
				"z": 0.2464639037,
				"element": "C" 
			},
			{
				"x": 0.9471192615,
				"y": 0.3974929237,
				"z": 0.8833267177,
				"element": "N" 
			},
			{
				"x": 0.7022402445,
				"y": 1.8437740801,
				"z": 0.7361033734,
				"element": "C" 
			},
			{
				"x": -0.6469241326,
				"y": 2.3138354838,
				"z": 1.2571584691,
				"element": "C" 
			},
			{
				"x": -1.6410018783,
				"y": 2.7582143887,
				"z": 0.3777893279,
				"element": "C" 
			},
			{
				"x": -2.8818173752,
				"y": 3.1783999706,
				"z": 0.863898931,
				"element": "C" 
			},
			{
				"x": -3.1424747428,
				"y": 3.1574558125,
				"z": 2.233944482,
				"element": "C" 
			},
			{
				"x": -2.154592922,
				"y": 2.7197984354,
				"z": 3.1204906411,
				"element": "C" 
			},
			{
				"x": -0.9166755402,
				"y": 2.3042290861,
				"z": 2.6331674845,
				"element": "C" 
			},
			{
				"x": -0.2235576959,
				"y": -0.5632626029,
				"z": -1.0922326656,
				"element": "C" 
			},
			{
				"x": -0.8753639895,
				"y": -1.6814863912,
				"z": -1.6523225517,
				"element": "C" 
			},
			{
				"x": -1.0512890894,
				"y": -2.8600104384,
				"z": -0.9472852037,
				"element": "C" 
			},
			{
				"x": -0.0350861109,
				"y": 0.5648915469,
				"z": -1.9472642774,
				"element": "C" 
			},
			{
				"x": 0.1010042503,
				"y": 1.4591992023,
				"z": -2.6819889566,
				"element": "N" 
			},
			{
				"x": 0.4227512151,
				"y": -1.9069447851,
				"z": 1.9741537689,
				"element": "H" 
			},
			{
				"x": 1.1843728584,
				"y": 0.1485559648,
				"z": 1.8343034253,
				"element": "H" 
			},
			{
				"x": 0.8269922516,
				"y": 2.1302314608,
				"z": -0.3071264511,
				"element": "H" 
			},
			{
				"x": 1.509252055,
				"y": 2.3312489482,
				"z": 1.2930498757,
				"element": "H" 
			},
			{
				"x": -1.4412368997,
				"y": 2.7788209556,
				"z": -0.6899549044,
				"element": "H" 
			},
			{
				"x": -3.6433214109,
				"y": 3.5220678398,
				"z": 0.16959857,
				"element": "H" 
			},
			{
				"x": -4.1069906609,
				"y": 3.4842664365,
				"z": 2.6117643462,
				"element": "H" 
			},
			{
				"x": -2.347299737,
				"y": 2.7100700473,
				"z": 4.1896001374,
				"element": "H" 
			},
			{
				"x": -0.1485964892,
				"y": 1.9767006256,
				"z": 3.3316904746,
				"element": "H" 
			},
			{
				"x": -1.2338281308,
				"y": -1.6052939861,
				"z": -2.6735823924,
				"element": "H" 
			},
			{
				"x": -1.5484661018,
				"y": -3.7144558865,
				"z": -1.3890106297,
				"element": "H" 
			}
		],
		 "valence_orbital": [ 
			{
				"type": "occ",
				"energy": -0.3102,
				"method": "rhf"
			},
			{
				"type": "occ",
				"energy": -0.26056,
				"method": "rhf"
			},
			{
				"type": "occ",
				"energy": -0.25545,
				"method": "rhf"
			},
			{
				"type": "occ",
				"energy": -0.25299,
				"method": "rhf"
			},
			{
				"type": "occ",
				"energy": -0.22356,
				"method": "rhf"
			},
			{
				"type": "unocc",
				"energy": -0.05063,
				"method": "rhf"
			},
			{
				"type": "unocc",
				"energy": -0.01818,
				"method": "rhf"
			},
			{
				"type": "unocc",
				"energy": -0.01126,
				"method": "rhf"
			},
			{
				"type": "unocc",
				"energy": -0.00478,
				"method": "rhf"
			},
			{
				"type": "unocc",
				"energy": 0.01796,
				"method": "rhf"
			}
		],
		"cosmo_sigma_profile": { 
			"-0.025": 0.0,
			"-0.024": 0.0,
			"-0.023": 0.0,
			"-0.022": 0.0,
			"-0.021": 0.0,
			"-0.02": 0.0,
			"-0.019": 0.0,
			"-0.018": 0.0,
			"-0.017": 0.0,
			"-0.016": 0.0,
			"-0.015": 0.0,
			"-0.014": 0.797684002191,
			"-0.013": 1.81364935575,
			"-0.012": 1.34436180471,
			"-0.011": 2.15984649888,
			"-0.01": 2.20310114084,
			"-0.009": 2.26459086432,
			"-0.008": 4.30471282707,
			"-0.007": 7.64182335745,
			"-0.006": 12.3365728216,
			"-0.005": 14.0040100334,
			"-0.004": 16.8097536105,
			"-0.003": 19.099205819,
			"-0.002": 17.4258046927,
			"-0.001": 18.8641741571,
			"0.0": 22.6114510733,
			"0.001": 29.6550690823,
			"0.002": 28.1070650602,
			"0.003": 20.8251036636,
			"0.004": 20.4327077503,
			"0.005": 11.9249469875,
			"0.006": 9.56423664939,
			"0.007": 2.85972688168,
			"0.008": 2.91275451455,
			"0.009": 2.93725709675,
			"0.01": 2.42434715076,
			"0.011": 2.49385134473,
			"0.012": 2.31312626147,
			"0.013": 1.89016420683,
			"0.014": 0.183145923201,
			"0.015": 0.0,
			"0.016": 0.0,
			"0.017": 0.0,
			"0.018": 0.0,
			"0.019": 0.0,
			"0.02": 0.0,
			"0.021": 0.0,
			"0.022": 0.0,
			"0.023": 0.0,
			"0.024": 0.0,
			"0.025": 0.0
		}
	}
}
