{
	 "smiles": "O=C1CNC2CCCCC2N1", 
	 "Tm": 395.15, 
	 "num_atms": 25, 
	 "gaussian": { 
		 "optdone": 1, 
		 "sigma_profile": "yes", 
		 "theory": "DFT", 
		 "functional": "B3LYP", 
		 "basiset": "6-31G**", 
		 "properties": { 
			 "R2extent": 2385.498, 
			 "electric_dipole_moment_norm": 4.45598000669, 
			 "electric_quadrupole_moment_norm": 19.2270459117, 
			 "total_energy": -498.029282065, 
			 "HOMO_LUMO_gap": 0.25987, 
			 "cosmo_polarized_energy": -12.54, 
			 "cosmo_cavitation_energy": 25.19, 
			 "cosmo_dispersion_energy": -19.18, 
			 "cosmo_repulsion_energy": 1.54, 
			 "cosmo_total_nonelectrostatic_energy": 7.55, 
			 "SMD_solvation_energy": 1.75 
		},
		"coords": [
			{
				"x": -3.7896078564,
				"y": 0.4046648119,
				"z": 0.926486377,
				"element": "O" 
			},
			{
				"x": -2.5848044999,
				"y": 0.1933953521,
				"z": 0.876886222,
				"element": "C" 
			},
			{
				"x": -2.0121626388,
				"y": -0.9712858962,
				"z": 0.0724030782,
				"element": "C" 
			},
			{
				"x": -0.5941392229,
				"y": -0.7979833591,
				"z": -0.233034046,
				"element": "N" 
			},
			{
				"x": 0.1896940085,
				"y": -0.5254396093,
				"z": 0.9690284946,
				"element": "C" 
			},
			{
				"x": 1.700731491,
				"y": -0.5358970024,
				"z": 0.657624051,
				"element": "C" 
			},
			{
				"x": 2.5117781479,
				"y": 0.391704311,
				"z": 1.5941055156,
				"element": "C" 
			},
			{
				"x": 1.8526649118,
				"y": 0.5104512949,
				"z": 2.9766183093,
				"element": "C" 
			},
			{
				"x": 0.4286056323,
				"y": 1.1133693685,
				"z": 2.8799681875,
				"element": "C" 
			},
			{
				"x": -0.2236625076,
				"y": 0.8477370236,
				"z": 1.5049005938,
				"element": "C" 
			},
			{
				"x": -1.6806548852,
				"y": 0.9297674311,
				"z": 1.5915815272,
				"element": "N" 
			},
			{
				"x": -2.2332900067,
				"y": -1.8832546728,
				"z": 0.659702389,
				"element": "H" 
			},
			{
				"x": -2.5927202675,
				"y": -1.0345260812,
				"z": -0.8514620544,
				"element": "H" 
			},
			{
				"x": -0.2380507031,
				"y": -1.6257418306,
				"z": -0.7044451576,
				"element": "H" 
			},
			{
				"x": -0.0222411669,
				"y": -1.2645395157,
				"z": 1.7681238553,
				"element": "H" 
			},
			{
				"x": 2.0703739341,
				"y": -1.5655704341,
				"z": 0.7324908011,
				"element": "H" 
			},
			{
				"x": 1.8337401653,
				"y": -0.2231707438,
				"z": -0.3842879679,
				"element": "H" 
			},
			{
				"x": 2.5906326884,
				"y": 1.3911107887,
				"z": 1.1483850753,
				"element": "H" 
			},
			{
				"x": 3.5376615534,
				"y": 0.0209716357,
				"z": 1.6911693696,
				"element": "H" 
			},
			{
				"x": 2.4725937601,
				"y": 1.1172431339,
				"z": 3.6449441748,
				"element": "H" 
			},
			{
				"x": 1.8002660287,
				"y": -0.4868944636,
				"z": 3.4306402717,
				"element": "H" 
			},
			{
				"x": 0.4599457426,
				"y": 2.1955170999,
				"z": 3.055573067,
				"element": "H" 
			},
			{
				"x": -0.2128683576,
				"y": 0.6856957885,
				"z": 3.658532712,
				"element": "H" 
			},
			{
				"x": 0.1351880831,
				"y": 1.5949182594,
				"z": 0.7809461245,
				"element": "H" 
			},
			{
				"x": -2.0905740347,
				"y": 1.7162573094,
				"z": 2.0810190296,
				"element": "H" 
			}
		],
		 "valence_orbital": [ 
			{
				"type": "occ",
				"energy": -0.31854,
				"method": "rhf"
			},
			{
				"type": "occ",
				"energy": -0.31224,
				"method": "rhf"
			},
			{
				"type": "occ",
				"energy": -0.2484,
				"method": "rhf"
			},
			{
				"type": "occ",
				"energy": -0.23836,
				"method": "rhf"
			},
			{
				"type": "occ",
				"energy": -0.22551,
				"method": "rhf"
			},
			{
				"type": "unocc",
				"energy": 0.03436,
				"method": "rhf"
			},
			{
				"type": "unocc",
				"energy": 0.07337,
				"method": "rhf"
			},
			{
				"type": "unocc",
				"energy": 0.08241,
				"method": "rhf"
			},
			{
				"type": "unocc",
				"energy": 0.09042,
				"method": "rhf"
			},
			{
				"type": "unocc",
				"energy": 0.10557,
				"method": "rhf"
			}
		],
		"cosmo_sigma_profile": { 
			"-0.025": 0.0,
			"-0.024": 0.0,
			"-0.023": 0.0,
			"-0.022": 0.0,
			"-0.021": 0.0,
			"-0.02": 0.0,
			"-0.019": 0.0,
			"-0.018": 0.0,
			"-0.017": 0.0,
			"-0.016": 0.0,
			"-0.015": 0.0,
			"-0.014": 0.00523396105197,
			"-0.013": 0.625460135142,
			"-0.012": 1.03795283007,
			"-0.011": 1.63319861511,
			"-0.01": 1.89473900445,
			"-0.009": 1.76832486095,
			"-0.008": 2.55706103606,
			"-0.007": 2.48807596127,
			"-0.006": 3.50651011467,
			"-0.005": 4.86090824558,
			"-0.004": 11.2198829595,
			"-0.003": 27.009282895,
			"-0.002": 36.4711779715,
			"-0.001": 24.0088596046,
			"0.0": 19.8929417836,
			"0.001": 14.1304587157,
			"0.002": 4.62161334713,
			"0.003": 3.42111427368,
			"0.004": 3.06189130463,
			"0.005": 2.05846354602,
			"0.006": 2.33843431783,
			"0.007": 1.44161003708,
			"0.008": 2.05726198633,
			"0.009": 2.48360670353,
			"0.01": 1.55432588765,
			"0.011": 1.39341184476,
			"0.012": 2.17652665588,
			"0.013": 3.16674724514,
			"0.014": 6.07962857335,
			"0.015": 4.263256804,
			"0.016": 0.64996866742,
			"0.017": 0.183990201198,
			"0.018": 0.0,
			"0.019": 0.0,
			"0.02": 0.0,
			"0.021": 0.0,
			"0.022": 0.0,
			"0.023": 0.0,
			"0.024": 0.0,
			"0.025": 0.0
		}
	}
}
