{
	 "smiles": "CC1=CC=CC(N)=N1", 
	 "Tm": 315.15, 
	 "num_atms": 16, 
	 "gaussian": { 
		 "optdone": 1, 
		 "sigma_profile": "yes", 
		 "theory": "DFT", 
		 "functional": "B3LYP", 
		 "basiset": "6-31G**", 
		 "properties": { 
			 "R2extent": 1349.0862, 
			 "electric_dipole_moment_norm": 1.57413582959, 
			 "electric_quadrupole_moment_norm": 9.236669246, 
			 "total_energy": -342.977384468, 
			 "HOMO_LUMO_gap": 0.19819, 
			 "cosmo_polarized_energy": -8.53, 
			 "cosmo_cavitation_energy": 19.49, 
			 "cosmo_dispersion_energy": -14.76, 
			 "cosmo_repulsion_energy": 1.24, 
			 "cosmo_total_nonelectrostatic_energy": 5.98, 
			 "SMD_solvation_energy": 2.17 
		},
		"coords": [
			{
				"x": -1.8364993633,
				"y": 0.2721991417,
				"z": -0.6038822828,
				"element": "C" 
			},
			{
				"x": -0.6018996845,
				"y": 0.8609169649,
				"z": 0.0331408837,
				"element": "C" 
			},
			{
				"x": 0.2658478665,
				"y": 1.6916918411,
				"z": -0.6793432679,
				"element": "C" 
			},
			{
				"x": 1.3902535736,
				"y": 2.1996285764,
				"z": -0.0200807775,
				"element": "C" 
			},
			{
				"x": 1.6182013143,
				"y": 1.8682001457,
				"z": 1.3057840347,
				"element": "C" 
			},
			{
				"x": 0.685653464,
				"y": 1.0229704932,
				"z": 1.9434730038,
				"element": "C" 
			},
			{
				"x": 0.8723446306,
				"y": 0.6098543743,
				"z": 3.2521219443,
				"element": "N" 
			},
			{
				"x": -0.3975908724,
				"y": 0.5386873912,
				"z": 1.3223352443,
				"element": "N" 
			},
			{
				"x": -1.7895830076,
				"y": -0.821939296,
				"z": -0.585686793,
				"element": "H" 
			},
			{
				"x": -2.730674626,
				"y": 0.5615720594,
				"z": -0.0419582086,
				"element": "H" 
			},
			{
				"x": -1.952966318,
				"y": 0.5988917963,
				"z": -1.6404410788,
				"element": "H" 
			},
			{
				"x": 0.0665837065,
				"y": 1.9363871763,
				"z": -1.7171790064,
				"element": "H" 
			},
			{
				"x": 2.0851663935,
				"y": 2.8504426255,
				"z": -0.5441828827,
				"element": "H" 
			},
			{
				"x": 2.4874507343,
				"y": 2.2369717328,
				"z": 1.8419924177,
				"element": "H" 
			},
			{
				"x": 0.0441666026,
				"y": 0.2117768227,
				"z": 3.6726866484,
				"element": "H" 
			},
			{
				"x": 1.399245586,
				"y": 1.2226481545,
				"z": 3.8564201208,
				"element": "H" 
			}
		],
		 "valence_orbital": [ 
			{
				"type": "occ",
				"energy": -0.35641,
				"method": "rhf"
			},
			{
				"type": "occ",
				"energy": -0.30436,
				"method": "rhf"
			},
			{
				"type": "occ",
				"energy": -0.26451,
				"method": "rhf"
			},
			{
				"type": "occ",
				"energy": -0.24702,
				"method": "rhf"
			},
			{
				"type": "occ",
				"energy": -0.20628,
				"method": "rhf"
			},
			{
				"type": "unocc",
				"energy": -0.00809,
				"method": "rhf"
			},
			{
				"type": "unocc",
				"energy": 0.01911,
				"method": "rhf"
			},
			{
				"type": "unocc",
				"energy": 0.08974,
				"method": "rhf"
			},
			{
				"type": "unocc",
				"energy": 0.10781,
				"method": "rhf"
			},
			{
				"type": "unocc",
				"energy": 0.13167,
				"method": "rhf"
			}
		],
		"cosmo_sigma_profile": { 
			"-0.025": 0.0,
			"-0.024": 0.0,
			"-0.023": 0.0,
			"-0.022": 0.0,
			"-0.021": 0.0,
			"-0.02": 0.0,
			"-0.019": 0.0,
			"-0.018": 0.0,
			"-0.017": 0.0,
			"-0.016": 0.0,
			"-0.015": 0.0,
			"-0.014": 0.0,
			"-0.013": 0.744917737509,
			"-0.012": 2.0830172507,
			"-0.011": 2.45707445616,
			"-0.01": 2.59870317293,
			"-0.009": 2.22759981248,
			"-0.008": 2.74732966403,
			"-0.007": 2.56780481814,
			"-0.006": 5.45202286657,
			"-0.005": 7.11746355235,
			"-0.004": 13.6076018552,
			"-0.003": 10.1045157572,
			"-0.002": 12.0118062132,
			"-0.001": 9.19678568915,
			"0.0": 13.6490173189,
			"0.001": 10.8070816406,
			"0.002": 6.42917789262,
			"0.003": 8.66378310384,
			"0.004": 11.8392805891,
			"0.005": 10.5985872128,
			"0.006": 3.93158662056,
			"0.007": 2.46163791656,
			"0.008": 2.34062390536,
			"0.009": 2.16876968302,
			"0.01": 1.75882562832,
			"0.011": 1.7114053277,
			"0.012": 1.48295337581,
			"0.013": 1.29742078972,
			"0.014": 0.912396235793,
			"0.015": 0.905116429864,
			"0.016": 0.366241079942,
			"0.017": 0.0,
			"0.018": 0.0,
			"0.019": 0.0,
			"0.02": 0.0,
			"0.021": 0.0,
			"0.022": 0.0,
			"0.023": 0.0,
			"0.024": 0.0,
			"0.025": 0.0
		}
	}
}
