{
	 "smiles": "NC1=NC=C(SC2=CC=CS2)C=C1", 
	 "Tm": 351.15, 
	 "num_atms": 21, 
	 "gaussian": { 
		 "optdone": 1, 
		 "sigma_profile": "yes", 
		 "theory": "DFT", 
		 "functional": "B3LYP", 
		 "basiset": "6-31G**", 
		 "properties": { 
			 "R2extent": 4832.0128, 
			 "electric_dipole_moment_norm": 3.33024530178, 
			 "electric_quadrupole_moment_norm": 16.5934901672, 
			 "total_energy": -1253.6398416, 
			 "HOMO_LUMO_gap": 0.18221, 
			 "cosmo_polarized_energy": -11.75, 
			 "cosmo_cavitation_energy": 29.14, 
			 "cosmo_dispersion_energy": -21.8, 
			 "cosmo_repulsion_energy": 1.66, 
			 "cosmo_total_nonelectrostatic_energy": 9.0, 
			 "SMD_solvation_energy": 3.1 
		},
		"coords": [
			{
				"x": 5.1252210991,
				"y": 1.9755551889,
				"z": -1.6873920511,
				"element": "N" 
			},
			{
				"x": 3.8536237814,
				"y": 1.9836416107,
				"z": -1.1557080948,
				"element": "C" 
			},
			{
				"x": 3.6045497333,
				"y": 2.922573582,
				"z": -0.229819015,
				"element": "N" 
			},
			{
				"x": 2.4014791156,
				"y": 2.9268046185,
				"z": 0.3531379712,
				"element": "C" 
			},
			{
				"x": 1.3775674099,
				"y": 2.0305063306,
				"z": 0.0391308821,
				"element": "C" 
			},
			{
				"x": -0.2300155764,
				"y": 2.2031334776,
				"z": 0.816846175,
				"element": "S" 
			},
			{
				"x": -0.4309762489,
				"y": 0.6643845568,
				"z": 1.6675691557,
				"element": "C" 
			},
			{
				"x": -1.3510530901,
				"y": -0.3148936827,
				"z": 1.3779223595,
				"element": "C" 
			},
			{
				"x": -1.3256688335,
				"y": -1.4019520023,
				"z": 2.3007388933,
				"element": "C" 
			},
			{
				"x": -0.3846744161,
				"y": -1.2410139382,
				"z": 3.2819487057,
				"element": "C" 
			},
			{
				"x": 0.4742738385,
				"y": 0.2533626453,
				"z": 3.1120244668,
				"element": "S" 
			},
			{
				"x": 1.6433814875,
				"y": 1.0631842918,
				"z": -0.9439312111,
				"element": "C" 
			},
			{
				"x": 2.8906060444,
				"y": 1.0233471903,
				"z": -1.5407082188,
				"element": "C" 
			},
			{
				"x": 5.656723021,
				"y": 2.8168915715,
				"z": -1.5152356973,
				"element": "H" 
			},
			{
				"x": 5.2570592959,
				"y": 1.554675847,
				"z": -2.5941192714,
				"element": "H" 
			},
			{
				"x": 2.2370870123,
				"y": 3.6927685268,
				"z": 1.1088741673,
				"element": "H" 
			},
			{
				"x": -2.0202330479,
				"y": -0.2502134067,
				"z": 0.5277776212,
				"element": "H" 
			},
			{
				"x": -1.9715826407,
				"y": -2.2697572522,
				"z": 2.2294819404,
				"element": "H" 
			},
			{
				"x": -0.1398785719,
				"y": -1.9181494203,
				"z": 4.0892272209,
				"element": "H" 
			},
			{
				"x": 0.876913451,
				"y": 0.3466884642,
				"z": -1.2235549939,
				"element": "H" 
			},
			{
				"x": 3.1281971355,
				"y": 0.2753618005,
				"z": -2.2915110057,
				"element": "H" 
			}
		],
		 "valence_orbital": [ 
			{
				"type": "occ",
				"energy": -0.26733,
				"method": "rhf"
			},
			{
				"type": "occ",
				"energy": -0.25263,
				"method": "rhf"
			},
			{
				"type": "occ",
				"energy": -0.24914,
				"method": "rhf"
			},
			{
				"type": "occ",
				"energy": -0.2317,
				"method": "rhf"
			},
			{
				"type": "occ",
				"energy": -0.20811,
				"method": "rhf"
			},
			{
				"type": "unocc",
				"energy": -0.0259,
				"method": "rhf"
			},
			{
				"type": "unocc",
				"energy": -0.02031,
				"method": "rhf"
			},
			{
				"type": "unocc",
				"energy": -0.00457,
				"method": "rhf"
			},
			{
				"type": "unocc",
				"energy": 0.03102,
				"method": "rhf"
			},
			{
				"type": "unocc",
				"energy": 0.05035,
				"method": "rhf"
			}
		],
		"cosmo_sigma_profile": { 
			"-0.025": 0.0,
			"-0.024": 0.0,
			"-0.023": 0.0,
			"-0.022": 0.0,
			"-0.021": 0.0,
			"-0.02": 0.0,
			"-0.019": 0.0,
			"-0.018": 0.0,
			"-0.017": 0.0,
			"-0.016": 0.0,
			"-0.015": 0.0,
			"-0.014": 0.437368026084,
			"-0.013": 1.73178873884,
			"-0.012": 2.74864321128,
			"-0.011": 2.37921577741,
			"-0.01": 2.3617012008,
			"-0.009": 3.86236345114,
			"-0.008": 4.57999519007,
			"-0.007": 9.0133008809,
			"-0.006": 11.615383307,
			"-0.005": 11.2704618065,
			"-0.004": 11.7279903413,
			"-0.003": 9.26417359334,
			"-0.002": 11.886592804,
			"-0.001": 12.9587120239,
			"0.0": 16.3196963263,
			"0.001": 18.1265167002,
			"0.002": 25.2281056598,
			"0.003": 29.1780867266,
			"0.004": 21.3740579148,
			"0.005": 10.6320505644,
			"0.006": 3.98513603872,
			"0.007": 4.68278052808,
			"0.008": 3.58654805164,
			"0.009": 2.55223658664,
			"0.01": 1.38300918014,
			"0.011": 1.2807235846,
			"0.012": 1.19354824093,
			"0.013": 0.898300052045,
			"0.014": 0.749987017299,
			"0.015": 0.744050751744,
			"0.016": 0.114747199379,
			"0.017": 0.0,
			"0.018": 0.0,
			"0.019": 0.0,
			"0.02": 0.0,
			"0.021": 0.0,
			"0.022": 0.0,
			"0.023": 0.0,
			"0.024": 0.0,
			"0.025": 0.0
		}
	}
}
