{
	 "smiles": "CN1CCC(CC1)OC1=CC=C(C=C1)C(O)=O", 
	 "Tm": 492.15, 
	 "num_atms": 34, 
	 "gaussian": { 
		 "optdone": 1, 
		 "sigma_profile": "yes", 
		 "theory": "DFT", 
		 "functional": "B3LYP", 
		 "basiset": "6-31G**", 
		 "properties": { 
			 "R2extent": 6835.8429, 
			 "electric_dipole_moment_norm": 5.65065693968, 
			 "electric_quadrupole_moment_norm": 27.1218847975, 
			 "total_energy": -786.039936964, 
			 "HOMO_LUMO_gap": 0.18168, 
			 "cosmo_polarized_energy": -16.24, 
			 "cosmo_cavitation_energy": 35.45, 
			 "cosmo_dispersion_energy": -26.03, 
			 "cosmo_repulsion_energy": 2.01, 
			 "cosmo_total_nonelectrostatic_energy": 11.43, 
			 "SMD_solvation_energy": 4.85 
		},
		"coords": [
			{
				"x": -0.6256064274,
				"y": 1.1222441435,
				"z": 5.4887159345,
				"element": "C" 
			},
			{
				"x": -0.0322966816,
				"y": 0.7773842284,
				"z": 4.2084859935,
				"element": "N" 
			},
			{
				"x": -0.8638985601,
				"y": -0.1838503045,
				"z": 3.4734727419,
				"element": "C" 
			},
			{
				"x": -0.4309319406,
				"y": -0.3052916393,
				"z": 1.9937688256,
				"element": "C" 
			},
			{
				"x": 1.0509428326,
				"y": 0.0615148122,
				"z": 1.8613615725,
				"element": "C" 
			},
			{
				"x": 1.3287683816,
				"y": 1.5135236088,
				"z": 2.3043994596,
				"element": "C" 
			},
			{
				"x": 0.3178868824,
				"y": 1.9366471759,
				"z": 3.390239134,
				"element": "C" 
			},
			{
				"x": 1.6324870343,
				"y": -0.2755174104,
				"z": 0.5843282761,
				"element": "O" 
			},
			{
				"x": 1.2847590099,
				"y": 0.2788763956,
				"z": -0.6039790835,
				"element": "C" 
			},
			{
				"x": 2.0062110452,
				"y": -0.22211079,
				"z": -1.7041884149,
				"element": "C" 
			},
			{
				"x": 1.7638360914,
				"y": 0.2521342667,
				"z": -2.9839106186,
				"element": "C" 
			},
			{
				"x": 0.7951865101,
				"y": 1.2446077999,
				"z": -3.213425544,
				"element": "C" 
			},
			{
				"x": 0.0673290848,
				"y": 1.723472475,
				"z": -2.1182881313,
				"element": "C" 
			},
			{
				"x": 0.3041397914,
				"y": 1.2619145626,
				"z": -0.8268667769,
				"element": "C" 
			},
			{
				"x": 0.470505479,
				"y": 1.7956021603,
				"z": -4.5618531358,
				"element": "C" 
			},
			{
				"x": 1.3905113114,
				"y": 1.5940806833,
				"z": -5.5476870485,
				"element": "O" 
			},
			{
				"x": -0.5476283792,
				"y": 2.4005425998,
				"z": -4.8106191895,
				"element": "O" 
			},
			{
				"x": -0.7917841701,
				"y": 0.2112252733,
				"z": 6.0738319585,
				"element": "H" 
			},
			{
				"x": -1.5987378744,
				"y": 1.6429591005,
				"z": 5.3959765609,
				"element": "H" 
			},
			{
				"x": 0.0539292128,
				"y": 1.7668960231,
				"z": 6.0550421796,
				"element": "H" 
			},
			{
				"x": -0.7774613277,
				"y": -1.1547170204,
				"z": 3.977615389,
				"element": "H" 
			},
			{
				"x": -1.9340561325,
				"y": 0.0977469687,
				"z": 3.507908805,
				"element": "H" 
			},
			{
				"x": -0.5909527267,
				"y": -1.3263416822,
				"z": 1.6347967421,
				"element": "H" 
			},
			{
				"x": -1.0508572072,
				"y": 0.3460255857,
				"z": 1.3731467892,
				"element": "H" 
			},
			{
				"x": 1.6039111236,
				"y": -0.6014785312,
				"z": 2.5312160004,
				"element": "H" 
			},
			{
				"x": 1.2756402583,
				"y": 2.2018581942,
				"z": 1.4568794396,
				"element": "H" 
			},
			{
				"x": 2.348956394,
				"y": 1.5691900499,
				"z": 2.6957423291,
				"element": "H" 
			},
			{
				"x": 0.7652607561,
				"y": 2.6981818289,
				"z": 4.0363694703,
				"element": "H" 
			},
			{
				"x": -0.5756201853,
				"y": 2.4063415209,
				"z": 2.9316865517,
				"element": "H" 
			},
			{
				"x": 2.7455551312,
				"y": -0.9943291928,
				"z": -1.5209230101,
				"element": "H" 
			},
			{
				"x": 2.3160433088,
				"y": -0.1924089851,
				"z": -3.8090675565,
				"element": "H" 
			},
			{
				"x": -0.695184238,
				"y": 2.4736981791,
				"z": -2.2991479773,
				"element": "H" 
			},
			{
				"x": -0.2772575442,
				"y": 1.6699142407,
				"z": -0.0121329897,
				"element": "H" 
			},
			{
				"x": 2.2131137561,
				"y": 1.2543636789,
				"z": -5.1700946763,
				"element": "H" 
			}
		],
		 "valence_orbital": [ 
			{
				"type": "occ",
				"energy": -0.30425,
				"method": "rhf"
			},
			{
				"type": "occ",
				"energy": -0.2679,
				"method": "rhf"
			},
			{
				"type": "occ",
				"energy": -0.26418,
				"method": "rhf"
			},
			{
				"type": "occ",
				"energy": -0.2312,
				"method": "rhf"
			},
			{
				"type": "occ",
				"energy": -0.21844,
				"method": "rhf"
			},
			{
				"type": "unocc",
				"energy": -0.03676,
				"method": "rhf"
			},
			{
				"type": "unocc",
				"energy": -0.01807,
				"method": "rhf"
			},
			{
				"type": "unocc",
				"energy": 0.05386,
				"method": "rhf"
			},
			{
				"type": "unocc",
				"energy": 0.06181,
				"method": "rhf"
			},
			{
				"type": "unocc",
				"energy": 0.06883,
				"method": "rhf"
			}
		],
		"cosmo_sigma_profile": { 
			"-0.025": 0.0,
			"-0.024": 0.0,
			"-0.023": 0.0,
			"-0.022": 0.0,
			"-0.021": 0.0,
			"-0.02": 0.0,
			"-0.019": 0.123630469568,
			"-0.018": 0.656552597233,
			"-0.017": 0.910419595695,
			"-0.016": 1.02373152911,
			"-0.015": 0.757568426443,
			"-0.014": 1.09912968001,
			"-0.013": 1.07988650191,
			"-0.012": 0.958318095803,
			"-0.011": 1.43157445873,
			"-0.01": 1.11605962672,
			"-0.009": 1.21328028126,
			"-0.008": 1.68298657267,
			"-0.007": 4.38182183493,
			"-0.006": 7.24932790075,
			"-0.005": 9.87844443259,
			"-0.004": 19.5739825399,
			"-0.003": 29.3354429861,
			"-0.002": 33.3140972251,
			"-0.001": 36.1017113691,
			"0.0": 28.2472958816,
			"0.001": 12.2838703337,
			"0.002": 14.2998687327,
			"0.003": 17.355425744,
			"0.004": 10.5233631087,
			"0.005": 4.58670407266,
			"0.006": 4.05620494506,
			"0.007": 4.8365239124,
			"0.008": 4.23886597638,
			"0.009": 5.06154216638,
			"0.01": 4.37266682764,
			"0.011": 6.10108895715,
			"0.012": 6.23039591276,
			"0.013": 3.22885450649,
			"0.014": 1.05018640293,
			"0.015": 0.102027223732,
			"0.016": 0.0,
			"0.017": 0.0,
			"0.018": 0.0,
			"0.019": 0.0,
			"0.02": 0.0,
			"0.021": 0.0,
			"0.022": 0.0,
			"0.023": 0.0,
			"0.024": 0.0,
			"0.025": 0.0
		}
	}
}
