{
	 "smiles": "COC1=CC(OC)=C(C#N)C(OC)=C1", 
	 "Tm": 417.15, 
	 "num_atms": 25, 
	 "gaussian": { 
		 "optdone": 1, 
		 "sigma_profile": "yes", 
		 "theory": "DFT", 
		 "functional": "B3LYP", 
		 "basiset": "6-31G**", 
		 "properties": { 
			 "R2extent": 3130.214, 
			 "electric_dipole_moment_norm": 5.72704399232, 
			 "electric_quadrupole_moment_norm": 17.5388927188, 
			 "total_energy": -668.059577122, 
			 "HOMO_LUMO_gap": 0.19579, 
			 "cosmo_polarized_energy": -14.0, 
			 "cosmo_cavitation_energy": 29.79, 
			 "cosmo_dispersion_energy": -21.11, 
			 "cosmo_repulsion_energy": 1.68, 
			 "cosmo_total_nonelectrostatic_energy": 10.36, 
			 "SMD_solvation_energy": 8.71 
		},
		"coords": [
			{
				"x": 0.6329810352,
				"y": 1.6929877238,
				"z": -3.2635901474,
				"element": "C" 
			},
			{
				"x": -0.285443109,
				"y": 1.8741361585,
				"z": -2.1923845964,
				"element": "O" 
			},
			{
				"x": -0.1420258492,
				"y": 1.1106399743,
				"z": -1.0793106978,
				"element": "C" 
			},
			{
				"x": 0.8412752774,
				"y": 0.1308862125,
				"z": -0.9208855404,
				"element": "C" 
			},
			{
				"x": 0.8985447398,
				"y": -0.5977781103,
				"z": 0.2700875261,
				"element": "C" 
			},
			{
				"x": 1.9171087002,
				"y": -1.4998956588,
				"z": 0.3877227219,
				"element": "O" 
			},
			{
				"x": 1.5660453462,
				"y": -2.8814566337,
				"z": 0.5537412109,
				"element": "C" 
			},
			{
				"x": -0.0178423115,
				"y": -0.3536033749,
				"z": 1.3123191244,
				"element": "C" 
			},
			{
				"x": 0.074706887,
				"y": -1.0267497481,
				"z": 2.5652674414,
				"element": "C" 
			},
			{
				"x": 0.1626869199,
				"y": -1.5844307085,
				"z": 3.5839059789,
				"element": "N" 
			},
			{
				"x": -1.0191173525,
				"y": 0.6379939367,
				"z": 1.1203451081,
				"element": "C" 
			},
			{
				"x": -1.8630185613,
				"y": 0.8104087391,
				"z": 2.1641817367,
				"element": "O" 
			},
			{
				"x": -2.8750068237,
				"y": 1.80490985,
				"z": 2.0677134879,
				"element": "C" 
			},
			{
				"x": -1.0812332245,
				"y": 1.3607857869,
				"z": -0.0647850812,
				"element": "C" 
			},
			{
				"x": 1.6627822162,
				"y": 1.899201762,
				"z": -2.9484212926,
				"element": "H" 
			},
			{
				"x": 0.3395610291,
				"y": 2.4090605074,
				"z": -4.0321011851,
				"element": "H" 
			},
			{
				"x": 0.5763195576,
				"y": 0.6773210522,
				"z": -3.6734575452,
				"element": "H" 
			},
			{
				"x": 1.572951472,
				"y": -0.0935133514,
				"z": -1.684783176,
				"element": "H" 
			},
			{
				"x": 2.5099593314,
				"y": -3.4283682753,
				"z": 0.5349876844,
				"element": "H" 
			},
			{
				"x": 1.0610282677,
				"y": -3.0667078164,
				"z": 1.5047565538,
				"element": "H" 
			},
			{
				"x": 0.9328971161,
				"y": -3.2189291763,
				"z": -0.2757917459,
				"element": "H" 
			},
			{
				"x": -3.5679681595,
				"y": 1.5919509908,
				"z": 1.2448131995,
				"element": "H" 
			},
			{
				"x": -3.4145853687,
				"y": 1.7700551672,
				"z": 3.0144609885,
				"element": "H" 
			},
			{
				"x": -2.4425762413,
				"y": 2.8031820304,
				"z": 1.9301163443,
				"element": "H" 
			},
			{
				"x": -1.8277308948,
				"y": 2.1241129621,
				"z": -0.2371080989,
				"element": "H" 
			}
		],
		 "valence_orbital": [ 
			{
				"type": "occ",
				"energy": -0.31822,
				"method": "rhf"
			},
			{
				"type": "occ",
				"energy": -0.29961,
				"method": "rhf"
			},
			{
				"type": "occ",
				"energy": -0.28154,
				"method": "rhf"
			},
			{
				"type": "occ",
				"energy": -0.23724,
				"method": "rhf"
			},
			{
				"type": "occ",
				"energy": -0.22696,
				"method": "rhf"
			},
			{
				"type": "unocc",
				"energy": -0.03117,
				"method": "rhf"
			},
			{
				"type": "unocc",
				"energy": -0.00024,
				"method": "rhf"
			},
			{
				"type": "unocc",
				"energy": 0.04464,
				"method": "rhf"
			},
			{
				"type": "unocc",
				"energy": 0.08464,
				"method": "rhf"
			},
			{
				"type": "unocc",
				"energy": 0.09131,
				"method": "rhf"
			}
		],
		"cosmo_sigma_profile": { 
			"-0.025": 0.0,
			"-0.024": 0.0,
			"-0.023": 0.0,
			"-0.022": 0.0,
			"-0.021": 0.0,
			"-0.02": 0.0,
			"-0.019": 0.0,
			"-0.018": 0.0,
			"-0.017": 0.0,
			"-0.016": 0.0,
			"-0.015": 0.0,
			"-0.014": 0.0,
			"-0.013": 0.0,
			"-0.012": 0.0,
			"-0.011": 0.0,
			"-0.01": 0.0,
			"-0.009": 0.0,
			"-0.008": 0.459733349259,
			"-0.007": 6.76325418989,
			"-0.006": 21.8167775367,
			"-0.005": 21.9103419102,
			"-0.004": 26.780030368,
			"-0.003": 24.1607543569,
			"-0.002": 11.1106204604,
			"-0.001": 10.7666574986,
			"0.0": 13.7812850836,
			"0.001": 18.2374626157,
			"0.002": 17.058531327,
			"0.003": 10.8881667089,
			"0.004": 7.59019922838,
			"0.005": 6.56749960657,
			"0.006": 6.07178925571,
			"0.007": 5.57168424879,
			"0.008": 7.73405242014,
			"0.009": 6.85013696993,
			"0.01": 4.99547760913,
			"0.011": 3.15903049928,
			"0.012": 2.82453501073,
			"0.013": 2.1684002342,
			"0.014": 0.551026683143,
			"0.015": 0.0,
			"0.016": 0.0,
			"0.017": 0.0,
			"0.018": 0.0,
			"0.019": 0.0,
			"0.02": 0.0,
			"0.021": 0.0,
			"0.022": 0.0,
			"0.023": 0.0,
			"0.024": 0.0,
			"0.025": 0.0
		}
	}
}
