{
	 "smiles": "[O-][N+](=O)C1=CC(C(=O)NC2CC2)=C(Cl)C=C1", 
	 "Tm": 454.15, 
	 "num_atms": 25, 
	 "gaussian": { 
		 "optdone": 1, 
		 "sigma_profile": "yes", 
		 "theory": "DFT", 
		 "functional": "B3LYP", 
		 "basiset": "6-31G**", 
		 "properties": { 
			 "R2extent": 4931.8916, 
			 "electric_dipole_moment_norm": 5.35974065977, 
			 "electric_quadrupole_moment_norm": 23.1978976112, 
			 "total_energy": -1181.72731861, 
			 "HOMO_LUMO_gap": 0.16203, 
			 "cosmo_polarized_energy": -14.92, 
			 "cosmo_cavitation_energy": 32.34, 
			 "cosmo_dispersion_energy": -22.15, 
			 "cosmo_repulsion_energy": 1.75, 
			 "cosmo_total_nonelectrostatic_energy": 11.94, 
			 "SMD_solvation_energy": 7.37 
		},
		"coords": [
			{
				"x": -1.1466940291,
				"y": 4.8802902422,
				"z": -0.5899812772,
				"element": "O" 
			},
			{
				"x": -1.7511753207,
				"y": 4.116770253,
				"z": 0.1609247996,
				"element": "N" 
			},
			{
				"x": -2.492632556,
				"y": 4.469222801,
				"z": 1.0772173892,
				"element": "O" 
			},
			{
				"x": -1.5711811949,
				"y": 2.6711253717,
				"z": -0.0476975102,
				"element": "C" 
			},
			{
				"x": -0.7602950583,
				"y": 2.2377806386,
				"z": -1.0905695617,
				"element": "C" 
			},
			{
				"x": -0.5576957958,
				"y": 0.8692525733,
				"z": -1.2893155922,
				"element": "C" 
			},
			{
				"x": 0.261201739,
				"y": 0.4440749729,
				"z": -2.4926895897,
				"element": "C" 
			},
			{
				"x": -0.1772261789,
				"y": 0.6231336476,
				"z": -3.6200496986,
				"element": "O" 
			},
			{
				"x": 1.5008778618,
				"y": -0.0821289016,
				"z": -2.2610097052,
				"element": "N" 
			},
			{
				"x": 2.1282996987,
				"y": -0.3586901448,
				"z": -0.9979305718,
				"element": "C" 
			},
			{
				"x": 2.5623815153,
				"y": 0.7862717891,
				"z": -0.1118588084,
				"element": "C" 
			},
			{
				"x": 3.5912752516,
				"y": -0.018262304,
				"z": -0.8597663265,
				"element": "C" 
			},
			{
				"x": -1.2260224579,
				"y": -0.0277817853,
				"z": -0.4445954157,
				"element": "C" 
			},
			{
				"x": -1.0731213435,
				"y": -1.7569287181,
				"z": -0.6895698502,
				"element": "Cl" 
			},
			{
				"x": -2.0522976741,
				"y": 0.4166880626,
				"z": 0.5923173523,
				"element": "C" 
			},
			{
				"x": -2.2240767932,
				"y": 1.7797422378,
				"z": 0.8014678509,
				"element": "C" 
			},
			{
				"x": -0.2943175408,
				"y": 2.964889517,
				"z": -1.7441175945,
				"element": "H" 
			},
			{
				"x": 1.9600727449,
				"y": -0.403662213,
				"z": -3.1050670151,
				"element": "H" 
			},
			{
				"x": 1.7901318529,
				"y": -1.2653210192,
				"z": -0.5001494554,
				"element": "H" 
			},
			{
				"x": 2.3599556876,
				"y": 1.7919776147,
				"z": -0.4641927514,
				"element": "H" 
			},
			{
				"x": 2.4704273264,
				"y": 0.653829687,
				"z": 0.9613542732,
				"element": "H" 
			},
			{
				"x": 4.220347829,
				"y": -0.7114335639,
				"z": -0.3109242566,
				"element": "H" 
			},
			{
				"x": 4.0730932222,
				"y": 0.4551671671,
				"z": -1.7099597194,
				"element": "H" 
			},
			{
				"x": -2.5576824796,
				"y": -0.3059601622,
				"z": 1.2225489251,
				"element": "H" 
			},
			{
				"x": -2.8534463068,
				"y": 2.1582522363,
				"z": 1.5968141093,
				"element": "H" 
			}
		],
		 "valence_orbital": [ 
			{
				"type": "occ",
				"energy": -0.29893,
				"method": "rhf"
			},
			{
				"type": "occ",
				"energy": -0.29731,
				"method": "rhf"
			},
			{
				"type": "occ",
				"energy": -0.2819,
				"method": "rhf"
			},
			{
				"type": "occ",
				"energy": -0.26421,
				"method": "rhf"
			},
			{
				"type": "occ",
				"energy": -0.26062,
				"method": "rhf"
			},
			{
				"type": "unocc",
				"energy": -0.09859,
				"method": "rhf"
			},
			{
				"type": "unocc",
				"energy": -0.04722,
				"method": "rhf"
			},
			{
				"type": "unocc",
				"energy": -0.01685,
				"method": "rhf"
			},
			{
				"type": "unocc",
				"energy": 0.0047,
				"method": "rhf"
			},
			{
				"type": "unocc",
				"energy": 0.01414,
				"method": "rhf"
			}
		],
		"cosmo_sigma_profile": { 
			"-0.025": 0.0,
			"-0.024": 0.0,
			"-0.023": 0.0,
			"-0.022": 0.0,
			"-0.021": 0.0,
			"-0.02": 0.0,
			"-0.019": 0.0,
			"-0.018": 0.0,
			"-0.017": 0.0,
			"-0.016": 0.0,
			"-0.015": 0.0,
			"-0.014": 0.671679713424,
			"-0.013": 0.817194566092,
			"-0.012": 1.1538213726,
			"-0.011": 0.65075282645,
			"-0.01": 1.16617639755,
			"-0.009": 2.54516317858,
			"-0.008": 6.24653303792,
			"-0.007": 7.02497725816,
			"-0.006": 8.98643811698,
			"-0.005": 17.5414912999,
			"-0.004": 18.5563237112,
			"-0.003": 18.241094025,
			"-0.002": 22.7223506458,
			"-0.001": 30.4665489276,
			"0.0": 24.868398863,
			"0.001": 17.3114115953,
			"0.002": 14.6932431292,
			"0.003": 11.084403665,
			"0.004": 7.83675075963,
			"0.005": 4.29946972611,
			"0.006": 5.770177612,
			"0.007": 10.7420039616,
			"0.008": 6.91884113532,
			"0.009": 4.77427965667,
			"0.01": 3.12116277813,
			"0.011": 1.83711928372,
			"0.012": 3.56578316225,
			"0.013": 5.42934651927,
			"0.014": 1.28527506453,
			"0.015": 0.0,
			"0.016": 0.0,
			"0.017": 0.0,
			"0.018": 0.0,
			"0.019": 0.0,
			"0.02": 0.0,
			"0.021": 0.0,
			"0.022": 0.0,
			"0.023": 0.0,
			"0.024": 0.0,
			"0.025": 0.0
		}
	}
}
