{
	 "smiles": "O=CC1=NC(=CS1)C1=CC=CC=C1", 
	 "Tm": 335.15, 
	 "num_atms": 20, 
	 "gaussian": { 
		 "optdone": 1, 
		 "sigma_profile": "yes", 
		 "theory": "DFT", 
		 "functional": "B3LYP", 
		 "basiset": "6-31G**", 
		 "properties": { 
			 "R2extent": 3464.4243, 
			 "electric_dipole_moment_norm": 3.36938180235, 
			 "electric_quadrupole_moment_norm": 12.9892050792, 
			 "total_energy": -913.430013483, 
			 "HOMO_LUMO_gap": 0.14394, 
			 "cosmo_polarized_energy": -8.83, 
			 "cosmo_cavitation_energy": 26.79, 
			 "cosmo_dispersion_energy": -20.24, 
			 "cosmo_repulsion_energy": 1.53, 
			 "cosmo_total_nonelectrostatic_energy": 8.09, 
			 "SMD_solvation_energy": 4.33 
		},
		"coords": [
			{
				"x": 0.8759180436,
				"y": -4.2563592432,
				"z": -2.5787528337,
				"element": "O" 
			},
			{
				"x": 0.10891114,
				"y": -3.4437706809,
				"z": -2.0994126062,
				"element": "C" 
			},
			{
				"x": 0.5364115003,
				"y": -2.1553638804,
				"z": -1.5301854448,
				"element": "C" 
			},
			{
				"x": -0.2849553072,
				"y": -1.2796552913,
				"z": -1.0144804538,
				"element": "N" 
			},
			{
				"x": 0.3773757404,
				"y": -0.1654410299,
				"z": -0.5564631262,
				"element": "C" 
			},
			{
				"x": 1.747939088,
				"y": -0.221013531,
				"z": -0.7418974191,
				"element": "C" 
			},
			{
				"x": 2.2252471349,
				"y": -1.6874391872,
				"z": -1.5013993063,
				"element": "S" 
			},
			{
				"x": -0.3879312386,
				"y": 0.9364438701,
				"z": 0.0613945274,
				"element": "C" 
			},
			{
				"x": 0.2426370867,
				"y": 2.0987935596,
				"z": 0.5351328265,
				"element": "C" 
			},
			{
				"x": -0.5003975987,
				"y": 3.1244950927,
				"z": 1.114567937,
				"element": "C" 
			},
			{
				"x": -1.8875030704,
				"y": 3.0091594853,
				"z": 1.2318079028,
				"element": "C" 
			},
			{
				"x": -2.5237844046,
				"y": 1.8581132294,
				"z": 0.7637523195,
				"element": "C" 
			},
			{
				"x": -1.783094603,
				"y": 0.8302162055,
				"z": 0.18365798,
				"element": "C" 
			},
			{
				"x": -0.9858904928,
				"y": -3.6048040398,
				"z": -2.0496676304,
				"element": "H" 
			},
			{
				"x": 2.4880737482,
				"y": 0.518131064,
				"z": -0.4718208127,
				"element": "H" 
			},
			{
				"x": 1.31976408,
				"y": 2.2095044599,
				"z": 0.45312342,
				"element": "H" 
			},
			{
				"x": 0.0050292286,
				"y": 4.0157759175,
				"z": 1.4749804877,
				"element": "H" 
			},
			{
				"x": -2.4657684823,
				"y": 3.8096810021,
				"z": 1.6837415277,
				"element": "H" 
			},
			{
				"x": -3.6020134294,
				"y": 1.7587822507,
				"z": 0.8501536764,
				"element": "H" 
			},
			{
				"x": -2.2725681638,
				"y": -0.0655492532,
				"z": -0.1813329717,
				"element": "H" 
			}
		],
		 "valence_orbital": [ 
			{
				"type": "occ",
				"energy": -0.29911,
				"method": "rhf"
			},
			{
				"type": "occ",
				"energy": -0.29012,
				"method": "rhf"
			},
			{
				"type": "occ",
				"energy": -0.27074,
				"method": "rhf"
			},
			{
				"type": "occ",
				"energy": -0.2578,
				"method": "rhf"
			},
			{
				"type": "occ",
				"energy": -0.23155,
				"method": "rhf"
			},
			{
				"type": "unocc",
				"energy": -0.08761,
				"method": "rhf"
			},
			{
				"type": "unocc",
				"energy": -0.03892,
				"method": "rhf"
			},
			{
				"type": "unocc",
				"energy": -0.00704,
				"method": "rhf"
			},
			{
				"type": "unocc",
				"energy": 0.011,
				"method": "rhf"
			},
			{
				"type": "unocc",
				"energy": 0.03682,
				"method": "rhf"
			}
		],
		"cosmo_sigma_profile": { 
			"-0.025": 0.0,
			"-0.024": 0.0,
			"-0.023": 0.0,
			"-0.022": 0.0,
			"-0.021": 0.0,
			"-0.02": 0.0,
			"-0.019": 0.0,
			"-0.018": 0.0,
			"-0.017": 0.0,
			"-0.016": 0.0,
			"-0.015": 0.0,
			"-0.014": 0.0,
			"-0.013": 0.0,
			"-0.012": 0.0,
			"-0.011": 0.676872182761,
			"-0.01": 2.96489085921,
			"-0.009": 2.08253479546,
			"-0.008": 3.92090257453,
			"-0.007": 5.27514611783,
			"-0.006": 9.39207081563,
			"-0.005": 12.6716674502,
			"-0.004": 16.6024891255,
			"-0.003": 13.8673954535,
			"-0.002": 16.3965080177,
			"-0.001": 15.7957805951,
			"0.0": 20.8252952118,
			"0.001": 21.4621553229,
			"0.002": 14.7584126282,
			"0.003": 13.4903070195,
			"0.004": 12.894485025,
			"0.005": 13.6032240657,
			"0.006": 4.42961609113,
			"0.007": 2.94837016486,
			"0.008": 3.75113795726,
			"0.009": 3.74036674602,
			"0.01": 3.50854200052,
			"0.011": 2.98974607936,
			"0.012": 0.75962836651,
			"0.013": 0.0,
			"0.014": 0.0,
			"0.015": 0.0,
			"0.016": 0.0,
			"0.017": 0.0,
			"0.018": 0.0,
			"0.019": 0.0,
			"0.02": 0.0,
			"0.021": 0.0,
			"0.022": 0.0,
			"0.023": 0.0,
			"0.024": 0.0,
			"0.025": 0.0
		}
	}
}
