{
	 "smiles": "CC(=O)NC1=CC=C(C=C1)N=NC1=CC=C(C=C1)[N+]([O-])=NC1=CC=C(NC(C)=O)C=C1", 
	 "Tm": 590.15, 
	 "num_atms": 51, 
	 "gaussian": { 
		 "optdone": 1, 
		 "sigma_profile": "yes", 
		 "theory": "DFT", 
		 "functional": "B3LYP", 
		 "basiset": "6-31G**", 
		 "properties": { 
			 "R2extent": 27572.6773, 
			 "electric_dipole_moment_norm": 4.90910881118, 
			 "electric_quadrupole_moment_norm": 62.9501236656, 
			 "total_energy": -1404.46893413, 
			 "HOMO_LUMO_gap": 0.11549, 
			 "cosmo_polarized_energy": -29.33, 
			 "cosmo_cavitation_energy": 57.63, 
			 "cosmo_dispersion_energy": -40.77, 
			 "cosmo_repulsion_energy": 3.04, 
			 "cosmo_total_nonelectrostatic_energy": 19.89, 
			 "SMD_solvation_energy": 9.49 
		},
		"coords": [
			{
				"x": 5.9228840589,
				"y": -4.5340332161,
				"z": 3.8077440243,
				"element": "C" 
			},
			{
				"x": 4.5088821447,
				"y": -4.311753557,
				"z": 4.3234435716,
				"element": "C" 
			},
			{
				"x": 3.9594974287,
				"y": -5.114880084,
				"z": 5.0610678448,
				"element": "O" 
			},
			{
				"x": 3.92748184,
				"y": -3.1294421207,
				"z": 3.9011832999,
				"element": "N" 
			},
			{
				"x": 2.6574424606,
				"y": -2.6123070797,
				"z": 4.2088548808,
				"element": "C" 
			},
			{
				"x": 2.3130116592,
				"y": -1.3690401605,
				"z": 3.646173778,
				"element": "C" 
			},
			{
				"x": 1.0713898483,
				"y": -0.7974612196,
				"z": 3.8806854685,
				"element": "C" 
			},
			{
				"x": 0.1452242714,
				"y": -1.4522338442,
				"z": 4.7101316321,
				"element": "C" 
			},
			{
				"x": 0.5159266618,
				"y": -2.6601587069,
				"z": 5.3184946608,
				"element": "C" 
			},
			{
				"x": 1.7407698106,
				"y": -3.2616548021,
				"z": 5.0542961185,
				"element": "C" 
			},
			{
				"x": -1.1037212817,
				"y": -0.9053406598,
				"z": 5.1337064911,
				"element": "N" 
			},
			{
				"x": -1.8657490123,
				"y": -0.236676047,
				"z": 4.4007672041,
				"element": "N" 
			},
			{
				"x": -1.7213161928,
				"y": -0.104494935,
				"z": 2.9852709695,
				"element": "C" 
			},
			{
				"x": -1.6642319613,
				"y": -1.2189171742,
				"z": 2.1330638673,
				"element": "C" 
			},
			{
				"x": -1.7056164736,
				"y": -1.0442436161,
				"z": 0.754747316,
				"element": "C" 
			},
			{
				"x": -1.7928254335,
				"y": 0.2453280466,
				"z": 0.2266230186,
				"element": "C" 
			},
			{
				"x": -1.870405115,
				"y": 1.3643456967,
				"z": 1.0616409207,
				"element": "C" 
			},
			{
				"x": -1.8601559549,
				"y": 1.1813797803,
				"z": 2.4384900576,
				"element": "C" 
			},
			{
				"x": -1.8143816751,
				"y": 0.3814699221,
				"z": -1.2259896483,
				"element": "N" 
			},
			{
				"x": -1.7402149218,
				"y": -0.6804478354,
				"z": -1.9023024001,
				"element": "O" 
			},
			{
				"x": -1.9034388977,
				"y": 1.5843234559,
				"z": -1.6624296274,
				"element": "N" 
			},
			{
				"x": -1.9373544752,
				"y": 1.8583437238,
				"z": -3.0293118055,
				"element": "C" 
			},
			{
				"x": -1.915561548,
				"y": 0.9613349765,
				"z": -4.1232759201,
				"element": "C" 
			},
			{
				"x": -1.954805612,
				"y": 1.4524238565,
				"z": -5.4216222145,
				"element": "C" 
			},
			{
				"x": -2.0229452204,
				"y": 2.8294862815,
				"z": -5.6933190151,
				"element": "C" 
			},
			{
				"x": -2.0920010945,
				"y": 3.2357948997,
				"z": -7.036824592,
				"element": "N" 
			},
			{
				"x": -1.619239369,
				"y": 4.3523609714,
				"z": -7.7160297229,
				"element": "C" 
			},
			{
				"x": -0.8612375326,
				"y": 5.4179418798,
				"z": -6.9499755157,
				"element": "C" 
			},
			{
				"x": -1.811166342,
				"y": 4.4341882627,
				"z": -8.9199450643,
				"element": "O" 
			},
			{
				"x": -2.0762041289,
				"y": 3.7226494482,
				"z": -4.6082047504,
				"element": "C" 
			},
			{
				"x": -2.0218837596,
				"y": 3.2392676955,
				"z": -3.3108736176,
				"element": "C" 
			},
			{
				"x": 6.0030381027,
				"y": -5.5641460046,
				"z": 3.4542345504,
				"element": "H" 
			},
			{
				"x": 6.6240022996,
				"y": -4.4179993657,
				"z": 4.6402070981,
				"element": "H" 
			},
			{
				"x": 6.2189283717,
				"y": -3.8544057959,
				"z": 3.0037721384,
				"element": "H" 
			},
			{
				"x": 4.4860690454,
				"y": -2.5527607075,
				"z": 3.2889256299,
				"element": "H" 
			},
			{
				"x": 3.029953551,
				"y": -0.8467015928,
				"z": 3.0166082408,
				"element": "H" 
			},
			{
				"x": 0.8331092205,
				"y": 0.1637748017,
				"z": 3.4411666134,
				"element": "H" 
			},
			{
				"x": -0.1862973922,
				"y": -3.1296694193,
				"z": 6.0002223693,
				"element": "H" 
			},
			{
				"x": 2.0098263928,
				"y": -4.2068573869,
				"z": 5.5028126383,
				"element": "H" 
			},
			{
				"x": -1.596898278,
				"y": -2.2166925914,
				"z": 2.552486735,
				"element": "H" 
			},
			{
				"x": -1.6668140949,
				"y": -1.8863092402,
				"z": 0.0759643376,
				"element": "H" 
			},
			{
				"x": -1.9543384974,
				"y": 2.3510054285,
				"z": 0.6260665069,
				"element": "H" 
			},
			{
				"x": -1.9548908476,
				"y": 2.0297776175,
				"z": 3.1085449131,
				"element": "H" 
			},
			{
				"x": -1.8593874174,
				"y": -0.100769509,
				"z": -3.9472497583,
				"element": "H" 
			},
			{
				"x": -1.9194205622,
				"y": 0.7523521832,
				"z": -6.2525012904,
				"element": "H" 
			},
			{
				"x": -2.4607721398,
				"y": 2.5530054094,
				"z": -7.6885596416,
				"element": "H" 
			},
			{
				"x": -0.2372783708,
				"y": 5.0068579089,
				"z": -6.1532103786,
				"element": "H" 
			},
			{
				"x": -0.2445231749,
				"y": 5.9545313197,
				"z": -7.6715077939,
				"element": "H" 
			},
			{
				"x": -1.5581119124,
				"y": 6.1354233241,
				"z": -6.5036381184,
				"element": "H" 
			},
			{
				"x": -2.18955391,
				"y": 4.7860860651,
				"z": -4.774485045,
				"element": "H" 
			},
			{
				"x": -2.0655945686,
				"y": 3.9255437161,
				"z": -2.4716409756,
				"element": "H" 
			}
		],
		 "valence_orbital": [ 
			{
				"type": "occ",
				"energy": -0.26531,
				"method": "rhf"
			},
			{
				"type": "occ",
				"energy": -0.25909,
				"method": "rhf"
			},
			{
				"type": "occ",
				"energy": -0.24508,
				"method": "rhf"
			},
			{
				"type": "occ",
				"energy": -0.2203,
				"method": "rhf"
			},
			{
				"type": "occ",
				"energy": -0.2088,
				"method": "rhf"
			},
			{
				"type": "unocc",
				"energy": -0.09331,
				"method": "rhf"
			},
			{
				"type": "unocc",
				"energy": -0.07007,
				"method": "rhf"
			},
			{
				"type": "unocc",
				"energy": -0.02654,
				"method": "rhf"
			},
			{
				"type": "unocc",
				"energy": -0.01774,
				"method": "rhf"
			},
			{
				"type": "unocc",
				"energy": -0.01521,
				"method": "rhf"
			}
		],
		"cosmo_sigma_profile": { 
			"-0.025": 0.0,
			"-0.024": 0.0,
			"-0.023": 0.0,
			"-0.022": 0.0,
			"-0.021": 0.0,
			"-0.02": 0.0,
			"-0.019": 0.0,
			"-0.018": 0.0,
			"-0.017": 0.0,
			"-0.016": 0.249144511559,
			"-0.015": 1.54871265458,
			"-0.014": 2.77054842382,
			"-0.013": 2.60728235506,
			"-0.012": 2.45310814392,
			"-0.011": 3.13655785398,
			"-0.01": 2.66495877671,
			"-0.009": 2.73485859506,
			"-0.008": 6.0872136761,
			"-0.007": 15.3309414376,
			"-0.006": 27.4017389835,
			"-0.005": 30.2944963639,
			"-0.004": 30.5198661342,
			"-0.003": 32.569843172,
			"-0.002": 32.4085106423,
			"-0.001": 31.1904563425,
			"0.0": 29.1162986232,
			"0.001": 36.796682401,
			"0.002": 40.2353024991,
			"0.003": 40.5070403933,
			"0.004": 19.1753997297,
			"0.005": 8.50427410202,
			"0.006": 6.73003304503,
			"0.007": 5.31782973432,
			"0.008": 6.68254227306,
			"0.009": 7.96335055545,
			"0.01": 7.92304014588,
			"0.011": 6.67044376172,
			"0.012": 7.81921832843,
			"0.013": 10.4742814025,
			"0.014": 3.85733218661,
			"0.015": 0.169901009778,
			"0.016": 0.0,
			"0.017": 0.0,
			"0.018": 0.0,
			"0.019": 0.0,
			"0.02": 0.0,
			"0.021": 0.0,
			"0.022": 0.0,
			"0.023": 0.0,
			"0.024": 0.0,
			"0.025": 0.0
		}
	}
}
