{
	 "smiles": "SC1=NC2=CC=CC=C2N1", 
	 "Tm": 571.15, 
	 "num_atms": 16, 
	 "gaussian": { 
		 "optdone": 1, 
		 "sigma_profile": "yes", 
		 "theory": "DFT", 
		 "functional": "B3LYP", 
		 "basiset": "6-31G**", 
		 "properties": { 
			 "R2extent": 2345.6224, 
			 "electric_dipole_moment_norm": 2.25663715515, 
			 "electric_quadrupole_moment_norm": 6.71646726784, 
			 "total_energy": -778.055882179, 
			 "HOMO_LUMO_gap": 0.20075, 
			 "cosmo_polarized_energy": -11.98, 
			 "cosmo_cavitation_energy": 21.9, 
			 "cosmo_dispersion_energy": -17.27, 
			 "cosmo_repulsion_energy": 1.34, 
			 "cosmo_total_nonelectrostatic_energy": 5.98, 
			 "SMD_solvation_energy": 1.08 
		},
		"coords": [
			{
				"x": -2.3795208596,
				"y": 3.0634111536,
				"z": 1.2596092013,
				"element": "S" 
			},
			{
				"x": -0.935169067,
				"y": 2.1767417578,
				"z": 0.7523385043,
				"element": "C" 
			},
			{
				"x": 0.2708059667,
				"y": 2.338286834,
				"z": 1.230604104,
				"element": "N" 
			},
			{
				"x": 1.0517578742,
				"y": 1.4275069125,
				"z": 0.5248628379,
				"element": "C" 
			},
			{
				"x": 2.4225036979,
				"y": 1.1617520692,
				"z": 0.6190170755,
				"element": "C" 
			},
			{
				"x": 2.9585085701,
				"y": 0.1852540327,
				"z": -0.2167541399,
				"element": "C" 
			},
			{
				"x": 2.1546787673,
				"y": -0.5197649562,
				"z": -1.132828128,
				"element": "C" 
			},
			{
				"x": 0.7869998716,
				"y": -0.2710011301,
				"z": -1.2431630386,
				"element": "C" 
			},
			{
				"x": 0.260004288,
				"y": 0.7081942165,
				"z": -0.4023579715,
				"element": "C" 
			},
			{
				"x": -1.0218335555,
				"y": 1.2154501909,
				"z": -0.2316724405,
				"element": "N" 
			},
			{
				"x": -1.7064009947,
				"y": 3.7934371239,
				"z": 2.1674410776,
				"element": "H" 
			},
			{
				"x": 3.0373134651,
				"y": 1.708062989,
				"z": 1.3267608896,
				"element": "H" 
			},
			{
				"x": 4.0194932221,
				"y": -0.0400199462,
				"z": -0.163463345,
				"element": "H" 
			},
			{
				"x": 2.6085905415,
				"y": -1.274336524,
				"z": -1.7682000281,
				"element": "H" 
			},
			{
				"x": 0.1689771095,
				"y": -0.8159740276,
				"z": -1.950383963,
				"element": "H" 
			},
			{
				"x": -1.8542088972,
				"y": 0.937899304,
				"z": -0.7278106357,
				"element": "H" 
			}
		],
		 "valence_orbital": [ 
			{
				"type": "occ",
				"energy": -0.31261,
				"method": "rhf"
			},
			{
				"type": "occ",
				"energy": -0.28342,
				"method": "rhf"
			},
			{
				"type": "occ",
				"energy": -0.27789,
				"method": "rhf"
			},
			{
				"type": "occ",
				"energy": -0.22879,
				"method": "rhf"
			},
			{
				"type": "occ",
				"energy": -0.21444,
				"method": "rhf"
			},
			{
				"type": "unocc",
				"energy": -0.01369,
				"method": "rhf"
			},
			{
				"type": "unocc",
				"energy": 0.00106,
				"method": "rhf"
			},
			{
				"type": "unocc",
				"energy": 0.02076,
				"method": "rhf"
			},
			{
				"type": "unocc",
				"energy": 0.05207,
				"method": "rhf"
			},
			{
				"type": "unocc",
				"energy": 0.06562,
				"method": "rhf"
			}
		],
		"cosmo_sigma_profile": { 
			"-0.025": 0.0,
			"-0.024": 0.0,
			"-0.023": 0.0,
			"-0.022": 0.0,
			"-0.021": 0.0,
			"-0.02": 0.0,
			"-0.019": 0.0,
			"-0.018": 0.0085202236751,
			"-0.017": 1.03396583845,
			"-0.016": 1.85097076146,
			"-0.015": 0.889873915099,
			"-0.014": 1.80443589058,
			"-0.013": 1.21643018724,
			"-0.012": 1.84291569031,
			"-0.011": 2.74279638281,
			"-0.01": 2.44032718051,
			"-0.009": 2.19616366713,
			"-0.008": 2.60978761736,
			"-0.007": 3.07014956162,
			"-0.006": 5.94470967057,
			"-0.005": 9.9068430995,
			"-0.004": 9.48696978379,
			"-0.003": 11.3032668829,
			"-0.002": 9.5037722231,
			"-0.001": 7.81616368933,
			"0.0": 8.80399430272,
			"0.001": 13.649092565,
			"0.002": 14.0907298023,
			"0.003": 12.3149545299,
			"0.004": 14.2593456713,
			"0.005": 13.9071868157,
			"0.006": 11.9546371984,
			"0.007": 4.35674867509,
			"0.008": 1.3066847896,
			"0.009": 1.34675734862,
			"0.01": 1.04543018684,
			"0.011": 1.06396196774,
			"0.012": 1.1843960633,
			"0.013": 0.645112678828,
			"0.014": 0.956532521938,
			"0.015": 1.06534291341,
			"0.016": 0.873113697727,
			"0.017": 0.134032625166,
			"0.018": 0.0,
			"0.019": 0.0,
			"0.02": 0.0,
			"0.021": 0.0,
			"0.022": 0.0,
			"0.023": 0.0,
			"0.024": 0.0,
			"0.025": 0.0
		}
	}
}
