{
	 "smiles": "FC1=CC(Br)=C(NC(=O)CCl)C(F)=C1", 
	 "Tm": 406.15, 
	 "num_atms": 19, 
	 "gaussian": { 
		 "optdone": 1, 
		 "sigma_profile": "yes", 
		 "theory": "DFT", 
		 "functional": "B3LYP", 
		 "basiset": "6-31G**", 
		 "properties": { 
			 "R2extent": 4887.8691, 
			 "electric_dipole_moment_norm": 4.93667968578, 
			 "electric_quadrupole_moment_norm": 18.7150227999, 
			 "total_energy": -3669.10401196, 
			 "HOMO_LUMO_gap": 0.2044, 
			 "cosmo_polarized_energy": -13.45, 
			 "cosmo_cavitation_energy": 28.99, 
			 "cosmo_dispersion_energy": -20.9, 
			 "cosmo_repulsion_energy": 1.63, 
			 "cosmo_total_nonelectrostatic_energy": 9.71, 
			 "SMD_solvation_energy": 5.36 
		},
		"coords": [
			{
				"x": 2.4680626723,
				"y": -2.8908651249,
				"z": 2.6922619524,
				"element": "F" 
			},
			{
				"x": 1.6115466904,
				"y": -1.9910860003,
				"z": 2.1845469225,
				"element": "C" 
			},
			{
				"x": 1.4414921521,
				"y": -1.9305888457,
				"z": 0.8062529253,
				"element": "C" 
			},
			{
				"x": 0.5633176276,
				"y": -0.9809489676,
				"z": 0.2894377234,
				"element": "C" 
			},
			{
				"x": 0.3227122764,
				"y": -0.8933860711,
				"z": -1.5952529335,
				"element": "Br" 
			},
			{
				"x": -0.1605726166,
				"y": -0.1004802809,
				"z": 1.1163576836,
				"element": "C" 
			},
			{
				"x": -1.0943178037,
				"y": 0.8208606929,
				"z": 0.6035415509,
				"element": "N" 
			},
			{
				"x": -1.0981617788,
				"y": 2.209372772,
				"z": 0.6744594989,
				"element": "C" 
			},
			{
				"x": -1.9547642935,
				"y": 2.8505090351,
				"z": 0.103302749,
				"element": "O" 
			},
			{
				"x": 0.0300959464,
				"y": 2.8256294949,
				"z": 1.506117866,
				"element": "C" 
			},
			{
				"x": 0.1660295811,
				"y": 4.5911214904,
				"z": 1.2558838188,
				"element": "Cl" 
			},
			{
				"x": 0.0368473574,
				"y": -0.2441242661,
				"z": 2.499118496,
				"element": "C" 
			},
			{
				"x": -0.6665539758,
				"y": 0.5477986323,
				"z": 3.3300757569,
				"element": "F" 
			},
			{
				"x": 0.9235198986,
				"y": -1.1543023815,
				"z": 3.0547231047,
				"element": "C" 
			},
			{
				"x": 1.9893066827,
				"y": -2.6038741027,
				"z": 0.1597441624,
				"element": "H" 
			},
			{
				"x": -1.7655968888,
				"y": 0.4730756632,
				"z": -0.0716781057,
				"element": "H" 
			},
			{
				"x": -0.158042414,
				"y": 2.6515802172,
				"z": 2.5659816364,
				"element": "H" 
			},
			{
				"x": 0.9898114749,
				"y": 2.3743803206,
				"z": 1.245980214,
				"element": "H" 
			},
			{
				"x": 1.0509674113,
				"y": -1.2222722779,
				"z": 4.1278449781,
				"element": "H" 
			}
		],
		 "valence_orbital": [ 
			{
				"type": "occ",
				"energy": -0.3014,
				"method": "rhf"
			},
			{
				"type": "occ",
				"energy": -0.29724,
				"method": "rhf"
			},
			{
				"type": "occ",
				"energy": -0.27745,
				"method": "rhf"
			},
			{
				"type": "occ",
				"energy": -0.27563,
				"method": "rhf"
			},
			{
				"type": "occ",
				"energy": -0.25603,
				"method": "rhf"
			},
			{
				"type": "unocc",
				"energy": -0.05163,
				"method": "rhf"
			},
			{
				"type": "unocc",
				"energy": -0.03823,
				"method": "rhf"
			},
			{
				"type": "unocc",
				"energy": -0.02542,
				"method": "rhf"
			},
			{
				"type": "unocc",
				"energy": 0.00577,
				"method": "rhf"
			},
			{
				"type": "unocc",
				"energy": 0.02767,
				"method": "rhf"
			}
		],
		"cosmo_sigma_profile": { 
			"-0.025": 0.0,
			"-0.024": 0.0,
			"-0.023": 0.0,
			"-0.022": 0.0,
			"-0.021": 0.0,
			"-0.02": 0.0,
			"-0.019": 0.0,
			"-0.018": 0.0,
			"-0.017": 0.0,
			"-0.016": 0.0,
			"-0.015": 0.014748323186,
			"-0.014": 0.847621045404,
			"-0.013": 0.710700416445,
			"-0.012": 0.996298777653,
			"-0.011": 1.07678723931,
			"-0.01": 2.02167250449,
			"-0.009": 5.17579399479,
			"-0.008": 7.27968163146,
			"-0.007": 8.7880357417,
			"-0.006": 8.97066290527,
			"-0.005": 10.4842486508,
			"-0.004": 8.82009427409,
			"-0.003": 11.1510455274,
			"-0.002": 17.803560915,
			"-0.001": 26.4249036819,
			"0.0": 21.4352737217,
			"0.001": 17.0041502845,
			"0.002": 18.3593096061,
			"0.003": 25.9566441035,
			"0.004": 10.8155669445,
			"0.005": 7.95801734508,
			"0.006": 6.83091878007,
			"0.007": 1.68521976477,
			"0.008": 1.69124376838,
			"0.009": 2.19797607938,
			"0.01": 2.30432907426,
			"0.011": 2.92840179534,
			"0.012": 5.80028261482,
			"0.013": 2.64494532591,
			"0.014": 0.450028688825,
			"0.015": 0.0,
			"0.016": 0.0,
			"0.017": 0.0,
			"0.018": 0.0,
			"0.019": 0.0,
			"0.02": 0.0,
			"0.021": 0.0,
			"0.022": 0.0,
			"0.023": 0.0,
			"0.024": 0.0,
			"0.025": 0.0
		}
	}
}
