{
	 "smiles": "CC(C)(C=O)C(C(C(O)=O)C(O)=O)C1=CC=CC=C1", 
	 "Tm": 426.15, 
	 "num_atms": 35, 
	 "gaussian": { 
		 "optdone": 1, 
		 "sigma_profile": "yes", 
		 "theory": "DFT", 
		 "functional": "B3LYP", 
		 "basiset": "6-31G**", 
		 "properties": { 
			 "R2extent": 4472.9061, 
			 "electric_dipole_moment_norm": 3.03603274521, 
			 "electric_quadrupole_moment_norm": 13.1917449691, 
			 "total_energy": -919.259597242, 
			 "HOMO_LUMO_gap": 0.21674, 
			 "cosmo_polarized_energy": -19.34, 
			 "cosmo_cavitation_energy": 36.98, 
			 "cosmo_dispersion_energy": -24.5, 
			 "cosmo_repulsion_energy": 1.89, 
			 "cosmo_total_nonelectrostatic_energy": 14.37, 
			 "SMD_solvation_energy": 9.15 
		},
		"coords": [
			{
				"x": -2.6026894166,
				"y": -1.2905145856,
				"z": -1.0935020745,
				"element": "C" 
			},
			{
				"x": -1.4856115198,
				"y": -0.3182556076,
				"z": -1.553220191,
				"element": "C" 
			},
			{
				"x": -1.0848666118,
				"y": -0.6560194819,
				"z": -2.9991227863,
				"element": "C" 
			},
			{
				"x": -2.1235124509,
				"y": 1.0699014064,
				"z": -1.5005249187,
				"element": "C" 
			},
			{
				"x": -2.3208432227,
				"y": 1.7719641293,
				"z": -2.4692883857,
				"element": "O" 
			},
			{
				"x": -0.2535557122,
				"y": -0.4696898554,
				"z": -0.5760041145,
				"element": "C" 
			},
			{
				"x": 1.0576946531,
				"y": 0.229167035,
				"z": -1.0986086015,
				"element": "C" 
			},
			{
				"x": 1.0036597779,
				"y": 1.6452676964,
				"z": -1.6647417983,
				"element": "C" 
			},
			{
				"x": 0.3181605882,
				"y": 2.533819365,
				"z": -0.9139500724,
				"element": "O" 
			},
			{
				"x": 1.5284482915,
				"y": 1.9517303742,
				"z": -2.7113758541,
				"element": "O" 
			},
			{
				"x": 2.1692666756,
				"y": 0.0402857609,
				"z": -0.0670130503,
				"element": "C" 
			},
			{
				"x": 2.694317859,
				"y": 1.2021704605,
				"z": 0.371750316,
				"element": "O" 
			},
			{
				"x": 2.5457314526,
				"y": -1.0452682698,
				"z": 0.3094811038,
				"element": "O" 
			},
			{
				"x": -0.559608387,
				"y": -0.2783189538,
				"z": 0.9138082464,
				"element": "C" 
			},
			{
				"x": -0.7108365759,
				"y": 0.9676487152,
				"z": 1.5440097778,
				"element": "C" 
			},
			{
				"x": -0.9983473061,
				"y": 1.049787606,
				"z": 2.9084959177,
				"element": "C" 
			},
			{
				"x": -1.1398597415,
				"y": -0.1060927481,
				"z": 3.6760222531,
				"element": "C" 
			},
			{
				"x": -0.9798783313,
				"y": -1.3515734009,
				"z": 3.0681122617,
				"element": "C" 
			},
			{
				"x": -0.6887796267,
				"y": -1.4309950559,
				"z": 1.7066374969,
				"element": "C" 
			},
			{
				"x": -2.22761077,
				"y": -2.3194998694,
				"z": -1.0880622161,
				"element": "H" 
			},
			{
				"x": -3.4506181596,
				"y": -1.2452612318,
				"z": -1.7839170786,
				"element": "H" 
			},
			{
				"x": -2.9640571919,
				"y": -1.0594854754,
				"z": -0.0882606301,
				"element": "H" 
			},
			{
				"x": -0.3932462026,
				"y": 0.0747824462,
				"z": -3.4230901585,
				"element": "H" 
			},
			{
				"x": -1.9696053571,
				"y": -0.6613843962,
				"z": -3.6404074793,
				"element": "H" 
			},
			{
				"x": -0.6231512737,
				"y": -1.6483414419,
				"z": -3.0468847279,
				"element": "H" 
			},
			{
				"x": -2.464037846,
				"y": 1.3854977755,
				"z": -0.492321073,
				"element": "H" 
			},
			{
				"x": 0.0111089472,
				"y": -1.5288470155,
				"z": -0.6635978086,
				"element": "H" 
			},
			{
				"x": 1.3946436473,
				"y": -0.3591385799,
				"z": -1.9555717055,
				"element": "H" 
			},
			{
				"x": 0.316181229,
				"y": 3.3686536119,
				"z": -1.4133233369,
				"element": "H" 
			},
			{
				"x": 3.3879099877,
				"y": 0.9671282062,
				"z": 1.0119234948,
				"element": "H" 
			},
			{
				"x": -0.5871510243,
				"y": 1.8797614141,
				"z": 0.9756444499,
				"element": "H" 
			},
			{
				"x": -1.1097491266,
				"y": 2.0267697971,
				"z": 3.3706686773,
				"element": "H" 
			},
			{
				"x": -1.3641196499,
				"y": -0.0372746445,
				"z": 4.7365816959,
				"element": "H" 
			},
			{
				"x": -1.0726696332,
				"y": -2.2625547255,
				"z": 3.6524706182,
				"element": "H" 
			},
			{
				"x": -0.5501179719,
				"y": -2.4075204611,
				"z": 1.2504817524,
				"element": "H" 
			}
		],
		 "valence_orbital": [ 
			{
				"type": "occ",
				"energy": -0.2958,
				"method": "rhf"
			},
			{
				"type": "occ",
				"energy": -0.27801,
				"method": "rhf"
			},
			{
				"type": "occ",
				"energy": -0.25903,
				"method": "rhf"
			},
			{
				"type": "occ",
				"energy": -0.25356,
				"method": "rhf"
			},
			{
				"type": "occ",
				"energy": -0.24319,
				"method": "rhf"
			},
			{
				"type": "unocc",
				"energy": -0.02645,
				"method": "rhf"
			},
			{
				"type": "unocc",
				"energy": -0.01485,
				"method": "rhf"
			},
			{
				"type": "unocc",
				"energy": -0.01191,
				"method": "rhf"
			},
			{
				"type": "unocc",
				"energy": -0.00325,
				"method": "rhf"
			},
			{
				"type": "unocc",
				"energy": 0.00449,
				"method": "rhf"
			}
		],
		"cosmo_sigma_profile": { 
			"-0.025": 0.0,
			"-0.024": 0.0,
			"-0.023": 0.0,
			"-0.022": 0.0,
			"-0.021": 0.0,
			"-0.02": 0.0,
			"-0.019": 1.27850654149,
			"-0.018": 1.76722202153,
			"-0.017": 1.68570716945,
			"-0.016": 1.68791373538,
			"-0.015": 1.56592396213,
			"-0.014": 1.33348187546,
			"-0.013": 0.894746822323,
			"-0.012": 1.48011348868,
			"-0.011": 1.66804435082,
			"-0.01": 1.4121778252,
			"-0.009": 0.853711686559,
			"-0.008": 2.42712167366,
			"-0.007": 5.38022973104,
			"-0.006": 11.8572169042,
			"-0.005": 19.7152790087,
			"-0.004": 25.598366144,
			"-0.003": 23.8223564083,
			"-0.002": 19.5105780265,
			"-0.001": 20.4272354323,
			"0.0": 22.4689879298,
			"0.001": 16.8996432672,
			"0.002": 11.9881435269,
			"0.003": 13.1220090944,
			"0.004": 14.4429973598,
			"0.005": 14.3250018913,
			"0.006": 10.4667323092,
			"0.007": 5.30287302899,
			"0.008": 5.72301678739,
			"0.009": 5.31608909104,
			"0.01": 7.65828254459,
			"0.011": 13.4043474803,
			"0.012": 4.58408930977,
			"0.013": 0.382337448569,
			"0.014": 0.0,
			"0.015": 0.0,
			"0.016": 0.0,
			"0.017": 0.0,
			"0.018": 0.0,
			"0.019": 0.0,
			"0.02": 0.0,
			"0.021": 0.0,
			"0.022": 0.0,
			"0.023": 0.0,
			"0.024": 0.0,
			"0.025": 0.0
		}
	}
}
