{
	 "smiles": "CC(=O)C1=C2CCCNC2=C(C(C)=O)C2=C1CCCN2", 
	 "Tm": 416.15, 
	 "num_atms": 40, 
	 "gaussian": { 
		 "optdone": 1, 
		 "sigma_profile": "yes", 
		 "theory": "DFT", 
		 "functional": "B3LYP", 
		 "basiset": "6-31G**", 
		 "properties": { 
			 "R2extent": 6031.0039, 
			 "electric_dipole_moment_norm": 2.188130492, 
			 "electric_quadrupole_moment_norm": 24.3746341724, 
			 "total_energy": -881.726131718, 
			 "HOMO_LUMO_gap": 0.1368, 
			 "cosmo_polarized_energy": -14.24, 
			 "cosmo_cavitation_energy": 39.17, 
			 "cosmo_dispersion_energy": -28.21, 
			 "cosmo_repulsion_energy": 2.17, 
			 "cosmo_total_nonelectrostatic_energy": 13.13, 
			 "SMD_solvation_energy": 5.41 
		},
		"coords": [
			{
				"x": -2.3884400664,
				"y": -0.9384370206,
				"z": 2.5356867005,
				"element": "C" 
			},
			{
				"x": -0.9555295324,
				"y": -0.6175723159,
				"z": 2.9253020164,
				"element": "C" 
			},
			{
				"x": -0.5637408052,
				"y": -0.7052463659,
				"z": 4.0738174704,
				"element": "O" 
			},
			{
				"x": -0.0289352241,
				"y": -0.1978534426,
				"z": 1.7997070039,
				"element": "C" 
			},
			{
				"x": 0.0554558231,
				"y": 1.1503735209,
				"z": 1.4700939517,
				"element": "C" 
			},
			{
				"x": -0.6962108218,
				"y": 2.224185997,
				"z": 2.2349618335,
				"element": "C" 
			},
			{
				"x": -1.0086112953,
				"y": 3.4248111129,
				"z": 1.3345359242,
				"element": "C" 
			},
			{
				"x": 0.2866285127,
				"y": 3.935384506,
				"z": 0.7088574729,
				"element": "C" 
			},
			{
				"x": 1.0184288723,
				"y": 2.8548282275,
				"z": 0.0708813639,
				"element": "N" 
			},
			{
				"x": 0.9052109309,
				"y": 1.5395927809,
				"z": 0.3977859242,
				"element": "C" 
			},
			{
				"x": 1.60553129,
				"y": 0.5371845146,
				"z": -0.3677825941,
				"element": "C" 
			},
			{
				"x": 2.2268150873,
				"y": 0.9302451655,
				"z": -1.6429650917,
				"element": "C" 
			},
			{
				"x": 2.4753649697,
				"y": -0.0729307392,
				"z": -2.7699967684,
				"element": "C" 
			},
			{
				"x": 2.4913242287,
				"y": 2.1136151773,
				"z": -1.91805027,
				"element": "O" 
			},
			{
				"x": 1.5943347895,
				"y": -0.8136016836,
				"z": 0.1207429607,
				"element": "C" 
			},
			{
				"x": 0.7487642894,
				"y": -1.1930268087,
				"z": 1.1773803049,
				"element": "C" 
			},
			{
				"x": 0.7192184802,
				"y": -2.6272136818,
				"z": 1.6845801043,
				"element": "C" 
			},
			{
				"x": 1.3142193221,
				"y": -3.6073597982,
				"z": 0.6700166759,
				"element": "C" 
			},
			{
				"x": 2.6450162005,
				"y": -3.0612775471,
				"z": 0.1671898925,
				"element": "C" 
			},
			{
				"x": 2.4295178445,
				"y": -1.7631222635,
				"z": -0.4616922332,
				"element": "N" 
			},
			{
				"x": -2.8505792899,
				"y": -0.0811250241,
				"z": 2.034054884,
				"element": "H" 
			},
			{
				"x": -2.9645163907,
				"y": -1.2103719876,
				"z": 3.4222163797,
				"element": "H" 
			},
			{
				"x": -2.4038166307,
				"y": -1.7631810209,
				"z": 1.8137356796,
				"element": "H" 
			},
			{
				"x": -1.6220899806,
				"y": 1.8253968936,
				"z": 2.6621567081,
				"element": "H" 
			},
			{
				"x": -0.0976054038,
				"y": 2.5637448873,
				"z": 3.0927688809,
				"element": "H" 
			},
			{
				"x": -1.7040424017,
				"y": 3.1235527098,
				"z": 0.5417658357,
				"element": "H" 
			},
			{
				"x": -1.485725549,
				"y": 4.2283247318,
				"z": 1.9051208952,
				"element": "H" 
			},
			{
				"x": 0.0791999682,
				"y": 4.7028019404,
				"z": -0.0456323177,
				"element": "H" 
			},
			{
				"x": 0.9049214861,
				"y": 4.4122048304,
				"z": 1.4863726523,
				"element": "H" 
			},
			{
				"x": 1.6664421134,
				"y": 3.0440388739,
				"z": -0.6918199702,
				"element": "H" 
			},
			{
				"x": 3.5310700099,
				"y": -0.3733743281,
				"z": -2.7959428221,
				"element": "H" 
			},
			{
				"x": 1.8635987114,
				"y": -0.9727846041,
				"z": -2.7074500688,
				"element": "H" 
			},
			{
				"x": 2.2827201195,
				"y": 0.4603542748,
				"z": -3.7035464484,
				"element": "H" 
			},
			{
				"x": -0.3080758634,
				"y": -2.9295764306,
				"z": 1.9208341632,
				"element": "H" 
			},
			{
				"x": 1.2704834541,
				"y": -2.7009860045,
				"z": 2.6322438728,
				"element": "H" 
			},
			{
				"x": 0.6360649744,
				"y": -3.7310247386,
				"z": -0.1826742059,
				"element": "H" 
			},
			{
				"x": 1.4599808026,
				"y": -4.5933153173,
				"z": 1.1230748645,
				"element": "H" 
			},
			{
				"x": 3.3524970873,
				"y": -2.9908091576,
				"z": 1.0106686784,
				"element": "H" 
			},
			{
				"x": 3.0904055992,
				"y": -3.7286192804,
				"z": -0.5786814112,
				"element": "H" 
			},
			{
				"x": 3.2547042878,
				"y": -1.3844305834,
				"z": -0.8986188925,
				"element": "H" 
			}
		],
		 "valence_orbital": [ 
			{
				"type": "occ",
				"energy": -0.26745,
				"method": "rhf"
			},
			{
				"type": "occ",
				"energy": -0.24331,
				"method": "rhf"
			},
			{
				"type": "occ",
				"energy": -0.23558,
				"method": "rhf"
			},
			{
				"type": "occ",
				"energy": -0.20952,
				"method": "rhf"
			},
			{
				"type": "occ",
				"energy": -0.17686,
				"method": "rhf"
			},
			{
				"type": "unocc",
				"energy": -0.04006,
				"method": "rhf"
			},
			{
				"type": "unocc",
				"energy": -0.01542,
				"method": "rhf"
			},
			{
				"type": "unocc",
				"energy": 0.02718,
				"method": "rhf"
			},
			{
				"type": "unocc",
				"energy": 0.03854,
				"method": "rhf"
			},
			{
				"type": "unocc",
				"energy": 0.07221,
				"method": "rhf"
			}
		],
		"cosmo_sigma_profile": { 
			"-0.025": 0.0,
			"-0.024": 0.0,
			"-0.023": 0.0,
			"-0.022": 0.0,
			"-0.021": 0.0,
			"-0.02": 0.0,
			"-0.019": 0.0,
			"-0.018": 0.0,
			"-0.017": 0.0,
			"-0.016": 0.0,
			"-0.015": 0.0,
			"-0.014": 0.0,
			"-0.013": 0.452121298817,
			"-0.012": 1.27891116578,
			"-0.011": 1.0741597838,
			"-0.01": 1.59236936426,
			"-0.009": 1.14440500901,
			"-0.008": 1.66508764959,
			"-0.007": 2.16974544136,
			"-0.006": 7.68086238024,
			"-0.005": 14.1733988798,
			"-0.004": 23.265948056,
			"-0.003": 40.9925778773,
			"-0.002": 45.7989023915,
			"-0.001": 39.7290886922,
			"0.0": 26.9687607179,
			"0.001": 12.2793262931,
			"0.002": 9.39468882235,
			"0.003": 11.414854845,
			"0.004": 14.9170101312,
			"0.005": 13.2621213994,
			"0.006": 7.3240487791,
			"0.007": 3.89286665829,
			"0.008": 3.02535337811,
			"0.009": 3.45203720174,
			"0.01": 3.26890748637,
			"0.011": 6.14776327615,
			"0.012": 5.77177159619,
			"0.013": 3.30252207034,
			"0.014": 1.18654743416,
			"0.015": 0.185062580984,
			"0.016": 0.0,
			"0.017": 0.0,
			"0.018": 0.0,
			"0.019": 0.0,
			"0.02": 0.0,
			"0.021": 0.0,
			"0.022": 0.0,
			"0.023": 0.0,
			"0.024": 0.0,
			"0.025": 0.0
		}
	}
}
