{
	 "smiles": "CCCS(=O)(=O)NC1=C(C)C(N)=CC=C1", 
	 "Tm": 373.15, 
	 "num_atms": 31, 
	 "gaussian": { 
		 "optdone": 1, 
		 "sigma_profile": "yes", 
		 "theory": "DFT", 
		 "functional": "B3LYP", 
		 "basiset": "6-31G**", 
		 "properties": { 
			 "R2extent": 4429.78, 
			 "electric_dipole_moment_norm": 5.68661465725, 
			 "electric_quadrupole_moment_norm": 12.750157308, 
			 "total_energy": -1048.79562618, 
			 "HOMO_LUMO_gap": 0.19864, 
			 "cosmo_polarized_energy": -17.94, 
			 "cosmo_cavitation_energy": 34.27, 
			 "cosmo_dispersion_energy": -24.26, 
			 "cosmo_repulsion_energy": 1.88, 
			 "cosmo_total_nonelectrostatic_energy": 11.89, 
			 "SMD_solvation_energy": 5.08 
		},
		"coords": [
			{
				"x": 0.8649259167,
				"y": -0.1460204168,
				"z": -4.0392305864,
				"element": "C" 
			},
			{
				"x": -0.0398636414,
				"y": 0.0857509885,
				"z": -2.8231531972,
				"element": "C" 
			},
			{
				"x": -1.4454731178,
				"y": -0.4681932789,
				"z": -3.0600822684,
				"element": "C" 
			},
			{
				"x": -2.6073790707,
				"y": -0.1623456442,
				"z": -1.7025248685,
				"element": "S" 
			},
			{
				"x": -3.9083535165,
				"y": -0.7261277011,
				"z": -2.0824095855,
				"element": "O" 
			},
			{
				"x": -2.4794093612,
				"y": 1.2493375041,
				"z": -1.3235134686,
				"element": "O" 
			},
			{
				"x": -2.0630769243,
				"y": -1.1998124212,
				"z": -0.4711177684,
				"element": "N" 
			},
			{
				"x": -1.1252490018,
				"y": -0.802965809,
				"z": 0.5539401868,
				"element": "C" 
			},
			{
				"x": -0.0015279369,
				"y": -1.6237913723,
				"z": 0.7682472945,
				"element": "C" 
			},
			{
				"x": 0.2535007703,
				"y": -2.8772587281,
				"z": -0.030867998,
				"element": "C" 
			},
			{
				"x": 0.9027450518,
				"y": -1.2663093521,
				"z": 1.7965827174,
				"element": "C" 
			},
			{
				"x": 1.9927566626,
				"y": -2.0940675591,
				"z": 2.0842047906,
				"element": "N" 
			},
			{
				"x": 0.6706982891,
				"y": -0.1164614393,
				"z": 2.5657207842,
				"element": "C" 
			},
			{
				"x": -0.4505824775,
				"y": 0.6736063069,
				"z": 2.3343602294,
				"element": "C" 
			},
			{
				"x": -1.3587751226,
				"y": 0.3358849704,
				"z": 1.3343622917,
				"element": "C" 
			},
			{
				"x": 0.4624991791,
				"y": 0.3414428014,
				"z": -4.9339617753,
				"element": "H" 
			},
			{
				"x": 1.8647540341,
				"y": 0.2610370069,
				"z": -3.8602082492,
				"element": "H" 
			},
			{
				"x": 0.9737155715,
				"y": -1.2133026454,
				"z": -4.2618361491,
				"element": "H" 
			},
			{
				"x": 0.3981442212,
				"y": -0.3864747304,
				"z": -1.9375333568,
				"element": "H" 
			},
			{
				"x": -0.1161799944,
				"y": 1.1552699436,
				"z": -2.6045885754,
				"element": "H" 
			},
			{
				"x": -1.4552456726,
				"y": -1.5492848345,
				"z": -3.2220217698,
				"element": "H" 
			},
			{
				"x": -1.9241970593,
				"y": 0.0125348767,
				"z": -3.9201818514,
				"element": "H" 
			},
			{
				"x": -2.8796077093,
				"y": -1.7109117768,
				"z": -0.1455523497,
				"element": "H" 
			},
			{
				"x": 1.1982007603,
				"y": -2.8174363695,
				"z": -0.5912242041,
				"element": "H" 
			},
			{
				"x": -0.5451544747,
				"y": -3.0527347065,
				"z": -0.7510044996,
				"element": "H" 
			},
			{
				"x": 0.3290036107,
				"y": -3.7529773552,
				"z": 0.6256731245,
				"element": "H" 
			},
			{
				"x": 2.7232723762,
				"y": -1.6535931375,
				"z": 2.6264929603,
				"element": "H" 
			},
			{
				"x": 2.3689278317,
				"y": -2.6121940752,
				"z": 1.3027310506,
				"element": "H" 
			},
			{
				"x": 1.3737829214,
				"y": 0.1480016755,
				"z": 3.352075798,
				"element": "H" 
			},
			{
				"x": -0.6184663099,
				"y": 1.5593191849,
				"z": 2.9399025149,
				"element": "H" 
			},
			{
				"x": -2.2286858056,
				"y": 0.9490780944,
				"z": 1.1374187786,
				"element": "H" 
			}
		],
		 "valence_orbital": [ 
			{
				"type": "occ",
				"energy": -0.29749,
				"method": "rhf"
			},
			{
				"type": "occ",
				"energy": -0.29221,
				"method": "rhf"
			},
			{
				"type": "occ",
				"energy": -0.27098,
				"method": "rhf"
			},
			{
				"type": "occ",
				"energy": -0.24349,
				"method": "rhf"
			},
			{
				"type": "occ",
				"energy": -0.20683,
				"method": "rhf"
			},
			{
				"type": "unocc",
				"energy": -0.00819,
				"method": "rhf"
			},
			{
				"type": "unocc",
				"energy": 0.01031,
				"method": "rhf"
			},
			{
				"type": "unocc",
				"energy": 0.05396,
				"method": "rhf"
			},
			{
				"type": "unocc",
				"energy": 0.07187,
				"method": "rhf"
			},
			{
				"type": "unocc",
				"energy": 0.0825,
				"method": "rhf"
			}
		],
		"cosmo_sigma_profile": { 
			"-0.025": 0.0,
			"-0.024": 0.0,
			"-0.023": 0.0,
			"-0.022": 0.0,
			"-0.021": 0.0,
			"-0.02": 0.0,
			"-0.019": 0.0,
			"-0.018": 0.0,
			"-0.017": 0.0,
			"-0.016": 0.0,
			"-0.015": 0.165106389071,
			"-0.014": 0.781718492384,
			"-0.013": 0.824263597838,
			"-0.012": 2.91852771968,
			"-0.011": 3.14503511093,
			"-0.01": 3.54454160403,
			"-0.009": 4.90973944704,
			"-0.008": 4.37963405186,
			"-0.007": 8.1094139664,
			"-0.006": 8.85568504455,
			"-0.005": 11.2876689684,
			"-0.004": 17.740202506,
			"-0.003": 23.948337991,
			"-0.002": 26.3123586625,
			"-0.001": 27.0328734846,
			"0.0": 23.9557952331,
			"0.001": 16.2029422371,
			"0.002": 8.68872375456,
			"0.003": 8.52238542565,
			"0.004": 8.45050269073,
			"0.005": 9.65474557976,
			"0.006": 10.3481069449,
			"0.007": 5.76340269912,
			"0.008": 4.09167330666,
			"0.009": 4.84988950282,
			"0.01": 5.52708407779,
			"0.011": 10.4979992255,
			"0.012": 6.78176214866,
			"0.013": 0.972444391212,
			"0.014": 0.750038693984,
			"0.015": 0.105629412315,
			"0.016": 0.0,
			"0.017": 0.0,
			"0.018": 0.0,
			"0.019": 0.0,
			"0.02": 0.0,
			"0.021": 0.0,
			"0.022": 0.0,
			"0.023": 0.0,
			"0.024": 0.0,
			"0.025": 0.0
		}
	}
}
