{
	 "smiles": "C[C@@]1(O)CC[C@@H]2C3CC[C@@H]4CC5(CCC4(C)C3CCC12C)OCCO5", 
	 "Tm": 465.15, 
	 "num_atms": 61, 
	 "gaussian": { 
		 "optdone": 1, 
		 "sigma_profile": "yes", 
		 "theory": "DFT", 
		 "functional": "B3LYP", 
		 "basiset": "6-31G**", 
		 "properties": { 
			 "R2extent": 11025.3564, 
			 "electric_dipole_moment_norm": 1.82499106299, 
			 "electric_quadrupole_moment_norm": 11.3870336085, 
			 "total_energy": -1085.70198466, 
			 "HOMO_LUMO_gap": 0.30601, 
			 "cosmo_polarized_energy": -10.83, 
			 "cosmo_cavitation_energy": 50.14, 
			 "cosmo_dispersion_energy": -35.57, 
			 "cosmo_repulsion_energy": 2.59, 
			 "cosmo_total_nonelectrostatic_energy": 17.16, 
			 "SMD_solvation_energy": 6.92 
		},
		"coords": [
			{
				"x": -1.2474379777,
				"y": -0.2362015722,
				"z": -4.5494067947,
				"element": "C" 
			},
			{
				"x": -2.4581463712,
				"y": 0.030962469,
				"z": -3.6405248121,
				"element": "C" 
			},
			{
				"x": -3.3467561029,
				"y": 0.9152641252,
				"z": -4.3322903066,
				"element": "O" 
			},
			{
				"x": -3.1496962294,
				"y": -1.3126710343,
				"z": -3.2419270392,
				"element": "C" 
			},
			{
				"x": -2.6328434567,
				"y": -1.6863528725,
				"z": -1.8240794206,
				"element": "C" 
			},
			{
				"x": -1.61135569,
				"y": -0.5818972402,
				"z": -1.4695674625,
				"element": "C" 
			},
			{
				"x": -1.3429411105,
				"y": -0.315730515,
				"z": 0.0237772567,
				"element": "C" 
			},
			{
				"x": -0.6676531554,
				"y": -1.5433128667,
				"z": 0.6959019833,
				"element": "C" 
			},
			{
				"x": 0.8687956175,
				"y": -1.5171050766,
				"z": 0.7099736071,
				"element": "C" 
			},
			{
				"x": 1.4936677138,
				"y": -0.1550595899,
				"z": 1.1258669422,
				"element": "C" 
			},
			{
				"x": 2.5262325739,
				"y": -0.2849676382,
				"z": 2.2595616894,
				"element": "C" 
			},
			{
				"x": 3.2785127715,
				"y": 1.0300009937,
				"z": 2.4921473262,
				"element": "C" 
			},
			{
				"x": 2.3266285874,
				"y": 2.2169070947,
				"z": 2.6799849579,
				"element": "C" 
			},
			{
				"x": 1.2835617533,
				"y": 2.2896059968,
				"z": 1.5509808254,
				"element": "C" 
			},
			{
				"x": 0.4587441036,
				"y": 0.9799623837,
				"z": 1.4053147673,
				"element": "C" 
			},
			{
				"x": -0.3590107639,
				"y": 0.8173870111,
				"z": 2.7156627106,
				"element": "C" 
			},
			{
				"x": -0.5512960574,
				"y": 1.0467159515,
				"z": 0.2122732939,
				"element": "C" 
			},
			{
				"x": 0.0605044405,
				"y": 1.5155921635,
				"z": -1.1293017874,
				"element": "C" 
			},
			{
				"x": -1.0030707653,
				"y": 1.7602549777,
				"z": -2.2242555798,
				"element": "C" 
			},
			{
				"x": -2.1035819788,
				"y": 0.6637697767,
				"z": -2.2497339134,
				"element": "C" 
			},
			{
				"x": -3.3979677981,
				"y": 1.2478138082,
				"z": -1.6324658605,
				"element": "C" 
			},
			{
				"x": 4.1334417461,
				"y": 0.9402334253,
				"z": 3.6389484761,
				"element": "O" 
			},
			{
				"x": 5.483134229,
				"y": 0.8992104503,
				"z": 3.1891543419,
				"element": "C" 
			},
			{
				"x": 5.410451857,
				"y": 1.6485673771,
				"z": 1.8623883508,
				"element": "C" 
			},
			{
				"x": 4.1392401522,
				"y": 1.2519352594,
				"z": 1.3624709379,
				"element": "O" 
			},
			{
				"x": -0.4843315137,
				"y": -0.8558154599,
				"z": -4.0691141659,
				"element": "H" 
			},
			{
				"x": -0.7837668684,
				"y": 0.6975996444,
				"z": -4.8766741863,
				"element": "H" 
			},
			{
				"x": -1.5785010272,
				"y": -0.7752981958,
				"z": -5.4462607477,
				"element": "H" 
			},
			{
				"x": -3.5430672255,
				"y": 0.519401611,
				"z": -5.1914605214,
				"element": "H" 
			},
			{
				"x": -2.9426805002,
				"y": -2.0984002209,
				"z": -3.9768577849,
				"element": "H" 
			},
			{
				"x": -4.2319701568,
				"y": -1.1545368542,
				"z": -3.2403353057,
				"element": "H" 
			},
			{
				"x": -2.1865352609,
				"y": -2.6849576633,
				"z": -1.7997343279,
				"element": "H" 
			},
			{
				"x": -3.456403991,
				"y": -1.6948569798,
				"z": -1.1011001877,
				"element": "H" 
			},
			{
				"x": -0.6533517412,
				"y": -0.8789226885,
				"z": -1.918413537,
				"element": "H" 
			},
			{
				"x": -2.3203867497,
				"y": -0.1952186844,
				"z": 0.5071364371,
				"element": "H" 
			},
			{
				"x": -1.0012845503,
				"y": -2.4572918124,
				"z": 0.1915516304,
				"element": "H" 
			},
			{
				"x": -1.0258407036,
				"y": -1.6429899337,
				"z": 1.7243140218,
				"element": "H" 
			},
			{
				"x": 1.2221512207,
				"y": -2.3139193804,
				"z": 1.3763087186,
				"element": "H" 
			},
			{
				"x": 1.243498741,
				"y": -1.7830716714,
				"z": -0.2863486297,
				"element": "H" 
			},
			{
				"x": 2.0668067715,
				"y": 0.2012224235,
				"z": 0.262112569,
				"element": "H" 
			},
			{
				"x": 3.2633812606,
				"y": -1.0568513981,
				"z": 2.0109768982,
				"element": "H" 
			},
			{
				"x": 2.0511422102,
				"y": -0.5841003847,
				"z": 3.2005911792,
				"element": "H" 
			},
			{
				"x": 2.9237894919,
				"y": 3.1352264237,
				"z": 2.707603132,
				"element": "H" 
			},
			{
				"x": 1.8518341951,
				"y": 2.1223889088,
				"z": 3.6618665193,
				"element": "H" 
			},
			{
				"x": 1.8258411563,
				"y": 2.4959534798,
				"z": 0.6238610753,
				"element": "H" 
			},
			{
				"x": 0.6097479148,
				"y": 3.1391817027,
				"z": 1.7221823142,
				"element": "H" 
			},
			{
				"x": 0.2647831486,
				"y": 0.5776895543,
				"z": 3.5799854578,
				"element": "H" 
			},
			{
				"x": -1.1278564004,
				"y": 0.0482166081,
				"z": 2.6538274958,
				"element": "H" 
			},
			{
				"x": -0.8703417282,
				"y": 1.7610193263,
				"z": 2.9402493941,
				"element": "H" 
			},
			{
				"x": -1.2897627397,
				"y": 1.8128584373,
				"z": 0.4888850597,
				"element": "H" 
			},
			{
				"x": 0.7929792841,
				"y": 0.7812033147,
				"z": -1.485766899,
				"element": "H" 
			},
			{
				"x": 0.6172053118,
				"y": 2.4458420096,
				"z": -0.9884625526,
				"element": "H" 
			},
			{
				"x": -1.4727499542,
				"y": 2.7358844499,
				"z": -2.0532546556,
				"element": "H" 
			},
			{
				"x": -0.4939414564,
				"y": 1.8444297408,
				"z": -3.1888750643,
				"element": "H" 
			},
			{
				"x": -3.7692863251,
				"y": 2.0585028434,
				"z": -2.2624845731,
				"element": "H" 
			},
			{
				"x": -4.2006544729,
				"y": 0.5103580582,
				"z": -1.5437101654,
				"element": "H" 
			},
			{
				"x": -3.2060401148,
				"y": 1.6532197817,
				"z": -0.6353685327,
				"element": "H" 
			},
			{
				"x": 5.8239934087,
				"y": -0.1364907637,
				"z": 3.0428914198,
				"element": "H" 
			},
			{
				"x": 6.1173106661,
				"y": 1.3805768973,
				"z": 3.9393570581,
				"element": "H" 
			},
			{
				"x": 5.4602146897,
				"y": 2.7369731559,
				"z": 2.0170069102,
				"element": "H" 
			},
			{
				"x": 6.1755159206,
				"y": 1.3558888614,
				"z": 1.1379600567,
				"element": "H" 
			}
		],
		 "valence_orbital": [ 
			{
				"type": "occ",
				"energy": -0.26972,
				"method": "rhf"
			},
			{
				"type": "occ",
				"energy": -0.26463,
				"method": "rhf"
			},
			{
				"type": "occ",
				"energy": -0.26262,
				"method": "rhf"
			},
			{
				"type": "occ",
				"energy": -0.25267,
				"method": "rhf"
			},
			{
				"type": "occ",
				"energy": -0.24003,
				"method": "rhf"
			},
			{
				"type": "unocc",
				"energy": 0.06598,
				"method": "rhf"
			},
			{
				"type": "unocc",
				"energy": 0.07662,
				"method": "rhf"
			},
			{
				"type": "unocc",
				"energy": 0.08425,
				"method": "rhf"
			},
			{
				"type": "unocc",
				"energy": 0.09087,
				"method": "rhf"
			},
			{
				"type": "unocc",
				"energy": 0.098,
				"method": "rhf"
			}
		],
		"cosmo_sigma_profile": { 
			"-0.025": 0.0,
			"-0.024": 0.0,
			"-0.023": 0.0,
			"-0.022": 0.0,
			"-0.021": 0.0,
			"-0.02": 0.0,
			"-0.019": 0.0,
			"-0.018": 0.0,
			"-0.017": 0.0,
			"-0.016": 0.0,
			"-0.015": 0.107651171212,
			"-0.014": 0.85054577694,
			"-0.013": 0.965599928524,
			"-0.012": 0.430633956433,
			"-0.011": 1.16042362091,
			"-0.01": 1.04678279568,
			"-0.009": 1.07279795141,
			"-0.008": 0.623037454631,
			"-0.007": 1.28923169161,
			"-0.006": 2.91769342534,
			"-0.005": 9.28724163759,
			"-0.004": 19.1225526975,
			"-0.003": 28.4977608764,
			"-0.002": 57.1342680786,
			"-0.001": 65.8109744556,
			"0.0": 65.8859388244,
			"0.001": 48.1351274197,
			"0.002": 26.228656045,
			"0.003": 8.67324208242,
			"0.004": 5.54967532275,
			"0.005": 5.1792745071,
			"0.006": 4.29617945244,
			"0.007": 4.77243385139,
			"0.008": 4.15130443081,
			"0.009": 3.69103894038,
			"0.01": 4.51259099375,
			"0.011": 3.79403792803,
			"0.012": 4.02505308106,
			"0.013": 2.79535568413,
			"0.014": 0.847120434321,
			"0.015": 0.0599459478725,
			"0.016": 0.0,
			"0.017": 0.0,
			"0.018": 0.0,
			"0.019": 0.0,
			"0.02": 0.0,
			"0.021": 0.0,
			"0.022": 0.0,
			"0.023": 0.0,
			"0.024": 0.0,
			"0.025": 0.0
		}
	}
}
