{
	 "smiles": "COC1=CC=C(C=C1)N=NC1=C(C)N=C(CC#N)S1", 
	 "Tm": 431.15, 
	 "num_atms": 31, 
	 "gaussian": { 
		 "optdone": 1, 
		 "sigma_profile": "yes", 
		 "theory": "DFT", 
		 "functional": "B3LYP", 
		 "basiset": "6-31G**", 
		 "properties": { 
			 "R2extent": 10362.4642, 
			 "electric_dipole_moment_norm": 5.98513988892, 
			 "electric_quadrupole_moment_norm": 28.6642927012, 
			 "total_energy": -1194.95320728, 
			 "HOMO_LUMO_gap": 0.12462, 
			 "cosmo_polarized_energy": -14.37, 
			 "cosmo_cavitation_energy": 39.3, 
			 "cosmo_dispersion_energy": -28.08, 
			 "cosmo_repulsion_energy": 2.13, 
			 "cosmo_total_nonelectrostatic_energy": 13.34, 
			 "SMD_solvation_energy": 6.01 
		},
		"coords": [
			{
				"x": -3.6731458991,
				"y": -4.5295592274,
				"z": -1.3315638368,
				"element": "C" 
			},
			{
				"x": -2.3131070926,
				"y": -4.5194740732,
				"z": -0.918740767,
				"element": "O" 
			},
			{
				"x": -1.7239825608,
				"y": -3.3253763456,
				"z": -0.6522459874,
				"element": "C" 
			},
			{
				"x": -2.3613454212,
				"y": -2.0810679122,
				"z": -0.7525460062,
				"element": "C" 
			},
			{
				"x": -1.6464985636,
				"y": -0.9239504002,
				"z": -0.4510693279,
				"element": "C" 
			},
			{
				"x": -0.3055549335,
				"y": -0.9820357113,
				"z": -0.0502318563,
				"element": "C" 
			},
			{
				"x": 0.3266017691,
				"y": -2.2408364624,
				"z": 0.0471121352,
				"element": "C" 
			},
			{
				"x": -0.3739772126,
				"y": -3.3932466425,
				"z": -0.2497428309,
				"element": "C" 
			},
			{
				"x": 0.3051739118,
				"y": 0.2541487296,
				"z": 0.2254844358,
				"element": "N" 
			},
			{
				"x": 1.5201748681,
				"y": 0.1746381773,
				"z": 0.5940691898,
				"element": "N" 
			},
			{
				"x": 2.1331215232,
				"y": 1.384514798,
				"z": 0.8620908391,
				"element": "C" 
			},
			{
				"x": 1.7348916772,
				"y": 2.7155510732,
				"z": 0.7821467746,
				"element": "C" 
			},
			{
				"x": 0.395042257,
				"y": 3.2257411471,
				"z": 0.3485392119,
				"element": "C" 
			},
			{
				"x": 2.708786014,
				"y": 3.6142592672,
				"z": 1.1378077971,
				"element": "N" 
			},
			{
				"x": 3.8242033205,
				"y": 3.0256296692,
				"z": 1.4835386086,
				"element": "C" 
			},
			{
				"x": 5.0086383226,
				"y": 3.8220527243,
				"z": 1.9802213349,
				"element": "C" 
			},
			{
				"x": 6.3123367948,
				"y": 3.2720743147,
				"z": 1.5980425025,
				"element": "C" 
			},
			{
				"x": 7.3468840456,
				"y": 2.8342425223,
				"z": 1.3082518694,
				"element": "N" 
			},
			{
				"x": 3.8001246344,
				"y": 1.2889056437,
				"z": 1.4024069197,
				"element": "S" 
			},
			{
				"x": -4.3301589595,
				"y": -4.1052442279,
				"z": -0.5622798985,
				"element": "H" 
			},
			{
				"x": -3.8127655424,
				"y": -3.9785659356,
				"z": -2.2698584951,
				"element": "H" 
			},
			{
				"x": -3.9312425346,
				"y": -5.5776873871,
				"z": -1.487522243,
				"element": "H" 
			},
			{
				"x": -3.3972366937,
				"y": -2.0058368138,
				"z": -1.0598834507,
				"element": "H" 
			},
			{
				"x": -2.1186287868,
				"y": 0.0508570637,
				"z": -0.5215399641,
				"element": "H" 
			},
			{
				"x": 1.3644694012,
				"y": -2.2828729251,
				"z": 0.3565907147,
				"element": "H" 
			},
			{
				"x": 0.0914583511,
				"y": -4.3712289297,
				"z": -0.1823539936,
				"element": "H" 
			},
			{
				"x": 0.1427334171,
				"y": 2.868297615,
				"z": -0.654402014,
				"element": "H" 
			},
			{
				"x": 0.4073864927,
				"y": 4.3174682544,
				"z": 0.3587666735,
				"element": "H" 
			},
			{
				"x": -0.3986193145,
				"y": 2.8615913256,
				"z": 1.008381931,
				"element": "H" 
			},
			{
				"x": 4.9783062554,
				"y": 3.9009339442,
				"z": 3.0756159602,
				"element": "H" 
			},
			{
				"x": 4.9081304594,
				"y": 4.8380767246,
				"z": 1.5852137737,
				"element": "H" 
			}
		],
		 "valence_orbital": [ 
			{
				"type": "occ",
				"energy": -0.28832,
				"method": "rhf"
			},
			{
				"type": "occ",
				"energy": -0.26484,
				"method": "rhf"
			},
			{
				"type": "occ",
				"energy": -0.25847,
				"method": "rhf"
			},
			{
				"type": "occ",
				"energy": -0.23202,
				"method": "rhf"
			},
			{
				"type": "occ",
				"energy": -0.21318,
				"method": "rhf"
			},
			{
				"type": "unocc",
				"energy": -0.08856,
				"method": "rhf"
			},
			{
				"type": "unocc",
				"energy": -0.02033,
				"method": "rhf"
			},
			{
				"type": "unocc",
				"energy": -0.01121,
				"method": "rhf"
			},
			{
				"type": "unocc",
				"energy": 0.00031,
				"method": "rhf"
			},
			{
				"type": "unocc",
				"energy": 0.02545,
				"method": "rhf"
			}
		],
		"cosmo_sigma_profile": { 
			"-0.025": 0.0,
			"-0.024": 0.0,
			"-0.023": 0.0,
			"-0.022": 0.0,
			"-0.021": 0.0,
			"-0.02": 0.0,
			"-0.019": 0.0,
			"-0.018": 0.0,
			"-0.017": 0.0,
			"-0.016": 0.0,
			"-0.015": 0.0,
			"-0.014": 0.0,
			"-0.013": 0.0,
			"-0.012": 0.0,
			"-0.011": 1.11108295136,
			"-0.01": 4.75974703143,
			"-0.009": 5.27941747491,
			"-0.008": 3.92706689868,
			"-0.007": 8.09772769567,
			"-0.006": 15.75912097,
			"-0.005": 20.8695153453,
			"-0.004": 20.3564208256,
			"-0.003": 20.1509757392,
			"-0.002": 18.1025682975,
			"-0.001": 22.5990665707,
			"0.0": 30.044789483,
			"0.001": 28.1713595715,
			"0.002": 28.4794523687,
			"0.003": 26.9691673697,
			"0.004": 16.6891152754,
			"0.005": 10.0770905947,
			"0.006": 7.4283404606,
			"0.007": 5.77886994752,
			"0.008": 5.30904688452,
			"0.009": 5.7430631478,
			"0.01": 4.45375720873,
			"0.011": 3.23316673582,
			"0.012": 3.0032211266,
			"0.013": 1.15413157278,
			"0.014": 0.198453020326,
			"0.015": 0.0,
			"0.016": 0.0,
			"0.017": 0.0,
			"0.018": 0.0,
			"0.019": 0.0,
			"0.02": 0.0,
			"0.021": 0.0,
			"0.022": 0.0,
			"0.023": 0.0,
			"0.024": 0.0,
			"0.025": 0.0
		}
	}
}
