{
	 "smiles": "CCOP(=S)(OCC)SCC(=O)NC(C)C", 
	 "Tm": 301.65, 
	 "num_atms": 36, 
	 "gaussian": { 
		 "optdone": 1, 
		 "sigma_profile": "yes", 
		 "theory": "DFT", 
		 "functional": "B3LYP", 
		 "basiset": "6-31G**", 
		 "properties": { 
			 "R2extent": 6578.7401, 
			 "electric_dipole_moment_norm": 6.04462977361, 
			 "electric_quadrupole_moment_norm": 25.5155677309, 
			 "total_energy": -1773.25095996, 
			 "HOMO_LUMO_gap": 0.21066, 
			 "cosmo_polarized_energy": -17.05, 
			 "cosmo_cavitation_energy": 42.62, 
			 "cosmo_dispersion_energy": -28.43, 
			 "cosmo_repulsion_energy": 2.18, 
			 "cosmo_total_nonelectrostatic_energy": 16.37, 
			 "SMD_solvation_energy": 6.87 
		},
		"coords": [
			{
				"x": -2.6973918861,
				"y": 1.5780643045,
				"z": -1.3533281146,
				"element": "C" 
			},
			{
				"x": -2.0629674364,
				"y": 0.5093195592,
				"z": -2.2198523147,
				"element": "C" 
			},
			{
				"x": -1.4700083475,
				"y": -0.4792144184,
				"z": -1.3215765179,
				"element": "O" 
			},
			{
				"x": -0.4792929938,
				"y": -1.6524270436,
				"z": -1.8328592888,
				"element": "P" 
			},
			{
				"x": -0.345870961,
				"y": -1.9154349575,
				"z": -3.7480379898,
				"element": "S" 
			},
			{
				"x": -0.9884166738,
				"y": -2.9442715617,
				"z": -1.010342196,
				"element": "O" 
			},
			{
				"x": -1.642794137,
				"y": -2.8674802034,
				"z": 0.2881952757,
				"element": "C" 
			},
			{
				"x": -3.1395176554,
				"y": -3.0671262271,
				"z": 0.1304445486,
				"element": "C" 
			},
			{
				"x": 1.3574458169,
				"y": -1.3367333393,
				"z": -0.7853345488,
				"element": "S" 
			},
			{
				"x": 2.082036162,
				"y": 0.0844968788,
				"z": -1.7165418986,
				"element": "C" 
			},
			{
				"x": 1.5784194166,
				"y": 1.4405738304,
				"z": -1.2315254596,
				"element": "C" 
			},
			{
				"x": 0.6660745012,
				"y": 2.0176844352,
				"z": -1.8189452575,
				"element": "O" 
			},
			{
				"x": 2.1645773068,
				"y": 1.9834336544,
				"z": -0.1266000805,
				"element": "N" 
			},
			{
				"x": 3.2660847491,
				"y": 1.4793904539,
				"z": 0.6992015751,
				"element": "C" 
			},
			{
				"x": 4.6157692714,
				"y": 2.0640387917,
				"z": 0.2560190018,
				"element": "C" 
			},
			{
				"x": 2.9677305313,
				"y": 1.7810796294,
				"z": 2.1724213764,
				"element": "C" 
			},
			{
				"x": -1.9294778895,
				"y": 2.0912595501,
				"z": -0.7701184248,
				"element": "H" 
			},
			{
				"x": -3.4437500537,
				"y": 1.1523147936,
				"z": -0.6756966063,
				"element": "H" 
			},
			{
				"x": -3.1934197221,
				"y": 2.3149428811,
				"z": -1.9935541253,
				"element": "H" 
			},
			{
				"x": -1.2757648458,
				"y": 0.9328864247,
				"z": -2.8438441983,
				"element": "H" 
			},
			{
				"x": -2.7958417405,
				"y": -0.00173667,
				"z": -2.8509241936,
				"element": "H" 
			},
			{
				"x": -1.1925591466,
				"y": -3.6689889996,
				"z": 0.8801272637,
				"element": "H" 
			},
			{
				"x": -1.416473962,
				"y": -1.9116421293,
				"z": 0.7678153869,
				"element": "H" 
			},
			{
				"x": -3.350802437,
				"y": -4.0088978657,
				"z": -0.3832247076,
				"element": "H" 
			},
			{
				"x": -3.577963399,
				"y": -2.2479631322,
				"z": -0.4448662633,
				"element": "H" 
			},
			{
				"x": -3.6165491878,
				"y": -3.0942341268,
				"z": 1.1163075178,
				"element": "H" 
			},
			{
				"x": 3.1639887066,
				"y": -0.0293668013,
				"z": -1.620997359,
				"element": "H" 
			},
			{
				"x": 1.8126326933,
				"y": -0.0199217796,
				"z": -2.7693729729,
				"element": "H" 
			},
			{
				"x": 1.7774356445,
				"y": 2.8872482969,
				"z": 0.1184491185,
				"element": "H" 
			},
			{
				"x": 3.2918121588,
				"y": 0.3920904972,
				"z": 0.580574847,
				"element": "H" 
			},
			{
				"x": 4.8205538925,
				"y": 1.8336528411,
				"z": -0.7939874094,
				"element": "H" 
			},
			{
				"x": 4.6191303864,
				"y": 3.1540981371,
				"z": 0.3664412457,
				"element": "H" 
			},
			{
				"x": 5.4328281981,
				"y": 1.658537534,
				"z": 0.8618343295,
				"element": "H" 
			},
			{
				"x": 3.7646698527,
				"y": 1.3918818079,
				"z": 2.8127101942,
				"element": "H" 
			},
			{
				"x": 2.9037731835,
				"y": 2.8625587711,
				"z": 2.3437339146,
				"element": "H" 
			},
			{
				"x": 2.0218000034,
				"y": 1.3267861832,
				"z": 2.4793543319,
				"element": "H" 
			}
		],
		 "valence_orbital": [ 
			{
				"type": "occ",
				"energy": -0.2723,
				"method": "rhf"
			},
			{
				"type": "occ",
				"energy": -0.25755,
				"method": "rhf"
			},
			{
				"type": "occ",
				"energy": -0.24998,
				"method": "rhf"
			},
			{
				"type": "occ",
				"energy": -0.23923,
				"method": "rhf"
			},
			{
				"type": "occ",
				"energy": -0.22792,
				"method": "rhf"
			},
			{
				"type": "unocc",
				"energy": -0.01726,
				"method": "rhf"
			},
			{
				"type": "unocc",
				"energy": -0.00441,
				"method": "rhf"
			},
			{
				"type": "unocc",
				"energy": 0.03746,
				"method": "rhf"
			},
			{
				"type": "unocc",
				"energy": 0.0562,
				"method": "rhf"
			},
			{
				"type": "unocc",
				"energy": 0.06618,
				"method": "rhf"
			}
		],
		"cosmo_sigma_profile": { 
			"-0.025": 0.0,
			"-0.024": 0.0,
			"-0.023": 0.0,
			"-0.022": 0.0,
			"-0.021": 0.0,
			"-0.02": 0.0,
			"-0.019": 0.0,
			"-0.018": 0.0,
			"-0.017": 0.0,
			"-0.016": 0.0,
			"-0.015": 0.0,
			"-0.014": 0.0273247133228,
			"-0.013": 0.688762080407,
			"-0.012": 1.14684029498,
			"-0.011": 0.52086907963,
			"-0.01": 1.28791503052,
			"-0.009": 2.12428795027,
			"-0.008": 3.38238132699,
			"-0.007": 4.74140079914,
			"-0.006": 8.88910923801,
			"-0.005": 16.5242054625,
			"-0.004": 35.0450955399,
			"-0.003": 34.5131220181,
			"-0.002": 34.1276461774,
			"-0.001": 32.4017705251,
			"0.0": 36.1409943786,
			"0.001": 22.0434554256,
			"0.002": 13.3003679206,
			"0.003": 13.5426049677,
			"0.004": 13.6773112378,
			"0.005": 13.5336733643,
			"0.006": 11.2152646603,
			"0.007": 11.866062732,
			"0.008": 8.64822075809,
			"0.009": 7.58958659748,
			"0.01": 2.49045619368,
			"0.011": 1.62571171211,
			"0.012": 1.56189109836,
			"0.013": 2.20267887774,
			"0.014": 1.1145366775,
			"0.015": 0.0134253570174,
			"0.016": 0.0,
			"0.017": 0.0,
			"0.018": 0.0,
			"0.019": 0.0,
			"0.02": 0.0,
			"0.021": 0.0,
			"0.022": 0.0,
			"0.023": 0.0,
			"0.024": 0.0,
			"0.025": 0.0
		}
	}
}
