{
	 "smiles": "CCN1C=C(C=N1)C(O)=O", 
	 "Tm": 418.15, 
	 "num_atms": 18, 
	 "gaussian": { 
		 "optdone": 1, 
		 "sigma_profile": "yes", 
		 "theory": "DFT", 
		 "functional": "B3LYP", 
		 "basiset": "6-31G**", 
		 "properties": { 
			 "R2extent": 2359.5303, 
			 "electric_dipole_moment_norm": 2.11708230119, 
			 "electric_quadrupole_moment_norm": 9.87286911541, 
			 "total_energy": -493.412551822, 
			 "HOMO_LUMO_gap": 0.2337, 
			 "cosmo_polarized_energy": -12.42, 
			 "cosmo_cavitation_energy": 22.82, 
			 "cosmo_dispersion_energy": -16.57, 
			 "cosmo_repulsion_energy": 1.37, 
			 "cosmo_total_nonelectrostatic_energy": 7.62, 
			 "SMD_solvation_energy": 4.86 
		},
		"coords": [
			{
				"x": -1.6661665757,
				"y": -0.7259266192,
				"z": -2.415274263,
				"element": "C" 
			},
			{
				"x": -2.0830274704,
				"y": -0.554987604,
				"z": -0.9546014413,
				"element": "C" 
			},
			{
				"x": -1.1126251819,
				"y": -1.1322376322,
				"z": -0.0286959519,
				"element": "N" 
			},
			{
				"x": -0.2460913501,
				"y": -0.4895162251,
				"z": 0.7807814351,
				"element": "C" 
			},
			{
				"x": 0.4973916805,
				"y": -1.4683721121,
				"z": 1.4293793344,
				"element": "C" 
			},
			{
				"x": -0.0136927388,
				"y": -2.6896017789,
				"z": 0.9217366631,
				"element": "C" 
			},
			{
				"x": -0.9849169638,
				"y": -2.4850289498,
				"z": 0.0401769999,
				"element": "N" 
			},
			{
				"x": 1.5504382149,
				"y": -1.2148198002,
				"z": 2.4101117439,
				"element": "C" 
			},
			{
				"x": 2.1054803661,
				"y": -2.3627345333,
				"z": 2.881167885,
				"element": "O" 
			},
			{
				"x": 1.9142902673,
				"y": -0.1149479264,
				"z": 2.7841283911,
				"element": "O" 
			},
			{
				"x": -0.7225947743,
				"y": -0.2102566651,
				"z": -2.6172539441,
				"element": "H" 
			},
			{
				"x": -1.5397184399,
				"y": -1.7855671622,
				"z": -2.6492678636,
				"element": "H" 
			},
			{
				"x": -2.4350938256,
				"y": -0.3114366547,
				"z": -3.0744665155,
				"element": "H" 
			},
			{
				"x": -3.0430816721,
				"y": -1.0445215604,
				"z": -0.7675936942,
				"element": "H" 
			},
			{
				"x": -2.1869387196,
				"y": 0.5014773149,
				"z": -0.6919877199,
				"element": "H" 
			},
			{
				"x": -0.2041634541,
				"y": 0.5867245912,
				"z": 0.858415631,
				"element": "H" 
			},
			{
				"x": 0.2912674813,
				"y": -3.6952082055,
				"z": 1.1753796319,
				"element": "H" 
			},
			{
				"x": 2.7841431562,
				"y": -2.0829384769,
				"z": 3.5171636782,
				"element": "H" 
			}
		],
		 "valence_orbital": [ 
			{
				"type": "occ",
				"energy": -0.31191,
				"method": "rhf"
			},
			{
				"type": "occ",
				"energy": -0.30295,
				"method": "rhf"
			},
			{
				"type": "occ",
				"energy": -0.26682,
				"method": "rhf"
			},
			{
				"type": "occ",
				"energy": -0.26431,
				"method": "rhf"
			},
			{
				"type": "occ",
				"energy": -0.25393,
				"method": "rhf"
			},
			{
				"type": "unocc",
				"energy": -0.02023,
				"method": "rhf"
			},
			{
				"type": "unocc",
				"energy": 0.01446,
				"method": "rhf"
			},
			{
				"type": "unocc",
				"energy": 0.08582,
				"method": "rhf"
			},
			{
				"type": "unocc",
				"energy": 0.08686,
				"method": "rhf"
			},
			{
				"type": "unocc",
				"energy": 0.11466,
				"method": "rhf"
			}
		],
		"cosmo_sigma_profile": { 
			"-0.025": 0.0,
			"-0.024": 0.0,
			"-0.023": 0.0,
			"-0.022": 0.0,
			"-0.021": 0.0,
			"-0.02": 0.0,
			"-0.019": 0.0,
			"-0.018": 0.454428639614,
			"-0.017": 1.0229365939,
			"-0.016": 0.390272379826,
			"-0.015": 0.942966076702,
			"-0.014": 0.934430488283,
			"-0.013": 0.900142853271,
			"-0.012": 0.705523648832,
			"-0.011": 0.649809151073,
			"-0.01": 2.27688535623,
			"-0.009": 2.91830968912,
			"-0.008": 3.99332340763,
			"-0.007": 4.89968527903,
			"-0.006": 7.2310349263,
			"-0.005": 8.85782818591,
			"-0.004": 14.2610562408,
			"-0.003": 14.1403345769,
			"-0.002": 11.6400618211,
			"-0.001": 14.5040492153,
			"0.0": 14.0510250561,
			"0.001": 12.9790075935,
			"0.002": 12.195400424,
			"0.003": 7.60706905511,
			"0.004": 5.28494465888,
			"0.005": 4.33454500471,
			"0.006": 5.99794976535,
			"0.007": 3.49177862421,
			"0.008": 4.58519908767,
			"0.009": 3.09405084032,
			"0.01": 2.90411410257,
			"0.011": 3.08226642208,
			"0.012": 6.9641257619,
			"0.013": 2.22949296111,
			"0.014": 0.977735673698,
			"0.015": 0.509015630725,
			"0.016": 0.0245250903791,
			"0.017": 0.0,
			"0.018": 0.0,
			"0.019": 0.0,
			"0.02": 0.0,
			"0.021": 0.0,
			"0.022": 0.0,
			"0.023": 0.0,
			"0.024": 0.0,
			"0.025": 0.0
		}
	}
}
