{
	 "smiles": "O=C(C1OCCC2=C1C=CC=C2)N1CCCC1", 
	 "Tm": 383.15, 
	 "num_atms": 34, 
	 "gaussian": { 
		 "optdone": 1, 
		 "sigma_profile": "yes", 
		 "theory": "DFT", 
		 "functional": "B3LYP", 
		 "basiset": "6-31G**", 
		 "properties": { 
			 "R2extent": 4955.5463, 
			 "electric_dipole_moment_norm": 2.65346259442, 
			 "electric_quadrupole_moment_norm": 10.6764716616, 
			 "total_energy": -748.941542685, 
			 "HOMO_LUMO_gap": 0.22734, 
			 "cosmo_polarized_energy": -13.19, 
			 "cosmo_cavitation_energy": 34.7, 
			 "cosmo_dispersion_energy": -25.19, 
			 "cosmo_repulsion_energy": 1.97, 
			 "cosmo_total_nonelectrostatic_energy": 11.48, 
			 "SMD_solvation_energy": 4.61 
		},
		"coords": [
			{
				"x": 1.4626900748,
				"y": 0.8308476576,
				"z": -0.9691425712,
				"element": "O" 
			},
			{
				"x": 0.5803931104,
				"y": 0.1612213614,
				"z": -0.4357306204,
				"element": "C" 
			},
			{
				"x": 0.3822305964,
				"y": 0.1261853794,
				"z": 1.1043082365,
				"element": "C" 
			},
			{
				"x": 0.8752442877,
				"y": -1.1205665543,
				"z": 1.6020126703,
				"element": "O" 
			},
			{
				"x": 2.3030508554,
				"y": -1.1401364412,
				"z": 1.7070150705,
				"element": "C" 
			},
			{
				"x": 2.7470428044,
				"y": -0.1830975743,
				"z": 2.8079876841,
				"element": "C" 
			},
			{
				"x": 2.1297980688,
				"y": 1.1858851172,
				"z": 2.6073350484,
				"element": "C" 
			},
			{
				"x": 1.0011613432,
				"y": 1.3307903067,
				"z": 1.7885536298,
				"element": "C" 
			},
			{
				"x": 0.4295116989,
				"y": 2.5957802354,
				"z": 1.6107944665,
				"element": "C" 
			},
			{
				"x": 0.9641380422,
				"y": 3.7147949674,
				"z": 2.2425819896,
				"element": "C" 
			},
			{
				"x": 2.0870351724,
				"y": 3.5744673823,
				"z": 3.0627308922,
				"element": "C" 
			},
			{
				"x": 2.6613619034,
				"y": 2.3182343997,
				"z": 3.2384944013,
				"element": "C" 
			},
			{
				"x": -0.2577369498,
				"y": -0.6298315343,
				"z": -1.1605419719,
				"element": "N" 
			},
			{
				"x": -0.0934567981,
				"y": -0.7211235691,
				"z": -2.6196099096,
				"element": "C" 
			},
			{
				"x": -1.2648135368,
				"y": -1.6113060868,
				"z": -3.0571711276,
				"element": "C" 
			},
			{
				"x": -1.4928086775,
				"y": -2.5209921155,
				"z": -1.8376356376,
				"element": "C" 
			},
			{
				"x": -1.2602587477,
				"y": -1.5783467124,
				"z": -0.6463094521,
				"element": "C" 
			},
			{
				"x": -0.6915308162,
				"y": 0.1082249684,
				"z": 1.3253612517,
				"element": "H" 
			},
			{
				"x": 2.5713009033,
				"y": -2.1746622631,
				"z": 1.9376976733,
				"element": "H" 
			},
			{
				"x": 2.7614089675,
				"y": -0.8647954038,
				"z": 0.7473783175,
				"element": "H" 
			},
			{
				"x": 3.8413229747,
				"y": -0.1098330217,
				"z": 2.8251219481,
				"element": "H" 
			},
			{
				"x": 2.440359826,
				"y": -0.5906164514,
				"z": 3.7808488455,
				"element": "H" 
			},
			{
				"x": -0.4401794881,
				"y": 2.7034736733,
				"z": 0.9666029245,
				"element": "H" 
			},
			{
				"x": 0.5101544402,
				"y": 4.6906440327,
				"z": 2.0965799004,
				"element": "H" 
			},
			{
				"x": 2.5141140735,
				"y": 4.4415427546,
				"z": 3.5586129474,
				"element": "H" 
			},
			{
				"x": 3.539085419,
				"y": 2.2075384916,
				"z": 3.8713600999,
				"element": "H" 
			},
			{
				"x": -0.1048869343,
				"y": 0.2766216386,
				"z": -3.0668500562,
				"element": "H" 
			},
			{
				"x": 0.8786164502,
				"y": -1.1709979705,
				"z": -2.8602075616,
				"element": "H" 
			},
			{
				"x": -2.1556120016,
				"y": -0.9995256827,
				"z": -3.2412789717,
				"element": "H" 
			},
			{
				"x": -1.0468079545,
				"y": -2.1655898908,
				"z": -3.9738324478,
				"element": "H" 
			},
			{
				"x": -0.7484715105,
				"y": -3.3253001021,
				"z": -1.824027476,
				"element": "H" 
			},
			{
				"x": -2.4842932121,
				"y": -2.9814392491,
				"z": -1.816547031,
				"element": "H" 
			},
			{
				"x": -2.1906380202,
				"y": -1.0563932882,
				"z": -0.3778614154,
				"element": "H" 
			},
			{
				"x": -0.8852263647,
				"y": -2.0942984552,
				"z": 0.2396682528,
				"element": "H" 
			}
		],
		 "valence_orbital": [ 
			{
				"type": "occ",
				"energy": -0.27306,
				"method": "rhf"
			},
			{
				"type": "occ",
				"energy": -0.2391,
				"method": "rhf"
			},
			{
				"type": "occ",
				"energy": -0.23378,
				"method": "rhf"
			},
			{
				"type": "occ",
				"energy": -0.23059,
				"method": "rhf"
			},
			{
				"type": "occ",
				"energy": -0.22527,
				"method": "rhf"
			},
			{
				"type": "unocc",
				"energy": 0.00207,
				"method": "rhf"
			},
			{
				"type": "unocc",
				"energy": 0.00575,
				"method": "rhf"
			},
			{
				"type": "unocc",
				"energy": 0.02205,
				"method": "rhf"
			},
			{
				"type": "unocc",
				"energy": 0.08069,
				"method": "rhf"
			},
			{
				"type": "unocc",
				"energy": 0.10249,
				"method": "rhf"
			}
		],
		"cosmo_sigma_profile": { 
			"-0.025": 0.0,
			"-0.024": 0.0,
			"-0.023": 0.0,
			"-0.022": 0.0,
			"-0.021": 0.0,
			"-0.02": 0.0,
			"-0.019": 0.0,
			"-0.018": 0.0,
			"-0.017": 0.0,
			"-0.016": 0.0,
			"-0.015": 0.0,
			"-0.014": 0.0,
			"-0.013": 0.0,
			"-0.012": 0.0,
			"-0.011": 0.0,
			"-0.01": 0.0,
			"-0.009": 0.0,
			"-0.008": 0.0,
			"-0.007": 1.65326403265,
			"-0.006": 6.86652253724,
			"-0.005": 15.9764937716,
			"-0.004": 33.7853327274,
			"-0.003": 44.6234795855,
			"-0.002": 36.8123113451,
			"-0.001": 25.6724828772,
			"0.0": 18.8970077159,
			"0.001": 11.733598652,
			"0.002": 10.3049062916,
			"0.003": 9.9066883929,
			"0.004": 9.99121817597,
			"0.005": 9.61039430734,
			"0.006": 9.35451330379,
			"0.007": 4.27634132267,
			"0.008": 3.40952608455,
			"0.009": 2.18528022584,
			"0.01": 2.45263176081,
			"0.011": 2.3814506493,
			"0.012": 2.94885027533,
			"0.013": 2.66634646766,
			"0.014": 4.78490758817,
			"0.015": 2.08656787318,
			"0.016": 0.0494594522927,
			"0.017": 0.0,
			"0.018": 0.0,
			"0.019": 0.0,
			"0.02": 0.0,
			"0.021": 0.0,
			"0.022": 0.0,
			"0.023": 0.0,
			"0.024": 0.0,
			"0.025": 0.0
		}
	}
}
