{
	 "smiles": "CN1C=C(CC(O)=O)C2=C1C=CC=C2", 
	 "Tm": 400.15, 
	 "num_atms": 25, 
	 "gaussian": { 
		 "optdone": 1, 
		 "sigma_profile": "yes", 
		 "theory": "DFT", 
		 "functional": "B3LYP", 
		 "basiset": "6-31G**", 
		 "properties": { 
			 "R2extent": 3659.7158, 
			 "electric_dipole_moment_norm": 3.77833867593, 
			 "electric_quadrupole_moment_norm": 6.01218512689, 
			 "total_energy": -631.019916684, 
			 "HOMO_LUMO_gap": 0.18796, 
			 "cosmo_polarized_energy": -13.21, 
			 "cosmo_cavitation_energy": 29.06, 
			 "cosmo_dispersion_energy": -20.74, 
			 "cosmo_repulsion_energy": 1.63, 
			 "cosmo_total_nonelectrostatic_energy": 9.95, 
			 "SMD_solvation_energy": 6.05 
		},
		"coords": [
			{
				"x": -3.2215627731,
				"y": -1.8823540069,
				"z": 0.9911146063,
				"element": "C" 
			},
			{
				"x": -1.8997870588,
				"y": -1.5415609908,
				"z": 0.5084285128,
				"element": "N" 
			},
			{
				"x": -1.6077926263,
				"y": -0.8579900957,
				"z": -0.6581406278,
				"element": "C" 
			},
			{
				"x": -0.2518160049,
				"y": -0.6986790111,
				"z": -0.7971738412,
				"element": "C" 
			},
			{
				"x": 0.4570054098,
				"y": 0.0098351305,
				"z": -1.9207699698,
				"element": "C" 
			},
			{
				"x": 1.3167527624,
				"y": -0.9423309239,
				"z": -2.7351379334,
				"element": "C" 
			},
			{
				"x": 0.5994156144,
				"y": -1.588865765,
				"z": -3.6850141405,
				"element": "O" 
			},
			{
				"x": 2.5004503984,
				"y": -1.1404234323,
				"z": -2.5658441527,
				"element": "O" 
			},
			{
				"x": 0.3523349385,
				"y": -1.3276567555,
				"z": 0.3505752626,
				"element": "C" 
			},
			{
				"x": -0.7096412041,
				"y": -1.8390418646,
				"z": 1.1469137721,
				"element": "C" 
			},
			{
				"x": -0.4797961797,
				"y": -2.5105759464,
				"z": 2.3535765939,
				"element": "C" 
			},
			{
				"x": 0.8418880347,
				"y": -2.6670472038,
				"z": 2.7575078105,
				"element": "C" 
			},
			{
				"x": 1.9087350836,
				"y": -2.17230099,
				"z": 1.9794433695,
				"element": "C" 
			},
			{
				"x": 1.6786042974,
				"y": -1.5073124812,
				"z": 0.7810865632,
				"element": "C" 
			},
			{
				"x": -3.4191030751,
				"y": -1.4178941734,
				"z": 1.9641025001,
				"element": "H" 
			},
			{
				"x": -3.3363320003,
				"y": -2.9674902525,
				"z": 1.0936370819,
				"element": "H" 
			},
			{
				"x": -3.9658459376,
				"y": -1.5222604757,
				"z": 0.278606499,
				"element": "H" 
			},
			{
				"x": -2.4074707091,
				"y": -0.5288877327,
				"z": -1.3082180993,
				"element": "H" 
			},
			{
				"x": 1.1271167694,
				"y": 0.7833289415,
				"z": -1.5321429276,
				"element": "H" 
			},
			{
				"x": -0.2743502518,
				"y": 0.482760725,
				"z": -2.5825239629,
				"element": "H" 
			},
			{
				"x": 1.2188959857,
				"y": -2.2006975399,
				"z": -4.1174830401,
				"element": "H" 
			},
			{
				"x": -1.2981527455,
				"y": -2.8960998977,
				"z": 2.9544036154,
				"element": "H" 
			},
			{
				"x": 1.0558596387,
				"y": -3.1835499458,
				"z": 3.6888132607,
				"element": "H" 
			},
			{
				"x": 2.9283507955,
				"y": -2.319568015,
				"z": 2.3234908247,
				"element": "H" 
			},
			{
				"x": 2.5035408377,
				"y": -1.147337297,
				"z": 0.1740484226,
				"element": "H" 
			}
		],
		 "valence_orbital": [ 
			{
				"type": "occ",
				"energy": -0.31252,
				"method": "rhf"
			},
			{
				"type": "occ",
				"energy": -0.27532,
				"method": "rhf"
			},
			{
				"type": "occ",
				"energy": -0.26116,
				"method": "rhf"
			},
			{
				"type": "occ",
				"energy": -0.2161,
				"method": "rhf"
			},
			{
				"type": "occ",
				"energy": -0.19573,
				"method": "rhf"
			},
			{
				"type": "unocc",
				"energy": -0.00777,
				"method": "rhf"
			},
			{
				"type": "unocc",
				"energy": 0.01486,
				"method": "rhf"
			},
			{
				"type": "unocc",
				"energy": 0.0297,
				"method": "rhf"
			},
			{
				"type": "unocc",
				"energy": 0.074,
				"method": "rhf"
			},
			{
				"type": "unocc",
				"energy": 0.08191,
				"method": "rhf"
			}
		],
		"cosmo_sigma_profile": { 
			"-0.025": 0.0,
			"-0.024": 0.0,
			"-0.023": 0.0,
			"-0.022": 0.0,
			"-0.021": 0.0,
			"-0.02": 0.0,
			"-0.019": 0.0,
			"-0.018": 0.464660839369,
			"-0.017": 1.27793871407,
			"-0.016": 0.770446786919,
			"-0.015": 0.665116280539,
			"-0.014": 0.381845465171,
			"-0.013": 0.720809891538,
			"-0.012": 0.73404952524,
			"-0.011": 1.08933989967,
			"-0.01": 0.98983198949,
			"-0.009": 0.756291460949,
			"-0.008": 3.07409559586,
			"-0.007": 5.42166850438,
			"-0.006": 9.26955012387,
			"-0.005": 18.9416516772,
			"-0.004": 20.8765820548,
			"-0.003": 22.2285015467,
			"-0.002": 20.2403341684,
			"-0.001": 11.3235301876,
			"0.0": 10.9341186436,
			"0.001": 8.88032893075,
			"0.002": 11.5429235785,
			"0.003": 11.0958093878,
			"0.004": 12.9041405984,
			"0.005": 16.6754356956,
			"0.006": 13.3312573518,
			"0.007": 9.86250535452,
			"0.008": 2.9521721493,
			"0.009": 3.53137448649,
			"0.01": 2.82792944688,
			"0.011": 2.97560078376,
			"0.012": 3.85619662586,
			"0.013": 0.402803253087,
			"0.014": 0.0,
			"0.015": 0.0,
			"0.016": 0.0,
			"0.017": 0.0,
			"0.018": 0.0,
			"0.019": 0.0,
			"0.02": 0.0,
			"0.021": 0.0,
			"0.022": 0.0,
			"0.023": 0.0,
			"0.024": 0.0,
			"0.025": 0.0
		}
	}
}
