{
	 "smiles": "NC(=O)NC1=CC(N)=C(Cl)C=C1", 
	 "Tm": 450.15, 
	 "num_atms": 20, 
	 "gaussian": { 
		 "optdone": 1, 
		 "sigma_profile": "yes", 
		 "theory": "DFT", 
		 "functional": "B3LYP", 
		 "basiset": "6-31G**", 
		 "properties": { 
			 "R2extent": 3168.2012, 
			 "electric_dipole_moment_norm": 2.42414748932, 
			 "electric_quadrupole_moment_norm": 23.4817224937, 
			 "total_energy": -971.269699336, 
			 "HOMO_LUMO_gap": 0.19527, 
			 "cosmo_polarized_energy": -17.13, 
			 "cosmo_cavitation_energy": 25.97, 
			 "cosmo_dispersion_energy": -19.55, 
			 "cosmo_repulsion_energy": 1.58, 
			 "cosmo_total_nonelectrostatic_energy": 8.0, 
			 "SMD_solvation_energy": 5.09 
		},
		"coords": [
			{
				"x": -2.6842480102,
				"y": -2.0847997991,
				"z": 0.8788197663,
				"element": "N" 
			},
			{
				"x": -1.7393430999,
				"y": -2.7981390414,
				"z": 1.5928021132,
				"element": "C" 
			},
			{
				"x": -2.0205794026,
				"y": -3.7667000956,
				"z": 2.2840557098,
				"element": "O" 
			},
			{
				"x": -0.4185672382,
				"y": -2.3741200026,
				"z": 1.4769201172,
				"element": "N" 
			},
			{
				"x": 0.1734164521,
				"y": -1.3518144947,
				"z": 0.710850972,
				"element": "C" 
			},
			{
				"x": -0.2807287985,
				"y": -1.02583721,
				"z": -0.5720886842,
				"element": "C" 
			},
			{
				"x": 0.3315267349,
				"y": -0.011086447,
				"z": -1.3307084827,
				"element": "C" 
			},
			{
				"x": -0.1726710832,
				"y": 0.3390325123,
				"z": -2.5714597716,
				"element": "N" 
			},
			{
				"x": 1.4429577155,
				"y": 0.6464937464,
				"z": -0.7691595576,
				"element": "C" 
			},
			{
				"x": 2.2589384792,
				"y": 1.9081221959,
				"z": -1.6929066334,
				"element": "Cl" 
			},
			{
				"x": 1.9168668759,
				"y": 0.3075831776,
				"z": 0.4939561129,
				"element": "C" 
			},
			{
				"x": 1.2867921813,
				"y": -0.6801470722,
				"z": 1.2429795365,
				"element": "C" 
			},
			{
				"x": -3.6263254309,
				"y": -2.3053749474,
				"z": 1.1680502911,
				"element": "H" 
			},
			{
				"x": -2.5046569196,
				"y": -1.1105282038,
				"z": 0.6782237807,
				"element": "H" 
			},
			{
				"x": 0.1767070555,
				"y": -2.8616468173,
				"z": 2.1314548849,
				"element": "H" 
			},
			{
				"x": -1.1034612076,
				"y": -1.5804072214,
				"z": -1.0101303271,
				"element": "H" 
			},
			{
				"x": -0.7197087641,
				"y": -0.3685570985,
				"z": -3.0396661155,
				"element": "H" 
			},
			{
				"x": 0.4630416632,
				"y": 0.8315100863,
				"z": -3.1829403419,
				"element": "H" 
			},
			{
				"x": 2.7785349063,
				"y": 0.8312955246,
				"z": 0.8935743813,
				"element": "H" 
			},
			{
				"x": 1.644707891,
				"y": -0.923178792,
				"z": 2.2383722482,
				"element": "H" 
			}
		],
		 "valence_orbital": [ 
			{
				"type": "occ",
				"energy": -0.2883,
				"method": "rhf"
			},
			{
				"type": "occ",
				"energy": -0.27545,
				"method": "rhf"
			},
			{
				"type": "occ",
				"energy": -0.25842,
				"method": "rhf"
			},
			{
				"type": "occ",
				"energy": -0.23367,
				"method": "rhf"
			},
			{
				"type": "occ",
				"energy": -0.21097,
				"method": "rhf"
			},
			{
				"type": "unocc",
				"energy": -0.0157,
				"method": "rhf"
			},
			{
				"type": "unocc",
				"energy": -0.00292,
				"method": "rhf"
			},
			{
				"type": "unocc",
				"energy": 0.02688,
				"method": "rhf"
			},
			{
				"type": "unocc",
				"energy": 0.06204,
				"method": "rhf"
			},
			{
				"type": "unocc",
				"energy": 0.07718,
				"method": "rhf"
			}
		],
		"cosmo_sigma_profile": { 
			"-0.025": 0.0,
			"-0.024": 0.0,
			"-0.023": 0.0,
			"-0.022": 0.0,
			"-0.021": 0.0,
			"-0.02": 0.0,
			"-0.019": 0.0,
			"-0.018": 0.0,
			"-0.017": 0.0,
			"-0.016": 0.0,
			"-0.015": 0.0,
			"-0.014": 0.9998252466,
			"-0.013": 3.84729821175,
			"-0.012": 4.47725195463,
			"-0.011": 6.62265129766,
			"-0.01": 4.90846352967,
			"-0.009": 6.33170505092,
			"-0.008": 5.61856254106,
			"-0.007": 6.8738806436,
			"-0.006": 8.02172098038,
			"-0.005": 8.09894881121,
			"-0.004": 8.76945190344,
			"-0.003": 6.78694340814,
			"-0.002": 8.86502554016,
			"-0.001": 9.84919796197,
			"0.0": 11.5080469887,
			"0.001": 11.1973780105,
			"0.002": 14.1461341213,
			"0.003": 17.5867663631,
			"0.004": 20.5087679595,
			"0.005": 14.9454761826,
			"0.006": 4.23050641345,
			"0.007": 1.84246590492,
			"0.008": 2.05520794794,
			"0.009": 2.19901950098,
			"0.01": 2.63435694709,
			"0.011": 1.90372656876,
			"0.012": 2.03153961129,
			"0.013": 3.13340946511,
			"0.014": 6.79844260545,
			"0.015": 1.67627573916,
			"0.016": 0.0,
			"0.017": 0.0,
			"0.018": 0.0,
			"0.019": 0.0,
			"0.02": 0.0,
			"0.021": 0.0,
			"0.022": 0.0,
			"0.023": 0.0,
			"0.024": 0.0,
			"0.025": 0.0
		}
	}
}
