{
	 "smiles": "CCOC1=C(C=O)C=C(C=C1)[N+]([O-])=O", 
	 "Tm": 340.15, 
	 "num_atms": 23, 
	 "gaussian": { 
		 "optdone": 1, 
		 "sigma_profile": "yes", 
		 "theory": "DFT", 
		 "functional": "B3LYP", 
		 "basiset": "6-31G**", 
		 "properties": { 
			 "R2extent": 3966.5057, 
			 "electric_dipole_moment_norm": 7.86483446488, 
			 "electric_quadrupole_moment_norm": 10.0600007207, 
			 "total_energy": -703.915558143, 
			 "HOMO_LUMO_gap": 0.17319, 
			 "cosmo_polarized_energy": -14.08, 
			 "cosmo_cavitation_energy": 28.55, 
			 "cosmo_dispersion_energy": -20.49, 
			 "cosmo_repulsion_energy": 1.62, 
			 "cosmo_total_nonelectrostatic_energy": 9.68, 
			 "SMD_solvation_energy": 8.7 
		},
		"coords": [
			{
				"x": 1.9930571383,
				"y": 3.3553320133,
				"z": 2.6053655064,
				"element": "C" 
			},
			{
				"x": 1.1089402634,
				"y": 2.5350536184,
				"z": 1.6848021983,
				"element": "C" 
			},
			{
				"x": 1.6969163994,
				"y": 1.228377736,
				"z": 1.5767808256,
				"element": "O" 
			},
			{
				"x": 1.108275127,
				"y": 0.2871843832,
				"z": 0.8090406272,
				"element": "C" 
			},
			{
				"x": 1.7526073825,
				"y": -0.9753490142,
				"z": 0.755375607,
				"element": "C" 
			},
			{
				"x": 3.0073031592,
				"y": -1.2436579367,
				"z": 1.5045053259,
				"element": "C" 
			},
			{
				"x": 3.5808753737,
				"y": -2.3171203952,
				"z": 1.4765147299,
				"element": "O" 
			},
			{
				"x": 1.2005514121,
				"y": -1.9966799888,
				"z": -0.0185217484,
				"element": "C" 
			},
			{
				"x": 0.0282993871,
				"y": -1.7670029353,
				"z": -0.7269361594,
				"element": "C" 
			},
			{
				"x": -0.6151531444,
				"y": -0.5288448324,
				"z": -0.6822414911,
				"element": "C" 
			},
			{
				"x": -0.0780732609,
				"y": 0.4981248265,
				"z": 0.0837555577,
				"element": "C" 
			},
			{
				"x": -0.549602331,
				"y": -2.8416615395,
				"z": -1.5393526563,
				"element": "N" 
			},
			{
				"x": -1.5903386665,
				"y": -2.5955589779,
				"z": -2.1517962789,
				"element": "O" 
			},
			{
				"x": 0.0386245582,
				"y": -3.9216967072,
				"z": -1.5600534295,
				"element": "O" 
			},
			{
				"x": 2.053598015,
				"y": 2.8953105061,
				"z": 3.5952781349,
				"element": "H" 
			},
			{
				"x": 3.0041997411,
				"y": 3.4386952951,
				"z": 2.1981171585,
				"element": "H" 
			},
			{
				"x": 1.5796073098,
				"y": 4.3621589394,
				"z": 2.7156477953,
				"element": "H" 
			},
			{
				"x": 1.0452555908,
				"y": 2.9889229939,
				"z": 0.6875537294,
				"element": "H" 
			},
			{
				"x": 0.0922572362,
				"y": 2.444289288,
				"z": 2.0881414877,
				"element": "H" 
			},
			{
				"x": 3.3996390668,
				"y": -0.3998531467,
				"z": 2.1000847439,
				"element": "H" 
			},
			{
				"x": 1.6972110698,
				"y": -2.9589411475,
				"z": -0.055612114,
				"element": "H" 
			},
			{
				"x": -1.5276221675,
				"y": -0.3876932498,
				"z": -1.2483764987,
				"element": "H" 
			},
			{
				"x": -0.5830286601,
				"y": 1.4550102713,
				"z": 0.1131269485,
				"element": "H" 
			}
		],
		 "valence_orbital": [ 
			{
				"type": "occ",
				"energy": -0.30706,
				"method": "rhf"
			},
			{
				"type": "occ",
				"energy": -0.2899,
				"method": "rhf"
			},
			{
				"type": "occ",
				"energy": -0.28686,
				"method": "rhf"
			},
			{
				"type": "occ",
				"energy": -0.26202,
				"method": "rhf"
			},
			{
				"type": "occ",
				"energy": -0.26088,
				"method": "rhf"
			},
			{
				"type": "unocc",
				"energy": -0.08769,
				"method": "rhf"
			},
			{
				"type": "unocc",
				"energy": -0.07633,
				"method": "rhf"
			},
			{
				"type": "unocc",
				"energy": -0.00649,
				"method": "rhf"
			},
			{
				"type": "unocc",
				"energy": 0.03172,
				"method": "rhf"
			},
			{
				"type": "unocc",
				"energy": 0.07083,
				"method": "rhf"
			}
		],
		"cosmo_sigma_profile": { 
			"-0.025": 0.0,
			"-0.024": 0.0,
			"-0.023": 0.0,
			"-0.022": 0.0,
			"-0.021": 0.0,
			"-0.02": 0.0,
			"-0.019": 0.0,
			"-0.018": 0.0,
			"-0.017": 0.0,
			"-0.016": 0.0,
			"-0.015": 0.0,
			"-0.014": 0.0,
			"-0.013": 0.0,
			"-0.012": 0.0,
			"-0.011": 0.0,
			"-0.01": 0.0,
			"-0.009": 0.859679629587,
			"-0.008": 4.87583639654,
			"-0.007": 6.00523282923,
			"-0.006": 12.7478237816,
			"-0.005": 14.9249212988,
			"-0.004": 21.5341488289,
			"-0.003": 18.3165891765,
			"-0.002": 22.8342212332,
			"-0.001": 28.0315122891,
			"0.0": 21.0980133246,
			"0.001": 10.6635790786,
			"0.002": 6.4947560026,
			"0.003": 5.64275293362,
			"0.004": 7.21480440949,
			"0.005": 4.45230996703,
			"0.006": 3.85877037713,
			"0.007": 8.83070461201,
			"0.008": 10.3676934558,
			"0.009": 6.56320390062,
			"0.01": 6.12104601656,
			"0.011": 4.39949095375,
			"0.012": 1.8579856395,
			"0.013": 0.314007817177,
			"0.014": 0.0,
			"0.015": 0.0,
			"0.016": 0.0,
			"0.017": 0.0,
			"0.018": 0.0,
			"0.019": 0.0,
			"0.02": 0.0,
			"0.021": 0.0,
			"0.022": 0.0,
			"0.023": 0.0,
			"0.024": 0.0,
			"0.025": 0.0
		}
	}
}
