{
	 "smiles": "CC(C)(C)C1=CC(=CC(=C1)C(O)=O)C(O)=O", 
	 "Tm": 574.15, 
	 "num_atms": 30, 
	 "gaussian": { 
		 "optdone": 1, 
		 "sigma_profile": "no", 
		 "theory": "DFT", 
		 "functional": "B3LYP", 
		 "basiset": "6-31G**", 
		 "properties": { 
			 "R2extent": 4764.1828, 
			 "electric_dipole_moment_norm": 8.52232564034, 
			 "electric_quadrupole_moment_norm": 20.7727137907, 
			 "total_energy": -766.63841465, 
			 "HOMO_LUMO_gap": 0.19912, 
			 "cosmo_polarized_energy": -29.04, 
			 "cosmo_cavitation_energy": 33.42, 
			 "cosmo_dispersion_energy": -23.21, 
			 "cosmo_repulsion_energy": 1.8, 
			 "cosmo_total_nonelectrostatic_energy": 12.02, 
			 "SMD_solvation_energy": 8.17 
		},
		"coords": [
			{
				"x": -1.2535038215,
				"y": 1.4573704467,
				"z": 1.5185320575,
				"element": "C" 
			},
			{
				"x": -1.4469491997,
				"y": 1.1503203924,
				"z": 0.0213752597,
				"element": "C" 
			},
			{
				"x": -2.8161553848,
				"y": 0.4508532045,
				"z": -0.1543772717,
				"element": "C" 
			},
			{
				"x": -1.4499914953,
				"y": 2.4909636025,
				"z": -0.7519125366,
				"element": "C" 
			},
			{
				"x": -0.3335091961,
				"y": 0.2446373624,
				"z": -0.5369893852,
				"element": "C" 
			},
			{
				"x": -0.3622578177,
				"y": -0.1540969787,
				"z": -1.8829455876,
				"element": "C" 
			},
			{
				"x": 0.6492383618,
				"y": -0.942105825,
				"z": -2.4449940252,
				"element": "C" 
			},
			{
				"x": 1.7354974977,
				"y": -1.3383425613,
				"z": -1.660209959,
				"element": "C" 
			},
			{
				"x": 1.7685793265,
				"y": -0.9935399137,
				"z": -0.3099007015,
				"element": "C" 
			},
			{
				"x": 0.7441900674,
				"y": -0.2024618729,
				"z": 0.2358427773,
				"element": "C" 
			},
			{
				"x": 2.9472937861,
				"y": -1.4565123209,
				"z": 0.5000045529,
				"element": "C" 
			},
			{
				"x": 2.7735644376,
				"y": -1.5219718256,
				"z": 1.8480182905,
				"element": "O" 
			},
			{
				"x": 4.0075256335,
				"y": -1.7599161751,
				"z": 0.0100499375,
				"element": "O" 
			},
			{
				"x": 0.6466921064,
				"y": -1.3487378701,
				"z": -3.8921246689,
				"element": "C" 
			},
			{
				"x": -0.5627761872,
				"y": -1.3773738271,
				"z": -4.5150694296,
				"element": "O" 
			},
			{
				"x": 1.648870309,
				"y": -1.637703237,
				"z": -4.4987448532,
				"element": "O" 
			},
			{
				"x": -1.2650997446,
				"y": 0.5475421362,
				"z": 2.1284295612,
				"element": "H" 
			},
			{
				"x": -2.0699658557,
				"y": 2.095489571,
				"z": 1.8696579197,
				"element": "H" 
			},
			{
				"x": -0.3169335688,
				"y": 1.9912640855,
				"z": 1.7103603353,
				"element": "H" 
			},
			{
				"x": -3.043861731,
				"y": 0.2514654862,
				"z": -1.2059877245,
				"element": "H" 
			},
			{
				"x": -3.6173290706,
				"y": 1.0849775068,
				"z": 0.2396602533,
				"element": "H" 
			},
			{
				"x": -2.8441368894,
				"y": -0.5032791673,
				"z": 0.3820041285,
				"element": "H" 
			},
			{
				"x": -1.6296296788,
				"y": 2.3467189262,
				"z": -1.8215660847,
				"element": "H" 
			},
			{
				"x": -0.4931674453,
				"y": 3.0109442985,
				"z": -0.6412040742,
				"element": "H" 
			},
			{
				"x": -2.2396165973,
				"y": 3.1463052456,
				"z": -0.3689371803,
				"element": "H" 
			},
			{
				"x": -1.1720582314,
				"y": 0.2020029742,
				"z": -2.5142787024,
				"element": "H" 
			},
			{
				"x": 2.5427692209,
				"y": -1.9146702948,
				"z": -2.0968656059,
				"element": "H" 
			},
			{
				"x": 0.8129175748,
				"y": 0.1106716735,
				"z": 1.2721215435,
				"element": "H" 
			},
			{
				"x": 1.8380712474,
				"y": -1.4207062274,
				"z": 2.0710840305,
				"element": "H" 
			},
			{
				"x": -1.2755676537,
				"y": -1.2998088155,
				"z": -3.8661328569,
				"element": "H" 
			}
		],
		 "valence_orbital": [ 
			{
				"type": "occ",
				"energy": -0.32302,
				"method": "rhf"
			},
			{
				"type": "occ",
				"energy": -0.29045,
				"method": "rhf"
			},
			{
				"type": "occ",
				"energy": -0.28576,
				"method": "rhf"
			},
			{
				"type": "occ",
				"energy": -0.2764,
				"method": "rhf"
			},
			{
				"type": "occ",
				"energy": -0.27098,
				"method": "rhf"
			},
			{
				"type": "unocc",
				"energy": -0.07186,
				"method": "rhf"
			},
			{
				"type": "unocc",
				"energy": -0.0522,
				"method": "rhf"
			},
			{
				"type": "unocc",
				"energy": 0.00898,
				"method": "rhf"
			},
			{
				"type": "unocc",
				"energy": 0.04081,
				"method": "rhf"
			},
			{
				"type": "unocc",
				"energy": 0.05692,
				"method": "rhf"
			}
		],
		"cosmo_sigma_profile": { 
			"0.0": 0.0,
			"0.0": 0.0,
			"0.0": 0.0,
			"0.0": 0.0,
			"0.0": 0.0,
			"0.0": 0.0,
			"0.0": 0.0,
			"0.0": 0.0,
			"0.0": 0.0,
			"0.0": 0.0,
			"0.0": 0.0,
			"0.0": 0.0,
			"0.0": 0.0,
			"0.0": 0.0,
			"0.0": 0.0,
			"0.0": 0.0,
			"0.0": 0.0,
			"0.0": 0.0,
			"0.0": 0.0,
			"0.0": 0.0,
			"0.0": 0.0,
			"0.0": 0.0,
			"0.0": 0.0,
			"0.0": 0.0,
			"0.0": 0.0,
			"0.0": 0.0,
			"0.0": 0.0,
			"0.0": 0.0,
			"0.0": 0.0,
			"0.0": 0.0,
			"0.0": 0.0,
			"0.0": 0.0,
			"0.0": 0.0,
			"0.0": 0.0,
			"0.0": 0.0,
			"0.0": 0.0,
			"0.0": 0.0,
			"0.0": 0.0,
			"0.0": 0.0,
			"0.0": 0.0,
			"0.0": 0.0,
			"0.0": 0.0,
			"0.0": 0.0,
			"0.0": 0.0,
			"0.0": 0.0,
			"0.0": 0.0,
			"0.0": 0.0,
			"0.0": 0.0,
			"0.0": 0.0,
			"0.0": 0.0,
			"0.0": 0.0
		}
	}
}
