{
	 "smiles": "O=C1NC2=C(C=CC(SCC3=CC=CC=C3)=C2)C1=O", 
	 "Tm": 522.15, 
	 "num_atms": 30, 
	 "gaussian": { 
		 "optdone": 1, 
		 "sigma_profile": "yes", 
		 "theory": "DFT", 
		 "functional": "B3LYP", 
		 "basiset": "6-31G**", 
		 "properties": { 
			 "R2extent": 6589.3511, 
			 "electric_dipole_moment_norm": 7.15533167435, 
			 "electric_quadrupole_moment_norm": 26.3104656774, 
			 "total_energy": -1181.61520281, 
			 "HOMO_LUMO_gap": 0.13484, 
			 "cosmo_polarized_energy": -19.0, 
			 "cosmo_cavitation_energy": 36.72, 
			 "cosmo_dispersion_energy": -26.24, 
			 "cosmo_repulsion_energy": 1.97, 
			 "cosmo_total_nonelectrostatic_energy": 12.45, 
			 "SMD_solvation_energy": 6.98 
		},
		"coords": [
			{
				"x": -2.6603281979,
				"y": -3.9073221572,
				"z": -2.0529050395,
				"element": "O" 
			},
			{
				"x": -2.126080296,
				"y": -2.8227277587,
				"z": -2.0866877878,
				"element": "C" 
			},
			{
				"x": -1.7923730798,
				"y": -2.0221300701,
				"z": -1.001496932,
				"element": "N" 
			},
			{
				"x": -1.1775264681,
				"y": -0.8284002313,
				"z": -1.40049649,
				"element": "C" 
			},
			{
				"x": -1.0752388012,
				"y": -0.7793274216,
				"z": -2.8048696693,
				"element": "C" 
			},
			{
				"x": -0.4852943314,
				"y": 0.3232821391,
				"z": -3.4222639065,
				"element": "C" 
			},
			{
				"x": -0.0102440944,
				"y": 1.3669317828,
				"z": -2.6365278492,
				"element": "C" 
			},
			{
				"x": -0.1195425929,
				"y": 1.3090314117,
				"z": -1.2294585368,
				"element": "C" 
			},
			{
				"x": 0.5380898517,
				"y": 2.7077828697,
				"z": -0.3572835133,
				"element": "S" 
			},
			{
				"x": -0.0275593337,
				"y": 2.5104594348,
				"z": 1.3806406272,
				"element": "C" 
			},
			{
				"x": 0.6629076361,
				"y": 1.4653371188,
				"z": 2.2359993236,
				"element": "C" 
			},
			{
				"x": -0.0956661613,
				"y": 0.7192008589,
				"z": 3.1483094793,
				"element": "C" 
			},
			{
				"x": 0.5143832227,
				"y": -0.2096503153,
				"z": 3.9941720934,
				"element": "C" 
			},
			{
				"x": 1.8943317569,
				"y": -0.4051075811,
				"z": 3.9363929817,
				"element": "C" 
			},
			{
				"x": 2.6580114405,
				"y": 0.3339375941,
				"z": 3.02961472,
				"element": "C" 
			},
			{
				"x": 2.0478894721,
				"y": 1.261709374,
				"z": 2.1860667266,
				"element": "C" 
			},
			{
				"x": -0.7069156424,
				"y": 0.1988051504,
				"z": -0.5943087115,
				"element": "C" 
			},
			{
				"x": -1.6571691852,
				"y": -2.0099699099,
				"z": -3.3471393818,
				"element": "C" 
			},
			{
				"x": -1.7845681701,
				"y": -2.3911567767,
				"z": -4.4919510687,
				"element": "O" 
			},
			{
				"x": -1.9607564841,
				"y": -2.2980877443,
				"z": -0.045217395,
				"element": "H" 
			},
			{
				"x": -0.4084901194,
				"y": 0.3588935178,
				"z": -4.5047218499,
				"element": "H" 
			},
			{
				"x": 0.4401056782,
				"y": 2.2383099031,
				"z": -3.1012114876,
				"element": "H" 
			},
			{
				"x": -1.1109747754,
				"y": 2.3604320747,
				"z": 1.3783412373,
				"element": "H" 
			},
			{
				"x": 0.1492006712,
				"y": 3.5124250414,
				"z": 1.7887616654,
				"element": "H" 
			},
			{
				"x": -1.1715650069,
				"y": 0.871157897,
				"z": 3.2023773469,
				"element": "H" 
			},
			{
				"x": -0.0896184063,
				"y": -0.7793032326,
				"z": 4.6946249297,
				"element": "H" 
			},
			{
				"x": 2.3717601041,
				"y": -1.1290377715,
				"z": 4.590084976,
				"element": "H" 
			},
			{
				"x": 3.7327812283,
				"y": 0.1859066359,
				"z": 2.9769261058,
				"element": "H" 
			},
			{
				"x": 2.6458551495,
				"y": 1.8241494113,
				"z": 1.475088117,
				"element": "H" 
			},
			{
				"x": -0.7660050649,
				"y": 0.1287687549,
				"z": 0.484439289,
				"element": "H" 
			}
		],
		 "valence_orbital": [ 
			{
				"type": "occ",
				"energy": -0.26676,
				"method": "rhf"
			},
			{
				"type": "occ",
				"energy": -0.26018,
				"method": "rhf"
			},
			{
				"type": "occ",
				"energy": -0.24977,
				"method": "rhf"
			},
			{
				"type": "occ",
				"energy": -0.24122,
				"method": "rhf"
			},
			{
				"type": "occ",
				"energy": -0.22641,
				"method": "rhf"
			},
			{
				"type": "unocc",
				"energy": -0.09157,
				"method": "rhf"
			},
			{
				"type": "unocc",
				"energy": -0.02481,
				"method": "rhf"
			},
			{
				"type": "unocc",
				"energy": -0.02251,
				"method": "rhf"
			},
			{
				"type": "unocc",
				"energy": -0.01761,
				"method": "rhf"
			},
			{
				"type": "unocc",
				"energy": 0.00749,
				"method": "rhf"
			}
		],
		"cosmo_sigma_profile": { 
			"-0.025": 0.0,
			"-0.024": 0.0,
			"-0.023": 0.0,
			"-0.022": 0.0,
			"-0.021": 0.0,
			"-0.02": 0.0,
			"-0.019": 0.0,
			"-0.018": 0.0,
			"-0.017": 0.28524607093,
			"-0.016": 1.43569072882,
			"-0.015": 1.4480054897,
			"-0.014": 1.06560546613,
			"-0.013": 1.58530184253,
			"-0.012": 0.960415910716,
			"-0.011": 0.895436567727,
			"-0.01": 1.13852152701,
			"-0.009": 1.24111014793,
			"-0.008": 3.65287822223,
			"-0.007": 11.3407124698,
			"-0.006": 17.5995637778,
			"-0.005": 21.6864091413,
			"-0.004": 22.1998036571,
			"-0.003": 19.9722002067,
			"-0.002": 17.3010652415,
			"-0.001": 19.6604534599,
			"0.0": 17.4437249397,
			"0.001": 19.3315723318,
			"0.002": 25.9427130221,
			"0.003": 19.7035196309,
			"0.004": 15.3691946091,
			"0.005": 13.2663077903,
			"0.006": 8.0315114127,
			"0.007": 3.62029173978,
			"0.008": 3.42779446252,
			"0.009": 4.4919802886,
			"0.01": 6.91476616231,
			"0.011": 9.90199941327,
			"0.012": 5.5896847761,
			"0.013": 0.528760389039,
			"0.014": 0.0,
			"0.015": 0.0,
			"0.016": 0.0,
			"0.017": 0.0,
			"0.018": 0.0,
			"0.019": 0.0,
			"0.02": 0.0,
			"0.021": 0.0,
			"0.022": 0.0,
			"0.023": 0.0,
			"0.024": 0.0,
			"0.025": 0.0
		}
	}
}
