{
	 "smiles": "NC1=CC2=C(CCC(=O)N2)C=C1", 
	 "Tm": 484.15, 
	 "num_atms": 22, 
	 "gaussian": { 
		 "optdone": 1, 
		 "sigma_profile": "yes", 
		 "theory": "DFT", 
		 "functional": "B3LYP", 
		 "basiset": "6-31G**", 
		 "properties": { 
			 "R2extent": 2505.3158, 
			 "electric_dipole_moment_norm": 4.17014493873, 
			 "electric_quadrupole_moment_norm": 11.474452563, 
			 "total_energy": -533.745052599, 
			 "HOMO_LUMO_gap": 0.19295, 
			 "cosmo_polarized_energy": -15.05, 
			 "cosmo_cavitation_energy": 25.1, 
			 "cosmo_dispersion_energy": -18.99, 
			 "cosmo_repulsion_energy": 1.52, 
			 "cosmo_total_nonelectrostatic_energy": 7.62, 
			 "SMD_solvation_energy": 4.41 
		},
		"coords": [
			{
				"x": 2.2610552039,
				"y": 0.0313376221,
				"z": 3.5961848643,
				"element": "N" 
			},
			{
				"x": 1.1985108383,
				"y": -0.3337338116,
				"z": 2.7671039427,
				"element": "C" 
			},
			{
				"x": 0.9543056858,
				"y": 0.3660526304,
				"z": 1.5752844212,
				"element": "C" 
			},
			{
				"x": -0.0702127795,
				"y": -0.038203536,
				"z": 0.7171676913,
				"element": "C" 
			},
			{
				"x": -0.8800504502,
				"y": -1.1479182806,
				"z": 1.0189349712,
				"element": "C" 
			},
			{
				"x": -1.9260441151,
				"y": -1.564542164,
				"z": 0.0115730117,
				"element": "C" 
			},
			{
				"x": -2.5216570791,
				"y": -0.3383879214,
				"z": -0.6965419444,
				"element": "C" 
			},
			{
				"x": -1.4526996565,
				"y": 0.5969312378,
				"z": -1.2435401765,
				"element": "C" 
			},
			{
				"x": -1.5852153354,
				"y": 1.2737093528,
				"z": -2.251316134,
				"element": "O" 
			},
			{
				"x": -0.3029902202,
				"y": 0.6627126265,
				"z": -0.4797913004,
				"element": "N" 
			},
			{
				"x": -0.6329305941,
				"y": -1.8219947037,
				"z": 2.2145990346,
				"element": "C" 
			},
			{
				"x": 0.3845655558,
				"y": -1.4345742007,
				"z": 3.0838046027,
				"element": "C" 
			},
			{
				"x": 2.1693649,
				"y": -0.2595187561,
				"z": 4.5597279452,
				"element": "H" 
			},
			{
				"x": 2.554679622,
				"y": 0.99561922,
				"z": 3.522196761,
				"element": "H" 
			},
			{
				"x": 1.564454122,
				"y": 1.2293593923,
				"z": 1.3188065309,
				"element": "H" 
			},
			{
				"x": -2.7185449375,
				"y": -2.145113788,
				"z": 0.4950921742,
				"element": "H" 
			},
			{
				"x": -1.4739068534,
				"y": -2.225640378,
				"z": -0.7429830703,
				"element": "H" 
			},
			{
				"x": -3.1238105486,
				"y": 0.2460182046,
				"z": 0.0129699636,
				"element": "H" 
			},
			{
				"x": -3.1737122653,
				"y": -0.6123794967,
				"z": -1.5284747963,
				"element": "H" 
			},
			{
				"x": 0.3720615103,
				"y": 1.3499882188,
				"z": -0.7895342781,
				"element": "H" 
			},
			{
				"x": -1.2511421517,
				"y": -2.678963313,
				"z": 2.4718359993,
				"element": "H" 
			},
			{
				"x": 0.5559195485,
				"y": -1.9845581554,
				"z": 4.005099786,
				"element": "H" 
			}
		],
		 "valence_orbital": [ 
			{
				"type": "occ",
				"energy": -0.31685,
				"method": "rhf"
			},
			{
				"type": "occ",
				"energy": -0.28424,
				"method": "rhf"
			},
			{
				"type": "occ",
				"energy": -0.24688,
				"method": "rhf"
			},
			{
				"type": "occ",
				"energy": -0.22412,
				"method": "rhf"
			},
			{
				"type": "occ",
				"energy": -0.19823,
				"method": "rhf"
			},
			{
				"type": "unocc",
				"energy": -0.00528,
				"method": "rhf"
			},
			{
				"type": "unocc",
				"energy": 0.00683,
				"method": "rhf"
			},
			{
				"type": "unocc",
				"energy": 0.04504,
				"method": "rhf"
			},
			{
				"type": "unocc",
				"energy": 0.07784,
				"method": "rhf"
			},
			{
				"type": "unocc",
				"energy": 0.09162,
				"method": "rhf"
			}
		],
		"cosmo_sigma_profile": { 
			"-0.025": 0.0,
			"-0.024": 0.0,
			"-0.023": 0.0,
			"-0.022": 0.0,
			"-0.021": 0.0,
			"-0.02": 0.0,
			"-0.019": 0.0,
			"-0.018": 0.0,
			"-0.017": 0.0,
			"-0.016": 0.0,
			"-0.015": 0.0657993630799,
			"-0.014": 0.989149233244,
			"-0.013": 1.28963607115,
			"-0.012": 3.16081344284,
			"-0.011": 4.14019178619,
			"-0.01": 3.38889034523,
			"-0.009": 4.97794123665,
			"-0.008": 3.87186935705,
			"-0.007": 4.96150451247,
			"-0.006": 6.15790270415,
			"-0.005": 11.8096238004,
			"-0.004": 15.8837101859,
			"-0.003": 18.2176019016,
			"-0.002": 14.8077066363,
			"-0.001": 13.2813379791,
			"0.0": 9.21651832211,
			"0.001": 7.53790101073,
			"0.002": 8.73807130539,
			"0.003": 9.12094501013,
			"0.004": 7.40711506676,
			"0.005": 8.25139941791,
			"0.006": 10.2050220968,
			"0.007": 7.29167071729,
			"0.008": 2.15454804872,
			"0.009": 2.28112212193,
			"0.01": 1.88789908089,
			"0.011": 2.43618496139,
			"0.012": 2.87247953416,
			"0.013": 5.97382031657,
			"0.014": 4.67503498409,
			"0.015": 1.01014768982,
			"0.016": 0.0,
			"0.017": 0.0,
			"0.018": 0.0,
			"0.019": 0.0,
			"0.02": 0.0,
			"0.021": 0.0,
			"0.022": 0.0,
			"0.023": 0.0,
			"0.024": 0.0,
			"0.025": 0.0
		}
	}
}
