{
	 "smiles": "CCCCCCCCCCOC1=CC=C(C=C1)C(O)=O", 
	 "Tm": 387.15, 
	 "num_atms": 46, 
	 "gaussian": { 
		 "optdone": 1, 
		 "sigma_profile": "yes", 
		 "theory": "DFT", 
		 "functional": "B3LYP", 
		 "basiset": "6-31G**", 
		 "properties": { 
			 "R2extent": 12800.1781, 
			 "electric_dipole_moment_norm": 5.63238750265, 
			 "electric_quadrupole_moment_norm": 40.015083691, 
			 "total_energy": -889.178904307, 
			 "HOMO_LUMO_gap": 0.19584, 
			 "cosmo_polarized_energy": -15.5, 
			 "cosmo_cavitation_energy": 47.48, 
			 "cosmo_dispersion_energy": -32.96, 
			 "cosmo_repulsion_energy": 2.61, 
			 "cosmo_total_nonelectrostatic_energy": 17.12, 
			 "SMD_solvation_energy": 8.32 
		},
		"coords": [
			{
				"x": 4.3647234084,
				"y": -4.4119030712,
				"z": -1.9903676735,
				"element": "C" 
			},
			{
				"x": 3.0254935884,
				"y": -4.1078733621,
				"z": -1.3078921107,
				"element": "C" 
			},
			{
				"x": 2.8804506619,
				"y": -2.6640732861,
				"z": -0.7946842855,
				"element": "C" 
			},
			{
				"x": 2.8153883535,
				"y": -1.6041455182,
				"z": -1.9036597584,
				"element": "C" 
			},
			{
				"x": 2.7278530168,
				"y": -0.1413460174,
				"z": -1.4300958922,
				"element": "C" 
			},
			{
				"x": 1.4648373682,
				"y": 0.2315248288,
				"z": -0.6187108897,
				"element": "C" 
			},
			{
				"x": 1.641716444,
				"y": 0.1624361481,
				"z": 0.9077454496,
				"element": "C" 
			},
			{
				"x": 0.3621729338,
				"y": 0.4360051539,
				"z": 1.7153125508,
				"element": "C" 
			},
			{
				"x": -0.1792905643,
				"y": 1.8671303542,
				"z": 1.586369317,
				"element": "C" 
			},
			{
				"x": -1.4104371939,
				"y": 2.1258568502,
				"z": 2.4554079502,
				"element": "C" 
			},
			{
				"x": -2.5189809235,
				"y": 1.2765144253,
				"z": 2.1227339684,
				"element": "O" 
			},
			{
				"x": -3.3372343166,
				"y": 1.5898756932,
				"z": 1.0856070438,
				"element": "C" 
			},
			{
				"x": -3.2185383907,
				"y": 2.727566118,
				"z": 0.2706167441,
				"element": "C" 
			},
			{
				"x": -4.1398625983,
				"y": 2.943028118,
				"z": -0.7496340637,
				"element": "C" 
			},
			{
				"x": -5.1779111775,
				"y": 2.037454801,
				"z": -0.9991971947,
				"element": "C" 
			},
			{
				"x": -5.2926695161,
				"y": 0.9083458309,
				"z": -0.1694975124,
				"element": "C" 
			},
			{
				"x": -4.3881461836,
				"y": 0.6846473209,
				"z": 0.8575220198,
				"element": "C" 
			},
			{
				"x": -6.1197790648,
				"y": 2.3480310481,
				"z": -2.1152441756,
				"element": "C" 
			},
			{
				"x": -6.8927473905,
				"y": 1.3227603472,
				"z": -2.572936358,
				"element": "O" 
			},
			{
				"x": -6.2214236338,
				"y": 3.4432714759,
				"z": -2.619454674,
				"element": "O" 
			},
			{
				"x": 4.5126343504,
				"y": -3.810391035,
				"z": -2.8930029364,
				"element": "H" 
			},
			{
				"x": 5.2051002195,
				"y": -4.2089201509,
				"z": -1.3160934222,
				"element": "H" 
			},
			{
				"x": 4.4246658443,
				"y": -5.4643812946,
				"z": -2.2866426367,
				"element": "H" 
			},
			{
				"x": 2.2026298636,
				"y": -4.3275206356,
				"z": -2.0022415474,
				"element": "H" 
			},
			{
				"x": 2.8966232444,
				"y": -4.7943022381,
				"z": -0.4612538407,
				"element": "H" 
			},
			{
				"x": 1.9707022499,
				"y": -2.6058658203,
				"z": -0.1842347404,
				"element": "H" 
			},
			{
				"x": 3.7181688298,
				"y": -2.4358560045,
				"z": -0.1193252167,
				"element": "H" 
			},
			{
				"x": 1.9507818558,
				"y": -1.819684504,
				"z": -2.5484670344,
				"element": "H" 
			},
			{
				"x": 3.6999121924,
				"y": -1.6971267073,
				"z": -2.5463309228,
				"element": "H" 
			},
			{
				"x": 3.6234074183,
				"y": 0.1059406013,
				"z": -0.8424561606,
				"element": "H" 
			},
			{
				"x": 2.7756504255,
				"y": 0.49438833,
				"z": -2.3227089014,
				"element": "H" 
			},
			{
				"x": 1.1599103923,
				"y": 1.2489011265,
				"z": -0.8917452336,
				"element": "H" 
			},
			{
				"x": 0.6306289423,
				"y": -0.418881662,
				"z": -0.9192257828,
				"element": "H" 
			},
			{
				"x": 2.021178938,
				"y": -0.8267512834,
				"z": 1.1877484689,
				"element": "H" 
			},
			{
				"x": 2.4212373532,
				"y": 0.877821146,
				"z": 1.2077718269,
				"element": "H" 
			},
			{
				"x": 0.5631399677,
				"y": 0.2338363717,
				"z": 2.7764291855,
				"element": "H" 
			},
			{
				"x": -0.4206324615,
				"y": -0.2715109915,
				"z": 1.4147799537,
				"element": "H" 
			},
			{
				"x": -0.4170289325,
				"y": 2.0939552719,
				"z": 0.5413210871,
				"element": "H" 
			},
			{
				"x": 0.5945034434,
				"y": 2.5856400408,
				"z": 1.8916839779,
				"element": "H" 
			},
			{
				"x": -1.1934809572,
				"y": 1.8823796149,
				"z": 3.5000329907,
				"element": "H" 
			},
			{
				"x": -1.7183506595,
				"y": 3.1776202575,
				"z": 2.4178127187,
				"element": "H" 
			},
			{
				"x": -2.4194325362,
				"y": 3.4427843954,
				"z": 0.4212139512,
				"element": "H" 
			},
			{
				"x": -4.0658351325,
				"y": 3.8232924372,
				"z": -1.3793191848,
				"element": "H" 
			},
			{
				"x": -6.1164944225,
				"y": 0.2081726098,
				"z": -0.2894061268,
				"element": "H" 
			},
			{
				"x": -4.4775749408,
				"y": -0.17654172,
				"z": 1.5109452064,
				"element": "H" 
			},
			{
				"x": -6.5872603096,
				"y": 0.4841945854,
				"z": -2.201326135,
				"element": "H" 
			}
		],
		 "valence_orbital": [ 
			{
				"type": "occ",
				"energy": -0.3034,
				"method": "rhf"
			},
			{
				"type": "occ",
				"energy": -0.30205,
				"method": "rhf"
			},
			{
				"type": "occ",
				"energy": -0.26947,
				"method": "rhf"
			},
			{
				"type": "occ",
				"energy": -0.26541,
				"method": "rhf"
			},
			{
				"type": "occ",
				"energy": -0.23373,
				"method": "rhf"
			},
			{
				"type": "unocc",
				"energy": -0.03789,
				"method": "rhf"
			},
			{
				"type": "unocc",
				"energy": -0.01948,
				"method": "rhf"
			},
			{
				"type": "unocc",
				"energy": 0.05812,
				"method": "rhf"
			},
			{
				"type": "unocc",
				"energy": 0.06544,
				"method": "rhf"
			},
			{
				"type": "unocc",
				"energy": 0.07978,
				"method": "rhf"
			}
		],
		"cosmo_sigma_profile": { 
			"-0.025": 0.0,
			"-0.024": 0.0,
			"-0.023": 0.0,
			"-0.022": 0.0,
			"-0.021": 0.0,
			"-0.02": 0.0,
			"-0.019": 0.122523613538,
			"-0.018": 0.637343942011,
			"-0.017": 0.873706820621,
			"-0.016": 0.862359309152,
			"-0.015": 1.26348835179,
			"-0.014": 0.575672895897,
			"-0.013": 0.696488019453,
			"-0.012": 1.57855316746,
			"-0.011": 1.49844462722,
			"-0.01": 0.657057994928,
			"-0.009": 1.89830058445,
			"-0.008": 1.47393737695,
			"-0.007": 5.04715317775,
			"-0.006": 8.82053359001,
			"-0.005": 11.722908454,
			"-0.004": 14.3549007696,
			"-0.003": 20.6584616461,
			"-0.002": 36.0818172509,
			"-0.001": 57.0950351736,
			"0.0": 61.6015054363,
			"0.001": 51.0073919172,
			"0.002": 26.2966782586,
			"0.003": 17.3247534461,
			"0.004": 10.20084213,
			"0.005": 4.21674027741,
			"0.006": 3.33370867783,
			"0.007": 3.35795286798,
			"0.008": 4.00832196263,
			"0.009": 3.59211645,
			"0.01": 4.49947371676,
			"0.011": 5.44584227973,
			"0.012": 5.85925213058,
			"0.013": 2.66602946874,
			"0.014": 0.476246872662,
			"0.015": 0.0,
			"0.016": 0.0,
			"0.017": 0.0,
			"0.018": 0.0,
			"0.019": 0.0,
			"0.02": 0.0,
			"0.021": 0.0,
			"0.022": 0.0,
			"0.023": 0.0,
			"0.024": 0.0,
			"0.025": 0.0
		}
	}
}
