{
	 "smiles": "O=S(=O)(N1CCCCC1)C1=CC=C(C=C1)N=C=S", 
	 "Tm": 399.15, 
	 "num_atms": 32, 
	 "gaussian": { 
		 "optdone": 1, 
		 "sigma_profile": "yes", 
		 "theory": "DFT", 
		 "functional": "B3LYP", 
		 "basiset": "6-31G**", 
		 "properties": { 
			 "R2extent": 8842.3275, 
			 "electric_dipole_moment_norm": 4.094272138, 
			 "electric_quadrupole_moment_norm": 17.8434215427, 
			 "total_energy": -1521.97353872, 
			 "HOMO_LUMO_gap": 0.17125, 
			 "cosmo_polarized_energy": -13.66, 
			 "cosmo_cavitation_energy": 38.76, 
			 "cosmo_dispersion_energy": -28.19, 
			 "cosmo_repulsion_energy": 2.12, 
			 "cosmo_total_nonelectrostatic_energy": 12.68, 
			 "SMD_solvation_energy": 4.98 
		},
		"coords": [
			{
				"x": 2.2278587581,
				"y": -1.1064642191,
				"z": 0.2594926745,
				"element": "O" 
			},
			{
				"x": 1.5253118161,
				"y": 0.1475275631,
				"z": -0.0309051459,
				"element": "S" 
			},
			{
				"x": 2.279537713,
				"y": 1.3670055896,
				"z": -0.3572032909,
				"element": "O" 
			},
			{
				"x": 0.3771786992,
				"y": -0.2156345078,
				"z": -1.2296337476,
				"element": "N" 
			},
			{
				"x": 0.8393372032,
				"y": -1.1834989854,
				"z": -2.2522456781,
				"element": "C" 
			},
			{
				"x": -0.368022374,
				"y": -1.67637156,
				"z": -3.0548803154,
				"element": "C" 
			},
			{
				"x": -1.1340010231,
				"y": -0.5044147751,
				"z": -3.6835305731,
				"element": "C" 
			},
			{
				"x": -1.5164060244,
				"y": 0.5233270609,
				"z": -2.6100906463,
				"element": "C" 
			},
			{
				"x": -0.2900549654,
				"y": 0.9702032247,
				"z": -1.8073921025,
				"element": "C" 
			},
			{
				"x": 0.4617421801,
				"y": 0.5425063023,
				"z": 1.3620001339,
				"element": "C" 
			},
			{
				"x": 0.4834796222,
				"y": 1.8320640136,
				"z": 1.8943718732,
				"element": "C" 
			},
			{
				"x": -0.3021631615,
				"y": 2.1305223143,
				"z": 3.0041914435,
				"element": "C" 
			},
			{
				"x": -1.1032275231,
				"y": 1.1288166763,
				"z": 3.5769485357,
				"element": "C" 
			},
			{
				"x": -1.1120680259,
				"y": -0.1724166503,
				"z": 3.0383449486,
				"element": "C" 
			},
			{
				"x": -0.325461228,
				"y": -0.4631498007,
				"z": 1.9320080085,
				"element": "C" 
			},
			{
				"x": -1.879724453,
				"y": 1.4170072828,
				"z": 4.6671968589,
				"element": "N" 
			},
			{
				"x": -2.5549459437,
				"y": 1.6675560738,
				"z": 5.612119153,
				"element": "C" 
			},
			{
				"x": -3.4598729381,
				"y": 2.0036326387,
				"z": 6.876324742,
				"element": "S" 
			},
			{
				"x": 1.5716913553,
				"y": -0.7129379863,
				"z": -2.9281322922,
				"element": "H" 
			},
			{
				"x": 1.3362383377,
				"y": -2.0066270043,
				"z": -1.738056348,
				"element": "H" 
			},
			{
				"x": -0.0175600937,
				"y": -2.3710559423,
				"z": -3.8267596078,
				"element": "H" 
			},
			{
				"x": -1.0314371896,
				"y": -2.2392644072,
				"z": -2.3867494585,
				"element": "H" 
			},
			{
				"x": -0.5008969827,
				"y": -0.0210647254,
				"z": -4.4405987087,
				"element": "H" 
			},
			{
				"x": -2.0283249556,
				"y": -0.8643257621,
				"z": -4.2040532807,
				"element": "H" 
			},
			{
				"x": -1.9823162186,
				"y": 1.4056332844,
				"z": -3.063549506,
				"element": "H" 
			},
			{
				"x": -2.2491912202,
				"y": 0.0852507527,
				"z": -1.9213320056,
				"element": "H" 
			},
			{
				"x": 0.4073391773,
				"y": 1.5323030348,
				"z": -2.4466496107,
				"element": "H" 
			},
			{
				"x": -0.5938109137,
				"y": 1.6316645504,
				"z": -0.9909797182,
				"element": "H" 
			},
			{
				"x": 1.1181402027,
				"y": 2.5850471936,
				"z": 1.4404674507,
				"element": "H" 
			},
			{
				"x": -0.3024787148,
				"y": 3.1253460567,
				"z": 3.4355836515,
				"element": "H" 
			},
			{
				"x": -1.7318047088,
				"y": -0.9340001585,
				"z": 3.4985046433,
				"element": "H" 
			},
			{
				"x": -0.3167864071,
				"y": -1.462687128,
				"z": 1.5117879191,
				"element": "H" 
			}
		],
		 "valence_orbital": [ 
			{
				"type": "occ",
				"energy": -0.30188,
				"method": "rhf"
			},
			{
				"type": "occ",
				"energy": -0.2884,
				"method": "rhf"
			},
			{
				"type": "occ",
				"energy": -0.26277,
				"method": "rhf"
			},
			{
				"type": "occ",
				"energy": -0.25922,
				"method": "rhf"
			},
			{
				"type": "occ",
				"energy": -0.24346,
				"method": "rhf"
			},
			{
				"type": "unocc",
				"energy": -0.07221,
				"method": "rhf"
			},
			{
				"type": "unocc",
				"energy": -0.0367,
				"method": "rhf"
			},
			{
				"type": "unocc",
				"energy": -0.00657,
				"method": "rhf"
			},
			{
				"type": "unocc",
				"energy": 0.01899,
				"method": "rhf"
			},
			{
				"type": "unocc",
				"energy": 0.05029,
				"method": "rhf"
			}
		],
		"cosmo_sigma_profile": { 
			"-0.025": 0.0,
			"-0.024": 0.0,
			"-0.023": 0.0,
			"-0.022": 0.0,
			"-0.021": 0.0,
			"-0.02": 0.0,
			"-0.019": 0.0,
			"-0.018": 0.0,
			"-0.017": 0.0,
			"-0.016": 0.0,
			"-0.015": 0.0,
			"-0.014": 0.0,
			"-0.013": 0.0,
			"-0.012": 0.0,
			"-0.011": 0.0,
			"-0.01": 0.0,
			"-0.009": 0.959840232101,
			"-0.008": 6.58267775024,
			"-0.007": 8.79346792785,
			"-0.006": 6.73659760911,
			"-0.005": 8.10305204696,
			"-0.004": 22.7037940634,
			"-0.003": 37.763570345,
			"-0.002": 43.8985081109,
			"-0.001": 35.4515272607,
			"0.0": 30.8612495536,
			"0.001": 22.8873176249,
			"0.002": 12.7165305619,
			"0.003": 9.73967129785,
			"0.004": 10.9040696409,
			"0.005": 16.5051130165,
			"0.006": 8.76243786183,
			"0.007": 2.52418780447,
			"0.008": 3.25444827049,
			"0.009": 4.31211966465,
			"0.01": 5.53391979526,
			"0.011": 8.6593420209,
			"0.012": 3.59908639849,
			"0.013": 0.0,
			"0.014": 0.0,
			"0.015": 0.0,
			"0.016": 0.0,
			"0.017": 0.0,
			"0.018": 0.0,
			"0.019": 0.0,
			"0.02": 0.0,
			"0.021": 0.0,
			"0.022": 0.0,
			"0.023": 0.0,
			"0.024": 0.0,
			"0.025": 0.0
		}
	}
}
