{
	 "smiles": "CC(=O)NC1=C(C(O)=O)C2=C(CCCC2)S1", 
	 "Tm": 484.15, 
	 "num_atms": 29, 
	 "gaussian": { 
		 "optdone": 1, 
		 "sigma_profile": "yes", 
		 "theory": "DFT", 
		 "functional": "B3LYP", 
		 "basiset": "6-31G**", 
		 "properties": { 
			 "R2extent": 4340.4845, 
			 "electric_dipole_moment_norm": 5.73541968299, 
			 "electric_quadrupole_moment_norm": 19.3768562618, 
			 "total_energy": -1105.64915044, 
			 "HOMO_LUMO_gap": 0.17631, 
			 "cosmo_polarized_energy": -15.12, 
			 "cosmo_cavitation_energy": 32.94, 
			 "cosmo_dispersion_energy": -24.23, 
			 "cosmo_repulsion_energy": 1.87, 
			 "cosmo_total_nonelectrostatic_energy": 10.58, 
			 "SMD_solvation_energy": 6.39 
		},
		"coords": [
			{
				"x": 1.3380302332,
				"y": -3.3623187611,
				"z": 1.6347782065,
				"element": "C" 
			},
			{
				"x": -0.1604038529,
				"y": -3.5376645399,
				"z": 1.5416593519,
				"element": "C" 
			},
			{
				"x": -0.7637408513,
				"y": -4.4779649663,
				"z": 2.0268594506,
				"element": "O" 
			},
			{
				"x": -0.8729815743,
				"y": -2.5610936041,
				"z": 0.8422392493,
				"element": "N" 
			},
			{
				"x": -0.3917796021,
				"y": -1.4236769354,
				"z": 0.1916369732,
				"element": "C" 
			},
			{
				"x": 0.0663689622,
				"y": -0.2225048672,
				"z": 0.7087774148,
				"element": "C" 
			},
			{
				"x": 0.0764494234,
				"y": 0.0278718087,
				"z": 2.1667434048,
				"element": "C" 
			},
			{
				"x": 0.0603396736,
				"y": 1.3516840566,
				"z": 2.4732980001,
				"element": "O" 
			},
			{
				"x": 0.0781368196,
				"y": -0.8197243189,
				"z": 3.0395115687,
				"element": "O" 
			},
			{
				"x": 0.4377289305,
				"y": 0.7281914399,
				"z": -0.3187431597,
				"element": "C" 
			},
			{
				"x": 0.2319154626,
				"y": 0.2406874224,
				"z": -1.5834145095,
				"element": "C" 
			},
			{
				"x": 0.5060100606,
				"y": 0.9712633269,
				"z": -2.8711918966,
				"element": "C" 
			},
			{
				"x": 0.7060033241,
				"y": 2.4724321681,
				"z": -2.6010294907,
				"element": "C" 
			},
			{
				"x": 1.6214790771,
				"y": 2.688755528,
				"z": -1.3892682662,
				"element": "C" 
			},
			{
				"x": 1.0019497395,
				"y": 2.117400797,
				"z": -0.103168141,
				"element": "C" 
			},
			{
				"x": -0.3874912882,
				"y": -1.3879032393,
				"z": -1.558077859,
				"element": "S" 
			},
			{
				"x": 1.7699830345,
				"y": -4.3141825572,
				"z": 1.9434582879,
				"element": "H" 
			},
			{
				"x": 1.5580594769,
				"y": -2.5998798369,
				"z": 2.3864555812,
				"element": "H" 
			},
			{
				"x": 1.774450013,
				"y": -3.0429279767,
				"z": 0.6840625282,
				"element": "H" 
			},
			{
				"x": -1.8591310936,
				"y": -2.7817524543,
				"z": 0.7632416188,
				"element": "H" 
			},
			{
				"x": 0.0656738854,
				"y": 1.3895122173,
				"z": 3.4446553863,
				"element": "H" 
			},
			{
				"x": -0.3142718843,
				"y": 0.8157051213,
				"z": -3.5822330139,
				"element": "H" 
			},
			{
				"x": 1.4060801494,
				"y": 0.5571042058,
				"z": -3.3476876794,
				"element": "H" 
			},
			{
				"x": 1.1214140156,
				"y": 2.9536101744,
				"z": -3.4930588961,
				"element": "H" 
			},
			{
				"x": -0.2680110287,
				"y": 2.9409529031,
				"z": -2.4097700818,
				"element": "H" 
			},
			{
				"x": 2.5880615283,
				"y": 2.2026943048,
				"z": -1.57820935,
				"element": "H" 
			},
			{
				"x": 1.8278440589,
				"y": 3.7557141007,
				"z": -1.2513438897,
				"element": "H" 
			},
			{
				"x": 0.2040500851,
				"y": 2.7797197299,
				"z": 0.2556810026,
				"element": "H" 
			},
			{
				"x": 1.7457832218,
				"y": 2.0995947521,
				"z": 0.699238209,
				"element": "H" 
			}
		],
		 "valence_orbital": [ 
			{
				"type": "occ",
				"energy": -0.28614,
				"method": "rhf"
			},
			{
				"type": "occ",
				"energy": -0.26872,
				"method": "rhf"
			},
			{
				"type": "occ",
				"energy": -0.25963,
				"method": "rhf"
			},
			{
				"type": "occ",
				"energy": -0.24897,
				"method": "rhf"
			},
			{
				"type": "occ",
				"energy": -0.22838,
				"method": "rhf"
			},
			{
				"type": "unocc",
				"energy": -0.05207,
				"method": "rhf"
			},
			{
				"type": "unocc",
				"energy": 0.00013,
				"method": "rhf"
			},
			{
				"type": "unocc",
				"energy": 0.01179,
				"method": "rhf"
			},
			{
				"type": "unocc",
				"energy": 0.03056,
				"method": "rhf"
			},
			{
				"type": "unocc",
				"energy": 0.07424,
				"method": "rhf"
			}
		],
		"cosmo_sigma_profile": { 
			"-0.025": 0.0,
			"-0.024": 0.0,
			"-0.023": 0.0,
			"-0.022": 0.0,
			"-0.021": 0.0,
			"-0.02": 0.0,
			"-0.019": 0.0,
			"-0.018": 0.621166774018,
			"-0.017": 0.758585293979,
			"-0.016": 1.20913160469,
			"-0.015": 1.14670540542,
			"-0.014": 1.33267101746,
			"-0.013": 2.08458227491,
			"-0.012": 1.32370670712,
			"-0.011": 1.46141723927,
			"-0.01": 1.5628972563,
			"-0.009": 1.35616619007,
			"-0.008": 1.3852406227,
			"-0.007": 2.36238124715,
			"-0.006": 2.32899910479,
			"-0.005": 6.19083972131,
			"-0.004": 13.8049975215,
			"-0.003": 29.4446845564,
			"-0.002": 37.046324412,
			"-0.001": 38.4999083325,
			"0.0": 24.0625744849,
			"0.001": 18.1903853928,
			"0.002": 15.0242966184,
			"0.003": 12.516847829,
			"0.004": 6.90557032438,
			"0.005": 4.65430711582,
			"0.006": 4.9988038553,
			"0.007": 3.95835964379,
			"0.008": 4.43673111438,
			"0.009": 2.5653078625,
			"0.01": 2.88008672887,
			"0.011": 4.11577869183,
			"0.012": 4.54619307831,
			"0.013": 6.10969369261,
			"0.014": 2.14337048446,
			"0.015": 0.228532407969,
			"0.016": 0.0,
			"0.017": 0.0,
			"0.018": 0.0,
			"0.019": 0.0,
			"0.02": 0.0,
			"0.021": 0.0,
			"0.022": 0.0,
			"0.023": 0.0,
			"0.024": 0.0,
			"0.0": 0.0
		}
	}
}
