{
	 "smiles": "CC(=O)OC1=C(NC2=CC(=C(C=CC3=CC=CC=C3)C=C12)[N+]([O-])=O)C1=CC=CC=C1", 
	 "Tm": 497.15, 
	 "num_atms": 48, 
	 "gaussian": { 
		 "optdone": 1, 
		 "sigma_profile": "yes", 
		 "theory": "DFT", 
		 "functional": "B3LYP", 
		 "basiset": "6-31G**", 
		 "properties": { 
			 "R2extent": 18281.5066, 
			 "electric_dipole_moment_norm": 7.68366802315, 
			 "electric_quadrupole_moment_norm": 32.7232007316, 
			 "total_energy": -1335.71084354, 
			 "HOMO_LUMO_gap": 0.12229, 
			 "cosmo_polarized_energy": -22.07, 
			 "cosmo_cavitation_energy": 54.33, 
			 "cosmo_dispersion_energy": -37.34, 
			 "cosmo_repulsion_energy": 2.79, 
			 "cosmo_total_nonelectrostatic_energy": 19.77, 
			 "SMD_solvation_energy": 11.66 
		},
		"coords": [
			{
				"x": -2.8404824842,
				"y": -1.3706607923,
				"z": -0.8841501194,
				"element": "C" 
			},
			{
				"x": -1.8009554159,
				"y": -0.3056163309,
				"z": -0.6461804152,
				"element": "C" 
			},
			{
				"x": -1.8813704497,
				"y": 0.6196266673,
				"z": 0.1194971147,
				"element": "O" 
			},
			{
				"x": -0.7020426801,
				"y": -0.5441389723,
				"z": -1.4454690169,
				"element": "O" 
			},
			{
				"x": 0.3672469978,
				"y": 0.3335064793,
				"z": -1.3949981282,
				"element": "C" 
			},
			{
				"x": 0.8659992537,
				"y": 0.9893029918,
				"z": -2.5090726634,
				"element": "C" 
			},
			{
				"x": 1.9542379733,
				"y": 1.7456242695,
				"z": -2.0928370184,
				"element": "N" 
			},
			{
				"x": 2.1740067539,
				"y": 1.5479529207,
				"z": -0.7462501068,
				"element": "C" 
			},
			{
				"x": 3.1637903873,
				"y": 2.0484286694,
				"z": 0.0862616844,
				"element": "C" 
			},
			{
				"x": 3.1260381779,
				"y": 1.6850164377,
				"z": 1.431555241,
				"element": "C" 
			},
			{
				"x": 2.1238962972,
				"y": 0.8213452446,
				"z": 1.9799677924,
				"element": "C" 
			},
			{
				"x": 2.0772052956,
				"y": 0.3945314987,
				"z": 3.3884169728,
				"element": "C" 
			},
			{
				"x": 0.9277471071,
				"y": 0.1674233178,
				"z": 4.055376415,
				"element": "C" 
			},
			{
				"x": 0.7899145839,
				"y": -0.318276127,
				"z": 5.43252784,
				"element": "C" 
			},
			{
				"x": -0.4978696902,
				"y": -0.3990686157,
				"z": 5.994399262,
				"element": "C" 
			},
			{
				"x": -0.6914894343,
				"y": -0.8513350444,
				"z": 7.2984025395,
				"element": "C" 
			},
			{
				"x": 0.4025037549,
				"y": -1.2358886296,
				"z": 8.0744923499,
				"element": "C" 
			},
			{
				"x": 1.6895414319,
				"y": -1.1642085459,
				"z": 7.5317276209,
				"element": "C" 
			},
			{
				"x": 1.8822618807,
				"y": -0.7143625509,
				"z": 6.2293839774,
				"element": "C" 
			},
			{
				"x": 1.1634347763,
				"y": 0.3178993514,
				"z": 1.0947787146,
				"element": "C" 
			},
			{
				"x": 1.1655338466,
				"y": 0.6717869296,
				"z": -0.2602615618,
				"element": "C" 
			},
			{
				"x": 4.1709679957,
				"y": 2.2926354816,
				"z": 2.2641620074,
				"element": "N" 
			},
			{
				"x": 4.0584090875,
				"y": 2.2444800325,
				"z": 3.4911660332,
				"element": "O" 
			},
			{
				"x": 5.1165789452,
				"y": 2.8405791555,
				"z": 1.6887277958,
				"element": "O" 
			},
			{
				"x": 0.4197121644,
				"y": 1.0005970737,
				"z": -3.9032825604,
				"element": "C" 
			},
			{
				"x": 0.6670250018,
				"y": 2.1192260592,
				"z": -4.7210927627,
				"element": "C" 
			},
			{
				"x": 0.2633927654,
				"y": 2.129217996,
				"z": -6.0544193172,
				"element": "C" 
			},
			{
				"x": -0.3998258974,
				"y": 1.026412461,
				"z": -6.5956990289,
				"element": "C" 
			},
			{
				"x": -0.6570446474,
				"y": -0.0862813603,
				"z": -5.7912063523,
				"element": "C" 
			},
			{
				"x": -0.2514130568,
				"y": -0.1045358529,
				"z": -4.4589620156,
				"element": "C" 
			},
			{
				"x": -3.1698841984,
				"y": -1.342626954,
				"z": -1.92717996,
				"element": "H" 
			},
			{
				"x": -3.689234301,
				"y": -1.2001467698,
				"z": -0.2230882607,
				"element": "H" 
			},
			{
				"x": -2.4143513809,
				"y": -2.3613457655,
				"z": -0.7018331271,
				"element": "H" 
			},
			{
				"x": 2.6122925312,
				"y": 2.170520381,
				"z": -2.7268636742,
				"element": "H" 
			},
			{
				"x": 3.9468118944,
				"y": 2.7107233304,
				"z": -0.2595984879,
				"element": "H" 
			},
			{
				"x": 3.0266690946,
				"y": 0.2752942716,
				"z": 3.8942888973,
				"element": "H" 
			},
			{
				"x": -0.0137253834,
				"y": 0.387398078,
				"z": 3.5536012796,
				"element": "H" 
			},
			{
				"x": -1.3539231002,
				"y": -0.0977509966,
				"z": 5.3955819607,
				"element": "H" 
			},
			{
				"x": -1.6964371593,
				"y": -0.90218498,
				"z": 7.7080504279,
				"element": "H" 
			},
			{
				"x": 0.2567312338,
				"y": -1.588768729,
				"z": 9.0913066962,
				"element": "H" 
			},
			{
				"x": 2.5472300726,
				"y": -1.4628520965,
				"z": 8.1280178383,
				"element": "H" 
			},
			{
				"x": 2.8894249623,
				"y": -0.671462884,
				"z": 5.8269088159,
				"element": "H" 
			},
			{
				"x": 0.423995406,
				"y": -0.3772697966,
				"z": 1.4716081874,
				"element": "H" 
			},
			{
				"x": 1.1471428142,
				"y": 2.9996244091,
				"z": -4.3031169327,
				"element": "H" 
			},
			{
				"x": 0.4584165573,
				"y": 3.0039760367,
				"z": -6.6678003807,
				"element": "H" 
			},
			{
				"x": -0.7160997202,
				"y": 1.0350920234,
				"z": -7.6344480397,
				"element": "H" 
			},
			{
				"x": -1.1692269545,
				"y": -0.9495918168,
				"z": -6.2061251166,
				"element": "H" 
			},
			{
				"x": -0.4409830907,
				"y": -0.9759479564,
				"z": -3.8433724175,
				"element": "H" 
			}
		],
		 "valence_orbital": [ 
			{
				"type": "occ",
				"energy": -0.26871,
				"method": "rhf"
			},
			{
				"type": "occ",
				"energy": -0.24825,
				"method": "rhf"
			},
			{
				"type": "occ",
				"energy": -0.2458,
				"method": "rhf"
			},
			{
				"type": "occ",
				"energy": -0.21694,
				"method": "rhf"
			},
			{
				"type": "occ",
				"energy": -0.20355,
				"method": "rhf"
			},
			{
				"type": "unocc",
				"energy": -0.08126,
				"method": "rhf"
			},
			{
				"type": "unocc",
				"energy": -0.05125,
				"method": "rhf"
			},
			{
				"type": "unocc",
				"energy": -0.03029,
				"method": "rhf"
			},
			{
				"type": "unocc",
				"energy": -0.01949,
				"method": "rhf"
			},
			{
				"type": "unocc",
				"energy": -0.00443,
				"method": "rhf"
			}
		],
		"cosmo_sigma_profile": { 
			"-0.025": 0.0,
			"-0.024": 0.0,
			"-0.023": 0.0,
			"-0.022": 0.0,
			"-0.021": 0.0,
			"-0.02": 0.0,
			"-0.019": 0.0,
			"-0.018": 0.0,
			"-0.017": 0.136196754783,
			"-0.016": 1.32230431369,
			"-0.015": 1.50619075354,
			"-0.014": 1.26732794283,
			"-0.013": 1.05745626631,
			"-0.012": 1.63572028247,
			"-0.011": 1.79576471054,
			"-0.01": 1.36142161696,
			"-0.009": 1.94148896964,
			"-0.008": 2.35371891959,
			"-0.007": 7.22170195596,
			"-0.006": 25.6689516635,
			"-0.005": 34.307618847,
			"-0.004": 34.7273163676,
			"-0.003": 33.8230043754,
			"-0.002": 30.0723607855,
			"-0.001": 25.1500851932,
			"0.0": 26.9211226991,
			"0.001": 36.1986080889,
			"0.002": 34.0060526229,
			"0.003": 28.3630867032,
			"0.004": 29.7118120714,
			"0.005": 23.3725446723,
			"0.006": 12.1565344295,
			"0.007": 6.98751813296,
			"0.008": 9.87200987515,
			"0.009": 8.7911348691,
			"0.01": 6.82293063607,
			"0.011": 6.40404332918,
			"0.012": 1.74192497924,
			"0.013": 0.0324509795021,
			"0.014": 0.0,
			"0.015": 0.0,
			"0.016": 0.0,
			"0.017": 0.0,
			"0.018": 0.0,
			"0.019": 0.0,
			"0.02": 0.0,
			"0.021": 0.0,
			"0.022": 0.0,
			"0.023": 0.0,
			"0.024": 0.0,
			"0.025": 0.0
		}
	}
}
