{
	 "smiles": "CCSC(C)C", 
	 "Tm": 151.15, 
	 "num_atms": 18, 
	 "gaussian": { 
		 "optdone": 1, 
		 "sigma_profile": "yes", 
		 "theory": "DFT", 
		 "functional": "B3LYP", 
		 "basiset": "6-31G**", 
		 "properties": { 
			 "R2extent": 1233.4796, 
			 "electric_dipole_moment_norm": 1.75894446189, 
			 "electric_quadrupole_moment_norm": 5.66747815699, 
			 "total_energy": -595.964708746, 
			 "HOMO_LUMO_gap": 0.26003, 
			 "cosmo_polarized_energy": -4.24, 
			 "cosmo_cavitation_energy": 20.89, 
			 "cosmo_dispersion_energy": -15.62, 
			 "cosmo_repulsion_energy": 1.29, 
			 "cosmo_total_nonelectrostatic_energy": 6.56, 
			 "SMD_solvation_energy": 3.38 
		},
		"coords": [
			{
				"x": -0.2998400163,
				"y": 0.3309332029,
				"z": -1.3528266707,
				"element": "C" 
			},
			{
				"x": 0.7081780303,
				"y": 1.0390497676,
				"z": -0.4463501722,
				"element": "C" 
			},
			{
				"x": 1.4214174202,
				"y": -0.0259061982,
				"z": 0.8799032199,
				"element": "S" 
			},
			{
				"x": 0.4297708265,
				"y": 0.4103383834,
				"z": 2.3865808294,
				"element": "C" 
			},
			{
				"x": -1.0703292456,
				"y": 0.1440936163,
				"z": 2.2299281857,
				"element": "C" 
			},
			{
				"x": 0.7199356277,
				"y": 1.8272307313,
				"z": 2.8924821016,
				"element": "C" 
			},
			{
				"x": -1.1795844222,
				"y": -0.0010923481,
				"z": -0.7952826452,
				"element": "H" 
			},
			{
				"x": -0.6348820076,
				"y": 1.0059260572,
				"z": -2.1500574942,
				"element": "H" 
			},
			{
				"x": 0.1485712009,
				"y": -0.5501370193,
				"z": -1.8209692977,
				"element": "H" 
			},
			{
				"x": 0.2701166403,
				"y": 1.9275135306,
				"z": 0.0184158073,
				"element": "H" 
			},
			{
				"x": 1.5660016445,
				"y": 1.3852117585,
				"z": -1.0306121021,
				"element": "H" 
			},
			{
				"x": 0.8360240994,
				"y": -0.3062695774,
				"z": 3.1107036819,
				"element": "H" 
			},
			{
				"x": -1.2609767974,
				"y": -0.8812320051,
				"z": 1.9029792381,
				"element": "H" 
			},
			{
				"x": -1.5830476081,
				"y": 0.3031489338,
				"z": 3.1863823889,
				"element": "H" 
			},
			{
				"x": -1.5223171558,
				"y": 0.8258979934,
				"z": 1.5016539661,
				"element": "H" 
			},
			{
				"x": 0.3732177596,
				"y": 2.5862285774,
				"z": 2.1826781169,
				"element": "H" 
			},
			{
				"x": 1.7900031161,
				"y": 1.9785342128,
				"z": 3.0538143903,
				"element": "H" 
			},
			{
				"x": 0.1969408874,
				"y": 2.0053303828,
				"z": 3.8400764559,
				"element": "H" 
			}
		],
		 "valence_orbital": [ 
			{
				"type": "occ",
				"energy": -0.35561,
				"method": "rhf"
			},
			{
				"type": "occ",
				"energy": -0.34788,
				"method": "rhf"
			},
			{
				"type": "occ",
				"energy": -0.31953,
				"method": "rhf"
			},
			{
				"type": "occ",
				"energy": -0.28804,
				"method": "rhf"
			},
			{
				"type": "occ",
				"energy": -0.21319,
				"method": "rhf"
			},
			{
				"type": "unocc",
				"energy": 0.04684,
				"method": "rhf"
			},
			{
				"type": "unocc",
				"energy": 0.0714,
				"method": "rhf"
			},
			{
				"type": "unocc",
				"energy": 0.08561,
				"method": "rhf"
			},
			{
				"type": "unocc",
				"energy": 0.11664,
				"method": "rhf"
			},
			{
				"type": "unocc",
				"energy": 0.12235,
				"method": "rhf"
			}
		],
		"cosmo_sigma_profile": { 
			"-0.025": 0.0,
			"-0.024": 0.0,
			"-0.023": 0.0,
			"-0.022": 0.0,
			"-0.021": 0.0,
			"-0.02": 0.0,
			"-0.019": 0.0,
			"-0.018": 0.0,
			"-0.017": 0.0,
			"-0.016": 0.0,
			"-0.015": 0.0,
			"-0.014": 0.0,
			"-0.013": 0.0,
			"-0.012": 0.0,
			"-0.011": 0.0,
			"-0.01": 0.0,
			"-0.009": 0.0,
			"-0.008": 0.0,
			"-0.007": 0.0,
			"-0.006": 0.12503390957,
			"-0.005": 5.45333654127,
			"-0.004": 9.96571697835,
			"-0.003": 23.9344693928,
			"-0.002": 23.7989609378,
			"-0.001": 26.7803560984,
			"0.0": 22.566805654,
			"0.001": 18.8898945339,
			"0.002": 5.13308534391,
			"0.003": 3.53657635669,
			"0.004": 2.86344804676,
			"0.005": 3.17913872167,
			"0.006": 3.19117952974,
			"0.007": 3.30938504707,
			"0.008": 3.48737033681,
			"0.009": 2.21729501238,
			"0.01": 2.45362014158,
			"0.011": 1.68149870264,
			"0.012": 1.02374346365,
			"0.013": 0.0,
			"0.014": 0.0,
			"0.015": 0.0,
			"0.016": 0.0,
			"0.017": 0.0,
			"0.018": 0.0,
			"0.019": 0.0,
			"0.02": 0.0,
			"0.021": 0.0,
			"0.022": 0.0,
			"0.023": 0.0,
			"0.024": 0.0,
			"0.025": 0.0
		}
	}
}
