{
	 "smiles": "CCCN1C(C)=CC(C=C(C#N)C(O)=O)=C1C", 
	 "Tm": 473.15, 
	 "num_atms": 33, 
	 "gaussian": { 
		 "optdone": 1, 
		 "sigma_profile": "yes", 
		 "theory": "DFT", 
		 "functional": "B3LYP", 
		 "basiset": "6-31G**", 
		 "properties": { 
			 "R2extent": 6174.73, 
			 "electric_dipole_moment_norm": 7.53021370347, 
			 "electric_quadrupole_moment_norm": 6.61283840344, 
			 "total_energy": -764.98378376, 
			 "HOMO_LUMO_gap": 0.14686, 
			 "cosmo_polarized_energy": -19.24, 
			 "cosmo_cavitation_energy": 36.67, 
			 "cosmo_dispersion_energy": -25.12, 
			 "cosmo_repulsion_energy": 1.95, 
			 "cosmo_total_nonelectrostatic_energy": 13.5, 
			 "SMD_solvation_energy": 8.64 
		},
		"coords": [
			{
				"x": 2.5636971909,
				"y": 3.0142709988,
				"z": 1.0922110888,
				"element": "C" 
			},
			{
				"x": 3.1151374769,
				"y": 2.2657921878,
				"z": -0.1238347764,
				"element": "C" 
			},
			{
				"x": 2.1316812403,
				"y": 2.1341934609,
				"z": -1.300634172,
				"element": "C" 
			},
			{
				"x": 0.9297580643,
				"y": 1.3538752065,
				"z": -1.0032222408,
				"element": "N" 
			},
			{
				"x": 0.8858498944,
				"y": -0.0480887865,
				"z": -0.9632612359,
				"element": "C" 
			},
			{
				"x": 2.0669264386,
				"y": -0.9076583162,
				"z": -1.2824243978,
				"element": "C" 
			},
			{
				"x": -0.3876152318,
				"y": -0.4189236093,
				"z": -0.6352819131,
				"element": "C" 
			},
			{
				"x": -1.171009696,
				"y": 0.7761099095,
				"z": -0.4699861596,
				"element": "C" 
			},
			{
				"x": -2.5483524077,
				"y": 0.9274480377,
				"z": -0.1357847545,
				"element": "C" 
			},
			{
				"x": -3.5068891018,
				"y": -0.016402563,
				"z": 0.1286730682,
				"element": "C" 
			},
			{
				"x": -3.2621230859,
				"y": -1.4210534081,
				"z": 0.1098840102,
				"element": "C" 
			},
			{
				"x": -3.0416014443,
				"y": -2.5650132043,
				"z": 0.08932399,
				"element": "N" 
			},
			{
				"x": -4.8695276122,
				"y": 0.4697674283,
				"z": 0.4507069389,
				"element": "C" 
			},
			{
				"x": -5.7370658447,
				"y": -0.5395764486,
				"z": 0.6942157289,
				"element": "O" 
			},
			{
				"x": -5.2001171221,
				"y": 1.6411653481,
				"z": 0.4981084428,
				"element": "O" 
			},
			{
				"x": -0.3083727755,
				"y": 1.862492263,
				"z": -0.7146131599,
				"element": "C" 
			},
			{
				"x": -0.6032102572,
				"y": 3.3289365392,
				"z": -0.7292769719,
				"element": "C" 
			},
			{
				"x": 3.3099273417,
				"y": 3.0540625442,
				"z": 1.8913872892,
				"element": "H" 
			},
			{
				"x": 2.2969760218,
				"y": 4.0467656584,
				"z": 0.8398547243,
				"element": "H" 
			},
			{
				"x": 1.6739233497,
				"y": 2.5211502273,
				"z": 1.4959953041,
				"element": "H" 
			},
			{
				"x": 3.4491340228,
				"y": 1.2675492837,
				"z": 0.1795740762,
				"element": "H" 
			},
			{
				"x": 4.0043854296,
				"y": 2.7824107216,
				"z": -0.5068044149,
				"element": "H" 
			},
			{
				"x": 2.6370091411,
				"y": 1.6621996142,
				"z": -2.1491088169,
				"element": "H" 
			},
			{
				"x": 1.813743947,
				"y": 3.1251500627,
				"z": -1.6343114194,
				"element": "H" 
			},
			{
				"x": 2.8923182478,
				"y": -0.785483296,
				"z": -0.571196025,
				"element": "H" 
			},
			{
				"x": 2.4675053087,
				"y": -0.7112054401,
				"z": -2.284899548,
				"element": "H" 
			},
			{
				"x": 1.7596306297,
				"y": -1.9551868867,
				"z": -1.2524455568,
				"element": "H" 
			},
			{
				"x": -0.7370182666,
				"y": -1.434482993,
				"z": -0.5311632438,
				"element": "H" 
			},
			{
				"x": -2.9317382064,
				"y": 1.94293595,
				"z": -0.0703237459,
				"element": "H" 
			},
			{
				"x": -6.5885619099,
				"y": -0.1166674692,
				"z": 0.8918344969,
				"element": "H" 
			},
			{
				"x": -0.0020937217,
				"y": 3.8830316143,
				"z": -0.0007182627,
				"element": "H" 
			},
			{
				"x": -1.6520339395,
				"y": 3.5084013317,
				"z": -0.4901116649,
				"element": "H" 
			},
			{
				"x": -0.4170731217,
				"y": 3.7718340332,
				"z": -1.7156666783,
				"element": "H" 
			}
		],
		 "valence_orbital": [ 
			{
				"type": "occ",
				"energy": -0.31328,
				"method": "rhf"
			},
			{
				"type": "occ",
				"energy": -0.29399,
				"method": "rhf"
			},
			{
				"type": "occ",
				"energy": -0.26987,
				"method": "rhf"
			},
			{
				"type": "occ",
				"energy": -0.23622,
				"method": "rhf"
			},
			{
				"type": "occ",
				"energy": -0.21033,
				"method": "rhf"
			},
			{
				"type": "unocc",
				"energy": -0.06347,
				"method": "rhf"
			},
			{
				"type": "unocc",
				"energy": 0.02231,
				"method": "rhf"
			},
			{
				"type": "unocc",
				"energy": 0.0356,
				"method": "rhf"
			},
			{
				"type": "unocc",
				"energy": 0.04499,
				"method": "rhf"
			},
			{
				"type": "unocc",
				"energy": 0.0626,
				"method": "rhf"
			}
		],
		"cosmo_sigma_profile": { 
			"-0.025": 0.0,
			"-0.024": 0.0,
			"-0.023": 0.0,
			"-0.022": 0.0,
			"-0.021": 0.0,
			"-0.02": 0.0,
			"-0.019": 0.0470295199281,
			"-0.018": 1.07520837948,
			"-0.017": 0.577434440817,
			"-0.016": 0.930533744568,
			"-0.015": 0.869523365005,
			"-0.014": 0.611643706118,
			"-0.013": 0.50307283357,
			"-0.012": 0.958731337883,
			"-0.011": 0.60114022382,
			"-0.01": 0.9152483159,
			"-0.009": 0.393637966056,
			"-0.008": 2.09732216077,
			"-0.007": 4.12785691778,
			"-0.006": 11.3173969828,
			"-0.005": 17.9272779918,
			"-0.004": 24.377460567,
			"-0.003": 29.5349610491,
			"-0.002": 30.6135856411,
			"-0.001": 31.7526909404,
			"0.0": 26.4528583224,
			"0.001": 20.2580579185,
			"0.002": 12.6770497013,
			"0.003": 9.21553750916,
			"0.004": 8.87296558697,
			"0.005": 7.94859032105,
			"0.006": 6.47610867883,
			"0.007": 4.82017013733,
			"0.008": 7.50910752773,
			"0.009": 5.45176810476,
			"0.01": 5.12687751448,
			"0.011": 5.71191563046,
			"0.012": 7.59006099164,
			"0.013": 2.70603517013,
			"0.014": 0.629937603511,
			"0.015": 0.0,
			"0.016": 0.0,
			"0.017": 0.0,
			"0.018": 0.0,
			"0.019": 0.0,
			"0.02": 0.0,
			"0.021": 0.0,
			"0.022": 0.0,
			"0.023": 0.0,
			"0.024": 0.0,
			"0.025": 0.0
		}
	}
}
